G1.5cooh-PAMAM in water
31472
    1aaa     N1    1   1.716   6.317   4.631 -0.5088 -0.1671 -0.0923
    1aaa     C1    2   1.758   6.313   4.776  0.6264 -0.1169  0.0572
    1aaa     C2    3   1.848   6.424   4.827 -0.6920 -0.0310 -0.3037
    1aaa     N2    4   1.849   6.435   4.988 -0.2191 -0.3987  0.2545
    1aaa     C3    5   1.925   6.559   5.047  0.1803  0.3013 -0.4092
    1aaa     C4    6   1.902   6.306   5.041  0.7497  0.3884 -0.3083
    1aaa     C5    7   1.679   6.462   4.590  0.6651 -0.8889 -0.2191
    1aaa     C6    8   1.592   6.229   4.617  0.2825 -0.0217  0.1337
    1aaa     C7    9   1.911   6.280   5.197  0.4738 -0.1363 -0.3200
    1aaa     C8   10   1.909   6.128   5.235 -0.5398  0.2369 -0.1091
    1aaa     C9   11   1.877   6.702   5.011 -0.2090 -0.3702  0.5803
    1aaa    C10   12   1.988   6.803   5.051  0.2738 -0.2836 -0.1886
    1aaa    C11   13   1.635   6.477   4.439  0.1746  0.0503  0.1736
    1aaa    C12   14   1.571   6.620   4.418 -0.4767  0.3808 -0.5616
    1aaa    C13   15   1.635   6.107   4.518  0.2535 -0.0855 -0.5584
    1aaa    C14   16   1.533   5.993   4.503  0.3431  0.4911 -0.6946
    1aaa     O1   17   2.103   6.764   5.041  0.1761  0.1913 -0.7813
    1aaa     O2   18   1.905   6.031   5.159  0.1826  0.3991 -0.0424
    1aaa     O3   19   1.421   5.991   4.547  0.2229 -0.4747 -0.1710
    1aaa     O4   20   1.615   6.712   4.482 -0.4194 -0.3334  0.0421
    1aaa     H1   21   1.795   6.214   4.800 -2.0026 -1.3272 -0.5289
    1aaa     H2   22   1.660   6.320   4.824  2.0690  0.7814  3.1021
    1aaa     H3   23   1.817   6.518   4.783 -0.3104 -0.6497 -1.9896
    1aaa     H4   24   1.948   6.400   4.790 -0.7759  1.5275 -1.6407
    1aaa     H5   25   2.030   6.551   5.021 -0.2070 -0.9335 -1.6955
    1aaa     H6   26   1.920   6.547   5.156  0.4247  0.7928 -0.3445
    1aaa     H7   27   1.835   6.227   5.007  1.1462  0.3787 -1.0923
    1aaa     H8   28   1.995   6.296   4.986 -0.3662  0.1846 -2.2324
    1aaa     H9   29   1.591   6.484   4.650  1.7857  2.4196  0.3872
    1aaa    H10   30   1.753   6.532   4.630 -0.8110  0.0771  0.8993
    1aaa    H11   31   1.558   6.204   4.718  2.8508 -0.6865  0.9167
    1aaa    H12   32   1.518   6.286   4.560 -0.0501  0.5200  1.0739
    1aaa    H13   33   2.003   6.323   5.240 -0.7600  1.4499  0.8256
    1aaa    H14   34   1.823   6.323   5.245 -0.7505 -1.4508 -1.3047
    1aaa    H15   35   1.789   6.732   5.070 -0.2006  0.7092  0.0762
    1aaa    H16   36   1.861   6.708   4.903  1.1470 -1.9522  0.2532
    1aaa    H17   37   1.717   6.469   4.368  0.2711 -1.4827  0.4196
    1aaa    H18   38   1.566   6.398   4.406  0.6666  0.1551 -1.1446
    1aaa    H19   39   1.677   6.149   4.426  1.1954 -1.1948 -0.6442
    1aaa    H20   40   1.719   6.063   4.573 -0.4414 -1.4865 -0.5664
    1aaa    H37   41   1.795   6.281   4.575 -0.4686  0.1576 -0.2509
    1aaa    H38   42   1.749   6.439   5.012 -0.2190 -2.8991  0.9476
    2bbb     N1   43   1.920   5.872   5.659  0.5370  0.3007 -0.0677
    2bbb     C1   44   1.919   5.910   5.804 -0.3355  0.0519 -0.0991
    2bbb     C2   45   2.019   5.766   5.624  0.3593  0.0457 -0.4065
    2bbb     C3   46   1.803   5.998   5.862  0.8013  0.1286  0.8280
    2bbb     C4   47   1.829   6.043   5.999 -0.8405  0.0130  1.0248
    2bbb     C5   48   2.026   5.638   5.720  0.5711 -0.8843  0.4114
    2bbb     C6   49   2.126   5.539   5.676 -1.0939 -0.5006 -0.5197
    2bbb     C7   50   1.946   5.990   5.575 -0.5002 -0.1061  0.2027
    2bbb     C8   51   1.922   5.978   5.430 -0.4239 -0.0904 -0.2424
    2bbb     N2   52   1.902   6.108   5.373 -0.0482  0.3440 -0.3083
    2bbb     O1   53   1.924   5.998   6.060 -0.1607 -0.0271  0.2783
    2bbb     O2   54   2.093   5.434   5.632  1.3956 -0.0118  0.0059
    2bbb     H1   55   1.926   5.818   5.862 -1.5275 -1.3028 -1.9711
    2bbb     H2   56   2.013   5.964   5.817 -0.5711  0.3116  0.5779
    2bbb     H3   57   2.118   5.812   5.630  1.0548 -1.1114 -2.0507
    2bbb     H4   58   2.005   5.727   5.523  0.0202 -1.1288  0.0751
    2bbb     H5   59   1.797   6.081   5.790 -1.0792  0.2435  1.0764
    2bbb     H6   60   1.718   5.931   5.873  0.3277  0.6016  0.1181
    2bbb     H7   61   1.926   5.593   5.716  0.5374 -0.8765  1.1084
    2bbb     H8   62   2.046   5.656   5.826 -2.8853 -2.5376  1.5153
    2bbb     H9   63   2.054   6.005   5.580 -0.5577  0.7077 -0.6901
    2bbb    H10   64   1.892   6.076   5.615 -0.2701  0.2076 -0.1614
    2bbb    H11   65   1.823   5.931   5.427 -0.7525  0.4748  1.0530
    2bbb    H12   66   1.999   5.923   5.375 -0.9878 -0.5467 -0.5939
    2bbb    H13   67   1.861   6.180   5.431 -0.1897 -2.1158  2.9372
    2bbb    H25   68   1.829   5.829   5.635 -0.4510  1.5419  1.2972
    3bbb     N1   69   2.120   7.270   5.208  0.5911 -0.4857  0.1563
    3bbb     C1   70   2.066   7.405   5.240 -0.5869 -0.7071  0.0300
    3bbb     C2   71   2.237   7.293   5.120  0.1173 -0.3229 -0.5753
    3bbb     C3   72   1.940   7.398   5.327  0.1645 -0.0598 -0.4468
    3bbb     C4   73   1.884   7.526   5.387  0.1435 -0.1402  0.2502
    3bbb     C5   74   2.368   7.309   5.196 -0.1557 -0.0346 -0.4037
    3bbb     C6   75   2.500   7.314   5.111  0.1311  0.1774  0.7469
    3bbb     C7   76   2.015   7.172   5.142  0.5651  0.7638 -0.7266
    3bbb     C8   77   2.053   7.024   5.143 -0.1638 -0.0733  0.7471
    3bbb     N2   78   1.948   6.929   5.094 -0.7542 -0.1060  0.4158
    3bbb     O1   79   1.955   7.606   5.443 -0.5762  0.1916  0.0943
    3bbb     O2   80   2.499   7.290   4.992  0.0389 -0.2829 -0.0470
    3bbb     H1   81   2.149   7.447   5.297 -0.5523 -0.4404 -0.2169
    3bbb     H2   82   2.046   7.470   5.155  1.2169  1.1846  0.9522
    3bbb     H3   83   2.217   7.384   5.064  1.5206 -0.5767 -1.5512
    3bbb     H4   84   2.222   7.210   5.051 -0.6441  0.4956 -1.4196
    3bbb     H5   85   1.856   7.347   5.277 -0.5724  0.2789  0.4143
    3bbb     H6   86   1.950   7.329   5.411  1.7389 -0.6209 -1.0476
    3bbb     H7   87   2.378   7.235   5.276  1.0501  1.2784  0.7135
    3bbb     H8   88   2.361   7.397   5.261  0.1543 -1.1694  1.2388
    3bbb     H9   89   2.010   7.205   5.038 -1.3734  3.2689  0.0612
    3bbb    H10   90   1.918   7.197   5.183  1.1905  2.6617 -0.2848
    3bbb    H11   91   2.077   6.984   5.242 -0.0243 -0.7921  0.4251
    3bbb    H12   92   2.142   7.016   5.080 -1.4254 -1.8399 -0.9478
    3bbb    H13   93   1.848   6.949   5.090 -1.1806 -2.1329 -0.4258
    3bbb    H25   94   2.149   7.236   5.301 -1.5442  2.8153  2.2259
    4bbb     N1   95   1.335   6.681   4.061  0.3329 -0.1948 -0.1728
    4bbb     C1   96   1.392   6.775   3.962 -0.0417  0.2976  0.3571
    4bbb     C2   97   1.202   6.634   4.018 -0.3409 -0.1186  0.0910
    4bbb     C3   98   1.469   6.711   3.841 -0.6059 -0.4321 -0.5554
    4bbb     C4   99   1.561   6.806   3.765  0.2810 -0.8744 -0.1002
    4bbb     C5  100   1.141   6.513   4.094  0.5306  0.2101  0.1165
    4bbb     C6  101   0.988   6.504   4.074 -0.9454 -0.0152  0.0791
    4bbb     C7  102   1.301   6.745   4.195  0.1906 -0.2165  0.7920
    4bbb     C8  103   1.413   6.762   4.301  0.2052  0.0205  0.2867
    4bbb     N2  104   1.470   6.629   4.330  0.3725  0.1215  0.4017
    4bbb     O1  105   1.522   6.881   3.676  0.0297  0.1249 -0.4354
    4bbb     O2  106   0.943   6.486   3.963  0.0795 -0.7396  0.1033
    4bbb     H1  107   1.304   6.828   3.926  0.3773  0.5268 -0.3599
    4bbb     H2  108   1.452   6.851   4.013 -2.4999  1.8409  1.1169
    4bbb     H3  109   1.211   6.606   3.913 -2.7677  2.2134 -0.8579
    4bbb     H4  110   1.133   6.718   4.017 -0.4381 -0.1657  1.4443
    4bbb     H5  111   1.537   6.638   3.887 -1.0370 -0.5375 -0.0734
    4bbb     H6  112   1.399   6.663   3.772 -0.5826 -1.5608  0.1803
    4bbb     H7  113   1.154   6.510   4.203  0.4521 -3.1724  0.1446
    4bbb     H8  114   1.181   6.415   4.064 -0.5753 -0.3998  0.5595
    4bbb     H9  115   1.219   6.690   4.242 -0.9412  1.8299  1.3478
    4bbb    H10  116   1.255   6.843   4.180 -1.4716 -1.0989 -0.1817
    4bbb    H11  117   1.374   6.819   4.386  1.8636  0.4575  0.7778
    4bbb    H12  118   1.497   6.818   4.259  0.2108  0.5258  0.9602
    4bbb    H13  119   1.450   6.550   4.270  0.6546  1.0591 -0.9809
    4bbb    H25  120   1.399   6.605   4.087  0.9161  0.8842  1.8160
    5bbb     N1  121   1.445   5.539   4.282  0.0172  0.1210 -0.1894
    5bbb     C1  122   1.439   5.454   4.407  0.0748 -0.5851 -0.3714
    5bbb     C2  123   1.487   5.468   4.158 -0.8479  0.0438 -0.0047
    5bbb     C3  124   1.571   5.410   4.470  0.2336  0.8833  0.4690
    5bbb     C4  125   1.544   5.352   4.606  0.4040  0.0503 -0.5088
    5bbb     C5  126   1.386   5.364   4.113  0.2736  0.6941 -0.5191
    5bbb     C6  127   1.385   5.362   3.956  0.9120 -0.8309 -0.0357
    5bbb     C7  128   1.532   5.673   4.299  0.5575  0.1422  0.4360
    5bbb     C8  129   1.477   5.785   4.375  0.1641 -1.0476 -0.5768
    5bbb     N2  130   1.577   5.885   4.427 -0.2018  0.1681 -0.0686
    5bbb     O1  131   1.460   5.392   4.685 -0.0914 -0.0495  0.0343
    5bbb     O2  132   1.481   5.370   3.889 -0.2553 -0.7081  0.0345
    5bbb     H1  133   1.386   5.520   4.476 -1.1126  0.8392 -2.4927
    5bbb     H2  134   1.370   5.370   4.395  0.8506 -1.2554 -0.2061
    5bbb     H3  135   1.581   5.415   4.174  0.0985  1.4527 -0.6252
    5bbb     H4  136   1.491   5.549   4.084  2.0650 -0.3462 -0.4048
    5bbb     H5  137   1.619   5.331   4.411  0.8942  1.7011 -0.1260
    5bbb     H6  138   1.647   5.489   4.482  0.7943  0.5133 -0.5280
    5bbb     H7  139   1.285   5.390   4.146  0.6012 -1.0175  2.1014
    5bbb     H8  140   1.405   5.267   4.160  2.7395  2.4272  2.3915
    5bbb     H9  141   1.560   5.698   4.197  2.0203 -1.4870  0.3905
    5bbb    H10  142   1.624   5.649   4.353 -0.1156 -0.6258  1.2604
    5bbb    H11  143   1.421   5.738   4.456  2.1804 -2.1820  0.2355
    5bbb    H12  144   1.408   5.834   4.305 -1.3375 -0.0487  1.4816
    5bbb    H13  145   1.661   5.881   4.370 -1.1197 -2.6878 -1.4267
    5bbb    H25  146   1.347   5.570   4.270  0.4412  1.0942 -1.3444
    6bbb     N1  147   1.599   6.115   6.418 -0.1243  0.3351 -0.0404
    6bbb     C1  148   1.700   6.022   6.484  0.2669 -0.4897 -0.1934
    6bbb     C2  149   1.460   6.077   6.467 -0.0780  0.3889 -0.3405
    6bbb     C3  150   1.729   6.050   6.630 -0.2060 -0.1827  0.5407
    6bbb     C4  151   1.822   5.948   6.686  0.6881  0.2591  0.3806
    6bbb     C5  152   1.343   6.178   6.447 -0.1380  0.7201  0.4768
    6bbb     C6  153   1.377   6.324   6.485  0.2681 -0.4151 -0.4084
    6bbb     C7  154   1.591   6.112   6.262 -0.0859  0.5474 -0.2738
    6bbb     C8  155   1.723   6.161   6.196  0.3255  0.0633  0.0159
    6bbb     N2  156   1.735   6.135   6.046 -0.0702 -0.1065 -0.6768
    6bbb     O1  157   1.861   5.852   6.615  0.0089  0.1044  0.1250
    6bbb     O2  158   1.487   6.369   6.462  0.2564  0.4167 -0.2629
    6bbb     H1  159   1.672   5.918   6.466 -0.5323  0.1088 -2.7368
    6bbb     H2  160   1.791   6.040   6.427  0.6004  0.5918  0.6520
    6bbb     H3  161   1.476   6.075   6.574  4.4801 -0.8072 -0.8351
    6bbb     H4  162   1.434   5.984   6.416  0.5456 -0.4551  0.8512
    6bbb     H5  163   1.761   6.155   6.639  0.8924 -0.4821  0.2431
    6bbb     H6  164   1.641   6.039   6.695 -2.5181  2.8309 -1.7496
    6bbb     H7  165   1.254   6.131   6.490 -0.2778 -1.6363 -2.0794
    6bbb     H8  166   1.317   6.181   6.340  2.3629 -0.3644 -0.2357
    6bbb     H9  167   1.509   6.175   6.228 -1.9565 -0.7405  1.5760
    6bbb    H10  168   1.585   6.008   6.228  0.3097  0.2424  0.5416
    6bbb    H11  169   1.807   6.115   6.250  1.8974  2.0376 -0.5963
    6bbb    H12  170   1.736   6.269   6.209 -0.8615  0.1467  0.5955
    6bbb    H13  171   1.660   6.144   5.979  0.7259  0.1788 -1.5505
    6bbb    H25  172   1.608   6.214   6.445 -1.8292  0.0160  2.0045
    7bbb     N1  173   2.614   5.403   5.757 -0.0111 -0.7625  0.1903
    7bbb     C1  174   2.585   5.294   5.867  0.0726 -0.4272 -0.3567
    7bbb     C2  175   2.756   5.465   5.773 -1.4806  0.0423  0.6016
    7bbb     C3  176   2.685   5.178   5.866  0.1215 -0.2379 -0.4613
    7bbb     C4  177   2.658   5.081   5.977 -0.0270 -0.4837  0.0600
    7bbb     C5  178   2.796   5.559   5.895 -0.4641 -0.2473 -0.8476
    7bbb     C6  179   2.933   5.521   5.950  0.1115 -0.0861  0.1421
    7bbb     C7  180   2.500   5.513   5.761 -0.1742 -0.3445 -0.6765
    7bbb     C8  181   2.365   5.466   5.713 -0.0192  0.3519 -0.6226
    7bbb     N2  182   2.260   5.564   5.700  0.1972  0.2344 -0.3620
    7bbb     O1  183   2.546   5.070   6.024  1.2968 -0.5222 -0.7717
    7bbb     O2  184   2.990   5.418   5.927 -0.1871  0.2173 -0.0015
    7bbb     H1  185   2.570   5.338   5.965 -0.3834 -2.4108  0.5126
    7bbb     H2  186   2.490   5.252   5.831  0.5544 -2.9483  1.0654
    7bbb     H3  187   2.791   5.513   5.682 -1.7591 -0.2528  0.3370
    7bbb     H4  188   2.817   5.375   5.785 -0.5874  0.5916  0.2989
    7bbb     H5  189   2.688   5.126   5.770  0.8083  0.7153 -0.9768
    7bbb     H6  190   2.785   5.222   5.872  0.4979 -1.0168 -0.9049
    7bbb     H7  191   2.730   5.542   5.980 -0.7287  2.6302 -0.3778
    7bbb     H8  192   2.788   5.664   5.863 -0.5374  0.5367  1.5778
    7bbb     H9  193   2.530   5.593   5.693 -0.3294  0.4736  0.1833
    7bbb    H10  194   2.495   5.554   5.862  0.2636 -3.4351  0.6877
    7bbb    H11  195   2.322   5.397   5.786  0.7067 -0.8488 -1.3082
    7bbb    H12  196   2.371   5.406   5.622  2.4104  1.1919 -1.0760
    7bbb    H13  197   2.287   5.649   5.747  0.5788  0.1970 -0.5103
    7bbb    H25  198   2.622   5.366   5.661  0.3757  2.3338 -1.1015
    8bbb     N1  199   1.793   7.827   5.259 -0.1977  0.1199  0.0304
    8bbb     C1  200   1.853   7.919   5.365  0.4279 -0.5095  0.5941
    8bbb     C2  201   1.766   7.905   5.132  0.1071  0.3653  0.1336
    8bbb     C3  202   2.000   7.937   5.351 -0.7411 -0.2524 -0.0596
    8bbb     C4  203   2.045   8.048   5.442 -0.8700 -0.4552 -0.1644
    8bbb     C5  204   1.676   8.031   5.133 -0.4361 -0.1281  0.4123
    8bbb     C6  205   1.651   8.075   4.992  0.2281 -0.4388  0.6160
    8bbb     C7  206   1.664   7.775   5.306 -0.1488 -0.3759  0.4535
    8bbb     C8  207   1.670   7.660   5.408  0.3475 -0.2179  0.0772
    8bbb     N2  208   1.753   7.542   5.373  1.0057  0.5587 -0.4560
    8bbb     O1  209   2.118   8.138   5.406  0.0699 -0.4573 -0.0293
    8bbb     O2  210   1.734   8.135   4.924 -0.2877 -0.3520 -0.1013
    8bbb     H1  211   1.807   8.017   5.357 -0.9596 -1.0945  1.0905
    8bbb     H2  212   1.821   7.882   5.462 -2.8628  1.1137  0.2507
    8bbb     H3  213   1.723   7.832   5.063 -0.7889  0.9705  0.0198
    8bbb     H4  214   1.869   7.923   5.103 -0.0571 -2.2458 -2.5682
    8bbb     H5  215   2.046   7.841   5.377 -0.3274  0.0044  0.1657
    8bbb     H6  216   2.038   7.952   5.249  1.1100  0.2897  0.6509
    8bbb     H7  217   1.723   8.119   5.179 -0.7894  0.6689 -0.7183
    8bbb     H8  218   1.582   8.013   5.187  0.2933 -1.9705  1.1612
    8bbb     H9  219   1.603   7.735   5.224  0.4809  1.5714 -1.0282
    8bbb    H10  220   1.597   7.848   5.352 -2.2418 -1.6592 -0.3804
    8bbb    H11  221   1.567   7.626   5.426  0.5218 -0.0211  1.5923
    8bbb    H12  222   1.706   7.703   5.502  1.3063 -0.5441 -0.1286
    8bbb    H13  223   1.703   7.462   5.336  2.4769 -0.7136  0.2138
    8bbb    H25  224   1.852   7.750   5.225 -2.1872 -1.1073 -0.8073
    9bbb     N1  225   2.831   7.342   5.378 -0.1952 -0.0241 -0.7361
    9bbb     C1  226   2.919   7.419   5.478 -0.3391  0.0865 -0.0021
    9bbb     C2  227   2.838   7.188   5.385 -0.4732 -0.9954  0.2112
    9bbb     C3  228   2.892   7.557   5.524  0.4338 -0.1374  0.2226
    9bbb     C4  229   3.014   7.604   5.605 -0.3259  0.3471  0.1914
    9bbb     C5  230   2.779   7.132   5.521  0.2721  0.4216  0.6101
    9bbb     C6  231   2.807   6.981   5.537  0.3200  0.2475 -0.0246
    9bbb     C7  232   2.855   7.395   5.230 -0.2584 -0.0025 -0.3896
    9bbb     C8  233   2.746   7.359   5.120  0.4754 -0.5988 -0.8365
    9bbb     N2  234   2.612   7.353   5.178  0.5408 -0.3896  0.3942
    9bbb     O1  235   3.125   7.552   5.594  0.2457 -0.2022  0.1566
    9bbb     O2  236   2.907   6.922   5.494  0.3517  0.0785 -0.4346
    9bbb     H1  237   2.919   7.357   5.567  3.1788 -0.3635 -0.1600
    9bbb     H2  238   3.019   7.411   5.434 -0.6548  0.6402 -0.8459
    9bbb     H3  239   2.938   7.146   5.380 -0.3540 -0.6497 -0.6591
    9bbb     H4  240   2.785   7.143   5.300  0.1757  3.3787 -2.8934
    9bbb     H5  241   2.879   7.626   5.441 -1.2740 -1.0757 -0.3506
    9bbb     H6  242   2.796   7.560   5.578  1.2178  1.2018  1.6299
    9bbb     H7  243   2.671   7.152   5.519  0.1664  0.3371  2.7653
    9bbb     H8  244   2.813   7.180   5.614  0.7913 -0.3969  0.8557
    9bbb     H9  245   2.953   7.353   5.204 -0.8059 -3.9221  2.9631
    9bbb    H10  246   2.862   7.503   5.243  0.9515 -0.1582  0.4318
    9bbb    H11  247   2.773   7.258   5.085  1.3539 -0.9609  0.8022
    9bbb    H12  248   2.760   7.427   5.035 -0.7589  0.1135 -0.4847
    9bbb    H13  249   2.605   7.355   5.279  1.3929 -0.6773  0.4676
    9bbb    H25  250   2.732   7.362   5.398  0.1865  1.2201  0.0280
   10bbb     N1  251   2.042   6.900   3.645  0.0538  0.0714  0.1409
   10bbb     C1  252   2.057   6.847   3.506 -0.7786 -0.0074 -0.1830
   10bbb     C2  253   2.170   6.903   3.723 -0.2430  0.3826 -0.0126
   10bbb     C3  254   2.146   6.930   3.404  0.8019  0.7725 -0.8876
   10bbb     C4  255   2.194   6.852   3.282  0.2423 -0.2671 -0.8441
   10bbb     C5  256   2.163   6.966   3.865 -0.4802  0.3170 -0.4535
   10bbb     C6  257   2.295   6.984   3.920 -0.6151 -0.3178 -0.2254
   10bbb     C7  258   1.938   6.819   3.720  0.0696  0.3568  0.0264
   10bbb     C8  259   1.795   6.837   3.675 -0.3860 -0.2400  0.1787
   10bbb     N2  260   1.699   6.788   3.775 -0.1185  1.0634 -0.2753
   10bbb     O1  261   2.258   6.749   3.282 -0.2887  0.7093  0.5710
   10bbb     O2  262   2.401   6.935   3.880  0.3854  0.2278  0.4628
   10bbb     H1  263   2.092   6.744   3.512 -1.4115 -0.1686  1.4708
   10bbb     H2  264   1.953   6.847   3.473 -1.6390  0.6412  2.2916
   10bbb     H3  265   2.240   6.967   3.670 -1.3932  1.2961 -0.4538
   10bbb     H4  266   2.206   6.800   3.733 -1.3250 -0.0017  0.0695
   10bbb     H5  267   2.093   7.019   3.368  0.6883  0.7204 -0.8456
   10bbb     H6  268   2.237   6.952   3.462  3.3220 -1.7525 -3.5233
   10bbb     H7  269   2.106   6.896   3.928  0.9688 -2.5326 -2.0617
   10bbb     H8  270   2.107   7.060   3.864 -3.0405 -1.0162  1.8872
   10bbb     H9  271   1.954   6.837   3.826 -0.8292 -1.2257  0.4634
   10bbb    H10  272   1.963   6.713   3.713 -2.5548 -0.3285 -0.2243
   10bbb    H11  273   1.771   6.799   3.574 -0.2121 -1.0260  0.4213
   10bbb    H12  274   1.785   6.946   3.676  0.4215 -0.0295 -3.1516
   10bbb    H13  275   1.726   6.709   3.832 -1.0304  1.1300  0.2742
   10bbb    H25  276   2.006   6.996   3.636 -0.4319  0.2922  3.2022
   11bbb     N1  277   0.539   6.474   4.297 -0.6867 -0.2450 -0.3799
   11bbb     C1  278   0.455   6.533   4.190 -0.6872 -0.1735  0.1074
   11bbb     C2  279   0.481   6.485   4.440  0.0499 -0.2269  0.1169
   11bbb     C3  280   0.309   6.482   4.186 -0.4895 -0.0399  0.2347
   11bbb     C4  281   0.226   6.537   4.071  0.6931 -0.0127 -0.0337
   11bbb     C5  282   0.549   6.402   4.559 -0.2443 -0.1797 -0.5010
   11bbb     C6  283   0.576   6.256   4.524  0.3216 -0.1832 -0.3644
   11bbb     C7  284   0.683   6.529   4.295 -0.2148  0.0324 -0.0939
   11bbb     C8  285   0.768   6.460   4.188  0.4395 -0.5486 -0.1193
   11bbb     N2  286   0.908   6.505   4.186  0.3225  0.1943  0.5899
   11bbb     O1  287   0.270   6.551   3.956  0.1672  0.1534  0.2212
   11bbb     O2  288   0.547   6.208   4.416 -0.2384  0.2973  0.0042
   11bbb     H1  289   0.469   6.640   4.205  1.4960 -0.4258  0.1066
   11bbb     H2  290   0.504   6.516   4.095  1.0979  1.7518  0.6040
   11bbb     H3  291   0.379   6.448   4.428 -0.3703  1.3358 -1.6540
   11bbb     H4  292   0.466   6.591   4.457  1.6548  0.0277  0.1256
   11bbb     H5  293   0.307   6.372   4.189 -0.6707 -0.0864 -1.1030
   11bbb     H6  294   0.256   6.514   4.276  1.5503 -0.9942  1.8715
   11bbb     H7  295   0.479   6.418   4.642 -2.9151  0.0435 -2.6370
   11bbb     H8  296   0.642   6.451   4.590 -1.3427 -0.5962  4.2121
   11bbb     H9  297   0.726   6.521   4.395  2.2823 -0.7562 -1.1386
   11bbb    H10  298   0.674   6.634   4.265  0.2969 -0.2326 -1.2477
   11bbb    H11  299   0.729   6.499   4.094  2.0931 -0.3666 -0.7493
   11bbb    H12  300   0.764   6.350   4.188 -0.1190 -0.5489 -1.6780
   11bbb    H13  301   0.963   6.489   4.269 -0.9731  1.4678  1.7635
   11bbb    H25  302   0.550   6.374   4.276  1.5481  0.1116 -1.1853
   12bbb     N1  303   1.757   4.987   4.903  0.0380 -0.4348 -0.2008
   12bbb     C1  304   1.847   4.874   4.868  0.0801  0.0438  0.1156
   12bbb     C2  305   1.628   4.937   4.959  0.4056 -0.3773  0.0188
   12bbb     C3  306   1.993   4.908   4.902 -0.0920  0.7307 -0.1143
   12bbb     C4  307   2.094   4.804   4.853 -0.0348 -0.3934 -0.1639
   12bbb     C5  308   1.551   4.824   4.883  0.4082 -0.4085 -0.0386
   12bbb     C6  309   1.443   4.758   4.974 -0.4525  0.0753  0.2774
   12bbb     C7  310   1.742   5.077   4.782  0.2199  0.1260  0.2175
   12bbb     C8  311   1.639   5.194   4.780  0.2547 -0.2447 -0.4894
   12bbb     N2  312   1.628   5.251   4.642  0.0914  0.1383  0.3630
   12bbb     O1  313   2.081   4.683   4.866 -0.3559 -0.5801 -0.1823
   12bbb     O2  314   1.472   4.712   5.078 -0.0835  0.2694 -0.5308
   12bbb     H1  315   1.812   4.788   4.925  1.2082 -0.7009 -0.2769
   12bbb     H2  316   1.829   4.848   4.764 -1.9457  1.4240  0.0617
   12bbb     H3  317   1.564   5.025   4.966  2.1356  0.9440 -0.1076
   12bbb     H4  318   1.652   4.916   5.063  1.3242  1.6240  0.2669
   12bbb     H5  319   2.018   5.011   4.874  0.8110  0.1236 -1.6634
   12bbb     H6  320   2.005   4.900   5.010  3.0473  0.0176 -0.4210
   12bbb     H7  321   1.615   4.741   4.850  0.5080 -0.3485  0.0010
   12bbb     H8  322   1.501   4.868   4.795 -0.2835 -0.1568  0.4763
   12bbb     H9  323   1.719   5.005   4.703  1.2549 -2.2310  1.9459
   12bbb    H10  324   1.843   5.115   4.762  0.2463  0.2685  0.6092
   12bbb    H11  325   1.656   5.278   4.848 -2.9153  0.8363 -0.8327
   12bbb    H12  326   1.540   5.149   4.795 -1.0419  1.8695 -2.0638
   12bbb    H13  327   1.680   5.204   4.569 -0.6000 -0.1199  0.0252
   12bbb    H25  328   1.803   5.048   4.973  0.4080 -2.3051  1.2936
   13bbb     N1  329   0.959   5.306   3.794 -0.0723  0.1962 -0.0056
   13bbb     C1  330   0.941   5.178   3.716  0.3783 -0.7887 -0.6951
   13bbb     C2  331   0.834   5.393   3.811 -0.6960 -0.2077  1.2604
   13bbb     C3  332   0.836   5.079   3.771 -0.2079  0.1240  0.8338
   13bbb     C4  333   0.849   4.941   3.713 -0.4021 -0.5368  0.6196
   13bbb     C5  334   0.847   5.530   3.880 -0.1955 -0.2238  0.1553
   13bbb     C6  335   0.728   5.620   3.843 -0.4105  0.0026 -0.3083
   13bbb     C7  336   1.076   5.389   3.732  0.6701  0.2217  0.3696
   13bbb     C8  337   1.220   5.352   3.758 -0.3557  0.8105  0.2660
   13bbb     N2  338   1.253   5.360   3.898 -0.4599  0.0341 -0.0542
   13bbb     O1  339   0.919   4.915   3.618  0.0978  0.1656 -0.7229
   13bbb     O2  340   0.693   5.625   3.726 -0.1205  0.2960  0.8369
   13bbb     H1  341   0.918   5.203   3.613 -1.0303 -1.6691 -0.6402
   13bbb     H2  342   1.035   5.124   3.727  0.7341 -0.3363 -1.4485
   13bbb     H3  343   0.758   5.328   3.854 -0.0003 -1.0651  1.2160
   13bbb     H4  344   0.806   5.406   3.706  0.0922 -1.1116  0.9201
   13bbb     H5  345   0.849   5.069   3.880  0.6148  1.0265  0.8383
   13bbb     H6  346   0.734   5.113   3.750 -0.9143 -3.2356 -2.1956
   13bbb     H7  347   0.939   5.580   3.849  0.4586  0.1871  2.5641
   13bbb     H8  348   0.858   5.523   3.989  0.4813  2.3911  0.3153
   13bbb     H9  349   1.063   5.496   3.750  1.9335  0.3565  0.5144
   13bbb    H10  350   1.071   5.370   3.625  0.0090 -0.0904  0.4465
   13bbb    H11  351   1.292   5.401   3.691  1.0377 -2.9231 -1.2288
   13bbb    H12  352   1.226   5.244   3.738 -1.8467  1.1760 -2.6293
   13bbb    H13  353   1.179   5.362   3.968 -0.1784  0.2994  0.2394
   13bbb    H25  354   0.989   5.289   3.892 -0.5077 -0.5208  0.0069
   14bbb     N1  355   2.146   5.834   7.058  0.1273  0.2357  0.2394
   14bbb     C1  356   2.166   5.863   7.205 -0.2240 -0.1525  0.1376
   14bbb     C2  357   2.279   5.837   6.971  0.1932 -0.0061  0.3075
   14bbb     C3  358   2.228   5.999   7.256 -0.6348  0.9956 -0.1770
   14bbb     C4  359   2.372   6.020   7.215 -0.5653  0.3981 -0.0875
   14bbb     C5  360   2.397   5.746   7.007  0.4918  0.2096  0.5794
   14bbb     C6  361   2.509   5.757   6.908  0.2256 -0.5370 -0.0010
   14bbb     C7  362   2.050   5.927   6.991  0.3432 -0.2611 -0.4500
   14bbb     C8  363   1.988   5.875   6.862  0.2869 -0.3459 -0.0372
   14bbb     N2  364   1.886   5.977   6.803 -0.4274 -0.2535  0.1164
   14bbb     O1  365   2.397   6.079   7.109 -0.6853 -0.1787 -0.1458
   14bbb     O2  366   2.532   5.865   6.860  0.5752 -0.2944 -0.3524
   14bbb     H1  367   2.068   5.861   7.252  0.1596 -0.9900  0.9199
   14bbb     H2  368   2.218   5.776   7.244  0.1485 -0.3846 -0.8419
   14bbb     H3  369   2.310   5.942   6.967  0.7854 -0.1897 -0.1407
   14bbb     H4  370   2.252   5.799   6.872  1.9701 -0.5360 -0.0043
   14bbb     H5  371   2.170   6.085   7.222 -1.2440  1.7671  2.5443
   14bbb     H6  372   2.221   5.994   7.366 -1.4733  0.0937 -0.2635
   14bbb     H7  373   2.353   5.645   7.000 -0.7163  0.6407  1.5624
   14bbb     H8  374   2.430   5.767   7.110  0.3716  2.3091  0.2286
   14bbb     H9  375   2.092   6.028   6.988 -1.7217  0.9224  3.3454
   14bbb    H10  376   1.969   5.936   7.064 -0.9020 -0.4637 -1.7717
   14bbb    H11  377   1.931   5.785   6.889 -0.5076  0.6061  1.5851
   14bbb    H12  378   2.060   5.842   6.787  0.8170 -1.4104  0.9152
   14bbb    H13  379   1.845   6.057   6.850  0.3603  2.1099 -2.9099
   14bbb    H25  380   2.112   5.737   7.051 -1.8408  0.7322  2.0564
   15bbb     N1  381   1.371   6.746   6.655 -0.1865 -0.0737  0.5965
   15bbb     C1  382   1.263   6.837   6.706  0.5585  0.3193 -0.3156
   15bbb     C2  383   1.458   6.837   6.569 -0.0117 -0.2184 -0.3056
   15bbb     C3  384   1.280   6.894   6.850 -0.5784 -0.1456 -0.8489
   15bbb     C4  385   1.328   6.790   6.957  0.3475  0.2553  0.2304
   15bbb     C5  386   1.582   6.775   6.500  0.4319  0.1672 -0.0659
   15bbb     C6  387   1.697   6.866   6.498  0.0276 -0.3404  0.7549
   15bbb     C7  388   1.314   6.641   6.563  0.4160  0.6940 -0.4196
   15bbb     C8  389   1.319   6.512   6.638  0.3300  0.1370  0.4676
   15bbb     N2  390   1.281   6.404   6.544 -0.3581 -0.0183 -0.6070
   15bbb     O1  391   1.351   6.678   6.924  0.2158  0.7356  0.0012
   15bbb     O2  392   1.697   6.974   6.553 -0.2887  0.2433 -0.0449
   15bbb     H1  393   1.244   6.925   6.644 -2.1279  0.5121  0.6406
   15bbb     H2  394   1.170   6.779   6.708 -0.1413  1.4012 -0.2051
   15bbb     H3  395   1.498   6.917   6.632 -1.0889 -0.9471  1.3722
   15bbb     H4  396   1.383   6.876   6.499 -0.5174 -0.6366  0.0010
   15bbb     H5  397   1.352   6.976   6.839 -0.1464 -0.3825  0.1013
   15bbb     H6  398   1.187   6.939   6.889  0.2078  0.8985 -0.1030
   15bbb     H7  399   1.554   6.759   6.395  1.8060 -0.7276 -0.3208
   15bbb     H8  400   1.605   6.678   6.545 -1.7120 -0.5179 -0.3062
   15bbb     H9  401   1.369   6.625   6.470 -1.0153 -0.9160 -1.0377
   15bbb    H10  402   1.217   6.680   6.532  0.2468 -0.7122 -1.7633
   15bbb    H11  403   1.238   6.518   6.711 -0.7414  1.2259 -0.7600
   15bbb    H12  404   1.411   6.500   6.698  0.3776  1.5004  0.6935
   15bbb    H13  405   1.181   6.386   6.538 -0.5429 -0.7533  2.6370
   15bbb    H25  406   1.416   6.695   6.733 -2.0219 -0.6695  1.3241
   16bbb     N1  407   2.661   4.760   6.294  1.0963  0.1790 -0.1014
   16bbb     C1  408   2.789   4.742   6.379  0.0881 -0.2562 -0.1211
   16bbb     C2  409   2.608   4.615   6.269  0.0536 -0.8587  0.0857
   16bbb     C3  410   2.792   4.850   6.491  0.4302  0.7962 -0.0462
   16bbb     C4  411   2.933   4.866   6.549 -0.5897 -0.5841  0.4728
   16bbb     C5  412   2.459   4.603   6.211  0.4965  0.3181 -0.4898
   16bbb     C6  413   2.400   4.466   6.192  0.6377  0.4398 -0.2458
   16bbb     C7  414   2.705   4.821   6.166 -0.3765  0.5840  0.0807
   16bbb     C8  415   2.761   4.963   6.172  0.1084  0.9671 -0.0708
   16bbb     N2  416   2.766   5.019   6.036 -0.5205 -0.2873 -0.1881
   16bbb     O1  417   3.015   4.952   6.500  0.1397  0.4295 -0.3982
   16bbb     O2  418   2.393   4.378   6.281 -0.5404 -0.0819 -0.1504
   16bbb     H1  419   2.794   4.641   6.421 -2.7958  0.8373  3.3402
   16bbb     H2  420   2.874   4.756   6.312  1.7797  3.0059  2.4148
   16bbb     H3  421   2.608   4.567   6.366  3.6920  0.4960  0.8936
   16bbb     H4  422   2.680   4.567   6.202 -1.2632 -1.8289 -0.6933
   16bbb     H5  423   2.761   4.951   6.462 -2.4174  0.4901  1.5637
   16bbb     H6  424   2.723   4.824   6.572 -0.0564 -2.3579 -1.3086
   16bbb     H7  425   2.463   4.661   6.118  0.3058 -1.5468 -1.7172
   16bbb     H8  426   2.397   4.655   6.285 -1.1046  1.4183 -2.5150
   16bbb     H9  427   2.609   4.838   6.118 -0.2646 -0.5127 -0.5600
   16bbb    H10  428   2.764   4.747   6.112 -1.1139 -0.6290  0.8722
   16bbb    H11  429   2.862   4.975   6.213  0.2394 -1.5825  0.5289
   16bbb    H12  430   2.692   5.025   6.229  0.6456  0.5185  1.1071
   16bbb    H13  431   2.854   5.064   6.014  0.5072 -1.7744  0.7099
   16bbb    H25  432   2.592   4.820   6.342  0.6909  1.2748 -1.9618
   17bbb     N1  433   3.344   5.740   6.036 -0.6937 -0.9053  0.1220
   17bbb     C1  434   3.442   5.779   5.926  0.6401 -0.6180 -0.2097
   17bbb     C2  435   3.417   5.675   6.154 -0.2817 -0.5012 -1.0713
   17bbb     C3  436   3.552   5.888   5.952 -0.4919  0.0642  0.2459
   17bbb     C4  437   3.643   5.901   5.826  0.4643 -0.3135 -0.4712
   17bbb     C5  438   3.526   5.566   6.124 -0.0181 -0.6763  0.4969
   17bbb     C6  439   3.593   5.528   6.245 -0.1014  0.5779  0.2412
   17bbb     C7  440   3.240   5.645   5.988  0.0358 -0.8023  0.4901
   17bbb     C8  441   3.121   5.614   6.087 -0.3712 -0.3524 -0.2109
   17bbb     N2  442   2.988   5.619   6.031  0.7647  0.4696 -0.1040
   17bbb     O1  443   3.622   5.846   5.720 -0.0489 -0.3449 -0.3606
   17bbb     O2  444   3.582   5.588   6.354  0.2813 -0.0606  0.2009
   17bbb     H1  445   3.494   5.687   5.899 -1.8434 -2.2871  0.2607
   17bbb     H2  446   3.375   5.818   5.850 -0.8403 -1.1841  0.7465
   17bbb     H3  447   3.339   5.640   6.222  0.0538  2.3246  0.9774
   17bbb     H4  448   3.463   5.760   6.205 -3.0111  0.9433 -0.7897
   17bbb     H5  449   3.501   5.983   5.972 -1.0366 -0.4595  1.4462
   17bbb     H6  450   3.612   5.844   6.032 -0.2271  0.4724  0.2766
   17bbb     H7  451   3.605   5.614   6.063 -0.2120 -0.1934  0.6168
   17bbb     H8  452   3.482   5.488   6.061  0.7180 -0.4667 -0.3176
   17bbb     H9  453   3.288   5.551   5.961 -0.7919 -1.1667  0.2607
   17bbb    H10  454   3.181   5.687   5.907 -1.5815 -0.3137  1.8630
   17bbb    H11  455   3.131   5.690   6.165 -0.4963 -0.7190  0.1715
   17bbb    H12  456   3.145   5.514   6.127  0.8551 -1.1735 -2.7656
   17bbb    H13  457   2.926   5.696   6.054  1.2904  0.1789  2.6305
   17bbb    H25  458   3.295   5.825   6.069  0.4719 -0.6244  1.2389
   18bbb     N1  459   1.792   8.246   5.674  0.1066  0.7174 -0.7771
   18bbb     C1  460   1.838   8.379   5.636 -0.3749 -0.9483 -0.7409
   18bbb     C2  461   1.658   8.257   5.763 -0.5177 -0.3689  0.8913
   18bbb     C3  462   1.759   8.444   5.516  0.2747 -0.5615 -0.7199
   18bbb     C4  463   1.789   8.380   5.386  0.4483 -0.9859 -0.0660
   18bbb     C5  464   1.562   8.134   5.760  0.4016  0.3068  0.3560
   18bbb     C6  465   1.525   8.101   5.612 -0.2026 -0.3215  0.8916
   18bbb     C7  466   1.895   8.170   5.756  0.2811 -0.3671 -0.4458
   18bbb     C8  467   2.026   8.129   5.684 -0.4905 -0.1355  0.3217
   18bbb     N2  468   1.997   8.035   5.574  0.8695  0.2817  0.1034
   18bbb     O1  469   1.791   8.257   5.369 -0.7593 -0.3349 -0.1525
   18bbb     O2  470   1.582   8.141   5.512 -0.0126 -0.1532  0.1512
   18bbb     H1  471   1.836   8.444   5.724  0.2856 -1.2300 -0.5092
   18bbb     H2  472   1.943   8.366   5.607  0.4832 -0.5301  1.9065
   18bbb     H3  473   1.602   8.345   5.732  1.4153  0.7756  0.4513
   18bbb     H4  474   1.681   8.263   5.869  1.7511 -1.5688  0.5329
   18bbb     H5  475   1.653   8.444   5.547  0.5791  0.9501  0.4779
   18bbb     H6  476   1.787   8.550   5.517  2.9014 -1.1771  0.6153
   18bbb     H7  477   1.472   8.167   5.812  1.5970  2.2131  1.3458
   18bbb     H8  478   1.609   8.048   5.810 -0.4801 -0.4982 -0.1716
   18bbb     H9  479   1.843   8.084   5.801  1.3442 -2.0204 -2.2292
   18bbb    H10  480   1.927   8.218   5.848 -2.0306 -2.1048  1.3923
   18bbb    H11  481   2.086   8.067   5.751 -0.0874 -0.3841 -0.2619
   18bbb    H12  482   2.082   8.215   5.647 -2.7660  1.0377 -0.6000
   18bbb    H13  483   1.928   7.962   5.588 -0.0315  1.1690  0.4201
   18bbb    H25  484   1.767   8.191   5.591  1.5367 -0.6076 -0.3675
   19bbb     N1  485   1.323   8.015   4.613  0.4072  0.1007  0.3171
   19bbb     C1  486   1.189   8.057   4.673 -0.1096 -0.1362 -0.8243
   19bbb     C2  487   1.291   7.910   4.508 -0.1548  0.8281  0.5982
   19bbb     C3  488   1.093   7.948   4.728  0.0323 -0.2272  0.6255
   19bbb     C4  489   0.958   8.016   4.760  0.1290  0.0400  0.1387
   19bbb     C5  490   1.406   7.865   4.415  0.0388  0.2986  0.3362
   19bbb     C6  491   1.364   7.745   4.324 -0.4132 -0.4651 -0.0139
   19bbb     C7  492   1.413   7.964   4.722  0.2378 -0.4081 -0.1652
   19bbb     C8  493   1.484   8.084   4.796  0.3367  0.7178 -0.6397
   19bbb     N2  494   1.533   8.036   4.933 -0.5704 -0.6018  0.2888
   19bbb     O1  495   0.940   8.132   4.729  0.1450 -0.3155 -0.2330
   19bbb     O2  496   1.323   7.641   4.370  0.1532 -0.0168 -0.2465
   19bbb     H1  497   1.221   8.113   4.761  0.5284 -1.8697  0.1003
   19bbb     H2  498   1.137   8.123   4.603 -0.9963  0.0527 -0.0107
   19bbb     H3  499   1.217   7.952   4.440  0.6457 -1.1103 -1.6237
   19bbb     H4  500   1.245   7.827   4.562  0.6134  0.7463  1.1430
   19bbb     H5  501   1.063   7.876   4.651  1.3238 -2.1511  1.8304
   19bbb     H6  502   1.135   7.890   4.811 -0.0973 -0.7164  0.3516
   19bbb     H7  503   1.497   7.830   4.464 -0.0754  2.6528  2.4366
   19bbb     H8  504   1.421   7.950   4.348  0.3891  1.0280  1.3100
   19bbb     H9  505   1.483   7.886   4.691  1.3204 -0.9468  3.1590
   19bbb    H10  506   1.348   7.915   4.795 -0.5187  0.7407 -0.0494
   19bbb    H11  507   1.413   8.167   4.807 -0.2935  0.4298 -2.3831
   19bbb    H12  508   1.568   8.120   4.735  0.5851  0.1538 -0.6329
   19bbb    H13  509   1.476   7.972   4.987  0.5781 -0.0475  2.2697
   19bbb    H25  510   1.359   8.091   4.553  0.1343  0.0378  0.0724
   20bbb     N1  511   3.209   7.908   5.594  0.1087 -0.1209 -0.1303
   20bbb     C1  512   3.308   7.911   5.476 -0.5713  0.0531  0.0925
   20bbb     C2  513   3.198   8.050   5.649  0.1178  0.4585 -0.3733
   20bbb     C3  514   3.309   7.789   5.380  1.0006  0.2689 -0.1294
   20bbb     C4  515   3.181   7.766   5.297 -0.1349  1.2643  0.2534
   20bbb     C5  516   3.112   8.135   5.558  0.7608 -0.0689 -0.6597
   20bbb     C6  517   2.971   8.075   5.535 -0.0602 -0.3570  0.2804
   20bbb     C7  518   3.239   7.810   5.706  0.0094  0.2035 -0.1750
   20bbb     C8  519   3.113   7.762   5.779  0.0869 -0.1224  0.3637
   20bbb     N2  520   3.003   7.720   5.685  0.5365 -0.4745  0.3158
   20bbb     O1  521   3.073   7.792   5.347  0.5163 -0.5053  0.0715
   20bbb     O2  522   2.923   7.989   5.608 -0.1115 -0.2319 -0.7010
   20bbb     H1  523   3.291   8.005   5.422  2.0531 -0.5016 -1.9101
   20bbb     H2  524   3.406   7.922   5.523 -1.1592 -0.1867  1.4381
   20bbb     H3  525   3.295   8.100   5.659 -0.2804  1.2259 -0.2538
   20bbb     H4  526   3.156   8.040   5.749 -0.9264 -2.6601 -1.0200
   20bbb     H5  527   3.399   7.793   5.316  2.4835  0.6125  1.8962
   20bbb     H6  528   3.324   7.695   5.434 -0.3249 -0.1051 -0.3909
   20bbb     H7  529   3.161   8.147   5.460  1.0474 -0.8252 -0.6206
   20bbb     H8  530   3.092   8.236   5.595  1.1044 -0.6997  1.3678
   20bbb     H9  531   3.297   7.867   5.778  0.1188  0.2406 -0.2932
   20bbb    H10  532   3.289   7.725   5.659 -2.8469 -1.5618 -0.3041
   20bbb    H11  533   3.073   7.832   5.852 -1.3915 -0.4438 -0.1005
   20bbb    H12  534   3.145   7.672   5.834 -1.0573  0.1527  1.5324
   20bbb    H13  535   2.925   7.784   5.678  0.6566 -0.3135  0.4331
   20bbb    H25  536   3.118   7.880   5.554  0.5033  0.4613 -1.5321
   21bbb     N1  537   2.792   6.591   5.825  0.7065 -0.5683 -0.0354
   21bbb     C1  538   2.741   6.577   5.968 -0.0821 -0.9707  0.4599
   21bbb     C2  539   2.934   6.546   5.809 -0.2105 -0.8359  0.2618
   21bbb     C3  540   2.691   6.439   5.997  0.2091  0.1385  0.6536
   21bbb     C4  541   2.560   6.406   5.916 -0.4512  0.2634  0.1794
   21bbb     C5  542   2.996   6.558   5.671  0.1818  0.7051  0.1862
   21bbb     C6  543   2.933   6.472   5.568  0.0530 -0.6513 -0.1305
   21bbb     C7  544   2.771   6.738   5.785  0.3750  0.5628 -0.0226
   21bbb     C8  545   2.729   6.770   5.639 -0.4534 -0.3818  0.0461
   21bbb     N2  546   2.713   6.912   5.614  0.3608 -1.1505 -0.1473
   21bbb     O1  547   2.544   6.427   5.797 -0.1548  0.5098 -0.2988
   21bbb     O2  548   2.812   6.468   5.551  0.1459 -0.2715 -0.4986
   21bbb     H1  549   2.820   6.602   6.038 -0.5767 -0.4289  0.8343
   21bbb     H2  550   2.654   6.639   5.989  1.2646  1.4245 -0.6151
   21bbb     H3  551   2.932   6.441   5.840 -2.1467 -0.8783  0.1239
   21bbb     H4  552   2.995   6.609   5.874 -0.4939 -0.1444 -0.1311
   21bbb     H5  553   2.761   6.356   5.978 -2.4882 -2.8236  2.6018
   21bbb     H6  554   2.666   6.436   6.104  0.2835  3.1171  0.8243
   21bbb     H7  555   3.100   6.526   5.683 -0.3052 -0.7947  0.7034
   21bbb     H8  556   3.004   6.659   5.629  0.6615  0.4361 -0.3800
   21bbb     H9  557   2.865   6.789   5.805  0.3932  0.1983  0.8679
   21bbb    H10  558   2.701   6.781   5.856  0.1185  1.4907 -0.8161
   21bbb    H11  559   2.637   6.713   5.619 -1.0598 -0.4468  2.6381
   21bbb    H12  560   2.805   6.729   5.572  1.0861  1.7008  0.4329
   21bbb    H13  561   2.651   6.969   5.670 -1.2255 -0.3727 -2.5324
   21bbb    H25  562   2.727   6.544   5.761  0.4995  0.8012 -0.8777
   22bbb     N1  563   2.409   6.962   3.070 -0.4466 -0.1098 -0.1726
   22bbb     C1  564   2.488   7.077   3.007 -0.1096  0.6622  0.2686
   22bbb     C2  565   2.499   6.840   3.094  0.1035  0.5188 -0.0352
   22bbb     C3  566   2.564   7.053   2.873 -0.6256  0.8587 -0.2734
   22bbb     C4  567   2.633   7.185   2.830 -0.3313 -0.1788  0.3943
   22bbb     C5  568   2.605   6.858   3.207  0.2580 -0.1810 -0.2748
   22bbb     C6  569   2.566   6.930   3.332 -0.4695 -0.7628 -1.4505
   22bbb     C7  570   2.296   6.921   2.980  0.2828 -0.1678  0.2178
   22bbb     C8  571   2.181   6.833   3.036 -0.2339 -0.2407  0.1467
   22bbb     N2  572   2.141   6.896   3.167 -0.8073  0.0840 -0.0004
   22bbb     O1  573   2.649   7.276   2.907 -0.2439  0.3785  0.4707
   22bbb     O2  574   2.462   6.991   3.347 -0.0820  0.4458 -0.0611
   22bbb     H1  575   2.423   7.163   2.988 -0.8668  0.2416  0.8770
   22bbb     H2  576   2.568   7.111   3.073  0.4949  1.0065 -0.6179
   22bbb     H3  577   2.558   6.810   3.008  0.5549  0.0891  0.4183
   22bbb     H4  578   2.431   6.760   3.123 -0.7592  0.3432 -2.3512
   22bbb     H5  579   2.641   6.975   2.877 -0.7678  0.7561  0.8701
   22bbb     H6  580   2.502   7.030   2.786  0.0898  2.6231 -1.3086
   22bbb     H7  581   2.675   6.923   3.153 -1.1771 -0.0551 -2.0945
   22bbb     H8  582   2.658   6.766   3.233  1.0051  0.1465 -0.6101
   22bbb     H9  583   2.335   6.866   2.894 -0.8883  0.9303 -1.0706
   22bbb    H10  584   2.249   7.010   2.936 -1.5197  0.1816  2.6756
   22bbb    H11  585   2.215   6.729   3.036  0.3604 -0.0845 -2.0858
   22bbb    H12  586   2.091   6.844   2.975 -1.1797 -0.5246  1.4301
   22bbb    H13  587   2.096   6.987   3.164  1.8065  1.5482  1.0830
   22bbb    H25  588   2.371   6.991   3.161  2.1627  0.5388  0.7999
   23bbb     N1  589   2.606   7.037   4.257 -0.3687 -0.6613  0.4656
   23bbb     C1  590   2.713   7.034   4.146 -0.1605 -0.7145  0.2962
   23bbb     C2  591   2.649   6.945   4.371 -0.0094  0.0997  0.3508
   23bbb     C3  592   2.860   7.038   4.182 -0.1969  0.1785  0.0985
   23bbb     C4  593   2.954   7.005   4.064 -0.5968 -0.9083  0.0246
   23bbb     C5  594   2.555   6.934   4.491  0.2635  0.0880  0.7484
   23bbb     C6  595   2.583   6.806   4.567 -0.3373 -0.2468  0.2446
   23bbb     C7  596   2.467   7.006   4.202 -0.2523 -0.1242 -0.8532
   23bbb     C8  597   2.423   7.111   4.100 -0.3474  0.5246 -1.0452
   23bbb     N2  598   2.302   7.067   4.031 -0.0223  0.4040 -0.4347
   23bbb     O1  599   2.916   6.993   3.946  0.2489 -0.7039  0.1479
   23bbb     O2  600   2.573   6.696   4.518  0.2914 -0.3611 -0.3250
   23bbb     H1  601   2.685   6.946   4.088 -0.7759 -0.5894  0.3907
   23bbb     H2  602   2.694   7.120   4.081 -2.4685 -0.8767  0.6472
   23bbb     H3  603   2.743   6.977   4.418 -1.2125 -0.9557  3.8153
   23bbb     H4  604   2.662   6.847   4.326  1.0121  0.8160 -0.9855
   23bbb     H5  605   2.881   7.143   4.205 -1.1852  0.5878 -0.7916
   23bbb     H6  606   2.877   6.980   4.273 -2.5131  0.5760  0.8357
   23bbb     H7  607   2.449   6.937   4.462  0.8226 -3.5363 -2.4186
   23bbb     H8  608   2.562   7.025   4.553  0.3793  0.3445  0.3599
   23bbb     H9  609   2.397   7.006   4.286 -0.0683 -1.3145 -0.6834
   23bbb    H10  610   2.467   6.908   4.153 -0.4363 -0.3624 -0.3860
   23bbb    H11  611   2.502   7.121   4.025  2.5314 -1.1430  1.5405
   23bbb    H12  612   2.402   7.207   4.149  0.8780 -0.9304  2.6962
   23bbb    H13  613   2.210   7.097   4.059  0.0121 -0.4616  0.6843
   23bbb    H25  614   2.606   7.135   4.289  0.5848 -0.5483  0.1505
   24bbb     N1  615  -0.013   6.813   3.888 -0.2789 -0.2899 -0.2749
   24bbb     C1  616   0.078   6.760   3.777 -0.8372 -0.0487  0.9557
   24bbb     C2  617   0.072   6.898   3.982 -0.3411  0.4060  0.4389
   24bbb     C3  618   0.110   6.874   3.673  0.4400 -0.0590 -0.0106
   24bbb     C4  619   0.180   6.814   3.549  0.1700  0.4150  0.1651
   24bbb     C5  620  -0.002   6.974   4.101  0.0038 -0.0468  0.4126
   24bbb     C6  621   0.087   7.075   4.174 -0.2726  0.7906 -0.4115
   24bbb     C7  622  -0.087   6.706   3.960 -0.2864 -0.1096 -0.5173
   24bbb     C8  623  -0.016   6.580   4.012  0.2859  0.2296 -0.3859
   24bbb     N2  624   0.093   6.580   4.111 -0.5361 -0.1136  0.4928
   24bbb     O1  625   0.247   6.712   3.551 -0.3384  0.6370 -0.3174
   24bbb     O2  626   0.206   7.066   4.167  0.4193 -0.4631 -0.4932
   24bbb     H1  627   0.173   6.717   3.808  0.3542  0.2188 -2.0372
   24bbb     H2  628   0.025   6.682   3.723  1.9508 -1.9818  0.8418
   24bbb     H3  629   0.130   6.966   3.920 -1.5278  2.7430  1.7458
   24bbb     H4  630   0.149   6.832   4.021  0.6003 -0.3632 -2.4514
   24bbb     H5  631   0.020   6.930   3.644 -0.2325 -1.1744 -0.1513
   24bbb     H6  632   0.177   6.948   3.718  1.0039 -0.7479  0.3058
   24bbb     H7  633  -0.051   6.900   4.165 -1.2235 -0.2684 -0.7344
   24bbb     H8  634  -0.082   7.039   4.062 -0.5938 -1.1724 -0.3033
   24bbb     H9  635  -0.166   6.681   3.888  0.0668  0.8381 -1.2591
   24bbb    H10  636  -0.135   6.764   4.039  1.4830  1.1743 -0.3251
   24bbb    H11  637   0.016   6.514   3.930  2.1460  3.2022 -2.2230
   24bbb    H12  638  -0.089   6.518   4.066  1.9924 -0.7115  0.9623
   24bbb    H13  639   0.075   6.567   4.210 -0.1491  3.5953  1.2073
   24bbb    H25  640  -0.084   6.872   3.841  0.6486  1.7916  0.7702
   25bbb     N1  641   0.670   5.834   4.769 -0.1207  0.1858 -0.4405
   25bbb     C1  642   0.535   5.761   4.793 -0.5394 -0.5668  0.3587
   25bbb     C2  643   0.764   5.797   4.889 -0.9239  0.0791  0.1456
   25bbb     C3  644   0.452   5.803   4.918 -0.3578 -0.3098 -0.1451
   25bbb     C4  645   0.370   5.683   4.980  0.0435 -0.6756  0.0779
   25bbb     C5  646   0.916   5.847   4.883 -0.7674  0.5886  0.1873
   25bbb     C6  647   0.994   5.784   4.997 -0.3030  0.5255  0.0134
   25bbb     C7  648   0.666   5.987   4.767 -0.8304 -0.4540  0.7438
   25bbb     C8  649   0.585   6.032   4.644  0.3915 -0.3063 -0.4673
   25bbb     N2  650   0.608   6.182   4.638  0.4162  0.0967 -0.2914
   25bbb     O1  651   0.365   5.581   4.919 -0.0380 -0.2626  0.2283
   25bbb     O2  652   1.054   5.850   5.073 -0.4160 -0.7369  0.1994
   25bbb     H1  653   0.479   5.773   4.700  0.8286  0.8796 -0.3316
   25bbb     H2  654   0.550   5.653   4.796 -0.6719 -0.6527 -1.2965
   25bbb     H3  655   0.769   5.688   4.897  2.2520 -0.0829 -2.0520
   25bbb     H4  656   0.731   5.844   4.982  1.1135  0.3123  0.8148
   25bbb     H5  657   0.520   5.825   5.001  0.1306 -1.1115 -0.3227
   25bbb     H6  658   0.383   5.888   4.907 -0.3679 -0.1173  1.2681
   25bbb     H7  659   0.925   5.956   4.882 -0.4729  0.5971 -2.4395
   25bbb     H8  660   0.959   5.803   4.793  2.9709  0.1421  1.9865
   25bbb     H9  661   0.765   6.025   4.741 -1.8576  2.0929  0.2465
   25bbb    H10  662   0.632   6.029   4.862 -0.9827  0.3431  0.3434
   25bbb    H11  663   0.477   6.017   4.655  0.6520 -1.0778  1.6091
   25bbb    H12  664   0.622   5.981   4.555  0.1206 -1.6317  0.1449
   25bbb    H13  665   0.633   6.238   4.718 -2.4464 -0.3143  1.0072
   25bbb    H25  666   0.712   5.789   4.687  0.8576 -2.7292  1.4882
   26bbb     N1  667   2.416   4.645   4.556 -0.5080 -0.0299  0.8250
   26bbb     C1  668   2.475   4.557   4.661 -0.3287  0.4592  0.4379
   26bbb     C2  669   2.530   4.744   4.516  0.4532 -0.2399  0.3709
   26bbb     C3  670   2.375   4.459   4.715 -0.1074 -0.3824 -0.3054
   26bbb     C4  671   2.437   4.351   4.805  0.0735 -0.1706 -0.1367
   26bbb     C5  672   2.497   4.839   4.393 -0.1212 -0.1664 -0.2482
   26bbb     C6  673   2.625   4.927   4.359  0.2574 -0.1465  0.2294
   26bbb     C7  674   2.301   4.722   4.612  0.5576 -0.5003  0.1908
   26bbb     C8  675   2.314   4.791   4.746  0.0298 -0.2410 -0.3143
   26bbb     N2  676   2.200   4.861   4.791  0.0627  0.2177 -0.6757
   26bbb     O1  677   2.560   4.320   4.807  0.0222 -0.3290 -0.1406
   26bbb     O2  678   2.658   5.029   4.420 -0.1916  0.2685 -0.2260
   26bbb     H1  679   2.569   4.505   4.641 -0.6254 -0.4063  1.1952
   26bbb     H2  680   2.518   4.610   4.747  3.1289 -1.2705 -0.0350
   26bbb     H3  681   2.607   4.671   4.487 -0.3954 -0.8135 -0.5075
   26bbb     H4  682   2.566   4.800   4.602  0.1401 -1.3117  1.2193
   26bbb     H5  683   2.306   4.513   4.781  2.4080 -0.0328  2.2023
   26bbb     H6  684   2.312   4.410   4.639 -1.4066 -2.3764  1.9413
   26bbb     H7  685   2.408   4.897   4.420  0.4155  1.0451 -1.0077
   26bbb     H8  686   2.458   4.782   4.309  0.4186 -2.6809  1.1050
   26bbb     H9  687   2.212   4.659   4.604 -0.3931  0.9061 -0.5724
   26bbb    H10  688   2.286   4.808   4.548 -0.4815 -0.8141 -0.0049
   26bbb    H11  689   2.389   4.871   4.742 -0.7989  0.5810 -0.0330
   26bbb    H12  690   2.346   4.721   4.823  0.3055  0.5559  0.3110
   26bbb    H13  691   2.205   4.962   4.795 -2.5936  0.4208 -0.4743
   26bbb    H25  692   2.389   4.591   4.473 -2.1469  0.1189  1.2252
   27bbb     N1  693   1.243   4.476   5.016 -0.2716 -0.1145  0.1076
   27bbb     C1  694   1.248   4.362   4.906  0.1144  0.0359 -0.8506
   27bbb     C2  695   1.195   4.402   5.142 -0.1973  0.0560 -0.6924
   27bbb     C3  696   1.358   4.259   4.928 -0.4185  0.1469 -0.0236
   27bbb     C4  697   1.500   4.318   4.929  0.5899 -0.2965  0.2058
   27bbb     C5  698   1.163   4.488   5.266  0.4841 -0.3132  0.1720
   27bbb     C6  699   1.278   4.542   5.336  1.0711 -0.2639 -0.5577
   27bbb     C7  700   1.142   4.577   4.964  0.1040 -0.2547 -0.2312
   27bbb     C8  701   1.191   4.719   4.995 -0.0360  0.3897 -0.0770
   27bbb     N2  702   1.317   4.762   4.927  0.2835 -0.6861 -0.2324
   27bbb     O1  703   1.514   4.440   4.916 -0.5625 -0.3877 -0.1409
   27bbb     O2  704   1.371   4.477   5.382  0.8952 -0.3244 -0.5298
   27bbb     H1  705   1.157   4.303   4.900  1.2403 -2.0207  1.0046
   27bbb     H2  706   1.267   4.417   4.813 -0.4582  0.4001 -0.7541
   27bbb     H3  707   1.272   4.328   5.167 -0.8799 -0.6809 -0.7071
   27bbb     H4  708   1.107   4.347   5.109 -0.5305  1.2838 -1.9073
   27bbb     H5  709   1.347   4.202   5.022  3.7221  0.1174  0.6409
   27bbb     H6  710   1.352   4.183   4.849 -0.2970  1.3582 -1.2164
   27bbb     H7  711   1.114   4.421   5.338 -1.5205  2.1875  1.3109
   27bbb     H8  712   1.080   4.556   5.240  0.0780 -0.9048 -0.1056
   27bbb     H9  713   1.044   4.556   5.007 -0.6908  0.6366 -1.5538
   27bbb    H10  714   1.129   4.558   4.857  0.4060 -0.5466 -0.2190
   27bbb    H11  715   1.204   4.733   5.104  0.2259  0.7737 -0.1547
   27bbb    H12  716   1.117   4.790   4.957  0.5692  0.6260 -0.8444
   27bbb    H13  717   1.308   4.811   4.839 -0.8882  1.8295  1.1889
   27bbb    H25  718   1.338   4.515   5.023 -0.8786  1.6250 -0.6719
   28bbb     N1  719   0.525   4.640   3.787  0.0762  0.0180 -0.8676
   28bbb     C1  720   0.441   4.552   3.879 -0.9815 -1.4326  0.2288
   28bbb     C2  721   0.496   4.612   3.644  0.3834  1.4302 -0.2649
   28bbb     C3  722   0.452   4.583   4.034 -0.3370  0.8599  0.3966
   28bbb     C4  723   0.367   4.482   4.115 -0.6595 -0.3430 -0.3132
   28bbb     C5  724   0.342   4.594   3.598  0.1602  0.0624 -0.0710
   28bbb     C6  725   0.306   4.555   3.456  0.2604 -0.4957 -0.8496
   28bbb     C7  726   0.674   4.620   3.817  0.4426  0.1477  0.1145
   28bbb     C8  727   0.778   4.711   3.749 -0.4401  0.3301  0.3810
   28bbb     N2  728   0.778   4.847   3.781 -0.1991 -1.0567 -0.6477
   28bbb     O1  729   0.296   4.400   4.066 -0.6175 -0.1131 -0.1046
   28bbb     O2  730   0.380   4.485   3.388 -0.5295 -0.5050  0.0173
   28bbb     H1  731   0.335   4.557   3.852 -0.8624  2.3423 -0.0391
   28bbb     H2  732   0.473   4.450   3.858  0.2463 -0.6543 -2.1090
   28bbb     H3  733   0.550   4.521   3.616  1.2483  1.6690  0.6055
   28bbb     H4  734   0.537   4.689   3.579  2.1640  0.8612  0.1346
   28bbb     H5  735   0.557   4.572   4.063 -0.6715 -1.4940  0.8999
   28bbb     H6  736   0.420   4.684   4.064  0.5283  0.8633  1.3754
   28bbb     H7  737   0.287   4.689   3.607 -1.6497 -0.7779 -1.4913
   28bbb     H8  738   0.284   4.519   3.654 -1.3980  0.6751 -0.7766
   28bbb     H9  739   0.702   4.518   3.790  0.8322  0.0288  0.9422
   28bbb    H10  740   0.685   4.627   3.925  0.9910  0.6947  0.0289
   28bbb    H11  741   0.772   4.707   3.639 -0.4910 -1.3215  0.4169
   28bbb    H12  742   0.878   4.669   3.760 -1.5030 -2.5833 -0.1770
   28bbb    H13  743   0.710   4.874   3.851  3.7225  2.5648  2.2986
   28bbb    H25  744   0.490   4.736   3.803  0.1434  0.3593 -2.5339
   29bbb     N1  745   0.522   5.956   3.716 -0.0715  0.4445 -0.3254
   29bbb     C1  746   0.508   5.867   3.594 -0.3899 -0.3286 -0.5184
   29bbb     C2  747   0.543   6.103   3.689  0.0078  0.3501  0.3509
   29bbb     C3  748   0.633   5.847   3.503 -0.2923  0.1419  0.3162
   29bbb     C4  749   0.610   5.748   3.390 -0.5396  0.6750 -0.2995
   29bbb     C5  750   0.429   6.161   3.598 -0.3090  0.2361  0.4964
   29bbb     C6  751   0.430   6.314   3.584  0.7067  0.2097 -0.6065
   29bbb     C7  752   0.623   5.903   3.810  0.2747 -0.6880  0.6491
   29bbb     C8  753   0.564   5.801   3.911 -0.8222  0.2432 -0.2182
   29bbb     N2  754   0.663   5.697   3.941 -0.3667 -0.2760 -0.7583
   29bbb     O1  755   0.499   5.707   3.369 -0.0244 -0.4843  0.7847
   29bbb     O2  756   0.367   6.395   3.654  0.1782 -0.1262 -0.1707
   29bbb     H1  757   0.495   5.767   3.638  2.5382 -0.6532 -0.1964
   29bbb     H2  758   0.423   5.898   3.533 -1.8356  0.0425  1.5634
   29bbb     H3  759   0.635   6.113   3.631 -0.3327  0.5772 -0.1628
   29bbb     H4  760   0.541   6.165   3.779 -0.0750  2.9573 -1.3216
   29bbb     H5  761   0.642   5.942   3.450 -3.7121 -1.7101 -4.2859
   29bbb     H6  762   0.731   5.814   3.542  0.2966 -0.7196 -1.7327
   29bbb     H7  763   0.329   6.137   3.635 -0.2119  0.7934  1.1350
   29bbb     H8  764   0.425   6.115   3.499  0.2799  0.9604  0.1272
   29bbb     H9  765   0.666   5.989   3.862  0.3280 -0.5108  0.3184
   29bbb    H10  766   0.705   5.857   3.755 -0.3695 -0.6459 -0.3725
   29bbb    H11  767   0.472   5.758   3.869 -0.3738  0.7462 -1.8132
   29bbb    H12  768   0.523   5.846   4.002  1.9791  0.3281  1.1210
   29bbb    H13  769   0.702   5.702   4.035 -1.6616 -3.2149  0.0628
   29bbb    H25  770   0.432   5.951   3.767 -0.3046  0.5273 -0.7268
   30ccc     N1  771   2.478   5.988   7.302  0.2397 -0.7160 -0.6313
   30ccc     H1  772   2.439   5.942   7.384  0.0266  0.0008 -0.3286
   30ccc     C1  773   2.620   6.033   7.300 -0.0787 -0.1797  0.1476
   30ccc     H2  774   2.670   6.000   7.208  0.5288  2.5580 -0.6038
   30ccc     C2  775   2.707   5.995   7.424  0.0235  0.2953 -0.4583
   30ccc     H3  776   2.611   6.142   7.292 -0.9129 -0.2929 -0.5366
   30ccc     H4  777   2.808   6.035   7.416 -0.3772  1.4485  0.0531
   30ccc     H5  778   2.714   5.887   7.435  0.5143  0.2778 -0.9102
   30ccc     N2  779   2.651   6.047   7.558 -0.1621 -0.3822 -0.2403
   30ccc     C3  780   2.682   6.202   7.572 -0.8679 -0.3768 -0.2893
   30ccc     C4  781   2.712   5.971   7.673 -0.3503  0.4372 -0.5630
   30ccc     H6  782   2.746   5.872   7.641 -0.1000 -0.6287  2.6227
   30ccc     C5  783   2.625   5.961   7.799  0.1333 -0.3008 -0.0459
   30ccc     H7  784   2.806   6.018   7.703 -0.0157 -1.0011  0.8331
   30ccc     H8  785   2.545   5.889   7.778 -0.7943  0.8464 -0.5328
   30ccc     H9  786   2.584   6.060   7.823  1.4006  0.0632  0.7274
   30ccc     C6  787   2.703   5.900   7.915  0.3620 -0.2313 -0.5447
   30ccc     O1  788   2.669   5.939   8.041  0.8761  0.5333  0.3953
   30ccc     O2  789   2.802   5.838   7.888  0.2164  0.1865  0.0334
   30ccc    H10  790   2.643   6.240   7.666  2.8344  2.2144  0.4243
   30ccc    H11  791   2.626   6.264   7.501 -1.0304  0.0840  0.2380
   30ccc     C7  792   2.830   6.255   7.580  0.7693  0.1373 -0.5849
   30ccc    H12  793   2.905   6.211   7.512  2.2496 -0.0172  1.0744
   30ccc    H13  794   2.864   6.225   7.679 -0.4882  0.4848 -0.0333
   30ccc     C8  795   2.837   6.405   7.582 -0.2127  0.3515 -0.9298
   30ccc     O3  796   2.743   6.468   7.540  0.1448  0.4421 -0.2403
   30ccc     O4  797   2.949   6.470   7.613  0.1720  0.1243 -0.2351
   30ccc    H14  798   2.741   5.905   8.097  1.0359 -3.0749 -1.7156
   30ccc    H15  799   3.010   6.396   7.635 -0.6987 -0.1031  1.6497
   30ccc    H16  800   2.551   6.026   7.561 -0.3289  0.4963  1.1074
   31ccc     N1  801   2.580   5.643   6.881  0.0152 -0.2171  0.4196
   31ccc     H1  802   2.556   5.561   6.936  3.6780 -1.5107  0.3445
   31ccc     C1  803   2.712   5.629   6.807  0.6048  0.7411 -0.0505
   31ccc     H2  804   2.747   5.732   6.789 -1.2578  1.3790 -0.2123
   31ccc     C2  805   2.706   5.557   6.670  0.0901 -0.4905  0.0554
   31ccc     H3  806   2.784   5.587   6.878 -1.7964  2.1041  3.4627
   31ccc     H4  807   2.805   5.539   6.627  0.2848 -1.1204  0.7557
   31ccc     H5  808   2.647   5.610   6.595 -0.6087  0.6534  1.3554
   31ccc     N2  809   2.654   5.414   6.682  0.6350  0.4048 -0.0908
   31ccc     C3  810   2.752   5.320   6.758 -0.5163 -0.2919  0.2163
   31ccc     C4  811   2.617   5.367   6.538 -0.7812 -0.0368 -0.7773
   31ccc     H6  812   2.583   5.266   6.562 -2.3291  0.8800  1.1473
   31ccc     C5  813   2.728   5.357   6.431 -0.1220 -0.5573  0.5519
   31ccc     H7  814   2.538   5.423   6.489  1.3667  2.4672 -1.6079
   31ccc     H8  815   2.798   5.274   6.452  1.6338  0.6156 -0.4097
   31ccc     H9  816   2.793   5.445   6.436  0.0259 -0.4604 -1.9699
   31ccc     C6  817   2.680   5.350   6.281  0.1845 -0.0268  0.1714
   31ccc     O1  818   2.773   5.321   6.191  0.2463 -0.3739  0.0956
   31ccc     O2  819   2.562   5.360   6.259 -0.1551  0.2062  0.7015
   31ccc    H10  820   2.777   5.350   6.860 -0.6906  1.5239 -0.2539
   31ccc    H11  821   2.845   5.333   6.704 -1.2285 -1.4279 -1.3614
   31ccc     C7  822   2.725   5.169   6.774  0.4993 -0.7181 -0.0745
   31ccc    H12  823   2.725   5.131   6.671  0.1767  0.1132 -0.3882
   31ccc    H13  824   2.622   5.160   6.812  0.3257  3.7869  1.0496
   31ccc     C8  825   2.817   5.103   6.871 -0.2792  0.4491  0.7352
   31ccc     O3  826   2.920   5.154   6.902 -0.5579 -0.0810  0.4020
   31ccc     O4  827   2.794   4.965   6.886 -0.3992 -0.3108  0.2264
   31ccc    H14  828   2.855   5.330   6.242  0.4302 -3.0705  0.4191
   31ccc    H15  829   2.707   4.947   6.846  0.9955 -0.2573 -3.1751
   31ccc    H16  830   2.565   5.424   6.733  1.1817 -2.8573  1.7348
   32ccc     N1  831   1.336   6.841   7.089 -0.2566  0.3868 -0.7283
   32ccc     H1  832   1.303   6.935   7.106 -0.2091  0.4174 -0.8031
   32ccc     C1  833   1.319   6.743   7.205 -0.3464 -0.0914  0.6473
   32ccc     H2  834   1.242   6.669   7.178 -2.8401  2.6270 -0.2937
   32ccc     C2  835   1.289   6.813   7.339 -0.1385  0.5438  0.6702
   32ccc     H3  836   1.418   6.696   7.206 -1.0893 -1.7199  0.4066
   32ccc     H4  837   1.347   6.904   7.356  0.6724 -0.3336  3.0879
   32ccc     H5  838   1.318   6.743   7.418 -1.4956 -0.8137  0.0262
   32ccc     N2  839   1.144   6.856   7.368 -0.0979 -0.5071 -0.1096
   32ccc     C3  840   1.144   6.963   7.483  0.2929 -0.1894  0.9499
   32ccc     C4  841   1.066   6.727   7.401  0.3541 -0.2793  0.7687
   32ccc     H6  842   1.094   6.646   7.334  2.5719  1.0516 -0.0046
   32ccc     C5  843   0.912   6.756   7.392  0.5398  0.1001 -0.1446
   32ccc     H7  844   1.093   6.680   7.495  0.9591  0.3942  0.9440
   32ccc     H8  845   0.892   6.755   7.284  0.1858  0.8808 -0.0924
   32ccc     H9  846   0.882   6.854   7.432 -3.6097 -0.2774 -1.8209
   32ccc     C6  847   0.817   6.662   7.465  0.2983 -0.2596 -0.9806
   32ccc     O1  848   0.816   6.542   7.412 -0.0383  0.7613 -0.1652
   32ccc     O2  849   0.727   6.695   7.544 -0.1330 -0.1286  0.6458
   32ccc    H10  850   1.167   6.914   7.578 -1.3080  2.5710  2.9077
   32ccc    H11  851   1.045   7.008   7.491  0.0800 -0.3134 -0.7426
   32ccc     C7  852   1.244   7.077   7.473  0.4416  0.5780 -0.4844
   32ccc    H12  853   1.254   7.111   7.370  2.0719  1.9091  0.0591
   32ccc    H13  854   1.346   7.044   7.497  1.0278  2.6528  0.0869
   32ccc     C8  855   1.210   7.213   7.550 -0.1305  1.2577  0.2344
   32ccc     O3  856   1.102   7.225   7.604  0.0823 -0.1532 -0.1857
   32ccc     O4  857   1.318   7.295   7.585  0.0714  0.5950 -0.2522
   32ccc    H14  858   0.864   6.547   7.327 -0.4378 -0.6779 -0.5115
   32ccc    H15  859   1.394   7.242   7.557 -0.7300 -1.9699  1.9646
   32ccc    H16  860   1.102   6.899   7.285 -1.4578  1.2004  1.4005
   33ccc     N1  861   1.808   6.819   6.434 -0.2008  0.5017  0.1261
   33ccc     H1  862   1.802   6.732   6.383  1.2184 -0.9202  2.2207
   33ccc     C1  863   1.937   6.883   6.462 -0.4578 -0.2041 -0.3431
   33ccc     H2  864   1.937   6.989   6.435  0.1752 -0.3629 -1.0200
   33ccc     C2  865   2.057   6.807   6.399  0.2652 -0.4207  0.2293
   33ccc     H3  866   1.953   6.881   6.570 -1.0378 -0.4464 -0.2598
   33ccc     H4  867   2.066   6.709   6.446  1.8849 -0.0341  0.7870
   33ccc     H5  868   2.150   6.862   6.415  0.4301 -1.2176  2.2716
   33ccc     N2  869   2.031   6.776   6.256  0.2425  0.0998  0.4295
   33ccc     C3  870   2.032   6.621   6.234 -0.0703  0.6088 -0.6298
   33ccc     C4  871   2.142   6.844   6.164 -0.1920  0.3660  0.0333
   33ccc     H6  872   2.240   6.832   6.210 -0.2898 -1.9136 -0.2478
   33ccc     C5  873   2.125   6.994   6.145  0.2523  0.0754  0.0696
   33ccc     H7  874   2.146   6.788   6.070  0.2994  0.6267 -0.1059
   33ccc     H8  875   2.121   7.038   6.245 -0.6368  0.1141  0.0219
   33ccc     H9  876   2.028   7.020   6.101  0.2175 -2.4408 -1.5253
   33ccc     C6  877   2.244   7.052   6.073 -0.8365 -0.5038 -0.3037
   33ccc     O1  878   2.244   7.051   5.943 -0.1489 -0.0789 -0.5096
   33ccc     O2  879   2.332   7.119   6.129  0.1444  0.2560 -0.0338
   33ccc    H10  880   1.953   6.581   6.299  0.7673  1.2462  0.8100
   33ccc    H11  881   2.122   6.586   6.283 -0.8908 -1.3260 -0.3963
   33ccc     C7  882   2.015   6.583   6.090  0.1270  0.7385  0.3368
   33ccc    H12  883   2.098   6.610   6.024 -1.5122  3.0769 -0.8874
   33ccc    H13  884   1.941   6.646   6.041  0.3226 -0.1929 -1.2266
   33ccc     C8  885   1.986   6.432   6.074 -0.9591 -0.8204 -0.5353
   33ccc     O3  886   2.030   6.356   6.161  0.1992 -0.0083  0.1443
   33ccc     O4  887   1.975   6.383   5.954 -0.3521 -0.3406  0.1631
   33ccc    H14  888   2.164   7.006   5.912 -0.2248  0.2936 -0.8788
   33ccc    H15  889   1.951   6.464   5.904  1.1173  0.6319  0.9567
   33ccc    H16  890   1.942   6.820   6.230  1.0915  0.9962 -1.1366
   34ccc     N1  891   2.973   4.789   6.652 -0.4225 -0.2175 -0.2593
   34ccc     H1  892   2.899   4.743   6.703  0.3206 -1.3209 -0.1381
   34ccc     C1  893   3.112   4.794   6.703  0.3768  0.2071 -0.6929
   34ccc     H2  894   3.184   4.762   6.627 -0.6436 -1.6098 -0.9368
   34ccc     C2  895   3.129   4.697   6.818  0.0437  0.0023 -0.2955
   34ccc     H3  896   3.128   4.896   6.741  0.8816 -0.7164  1.7898
   34ccc     H4  897   3.235   4.705   6.843 -0.5421 -0.7166  2.9759
   34ccc     H5  898   3.111   4.599   6.775 -0.9902  0.1291 -0.1794
   34ccc     N2  899   3.044   4.732   6.943 -0.1179 -0.8396 -0.2605
   34ccc     C3  900   3.069   4.879   6.974  0.2415  0.1808  0.3362
   34ccc     C4  901   3.077   4.641   7.063  0.8765  0.1569  0.3690
   34ccc     H6  902   3.184   4.632   7.087  0.2536  1.5445  4.4664
   34ccc     C5  903   3.034   4.493   7.032 -0.6564 -0.0699 -0.1794
   34ccc     H7  904   3.029   4.679   7.153  1.0839  1.1859  0.0691
   34ccc     H8  905   3.067   4.468   6.930  0.2905  0.1207  0.0728
   34ccc     H9  906   2.925   4.507   7.029 -0.5424  2.0003  2.0970
   34ccc     C6  907   3.081   4.403   7.142  0.3812  0.2339  0.9336
   34ccc     O1  908   3.169   4.312   7.103 -0.4941 -0.0020  0.2666
   34ccc     O2  909   3.068   4.430   7.259  0.1184  0.6804  0.3046
   34ccc    H10  910   2.983   4.910   7.033 -0.4184  2.2618 -1.5672
   34ccc    H11  911   3.052   4.952   6.894 -1.9313 -1.1010 -0.4607
   34ccc     C7  912   3.205   4.914   7.041  0.3928 -0.0076  0.2108
   34ccc    H12  913   3.285   4.905   6.967 -0.6332  0.4310 -0.9914
   34ccc    H13  914   3.218   4.845   7.126  0.1169 -3.0332 -2.0468
   34ccc     C8  915   3.222   5.056   7.083  0.3825 -1.2659  0.2413
   34ccc     O3  916   3.270   5.137   7.004  0.7200  0.1732  0.0075
   34ccc     O4  917   3.180   5.081   7.205 -0.3390  0.8677  0.5986
   34ccc    H14  918   3.168   4.308   7.006 -1.3405  2.1580  0.1122
   34ccc    H15  919   3.189   5.178   7.201  1.6738  0.6733 -0.7732
   34ccc    H16  920   2.944   4.728   6.919 -0.7848  0.2970  1.9977
   35ccc     N1  921   2.353   4.445   6.066 -0.0735  0.0005 -0.3454
   35ccc     H1  922   2.373   4.522   6.003  1.8338 -1.2534 -1.3454
   35ccc     C1  923   2.257   4.337   6.036  0.4256  0.4409 -0.7013
   35ccc     H2  924   2.307   4.240   6.048 -0.0479  0.1088 -1.3424
   35ccc     C2  925   2.189   4.331   5.901 -0.1365  0.2157  0.4770
   35ccc     H3  926   2.185   4.334   6.118  0.1211  0.3493 -0.9675
   35ccc     H4  927   2.128   4.241   5.891  0.6737 -0.3321  0.3759
   35ccc     H5  928   2.273   4.335   5.832 -0.0825  2.3870  0.5905
   35ccc     N2  929   2.093   4.443   5.871 -0.2853  0.3257  0.1811
   35ccc     C3  930   1.955   4.418   5.940 -0.0225 -0.4955 -0.4620
   35ccc     C4  931   2.080   4.444   5.720 -0.6873 -0.5154 -0.0978
   35ccc     H6  932   2.176   4.424   5.673 -0.1770  2.1604 -0.3048
   35ccc     C5  933   2.021   4.578   5.674 -0.1682 -0.1903 -0.2757
   35ccc     H7  934   2.028   4.356   5.682 -0.1352 -1.5170  1.3738
   35ccc     H8  935   2.091   4.661   5.688  1.4939 -0.7132 -4.0222
   35ccc     H9  936   1.926   4.601   5.724  1.3647  0.0720  2.7253
   35ccc     C6  937   1.997   4.570   5.522  0.5393 -0.5601 -0.9336
   35ccc     O1  938   2.003   4.688   5.461  0.0591 -0.0407 -0.6080
   35ccc     O2  939   2.029   4.465   5.466 -0.3844 -0.2102  0.0132
   35ccc    H10  940   1.905   4.513   5.918  1.9081  1.5083  2.9274
   35ccc    H11  941   1.973   4.429   6.047  0.4110 -2.1406 -0.3401
   35ccc     C7  942   1.883   4.287   5.917 -0.1916  0.3694  0.5443
   35ccc    H12  943   1.930   4.195   5.954 -0.2483 -1.1002 -2.7063
   35ccc    H13  944   1.862   4.271   5.810 -1.9547  1.4747  0.6867
   35ccc     C8  945   1.751   4.294   5.984 -0.0171 -0.0405  0.6706
   35ccc     O3  946   1.666   4.383   5.966  0.2448  0.0411  0.5393
   35ccc     O4  947   1.722   4.194   6.073 -0.1877  0.2934 -0.1370
   35ccc    H14  948   1.994   4.751   5.534  1.2614  1.4691 -1.7022
   35ccc    H15  949   1.628   4.213   6.090 -0.6388 -1.4738 -0.4365
   35ccc    H16  950   2.128   4.535   5.902 -2.6204  1.8928 -1.4752
   36ccc     N1  951   3.741   5.999   5.833 -0.1377 -0.0788 -0.9735
   36ccc     H1  952   3.754   6.050   5.920 -1.6582 -0.8589 -0.2449
   36ccc     C1  953   3.807   6.054   5.717  0.2113  0.1824  0.3441
   36ccc     H2  954   3.753   6.023   5.626  0.1564 -1.2862  0.8489
   36ccc     C2  955   3.955   6.003   5.719 -0.0207  0.3819  0.4573
   36ccc     H3  956   3.796   6.163   5.719 -0.7413  0.0867  1.4824
   36ccc     H4  957   4.003   6.058   5.800  1.7949  0.3999 -0.5761
   36ccc     H5  958   3.999   6.041   5.626  0.3751 -0.0889  0.4522
   36ccc     N2  959   3.983   5.855   5.740 -0.2228 -0.3072  0.6398
   36ccc     C3  960   4.128   5.811   5.737 -0.3545 -0.2270 -0.0967
   36ccc     C4  961   3.911   5.775   5.630  0.2304 -0.5112 -0.9130
   36ccc     H6  962   3.818   5.823   5.599 -0.6069  0.2241  2.3584
   36ccc     C5  963   3.876   5.635   5.684  0.0904  0.3900  0.3372
   36ccc     H7  964   3.981   5.770   5.546 -0.3622  0.7291 -1.5044
   36ccc     H8  965   3.805   5.632   5.767  0.0699 -0.6091  0.2986
   36ccc     H9  966   3.967   5.587   5.722 -0.4610  0.2194  1.4911
   36ccc     C6  967   3.810   5.550   5.572 -0.3345 -0.4640 -0.0378
   36ccc     O1  968   3.875   5.432   5.550  0.7685 -0.4254 -0.2376
   36ccc     O2  969   3.702   5.576   5.521 -0.1499 -0.1952 -0.6912
   36ccc    H10  970   4.183   5.865   5.660  0.2835  1.4326  1.4531
   36ccc    H11  971   4.127   5.702   5.727  1.1237 -0.0796 -2.6578
   36ccc     C7  972   4.198   5.850   5.863  0.2692  0.0836 -0.6851
   36ccc    H12  973   4.154   5.815   5.957  2.5322 -1.0329  0.0281
   36ccc    H13  974   4.204   5.959   5.861 -1.7049  0.2480  0.2421
   36ccc     C8  975   4.339   5.794   5.861 -0.2051 -0.4260  0.6702
   36ccc     O3  976   4.415   5.811   5.768 -0.9675  0.0271  0.2317
   36ccc     O4  977   4.376   5.723   5.961  0.0873  0.3169  0.0114
   36ccc    H14  978   3.929   5.416   5.629 -0.6388  2.7164  1.5717
   36ccc    H15  979   4.467   5.698   5.940  0.4852  0.5860  1.3125
   36ccc    H16  980   3.945   5.832   5.833 -1.4438 -0.8894  0.0219
   37ccc     N1  981   3.683   5.428   6.226  0.1397 -0.3369 -0.0864
   37ccc     H1  982   3.702   5.391   6.134  0.1266  0.9717 -0.6290
   37ccc     C1  983   3.753   5.363   6.333  0.6277  0.0209  0.2195
   37ccc     H2  984   3.691   5.372   6.423 -0.3881  0.3353 -0.4909
   37ccc     C2  985   3.894   5.422   6.359 -0.4183  0.2339  0.4678
   37ccc     H3  986   3.759   5.261   6.293 -0.3845  1.2709 -3.5406
   37ccc     H4  987   3.948   5.362   6.433  1.8563  0.8537 -0.6135
   37ccc     H5  988   3.879   5.527   6.383 -1.2094  0.9847 -2.8440
   37ccc     N2  989   3.976   5.429   6.227  0.1593  0.1472  0.2923
   37ccc     C3  990   4.118   5.417   6.273 -0.2388 -0.1497 -0.1854
   37ccc     C4  991   3.939   5.545   6.134 -0.0011  0.5790 -1.1452
   37ccc     H6  992   3.996   5.515   6.046  0.0414 -1.0436 -0.6060
   37ccc     C5  993   3.964   5.681   6.197  0.4878 -0.4513  0.1831
   37ccc     H7  994   3.835   5.541   6.102 -1.0159  0.9676  1.8299
   37ccc     H8  995   4.070   5.701   6.217 -0.0047  3.3379 -0.3463
   37ccc     H9  996   3.903   5.697   6.287 -1.4232 -0.0036 -1.1246
   37ccc     C6  997   3.922   5.789   6.104 -0.0528  0.4793 -0.7351
   37ccc     O1  998   3.991   5.899   6.133  0.1960 -0.3171  0.2442
   37ccc     O2  999   3.872   5.769   5.993 -0.1615  0.5289  0.5222
   37ccc    H10 1000   4.118   5.321   6.324  0.3048 -0.5957 -1.0048
   37ccc    H11 1001   4.142   5.499   6.340 -0.3186  0.4429 -0.8676
   37ccc     C7 1002   4.210   5.415   6.154 -0.5520 -0.1944 -0.1160
   37ccc    H12 1003   4.209   5.509   6.098 -3.2925  0.2282  0.4904
   37ccc    H13 1004   4.181   5.344   6.076 -2.5127  2.6915 -2.2237
   37ccc     C8 1005   4.354   5.370   6.193  0.7876  0.0060  0.1651
   37ccc     O3 1006   4.373   5.256   6.238  0.1155  0.0459 -0.4040
   37ccc     O4 1007   4.445   5.467   6.190 -0.1584  0.2528  0.0835
   37ccc    H14 1008   4.024   5.881   6.223 -0.0876  0.3134  0.4831
   37ccc    H15 1009   4.526   5.415   6.174  0.0579  1.4398 -3.5191
   37ccc    H16 1010   3.945   5.345   6.176  0.8356  0.5991 -0.9293
   38ccc     N1 1011   1.817   8.468   5.282  0.1305  0.2510 -0.0602
   38ccc     H1 1012   1.817   8.567   5.302 -0.5855  0.3338 -0.4058
   38ccc     C1 1013   1.843   8.424   5.145  0.4325  0.5591 -0.1308
   38ccc     H2 1014   1.933   8.361   5.152  0.4338  0.5103 -0.5979
   38ccc     C2 1015   1.871   8.532   5.041 -0.0535 -0.1410  0.1993
   38ccc     H3 1016   1.767   8.351   5.115  0.7983  0.3424 -0.5397
   38ccc     H4 1017   1.975   8.563   5.053 -0.0276  0.3757 -1.2170
   38ccc     H5 1018   1.806   8.617   5.061 -1.9123 -1.3057 -0.6556
   38ccc     N2 1019   1.859   8.492   4.889 -0.5544  0.0307 -0.2288
   38ccc     C3 1020   1.714   8.450   4.848  1.2224  0.5219 -0.4033
   38ccc     C4 1021   1.955   8.376   4.854  0.0287 -0.1990  0.4114
   38ccc     H6 1022   1.953   8.299   4.932  0.9469 -2.6460 -1.8371
   38ccc     C5 1023   2.099   8.426   4.836 -0.5759 -0.2444  0.2619
   38ccc     H7 1024   1.927   8.329   4.760 -0.9381  1.2034 -0.0298
   38ccc     H8 1025   2.147   8.448   4.933 -0.7941 -0.2186  0.3658
   38ccc     H9 1026   2.107   8.515   4.772  0.9469 -0.1290  0.5621
   38ccc     C6 1027   2.177   8.324   4.763 -0.2263 -0.6963 -0.5212
   38ccc     O1 1028   2.299   8.308   4.806 -0.6997  0.2084  0.2511
   38ccc     O2 1029   2.135   8.263   4.672  0.5150 -0.3377  0.4454
   38ccc    H10 1030   1.675   8.370   4.911  2.8755 -1.2320 -1.4922
   38ccc    H11 1031   1.713   8.414   4.745 -1.5389  0.0808 -0.2943
   38ccc     C7 1032   1.610   8.572   4.857  0.2011 -0.3363 -0.3013
   38ccc    H12 1033   1.644   8.645   4.783 -0.0362  0.6391  0.5255
   38ccc    H13 1034   1.627   8.619   4.955  1.0300 -2.6659  0.7701
   38ccc     C8 1035   1.469   8.543   4.817 -0.7895  0.1466  0.0251
   38ccc     O3 1036   1.426   8.441   4.770 -0.0670  0.5416  0.1408
   38ccc     O4 1037   1.400   8.651   4.814  0.2261  0.4186 -0.4238
   38ccc    H14 1038   2.329   8.241   4.742  0.0565  0.8293 -0.0579
   38ccc    H15 1039   1.451   8.719   4.861 -0.5669  1.1526 -0.6000
   38ccc    H16 1040   1.886   8.573   4.832 -0.7739  0.4971  0.3191
   39ccc     N1 1041   1.409   8.035   5.609  0.2590  0.2342  0.3462
   39ccc     H1 1042   1.385   7.997   5.699  1.6315 -0.5453  0.3995
   39ccc     C1 1043   1.355   7.977   5.482  0.4969  0.0511  0.4438
   39ccc     H2 1044   1.428   7.973   5.400 -1.2335  2.9133 -1.4146
   39ccc     C2 1045   1.225   8.056   5.428 -0.3743 -0.6000 -0.2858
   39ccc     H3 1046   1.311   7.880   5.508 -2.9356  0.6406 -2.3824
   39ccc     H4 1047   1.147   8.040   5.503  0.5532 -1.4856  0.5279
   39ccc     H5 1048   1.183   8.017   5.335  1.1813  3.0142 -2.7111
   39ccc     N2 1049   1.233   8.209   5.408  0.2935 -0.3035  0.3258
   39ccc     C3 1050   1.088   8.265   5.400 -0.0544 -0.0797 -0.0649
   39ccc     C4 1051   1.320   8.242   5.287  0.0218  0.0949 -0.1928
   39ccc     H6 1052   1.417   8.198   5.309  0.1280  0.4512  0.0429
   39ccc     C5 1053   1.340   8.396   5.268  0.3758  0.3981  0.1076
   39ccc     H7 1054   1.277   8.191   5.200  3.7477 -0.4522 -1.9217
   39ccc     H8 1055   1.385   8.443   5.356 -0.0485 -2.4180  1.9481
   39ccc     H9 1056   1.242   8.443   5.249 -0.3323 -1.0286  0.1202
   39ccc     C6 1057   1.441   8.429   5.153 -0.1658  0.7310  0.0934
   39ccc     O1 1058   1.450   8.556   5.117  0.2067 -0.0731  0.0739
   39ccc     O2 1059   1.516   8.348   5.100 -0.1058  0.2766 -0.5198
   39ccc    H10 1060   1.040   8.215   5.316 -0.4913  0.7535 -0.3233
   39ccc    H11 1061   1.103   8.373   5.392  2.1152 -0.3326 -0.0098
   39ccc     C7 1062   1.011   8.256   5.538  0.4402 -0.3448 -0.8080
   39ccc    H12 1063   1.035   8.344   5.598  0.0840 -0.1973 -0.8802
   39ccc    H13 1064   1.037   8.165   5.594 -0.1844  0.0283  0.1002
   39ccc     C8 1065   0.861   8.263   5.521 -0.1164 -0.2816  0.3338
   39ccc     O3 1066   0.813   8.255   5.410  0.7455 -0.4055 -0.2901
   39ccc     O4 1067   0.782   8.292   5.622  0.4291  0.0097  0.1741
   39ccc    H14 1068   1.388   8.610   5.169  0.7110  0.4100  0.1771
   39ccc    H15 1069   0.694   8.301   5.582 -0.1079  1.6558  1.5763
   39ccc    H16 1070   1.270   8.257   5.491 -0.4017 -1.5753  1.4097
   40ccc     N1 1071   0.874   7.943   4.840  0.0354 -0.7405  0.2639
   40ccc     H1 1072   0.909   7.851   4.867 -2.5394 -2.4623 -1.7418
   40ccc     C1 1073   0.739   7.986   4.885  0.5760 -0.1445  0.1735
   40ccc     H2 1074   0.740   8.094   4.900  1.8271  0.0295 -1.0557
   40ccc     C2 1075   0.693   7.926   5.016  0.4488  0.2041  0.4133
   40ccc     H3 1076   0.666   7.970   4.804  0.7194 -1.9533  0.3668
   40ccc     H4 1077   0.749   7.976   5.095 -1.3504  1.0343  1.2281
   40ccc     H5 1078   0.720   7.821   5.028  0.0686  0.1093  0.4473
   40ccc     N2 1079   0.540   7.952   5.052 -0.1927 -0.6422 -0.4092
   40ccc     C3 1080   0.522   7.928   5.199 -0.4781  0.3892 -0.1587
   40ccc     C4 1081   0.454   7.862   4.957  0.0714 -0.0463 -0.2015
   40ccc     H6 1082   0.484   7.882   4.854 -1.4505 -0.4234 -0.7338
   40ccc     C5 1083   0.301   7.872   4.963 -1.0648 -0.0278 -0.9644
   40ccc     H7 1084   0.493   7.764   4.982 -0.9584 -1.0899 -2.4823
   40ccc     H8 1085   0.271   7.977   4.967 -0.6603  0.0523  1.7870
   40ccc     H9 1086   0.269   7.828   5.058  2.5419  0.6600  0.7108
   40ccc     C6 1087   0.234   7.798   4.849 -0.0109  0.4594  0.2269
   40ccc     O1 1088   0.218   7.862   4.737  0.8042  0.2286  0.0398
   40ccc     O2 1089   0.214   7.675   4.856  0.2873  0.2351 -0.0290
   40ccc    H10 1090   0.590   7.850   5.234  1.8995  3.3234  2.4113
   40ccc    H11 1091   0.419   7.899   5.221 -0.5719  1.8456  1.4535
   40ccc     C7 1092   0.550   8.048   5.287 -0.2199 -0.3904 -0.2516
   40ccc    H12 1093   0.471   8.124   5.285  0.6522  0.5547  0.2193
   40ccc    H13 1094   0.645   8.097   5.263 -0.0867  0.1017  1.1997
   40ccc     C8 1095   0.573   8.000   5.432 -0.1687  0.4402 -0.1038
   40ccc     O3 1096   0.668   7.930   5.468 -0.1030 -0.0095 -0.3423
   40ccc     O4 1097   0.462   7.996   5.492 -0.4114 -0.2722  0.0556
   40ccc    H14 1098   0.238   7.955   4.754 -1.7018  0.6927  0.7564
   40ccc    H15 1099   0.469   7.939   5.571 -2.1424  0.9282  1.1730
   40ccc    H16 1100   0.526   8.053   5.036  1.9317 -0.0103  1.3277
   41ccc     N1 1101   1.397   7.756   4.186  0.3464  0.0550  0.3709
   41ccc     H1 1102   1.439   7.843   4.157 -0.5049  0.0086 -1.0843
   41ccc     C1 1103   1.381   7.657   4.085 -0.0046  0.0508  0.3857
   41ccc     H2 1104   1.291   7.601   4.111 -0.0106  1.1985  3.2279
   41ccc     C2 1105   1.510   7.573   4.070 -0.0599  0.0984 -0.0836
   41ccc     H3 1106   1.366   7.711   3.991  0.5180 -0.0813  0.2228
   41ccc     H4 1107   1.589   7.645   4.049  1.3200 -1.0201  1.0602
   41ccc     H5 1108   1.495   7.510   3.982 -3.1391  1.6907 -0.8322
   41ccc     N2 1109   1.549   7.497   4.199  0.2638  0.7835 -0.2301
   41ccc     C3 1110   1.685   7.434   4.169 -0.7132  0.5940  0.1969
   41ccc     C4 1111   1.442   7.385   4.233  0.3099  0.5584  0.2742
   41ccc     H6 1112   1.475   7.332   4.323  2.1995 -0.3507 -0.8674
   41ccc     C5 1113   1.412   7.286   4.113 -0.0894 -0.4206  0.0673
   41ccc     H7 1114   1.354   7.442   4.262  0.0906  1.3327 -1.7226
   41ccc     H8 1115   1.506   7.251   4.069 -0.5340 -0.8708 -0.5432
   41ccc     H9 1116   1.349   7.346   4.045  0.9942  0.8292  0.1244
   41ccc     C6 1117   1.344   7.160   4.148  0.5811  0.9107 -0.0443
   41ccc     O1 1118   1.330   7.067   4.054 -0.7962  0.3632 -0.4622
   41ccc     O2 1119   1.314   7.124   4.263  0.2417 -0.1315 -0.1194
   41ccc    H10 1120   1.740   7.515   4.121  0.4562  1.0174  2.1196
   41ccc    H11 1121   1.677   7.356   4.094  1.5111 -0.1041  0.6250
   41ccc     C7 1122   1.768   7.369   4.287  0.4242 -0.3933 -0.3979
   41ccc    H12 1123   1.703   7.301   4.344 -0.5529  0.6667 -0.2163
   41ccc    H13 1124   1.806   7.442   4.360  0.7046  0.4034 -1.3253
   41ccc     C8 1125   1.888   7.284   4.236 -0.7251 -0.1366  0.2044
   41ccc     O3 1126   1.911   7.266   4.118 -0.3852 -0.4601  0.5242
   41ccc     O4 1127   1.986   7.259   4.322 -0.5118  0.3791  0.0013
   41ccc    H14 1128   1.366   7.114   3.976  1.3096  1.9505  1.3488
   41ccc    H15 1129   1.948   7.270   4.411 -0.0245  2.3189  0.0150
   41ccc    H16 1130   1.569   7.564   4.275 -0.7834  0.0769  0.7051
   42ccc     N1 1131   3.188   7.708   5.167 -0.1360  0.0010  0.5939
   42ccc     H1 1132   3.280   7.691   5.128 -0.1034 -3.2154  1.7534
   42ccc     C1 1133   3.070   7.685   5.084 -0.1623  0.4743 -0.2461
   42ccc     H2 1134   3.029   7.584   5.097 -0.3141  0.6432  0.6269
   42ccc     C2 1135   3.108   7.703   4.936 -0.0576  0.0698 -0.6160
   42ccc     H3 1136   2.981   7.744   5.112 -3.7026 -1.9459 -4.9187
   42ccc     H4 1137   3.014   7.703   4.881  1.4245 -0.0742 -3.3232
   42ccc     H5 1138   3.164   7.613   4.910 -0.6167 -0.9698  1.5887
   42ccc     N2 1139   3.188   7.830   4.899 -0.1924  0.2858 -0.1623
   42ccc     C3 1140   3.122   7.959   4.948 -0.5334  0.1370  0.4550
   42ccc     C4 1141   3.222   7.843   4.745  0.5349  0.8254 -0.2317
   42ccc     H6 1142   3.133   7.825   4.684  1.4658  1.1248 -1.7336
   42ccc     C5 1143   3.329   7.734   4.708  0.1041 -0.0802 -0.2592
   42ccc     H7 1144   3.264   7.941   4.723 -0.2421  0.8098 -1.9761
   42ccc     H8 1145   3.291   7.631   4.702  0.2467 -0.1361 -0.2225
   42ccc     H9 1146   3.415   7.738   4.777  1.8718 -0.5259 -2.3317
   42ccc     C6 1147   3.393   7.768   4.576 -0.1219 -0.0194  0.2295
   42ccc     O1 1148   3.430   7.662   4.504 -1.1142 -0.0240 -0.7493
   42ccc     O2 1149   3.383   7.878   4.519 -0.0907  0.4205 -0.4713
   42ccc    H10 1150   3.077   7.948   5.047 -1.4201  2.7290  0.4248
   42ccc    H11 1151   3.036   7.981   4.885  0.6696  2.5850 -0.4640
   42ccc     C7 1152   3.204   8.088   4.957 -0.6521 -0.0579 -0.2812
   42ccc    H12 1153   3.156   8.174   4.910 -1.0715 -0.8191 -1.2857
   42ccc    H13 1154   3.304   8.069   4.916 -1.1427 -1.6977 -0.8081
   42ccc     C8 1155   3.225   8.133   5.101 -0.4262  0.0639 -0.2325
   42ccc     O3 1156   3.181   8.076   5.199 -0.0888 -0.3669  0.3996
   42ccc     O4 1157   3.263   8.258   5.103  0.3270  0.7537 -0.3011
   42ccc    H14 1158   3.412   7.586   4.561  0.6092  1.9226  2.7394
   42ccc    H15 1159   3.285   8.275   5.196 -1.1772  0.5108  0.1284
   42ccc    H16 1160   3.275   7.823   4.955 -0.0206  0.9061 -0.3402
   43ccc     N1 1161   2.896   8.121   5.424  0.3483  0.1417 -0.0970
   43ccc     H1 1162   2.922   8.202   5.369  1.6953 -0.7372 -0.8035
   43ccc     C1 1163   2.803   8.025   5.357 -0.7340 -0.1273 -0.2836
   43ccc     H2 1164   2.853   7.971   5.275 -1.4509  0.8090 -1.3839
   43ccc     C2 1165   2.686   8.107   5.295  0.0150  0.0513  0.5714
   43ccc     H3 1166   2.762   7.950   5.425 -1.6032 -1.3683 -2.1036
   43ccc     H4 1167   2.618   8.033   5.253 -0.7822  1.2571 -0.3501
   43ccc     H5 1168   2.716   8.154   5.201 -0.4461  1.0131  0.8905
   43ccc     N2 1169   2.622   8.217   5.376  0.3877  0.2852  0.0867
   43ccc     C3 1170   2.566   8.161   5.508  0.2893  0.1209  0.2468
   43ccc     C4 1171   2.515   8.290   5.286  0.3897  0.1856  0.0575
   43ccc     H6 1172   2.455   8.361   5.343  0.1318  0.2014 -0.2346
   43ccc     C5 1173   2.407   8.195   5.224 -0.2598  0.3903 -0.5163
   43ccc     H7 1174   2.567   8.338   5.202 -1.4384  2.3982  0.1004
   43ccc     H8 1175   2.368   8.131   5.305  3.3540 -1.2308  0.1591
   43ccc     H9 1176   2.459   8.123   5.159  2.8178  1.1356  0.9221
   43ccc     C6 1177   2.294   8.272   5.160  0.0167  0.0416  0.7860
   43ccc     O1 1178   2.226   8.195   5.070 -0.0665  0.1308 -0.0240
   43ccc     O2 1179   2.282   8.392   5.168 -0.5651  0.3903  0.2512
   43ccc    H10 1180   2.651   8.110   5.554 -0.3963 -1.2947 -0.0010
   43ccc    H11 1181   2.488   8.089   5.481 -0.0005  1.0987 -1.6508
   43ccc     C7 1182   2.517   8.263   5.615  0.4097  0.2877  0.2043
   43ccc    H12 1183   2.436   8.319   5.567 -2.5718 -1.1387  3.1409
   43ccc    H13 1184   2.598   8.328   5.650  1.9850 -1.7930  0.6222
   43ccc     C8 1185   2.444   8.198   5.738 -0.2623 -0.5415  0.8223
   43ccc     O3 1186   2.360   8.110   5.723 -0.0036  0.1017  0.0021
   43ccc     O4 1187   2.499   8.229   5.861 -0.4115  0.3491  1.0943
   43ccc    H14 1188   2.259   8.104   5.075 -1.4622 -0.4282 -0.6028
   43ccc    H15 1189   2.543   8.314   5.843  2.0667 -0.7130  1.7266
   43ccc    H16 1190   2.699   8.274   5.412  1.1667 -0.6845  0.0149
   44ccc     N1 1191   2.459   6.347   5.987 -0.5510  0.4491 -0.5567
   44ccc     H1 1192   2.474   6.344   6.088  0.0833  0.7682 -0.6331
   44ccc     C1 1193   2.368   6.251   5.929 -0.4128  0.2634 -0.5887
   44ccc     H2 1194   2.310   6.303   5.853 -1.7249  0.4266  0.4845
   44ccc     C2 1195   2.271   6.203   6.032  0.1814 -0.9622 -0.2138
   44ccc     H3 1196   2.420   6.165   5.884 -1.3260 -0.0841 -0.9982
   44ccc     H4 1197   2.201   6.137   5.981  1.5529 -2.9952  0.4112
   44ccc     H5 1198   2.214   6.289   6.066  0.1385 -2.1137  3.0234
   44ccc     N2 1199   2.338   6.142   6.157 -0.0551  0.5201  0.9080
   44ccc     C3 1200   2.398   5.998   6.119  1.1057  0.7972  0.5760
   44ccc     C4 1201   2.223   6.129   6.263 -0.2988  0.2805  0.2722
   44ccc     H6 1202   2.189   6.231   6.279 -0.6283  0.5189 -1.6797
   44ccc     C5 1203   2.264   6.072   6.401  0.0619 -0.3246  0.0261
   44ccc     H7 1204   2.145   6.073   6.213 -1.1761  2.2017 -0.6060
   44ccc     H8 1205   2.342   6.113   6.466 -1.2180 -1.6886  2.5923
   44ccc     H9 1206   2.289   5.966   6.387  0.8965 -0.4494  2.1248
   44ccc     C6 1207   2.131   6.074   6.473  1.2932 -0.2281 -0.2602
   44ccc     O1 1208   2.143   6.083   6.608 -0.0968  0.2437  0.2622
   44ccc     O2 1209   2.023   6.071   6.421 -0.0141 -0.7556  0.2233
   44ccc    H10 1210   2.455   5.973   6.208 -0.8705 -0.8770  1.4649
   44ccc    H11 1211   2.471   6.011   6.040  2.0150 -1.5039  0.9627
   44ccc     C7 1212   2.290   5.886   6.092  0.4020  0.6423 -0.4573
   44ccc    H12 1213   2.214   5.909   6.017 -0.5006 -0.9855 -0.1084
   44ccc    H13 1214   2.239   5.861   6.186 -0.5156 -0.3869 -1.1909
   44ccc     C8 1215   2.365   5.760   6.050 -0.6106 -0.1581  0.2252
   44ccc     O3 1216   2.482   5.763   6.018 -0.1245  0.3481  0.4117
   44ccc     O4 1217   2.286   5.657   6.014  0.3005  0.0683 -0.2230
   44ccc    H14 1218   2.238   6.086   6.632  0.0214 -2.8569  0.4945
   44ccc    H15 1219   2.196   5.669   6.047  0.0727  1.1602 -1.1827
   44ccc    H16 1220   2.411   6.203   6.196  1.4391 -0.8420  0.3843
   45ccc     N1 1221   3.008   6.402   5.483 -0.3755 -0.1522 -0.6343
   45ccc     H1 1222   3.109   6.413   5.479 -0.0940 -1.2849  1.6601
   45ccc     C1 1223   2.946   6.293   5.398 -0.1062  0.2488 -0.1606
   45ccc     H2 1224   2.905   6.207   5.454  1.8632 -1.7535 -1.6344
   45ccc     C2 1225   3.038   6.242   5.280  0.4575  0.7170 -0.3255
   45ccc     H3 1226   2.862   6.342   5.348  0.7937  1.4249 -0.5631
   45ccc     H4 1227   2.978   6.185   5.210  1.6703 -1.0662  0.0243
   45ccc     H5 1228   3.114   6.172   5.315  0.8645 -0.4007 -3.2207
   45ccc     N2 1229   3.113   6.359   5.207  0.4332  0.2812 -0.2724
   45ccc     C3 1230   3.019   6.452   5.127 -0.4105  0.5259 -0.1804
   45ccc     C4 1231   3.226   6.312   5.118 -0.1106  0.8906 -0.5299
   45ccc     H6 1232   3.175   6.267   5.033  0.7719 -0.6225 -0.3042
   45ccc     C5 1233   3.318   6.200   5.189 -0.1106  0.0255  0.8115
   45ccc     H7 1234   3.270   6.407   5.090 -0.2113  0.8308 -0.8887
   45ccc     H8 1235   3.272   6.102   5.177  1.5752 -0.7345  0.2627
   45ccc     H9 1236   3.337   6.229   5.294 -1.8389  2.9419  0.4357
   45ccc     C6 1237   3.444   6.197   5.105 -0.1186 -0.6479 -0.4918
   45ccc     O1 1238   3.547   6.135   5.166  0.3300  0.2125 -0.3732
   45ccc     O2 1239   3.458   6.255   4.999  0.1479 -0.5037  0.1534
   45ccc    H10 1240   2.929   6.477   5.184 -0.0662  2.8824 -0.5841
   45ccc    H11 1241   2.982   6.409   5.034  1.0943 -2.1425  0.3453
   45ccc     C7 1242   3.086   6.582   5.075 -0.9974  0.4573 -0.8547
   45ccc    H12 1243   3.151   6.547   4.994 -0.7653 -4.3679  1.0868
   45ccc    H13 1244   3.152   6.625   5.152 -0.6935 -1.1278 -0.1814
   45ccc     C8 1245   2.982   6.683   5.024  0.0058 -0.1446  0.3212
   45ccc     O3 1246   2.861   6.657   5.023 -0.4637 -0.1457  0.5842
   45ccc     O4 1247   3.028   6.792   4.967 -0.4684 -0.2060  0.2382
   45ccc    H14 1248   3.531   6.119   5.261  1.2362  1.7193  0.0630
   45ccc    H15 1249   3.124   6.797   4.957 -0.3048 -3.7156 -1.4042
   45ccc    H16 1250   3.158   6.412   5.284  0.0276 -1.9774  1.6146
   46ccc     N1 1251   2.669   7.194   2.697  0.5215  0.3734 -0.0657
   46ccc     H1 1252   2.733   7.271   2.683  0.5209  0.2252 -0.9733
   46ccc     C1 1253   2.670   7.082   2.595 -0.6520 -0.2389  0.1207
   46ccc     H2 1254   2.715   6.991   2.636 -0.7949 -1.2894 -1.9298
   46ccc     C2 1255   2.749   7.126   2.467  0.2438  0.1002 -0.0951
   46ccc     H3 1256   2.565   7.068   2.565 -1.0039  0.7091  0.8632
   46ccc     H4 1257   2.792   7.030   2.437  2.6421  1.6777 -2.1375
   46ccc     H5 1258   2.828   7.198   2.489  1.4007 -1.1236 -0.1276
   46ccc     N2 1259   2.659   7.168   2.349 -0.0493 -0.0080  0.0235
   46ccc     C3 1260   2.745   7.233   2.243  0.5096  0.1564  0.0264
   46ccc     C4 1261   2.554   7.272   2.395 -0.0246 -0.0777  0.5185
   46ccc     H6 1262   2.505   7.235   2.485 -0.1941  1.1727  0.9566
   46ccc     C5 1263   2.451   7.307   2.289  0.2765  0.3468 -0.7097
   46ccc     H7 1264   2.606   7.359   2.435  0.1360 -0.7072  1.7265
   46ccc     H8 1265   2.404   7.220   2.242 -1.4652  0.8660 -0.0246
   46ccc     H9 1266   2.500   7.366   2.210 -0.0050 -0.5246 -1.5515
   46ccc     C6 1267   2.328   7.384   2.338 -1.3742 -0.7561  0.0644
   46ccc     O1 1268   2.241   7.436   2.247  0.4113 -0.5403  0.4660
   46ccc     O2 1269   2.327   7.426   2.451  0.4281  0.1248  0.4673
   46ccc    H10 1270   2.799   7.320   2.281  0.8083 -0.3827  0.8378
   46ccc    H11 1271   2.681   7.263   2.159  0.4578 -0.5634 -0.1962
   46ccc     C7 1272   2.847   7.138   2.184 -0.0631  0.3644 -0.3334
   46ccc    H12 1273   2.796   7.062   2.124  3.0739 -1.0362 -1.4937
   46ccc    H13 1274   2.898   7.077   2.260  0.5992  0.8962 -0.3365
   46ccc     C8 1275   2.950   7.193   2.085  0.1621 -0.7406  0.1584
   46ccc     O3 1276   2.911   7.214   1.970  0.4590  0.2916  0.3027
   46ccc     O4 1277   3.073   7.170   2.119 -0.1458 -0.2545 -0.1806
   46ccc    H14 1278   2.263   7.404   2.158  2.2544  1.0052  0.2944
   46ccc    H15 1279   3.071   7.143   2.212  0.7944  0.8275  0.1814
   46ccc    H16 1280   2.615   7.082   2.313  0.0901 -0.8606  1.7892
   47ccc     N1 1281   2.645   6.908   3.440 -0.5144 -0.0994  0.0747
   47ccc     H1 1282   2.728   6.855   3.420 -1.6652 -1.5640 -1.0331
   47ccc     C1 1283   2.639   6.986   3.568 -0.4715  0.0419  0.5979
   47ccc     H2 1284   2.667   7.091   3.550  2.6785 -0.5250  1.6359
   47ccc     C2 1285   2.734   6.930   3.682  0.2220 -0.2244  0.0061
   47ccc     H3 1286   2.537   6.988   3.608  0.0122 -1.3729  1.9907
   47ccc     H4 1287   2.713   6.981   3.776  0.5114  0.7145 -0.4186
   47ccc     H5 1288   2.839   6.944   3.655  0.5804 -1.4502  0.6988
   47ccc     N2 1289   2.726   6.781   3.709 -0.1749 -0.0201  0.1052
   47ccc     C3 1290   2.580   6.737   3.735  0.0077  1.0403 -0.2554
   47ccc     C4 1291   2.823   6.741   3.819 -0.0401 -0.7218  0.1029
   47ccc     H6 1292   2.914   6.800   3.812  0.4103 -1.3759  0.3185
   47ccc     C5 1293   2.860   6.585   3.822 -0.0108  0.5985 -0.0202
   47ccc     H7 1294   2.778   6.774   3.913 -2.5343 -2.0339 -0.5365
   47ccc     H8 1295   2.928   6.559   3.740  1.6358  0.1498  1.4539
   47ccc     H9 1296   2.771   6.521   3.813  0.0027 -0.1808  3.8683
   47ccc     C6 1297   2.942   6.548   3.945  0.2701  0.3984 -0.1908
   47ccc     O1 1298   2.954   6.415   3.958 -0.7437  0.2890  0.0872
   47ccc     O2 1299   2.970   6.622   4.037  0.5217 -0.4451  0.0578
   47ccc    H10 1300   2.513   6.823   3.734 -1.1647  0.1999  1.0869
   47ccc    H11 1301   2.562   6.693   3.833 -2.2841 -0.7184 -1.3704
   47ccc     C7 1302   2.529   6.618   3.640 -0.1075 -0.0501 -0.4950
   47ccc    H12 1303   2.584   6.524   3.651 -3.1666 -1.9850 -0.3877
   47ccc    H13 1304   2.518   6.642   3.533  1.1276  2.3849 -0.1308
   47ccc     C8 1305   2.384   6.594   3.682  0.5794  0.4174  0.1428
   47ccc     O3 1306   2.350   6.612   3.795 -0.2012 -0.3040 -0.0428
   47ccc     O4 1307   2.297   6.597   3.585  0.9572 -0.0771  0.0874
   47ccc    H14 1308   2.926   6.362   3.881  0.4714 -1.4164  0.7490
   47ccc    H15 1309   2.211   6.570   3.622  0.3720 -0.8348 -1.7206
   47ccc    H16 1310   2.753   6.728   3.625 -4.5994 -1.0353 -0.9311
   48ccc     N1 1311   3.087   6.981   4.109 -0.2254  0.3865  0.4535
   48ccc     H1 1312   3.113   7.008   4.203  3.5367  0.1152 -0.3717
   48ccc     C1 1313   3.192   6.987   4.003 -0.5095 -0.4068  0.2468
   48ccc     H2 1314   3.172   7.059   3.923  1.3391  1.6544  1.5277
   48ccc     C2 1315   3.227   6.851   3.946 -0.7050 -0.2207 -0.1271
   48ccc     H3 1316   3.284   7.031   4.043 -1.0276 -2.5598  4.2697
   48ccc     H4 1317   3.302   6.871   3.869 -1.0859  0.2587 -0.3847
   48ccc     H5 1318   3.134   6.807   3.910 -0.2268 -0.6797 -0.8353
   48ccc     N2 1319   3.296   6.755   4.045 -0.1348 -0.0293  0.4513
   48ccc     C3 1320   3.432   6.794   4.089 -0.8828  0.0358  0.0814
   48ccc     C4 1321   3.291   6.615   3.988 -0.3656  0.3820 -0.3920
   48ccc     H6 1322   3.195   6.602   3.939 -0.3659 -2.0512  0.1070
   48ccc     C5 1323   3.306   6.495   4.082  0.4416 -0.4411 -0.3025
   48ccc     H7 1324   3.362   6.610   3.905 -0.2765  0.5720 -0.3277
   48ccc     H8 1325   3.222   6.492   4.152  0.1421  3.1915 -0.2944
   48ccc     H9 1326   3.393   6.506   4.147  0.5608  1.2633 -0.7129
   48ccc     C6 1327   3.318   6.374   3.995  1.2539  0.3978 -0.2449
   48ccc     O1 1328   3.345   6.259   4.056  0.5182 -0.5326  0.2660
   48ccc     O2 1329   3.326   6.380   3.873 -0.3579 -0.2627 -0.5248
   48ccc    H10 1330   3.461   6.715   4.159  0.2702 -0.1901 -0.6262
   48ccc    H11 1331   3.425   6.889   4.141 -1.6196 -0.0264  0.0989
   48ccc     C7 1332   3.546   6.800   3.984 -0.4025  0.1331 -0.9383
   48ccc    H12 1333   3.508   6.781   3.883  0.0235 -1.3187 -0.8491
   48ccc    H13 1334   3.616   6.715   3.984 -0.9777 -0.3448 -0.8933
   48ccc     C8 1335   3.612   6.936   3.984 -0.4651 -0.1770  0.0442
   48ccc     O3 1336   3.567   7.031   4.045 -0.3980 -0.3547 -0.4895
   48ccc     O4 1337   3.669   6.956   3.870  0.7215 -0.3366 -0.2979
   48ccc    H14 1338   3.343   6.276   4.152  2.2255  0.2542  0.2133
   48ccc    H15 1339   3.705   7.047   3.875 -0.4713  0.3229 -2.3583
   48ccc    H16 1340   3.227   6.750   4.122 -0.8859 -2.6232 -0.2715
   49ccc     N1 1341   2.628   6.835   4.694 -0.2487  0.2852 -0.5243
   49ccc     H1 1342   2.627   6.933   4.720  0.6618  0.8670 -2.5367
   49ccc     C1 1343   2.700   6.739   4.771  0.0369  1.0165 -0.1690
   49ccc     H2 1344   2.757   6.682   4.696 -2.2884  0.8991 -1.9780
   49ccc     C2 1345   2.598   6.639   4.843 -0.9225 -0.0912  0.3334
   49ccc     H3 1346   2.763   6.791   4.844  1.4569 -0.5280 -0.2355
   49ccc     H4 1347   2.657   6.571   4.905 -0.1364  0.8695  0.6528
   49ccc     H5 1348   2.555   6.594   4.754  1.4401  0.4726 -1.1712
   49ccc     N2 1349   2.488   6.691   4.928  0.7816 -0.0631 -0.6123
   49ccc     C3 1350   2.550   6.769   5.046 -0.0201 -0.0047 -0.0779
   49ccc     C4 1351   2.394   6.576   4.971 -0.0875  0.1146 -0.2566
   49ccc     H6 1352   2.302   6.618   5.011 -1.3324 -2.1605 -0.5912
   49ccc     C5 1353   2.455   6.477   5.078 -0.6676  0.2984  0.0225
   49ccc     H7 1354   2.361   6.517   4.885  1.5513  2.1978 -2.4789
   49ccc     H8 1355   2.461   6.537   5.169  2.3031  1.5241 -0.8491
   49ccc     H9 1356   2.555   6.447   5.044 -0.2838  0.5770  0.8847
   49ccc     C6 1357   2.357   6.368   5.104  0.4167  0.7499  0.4089
   49ccc     O1 1358   2.407   6.253   5.146  0.3286 -0.4344  0.5998
   49ccc     O2 1359   2.239   6.387   5.122 -0.0930  0.1059 -0.3548
   49ccc    H10 1360   2.607   6.850   5.001 -1.8536  0.9272 -0.8143
   49ccc    H11 1361   2.622   6.698   5.086  1.2498  0.8385 -0.7981
   49ccc     C7 1362   2.451   6.832   5.145 -0.2424  0.0112 -0.3754
   49ccc    H12 1363   2.391   6.763   5.206  0.3400 -0.0474  0.1430
   49ccc    H13 1364   2.371   6.888   5.095  0.3904  1.2477 -0.0431
   49ccc     C8 1365   2.521   6.937   5.223 -0.0414  0.2087 -0.9237
   49ccc     O3 1366   2.583   7.025   5.165  0.2872 -0.2036 -0.0669
   49ccc     O4 1367   2.538   6.907   5.359  0.0246 -0.8957  0.1582
   49ccc    H14 1368   2.329   6.204   5.177 -0.3268 -0.8365 -1.5199
   49ccc    H15 1369   2.480   6.837   5.392 -1.1091  0.2023  0.5554
   49ccc    H16 1370   2.430   6.750   4.867 -0.8424 -0.5342  0.4330
   50ccc     N1 1371   0.146   6.880   3.435  0.3343  0.1887  0.7457
   50ccc     H1 1372   0.070   6.946   3.450  0.2391 -0.1268  1.7465
   50ccc     C1 1373   0.178   6.833   3.298 -0.6972  0.5495  0.0223
   50ccc     H2 1374   0.176   6.916   3.226  1.2570 -0.1864 -0.9587
   50ccc     C2 1375   0.075   6.729   3.240  0.1413 -0.8266 -0.6588
   50ccc     H3 1376   0.280   6.791   3.292 -1.2598 -0.8635 -0.1739
   50ccc     H4 1377   0.091   6.635   3.292 -2.0632 -1.6723 -1.3804
   50ccc     H5 1378   0.100   6.715   3.135  0.5005  1.6314 -0.9600
   50ccc     N2 1379  -0.070   6.769   3.247  0.3100  0.3006 -0.0102
   50ccc     C3 1380  -0.157   6.659   3.305 -0.2000 -0.2821 -0.4303
   50ccc     C4 1381  -0.123   6.797   3.100 -0.0804 -0.3042  0.0017
   50ccc     H6 1382  -0.069   6.884   3.062 -0.7603 -0.3577 -1.1439
   50ccc     C5 1383  -0.273   6.827   3.084 -0.7651  0.1372 -0.2244
   50ccc     H7 1384  -0.095   6.717   3.033  0.1054 -0.3341  0.1144
   50ccc     H8 1385  -0.283   6.921   3.139  0.1915  1.0655 -1.5546
   50ccc     H9 1386  -0.342   6.754   3.129  1.3687 -0.4316  2.3933
   50ccc     C6 1387  -0.290   6.835   2.934 -0.8781  0.0242 -0.6217
   50ccc     O1 1388  -0.335   6.947   2.878  0.1219  0.2277 -0.0058
   50ccc     O2 1389  -0.245   6.743   2.869  0.3430 -0.5489  0.5815
   50ccc    H10 1390  -0.120   6.565   3.262 -0.2825 -1.1306  1.2764
   50ccc    H11 1391  -0.260   6.673   3.272 -0.5648  0.5217  0.9608
   50ccc     C7 1392  -0.139   6.647   3.461  0.3779 -0.1132 -0.5528
   50ccc    H12 1393  -0.192   6.726   3.516  0.0989 -2.4794  2.9433
   50ccc    H13 1394  -0.035   6.638   3.493 -0.0154 -0.3149  0.7285
   50ccc     C8 1395  -0.195   6.516   3.526 -0.3023  0.1303 -0.3097
   50ccc     O3 1396  -0.212   6.417   3.458 -0.4566  0.6740  0.3329
   50ccc     O4 1397  -0.180   6.514   3.659 -0.4885 -0.1886 -0.2017
   50ccc    H14 1398  -0.367   7.004   2.950  1.2866 -0.2213  0.8992
   50ccc    H15 1399  -0.197   6.421   3.684  1.1131 -0.2780  0.6605
   50ccc    H16 1400  -0.075   6.856   3.302  0.5843  0.6528 -0.5303
   51ccc     N1 1401   0.024   7.153   4.270  0.2295  0.2274  0.2339
   51ccc     H1 1402  -0.076   7.142   4.277  0.1006  1.0692 -0.1162
   51ccc     C1 1403   0.101   7.218   4.378  0.1828 -0.4822  0.4507
   51ccc     H2 1404   0.055   7.207   4.477 -0.1537  1.1812  0.5211
   51ccc     C2 1405   0.127   7.365   4.356  0.7002 -0.3143  0.2074
   51ccc     H3 1406   0.205   7.183   4.376  0.3595 -0.0098 -2.0008
   51ccc     H4 1407   0.203   7.398   4.427  1.7242  0.6519 -1.2843
   51ccc     H5 1408   0.035   7.421   4.370  0.1873 -0.4064 -2.3477
   51ccc     N2 1409   0.179   7.405   4.215 -0.0244  0.2902 -0.1072
   51ccc     C3 1410   0.322   7.356   4.199  1.0176  0.3202 -0.3839
   51ccc     C4 1411   0.164   7.545   4.193  0.7707 -0.1167  0.1776
   51ccc     H6 1412   0.155   7.558   4.085  0.2143 -1.5678  0.0338
   51ccc     C5 1413   0.279   7.636   4.246 -0.1306  0.9355 -0.0473
   51ccc     H7 1414   0.069   7.575   4.238 -0.5977 -2.0744 -1.2428
   51ccc     H8 1415   0.380   7.609   4.214 -0.1057 -0.5499  1.1870
   51ccc     H9 1416   0.286   7.627   4.355  0.2445  0.0164 -0.1394
   51ccc     C6 1417   0.251   7.781   4.212 -0.1909 -0.2200  0.4643
   51ccc     O1 1418   0.354   7.847   4.156 -0.2686  0.4103 -0.1330
   51ccc     O2 1419   0.186   7.849   4.288 -0.3284 -0.6005 -0.1569
   51ccc    H10 1420   0.323   7.259   4.248  0.7614  0.5895  0.1663
   51ccc    H11 1421   0.389   7.418   4.259 -0.8132 -0.0305  2.2268
   51ccc     C7 1422   0.380   7.357   4.060 -0.0719 -0.3942 -0.2532
   51ccc    H12 1423   0.398   7.459   4.025  1.2908 -0.0651  1.2891
   51ccc    H13 1424   0.314   7.300   3.993 -1.6180 -0.6312  1.3828
   51ccc     C8 1425   0.517   7.279   4.064  0.3402  0.0851  0.6666
   51ccc     O3 1426   0.564   7.216   4.160  0.3997 -0.5573  0.1002
   51ccc     O4 1427   0.592   7.286   3.951 -0.3393  0.0308 -0.3155
   51ccc    H14 1428   0.402   7.788   4.094 -1.0020  0.7758 -1.0719
   51ccc    H15 1429   0.545   7.342   3.887  0.8534 -0.2684 -1.5076
   51ccc    H16 1430   0.117   7.360   4.146 -2.2645  1.7261  0.8678
   52ccc     N1 1431   0.304   5.707   5.098  0.1018 -0.1274  0.6722
   52ccc     H1 1432   0.326   5.793   5.145 -0.2497  0.5824 -0.4142
   52ccc     C1 1433   0.186   5.625   5.140 -0.2805  1.1161  0.7935
   52ccc     H2 1434   0.139   5.675   5.225 -0.8713  1.6803  0.1469
   52ccc     C2 1435   0.222   5.476   5.167  0.5553 -1.5365 -0.6016
   52ccc     H3 1436   0.114   5.632   5.057  0.8659  2.6248 -0.1393
   52ccc     H4 1437   0.274   5.430   5.083  1.1950 -0.6239 -0.7211
   52ccc     H5 1438   0.131   5.416   5.175  0.7684 -1.7427  0.3914
   52ccc     N2 1439   0.309   5.452   5.293  0.5555 -0.5618  0.1122
   52ccc     C3 1440   0.453   5.501   5.275  0.3426  0.2739  0.4060
   52ccc     C4 1441   0.307   5.302   5.333  0.3952 -0.2924  0.1990
   52ccc     H6 1442   0.339   5.252   5.242  0.2516 -1.6794  0.8952
   52ccc     C5 1443   0.168   5.252   5.384 -0.0529 -0.3990 -0.1334
   52ccc     H7 1444   0.386   5.288   5.406  0.9406  3.0449  0.4179
   52ccc     H8 1445   0.158   5.143   5.376  3.3784 -0.7854 -0.2804
   52ccc     H9 1446   0.089   5.298   5.324  2.5569  4.7208 -0.1464
   52ccc     C6 1447   0.147   5.303   5.530  0.5329  0.5459  0.4269
   52ccc     O1 1448   0.024   5.292   5.580  0.7419 -0.3083  0.6370
   52ccc     O2 1449   0.233   5.357   5.592  0.4847 -0.8051  0.8767
   52ccc    H10 1450   0.509   5.496   5.368 -1.0134 -0.2091  1.2227
   52ccc    H11 1451   0.455   5.608   5.250 -1.4491  0.8821  2.5207
   52ccc     C7 1452   0.527   5.412   5.173  0.7225  0.0446  0.4446
   52ccc    H12 1453   0.466   5.378   5.089  0.3243  1.8085 -0.0180
   52ccc    H13 1454   0.566   5.330   5.234  2.7549  1.5091  1.2319
   52ccc     C8 1455   0.653   5.469   5.112 -0.2928 -0.2505 -0.4627
   52ccc     O3 1456   0.674   5.592   5.105 -0.2262  0.6043 -0.8746
   52ccc     O4 1457   0.746   5.384   5.066  0.0904  0.0628 -0.4165
   52ccc    H14 1458   0.032   5.323   5.672  1.2757  0.3669  0.3671
   52ccc    H15 1459   0.708   5.294   5.069  0.3117 -0.0084  1.3844
   52ccc    H16 1460   0.267   5.507   5.370 -0.8819 -0.5411 -0.6508
   53ccc     N1 1461   0.992   5.640   5.001  0.6049 -0.0410 -0.4781
   53ccc     H1 1462   0.940   5.598   4.925 -0.2424 -0.4889  0.3286
   53ccc     C1 1463   1.011   5.572   5.128  0.0902  1.1746  0.4023
   53ccc     H2 1464   1.077   5.636   5.188  2.9263  0.8630 -2.1287
   53ccc     C2 1465   1.063   5.433   5.097 -0.4984  0.1985  0.5018
   53ccc     H3 1466   0.913   5.569   5.178 -0.9382  1.2380 -1.4848
   53ccc     H4 1467   0.986   5.376   5.045 -1.5536  0.2368  1.9506
   53ccc     H5 1468   1.082   5.379   5.190  1.6633  1.4853  0.8964
   53ccc     N2 1469   1.198   5.415   5.026  0.2120 -0.3936 -0.2847
   53ccc     C3 1470   1.213   5.270   4.986 -0.0198  0.3528  0.4174
   53ccc     C4 1471   1.309   5.456   5.126 -0.5209  0.0719  0.1866
   53ccc     H6 1472   1.288   5.555   5.166  0.9621  0.2296  0.6240
   53ccc     C5 1473   1.455   5.463   5.073  0.3121  0.8391 -0.4815
   53ccc     H7 1474   1.304   5.393   5.215 -1.4821 -1.4312 -0.8898
   53ccc     H8 1475   1.467   5.541   4.997  1.5637 -0.6532 -1.9013
   53ccc     H9 1476   1.484   5.362   5.041  1.4153  0.9472  0.1125
   53ccc     C6 1477   1.543   5.506   5.188 -0.8346  0.0536  0.2586
   53ccc     O1 1478   1.537   5.641   5.209  0.0247  0.2454 -0.0323
   53ccc     O2 1479   1.568   5.431   5.284 -0.0375 -0.0147 -0.3695
   53ccc    H10 1480   1.172   5.204   5.063 -0.9864 -0.8372 -1.0512
   53ccc    H11 1481   1.316   5.241   4.964 -0.7074 -1.1872 -1.0251
   53ccc     C7 1482   1.134   5.238   4.857  0.1555  0.1225 -0.3639
   53ccc    H12 1483   1.141   5.319   4.783  0.1758  0.1008 -0.3861
   53ccc    H13 1484   1.028   5.222   4.881 -1.0584  0.8770 -4.4629
   53ccc     C8 1485   1.173   5.104   4.788 -0.0188 -0.4776  0.3977
   53ccc     O3 1486   1.280   5.049   4.811  0.7422  0.4278 -0.2221
   53ccc     O4 1487   1.090   5.061   4.694  0.0442  0.0116  1.0198
   53ccc    H14 1488   1.488   5.679   5.134  1.4808  1.7927 -0.2681
   53ccc    H15 1489   1.033   5.138   4.677  0.3755  0.5509  2.2571
   53ccc    H16 1490   1.205   5.475   4.942  1.6354  0.5303  0.4409
   54ccc     N1 1491   2.340   4.278   4.873  0.1266 -0.4134 -0.8894
   54ccc     H1 1492   2.245   4.314   4.864  0.3917  0.4669 -0.3252
   54ccc     C1 1493   2.364   4.153   4.945 -0.2578 -0.2728  1.2156
   54ccc     H2 1494   2.262   4.125   4.974 -0.1700 -1.8553  0.1345
   54ccc     C2 1495   2.443   4.173   5.077 -0.0983 -0.6628  0.0067
   54ccc     H3 1496   2.416   4.072   4.893 -2.4914 -0.4307 -0.9465
   54ccc     H4 1497   2.546   4.207   5.060 -0.2952 -0.9129 -1.8978
   54ccc     H5 1498   2.456   4.074   5.120 -2.6721 -1.3788 -0.7356
   54ccc     N2 1499   2.371   4.248   5.188 -0.1543 -0.9209  0.2605
   54ccc     C3 1500   2.394   4.401   5.161 -0.3355 -0.0407 -0.3533
   54ccc     C4 1501   2.430   4.221   5.327  0.4752 -0.0039 -0.1462
   54ccc     H6 1502   2.535   4.192   5.320  1.1860  2.3762 -0.0606
   54ccc     C5 1503   2.352   4.106   5.393 -0.4957  0.2063 -0.3044
   54ccc     H7 1504   2.418   4.313   5.385  1.3172  1.7710 -2.6470
   54ccc     H8 1505   2.398   4.071   5.486  0.2709  1.5731 -0.1500
   54ccc     H9 1506   2.344   4.014   5.334  0.0791  0.3950 -0.6879
   54ccc     C6 1507   2.205   4.138   5.424 -0.1243  0.1672  0.0853
   54ccc     O1 1508   2.166   4.155   5.550  0.0871 -0.5166 -0.5345
   54ccc     O2 1509   2.119   4.151   5.339 -0.2361  0.1929 -0.0921
   54ccc    H10 1510   2.382   4.424   5.056 -1.2628 -1.5911 -0.6296
   54ccc    H11 1511   2.494   4.417   5.200 -0.6484 -2.0999  1.5784
   54ccc     C7 1512   2.289   4.494   5.226  0.5333 -0.8989 -0.6241
   54ccc    H12 1513   2.336   4.592   5.221  1.1073 -1.2236 -1.9056
   54ccc    H13 1514   2.271   4.461   5.330  1.6961  0.6948  0.1194
   54ccc     C8 1515   2.157   4.480   5.151 -0.1062 -1.3768 -0.1402
   54ccc     O3 1516   2.118   4.373   5.111  0.5499 -0.1222  0.6924
   54ccc     O4 1517   2.079   4.593   5.143 -0.2686  0.0240  0.6457
   54ccc    H14 1518   2.240   4.132   5.609 -0.9751  0.9508  1.5225
   54ccc    H15 1519   2.148   4.659   5.155  1.2185 -1.2301 -0.5925
   54ccc    H16 1520   2.272   4.224   5.179 -0.3546  0.4615 -2.0243
   55ccc     N1 1521   2.714   4.872   4.273 -0.2403 -0.1188 -0.6227
   55ccc     H1 1522   2.682   4.781   4.244 -2.9901  1.1328 -1.8874
   55ccc     C1 1523   2.841   4.924   4.228 -0.5830 -0.1428 -0.2237
   55ccc     H2 1524   2.896   4.965   4.314 -1.4939  0.4587  0.0928
   55ccc     C2 1525   2.832   5.033   4.117  0.1940 -0.7737 -0.1122
   55ccc     H3 1526   2.908   4.841   4.202  0.9250  1.2802 -1.0256
   55ccc     H4 1527   2.928   5.077   4.092 -0.2254  0.5806  0.5349
   55ccc     H5 1528   2.775   5.110   4.169  0.2347 -0.8292  0.0136
   55ccc     N2 1529   2.742   5.004   3.996  0.0693 -0.4328 -0.2292
   55ccc     C3 1530   2.816   4.912   3.903 -0.3601 -0.4186 -0.2755
   55ccc     C4 1531   2.691   5.132   3.928 -0.2401 -0.1920 -0.0379
   55ccc     H6 1532   2.762   5.163   3.852 -1.6650  3.7182 -0.0017
   55ccc     C5 1533   2.663   5.264   4.004  0.1659 -0.0215  0.0761
   55ccc     H7 1534   2.590   5.118   3.889 -1.5008  3.2251  1.6103
   55ccc     H8 1535   2.659   5.341   3.926 -1.1674  1.0262  1.1223
   55ccc     H9 1536   2.752   5.284   4.066 -0.3428 -1.8602  1.4656
   55ccc     C6 1537   2.534   5.265   4.085  0.0009 -0.0681  0.1002
   55ccc     O1 1538   2.540   5.210   4.204 -0.5179  0.0088  0.0196
   55ccc     O2 1539   2.430   5.284   4.031  0.3533  0.3454 -0.1779
   55ccc    H10 1540   2.893   4.856   3.955 -1.4705 -0.3630  1.5206
   55ccc    H11 1541   2.869   4.976   3.833 -1.4973 -0.3745 -1.1209
   55ccc     C7 1542   2.727   4.812   3.825  0.4900  0.5646  0.0451
   55ccc    H12 1543   2.651   4.859   3.762 -0.1322  2.6620  2.1924
   55ccc    H13 1544   2.668   4.756   3.899  1.6198 -0.5598  0.1375
   55ccc     C8 1545   2.808   4.713   3.741 -0.8713 -0.3864  0.4929
   55ccc     O3 1546   2.931   4.721   3.733  0.0782  0.4078 -0.0156
   55ccc     O4 1547   2.741   4.601   3.704  0.2424  0.5453 -0.1782
   55ccc    H14 1548   2.443   5.216   4.214 -0.4166  2.6991 -0.1045
   55ccc    H15 1549   2.648   4.625   3.718 -0.2280 -1.3291  0.1016
   55ccc    H16 1550   2.667   4.952   4.043  1.9949 -0.2615  3.4181
   56ccc     N1 1551   1.606   4.227   4.922 -0.9758  0.7658  0.3516
   56ccc     H1 1552   1.593   4.126   4.923  3.0249  0.0776  0.4723
   56ccc     C1 1553   1.744   4.278   4.926 -0.3077  0.3700  0.4522
   56ccc     H2 1554   1.803   4.245   4.839 -0.4827  0.6349  0.2304
   56ccc     C2 1555   1.822   4.233   5.049  0.5793 -0.9130 -0.3456
   56ccc     H3 1556   1.749   4.387   4.939  0.3007  0.0898  3.2494
   56ccc     H4 1557   1.915   4.291   5.051  0.9494 -1.5094  0.4457
   56ccc     H5 1558   1.839   4.125   5.051 -3.3444 -1.7008 -0.8664
   56ccc     N2 1559   1.765   4.285   5.187  0.7989 -0.0929  0.1263
   56ccc     C3 1560   1.809   4.418   5.237 -0.0221 -0.5644 -0.2094
   56ccc     C4 1561   1.807   4.178   5.290  0.3133  0.2818 -0.0149
   56ccc     H6 1562   1.915   4.163   5.285  0.1922 -1.1448  1.0665
   56ccc     C5 1563   1.734   4.036   5.287  0.4943  0.0120 -0.1591
   56ccc     H7 1564   1.777   4.216   5.388 -1.5784 -0.9371 -0.0635
   56ccc     H8 1565   1.753   3.989   5.190 -0.0044  0.1232 -0.3124
   56ccc     H9 1566   1.625   4.044   5.282  0.3705 -0.3643  1.4129
   56ccc     C6 1567   1.765   3.948   5.409  0.4680 -0.3405 -0.2406
   56ccc     O1 1568   1.870   3.865   5.398 -0.2564  0.2420  0.0704
   56ccc     O2 1569   1.714   3.973   5.521 -0.5916  0.3761 -0.1154
   56ccc    H10 1570   1.915   4.411   5.259 -0.0861  0.2798  0.4371
   56ccc    H11 1571   1.758   4.427   5.333 -2.4319 -0.1935 -1.4465
   56ccc     C7 1572   1.764   4.542   5.159  0.8775  0.4164 -0.4667
   56ccc    H12 1573   1.661   4.533   5.124  0.4380  0.0942  0.8545
   56ccc    H13 1574   1.832   4.544   5.073  0.5284 -0.2380 -0.7603
   56ccc     C8 1575   1.770   4.662   5.251 -0.0543  0.5119  0.3691
   56ccc     O3 1576   1.737   4.658   5.368 -0.2071 -0.5834 -0.0406
   56ccc     O4 1577   1.818   4.772   5.189 -0.1620  0.8507 -0.3873
   56ccc    H14 1578   1.855   3.825   5.485 -0.5781 -2.6897 -1.2289
   56ccc    H15 1579   1.812   4.838   5.261  0.6290  0.4120  0.1031
   56ccc    H16 1580   1.663   4.280   5.194  0.6870  0.0823 -1.1335
   57ccc     N1 1581   1.283   4.675   5.341  0.0378 -0.0627 -0.5389
   57ccc     H1 1582   1.195   4.720   5.320 -0.6351 -1.0411  0.1591
   57ccc     C1 1583   1.397   4.752   5.393  0.8445  0.4612  0.4795
   57ccc     H2 1584   1.488   4.693   5.375 -0.8709 -2.3937  0.4980
   57ccc     C2 1585   1.392   4.795   5.539 -0.1636  0.2386 -0.5315
   57ccc     H3 1586   1.410   4.845   5.338  1.4322 -0.9024 -1.8094
   57ccc     H4 1587   1.313   4.863   5.571  0.4462 -0.2046  2.2296
   57ccc     H5 1588   1.486   4.848   5.556  0.8620 -1.5014 -0.5518
   57ccc     N2 1589   1.386   4.682   5.639 -0.3261 -0.1232  0.3052
   57ccc     C3 1590   1.398   4.740   5.784 -0.1219 -0.1590  0.4744
   57ccc     C4 1591   1.510   4.586   5.617 -0.2539 -0.0603 -0.2030
   57ccc     H6 1592   1.535   4.579   5.511  0.5070  3.2759 -0.3501
   57ccc     C5 1593   1.495   4.448   5.679 -0.4282 -0.1499  0.0835
   57ccc     H7 1594   1.602   4.633   5.653 -0.1057  0.5560 -1.3133
   57ccc     H8 1595   1.407   4.397   5.637  1.4740 -2.5982 -1.2553
   57ccc     H9 1596   1.496   4.468   5.786 -0.0957  1.1563 -0.1509
   57ccc     C6 1597   1.613   4.365   5.644  0.0050  0.1817 -0.2715
   57ccc     O1 1598   1.593   4.237   5.666 -0.3797  0.1132 -0.3047
   57ccc     O2 1599   1.723   4.408   5.628  0.1330  0.2675  0.1246
   57ccc    H10 1600   1.497   4.783   5.798 -1.1978  1.8650  2.5147
   57ccc    H11 1601   1.381   4.656   5.852 -0.6943  0.3402  0.9535
   57ccc     C7 1602   1.289   4.838   5.827 -0.3613 -0.2017  0.0981
   57ccc    H12 1603   1.188   4.798   5.826 -0.8564  1.0040 -0.8197
   57ccc    H13 1604   1.277   4.914   5.749 -1.3450 -2.3193 -1.9089
   57ccc     C8 1605   1.312   4.904   5.958 -0.0917 -0.8257 -0.0183
   57ccc     O3 1606   1.360   5.015   5.973 -0.0645 -1.0674  0.0943
   57ccc     O4 1607   1.228   4.866   6.048  0.4130  0.4420  0.3822
   57ccc    H14 1608   1.498   4.232   5.687  0.0917 -1.6402  1.7954
   57ccc    H15 1609   1.232   4.940   6.111 -2.1375  1.0288 -0.0530
   57ccc    H16 1610   1.300   4.628   5.623 -1.5175  1.4601  1.0679
   58ccc     N1 1611   0.376   4.500   4.254 -0.7181 -0.4675 -0.6970
   58ccc     H1 1612   0.447   4.564   4.287  1.9876 -2.1984 -2.7582
   58ccc     C1 1613   0.268   4.466   4.339 -0.4176  0.2488  0.0521
   58ccc     H2 1614   0.216   4.559   4.365 -3.7272 -0.6197 -2.7500
   58ccc     C2 1615   0.309   4.381   4.465 -0.0376  0.6870 -0.3871
   58ccc     H3 1616   0.189   4.414   4.284  0.4808 -1.3645  0.2219
   58ccc     H4 1617   0.238   4.389   4.548 -0.2986  0.1603 -0.5555
   58ccc     H5 1618   0.397   4.426   4.510  0.5529 -0.4866 -0.3389
   58ccc     N2 1619   0.319   4.232   4.440 -0.7961  0.3588 -0.4367
   58ccc     C3 1620   0.441   4.203   4.346  0.0066  0.6282 -0.8188
   58ccc     C4 1621   0.202   4.158   4.378  0.1667  0.0185 -0.0253
   58ccc     H6 1622   0.125   4.225   4.417 -0.4407 -1.0964  0.7437
   58ccc     C5 1623   0.177   4.016   4.435 -0.0545 -0.1441 -0.2160
   58ccc     H7 1624   0.201   4.160   4.269 -1.6690 -0.8745 -0.0671
   58ccc     H8 1625   0.183   4.002   4.543  0.1837 -1.8738 -0.4130
   58ccc     H9 1626   0.252   3.946   4.395 -0.8214 -1.4575  0.5842
   58ccc     C6 1627   0.040   3.961   4.396 -0.2804  0.0403  0.4306
   58ccc     O1 1628   0.052   3.843   4.331 -0.0003  0.1843 -0.4059
   58ccc     O2 1629  -0.067   3.997   4.432  0.4048 -0.0355  0.1316
   58ccc    H10 1630   0.528   4.258   4.383 -1.6073  0.8164  3.2070
   58ccc    H11 1631   0.416   4.253   4.252 -2.7331 -0.8487 -0.9699
   58ccc     C7 1632   0.496   4.059   4.325  0.0897  0.3283 -0.1158
   58ccc    H12 1633   0.423   3.984   4.291  2.9566 -1.3930 -2.9542
   58ccc    H13 1634   0.522   4.024   4.425 -1.6437 -3.3729 -0.7881
   58ccc     C8 1635   0.621   4.064   4.238  0.3972  0.6221 -0.0034
   58ccc     O3 1636   0.682   4.164   4.202 -0.1453  0.7661 -0.8264
   58ccc     O4 1637   0.641   3.949   4.168 -0.1231 -1.0167 -0.4640
   58ccc    H14 1638  -0.043   3.823   4.327 -0.1645  1.0502 -1.5521
   58ccc    H15 1639   0.561   3.894   4.177 -1.1378  0.5428  0.7140
   58ccc    H16 1640   0.348   4.195   4.532 -2.2536  0.1957 -0.0235
   59ccc     N1 1641   0.187   4.603   3.409  0.2742  0.2981 -1.0652
   59ccc     H1 1642   0.122   4.645   3.474 -1.9485 -0.6150 -2.5651
   59ccc     C1 1643   0.136   4.563   3.278  0.4804  0.1318  0.1796
   59ccc     H2 1644   0.216   4.564   3.202 -1.3414  0.2304 -1.8532
   59ccc     C2 1645   0.028   4.650   3.214  0.1827  0.4073 -0.4529
   59ccc     H3 1646   0.107   4.459   3.294  1.4112 -0.0244  0.9120
   59ccc     H4 1647  -0.013   4.606   3.123  1.8773 -1.1890 -0.5220
   59ccc     H5 1648   0.081   4.744   3.198  1.0775  0.2264  1.1297
   59ccc     N2 1649  -0.087   4.689   3.299  0.4611 -0.0751 -0.6106
   59ccc     C3 1650  -0.169   4.561   3.338  0.5982 -0.3084  0.1936
   59ccc     C4 1651  -0.180   4.800   3.237 -0.5181  0.1260 -0.5504
   59ccc     H6 1652  -0.209   4.762   3.139 -2.5367 -0.9329  0.3903
   59ccc     C5 1653  -0.105   4.938   3.235  0.7292 -0.1888 -0.1232
   59ccc     H7 1654  -0.270   4.807   3.298  0.2203  0.1511  0.5737
   59ccc     H8 1655  -0.005   4.939   3.189  1.5395  0.1372  1.5909
   59ccc     H9 1656  -0.099   4.976   3.338 -0.5247  1.8908 -0.7542
   59ccc     C6 1657  -0.192   5.035   3.151 -0.0604  0.5153 -0.5730
   59ccc     O1 1658  -0.137   5.076   3.035 -0.2802 -0.2029  0.1976
   59ccc     O2 1659  -0.285   5.100   3.195 -0.0956  0.6391 -0.1449
   59ccc    H10 1660  -0.198   4.571   3.443  0.5488 -0.6982  0.2155
   59ccc    H11 1661  -0.092   4.485   3.336 -0.3866 -1.3110 -0.2551
   59ccc     C7 1662  -0.278   4.524   3.237  0.6210  0.3594 -0.3111
   59ccc    H12 1663  -0.230   4.493   3.143  3.7182 -0.3840  1.3860
   59ccc    H13 1664  -0.351   4.605   3.228  1.5215  1.4035  1.2565
   59ccc     C8 1665  -0.346   4.398   3.285 -0.3832 -0.2676  0.1099
   59ccc     O3 1666  -0.332   4.355   3.400 -0.0719  0.4100  0.2731
   59ccc     O4 1667  -0.418   4.328   3.190 -0.0119  0.0071 -0.0410
   59ccc    H14 1668  -0.192   5.152   3.008 -1.4971 -1.1371  0.0004
   59ccc    H15 1669  -0.410   4.383   3.110  0.9588  1.8869  1.2674
   59ccc    H16 1670  -0.052   4.722   3.390  2.8961  0.7360 -1.7552
   60ccc     N1 1671   0.724   5.706   3.321  0.0601 -0.3468  0.5660
   60ccc     H1 1672   0.814   5.737   3.354 -0.0970 -0.6681  1.3186
   60ccc     C1 1673   0.708   5.604   3.213  1.3014 -0.0751  0.1903
   60ccc     H2 1674   0.645   5.521   3.248  0.9962  0.3681  0.7140
   60ccc     C2 1675   0.840   5.550   3.160  0.4125 -0.4841  0.1075
   60ccc     H3 1676   0.651   5.641   3.127  2.1811 -1.9927 -1.3110
   60ccc     H4 1677   0.891   5.639   3.121 -0.8438  0.1765 -0.0887
   60ccc     H5 1678   0.816   5.492   3.071  1.2359  0.4581 -0.7542
   60ccc     N2 1679   0.931   5.477   3.251  0.2306 -0.5043  0.3033
   60ccc     C3 1680   1.041   5.406   3.179 -0.2749  0.0279 -0.1055
   60ccc     C4 1681   0.851   5.386   3.344  0.8051  0.4824  0.3851
   60ccc     H6 1682   0.912   5.352   3.429  1.1048 -1.0893 -0.4244
   60ccc     C5 1683   0.783   5.268   3.272 -0.8151  0.2586 -0.5018
   60ccc     H7 1684   0.776   5.450   3.390 -0.5919 -0.9388  0.1748
   60ccc     H8 1685   0.857   5.206   3.221 -1.8202 -0.1039 -1.5511
   60ccc     H9 1686   0.724   5.293   3.183  0.1092 -2.5044 -2.0075
   60ccc     C6 1687   0.714   5.179   3.373  0.4914  0.1746  0.1674
   60ccc     O1 1688   0.656   5.071   3.320 -0.5656 -0.2950 -0.4299
   60ccc     O2 1689   0.720   5.182   3.494 -0.0341 -0.2411 -0.7000
   60ccc    H10 1690   0.995   5.365   3.089 -1.9104  0.3901  0.5323
   60ccc    H11 1691   1.079   5.338   3.255 -0.4526  0.7790  0.6682
   60ccc     C7 1692   1.159   5.495   3.126  0.5513  0.3247 -0.2283
   60ccc    H12 1693   1.223   5.436   3.059 -0.0638 -0.1551 -0.3984
   60ccc    H13 1694   1.115   5.579   3.072 -1.7075 -0.1102  0.7989
   60ccc     C8 1695   1.236   5.550   3.243 -0.7765  0.9767  0.8042
   60ccc     O3 1696   1.208   5.521   3.355  0.1638  0.3133 -0.9435
   60ccc     O4 1697   1.344   5.621   3.208  0.4757  0.1846  0.0581
   60ccc    H14 1698   0.662   5.083   3.224 -1.3169 -0.9165 -0.5576
   60ccc    H15 1699   1.344   5.625   3.111  0.4891  0.7616  0.0769
   60ccc    H16 1700   0.973   5.543   3.317  0.9005  0.9535 -1.4991
   61ccc     N1 1701   0.513   6.357   3.485  0.1219 -0.5635  0.0247
   61ccc     H1 1702   0.577   6.284   3.455  0.6184 -0.8354  1.6751
   61ccc     C1 1703   0.533   6.495   3.457 -0.4810  0.5392  0.0710
   61ccc     H2 1704   0.539   6.511   3.349  1.2846  1.1610  0.2268
   61ccc     C2 1705   0.663   6.552   3.513 -0.3476  0.1603  0.3645
   61ccc     H3 1706   0.453   6.557   3.500  0.7393  1.1767  1.5350
   61ccc     H4 1707   0.689   6.644   3.460 -1.3196  0.0307 -0.3494
   61ccc     H5 1708   0.748   6.488   3.491 -1.7408 -1.2836 -0.9982
   61ccc     N2 1709   0.684   6.585   3.665  0.5500 -0.1203  0.2135
   61ccc     C3 1710   0.574   6.689   3.715 -0.4129 -0.1408  0.8478
   61ccc     C4 1711   0.825   6.630   3.687  0.1912  0.6621  0.7299
   61ccc     H6 1712   0.837   6.711   3.615  0.8047 -1.6451 -1.9387
   61ccc     C5 1713   0.931   6.521   3.657 -0.2276  0.3931  0.3109
   61ccc     H7 1714   0.834   6.655   3.792  0.9181 -0.6929  1.0156
   61ccc     H8 1715   0.920   6.482   3.555  2.7792 -1.3156  0.5481
   61ccc     H9 1716   0.910   6.437   3.724 -1.6641 -1.0284 -1.7924
   61ccc     C6 1717   1.073   6.571   3.680 -0.0053 -0.1313  0.1469
   61ccc     O1 1718   1.162   6.470   3.656  0.3686  0.1657 -0.2786
   61ccc     O2 1719   1.107   6.682   3.717  0.0500 -0.0642 -0.3764
   61ccc    H10 1720   0.480   6.633   3.711  0.3140 -1.3095 -1.6396
   61ccc    H11 1721   0.559   6.774   3.649 -2.5448 -1.7911 -0.9430
   61ccc     C7 1722   0.597   6.739   3.855 -0.1319 -0.6107 -0.0610
   61ccc    H12 1723   0.692   6.791   3.865 -0.3355  0.5142 -3.0596
   61ccc    H13 1724   0.601   6.647   3.915  2.4127 -0.0342  0.7462
   61ccc     C8 1725   0.487   6.840   3.898 -0.5010  0.0339  0.2188
   61ccc     O3 1726   0.375   6.846   3.853  0.2227  0.3929  0.2842
   61ccc     O4 1727   0.527   6.909   4.005  0.3879  0.1314 -0.3179
   61ccc    H14 1728   1.106   6.394   3.636  1.5124 -0.5514 -0.9054
   61ccc    H15 1729   0.620   6.886   4.018  0.4070  0.9725  1.2819
   61ccc    H16 1730   0.660   6.498   3.714  0.5966  0.1913  0.7922
   62SOL     OW 1731   3.725   3.916   1.416  0.4603  0.2003 -0.3699
   62SOL    HW1 1732   3.635   3.920   1.382  1.0240  2.4439 -1.7981
   62SOL    HW2 1733   3.779   3.948   1.344  2.3336 -0.1613  0.8107
   63SOL     OW 1734   1.133   2.704   0.860 -0.4099  0.6682  0.0013
   63SOL    HW1 1735   1.038   2.716   0.858 -0.5285  1.2197  3.2557
   63SOL    HW2 1736   1.146   2.618   0.900  0.4725  0.7100 -0.1706
   64SOL     OW 1737   6.750   0.658   1.045  0.1992 -0.1303  0.1151
   64SOL    HW1 1738   6.715   0.715   1.114 -1.2357  0.3729 -0.9692
   64SOL    HW2 1739   6.845   0.664   1.055  0.0473  0.8400  1.3003
   65SOL     OW 1740   2.386   0.161   0.342  0.0021  0.2143  0.1966
   65SOL    HW1 1741   2.368   0.239   0.290 -1.4789 -0.0549  0.2675
   65SOL    HW2 1742   2.356   0.088   0.288  0.6054 -0.2483  0.4764
   66SOL     OW 1743   3.804   3.894   0.379  0.3900  0.3014 -0.2329
   66SOL    HW1 1744   3.752   3.957   0.328 -1.6542 -0.1213  1.1745
   66SOL    HW2 1745   3.872   3.946   0.420 -0.5757  1.4112  0.0116
   67SOL     OW 1746   6.014   0.128   6.210  0.2974 -0.0266 -0.1451
   67SOL    HW1 1747   6.051   0.127   6.299  0.3611  1.6300 -0.1184
   67SOL    HW2 1748   5.932   0.081   6.218  1.7199 -2.6488  0.0836
   68SOL     OW 1749   1.654   1.261   0.726  0.5055  0.2859  0.2061
   68SOL    HW1 1750   1.725   1.198   0.731  1.3036  1.0875 -0.6396
   68SOL    HW2 1751   1.624   1.271   0.817  1.8824  0.3925  0.6700
   69SOL     OW 1752   0.228   1.424   2.083  0.4015 -0.9397  0.1594
   69SOL    HW1 1753   0.306   1.371   2.099 -0.5320 -2.1576  0.8787
   69SOL    HW2 1754   0.166   1.364   2.041  0.4262  0.4671 -2.0336
   70SOL     OW 1755   0.746   4.382   1.219  0.2259 -0.1472  0.4839
   70SOL    HW1 1756   0.775   4.439   1.291 -0.6532  0.2123  0.5771
   70SOL    HW2 1757   0.689   4.318   1.261 -1.4453  0.9146 -0.0366
   71SOL     OW 1758   4.567   3.957   5.905 -0.2492  0.0995  0.2876
   71SOL    HW1 1759   4.595   3.960   5.813 -0.9149  0.7520  0.0938
   71SOL    HW2 1760   4.555   4.049   5.929  0.9217 -0.0031  1.3536
   72SOL     OW 1761   1.829   0.247   3.960 -0.0106 -0.4856 -0.1933
   72SOL    HW1 1762   1.896   0.277   4.021 -0.7222  0.8777 -0.0271
   72SOL    HW2 1763   1.773   0.324   3.947 -1.0201 -1.3307 -1.0153
   73SOL     OW 1764   1.807   3.680   5.612 -0.0479  0.1340  0.0752
   73SOL    HW1 1765   1.767   3.648   5.693 -2.2156 -0.6236 -1.2194
   73SOL    HW2 1766   1.845   3.602   5.572  2.9073  0.8340  1.2655
   74SOL     OW 1767   1.393   2.622   0.664 -0.3531 -0.1509 -0.2380
   74SOL    HW1 1768   1.303   2.643   0.640 -0.7145 -0.7628  0.5192
   74SOL    HW2 1769   1.392   2.616   0.760  0.5787  0.2076 -0.1958
   75SOL     OW 1770   1.056   6.300   0.580  0.0343 -0.4334 -0.0860
   75SOL    HW1 1771   1.073   6.373   0.640 -0.8397 -0.0538 -0.2889
   75SOL    HW2 1772   0.971   6.266   0.606  0.6166 -1.6712  0.2732
   76SOL     OW 1773   0.904   2.302   2.153  0.2275 -0.9910 -0.0676
   76SOL    HW1 1774   0.842   2.317   2.083  2.6309  1.0801 -1.9731
   76SOL    HW2 1775   0.853   2.311   2.233 -2.1307 -0.7282 -1.5144
   77SOL     OW 1776   1.702   4.890   4.099  0.1422  0.1472  0.2887
   77SOL    HW1 1777   1.767   4.868   4.166 -0.0772 -0.1146  0.4181
   77SOL    HW2 1778   1.754   4.916   4.023  0.3985 -0.0273  0.4014
   78SOL     OW 1779   4.064   3.207   4.369  0.3153 -0.0129  0.0728
   78SOL    HW1 1780   3.984   3.247   4.402  0.4828 -0.9442  1.7186
   78SOL    HW2 1781   4.134   3.246   4.420  0.4865 -2.2427  1.6903
   79SOL     OW 1782   4.884   1.954   5.721 -0.2419 -0.7967 -0.3826
   79SOL    HW1 1783   4.822   2.025   5.703  1.4171  0.3117 -2.0214
   79SOL    HW2 1784   4.891   1.907   5.638  2.3769  0.1513 -0.7669
   80SOL     OW 1785   4.953   6.716   3.182 -0.5170 -0.8138  0.0921
   80SOL    HW1 1786   4.983   6.755   3.100 -0.0794 -0.9454  0.1892
   80SOL    HW2 1787   4.885   6.775   3.213  0.1646 -0.0992  0.2572
   81SOL     OW 1788   4.084   2.015   2.870 -0.0021 -0.1441 -0.2915
   81SOL    HW1 1789   4.009   1.962   2.843  0.4620 -1.6464  1.2081
   81SOL    HW2 1790   4.088   2.005   2.965  1.2450  1.0838 -0.1789
   82SOL     OW 1791   2.850   3.418   1.276 -0.5795 -0.1492  0.0191
   82SOL    HW1 1792   2.856   3.453   1.187 -0.8757  1.3446  0.5569
   82SOL    HW2 1793   2.870   3.325   1.266 -0.1032  0.0793 -1.5349
   83SOL     OW 1794   6.496   2.334   1.099  0.1806  0.4179 -0.1629
   83SOL    HW1 1795   6.566   2.400   1.104  0.4697  0.1494 -0.6096
   83SOL    HW2 1796   6.527   2.272   1.033  0.5080 -0.8790  1.1487
   84SOL     OW 1797   0.860   6.259   5.818 -0.4509  0.3264  0.2026
   84SOL    HW1 1798   0.849   6.287   5.727  0.6712 -0.6010 -0.2412
   84SOL    HW2 1799   0.813   6.324   5.869 -1.0804  0.8742 -1.0450
   85SOL     OW 1800   5.614   4.240   6.015  0.3475  0.8266  0.0389
   85SOL    HW1 1801   5.531   4.257   5.971 -0.2516  0.1514  0.8777
   85SOL    HW2 1802   5.608   4.149   6.043  2.1818  0.1378 -1.5711
   86SOL     OW 1803   2.369   3.345   3.548  0.2024  0.0344  0.3526
   86SOL    HW1 1804   2.431   3.400   3.595 -0.9303  1.1573  0.5924
   86SOL    HW2 1805   2.420   3.307   3.476  1.0487  1.3193  0.2427
   87SOL     OW 1806   5.292   5.931   3.914 -0.3116  0.6962 -0.4892
   87SOL    HW1 1807   5.202   5.954   3.938 -0.6071 -1.1736  0.3292
   87SOL    HW2 1808   5.282   5.860   3.851  0.6080  1.3243 -1.3895
   88SOL     OW 1809   5.726   1.010   3.427  0.0531 -0.2509  0.1144
   88SOL    HW1 1810   5.667   0.950   3.381 -0.0853  0.3970 -0.5774
   88SOL    HW2 1811   5.755   0.961   3.504 -0.2141 -1.1277 -0.3293
   89SOL     OW 1812   2.694   0.906   5.229  0.4362 -0.1464  0.2546
   89SOL    HW1 1813   2.644   0.889   5.309 -0.0466 -1.1209 -0.2303
   89SOL    HW2 1814   2.677   0.998   5.209 -1.5690 -0.5512 -0.1319
   90SOL     OW 1815   2.365   5.690   2.618  0.0106  0.5072 -0.1101
   90SOL    HW1 1816   2.371   5.689   2.713 -0.2311  1.7542 -0.0614
   90SOL    HW2 1817   2.456   5.695   2.588  0.0835  0.1829  0.0600
   91SOL     OW 1818   5.610   2.654   6.533  0.1260 -0.0556 -0.1179
   91SOL    HW1 1819   5.524   2.671   6.571 -0.3014 -0.6642 -0.7972
   91SOL    HW2 1820   5.615   2.713   6.458  0.2784 -0.0564 -0.1080
   92SOL     OW 1821   6.597   0.513   1.339 -0.0509 -0.3390  0.2288
   92SOL    HW1 1822   6.560   0.591   1.297  0.6811 -0.0988  0.0047
   92SOL    HW2 1823   6.521   0.462   1.366 -0.5384  0.0373 -0.3951
   93SOL     OW 1824   2.085   2.636   0.848  0.3672 -0.0227 -0.1408
   93SOL    HW1 1825   2.018   2.666   0.910 -0.7045  2.4639 -2.2715
   93SOL    HW2 1826   2.094   2.709   0.786  0.2934 -2.7870 -3.7503
   94SOL     OW 1827   2.790   6.780   2.199  0.4516  0.7042  0.0442
   94SOL    HW1 1828   2.861   6.829   2.157 -0.4632 -0.4992 -3.1894
   94SOL    HW2 1829   2.713   6.836   2.190  0.4026  0.8152  1.0195
   95SOL     OW 1830   2.630   3.973   2.947  0.3411 -0.1848  0.1997
   95SOL    HW1 1831   2.565   3.917   2.989  1.5226 -0.5509  1.6312
   95SOL    HW2 1832   2.714   3.943   2.981  1.2354  0.6800 -1.1117
   96SOL     OW 1833   3.303   2.511   6.410 -0.2673 -0.1628 -0.6571
   96SOL    HW1 1834   3.242   2.486   6.340  0.0175  0.1902 -1.0377
   96SOL    HW2 1835   3.247   2.530   6.485 -0.5930 -0.3004 -0.8632
   97SOL     OW 1836   5.565   3.827   2.891  0.0545 -0.2134  0.2556
   97SOL    HW1 1837   5.529   3.915   2.887 -1.0337 -0.6028  1.1806
   97SOL    HW2 1838   5.605   3.821   2.977 -0.2076 -0.7381  0.3449
   98SOL     OW 1839   2.744   4.021   2.415  0.0774  0.4203  0.6464
   98SOL    HW1 1840   2.703   4.092   2.465 -1.1015  0.6043 -0.5303
   98SOL    HW2 1841   2.705   4.027   2.328 -0.1345 -1.7657  0.5355
   99SOL     OW 1842   6.060   0.378   1.509 -0.1498 -0.2857  0.0421
   99SOL    HW1 1843   6.156   0.375   1.501 -0.0564 -0.4099  0.9907
   99SOL    HW2 1844   6.031   0.433   1.437  0.7763  1.0290  0.6411
  100SOL     OW 1845   5.732   2.215   1.482 -0.5411 -0.2582 -0.3045
  100SOL    HW1 1846   5.686   2.165   1.551 -0.1826  0.3883  0.4182
  100SOL    HW2 1847   5.705   2.173   1.401  0.7824 -2.5046  0.3317
  101SOL     OW 1848   3.584   1.370   3.943  0.3387  0.0179  0.3630
  101SOL    HW1 1849   3.630   1.374   3.859 -1.8113  0.4821 -0.8592
  101SOL    HW2 1850   3.589   1.278   3.968 -0.8180 -0.5864 -1.4039
  102SOL     OW 1851   3.961   4.545   2.103 -0.5117  0.1039 -0.2740
  102SOL    HW1 1852   3.962   4.612   2.171  0.2307 -2.6511  2.6986
  102SOL    HW2 1853   3.872   4.549   2.067 -0.3362  2.9215 -0.6485
  103SOL     OW 1854   0.277   0.214   0.540  0.2022  1.0480 -0.1692
  103SOL    HW1 1855   0.193   0.232   0.497  0.6521  2.9011 -0.3779
  103SOL    HW2 1856   0.331   0.176   0.471 -0.6919 -1.0270  0.1928
  104SOL     OW 1857   0.735   0.783   3.870  0.1798  0.1196  0.4000
  104SOL    HW1 1858   0.741   0.699   3.824  0.7945  0.8478 -0.8967
  104SOL    HW2 1859   0.710   0.846   3.802  2.3421  1.4586  0.7587
  105SOL     OW 1860   2.195   1.801   0.837  0.0105 -0.0301 -0.4336
  105SOL    HW1 1861   2.178   1.737   0.906  0.1225  0.9962  0.5659
  105SOL    HW2 1862   2.290   1.808   0.832 -0.0009  1.2949  0.6630
  106SOL     OW 1863   2.996   2.994   4.560 -0.0295  0.4499 -0.1888
  106SOL    HW1 1864   3.013   2.900   4.560  0.3863  0.5040  0.8788
  106SOL    HW2 1865   3.009   3.022   4.470  4.3155  0.2556  0.1659
  107SOL     OW 1866   2.531   0.126   2.249  0.6118  0.6332 -0.3009
  107SOL    HW1 1867   2.442   0.130   2.215  0.8414  0.9747 -0.8643
  107SOL    HW2 1868   2.522   0.078   2.332 -0.0440  0.3871 -0.5068
  108SOL     OW 1869   0.838   2.904   2.629  0.8007 -0.3488  0.2892
  108SOL    HW1 1870   0.926   2.879   2.657  1.0420  0.6780  0.4639
  108SOL    HW2 1871   0.851   2.950   2.546  0.4336 -0.0908  0.3721
  109SOL     OW 1872   0.222   1.549   5.581  0.0131  0.0872  0.2748
  109SOL    HW1 1873   0.171   1.594   5.648  0.9818 -0.8955  1.7417
  109SOL    HW2 1874   0.217   1.606   5.505  0.7384  2.4212  1.8724
  110SOL     OW 1875   0.667   0.127   0.228  0.7373 -0.5621  0.8587
  110SOL    HW1 1876   0.687   0.145   0.320 -0.6053 -0.5617  1.1620
  110SOL    HW2 1877   0.576   0.154   0.217  0.1285 -2.6857  0.1251
  111SOL     OW 1878   5.251   2.885   4.155  0.6173  0.3358  0.1285
  111SOL    HW1 1879   5.157   2.886   4.175  0.8096  0.7861  1.0971
  111SOL    HW2 1880   5.288   2.951   4.214  2.0138 -2.0791  2.1457
  112SOL     OW 1881   6.365   2.849   2.743  0.1081  0.4288  0.1157
  112SOL    HW1 1882   6.365   2.756   2.718  1.4431 -0.1983  2.1321
  112SOL    HW2 1883   6.273   2.872   2.752 -0.3921  0.2235 -3.3141
  113SOL     OW 1884   0.798   1.861   4.847 -0.0673 -0.4407 -0.0251
  113SOL    HW1 1885   0.835   1.917   4.779  1.1466  0.5093  1.3673
  113SOL    HW2 1886   0.777   1.779   4.802 -2.6121  1.2815 -2.2985
  114SOL     OW 1887   3.111   2.088   1.065  0.0151 -0.1873  0.2879
  114SOL    HW1 1888   3.057   2.009   1.067 -2.6222  1.4680  0.2465
  114SOL    HW2 1889   3.116   2.115   1.156 -0.1829  0.2430  0.1749
  115SOL     OW 1890   3.140   4.154   3.365  0.7768  0.4589 -0.2033
  115SOL    HW1 1891   3.209   4.093   3.393  0.9133  0.7797  0.1640
  115SOL    HW2 1892   3.059   4.117   3.401  0.9564  0.8888  0.6525
  116SOL     OW 1893   5.924   0.237   4.592 -0.1922  0.2417  0.2498
  116SOL    HW1 1894   5.876   0.215   4.513 -0.4870 -0.0703  0.5166
  116SOL    HW2 1895   5.863   0.221   4.663  0.4574 -0.6527  0.6284
  117SOL     OW 1896   2.392   1.866   4.269  0.8983 -0.1260  0.5062
  117SOL    HW1 1897   2.299   1.888   4.269  1.1294  0.9914  1.6699
  117SOL    HW2 1898   2.418   1.871   4.177  0.0974  0.8745  0.3220
  118SOL     OW 1899   0.815   3.498   3.788  0.2697 -0.8176  0.0262
  118SOL    HW1 1900   0.854   3.506   3.701  0.6600  2.6959  0.3838
  118SOL    HW2 1901   0.882   3.453   3.840  0.9064 -1.0703 -0.9861
  119SOL     OW 1902   0.287   5.909   4.097  0.1363  0.0506 -0.0679
  119SOL    HW1 1903   0.265   5.878   4.009  2.4191 -1.5394 -0.1572
  119SOL    HW2 1904   0.228   5.861   4.155  0.1448 -0.5957 -0.5883
  120SOL     OW 1905   3.006   0.142   6.624  0.2786 -0.0894 -0.3147
  120SOL    HW1 1906   3.063   0.138   6.701 -1.7085 -0.2787  1.2068
  120SOL    HW2 1907   2.973   0.232   6.623  0.8089  0.1196 -1.3983
  121SOL     OW 1908   0.623   4.247   3.290  0.7108  0.4919 -0.7093
  121SOL    HW1 1909   0.531   4.223   3.284  0.4912  1.4314 -1.2968
  121SOL    HW2 1910   0.663   4.177   3.341 -0.7986  1.3138  1.7582
  122SOL     OW 1911   4.345   3.060   6.546 -0.6908  0.3365 -0.0363
  122SOL    HW1 1912   4.441   3.052   6.549 -0.7718 -0.5091  0.4477
  122SOL    HW2 1913   4.329   3.116   6.470  0.1959  0.6393 -0.0157
  123SOL     OW 1914   0.697   1.130   3.321 -0.1772 -0.1118  0.2593
  123SOL    HW1 1915   0.670   1.046   3.283 -0.4851  0.6079 -1.1368
  123SOL    HW2 1916   0.627   1.190   3.299 -0.0906  0.4670  1.5045
  124SOL     OW 1917   5.760   1.616   4.525 -0.2519  0.4141  0.0190
  124SOL    HW1 1918   5.806   1.586   4.446 -0.0780  0.0551  0.2515
  124SOL    HW2 1919   5.667   1.599   4.506 -0.3120  1.2850 -0.5116
  125SOL     OW 1920   1.689   6.398   6.712 -0.4580 -0.0033 -0.5400
  125SOL    HW1 1921   1.613   6.345   6.735  0.5364 -2.2272 -2.0247
  125SOL    HW2 1922   1.742   6.400   6.792 -1.1414 -0.1052 -0.0770
  126SOL     OW 1923   0.594   4.132   1.627 -0.1113  0.1224 -0.2754
  126SOL    HW1 1924   0.589   4.085   1.710 -0.6915 -0.6176 -0.7261
  126SOL    HW2 1925   0.572   4.222   1.649  1.3145  0.2755  0.6524
  127SOL     OW 1926   6.778   3.776   4.753  0.2211 -0.3207  0.2316
  127SOL    HW1 1927   6.860   3.826   4.753  0.3204 -0.4800 -0.0792
  127SOL    HW2 1928   6.710   3.842   4.736  0.3549 -0.2911 -0.2065
  128SOL     OW 1929   3.037   5.357   6.303  0.6077 -0.2101 -0.0599
  128SOL    HW1 1930   3.100   5.285   6.295  0.8253 -0.0461  0.1700
  128SOL    HW2 1931   3.077   5.417   6.366 -0.4314 -0.7900  1.1966
  129SOL     OW 1932   4.987   1.022   4.587 -0.3763  0.1672  0.5222
  129SOL    HW1 1933   5.011   0.932   4.606 -0.7812  0.3783  2.2475
  129SOL    HW2 1934   5.037   1.045   4.509 -0.8404 -1.7632 -0.3908
  130SOL     OW 1935   3.635   4.122   3.979  0.8644 -0.8802 -0.0228
  130SOL    HW1 1936   3.669   4.156   4.063 -1.3615  2.1949 -0.1783
  130SOL    HW2 1937   3.689   4.165   3.913 -0.3225  0.4180 -0.1847
  131SOL     OW 1938   6.566   1.172   0.931  0.0391 -0.1638  0.4174
  131SOL    HW1 1939   6.661   1.179   0.926 -0.1148  1.5922 -0.8723
  131SOL    HW2 1940   6.534   1.261   0.921 -1.7964 -0.9192 -1.3824
  132SOL     OW 1941   6.287   3.255   3.746  0.1779 -0.6147 -0.2077
  132SOL    HW1 1942   6.241   3.299   3.674  1.6892  0.9342 -0.2894
  132SOL    HW2 1943   6.379   3.258   3.721  0.5903 -1.4074  1.1106
  133SOL     OW 1944   3.604   0.426   5.840  0.8088  0.0162 -0.1203
  133SOL    HW1 1945   3.584   0.466   5.756  0.9452  3.6262  1.4044
  133SOL    HW2 1946   3.678   0.368   5.822  1.3737  1.3167 -2.3569
  134SOL     OW 1947   0.835   6.370   5.176  0.0967 -0.2948  0.2307
  134SOL    HW1 1948   0.894   6.302   5.144  0.5169  0.0391  0.2879
  134SOL    HW2 1949   0.889   6.424   5.234  0.5647  1.7098 -1.8659
  135SOL     OW 1950   3.023   4.271   6.225 -0.0297  0.1683 -0.0465
  135SOL    HW1 1951   3.062   4.209   6.162  1.7648  1.2817 -0.1050
  135SOL    HW2 1952   3.083   4.345   6.226 -1.5606  1.4563  0.8416
  136SOL     OW 1953   1.644   4.014   3.372 -0.1618  0.2779 -0.1284
  136SOL    HW1 1954   1.559   3.972   3.389  0.0663 -0.1287  0.0145
  136SOL    HW2 1955   1.708   3.947   3.394  0.2375  1.0108  1.0173
  137SOL     OW 1956   1.384   1.961   0.020 -0.2170 -0.3428 -0.1145
  137SOL    HW1 1957   1.326   1.895  -0.019 -0.9185 -0.0725  0.4470
  137SOL    HW2 1958   1.467   1.915   0.032 -0.2355 -0.6747 -1.1282
  138SOL     OW 1959   4.922   4.033   2.664 -0.2072 -0.0668  0.6025
  138SOL    HW1 1960   4.994   4.020   2.602  0.7711  2.3924  1.1104
  138SOL    HW2 1961   4.952   4.103   2.722 -2.7890  0.6714  1.1952
  139SOL     OW 1962   3.863   0.886   5.143  0.1610  0.1648  0.3144
  139SOL    HW1 1963   3.799   0.907   5.211  0.2216  1.7805 -0.0922
  139SOL    HW2 1964   3.948   0.898   5.185  0.2676 -2.3721  0.9732
  140SOL     OW 1965   1.037   0.848   6.324  0.7143 -0.2336 -0.5788
  140SOL    HW1 1966   0.945   0.826   6.309  0.2600  0.3457  1.0949
  140SOL    HW2 1967   1.074   0.860   6.236 -0.7919 -0.5217 -1.2821
  141SOL     OW 1968   4.178   3.094   4.792  0.5751  1.0157 -0.1332
  141SOL    HW1 1969   4.093   3.109   4.750 -0.3634  1.9778  1.9500
  141SOL    HW2 1970   4.201   3.004   4.768 -0.4854  1.1059 -1.6389
  142SOL     OW 1971   6.592   4.692   6.775  0.2669 -0.2704 -0.0147
  142SOL    HW1 1972   6.558   4.680   6.863  0.6159 -1.9584 -0.0671
  142SOL    HW2 1973   6.687   4.679   6.783  0.6750  2.1210 -0.2438
  143SOL     OW 1974   6.142   3.722   1.368  0.5285 -0.1073 -0.7266
  143SOL    HW1 1975   6.053   3.732   1.333  0.4320 -0.8122 -0.7137
  143SOL    HW2 1976   6.158   3.803   1.416 -1.2611 -1.0721  1.7541
  144SOL     OW 1977   6.055   3.803   3.142 -0.1541 -0.3818 -0.0454
  144SOL    HW1 1978   6.141   3.773   3.113 -1.3836 -1.6372 -2.7505
  144SOL    HW2 1979   5.993   3.741   3.103 -2.4171  1.6624  0.0587
  145SOL     OW 1980   4.034   3.759   5.413  0.0228 -0.2758 -0.2439
  145SOL    HW1 1981   4.107   3.776   5.471 -0.3787 -0.6810  0.3902
  145SOL    HW2 1982   3.986   3.842   5.409 -0.3155 -0.4257  0.5387
  146SOL     OW 1983   5.473   3.990   4.975  0.1763  0.0379 -0.2616
  146SOL    HW1 1984   5.522   4.067   4.947  1.2747 -0.2971  0.7051
  146SOL    HW2 1985   5.418   4.021   5.047 -0.9477  0.3717 -1.2273
  147SOL     OW 1986   4.791   5.202   6.676 -0.0697 -0.0827  0.4352
  147SOL    HW1 1987   4.710   5.252   6.689  0.4589  0.3041  2.4701
  147SOL    HW2 1988   4.788   5.134   6.743  1.0060 -0.4732  0.1055
  148SOL     OW 1989   6.334   0.217   6.531  0.4946 -0.6166  0.5417
  148SOL    HW1 1990   6.369   0.148   6.588  1.5384 -0.9294 -0.4572
  148SOL    HW2 1991   6.239   0.205   6.535  0.3878  0.2777  3.3545
  149SOL     OW 1992   5.998   6.327   5.231 -0.2966  0.2977 -0.6089
  149SOL    HW1 1993   5.913   6.307   5.270 -0.5187  1.4895 -0.4257
  149SOL    HW2 1994   6.027   6.407   5.276  0.9214 -0.0848 -0.6748
  150SOL     OW 1995   3.839   1.564   0.278 -0.0449  0.4348  0.2918
  150SOL    HW1 1996   3.771   1.576   0.212 -0.1210 -0.9271  0.0852
  150SOL    HW2 1997   3.821   1.477   0.315  0.4909  0.8193  1.5306
  151SOL     OW 1998   3.885   0.344   0.412  0.0074  0.4293 -0.0516
  151SOL    HW1 1999   3.861   0.429   0.446 -0.8671  0.4814 -0.7600
  151SOL    HW2 2000   3.979   0.337   0.429  0.2393  1.8283 -0.6102
  152SOL     OW 2001   2.241   3.566   6.016 -0.1904  0.2468 -0.0278
  152SOL    HW1 2002   2.266   3.484   5.973 -1.0004 -0.8232  1.4170
  152SOL    HW2 2003   2.146   3.572   6.002 -0.1103  1.0472 -0.2775
  153SOL     OW 2004   1.566   4.483   6.663 -0.5883  1.1540  0.3430
  153SOL    HW1 2005   1.658   4.480   6.635 -0.6106  1.0881  0.2762
  153SOL    HW2 2006   1.519   4.435   6.595 -0.2966 -1.5074  1.8914
  154SOL     OW 2007   1.637   1.112   2.770  0.3654 -0.6974 -0.2101
  154SOL    HW1 2008   1.571   1.050   2.801  0.4649 -0.0724  1.2773
  154SOL    HW2 2009   1.588   1.176   2.718  0.0371 -1.0900 -0.3922
  155SOL     OW 2010   5.883   4.999   1.300  0.0947 -0.3377 -0.0596
  155SOL    HW1 2011   5.973   5.029   1.304 -0.3454  0.9928  0.7774
  155SOL    HW2 2012   5.888   4.909   1.269  1.8696 -1.0069  1.9899
  156SOL     OW 2013   5.575   5.036   6.137  0.6527 -0.2962  0.1534
  156SOL    HW1 2014   5.581   5.085   6.220  2.3613  0.7247 -0.5214
  156SOL    HW2 2015   5.566   5.104   6.070 -0.9788 -1.1187 -0.5219
  157SOL     OW 2016   6.554   2.343   0.122  0.1268 -0.3429  0.6094
  157SOL    HW1 2017   6.471   2.304   0.148  0.6501 -1.2474  0.9557
  157SOL    HW2 2018   6.560   2.325   0.028 -0.1643 -0.0706  0.5340
  158SOL     OW 2019   3.609   3.981   4.425  0.0822 -0.0812  0.5695
  158SOL    HW1 2020   3.687   3.927   4.434  0.3997  0.3476  0.4070
  158SOL    HW2 2021   3.571   3.955   4.340  0.9771  0.8986 -0.1524
  159SOL     OW 2022   4.285   3.339   0.175 -0.5444 -0.8480  0.0115
  159SOL    HW1 2023   4.294   3.260   0.228 -2.2160 -1.2923 -0.3115
  159SOL    HW2 2024   4.322   3.409   0.229 -1.2740 -1.4507  1.3367
  160SOL     OW 2025   2.983   6.363   4.812 -0.4128  0.0696  0.0493
  160SOL    HW1 2026   3.040   6.439   4.800 -1.0936  0.6201  0.2453
  160SOL    HW2 2027   3.038   6.288   4.790  1.0390  0.4074  2.2636
  161SOL     OW 2028   2.340   3.988   1.159  0.0426 -0.0004 -0.2215
  161SOL    HW1 2029   2.394   3.985   1.238  0.8898  3.2731 -0.4995
  161SOL    HW2 2030   2.253   3.961   1.187  0.3896  0.8550  1.8138
  162SOL     OW 2031   4.242   2.575   5.359  0.2416 -0.0034 -0.4937
  162SOL    HW1 2032   4.285   2.495   5.330 -1.1723 -0.9884  0.0340
  162SOL    HW2 2033   4.199   2.552   5.441 -0.7968  1.0906 -0.6956
  163SOL     OW 2034   1.985   2.444   5.875  0.8048 -0.5291  0.3721
  163SOL    HW1 2035   2.034   2.362   5.873  1.5254 -0.1399  1.4394
  163SOL    HW2 2036   2.035   2.502   5.932 -0.8254 -0.0817  1.4339
  164SOL     OW 2037   0.050   0.491   3.088  0.4441 -0.2420 -0.1292
  164SOL    HW1 2038   0.025   0.523   3.001  1.0015  0.2723 -0.1058
  164SOL    HW2 2039  -0.030   0.453   3.123 -0.9971  3.2173  0.7822
  165SOL     OW 2040   4.237   6.469   2.039 -0.0257  0.3339  0.0477
  165SOL    HW1 2041   4.283   6.436   2.116 -1.0320 -1.6070 -0.1152
  165SOL    HW2 2042   4.187   6.544   2.071  0.1924  0.0468  1.1134
  166SOL     OW 2043   0.048   1.204   6.420  0.2524 -0.1143 -0.4262
  166SOL    HW1 2044  -0.011   1.173   6.489 -0.1030  0.7186 -0.3534
  166SOL    HW2 2045   0.134   1.171   6.446  0.1400  0.2834  0.4685
  167SOL     OW 2046   1.389   2.871   4.557 -0.3468  0.3553  0.0826
  167SOL    HW1 2047   1.446   2.933   4.602 -0.1011 -0.0327  0.3198
  167SOL    HW2 2048   1.448   2.822   4.499 -0.3272 -0.4401  0.7509
  168SOL     OW 2049   4.458   4.185   0.459  0.4115  0.2958 -0.2385
  168SOL    HW1 2050   4.424   4.228   0.381  1.1728  0.0889 -0.6949
  168SOL    HW2 2051   4.548   4.215   0.466  0.4357  0.0950  0.4041
  169SOL     OW 2052   2.020   2.947   3.192  0.7473 -0.0015  0.4610
  169SOL    HW1 2053   1.976   2.953   3.107 -0.4289 -0.4157  1.0205
  169SOL    HW2 2054   2.097   3.003   3.183  1.3890 -1.0890 -1.3130
  170SOL     OW 2055   6.714   4.369   0.097 -0.3617 -0.7667  0.0360
  170SOL    HW1 2056   6.759   4.452   0.078  0.9861 -1.6709 -0.9503
  170SOL    HW2 2057   6.681   4.379   0.186 -0.6235  0.9979 -0.2267
  171SOL     OW 2058   3.056   1.046   4.450  0.0022  0.4067  0.2599
  171SOL    HW1 2059   3.025   1.042   4.360  0.9768 -2.2420 -0.0557
  171SOL    HW2 2060   3.115   1.121   4.452 -0.4131  0.8008 -1.1752
  172SOL     OW 2061   5.446   3.789   0.088 -0.4590  0.0615 -0.3089
  172SOL    HW1 2062   5.540   3.803   0.099 -0.3281 -1.2004  0.3114
  172SOL    HW2 2063   5.413   3.770   0.176 -1.1637 -0.2439 -0.6266
  173SOL     OW 2064   4.066   2.762   5.000  0.4615 -0.0599 -0.5180
  173SOL    HW1 2065   4.101   2.783   5.086 -0.4845 -0.2937 -0.0643
  173SOL    HW2 2066   4.104   2.827   4.942  1.1458  0.0722  0.0609
  174SOL     OW 2067   2.453   5.104   4.588  0.1877  0.1398 -0.5472
  174SOL    HW1 2068   2.511   5.117   4.513  2.1208  2.1476  1.1471
  174SOL    HW2 2069   2.509   5.065   4.655 -0.8157  0.7318  0.6730
  175SOL     OW 2070   1.881   0.587   0.557 -0.7281  0.1048  0.6829
  175SOL    HW1 2071   1.965   0.602   0.514  0.4276 -1.0946  2.4046
  175SOL    HW2 2072   1.838   0.520   0.504  0.0724 -0.3755  0.6300
  176SOL     OW 2073   5.251   2.196   6.162 -0.5719 -0.5495  0.3198
  176SOL    HW1 2074   5.285   2.137   6.095  0.3679 -1.6728  1.7136
  176SOL    HW2 2075   5.321   2.202   6.227 -0.9487  1.5147  0.6263
  177SOL     OW 2076   5.892   1.799   3.146  0.0668  0.0582  0.1189
  177SOL    HW1 2077   5.875   1.841   3.061  1.3077 -1.0734 -0.7375
  177SOL    HW2 2078   5.862   1.709   3.134  0.6685 -0.2309  0.7232
  178SOL     OW 2079   4.647   1.918   0.530 -0.1713  0.2516  0.5224
  178SOL    HW1 2080   4.643   1.873   0.615  1.1487 -1.8881 -0.4326
  178SOL    HW2 2081   4.570   1.887   0.483  0.0240  0.0133  0.3499
  179SOL     OW 2082   4.420   0.327   5.353  0.3002  0.3182  0.0865
  179SOL    HW1 2083   4.392   0.398   5.410 -1.1267  0.6679 -0.9884
  179SOL    HW2 2084   4.399   0.358   5.265 -1.9078 -2.0466 -0.3328
  180SOL     OW 2085   2.216   3.516   3.008  0.0792 -0.1752 -1.0117
  180SOL    HW1 2086   2.258   3.514   3.094 -1.5501  1.1717 -0.1315
  180SOL    HW2 2087   2.193   3.424   2.991 -1.5693 -0.2342  1.0772
  181SOL     OW 2088   1.264   5.625   1.934 -0.3774 -0.0573 -0.0311
  181SOL    HW1 2089   1.258   5.639   1.839  2.6746  1.5127 -0.0986
  181SOL    HW2 2090   1.216   5.699   1.971 -1.8865 -0.8644 -0.2757
  182SOL     OW 2091   2.615   3.505   3.434 -0.7835 -0.3248 -0.1747
  182SOL    HW1 2092   2.609   3.567   3.508 -2.9777 -0.8630  0.1809
  182SOL    HW2 2093   2.667   3.551   3.368 -1.5389  1.5226  0.4524
  183SOL     OW 2094   1.561   4.010   2.954  0.1326 -0.1395  0.1259
  183SOL    HW1 2095   1.595   3.962   2.878 -1.1601 -1.7410  0.5040
  183SOL    HW2 2096   1.535   3.942   3.016 -0.5802  1.0985  1.2367
  184SOL     OW 2097   2.568   2.422   4.937  0.5378  0.1522 -0.4575
  184SOL    HW1 2098   2.589   2.373   5.017 -1.0235  0.9516  0.4942
  184SOL    HW2 2099   2.543   2.509   4.969  0.9804  0.8391 -1.9248
  185SOL     OW 2100   4.889   3.753   4.081 -0.4768  0.0862  0.2014
  185SOL    HW1 2101   4.831   3.742   4.006  0.2523  0.3040 -0.4070
  185SOL    HW2 2102   4.930   3.668   4.093  1.3754  0.6948 -1.3289
  186SOL     OW 2103   3.469   4.793   0.029 -0.8604 -0.0376 -0.5627
  186SOL    HW1 2104   3.467   4.734   0.104 -0.6361  0.3818 -0.2254
  186SOL    HW2 2105   3.490   4.736  -0.045 -2.2610 -0.6462 -0.5106
  187SOL     OW 2106   3.112   4.372   1.545 -0.0374 -0.1801  0.2420
  187SOL    HW1 2107   3.170   4.305   1.508  0.0231  0.7888 -1.5551
  187SOL    HW2 2108   3.131   4.451   1.494 -1.2724  0.7819  1.1977
  188SOL     OW 2109   6.072   2.471   2.448  0.3165  0.2035  0.2365
  188SOL    HW1 2110   6.128   2.533   2.403  0.3047  0.1617  0.1639
  188SOL    HW2 2111   6.127   2.394   2.463  0.0496 -0.1604 -0.5746
  189SOL     OW 2112   3.472   4.089   2.373  0.1448 -0.0064  0.4785
  189SOL    HW1 2113   3.424   4.021   2.420  1.6649 -2.3988 -1.2240
  189SOL    HW2 2114   3.545   4.044   2.332  2.1117  2.9428  0.3962
  190SOL     OW 2115   5.382   2.663   0.366  0.0452  0.0315 -0.6427
  190SOL    HW1 2116   5.381   2.715   0.286  0.3169  0.2637 -0.4958
  190SOL    HW2 2117   5.472   2.629   0.372 -0.4041 -1.3718 -1.3263
  191SOL     OW 2118   2.782   5.618   6.249 -0.3770 -0.1206 -0.3350
  191SOL    HW1 2119   2.844   5.633   6.320 -0.3197 -0.8000 -0.2325
  191SOL    HW2 2120   2.697   5.643   6.286 -0.2177  0.4762 -0.3604
  192SOL     OW 2121   3.065   5.276   1.916  0.0870  0.5900  0.4246
  192SOL    HW1 2122   3.096   5.276   2.007 -0.7624 -0.0173  0.7263
  192SOL    HW2 2123   2.996   5.342   1.914  0.3530  0.8632  0.1207
  193SOL     OW 2124   1.604   2.636   5.525  0.1223  0.3295  0.6969
  193SOL    HW1 2125   1.591   2.713   5.581 -1.4193  0.8375 -0.3012
  193SOL    HW2 2126   1.539   2.573   5.555  1.0719 -0.4390  1.2007
  194SOL     OW 2127   3.735   1.718   4.409  0.4265  0.0692 -0.2592
  194SOL    HW1 2128   3.760   1.632   4.442  2.3833  0.9958  0.8158
  194SOL    HW2 2129   3.751   1.714   4.315 -0.8931 -1.1587 -0.4704
  195SOL     OW 2130   3.479   3.221   0.044 -0.0500  0.1406  0.1924
  195SOL    HW1 2131   3.459   3.160  -0.026  1.4223  2.2991 -2.3034
  195SOL    HW2 2132   3.574   3.232   0.040 -0.2439  2.4260  0.5901
  196SOL     OW 2133   6.128   3.274   6.002 -0.9569  0.5807  0.0625
  196SOL    HW1 2134   6.131   3.370   6.009 -1.3722  0.7348 -1.6242
  196SOL    HW2 2135   6.209   3.251   5.956 -1.3117  0.2150 -0.3850
  197SOL     OW 2136   6.324   0.279   3.047  0.2723  0.7800  0.5511
  197SOL    HW1 2137   6.260   0.334   3.003  1.0696  2.5301  1.5046
  197SOL    HW2 2138   6.272   0.229   3.111 -0.5149  0.0202 -0.6265
  198SOL     OW 2139   4.948   4.512   5.494 -0.1755  0.0015  0.6310
  198SOL    HW1 2140   5.018   4.521   5.429  0.5715  0.3069  1.4641
  198SOL    HW2 2141   4.899   4.594   5.487 -0.5438 -0.2650 -0.0419
  199SOL     OW 2142   1.477   1.020   2.054 -0.1974 -0.5433  0.3842
  199SOL    HW1 2143   1.496   1.058   1.968 -2.5115  0.9744  0.4813
  199SOL    HW2 2144   1.447   0.931   2.035 -1.7395  0.1444 -0.5002
  200SOL     OW 2145   5.051   2.817   5.975 -0.1202  0.2075 -0.3940
  200SOL    HW1 2146   5.016   2.782   5.893 -0.1463 -0.8609  0.0502
  200SOL    HW2 2147   5.143   2.836   5.956  0.4154 -1.8898 -0.1798
  201SOL     OW 2148   0.288   3.324   6.094 -0.3828 -0.2245  0.4052
  201SOL    HW1 2149   0.353   3.394   6.098  0.8243 -1.3381  2.0382
  201SOL    HW2 2150   0.257   3.325   6.004  1.1339  1.0454 -0.1545
  202SOL     OW 2151   1.453   6.630   3.411 -0.1420  0.1616  0.0599
  202SOL    HW1 2152   1.428   6.717   3.443  0.9233  0.6687 -0.4192
  202SOL    HW2 2153   1.461   6.641   3.316 -0.4582 -0.5894 -0.0621
  203SOL     OW 2154   3.895   2.173   4.495  0.3091 -0.1340  0.0917
  203SOL    HW1 2155   3.931   2.237   4.433 -1.2136  2.2618  1.5072
  203SOL    HW2 2156   3.865   2.100   4.441  0.6412  1.0698 -1.7854
  204SOL     OW 2157   6.688   0.080   6.462  0.1349  0.0123 -0.0501
  204SOL    HW1 2158   6.642  -0.003   6.470 -0.7717  0.5733  0.8582
  204SOL    HW2 2159   6.772   0.066   6.507  0.3211 -0.6265 -0.5842
  205SOL     OW 2160   2.001   2.876   5.946 -0.1019 -0.0971  0.0204
  205SOL    HW1 2161   1.998   2.897   5.853 -0.0596  2.0859  0.4417
  205SOL    HW2 2162   1.936   2.934   5.986 -0.8313 -1.6912  1.2602
  206SOL     OW 2163   1.331   3.249   6.803 -0.1880  0.0551  0.0795
  206SOL    HW1 2164   1.376   3.333   6.808 -0.8705  0.4360  0.0844
  206SOL    HW2 2165   1.399   3.183   6.814  0.1448  0.6285  1.6566
  207SOL     OW 2166   6.650   2.210   4.675  0.4405  0.2327 -0.1356
  207SOL    HW1 2167   6.572   2.156   4.686 -0.3409  1.0913 -1.2483
  207SOL    HW2 2168   6.654   2.228   4.581 -0.2828  3.4611  0.3482
  208SOL     OW 2169   4.245   1.378   0.784 -0.1284 -0.8062  0.1561
  208SOL    HW1 2170   4.247   1.376   0.688  1.1851  0.4732  0.1203
  208SOL    HW2 2171   4.223   1.469   0.805 -0.0174 -0.9851  1.0644
  209SOL     OW 2172   3.851   1.122   3.627 -0.3747 -0.0526  0.5317
  209SOL    HW1 2173   3.774   1.176   3.612 -0.0770  0.1764 -0.2319
  209SOL    HW2 2174   3.875   1.138   3.718 -0.0745  1.3846  0.2127
  210SOL     OW 2175   5.217   2.282   5.716 -0.3482 -0.5203  0.1541
  210SOL    HW1 2176   5.176   2.302   5.800  0.1018  0.5929  0.1268
  210SOL    HW2 2177   5.309   2.307   5.727 -0.5483  0.9309 -1.0538
  211SOL     OW 2178   4.223   3.825   5.951 -0.1925  0.2101 -0.0934
  211SOL    HW1 2179   4.252   3.734   5.954  0.9072  0.5572  0.7708
  211SOL    HW2 2180   4.214   3.850   6.044 -1.5915  0.6468 -0.3288
  212SOL     OW 2181   6.226   2.979   3.017 -0.4054  0.1043  0.3250
  212SOL    HW1 2182   6.174   2.941   2.947  0.7332 -1.1584  0.1027
  212SOL    HW2 2183   6.225   2.913   3.086  0.3905  0.3051  0.5436
  213SOL     OW 2184   2.655   3.025   1.565  0.2152 -0.0214  0.3217
  213SOL    HW1 2185   2.562   3.003   1.562  0.3529 -1.2354  2.9095
  213SOL    HW2 2186   2.700   2.943   1.546  0.7407  0.0925  1.0445
  214SOL     OW 2187   4.771   0.926   0.584 -0.1708  0.2059  0.4618
  214SOL    HW1 2188   4.843   0.941   0.522  0.2209  1.8644  1.2325
  214SOL    HW2 2189   4.700   0.981   0.552 -0.5522 -0.2296  0.5568
  215SOL     OW 2190   0.597   6.526   6.254 -1.0328 -0.5094  0.2725
  215SOL    HW1 2191   0.616   6.619   6.238  0.0612 -0.5313  1.3599
  215SOL    HW2 2192   0.575   6.521   6.347  1.3655 -1.6796  0.8447
  216SOL     OW 2193   2.006   3.078   3.440  0.4219  0.2719  0.6426
  216SOL    HW1 2194   2.048   3.026   3.509  0.4976  0.4981  0.7667
  216SOL    HW2 2195   1.995   3.016   3.367  0.4590  0.0666  0.8104
  217SOL     OW 2196   6.264   3.007   3.857  0.2601 -0.2126  0.0026
  217SOL    HW1 2197   6.296   3.089   3.820 -1.1709 -0.1874 -1.3133
  217SOL    HW2 2198   6.196   2.978   3.796  1.9373 -3.3494 -0.6184
  218SOL     OW 2199   2.324   1.877   6.408  0.0335 -0.1335 -0.4511
  218SOL    HW1 2200   2.235   1.841   6.401  0.1510 -0.4909 -0.1657
  218SOL    HW2 2201   2.352   1.853   6.497  0.4979 -0.2158 -0.6177
  219SOL     OW 2202   5.080   3.076   1.209  0.3194  0.5717 -0.1721
  219SOL    HW1 2203   5.043   3.149   1.159 -0.1233  1.0889  0.8779
  219SOL    HW2 2204   5.160   3.053   1.162 -1.5817 -0.9667 -2.8526
  220SOL     OW 2205   1.864   1.151   6.004  0.6400  0.5754  0.0690
  220SOL    HW1 2206   1.891   1.060   6.013 -0.2883  0.1146 -1.4175
  220SOL    HW2 2207   1.945   1.201   6.010  1.3552 -0.4637 -0.5143
  221SOL     OW 2208   1.747   6.115   4.185 -0.1770  0.1756  0.2696
  221SOL    HW1 2209   1.811   6.171   4.142  0.7942  0.4735  2.0191
  221SOL    HW2 2210   1.664   6.162   4.175  0.3868  1.2713  0.5077
  222SOL     OW 2211   2.854   2.113   1.225 -0.6583  0.1540 -0.1698
  222SOL    HW1 2212   2.936   2.127   1.273 -0.6566 -0.1452 -0.0845
  222SOL    HW2 2213   2.801   2.058   1.282  0.0424 -1.7348 -1.2310
  223SOL     OW 2214   0.155   1.413   3.515  0.0663 -0.3810  0.0538
  223SOL    HW1 2215   0.117   1.452   3.437 -0.5490 -1.1731 -0.0522
  223SOL    HW2 2216   0.195   1.332   3.485  2.8113  0.8957 -0.0395
  224SOL     OW 2217   4.654   0.462   3.865  0.0914 -0.2995  0.9262
  224SOL    HW1 2218   4.580   0.423   3.819 -0.5151  0.6168  1.0977
  224SOL    HW2 2219   4.723   0.396   3.860 -0.4512 -0.8156  0.0037
  225SOL     OW 2220   3.160   6.563   4.736 -0.1850 -0.7358  0.3985
  225SOL    HW1 2221   3.254   6.583   4.741  0.1446 -2.1103  0.2089
  225SOL    HW2 2222   3.149   6.519   4.652 -1.4978  1.6385 -0.7887
  226SOL     OW 2223   2.817   1.872   6.779 -0.1816 -0.1164 -0.1607
  226SOL    HW1 2224   2.797   1.887   6.872 -0.4723  0.3828 -0.3042
  226SOL    HW2 2225   2.763   1.796   6.755  0.8123 -1.0215  0.3946
  227SOL     OW 2226   1.675   2.092   3.925  0.2891  0.2694  0.1655
  227SOL    HW1 2227   1.587   2.124   3.910 -0.1893 -0.3564  1.4649
  227SOL    HW2 2228   1.665   2.021   3.988  1.7337  0.3316  0.5179
  228SOL     OW 2229   2.146   1.988   0.109 -0.3236 -0.0000  0.6878
  228SOL    HW1 2230   2.188   1.932   0.043  0.6853  0.5256  0.8650
  228SOL    HW2 2231   2.059   2.005   0.074  0.2730  0.4649 -0.6423
  229SOL     OW 2232   6.752   6.355   2.120 -0.4159  0.4575 -0.1561
  229SOL    HW1 2233   6.745   6.384   2.029 -0.6852  1.3435  0.1371
  229SOL    HW2 2234   6.806   6.276   2.116 -0.8060  0.2283 -1.1304
  230SOL     OW 2235   0.873   6.752   1.521  0.4815  0.1557  0.1980
  230SOL    HW1 2236   0.919   6.671   1.542 -0.9289 -0.1676  2.3007
  230SOL    HW2 2237   0.781   6.733   1.538 -0.0207  1.8574 -0.4012
  231SOL     OW 2238   3.180   0.625   0.242  0.3751 -0.0213  0.2742
  231SOL    HW1 2239   3.186   0.563   0.315 -1.9760 -0.6191  0.0518
  231SOL    HW2 2240   3.219   0.578   0.168 -1.8794 -1.5960 -0.0294
  232SOL     OW 2241   4.121   3.799   4.541  0.5821  0.1870  0.3368
  232SOL    HW1 2242   4.137   3.708   4.565 -1.8116 -0.3677  0.0677
  232SOL    HW2 2243   4.164   3.809   4.455  1.8155 -0.3118  0.8660
  233SOL     OW 2244   4.774   2.805   4.714  0.4383  0.5565  0.1086
  233SOL    HW1 2245   4.689   2.846   4.732  1.0840  1.7379  0.5911
  233SOL    HW2 2246   4.802   2.845   4.631  1.2137  1.3571  0.7400
  234SOL     OW 2247   3.901   3.786   3.019 -0.3212  0.4584 -0.4467
  234SOL    HW1 2248   3.824   3.730   3.031 -0.4105  0.7407  0.3338
  234SOL    HW2 2249   3.957   3.737   2.958 -1.2864  0.4318 -1.3326
  235SOL     OW 2250   6.062   2.354   5.879 -0.1997  0.1049 -0.4445
  235SOL    HW1 2251   6.137   2.321   5.830 -0.7282 -1.8051 -0.0487
  235SOL    HW2 2252   6.094   2.365   5.969 -0.2173 -0.0606 -0.4179
  236SOL     OW 2253   3.045   4.485   2.955  0.2830 -0.3160  0.3789
  236SOL    HW1 2254   3.090   4.417   3.003  0.0209 -0.4016  0.5058
  236SOL    HW2 2255   3.037   4.558   3.017  2.6684  0.7558 -0.4557
  237SOL     OW 2256   5.765   5.601   0.416 -0.2836  0.1411  0.2307
  237SOL    HW1 2257   5.741   5.634   0.502  0.3580 -1.3308  1.0032
  237SOL    HW2 2258   5.859   5.586   0.422 -0.4767 -1.3585 -0.2435
  238SOL     OW 2259   1.650   5.813   6.120  0.4048 -0.2457  0.9117
  238SOL    HW1 2260   1.667   5.756   6.046  0.2158 -2.4887  2.5030
  238SOL    HW2 2261   1.557   5.837   6.111  0.4668 -0.2275  0.2802
  239SOL     OW 2262   4.865   5.186   2.163 -0.4221 -0.3736 -0.1036
  239SOL    HW1 2263   4.806   5.242   2.113 -0.8082 -0.6182  0.0774
  239SOL    HW2 2264   4.862   5.102   2.117 -0.1362 -0.3588 -0.1530
  240SOL     OW 2265   6.433   4.066   0.193  0.3997  0.1959 -0.2286
  240SOL    HW1 2266   6.348   4.088   0.232 -0.6228 -1.3662 -1.4508
  240SOL    HW2 2267   6.469   3.999   0.250 -0.2339 -0.7323 -0.8890
  241SOL     OW 2268   2.321   1.457   0.712 -0.2345 -0.1517 -0.0212
  241SOL    HW1 2269   2.340   1.419   0.798  1.0453  0.8601  0.1823
  241SOL    HW2 2270   2.407   1.469   0.672 -0.7857 -0.1715 -1.2604
  242SOL     OW 2271   6.598   2.545   2.828  0.4734 -0.6374 -0.7403
  242SOL    HW1 2272   6.612   2.478   2.761  0.7254 -0.2230 -1.1058
  242SOL    HW2 2273   6.645   2.621   2.796  1.0611 -0.5975  0.1751
  243SOL     OW 2274   5.325   2.090   4.536  0.0603 -0.2447 -0.0991
  243SOL    HW1 2275   5.310   2.043   4.618  0.5331 -0.3936 -0.0964
  243SOL    HW2 2276   5.410   2.059   4.505  0.2657  0.4123 -0.2283
  244SOL     OW 2277   4.331   6.345   4.752 -0.6105 -0.1797 -0.9576
  244SOL    HW1 2278   4.277   6.275   4.715 -0.8650  0.0843 -1.0889
  244SOL    HW2 2279   4.387   6.301   4.816 -0.2470 -0.6265 -1.5713
  245SOL     OW 2280   5.308   1.496   0.833  0.9241 -0.4110  0.3529
  245SOL    HW1 2281   5.261   1.442   0.896  1.2963  0.3127  1.2815
  245SOL    HW2 2282   5.250   1.570   0.815  1.1385 -0.2168  0.4458
  246SOL     OW 2283   4.198   3.967   0.843  0.4208 -0.2312 -0.2436
  246SOL    HW1 2284   4.261   3.942   0.910 -0.3276 -0.3564  0.4400
  246SOL    HW2 2285   4.242   4.036   0.793  1.2733 -0.6628 -0.0996
  247SOL     OW 2286   2.568   6.352   2.113  0.5003  0.2429 -0.1130
  247SOL    HW1 2287   2.489   6.400   2.089 -0.4597 -1.5651 -0.8108
  247SOL    HW2 2288   2.578   6.368   2.207  0.0089  1.4580 -0.2507
  248SOL     OW 2289   3.730   2.210   5.458  0.2338 -0.1862 -0.2884
  248SOL    HW1 2290   3.771   2.283   5.412 -0.1991  0.9251  1.0023
  248SOL    HW2 2291   3.662   2.179   5.399  0.1800  0.7163 -0.7192
  249SOL     OW 2292   6.379   0.938   1.751  0.2414 -0.0979 -0.7408
  249SOL    HW1 2293   6.371   0.864   1.811 -1.1035 -1.2416 -2.2540
  249SOL    HW2 2294   6.443   0.910   1.686 -1.4264 -0.6707 -2.2332
  250SOL     OW 2295   2.643   0.257   0.389 -0.0497  0.3351 -0.3776
  250SOL    HW1 2296   2.564   0.214   0.356  1.1984 -1.1284 -1.5973
  250SOL    HW2 2297   2.641   0.344   0.349 -0.9767  0.2807 -0.4742
  251SOL     OW 2298   2.328   6.124   3.415  0.1702  0.0008  0.1313
  251SOL    HW1 2299   2.260   6.059   3.434 -1.2391  1.7379  1.3710
  251SOL    HW2 2300   2.390   6.116   3.488  0.1524 -0.1317  0.1324
  252SOL     OW 2301   5.147   4.301   0.285 -0.7138 -0.0428 -0.8806
  252SOL    HW1 2302   5.106   4.235   0.340  1.4472 -0.0021  0.9397
  252SOL    HW2 2303   5.113   4.384   0.319 -1.3174 -0.0988 -1.3299
  253SOL     OW 2304   2.284   5.002   0.896  0.2835  0.3441  0.7326
  253SOL    HW1 2305   2.362   5.035   0.941  1.1348 -0.4450 -0.0934
  253SOL    HW2 2306   2.286   4.908   0.910  1.3156 -0.1348 -1.9123
  254SOL     OW 2307   5.264   3.706   3.783  0.1657  0.2009  0.3737
  254SOL    HW1 2308   5.247   3.612   3.780 -0.0949  0.2610 -0.0669
  254SOL    HW2 2309   5.305   3.720   3.869  0.1951 -0.3095  0.4461
  255SOL     OW 2310   5.942   5.474   5.461 -0.0002 -0.2959  0.4314
  255SOL    HW1 2311   5.930   5.548   5.403 -2.7526 -1.5028 -0.7096
  255SOL    HW2 2312   5.920   5.508   5.548  0.1867  0.5548  0.1541
  256SOL     OW 2313   3.149   6.701   0.725  0.1947 -0.4186 -0.5357
  256SOL    HW1 2314   3.187   6.635   0.782  2.4188  1.3451  0.1883
  256SOL    HW2 2315   3.216   6.769   0.720 -2.3199  2.2329 -0.4651
  257SOL     OW 2316   4.390   2.135   0.463  0.0499 -0.3319 -0.2531
  257SOL    HW1 2317   4.450   2.091   0.403  1.4894  0.5849  0.4350
  257SOL    HW2 2318   4.371   2.070   0.530 -0.5185 -0.9374 -0.9795
  258SOL     OW 2319   4.302   5.395   4.995 -0.3030  0.3819  0.3539
  258SOL    HW1 2320   4.342   5.374   4.910  0.5730 -0.0409  0.8508
  258SOL    HW2 2321   4.349   5.340   5.057 -1.6953 -0.1355  0.9795
  259SOL     OW 2322   5.790   6.263   1.311 -0.2790 -0.3291 -0.2496
  259SOL    HW1 2323   5.831   6.338   1.356 -1.5957  1.4029 -1.7903
  259SOL    HW2 2324   5.864   6.214   1.276  0.7179  2.8111 -3.1223
  260SOL     OW 2325   6.799   6.586   4.846 -0.0961  0.1112  0.1079
  260SOL    HW1 2326   6.827   6.622   4.930  2.8731 -0.0268 -0.6903
  260SOL    HW2 2327   6.762   6.661   4.798  0.8059  0.8469  0.5285
  261SOL     OW 2328   6.027   1.412   3.209  0.2613 -1.0833 -0.7241
  261SOL    HW1 2329   5.963   1.472   3.171  1.6843  0.6103 -0.5832
  261SOL    HW2 2330   5.977   1.356   3.268 -1.2221 -0.4643 -1.3675
  262SOL     OW 2331   1.325   1.138   5.870  0.1686  0.1051 -0.0651
  262SOL    HW1 2332   1.297   1.185   5.949 -0.9087  1.6173 -1.2891
  262SOL    HW2 2333   1.380   1.067   5.903  2.0191  2.2852  1.8855
  263SOL     OW 2334   6.158   6.044   2.900 -0.0941  0.0659 -0.2807
  263SOL    HW1 2335   6.147   6.000   2.816 -0.0422 -0.8961  0.1967
  263SOL    HW2 2336   6.186   5.975   2.960 -0.1718  0.7209  0.5383
  264SOL     OW 2337   1.190   0.020   6.368  0.4594 -0.2799 -0.2952
  264SOL    HW1 2338   1.196  -0.068   6.331  1.2597 -0.6732  0.7322
  264SOL    HW2 2339   1.097   0.033   6.385  0.4278 -1.2428  0.2946
  265SOL     OW 2340   2.061   1.994   0.680  0.1268  0.2353 -0.3757
  265SOL    HW1 2341   2.073   1.932   0.752  0.8958 -0.0450 -0.7385
  265SOL    HW2 2342   2.114   1.959   0.608  1.0667  1.6031 -0.3974
  266SOL     OW 2343   1.216   0.135   3.093 -0.1947 -0.0100 -0.5440
  266SOL    HW1 2344   1.235   0.104   3.181  0.4893  0.5441 -0.4886
  266SOL    HW2 2345   1.273   0.084   3.036  2.1952  2.1614 -0.3131
  267SOL     OW 2346   4.496   0.242   3.785 -0.0486  0.0713 -0.1340
  267SOL    HW1 2347   4.541   0.163   3.815  1.0685 -0.1140 -2.1455
  267SOL    HW2 2348   4.462   0.219   3.699 -1.1130  1.2904 -0.0646
  268SOL     OW 2349   5.383   0.333   5.447 -0.2555  0.4120  0.7377
  268SOL    HW1 2350   5.425   0.318   5.532  4.4107  2.7495 -0.8173
  268SOL    HW2 2351   5.310   0.393   5.466 -0.9341 -1.0569  3.2361
  269SOL     OW 2352   2.410   2.443   5.962  0.5152  0.0697  0.9969
  269SOL    HW1 2353   2.324   2.461   6.000  0.2509  0.0238  0.4196
  269SOL    HW2 2354   2.470   2.445   6.037  0.0198  0.1433  1.3934
  270SOL     OW 2355   4.785   3.230   3.360 -0.0862  0.0721 -0.3865
  270SOL    HW1 2356   4.746   3.264   3.279 -0.2112  1.4717  0.2260
  270SOL    HW2 2357   4.711   3.224   3.421  0.4588  2.0683  0.5619
  271SOL     OW 2358   5.853   5.821   4.561 -0.0376 -0.0312 -0.0506
  271SOL    HW1 2359   5.822   5.842   4.473  0.6717  2.4364  0.1954
  271SOL    HW2 2360   5.948   5.809   4.551  0.3641  2.1540  0.5762
  272SOL     OW 2361   3.642   0.183   1.583  0.0834 -0.4061  0.7403
  272SOL    HW1 2362   3.558   0.221   1.606  0.2926 -0.2723  1.2850
  272SOL    HW2 2363   3.645   0.187   1.487  0.4262  1.6466  0.8076
  273SOL     OW 2364   1.650   4.724   3.771 -0.0610 -0.0786 -0.5674
  273SOL    HW1 2365   1.679   4.683   3.853 -1.0480  0.9442  0.3364
  273SOL    HW2 2366   1.723   4.713   3.711  0.6601 -0.9173  0.4327
  274SOL     OW 2367   3.721   0.796   1.251 -0.0666 -0.4477 -0.2397
  274SOL    HW1 2368   3.719   0.888   1.225 -1.2360  0.1367  1.7007
  274SOL    HW2 2369   3.796   0.760   1.204  1.7892  2.0247  0.5842
  275SOL     OW 2370   1.216   4.264   3.597 -0.6011  0.5766  0.3176
  275SOL    HW1 2371   1.281   4.203   3.630 -2.5090 -1.1832  1.0471
  275SOL    HW2 2372   1.188   4.226   3.513 -0.1740  1.7213 -0.3679
  276SOL     OW 2373   5.278   1.744   2.145  0.1914  0.0507  0.2393
  276SOL    HW1 2374   5.209   1.683   2.172  2.5702 -2.8943  0.1520
  276SOL    HW2 2375   5.323   1.699   2.073  1.6140  2.3022 -0.3711
  277SOL     OW 2376   6.646   3.010   3.426 -0.4159  0.1998 -0.0208
  277SOL    HW1 2377   6.636   2.923   3.388  1.3927 -0.0714  0.0463
  277SOL    HW2 2378   6.668   2.993   3.518  2.4571  0.5629 -0.5443
  278SOL     OW 2379   5.558   0.128   4.538  0.2344  0.5859 -0.0506
  278SOL    HW1 2380   5.644   0.102   4.570  0.4433 -0.8524 -1.6424
  278SOL    HW2 2381   5.574   0.157   4.448 -0.9303  0.2446 -0.3843
  279SOL     OW 2382   5.049   6.131   5.944  0.8042 -0.0669  0.3776
  279SOL    HW1 2383   5.053   6.185   6.023 -0.8580  1.1129 -0.2920
  279SOL    HW2 2384   5.120   6.163   5.889  0.7114  0.4845  0.5738
  280SOL     OW 2385   5.670   1.805   5.813 -0.0508  0.2208 -0.6988
  280SOL    HW1 2386   5.628   1.720   5.800 -2.8455  1.3739  0.1500
  280SOL    HW2 2387   5.659   1.824   5.906  0.7657  1.3918 -0.8202
  281SOL     OW 2388   6.643   0.436   2.029 -0.3367 -0.9165 -0.0359
  281SOL    HW1 2389   6.703   0.378   2.075  1.2539  0.2101 -0.6124
  281SOL    HW2 2390   6.656   0.415   1.936 -1.2978 -1.0674 -0.1483
  282SOL     OW 2391   0.509   6.162   1.080 -0.2255 -0.2140  0.2626
  282SOL    HW1 2392   0.490   6.192   0.991  0.6201  0.2872  0.2461
  282SOL    HW2 2393   0.594   6.118   1.073  1.3185  2.4028  1.3314
  283SOL     OW 2394   1.613   6.453   0.280  0.1709 -0.5080 -0.4188
  283SOL    HW1 2395   1.627   6.495   0.365 -0.1623  1.2968 -1.1968
  283SOL    HW2 2396   1.567   6.520   0.228 -2.3979 -2.6108 -1.0807
  284SOL     OW 2397   4.269   3.847   4.007 -0.4344  0.2493  0.1073
  284SOL    HW1 2398   4.271   3.928   3.956  0.3229  1.7035  2.2480
  284SOL    HW2 2399   4.359   3.814   4.003 -0.2742  0.5853  0.7749
  285SOL     OW 2400   4.258   5.001   2.332  0.0922 -0.9577  0.4309
  285SOL    HW1 2401   4.242   5.051   2.412 -1.1841 -0.8801  0.1465
  285SOL    HW2 2402   4.323   5.053   2.284 -1.8395  0.9810 -0.2730
  286SOL     OW 2403   3.115   6.772   5.377  0.3122 -0.4652 -0.3971
  286SOL    HW1 2404   3.048   6.834   5.405 -1.4537 -2.6785  0.6820
  286SOL    HW2 2405   3.185   6.781   5.442  0.2428  0.5865 -0.4550
  287SOL     OW 2406   3.865   0.027   2.355 -0.5534 -0.1505  0.9375
  287SOL    HW1 2407   3.873   0.008   2.449 -0.9670  0.9544  1.2157
  287SOL    HW2 2408   3.813   0.107   2.352 -0.9459 -0.4412 -0.2694
  288SOL     OW 2409   0.466   2.602   1.439 -0.3552  0.1050 -0.2502
  288SOL    HW1 2410   0.499   2.516   1.467  0.1257  0.3698  0.0120
  288SOL    HW2 2411   0.513   2.665   1.494  0.2979  0.6214 -1.3664
  289SOL     OW 2412   0.395   2.222   4.889  0.3350  0.0477  0.1724
  289SOL    HW1 2413   0.363   2.241   4.801 -0.8835 -0.6012  0.4514
  289SOL    HW2 2414   0.357   2.291   4.944  3.3433  2.1518 -0.1656
  290SOL     OW 2415   6.519   4.497   4.310  0.6760 -0.3618 -0.4190
  290SOL    HW1 2416   6.439   4.542   4.281  0.8972  0.5501  0.3123
  290SOL    HW2 2417   6.489   4.413   4.344 -0.6325  1.4941  3.6467
  291SOL     OW 2418   6.292   5.279   6.108  0.1757  0.2061  0.1085
  291SOL    HW1 2419   6.258   5.337   6.176 -0.6492 -0.5748  0.3946
  291SOL    HW2 2420   6.271   5.323   6.025 -0.3636  0.3659  0.3252
  292SOL     OW 2421   5.488   1.600   3.120  0.6944  0.1010 -0.3039
  292SOL    HW1 2422   5.534   1.598   3.204 -0.4466  0.1803  0.3411
  292SOL    HW2 2423   5.554   1.628   3.057  1.5479  0.1227  0.5777
  293SOL     OW 2424   4.347   0.500   2.300  0.1295 -0.1429 -0.1033
  293SOL    HW1 2425   4.390   0.535   2.378  0.6634 -1.8419  0.4121
  293SOL    HW2 2426   4.394   0.419   2.281 -1.4976 -0.9764 -0.7951
  294SOL     OW 2427   5.750   6.622   1.030 -0.1690 -0.2130  0.5897
  294SOL    HW1 2428   5.795   6.591   1.109  0.5396  1.2207  0.7729
  294SOL    HW2 2429   5.798   6.581   0.958 -0.2447 -0.8049  0.8707
  295SOL     OW 2430   2.180   3.151   6.477  0.4764  0.4338  0.1770
  295SOL    HW1 2431   2.257   3.137   6.532 -0.2433  0.2669  1.1787
  295SOL    HW2 2432   2.215   3.183   6.394  1.5265  2.4913  1.3343
  296SOL     OW 2433   2.516   6.086   2.040 -0.1440 -0.0123  0.4251
  296SOL    HW1 2434   2.540   6.176   2.059 -1.5706  0.2113  1.3654
  296SOL    HW2 2435   2.482   6.052   2.123  1.1862 -1.7171  0.3368
  297SOL     OW 2436   1.942   5.290   1.636 -0.7304 -0.5113  0.2937
  297SOL    HW1 2437   1.870   5.229   1.621 -2.0823  1.3020 -1.1796
  297SOL    HW2 2438   1.919   5.336   1.716 -1.7311  0.6468 -0.6123
  298SOL     OW 2439   4.428   5.132   3.461  0.5366 -0.6226 -0.4103
  298SOL    HW1 2440   4.374   5.062   3.496  0.3352 -0.2580  0.0184
  298SOL    HW2 2441   4.366   5.202   3.439  0.9763  0.8243  2.4469
  299SOL     OW 2442   2.364   3.913   2.382 -0.4465 -0.0471  0.1947
  299SOL    HW1 2443   2.433   3.896   2.318 -1.0067  1.4927 -0.8614
  299SOL    HW2 2444   2.334   3.826   2.408 -1.0543 -0.7665 -2.5805
  300SOL     OW 2445   4.592   3.321   4.749  0.1046  0.6173  0.2942
  300SOL    HW1 2446   4.514   3.295   4.798 -0.5406 -1.2074 -1.5582
  300SOL    HW2 2447   4.571   3.300   4.658  2.2779  1.3243 -0.4273
  301SOL     OW 2448   0.539   6.414   6.758  0.0166 -0.6702  0.3566
  301SOL    HW1 2449   0.480   6.441   6.828 -0.2156  1.1602 -0.4968
  301SOL    HW2 2450   0.616   6.380   6.804 -0.8473 -1.1768  1.4777
  302SOL     OW 2451   2.047   4.284   0.821  0.5358 -0.0562  0.3159
  302SOL    HW1 2452   2.024   4.232   0.898  0.6608  1.4896  1.4456
  302SOL    HW2 2453   2.121   4.338   0.849  1.4583 -0.4051 -1.3183
  303SOL     OW 2454   0.591   2.852   5.200 -0.2833 -0.0334  0.2336
  303SOL    HW1 2455   0.525   2.913   5.233 -0.1213  0.7265 -0.7866
  303SOL    HW2 2456   0.664   2.862   5.261 -0.0772  1.1728 -0.1739
  304SOL     OW 2457   5.248   4.138   6.597 -0.8832 -0.2897 -0.3052
  304SOL    HW1 2458   5.222   4.145   6.689  0.8628  0.8027  0.1445
  304SOL    HW2 2459   5.331   4.090   6.600 -0.5906  0.1526 -1.2690
  305SOL     OW 2460   4.871   5.612   5.438 -0.0128  0.0189  0.3158
  305SOL    HW1 2461   4.794   5.649   5.395 -0.3469 -1.2097 -0.1989
  305SOL    HW2 2462   4.837   5.539   5.489  0.6088  0.4663  1.4028
  306SOL     OW 2463   0.262   6.392   4.874  0.2142 -0.1813  0.5003
  306SOL    HW1 2464   0.333   6.455   4.887 -0.0629  0.2340  0.0380
  306SOL    HW2 2465   0.208   6.400   4.952 -0.8789  1.5544 -0.3916
  307SOL     OW 2466   5.894   2.928   5.028  0.0444  0.7396  0.1027
  307SOL    HW1 2467   5.904   2.832   5.029 -1.6128  0.5313 -0.0798
  307SOL    HW2 2468   5.981   2.961   5.050  0.6076 -0.8098  0.3724
  308SOL     OW 2469   1.957   5.514   0.574  0.2971  0.1278  0.3410
  308SOL    HW1 2470   1.950   5.424   0.541  0.9043  0.3694 -0.4913
  308SOL    HW2 2471   1.919   5.511   0.661 -0.5538 -0.7379 -0.0413
  309SOL     OW 2472   3.633   5.256   4.495  0.1088  0.3128 -0.5388
  309SOL    HW1 2473   3.623   5.161   4.486 -0.4159  0.4484 -1.5949
  309SOL    HW2 2474   3.549   5.285   4.532 -0.6090  0.5947 -2.2930
  310SOL     OW 2475   5.261   6.187   5.790 -0.5595 -0.7035 -0.0627
  310SOL    HW1 2476   5.338   6.192   5.846 -0.9384 -1.9656  0.5989
  310SOL    HW2 2477   5.282   6.119   5.726 -0.9099 -0.6735 -0.2126
  311SOL     OW 2478   2.321   3.409   2.114 -0.3147  0.2871 -0.2492
  311SOL    HW1 2479   2.416   3.413   2.115 -0.3416  1.2362 -0.6645
  311SOL    HW2 2480   2.295   3.422   2.206 -0.0499 -0.0100 -0.1305
  312SOL     OW 2481   0.695   0.213   0.886  0.2830 -0.0337 -0.0061
  312SOL    HW1 2482   0.653   0.130   0.909  2.3609 -0.3903  3.0157
  312SOL    HW2 2483   0.624   0.277   0.888 -0.9811 -1.3572 -0.2648
  313SOL     OW 2484   6.742   0.669   5.322  0.1010  0.5840  0.0321
  313SOL    HW1 2485   6.736   0.690   5.415  1.0158 -0.5818  0.3847
  313SOL    HW2 2486   6.836   0.665   5.304  0.0092 -1.8434 -0.2502
  314SOL     OW 2487   4.803   4.769   3.804  0.0521  0.1447  0.4037
  314SOL    HW1 2488   4.889   4.733   3.785 -0.3859 -2.7048  2.9698
  314SOL    HW2 2489   4.820   4.853   3.846  1.7423 -0.8495  1.8706
  315SOL     OW 2490   3.543   6.595   6.757 -0.3570 -0.0836 -0.3149
  315SOL    HW1 2491   3.569   6.572   6.846  1.7470  1.2044 -0.5442
  315SOL    HW2 2492   3.615   6.647   6.723 -2.1129  1.4255 -1.9882
  316SOL     OW 2493   4.190   6.115   4.703  0.4048 -0.7079 -0.0254
  316SOL    HW1 2494   4.193   6.052   4.774  1.9273  0.4721  1.0083
  316SOL    HW2 2495   4.233   6.071   4.630  0.4637 -1.2615  0.3405
  317SOL     OW 2496   2.299   2.373   1.118 -0.0934  0.6280  0.0808
  317SOL    HW1 2497   2.347   2.383   1.036  0.9949  0.9045  0.7242
  317SOL    HW2 2498   2.212   2.342   1.092  1.1314 -2.2555 -1.0195
  318SOL     OW 2499   0.368   0.014   5.082  0.3756 -0.9095  0.4922
  318SOL    HW1 2500   0.462   0.005   5.101  0.5337 -0.6000 -0.1155
  318SOL    HW2 2501   0.328   0.034   5.167  0.7259 -1.9680  0.9263
  319SOL     OW 2502   3.875   0.714   5.650 -0.1269  0.1769  0.3548
  319SOL    HW1 2503   3.898   0.709   5.743 -1.6697  0.8355  0.7968
  319SOL    HW2 2504   3.895   0.804   5.625 -0.3270  0.1790  0.2049
  320SOL     OW 2505   6.623   2.894   0.285 -0.0136  0.1316 -0.5094
  320SOL    HW1 2506   6.658   2.860   0.202  1.9448 -1.0024  0.7049
  320SOL    HW2 2507   6.699   2.926   0.333 -1.1430  1.0843  0.7320
  321SOL     OW 2508   6.268   2.287   6.332 -0.2160 -0.4903  0.0280
  321SOL    HW1 2509   6.309   2.216   6.283  0.8158  0.8229 -1.0874
  321SOL    HW2 2510   6.214   2.333   6.267 -0.3493  0.1395  0.5698
  322SOL     OW 2511   4.410   0.634   2.059  0.4511  0.1307 -0.2554
  322SOL    HW1 2512   4.369   0.720   2.048  0.6671  0.0735 -1.6301
  322SOL    HW2 2513   4.339   0.577   2.088 -0.5088  0.0223 -2.6254
  323SOL     OW 2514   3.217   1.527   2.900  0.4955  0.3449  0.2283
  323SOL    HW1 2515   3.204   1.568   2.814 -3.9259  0.5293  0.7409
  323SOL    HW2 2516   3.206   1.599   2.962  0.8913 -0.2611  1.0148
  324SOL     OW 2517   6.451   3.791   2.262  0.0928  0.4716  0.7719
  324SOL    HW1 2518   6.482   3.778   2.351  0.3818 -0.6822  0.5150
  324SOL    HW2 2519   6.522   3.838   2.218 -0.2264  1.4249  1.2478
  325SOL     OW 2520   4.102   1.004   6.139 -0.5363 -0.6300  0.0552
  325SOL    HW1 2521   4.108   0.967   6.051  1.2831  1.2849 -0.7290
  325SOL    HW2 2522   4.189   0.988   6.176 -0.6796  0.2534  0.7747
  326SOL     OW 2523   3.720   5.756   4.832  0.4524  0.0305  0.1401
  326SOL    HW1 2524   3.710   5.757   4.737  1.0027 -0.7756  0.0635
  326SOL    HW2 2525   3.787   5.822   4.850  0.6644 -0.1271 -0.0701
  327SOL     OW 2526   6.356   3.939   1.073  0.3668 -0.6703  0.3799
  327SOL    HW1 2527   6.400   3.920   1.156 -1.8701  1.5371  2.2115
  327SOL    HW2 2528   6.383   4.028   1.052  0.0049 -0.8040 -0.6980
  328SOL     OW 2529   2.733   3.793   2.626  0.3503  0.3510 -0.4684
  328SOL    HW1 2530   2.818   3.752   2.638  0.0881 -0.1777 -0.3869
  328SOL    HW2 2531   2.738   3.836   2.541  0.7902  0.5550 -0.3404
  329SOL     OW 2532   3.022   1.837   5.753 -0.1777 -0.2408  0.3427
  329SOL    HW1 2533   2.959   1.795   5.812 -1.4872  0.6134 -0.3985
  329SOL    HW2 2534   3.067   1.902   5.809 -0.3256 -0.4816  0.7459
  330SOL     OW 2535   5.200   6.402   2.550 -0.1044 -0.5189 -0.0932
  330SOL    HW1 2536   5.162   6.476   2.503 -0.4773 -0.8319 -0.2881
  330SOL    HW2 2537   5.187   6.328   2.491 -0.6494 -0.9343  0.5444
  331SOL     OW 2538   1.286   3.416   5.944 -0.1891 -0.3245  0.0670
  331SOL    HW1 2539   1.346   3.344   5.967  2.0712  1.0140 -1.2348
  331SOL    HW2 2540   1.276   3.466   6.025 -0.3970 -1.1498  0.5606
  332SOL     OW 2541   1.828   0.279   3.379  0.3595 -0.0041  0.1055
  332SOL    HW1 2542   1.827   0.198   3.327  3.4251 -0.3388  0.3779
  332SOL    HW2 2543   1.801   0.347   3.317 -1.2752 -1.0420 -0.4057
  333SOL     OW 2544   0.283   4.918   4.053  0.0205 -0.1429 -0.0126
  333SOL    HW1 2545   0.211   4.869   4.093  1.1640 -2.0979 -0.2204
  333SOL    HW2 2546   0.262   4.920   3.959 -0.0071 -0.2839 -0.0091
  334SOL     OW 2547   2.952   4.034   2.146 -0.0191 -0.3282 -0.5524
  334SOL    HW1 2548   2.979   3.945   2.124  0.9882  0.0400 -0.8570
  334SOL    HW2 2549   3.026   4.071   2.193 -0.3658  0.4012 -0.5646
  335SOL     OW 2550   3.310   5.229   2.672 -0.0076 -0.1215 -0.1697
  335SOL    HW1 2551   3.307   5.212   2.766 -0.5979  0.9850  0.0298
  335SOL    HW2 2552   3.354   5.313   2.664 -0.5966  0.1369 -0.8293
  336SOL     OW 2553   6.457   2.616   2.324  0.2333 -0.0095  0.8866
  336SOL    HW1 2554   6.492   2.527   2.333 -0.5198 -0.5288 -0.9943
  336SOL    HW2 2555   6.535   2.672   2.321  0.8522 -0.8899 -0.5673
  337SOL     OW 2556   3.191   5.120   6.241  0.3117  0.3484  0.3519
  337SOL    HW1 2557   3.189   5.038   6.291  0.0456  0.0223 -0.1823
  337SOL    HW2 2558   3.283   5.130   6.215  0.0486 -0.7256 -1.0941
  338SOL     OW 2559   4.495   1.838   2.016 -0.1809  0.5215 -0.2089
  338SOL    HW1 2560   4.522   1.769   1.955  0.6330  1.2542 -0.6920
  338SOL    HW2 2561   4.576   1.868   2.056 -0.7367 -0.2308  1.5901
  339SOL     OW 2562   5.213   3.292   0.558 -0.0150  0.1238 -0.7273
  339SOL    HW1 2563   5.210   3.234   0.482  0.2654 -0.2042 -0.4907
  339SOL    HW2 2564   5.264   3.243   0.623  1.4998  1.2180 -1.0254
  340SOL     OW 2565   4.682   5.357   2.024  0.0500 -0.3378  0.0049
  340SOL    HW1 2566   4.647   5.309   1.949  1.1771  0.1637 -0.8769
  340SOL    HW2 2567   4.652   5.447   2.011  1.1792 -0.0142 -0.4766
  341SOL     OW 2568   4.641   6.397   4.520  0.2100 -0.5423  0.7426
  341SOL    HW1 2569   4.567   6.364   4.469 -0.3820  0.8264  0.6627
  341SOL    HW2 2570   4.718   6.367   4.473 -0.2926  1.9175 -1.9048
  342SOL     OW 2571   1.497   1.222   0.969 -0.1258  0.4472 -0.8367
  342SOL    HW1 2572   1.437   1.292   0.995 -0.5095 -0.5286  1.0345
  342SOL    HW2 2573   1.584   1.257   0.991 -0.1899  0.8672 -1.2215
  343SOL     OW 2574   2.060   0.917   2.292 -0.1162 -0.1014 -0.3357
  343SOL    HW1 2575   2.155   0.917   2.279 -0.1292 -0.7256 -0.5174
  343SOL    HW2 2576   2.026   0.886   2.208 -0.3756 -1.5708  0.2809
  344SOL     OW 2577   6.429   1.740   3.191  0.6984  0.1478 -0.0255
  344SOL    HW1 2578   6.354   1.796   3.170  0.4860 -0.3548 -0.6479
  344SOL    HW2 2579   6.433   1.740   3.287  0.0952  0.4269  0.0033
  345SOL     OW 2580   4.056   0.210   5.333 -0.1227  0.8086  0.1852
  345SOL    HW1 2581   4.062   0.305   5.321 -0.0782  0.8120  0.2328
  345SOL    HW2 2582   4.002   0.199   5.412 -0.0780  0.7958  0.2140
  346SOL     OW 2583   6.434   4.647   6.076  0.1586  0.0708  0.1531
  346SOL    HW1 2584   6.396   4.594   6.146  2.7810 -1.0006  0.8945
  346SOL    HW2 2585   6.501   4.699   6.120  1.9467 -0.6971 -1.5204
  347SOL     OW 2586   5.409   4.742   6.700 -0.4114  0.1093 -0.0088
  347SOL    HW1 2587   5.392   4.781   6.614 -0.5705  0.3074  0.1119
  347SOL    HW2 2588   5.413   4.648   6.683  0.7865  0.2177 -0.4386
  348SOL     OW 2589   3.137   1.093   6.149 -0.3635 -0.2176  0.2355
  348SOL    HW1 2590   3.102   1.090   6.238 -0.2079  1.4852  0.3893
  348SOL    HW2 2591   3.081   1.154   6.103 -0.7813 -1.5047 -1.0318
  349SOL     OW 2592   4.298   3.955   1.252  0.1057 -0.1310  0.1761
  349SOL    HW1 2593   4.332   3.953   1.342 -1.2895  0.7518  0.7670
  349SOL    HW2 2594   4.255   3.871   1.241  2.3551 -1.2494 -0.5709
  350SOL     OW 2595   3.316   2.871   0.585  0.3809  0.4605 -0.3831
  350SOL    HW1 2596   3.326   2.777   0.600 -0.6583  0.1367 -1.5355
  350SOL    HW2 2597   3.399   2.909   0.613  0.3801 -0.6379  1.2603
  351SOL     OW 2598   0.963   5.814   6.216  0.5500  0.0521 -0.8909
  351SOL    HW1 2599   0.884   5.838   6.264  0.8044 -0.9633  0.0580
  351SOL    HW2 2600   1.014   5.896   6.213 -0.3225  0.6034 -1.1376
  352SOL     OW 2601   3.605   1.269   6.208  0.3385 -0.2206  0.6323
  352SOL    HW1 2602   3.623   1.330   6.137 -0.7505 -0.5820  0.0134
  352SOL    HW2 2603   3.546   1.204   6.168 -0.4473 -0.3191  1.9117
  353SOL     OW 2604   2.389   6.314   0.660 -0.0323 -0.3155 -0.0540
  353SOL    HW1 2605   2.416   6.336   0.571 -0.0741 -0.6525 -0.1530
  353SOL    HW2 2606   2.398   6.395   0.709  1.1665 -0.4204 -0.0819
  354SOL     OW 2607   5.559   5.704   6.435 -0.2234 -0.1815  0.0210
  354SOL    HW1 2608   5.604   5.682   6.516  0.8363 -0.5996 -0.6531
  354SOL    HW2 2609   5.518   5.789   6.452 -0.2739 -0.3997  1.0707
  355SOL     OW 2610   4.166   4.946   1.741  0.4610 -0.2052  0.7001
  355SOL    HW1 2611   4.162   4.894   1.661 -1.5374 -2.3295  2.0430
  355SOL    HW2 2612   4.257   4.942   1.769  0.8529 -0.8033 -0.6089
  356SOL     OW 2613   3.554   5.002   1.306 -0.0875  0.0795  0.4860
  356SOL    HW1 2614   3.646   5.030   1.306  0.6729 -2.1349  1.8414
  356SOL    HW2 2615   3.537   4.978   1.397 -2.1109  0.6448  0.2946
  357SOL     OW 2616   4.663   4.560   6.267  0.2356 -0.3979  0.0017
  357SOL    HW1 2617   4.741   4.511   6.239 -0.5478 -1.9901  0.5020
  357SOL    HW2 2618   4.611   4.569   6.188 -0.6498 -2.3992  0.2888
  358SOL     OW 2619   2.594   1.218   3.016 -0.6751 -0.2238 -0.6076
  358SOL    HW1 2620   2.540   1.286   2.976 -1.4101 -0.1055  0.5440
  358SOL    HW2 2621   2.557   1.135   2.983 -0.2039 -0.0978 -1.4802
  359SOL     OW 2622   5.792   0.751   4.917  0.1727  0.2696 -0.0587
  359SOL    HW1 2623   5.748   0.731   5.000  1.0648 -0.1164  0.3370
  359SOL    HW2 2624   5.805   0.846   4.919 -0.6290  0.3844 -0.1785
  360SOL     OW 2625   3.284   5.555   0.576 -0.6136  0.1688 -0.2024
  360SOL    HW1 2626   3.318   5.644   0.566  0.5984 -0.2526  0.0406
  360SOL    HW2 2627   3.199   5.567   0.618  0.8944  1.0987  2.8887
  361SOL     OW 2628   5.145   0.814   3.276 -0.2790 -0.9003 -0.1347
  361SOL    HW1 2629   5.154   0.797   3.182  1.8583  0.1932 -0.1842
  361SOL    HW2 2630   5.080   0.884   3.282  0.2321 -0.3450 -0.8919
  362SOL     OW 2631   1.892   4.692   1.839 -0.3227  0.0570 -0.1030
  362SOL    HW1 2632   1.971   4.637   1.842 -1.0314 -1.1726 -2.4052
  362SOL    HW2 2633   1.821   4.633   1.864 -1.0736 -0.1257 -2.4726
  363SOL     OW 2634   4.604   4.929   1.519  0.5346 -0.1720 -0.0182
  363SOL    HW1 2635   4.565   4.958   1.436  2.0566  0.1737 -0.6596
  363SOL    HW2 2636   4.691   4.970   1.519 -1.1037  4.2888  4.1944
  364SOL     OW 2637   0.236   1.682   3.781 -0.3160 -0.4297 -0.4761
  364SOL    HW1 2638   0.163   1.625   3.756 -0.2745 -0.9754  0.5933
  364SOL    HW2 2639   0.309   1.653   3.726 -0.5179 -0.8729 -0.5188
  365SOL     OW 2640   2.547   4.771   5.298  0.2739  0.0140 -0.1286
  365SOL    HW1 2641   2.610   4.792   5.367 -0.7497  0.4226  0.7124
  365SOL    HW2 2642   2.549   4.848   5.240  0.4680  0.0763 -0.0409
  366SOL     OW 2643   5.939   1.598   5.330 -0.3786  0.0786  0.1149
  366SOL    HW1 2644   5.880   1.526   5.352  1.5726 -0.6980  3.5645
  366SOL    HW2 2645   6.026   1.559   5.334  0.6053  2.1110 -0.4643
  367SOL     OW 2646   3.831   5.412   6.653 -0.2423  0.3760  0.2339
  367SOL    HW1 2647   3.850   5.362   6.732 -2.8455  0.7005  1.1525
  367SOL    HW2 2648   3.809   5.500   6.684 -0.5356  0.7337 -0.9061
  368SOL     OW 2649   3.460   4.344   1.561  0.1867 -0.2026 -0.5431
  368SOL    HW1 2650   3.542   4.342   1.512 -0.0732 -0.7159 -0.9649
  368SOL    HW2 2651   3.403   4.282   1.515  0.0954 -1.0445  0.6475
  369SOL     OW 2652   2.343   1.899   1.827 -0.5890 -0.1658 -0.3015
  369SOL    HW1 2653   2.286   1.853   1.888 -0.5428 -2.4439 -1.8474
  369SOL    HW2 2654   2.296   1.898   1.744  0.8033 -0.3055 -1.1348
  370SOL     OW 2655   5.592   5.605   4.466  0.1908  0.7398 -0.6052
  370SOL    HW1 2656   5.581   5.510   4.462  1.4178  0.4841  1.0843
  370SOL    HW2 2657   5.670   5.623   4.415  3.9391 -0.0939  4.1309
  371SOL     OW 2658   0.343   6.012   2.670 -0.5337 -0.2377  0.3233
  371SOL    HW1 2659   0.320   6.105   2.677 -0.6140 -0.1682 -0.6691
  371SOL    HW2 2660   0.436   6.012   2.650 -0.4690 -0.3860  0.6222
  372SOL     OW 2661   0.775   0.882   6.197  0.0504 -0.3628  0.4502
  372SOL    HW1 2662   0.768   0.944   6.124  0.0110 -0.4047  0.4177
  372SOL    HW2 2663   0.719   0.919   6.265  0.7945  0.1433  0.7963
  373SOL     OW 2664   1.906   3.298   3.620  0.1218 -0.1752 -0.1897
  373SOL    HW1 2665   1.910   3.207   3.593  0.5296 -0.6537  1.4248
  373SOL    HW2 2666   1.998   3.324   3.631  0.0978  0.8741 -1.9443
  374SOL     OW 2667   5.516   4.615   5.944 -0.1810  0.4699  0.5183
  374SOL    HW1 2668   5.576   4.678   5.983  0.6637  1.0468 -1.6007
  374SOL    HW2 2669   5.573   4.545   5.912 -0.7210  0.5057 -0.5541
  375SOL     OW 2670   1.946   3.598   2.886  0.0648 -0.2869 -0.3202
  375SOL    HW1 2671   2.033   3.576   2.922  0.2649  0.9053 -0.0380
  375SOL    HW2 2672   1.950   3.693   2.872 -0.2869 -0.5983 -2.7875
  376SOL     OW 2673   0.018   2.744   6.553 -0.5769  0.0080  0.2160
  376SOL    HW1 2674   0.104   2.704   6.544 -0.2892  0.7528 -0.5311
  376SOL    HW2 2675   0.025   2.826   6.503 -2.3839 -0.9787 -1.8075
  377SOL     OW 2676   2.308   0.189   2.542 -0.2152 -0.0889 -0.2679
  377SOL    HW1 2677   2.384   0.131   2.529  0.2739  0.1673  1.2336
  377SOL    HW2 2678   2.233   0.131   2.541  0.2174 -0.6896  0.5726
  378SOL     OW 2679   6.100   0.749   4.300  0.2623  0.5359 -0.1885
  378SOL    HW1 2680   6.094   0.788   4.388 -1.0611 -1.0024  0.4415
  378SOL    HW2 2681   6.054   0.666   4.307  1.2527 -0.2225 -2.0342
  379SOL     OW 2682   1.793   5.005   6.490 -0.3268  0.0472  0.2574
  379SOL    HW1 2683   1.725   4.966   6.435 -0.1620  2.1838 -1.6046
  379SOL    HW2 2684   1.752   5.014   6.576 -0.7317 -3.0121  0.4709
  380SOL     OW 2685   4.033   2.051   6.780 -0.1832 -0.3905  0.1896
  380SOL    HW1 2686   4.075   2.109   6.843 -1.7293  2.5254 -1.2464
  380SOL    HW2 2687   4.079   2.067   6.697 -0.3536 -1.5961 -0.1630
  381SOL     OW 2688   1.659   3.067   4.031  0.3876  0.4598  0.0178
  381SOL    HW1 2689   1.734   3.022   4.071  0.5863 -0.4981 -1.3857
  381SOL    HW2 2690   1.588   3.003   4.034  0.1835  0.6607 -0.4471
  382SOL     OW 2691   6.319   1.535   0.906  0.4309 -0.7683 -0.6020
  382SOL    HW1 2692   6.370   1.579   0.838  0.5942 -0.3883 -0.2299
  382SOL    HW2 2693   6.303   1.447   0.870 -1.3312  0.0911 -2.0792
  383SOL     OW 2694   5.242   0.432   2.235 -1.0725  0.0832 -0.1995
  383SOL    HW1 2695   5.246   0.410   2.142 -1.8010  0.6589 -0.3715
  383SOL    HW2 2696   5.157   0.399   2.264 -0.8344 -0.1262  0.2736
  384SOL     OW 2697   2.648   6.150   5.297 -0.4125  0.3634 -0.1258
  384SOL    HW1 2698   2.671   6.134   5.205 -0.6026  0.3169 -0.1649
  384SOL    HW2 2699   2.556   6.173   5.295 -0.3999  0.4289  0.0471
  385SOL     OW 2700   1.492   4.240   0.227 -0.1938  0.0442  0.5858
  385SOL    HW1 2701   1.581   4.267   0.250 -0.2441 -0.4888  1.4497
  385SOL    HW2 2702   1.436   4.307   0.265 -0.1042  1.5752 -1.7922
  386SOL     OW 2703   2.126   3.058   4.389  0.4344 -0.2597  0.0006
  386SOL    HW1 2704   2.048   3.089   4.435  1.0969  1.0647  0.2826
  386SOL    HW2 2705   2.140   2.969   4.422 -0.8004 -0.4313  0.1169
  387SOL     OW 2706   6.313   2.521   5.829 -0.7139 -0.4452  0.4786
  387SOL    HW1 2707   6.379   2.543   5.762 -1.7149  2.0868  0.2157
  387SOL    HW2 2708   6.349   2.444   5.873  2.6364  0.9979  0.6113
  388SOL     OW 2709   4.899   4.018   2.261 -0.4577 -0.5180 -0.1170
  388SOL    HW1 2710   4.959   4.027   2.186  1.1302  1.0179  1.2350
  388SOL    HW2 2711   4.920   3.932   2.297 -1.0321 -1.1522 -1.2271
  389SOL     OW 2712   1.741   4.728   3.476 -1.0847  0.4772 -0.0554
  389SOL    HW1 2713   1.747   4.646   3.427  3.3434  1.1268 -0.9707
  389SOL    HW2 2714   1.740   4.796   3.408 -0.8257  1.2834  0.7341
  390SOL     OW 2715   3.171   2.609   0.399  0.0721 -0.3642  0.2809
  390SOL    HW1 2716   3.095   2.552   0.411  0.4185 -0.9985 -0.4714
  390SOL    HW2 2717   3.225   2.594   0.476 -0.7369  0.3844  1.0164
  391SOL     OW 2718   2.039   6.003   3.869 -0.0721  0.4990  0.2359
  391SOL    HW1 2719   2.004   5.948   3.939  0.6761  0.7937  0.8439
  391SOL    HW2 2720   2.003   5.964   3.789 -1.9830  0.9469  0.8439
  392SOL     OW 2721   6.607   2.110   0.967 -0.1697  0.7831  0.4493
  392SOL    HW1 2722   6.514   2.090   0.980 -0.2499 -1.0939 -2.2212
  392SOL    HW2 2723   6.653   2.033   1.000  0.1994  0.3741 -0.9527
  393SOL     OW 2724   5.256   3.008   0.607 -0.1491 -0.8668 -0.0650
  393SOL    HW1 2725   5.266   2.915   0.588 -1.2468 -0.6201 -2.1949
  393SOL    HW2 2726   5.166   3.018   0.635 -1.1881 -0.0761 -3.2348
  394SOL     OW 2727   0.999   0.570   0.559 -0.2729 -0.0726  0.0214
  394SOL    HW1 2728   0.987   0.563   0.654 -1.2771  1.4009  0.0463
  394SOL    HW2 2729   0.923   0.527   0.522 -0.1849 -0.1270 -0.0943
  395SOL     OW 2730   2.654   3.894   5.854 -0.1483 -0.1570 -0.4178
  395SOL    HW1 2731   2.568   3.933   5.836  0.1121  0.2835 -0.7159
  395SOL    HW2 2732   2.633   3.806   5.886 -0.7275  0.1025 -0.0671
  396SOL     OW 2733   2.088   6.315   0.695 -1.0466 -0.2288  0.7829
  396SOL    HW1 2734   2.104   6.301   0.602  0.2789  1.0489  0.7718
  396SOL    HW2 2735   2.076   6.228   0.731  2.0391 -1.1306 -0.0005
  397SOL     OW 2736   6.399   0.762   4.523 -0.2181  0.3647  0.0633
  397SOL    HW1 2737   6.372   0.675   4.552 -1.2627  0.5207 -0.4078
  397SOL    HW2 2738   6.359   0.822   4.585 -1.4374  0.6272 -0.9378
  398SOL     OW 2739   4.486   4.724   2.201  0.3478 -0.1775 -0.7468
  398SOL    HW1 2740   4.527   4.802   2.165  0.2008  0.4258  0.3750
  398SOL    HW2 2741   4.553   4.684   2.256 -0.9753  1.8142  2.6204
  399SOL     OW 2742   1.483   4.618   1.363  0.2369  0.3175  0.2257
  399SOL    HW1 2743   1.564   4.640   1.316  0.2062 -0.8568 -0.4123
  399SOL    HW2 2744   1.413   4.643   1.303  0.1434  0.4404  0.3846
  400SOL     OW 2745   4.085   1.012   3.113  0.5077 -0.1214  0.8660
  400SOL    HW1 2746   4.136   0.936   3.141  1.5049  0.0967 -0.2636
  400SOL    HW2 2747   4.030   1.033   3.188  0.1270 -2.0148  1.1601
  401SOL     OW 2748   1.494   1.376   4.030  0.0925 -0.1572  0.1504
  401SOL    HW1 2749   1.523   1.293   3.991 -0.8301 -1.3200  1.8152
  401SOL    HW2 2750   1.408   1.392   3.991  0.2083 -0.0637 -0.0654
  402SOL     OW 2751   5.729   6.110   2.857 -0.3652  0.2095 -0.1248
  402SOL    HW1 2752   5.669   6.172   2.899  1.4181  2.1631 -0.2858
  402SOL    HW2 2753   5.781   6.075   2.929 -0.7590 -0.4210 -0.1423
  403SOL     OW 2754   5.306   3.746   4.046 -0.4282  0.4539 -0.5663
  403SOL    HW1 2755   5.279   3.799   4.121  0.1413  0.0381 -0.0542
  403SOL    HW2 2756   5.256   3.665   4.055 -1.0077  0.7344 -1.1323
  404SOL     OW 2757   2.034   3.888   2.408 -0.0090  0.2293  0.4299
  404SOL    HW1 2758   2.000   3.952   2.346  0.2660  0.2661  0.3189
  404SOL    HW2 2759   2.036   3.934   2.492 -1.7025 -0.2285  0.7696
  405SOL     OW 2760   3.982   6.360   4.064  0.2302 -0.2636  0.1141
  405SOL    HW1 2761   4.003   6.437   4.116 -1.2507  0.4523 -0.3066
  405SOL    HW2 2762   4.053   6.354   4.000  0.2153  0.9303 -0.0348
  406SOL     OW 2763   1.358   5.287   1.561  0.2378 -0.0235 -0.0672
  406SOL    HW1 2764   1.327   5.369   1.598 -3.0873 -1.7983  1.4563
  406SOL    HW2 2765   1.365   5.304   1.467  1.9657  2.5741  0.4217
  407SOL     OW 2766   2.646   2.634   2.191 -0.2434 -0.5173  0.0543
  407SOL    HW1 2767   2.673   2.574   2.122  4.1217  0.3007  0.7129
  407SOL    HW2 2768   2.665   2.587   2.273 -0.0797  0.4555  0.5938
  408SOL     OW 2769   4.608   3.437   2.383 -0.0314 -0.4913  0.2188
  408SOL    HW1 2770   4.536   3.480   2.336 -1.3206 -2.0502  0.6774
  408SOL    HW2 2771   4.686   3.460   2.334 -0.6971  1.9850  0.1963
  409SOL     OW 2772   2.565   2.799   0.672 -0.7054  0.4634 -1.1478
  409SOL    HW1 2773   2.569   2.894   0.668  2.1894  0.5380  1.0060
  409SOL    HW2 2774   2.536   2.779   0.761  1.9313 -0.5780 -0.4349
  410SOL     OW 2775   6.101   6.210   6.055  0.2928 -0.1361 -0.1295
  410SOL    HW1 2776   6.024   6.168   6.093 -0.2657 -1.3474 -2.3806
  410SOL    HW2 2777   6.174   6.154   6.081 -0.1336 -1.2000 -1.1077
  411SOL     OW 2778   6.539   4.950   6.718  0.7722  0.5047 -0.2257
  411SOL    HW1 2779   6.543   4.855   6.707 -1.6651 -0.0244  2.2383
  411SOL    HW2 2780   6.483   4.980   6.646  1.3887  0.0642 -0.9013
  412SOL     OW 2781   5.967   2.099   1.558  0.3067  0.1683 -0.9108
  412SOL    HW1 2782   5.951   2.029   1.495 -1.2608  0.3046 -0.6994
  412SOL    HW2 2783   5.897   2.162   1.542  0.3603  0.5963  0.4181
  413SOL     OW 2784   4.309   5.990   3.542 -0.8350 -0.3049 -0.4827
  413SOL    HW1 2785   4.402   5.988   3.519 -0.7211 -0.8729  0.0119
  413SOL    HW2 2786   4.265   5.951   3.466 -0.2511 -4.5895  1.1209
  414SOL     OW 2787   0.802   0.036   2.306  0.2377 -0.1711 -0.4530
  414SOL    HW1 2788   0.737   0.070   2.245  0.0630 -1.5223 -1.0637
  414SOL    HW2 2789   0.774   0.067   2.392 -0.0967  0.8919 -0.9354
  415SOL     OW 2790   6.222   4.648   5.894 -0.1062  0.4155 -0.0779
  415SOL    HW1 2791   6.176   4.587   5.951  0.4014 -1.5345 -1.6199
  415SOL    HW2 2792   6.306   4.664   5.938  0.2203 -0.9403 -0.1588
  416SOL     OW 2793   1.690   2.131   0.234 -0.2404  0.3212  0.1361
  416SOL    HW1 2794   1.606   2.093   0.208 -0.7264  0.0870  1.8918
  416SOL    HW2 2795   1.702   2.205   0.174 -2.6490  1.5144  0.9614
  417SOL     OW 2796   6.472   1.132   2.664  0.4791 -0.2167  0.1506
  417SOL    HW1 2797   6.472   1.146   2.569 -0.9934 -0.9202  0.0135
  417SOL    HW2 2798   6.425   1.049   2.675  1.6004 -0.7153  1.4389
  418SOL     OW 2799   2.522   4.945   6.773  0.4276  0.6588 -0.2653
  418SOL    HW1 2800   2.472   5.000   6.713 -0.3000  0.0429 -0.2298
  418SOL    HW2 2801   2.471   4.865   6.782  1.0207  0.3366  0.4013
  419SOL     OW 2802   3.235   6.057   2.114  0.2893 -0.3931 -0.0538
  419SOL    HW1 2803   3.205   6.042   2.024 -0.5652  1.4157 -0.1009
  419SOL    HW2 2804   3.290   5.980   2.133  0.7250 -0.6929 -2.1955
  420SOL     OW 2805   4.129   0.720   2.492 -0.2827 -0.4433 -0.1836
  420SOL    HW1 2806   4.090   0.795   2.535 -0.1866 -0.1994 -0.5141
  420SOL    HW2 2807   4.055   0.668   2.462 -0.3997  0.6124 -1.8475
  421SOL     OW 2808   5.913   2.524   2.084 -0.0673 -0.3046  0.3525
  421SOL    HW1 2809   5.875   2.603   2.121 -0.6382  0.1051 -1.0384
  421SOL    HW2 2810   5.980   2.556   2.023 -0.1754 -0.9034 -0.0872
  422SOL     OW 2811   0.910   6.613   2.405  0.0895 -0.5233 -0.4922
  422SOL    HW1 2812   0.867   6.689   2.367  0.3170 -0.4677 -0.6393
  422SOL    HW2 2813   0.995   6.645   2.433 -0.1457 -0.5163  0.2422
  423SOL     OW 2814   5.078   5.502   2.558 -0.2606 -0.2062  0.1360
  423SOL    HW1 2815   5.037   5.475   2.476 -0.5297 -1.7502  0.7378
  423SOL    HW2 2816   5.014   5.478   2.625  0.0096  0.9070  0.8186
  424SOL     OW 2817   4.764   6.692   3.591 -0.7752  0.7579 -0.2063
  424SOL    HW1 2818   4.810   6.625   3.642 -2.2951 -0.9052 -0.9148
  424SOL    HW2 2819   4.766   6.660   3.501  0.1261  2.6579 -0.9036
  425SOL     OW 2820   3.773   4.831   6.159  0.4507 -0.5138 -0.5770
  425SOL    HW1 2821   3.683   4.863   6.151  0.1339 -1.7070 -2.3597
  425SOL    HW2 2822   3.765   4.753   6.214  0.4579 -0.4278 -0.4524
  426SOL     OW 2823   4.328   0.269   6.656 -0.3975  0.4880 -0.1130
  426SOL    HW1 2824   4.294   0.353   6.627 -0.7522  0.0147 -1.1404
  426SOL    HW2 2825   4.417   0.266   6.620 -0.0317  0.8265  0.7499
  427SOL     OW 2826   5.022   5.093   0.123 -0.3338  0.5122 -0.0228
  427SOL    HW1 2827   4.936   5.113   0.161 -0.2019  1.7931 -0.3269
  427SOL    HW2 2828   5.078   5.075   0.198 -1.1544 -1.7032  0.1260
  428SOL     OW 2829   2.205   6.749   2.071 -0.0629  0.1210 -0.0489
  428SOL    HW1 2830   2.132   6.721   2.015 -0.4820  0.5199  0.2867
  428SOL    HW2 2831   2.180   6.837   2.099  1.6115  1.2190 -1.7699
  429SOL     OW 2832   3.337   2.001   0.945 -0.3530  0.4704 -0.2408
  429SOL    HW1 2833   3.253   2.044   0.962 -0.8943 -0.8681  0.6004
  429SOL    HW2 2834   3.326   1.912   0.977  0.5958 -0.4616 -2.2701
  430SOL     OW 2835   6.655   1.934   2.615  0.6060  0.6909  0.3983
  430SOL    HW1 2836   6.621   1.851   2.582  0.8280  0.4628  0.7331
  430SOL    HW2 2837   6.672   1.986   2.537  0.3729  0.4562  0.1904
  431SOL     OW 2838   2.076   1.806   1.581 -0.6186 -0.3388 -0.2621
  431SOL    HW1 2839   2.055   1.887   1.626 -0.6521 -1.2522  1.4547
  431SOL    HW2 2840   1.990   1.769   1.558 -0.6083 -0.0147 -0.8481
  432SOL     OW 2841   1.743   4.256   1.570  0.0990  0.1728 -0.1308
  432SOL    HW1 2842   1.808   4.305   1.519  0.0045  0.6215  0.1774
  432SOL    HW2 2843   1.662   4.307   1.560  0.0844  0.2752  0.4818
  433SOL     OW 2844   2.336   1.006   0.921 -0.7596 -0.1942  0.6656
  433SOL    HW1 2845   2.350   1.074   0.986  1.1771 -1.6699  1.8910
  433SOL    HW2 2846   2.335   0.924   0.971  0.9536 -1.3915 -1.1193
  434SOL     OW 2847   4.914   4.433   1.588 -0.0246  0.3308  0.5264
  434SOL    HW1 2848   4.871   4.500   1.535  0.0650 -0.0365 -0.0259
  434SOL    HW2 2849   4.988   4.478   1.629  0.4868  0.4098 -0.4397
  435SOL     OW 2850   3.777   1.979   4.323  0.4732  0.0577 -0.0068
  435SOL    HW1 2851   3.758   1.959   4.231  1.2940  1.0676 -0.4166
  435SOL    HW2 2852   3.751   1.900   4.371 -3.0280  0.6434 -0.6779
  436SOL     OW 2853   0.948   4.082   5.630 -0.4636 -0.3123 -0.1409
  436SOL    HW1 2854   0.878   4.029   5.667 -0.5549 -1.2587 -1.5792
  436SOL    HW2 2855   0.908   4.126   5.555  0.3207 -0.3680 -0.6009
  437SOL     OW 2856   3.713   0.185   3.464  0.4593  0.7745 -0.0876
  437SOL    HW1 2857   3.762   0.103   3.471 -1.0402 -0.1390  0.0865
  437SOL    HW2 2858   3.647   0.180   3.533 -1.3822  0.8867 -1.7529
  438SOL     OW 2859   1.060   0.989   2.971 -0.2562  0.3448 -0.4686
  438SOL    HW1 2860   1.085   0.945   2.889 -0.4755 -1.8619  0.5864
  438SOL    HW2 2861   0.986   1.044   2.947 -0.3367 -0.2865 -1.7493
  439SOL     OW 2862   1.797   2.446   4.440 -0.2014  0.0022 -0.0726
  439SOL    HW1 2863   1.813   2.393   4.363  0.8056  0.8524 -0.4760
  439SOL    HW2 2864   1.881   2.487   4.459 -1.1009  2.0469 -0.2374
  440SOL     OW 2865   2.966   1.728   3.907  0.3270  0.2415  0.3018
  440SOL    HW1 2866   3.020   1.693   3.836 -1.5230 -1.0095 -0.5405
  440SOL    HW2 2867   2.993   1.680   3.984  0.0426 -0.7907 -0.2286
  441SOL     OW 2868   2.982   3.007   4.284  0.0700  0.0742  0.1199
  441SOL    HW1 2869   2.970   3.100   4.264  1.1595 -0.0956 -1.6013
  441SOL    HW2 2870   2.905   2.964   4.248 -0.3052  0.2805  0.6745
  442SOL     OW 2871   1.296   1.427   3.234  0.1908 -0.2299 -0.3230
  442SOL    HW1 2872   1.233   1.364   3.199 -0.7930  0.5554 -0.0138
  442SOL    HW2 2873   1.380   1.382   3.229 -0.7425 -2.4453  1.9047
  443SOL     OW 2874   6.192   5.249   0.704 -0.3857 -0.0052 -0.2445
  443SOL    HW1 2875   6.215   5.286   0.789  0.7868  1.1149 -1.0168
  443SOL    HW2 2876   6.219   5.158   0.709 -1.6972 -0.3687  1.0740
  444SOL     OW 2877   2.619   2.030   2.986  0.2722  0.1821  0.0266
  444SOL    HW1 2878   2.609   2.124   2.968  0.5045  0.1278 -0.3951
  444SOL    HW2 2879   2.542   1.990   2.946  0.2407  0.1748  0.0936
  445SOL     OW 2880   6.307   1.154   3.072  0.0145  0.4124  0.2518
  445SOL    HW1 2881   6.318   1.229   3.130 -1.0386  0.9355 -0.2063
  445SOL    HW2 2882   6.212   1.147   3.059  0.0862 -1.0597  0.3726
  446SOL     OW 2883   4.645   6.674   1.501  0.2670  0.1565  0.0552
  446SOL    HW1 2884   4.559   6.661   1.463 -0.4217  1.1771  1.2057
  446SOL    HW2 2885   4.698   6.711   1.430 -0.4741  0.3059 -0.4252
  447SOL     OW 2886   3.925   2.743   1.864  0.3531 -0.3006  0.4597
  447SOL    HW1 2887   3.942   2.828   1.904 -3.3926 -0.1773  2.2254
  447SOL    HW2 2888   3.950   2.680   1.931  0.6869 -0.4530  0.1900
  448SOL     OW 2889   1.079   1.405   2.848 -0.6255  0.2478 -0.0107
  448SOL    HW1 2890   1.159   1.455   2.834 -1.2827  1.9839  1.9108
  448SOL    HW2 2891   1.011   1.471   2.861 -1.8374 -1.1323  1.1084
  449SOL     OW 2892   0.351   3.683   2.634  0.4628 -0.2596  0.0316
  449SOL    HW1 2893   0.314   3.600   2.603 -0.4686  1.0034 -2.4318
  449SOL    HW2 2894   0.443   3.679   2.610  0.2636 -0.2852 -0.7341
  450SOL     OW 2895   6.292   5.487   4.461  0.2503  0.6739  0.2072
  450SOL    HW1 2896   6.242   5.492   4.542  0.1093 -1.1669  0.2713
  450SOL    HW2 2897   6.366   5.430   4.481  1.3861  1.8533 -0.4096
  451SOL     OW 2898   4.314   5.371   2.424 -0.4315  0.0577 -0.6255
  451SOL    HW1 2899   4.366   5.402   2.350 -0.6725  2.1849  0.0203
  451SOL    HW2 2900   4.226   5.406   2.407 -0.9899 -1.1405 -0.3089
  452SOL     OW 2901   5.176   5.789   6.638  0.2283  0.2629 -0.6130
  452SOL    HW1 2902   5.095   5.748   6.668  0.6225  0.4949  0.8365
  452SOL    HW2 2903   5.168   5.790   6.542 -0.2763 -2.1444 -0.6432
  453SOL     OW 2904   2.942   6.739   3.197  0.2189 -0.0490 -0.6748
  453SOL    HW1 2905   3.034   6.713   3.196  0.4280  0.6169  0.5420
  453SOL    HW2 2906   2.940   6.819   3.248 -1.3360 -1.1893  1.1537
  454SOL     OW 2907   5.356   3.439   4.308  0.0345  0.1571 -0.4810
  454SOL    HW1 2908   5.401   3.513   4.348 -0.0099  0.4189 -0.8999
  454SOL    HW2 2909   5.265   3.467   4.300  0.2900  0.6657 -2.0086
  455SOL     OW 2910   6.135   1.791   2.597 -0.4358 -0.3993  0.3393
  455SOL    HW1 2911   6.060   1.732   2.606 -0.6805 -0.0831  0.3799
  455SOL    HW2 2912   6.191   1.771   2.672  0.6754 -2.2722 -0.9003
  456SOL     OW 2913   6.625   1.822   0.270  0.2730 -0.0683 -0.6773
  456SOL    HW1 2914   6.619   1.813   0.175  0.7707  0.5503 -0.7772
  456SOL    HW2 2915   6.646   1.914   0.284 -1.0089  0.1239  0.0968
  457SOL     OW 2916   6.563   3.254   0.767  0.1401 -0.4966 -0.2565
  457SOL    HW1 2917   6.606   3.308   0.833  0.1472 -0.7201 -0.0768
  457SOL    HW2 2918   6.478   3.294   0.754 -0.2023 -0.9495  0.5243
  458SOL     OW 2919   4.448   0.114   1.130 -0.0693 -0.4629 -0.4397
  458SOL    HW1 2920   4.468   0.026   1.099 -1.3030 -0.1984 -2.1248
  458SOL    HW2 2921   4.533   0.155   1.143  0.6113 -2.4677  2.3141
  459SOL     OW 2922   1.494   5.217   0.220  0.2717  0.3185  0.0350
  459SOL    HW1 2923   1.537   5.136   0.190 -1.6654 -0.8827  0.3055
  459SOL    HW2 2924   1.504   5.278   0.147 -0.0398 -0.8739 -1.0383
  460SOL     OW 2925   1.349   5.689   2.940  0.4032  0.1625  0.0588
  460SOL    HW1 2926   1.263   5.726   2.917  0.8450  0.8290 -0.5530
  460SOL    HW2 2927   1.412   5.746   2.897  1.3501  1.7498  3.2442
  461SOL     OW 2928   0.188   4.055   0.256  0.1113 -0.7936  0.2102
  461SOL    HW1 2929   0.223   4.131   0.209 -0.3505 -0.9941 -0.4808
  461SOL    HW2 2930   0.113   4.090   0.304 -0.3866 -0.8837 -0.4744
  462SOL     OW 2931   0.202   1.620   0.190  0.1817 -0.5073  0.3211
  462SOL    HW1 2932   0.237   1.660   0.270 -1.1145  0.7197  0.3209
  462SOL    HW2 2933   0.117   1.585   0.217 -0.1635 -0.2826 -0.4490
  463SOL     OW 2934   1.551   2.495   4.619 -0.1678  0.1896 -0.2078
  463SOL    HW1 2935   1.463   2.533   4.613 -0.5383 -0.8024 -1.3750
  463SOL    HW2 2936   1.572   2.469   4.529  1.7280  1.2821 -0.1227
  464SOL     OW 2937   5.297   0.428   4.252 -0.1999  0.4464 -0.1686
  464SOL    HW1 2938   5.304   0.485   4.328 -2.5120 -2.8529  2.8660
  464SOL    HW2 2939   5.219   0.458   4.206 -1.1754  0.0293  1.1757
  465SOL     OW 2940   4.520   3.130   0.861 -0.0634  0.7300 -0.1205
  465SOL    HW1 2941   4.465   3.200   0.829  0.3144  0.3025 -1.7914
  465SOL    HW2 2942   4.477   3.050   0.832  0.2465  0.3110  0.5423
  466SOL     OW 2943   2.600   2.924   6.567  0.2504  0.7979  0.7984
  466SOL    HW1 2944   2.672   2.876   6.608  1.2230  0.5262 -1.0999
  466SOL    HW2 2945   2.559   2.859   6.508 -0.0063  1.6009  0.0664
  467SOL     OW 2946   4.392   0.742   4.075 -0.1701  0.2457  0.7326
  467SOL    HW1 2947   4.370   0.834   4.092  0.7446  0.5526  0.3451
  467SOL    HW2 2948   4.484   0.744   4.049  0.0926 -0.8821  1.5007
  468SOL     OW 2949   1.800   0.349   6.202  0.2782 -0.6338  0.3449
  468SOL    HW1 2950   1.802   0.396   6.119 -2.5887  0.6356  0.8566
  468SOL    HW2 2951   1.843   0.407   6.265 -0.8269  0.1095  0.4349
  469SOL     OW 2952   4.939   2.666   5.280 -0.4408 -0.6181 -0.0298
  469SOL    HW1 2953   4.964   2.747   5.236  0.1206 -0.4150  0.6608
  469SOL    HW2 2954   4.995   2.661   5.357  0.5896 -2.4073 -0.8118
  470SOL     OW 2955   6.090   6.575   0.834 -0.2321 -0.2477 -0.3870
  470SOL    HW1 2956   5.997   6.556   0.816 -0.2747 -0.6062  0.1926
  470SOL    HW2 2957   6.111   6.521   0.909  0.6306 -0.6445 -0.9010
  471SOL     OW 2958   4.026   0.184   4.171 -0.0860 -0.3091 -0.2791
  471SOL    HW1 2959   3.959   0.117   4.183  0.3017 -0.4672  1.0971
  471SOL    HW2 2960   4.098   0.157   4.228 -0.1493  1.5625  0.7730
  472SOL     OW 2961   3.801   6.722   4.557 -0.5501  0.2724  0.4607
  472SOL    HW1 2962   3.836   6.809   4.577 -1.9356  0.7503  0.8699
  472SOL    HW2 2963   3.850   6.664   4.616  0.6729  0.6898 -0.1018
  473SOL     OW 2964   0.521   0.746   0.919 -0.3196  0.7775  0.0445
  473SOL    HW1 2965   0.449   0.713   0.865  0.2838  0.1601 -0.3932
  473SOL    HW2 2966   0.513   0.698   1.002  0.0629  0.1401 -0.2903
  474SOL     OW 2967   4.812   0.372   5.019 -0.5296 -0.3672  0.0593
  474SOL    HW1 2968   4.809   0.407   4.930  1.4980 -2.9139 -1.1659
  474SOL    HW2 2969   4.725   0.389   5.055 -2.8998 -2.5503 -3.8544
  475SOL     OW 2970   5.334   6.702   3.612 -0.3790 -0.0956  0.2571
  475SOL    HW1 2971   5.254   6.723   3.660 -0.3182  0.3844  0.1540
  475SOL    HW2 2972   5.303   6.661   3.531 -0.5764  1.1673 -0.3266
  476SOL     OW 2973   0.351   2.185   2.566  0.1052  0.0446 -0.4289
  476SOL    HW1 2974   0.262   2.152   2.578  0.3965 -1.0427 -1.0567
  476SOL    HW2 2975   0.348   2.276   2.595 -1.5124  0.4055 -1.6347
  477SOL     OW 2976   3.985   3.590   1.267 -0.1478 -0.0680  0.3781
  477SOL    HW1 2977   3.896   3.588   1.302  0.1362  0.3836  1.1483
  477SOL    HW2 2978   4.027   3.512   1.303 -0.5328 -0.8644 -0.8439
  478SOL     OW 2979   1.385   1.836   6.471 -0.3108 -0.1379  0.1653
  478SOL    HW1 2980   1.402   1.747   6.441 -1.3795  0.2905 -1.8666
  478SOL    HW2 2981   1.291   1.848   6.458 -0.1042  1.4519 -0.0330
  479SOL     OW 2982   4.132   3.938   1.931 -0.0523  0.1422  0.1389
  479SOL    HW1 2983   4.051   3.923   1.979 -0.2680  0.5925 -0.0769
  479SOL    HW2 2984   4.155   3.852   1.895 -0.5641  0.0593 -0.0024
  480SOL     OW 2985   3.887   2.681   3.981 -0.5627  0.0576  0.3776
  480SOL    HW1 2986   3.979   2.699   3.961 -0.0179 -2.5569  0.2113
  480SOL    HW2 2987   3.877   2.707   4.073 -0.1750  1.9224 -0.0480
  481SOL     OW 2988   6.131   0.398   4.540 -0.3010  0.4795 -0.4824
  481SOL    HW1 2989   6.064   0.342   4.580 -0.6770  1.8424  0.8852
  481SOL    HW2 2990   6.203   0.398   4.604  0.0103  0.9333 -0.8311
  482SOL     OW 2991   4.807   0.315   4.410 -0.1195 -0.3760 -0.4052
  482SOL    HW1 2992   4.835   0.378   4.476 -1.2427  0.9742 -1.1327
  482SOL    HW2 2993   4.887   0.290   4.364  0.3774  0.4586 -0.0145
  483SOL     OW 2994   6.236   1.023   1.214  0.1604  0.1233 -0.1371
  483SOL    HW1 2995   6.251   1.053   1.304 -1.0923 -1.9737  0.8406
  483SOL    HW2 2996   6.273   0.935   1.211 -0.6283 -0.1915 -1.4327
  484SOL     OW 2997   2.659   3.302   3.612  0.4563  0.2297 -0.5534
  484SOL    HW1 2998   2.642   3.380   3.560  0.3651  0.7140  0.1998
  484SOL    HW2 2999   2.600   3.236   3.575  0.0309  0.7062 -0.7375
  485SOL     OW 3000   4.476   3.827   0.285 -0.2432 -0.2869 -0.3823
  485SOL    HW1 3001   4.472   3.876   0.367 -0.0694  0.3089 -0.7238
  485SOL    HW2 3002   4.391   3.843   0.243 -0.9406 -1.8313  0.3647
  486SOL     OW 3003   2.359   5.147   2.996  0.0953  0.6781  0.2205
  486SOL    HW1 3004   2.263   5.149   2.999  0.0760 -0.5545  1.9732
  486SOL    HW2 3005   2.385   5.223   3.048  0.0276 -0.0320  1.3222
  487SOL     OW 3006   5.186   3.216   3.080  0.1152 -0.6957  1.0351
  487SOL    HW1 3007   5.107   3.263   3.055 -0.4960 -1.1331  2.0653
  487SOL    HW2 3008   5.252   3.284   3.092 -0.1949 -0.2956  0.5141
  488SOL     OW 3009   0.208   1.903   5.705  0.6011  0.4738  0.3046
  488SOL    HW1 3010   0.144   1.915   5.635  2.0280  1.1219 -0.9439
  488SOL    HW2 3011   0.166   1.840   5.765 -0.3973 -0.6312 -1.4606
  489SOL     OW 3012   6.598   3.739   4.290  0.3013 -0.4521 -0.1730
  489SOL    HW1 3013   6.545   3.808   4.251  0.3396 -0.5176 -0.3439
  489SOL    HW2 3014   6.534   3.677   4.326  0.2613  0.4811  1.4537
  490SOL     OW 3015   2.502   2.868   4.477 -0.7069 -0.5061 -0.2936
  490SOL    HW1 3016   2.556   2.814   4.535  0.8014  0.4375 -0.7498
  490SOL    HW2 3017   2.527   2.840   4.389  0.3886  1.1446 -0.5487
  491SOL     OW 3018   3.638   2.040   2.811  0.5453 -0.1994 -0.1820
  491SOL    HW1 3019   3.633   1.991   2.893  2.5642 -1.9029 -0.9780
  491SOL    HW2 3020   3.685   1.982   2.751  0.1959  1.4651 -2.2037
  492SOL     OW 3021   1.419   0.773   1.977  0.3128  0.5667 -0.2068
  492SOL    HW1 3022   1.474   0.720   2.034 -0.8636 -1.2580 -0.6748
  492SOL    HW2 3023   1.334   0.728   1.977 -0.7428  2.4589 -0.6518
  493SOL     OW 3024   4.523   1.146   1.121 -0.2247  0.5633  0.4628
  493SOL    HW1 3025   4.441   1.150   1.170  0.1258 -1.2966  1.3078
  493SOL    HW2 3026   4.589   1.123   1.186  1.1643  2.7820 -0.0556
  494SOL     OW 3027   0.117   4.894   4.893  0.1812 -0.9004 -1.1115
  494SOL    HW1 3028   0.146   4.968   4.947 -1.7132 -0.1869 -1.0112
  494SOL    HW2 3029   0.144   4.817   4.943  0.0565 -0.2547 -0.0152
  495SOL     OW 3030   6.602   4.840   5.113 -0.5478 -0.2427 -0.3697
  495SOL    HW1 3031   6.611   4.890   5.032 -2.2992 -0.1827 -0.5602
  495SOL    HW2 3032   6.671   4.773   5.108 -0.0999  0.2806 -1.5042
  496SOL     OW 3033   1.193   6.479   3.190 -0.6284 -0.1772 -0.7865
  496SOL    HW1 3034   1.133   6.545   3.225 -2.9483 -1.6267 -1.7252
  496SOL    HW2 3035   1.262   6.529   3.148 -0.8125  1.5977  0.8734
  497SOL     OW 3036   5.459   1.186   3.501 -0.8620  0.0347 -0.1995
  497SOL    HW1 3037   5.454   1.233   3.417  1.0656 -0.9492 -0.9338
  497SOL    HW2 3038   5.475   1.255   3.566 -0.2753  0.6189 -0.9394
  498SOL     OW 3039   5.956   6.715   3.510 -0.2516 -0.1144  0.2823
  498SOL    HW1 3040   5.862   6.701   3.503 -0.1345 -0.1835 -2.1119
  498SOL    HW2 3041   5.995   6.645   3.456  1.0118  1.3227 -0.7539
  499SOL     OW 3042   4.640   5.181   3.058  0.5600  0.0888  0.4038
  499SOL    HW1 3043   4.712   5.172   2.996  1.2168 -0.1333  1.1784
  499SOL    HW2 3044   4.680   5.221   3.136  0.1599 -1.2783  1.3594
  500SOL     OW 3045   2.945   2.050   0.441  0.1994  0.2516  0.1336
  500SOL    HW1 3046   3.019   2.085   0.393  0.4638 -1.1390 -0.5097
  500SOL    HW2 3047   2.974   1.965   0.473 -0.7216  0.1938  0.8750
  501SOL     OW 3048   1.423   2.996   6.347  0.1055 -0.4399 -0.2244
  501SOL    HW1 3049   1.489   2.988   6.416 -0.4502  0.9550  0.5183
  501SOL    HW2 3050   1.419   2.910   6.306  1.0281 -1.0667  0.9683
  502SOL     OW 3051   4.774   3.911   6.529 -0.3397 -0.4101 -0.5363
  502SOL    HW1 3052   4.830   3.982   6.559 -0.9732 -0.2363  0.2883
  502SOL    HW2 3053   4.778   3.915   6.433  1.1326 -0.4844 -0.4875
  503SOL     OW 3054   2.885   0.976   0.578  0.1512 -0.0580  0.1246
  503SOL    HW1 3055   2.886   1.044   0.510  0.1694  0.1074  0.2878
  503SOL    HW2 3056   2.912   0.896   0.533 -0.3389 -0.0582 -0.1778
  504SOL     OW 3057   3.625   3.895   6.126 -0.1116 -0.0604 -0.2642
  504SOL    HW1 3058   3.646   3.960   6.193  2.0440 -0.0808 -0.8229
  504SOL    HW2 3059   3.585   3.945   6.055  0.6694  0.5229 -0.3054
  505SOL     OW 3060   3.460   2.541   1.740 -0.0040  0.2252 -0.1867
  505SOL    HW1 3061   3.455   2.520   1.647 -1.9718 -2.9978  0.4988
  505SOL    HW2 3062   3.427   2.631   1.746 -1.1679  0.0161 -2.4909
  506SOL     OW 3063   0.306   1.800   0.390 -0.0579 -0.4798  0.2283
  506SOL    HW1 3064   0.251   1.873   0.418 -0.6485 -1.5493  1.9786
  506SOL    HW2 3065   0.341   1.763   0.471 -0.7408 -2.8897 -0.4995
  507SOL     OW 3066   6.650   0.180   1.426 -0.3412  0.2569 -0.1899
  507SOL    HW1 3067   6.619   0.191   1.336  0.0212 -0.7474 -0.4633
  507SOL    HW2 3068   6.586   0.225   1.480 -0.1846  1.4898 -1.0004
  508SOL     OW 3069   0.380   5.884   6.487  0.1719 -0.6408  0.1412
  508SOL    HW1 3070   0.469   5.851   6.501  0.0295 -0.6413  1.1483
  508SOL    HW2 3071   0.325   5.826   6.539 -0.0033  1.5598  2.6455
  509SOL     OW 3072   1.330   4.814   6.418 -0.3984 -0.1337 -0.5973
  509SOL    HW1 3073   1.268   4.747   6.389 -0.4407  0.6600 -2.4781
  509SOL    HW2 3074   1.288   4.853   6.495 -1.9933 -0.0018 -1.4784
  510SOL     OW 3075   5.223   5.896   0.923  0.0800  0.1265 -0.0962
  510SOL    HW1 3076   5.197   5.968   0.980 -2.6925 -0.8517  0.0298
  510SOL    HW2 3077   5.200   5.926   0.835  1.7317  0.5329 -0.4131
  511SOL     OW 3078   5.177   3.993   5.970 -0.0072 -0.2312 -0.8239
  511SOL    HW1 3079   5.217   3.978   6.056  1.5062 -0.4402 -1.5344
  511SOL    HW2 3080   5.211   4.078   5.942 -1.1997  0.2619 -0.8647
  512SOL     OW 3081   6.085   2.496   1.683  0.2489 -0.2543 -0.2403
  512SOL    HW1 3082   6.160   2.481   1.740 -1.0268 -0.3600  1.4989
  512SOL    HW2 3083   6.093   2.430   1.614  1.6555 -0.3511 -0.0004
  513SOL     OW 3084   1.168   5.219   0.220 -0.3919 -0.1325 -0.0315
  513SOL    HW1 3085   1.133   5.131   0.217 -0.6273 -0.1421  1.6510
  513SOL    HW2 3086   1.092   5.276   0.211 -0.5785 -0.1469  1.1773
  514SOL     OW 3087   3.983   4.047   0.504 -0.9926 -0.5306  0.1832
  514SOL    HW1 3088   4.013   4.136   0.484 -1.0781 -0.7878 -1.2320
  514SOL    HW2 3089   3.935   4.056   0.586  1.4625  0.1866  1.6492
  515SOL     OW 3090   3.874   5.851   0.762 -0.3909 -0.1831 -0.0291
  515SOL    HW1 3091   3.833   5.929   0.724 -0.5091  0.0653  0.6085
  515SOL    HW2 3092   3.963   5.879   0.784 -0.2328 -0.4066 -0.3583
  516SOL     OW 3093   2.330   1.387   1.004  0.1040 -0.1383  0.7745
  516SOL    HW1 3094   2.402   1.449   1.012 -0.7740  0.7915  1.8651
  516SOL    HW2 3095   2.352   1.316   1.063  0.7699 -0.5298  0.0680
  517SOL     OW 3096   1.271   5.955   5.296 -0.1742  0.3671 -0.4781
  517SOL    HW1 3097   1.241   5.961   5.205 -1.3003  0.1588 -0.1372
  517SOL    HW2 3098   1.291   6.046   5.320  0.9137  0.3285 -1.1716
  518SOL     OW 3099   0.867   1.834   2.364  0.0701  0.1963 -0.2467
  518SOL    HW1 3100   0.782   1.861   2.329  0.4756  1.8838 -0.0096
  518SOL    HW2 3101   0.907   1.915   2.396  0.6922 -0.9483  2.0402
  519SOL     OW 3102   5.008   1.246   6.192  0.3248 -0.2284  0.1787
  519SOL    HW1 3103   5.068   1.253   6.266  2.9730  0.3060 -1.8754
  519SOL    HW2 3104   4.951   1.322   6.200  0.9782  0.1650  1.3080
  520SOL     OW 3105   6.493   5.302   4.530  0.8911  0.2036  0.0008
  520SOL    HW1 3106   6.503   5.207   4.525  1.6833  0.2993 -0.3491
  520SOL    HW2 3107   6.502   5.322   4.623  0.4318 -0.0930  0.1115
  521SOL     OW 3108   3.791   4.935   3.155  0.1285 -0.0859 -0.1059
  521SOL    HW1 3109   3.841   4.861   3.122  0.5087  0.0456  0.1595
  521SOL    HW2 3110   3.705   4.899   3.176  0.9065 -0.9381  1.9449
  522SOL     OW 3111   6.006   6.088   0.319  0.3315 -0.2690 -0.3576
  522SOL    HW1 3112   5.937   6.059   0.259  0.1812  0.6980 -0.6768
  522SOL    HW2 3113   6.003   6.026   0.391 -0.7540 -0.3598 -0.4559
  523SOL     OW 3114   4.757   3.502   5.934  0.5146  0.1488 -1.1148
  523SOL    HW1 3115   4.723   3.591   5.945  0.1820 -0.0056 -0.8966
  523SOL    HW2 3116   4.732   3.477   5.845  0.1745  0.0889 -1.0052
  524SOL     OW 3117   6.038   0.438   4.824  0.0234 -0.1306 -0.2387
  524SOL    HW1 3118   6.050   0.361   4.769 -1.3381 -0.1486 -0.5610
  524SOL    HW2 3119   5.973   0.411   4.889  0.7121  0.2642  0.6284
  525SOL     OW 3120   5.160   3.289   4.941 -0.0813  0.6191  0.3021
  525SOL    HW1 3121   5.239   3.282   4.995  0.3781 -0.3229 -0.4655
  525SOL    HW2 3122   5.093   3.322   5.001  0.5858  0.2558  1.2755
  526SOL     OW 3123   2.588   5.132   2.817  0.3113  0.6666 -0.0684
  526SOL    HW1 3124   2.528   5.122   2.892 -0.5117  0.5700 -0.7298
  526SOL    HW2 3125   2.666   5.171   2.855  0.0767  0.2122  0.9348
  527SOL     OW 3126   0.247   6.076   4.424 -0.3225 -0.0268  0.4354
  527SOL    HW1 3127   0.317   6.011   4.427 -1.0923 -0.9781 -1.0664
  527SOL    HW2 3128   0.170   6.031   4.459 -1.1579 -0.3640 -1.7207
  528SOL     OW 3129   6.735   3.866   2.801 -0.1126 -0.2032  0.2370
  528SOL    HW1 3130   6.659   3.809   2.818  0.0502 -0.0145  1.7126
  528SOL    HW2 3131   6.808   3.805   2.787 -0.1974 -0.3727  0.5190
  529SOL     OW 3132   4.918   2.064   1.302 -0.7409 -0.1165  0.1356
  529SOL    HW1 3133   4.855   2.016   1.357 -0.7469 -0.3257 -0.0548
  529SOL    HW2 3134   4.925   2.150   1.344 -2.6078  0.5921 -0.8816
  530SOL     OW 3135   0.731   6.174   3.433  0.7973 -0.2687 -0.0272
  530SOL    HW1 3136   0.764   6.118   3.362 -1.0331  1.5393 -2.4773
  530SOL    HW2 3137   0.811   6.207   3.475  2.1140  0.5278 -2.8930
  531SOL     OW 3138   1.188   2.015   4.943  0.4363  0.0660  0.1074
  531SOL    HW1 3139   1.206   1.986   4.854  0.0401 -0.8798  0.3222
  531SOL    HW2 3140   1.259   2.076   4.963  0.7359  0.0048 -0.7193
  532SOL     OW 3141   4.498   0.385   2.783  0.5923 -0.1847  1.0762
  532SOL    HW1 3142   4.504   0.294   2.757 -0.8739  0.0007 -0.0166
  532SOL    HW2 3143   4.406   0.399   2.806  0.1887  1.5796 -1.1843
  533SOL     OW 3144   0.208   5.509   1.046  0.6647 -0.5152  0.1998
  533SOL    HW1 3145   0.177   5.522   1.136  1.7082 -1.5471  0.7362
  533SOL    HW2 3146   0.144   5.555   0.992  0.6260  1.0912  1.5296
  534SOL     OW 3147   5.839   0.765   2.724 -0.4873 -0.1533 -0.4916
  534SOL    HW1 3148   5.798   0.719   2.797 -0.8405 -0.1312 -0.6765
  534SOL    HW2 3149   5.832   0.704   2.651  0.9231 -0.6750 -0.2383
  535SOL     OW 3150   6.725   3.865   5.145  0.6824 -0.3966  0.3684
  535SOL    HW1 3151   6.690   3.900   5.063  2.2902 -2.4321 -1.3171
  535SOL    HW2 3152   6.648   3.856   5.202 -0.8604 -0.8129 -1.6586
  536SOL     OW 3153   4.955   6.483   2.834 -0.0605 -0.0334 -0.0848
  536SOL    HW1 3154   5.049   6.501   2.833  0.4056 -1.7986  2.4231
  536SOL    HW2 3155   4.948   6.389   2.817 -1.4386  0.1472 -0.6664
  537SOL     OW 3156   5.662   2.110   1.227 -0.0114 -0.2623  0.2563
  537SOL    HW1 3157   5.751   2.084   1.204  0.0667 -0.0569  0.3268
  537SOL    HW2 3158   5.617   2.028   1.248  0.3030 -0.3185  0.7191
  538SOL     OW 3159   2.013   3.156   2.431  0.0684 -0.4449  0.2039
  538SOL    HW1 3160   2.094   3.108   2.445  1.6556  1.6122 -1.3315
  538SOL    HW2 3161   2.008   3.218   2.504 -0.5571 -1.0559  0.6999
  539SOL     OW 3162   1.284   6.251   5.135 -0.3027  0.0265  0.6850
  539SOL    HW1 3163   1.336   6.186   5.087 -1.0602 -0.0459 -0.0605
  539SOL    HW2 3164   1.196   6.242   5.099  0.0612  3.3423 -1.4856
  540SOL     OW 3165   1.069   5.140   3.434  0.8778  0.2048 -0.6571
  540SOL    HW1 3166   1.162   5.163   3.442  0.9645  0.1441 -1.4169
  540SOL    HW2 3167   1.069   5.064   3.375  0.2776  0.7705 -1.4025
  541SOL     OW 3168   6.158   1.125   6.563 -0.7028 -0.0545  0.3151
  541SOL    HW1 3169   6.243   1.114   6.605 -1.2506 -0.0073  1.4650
  541SOL    HW2 3170   6.096   1.080   6.621 -1.5565  0.4855 -0.1520
  542SOL     OW 3171   2.208   4.827   3.634 -0.3035 -0.6699 -0.5215
  542SOL    HW1 3172   2.287   4.847   3.583 -0.4053 -0.1154 -0.4708
  542SOL    HW2 3173   2.185   4.910   3.675 -0.4482 -1.0211  0.1221
  543SOL     OW 3174   6.259   6.603   5.705  0.2820  0.5673 -0.1993
  543SOL    HW1 3175   6.258   6.517   5.745  0.0914 -0.2579 -1.9066
  543SOL    HW2 3176   6.350   6.617   5.679  0.0855  0.3087 -1.0627
  544SOL     OW 3177   4.635   3.798   3.468  0.3158 -0.0832  0.7794
  544SOL    HW1 3178   4.623   3.712   3.426  1.6898  1.7543 -4.0463
  544SOL    HW2 3179   4.546   3.831   3.481 -0.2122 -1.0098 -0.3009
  545SOL     OW 3180   6.462   3.227   2.620 -0.5190  0.5862  0.6427
  545SOL    HW1 3181   6.369   3.225   2.639 -1.3937  3.4473 -2.4611
  545SOL    HW2 3182   6.483   3.319   2.608  2.8548  0.0958  1.5149
  546SOL     OW 3183   5.474   2.082   6.310 -0.0608 -0.0294 -0.0411
  546SOL    HW1 3184   5.524   2.053   6.234  0.8928  1.0224  0.1374
  546SOL    HW2 3185   5.541   2.112   6.372 -0.8628  0.1358  0.7681
  547SOL     OW 3186   1.286   0.248   5.908 -0.6109 -0.1143 -0.6555
  547SOL    HW1 3187   1.299   0.273   6.000  0.2161  1.2089 -1.1029
  547SOL    HW2 3188   1.292   0.152   5.909  0.3507 -0.0823  0.5454
  548SOL     OW 3189   1.600   0.623   2.088 -0.1101 -0.0381 -0.1024
  548SOL    HW1 3190   1.641   0.635   2.002 -0.2774 -1.4058 -0.4032
  548SOL    HW2 3191   1.664   0.571   2.137 -0.5410 -0.3118  0.1702
  549SOL     OW 3192   5.655   6.366   0.093  0.1229 -0.1388 -0.0634
  549SOL    HW1 3193   5.742   6.331   0.110  0.2383  0.6506  1.0739
  549SOL    HW2 3194   5.647   6.442   0.152 -3.0907 -2.9351  3.6910
  550SOL     OW 3195   3.278   2.589   0.636  0.1795  0.8238 -0.7770
  550SOL    HW1 3196   3.321   2.506   0.655 -0.9893  0.1409 -0.9985
  550SOL    HW2 3197   3.213   2.599   0.706 -1.6320  0.1098 -2.2596
  551SOL     OW 3198   1.620   6.593   5.699 -0.6234  0.2892 -0.3747
  551SOL    HW1 3199   1.671   6.672   5.682 -0.0547  0.1490  0.6099
  551SOL    HW2 3200   1.530   6.624   5.707 -0.8510  0.4595 -2.7511
  552SOL     OW 3201   3.532   6.333   5.523 -0.2410  0.3339 -0.3867
  552SOL    HW1 3202   3.583   6.414   5.518 -0.0234  0.1433 -1.4830
  552SOL    HW2 3203   3.454   6.358   5.573  0.6813  0.7382  0.9267
  553SOL     OW 3204   4.507   2.214   1.792 -0.1418  0.5669 -0.1129
  553SOL    HW1 3205   4.459   2.148   1.741 -1.9985  2.1869 -0.5841
  553SOL    HW2 3206   4.515   2.175   1.879 -0.5300 -0.5731 -0.5576
  554SOL     OW 3207   5.593   3.361   3.035  0.0823  0.4389  0.3353
  554SOL    HW1 3208   5.665   3.332   3.091  0.1315 -1.3933 -0.6127
  554SOL    HW2 3209   5.634   3.377   2.950 -0.2101  1.9494  0.4506
  555SOL     OW 3210   3.370   1.442   0.948 -0.1465 -0.1075  0.1584
  555SOL    HW1 3211   3.434   1.425   0.879  0.2193  0.9189  0.2353
  555SOL    HW2 3212   3.311   1.508   0.910  0.0667  0.4785  0.8296
  556SOL     OW 3213   5.877   2.882   3.007  0.1645  0.0793  0.1839
  556SOL    HW1 3214   5.944   2.926   2.955 -0.0453 -0.3536 -0.4782
  556SOL    HW2 3215   5.916   2.870   3.093  0.5112  0.8430  0.1353
  557SOL     OW 3216   3.920   0.433   6.745  0.1382  0.2087  0.7244
  557SOL    HW1 3217   3.888   0.502   6.803 -1.1633  0.6040 -0.3930
  557SOL    HW2 3218   3.943   0.361   6.804  0.3008  1.1246  1.8215
  558SOL     OW 3219   2.699   3.053   3.753  0.0511  0.5307 -0.3034
  558SOL    HW1 3220   2.684   3.144   3.727  1.6062  0.2412 -2.6011
  558SOL    HW2 3221   2.774   3.057   3.813 -0.7528  0.8476  0.7035
  559SOL     OW 3222   6.121   2.101   2.297  0.7682 -0.3889 -0.3778
  559SOL    HW1 3223   6.056   2.155   2.253 -0.4008 -0.2796  1.3935
  559SOL    HW2 3224   6.070   2.038   2.348  1.9695  0.2072  1.7190
  560SOL     OW 3225   5.500   0.199   4.239 -0.4470  0.1340 -0.1603
  560SOL    HW1 3226   5.523   0.213   4.147  1.0453  0.6440  0.2614
  560SOL    HW2 3227   5.439   0.270   4.259 -0.7595  0.0370 -0.7493
  561SOL     OW 3228   6.715   2.442   3.363 -0.2954  0.4808  0.0090
  561SOL    HW1 3229   6.688   2.452   3.271 -2.0474  2.6727  0.6777
  561SOL    HW2 3230   6.807   2.471   3.364 -0.2278  0.3590 -1.0520
  562SOL     OW 3231   3.237   0.982   3.672 -0.0399 -0.2481 -0.6920
  562SOL    HW1 3232   3.258   0.908   3.616 -1.2870 -1.7452  0.7346
  562SOL    HW2 3233   3.250   0.949   3.761  0.0987  1.4901 -0.0290
  563SOL     OW 3234   6.059   4.024   0.026 -0.1310  0.3231  0.0686
  563SOL    HW1 3235   6.013   3.979  -0.045  2.0229 -2.2850  0.1341
  563SOL    HW2 3236   6.055   3.963   0.100  1.5015  0.9444  0.7375
  564SOL     OW 3237   5.916   3.964   5.516  0.7735 -0.0579  0.2582
  564SOL    HW1 3238   6.010   3.974   5.532  0.4850  1.9663  0.9387
  564SOL    HW2 3239   5.895   4.033   5.453  0.0472 -1.6723 -1.3587
  565SOL     OW 3240   4.491   4.055   5.416  0.9215 -0.7227 -0.3468
  565SOL    HW1 3241   4.577   4.050   5.375  0.8957 -0.7158 -0.4013
  565SOL    HW2 3242   4.431   4.018   5.351  0.5195  1.4844 -1.3302
  566SOL     OW 3243   1.065   4.830   3.408  0.5568  0.0788 -0.6661
  566SOL    HW1 3244   1.032   4.880   3.482  1.4072  1.5538 -1.2349
  566SOL    HW2 3245   1.024   4.744   3.416 -0.5537  0.7004  0.6386
  567SOL     OW 3246   6.087   2.898   2.776 -0.2307  0.4055 -0.3896
  567SOL    HW1 3247   6.040   2.820   2.746  0.5896  0.4042 -1.7608
  567SOL    HW2 3248   6.062   2.966   2.714 -1.0766  1.3152  0.8996
  568SOL     OW 3249   6.213   5.402   3.388 -0.2005 -0.0543 -0.2697
  568SOL    HW1 3250   6.184   5.490   3.413 -0.5179  0.1496 -1.3049
  568SOL    HW2 3251   6.148   5.343   3.428  0.0404  0.1658  0.4658
  569SOL     OW 3252   2.004   0.348   0.705 -0.1897 -0.6196 -0.4862
  569SOL    HW1 3253   1.936   0.368   0.641 -0.4075  0.3823  0.0404
  569SOL    HW2 3254   1.999   0.419   0.768  0.7621 -1.0108  0.0473
  570SOL     OW 3255   6.616   0.427   1.731  0.3638  0.1697 -0.0708
  570SOL    HW1 3256   6.568   0.383   1.660  0.4370  0.8785 -0.5670
  570SOL    HW2 3257   6.688   0.472   1.687  1.3132 -0.6313  0.6403
  571SOL     OW 3258   4.634   5.285   6.065  1.0995 -0.3670 -0.0381
  571SOL    HW1 3259   4.716   5.244   6.091  0.6076 -1.9698 -0.8707
  571SOL    HW2 3260   4.620   5.256   5.975  0.9427  2.0671 -0.8640
  572SOL     OW 3261   4.747   1.891   2.123  0.0798 -0.5087  0.1651
  572SOL    HW1 3262   4.835   1.928   2.116  0.6308 -1.6408  0.8315
  572SOL    HW2 3263   4.758   1.813   2.178 -1.0945 -1.4645 -0.8994
  573SOL     OW 3264   2.693   0.513   0.290  0.5218  0.1579  0.0448
  573SOL    HW1 3265   2.673   0.606   0.300  2.7169  0.7510 -0.5197
  573SOL    HW2 3266   2.693   0.498   0.195  0.3447 -0.3662  0.1233
  574SOL     OW 3267   3.074   6.648   2.883 -0.0038 -0.2400  0.2029
  574SOL    HW1 3268   3.050   6.572   2.936 -2.3826 -0.1571 -0.6171
  574SOL    HW2 3269   3.145   6.690   2.931 -1.1835 -0.8981  2.6555
  575SOL     OW 3270   4.698   1.441   6.622  0.0774 -0.1047  0.4667
  575SOL    HW1 3271   4.692   1.346   6.634  0.0273 -0.1990 -0.2488
  575SOL    HW2 3272   4.747   1.452   6.541  1.6204  0.5249  1.4476
  576SOL     OW 3273   2.666   4.091   6.781 -0.2512  0.0722 -0.0649
  576SOL    HW1 3274   2.644   4.035   6.707  1.2989 -0.1925 -0.3638
  576SOL    HW2 3275   2.656   4.035   6.858  1.8402 -0.8405 -0.4037
  577SOL     OW 3276   2.060   5.548   5.016  0.1822  0.2966  0.7793
  577SOL    HW1 3277   2.051   5.642   5.034 -0.4127  0.3698  0.1425
  577SOL    HW2 3278   2.136   5.521   5.067 -0.4227  0.8445  2.0043
  578SOL     OW 3279   4.275   1.687   2.961  0.0726  0.0319  0.1926
  578SOL    HW1 3280   4.323   1.606   2.943  1.8087  0.8527  0.8897
  578SOL    HW2 3281   4.303   1.712   3.049 -0.8206  1.1405  0.1769
  579SOL     OW 3282   3.897   4.275   6.329 -0.0037 -0.8074  0.2190
  579SOL    HW1 3283   3.955   4.350   6.320 -0.5338 -0.3709  0.3514
  579SOL    HW2 3284   3.905   4.249   6.421  0.9376 -1.5510 -0.0604
  580SOL     OW 3285   3.426   5.580   0.817  0.2715  0.3340  0.0961
  580SOL    HW1 3286   3.504   5.632   0.797  0.8449 -1.2849 -2.3022
  580SOL    HW2 3287   3.356   5.622   0.767  0.1395  0.3656  0.3064
  581SOL     OW 3288   1.168   0.140   1.226  0.0813 -0.4073  0.6334
  581SOL    HW1 3289   1.240   0.115   1.283 -1.0976 -2.5847  1.2919
  581SOL    HW2 3290   1.209   0.159   1.141  1.6462  1.0089  1.6524
  582SOL     OW 3291   3.528   1.679   5.431 -0.3841  0.2682 -0.4664
  582SOL    HW1 3292   3.505   1.708   5.519 -0.6774 -0.2681 -0.3634
  582SOL    HW2 3293   3.506   1.754   5.375 -0.6505  0.4385 -0.1404
  583SOL     OW 3294   4.811   0.805   1.039 -0.2520  0.4226 -0.1585
  583SOL    HW1 3295   4.755   0.762   1.104 -1.5350 -0.0360 -1.5122
  583SOL    HW2 3296   4.862   0.734   1.001 -1.3331  0.2517 -1.3804
  584SOL     OW 3297   6.451   2.436   3.080  0.7091  0.0486 -0.1915
  584SOL    HW1 3298   6.505   2.500   3.034 -1.1793  0.7327 -1.5895
  584SOL    HW2 3299   6.423   2.376   3.011 -2.5775  1.3548 -0.1488
  585SOL     OW 3300   1.581   4.597   3.076  0.1963 -0.2235  0.2572
  585SOL    HW1 3301   1.645   4.655   3.033 -0.1531  1.1078  1.4666
  585SOL    HW2 3302   1.544   4.650   3.146 -1.6613 -1.2402  0.1070
  586SOL     OW 3303   5.786   4.986   0.760 -0.1798 -0.4836  0.3525
  586SOL    HW1 3304   5.734   5.056   0.721 -1.8404 -2.0161 -0.3535
  586SOL    HW2 3305   5.854   4.968   0.695  0.7457  0.9386  0.8809
  587SOL     OW 3306   2.862   5.838   4.333  0.0290  0.5641 -0.4941
  587SOL    HW1 3307   2.925   5.897   4.373 -0.0948  0.3974 -0.0459
  587SOL    HW2 3308   2.873   5.756   4.381  1.5267 -0.3891 -2.3307
  588SOL     OW 3309   0.428   5.383   6.412  0.2044 -0.2966 -0.3965
  588SOL    HW1 3310   0.347   5.334   6.425 -0.1545  0.5945  0.9871
  588SOL    HW2 3311   0.403   5.458   6.358 -0.2118  0.6628  1.0661
  589SOL     OW 3312   5.889   4.981   1.825  0.2315  0.1789  0.3058
  589SOL    HW1 3313   5.871   5.013   1.913 -0.0265  1.2964 -0.1366
  589SOL    HW2 3314   5.968   5.027   1.799 -1.2482  2.1008 -1.1085
  590SOL     OW 3315   3.539   1.013   0.332 -0.0072 -0.2775  0.0381
  590SOL    HW1 3316   3.484   1.063   0.272 -0.0804  1.2350  1.3203
  590SOL    HW2 3317   3.508   0.923   0.323 -2.5898  0.4734  0.5681
  591SOL     OW 3318   4.975   0.233   1.959 -0.4091 -0.1486 -0.0354
  591SOL    HW1 3319   5.048   0.206   2.015 -1.0200 -0.9612  0.3738
  591SOL    HW2 3320   5.004   0.317   1.922 -0.3845  0.9403  2.2639
  592SOL     OW 3321   0.601   1.590   4.128 -0.2909 -0.1646  0.6009
  592SOL    HW1 3322   0.578   1.682   4.120 -0.4569 -0.0928  1.7389
  592SOL    HW2 3323   0.609   1.559   4.038 -0.6128  0.8625  0.2090
  593SOL     OW 3324   5.842   5.882   2.513 -0.0821  0.3488  0.0746
  593SOL    HW1 3325   5.832   5.880   2.418 -0.3770  1.9048  0.0419
  593SOL    HW2 3326   5.763   5.839   2.546  0.7239 -1.5771 -0.3607
  594SOL     OW 3327   1.026   4.152   1.242 -0.4319 -0.8170 -0.2289
  594SOL    HW1 3328   0.967   4.151   1.318  0.2503 -1.3245  0.3162
  594SOL    HW2 3329   1.024   4.063   1.209 -1.4136 -0.3998 -1.3896
  595SOL     OW 3330   3.844   5.335   1.572 -0.8151  0.1858  0.4486
  595SOL    HW1 3331   3.926   5.291   1.594 -0.5371  0.5851  0.2217
  595SOL    HW2 3332   3.866   5.392   1.498 -1.2017  0.5828  0.6331
  596SOL     OW 3333   1.666   4.351   2.258  0.4389  0.4296 -0.6766
  596SOL    HW1 3334   1.690   4.269   2.300 -1.2955  0.3099  0.1488
  596SOL    HW2 3335   1.721   4.417   2.301  3.4979 -0.4382 -2.8492
  597SOL     OW 3336   6.287   6.193   0.455  0.4323 -0.0204 -0.3510
  597SOL    HW1 3337   6.301   6.103   0.483 -0.2206 -0.0125  0.0095
  597SOL    HW2 3338   6.263   6.240   0.535 -2.1893 -0.1530 -0.9676
  598SOL     OW 3339   0.143   5.795   3.069 -0.4014  0.5340  0.1839
  598SOL    HW1 3340   0.112   5.882   3.094  1.7901  1.1620  0.9035
  598SOL    HW2 3341   0.073   5.736   3.096 -1.8887  2.0295 -0.2048
  599SOL     OW 3342   0.856   3.796   6.654  0.4591  0.0177  0.2381
  599SOL    HW1 3343   0.838   3.708   6.621  0.3146  0.4289 -0.8173
  599SOL    HW2 3344   0.926   3.783   6.719  0.6025 -0.8405 -0.0695
  600SOL     OW 3345   0.913   1.479   6.430  0.2943 -0.2253 -0.2097
  600SOL    HW1 3346   0.870   1.484   6.345  1.2240  0.4401 -0.6574
  600SOL    HW2 3347   0.871   1.405   6.474  0.7023 -1.4389 -1.7742
  601SOL     OW 3348   4.515   1.050   3.694 -0.3123 -0.7623  0.5885
  601SOL    HW1 3349   4.463   1.107   3.750 -0.0317  0.0761  0.0281
  601SOL    HW2 3350   4.606   1.069   3.719 -0.0497  1.2387 -1.5567
  602SOL     OW 3351   4.436   5.946   6.146  0.5761  0.2600 -0.5481
  602SOL    HW1 3352   4.426   5.852   6.134  1.1228 -0.0885  1.3837
  602SOL    HW2 3353   4.531   5.960   6.141  0.6231  0.4517  0.6506
  603SOL     OW 3354   0.031   2.745   4.557  0.1351 -0.0572  0.0176
  603SOL    HW1 3355   0.018   2.821   4.500  0.4983 -0.5610 -0.7568
  603SOL    HW2 3356   0.126   2.731   4.558  0.0157 -1.0576 -0.6227
  604SOL     OW 3357   2.159   5.519   3.967 -0.0725  0.0091  0.0410
  604SOL    HW1 3358   2.233   5.461   3.950 -0.0561 -0.1450  0.6058
  604SOL    HW2 3359   2.093   5.495   3.902 -0.6952 -1.7489  1.2490
  605SOL     OW 3360   6.405   0.471   5.842 -0.6941  0.5371  0.4102
  605SOL    HW1 3361   6.372   0.501   5.927 -2.3611  1.3337 -0.4578
  605SOL    HW2 3362   6.375   0.380   5.836 -1.1777  0.6969  0.3857
  606SOL     OW 3363   0.587   5.198   1.116 -0.4990  0.9149  0.3157
  606SOL    HW1 3364   0.546   5.283   1.102  1.0577  1.5343 -0.7379
  606SOL    HW2 3365   0.646   5.187   1.041 -1.0320 -1.3332  0.1485
  607SOL     OW 3366   5.558   2.140   0.743 -0.4689 -0.0863  0.4066
  607SOL    HW1 3367   5.589   2.151   0.653 -0.9065  0.0305  0.2656
  607SOL    HW2 3368   5.589   2.053   0.769  0.7719  0.4004  0.6043
  608SOL     OW 3369   1.263   6.071   6.726  0.5866 -0.5397  0.2365
  608SOL    HW1 3370   1.183   6.103   6.766 -0.2124 -0.1911 -1.5246
  608SOL    HW2 3371   1.254   5.976   6.726 -0.0585 -0.4918 -0.3229
  609SOL     OW 3372   5.210   4.147   2.295 -0.1039  0.3634  0.3184
  609SOL    HW1 3373   5.198   4.126   2.202  0.3846 -0.7922  0.5119
  609SOL    HW2 3374   5.148   4.090   2.341 -0.2890  0.8759  0.7212
  610SOL     OW 3375   0.030   1.780   2.332 -0.0185 -0.1253  0.0469
  610SOL    HW1 3376   0.070   1.748   2.413  0.6156 -1.0683 -0.6219
  610SOL    HW2 3377  -0.059   1.803   2.357 -0.1756 -1.4550  0.7832
  611SOL     OW 3378   4.926   4.276   5.176  0.3738 -0.2628 -0.7928
  611SOL    HW1 3379   4.965   4.199   5.135  0.9293 -0.5151  0.1766
  611SOL    HW2 3380   4.974   4.286   5.259 -1.3278 -0.3236  0.2393
  612SOL     OW 3381   0.092   2.472   0.958  0.0111 -0.0573  0.3696
  612SOL    HW1 3382   0.095   2.414   1.033  0.5662 -0.2399  0.2097
  612SOL    HW2 3383   0.131   2.554   0.989 -0.3070  0.0629  0.4510
  613SOL     OW 3384   2.119   2.681   2.412  0.2669 -0.6026 -0.6544
  613SOL    HW1 3385   2.125   2.652   2.503  0.3950  1.8759  0.1980
  613SOL    HW2 3386   2.043   2.740   2.410  0.3423 -0.5115 -2.1257
  614SOL     OW 3387   0.266   4.713   5.013  0.3301 -0.2288 -0.2301
  614SOL    HW1 3388   0.273   4.747   5.102  0.7527  0.2613 -0.4460
  614SOL    HW2 3389   0.356   4.709   4.981  0.1254  0.4752 -0.9522
  615SOL     OW 3390   2.216   2.890   4.168 -0.7632 -0.6021 -1.0081
  615SOL    HW1 3391   2.290   2.829   4.176 -0.4583 -0.1203 -0.0468
  615SOL    HW2 3392   2.163   2.853   4.097  0.0432 -1.3218 -1.2633
  616SOL     OW 3393   5.710   6.399   5.920  0.0480  0.1898  0.0649
  616SOL    HW1 3394   5.770   6.434   5.855 -0.3681 -0.3390 -0.6182
  616SOL    HW2 3395   5.661   6.475   5.951  0.5842  0.5169  0.1256
  617SOL     OW 3396   2.459   5.693   2.085  0.5614  0.4380 -0.1926
  617SOL    HW1 3397   2.389   5.739   2.131  0.1256  0.1347 -0.5456
  617SOL    HW2 3398   2.537   5.710   2.138 -0.1086 -0.7619  1.2557
  618SOL     OW 3399   5.896   3.544   1.776  0.4313  0.1457  0.0519
  618SOL    HW1 3400   5.865   3.634   1.769 -0.8678 -0.2576  0.2327
  618SOL    HW2 3401   5.989   3.548   1.754 -0.0691  1.2109 -2.1173
  619SOL     OW 3402   0.135   1.121   5.322  0.6573 -0.5096 -0.1233
  619SOL    HW1 3403   0.162   1.030   5.331  1.5205 -0.4351 -1.6318
  619SOL    HW2 3404   0.146   1.159   5.409  1.3661 -1.5578  0.2564
  620SOL     OW 3405   6.651   1.373   6.557 -0.1434  0.4882 -0.0435
  620SOL    HW1 3406   6.556   1.359   6.565 -0.2037 -0.5461 -1.9902
  620SOL    HW2 3407   6.690   1.307   6.614 -0.5753  1.3424  1.2789
  621SOL     OW 3408   6.660   5.173   0.380 -0.4618 -0.2928  0.4916
  621SOL    HW1 3409   6.638   5.081   0.367 -2.3977 -0.0746  1.8449
  621SOL    HW2 3410   6.589   5.221   0.339  0.8685  0.6531 -0.7896
  622SOL     OW 3411   3.243   1.768   2.101  0.0088  0.1787  0.0969
  622SOL    HW1 3412   3.256   1.862   2.086  0.1076  0.0765 -0.4956
  622SOL    HW2 3413   3.223   1.761   2.194 -1.8955  0.9795 -0.2157
  623SOL     OW 3414   5.187   0.627   1.403 -0.2160  0.0095  0.9105
  623SOL    HW1 3415   5.256   0.614   1.338 -0.9509  1.0209 -0.1099
  623SOL    HW2 3416   5.227   0.684   1.469  0.2996 -0.4187  0.9781
  624SOL     OW 3417   5.928   1.598   1.345  0.2340 -0.2788 -0.0360
  624SOL    HW1 3418   5.835   1.587   1.328 -0.4206  0.7370  2.5065
  624SOL    HW2 3419   5.971   1.538   1.284 -2.1556 -2.1185 -0.0344
  625SOL     OW 3420   1.546   0.104   5.018  0.5412  0.7797 -0.6797
  625SOL    HW1 3421   1.480   0.051   5.063  2.2539 -1.5915 -0.7797
  625SOL    HW2 3422   1.562   0.058   4.936  1.2705  2.1257 -1.3187
  626SOL     OW 3423   3.399   6.669   1.740 -0.1592 -0.1274 -0.1968
  626SOL    HW1 3424   3.328   6.614   1.773  0.6346 -0.7065  0.5767
  626SOL    HW2 3425   3.479   6.628   1.772  0.4768  1.2447  0.0589
  627SOL     OW 3426   0.223   1.244   6.740  0.2186  0.4181  0.4623
  627SOL    HW1 3427   0.293   1.188   6.704  0.7326  0.1242  1.8739
  627SOL    HW2 3428   0.260   1.279   6.821 -1.1246  0.6277  0.9956
  628SOL     OW 3429   4.835   5.820   1.858 -0.2237  0.4558  0.2483
  628SOL    HW1 3430   4.880   5.739   1.879 -1.5118 -0.4015 -0.2133
  628SOL    HW2 3431   4.901   5.874   1.815  0.5044 -0.5426  0.1005
  629SOL     OW 3432   5.893   4.300   0.779  0.4238  0.1656 -0.0817
  629SOL    HW1 3433   5.853   4.387   0.766  0.1626 -0.0693 -0.8927
  629SOL    HW2 3434   5.964   4.316   0.842  1.0262  1.1554 -0.9717
  630SOL     OW 3435   2.330   4.287   4.185  0.0280  0.0385 -0.2973
  630SOL    HW1 3436   2.274   4.212   4.206  1.7367 -1.1813  0.1312
  630SOL    HW2 3437   2.328   4.292   4.090 -0.6562 -0.0852 -0.2976
  631SOL     OW 3438   1.199   1.840   2.219  0.0839 -0.0380  0.3256
  631SOL    HW1 3439   1.257   1.907   2.182 -0.1209 -0.3962 -0.6816
  631SOL    HW2 3440   1.117   1.886   2.235  0.7923  0.6307  2.3634
  632SOL     OW 3441   5.633   0.504   2.633 -0.3716  0.1850 -0.7171
  632SOL    HW1 3442   5.586   0.463   2.560 -0.2388 -1.4225  0.0440
  632SOL    HW2 3443   5.710   0.543   2.592 -0.8959  0.3320 -1.5936
  633SOL     OW 3444   3.872   6.572   0.014  0.1164 -0.2566 -0.2597
  633SOL    HW1 3445   3.925   6.647  -0.012  0.8147 -0.5715  0.1987
  633SOL    HW2 3446   3.879   6.570   0.110  1.0042 -1.5157 -0.3183
  634SOL     OW 3447   0.958   4.587   4.241 -0.2368  0.3190  0.2287
  634SOL    HW1 3448   0.921   4.511   4.286 -0.2211  0.3527  0.2970
  634SOL    HW2 3449   0.940   4.570   4.148 -0.4688  0.3597  0.2645
  635SOL     OW 3450   3.547   5.375   6.638  0.5575  0.3554  0.3391
  635SOL    HW1 3451   3.640   5.377   6.618  0.7626  2.6644  1.1631
  635SOL    HW2 3452   3.543   5.357   6.732  0.4317  3.0519  0.9550
  636SOL     OW 3453   3.804   0.244   2.115 -0.5400 -0.3920 -0.1547
  636SOL    HW1 3454   3.768   0.275   2.198  0.7957  0.1025  0.2546
  636SOL    HW2 3455   3.844   0.322   2.075  0.3998 -0.9888 -0.4159
  637SOL     OW 3456   5.628   4.125   3.273 -0.2295 -0.2048  0.2437
  637SOL    HW1 3457   5.633   4.194   3.206  1.3338 -1.0476 -0.5704
  637SOL    HW2 3458   5.564   4.063   3.238 -0.4891  0.0679  0.2291
  638SOL     OW 3459   0.928   4.944   5.022  0.3277 -0.3170  0.1413
  638SOL    HW1 3460   0.919   4.854   5.051  0.3036  0.0118  1.2170
  638SOL    HW2 3461   1.001   4.978   5.074  3.6376 -1.0362 -3.6151
  639SOL     OW 3462   2.073   0.863   3.725 -0.0178  0.1906 -0.4863
  639SOL    HW1 3463   2.098   0.923   3.654 -1.8136  1.3037 -0.2388
  639SOL    HW2 3464   2.132   0.885   3.797  0.3836  0.5653 -0.9233
  640SOL     OW 3465   5.410   3.094   4.300 -0.5095 -0.0361  0.4015
  640SOL    HW1 3466   5.380   3.135   4.381  0.3156 -0.4004  0.9102
  640SOL    HW2 3467   5.505   3.090   4.309 -0.3695  0.3831 -0.8226
  641SOL     OW 3468   6.354   5.302   1.984 -0.1598  0.6946 -0.3108
  641SOL    HW1 3469   6.358   5.397   1.976 -0.7426  0.7402 -0.0523
  641SOL    HW2 3470   6.410   5.282   2.059 -1.8410  1.0376  1.0713
  642SOL     OW 3471   6.262   1.727   2.819 -0.6883  0.5671  0.6277
  642SOL    HW1 3472   6.357   1.720   2.809 -0.6295  0.3535  1.2789
  642SOL    HW2 3473   6.241   1.666   2.890 -1.3182  0.5800  0.4589
  643SOL     OW 3474   5.267   3.679   4.861 -0.2370  0.2839  0.4567
  643SOL    HW1 3475   5.232   3.629   4.787 -0.9001  0.4117  0.6780
  643SOL    HW2 3476   5.360   3.686   4.843  0.0353 -1.7678  0.8589
  644SOL     OW 3477   3.834   0.092   0.604 -0.1630  0.2747  0.3438
  644SOL    HW1 3478   3.879   0.146   0.669  0.0312  2.6042 -1.5673
  644SOL    HW2 3479   3.742   0.118   0.612 -0.2965 -0.2115  0.3897
  645SOL     OW 3480   0.211   6.238   0.296  0.4376 -0.0785  0.5241
  645SOL    HW1 3481   0.175   6.159   0.255  0.2793  0.2662 -0.0078
  645SOL    HW2 3482   0.238   6.293   0.223  1.3462 -0.0022  0.9045
  646SOL     OW 3483   0.439   2.039   2.786  0.4724 -0.1914  0.0659
  646SOL    HW1 3484   0.492   2.000   2.717  1.4855  2.2410 -0.6375
  646SOL    HW2 3485   0.398   2.115   2.745  0.2192  0.6742  1.8341
  647SOL     OW 3486   4.016   4.578   0.603  0.4379  0.5289 -0.2297
  647SOL    HW1 3487   4.066   4.508   0.645 -1.1068  0.3736  1.4763
  647SOL    HW2 3488   3.940   4.591   0.661 -0.4460  2.1064 -1.6672
  648SOL     OW 3489   5.874   1.171   1.578 -0.1634 -0.0538 -0.2594
  648SOL    HW1 3490   5.854   1.110   1.507 -0.5649  0.7653 -0.8588
  648SOL    HW2 3491   5.957   1.211   1.552 -0.4620  0.4661 -0.4137
  649SOL     OW 3492   4.981   6.170   0.219  0.7473  0.0944  0.2910
  649SOL    HW1 3493   5.077   6.166   0.221  0.8008  0.8841 -0.3273
  649SOL    HW2 3494   4.960   6.231   0.149 -0.2206 -0.1398  0.3544
  650SOL     OW 3495   1.308   0.370   6.534 -0.1175 -0.1792  0.1070
  650SOL    HW1 3496   1.350   0.320   6.464 -1.2841  2.1125 -2.3705
  650SOL    HW2 3497   1.377   0.380   6.600  2.0210  0.1006 -2.0323
  651SOL     OW 3498   2.563   3.137   6.308 -0.0856 -0.2211 -0.0120
  651SOL    HW1 3499   2.486   3.149   6.252  0.9653  1.9035 -1.1356
  651SOL    HW2 3500   2.595   3.049   6.288 -1.2272 -0.4710 -0.8025
  652SOL     OW 3501   4.543   3.476   3.741  0.4449 -0.3751 -0.0293
  652SOL    HW1 3502   4.520   3.510   3.827 -0.3118 -0.9328  0.0003
  652SOL    HW2 3503   4.584   3.550   3.696 -0.8131  0.4890  0.1628
  653SOL     OW 3504   3.431   6.751   1.153 -0.0707  0.6741  0.2462
  653SOL    HW1 3505   3.484   6.806   1.095  2.1683 -1.3266  0.2375
  653SOL    HW2 3506   3.477   6.754   1.237 -1.5264  1.0182  1.0713
  654SOL     OW 3507   3.748   6.369   3.617 -0.5565  0.0914 -0.3280
  654SOL    HW1 3508   3.820   6.328   3.664 -1.0262  0.0496  0.3805
  654SOL    HW2 3509   3.775   6.369   3.525  0.7820  1.0112  0.0503
  655SOL     OW 3510   3.221   1.028   0.381 -0.0761 -0.4185 -0.5584
  655SOL    HW1 3511   3.276   0.978   0.320  0.1468  0.6145 -1.2296
  655SOL    HW2 3512   3.281   1.057   0.450  0.2861  0.7897 -1.3398
  656SOL     OW 3513   4.400   1.557   4.190  0.3631  0.3898 -0.3626
  656SOL    HW1 3514   4.426   1.634   4.240 -0.7280 -0.5106  1.7011
  656SOL    HW2 3515   4.347   1.591   4.118  1.5498  1.6822 -0.6684
  657SOL     OW 3516   0.948   5.595   1.729  0.3157 -0.3494 -0.0012
  657SOL    HW1 3517   0.903   5.613   1.812  0.0128 -0.5198 -0.1276
  657SOL    HW2 3518   0.916   5.509   1.703  0.2792 -0.2203 -0.3827
  658SOL     OW 3519   0.559   1.955   0.768  0.2131  0.1288  0.6684
  658SOL    HW1 3520   0.554   1.918   0.679 -0.5806 -0.2765  0.8732
  658SOL    HW2 3521   0.622   2.027   0.760 -1.6161  1.6728 -0.7955
  659SOL     OW 3522   1.199   5.744   4.559  0.6619 -0.2655 -0.3548
  659SOL    HW1 3523   1.190   5.819   4.617  1.6454  0.5863 -1.2505
  659SOL    HW2 3524   1.139   5.678   4.594 -2.2650  1.8382 -1.0645
  660SOL     OW 3525   3.526   6.095   5.431  0.8405 -0.0102 -0.1104
  660SOL    HW1 3526   3.531   6.179   5.478  1.2498 -0.4575  0.6791
  660SOL    HW2 3527   3.451   6.050   5.471  0.7586 -0.1093 -0.3777
  661SOL     OW 3528   2.563   2.888   2.732  0.3006 -0.1288  0.0644
  661SOL    HW1 3529   2.542   2.820   2.797 -0.1707  0.3320  0.4033
  661SOL    HW2 3530   2.600   2.959   2.784  0.3952  0.0425 -0.2377
  662SOL     OW 3531   1.278   2.694   4.296 -0.4163  0.1436 -0.2957
  662SOL    HW1 3532   1.325   2.777   4.298  0.0189 -0.0999 -0.3555
  662SOL    HW2 3533   1.323   2.642   4.229 -2.2910  0.8045 -2.1934
  663SOL     OW 3534   2.645   2.431   3.378  0.0400  0.2723  0.0284
  663SOL    HW1 3535   2.649   2.335   3.376 -0.8669  0.2293 -0.3748
  663SOL    HW2 3536   2.730   2.458   3.412  0.7515 -0.6402 -0.9481
  664SOL     OW 3537   5.156   6.560   2.041 -0.5571 -0.0592 -0.3222
  664SOL    HW1 3538   5.060   6.565   2.039 -0.5172  1.5503  0.1158
  664SOL    HW2 3539   5.183   6.593   1.955 -0.3901  1.2293  0.1943
  665SOL     OW 3540   3.395   2.716   5.373  0.2247  0.0956  0.3571
  665SOL    HW1 3541   3.471   2.689   5.321 -0.6202 -1.2181 -0.2575
  665SOL    HW2 3542   3.408   2.673   5.458 -0.4990 -1.3020 -0.2107
  666SOL     OW 3543   3.555   1.638   3.334  0.3716  0.7660  0.7756
  666SOL    HW1 3544   3.554   1.544   3.315  2.3328  1.1146 -1.5988
  666SOL    HW2 3545   3.488   1.675   3.276  1.9807  1.1397 -0.9402
  667SOL     OW 3546   0.526   1.132   3.055  0.2103 -0.0930 -0.2411
  667SOL    HW1 3547   0.602   1.078   3.079  0.2170  0.5652  1.3502
  667SOL    HW2 3548   0.458   1.069   3.033  0.3889 -0.7585  1.0400
  668SOL     OW 3549   0.037   0.002   6.717 -0.1623  1.1934 -0.2478
  668SOL    HW1 3550  -0.002   0.042   6.795  1.2789  0.8272  0.6977
  668SOL    HW2 3551  -0.004  -0.084   6.710 -0.8669  1.5314 -0.3641
  669SOL     OW 3552   1.999   6.515   1.348 -0.4018  0.2470 -0.3177
  669SOL    HW1 3553   2.023   6.444   1.289 -1.4916  0.8807 -1.5693
  669SOL    HW2 3554   2.046   6.591   1.315 -0.2310  0.4013  0.2607
  670SOL     OW 3555   3.996   5.647   1.784  0.0862 -0.1371  0.5466
  670SOL    HW1 3556   4.056   5.693   1.726 -0.8547 -0.6585 -0.9034
  670SOL    HW2 3557   4.033   5.559   1.791 -0.8264 -0.6785 -0.9345
  671SOL     OW 3558   0.355   3.004   5.237  0.0362 -0.0752 -0.0289
  671SOL    HW1 3559   0.372   3.080   5.294  0.7663  0.0542 -0.4036
  671SOL    HW2 3560   0.386   3.032   5.151 -0.9692 -0.3041 -0.4844
  672SOL     OW 3561   5.536   3.563   4.642  0.2777  0.4129  0.1999
  672SOL    HW1 3562   5.528   3.616   4.721  0.5921  0.4329  0.2232
  672SOL    HW2 3563   5.510   3.621   4.571 -0.1371  0.3528  0.3013
  673SOL     OW 3564   3.170   2.689   5.226  0.1211  0.2111  0.0161
  673SOL    HW1 3565   3.159   2.770   5.176 -0.0195  1.1344  1.4968
  673SOL    HW2 3566   3.264   2.685   5.245  0.2784 -0.4667 -0.8001
  674SOL     OW 3567   1.727   1.176   2.146  0.0304  0.0023 -0.7249
  674SOL    HW1 3568   1.751   1.184   2.238  1.3463  0.2100 -1.0653
  674SOL    HW2 3569   1.647   1.123   2.147 -0.1014  0.1888  0.5442
  675SOL     OW 3570   1.280   0.541   2.462 -0.4987  0.2055  0.3993
  675SOL    HW1 3571   1.247   0.497   2.540 -0.3007 -0.6100  0.0271
  675SOL    HW2 3572   1.220   0.615   2.449 -1.3044 -0.4060  0.5726
  676SOL     OW 3573   6.058   5.015   5.968  0.4055 -0.7171 -0.0600
  676SOL    HW1 3574   6.016   5.087   6.014 -0.8309 -0.7294 -1.1204
  676SOL    HW2 3575   6.138   4.997   6.018  1.5211  2.3208 -0.5679
  677SOL     OW 3576   2.735   4.295   1.088  0.3270 -0.1242 -0.0530
  677SOL    HW1 3577   2.744   4.293   1.183  0.3132 -0.2123 -0.0533
  677SOL    HW2 3578   2.701   4.382   1.069  0.2023 -0.1530  0.0348
  678SOL     OW 3579   4.203   3.697   1.183 -0.0821  0.3620  0.0926
  678SOL    HW1 3580   4.237   3.664   1.099  0.2721 -0.8378  0.6854
  678SOL    HW2 3581   4.117   3.656   1.192 -0.3966  1.0023  0.0165
  679SOL     OW 3582   5.308   2.562   6.024  0.1975 -0.6287 -0.2820
  679SOL    HW1 3583   5.348   2.491   5.973  1.9540  0.6388 -0.7470
  679SOL    HW2 3584   5.301   2.527   6.112  1.6259 -1.1757 -0.3673
  680SOL     OW 3585   3.614   2.180   4.565 -0.0447  0.1064  0.0600
  680SOL    HW1 3586   3.599   2.101   4.617 -1.0099  0.5879  0.5308
  680SOL    HW2 3587   3.707   2.198   4.577 -0.0997 -0.1849  1.0745
  681SOL     OW 3588   2.268   5.553   3.138 -0.1455  0.4420  0.2000
  681SOL    HW1 3589   2.192   5.496   3.138 -0.1107  0.3859  0.8345
  681SOL    HW2 3590   2.232   5.641   3.148 -0.1078  0.3703  1.0474
  682SOL     OW 3591   1.490   4.904   3.026 -0.0365 -0.5275  0.5341
  682SOL    HW1 3592   1.436   4.983   3.024  0.8146  0.0657  0.5442
  682SOL    HW2 3593   1.570   4.927   2.979  0.7991 -0.9425  1.7014
  683SOL     OW 3594   3.455   2.454   3.333 -0.0691  0.1614 -0.1705
  683SOL    HW1 3595   3.500   2.415   3.257 -2.1655  0.5082 -1.6811
  683SOL    HW2 3596   3.525   2.496   3.383  1.7429 -2.1838 -0.5459
  684SOL     OW 3597   1.742   5.628   1.708  0.7450  0.6203  0.3222
  684SOL    HW1 3598   1.691   5.604   1.630  1.9573 -0.6994 -0.1111
  684SOL    HW2 3599   1.682   5.681   1.760 -0.0611  1.7225 -1.5907
  685SOL     OW 3600   3.199   5.262   2.186 -0.2261 -0.0950  0.1218
  685SOL    HW1 3601   3.239   5.226   2.265 -0.3162 -1.3524 -0.3818
  685SOL    HW2 3602   3.190   5.356   2.204  1.3126 -0.0673  0.9301
  686SOL     OW 3603   6.803   1.518   2.199  0.0730 -0.1108 -0.0429
  686SOL    HW1 3604   6.896   1.497   2.194  0.1279 -0.7138  2.2500
  686SOL    HW2 3605   6.800   1.602   2.246 -0.5355 -0.3242  0.3223
  687SOL     OW 3606   0.782   1.058   2.543 -0.0599  0.0627 -0.0884
  687SOL    HW1 3607   0.720   1.123   2.577 -0.3982  0.9996 -2.3052
  687SOL    HW2 3608   0.857   1.109   2.514  1.0992 -0.9091  1.0833
  688SOL     OW 3609   5.722   3.506   5.327  0.5069 -0.4866 -0.2317
  688SOL    HW1 3610   5.706   3.585   5.275 -0.5301 -0.2278  0.4578
  688SOL    HW2 3611   5.811   3.516   5.360  0.8784 -0.2572 -1.2451
  689SOL     OW 3612   4.238   1.302   2.049  0.3517 -0.8633 -0.1415
  689SOL    HW1 3613   4.254   1.394   2.027  0.5297 -1.1137 -1.1409
  689SOL    HW2 3614   4.320   1.272   2.087  0.0147 -0.3945  0.9824
  690SOL     OW 3615   6.338   5.966   2.148 -0.4185 -0.2456 -0.4210
  690SOL    HW1 3616   6.275   5.922   2.205 -0.5116  0.8779  0.3623
  690SOL    HW2 3617   6.330   5.920   2.064 -0.9201 -1.3346  0.2056
  691SOL     OW 3618   3.831   2.695   3.653 -0.4947 -0.2082 -0.3095
  691SOL    HW1 3619   3.762   2.716   3.716 -0.5963 -0.8925 -0.1921
  691SOL    HW2 3620   3.898   2.650   3.703 -1.1397 -1.9004 -0.9002
  692SOL     OW 3621   1.808   4.864   1.013  0.4548  0.0154  0.2658
  692SOL    HW1 3622   1.823   4.896   0.924 -0.3027 -3.2665 -1.2328
  692SOL    HW2 3623   1.713   4.849   1.017  0.5297 -0.2056  1.4871
  693SOL     OW 3624   4.221   2.750   4.335 -0.1379  0.1567  0.1914
  693SOL    HW1 3625   4.185   2.680   4.390  1.4703 -0.9041 -0.0359
  693SOL    HW2 3626   4.312   2.724   4.319 -0.4807  0.4944 -2.8551
  694SOL     OW 3627   6.661   6.189   1.359 -0.2204 -0.4161 -0.2449
  694SOL    HW1 3628   6.739   6.237   1.329  0.6790 -1.9281 -0.3990
  694SOL    HW2 3629   6.655   6.210   1.452  1.5092 -1.7450  0.2138
  695SOL     OW 3630   0.793   1.654   0.100 -0.3289  0.1950  0.8880
  695SOL    HW1 3631   0.845   1.733   0.088 -0.6143  0.1102 -1.1367
  695SOL    HW2 3632   0.800   1.635   0.194 -0.0733  2.4712  1.3853
  696SOL     OW 3633   1.812   2.064   2.063  0.2446  0.4718 -0.7187
  696SOL    HW1 3634   1.887   2.061   2.004 -0.6426  0.1631 -1.8654
  696SOL    HW2 3635   1.821   1.985   2.116  1.7103  1.3656  0.4434
  697SOL     OW 3636   3.339   0.118   2.919  0.4841 -0.1399 -0.0869
  697SOL    HW1 3637   3.376   0.189   2.971 -0.0422 -0.9343  1.4217
  697SOL    HW2 3638   3.309   0.054   2.983 -0.2862 -1.1182 -1.3723
  698SOL     OW 3639   4.082   4.738   2.769 -0.5039  0.1599  0.1885
  698SOL    HW1 3640   4.175   4.733   2.792 -0.7374  0.4143  1.2701
  698SOL    HW2 3641   4.047   4.652   2.792 -0.0788 -0.8607 -2.5998
  699SOL     OW 3642   6.727   6.007   4.929 -0.6577 -0.0753 -0.1160
  699SOL    HW1 3643   6.806   6.048   4.894  0.7185 -0.5441  2.2215
  699SOL    HW2 3644   6.655   6.045   4.879  0.9423  1.4393 -1.3538
  700SOL     OW 3645   3.788   1.684   3.721  0.0306  0.6128  0.1488
  700SOL    HW1 3646   3.722   1.644   3.665 -0.0160  2.7354 -1.4040
  700SOL    HW2 3647   3.738   1.728   3.790 -0.0566  0.6744  0.0444
  701SOL     OW 3648   0.742   2.429   0.667 -0.4530  0.4381 -0.1647
  701SOL    HW1 3649   0.754   2.383   0.751  0.8349  3.1090  1.2504
  701SOL    HW2 3650   0.651   2.459   0.669 -0.6281 -0.0906 -0.0413
  702SOL     OW 3651   3.533   4.123   0.875 -0.2941 -0.3676 -0.2842
  702SOL    HW1 3652   3.598   4.174   0.825  0.3185 -0.4457  0.4095
  702SOL    HW2 3653   3.562   4.131   0.966  0.5479 -2.9279 -0.2473
  703SOL     OW 3654   4.292   1.176   3.836  0.2537 -0.0499  0.2749
  703SOL    HW1 3655   4.318   1.137   3.919 -0.4053 -0.7787  0.1635
  703SOL    HW2 3656   4.252   1.259   3.859  0.4227 -0.0767  0.6575
  704SOL     OW 3657   1.849   3.429   4.905 -0.0141  0.0650  0.3161
  704SOL    HW1 3658   1.834   3.427   4.999  0.1648 -0.1732  0.3414
  704SOL    HW2 3659   1.769   3.467   4.868 -0.3069 -0.3457  0.5184
  705SOL     OW 3660   3.976   2.837   5.518  0.3655 -0.0922  0.3809
  705SOL    HW1 3661   3.900   2.778   5.515  1.1027 -1.1221  1.0868
  705SOL    HW2 3662   4.005   2.833   5.609  1.6157 -0.1773 -0.0043
  706SOL     OW 3663   4.618   0.049   3.269  0.1533 -0.0021  0.1813
  706SOL    HW1 3664   4.565   0.080   3.342  2.6779  2.0045  1.3397
  706SOL    HW2 3665   4.592   0.103   3.195 -0.0073  0.3762  0.5121
  707SOL     OW 3666   6.484   3.880   5.265 -0.6340  0.5781 -0.1790
  707SOL    HW1 3667   6.498   3.844   5.352 -0.6045 -3.6158 -1.6988
  707SOL    HW2 3668   6.404   3.837   5.234  0.3955  0.3813 -2.8762
  708SOL     OW 3669   4.900   5.067   5.142 -0.5700 -0.4061  0.2438
  708SOL    HW1 3670   4.826   5.097   5.090  0.0225 -1.0540 -1.0084
  708SOL    HW2 3671   4.929   5.145   5.189 -2.7142 -0.3588  1.6713
  709SOL     OW 3672   2.322   0.791   5.433 -0.1548  0.1982  0.5696
  709SOL    HW1 3673   2.287   0.803   5.344 -0.2324 -0.5528  0.4970
  709SOL    HW2 3674   2.255   0.829   5.490 -1.2824 -1.5369  0.4542
  710SOL     OW 3675   5.826   5.280   1.882 -0.0316  0.1674  0.1538
  710SOL    HW1 3676   5.801   5.256   1.971 -0.5903 -3.1238 -0.7450
  710SOL    HW2 3677   5.921   5.275   1.882 -0.0270  0.2081  0.5733
  711SOL     OW 3678   1.184   0.986   6.117  0.0184 -1.0041 -0.1333
  711SOL    HW1 3679   1.269   0.954   6.086  0.5326 -1.9974  2.1344
  711SOL    HW2 3680   1.200   1.077   6.142 -1.0863  0.9133 -5.1333
  712SOL     OW 3681   2.220   3.732   2.740 -0.1576  0.1647 -0.3006
  712SOL    HW1 3682   2.314   3.736   2.722 -0.1474 -0.5035 -0.3949
  712SOL    HW2 3683   2.213   3.683   2.821 -0.3613  1.1696  0.3015
  713SOL     OW 3684   1.852   1.505   0.055  0.4648  0.0748 -0.3827
  713SOL    HW1 3685   1.790   1.464   0.116 -2.4457  1.0013 -2.4786
  713SOL    HW2 3686   1.889   1.579   0.103 -2.4883  1.3901  0.0743
  714SOL     OW 3687   0.914   6.492   2.002 -0.5666 -0.0497 -0.0500
  714SOL    HW1 3688   0.899   6.491   2.097 -0.3934  0.4365 -0.0144
  714SOL    HW2 3689   0.859   6.563   1.970  0.1078  0.4283 -0.1795
  715SOL     OW 3690   0.573   3.219   6.031 -0.0853  0.1553 -0.6742
  715SOL    HW1 3691   0.485   3.222   6.069  0.0772 -0.0361 -0.2686
  715SOL    HW2 3692   0.600   3.127   6.042  0.1887  0.2285 -0.7306
  716SOL     OW 3693   6.420   3.609   4.924 -0.1684 -0.2221 -0.1898
  716SOL    HW1 3694   6.324   3.618   4.928 -0.1427 -0.3621  1.3397
  716SOL    HW2 3695   6.452   3.698   4.911 -0.3683  0.5460  3.6410
  717SOL     OW 3696   5.980   0.491   0.539 -0.3155 -0.1999  0.1986
  717SOL    HW1 3697   5.916   0.558   0.562 -2.3921 -1.3250 -1.9172
  717SOL    HW2 3698   6.006   0.452   0.623 -3.1216 -0.3190  1.1023
  718SOL     OW 3699   4.050   1.057   2.854 -0.7176  0.2828  0.2572
  718SOL    HW1 3700   4.075   1.046   2.946  1.9877 -2.0427 -0.6410
  718SOL    HW2 3701   4.062   0.971   2.815 -0.4015  1.5077 -2.6070
  719SOL     OW 3702   1.390   5.929   3.164 -0.0559  0.0299  0.3294
  719SOL    HW1 3703   1.335   5.855   3.140  1.2166 -1.3722  1.5857
  719SOL    HW2 3704   1.340   5.975   3.232 -0.1726 -0.5614  0.6452
  720SOL     OW 3705   5.187   3.033   2.793  0.1734  0.0033 -0.2004
  720SOL    HW1 3706   5.247   3.091   2.747 -0.3150  0.3648 -0.3969
  720SOL    HW2 3707   5.240   2.991   2.861  0.7509 -0.0505 -0.6824
  721SOL     OW 3708   1.904   3.388   3.088  0.2476  0.3556  0.3518
  721SOL    HW1 3709   1.933   3.463   3.035  0.3937  1.8104  2.3889
  721SOL    HW2 3710   1.984   3.354   3.126  0.0888 -0.3967  0.0258
  722SOL     OW 3711   1.991   6.049   0.785 -0.2859 -0.8399 -0.0970
  722SOL    HW1 3712   1.955   5.962   0.768 -0.0514 -0.9429 -0.0792
  722SOL    HW2 3713   1.915   6.106   0.794 -0.5339 -1.4172  1.9491
  723SOL     OW 3714   4.506   0.772   1.613  0.7579 -0.2500 -0.0359
  723SOL    HW1 3715   4.526   0.679   1.626  2.5679  0.2443  1.2291
  723SOL    HW2 3716   4.515   0.810   1.700  3.0681  1.5906 -0.9764
  724SOL     OW 3717   3.671   0.551   6.287 -0.3970  0.3321 -0.5699
  724SOL    HW1 3718   3.650   0.586   6.201  0.4298 -0.1097 -0.9593
  724SOL    HW2 3719   3.760   0.582   6.305 -0.1825 -0.3932 -0.3131
  725SOL     OW 3720   1.070   1.455   0.670 -0.1070 -0.5358  0.7947
  725SOL    HW1 3721   1.059   1.455   0.575 -2.0200  1.7360  0.9304
  725SOL    HW2 3722   1.150   1.505   0.685 -0.9807  1.0475  0.3974
  726SOL     OW 3723   2.328   2.658   1.284 -0.5892 -0.2545 -0.5440
  726SOL    HW1 3724   2.373   2.582   1.321 -1.0290 -0.1420  0.2276
  726SOL    HW2 3725   2.244   2.623   1.254 -0.5082 -0.2059 -0.8396
  727SOL     OW 3726   5.800   2.527   6.672  0.0411 -0.4252  0.1897
  727SOL    HW1 3727   5.876   2.515   6.615  0.9179  0.4767  1.1350
  727SOL    HW2 3728   5.734   2.569   6.617  0.2918 -1.0195 -0.5802
  728SOL     OW 3729   1.738   6.154   3.654 -0.5524  0.1369  0.0927
  728SOL    HW1 3730   1.673   6.138   3.586 -1.6758  2.2111  0.5887
  728SOL    HW2 3731   1.782   6.235   3.628  2.1332 -1.3457 -0.3785
  729SOL     OW 3732   1.032   1.462   0.236  0.2706  0.1958 -0.4034
  729SOL    HW1 3733   1.106   1.519   0.216 -0.1307  1.0904  0.5891
  729SOL    HW2 3734   1.069   1.394   0.293  0.7814 -0.6578 -1.7096
  730SOL     OW 3735   3.406   0.686   1.431 -0.2228  0.2883 -0.1311
  730SOL    HW1 3736   3.482   0.741   1.451  0.7068 -1.0792  0.2622
  730SOL    HW2 3737   3.331   0.738   1.458  0.7380  0.3460  2.7652
  731SOL     OW 3738   0.619   4.188   4.887 -0.0924 -0.0563  0.2422
  731SOL    HW1 3739   0.661   4.127   4.948  0.6256  1.9067  1.7914
  731SOL    HW2 3740   0.543   4.221   4.935  0.1741  1.1202 -0.1164
  732SOL     OW 3741   4.898   3.427   2.565  0.2120  0.0192 -0.4986
  732SOL    HW1 3742   4.810   3.442   2.600  0.7376 -0.4768  1.0999
  732SOL    HW2 3743   4.916   3.335   2.584  1.3610  0.3052 -0.1279
  733SOL     OW 3744   6.467   3.260   6.349  0.4459  0.0941  0.1392
  733SOL    HW1 3745   6.522   3.301   6.281 -1.6328 -0.6742 -2.1363
  733SOL    HW2 3746   6.427   3.185   6.306 -1.3698 -0.1408  2.0720
  734SOL     OW 3747   6.723   2.685   4.801  0.7274 -0.1993 -0.2327
  734SOL    HW1 3748   6.764   2.715   4.720  0.3580 -1.6438 -0.9910
  734SOL    HW2 3749   6.651   2.629   4.772  1.0480 -1.3540  1.0678
  735SOL     OW 3750   3.722   0.224   3.019 -0.2983  0.1070  0.7224
  735SOL    HW1 3751   3.792   0.177   2.973 -1.0511 -2.6805  2.2456
  735SOL    HW2 3752   3.694   0.292   2.957  0.7375 -1.5599 -1.7024
  736SOL     OW 3753   4.871   4.857   6.574  0.2726  0.2184 -0.6026
  736SOL    HW1 3754   4.810   4.859   6.648  0.9111  0.7291 -0.0807
  736SOL    HW2 3755   4.955   4.883   6.611  0.9787 -1.1523 -1.1748
  737SOL     OW 3756   1.797   0.661   3.557  0.8108 -0.1654  0.0561
  737SOL    HW1 3757   1.719   0.654   3.501  0.2024 -0.8991  0.9482
  737SOL    HW2 3758   1.786   0.743   3.604  0.4520 -0.3722  0.3404
  738SOL     OW 3759   4.737   4.911   0.010  0.7731  0.2119  0.3211
  738SOL    HW1 3760   4.771   4.895   0.098 -1.3972  1.3663  1.4649
  738SOL    HW2 3761   4.641   4.912   0.021  0.4681  1.1954 -1.8963
  739SOL     OW 3762   4.424   0.523   0.413 -0.2551 -0.0470 -0.0863
  739SOL    HW1 3763   4.432   0.615   0.440  0.1583 -0.0791 -0.0834
  739SOL    HW2 3764   4.480   0.516   0.335 -0.3261 -0.2845 -0.1174
  740SOL     OW 3765   5.972   2.549   3.704 -0.1941  0.0162 -0.5060
  740SOL    HW1 3766   5.914   2.505   3.642  2.9531 -2.7357 -1.7600
  740SOL    HW2 3767   5.985   2.486   3.775  1.5394  0.4016 -0.4465
  741SOL     OW 3768   4.338   6.319   1.516 -0.6770  0.1255  0.8901
  741SOL    HW1 3769   4.362   6.327   1.608 -0.1229  1.1750  0.6794
  741SOL    HW2 3770   4.244   6.304   1.516 -0.3622 -2.2804  1.6929
  742SOL     OW 3771   4.538   0.240   4.075 -0.1402  0.2368  0.2097
  742SOL    HW1 3772   4.512   0.306   4.139  1.6875  1.6125 -0.3707
  742SOL    HW2 3773   4.522   0.281   3.990  3.5558  1.1999 -0.1901
  743SOL     OW 3774   1.456   0.914   2.859 -0.0677  0.3139  0.1212
  743SOL    HW1 3775   1.420   0.867   2.934  1.1135  0.5603  0.8766
  743SOL    HW2 3776   1.390   0.981   2.839 -0.7764 -0.2850  0.3965
  744SOL     OW 3777   6.601   4.150   0.001  0.2595  0.6767 -0.5265
  744SOL    HW1 3778   6.547   4.123   0.076 -0.5715 -0.2307 -1.4191
  744SOL    HW2 3779   6.658   4.219   0.036  0.1136  0.0574  1.0107
  745SOL     OW 3780   1.761   5.160   0.013  0.7940 -0.0767 -0.3912
  745SOL    HW1 3781   1.678   5.115   0.027  0.5710  0.5459  0.3642
  745SOL    HW2 3782   1.737   5.248  -0.012  1.2250  0.0295 -0.4443
  746SOL     OW 3783   0.596   2.736   4.509  0.4990  0.3621  0.4973
  746SOL    HW1 3784   0.569   2.748   4.418 -0.8367  0.0841  0.8461
  746SOL    HW2 3785   0.547   2.803   4.557 -1.3277 -1.5520  1.4350
  747SOL     OW 3786   1.726   4.546   4.731  0.9017 -0.0891 -1.2376
  747SOL    HW1 3787   1.678   4.482   4.783  1.1528 -0.3129 -1.2825
  747SOL    HW2 3788   1.662   4.576   4.666  0.1514  1.2268  0.0451
  748SOL     OW 3789   1.545   2.541   3.498  0.0248  0.2966  0.3217
  748SOL    HW1 3790   1.455   2.560   3.525 -0.5669  0.5984 -1.6838
  748SOL    HW2 3791   1.578   2.480   3.564 -1.0806  1.4221  1.9931
  749SOL     OW 3792   1.390   1.412   0.111  0.0964 -0.0972  0.0357
  749SOL    HW1 3793   1.308   1.459   0.124  1.3964  2.2801  0.1112
  749SOL    HW2 3794   1.450   1.477   0.074  2.1088 -1.6150  0.4616
  750SOL     OW 3795   4.871   1.824   6.395 -0.5579 -0.4178 -0.3273
  750SOL    HW1 3796   4.822   1.849   6.316  0.0020  0.1657 -0.4924
  750SOL    HW2 3797   4.936   1.893   6.407 -0.7649 -0.3919  0.7722
  751SOL     OW 3798   1.447   2.927   1.816 -0.1248 -0.3278 -0.4294
  751SOL    HW1 3799   1.385   2.996   1.794  1.0096  2.5246  3.8820
  751SOL    HW2 3800   1.519   2.938   1.753 -0.5979  1.5738 -0.7007
  752SOL     OW 3801   2.142   1.879   4.150 -0.2318 -0.3978 -0.0499
  752SOL    HW1 3802   2.200   1.920   4.087 -0.0906 -0.1918  0.2105
  752SOL    HW2 3803   2.057   1.922   4.137 -0.3634 -0.7843 -0.5138
  753SOL     OW 3804   0.567   3.144   4.525 -0.2488  0.1926 -0.1566
  753SOL    HW1 3805   0.510   3.077   4.565  0.8507 -1.3531 -1.0584
  753SOL    HW2 3806   0.575   3.117   4.434  0.5598  1.3506 -0.4431
  754SOL     OW 3807   3.379   6.782   1.499  0.2084  0.3135  0.5557
  754SOL    HW1 3808   3.396   6.752   1.589 -0.1498  0.8826  0.8193
  754SOL    HW2 3809   3.296   6.829   1.505 -0.6168 -0.9460 -0.3648
  755SOL     OW 3810   1.016   3.396   3.940  0.1605  0.3661 -0.6449
  755SOL    HW1 3811   1.057   3.310   3.942 -0.5043 -0.0246 -2.3174
  755SOL    HW2 3812   1.055   3.443   4.014  3.1243 -0.1630 -1.7611
  756SOL     OW 3813   4.080   5.711   5.356 -0.4573  0.0342  0.0192
  756SOL    HW1 3814   4.004   5.727   5.300  0.6593 -1.2852 -1.9985
  756SOL    HW2 3815   4.110   5.624   5.331  1.3087  0.2315  1.2840
  757SOL     OW 3816   6.369   1.224   0.387 -0.8286  0.5942  0.0658
  757SOL    HW1 3817   6.355   1.132   0.410  3.1226  0.0414  1.0499
  757SOL    HW2 3818   6.334   1.232   0.299 -0.2873 -2.2282 -0.5185
  758SOL     OW 3819   3.133   0.840   1.736 -0.7261 -0.3308 -0.0748
  758SOL    HW1 3820   3.066   0.773   1.751 -0.9607 -0.1046 -0.0943
  758SOL    HW2 3821   3.134   0.852   1.641  0.9023 -1.9070 -0.2939
  759SOL     OW 3822   1.889   6.202   2.401  0.4119 -0.3646  0.1758
  759SOL    HW1 3823   1.851   6.193   2.314 -0.6444  0.2314  0.5539
  759SOL    HW2 3824   1.983   6.191   2.388  0.2993  0.0162 -1.0775
  760SOL     OW 3825   5.647   0.671   3.483  0.1889 -0.2757  0.6858
  760SOL    HW1 3826   5.699   0.709   3.412 -1.6981 -1.2623 -1.3572
  760SOL    HW2 3827   5.697   0.595   3.511  0.0304 -1.1003 -1.1075
  761SOL     OW 3828   6.239   5.988   6.143  0.4307 -0.6582  0.3610
  761SOL    HW1 3829   6.333   6.000   6.151  0.6419 -2.6585  1.4666
  761SOL    HW2 3830   6.228   5.900   6.108 -1.0392  0.2822 -1.7956
  762SOL     OW 3831   5.544   5.387   6.081  0.3040  0.2160  0.2501
  762SOL    HW1 3832   5.498   5.470   6.078  1.1231  0.6851  0.1512
  762SOL    HW2 3833   5.613   5.399   6.146  0.2526 -0.4826  0.4468
  763SOL     OW 3834   3.351   2.357   5.534 -0.0403 -0.0435  0.7179
  763SOL    HW1 3835   3.339   2.266   5.559 -1.4989  0.3188  1.4410
  763SOL    HW2 3836   3.345   2.357   5.439 -1.8644 -0.4996  0.7900
  764SOL     OW 3837   4.706   0.359   1.840 -0.3294  0.1244  0.8026
  764SOL    HW1 3838   4.797   0.384   1.829  0.1938 -1.5148  1.1799
  764SOL    HW2 3839   4.663   0.389   1.759  1.1959 -1.8478 -0.8596
  765SOL     OW 3840   6.112   0.326   5.846 -0.4368 -0.4996 -0.3701
  765SOL    HW1 3841   6.126   0.232   5.836 -0.1112 -0.5290  0.3548
  765SOL    HW2 3842   6.108   0.359   5.756  0.9685 -0.9782 -0.6274
  766SOL     OW 3843   5.577   3.286   1.072  0.1620 -0.1293  0.0925
  766SOL    HW1 3844   5.487   3.319   1.066  0.7371  1.8009  1.2383
  766SOL    HW2 3845   5.581   3.215   1.008 -1.7781  0.6419 -0.9619
  767SOL     OW 3846   2.303   6.101   4.568  0.4516  0.3300  0.3246
  767SOL    HW1 3847   2.325   6.094   4.660  0.3443 -0.2460  0.3075
  767SOL    HW2 3848   2.381   6.071   4.522 -0.0273 -0.8557  0.2534
  768SOL     OW 3849   4.644   0.079   6.125  0.5513 -0.6565  0.4984
  768SOL    HW1 3850   4.566   0.046   6.171  1.0551 -2.9563 -0.1857
  768SOL    HW2 3851   4.708   0.008   6.133  2.4849  1.0192  0.7021
  769SOL     OW 3852   6.771   3.613   5.012  0.5299  0.3621  0.6092
  769SOL    HW1 3853   6.771   3.650   4.924  1.2556  1.1114  0.9144
  769SOL    HW2 3854   6.748   3.686   5.069  1.0118  0.1158  1.1265
  770SOL     OW 3855   2.165   3.778   1.178  0.6973  0.4832  0.0479
  770SOL    HW1 3856   2.236   3.728   1.218  1.0384  0.2247 -0.8618
  770SOL    HW2 3857   2.183   3.774   1.084  0.3690  1.7628 -0.0867
  771SOL     OW 3858   1.604   4.865   3.281  0.2266 -0.1511 -0.0556
  771SOL    HW1 3859   1.610   4.886   3.187  0.8879 -0.6776 -0.1394
  771SOL    HW2 3860   1.519   4.824   3.290 -0.7477  1.7509 -0.0375
  772SOL     OW 3861   4.958   2.578   6.066  0.3021  0.0217 -0.3321
  772SOL    HW1 3862   5.037   2.527   6.049  0.6579  0.0933  1.0491
  772SOL    HW2 3863   4.979   2.666   6.034  0.4939 -0.1505 -0.6863
  773SOL     OW 3864   3.168   3.806   5.521  0.0172 -0.9264  0.3924
  773SOL    HW1 3865   3.205   3.854   5.447  0.4599 -0.2794  1.0178
  773SOL    HW2 3866   3.120   3.734   5.481  1.1713 -1.2448 -0.4863
  774SOL     OW 3867   2.685   3.044   4.617  0.2053 -0.4231  0.2967
  774SOL    HW1 3868   2.652   2.961   4.653 -0.8407 -1.0274 -1.8827
  774SOL    HW2 3869   2.773   3.024   4.586 -0.6902 -1.3508 -1.9181
  775SOL     OW 3870   4.089   4.101   6.180  0.1894  0.4960  0.9788
  775SOL    HW1 3871   4.171   4.056   6.201 -0.3404 -0.4214  1.1394
  775SOL    HW2 3872   4.031   4.080   6.253 -2.1424 -3.8341 -1.7139
  776SOL     OW 3873   4.479   6.449   0.602 -0.0258  0.3956 -0.5548
  776SOL    HW1 3874   4.437   6.407   0.677 -0.9128  0.2670 -1.1101
  776SOL    HW2 3875   4.573   6.432   0.615 -0.2436 -0.4521  0.0228
  777SOL     OW 3876   4.300   6.508   3.225 -0.2936  0.4237 -0.4980
  777SOL    HW1 3877   4.310   6.488   3.318  0.2000 -1.8127 -0.9682
  777SOL    HW2 3878   4.379   6.557   3.202  1.2842 -1.9410 -0.4086
  778SOL     OW 3879   2.621   1.699   6.103  0.4622 -0.0215  0.4247
  778SOL    HW1 3880   2.610   1.682   6.010 -0.2916  0.6079  0.3849
  778SOL    HW2 3881   2.563   1.773   6.121 -0.1269 -0.7283  1.5777
  779SOL     OW 3882   4.573   3.922   3.071  0.5378 -0.6755 -0.2388
  779SOL    HW1 3883   4.554   3.999   3.125  1.5273 -1.9662  2.1031
  779SOL    HW2 3884   4.647   3.948   3.016 -0.4017  0.6241 -0.9551
  780SOL     OW 3885   6.356   1.046   0.842  0.2325  0.5029  0.3174
  780SOL    HW1 3886   6.315   1.124   0.803  0.0225  0.0395 -0.4071
  780SOL    HW2 3887   6.438   1.079   0.880  1.7428  0.5948 -2.6977
  781SOL     OW 3888   6.074   1.669   4.078  0.4625 -0.1043 -0.3442
  781SOL    HW1 3889   6.156   1.622   4.066  0.2651 -0.3949 -0.5669
  781SOL    HW2 3890   6.077   1.740   4.013  0.4231 -0.2719 -0.5293
  782SOL     OW 3891   5.162   0.671   1.844  0.5419  0.0138  0.2339
  782SOL    HW1 3892   5.210   0.719   1.911  0.0369  1.4002 -0.3417
  782SOL    HW2 3893   5.226   0.611   1.807  1.4413  0.7967  0.4609
  783SOL     OW 3894   4.310   0.929   1.541  0.4776  0.0996 -0.3040
  783SOL    HW1 3895   4.387   0.881   1.570  0.3540  0.0502 -0.0512
  783SOL    HW2 3896   4.325   1.019   1.571  0.2909  0.0211  0.0303
  784SOL     OW 3897   2.386   1.551   1.292 -0.7187 -0.0390 -0.3107
  784SOL    HW1 3898   2.338   1.579   1.370 -1.7985  1.7099 -1.5114
  784SOL    HW2 3899   2.356   1.461   1.276 -1.2830 -0.0396  0.6852
  785SOL     OW 3900   1.280   0.616   3.178  0.2588  0.2256  0.2873
  785SOL    HW1 3901   1.353   0.621   3.116 -0.6453  0.8365 -0.7672
  785SOL    HW2 3902   1.321   0.589   3.260  1.3050 -2.1883 -0.9125
  786SOL     OW 3903   1.340   4.762   3.323 -0.4581 -0.7489  0.3588
  786SOL    HW1 3904   1.341   4.684   3.379  0.6965  0.6088  2.3563
  786SOL    HW2 3905   1.258   4.806   3.346 -0.1179 -0.3368  0.8126
  787SOL     OW 3906   6.089   1.644   6.734 -0.0297  0.5143 -0.2354
  787SOL    HW1 3907   6.158   1.662   6.670  2.3019  2.2273  2.5061
  787SOL    HW2 3908   6.080   1.549   6.734  0.8939  0.3798 -2.0559
  788SOL     OW 3909   5.008   1.054   1.864 -0.0642 -0.1550 -0.3111
  788SOL    HW1 3910   4.949   1.119   1.902  1.0903  0.0103  1.3214
  788SOL    HW2 3911   4.991   1.059   1.770 -1.6513  0.8420 -0.0188
  789SOL     OW 3912   0.236   3.520   1.532  0.4610 -0.6392 -0.3056
  789SOL    HW1 3913   0.178   3.581   1.579  1.7094 -0.4510  1.0985
  789SOL    HW2 3914   0.310   3.575   1.505  1.2547 -1.3606  0.3358
  790SOL     OW 3915   2.291   3.327   3.912  0.3140  0.2657  0.0185
  790SOL    HW1 3916   2.226   3.396   3.898 -0.6680 -0.6488 -0.0096
  790SOL    HW2 3917   2.267   3.259   3.849  1.1241 -0.2118  0.2237
  791SOL     OW 3918   0.097   2.223   6.447  0.3983  0.2852 -0.1920
  791SOL    HW1 3919   0.187   2.213   6.477  0.9988 -2.4253 -2.4099
  791SOL    HW2 3920   0.101   2.288   6.377  1.0842 -1.2080 -1.6022
  792SOL     OW 3921   2.375   0.236   2.015 -0.0278 -0.0036 -0.4139
  792SOL    HW1 3922   2.329   0.201   1.939 -0.2544  1.6076 -1.0594
  792SOL    HW2 3923   2.307   0.244   2.082  0.1633 -1.3839 -0.0410
  793SOL     OW 3924   5.513   2.030   5.266  0.1431  0.1151 -0.3595
  793SOL    HW1 3925   5.468   1.956   5.309 -1.8804  1.1271 -0.6152
  793SOL    HW2 3926   5.598   2.035   5.310 -0.5033 -1.0553  1.1227
  794SOL     OW 3927   2.224   4.755   3.068 -0.5953 -0.2872  0.0761
  794SOL    HW1 3928   2.139   4.714   3.051 -0.0448 -1.2984 -0.2881
  794SOL    HW2 3929   2.250   4.792   2.984 -1.1120  0.8842  0.4145
  795SOL     OW 3930   0.480   5.764   1.102  0.3249 -0.4366 -0.2630
  795SOL    HW1 3931   0.570   5.794   1.113 -0.2086  0.9663  0.4684
  795SOL    HW2 3932   0.464   5.708   1.178 -0.0180  0.8752  0.6600
  796SOL     OW 3933   3.976   0.966   2.569 -0.4397  1.0384 -0.2131
  796SOL    HW1 3934   3.948   0.917   2.646 -0.0077  1.2969  0.1152
  796SOL    HW2 3935   4.030   1.037   2.603 -0.5392  1.3735 -0.7302
  797SOL     OW 3936   2.293   4.385   3.919  0.0297 -0.3288 -0.2429
  797SOL    HW1 3937   2.273   4.294   3.894 -1.5857 -0.3455  0.9075
  797SOL    HW2 3938   2.249   4.438   3.853  0.5073 -0.3596 -0.5962
  798SOL     OW 3939   5.766   4.513   0.670 -0.1716  0.0523  0.1407
  798SOL    HW1 3940   5.755   4.592   0.618 -1.5181 -1.0039 -1.2795
  798SOL    HW2 3941   5.677   4.487   0.693  0.3453 -0.1755  1.9809
  799SOL     OW 3942   2.480   3.344   1.111  0.1671  0.1702  0.0993
  799SOL    HW1 3943   2.521   3.413   1.165  0.4403  0.0802  0.0055
  799SOL    HW2 3944   2.468   3.385   1.025  0.6240 -0.0052 -0.0473
  800SOL     OW 3945   0.393   3.169   3.572 -0.1457 -0.4111  0.1894
  800SOL    HW1 3946   0.444   3.229   3.517  0.2536 -1.0391 -0.1436
  800SOL    HW2 3947   0.442   3.164   3.654  0.0716 -0.6351  0.0480
  801SOL     OW 3948   5.691   1.126   6.369  0.1808 -0.0571  0.0846
  801SOL    HW1 3949   5.612   1.162   6.410 -0.2628 -1.1467  0.2319
  801SOL    HW2 3950   5.679   1.140   6.275  0.0485  0.2306  0.1444
  802SOL     OW 3951   0.133   2.890   0.138  0.2015  0.3104 -0.9099
  802SOL    HW1 3952   0.065   2.850   0.084 -0.1737 -0.2381 -0.0587
  802SOL    HW2 3953   0.093   2.969   0.173 -0.1690 -0.2374 -0.0610
  803SOL     OW 3954   5.934   5.757   2.237  0.0834  0.5318  0.3186
  803SOL    HW1 3955   5.880   5.788   2.163 -0.2207  1.4922  0.9227
  803SOL    HW2 3956   5.935   5.661   2.227  0.5338  0.6674 -1.2524
  804SOL     OW 3957   4.433   3.307   5.922 -0.2817  0.2642 -0.1105
  804SOL    HW1 3958   4.506   3.277   5.975  0.7464 -0.9465 -2.1054
  804SOL    HW2 3959   4.366   3.240   5.934 -0.5158  0.6103  0.5611
  805SOL     OW 3960   4.649   6.440   5.886  0.3879 -0.1958  0.4704
  805SOL    HW1 3961   4.727   6.495   5.885  0.7635 -0.7079  0.9080
  805SOL    HW2 3962   4.614   6.446   5.797  0.4584  0.6893  0.4990
  806SOL     OW 3963   1.842   2.548   3.180 -0.1611  0.3938  0.2001
  806SOL    HW1 3964   1.934   2.562   3.160 -0.5519 -0.0226 -2.2861
  806SOL    HW2 3965   1.825   2.459   3.149 -1.6672  0.9311 -0.6112
  807SOL     OW 3966   3.824   1.730   1.246  0.1217  0.1588  0.1137
  807SOL    HW1 3967   3.789   1.746   1.158 -1.1880  1.2386  0.7872
  807SOL    HW2 3968   3.750   1.696   1.296  0.7874 -0.2193  0.8692
  808SOL     OW 3969   4.477   3.179   1.823  0.2863 -0.1874 -0.2016
  808SOL    HW1 3970   4.533   3.256   1.825  0.4797 -0.2737 -1.6144
  808SOL    HW2 3971   4.388   3.213   1.835  0.5300  0.0142  1.3477
  809SOL     OW 3972   1.339   5.470   5.501  0.1112 -0.5488 -0.6275
  809SOL    HW1 3973   1.410   5.532   5.515 -0.4008  0.8561 -3.4294
  809SOL    HW2 3974   1.308   5.447   5.589  2.4197  0.6614  0.5698
  810SOL     OW 3975   4.634   1.550   3.240 -0.4657 -0.0098 -0.6063
  810SOL    HW1 3976   4.676   1.469   3.208 -0.5678 -0.2631 -0.1096
  810SOL    HW2 3977   4.706   1.598   3.282 -0.4541  0.0443 -0.6888
  811SOL     OW 3978   4.324   2.256   1.405  0.4282 -0.4707 -0.3494
  811SOL    HW1 3979   4.253   2.237   1.466 -0.6408  1.8936 -0.7442
  811SOL    HW2 3980   4.300   2.208   1.325 -1.9272  1.8939 -1.1787
  812SOL     OW 3981   0.448   6.596   4.884  0.0211  0.5793  0.2900
  812SOL    HW1 3982   0.406   6.669   4.930  1.5724  1.5138  0.2912
  812SOL    HW2 3983   0.541   6.608   4.900  0.2959 -1.6204  0.5466
  813SOL     OW 3984   6.322   1.479   1.559 -0.7392 -0.3433  0.7287
  813SOL    HW1 3985   6.301   1.536   1.633 -0.5067  1.3364 -0.4523
  813SOL    HW2 3986   6.320   1.536   1.483  1.1301 -1.5661 -0.3188
  814SOL     OW 3987   4.023   5.701   0.011  0.3807  0.1897 -0.5294
  814SOL    HW1 3988   4.019   5.782   0.063  0.1018  0.7373 -1.3819
  814SOL    HW2 3989   4.107   5.705  -0.033  0.0152  0.4341 -1.2205
  815SOL     OW 3990   3.351   2.594   0.186  0.1225  0.0771 -0.4085
  815SOL    HW1 3991   3.279   2.615   0.245 -0.0048  1.4670 -1.0002
  815SOL    HW2 3992   3.429   2.594   0.241 -0.1875 -0.2642  0.0329
  816SOL     OW 3993   5.598   3.836   5.577  0.3841 -0.2856 -0.2855
  816SOL    HW1 3994   5.601   3.740   5.579  1.3163 -0.2717  1.1852
  816SOL    HW2 3995   5.562   3.860   5.662  2.1836  0.6745  0.2618
  817SOL     OW 3996   5.441   6.206   3.524 -0.2875 -0.4071 -0.2186
  817SOL    HW1 3997   5.388   6.140   3.480  0.3098  0.2280 -1.9647
  817SOL    HW2 3998   5.481   6.256   3.453 -0.1290  1.3640  1.0452
  818SOL     OW 3999   1.703   3.629   1.929  0.4994  0.0019  0.2210
  818SOL    HW1 4000   1.733   3.616   1.839 -1.8898  2.0384 -0.9807
  818SOL    HW2 4001   1.766   3.690   1.966  1.6473 -1.0452  0.0800
  819SOL     OW 4002   6.175   0.670   2.772  0.0583  0.2097  0.4698
  819SOL    HW1 4003   6.110   0.627   2.828 -0.4010 -0.3826 -0.4945
  819SOL    HW2 4004   6.193   0.607   2.703  0.0149  1.2303 -0.5059
  820SOL     OW 4005   5.561   1.406   3.665  0.0625 -0.3240  0.0800
  820SOL    HW1 4006   5.499   1.478   3.677 -0.4069 -0.8428  0.8236
  820SOL    HW2 4007   5.630   1.443   3.610 -0.3395  0.5940  0.1779
  821SOL     OW 4008   0.728   3.963   5.735  0.4986  0.3536  0.2596
  821SOL    HW1 4009   0.724   3.871   5.711  1.9550 -0.3199  2.3189
  821SOL    HW2 4010   0.690   3.967   5.823  1.0301  1.5901  0.4621
  822SOL     OW 4011   2.308   4.125   4.552 -0.2714 -0.0218  0.2990
  822SOL    HW1 4012   2.376   4.057   4.556 -0.5268 -0.2300  1.2064
  822SOL    HW2 4013   2.229   4.082   4.585 -0.3694  0.7874  1.1603
  823SOL     OW 4014   1.177   3.277   1.393 -0.1950  0.2307  0.0653
  823SOL    HW1 4015   1.214   3.253   1.478  0.6050 -0.2750 -0.4128
  823SOL    HW2 4016   1.221   3.220   1.330  0.3137  1.5821 -0.8751
  824SOL     OW 4017   5.112   6.689   0.676 -1.0228  0.4124 -0.0328
  824SOL    HW1 4018   5.206   6.690   0.657 -1.2298 -0.9402 -1.3574
  824SOL    HW2 4019   5.089   6.782   0.684  0.4061  0.7733  0.3130
  825SOL     OW 4020   1.731   6.737   0.103 -0.2798  0.3602  0.2279
  825SOL    HW1 4021   1.795   6.738   0.174  0.1984  1.1776 -0.1989
  825SOL    HW2 4022   1.736   6.648   0.067 -0.2631  0.0522  0.9636
  826SOL     OW 4023   4.320   1.110   0.914 -0.0669  0.8161  0.5269
  826SOL    HW1 4024   4.318   1.171   0.840  0.9604  3.3028  2.4084
  826SOL    HW2 4025   4.386   1.146   0.973  0.3782 -2.0041  1.9407
  827SOL     OW 4026   0.217   4.944   3.797 -0.4033  0.5526 -0.4401
  827SOL    HW1 4027   0.156   5.003   3.753 -1.1425  0.9666  1.0600
  827SOL    HW2 4028   0.166   4.864   3.813  0.1819  0.0002 -1.2561
  828SOL     OW 4029   4.493   3.608   2.887  0.2244 -0.8044  0.0206
  828SOL    HW1 4030   4.468   3.624   2.796  1.1801 -2.1065 -0.4881
  828SOL    HW2 4031   4.458   3.684   2.934 -0.6279 -0.2980 -1.3529
  829SOL     OW 4032   0.108   3.485   6.529  0.3355  0.2272  0.6378
  829SOL    HW1 4033   0.154   3.403   6.549  1.6123  0.8256  0.2550
  829SOL    HW2 4034   0.112   3.535   6.611  0.1858  0.1987  0.6625
  830SOL     OW 4035   3.895   2.865   3.209  0.4707 -0.3222  0.1116
  830SOL    HW1 4036   3.890   2.960   3.221  1.3080 -0.3633  0.8959
  830SOL    HW2 4037   3.971   2.852   3.153 -0.4467 -0.4593 -1.1283
  831SOL     OW 4038   2.148   2.111   5.579 -0.0698  0.1950  0.1353
  831SOL    HW1 4039   2.112   2.119   5.667 -2.6558  0.5406 -0.8649
  831SOL    HW2 4040   2.103   2.178   5.528 -0.4065 -1.5028 -1.9678
  832SOL     OW 4041   6.140   0.046   4.548  0.3386  0.2831  0.3156
  832SOL    HW1 4042   6.055   0.089   4.552  0.5837  0.8328 -0.3046
  832SOL    HW2 4043   6.119  -0.048   4.544 -0.1866  0.2361  2.4934
  833SOL     OW 4044   1.478   5.921   1.514 -0.5905  0.3819 -0.2371
  833SOL    HW1 4045   1.563   5.897   1.478  0.2880  2.5782  0.2569
  833SOL    HW2 4046   1.463   5.858   1.584  0.6159 -0.0423 -0.3412
  834SOL     OW 4047   5.688   4.134   5.603  0.1380  0.3675  0.6757
  834SOL    HW1 4048   5.779   4.144   5.633  0.6791  0.9874 -1.0690
  834SOL    HW2 4049   5.678   4.040   5.589  0.1256  0.1565  1.9155
  835SOL     OW 4050   3.629   5.735   3.539  0.4455  0.2196  0.2517
  835SOL    HW1 4051   3.653   5.675   3.609 -0.7726 -0.1968  0.3365
  835SOL    HW2 4052   3.664   5.820   3.567  1.4462 -0.2746  0.5330
  836SOL     OW 4053   4.180   3.859   0.489 -0.3249 -0.6569 -0.0560
  836SOL    HW1 4054   4.246   3.890   0.551 -0.2415 -1.1019  0.0757
  836SOL    HW2 4055   4.115   3.930   0.487  1.0486  0.6543 -1.5899
  837SOL     OW 4056   0.612   1.875   0.342 -0.4144 -0.2192 -0.4156
  837SOL    HW1 4057   0.534   1.820   0.336 -1.4281  1.0697  0.5319
  837SOL    HW2 4058   0.600   1.941   0.274  0.1171 -0.3241 -0.6151
  838SOL     OW 4059   1.679   5.621   1.337 -0.2189  0.0837 -0.9103
  838SOL    HW1 4060   1.585   5.605   1.330 -0.1083 -1.2771  0.3744
  838SOL    HW2 4061   1.711   5.555   1.398  1.6138  0.4189 -1.4318
  839SOL     OW 4062   1.111   0.074   2.341  0.1708 -0.0319 -0.1375
  839SOL    HW1 4063   1.079   0.034   2.260 -1.5551 -0.1127  0.5498
  839SOL    HW2 4064   1.046   0.140   2.363  0.9277  0.3981  0.8713
  840SOL     OW 4065   4.713   2.779   2.877  0.3881  0.4419  0.0891
  840SOL    HW1 4066   4.753   2.818   2.799  0.3805  2.6132  1.1201
  840SOL    HW2 4067   4.625   2.817   2.880  0.3585  0.3189  1.1083
  841SOL     OW 4068   3.692   5.940   3.713 -0.1213  0.3619 -0.4574
  841SOL    HW1 4069   3.738   5.910   3.791 -0.6284  0.0251 -0.2869
  841SOL    HW2 4070   3.623   5.997   3.747 -0.1349  0.4824 -0.6857
  842SOL     OW 4071   4.956   3.805   0.953  0.2261  0.5921 -0.4202
  842SOL    HW1 4072   5.044   3.766   0.953  0.1594  0.1637 -3.4391
  842SOL    HW2 4073   4.971   3.897   0.976  1.1867  0.1529  0.8306
  843SOL     OW 4074   2.297   1.839   0.519  0.0499 -0.3168 -0.1780
  843SOL    HW1 4075   2.375   1.894   0.529  1.4446 -2.2766  0.4388
  843SOL    HW2 4076   2.327   1.765   0.467 -0.9157 -1.9892  1.5237
  844SOL     OW 4077   6.573   2.795   2.028  0.4967 -0.3786  0.5810
  844SOL    HW1 4078   6.626   2.715   2.027  4.4351  1.8757 -2.5826
  844SOL    HW2 4079   6.636   2.865   2.046 -1.7432  2.3967 -1.4409
  845SOL     OW 4080   3.172   4.274   4.753 -0.6729  0.4793  0.2933
  845SOL    HW1 4081   3.267   4.281   4.764 -0.0177  0.2203 -3.6395
  845SOL    HW2 4082   3.144   4.362   4.727 -0.9564 -0.0391 -1.2778
  846SOL     OW 4083   4.306   4.552   0.242  0.1402 -0.4796  0.2625
  846SOL    HW1 4084   4.307   4.570   0.148  0.1208 -1.8013 -0.0211
  846SOL    HW2 4085   4.214   4.536   0.262  0.0575  0.4776  0.6533
  847SOL     OW 4086   2.439   2.110   2.013 -0.0804 -0.4773  0.1059
  847SOL    HW1 4087   2.397   2.048   1.953 -1.3611  0.6956 -0.2576
  847SOL    HW2 4088   2.386   2.189   2.007 -2.0272 -1.0919  4.7800
  848SOL     OW 4089   4.323   1.171   4.400  0.6044 -0.0818 -0.2705
  848SOL    HW1 4090   4.348   1.200   4.312 -0.3408 -1.3584 -1.0029
  848SOL    HW2 4091   4.299   1.079   4.388 -2.1551  0.4178  0.7954
  849SOL     OW 4092   1.769   4.008   5.802 -0.5658  0.1715  0.2328
  849SOL    HW1 4093   1.688   4.024   5.850 -0.9397 -1.8378  0.3638
  849SOL    HW2 4094   1.741   3.996   5.711 -0.1083  1.8255 -0.1556
  850SOL     OW 4095   0.356   3.007   3.274 -0.5486  0.2202 -0.8086
  850SOL    HW1 4096   0.398   3.060   3.342  0.1718 -1.9640  0.5528
  850SOL    HW2 4097   0.282   2.966   3.318  0.4820 -1.9775 -1.0075
  851SOL     OW 4098   0.029   0.671   4.833  0.4717  0.0696 -0.7135
  851SOL    HW1 4099   0.053   0.763   4.844 -0.3923  0.3254 -0.8858
  851SOL    HW2 4100   0.103   0.632   4.788  1.6092  0.2756  0.9107
  852SOL     OW 4101   0.287   6.751   6.615  0.1031  0.3082 -0.3801
  852SOL    HW1 4102   0.277   6.657   6.600 -0.3648  0.1766  0.6410
  852SOL    HW2 4103   0.197   6.783   6.626  0.2063  1.0218 -1.4728
  853SOL     OW 4104   5.782   6.053   4.700  0.2633 -0.3697 -0.0553
  853SOL    HW1 4105   5.756   6.126   4.644  1.5018 -1.1164 -1.6978
  853SOL    HW2 4106   5.821   5.989   4.640  1.9421 -1.0894  1.6918
  854SOL     OW 4107   2.107   4.045   0.957  0.2223  0.1986  0.5224
  854SOL    HW1 4108   2.188   4.014   0.998  2.6694  3.1548 -1.5919
  854SOL    HW2 4109   2.114   4.019   0.866 -2.0703 -0.8496  0.5848
  855SOL     OW 4110   5.302   0.879   4.614 -0.3399  0.1311  0.3746
  855SOL    HW1 4111   5.389   0.915   4.631  1.6211 -3.4350 -1.0947
  855SOL    HW2 4112   5.273   0.922   4.533  0.0654  1.2667  0.8179
  856SOL     OW 4113   2.730   0.766   3.509  0.2400 -0.4963 -0.2064
  856SOL    HW1 4114   2.717   0.837   3.573  0.2966 -0.2439 -0.4714
  856SOL    HW2 4115   2.658   0.706   3.526  0.5467 -0.6958  0.4428
  857SOL     OW 4116   2.900   2.799   1.184  0.0696  0.0035  0.3124
  857SOL    HW1 4117   2.928   2.707   1.190 -0.3303 -0.0986  0.7531
  857SOL    HW2 4118   2.952   2.836   1.113  0.3413 -0.5291  0.2286
  858SOL     OW 4119   2.165   2.261   2.260  0.2510 -0.5097  0.5463
  858SOL    HW1 4120   2.178   2.224   2.347 -0.9046 -0.6844  0.6553
  858SOL    HW2 4121   2.233   2.328   2.253  1.6980 -1.8629  0.7656
  859SOL     OW 4122   4.812   5.674   6.130  0.0874 -0.0317  0.2795
  859SOL    HW1 4123   4.862   5.754   6.112  1.1479 -0.3815  1.5238
  859SOL    HW2 4124   4.755   5.698   6.203  0.1636 -0.3090  0.4307
  860SOL     OW 4125   2.633   5.039   0.326 -0.4204  0.1254  0.4685
  860SOL    HW1 4126   2.579   5.068   0.400 -0.1141 -0.7999  1.0618
  860SOL    HW2 4127   2.723   5.054   0.354 -0.2563 -1.2810  0.7484
  861SOL     OW 4128   2.931   6.253   4.356  0.3171  0.2806 -0.2422
  861SOL    HW1 4129   2.900   6.299   4.435  0.2499  0.8075 -0.5724
  861SOL    HW2 4130   3.005   6.305   4.326 -0.1128  0.4997 -0.9432
  862SOL     OW 4131   4.313   4.456   1.081  0.1875  0.2292  0.0561
  862SOL    HW1 4132   4.350   4.410   1.006  2.8253  0.9250  0.8175
  862SOL    HW2 4133   4.306   4.389   1.150 -2.6875 -0.5242 -0.8171
  863SOL     OW 4134   1.563   1.554   2.764  0.2783  0.6331 -0.1361
  863SOL    HW1 4135   1.576   1.613   2.689 -0.5242  0.3818 -0.4847
  863SOL    HW2 4136   1.472   1.569   2.791  0.5419  0.6722  0.7498
  864SOL     OW 4137   2.892   6.117   2.337 -0.4143 -0.0978 -0.3254
  864SOL    HW1 4138   2.848   6.167   2.405 -0.6575 -0.0737 -0.4997
  864SOL    HW2 4139   2.852   6.030   2.340  1.4508 -0.9650  1.3921
  865SOL     OW 4140   1.729   4.058   2.307  0.2277  0.3091  0.1034
  865SOL    HW1 4141   1.681   3.986   2.266  0.4867  0.2878 -0.1612
  865SOL    HW2 4142   1.817   4.053   2.270  0.5184  0.1807  0.7921
  866SOL     OW 4143   2.441   4.076   2.631  0.2070 -0.3965  0.4691
  866SOL    HW1 4144   2.529   4.106   2.609 -0.1310  0.8713  0.8259
  866SOL    HW2 4145   2.410   4.035   2.550  0.2113  1.3358 -0.4420
  867SOL     OW 4146   4.716   0.017   6.616 -0.7321 -0.7327  0.1527
  867SOL    HW1 4147   4.702  -0.010   6.525 -1.7991  0.1614  0.0265
  867SOL    HW2 4148   4.806   0.050   6.617 -1.3924  1.3232 -1.1625
  868SOL     OW 4149   1.820   4.031   4.379  0.1129 -0.2970 -0.2340
  868SOL    HW1 4150   1.817   4.086   4.301  0.6148  0.5878  0.3532
  868SOL    HW2 4151   1.778   3.949   4.352 -2.3804  1.0049 -0.6100
  869SOL     OW 4152   4.050   6.074   2.937  0.2072 -0.0360  0.1521
  869SOL    HW1 4153   4.066   6.149   2.995  2.7992 -0.7988  0.5729
  869SOL    HW2 4154   4.033   6.001   2.996 -1.9756  0.0988 -0.2466
  870SOL     OW 4155   1.002   6.291   3.256 -0.2388 -0.2203  0.6443
  870SOL    HW1 4156   1.077   6.351   3.249 -0.6694  0.2751  0.2702
  870SOL    HW2 4157   1.012   6.252   3.343 -0.3397  0.9100  1.1813
  871SOL     OW 4158   0.370   2.153   0.230 -0.3779 -0.0339  0.2794
  871SOL    HW1 4159   0.374   2.212   0.156  1.7314 -0.8452 -0.3095
  871SOL    HW2 4160   0.363   2.066   0.191  2.0212 -0.5791  0.9258
  872SOL     OW 4161   3.710   3.594   2.435  0.1291 -0.2028 -0.2831
  872SOL    HW1 4162   3.712   3.534   2.360  0.2126 -0.1135 -0.3530
  872SOL    HW2 4163   3.674   3.675   2.399 -1.3821 -0.6601  0.1415
  873SOL     OW 4164   2.731   6.220   2.523 -0.5193 -0.0412  0.4078
  873SOL    HW1 4165   2.781   6.289   2.566  0.5565 -0.5139 -0.0410
  873SOL    HW2 4166   2.640   6.245   2.536 -0.1742  0.8964  1.1704
  874SOL     OW 4167   2.784   0.808   2.065 -0.1425  0.1651  0.0810
  874SOL    HW1 4168   2.707   0.857   2.038 -0.2982 -0.4641 -0.6362
  874SOL    HW2 4169   2.774   0.798   2.160  1.1722  3.7194  0.7432
  875SOL     OW 4170   0.517   2.493   5.621  0.0835 -0.0126  0.3861
  875SOL    HW1 4171   0.521   2.584   5.650 -0.6791 -0.1259  0.8695
  875SOL    HW2 4172   0.497   2.498   5.528 -2.4660  0.3170  0.8864
  876SOL     OW 4173   5.582   2.165   3.889  0.3415 -0.5132  0.0474
  876SOL    HW1 4174   5.523   2.234   3.857  1.2344  0.0346 -0.4431
  876SOL    HW2 4175   5.562   2.158   3.982 -0.8423 -0.6812 -0.2020
  877SOL     OW 4176   3.156   6.168   2.358  0.3734  0.1300  0.2734
  877SOL    HW1 4177   3.063   6.156   2.375 -0.2120  1.6026 -1.4851
  877SOL    HW2 4178   3.168   6.138   2.267  1.4695  0.5449  0.2619
  878SOL     OW 4179   2.772   3.490   4.423 -0.2712 -0.3829  0.0982
  878SOL    HW1 4180   2.805   3.526   4.341  0.4982  0.0342  0.5772
  878SOL    HW2 4181   2.771   3.565   4.483  0.6193 -0.9816  0.8930
  879SOL     OW 4182   2.745   1.299   3.215  0.2029  0.3148 -0.6983
  879SOL    HW1 4183   2.682   1.271   3.149 -2.5102 -0.0526  1.8433
  879SOL    HW2 4184   2.784   1.379   3.179 -1.8875  0.6930 -2.3000
  880SOL     OW 4185   6.357   5.691   3.703  0.0296 -0.0809 -0.6531
  880SOL    HW1 4186   6.409   5.678   3.783 -2.4114 -1.0288  0.8867
  880SOL    HW2 4187   6.325   5.604   3.680 -0.0623  0.3258 -2.1852
  881SOL     OW 4188   3.005   5.214   3.867 -0.2813  0.2203  0.5678
  881SOL    HW1 4189   3.085   5.168   3.843 -0.5254 -1.0649  2.0694
  881SOL    HW2 4190   3.028   5.264   3.945 -1.1139 -0.8996  1.5858
  882SOL     OW 4191   4.226   4.944   3.980 -0.0989 -0.0558 -0.4348
  882SOL    HW1 4192   4.199   4.875   4.041  0.6897 -0.8209 -0.9409
  882SOL    HW2 4193   4.143   4.977   3.945 -0.5307 -0.0717  0.5358
  883SOL     OW 4194   5.926   6.553   2.547 -0.1186  0.5112  0.5777
  883SOL    HW1 4195   6.017   6.568   2.524  0.4812 -0.2433  2.2817
  883SOL    HW2 4196   5.891   6.501   2.475  1.0006  0.1924  0.2422
  884SOL     OW 4197   0.677   3.275   5.633  0.1656  0.1876  0.0275
  884SOL    HW1 4198   0.679   3.371   5.633 -0.0961  0.1998 -0.8711
  884SOL    HW2 4199   0.588   3.253   5.659  0.3898  0.1728  0.8069
  885SOL     OW 4200   6.012   1.192   5.741  0.3669 -0.2276 -0.0601
  885SOL    HW1 4201   6.071   1.168   5.812 -0.0307 -2.3926 -0.3971
  885SOL    HW2 4202   5.945   1.124   5.741  0.1062 -0.0520 -2.2141
  886SOL     OW 4203   6.291   0.929   5.235 -0.2968 -0.0993  0.2631
  886SOL    HW1 4204   6.233   0.997   5.200  0.9824  0.8016 -0.1507
  886SOL    HW2 4205   6.379   0.961   5.218  0.3495 -1.0139  1.7298
  887SOL     OW 4206   6.166   4.817   4.423  0.5258 -0.4156 -0.1960
  887SOL    HW1 4207   6.114   4.804   4.503  0.3298  0.3323 -0.1983
  887SOL    HW2 4208   6.125   4.892   4.380 -0.0034 -1.4212 -1.5131
  888SOL     OW 4209   4.679   5.613   3.227  0.0747 -0.6266 -0.1286
  888SOL    HW1 4210   4.605   5.627   3.285  0.0897  0.5530 -0.3649
  888SOL    HW2 4211   4.707   5.701   3.203  1.5021 -1.0561 -0.1077
  889SOL     OW 4212   6.462   5.702   5.174 -0.2419  0.5639  0.3648
  889SOL    HW1 4213   6.442   5.791   5.145 -0.4676  1.0727  1.9716
  889SOL    HW2 4214   6.436   5.701   5.266 -1.2347 -1.4795  0.1145
  890SOL     OW 4215   5.764   0.089   1.052  0.0010  0.0113  0.4324
  890SOL    HW1 4216   5.696   0.119   1.113 -0.9645  1.9606 -1.4475
  890SOL    HW2 4217   5.750  -0.005   1.045 -2.2727  0.2894  0.4399
  891SOL     OW 4218   2.036   1.991   3.881  0.1389 -0.1140 -0.0856
  891SOL    HW1 4219   2.071   2.013   3.795 -0.5613 -0.4857 -0.4732
  891SOL    HW2 4220   2.021   2.076   3.923  1.7501  0.0557  0.2096
  892SOL     OW 4221   6.150   6.616   1.269  0.0062  0.2314  0.2182
  892SOL    HW1 4222   6.214   6.617   1.340  0.7036  3.9232 -0.2670
  892SOL    HW2 4223   6.185   6.554   1.205  0.9570 -0.8318  1.7186
  893SOL     OW 4224   3.495   4.541   1.733  0.7333  0.1284  0.4888
  893SOL    HW1 4225   3.479   4.473   1.668  2.0677 -1.7909  2.0596
  893SOL    HW2 4226   3.532   4.613   1.683 -1.0808 -0.0739 -1.2880
  894SOL     OW 4227   6.181   5.761   0.360 -0.3350  0.0205  0.4331
  894SOL    HW1 4228   6.198   5.704   0.436 -1.6539 -0.2780  0.5303
  894SOL    HW2 4229   6.125   5.830   0.394 -0.0376  0.5085 -0.0456
  895SOL     OW 4230   6.488   0.782   0.133 -0.0448  0.4238 -0.8126
  895SOL    HW1 4231   6.395   0.767   0.114 -0.0816 -2.0797  0.8643
  895SOL    HW2 4232   6.490   0.868   0.176 -1.8634 -0.2405  0.7235
  896SOL     OW 4233   1.065   2.085   1.578 -0.3891 -0.1418 -0.1149
  896SOL    HW1 4234   1.139   2.045   1.623 -0.3113 -0.2212 -0.3135
  896SOL    HW2 4235   1.092   2.091   1.486  0.0637  1.4080  0.0867
  897SOL     OW 4236   1.480   2.011   5.434  0.5602 -0.0811 -0.0396
  897SOL    HW1 4237   1.405   1.997   5.375  1.1067  0.5466 -0.8989
  897SOL    HW2 4238   1.471   2.102   5.463  0.4072 -0.3250  0.7199
  898SOL     OW 4239   5.199   2.087   5.531  0.6844 -0.4750  0.3452
  898SOL    HW1 4240   5.171   2.170   5.493  2.1092  0.0359  0.3733
  898SOL    HW2 4241   5.209   2.106   5.625  0.3100 -0.8735  0.4677
  899SOL     OW 4242   5.639   3.081   2.549 -0.4054 -0.3220 -0.1352
  899SOL    HW1 4243   5.689   3.020   2.495 -0.2547 -0.2238 -0.1044
  899SOL    HW2 4244   5.630   3.036   2.633  0.8800  0.2705  0.3415
  900SOL     OW 4245   5.632   2.030   1.689  0.4403 -0.0433 -0.6747
  900SOL    HW1 4246   5.538   2.046   1.678  0.4755  0.7434  0.0541
  900SOL    HW2 4247   5.649   1.952   1.637  0.0255  1.6797 -3.6265
  901SOL     OW 4248   3.974   2.977   6.393  0.2798 -0.0789 -0.2189
  901SOL    HW1 4249   3.983   3.032   6.315 -0.6751  0.1999 -0.1416
  901SOL    HW2 4250   3.896   2.924   6.376 -0.4681  0.6169  0.9208
  902SOL     OW 4251   3.050   2.727   3.106 -0.4458  0.2283 -0.1617
  902SOL    HW1 4252   3.061   2.796   3.172 -1.7046  0.2042  0.1088
  902SOL    HW2 4253   3.023   2.773   3.027  0.2096  0.1728 -0.4268
  903SOL     OW 4254   0.121   1.904   4.525  0.2614 -0.4721  0.1208
  903SOL    HW1 4255   0.162   1.830   4.482 -0.9862 -0.6042 -0.9035
  903SOL    HW2 4256   0.160   1.981   4.483  2.1670 -0.4714  1.7540
  904SOL     OW 4257   2.970   5.101   3.345 -0.0838 -0.6432  0.5431
  904SOL    HW1 4258   2.995   5.010   3.360  0.9747 -0.4392  0.0813
  904SOL    HW2 4259   2.948   5.105   3.252  0.2074 -0.3585  0.4854
  905SOL     OW 4260   4.035   3.796   6.207  0.3101  0.2782 -0.0742
  905SOL    HW1 4261   4.013   3.711   6.170 -2.9124  0.5151  0.9644
  905SOL    HW2 4262   4.009   3.859   6.140  2.2934  0.5137 -0.6719
  906SOL     OW 4263   0.019   6.003   4.581 -0.3567 -0.1981  0.0313
  906SOL    HW1 4264   0.061   6.050   4.653 -0.0548 -1.9216  1.0464
  906SOL    HW2 4265  -0.052   6.060   4.552  0.3703  1.1283  0.7747
  907SOL     OW 4266   0.510   0.676   4.442 -0.4633  0.2698  0.2096
  907SOL    HW1 4267   0.567   0.705   4.371 -1.3174 -0.2939 -0.7265
  907SOL    HW2 4268   0.569   0.635   4.506  0.1527 -0.6254 -0.9087
  908SOL     OW 4269   5.272   1.922   6.404  0.6084  0.0825  0.2010
  908SOL    HW1 4270   5.294   1.871   6.482  0.3810 -0.8618 -0.3367
  908SOL    HW2 4271   5.348   1.978   6.389  1.1272 -0.5347  0.4654
  909SOL     OW 4272   6.426   0.410   6.736 -0.0748  0.2476  1.1708
  909SOL    HW1 4273   6.344   0.438   6.695  0.7488  1.7203  0.4420
  909SOL    HW2 4274   6.443   0.324   6.699  0.1001  1.0901 -0.8341
  910SOL     OW 4275   6.056   4.102   1.721  0.2218 -0.5836  0.1310
  910SOL    HW1 4276   6.064   4.033   1.655 -0.0398 -1.5775  1.1219
  910SOL    HW2 4277   6.068   4.183   1.671  0.7218 -1.3349 -1.0205
  911SOL     OW 4278   3.721   3.572   2.716 -0.5918  0.1098 -0.3183
  911SOL    HW1 4279   3.704   3.524   2.635 -1.6725  0.5636 -0.3667
  911SOL    HW2 4280   3.768   3.650   2.688 -2.3505  1.0688 -0.7225
  912SOL     OW 4281   6.045   4.783   0.208  0.1000  0.0304  0.2281
  912SOL    HW1 4282   6.053   4.804   0.115 -2.1216 -1.6509 -0.4286
  912SOL    HW2 4283   6.058   4.688   0.212  0.1428  0.0703  1.6604
  913SOL     OW 4284   4.908   5.886   4.805  0.6986  0.1459 -0.5516
  913SOL    HW1 4285   4.948   5.900   4.719  1.4910  0.2200 -0.1705
  913SOL    HW2 4286   4.820   5.854   4.784  0.6615  0.7421 -1.3977
  914SOL     OW 4287   6.718   2.035   6.567  0.7647 -0.0565  0.4275
  914SOL    HW1 4288   6.640   2.081   6.599 -2.1476 -2.1528 -2.8898
  914SOL    HW2 4289   6.772   2.104   6.529 -1.0854  1.2021 -0.0613
  915SOL     OW 4290   4.837   2.754   2.348 -0.1832  0.3200  0.7038
  915SOL    HW1 4291   4.782   2.818   2.302 -0.8560  0.3758  1.5695
  915SOL    HW2 4292   4.775   2.689   2.381  0.3710 -0.1053  0.9162
  916SOL     OW 4293   3.345   5.720   3.317 -0.1135 -0.0552  0.1977
  916SOL    HW1 4294   3.387   5.802   3.342 -0.9193  0.7382 -0.8919
  916SOL    HW2 4295   3.401   5.684   3.249 -1.4783  1.4056 -1.8310
  917SOL     OW 4296   4.404   5.739   1.594 -0.5515 -0.2731 -0.6577
  917SOL    HW1 4297   4.469   5.774   1.533  0.6928 -0.7832  0.3361
  917SOL    HW2 4298   4.441   5.754   1.681 -1.4824 -1.1237 -0.0826
  918SOL     OW 4299   0.853   6.654   1.260 -0.0030  1.1513 -0.6701
  918SOL    HW1 4300   0.872   6.700   1.341 -0.1483 -0.0838  0.0950
  918SOL    HW2 4301   0.931   6.602   1.242 -0.7721 -0.2488 -0.1154
  919SOL     OW 4302   4.856   2.105   4.440 -0.0577  0.6244  1.0507
  919SOL    HW1 4303   4.909   2.172   4.482 -1.3236  0.6567  2.7052
  919SOL    HW2 4304   4.884   2.023   4.481  0.0386  0.3976  0.5440
  920SOL     OW 4305   0.762   6.436   5.588  0.3389 -0.5999  0.0704
  920SOL    HW1 4306   0.742   6.527   5.613 -1.8532 -0.7037 -0.9993
  920SOL    HW2 4307   0.702   6.384   5.641 -0.7615 -1.1559 -1.6469
  921SOL     OW 4308   1.337   3.207   2.137  0.8014 -0.1526  0.4812
  921SOL    HW1 4309   1.417   3.164   2.167  2.9125  1.6087 -2.1727
  921SOL    HW2 4310   1.366   3.291   2.101 -2.7532  2.5227  3.0346
  922SOL     OW 4311   5.146   2.427   3.181 -0.5405  0.7332 -0.4571
  922SOL    HW1 4312   5.190   2.447   3.098  1.2333 -1.5581 -0.1452
  922SOL    HW2 4313   5.192   2.480   3.246 -0.2558  0.6208 -0.5680
  923SOL     OW 4314   6.731   1.755   6.714 -0.2429 -0.3310 -0.1661
  923SOL    HW1 4315   6.749   1.668   6.750  1.0222  0.4513  1.1941
  923SOL    HW2 4316   6.648   1.781   6.755  0.0362 -0.3759  0.4345
  924SOL     OW 4317   5.418   2.762   4.957  0.2473  0.1759 -0.0536
  924SOL    HW1 4318   5.402   2.672   4.986  0.2224 -0.0450 -0.7347
  924SOL    HW2 4319   5.409   2.815   5.036 -0.6708 -0.3114  0.1814
  925SOL     OW 4320   6.185   6.154   5.133  0.3708  0.1524  0.3224
  925SOL    HW1 4321   6.133   6.208   5.193  0.7854 -0.2761  1.0801
  925SOL    HW2 4322   6.218   6.216   5.068  0.4471  0.7369  0.9025
  926SOL     OW 4323   2.817   0.038   0.478 -0.0644 -0.0004 -0.6585
  926SOL    HW1 4324   2.807   0.060   0.571 -1.5077 -0.5828 -0.6489
  926SOL    HW2 4325   2.751   0.091   0.434 -1.7651 -2.1859 -0.9298
  927SOL     OW 4326   2.347   3.736   3.414 -0.1008  0.7390  0.1009
  927SOL    HW1 4327   2.431   3.778   3.397  0.8450 -1.5177 -1.3387
  927SOL    HW2 4328   2.327   3.757   3.505  0.5290  3.7339 -0.3476
  928SOL     OW 4329   4.671   3.367   6.622  0.1303 -0.1693 -0.2593
  928SOL    HW1 4330   4.681   3.385   6.715  0.7007 -2.9314  0.3133
  928SOL    HW2 4331   4.645   3.275   6.618 -1.8557  0.3865 -2.7959
  929SOL     OW 4332   5.087   4.266   2.788  0.1288  0.6410  0.1768
  929SOL    HW1 4333   5.002   4.304   2.767  0.1985  1.3377  1.1053
  929SOL    HW2 4334   5.115   4.311   2.868  1.2002  0.1552  0.0972
  930SOL     OW 4335   3.499   5.163   2.299 -0.4058 -0.1943 -0.6056
  930SOL    HW1 4336   3.526   5.244   2.345 -2.6520  0.5320 -0.4397
  930SOL    HW2 4337   3.512   5.183   2.207  0.4918 -0.2235 -0.4939
  931SOL     OW 4338   3.121   3.575   4.147 -0.0028 -0.0266 -0.4055
  931SOL    HW1 4339   3.214   3.580   4.172  1.1463 -4.0591 -2.8849
  931SOL    HW2 4340   3.119   3.608   4.057 -0.9996  0.0099 -0.3714
  932SOL     OW 4341   3.058   5.673   1.258 -0.4565  0.2457  0.2411
  932SOL    HW1 4342   3.022   5.758   1.233 -0.0674  0.8569  1.6548
  932SOL    HW2 4343   3.001   5.642   1.328 -0.1755 -0.3380  0.2226
  933SOL     OW 4344   5.259   3.442   3.934 -0.2182  0.2524 -0.4084
  933SOL    HW1 4345   5.207   3.450   4.014 -0.3366  0.4802 -0.5089
  933SOL    HW2 4346   5.223   3.364   3.891 -0.8881  0.7520 -0.7765
  934SOL     OW 4347   5.027   0.222   4.938  0.4003 -0.2510  0.2851
  934SOL    HW1 4348   4.954   0.282   4.951  0.6211 -0.0558  0.6421
  934SOL    HW2 4349   5.055   0.199   5.026 -0.7902 -2.2567  0.1915
  935SOL     OW 4350   5.642   1.137   1.731  0.0114 -0.5092 -0.1336
  935SOL    HW1 4351   5.735   1.140   1.710 -0.1144  0.7374 -0.5710
  935SOL    HW2 4352   5.638   1.099   1.819  0.9976  0.3104  0.2739
  936SOL     OW 4353   0.497   1.705   4.887 -0.3700 -0.4119 -0.1385
  936SOL    HW1 4354   0.404   1.690   4.902 -0.4841  0.6562  0.2830
  936SOL    HW2 4355   0.504   1.797   4.863  0.5515 -0.5324 -0.3897
  937SOL     OW 4356   6.255   6.451   1.050 -0.9022  0.0637  0.2776
  937SOL    HW1 4357   6.281   6.532   1.006 -1.7461  0.5988  0.7472
  937SOL    HW2 4358   6.335   6.419   1.091 -0.0049 -0.5972 -1.8293
  938SOL     OW 4359   4.456   2.167   2.119 -0.1267 -0.1773  0.2979
  938SOL    HW1 4360   4.380   2.217   2.148  0.0251  0.3432 -0.1702
  938SOL    HW2 4361   4.427   2.076   2.118 -0.5224 -0.0590  0.8045
  939SOL     OW 4362   3.556   0.213   0.341 -0.3052 -0.3276 -0.2781
  939SOL    HW1 4363   3.596   0.224   0.255  0.6279  1.0534  0.3025
  939SOL    HW2 4364   3.507   0.294   0.355 -0.5309 -0.5839  0.4576
  940SOL     OW 4365   4.695   2.474   0.669  0.5583 -0.2106  0.3023
  940SOL    HW1 4366   4.759   2.509   0.607  0.5095 -0.1539  0.2837
  940SOL    HW2 4367   4.646   2.551   0.699 -0.7808 -0.4586 -1.1357
  941SOL     OW 4368   6.631   6.784   2.083 -0.5909  0.1716  0.4237
  941SOL    HW1 4369   6.630   6.839   2.004  0.6691  0.6423  0.7178
  941SOL    HW2 4370   6.568   6.715   2.064 -0.8082  0.6558 -0.7234
  942SOL     OW 4371   2.818   1.930   0.241 -0.1148 -0.0203 -0.3132
  942SOL    HW1 4372   2.739   1.885   0.274  0.6536 -0.8139  0.5055
  942SOL    HW2 4373   2.853   1.976   0.317  0.6008 -0.2518 -0.4942
  943SOL     OW 4374   6.061   5.223   3.516  0.3708  0.3277  0.7230
  943SOL    HW1 4375   5.969   5.228   3.543  0.6166  0.8496  1.5054
  943SOL    HW2 4376   6.076   5.129   3.501 -0.5833  0.3446 -0.5422
  944SOL     OW 4377   1.119   4.426   1.444 -0.3677  0.2154  0.2932
  944SOL    HW1 4378   1.187   4.359   1.446  0.1802  0.7845  1.5264
  944SOL    HW2 4379   1.096   4.433   1.351  0.3579 -0.8666  0.0089
  945SOL     OW 4380   3.982   6.684   3.468  0.7310  0.6941  0.6701
  945SOL    HW1 4381   3.983   6.770   3.427  2.6131  1.9645  3.1179
  945SOL    HW2 4382   3.918   6.692   3.539 -0.7334 -0.6980 -0.4261
  946SOL     OW 4383   1.674   6.742   1.556 -0.1447  0.4920  0.1996
  946SOL    HW1 4384   1.693   6.652   1.531  2.6183  1.3522 -1.2642
  946SOL    HW2 4385   1.684   6.744   1.651 -0.5123 -0.7570  0.2793
  947SOL     OW 4386   6.454   0.575   2.381 -0.1362  0.5029 -0.0843
  947SOL    HW1 4387   6.461   0.484   2.352 -1.9886  0.4743 -0.5745
  947SOL    HW2 4388   6.478   0.626   2.304 -0.7153  0.4179 -0.3271
  948SOL     OW 4389   3.058   3.075   4.831 -0.1722  0.2686  0.1420
  948SOL    HW1 4390   3.042   3.169   4.829 -1.9707  0.0041 -1.6471
  948SOL    HW2 4391   3.060   3.050   4.738  1.0747 -1.3588  0.5644
  949SOL     OW 4392   1.243   2.752   1.787  0.2313  0.5741 -1.1303
  949SOL    HW1 4393   1.218   2.789   1.872  1.4767 -1.9047  0.4348
  949SOL    HW2 4394   1.336   2.774   1.778  1.4758 -3.1727  0.6250
  950SOL     OW 4395   4.025   1.701   5.310 -0.1334 -0.3395 -0.0290
  950SOL    HW1 4396   3.945   1.653   5.332 -0.6726 -0.2888 -1.7444
  950SOL    HW2 4397   4.011   1.731   5.220  1.0579  1.2584  0.2825
  951SOL     OW 4398   1.454   6.719   1.915  0.3402 -0.5463  0.0828
  951SOL    HW1 4399   1.448   6.631   1.877  0.8787 -1.0159  1.0174
  951SOL    HW2 4400   1.548   6.730   1.933  0.3231  0.3795 -0.3734
  952SOL     OW 4401   2.330   6.362   1.622 -0.6540 -0.1986 -0.2259
  952SOL    HW1 4402   2.353   6.327   1.709 -1.1937 -1.0850 -0.4266
  952SOL    HW2 4403   2.279   6.292   1.582 -0.9177  0.4555 -1.0310
  953SOL     OW 4404   1.191   5.956   3.405  0.3712 -0.2031  0.2717
  953SOL    HW1 4405   1.138   6.032   3.431 -0.4096 -1.2483  1.8992
  953SOL    HW2 4406   1.259   5.950   3.472  0.7315 -0.6530 -0.1267
  954SOL     OW 4407   6.792   3.810   0.784  0.2076 -0.3890  0.1297
  954SOL    HW1 4408   6.742   3.891   0.772  1.2422  0.1991 -0.3385
  954SOL    HW2 4409   6.881   3.840   0.805  0.3720 -1.4121  0.9778
  955SOL     OW 4410   6.193   3.906   5.542  0.6720 -0.2777 -0.0197
  955SOL    HW1 4411   6.214   3.870   5.456 -0.8201  1.2994 -1.1258
  955SOL    HW2 4412   6.246   3.856   5.603 -1.3322 -4.4553 -1.3475
  956SOL     OW 4413   3.389   5.327   5.027  0.1530 -0.3202  0.2189
  956SOL    HW1 4414   3.472   5.375   5.031  0.2828 -0.3731 -1.2445
  956SOL    HW2 4415   3.413   5.236   5.046  0.0808 -0.0171  1.8785
  957SOL     OW 4416   0.903   4.500   1.862  0.8443 -0.2233 -0.6045
  957SOL    HW1 4417   0.930   4.528   1.774 -2.8613  0.3543 -1.7484
  957SOL    HW2 4418   0.894   4.405   1.854 -1.1220 -0.0194 -1.4996
  958SOL     OW 4419   3.895   1.833   0.375 -0.0231 -0.4346 -0.4700
  958SOL    HW1 4420   3.824   1.843   0.438  1.8981 -0.6734  1.9027
  958SOL    HW2 4421   3.872   1.757   0.323 -1.8196 -0.0798 -0.2346
  959SOL     OW 4422   6.282   1.983   1.298  0.5133  0.0268  0.3524
  959SOL    HW1 4423   6.255   2.021   1.382 -0.7408 -0.9415  0.4297
  959SOL    HW2 4424   6.316   1.896   1.321 -2.8470 -1.6462 -0.3068
  960SOL     OW 4425   3.648   1.919   6.272  0.4322  0.1303  0.1930
  960SOL    HW1 4426   3.726   1.878   6.234  0.8087  0.0879  0.9973
  960SOL    HW2 4427   3.599   1.950   6.196  0.2942 -1.5105 -0.4411
  961SOL     OW 4428   2.823   6.040   3.536 -0.0933 -0.2632  0.6133
  961SOL    HW1 4429   2.875   5.976   3.487 -1.1532  0.2388 -1.3043
  961SOL    HW2 4430   2.855   6.034   3.626  0.6013 -2.6785  0.2756
  962SOL     OW 4431   6.773   0.348   5.089  0.4809  0.1494  0.2559
  962SOL    HW1 4432   6.786   0.347   5.183  0.9169 -0.5619  0.1991
  962SOL    HW2 4433   6.714   0.421   5.073 -1.5541 -1.1675  1.3301
  963SOL     OW 4434   4.780   1.596   0.553 -0.4758 -0.5187  0.0874
  963SOL    HW1 4435   4.752   1.504   0.559  0.0011 -0.6574  0.2139
  963SOL    HW2 4436   4.851   1.594   0.488 -1.5435  0.0136 -1.1418
  964SOL     OW 4437   4.920   0.374   0.554 -0.6231 -0.0957  0.0837
  964SOL    HW1 4438   4.828   0.380   0.581 -0.5877  2.0241 -0.1317
  964SOL    HW2 4439   4.954   0.463   0.561  0.3235  0.0355 -3.6948
  965SOL     OW 4440   1.429   3.771   4.137  0.1952  0.0940 -0.3458
  965SOL    HW1 4441   1.359   3.722   4.179 -0.0345  1.1196  0.5052
  965SOL    HW2 4442   1.489   3.703   4.104 -0.1028 -0.7631  0.8014
  966SOL     OW 4443   1.023   1.185   2.515  0.1252  0.4150 -0.0679
  966SOL    HW1 4444   1.101   1.143   2.552  1.0325  1.7364 -0.3791
  966SOL    HW2 4445   1.056   1.267   2.478 -1.2108  0.4167 -1.3477
  967SOL     OW 4446   3.766   2.396   0.050 -0.2223 -0.0509 -0.1082
  967SOL    HW1 4447   3.782   2.360   0.137 -1.6248 -1.3250 -0.3299
  967SOL    HW2 4448   3.728   2.323   0.001 -1.3200  1.2002 -1.2019
  968SOL     OW 4449   4.810   1.095   3.436  0.1237 -1.0779  0.3376
  968SOL    HW1 4450   4.735   1.084   3.377  0.3071  0.9887 -0.3467
  968SOL    HW2 4451   4.885   1.073   3.381  0.1666 -0.9332  0.3382
  969SOL     OW 4452   0.906   6.241   1.272 -0.1130  0.1448  0.2033
  969SOL    HW1 4453   0.899   6.155   1.315 -0.2073  0.4223  0.7549
  969SOL    HW2 4454   0.817   6.276   1.275  0.0696  0.5922  0.6906
  970SOL     OW 4455   3.382   6.233   3.118 -0.4670  0.2871 -0.1509
  970SOL    HW1 4456   3.420   6.205   3.201  1.0038 -1.5368 -1.3702
  970SOL    HW2 4457   3.427   6.315   3.097  1.4785 -0.8298 -0.6018
  971SOL     OW 4458   6.498   6.165   6.183  0.0482  0.5553  0.2872
  971SOL    HW1 4459   6.547   6.157   6.101 -2.7197 -1.3407 -1.3783
  971SOL    HW2 4460   6.553   6.122   6.249  1.1476 -0.4517 -1.2156
  972SOL     OW 4461   5.738   5.339   4.661  0.8796  0.2527 -0.3309
  972SOL    HW1 4462   5.724   5.255   4.705  0.9988  0.6071  0.4004
  972SOL    HW2 4463   5.677   5.399   4.704  1.2579  0.6915 -0.3979
  973SOL     OW 4464   6.580   3.750   3.327 -0.4636  0.3399  0.2821
  973SOL    HW1 4465   6.495   3.769   3.368 -3.5172  1.1046 -5.3867
  973SOL    HW2 4466   6.605   3.833   3.286  1.0624 -0.8220 -1.2351
  974SOL     OW 4467   6.080   1.350   6.183  0.0863 -0.4799  0.3935
  974SOL    HW1 4468   5.995   1.315   6.156  0.3322 -0.3201 -0.6181
  974SOL    HW2 4469   6.141   1.278   6.166  0.3218 -0.1966  0.0481
  975SOL     OW 4470   6.193   6.694   2.951  0.4057 -0.0686  0.3722
  975SOL    HW1 4471   6.267   6.641   2.980 -0.5517 -1.7402 -0.0563
  975SOL    HW2 4472   6.131   6.630   2.915 -0.5936  1.4292 -0.6744
  976SOL     OW 4473   6.462   2.077   5.621 -0.0286  0.4107 -0.4656
  976SOL    HW1 4474   6.500   2.035   5.699  0.4998  0.4883 -0.6841
  976SOL    HW2 4475   6.520   2.150   5.601  0.0465  0.1688 -1.1571
  977SOL     OW 4476   6.003   1.182   0.629  0.3746  0.1380 -0.8993
  977SOL    HW1 4477   6.080   1.238   0.620  0.1201  0.1587 -3.7108
  977SOL    HW2 4478   5.936   1.240   0.667  2.4947 -0.8152  5.6027
  978SOL     OW 4479   4.413   0.501   1.788 -0.1776 -0.1802  0.6963
  978SOL    HW1 4480   4.329   0.526   1.828 -1.4931 -2.1260 -0.6599
  978SOL    HW2 4481   4.388   0.458   1.706  2.2530  0.5922 -0.5319
  979SOL     OW 4482   2.119   0.978   0.518 -0.4892 -0.2213 -0.3525
  979SOL    HW1 4483   2.130   1.012   0.429 -0.0980  3.0068  0.7846
  979SOL    HW2 4484   2.028   0.999   0.541 -0.0735  0.6674  0.5781
  980SOL     OW 4485   1.680   2.401   4.058  0.2136  0.7129  0.0893
  980SOL    HW1 4486   1.632   2.329   4.018 -2.3431  1.7691  1.0362
  980SOL    HW2 4487   1.732   2.361   4.127 -1.3680 -0.2409  0.7710
  981SOL     OW 4488   2.020   6.367   5.577  0.3948  0.3769  0.1547
  981SOL    HW1 4489   1.971   6.427   5.634  0.2439  1.4357 -1.0502
  981SOL    HW2 4490   2.049   6.422   5.504  1.5372 -0.7081 -0.2405
  982SOL     OW 4491   4.381   0.676   3.470 -0.1956  0.1515  0.1650
  982SOL    HW1 4492   4.287   0.687   3.460 -0.2353 -1.3895 -1.7692
  982SOL    HW2 4493   4.419   0.754   3.429 -0.6246  0.0636 -0.4219
  983SOL     OW 4494   2.166   0.672   6.367  0.5394  0.6790  0.0133
  983SOL    HW1 4495   2.231   0.695   6.433 -0.8856  0.3359  1.6251
  983SOL    HW2 4496   2.207   0.693   6.284  3.4890 -1.3536  0.7775
  984SOL     OW 4497   3.917   2.255   2.709 -0.3124 -0.1637 -0.2698
  984SOL    HW1 4498   3.976   2.194   2.752 -0.0414 -0.3987 -0.9599
  984SOL    HW2 4499   3.854   2.200   2.663  0.1547  0.0589 -1.2001
  985SOL     OW 4500   1.668   1.384   1.327 -0.1000 -0.6618 -0.2829
  985SOL    HW1 4501   1.733   1.325   1.288 -1.4945 -3.0240  0.7267
  985SOL    HW2 4502   1.585   1.336   1.319 -1.0266  0.3838  2.1724
  986SOL     OW 4503   1.166   1.295   0.904  0.4806 -0.5492 -0.6068
  986SOL    HW1 4504   1.141   1.204   0.892 -0.6773 -0.0528 -2.3996
  986SOL    HW2 4505   1.108   1.344   0.845  2.5563  1.1273 -1.3978
  987SOL     OW 4506   3.443   0.432   0.451 -0.4630  0.2277  0.1933
  987SOL    HW1 4507   3.456   0.487   0.528 -1.2767 -0.8547  1.1498
  987SOL    HW2 4508   3.350   0.408   0.455  0.2325 -2.7303  0.9058
  988SOL     OW 4509   4.531   0.363   0.896  0.0373  0.0633 -0.8194
  988SOL    HW1 4510   4.607   0.420   0.891 -0.4124  0.9201  1.1092
  988SOL    HW2 4511   4.489   0.387   0.979 -0.3358 -2.8687 -0.0551
  989SOL     OW 4512   4.713   4.585   2.340 -0.1016  0.5343  0.4346
  989SOL    HW1 4513   4.805   4.559   2.347  0.1806  1.7214  1.3582
  989SOL    HW2 4514   4.668   4.506   2.310  1.4137  0.2929 -1.4507
  990SOL     OW 4515   3.256   6.083   0.258 -0.1147  0.0744 -0.3347
  990SOL    HW1 4516   3.180   6.133   0.227  1.1173  2.1186 -0.2957
  990SOL    HW2 4517   3.257   6.097   0.353  1.0975  1.3429 -0.4955
  991SOL     OW 4518   3.458   4.098   1.176 -0.0897  0.0118 -0.6997
  991SOL    HW1 4519   3.377   4.082   1.126 -0.1505 -1.7585 -0.0736
  991SOL    HW2 4520   3.506   4.016   1.171  0.7046  0.3688  0.7073
  992SOL     OW 4521   6.220   5.554   5.262 -0.9607 -0.0439  0.1559
  992SOL    HW1 4522   6.256   5.622   5.318  0.3481 -1.0083  0.5114
  992SOL    HW2 4523   6.273   5.476   5.279 -2.2857 -1.1261 -0.3845
  993SOL     OW 4524   2.061   6.557   2.602 -0.2509 -0.7621 -0.1561
  993SOL    HW1 4525   1.966   6.564   2.589  0.0181  0.6556 -1.7084
  993SOL    HW2 4526   2.090   6.496   2.535  0.2965  1.4069 -2.0366
  994SOL     OW 4527   1.236   4.120   0.937 -0.6401  0.1691  0.8105
  994SOL    HW1 4528   1.252   4.038   0.983 -1.2112  0.8674  2.3178
  994SOL    HW2 4529   1.308   4.177   0.965  0.4132 -0.1261 -1.1152
  995SOL     OW 4530   5.927   1.044   2.475 -1.1447 -0.5504  0.5525
  995SOL    HW1 4531   5.878   0.978   2.426  1.8932 -2.1288 -0.6104
  995SOL    HW2 4532   5.942   1.003   2.561 -1.0861 -0.4611  0.5843
  996SOL     OW 4533   4.575   6.589   1.773  0.2269 -0.1478  0.3322
  996SOL    HW1 4534   4.592   6.625   1.686 -0.9742  0.8229  0.4703
  996SOL    HW2 4535   4.598   6.660   1.833  1.2451 -0.8826  0.8425
  997SOL     OW 4536   3.857   2.993   5.797 -0.3642  0.5750 -0.0124
  997SOL    HW1 4537   3.925   3.060   5.796  0.3864 -0.1121  1.5311
  997SOL    HW2 4538   3.777   3.040   5.774  0.2279  1.9025  0.5464
  998SOL     OW 4539   6.768   1.182   6.733  0.2158 -0.2286  0.1529
  998SOL    HW1 4540   6.861   1.200   6.732  0.1912 -0.1077 -0.1504
  998SOL    HW2 4541   6.749   1.154   6.823  0.8089 -1.6127 -0.1289
  999SOL     OW 4542   2.678   1.972   1.431 -0.0720  0.2229  0.4955
  999SOL    HW1 4543   2.639   1.968   1.519  0.4180  1.1285  0.7618
  999SOL    HW2 4544   2.616   2.024   1.380 -0.7631 -0.9623  0.0588
 1000SOL     OW 4545   1.221   5.188   4.425  0.6283  0.3707  0.2274
 1000SOL    HW1 4546   1.291   5.123   4.438 -0.0128 -0.6042 -1.0057
 1000SOL    HW2 4547   1.160   5.146   4.365 -1.3118  1.0019  1.6595
 1001SOL     OW 4548   1.067   3.135   3.931 -0.1702  0.4842  0.1267
 1001SOL    HW1 4549   1.034   3.097   3.849  0.9329  1.0406 -0.6028
 1001SOL    HW2 4550   1.160   3.115   3.930 -0.0162  1.1511  0.8927
 1002SOL     OW 4551   2.696   3.896   1.268 -0.0733  0.0162  0.1358
 1002SOL    HW1 4552   2.707   3.801   1.264 -0.1244  0.0507 -1.0786
 1002SOL    HW2 4553   2.769   3.926   1.323 -0.8343 -0.8263  1.6745
 1003SOL     OW 4554   4.302   0.092   4.082  0.2931 -0.2601  0.1344
 1003SOL    HW1 4555   4.382   0.145   4.082 -0.4364  0.9060 -0.6994
 1003SOL    HW2 4556   4.232   0.155   4.066 -0.6220 -1.4939 -0.9379
 1004SOL     OW 4557   4.681   0.792   6.529  0.0029 -0.7792  0.6432
 1004SOL    HW1 4558   4.719   0.852   6.593 -2.3492 -2.3060  3.7009
 1004SOL    HW2 4559   4.720   0.707   6.548  2.8438 -0.6428 -3.2554
 1005SOL     OW 4560   3.020   6.782   4.621 -0.5439  0.2356 -0.5268
 1005SOL    HW1 4561   3.014   6.773   4.716  2.4142 -0.0181 -0.2690
 1005SOL    HW2 4562   3.055   6.699   4.591 -2.1183  0.0445 -1.9893
 1006SOL     OW 4563   0.097   4.667   1.461 -0.7095  0.1451 -0.6202
 1006SOL    HW1 4564   0.118   4.660   1.367  0.1014  1.5780 -0.5647
 1006SOL    HW2 4565   0.165   4.613   1.503 -1.0082 -0.4132 -0.8357
 1007SOL     OW 4566   0.399   6.253   1.959  0.4294 -0.2159 -0.3588
 1007SOL    HW1 4567   0.435   6.341   1.974  2.4551 -0.9364 -0.6400
 1007SOL    HW2 4568   0.428   6.230   1.870 -0.3408 -1.0568 -0.4102
 1008SOL     OW 4569   2.081   3.192   0.374 -0.7912  0.1577 -0.5266
 1008SOL    HW1 4570   2.072   3.102   0.341 -0.4619 -0.0507 -0.0617
 1008SOL    HW2 4571   2.064   3.185   0.468  0.9361  0.2819 -0.1718
 1009SOL     OW 4572   4.328   2.163   5.651  0.2264  0.0120  0.2402
 1009SOL    HW1 4573   4.347   2.084   5.601 -1.8382  0.4331 -1.3500
 1009SOL    HW2 4574   4.283   2.132   5.730  0.1397 -0.4388  0.0139
 1010SOL     OW 4575   3.937   2.695   1.489  0.4958 -0.4944  0.2367
 1010SOL    HW1 4576   3.884   2.746   1.551 -0.7972 -0.9217 -0.4596
 1010SOL    HW2 4577   3.980   2.760   1.435  0.2552 -0.1269  0.4806
 1011SOL     OW 4578   5.259   3.006   3.876  0.3964 -0.7300  0.3507
 1011SOL    HW1 4579   5.330   2.944   3.865  0.8612 -0.0328 -0.6645
 1011SOL    HW2 4580   5.242   3.006   3.971  2.5395 -0.0241  0.7710
 1012SOL     OW 4581   4.378   4.169   4.716  0.2420  0.4421  0.1704
 1012SOL    HW1 4582   4.406   4.175   4.625  0.6064  2.6858  0.3881
 1012SOL    HW2 4583   4.458   4.181   4.767 -0.0422 -0.2781  0.8143
 1013SOL     OW 4584   4.348   3.782   3.475 -0.4614  0.4376 -0.1005
 1013SOL    HW1 4585   4.316   3.748   3.559  3.0654 -0.5165  1.0144
 1013SOL    HW2 4586   4.310   3.723   3.410  0.9948 -2.2632  1.3422
 1014SOL     OW 4587   4.915   0.016   6.360 -0.1594  1.1936 -0.1751
 1014SOL    HW1 4588   4.997   0.034   6.406  0.4670  0.3028 -0.8891
 1014SOL    HW2 4589   4.921   0.070   6.281  0.1179  0.5364 -0.6128
 1015SOL     OW 4590   5.966   3.084   1.368 -0.2105 -0.2584 -0.0718
 1015SOL    HW1 4591   6.000   3.062   1.281 -0.5370 -0.5591 -0.1222
 1015SOL    HW2 4592   5.871   3.076   1.360 -0.3545  1.1693 -0.0947
 1016SOL     OW 4593   5.981   2.189   4.139 -0.1312 -0.2100  0.1281
 1016SOL    HW1 4594   5.991   2.242   4.060  2.8719  1.4304  1.4516
 1016SOL    HW2 4595   5.895   2.213   4.174  0.0191  1.7542 -0.7465
 1017SOL     OW 4596   3.463   2.391   0.390 -0.0704  0.6737  0.0252
 1017SOL    HW1 4597   3.436   2.344   0.469 -1.2088  0.0580 -0.7016
 1017SOL    HW2 4598   3.458   2.326   0.320 -0.8829  1.6561 -0.8656
 1018SOL     OW 4599   0.127   3.285   0.955  0.2145 -0.1172 -0.2045
 1018SOL    HW1 4600   0.191   3.264   1.023 -0.2504 -0.8822  0.0101
 1018SOL    HW2 4601   0.053   3.323   1.003  0.6895  1.2303 -0.5013
 1019SOL     OW 4602   4.112   0.994   3.600  0.3794  0.3499 -0.3013
 1019SOL    HW1 4603   4.177   0.952   3.656  1.1612 -0.4037 -1.7168
 1019SOL    HW2 4604   4.033   0.998   3.653  1.2987  0.3705  1.1121
 1020SOL     OW 4605   5.089   1.322   5.713 -0.2893  0.0656 -0.3633
 1020SOL    HW1 4606   5.155   1.358   5.773  0.8747 -0.3246 -1.3566
 1020SOL    HW2 4607   5.044   1.255   5.764  2.0615 -1.7270 -0.4460
 1021SOL     OW 4608   3.376   1.592   4.401  0.2343 -0.1226  0.0959
 1021SOL    HW1 4609   3.352   1.577   4.309  0.1424  0.2207  0.0640
 1021SOL    HW2 4610   3.427   1.673   4.400  1.2584 -0.7431  0.1888
 1022SOL     OW 4611   1.969   1.732   0.162  0.3655 -0.6039  0.1840
 1022SOL    HW1 4612   2.060   1.754   0.181 -0.3771  1.5543  1.6777
 1022SOL    HW2 4613   1.930   1.816   0.136 -1.2444 -1.4704 -0.2902
 1023SOL     OW 4614   2.023   5.204   5.411  0.2995  0.0362  0.8103
 1023SOL    HW1 4615   1.965   5.160   5.473 -0.0663 -0.6542 -0.0123
 1023SOL    HW2 4616   1.982   5.289   5.396 -0.4533 -0.4124  0.3027
 1024SOL     OW 4617   5.069   1.608   3.814  0.1942  0.5544 -0.0688
 1024SOL    HW1 4618   4.993   1.554   3.794  0.4766  0.5425 -1.1276
 1024SOL    HW2 4619   5.092   1.583   3.904 -1.3879  0.9749  0.4923
 1025SOL     OW 4620   0.269   0.485   3.256  0.1372  0.2867 -0.3977
 1025SOL    HW1 4621   0.321   0.421   3.208 -0.4541 -2.0504  1.7935
 1025SOL    HW2 4622   0.187   0.490   3.208  0.8511  0.8484 -1.6011
 1026SOL     OW 4623   3.003   4.566   4.197  0.1604 -0.6414 -0.5981
 1026SOL    HW1 4624   2.925   4.530   4.154 -0.1541 -0.9899  0.2353
 1026SOL    HW2 4625   3.075   4.545   4.138  0.0392 -2.9849 -0.0244
 1027SOL     OW 4626   0.482   0.905   1.324 -0.2328  0.5203  0.4731
 1027SOL    HW1 4627   0.502   0.896   1.231  1.1829  2.4060  0.5324
 1027SOL    HW2 4628   0.564   0.884   1.368 -0.7770  0.0486  1.2796
 1028SOL     OW 4629   1.623   5.541   2.222 -0.0472 -0.8279 -0.3325
 1028SOL    HW1 4630   1.532   5.516   2.204 -0.4976  0.8602 -0.5876
 1028SOL    HW2 4631   1.661   5.464   2.264 -2.2589 -0.7907  1.9788
 1029SOL     OW 4632   3.608   6.489   1.136  0.4065  0.0163  0.2858
 1029SOL    HW1 4633   3.575   6.579   1.136 -0.0678 -0.0350 -3.3213
 1029SOL    HW2 4634   3.558   6.444   1.069  2.5351 -2.1983  0.0241
 1030SOL     OW 4635   1.137   6.582   6.223 -0.0620  0.0684  0.2229
 1030SOL    HW1 4636   1.070   6.628   6.172 -0.8379 -0.6750  0.5548
 1030SOL    HW2 4637   1.104   6.493   6.232  0.6538 -0.1378  0.9798
 1031SOL     OW 4638   5.911   4.774   4.961  0.3989 -0.3152 -0.1578
 1031SOL    HW1 4639   5.816   4.785   4.960  0.5945  1.7353  0.2545
 1031SOL    HW2 4640   5.934   4.765   5.053  0.7572  1.1627 -0.0733
 1032SOL     OW 4641   0.087   0.182   4.601  0.1618  0.3436  0.3478
 1032SOL    HW1 4642   0.094   0.131   4.521 -1.8729 -0.0440  0.3490
 1032SOL    HW2 4643   0.149   0.142   4.661  0.4467 -0.4822 -0.4788
 1033SOL     OW 4644   5.226   0.752   3.525 -0.5366  0.3562 -0.2667
 1033SOL    HW1 4645   5.190   0.778   3.440 -1.8500  0.1368  0.1950
 1033SOL    HW2 4646   5.176   0.803   3.589 -2.1595 -2.0929  0.5672
 1034SOL     OW 4647   1.637   2.866   3.641  0.2836 -0.0142  0.0031
 1034SOL    HW1 4648   1.659   2.857   3.548  1.3304 -0.6719  0.2933
 1034SOL    HW2 4649   1.591   2.950   3.646  0.8015  0.3597 -1.0165
 1035SOL     OW 4650   1.706   4.643   1.218 -0.1103  0.6761  0.4380
 1035SOL    HW1 4651   1.764   4.570   1.239 -1.9151 -1.3394 -1.1255
 1035SOL    HW2 4652   1.728   4.664   1.127 -0.5735  1.1287  0.4320
 1036SOL     OW 4653   0.932   0.454   1.302 -0.8360  0.0926  0.2164
 1036SOL    HW1 4654   0.901   0.505   1.227  0.2228 -0.2023 -0.4397
 1036SOL    HW2 4655   0.889   0.369   1.292  1.0116 -0.7339 -1.3736
 1037SOL     OW 4656   4.111   0.712   4.933  0.0144 -0.1931 -0.1263
 1037SOL    HW1 4657   4.162   0.635   4.909 -0.8105  0.1629 -3.5049
 1037SOL    HW2 4658   4.034   0.676   4.978 -0.5661 -1.4597 -2.0027
 1038SOL     OW 4659   6.135   4.359   0.897 -0.0081  0.4070  0.2407
 1038SOL    HW1 4660   6.141   4.418   0.972  1.8306 -2.2565  2.3883
 1038SOL    HW2 4661   6.220   4.367   0.853 -0.5255  0.8442 -0.7106
 1039SOL     OW 4662   6.406   1.507   6.798 -0.7128 -0.0815 -0.3731
 1039SOL    HW1 4663   6.501   1.499   6.804 -0.9109 -1.8202  1.4743
 1039SOL    HW2 4664   6.385   1.477   6.709  0.4821  0.9055 -1.0163
 1040SOL     OW 4665   3.981   0.797   6.562 -0.1884 -0.0116 -0.1569
 1040SOL    HW1 4666   4.026   0.820   6.643  0.5845  0.1756 -0.6339
 1040SOL    HW2 4667   3.965   0.881   6.519  1.2533 -0.2259 -1.1682
 1041SOL     OW 4668   0.093   5.569   1.290 -0.1034 -0.2032  0.3211
 1041SOL    HW1 4669   0.070   5.504   1.355 -1.5471 -0.2012 -0.1471
 1041SOL    HW2 4670   0.139   5.638   1.339 -2.8461  0.7334  1.7564
 1042SOL     OW 4671   6.496   2.186   6.695 -0.0745 -0.1214 -0.3261
 1042SOL    HW1 4672   6.463   2.260   6.643 -0.0879  0.1968  0.1349
 1042SOL    HW2 4673   6.418   2.134   6.715 -0.3792  0.8522  1.1194
 1043SOL     OW 4674   3.323   3.997   4.491 -0.3418 -0.0847 -0.0485
 1043SOL    HW1 4675   3.318   4.033   4.403 -0.8517 -1.1536 -0.4761
 1043SOL    HW2 4676   3.413   4.013   4.519 -1.3921  4.9807  1.3518
 1044SOL     OW 4677   2.001   4.930   4.567  0.1806 -0.0630  0.2816
 1044SOL    HW1 4678   1.992   4.839   4.538  0.3783 -0.4625  1.4014
 1044SOL    HW2 4679   1.939   4.979   4.513  1.6015 -0.4839 -1.8858
 1045SOL     OW 4680   4.642   5.686   5.931  0.4552 -0.1996  0.0902
 1045SOL    HW1 4681   4.697   5.695   5.852  1.1970 -1.1645  0.4715
 1045SOL    HW2 4682   4.700   5.709   6.003 -0.3825  1.2364  0.3450
 1046SOL     OW 4683   6.324   1.684   3.494  0.2050  0.6480  0.2038
 1046SOL    HW1 4684   6.261   1.755   3.479 -1.1331 -0.6290 -0.4834
 1046SOL    HW2 4685   6.272   1.612   3.529  1.4815 -0.1046  0.6436
 1047SOL     OW 4686   4.406   3.900   1.000  0.3360  0.3099  0.5825
 1047SOL    HW1 4687   4.496   3.876   0.981 -0.2589 -1.8227  0.1768
 1047SOL    HW2 4688   4.404   3.917   1.094  1.1675  0.4765  0.5733
 1048SOL     OW 4689   5.059   4.691   4.587 -0.2329  0.3756  0.2747
 1048SOL    HW1 4690   5.102   4.766   4.545  0.1403  0.1269  0.2011
 1048SOL    HW2 4691   5.034   4.634   4.515  0.2895  0.0101  0.3726
 1049SOL     OW 4692   2.445   4.465   2.489 -0.0080  0.2100  0.0092
 1049SOL    HW1 4693   2.502   4.542   2.486 -0.2235  0.3479 -0.5855
 1049SOL    HW2 4694   2.406   4.469   2.577 -0.8570  1.3958 -0.3946
 1050SOL     OW 4695   3.994   3.909   3.357  0.3455 -0.1121 -0.2501
 1050SOL    HW1 4696   3.995   3.977   3.424  1.0220  0.9382 -1.2902
 1050SOL    HW2 4697   3.944   3.947   3.285  0.1590 -0.9858 -0.5976
 1051SOL     OW 4698   1.326   4.588   6.739  0.4888  0.1849 -0.5172
 1051SOL    HW1 4699   1.309   4.682   6.730  2.4286  0.4641 -2.0539
 1051SOL    HW2 4700   1.396   4.571   6.676  0.4585 -2.2304  0.0229
 1052SOL     OW 4701   6.614   1.556   0.329  0.0273  0.6830  0.0048
 1052SOL    HW1 4702   6.630   1.649   0.341 -2.5033  1.3213 -0.8381
 1052SOL    HW2 4703   6.518   1.548   0.331  0.1756 -1.9972  0.6762
 1053SOL     OW 4704   4.805   4.509   5.932 -0.2273 -0.9454 -0.1655
 1053SOL    HW1 4705   4.890   4.553   5.940  0.7574 -1.9177 -3.5590
 1053SOL    HW2 4706   4.812   4.433   5.990  0.3920  0.0667  1.1379
 1054SOL     OW 4707   1.907   4.297   6.755 -0.4242  0.4793 -0.3270
 1054SOL    HW1 4708   1.941   4.215   6.790 -0.0670  0.0373 -1.6755
 1054SOL    HW2 4709   1.974   4.362   6.776  1.4295 -0.3822 -2.9986
 1055SOL     OW 4710   5.919   2.569   5.577 -0.5958 -0.2480  0.1405
 1055SOL    HW1 4711   5.953   2.606   5.658  1.6624 -2.3445  0.2898
 1055SOL    HW2 4712   5.982   2.596   5.510 -1.1858 -0.4048 -0.4926
 1056SOL     OW 4713   5.260   6.283   1.869 -0.8825 -0.2343  0.3152
 1056SOL    HW1 4714   5.316   6.345   1.822 -1.5566  0.2077  0.0827
 1056SOL    HW2 4715   5.321   6.224   1.914 -0.2016 -0.7464 -1.2039
 1057SOL     OW 4716   1.318   4.546   1.009 -0.4159 -0.0157  0.4356
 1057SOL    HW1 4717   1.259   4.562   1.083 -2.2219 -1.0943 -0.7084
 1057SOL    HW2 4718   1.320   4.451   1.000  0.1466  0.0878 -0.6380
 1058SOL     OW 4719   5.944   4.817   0.935 -0.0258  0.1871 -0.3227
 1058SOL    HW1 4720   5.935   4.843   0.844 -0.5170 -2.1813 -0.9964
 1058SOL    HW2 4721   5.860   4.841   0.975 -0.2031  0.2582 -0.7349
 1059SOL     OW 4722   6.347   4.147   5.377  0.1351  0.2204 -0.1178
 1059SOL    HW1 4723   6.305   4.202   5.311  0.4606  0.4118 -0.1713
 1059SOL    HW2 4724   6.360   4.063   5.333  1.0276  0.5680 -0.5668
 1060SOL     OW 4725   4.510   0.257   2.298 -0.0151 -0.1467  0.2794
 1060SOL    HW1 4726   4.456   0.179   2.316  1.8707 -1.7414 -0.5732
 1060SOL    HW2 4727   4.600   0.226   2.308  0.8546  1.4214 -1.9259
 1061SOL     OW 4728   3.320   4.911   3.486  0.2043 -0.7684 -0.0048
 1061SOL    HW1 4729   3.361   4.938   3.568  0.0151 -0.9745  0.1598
 1061SOL    HW2 4730   3.227   4.933   3.497 -0.0202 -1.8108  0.2810
 1062SOL     OW 4731   0.856   5.329   0.318 -0.3138  0.0954 -0.3797
 1062SOL    HW1 4732   0.805   5.259   0.277  0.0884 -0.4185 -0.0174
 1062SOL    HW2 4733   0.833   5.326   0.410  0.6348 -0.3944 -0.1411
 1063SOL     OW 4734   0.026   5.751   5.830  0.2250  0.3082  0.1071
 1063SOL    HW1 4735  -0.051   5.803   5.852  0.7538  0.5366  1.5372
 1063SOL    HW2 4736   0.019   5.737   5.736 -0.9640  1.2821  0.0193
 1064SOL     OW 4737   2.814   2.144   4.101 -0.4050  0.6576  0.6731
 1064SOL    HW1 4738   2.831   2.222   4.048 -2.9947  0.7311 -0.1826
 1064SOL    HW2 4739   2.799   2.074   4.037  0.7419 -0.3190  1.4240
 1065SOL     OW 4740   3.804   0.985   4.426  0.1564 -0.1951  0.3100
 1065SOL    HW1 4741   3.845   0.989   4.512 -1.1723 -0.9166  1.0216
 1065SOL    HW2 4742   3.780   0.893   4.416  0.6936 -0.2029 -1.0429
 1066SOL     OW 4743   2.152   0.507   6.752  0.2160  0.1481 -0.4826
 1066SOL    HW1 4744   2.203   0.527   6.830  0.5476 -2.3780  0.0343
 1066SOL    HW2 4745   2.209   0.449   6.701 -0.9009 -0.1018 -1.4828
 1067SOL     OW 4746   0.896   2.737   4.484  0.2683  0.0867 -0.1536
 1067SOL    HW1 4747   0.815   2.694   4.511  1.4695 -0.0612  4.0136
 1067SOL    HW2 4748   0.869   2.823   4.454 -1.5606 -0.7834 -1.1537
 1068SOL     OW 4749   3.323   4.655   6.444  0.0043 -0.1072  0.6986
 1068SOL    HW1 4750   3.246   4.600   6.462  0.6224 -0.7212  1.5385
 1068SOL    HW2 4751   3.384   4.635   6.515  1.9303 -1.4381 -1.2205
 1069SOL     OW 4752   4.715   1.326   0.635  0.5077  0.3672 -0.2242
 1069SOL    HW1 4753   4.644   1.279   0.593  0.8331 -0.1861 -0.1600
 1069SOL    HW2 4754   4.689   1.330   0.728  1.6108 -1.8808  0.2538
 1070SOL     OW 4755   3.568   1.057   5.841  0.0252 -0.4381  0.0587
 1070SOL    HW1 4756   3.575   1.151   5.825 -0.7467 -0.0547  1.8175
 1070SOL    HW2 4757   3.640   1.036   5.901 -0.5936 -0.7041  0.7212
 1071SOL     OW 4758   0.244   2.712   5.255 -0.3605  0.1500  0.0538
 1071SOL    HW1 4759   0.231   2.807   5.247 -0.0304  0.1311 -0.8590
 1071SOL    HW2 4760   0.306   2.691   5.185 -1.5430 -0.9538 -0.7028
 1072SOL     OW 4761   1.350   2.230   5.059 -0.1686  0.6419 -0.4094
 1072SOL    HW1 4762   1.297   2.305   5.033 -2.2762 -0.1716  1.2222
 1072SOL    HW2 4763   1.389   2.256   5.143  1.5822  0.9832 -1.2783
 1073SOL     OW 4764   4.577   3.890   1.727 -0.1268  0.1937 -0.4542
 1073SOL    HW1 4765   4.552   3.974   1.767 -0.5960 -0.0819 -0.1638
 1073SOL    HW2 4766   4.561   3.825   1.796 -0.4276 -0.2227 -0.9131
 1074SOL     OW 4767   5.642   4.545   4.238 -0.1990 -0.3896  0.4403
 1074SOL    HW1 4768   5.584   4.470   4.239  0.9113 -1.2868  2.3630
 1074SOL    HW2 4769   5.616   4.598   4.314  1.0037 -0.4563  0.9258
 1075SOL     OW 4770   5.114   1.971   4.273  0.3222 -0.2117  0.2156
 1075SOL    HW1 4771   5.179   1.922   4.222  0.2377 -0.8322  0.6879
 1075SOL    HW2 4772   5.165   2.027   4.331  0.4202  0.8971 -0.9009
 1076SOL     OW 4773   1.200   2.419   1.337  0.4482 -0.1034  0.0355
 1076SOL    HW1 4774   1.205   2.488   1.404 -2.2590 -3.1309  3.7824
 1076SOL    HW2 4775   1.131   2.449   1.277 -0.3377  0.7169  1.3084
 1077SOL     OW 4776   1.698   4.421   3.824 -0.0534 -0.3232 -0.2045
 1077SOL    HW1 4777   1.665   4.344   3.870  0.7708 -0.1377  0.7150
 1077SOL    HW2 4778   1.708   4.392   3.733 -2.6276 -0.4207 -0.5379
 1078SOL     OW 4779   0.220   2.353   4.591 -0.2227  0.3106  0.1496
 1078SOL    HW1 4780   0.171   2.411   4.533 -1.1416 -0.2384  0.3559
 1078SOL    HW2 4781   0.312   2.367   4.567 -0.0833  4.1143  2.2620
 1079SOL     OW 4782   2.984   1.312   6.061 -0.0926  0.1692 -0.4894
 1079SOL    HW1 4783   3.062   1.366   6.070 -0.5561  0.5880  1.7127
 1079SOL    HW2 4784   2.916   1.362   6.107 -1.2350 -0.9551 -0.9161
 1080SOL     OW 4785   3.523   6.127   1.028 -0.1472 -0.1167 -0.0836
 1080SOL    HW1 4786   3.507   6.156   1.118 -0.6462 -0.1171 -0.1659
 1080SOL    HW2 4787   3.586   6.189   0.992  0.1630 -0.1994  0.3095
 1081SOL     OW 4788   5.626   2.377   2.152 -0.3765 -0.1985  0.4549
 1081SOL    HW1 4789   5.679   2.400   2.229  0.2557 -0.8086  0.2155
 1081SOL    HW2 4790   5.572   2.303   2.181  0.0808 -0.6278  0.2395
 1082SOL     OW 4791   2.351   4.685   2.756  0.1181 -0.1250 -0.7409
 1082SOL    HW1 4792   2.304   4.768   2.761  0.4422  0.0218 -0.0365
 1082SOL    HW2 4793   2.426   4.697   2.814  0.9257 -0.4199 -1.6939
 1083SOL     OW 4794   6.548   5.178   3.468  0.2369 -0.6895  0.1770
 1083SOL    HW1 4795   6.635   5.170   3.507  0.9696 -0.6607 -1.3976
 1083SOL    HW2 4796   6.564   5.202   3.377 -1.3680 -1.8675 -0.4625
 1084SOL     OW 4797   4.991   5.652   6.792  0.3439  0.1366 -0.0318
 1084SOL    HW1 4798   4.898   5.665   6.775  0.1290 -1.4828 -0.2510
 1084SOL    HW2 4799   4.999   5.559   6.811  2.1758 -0.1180 -1.7446
 1085SOL     OW 4800   5.969   5.564   0.759 -0.0202 -0.4500 -0.6651
 1085SOL    HW1 4801   5.954   5.476   0.724  0.6007  0.2668 -2.9472
 1085SOL    HW2 4802   6.063   5.577   0.750  0.0193  0.1384  0.4807
 1086SOL     OW 4803   1.898   0.460   4.556 -0.4836  0.5469 -0.0200
 1086SOL    HW1 4804   1.840   0.488   4.626  0.4827  0.0623  1.0051
 1086SOL    HW2 4805   1.981   0.442   4.599  0.0816  0.0395 -1.2617
 1087SOL     OW 4806   5.106   4.978   4.019  0.3697 -0.1426  0.0657
 1087SOL    HW1 4807   5.156   5.047   4.064 -0.5566  0.3283  0.3965
 1087SOL    HW2 4808   5.033   5.025   3.978 -1.2184 -1.0992  1.6654
 1088SOL     OW 4809   1.236   4.512   4.261  0.1988 -0.2358 -0.1966
 1088SOL    HW1 4810   1.270   4.487   4.175  0.8018 -0.6712  0.1582
 1088SOL    HW2 4811   1.146   4.540   4.244  0.8853  1.4704 -1.2482
 1089SOL     OW 4812   5.967   5.452   6.409  0.3733  0.2071  0.2624
 1089SOL    HW1 4813   6.037   5.491   6.356  0.2963 -0.5557 -0.4146
 1089SOL    HW2 4814   5.941   5.522   6.470  0.2804  1.2061 -0.8843
 1090SOL     OW 4815   3.824   0.924   5.906  0.4360 -0.2083  0.2350
 1090SOL    HW1 4816   3.806   0.846   5.959  1.3108 -2.0808 -2.0152
 1090SOL    HW2 4817   3.920   0.932   5.908  0.2816  1.8346  1.7150
 1091SOL     OW 4818   5.729   0.593   0.920  0.7032 -0.2482 -0.3525
 1091SOL    HW1 4819   5.718   0.624   1.010 -0.9597  0.0248 -0.6027
 1091SOL    HW2 4820   5.740   0.498   0.929  0.6436 -0.2133  0.1423
 1092SOL     OW 4821   6.301   2.639   6.543 -0.6113  0.7578 -0.1001
 1092SOL    HW1 4822   6.319   2.666   6.453  0.4106 -0.7742 -0.3873
 1092SOL    HW2 4823   6.206   2.635   6.549 -0.6708 -0.9470 -1.6947
 1093SOL     OW 4824   6.021   3.499   5.738  0.0877  0.5792  0.3318
 1093SOL    HW1 4825   6.072   3.514   5.817  0.9328 -2.1315  0.3990
 1093SOL    HW2 4826   5.971   3.579   5.726  0.8520  1.5312  2.9099
 1094SOL     OW 4827   6.400   6.559   4.392  0.0494 -0.1736  0.7631
 1094SOL    HW1 4828   6.356   6.640   4.365  1.5482  0.6249  0.5879
 1094SOL    HW2 4829   6.330   6.494   4.398 -0.9670  0.6980 -0.8015
 1095SOL     OW 4830   6.473   2.661   1.512  0.1660 -0.6669 -0.7076
 1095SOL    HW1 4831   6.487   2.579   1.561  1.1285  1.0601  2.1889
 1095SOL    HW2 4832   6.383   2.685   1.531  0.6063  0.1188  0.5443
 1096SOL     OW 4833   1.214   3.812   3.248  0.5060  0.2593  0.1478
 1096SOL    HW1 4834   1.144   3.751   3.225 -0.4317  1.3101  0.0682
 1096SOL    HW2 4835   1.194   3.891   3.196  0.5265  1.3265  1.6926
 1097SOL     OW 4836   0.772   3.503   5.159 -0.8860 -0.2191  0.2875
 1097SOL    HW1 4837   0.780   3.590   5.197 -0.7306  0.0586 -0.3576
 1097SOL    HW2 4838   0.853   3.491   5.109 -1.2035 -0.4419 -0.1899
 1098SOL     OW 4839   1.552   3.950   5.008  0.5363 -0.7596  1.0568
 1098SOL    HW1 4840   1.474   3.896   4.998  0.8458 -1.6671  3.1525
 1098SOL    HW2 4841   1.624   3.888   5.011  1.6482  0.1089 -2.3551
 1099SOL     OW 4842   6.630   3.526   1.353 -0.1279 -0.3936 -0.6421
 1099SOL    HW1 4843   6.575   3.462   1.307  1.7775 -0.9307 -2.3404
 1099SOL    HW2 4844   6.710   3.477   1.375 -0.1651  0.4107  1.5291
 1100SOL     OW 4845   4.384   6.625   1.423 -0.3249  0.1323 -0.3877
 1100SOL    HW1 4846   4.397   6.530   1.429  1.2601  0.2576 -1.3064
 1100SOL    HW2 4847   4.308   6.636   1.366 -1.5344 -0.5894  1.0328
 1101SOL     OW 4848   5.124   0.938   2.720 -0.2629  0.4327 -0.4262
 1101SOL    HW1 4849   5.100   1.020   2.763 -3.0689 -0.7843  0.5608
 1101SOL    HW2 4850   5.219   0.931   2.733 -0.3756  2.1535  1.9265
 1102SOL     OW 4851   1.583   4.844   1.553  0.0176  0.1076 -0.1353
 1102SOL    HW1 4852   1.517   4.789   1.598  1.8816 -2.1694  0.0073
 1102SOL    HW2 4853   1.659   4.787   1.543  2.3493  2.8819  0.4903
 1103SOL     OW 4854   1.291   5.160   3.224 -0.5594 -0.1330 -0.2986
 1103SOL    HW1 4855   1.350   5.180   3.152 -1.0253  0.0250 -0.6389
 1103SOL    HW2 4856   1.221   5.108   3.184 -1.7093  1.3610 -0.3142
 1104SOL     OW 4857   1.822   4.058   1.260 -0.3877  0.0949 -0.8596
 1104SOL    HW1 4858   1.886   4.011   1.314 -0.5932 -0.7322 -1.3072
 1104SOL    HW2 4859   1.749   4.077   1.319 -0.1574  0.1519 -0.5898
 1105SOL     OW 4860   3.137   3.048   0.058  0.1239  0.2807  0.0849
 1105SOL    HW1 4861   3.189   2.969   0.044 -0.3102  0.2182 -1.4438
 1105SOL    HW2 4862   3.157   3.076   0.147  1.1352 -0.9252  0.2532
 1106SOL     OW 4863   5.870   5.740   5.841  0.2527  0.1212  0.2911
 1106SOL    HW1 4864   5.904   5.810   5.785  0.2760  0.6469  0.9488
 1106SOL    HW2 4865   5.775   5.752   5.839  0.2936  0.5923  0.9328
 1107SOL     OW 4866   0.538   3.345   1.944  0.1486  0.6444 -0.0439
 1107SOL    HW1 4867   0.493   3.318   2.023  0.6610  0.8967  0.3423
 1107SOL    HW2 4868   0.545   3.266   1.891 -2.3197  0.9336 -0.9302
 1108SOL     OW 4869   2.818   6.643   4.392 -0.1499  0.1948  0.6525
 1108SOL    HW1 4870   2.774   6.655   4.476  1.0753  0.1413  1.3383
 1108SOL    HW2 4871   2.865   6.559   4.401  0.5798  0.5376  0.1999
 1109SOL     OW 4872   1.581   1.532   0.852  0.6198  1.0232 -0.5709
 1109SOL    HW1 4873   1.633   1.518   0.931 -1.6288 -1.5303  0.6325
 1109SOL    HW2 4874   1.626   1.481   0.784  1.3755  1.4510 -0.4038
 1110SOL     OW 4875   3.774   4.758   1.883  0.0992 -0.3179  0.4025
 1110SOL    HW1 4876   3.697   4.704   1.899 -0.4024  0.2729  0.0224
 1110SOL    HW2 4877   3.826   4.708   1.820 -1.1222  0.3151 -1.1788
 1111SOL     OW 4878   1.067   4.218   5.837 -0.6417 -0.0867 -0.0519
 1111SOL    HW1 4879   0.996   4.216   5.901 -0.6963 -0.8722 -0.1261
 1111SOL    HW2 4880   1.045   4.149   5.775  0.5736 -0.8553  0.3380
 1112SOL     OW 4881   0.041   5.341   5.847  0.7332 -0.3399 -0.5082
 1112SOL    HW1 4882   0.105   5.392   5.896 -0.9224 -0.1849  1.6596
 1112SOL    HW2 4883   0.019   5.268   5.905 -1.0965 -0.3283 -1.1136
 1113SOL     OW 4884   3.539   1.274   5.182  0.2197  0.0525  0.5097
 1113SOL    HW1 4885   3.495   1.332   5.244  0.8824 -0.1823  1.2210
 1113SOL    HW2 4886   3.607   1.328   5.142 -0.5794  0.3696 -0.4690
 1114SOL     OW 4887   6.070   0.294   2.804  0.4638 -0.1693  0.4747
 1114SOL    HW1 4888   6.121   0.333   2.732  0.2131  1.4231  1.1193
 1114SOL    HW2 4889   6.070   0.200   2.785  1.6363  0.0549 -0.8136
 1115SOL     OW 4890   3.424   2.496   5.050  0.1897 -0.0065 -0.2894
 1115SOL    HW1 4891   3.354   2.541   5.002 -0.1802 -0.2948 -0.0254
 1115SOL    HW2 4892   3.463   2.436   4.987  0.0828  0.0253 -0.3852
 1116SOL     OW 4893   6.790   5.043   4.232  0.2050 -0.0653 -0.6048
 1116SOL    HW1 4894   6.867   4.986   4.226 -0.3548 -0.9159 -0.0825
 1116SOL    HW2 4895   6.716   4.982   4.227 -0.4046  0.3586  1.8855
 1117SOL     OW 4896   6.696   5.878   1.685  0.1279  0.7090  0.3451
 1117SOL    HW1 4897   6.608   5.900   1.656 -0.3004  0.7650  1.6085
 1117SOL    HW2 4898   6.683   5.829   1.767  1.2265 -0.2854 -0.0456
 1118SOL     OW 4899   1.885   3.242   3.917  0.5723 -0.1821 -0.1956
 1118SOL    HW1 4900   1.796   3.262   3.890  0.4854  0.5008  0.5570
 1118SOL    HW2 4901   1.932   3.325   3.912  1.5062 -0.7459 -1.7342
 1119SOL     OW 4902   2.292   3.574   6.298 -0.0296  0.1076 -0.1974
 1119SOL    HW1 4903   2.369   3.517   6.295 -0.6032 -0.7383  0.6438
 1119SOL    HW2 4904   2.255   3.570   6.210  0.5986  0.1320 -0.4693
 1120SOL     OW 4905   6.184   1.481   3.589 -0.1814 -0.2990 -0.0418
 1120SOL    HW1 4906   6.246   1.451   3.655 -0.3001  0.5296  0.4694
 1120SOL    HW2 4907   6.106   1.427   3.603 -1.3164  1.7453  2.5169
 1121SOL     OW 4908   5.084   4.484   1.143 -0.4396  0.0707 -0.3539
 1121SOL    HW1 4909   5.137   4.479   1.222  0.4311  0.9387 -0.8600
 1121SOL    HW2 4910   5.119   4.415   1.086  0.1642  0.6415 -0.6867
 1122SOL     OW 4911   1.532   2.435   6.062 -0.2918  0.3040  0.6253
 1122SOL    HW1 4912   1.475   2.459   6.135 -1.8505 -0.3575 -0.3195
 1122SOL    HW2 4913   1.597   2.377   6.101 -1.7699 -0.9791  1.3365
 1123SOL     OW 4914   4.809   5.404   5.610 -0.2829 -0.0215 -0.2252
 1123SOL    HW1 4915   4.738   5.432   5.669 -0.0455 -0.5286  0.3144
 1123SOL    HW2 4916   4.774   5.326   5.567  0.5456 -1.2596  1.2762
 1124SOL     OW 4917   1.739   5.666   1.024 -0.0722 -0.2519 -0.0570
 1124SOL    HW1 4918   1.798   5.736   0.997 -1.8172  1.1639 -0.4121
 1124SOL    HW2 4919   1.757   5.655   1.117  1.2469 -0.4011 -0.3015
 1125SOL     OW 4920   4.808   1.285   1.326  0.4728  0.3276  0.5551
 1125SOL    HW1 4921   4.890   1.274   1.374  0.7223 -0.0464  0.0550
 1125SOL    HW2 4922   4.770   1.365   1.362  1.3291  0.8175  0.4030
 1126SOL     OW 4923   2.310   0.961   3.570  0.1682 -0.7047 -0.3388
 1126SOL    HW1 4924   2.349   0.921   3.648 -1.5376 -0.0758  0.9045
 1126SOL    HW2 4925   2.385   0.985   3.515  1.6321  0.9871  2.1741
 1127SOL     OW 4926   0.460   4.624   2.178  0.2323  0.0007 -0.2451
 1127SOL    HW1 4927   0.555   4.619   2.178  0.3244  1.1657  0.7536
 1127SOL    HW2 4928   0.437   4.641   2.087  0.8547 -1.6243 -0.7484
 1128SOL     OW 4929   3.551   2.594   6.519 -0.1910  0.3135 -0.1660
 1128SOL    HW1 4930   3.546   2.651   6.442  1.9158 -0.1365 -0.6800
 1128SOL    HW2 4931   3.468   2.545   6.517  0.3424 -0.6870 -2.9591
 1129SOL     OW 4932   2.414   2.597   3.220 -0.5083 -0.4673  0.1518
 1129SOL    HW1 4933   2.461   2.515   3.231  1.2248  0.6604  1.9438
 1129SOL    HW2 4934   2.452   2.635   3.140 -2.3327 -1.9361 -1.5306
 1130SOL     OW 4935   6.509   0.128   4.194 -0.2897  0.6356 -0.3622
 1130SOL    HW1 4936   6.519   0.206   4.247 -1.9614  1.6696 -1.4693
 1130SOL    HW2 4937   6.440   0.078   4.237 -0.8720  0.9395 -0.9237
 1131SOL     OW 4938   5.561   4.373   5.580 -0.0887 -0.2320 -0.4750
 1131SOL    HW1 4939   5.617   4.297   5.567  0.8071  0.0455  1.4795
 1131SOL    HW2 4940   5.622   4.445   5.599 -1.0470  0.1164  1.5137
 1132SOL     OW 4941   3.224   4.671   3.820 -0.1500 -0.4945  0.0180
 1132SOL    HW1 4942   3.170   4.661   3.742  1.3149  0.6825 -1.2276
 1132SOL    HW2 4943   3.314   4.671   3.787  0.5445 -0.6139  1.7940
 1133SOL     OW 4944   0.145   2.366   0.370  0.2532 -0.3487 -0.3078
 1133SOL    HW1 4945   0.151   2.461   0.365  1.0236 -0.4479 -2.3898
 1133SOL    HW2 4946   0.156   2.336   0.279 -0.7924 -2.3873  0.1733
 1134SOL     OW 4947   4.572   0.959   0.164  0.3275  0.4215 -0.7251
 1134SOL    HW1 4948   4.637   0.894   0.137 -0.8487 -1.6047  1.0598
 1134SOL    HW2 4949   4.490   0.910   0.170 -0.1423  1.3700  3.2476
 1135SOL     OW 4950   3.571   0.122   2.640  0.1414  0.3276 -0.8702
 1135SOL    HW1 4951   3.648   0.067   2.625  0.4356 -0.0516  1.6293
 1135SOL    HW2 4952   3.509   0.065   2.684 -0.6177  1.2924 -0.6565
 1136SOL     OW 4953   5.677   1.537   1.238 -0.9340 -0.0524 -0.0749
 1136SOL    HW1 4954   5.637   1.451   1.250 -1.2810  0.2265  0.8168
 1136SOL    HW2 4955   5.703   1.538   1.146 -1.8743 -0.7084 -0.3652
 1137SOL     OW 4956   3.368   6.684   6.364 -0.4767  0.8471  0.2667
 1137SOL    HW1 4957   3.463   6.684   6.372 -0.4023  3.0646 -0.0819
 1137SOL    HW2 4958   3.351   6.683   6.270 -0.8251  0.3287  0.3275
 1138SOL     OW 4959   3.372   1.624   3.835  0.1059 -0.3466  0.2222
 1138SOL    HW1 4960   3.401   1.599   3.747  0.1941 -0.6759  0.3435
 1138SOL    HW2 4961   3.426   1.700   3.857  0.7968 -0.8710  0.3920
 1139SOL     OW 4962   3.130   6.440   3.301 -0.0936 -0.1006  0.2951
 1139SOL    HW1 4963   3.186   6.509   3.264  0.2881 -0.6601 -0.1967
 1139SOL    HW2 4964   3.162   6.429   3.390  0.0702  0.1185  0.2647
 1140SOL     OW 4965   0.143   1.693   2.570  0.6773 -0.4855 -0.0629
 1140SOL    HW1 4966   0.208   1.716   2.636  1.2677 -2.4121  0.0710
 1140SOL    HW2 4967   0.116   1.604   2.591 -0.5403 -0.4606 -1.3090
 1141SOL     OW 4968   4.037   2.041   1.070 -0.5407  0.3027  0.2446
 1141SOL    HW1 4969   3.943   2.031   1.085 -0.3830  0.2199  1.2413
 1141SOL    HW2 4970   4.075   1.958   1.100 -0.1832  0.2014 -0.4820
 1142SOL     OW 4971   0.654   3.500   3.318  0.3226 -0.0854 -0.0156
 1142SOL    HW1 4972   0.663   3.562   3.246 -2.3512  0.0261 -0.3685
 1142SOL    HW2 4973   0.614   3.551   3.389 -2.8789 -1.4339 -0.6404
 1143SOL     OW 4974   3.036   4.150   2.904 -0.2908 -0.2442 -0.0841
 1143SOL    HW1 4975   2.940   4.152   2.909 -0.3062  0.5241 -0.5560
 1143SOL    HW2 4976   3.055   4.111   2.819 -0.1743 -0.8537  0.2179
 1144SOL     OW 4977   3.510   1.029   3.516 -0.0245  0.0502 -0.0719
 1144SOL    HW1 4978   3.429   1.016   3.566  0.5456 -1.4378  0.5440
 1144SOL    HW2 4979   3.498   0.979   3.436  0.7360 -1.2447  0.5873
 1145SOL     OW 4980   3.503   6.523   5.246 -0.2563 -0.0770  0.0284
 1145SOL    HW1 4981   3.517   6.617   5.257  0.8163 -0.4357  2.1451
 1145SOL    HW2 4982   3.590   6.484   5.254 -0.8070 -1.3346  0.1165
 1146SOL     OW 4983   5.047   1.316   3.441  0.2027 -0.1825  0.2352
 1146SOL    HW1 4984   5.070   1.347   3.353  2.7706 -0.3919  0.7564
 1146SOL    HW2 4985   4.986   1.244   3.425 -0.7923  0.9383 -1.2662
 1147SOL     OW 4986   5.361   5.630   6.109 -0.4873 -0.0187  0.1412
 1147SOL    HW1 4987   5.349   5.593   6.197 -0.5923 -2.4418 -0.8266
 1147SOL    HW2 4988   5.282   5.606   6.062  0.1285  0.0993 -0.9909
 1148SOL     OW 4989   3.181   5.011   4.143 -0.1751  0.1632 -0.0147
 1148SOL    HW1 4990   3.149   5.038   4.229  0.2669  0.8048 -0.0430
 1148SOL    HW2 4991   3.252   5.073   4.123 -1.3902  1.1131 -1.5958
 1149SOL     OW 4992   0.450   2.266   3.091  0.2265 -0.1201  0.2051
 1149SOL    HW1 4993   0.360   2.286   3.118  0.1201  0.1857 -0.3546
 1149SOL    HW2 4994   0.490   2.227   3.168 -0.0386  0.8180  0.8240
 1150SOL     OW 4995   1.466   6.424   3.565 -0.0235 -0.2615 -0.7748
 1150SOL    HW1 4996   1.460   6.489   3.495 -0.6821  0.7587  0.1979
 1150SOL    HW2 4997   1.441   6.342   3.523 -0.2388  0.2887 -1.7681
 1151SOL     OW 4998   1.755   1.958   5.348 -0.3764 -0.0273  0.4492
 1151SOL    HW1 4999   1.667   1.989   5.368  0.1607  2.0725 -0.2366
 1151SOL    HW2 5000   1.784   2.011   5.274  0.9920 -1.5866 -0.2041
 1152SOL     OW 5001   2.427   5.684   4.145 -0.4057 -0.4416  0.2971
 1152SOL    HW1 5002   2.387   5.625   4.209  0.2914 -0.3605  0.8207
 1152SOL    HW2 5003   2.519   5.688   4.171 -0.6814  2.0096  1.1704
 1153SOL     OW 5004   5.081   1.107   5.931 -0.2750 -0.4450 -0.2620
 1153SOL    HW1 5005   5.028   1.138   6.005 -0.5440 -4.0099  1.2454
 1153SOL    HW2 5006   5.017   1.094   5.861 -0.5687 -0.0124 -0.0819
 1154SOL     OW 5007   4.149   2.634   0.340 -0.4166 -0.1412 -1.0226
 1154SOL    HW1 5008   4.083   2.613   0.406 -0.4729  0.3062 -0.9329
 1154SOL    HW2 5009   4.104   2.692   0.279  0.7021  2.7430  0.7019
 1155SOL     OW 5010   6.277   5.579   2.713  0.0124  0.2787  0.0278
 1155SOL    HW1 5011   6.274   5.658   2.766 -3.6658  0.1994  0.1477
 1155SOL    HW2 5012   6.303   5.609   2.626  1.1191  1.1741  0.6405
 1156SOL     OW 5013   6.598   5.588   5.558 -0.0912  0.3479 -0.8375
 1156SOL    HW1 5014   6.533   5.658   5.549 -0.6858 -0.2415 -1.2831
 1156SOL    HW2 5015   6.547   5.512   5.588  0.6177  0.2163  0.0746
 1157SOL     OW 5016   0.402   0.075   6.077 -0.1418  0.0824 -0.3800
 1157SOL    HW1 5017   0.449   0.050   6.157 -0.1729  0.9667 -0.0776
 1157SOL    HW2 5018   0.407   0.170   6.075 -0.9461  0.1239 -0.9465
 1158SOL     OW 5019   1.282   0.437   4.686 -0.2995 -1.1217  0.0165
 1158SOL    HW1 5020   1.226   0.457   4.761  0.9847  0.2850  0.6560
 1158SOL    HW2 5021   1.365   0.482   4.706  0.5051 -1.8147 -1.6345
 1159SOL     OW 5022   0.724   2.137   4.033  0.5858  0.6066 -0.2434
 1159SOL    HW1 5023   0.768   2.218   4.057 -0.6707  1.8855 -1.9616
 1159SOL    HW2 5024   0.701   2.149   3.941  2.6019 -2.7867 -1.3571
 1160SOL     OW 5025   0.654   2.618   2.380 -0.3005 -0.0213  0.4618
 1160SOL    HW1 5026   0.675   2.527   2.402 -1.2116 -1.3060 -3.2424
 1160SOL    HW2 5027   0.735   2.652   2.341  0.1302  0.9578  2.0983
 1161SOL     OW 5028   2.210   1.036   5.972 -0.2455  0.1500  0.7355
 1161SOL    HW1 5029   2.142   0.971   5.954 -0.3685  0.4504  0.1137
 1161SOL    HW2 5030   2.165   1.120   5.968  0.1374  0.3445  0.4195
 1162SOL     OW 5031   4.202   4.414   3.610 -0.5100  0.1466 -0.1736
 1162SOL    HW1 5032   4.198   4.394   3.704 -0.9264  1.3527  0.0869
 1162SOL    HW2 5033   4.295   4.405   3.587 -0.0704  1.7397  0.8233
 1163SOL     OW 5034   3.957   3.549   6.067  0.0169  0.1911  0.1348
 1163SOL    HW1 5035   3.936   3.612   5.998  0.1019  1.4222  1.1801
 1163SOL    HW2 5036   3.908   3.470   6.044  1.8372 -0.2831 -2.5698
 1164SOL     OW 5037   1.000   1.632   2.530 -0.8022  0.2915 -0.2594
 1164SOL    HW1 5038   0.909   1.602   2.530 -0.1522 -1.9022 -1.3796
 1164SOL    HW2 5039   1.007   1.686   2.451 -0.8454 -0.6180 -0.9026
 1165SOL     OW 5040   4.381   0.966   2.712 -0.1321 -0.5436  0.0828
 1165SOL    HW1 5041   4.372   0.915   2.632 -1.1504  1.0181 -0.8600
 1165SOL    HW2 5042   4.471   0.951   2.741  0.1399 -1.4312 -1.1406
 1166SOL     OW 5043   1.200   1.384   3.970  0.7378  0.4546 -0.3531
 1166SOL    HW1 5044   1.151   1.364   3.890  0.4739 -0.8305  0.1121
 1166SOL    HW2 5045   1.149   1.453   4.012  0.6432  0.8344 -1.0657
 1167SOL     OW 5046   1.942   2.617   2.161 -0.0932  0.3075  0.0493
 1167SOL    HW1 5047   2.014   2.621   2.224  0.4767  0.2813 -0.5858
 1167SOL    HW2 5048   1.946   2.528   2.125 -0.0604  0.4945 -0.4191
 1168SOL     OW 5049   4.629   4.861   4.822  0.1599 -0.1783 -0.2888
 1168SOL    HW1 5050   4.588   4.877   4.737  1.4492 -2.4514 -1.4398
 1168SOL    HW2 5051   4.558   4.831   4.878 -0.5864  0.6758 -0.7579
 1169SOL     OW 5052   1.510   0.625   1.244  0.3282 -0.6293 -0.0565
 1169SOL    HW1 5053   1.465   0.546   1.273  2.2344 -1.3594  1.1411
 1169SOL    HW2 5054   1.601   0.598   1.234  0.8559  1.1867 -0.6396
 1170SOL     OW 5055   5.931   6.766   1.306  0.5794  0.3016 -0.7743
 1170SOL    HW1 5056   5.957   6.831   1.240  1.1954  1.3649  0.4658
 1170SOL    HW2 5057   6.008   6.711   1.317  1.5083  1.8227  0.9819
 1171SOL     OW 5058   5.554   2.779   4.153 -0.0892  0.3942  0.3428
 1171SOL    HW1 5059   5.466   2.791   4.189 -0.6002 -0.9718 -0.3427
 1171SOL    HW2 5060   5.544   2.795   4.059  0.2316 -0.4199  0.1587
 1172SOL     OW 5061   1.735   1.913   6.489  0.8170 -0.2532 -0.1331
 1172SOL    HW1 5062   1.640   1.907   6.481  0.8063 -1.8361  0.7946
 1172SOL    HW2 5063   1.765   1.822   6.485  2.3062  0.2215 -0.4601
 1173SOL     OW 5064   1.371   0.660   4.893 -0.2289 -0.4880  0.0900
 1173SOL    HW1 5065   1.454   0.616   4.878 -0.7826 -2.3555  2.1440
 1173SOL    HW2 5066   1.351   0.701   4.808  2.0767 -1.1173 -0.8407
 1174SOL     OW 5067   1.872   1.201   2.920 -0.0750  0.8746  0.4317
 1174SOL    HW1 5068   1.860   1.296   2.916 -1.0864  0.7615  0.6089
 1174SOL    HW2 5069   1.811   1.166   2.856  2.2924  0.4476 -1.7927
 1175SOL     OW 5070   0.224   5.840   0.951  0.1555 -0.1042  0.3276
 1175SOL    HW1 5071   0.281   5.764   0.937  0.6214  0.4533 -1.0175
 1175SOL    HW2 5072   0.262   5.909   0.896  0.1733  1.3511  2.0843
 1176SOL     OW 5073   4.850   4.275   0.169  0.3537 -0.0584  0.4922
 1176SOL    HW1 5074   4.812   4.305   0.252  0.2505  0.8658  0.1316
 1176SOL    HW2 5075   4.932   4.325   0.161  0.8220 -0.8225  0.4772
 1177SOL     OW 5076   2.414   6.803   0.560 -0.0418 -0.0559  0.3413
 1177SOL    HW1 5077   2.397   6.841   0.646  0.7415  1.6634 -0.2386
 1177SOL    HW2 5078   2.402   6.875   0.498  0.3105 -1.0386 -0.9175
 1178SOL     OW 5079   4.721   0.500   5.364  0.8410  0.7024  0.3623
 1178SOL    HW1 5080   4.656   0.527   5.299  1.0038  1.9688  0.7067
 1178SOL    HW2 5081   4.713   0.564   5.434  0.8560 -0.4904  1.4796
 1179SOL     OW 5082   6.072   2.049   3.817  0.4360 -0.5640  0.4230
 1179SOL    HW1 5083   6.156   2.046   3.864  0.6791 -1.0354 -0.0397
 1179SOL    HW2 5084   6.068   1.967   3.768  0.2840  0.0053 -0.5458
 1180SOL     OW 5085   0.754   2.393   1.961 -0.5665 -0.0198  0.2659
 1180SOL    HW1 5086   0.780   2.388   1.869 -2.0646 -0.4777 -0.1650
 1180SOL    HW2 5087   0.733   2.485   1.974 -2.7002 -0.3184 -0.5894
 1181SOL     OW 5088   1.269   1.163   5.069 -0.3470  0.0665 -0.1370
 1181SOL    HW1 5089   1.217   1.101   5.120 -0.3619  0.4440  0.3128
 1181SOL    HW2 5090   1.204   1.222   5.029 -0.2699  0.8206  0.7912
 1182SOL     OW 5091   5.648   4.567   4.962  0.1382  0.6225 -0.4259
 1182SOL    HW1 5092   5.691   4.524   5.036  0.9054 -0.6447 -1.5691
 1182SOL    HW2 5093   5.650   4.660   4.984  2.8916  0.5520 -0.0887
 1183SOL     OW 5094   1.885   2.665   0.160  0.5125  0.1432  0.2511
 1183SOL    HW1 5095   1.901   2.678   0.254 -0.1665  0.8545  0.2863
 1183SOL    HW2 5096   1.970   2.642   0.124  0.6983 -0.5760  1.1107
 1184SOL     OW 5097   1.675   3.394   2.314  0.4218  0.1122 -0.2256
 1184SOL    HW1 5098   1.592   3.384   2.360  1.4458 -1.8127  1.3655
 1184SOL    HW2 5099   1.707   3.480   2.340  0.1340 -0.2115  1.3073
 1185SOL     OW 5100   5.160   3.631   5.092 -0.1125 -0.1290  0.5174
 1185SOL    HW1 5101   5.204   3.639   5.007 -0.3316  1.8753  0.5551
 1185SOL    HW2 5102   5.117   3.545   5.088  0.1079 -0.2019 -1.2983
 1186SOL     OW 5103   2.811   4.862   4.630  0.0206 -0.1028 -0.2716
 1186SOL    HW1 5104   2.864   4.942   4.619 -0.0639  0.0118  0.1442
 1186SOL    HW2 5105   2.835   4.808   4.555  1.0518 -0.2327  0.1345
 1187SOL     OW 5106   2.865   0.853   0.271  0.1379  0.7291  0.0435
 1187SOL    HW1 5107   2.919   0.833   0.347  0.6736  3.2880  0.4158
 1187SOL    HW2 5108   2.785   0.801   0.283  2.3078 -3.1295 -0.4766
 1188SOL     OW 5109   1.209   2.718   5.218  0.7765  0.0222 -0.0337
 1188SOL    HW1 5110   1.299   2.689   5.234  1.1460  0.8748 -0.4944
 1188SOL    HW2 5111   1.206   2.732   5.124  0.6865  1.6846  0.1997
 1189SOL     OW 5112   0.179   3.877   5.222 -0.3555  0.6767  0.7748
 1189SOL    HW1 5113   0.224   3.802   5.184  1.8840  1.0936  2.3902
 1189SOL    HW2 5114   0.096   3.882   5.175  1.2327 -0.1661 -2.3674
 1190SOL     OW 5115   0.244   2.084   1.888  0.0391  0.4152  0.3274
 1190SOL    HW1 5116   0.299   2.035   1.827  1.8701  1.7675  0.7795
 1190SOL    HW2 5117   0.240   2.029   1.966 -2.3513 -1.3390 -0.9139
 1191SOL     OW 5118   3.562   1.355   5.821  0.6931 -0.4860 -0.1418
 1191SOL    HW1 5119   3.626   1.379   5.888  0.3761 -0.7604  0.2629
 1191SOL    HW2 5120   3.478   1.377   5.860  0.5566  0.3587 -0.8765
 1192SOL     OW 5121   6.106   3.072   0.829  0.3222 -0.6293  0.1423
 1192SOL    HW1 5122   6.066   3.110   0.750 -0.1495 -0.3004  0.5294
 1192SOL    HW2 5123   6.032   3.035   0.877  0.7528 -1.8738 -0.1264
 1193SOL     OW 5124   2.010   1.534   0.672 -0.3750  0.0841  0.6833
 1193SOL    HW1 5125   1.960   1.456   0.694 -2.5374  1.3096  0.4650
 1193SOL    HW2 5126   2.073   1.543   0.743  0.2115 -2.0352  0.5038
 1194SOL     OW 5127   2.812   4.413   6.074  0.5227  0.6450 -0.6670
 1194SOL    HW1 5128   2.869   4.379   6.143 -0.3968 -0.4063 -0.3819
 1194SOL    HW2 5129   2.827   4.354   6.000 -0.1826  0.3475 -0.5838
 1195SOL     OW 5130   4.031   0.848   0.011 -0.5236 -0.0378 -0.0512
 1195SOL    HW1 5131   4.019   0.933   0.052  1.0734 -0.7105  1.9542
 1195SOL    HW2 5132   4.031   0.785   0.083  2.8194 -1.2417 -0.8846
 1196SOL     OW 5133   3.376   0.890   3.928 -0.6851  0.1427  0.2644
 1196SOL    HW1 5134   3.314   0.874   3.999 -0.8497  0.4955  0.2009
 1196SOL    HW2 5135   3.438   0.953   3.965 -0.9580  0.5766 -0.0080
 1197SOL     OW 5136   3.500   4.255   4.495  0.3180 -0.5085  0.2715
 1197SOL    HW1 5137   3.452   4.246   4.412 -2.3659  0.9107  1.5438
 1197SOL    HW2 5138   3.494   4.169   4.535  0.2792 -0.7891 -0.3215
 1198SOL     OW 5139   3.090   3.578   3.810  0.3640 -0.1901 -0.2215
 1198SOL    HW1 5140   3.012   3.528   3.784  1.1330 -1.3562 -0.3599
 1198SOL    HW2 5141   3.163   3.517   3.796  0.9442 -0.7385  3.9177
 1199SOL     OW 5142   2.489   2.830   2.114 -0.5874 -0.3590 -0.3828
 1199SOL    HW1 5143   2.407   2.817   2.162  0.0505 -1.7019  0.3763
 1199SOL    HW2 5144   2.544   2.756   2.139  0.7272  0.3118 -1.1903
 1200SOL     OW 5145   5.992   2.520   4.743  0.3077 -0.4634 -0.1507
 1200SOL    HW1 5146   5.929   2.457   4.778  1.6114 -1.0062  1.3134
 1200SOL    HW2 5147   5.987   2.509   4.649 -0.6508 -1.6082  0.0109
 1201SOL     OW 5148   5.424   5.710   4.254 -0.1124 -0.1840  0.0107
 1201SOL    HW1 5149   5.371   5.632   4.236 -1.2805  0.7505 -0.7385
 1201SOL    HW2 5150   5.433   5.712   4.349  0.9605 -1.8760 -0.0171
 1202SOL     OW 5151   0.695   2.329   0.283  0.5781 -0.6396  0.6402
 1202SOL    HW1 5152   0.616   2.338   0.337 -0.2756 -0.4994 -0.5936
 1202SOL    HW2 5153   0.758   2.388   0.324 -0.0465 -0.5200  1.4721
 1203SOL     OW 5154   5.963   3.161   2.816 -0.1552  0.1790  0.4657
 1203SOL    HW1 5155   5.924   3.235   2.862  0.3963  1.2919 -0.8066
 1203SOL    HW2 5156   5.890   3.118   2.772 -0.5197 -0.2308  1.4449
 1204SOL     OW 5157   4.008   2.779   5.767 -0.0259 -0.8110 -0.1126
 1204SOL    HW1 5158   4.003   2.716   5.839  0.2162  0.4327  1.0265
 1204SOL    HW2 5159   3.972   2.860   5.803 -1.0260 -0.4718 -1.7809
 1205SOL     OW 5160   5.075   4.642   3.997  0.3165 -0.2550  0.0458
 1205SOL    HW1 5161   5.160   4.620   4.035  0.1345  0.6386  1.0131
 1205SOL    HW2 5162   5.095   4.706   3.929  0.3635  0.5405  0.7938
 1206SOL     OW 5163   4.470   2.617   3.252 -0.0228 -0.6820 -0.2148
 1206SOL    HW1 5164   4.461   2.610   3.347  0.8928 -0.8962 -0.1341
 1206SOL    HW2 5165   4.546   2.673   3.240 -0.9093  0.4240 -0.8353
 1207SOL     OW 5166   4.728   6.147   3.260  0.4992 -0.0117 -0.2848
 1207SOL    HW1 5167   4.697   6.166   3.172  0.1720 -0.3481 -0.2422
 1207SOL    HW2 5168   4.696   6.219   3.313 -0.1716 -0.3273 -0.2513
 1208SOL     OW 5169   0.124   1.171   3.919 -0.2646 -0.1120  0.0076
 1208SOL    HW1 5170   0.166   1.171   3.833  0.7122  0.7751  0.4594
 1208SOL    HW2 5171   0.113   1.078   3.940  0.3082 -0.3469 -0.6898
 1209SOL     OW 5172   2.472   6.276   2.493  0.2322 -0.2776  0.0923
 1209SOL    HW1 5173   2.482   6.335   2.418  4.4784 -0.5499  0.2257
 1209SOL    HW2 5174   2.399   6.219   2.468  1.0053  0.0922 -3.5635
 1210SOL     OW 5175   6.685   5.846   0.173  0.3834 -0.0717  0.3593
 1210SOL    HW1 5176   6.645   5.815   0.254 -0.1860 -0.9232 -0.2250
 1210SOL    HW2 5177   6.618   5.901   0.133  0.1041 -0.8108 -0.2121
 1211SOL     OW 5178   1.190   5.001   2.685 -0.3857  0.4588  0.0915
 1211SOL    HW1 5179   1.169   4.909   2.701  0.2825 -0.0073 -1.5051
 1211SOL    HW2 5180   1.284   5.001   2.667 -0.5416  1.3329 -0.7527
 1212SOL     OW 5181   4.512   1.638   4.532 -0.0836  0.4086  0.2064
 1212SOL    HW1 5182   4.558   1.717   4.505 -1.1654  0.3662 -1.9898
 1212SOL    HW2 5183   4.581   1.578   4.559  1.0013  1.0918 -0.9403
 1213SOL     OW 5184   1.719   1.077   1.393 -0.3251 -0.8327  1.2236
 1213SOL    HW1 5185   1.638   1.122   1.369 -0.3629 -1.8893 -0.8542
 1213SOL    HW2 5186   1.707   0.988   1.361  1.4452 -1.1595  1.3951
 1214SOL     OW 5187   6.733   3.892   5.566  0.0759 -0.8512 -0.4820
 1214SOL    HW1 5188   6.645   3.855   5.558 -0.1082 -0.3535 -0.8603
 1214SOL    HW2 5189   6.752   3.888   5.660 -1.1005  0.6658 -0.1370
 1215SOL     OW 5190   1.979   5.360   1.074  0.0531  0.1118 -0.3184
 1215SOL    HW1 5191   2.041   5.324   1.137 -1.3379 -0.8597  0.5551
 1215SOL    HW2 5192   1.965   5.450   1.104  0.1889 -0.0196  0.1561
 1216SOL     OW 5193   5.103   2.805   3.480 -0.4472 -0.2186  0.2881
 1216SOL    HW1 5194   5.038   2.867   3.515  0.5702  2.0202 -1.5250
 1216SOL    HW2 5195   5.053   2.749   3.421 -0.7825  1.7405 -1.4073
 1217SOL     OW 5196   6.490   5.616   3.931 -0.0143 -0.4912  0.9762
 1217SOL    HW1 5197   6.556   5.550   3.954  2.0502  1.0547 -0.1252
 1217SOL    HW2 5198   6.488   5.675   4.007  0.0212 -0.4480  0.9441
 1218SOL     OW 5199   5.388   5.040   3.737  0.0995  0.8995 -0.0902
 1218SOL    HW1 5200   5.394   4.993   3.820 -0.4913 -0.8845 -0.9957
 1218SOL    HW2 5201   5.294   5.050   3.722  0.2067  2.9566  0.3474
 1219SOL     OW 5202   6.437   2.355   2.587 -0.0928  0.0042  0.2866
 1219SOL    HW1 5203   6.508   2.388   2.532 -1.8555 -0.2485 -2.3163
 1219SOL    HW2 5204   6.428   2.263   2.562 -2.1466  0.3629 -0.4635
 1220SOL     OW 5205   4.233   6.438   1.093  0.1610  0.1483  0.1557
 1220SOL    HW1 5206   4.181   6.456   1.015 -2.3225 -2.0443  1.1344
 1220SOL    HW2 5207   4.187   6.483   1.164  1.3045  0.5629  0.6628
 1221SOL     OW 5208   5.177   5.252   4.124  0.0097 -0.5089  0.2829
 1221SOL    HW1 5209   5.106   5.265   4.187 -0.0847  0.7146 -0.0499
 1221SOL    HW2 5210   5.165   5.322   4.060 -0.7066 -2.5291 -1.9001
 1222SOL     OW 5211   2.882   1.056   4.715  0.5441  0.4471  0.4797
 1222SOL    HW1 5212   2.905   1.016   4.631  0.9112 -0.4894  1.0116
 1222SOL    HW2 5213   2.840   1.139   4.691 -0.0041 -0.1334 -0.6426
 1223SOL     OW 5214   6.694   1.585   4.103  0.4664  0.1957  0.3707
 1223SOL    HW1 5215   6.688   1.532   4.023 -0.3283 -0.7656  1.0454
 1223SOL    HW2 5216   6.702   1.675   4.071  1.0278 -0.2444 -0.7949
 1224SOL     OW 5217   1.438   5.112   5.329 -0.1090 -0.1980  0.2343
 1224SOL    HW1 5218   1.526   5.147   5.342  0.2136 -0.8520 -0.1505
 1224SOL    HW2 5219   1.395   5.125   5.414  0.0280  1.0130  0.1443
 1225SOL     OW 5220   0.810   6.771   1.991  0.0080  0.3019 -0.2251
 1225SOL    HW1 5221   0.821   6.845   1.932 -0.2497  1.0905  0.7034
 1225SOL    HW2 5222   0.776   6.809   2.072  2.6675 -0.3602  1.3269
 1226SOL     OW 5223   1.467   0.908   3.339  0.5130  0.0509  0.2089
 1226SOL    HW1 5224   1.528   0.981   3.349  0.5405  0.2528 -1.1340
 1226SOL    HW2 5225   1.409   0.936   3.267 -0.4216 -0.6212  0.6848
 1227SOL     OW 5226   2.873   5.168   0.375  0.0858 -0.0751  0.1425
 1227SOL    HW1 5227   2.847   5.252   0.337 -0.8902  0.5776  2.0806
 1227SOL    HW2 5228   2.896   5.189   0.466  1.0700 -1.7175  0.3101
 1228SOL     OW 5229   0.439   1.853   5.577  0.2573 -0.2597  0.3531
 1228SOL    HW1 5230   0.484   1.796   5.639 -0.2973  0.4239  1.4216
 1228SOL    HW2 5231   0.355   1.871   5.618  0.5519  1.5870  0.2244
 1229SOL     OW 5232   1.810   4.616   3.994  0.0935  0.2066 -0.4096
 1229SOL    HW1 5233   1.854   4.579   4.071 -1.1140  0.6318  0.5262
 1229SOL    HW2 5234   1.779   4.540   3.945  0.4186 -0.0611 -0.2060
 1230SOL     OW 5235   3.596   3.748   0.134 -0.4419  0.3650  0.1288
 1230SOL    HW1 5236   3.607   3.692   0.211 -1.5128 -0.2890 -0.1726
 1230SOL    HW2 5237   3.584   3.687   0.062 -0.2069  0.9797 -0.4377
 1231SOL     OW 5238   5.698   6.315   2.082 -0.1182  0.0531 -0.0447
 1231SOL    HW1 5239   5.729   6.378   2.147 -1.1254 -1.1793  1.7336
 1231SOL    HW2 5240   5.777   6.271   2.051  0.3640  0.4748  0.5610
 1232SOL     OW 5241   4.004   0.979   5.611  0.4776  0.5277  0.3337
 1232SOL    HW1 5242   4.028   1.070   5.595  0.1642  0.4012 -0.9585
 1232SOL    HW2 5243   4.085   0.929   5.596  0.0813  0.3617 -1.4814
 1233SOL     OW 5244   5.287   4.031   5.175 -0.3550 -0.1385 -0.1985
 1233SOL    HW1 5245   5.315   4.116   5.208  3.1462 -1.1048 -0.2658
 1233SOL    HW2 5246   5.285   3.975   5.252 -1.7262 -0.2298 -0.2887
 1234SOL     OW 5247   4.606   6.692   2.468  0.5606 -0.3286 -0.0758
 1234SOL    HW1 5248   4.523   6.726   2.503  0.9994  0.1577  0.5003
 1234SOL    HW2 5249   4.656   6.770   2.446  0.3090 -0.6049 -1.8211
 1235SOL     OW 5250   2.119   2.386   4.780  0.0531  0.0264  0.3979
 1235SOL    HW1 5251   2.167   2.393   4.863  1.3535  0.1211 -0.3399
 1235SOL    HW2 5252   2.070   2.304   4.788  0.4899 -0.1777  1.1040
 1236SOL     OW 5253   6.058   0.178   5.297  0.0918  0.0741  0.6794
 1236SOL    HW1 5254   6.135   0.190   5.352 -0.5225 -2.4016  2.2381
 1236SOL    HW2 5255   6.002   0.254   5.317 -0.2883 -0.9009  3.8893
 1237SOL     OW 5256   0.535   0.345   6.291  0.2104  0.2763 -0.2215
 1237SOL    HW1 5257   0.473   0.299   6.347  1.2752  1.0322  1.6627
 1237SOL    HW2 5258   0.481   0.383   6.221 -0.7894 -3.1949 -1.5541
 1238SOL     OW 5259   5.962   5.510   6.046 -0.2939  0.3034  0.0941
 1238SOL    HW1 5260   5.989   5.490   5.956 -0.6315  2.6895 -0.5984
 1238SOL    HW2 5261   5.949   5.604   6.047 -2.1629  0.1087  2.1765
 1239SOL     OW 5262   0.279   2.477   5.997  0.5475  0.7540 -0.1784
 1239SOL    HW1 5263   0.262   2.496   5.905 -1.0476  2.6534  0.4400
 1239SOL    HW2 5264   0.373   2.491   6.008  0.4883  2.0805 -1.1983
 1240SOL     OW 5265   4.953   5.888   6.074  0.2587 -0.0543 -0.3580
 1240SOL    HW1 5266   5.025   5.952   6.074  0.6930 -0.5258 -0.7182
 1240SOL    HW2 5267   4.875   5.940   6.091  0.3467  0.8997 -2.4802
 1241SOL     OW 5268   4.419   1.326   6.294  0.7030  0.2498 -0.2240
 1241SOL    HW1 5269   4.352   1.302   6.231 -0.3771  0.9311  0.6335
 1241SOL    HW2 5270   4.406   1.420   6.308  3.0600  0.8673 -1.4486
 1242SOL     OW 5271   1.430   4.165   4.430  0.1929 -0.1972 -0.2780
 1242SOL    HW1 5272   1.374   4.239   4.454 -0.1973 -0.3241 -0.7945
 1242SOL    HW2 5273   1.507   4.174   4.487  0.2251  0.7028 -0.4483
 1243SOL     OW 5274   1.374   1.056   0.781 -1.0211 -0.3444 -0.4619
 1243SOL    HW1 5275   1.424   1.105   0.846 -0.4585 -1.3542 -0.1104
 1243SOL    HW2 5276   1.292   1.034   0.825 -1.3171  0.3563 -0.6553
 1244SOL     OW 5277   5.500   6.314   2.853 -0.1456  0.1255  0.4978
 1244SOL    HW1 5278   5.494   6.323   2.758  0.6695  1.6187  0.5609
 1244SOL    HW2 5279   5.422   6.263   2.877 -2.2047  2.5074 -0.6480
 1245SOL     OW 5280   3.026   5.812   5.150  0.1046  0.4495 -0.3581
 1245SOL    HW1 5281   3.015   5.724   5.115 -0.5715  1.0956 -1.8811
 1245SOL    HW2 5282   3.092   5.803   5.218  0.7314 -1.0741 -1.1238
 1246SOL     OW 5283   6.539   4.407   1.503 -0.0991 -0.4625 -0.4968
 1246SOL    HW1 5284   6.552   4.480   1.442 -0.0189 -0.6347 -0.6872
 1246SOL    HW2 5285   6.527   4.449   1.588 -0.5867 -0.2039 -0.6903
 1247SOL     OW 5286   3.197   2.215   3.966  0.2224  0.3494 -0.8447
 1247SOL    HW1 5287   3.235   2.297   3.935  0.5360  0.4022 -0.3252
 1247SOL    HW2 5288   3.105   2.235   3.982  0.1858  0.4689 -1.1848
 1248SOL     OW 5289   4.686   5.947   2.030  0.4005  0.0048 -0.2986
 1248SOL    HW1 5290   4.704   6.039   2.009  2.1368  0.2769  2.0236
 1248SOL    HW2 5291   4.753   5.898   1.982 -0.9832 -0.1731 -2.1350
 1249SOL     OW 5292   5.504   2.712   0.626  0.6639  0.3190  0.3859
 1249SOL    HW1 5293   5.502   2.639   0.688  0.7104 -0.9275 -1.0181
 1249SOL    HW2 5294   5.460   2.678   0.548  0.7753  1.7758 -0.3410
 1250SOL     OW 5295   2.771   5.092   5.173  0.3683  0.3688  0.3059
 1250SOL    HW1 5296   2.818   5.018   5.135 -0.0066 -0.4571  1.3819
 1250SOL    HW2 5297   2.757   5.067   5.264 -0.6189  1.3484  0.4468
 1251SOL     OW 5298   4.524   3.779   4.016 -0.2036 -0.4861 -0.2295
 1251SOL    HW1 5299   4.593   3.718   4.042 -0.7399 -0.7553  0.5967
 1251SOL    HW2 5300   4.563   3.830   3.945  1.1884 -0.0173  0.8129
 1252SOL     OW 5301   4.846   1.199   5.806  0.0829 -0.0246 -0.4056
 1252SOL    HW1 5302   4.818   1.290   5.802 -1.9554 -0.6468 -3.3223
 1252SOL    HW2 5303   4.781   1.157   5.863  0.9963  0.2929  0.9021
 1253SOL     OW 5304   3.924   3.270   0.324 -0.2059 -0.3134 -0.2130
 1253SOL    HW1 5305   3.969   3.188   0.302  0.5799  0.1020 -0.1786
 1253SOL    HW2 5306   3.943   3.328   0.250 -0.8511 -0.1922 -0.2890
 1254SOL     OW 5307   1.768   2.517   2.787 -0.0408  0.1108 -0.7560
 1254SOL    HW1 5308   1.810   2.464   2.720  1.5002 -1.5313  1.3828
 1254SOL    HW2 5309   1.675   2.518   2.762  0.5969  0.5502 -3.4582
 1255SOL     OW 5310   4.189   4.329   6.760 -0.0806 -0.6567 -0.1614
 1255SOL    HW1 5311   4.281   4.311   6.740 -0.1322  0.6781 -1.8595
 1255SOL    HW2 5312   4.160   4.254   6.811  1.7447 -1.4593 -0.2323
 1256SOL     OW 5313   4.085   0.646   0.252  0.2036 -0.0424 -0.2651
 1256SOL    HW1 5314   4.111   0.560   0.285  0.2303  0.1071  0.1064
 1256SOL    HW2 5315   3.995   0.634   0.221 -0.1137  0.0133  0.6183
 1257SOL     OW 5316   0.841   1.682   6.609 -0.0066 -0.0712 -0.1072
 1257SOL    HW1 5317   0.816   1.618   6.676 -0.7102 -0.5166 -0.7667
 1257SOL    HW2 5318   0.871   1.629   6.535 -2.0494  0.2319 -1.2540
 1258SOL     OW 5319   3.377   6.504   5.954  0.4472  0.7510  0.1396
 1258SOL    HW1 5320   3.442   6.448   5.997  0.6352  0.2661 -0.7583
 1258SOL    HW2 5321   3.293   6.462   5.972  0.4199  1.0841  0.8434
 1259SOL     OW 5322   3.457   5.457   2.721  0.1722 -0.1149  0.2307
 1259SOL    HW1 5323   3.541   5.474   2.764 -0.0557  0.2329  0.5404
 1259SOL    HW2 5324   3.408   5.538   2.730 -0.4206 -0.5052  0.5578
 1260SOL     OW 5325   3.880   5.296   2.328 -0.0337  0.5279 -0.2250
 1260SOL    HW1 5326   3.876   5.297   2.232  1.4978  2.6500 -0.3367
 1260SOL    HW2 5327   3.796   5.331   2.356 -0.7955 -0.8299 -0.7339
 1261SOL     OW 5328   1.029   1.717   4.584 -0.4093  0.3553 -0.7390
 1261SOL    HW1 5329   0.986   1.675   4.510  1.4019  0.6986 -2.0681
 1261SOL    HW2 5330   0.999   1.807   4.583  0.0588  0.5107 -1.4538
 1262SOL     OW 5331   0.958   0.785   3.431 -0.3280 -0.5451 -0.1461
 1262SOL    HW1 5332   0.991   0.695   3.422  0.5193 -0.1237 -1.7239
 1262SOL    HW2 5333   0.986   0.828   3.350 -2.3874  0.6281 -0.2843
 1263SOL     OW 5334   2.759   4.764   0.962  0.1400 -0.0984 -0.3806
 1263SOL    HW1 5335   2.701   4.710   1.016 -1.0613 -0.2445 -1.7516
 1263SOL    HW2 5336   2.847   4.739   0.989 -0.4123 -1.1353  0.5554
 1264SOL     OW 5337   0.664   6.216   2.005 -0.1818 -0.6473 -0.0394
 1264SOL    HW1 5338   0.701   6.229   1.918 -0.9235 -0.6620 -0.3604
 1264SOL    HW2 5339   0.574   6.186   1.989  0.1158 -2.0280  0.7168
 1265SOL     OW 5340   3.181   0.129   6.393  0.9440 -0.4106 -0.1296
 1265SOL    HW1 5341   3.121   0.152   6.464  0.3180  0.0784 -0.8061
 1265SOL    HW2 5342   3.197   0.035   6.405  0.1694 -0.5101  0.1443
 1266SOL     OW 5343   1.706   3.607   6.780  0.4230 -0.3018  0.4460
 1266SOL    HW1 5344   1.652   3.669   6.731  0.3278 -0.5588  0.2161
 1266SOL    HW2 5345   1.793   3.645   6.779 -0.1744  1.3103  2.8689
 1267SOL     OW 5346   2.146   0.416   3.200  0.0263 -0.6211 -0.2592
 1267SOL    HW1 5347   2.086   0.432   3.273 -0.1239 -0.6424 -0.3755
 1267SOL    HW2 5348   2.222   0.471   3.218  0.7498 -1.8916  0.7997
 1268SOL     OW 5349   4.925   5.476   3.453  0.0786 -0.2914  0.1002
 1268SOL    HW1 5350   4.903   5.545   3.391 -0.5547  0.5799  1.2611
 1268SOL    HW2 5351   5.018   5.488   3.471  0.2941 -0.6187 -0.7380
 1269SOL     OW 5352   6.652   2.541   5.423  0.3867  0.9014  0.3557
 1269SOL    HW1 5353   6.726   2.497   5.381 -0.8388  0.3952 -1.3786
 1269SOL    HW2 5354   6.628   2.610   5.361  1.2819  3.1067  2.3101
 1270SOL     OW 5355   0.294   5.599   3.546  0.6270  0.6104  0.1444
 1270SOL    HW1 5356   0.342   5.518   3.563  0.3093  0.6237  1.1411
 1270SOL    HW2 5357   0.290   5.605   3.450  1.9242  0.2068  0.0468
 1271SOL     OW 5358   2.209   4.729   1.326 -0.2343  0.1757  0.2672
 1271SOL    HW1 5359   2.177   4.711   1.237 -0.2065  1.1580  0.0462
 1271SOL    HW2 5360   2.249   4.816   1.320  1.1465 -0.3922  0.8921
 1272SOL     OW 5361   6.537   1.311   1.593  0.1979  0.4158  0.2867
 1272SOL    HW1 5362   6.570   1.322   1.682 -0.1602  1.5463  0.2929
 1272SOL    HW2 5363   6.456   1.362   1.591  0.1261  0.2759 -0.6439
 1273SOL     OW 5364   2.936   3.942   1.380  0.4153  0.1188 -0.1786
 1273SOL    HW1 5365   2.958   4.030   1.349  2.4360 -0.6110 -1.0219
 1273SOL    HW2 5366   2.946   3.886   1.303 -0.4464 -0.9205  0.4385
 1274SOL     OW 5367   3.838   5.391   2.037  0.0996 -0.2700  0.6368
 1274SOL    HW1 5368   3.921   5.403   1.991 -0.1028  0.3618  0.4217
 1274SOL    HW2 5369   3.829   5.470   2.091 -0.0932 -0.5911  1.0835
 1275SOL     OW 5370   3.948   3.018   0.967  0.6892  0.1326  0.3459
 1275SOL    HW1 5371   4.035   3.058   0.976  0.7605  0.0154  0.1863
 1275SOL    HW2 5372   3.961   2.948   0.902  0.1285  1.1272 -0.8850
 1276SOL     OW 5373   3.674   0.861   0.061 -0.3037 -0.1926  0.2352
 1276SOL    HW1 5374   3.584   0.854   0.092 -0.1804 -2.1604  0.3235
 1276SOL    HW2 5375   3.670   0.835  -0.031 -0.2185  2.6420 -0.6436
 1277SOL     OW 5376   1.015   3.019   5.431  0.2622 -0.6587  0.7271
 1277SOL    HW1 5377   1.100   3.023   5.475  0.2194  0.3951  0.7519
 1277SOL    HW2 5378   1.017   3.092   5.369 -0.3963 -0.9906  0.3066
 1278SOL     OW 5379   3.078   6.699   2.372 -0.6249  0.1911 -0.3602
 1278SOL    HW1 5380   3.050   6.611   2.348  0.6900 -0.7915  1.4552
 1278SOL    HW2 5381   3.010   6.731   2.431 -1.2704  0.5589 -1.2795
 1279SOL     OW 5382   2.346   5.231   0.372  0.3647  0.1009  0.3394
 1279SOL    HW1 5383   2.347   5.177   0.450  0.4849  0.4775  0.6015
 1279SOL    HW2 5384   2.380   5.174   0.303  1.2511  0.0751  0.7753
 1280SOL     OW 5385   1.440   4.051   2.422 -0.3937  0.1750 -0.5993
 1280SOL    HW1 5386   1.357   4.052   2.470  0.0630 -0.5833  0.2507
 1280SOL    HW2 5387   1.452   3.959   2.399  0.3290  0.2457 -0.5065
 1281SOL     OW 5388   4.708   5.716   5.232 -0.1489 -0.4108  0.4867
 1281SOL    HW1 5389   4.614   5.716   5.212 -0.4583 -0.8008  1.8012
 1281SOL    HW2 5390   4.746   5.780   5.172 -1.0795 -1.0358 -0.8219
 1282SOL     OW 5391   6.070   6.347   1.731 -0.0187  0.2805  0.7665
 1282SOL    HW1 5392   6.164   6.357   1.716  0.4351 -1.2293  2.3153
 1282SOL    HW2 5393   6.045   6.272   1.677 -0.3471  0.6679  0.3715
 1283SOL     OW 5394   3.316   2.149   2.873 -0.0986 -0.2608  0.4587
 1283SOL    HW1 5395   3.389   2.210   2.861  0.2254 -0.9518 -1.2678
 1283SOL    HW2 5396   3.277   2.176   2.956  0.2121  2.1129 -0.0810
 1284SOL     OW 5397   0.284   3.674   4.878 -0.2341 -0.2398 -0.4920
 1284SOL    HW1 5398   0.211   3.614   4.859  0.2302 -0.4200 -1.8434
 1284SOL    HW2 5399   0.249   3.761   4.861 -0.3267 -0.2742 -0.4772
 1285SOL     OW 5400   5.123   3.627   4.445 -0.0236 -0.4939 -0.0346
 1285SOL    HW1 5401   5.106   3.587   4.360 -2.2016  0.4023 -0.0980
 1285SOL    HW2 5402   5.054   3.593   4.502 -1.6829  2.5522  0.0342
 1286SOL     OW 5403   0.775   6.354   0.952 -0.0651  0.5291 -0.3835
 1286SOL    HW1 5404   0.698   6.330   1.003 -0.3238  3.4833  0.8164
 1286SOL    HW2 5405   0.752   6.438   0.913  1.3554 -0.1134 -2.7877
 1287SOL     OW 5406   4.302   4.092   3.886  0.4013 -0.1154 -0.2785
 1287SOL    HW1 5407   4.355   4.117   3.961  1.5816 -1.7025 -0.5259
 1287SOL    HW2 5408   4.364   4.090   3.813 -0.8543  2.1390 -1.5271
 1288SOL     OW 5409   0.087   1.636   5.816  1.1432 -0.3467 -0.6277
 1288SOL    HW1 5410   0.076   1.577   5.891  2.4166  0.2703  0.0661
 1288SOL    HW2 5411   0.001   1.678   5.807  1.4632  1.0855  1.8417
 1289SOL     OW 5412   4.881   5.662   6.471 -0.4472 -0.4218  0.1393
 1289SOL    HW1 5413   4.836   5.694   6.550 -1.2381  0.5211 -0.6729
 1289SOL    HW2 5414   4.822   5.595   6.436 -0.5931 -0.1058 -0.2177
 1290SOL     OW 5415   5.626   4.931   1.930  0.6637 -0.5080 -0.1302
 1290SOL    HW1 5416   5.707   4.889   1.960  0.7039  0.2425  0.8557
 1290SOL    HW2 5417   5.623   5.013   1.978 -0.9694 -0.7770  0.2712
 1291SOL     OW 5418   2.196   5.094   3.804 -0.5816  0.2628  1.0429
 1291SOL    HW1 5419   2.111   5.096   3.761  0.5186 -0.1553 -1.3258
 1291SOL    HW2 5420   2.181   5.048   3.886 -2.5244 -0.3408  0.3929
 1292SOL     OW 5421   5.874   6.511   3.768  0.3751 -0.0772  0.0141
 1292SOL    HW1 5422   5.808   6.504   3.699 -0.4315 -1.3021  0.8757
 1292SOL    HW2 5423   5.829   6.556   3.840  0.7896 -0.0127  0.2368
 1293SOL     OW 5424   0.977   3.240   3.350  0.0124  0.0758  0.2425
 1293SOL    HW1 5425   1.006   3.162   3.302  0.2692 -1.3705  2.5797
 1293SOL    HW2 5426   0.906   3.209   3.405  1.6449  0.8509  2.9751
 1294SOL     OW 5427   5.230   3.195   0.875 -0.2170  0.3292 -0.1260
 1294SOL    HW1 5428   5.160   3.164   0.818 -0.3106 -0.2363  0.2837
 1294SOL    HW2 5429   5.248   3.121   0.933  0.7387  0.4625 -0.2392
 1295SOL     OW 5430   0.684   0.804   1.899  0.1536  0.2276 -0.0718
 1295SOL    HW1 5431   0.745   0.803   1.973  1.1997  0.1425 -0.9042
 1295SOL    HW2 5432   0.741   0.799   1.822 -0.9566 -0.8345 -0.8552
 1296SOL     OW 5433   4.608   2.329   5.396  0.1966  0.1747 -0.2099
 1296SOL    HW1 5434   4.630   2.251   5.345  0.8998  0.9251 -1.0758
 1296SOL    HW2 5435   4.516   2.346   5.377  0.1585 -0.1858 -0.3560
 1297SOL     OW 5436   0.130   2.193   0.866 -0.5330 -0.5144 -0.0922
 1297SOL    HW1 5437   0.068   2.223   0.933 -0.1243  2.3349 -0.8419
 1297SOL    HW2 5438   0.121   2.257   0.795  0.3905 -2.3670 -1.9876
 1298SOL     OW 5439   2.983   1.730   1.703  0.0938 -0.2345  0.3781
 1298SOL    HW1 5440   2.986   1.825   1.713  2.7399 -0.3348  1.3075
 1298SOL    HW2 5441   2.989   1.696   1.792 -0.7638 -1.2875  0.0485
 1299SOL     OW 5442   5.741   2.015   2.618  0.5516 -0.8946  0.6344
 1299SOL    HW1 5443   5.763   2.052   2.533  1.0685  1.3644  1.6792
 1299SOL    HW2 5444   5.704   1.929   2.598 -1.4368  0.4316 -2.0468
 1300SOL     OW 5445   4.668   0.642   3.619 -0.3293 -0.1755 -0.3292
 1300SOL    HW1 5446   4.659   0.586   3.696 -1.1575  1.3692  0.7586
 1300SOL    HW2 5447   4.603   0.608   3.557 -1.5170  0.1359  0.6963
 1301SOL     OW 5448   6.617   4.929   0.756 -0.6050  0.0249 -0.1275
 1301SOL    HW1 5449   6.654   5.015   0.737  0.7786 -0.7067 -0.8852
 1301SOL    HW2 5450   6.623   4.921   0.851  1.4557 -0.1333 -0.2150
 1302SOL     OW 5451   3.964   5.111   4.647  0.6586 -0.0664  0.0079
 1302SOL    HW1 5452   3.992   5.021   4.636 -1.2053 -0.5138 -1.7199
 1302SOL    HW2 5453   4.035   5.153   4.696  1.1287 -2.6610  1.7693
 1303SOL     OW 5454   3.615   5.729   2.131  0.0559 -0.3225 -0.2080
 1303SOL    HW1 5455   3.521   5.726   2.151  0.0706 -0.1834 -0.1159
 1303SOL    HW2 5456   3.620   5.725   2.036 -0.1207  1.3378 -0.3171
 1304SOL     OW 5457   2.286   4.793   6.775 -0.1969  0.3910  0.4607
 1304SOL    HW1 5458   2.249   4.741   6.847  0.2667  0.2478  0.6003
 1304SOL    HW2 5459   2.210   4.830   6.730 -0.5940 -1.2902 -0.3136
 1305SOL     OW 5460   3.418   2.577   2.481  0.3486  0.4535 -0.0376
 1305SOL    HW1 5461   3.333   2.553   2.444  0.7475  1.2250 -1.5359
 1305SOL    HW2 5462   3.415   2.673   2.485  0.1298  0.3947  2.4948
 1306SOL     OW 5463   3.179   3.230   5.751  0.1841 -0.1817 -0.1467
 1306SOL    HW1 5464   3.234   3.205   5.676 -1.3660 -2.0302 -0.7584
 1306SOL    HW2 5465   3.178   3.152   5.806 -1.4448 -0.0528  0.0459
 1307SOL     OW 5466   6.505   3.741   5.521 -0.5618 -0.2291 -0.0667
 1307SOL    HW1 5467   6.515   3.646   5.513 -1.0015 -0.2639 -0.2380
 1307SOL    HW2 5468   6.447   3.753   5.596 -0.1857 -0.0759  0.2059
 1308SOL     OW 5469   1.762   5.844   4.181 -0.2669  0.7319 -0.7103
 1308SOL    HW1 5470   1.747   5.937   4.200 -0.5483  0.4456  0.6097
 1308SOL    HW2 5471   1.847   5.841   4.137  0.7284  1.4655  1.0379
 1309SOL     OW 5472   5.189   3.039   5.060  0.5207  0.4529  0.2831
 1309SOL    HW1 5473   5.279   3.073   5.068 -0.2854  2.2081  2.9391
 1309SOL    HW2 5474   5.139   3.113   5.025 -0.3422  0.3943  1.3392
 1310SOL     OW 5475   5.709   2.059   4.225  0.3961 -0.3237  0.6560
 1310SOL    HW1 5476   5.727   1.976   4.181 -1.6713 -0.6493  0.3274
 1310SOL    HW2 5477   5.643   2.037   4.291  1.6431  0.6223  2.2898
 1311SOL     OW 5478   6.632   0.162   2.307  0.0145  0.2523 -0.2538
 1311SOL    HW1 5479   6.647   0.089   2.367  1.1541  0.8764  0.2591
 1311SOL    HW2 5480   6.639   0.123   2.220  0.6885 -0.2512  0.0169
 1312SOL     OW 5481   3.705   0.851   5.337  0.2398 -0.0083 -0.3275
 1312SOL    HW1 5482   3.715   0.756   5.346 -0.9952 -0.1179  0.1828
 1312SOL    HW2 5483   3.705   0.883   5.427 -2.2275  0.1052 -0.3067
 1313SOL     OW 5484   3.746   4.987   2.051  0.3008  0.0226  0.4980
 1313SOL    HW1 5485   3.778   4.990   2.141  1.2335 -0.9131  0.2176
 1313SOL    HW2 5486   3.752   4.895   2.026 -1.9093 -0.0815  0.1428
 1314SOL     OW 5487   3.909   2.207   1.327 -0.1188 -0.1373 -0.3119
 1314SOL    HW1 5488   3.984   2.149   1.341 -0.0893  0.0957  0.5137
 1314SOL    HW2 5489   3.939   2.293   1.353 -0.8997 -0.1724  0.7763
 1315SOL     OW 5490   3.593   2.080   1.442 -0.6039  0.2457 -0.2612
 1315SOL    HW1 5491   3.575   2.029   1.363 -0.3765 -0.7257  0.2975
 1315SOL    HW2 5492   3.588   2.171   1.413 -0.6989 -0.0880 -1.3538
 1316SOL     OW 5493   5.013   4.716   6.168  0.7209  0.3370  0.0772
 1316SOL    HW1 5494   5.053   4.742   6.085  1.5714 -1.4996 -0.1445
 1316SOL    HW2 5495   4.936   4.772   6.176 -0.5935 -0.8225 -3.0164
 1317SOL     OW 5496   4.807   5.546   1.123  0.1717 -0.3493 -0.5798
 1317SOL    HW1 5497   4.839   5.636   1.131 -0.2819 -0.0155 -2.1444
 1317SOL    HW2 5498   4.873   5.493   1.169  0.8747  0.6953 -0.3512
 1318SOL     OW 5499   6.409   5.931   6.571  0.3479 -0.0163 -0.1289
 1318SOL    HW1 5500   6.319   5.942   6.602 -0.0972 -0.3381 -1.2517
 1318SOL    HW2 5501   6.411   5.841   6.538  0.9307  0.1546 -0.5686
 1319SOL     OW 5502   6.335   0.508   4.882  0.1430  0.0068 -0.4023
 1319SOL    HW1 5503   6.321   0.487   4.974 -0.1033  0.6093 -0.2969
 1319SOL    HW2 5504   6.267   0.460   4.835 -0.2091  0.2969 -0.1941
 1320SOL     OW 5505   5.157   0.155   1.171 -0.3973  0.0129 -0.0084
 1320SOL    HW1 5506   5.245   0.130   1.199 -0.7595 -1.4833 -0.1666
 1320SOL    HW2 5507   5.102   0.135   1.246 -0.7966 -0.2647 -0.3765
 1321SOL     OW 5508   4.931   3.516   4.912  0.4482 -0.2630  0.0194
 1321SOL    HW1 5509   4.955   3.559   4.994  2.3262 -0.6439 -0.2758
 1321SOL    HW2 5510   4.845   3.478   4.929  0.3495  0.5313  1.4637
 1322SOL     OW 5511   3.859   0.590   2.742 -0.3854  0.3326 -0.3830
 1322SOL    HW1 5512   3.833   0.681   2.751 -1.8860 -0.2428  1.6945
 1322SOL    HW2 5513   3.864   0.556   2.831 -1.7662 -2.0970 -1.1157
 1323SOL     OW 5514   4.952   2.022   4.927 -0.2008 -0.2012 -0.1700
 1323SOL    HW1 5515   4.918   2.091   4.985  2.4178  0.6414  0.4796
 1323SOL    HW2 5516   5.007   1.969   4.984  1.8750  0.2175 -1.6764
 1324SOL     OW 5517   0.014   0.505   3.993  0.1713  0.5105 -0.2697
 1324SOL    HW1 5518  -0.071   0.492   4.035  0.9714 -1.6997  0.7962
 1324SOL    HW2 5519  -0.003   0.567   3.922 -2.1613  0.6730  0.3711
 1325SOL     OW 5520   0.613   3.665   0.628 -0.1424 -0.0440 -0.0684
 1325SOL    HW1 5521   0.635   3.632   0.715  0.5679 -0.7614 -0.5065
 1325SOL    HW2 5522   0.527   3.628   0.609 -0.1724 -0.1214  0.2106
 1326SOL     OW 5523   4.484   6.233   4.945 -0.4972  0.2454 -0.2710
 1326SOL    HW1 5524   4.493   6.322   4.980 -0.7429  0.9392 -1.8905
 1326SOL    HW2 5525   4.547   6.181   4.995 -0.5053  1.2722  0.8549
 1327SOL     OW 5526   5.688   2.355   4.601 -0.7161 -0.3807 -0.5714
 1327SOL    HW1 5527   5.633   2.432   4.584 -1.2065 -0.6945 -0.4419
 1327SOL    HW2 5528   5.720   2.328   4.515 -1.5985 -0.7975 -0.7833
 1328SOL     OW 5529   0.268   4.967   3.239  0.2990 -0.2731  0.9518
 1328SOL    HW1 5530   0.248   4.943   3.148 -1.1068 -1.1355  1.4635
 1328SOL    HW2 5531   0.323   4.896   3.271  1.3962  0.3843  0.5894
 1329SOL     OW 5532   0.670   3.683   3.111 -0.1605 -0.0596 -0.2966
 1329SOL    HW1 5533   0.614   3.694   3.034 -0.3000  1.0470 -0.0413
 1329SOL    HW2 5534   0.732   3.755   3.107 -0.8539  0.6569  1.2056
 1330SOL     OW 5535   6.344   4.457   2.957  0.3642  0.5775  0.0931
 1330SOL    HW1 5536   6.257   4.440   2.921  0.5879 -1.3538  0.3511
 1330SOL    HW2 5537   6.404   4.413   2.896  1.3003  2.7614 -0.6754
 1331SOL     OW 5538   3.999   3.962   1.263 -0.2805  0.0277 -0.5843
 1331SOL    HW1 5539   4.015   4.051   1.230  0.2154  0.0185 -0.3829
 1331SOL    HW2 5540   4.007   3.906   1.186 -2.4949  0.3322 -1.0881
 1332SOL     OW 5541   5.457   6.633   2.716 -0.4495 -0.3211 -0.4110
 1332SOL    HW1 5542   5.517   6.559   2.707 -1.0475 -0.9204  0.3900
 1332SOL    HW2 5543   5.447   6.667   2.627  1.0514 -0.2076 -0.5654
 1333SOL     OW 5544   1.482   6.226   6.795 -0.2355 -0.9383 -0.4240
 1333SOL    HW1 5545   1.410   6.170   6.768 -1.1559  0.5268 -1.1768
 1333SOL    HW2 5546   1.448   6.273   6.872  0.0429 -0.4981 -0.5667
 1334SOL     OW 5547   3.369   3.258   2.365 -0.2798 -0.0916  1.0595
 1334SOL    HW1 5548   3.456   3.240   2.401 -0.2423  0.6233  1.3566
 1334SOL    HW2 5549   3.345   3.342   2.404 -0.9482 -0.1069  0.6882
 1335SOL     OW 5550   0.358   5.168   3.795 -0.0935  0.0948  0.2129
 1335SOL    HW1 5551   0.315   5.222   3.862  1.5999 -1.1059  2.3845
 1335SOL    HW2 5552   0.304   5.089   3.790 -1.4550  1.0594 -1.5337
 1336SOL     OW 5553   0.767   6.012   3.214 -0.0844  0.2877 -0.5515
 1336SOL    HW1 5554   0.673   6.022   3.202  0.0397  1.5849 -0.5673
 1336SOL    HW2 5555   0.806   6.064   3.144  0.6301  0.6918  0.1249
 1337SOL     OW 5556   2.611   2.152   2.316 -0.2186 -0.4139 -0.0693
 1337SOL    HW1 5557   2.635   2.061   2.300  1.1095 -0.0439 -0.3125
 1337SOL    HW2 5558   2.639   2.199   2.237 -0.2842  0.3082  0.3239
 1338SOL     OW 5559   4.264   1.572   4.501 -0.2197  0.0355 -0.3386
 1338SOL    HW1 5560   4.355   1.599   4.508 -0.1436 -0.0503 -0.9653
 1338SOL    HW2 5561   4.225   1.633   4.439 -0.1993 -0.8682 -1.2763
 1339SOL     OW 5562   0.433   1.985   6.694  0.2598  0.4044 -0.2122
 1339SOL    HW1 5563   0.452   1.930   6.770 -1.4445  0.0225 -0.0064
 1339SOL    HW2 5564   0.441   1.926   6.619  2.8948  1.0050 -0.4945
 1340SOL     OW 5565   2.236   1.310   3.700  0.0715 -0.0605 -0.5449
 1340SOL    HW1 5566   2.292   1.388   3.707 -0.2180  0.0999  0.2290
 1340SOL    HW2 5567   2.268   1.252   3.769 -0.0947 -0.3724 -0.7325
 1341SOL     OW 5568   3.473   4.963   1.906 -0.2554 -0.1205  0.7024
 1341SOL    HW1 5569   3.442   4.895   1.965 -0.8194  0.0250  0.5752
 1341SOL    HW2 5570   3.396   5.015   1.886 -0.5442 -1.3041 -1.6870
 1342SOL     OW 5571   0.029   5.400   6.154 -0.4892 -0.5072 -0.1841
 1342SOL    HW1 5572  -0.043   5.360   6.106 -0.8542  0.5512 -0.5405
 1342SOL    HW2 5573  -0.014   5.450   6.224 -0.3084  2.0612 -1.7951
 1343SOL     OW 5574   1.746   3.828   3.087  0.1719  0.5112 -0.0770
 1343SOL    HW1 5575   1.737   3.764   3.157  0.7694  0.3805 -0.1163
 1343SOL    HW2 5576   1.748   3.913   3.131 -0.3886  0.4917 -0.0089
 1344SOL     OW 5577   1.644   5.198   5.459 -0.0288 -0.6540  0.1244
 1344SOL    HW1 5578   1.659   5.194   5.553 -1.0185 -2.4143  0.2528
 1344SOL    HW2 5579   1.626   5.291   5.442  2.6034  0.1531  1.2029
 1345SOL     OW 5580   0.213   3.085   1.642 -0.3407  0.2648  0.0207
 1345SOL    HW1 5581   0.262   3.166   1.655 -0.8353  0.7269 -0.8799
 1345SOL    HW2 5582   0.143   3.089   1.708  0.4070 -0.0766  0.8562
 1346SOL     OW 5583   0.835   4.481   2.307  0.3549  0.1886  0.1139
 1346SOL    HW1 5584   0.813   4.396   2.347  1.0430  0.1493  0.4330
 1346SOL    HW2 5585   0.757   4.534   2.320  0.7420  0.3659  2.0648
 1347SOL     OW 5586   3.092   3.538   6.256  0.1423 -0.3441 -0.0627
 1347SOL    HW1 5587   3.090   3.481   6.333 -0.3910  0.3215  0.4411
 1347SOL    HW2 5588   3.122   3.623   6.290 -3.5843  1.0490  0.2629
 1348SOL     OW 5589   4.947   0.264   6.666 -0.4624  0.8501 -0.1204
 1348SOL    HW1 5590   4.940   0.330   6.597 -2.2010  0.2512 -0.5618
 1348SOL    HW2 5591   4.871   0.280   6.723  1.2755  1.7583  2.1013
 1349SOL     OW 5592   0.367   4.882   4.480 -0.6319  0.2348  0.1278
 1349SOL    HW1 5593   0.358   4.974   4.504 -2.0734 -0.2625  1.7731
 1349SOL    HW2 5594   0.282   4.843   4.503 -0.1088 -1.4736 -0.6642
 1350SOL     OW 5595   1.125   1.412   2.400 -0.0525 -0.4029  0.1858
 1350SOL    HW1 5596   1.070   1.404   2.322  0.0254  2.1872 -0.2285
 1350SOL    HW2 5597   1.078   1.474   2.456  1.0506 -0.3717  1.1196
 1351SOL     OW 5598   6.633   5.647   3.357 -0.4635 -0.7904 -0.0177
 1351SOL    HW1 5599   6.560   5.598   3.394 -0.3438 -0.4955  0.6314
 1351SOL    HW2 5600   6.688   5.669   3.433 -0.0831 -0.3864 -0.4032
 1352SOL     OW 5601   2.749   2.594   6.194 -0.1807 -0.0154  0.6418
 1352SOL    HW1 5602   2.812   2.659   6.225 -0.3811  0.9283 -0.8023
 1352SOL    HW2 5603   2.763   2.592   6.099 -2.0707 -0.0428  0.3362
 1353SOL     OW 5604   3.602   3.353   4.015 -0.0193 -0.0582  0.3477
 1353SOL    HW1 5605   3.536   3.291   4.047  0.1266 -0.0790  0.6117
 1353SOL    HW2 5606   3.676   3.344   4.076  0.2296 -0.0369  0.0559
 1354SOL     OW 5607   1.567   2.207   2.906 -0.2759  0.0215  0.2166
 1354SOL    HW1 5608   1.585   2.139   2.841  0.5542  0.0239  0.4340
 1354SOL    HW2 5609   1.643   2.205   2.965 -0.0491  1.3834  0.0081
 1355SOL     OW 5610   4.992   1.567   0.396  0.1173 -0.0076  0.0422
 1355SOL    HW1 5611   4.994   1.486   0.344 -2.2245 -1.7718  2.4334
 1355SOL    HW2 5612   5.058   1.554   0.464 -1.4752 -0.8039  1.5055
 1356SOL     OW 5613   1.688   2.311   0.025 -1.1930  0.2746 -0.2291
 1356SOL    HW1 5614   1.742   2.378  -0.017 -1.5073  0.2277 -0.7114
 1356SOL    HW2 5615   1.632   2.278  -0.045 -1.0268 -0.5089  0.0043
 1357SOL     OW 5616   6.193   6.778   1.711 -0.4582 -0.0034 -0.1370
 1357SOL    HW1 5617   6.120   6.832   1.680 -0.4667  0.1447  0.1407
 1357SOL    HW2 5618   6.152   6.704   1.755 -0.4444  0.4582  0.6739
 1358SOL     OW 5619   0.446   3.450   4.823  0.0196  0.0839 -0.2946
 1358SOL    HW1 5620   0.389   3.401   4.883 -0.1874 -0.6050 -1.0362
 1358SOL    HW2 5621   0.433   3.542   4.847 -0.1911 -0.1674  0.5935
 1359SOL     OW 5622   6.029   2.639   5.820 -0.0129 -0.0253  0.0175
 1359SOL    HW1 5623   6.121   2.625   5.840 -0.1032  1.4366  1.7683
 1359SOL    HW2 5624   5.987   2.555   5.840  0.8995 -0.6263 -0.5663
 1360SOL     OW 5625   4.605   5.086   3.666  0.1179 -0.2871  0.7853
 1360SOL    HW1 5626   4.685   5.139   3.658  0.5339 -0.6202  2.4539
 1360SOL    HW2 5627   4.546   5.122   3.599  0.7600  1.6335  1.1874
 1361SOL     OW 5628   3.009   3.778   1.161  0.0511 -0.6007  0.7488
 1361SOL    HW1 5629   2.968   3.696   1.134 -0.1212 -0.1777 -0.3271
 1361SOL    HW2 5630   2.983   3.841   1.093  0.6516  0.2062  1.2521
 1362SOL     OW 5631   1.505   3.365   4.499 -0.2864  0.1877  0.2926
 1362SOL    HW1 5632   1.537   3.307   4.430  2.1109 -0.5972  1.9194
 1362SOL    HW2 5633   1.443   3.312   4.548  0.2447 -0.2779  0.4747
 1363SOL     OW 5634   0.907   0.424   1.579 -0.0815  0.3260 -0.6685
 1363SOL    HW1 5635   0.900   0.515   1.608  2.2109 -0.1627  1.8821
 1363SOL    HW2 5636   0.914   0.429   1.484 -1.6773  2.6479 -0.7338
 1364SOL     OW 5637   4.396   2.519   5.116 -0.5006 -0.2661  0.0926
 1364SOL    HW1 5638   4.346   2.576   5.174  2.2961  0.0169  2.4640
 1364SOL    HW2 5639   4.455   2.577   5.069  0.8326 -0.9195  0.8843
 1365SOL     OW 5640   1.945   0.853   1.729 -0.1932 -0.2991 -0.4022
 1365SOL    HW1 5641   1.998   0.777   1.752  0.7107  0.1237 -1.0280
 1365SOL    HW2 5642   1.969   0.873   1.639 -0.7096  0.4959 -0.3752
 1366SOL     OW 5643   4.875   0.336   3.684 -0.0330  0.3034  0.1153
 1366SOL    HW1 5644   4.823   0.270   3.638  0.1014 -0.1067  0.5438
 1366SOL    HW2 5645   4.914   0.388   3.614  0.4589 -0.5326 -0.2462
 1367SOL     OW 5646   1.595   1.563   6.767  0.2097  0.1468  0.3809
 1367SOL    HW1 5647   1.580   1.580   6.674 -0.7964  2.8624  0.9611
 1367SOL    HW2 5648   1.685   1.528   6.770  0.1429 -0.3309 -1.6075
 1368SOL     OW 5649   2.147   2.495   6.098 -0.2980 -0.1769 -0.0486
 1368SOL    HW1 5650   2.085   2.452   6.157 -0.0053 -0.1710  0.2716
 1368SOL    HW2 5651   2.198   2.553   6.156 -2.3351  2.5878 -0.7854
 1369SOL     OW 5652   4.632   1.554   2.039 -0.9494 -0.0958  0.3827
 1369SOL    HW1 5653   4.710   1.548   1.983 -1.3077 -1.0937 -0.0462
 1369SOL    HW2 5654   4.566   1.503   1.992 -1.8649  0.7237  0.7469
 1370SOL     OW 5655   0.123   4.425   3.803  0.2732  0.0337 -0.2790
 1370SOL    HW1 5656   0.138   4.351   3.744  0.9927 -1.0258  1.1875
 1370SOL    HW2 5657   0.068   4.390   3.873 -0.8916  1.3773 -0.4729
 1371SOL     OW 5658   4.746   3.850   0.122  0.1419  0.4476 -0.0658
 1371SOL    HW1 5659   4.817   3.790   0.144  1.1740  1.0003 -1.7126
 1371SOL    HW2 5660   4.678   3.831   0.187  0.8892 -1.6674  0.1908
 1372SOL     OW 5661   2.559   3.312   3.952 -0.2323 -0.4907 -0.1422
 1372SOL    HW1 5662   2.474   3.327   3.908  0.0673 -0.0340 -0.5882
 1372SOL    HW2 5663   2.607   3.394   3.937 -0.3458 -0.0814  1.5849
 1373SOL     OW 5664   0.159   1.251   5.553  0.5586 -0.6933 -0.2249
 1373SOL    HW1 5665   0.229   1.207   5.602 -0.2795  0.2145  1.9565
 1373SOL    HW2 5666   0.179   1.344   5.561 -0.4665 -0.4616 -0.2020
 1374SOL     OW 5667   5.125   0.139   6.473  0.0078 -0.3497  0.3395
 1374SOL    HW1 5668   5.177   0.216   6.449  0.2116 -0.8562 -0.9471
 1374SOL    HW2 5669   5.057   0.173   6.530 -0.4838  0.9635 -0.9723
 1375SOL     OW 5670   6.297   4.331   0.142  0.0631  0.2482 -0.0137
 1375SOL    HW1 5671   6.359   4.282   0.196  1.1960  1.1966 -0.4162
 1375SOL    HW2 5672   6.211   4.306   0.176  0.5218 -2.4254 -0.5372
 1376SOL     OW 5673   5.563   3.307   2.209  0.4595  0.6571 -0.3587
 1376SOL    HW1 5674   5.560   3.327   2.303 -0.1479  1.0849 -0.4601
 1376SOL    HW2 5675   5.478   3.267   2.190  1.3867 -1.4852 -0.3088
 1377SOL     OW 5676   5.471   0.485   5.862 -0.4967 -0.4863  0.0003
 1377SOL    HW1 5677   5.543   0.484   5.926  0.0419 -2.0830 -0.5835
 1377SOL    HW2 5678   5.454   0.392   5.844 -0.3412 -0.0995 -2.4875
 1378SOL     OW 5679   1.550   0.932   2.315  0.1812  0.6743  0.0038
 1378SOL    HW1 5680   1.468   0.885   2.331 -0.6822  2.2595  0.3646
 1378SOL    HW2 5681   1.538   0.970   2.228  0.0121  1.9372  0.5667
 1379SOL     OW 5682   1.827   1.041   3.942 -0.0756  0.1150  0.0210
 1379SOL    HW1 5683   1.900   1.097   3.915  1.3035 -0.8369  1.5596
 1379SOL    HW2 5684   1.869   0.960   3.971 -1.8957 -1.1261 -0.6599
 1380SOL     OW 5685   3.945   2.887   4.592  0.6244 -0.1175  0.0883
 1380SOL    HW1 5686   3.894   2.810   4.617 -0.6851  0.3901 -0.9236
 1380SOL    HW2 5687   3.993   2.860   4.514  0.6990 -0.1195  0.1346
 1381SOL     OW 5688   5.405   3.870   5.389 -0.4366 -0.2425 -0.5408
 1381SOL    HW1 5689   5.419   3.792   5.334 -1.1592 -0.2389 -0.7346
 1381SOL    HW2 5690   5.479   3.869   5.450  0.9981  0.3483 -2.1836
 1382SOL     OW 5691   0.656   1.717   1.686 -0.6696  0.1474 -0.1205
 1382SOL    HW1 5692   0.671   1.798   1.638  0.0972  0.9356  1.3750
 1382SOL    HW2 5693   0.565   1.722   1.714  0.2596  2.3535  3.0793
 1383SOL     OW 5694   6.403   4.145   4.520  0.0600 -0.0362  0.0371
 1383SOL    HW1 5695   6.318   4.127   4.560 -0.7675 -0.1602 -1.6747
 1383SOL    HW2 5696   6.401   4.096   4.438  0.8450  1.7583 -1.1134
 1384SOL     OW 5697   2.312   3.308   5.926 -0.3958  0.5555 -0.0343
 1384SOL    HW1 5698   2.371   3.233   5.928 -1.3292 -0.2059  1.3905
 1384SOL    HW2 5699   2.254   3.290   5.852 -1.2595 -0.7062  0.9009
 1385SOL     OW 5700   0.904   2.750   3.025  0.3724 -0.1778 -0.0327
 1385SOL    HW1 5701   0.987   2.721   2.987  1.0394 -1.4459  2.2451
 1385SOL    HW2 5702   0.841   2.683   2.999  0.6328 -0.5921  0.4024
 1386SOL     OW 5703   6.357   1.370   1.889  0.1921  0.3437 -0.4503
 1386SOL    HW1 5704   6.327   1.280   1.902 -0.4461  0.5707 -0.2858
 1386SOL    HW2 5705   6.276   1.419   1.874  0.6049  0.7322 -1.4914
 1387SOL     OW 5706   4.679   1.267   0.914 -0.2912  0.0888 -0.1017
 1387SOL    HW1 5707   4.728   1.191   0.883  1.7605  0.7512  1.3871
 1387SOL    HW2 5708   4.612   1.230   0.972 -0.4872 -0.6786 -0.7832
 1388SOL     OW 5709   1.640   4.006   0.415 -0.5294 -0.1312 -0.1632
 1388SOL    HW1 5710   1.709   3.960   0.463 -0.8708  0.3112  0.7900
 1388SOL    HW2 5711   1.650   3.977   0.324 -0.0065 -1.1715  0.2081
 1389SOL     OW 5712   4.014   1.543   6.017 -0.1787 -0.6605  0.0909
 1389SOL    HW1 5713   3.969   1.595   5.951 -1.2825 -0.9510  0.5774
 1389SOL    HW2 5714   4.022   1.602   6.092  2.2301  0.0974 -0.6691
 1390SOL     OW 5715   3.635   6.640   6.449 -0.1864 -0.0014  0.7464
 1390SOL    HW1 5716   3.669   6.714   6.498  2.5460  0.6027 -1.7487
 1390SOL    HW2 5717   3.656   6.563   6.503  0.2632  0.7909  1.7234
 1391SOL     OW 5718   1.796   0.202   4.805  0.3809 -0.3233 -0.5468
 1391SOL    HW1 5719   1.741   0.135   4.765 -0.1901 -0.9655  1.2553
 1391SOL    HW2 5720   1.750   0.284   4.788 -0.1258 -0.6406 -0.7307
 1392SOL     OW 5721   4.646   5.579   2.313 -0.1091 -0.2473 -0.4465
 1392SOL    HW1 5722   4.733   5.539   2.311  0.3675  0.5638  1.3504
 1392SOL    HW2 5723   4.625   5.586   2.407 -1.2835  1.3004 -0.7757
 1393SOL     OW 5724   1.786   4.120   4.109 -0.1534  0.2702 -0.0044
 1393SOL    HW1 5725   1.727   4.072   4.051  0.5065  0.3847 -0.7889
 1393SOL    HW2 5726   1.860   4.144   4.054  1.8872 -2.0736  1.4772
 1394SOL     OW 5727   2.460   4.268   3.179  0.0451  0.3792  0.0543
 1394SOL    HW1 5728   2.433   4.244   3.090  1.0338 -0.8246  0.0493
 1394SOL    HW2 5729   2.485   4.360   3.172  1.2083  0.0082 -1.2023
 1395SOL     OW 5730   4.477   4.217   5.997  0.5274  0.5949  0.1631
 1395SOL    HW1 5731   4.410   4.237   5.931  0.2310  0.0238  0.2820
 1395SOL    HW2 5732   4.431   4.226   6.081  0.7614  0.7931  0.2713
 1396SOL     OW 5733   5.499   3.555   2.769  0.2004 -0.2503 -0.0261
 1396SOL    HW1 5734   5.423   3.511   2.806  0.1632 -0.0808  0.0959
 1396SOL    HW2 5735   5.505   3.638   2.816 -1.3620  1.1557 -2.1010
 1397SOL     OW 5736   5.381   5.841   2.664  0.0140 -0.2340 -0.2064
 1397SOL    HW1 5737   5.390   5.745   2.667  2.0816 -0.0527  1.5089
 1397SOL    HW2 5738   5.365   5.866   2.755 -2.2607  0.9854 -0.8633
 1398SOL     OW 5739   6.091   5.910   3.240 -0.0599 -1.0484  0.6504
 1398SOL    HW1 5740   6.160   5.973   3.260 -0.3021 -0.0064 -1.4497
 1398SOL    HW2 5741   6.060   5.880   3.326 -0.2670  2.0856  1.7978
 1399SOL     OW 5742   6.238   3.975   4.297 -0.3042 -0.3085 -0.1235
 1399SOL    HW1 5743   6.201   3.954   4.212 -1.2071  1.4025 -0.2007
 1399SOL    HW2 5744   6.333   3.964   4.286 -0.4312 -0.3758 -1.2658
 1400SOL     OW 5745   0.107   4.328   5.912  0.3466 -0.0119  0.2330
 1400SOL    HW1 5746   0.074   4.406   5.867 -0.4865  0.7400  2.0515
 1400SOL    HW2 5747   0.076   4.337   6.001  0.3446 -2.3930  0.5309
 1401SOL     OW 5748   3.056   5.475   6.699  0.7001  0.3299  0.1697
 1401SOL    HW1 5749   3.044   5.390   6.656 -0.7574 -0.4125  1.8913
 1401SOL    HW2 5750   3.074   5.536   6.627  0.0363 -1.1182 -1.3021
 1402SOL     OW 5751   1.127   2.461   2.115 -0.3430 -0.3862  0.2599
 1402SOL    HW1 5752   1.057   2.398   2.128  1.5623 -2.5729  0.6656
 1402SOL    HW2 5753   1.187   2.417   2.054  0.8859  1.1943  0.2646
 1403SOL     OW 5754   5.507   2.928   6.493  0.4556  1.1755 -0.1720
 1403SOL    HW1 5755   5.423   2.927   6.538  0.6969 -1.4463  0.3626
 1403SOL    HW2 5756   5.485   2.938   6.400 -0.3657  1.5892  0.0658
 1404SOL     OW 5757   4.720   1.769   2.918  0.0953 -0.2389 -0.3166
 1404SOL    HW1 5758   4.718   1.788   3.012 -0.3878  1.4781 -0.6396
 1404SOL    HW2 5759   4.769   1.842   2.881 -0.4408 -0.4658 -1.4953
 1405SOL     OW 5760   5.986   6.325   6.331  0.5579  0.4701  0.8775
 1405SOL    HW1 5761   6.012   6.238   6.300  0.6766  0.8372 -0.1129
 1405SOL    HW2 5762   6.029   6.335   6.415  0.5083 -0.4489  1.0208
 1406SOL     OW 5763   5.228   2.864   5.622 -0.3911 -0.1320 -0.0397
 1406SOL    HW1 5764   5.212   2.953   5.654  0.1900 -0.7316  2.0809
 1406SOL    HW2 5765   5.287   2.875   5.548  0.0967  1.2390  0.5270
 1407SOL     OW 5766   2.815   4.128   0.891  0.4240  0.4825  0.4325
 1407SOL    HW1 5767   2.847   4.215   0.864 -0.9271  1.2331  1.1423
 1407SOL    HW2 5768   2.759   4.146   0.967  0.4179 -1.0673  0.8206
 1408SOL     OW 5769   1.028   2.704   5.730 -0.0273 -0.5834 -0.4384
 1408SOL    HW1 5770   0.953   2.663   5.687 -0.9852  1.3445 -0.7339
 1408SOL    HW2 5771   1.101   2.691   5.670 -0.7181 -0.3169 -1.3548
 1409SOL     OW 5772   4.352   4.410   4.518  0.0914  0.6595 -0.3373
 1409SOL    HW1 5773   4.282   4.378   4.462 -0.1078  1.6575 -0.6808
 1409SOL    HW2 5774   4.422   4.345   4.509 -0.9089 -0.5584  0.3194
 1410SOL     OW 5775   3.636   3.835   4.861 -0.1038  0.3418 -0.2818
 1410SOL    HW1 5776   3.621   3.773   4.932  1.8304 -0.6363 -0.6545
 1410SOL    HW2 5777   3.726   3.819   4.833 -0.2013  1.9536 -1.7533
 1411SOL     OW 5778   1.488   2.706   3.872  0.2749  0.1703 -0.6200
 1411SOL    HW1 5779   1.559   2.743   3.819  1.7666  1.0752  1.7855
 1411SOL    HW2 5780   1.409   2.744   3.835  1.2026  0.6405 -2.2491
 1412SOL     OW 5781   3.173   1.327   0.466  0.1856  0.1133  0.0350
 1412SOL    HW1 5782   3.213   1.297   0.547 -1.7083 -1.3802  0.5199
 1412SOL    HW2 5783   3.117   1.254   0.439  0.1711  0.8726 -2.2068
 1413SOL     OW 5784   4.766   3.728   4.528  0.2405  0.4683 -0.0759
 1413SOL    HW1 5785   4.699   3.755   4.590  0.4138  1.4449 -0.2878
 1413SOL    HW2 5786   4.738   3.766   4.445  0.5150 -0.0025 -0.3874
 1414SOL     OW 5787   6.259   4.598   0.139 -0.1014 -0.0287 -0.1084
 1414SOL    HW1 5788   6.305   4.651   0.204  0.3860  0.4255 -0.8047
 1414SOL    HW2 5789   6.299   4.511   0.146 -0.2182 -0.0464  0.3557
 1415SOL     OW 5790   2.535   0.329   1.265  0.0453  0.5304 -0.1730
 1415SOL    HW1 5791   2.538   0.354   1.173  1.8474  2.0246  0.2589
 1415SOL    HW2 5792   2.597   0.256   1.272 -1.2253 -0.6226 -0.3839
 1416SOL     OW 5793   4.658   4.243   2.758  0.5505  0.9343 -0.1797
 1416SOL    HW1 5794   4.708   4.325   2.755  1.4319  0.3775 -1.7839
 1416SOL    HW2 5795   4.599   4.254   2.833  2.1976  2.1177  1.0151
 1417SOL     OW 5796   5.770   3.229   4.626 -0.3662 -0.4069 -0.1295
 1417SOL    HW1 5797   5.693   3.223   4.683 -0.3680  1.5514  0.1202
 1417SOL    HW2 5798   5.829   3.161   4.660 -1.2466 -0.7286  0.8243
 1418SOL     OW 5799   0.171   4.409   5.481  0.1903  0.0933 -0.6815
 1418SOL    HW1 5800   0.118   4.352   5.536 -0.5117  0.4906 -0.9327
 1418SOL    HW2 5801   0.148   4.498   5.510  3.1938  0.3006  1.5583
 1419SOL     OW 5802   4.242   5.463   5.318  0.3731  0.4210  0.0033
 1419SOL    HW1 5803   4.304   5.445   5.247 -0.1177  0.4947 -0.4467
 1419SOL    HW2 5804   4.156   5.458   5.277  0.0191 -0.7133  0.8405
 1420SOL     OW 5805   6.590   0.810   1.217 -0.1219  0.5337  0.1620
 1420SOL    HW1 5806   6.498   0.809   1.246 -0.0894  1.4797  0.3390
 1420SOL    HW2 5807   6.618   0.901   1.230  0.7367  0.3349 -0.2315
 1421SOL     OW 5808   3.819   1.037   0.365  0.0498 -0.0213 -0.5345
 1421SOL    HW1 5809   3.726   1.060   0.354  0.6021  1.7025 -2.0570
 1421SOL    HW2 5810   3.852   1.102   0.427  0.4444 -0.0465 -0.7145
 1422SOL     OW 5811   5.999   0.266   0.726  0.1627 -0.1325  0.0732
 1422SOL    HW1 5812   6.065   0.204   0.755 -0.2859  0.4651  2.6794
 1422SOL    HW2 5813   5.930   0.212   0.688  1.3700 -0.8867 -1.1068
 1423SOL     OW 5814   6.594   1.926   4.820 -0.2251  0.1894 -0.0023
 1423SOL    HW1 5815   6.588   1.846   4.767  0.1016  0.2269 -0.0970
 1423SOL    HW2 5816   6.512   1.972   4.804 -1.6916 -1.4546  2.2051
 1424SOL     OW 5817   2.793   3.194   6.468  0.2450 -0.5095  0.5763
 1424SOL    HW1 5818   2.701   3.171   6.455  0.3081 -0.2673 -0.3783
 1424SOL    HW2 5819   2.804   3.197   6.563 -0.4721 -1.5561  0.7158
 1425SOL     OW 5820   4.320   2.663   2.747  0.6452  0.3428  0.0894
 1425SOL    HW1 5821   4.321   2.623   2.660  1.3520 -1.8676  1.0276
 1425SOL    HW2 5822   4.232   2.647   2.780  0.5495  0.6719 -0.0079
 1426SOL     OW 5823   3.441   4.646   1.984 -0.4782 -0.7868 -0.2088
 1426SOL    HW1 5824   3.460   4.642   1.890 -2.0627 -0.2527 -0.5764
 1426SOL    HW2 5825   3.347   4.631   1.990 -0.3662 -1.0261  1.3280
 1427SOL     OW 5826   5.663   5.580   1.170  0.1469  0.2659 -0.4282
 1427SOL    HW1 5827   5.748   5.606   1.135  0.9388  0.5222  1.5343
 1427SOL    HW2 5828   5.671   5.485   1.183 -0.5767 -0.0427 -1.9524
 1428SOL     OW 5829   1.161   1.454   6.322 -0.0352  0.8388  0.1631
 1428SOL    HW1 5830   1.074   1.418   6.342  0.3271 -1.8859 -2.4568
 1428SOL    HW2 5831   1.208   1.450   6.405 -1.2758 -1.3113  0.8582
 1429SOL     OW 5832   1.484   4.262   5.233  0.2097 -0.0347 -0.3929
 1429SOL    HW1 5833   1.447   4.332   5.286  0.5008  0.9468 -1.4382
 1429SOL    HW2 5834   1.441   4.182   5.264 -0.3826  0.6487  0.5859
 1430SOL     OW 5835   1.386   6.718   2.470 -0.1685  0.0021 -0.1455
 1430SOL    HW1 5836   1.297   6.685   2.457  0.3680 -1.5777 -0.0724
 1430SOL    HW2 5837   1.441   6.657   2.420  0.9241  0.5705  0.3303
 1431SOL     OW 5838   1.636   3.542   6.381 -0.4005 -0.2813  0.0599
 1431SOL    HW1 5839   1.604   3.618   6.429  0.3599  0.7142 -0.9448
 1431SOL    HW2 5840   1.691   3.496   6.444 -0.8318  0.0357  0.6731
 1432SOL     OW 5841   1.132   1.922   6.344  0.8512  0.0659 -0.2459
 1432SOL    HW1 5842   1.183   1.985   6.293  1.3553  0.1942  0.3980
 1432SOL    HW2 5843   1.107   1.855   6.281  0.4088  0.8473 -0.9184
 1433SOL     OW 5844   2.867   6.116   6.396  0.3257 -0.2457  0.0791
 1433SOL    HW1 5845   2.895   6.083   6.481 -1.0194  1.4737  1.2576
 1433SOL    HW2 5846   2.897   6.207   6.394 -0.2376 -0.0608 -1.0025
 1434SOL     OW 5847   4.117   0.965   4.808 -0.0514  0.3232 -0.1079
 1434SOL    HW1 5848   4.029   1.001   4.797  0.0811  1.0526  1.0530
 1434SOL    HW2 5849   4.103   0.882   4.855 -0.1464  0.1718 -0.3968
 1435SOL     OW 5850   2.312   4.806   2.217  0.4395 -0.3325 -0.1064
 1435SOL    HW1 5851   2.257   4.740   2.259  0.2018 -0.0794 -0.0177
 1435SOL    HW2 5852   2.397   4.763   2.206  0.7632 -0.1541  1.3713
 1436SOL     OW 5853   3.784   1.508   0.571 -0.5209  0.0487 -0.0524
 1436SOL    HW1 5854   3.729   1.562   0.514 -1.8165 -0.9505  0.1945
 1436SOL    HW2 5855   3.861   1.562   0.588 -0.9344  1.0864 -1.2676
 1437SOL     OW 5856   2.616   2.897   5.093  0.4025 -0.1380  0.2692
 1437SOL    HW1 5857   2.557   2.825   5.073  1.0095 -0.3046 -1.0308
 1437SOL    HW2 5858   2.703   2.856   5.096  0.6681  0.4096  0.2225
 1438SOL     OW 5859   2.915   3.732   4.985  0.2789  0.3211 -0.2451
 1438SOL    HW1 5860   2.885   3.652   4.943  2.0966 -0.8799  0.6188
 1438SOL    HW2 5861   2.923   3.795   4.914  1.1112 -0.9916 -1.3604
 1439SOL     OW 5862   3.209   2.541   3.008  0.1668 -0.3488  0.2962
 1439SOL    HW1 5863   3.153   2.602   3.056 -0.0341  0.4905 -0.9429
 1439SOL    HW2 5864   3.268   2.597   2.958  0.8571 -1.2039  0.1331
 1440SOL     OW 5865   0.245   0.267   1.833  0.2768  0.0503  0.3379
 1440SOL    HW1 5866   0.230   0.312   1.751  1.6826  1.1822  0.6511
 1440SOL    HW2 5867   0.340   0.254   1.836  0.0241 -1.9467  0.7881
 1441SOL     OW 5868   5.239   5.533   4.588 -0.2008  0.2865 -0.1257
 1441SOL    HW1 5869   5.160   5.510   4.636 -0.4455 -0.3663 -0.8175
 1441SOL    HW2 5870   5.251   5.626   4.605 -0.6825  0.2250  0.6033
 1442SOL     OW 5871   1.825   2.077   2.870  0.4610  0.5265 -0.2785
 1442SOL    HW1 5872   1.789   1.990   2.886 -0.0500  0.8273  0.2298
 1442SOL    HW2 5873   1.890   2.063   2.801  0.4965 -0.2815 -0.0982
 1443SOL     OW 5874   2.486   5.302   1.383  0.7874  0.2379  1.1989
 1443SOL    HW1 5875   2.473   5.353   1.463 -1.4540  0.5504  0.7316
 1443SOL    HW2 5876   2.503   5.213   1.413  0.2941  0.4131  2.0305
 1444SOL     OW 5877   4.417   1.785   0.414 -0.7141 -0.0190 -0.4793
 1444SOL    HW1 5878   4.397   1.804   0.505 -0.8939  1.1541 -0.7556
 1444SOL    HW2 5879   4.351   1.720   0.388 -0.4726 -0.5910  0.2927
 1445SOL     OW 5880   0.910   2.426   3.539  0.2769  0.0090  0.3155
 1445SOL    HW1 5881   0.938   2.413   3.630  0.5153  2.0320  0.5668
 1445SOL    HW2 5882   0.991   2.415   3.488  0.2644 -0.4955  0.3964
 1446SOL     OW 5883   0.471   4.900   4.224 -0.4105 -0.1073  0.4474
 1446SOL    HW1 5884   0.402   4.915   4.160  1.0372  1.3024 -0.8803
 1446SOL    HW2 5885   0.425   4.888   4.307 -2.2627 -0.1016 -0.5305
 1447SOL     OW 5886   0.062   3.575   0.895  0.9026  0.7294 -0.2500
 1447SOL    HW1 5887   0.142   3.604   0.940  0.2839  1.8291  0.1936
 1447SOL    HW2 5888   0.018   3.657   0.870 -0.0232  0.1404 -0.5998
 1448SOL     OW 5889   6.718   3.960   1.521  0.0623 -0.2090 -0.2096
 1448SOL    HW1 5890   6.713   3.959   1.426  0.6187  0.1645 -0.2492
 1448SOL    HW2 5891   6.719   4.053   1.544 -0.6843 -0.2941  0.2032
 1449SOL     OW 5892   5.799   3.215   3.150  0.6839  0.8617 -0.2212
 1449SOL    HW1 5893   5.886   3.252   3.140  1.2730 -0.9065 -3.0261
 1449SOL    HW2 5894   5.814   3.128   3.186  0.0183  0.8241 -0.0204
 1450SOL     OW 5895   5.854   2.180   5.823 -0.1510  0.2445  0.1591
 1450SOL    HW1 5896   5.880   2.090   5.805  0.1595  0.5794 -1.1392
 1450SOL    HW2 5897   5.934   2.223   5.852  0.0140  0.4338 -0.5570
 1451SOL     OW 5898   3.025   5.178   6.029 -0.0078 -0.1555 -0.1100
 1451SOL    HW1 5899   3.052   5.257   5.982  0.6021 -0.1852  0.1774
 1451SOL    HW2 5900   3.090   5.168   6.099 -0.7121 -0.2968  0.5342
 1452SOL     OW 5901   6.451   0.665   3.949 -0.4930  0.8787  0.2263
 1452SOL    HW1 5902   6.529   0.719   3.964 -1.0919  1.9970 -0.5670
 1452SOL    HW2 5903   6.382   0.709   3.998 -1.1373  1.2385 -0.9640
 1453SOL     OW 5904   6.641   2.285   5.595  0.3829 -0.3580 -0.3239
 1453SOL    HW1 5905   6.624   2.369   5.551  0.4187  0.0434  0.4172
 1453SOL    HW2 5906   6.710   2.244   5.543  1.2875  0.6572  0.0397
 1454SOL     OW 5907   1.473   4.607   2.758 -0.0954  0.5170 -0.1320
 1454SOL    HW1 5908   1.460   4.520   2.722 -2.3841  0.6467  0.2365
 1454SOL    HW2 5909   1.483   4.593   2.852 -1.5551  0.6813  0.0739
 1455SOL     OW 5910   4.550   0.135   1.708 -0.7412  0.1186 -0.0953
 1455SOL    HW1 5911   4.494   0.086   1.769  0.0083 -0.2497  0.3188
 1455SOL    HW2 5912   4.603   0.191   1.765  0.1047 -0.3700 -0.3757
 1456SOL     OW 5913   2.146   2.043   5.974  0.6284 -0.7805  0.3086
 1456SOL    HW1 5914   2.104   2.091   5.903 -1.6285 -2.2516  0.5506
 1456SOL    HW2 5915   2.154   2.107   6.045  0.2841 -0.0474 -0.3007
 1457SOL     OW 5916   0.347   1.688   2.357  0.5210  0.2856  0.6407
 1457SOL    HW1 5917   0.325   1.777   2.384 -1.1734  0.3125 -0.6409
 1457SOL    HW2 5918   0.284   1.633   2.405 -0.8658  0.1352 -1.2406
 1458SOL     OW 5919   5.431   1.579   4.390 -0.3852  0.1948 -0.3120
 1458SOL    HW1 5920   5.496   1.592   4.321 -0.1386 -0.3278 -0.1802
 1458SOL    HW2 5921   5.349   1.561   4.343 -0.5524  1.3616 -0.4843
 1459SOL     OW 5922   4.702   0.662   4.249  0.0281 -0.3126  0.0943
 1459SOL    HW1 5923   4.625   0.634   4.300 -0.6720  0.1471 -0.6783
 1459SOL    HW2 5924   4.669   0.671   4.160  1.2820 -1.2919 -0.4922
 1460SOL     OW 5925   3.034   0.442   6.543 -0.1130  0.0373  0.0125
 1460SOL    HW1 5926   2.941   0.432   6.521 -0.6395  3.1459  0.3954
 1460SOL    HW2 5927   3.068   0.499   6.474  1.1062  0.2641  0.7809
 1461SOL     OW 5928   1.539   6.414   2.145  0.3002 -0.2058 -0.5137
 1461SOL    HW1 5929   1.510   6.336   2.192  1.3816  0.0809  0.6518
 1461SOL    HW2 5930   1.555   6.479   2.213  0.1677  0.8022 -1.4142
 1462SOL     OW 5931   5.673   1.060   2.254  0.1847  0.1627  0.1334
 1462SOL    HW1 5932   5.736   1.084   2.186 -1.2335 -2.2976 -2.2433
 1462SOL    HW2 5933   5.591   1.101   2.227  0.0771  0.9982  1.6383
 1463SOL     OW 5934   3.062   2.457   6.269 -0.0047  0.1760  0.0572
 1463SOL    HW1 5935   2.995   2.525   6.267  0.2334  0.4177  0.3745
 1463SOL    HW2 5936   3.019   2.381   6.230 -0.5168  0.2805  0.4060
 1464SOL     OW 5937   0.295   6.199   5.470  0.2883 -0.1105  0.0377
 1464SOL    HW1 5938   0.224   6.262   5.461 -0.0991 -0.5713 -0.1487
 1464SOL    HW2 5939   0.273   6.149   5.548 -0.9820 -1.9836 -1.4307
 1465SOL     OW 5940   5.608   6.330   6.200 -0.5196 -0.1346 -0.1925
 1465SOL    HW1 5941   5.534   6.271   6.185 -0.0274 -1.2964  1.6425
 1465SOL    HW2 5942   5.658   6.327   6.118 -1.2572 -1.1916 -0.6210
 1466SOL     OW 5943   4.961   3.865   5.826  0.3301  0.0508  0.0016
 1466SOL    HW1 5944   4.972   3.869   5.731  0.9682  1.3515  0.1115
 1466SOL    HW2 5945   5.026   3.926   5.860  0.6705 -1.0328  1.3293
 1467SOL     OW 5946   3.759   2.834   1.665 -0.0397 -0.0891  0.3822
 1467SOL    HW1 5947   3.704   2.911   1.679  1.5602  1.2161 -0.1065
 1467SOL    HW2 5948   3.819   2.834   1.740  0.1479 -0.7097  0.2330
 1468SOL     OW 5949   0.426   1.719   0.633 -0.2635 -0.0998  0.0115
 1468SOL    HW1 5950   0.354   1.659   0.651  0.6748 -1.3428 -0.2410
 1468SOL    HW2 5951   0.505   1.668   0.652  0.5737  0.8963 -0.6802
 1469SOL     OW 5952   2.508   4.905   4.997  0.4256 -0.0739 -0.1747
 1469SOL    HW1 5953   2.499   4.977   5.059 -2.7239  0.6522 -1.2826
 1469SOL    HW2 5954   2.567   4.939   4.930 -0.1740  1.1170 -0.1342
 1470SOL     OW 5955   1.388   0.723   2.267 -0.2488 -0.4418  0.0275
 1470SOL    HW1 5956   1.375   0.647   2.323 -0.1191 -0.3008  0.2485
 1470SOL    HW2 5957   1.478   0.715   2.235 -0.0651 -0.1133  0.4552
 1471SOL     OW 5958   3.820   1.228   0.582  0.1872  0.6429  0.2343
 1471SOL    HW1 5959   3.823   1.317   0.617  0.4905  0.4723  0.6650
 1471SOL    HW2 5960   3.792   1.175   0.656 -0.1665  0.4048 -0.0724
 1472SOL     OW 5961   1.633   5.434   5.640  0.6740  0.0409  0.4566
 1472SOL    HW1 5962   1.584   5.427   5.721 -0.1751 -0.3461 -0.0853
 1472SOL    HW2 5963   1.711   5.380   5.654 -0.0162 -0.9252  0.6065
 1473SOL     OW 5964   2.491   0.944   0.456 -0.2332  0.3748  0.1294
 1473SOL    HW1 5965   2.439   0.931   0.536  0.8411  0.4702  0.8577
 1473SOL    HW2 5966   2.515   1.036   0.458  0.0196  0.3157 -0.1675
 1474SOL     OW 5967   0.351   4.030   5.048  0.0257 -0.0487  0.7495
 1474SOL    HW1 5968   0.312   3.987   5.125 -1.5833  0.5254  0.2958
 1474SOL    HW2 5969   0.357   4.122   5.073  2.2783 -0.2745  1.2446
 1475SOL     OW 5970   3.103   0.619   0.750  0.1028  0.0501  0.7921
 1475SOL    HW1 5971   3.157   0.655   0.820  0.0971  0.4651  0.5875
 1475SOL    HW2 5972   3.128   0.527   0.746  0.3058  0.0858  1.1504
 1476SOL     OW 5973   0.426   5.676   5.841  0.1006  0.1283  0.2450
 1476SOL    HW1 5974   0.453   5.595   5.885 -0.9773  0.7133  2.1343
 1476SOL    HW2 5975   0.331   5.677   5.851  0.0294  1.2221 -0.4923
 1477SOL     OW 5976   3.696   4.215   2.606 -0.6955  0.0244  0.2402
 1477SOL    HW1 5977   3.685   4.307   2.582  2.5094  0.0893 -1.5951
 1477SOL    HW2 5978   3.703   4.169   2.522  0.3379 -1.4652  1.0924
 1478SOL     OW 5979   1.752   6.780   5.342 -0.2598  0.1202 -0.0862
 1478SOL    HW1 5980   1.730   6.687   5.340  0.4319 -0.0732  0.5592
 1478SOL    HW2 5981   1.741   6.805   5.434  1.0260  0.2892  0.0395
 1479SOL     OW 5982   6.737   0.673   3.767  0.6237  0.6083 -0.1879
 1479SOL    HW1 5983   6.821   0.696   3.727 -0.3188 -0.2706 -2.8490
 1479SOL    HW2 5984   6.671   0.707   3.707 -0.8898 -0.7060  0.6455
 1480SOL     OW 5985   4.223   1.526   3.380  0.9213  0.0845  0.2502
 1480SOL    HW1 5986   4.213   1.436   3.349 -3.3082  0.6639 -0.7136
 1480SOL    HW2 5987   4.227   1.519   3.475 -0.8609 -1.1767  0.2988
 1481SOL     OW 5988   5.613   3.912   3.424  0.0607 -0.5403 -0.4700
 1481SOL    HW1 5989   5.646   3.993   3.386 -0.4789 -1.1847 -2.4872
 1481SOL    HW2 5990   5.530   3.936   3.465 -0.2334 -0.1068 -1.2999
 1482SOL     OW 5991   6.264   2.881   5.390  0.0205  0.2431  0.0893
 1482SOL    HW1 5992   6.349   2.920   5.367 -0.9519  2.2773 -0.2859
 1482SOL    HW2 5993   6.265   2.876   5.485  1.4077 -1.8970  0.0313
 1483SOL     OW 5994   1.443   4.067   4.155 -0.1710  0.0264  0.0852
 1483SOL    HW1 5995   1.437   3.971   4.152  0.5415  0.0086 -1.6137
 1483SOL    HW2 5996   1.417   4.089   4.245  0.1663 -1.7914  0.6771
 1484SOL     OW 5997   4.009   5.230   0.684  0.2565  0.1067 -0.0356
 1484SOL    HW1 5998   4.003   5.300   0.619 -0.0542  0.3457  0.2449
 1484SOL    HW2 5999   4.102   5.209   0.688  0.2623 -0.0019 -0.6496
 1485SOL     OW 6000   5.579   3.625   5.959  0.2030 -0.0338  0.6373
 1485SOL    HW1 6001   5.615   3.698   6.009  0.7685 -0.1816  0.4619
 1485SOL    HW2 6002   5.597   3.547   6.012  0.0906 -0.1034  0.5748
 1486SOL     OW 6003   6.347   2.087   3.924 -0.0362  0.1984  0.1631
 1486SOL    HW1 6004   6.380   2.173   3.899 -2.0017  0.9459 -0.0354
 1486SOL    HW2 6005   6.348   2.037   3.843 -1.2061  0.8560 -0.2834
 1487SOL     OW 6006   3.101   5.856   3.014  0.7256 -0.3352 -0.4427
 1487SOL    HW1 6007   3.187   5.896   3.027  0.0601  0.5934  1.3362
 1487SOL    HW2 6008   3.119   5.779   2.960  2.8289 -0.8100  0.8364
 1488SOL     OW 6009   1.100   0.623   6.061  0.0516  0.0739 -0.3240
 1488SOL    HW1 6010   1.039   0.587   5.997  0.6249 -0.8940 -0.3534
 1488SOL    HW2 6011   1.084   0.573   6.141 -0.6450  1.2611  0.2971
 1489SOL     OW 6012   5.916   6.101   6.554  0.1557  0.0495  0.0134
 1489SOL    HW1 6013   5.964   6.182   6.572  1.0496 -0.7892  1.6378
 1489SOL    HW2 6014   5.828   6.129   6.529  0.3897  1.5061  0.7663
 1490SOL     OW 6015   6.798   1.451   1.813 -0.1101  0.1233  0.4245
 1490SOL    HW1 6016   6.888   1.462   1.843 -0.1954  1.6983  0.1847
 1490SOL    HW2 6017   6.804   1.389   1.740  1.0198  1.4163 -0.6366
 1491SOL     OW 6018   3.989   1.575   4.207  0.4571  0.0418  0.6941
 1491SOL    HW1 6019   3.962   1.550   4.295  0.2677  0.8827  0.8867
 1491SOL    HW2 6020   4.067   1.628   4.221  0.6836 -0.1937  0.3218
 1492SOL     OW 6021   6.463   4.796   1.760  0.0726 -0.5446  0.8810
 1492SOL    HW1 6022   6.529   4.861   1.788 -0.6800  0.3128  0.6931
 1492SOL    HW2 6023   6.400   4.794   1.832  0.4076 -1.5275  1.1590
 1493SOL     OW 6024   4.438   5.426   4.398  0.1759 -0.0896  0.2754
 1493SOL    HW1 6025   4.400   5.512   4.419 -1.0588 -0.6594  0.5107
 1493SOL    HW2 6026   4.466   5.433   4.307  0.3119  0.6409  0.3687
 1494SOL     OW 6027   5.312   2.971   1.044 -0.3258 -0.3141  0.0764
 1494SOL    HW1 6028   5.312   2.878   1.064 -1.0145 -0.1931  0.6900
 1494SOL    HW2 6029   5.397   2.987   1.001 -0.1698 -1.1941  0.0464
 1495SOL     OW 6030   2.272   1.547   6.131  0.2744 -0.0080 -0.3468
 1495SOL    HW1 6031   2.192   1.532   6.182 -2.0710  0.9044 -3.4802
 1495SOL    HW2 6032   2.282   1.642   6.130  1.7130 -0.1232  0.3501
 1496SOL     OW 6033   4.018   3.352   6.601  0.0965  0.9281 -0.3003
 1496SOL    HW1 6034   3.975   3.343   6.516  1.1259 -2.0362 -0.6297
 1496SOL    HW2 6035   4.112   3.346   6.582  0.3532  0.3910  1.0036
 1497SOL     OW 6036   4.089   4.837   0.990 -0.0068 -0.9642  0.0416
 1497SOL    HW1 6037   4.028   4.780   0.944  0.5263 -1.8319  0.3941
 1497SOL    HW2 6038   4.161   4.850   0.929 -0.0278 -0.8367  0.0431
 1498SOL     OW 6039   2.175   4.986   5.310 -0.3052 -0.3999 -0.0183
 1498SOL    HW1 6040   2.198   4.954   5.398  0.1081  0.4648  0.2006
 1498SOL    HW2 6041   2.133   5.071   5.326 -2.3959 -1.2714 -0.5165
 1499SOL     OW 6042   3.450   4.728   4.705  0.4867  0.3113 -0.6282
 1499SOL    HW1 6043   3.390   4.755   4.635 -1.7670 -1.9869  0.2646
 1499SOL    HW2 6044   3.508   4.665   4.663  0.4761  0.4756 -0.8904
 1500SOL     OW 6045   5.086   5.544   5.607 -0.2127 -0.3256 -0.3615
 1500SOL    HW1 6046   5.032   5.469   5.631  1.1513 -1.7479 -1.5373
 1500SOL    HW2 6047   5.031   5.595   5.547 -0.1294 -2.0358 -1.9861
 1501SOL     OW 6048   1.213   3.869   5.307 -0.4657 -0.4361  0.1997
 1501SOL    HW1 6049   1.286   3.809   5.293 -0.0635  0.0080  0.3804
 1501SOL    HW2 6050   1.150   3.819   5.359  0.6587 -0.1156  1.9434
 1502SOL     OW 6051   1.653   2.961   1.313 -0.5205  0.3009  0.0916
 1502SOL    HW1 6052   1.731   2.955   1.368  1.1665 -1.4451 -2.2887
 1502SOL    HW2 6053   1.661   3.045   1.269 -0.3881  0.4624  0.4239
 1503SOL     OW 6054   3.228   0.241   3.232 -0.4076 -0.2307 -0.4024
 1503SOL    HW1 6055   3.217   0.148   3.212 -0.6582 -0.8207  2.0739
 1503SOL    HW2 6056   3.323   0.252   3.243 -0.4682 -0.4912  0.4469
 1504SOL     OW 6057   1.411   4.417   0.413  0.0422  1.0085  0.5135
 1504SOL    HW1 6058   1.415   4.496   0.359  1.0571 -0.0224 -0.9744
 1504SOL    HW2 6059   1.484   4.427   0.474  1.9576  0.0113 -1.4829
 1505SOL     OW 6060   6.187   6.199   5.508  0.0411 -0.2503 -0.2894
 1505SOL    HW1 6061   6.132   6.128   5.475 -1.1736  1.1378 -1.3880
 1505SOL    HW2 6062   6.128   6.275   5.514  1.8131  1.3573 -1.7087
 1506SOL     OW 6063   4.425   2.372   3.964 -0.2459 -0.5606 -0.3924
 1506SOL    HW1 6064   4.439   2.313   4.038  3.8590  1.8125  1.0512
 1506SOL    HW2 6065   4.447   2.319   3.887  2.5764 -1.2448  0.7745
 1507SOL     OW 6066   4.895   0.002   4.243 -0.2014 -0.4165  0.0509
 1507SOL    HW1 6067   4.800   0.008   4.233 -0.2101 -0.4697  0.1014
 1507SOL    HW2 6068   4.929   0.072   4.187 -0.2407 -0.8671 -0.5475
 1508SOL     OW 6069   1.477   3.105   5.676  0.1739  0.7141 -0.1331
 1508SOL    HW1 6070   1.425   3.101   5.756 -0.0995  0.9773 -0.2934
 1508SOL    HW2 6071   1.448   3.185   5.632  0.6170  0.7925 -0.2949
 1509SOL     OW 6072   1.272   1.933   3.476 -0.2974  0.0779 -0.3780
 1509SOL    HW1 6073   1.211   1.995   3.436 -0.3058  1.1859  1.2437
 1509SOL    HW2 6074   1.342   1.923   3.412 -1.7858 -0.6855 -1.9832
 1510SOL     OW 6075   1.902   1.465   3.963 -0.0154 -0.6664  0.2258
 1510SOL    HW1 6076   1.822   1.464   3.910 -0.2705 -1.8149  0.5924
 1510SOL    HW2 6077   1.898   1.548   4.010  0.2368  0.3947 -1.5443
 1511SOL     OW 6078   0.860   4.133   5.381  0.2380 -0.0350  0.7527
 1511SOL    HW1 6079   0.853   4.228   5.367 -1.3853 -0.1563  0.5404
 1511SOL    HW2 6080   0.919   4.103   5.312 -0.6750  0.5836 -0.3260
 1512SOL     OW 6081   1.844   4.423   4.277 -0.0897 -0.5149 -0.0655
 1512SOL    HW1 6082   1.898   4.400   4.202  0.6970  3.1831 -0.7944
 1512SOL    HW2 6083   1.754   4.403   4.250  0.4621 -2.9942 -0.3318
 1513SOL     OW 6084   2.353   6.586   6.203 -0.1720 -0.7375 -0.0098
 1513SOL    HW1 6085   2.431   6.634   6.229  0.5478 -1.7753 -0.1886
 1513SOL    HW2 6086   2.353   6.509   6.260 -0.8872 -0.9197 -0.2420
 1514SOL     OW 6087   3.117   1.705   3.701 -0.4971 -0.2048  0.1882
 1514SOL    HW1 6088   3.209   1.688   3.720  0.0944  0.8180 -1.5180
 1514SOL    HW2 6089   3.104   1.670   3.613 -1.5090  0.4544  0.0615
 1515SOL     OW 6090   4.878   2.678   4.437 -0.2301  0.2029 -1.1416
 1515SOL    HW1 6091   4.960   2.711   4.475 -0.2460 -2.0208  1.0591
 1515SOL    HW2 6092   4.836   2.629   4.508 -1.6770 -1.8686 -3.2545
 1516SOL     OW 6093   1.360   4.728   2.397  0.0181 -0.9977  0.0561
 1516SOL    HW1 6094   1.265   4.727   2.392 -0.1390  1.4621  0.9943
 1516SOL    HW2 6095   1.388   4.774   2.318  0.5110 -2.4433 -0.6366
 1517SOL     OW 6096   5.667   4.414   1.484 -0.5263  0.0270 -0.7388
 1517SOL    HW1 6097   5.640   4.355   1.554  1.8734 -3.2015 -2.2724
 1517SOL    HW2 6098   5.599   4.405   1.417 -0.0661 -1.2302 -1.0504
 1518SOL     OW 6099   3.428   2.653   5.881 -0.1368  0.1732  0.2803
 1518SOL    HW1 6100   3.520   2.678   5.885 -0.1153 -0.0153  1.0598
 1518SOL    HW2 6101   3.384   2.714   5.940 -0.8113  1.4934 -1.4971
 1519SOL     OW 6102   4.852   1.629   1.176 -0.1270 -0.0602 -0.2401
 1519SOL    HW1 6103   4.913   1.565   1.139 -0.5832 -0.8094  0.2683
 1519SOL    HW2 6104   4.847   1.699   1.111  2.6587  0.9313  0.4684
 1520SOL     OW 6105   0.027   6.205   0.775  0.7820 -0.2834 -0.2847
 1520SOL    HW1 6106   0.117   6.183   0.751  0.6605 -0.9193 -0.1667
 1520SOL    HW2 6107   0.025   6.198   0.870 -0.1393 -3.3033 -0.4207
 1521SOL     OW 6108   5.532   1.025   1.505 -0.0161  0.3312 -0.0532
 1521SOL    HW1 6109   5.592   1.029   1.430  1.2966 -0.8346  0.8891
 1521SOL    HW2 6110   5.570   1.087   1.568  0.1988 -0.3953  0.5377
 1522SOL     OW 6111   1.725   3.948   6.375 -0.0382  0.2477 -0.4041
 1522SOL    HW1 6112   1.630   3.936   6.372  0.0251 -0.1635 -0.8228
 1522SOL    HW2 6113   1.739   4.007   6.448 -0.5545 -0.3336  0.1770
 1523SOL     OW 6114   2.736   1.533   3.062 -0.1580  0.2088  0.2427
 1523SOL    HW1 6115   2.640   1.529   3.060 -0.1071 -1.7198 -0.9483
 1523SOL    HW2 6116   2.758   1.617   3.023 -1.3532 -0.3825 -1.8278
 1524SOL     OW 6117   3.495   2.851   6.639 -0.3495  0.0639 -0.1723
 1524SOL    HW1 6118   3.582   2.880   6.667 -0.6732 -0.2010  1.1599
 1524SOL    HW2 6119   3.511   2.799   6.561  0.3874  2.5678 -1.8247
 1525SOL     OW 6120   6.322   5.984   2.659  0.4772 -0.2350  0.3189
 1525SOL    HW1 6121   6.305   6.078   2.663  0.0766 -0.2440 -0.8606
 1525SOL    HW2 6122   6.236   5.945   2.640  0.3812 -0.9653  2.0645
 1526SOL     OW 6123   4.251   2.636   1.155 -0.2987 -0.4765  0.3841
 1526SOL    HW1 6124   4.289   2.589   1.081  1.3816 -0.8565  1.4451
 1526SOL    HW2 6125   4.327   2.666   1.206 -1.4128 -1.0525  2.4679
 1527SOL     OW 6126   6.128   3.051   4.118  0.0737 -0.2194 -0.1398
 1527SOL    HW1 6127   6.135   3.030   4.025 -0.4453 -1.7954  0.1366
 1527SOL    HW2 6128   6.061   3.118   4.123  1.4715  1.3186 -1.0547
 1528SOL     OW 6129   2.479   4.924   6.438  0.4804  0.7490 -0.1867
 1528SOL    HW1 6130   2.474   4.844   6.490  0.0290  0.9171  0.0343
 1528SOL    HW2 6131   2.398   4.924   6.387 -0.4532  2.0020  1.1988
 1529SOL     OW 6132   0.537   6.695   0.493 -0.2441  0.0300  0.0558
 1529SOL    HW1 6133   0.499   6.734   0.572 -3.3081 -0.3619 -1.1006
 1529SOL    HW2 6134   0.579   6.768   0.448 -0.2015  0.6472  1.0703
 1530SOL     OW 6135   6.257   4.894   4.795  0.0083  0.0681  0.8142
 1530SOL    HW1 6136   6.260   4.989   4.806  0.6452 -0.0215  1.4654
 1530SOL    HW2 6137   6.183   4.879   4.736  2.1159  1.2537 -2.4240
 1531SOL     OW 6138   6.351   3.063   0.616 -0.3102 -0.2693 -0.2563
 1531SOL    HW1 6139   6.307   3.147   0.619  0.5181  0.2263 -1.2633
 1531SOL    HW2 6140   6.284   2.999   0.641 -1.0071  0.6572  0.2802
 1532SOL     OW 6141   1.508   2.068   4.909 -0.7717  0.1453  0.0826
 1532SOL    HW1 6142   1.438   2.118   4.952 -0.5998  1.5363 -1.1417
 1532SOL    HW2 6143   1.554   2.133   4.855  1.3961 -0.7479  0.7313
 1533SOL     OW 6144   4.241   3.714   1.834  0.1556  0.2169  0.1286
 1533SOL    HW1 6145   4.191   3.715   1.752  2.6242  0.1412 -1.4737
 1533SOL    HW2 6146   4.330   3.693   1.808  1.0605  0.2417  2.8658
 1534SOL     OW 6147   1.150   5.456   4.534 -0.4135  0.5676  0.4283
 1534SOL    HW1 6148   1.154   5.366   4.500  0.4180  0.6468  0.2864
 1534SOL    HW2 6149   1.100   5.504   4.467 -1.5562  0.0545  0.8945
 1535SOL     OW 6150   3.748   6.770   3.147 -0.3103  0.5613  0.0381
 1535SOL    HW1 6151   3.688   6.700   3.174 -0.0395 -0.0550 -0.8832
 1535SOL    HW2 6152   3.691   6.835   3.105 -0.5329  0.7776  0.6670
 1536SOL     OW 6153   3.352   0.472   0.105 -0.4913  0.1224  0.9860
 1536SOL    HW1 6154   3.397   0.495   0.024 -1.9933 -0.6740 -0.1133
 1536SOL    HW2 6155   3.357   0.377   0.109 -0.0715  0.1739  2.0724
 1537SOL     OW 6156   4.573   4.564   6.738 -0.4358  0.5872  0.5280
 1537SOL    HW1 6157   4.641   4.597   6.679 -0.5795  1.4528  0.8423
 1537SOL    HW2 6158   4.615   4.561   6.823 -0.1097 -1.0277  0.3476
 1538SOL     OW 6159   1.414   3.711   0.670  0.6330 -0.1715 -0.2791
 1538SOL    HW1 6160   1.336   3.764   0.651 -0.2571 -0.9838  0.9551
 1538SOL    HW2 6161   1.392   3.625   0.634  0.2815 -0.8301  1.4263
 1539SOL     OW 6162   4.255   4.963   0.390  0.5301  0.6857 -0.3523
 1539SOL    HW1 6163   4.221   4.959   0.301 -2.1217  1.4746  0.5099
 1539SOL    HW2 6164   4.191   4.916   0.443  2.2527 -0.1449  1.1182
 1540SOL     OW 6165   1.115   6.030   2.956  0.5476 -0.1270  0.4060
 1540SOL    HW1 6166   1.047   6.061   3.015 -0.0459  0.1398 -0.3891
 1540SOL    HW2 6167   1.184   6.096   2.963  0.3763  0.0292  0.6318
 1541SOL     OW 6168   1.526   6.394   5.900 -1.0030  0.2465 -0.4406
 1541SOL    HW1 6169   1.490   6.327   5.841  0.1386 -0.4248 -0.4141
 1541SOL    HW2 6170   1.555   6.464   5.841  0.3081 -0.5066 -0.7254
 1542SOL     OW 6171   3.888   1.810   2.454  0.4347 -0.3180 -0.3716
 1542SOL    HW1 6172   3.819   1.782   2.393 -0.2130  0.3349  0.0395
 1542SOL    HW2 6173   3.970   1.788   2.410 -0.0245 -0.2444 -1.2921
 1543SOL     OW 6174   3.432   1.079   3.118 -0.4110 -0.6415  0.1095
 1543SOL    HW1 6175   3.432   1.159   3.067 -0.5346 -1.1342 -0.6746
 1543SOL    HW2 6176   3.514   1.035   3.094 -0.0001 -0.4295  1.0617
 1544SOL     OW 6177   4.872   5.729   2.745  0.0197  0.1094  0.2707
 1544SOL    HW1 6178   4.954   5.731   2.697  1.7992  1.0235  3.0912
 1544SOL    HW2 6179   4.890   5.674   2.821 -2.1791 -0.1591  0.6733
 1545SOL     OW 6180   0.874   2.318   4.982  0.3891  0.4674 -0.1248
 1545SOL    HW1 6181   0.923   2.243   5.016  2.3925  1.0086 -1.6166
 1545SOL    HW2 6182   0.796   2.280   4.941  0.2359 -0.5657  1.0950
 1546SOL     OW 6183   3.588   6.242   0.537  1.0943 -0.6049 -0.0731
 1546SOL    HW1 6184   3.658   6.298   0.571  1.0579  0.7790 -2.0952
 1546SOL    HW2 6185   3.569   6.278   0.450 -1.0243 -1.9479 -0.2260
 1547SOL     OW 6186   6.716   0.781   5.574 -0.3490  0.1716  0.5680
 1547SOL    HW1 6187   6.678   0.868   5.557 -0.4133  0.1289  0.4894
 1547SOL    HW2 6188   6.659   0.743   5.641 -2.1721 -1.0049 -1.5068
 1548SOL     OW 6189   2.055   2.494   3.554 -0.3058 -0.4500 -0.5405
 1548SOL    HW1 6190   2.011   2.560   3.500 -0.0357  0.1651 -0.0191
 1548SOL    HW2 6191   2.135   2.537   3.584 -0.0790 -1.0514 -0.2647
 1549SOL     OW 6192   4.666   3.153   5.624 -0.4355  0.1027 -0.4263
 1549SOL    HW1 6193   4.610   3.113   5.558 -0.7970 -0.6418  0.3137
 1549SOL    HW2 6194   4.630   3.124   5.708  1.2836 -0.7492  0.0790
 1550SOL     OW 6195   1.142   3.037   6.517 -0.0635 -0.4412  0.0842
 1550SOL    HW1 6196   1.170   3.097   6.448 -0.4544 -1.6686 -1.1870
 1550SOL    HW2 6197   1.215   2.977   6.528  0.0644 -0.1530  0.8802
 1551SOL     OW 6198   5.796   4.880   6.275 -0.3733  0.2091 -0.0787
 1551SOL    HW1 6199   5.772   4.945   6.209  2.3954  0.1127 -1.3705
 1551SOL    HW2 6200   5.757   4.799   6.244  0.6466  0.2271 -1.5284
 1552SOL     OW 6201   3.242   2.664   2.232 -0.3921 -0.5538 -0.0146
 1552SOL    HW1 6202   3.303   2.594   2.212  0.8406  0.1462  1.1053
 1552SOL    HW2 6203   3.266   2.735   2.173  0.2718 -0.0898  0.7816
 1553SOL     OW 6204   0.912   1.927   4.114  0.2231  0.3531  0.2022
 1553SOL    HW1 6205   0.864   2.010   4.104 -1.7540 -0.8282 -0.6785
 1553SOL    HW2 6206   1.000   1.954   4.140 -0.6046  2.6917  0.8804
 1554SOL     OW 6207   1.647   1.389   0.202  0.1872  0.0225  0.4101
 1554SOL    HW1 6208   1.563   1.383   0.157  0.0773  0.0503  0.6060
 1554SOL    HW2 6209   1.627   1.361   0.292  0.3692  0.1160  0.4793
 1555SOL     OW 6210   1.129   5.056   2.117 -0.0842  0.2285 -0.1217
 1555SOL    HW1 6211   1.140   5.066   2.212  2.1298  0.5241 -0.3559
 1555SOL    HW2 6212   1.052   5.109   2.096 -0.2710  0.6183  1.4285
 1556SOL     OW 6213   6.302   3.702   6.159 -0.0674 -0.3459 -0.5500
 1556SOL    HW1 6214   6.211   3.672   6.162  0.0285 -0.6762 -0.8461
 1556SOL    HW2 6215   6.331   3.699   6.250 -0.9908  1.7927 -0.1384
 1557SOL     OW 6216   5.101   5.023   1.253 -0.3736 -0.0808 -0.2609
 1557SOL    HW1 6217   5.146   4.962   1.195 -1.1644  0.1121 -1.0897
 1557SOL    HW2 6218   5.111   5.108   1.211 -1.0949  0.0346 -0.2133
 1558SOL     OW 6219   3.449   2.224   3.554 -0.0012 -0.9401  0.2033
 1558SOL    HW1 6220   3.403   2.207   3.472  2.1705 -1.4633 -0.9829
 1558SOL    HW2 6221   3.381   2.219   3.621 -1.7817 -0.8370 -1.5083
 1559SOL     OW 6222   2.327   0.336   4.771 -0.1447  0.0411 -0.3155
 1559SOL    HW1 6223   2.246   0.378   4.800  0.2770  0.9106 -0.3485
 1559SOL    HW2 6224   2.339   0.366   4.681 -1.0020 -1.9740 -1.1364
 1560SOL     OW 6225   1.603   2.237   4.745  0.4268 -0.1684 -0.3084
 1560SOL    HW1 6226   1.589   2.323   4.704  1.7893  0.6897  0.9288
 1560SOL    HW2 6227   1.691   2.211   4.716  1.9016  0.9598  2.7457
 1561SOL     OW 6228   5.977   5.442   4.151  0.4043  0.1952 -0.6032
 1561SOL    HW1 6229   5.994   5.502   4.078  0.6567  0.0131 -0.6979
 1561SOL    HW2 6230   5.923   5.373   4.113  0.3084  0.2426 -0.5516
 1562SOL     OW 6231   2.318   0.887   0.675 -0.2946  0.0655  0.4097
 1562SOL    HW1 6232   2.316   0.928   0.761 -0.6176 -0.3061  0.5775
 1562SOL    HW2 6233   2.242   0.924   0.629  1.5705  2.7045 -0.8500
 1563SOL     OW 6234   6.724   2.822   4.002  0.7501  0.4740  0.1015
 1563SOL    HW1 6235   6.747   2.762   4.073  1.4047  1.5573  0.8302
 1563SOL    HW2 6236   6.639   2.857   4.027 -0.0681 -0.7988 -0.7812
 1564SOL     OW 6237   5.941   5.245   6.596  0.6551  0.5915  0.2659
 1564SOL    HW1 6238   5.846   5.247   6.582  0.6048  0.9533  0.6164
 1564SOL    HW2 6239   5.976   5.295   6.523  0.4625  1.6945  0.9022
 1565SOL     OW 6240   5.448   2.356   5.867 -0.0524  0.2420 -0.2307
 1565SOL    HW1 6241   5.480   2.280   5.819  0.8387  1.8086 -2.2364
 1565SOL    HW2 6242   5.518   2.377   5.928 -0.3737 -0.6126  0.4516
 1566SOL     OW 6243   3.687   5.753   0.142  0.0484  0.2749  0.5762
 1566SOL    HW1 6244   3.756   5.736   0.206 -0.8931  0.0940  1.5723
 1566SOL    HW2 6245   3.623   5.683   0.157 -0.5914  0.7288  0.0167
 1567SOL     OW 6246   0.356   4.291   4.984  0.4101 -0.2124 -0.3155
 1567SOL    HW1 6247   0.325   4.312   4.896  0.2804  1.2024  0.0355
 1567SOL    HW2 6248   0.332   4.368   5.036  2.0246 -0.2780  0.5792
 1568SOL     OW 6249   4.820   6.302   2.353  0.1073 -0.2486  0.0299
 1568SOL    HW1 6250   4.860   6.259   2.278 -0.8613 -0.7775 -0.2128
 1568SOL    HW2 6251   4.845   6.248   2.428 -0.3527 -0.7330 -0.1560
 1569SOL     OW 6252   3.726   6.287   0.938 -0.0984 -0.0688 -0.1254
 1569SOL    HW1 6253   3.783   6.241   0.999 -0.0165  0.4662  0.2090
 1569SOL    HW2 6254   3.766   6.374   0.928 -0.5061  0.0957 -0.3770
 1570SOL     OW 6255   0.779   6.409   2.866  0.0402  0.3080  0.1225
 1570SOL    HW1 6256   0.787   6.504   2.865 -1.4350  0.4426 -0.6038
 1570SOL    HW2 6257   0.720   6.390   2.939  1.1287 -0.1405  0.9092
 1571SOL     OW 6258   5.875   6.708   2.121  0.1384 -0.1064 -0.1911
 1571SOL    HW1 6259   5.882   6.802   2.139 -1.2674 -0.3057  1.7459
 1571SOL    HW2 6260   5.805   6.700   2.057 -1.6899  0.0460  1.7008
 1572SOL     OW 6261   0.294   4.034   3.828  0.7571  0.3346 -0.0578
 1572SOL    HW1 6262   0.247   4.116   3.815  0.7032  0.2435 -0.4339
 1572SOL    HW2 6263   0.333   4.014   3.743 -0.1443 -0.5995 -0.2718
 1573SOL     OW 6264   5.630   0.373   3.789  0.0373  0.6027  0.5532
 1573SOL    HW1 6265   5.595   0.461   3.806  1.3680  1.3925 -0.5660
 1573SOL    HW2 6266   5.622   0.362   3.695 -1.0952 -0.9619  0.7940
 1574SOL     OW 6267   0.769   4.314   5.720 -0.2506 -0.3175 -0.2819
 1574SOL    HW1 6268   0.737   4.245   5.661 -0.8929  0.7174 -1.1692
 1574SOL    HW2 6269   0.811   4.266   5.791 -0.8361 -1.6372 -0.7870
 1575SOL     OW 6270   0.540   1.508   1.971  0.0055  0.2017 -0.0768
 1575SOL    HW1 6271   0.596   1.465   1.906 -0.3369  0.6165 -0.6532
 1575SOL    HW2 6272   0.493   1.436   2.013 -0.7151  0.0204 -1.1777
 1576SOL     OW 6273   5.739   1.271   4.380  0.5083  0.3289 -0.0329
 1576SOL    HW1 6274   5.803   1.222   4.328  1.1109  2.2070 -1.1644
 1576SOL    HW2 6275   5.777   1.275   4.467  1.5030  0.6244 -0.4645
 1577SOL     OW 6276   6.155   2.995   2.308 -0.0336 -0.6761 -0.6517
 1577SOL    HW1 6277   6.232   3.008   2.253 -0.9014 -0.2159 -1.8021
 1577SOL    HW2 6278   6.087   3.047   2.266 -0.4927  0.5101  1.4211
 1578SOL     OW 6279   1.970   4.404   3.617 -0.2230 -0.6868 -0.6420
 1578SOL    HW1 6280   1.883   4.365   3.606 -1.0563 -0.0138  2.5030
 1578SOL    HW2 6281   2.023   4.335   3.656 -0.2876 -0.1743  0.3771
 1579SOL     OW 6282   6.026   1.110   3.772 -0.3595 -0.6521 -0.0446
 1579SOL    HW1 6283   6.031   1.045   3.843 -0.0193 -0.4783  0.0919
 1579SOL    HW2 6284   6.117   1.130   3.752 -0.3684  2.0257  1.9734
 1580SOL     OW 6285   1.403   5.153   5.688 -0.6614  0.4765 -0.1914
 1580SOL    HW1 6286   1.492   5.136   5.720 -0.7068  1.1358  0.3181
 1580SOL    HW2 6287   1.398   5.249   5.683 -0.3498  0.4284 -3.0855
 1581SOL     OW 6288   6.249   6.283   0.703  0.0031  0.2661 -0.5371
 1581SOL    HW1 6289   6.292   6.275   0.788  0.1099  0.7431 -0.5388
 1581SOL    HW2 6290   6.225   6.376   0.698  0.4924  0.3626 -1.2549
 1582SOL     OW 6291   4.463   3.657   0.648 -0.0462 -0.2762  0.0361
 1582SOL    HW1 6292   4.462   3.654   0.744  1.4312 -0.5041  0.0638
 1582SOL    HW2 6293   4.463   3.751   0.627  2.7568 -0.1336  0.3679
 1583SOL     OW 6294   0.517   1.881   3.565  0.4661  0.1040 -0.2781
 1583SOL    HW1 6295   0.471   1.965   3.568  0.3659  0.0212  1.5479
 1583SOL    HW2 6296   0.465   1.828   3.506 -0.4832  0.7710 -0.0695
 1584SOL     OW 6297   3.785   6.160   6.072  0.1082  0.1376  0.4516
 1584SOL    HW1 6298   3.748   6.177   6.159 -0.1633  2.1659 -0.0096
 1584SOL    HW2 6299   3.878   6.180   6.081 -0.2123  1.9911 -0.0988
 1585SOL     OW 6300   4.969   5.485   5.109 -0.1934 -0.5460 -0.3321
 1585SOL    HW1 6301   4.916   5.514   5.184 -1.2414 -1.8089 -0.5345
 1585SOL    HW2 6302   4.911   5.493   5.034  1.2498  1.8933 -1.2806
 1586SOL     OW 6303   2.151   3.068   1.372 -0.0295  0.3784 -0.0806
 1586SOL    HW1 6304   2.163   3.023   1.289 -2.3783  0.9610 -0.8210
 1586SOL    HW2 6305   2.196   3.152   1.361  0.5111  0.0471 -0.3976
 1587SOL     OW 6306   3.806   4.079   2.388 -0.2107 -0.1177 -0.1849
 1587SOL    HW1 6307   3.828   4.113   2.301  2.8695  0.4642  0.6949
 1587SOL    HW2 6308   3.859   4.000   2.397  2.1682  1.5217  2.2251
 1588SOL     OW 6309   0.081   6.034   2.577  0.5350  0.0079 -0.4362
 1588SOL    HW1 6310   0.176   6.029   2.585  0.6512 -0.6213 -1.9032
 1588SOL    HW2 6311   0.062   6.001   2.489 -0.9202  1.6309 -0.7876
 1589SOL     OW 6312   6.434   6.058   3.843 -0.2958 -0.0722  0.0277
 1589SOL    HW1 6313   6.447   5.979   3.792 -0.6219  0.8887 -1.6057
 1589SOL    HW2 6314   6.341   6.057   3.867 -0.2741 -0.2263  0.1061
 1590SOL     OW 6315   1.690   2.269   5.617  0.1744 -0.0647 -0.0111
 1590SOL    HW1 6316   1.605   2.285   5.576 -0.0581 -2.4891 -0.6223
 1590SOL    HW2 6317   1.673   2.281   5.711 -1.5404 -2.7835  0.1357
 1591SOL     OW 6318   3.712   3.549   1.344  0.2691  0.1750 -0.0464
 1591SOL    HW1 6319   3.636   3.599   1.375  2.1779  3.9073 -0.8284
 1591SOL    HW2 6320   3.697   3.540   1.250 -0.5391 -1.8016  0.2246
 1592SOL     OW 6321   0.065   3.129   2.294 -0.4284  0.4026  0.3838
 1592SOL    HW1 6322   0.130   3.181   2.246  0.6218 -0.3598  0.9288
 1592SOL    HW2 6323   0.110   3.104   2.375 -1.1119 -0.8150  0.4146
 1593SOL     OW 6324   3.598   4.729   2.213  0.1174  0.7044 -0.1508
 1593SOL    HW1 6325   3.548   4.776   2.280  1.3686 -0.3770  1.6496
 1593SOL    HW2 6326   3.534   4.706   2.146 -1.5649  0.4486  1.4562
 1594SOL     OW 6327   4.273   3.459   3.664 -0.1099  0.5404  0.5827
 1594SOL    HW1 6328   4.365   3.436   3.654 -0.2211  0.4909 -0.4642
 1594SOL    HW2 6329   4.272   3.554   3.668 -0.1659  0.7009 -1.7447
 1595SOL     OW 6330   2.845   6.404   2.861 -0.5010  0.0631 -0.3225
 1595SOL    HW1 6331   2.802   6.333   2.909 -1.5466  0.3458 -0.8175
 1595SOL    HW2 6332   2.916   6.432   2.918  1.3334 -2.7979 -1.0102
 1596SOL     OW 6333   4.402   1.823   0.681 -0.0221  0.3994  0.3871
 1596SOL    HW1 6334   4.345   1.843   0.755 -0.9263  1.9498 -0.6725
 1596SOL    HW2 6335   4.482   1.789   0.721 -0.9383  0.0506  2.0032
 1597SOL     OW 6336   3.895   4.452   5.842  0.5017 -0.4198 -0.0822
 1597SOL    HW1 6337   3.872   4.377   5.897  0.9888  0.1769  0.9651
 1597SOL    HW2 6338   3.908   4.524   5.903  2.3900 -0.0433 -0.8299
 1598SOL     OW 6339   4.636   0.718   4.012  0.3554 -0.1761  0.2088
 1598SOL    HW1 6340   4.685   0.783   3.961 -0.2471 -0.2365 -0.4573
 1598SOL    HW2 6341   4.656   0.635   3.969  2.2408 -0.6784  1.8800
 1599SOL     OW 6342   0.518   1.457   4.634 -0.2697  0.2244  0.2965
 1599SOL    HW1 6343   0.533   1.449   4.540  0.3364 -0.3611  0.4367
 1599SOL    HW2 6344   0.574   1.530   4.662 -0.5119  0.4521  0.1974
 1600SOL     OW 6345   2.995   6.159   0.157 -0.6748  0.4060  0.0039
 1600SOL    HW1 6346   2.964   6.068   0.157 -0.2635  0.2630 -0.0556
 1600SOL    HW2 6347   2.918   6.211   0.180 -0.8075  0.0018  0.5008
 1601SOL     OW 6348   6.242   3.126   4.972 -0.2964  0.1196 -0.2613
 1601SOL    HW1 6349   6.331   3.142   5.003 -0.1361  0.4677 -0.8810
 1601SOL    HW2 6350   6.197   3.088   5.047  0.3715 -0.0559  0.0598
 1602SOL     OW 6351   5.271   1.124   3.911  0.0007  0.0597  0.0870
 1602SOL    HW1 6352   5.363   1.103   3.929  0.5464  3.2791  1.8894
 1602SOL    HW2 6353   5.272   1.161   3.823  0.2206 -0.7655 -0.2734
 1603SOL     OW 6354   1.771   4.516   3.278 -0.1792 -0.0796 -0.5106
 1603SOL    HW1 6355   1.754   4.423   3.295 -0.6114 -0.0277 -0.6598
 1603SOL    HW2 6356   1.722   4.535   3.198  0.8017 -0.0010 -1.1129
 1604SOL     OW 6357   0.583   2.969   6.156 -0.0903  0.3610  0.5499
 1604SOL    HW1 6358   0.655   2.915   6.124  0.5111  1.7875 -0.6441
 1604SOL    HW2 6359   0.614   3.002   6.241  2.2658  3.5951 -1.3094
 1605SOL     OW 6360   6.742   4.561   4.166 -0.0860  0.3075 -0.2387
 1605SOL    HW1 6361   6.761   4.487   4.109 -2.2789  0.8692 -1.8333
 1605SOL    HW2 6362   6.661   4.536   4.211 -0.6471  1.5705 -0.5222
 1606SOL     OW 6363   1.257   1.782   1.526 -0.3465 -0.5502 -0.3350
 1606SOL    HW1 6364   1.338   1.739   1.497 -0.1542 -0.2087 -0.3090
 1606SOL    HW2 6365   1.260   1.776   1.622  0.5652  1.0809 -0.2225
 1607SOL     OW 6366   4.398   1.361   1.424  0.2635  0.1936 -0.2383
 1607SOL    HW1 6367   4.416   1.268   1.442 -0.7817 -0.2241 -1.1681
 1607SOL    HW2 6368   4.482   1.405   1.434  1.4997 -1.3593 -2.8300
 1608SOL     OW 6369   3.712   4.336   1.460 -0.1848 -0.0300  0.1303
 1608SOL    HW1 6370   3.771   4.406   1.432  0.6004 -1.0103 -0.6996
 1608SOL    HW2 6371   3.766   4.278   1.513 -0.6770 -0.3473  0.2915
 1609SOL     OW 6372   5.357   5.054   2.648  0.3245 -0.3541 -1.0821
 1609SOL    HW1 6373   5.432   5.094   2.692  0.2930 -1.0474 -0.3600
 1609SOL    HW2 6374   5.302   5.127   2.623  1.0338  0.1384 -1.2277
 1610SOL     OW 6375   3.072   2.152   0.198  0.0847 -0.3167  0.1736
 1610SOL    HW1 6376   2.988   2.144   0.152 -0.0204  1.0252  0.1031
 1610SOL    HW2 6377   3.118   2.220   0.150  0.8887 -0.4769  0.7142
 1611SOL     OW 6378   5.293   3.840   1.980 -0.1162 -0.0654  0.1655
 1611SOL    HW1 6379   5.385   3.856   1.961  0.0832 -2.1816 -1.0095
 1611SOL    HW2 6380   5.252   3.831   1.894 -1.5751  1.3686  0.6494
 1612SOL     OW 6381   3.703   3.150   0.779 -0.3110 -0.1936 -0.6990
 1612SOL    HW1 6382   3.771   3.191   0.725  0.3385  0.6088  0.6902
 1612SOL    HW2 6383   3.751   3.104   0.847 -1.1422 -0.1862 -0.1004
 1613SOL     OW 6384   3.124   4.417   2.239  0.6250 -0.2224  0.2282
 1613SOL    HW1 6385   3.186   4.352   2.273  1.0183 -0.0420 -0.1311
 1613SOL    HW2 6386   3.060   4.429   2.309  1.4115  0.1422  0.8998
 1614SOL     OW 6387   3.918   0.399   3.409  0.3143  0.4665  0.1597
 1614SOL    HW1 6388   4.009   0.371   3.396  0.0557 -0.2169 -0.1882
 1614SOL    HW2 6389   3.867   0.319   3.404 -0.3877  0.9381 -0.3709
 1615SOL     OW 6390   4.524   1.949   5.573 -0.5104 -0.8909  0.0261
 1615SOL    HW1 6391   4.560   1.874   5.526  1.1014  0.7272 -1.4386
 1615SOL    HW2 6392   4.596   2.011   5.578 -1.3821  0.0488  2.4691
 1616SOL     OW 6393   6.336   3.165   0.968  0.2194  0.2496  0.0147
 1616SOL    HW1 6394   6.264   3.144   0.909  0.3223 -0.2073  0.0492
 1616SOL    HW2 6395   6.406   3.196   0.911 -0.5858  2.4063  0.1060
 1617SOL     OW 6396   4.040   2.334   3.573 -0.2426 -0.0362 -0.0204
 1617SOL    HW1 6397   4.077   2.324   3.485 -1.9805 -0.8246 -0.7084
 1617SOL    HW2 6398   3.945   2.333   3.559 -0.5592  1.0285  1.7528
 1618SOL     OW 6399   5.524   4.305   5.000 -0.2729 -0.8575  0.1362
 1618SOL    HW1 6400   5.608   4.322   5.043 -1.3528  0.7541  1.7691
 1618SOL    HW2 6401   5.526   4.358   4.921  0.7475 -1.9081 -0.5859
 1619SOL     OW 6402   1.625   1.775   2.600  0.6291  0.5362  0.0683
 1619SOL    HW1 6403   1.674   1.828   2.536 -0.2440 -0.7606 -1.7626
 1619SOL    HW2 6404   1.549   1.744   2.552 -0.3240 -0.1337  1.9239
 1620SOL     OW 6405   0.843   5.156   0.576  0.3643 -0.5421  0.7754
 1620SOL    HW1 6406   0.756   5.122   0.557  0.0738 -1.3591  3.1979
 1620SOL    HW2 6407   0.897   5.078   0.589  0.9788 -0.0514  1.2565
 1621SOL     OW 6408   2.227   2.828   2.196 -0.3346 -0.2241  0.6923
 1621SOL    HW1 6409   2.146   2.857   2.155 -0.0702  2.9313  2.1103
 1621SOL    HW2 6410   2.205   2.817   2.288  0.5998 -0.4303  0.9023
 1622SOL     OW 6411   5.783   5.215   3.566  0.2361  0.6685 -0.2842
 1622SOL    HW1 6412   5.705   5.267   3.550 -0.7508 -0.6945 -0.0732
 1622SOL    HW2 6413   5.751   5.133   3.603  1.7934  0.1992  0.1197
 1623SOL     OW 6414   5.403   1.606   3.696 -0.1873  0.3089 -0.1158
 1623SOL    HW1 6415   5.388   1.621   3.789 -0.2031 -1.4766  0.2080
 1623SOL    HW2 6416   5.334   1.657   3.652 -0.6101  0.6130  0.8714
 1624SOL     OW 6417   4.687   2.130   6.541 -0.4085  0.0889  0.3067
 1624SOL    HW1 6418   4.620   2.086   6.594  1.1116 -0.4721  1.8886
 1624SOL    HW2 6419   4.768   2.119   6.592  0.8279  1.0220 -1.3605
 1625SOL     OW 6420   6.676   5.242   1.053 -0.2441  0.0314  0.6006
 1625SOL    HW1 6421   6.611   5.311   1.052 -1.4897 -1.0989 -0.3675
 1625SOL    HW2 6422   6.712   5.241   0.964  0.9199  0.4615  1.0447
 1626SOL     OW 6423   6.133   4.237   4.693  0.0633  0.8147  0.3516
 1626SOL    HW1 6424   6.134   4.319   4.643  0.5288  0.8698  0.4460
 1626SOL    HW2 6425   6.099   4.172   4.631 -2.0845  1.4075  0.8330
 1627SOL     OW 6426   6.370   0.688   5.432 -0.3843  0.1357 -0.3372
 1627SOL    HW1 6427   6.336   0.599   5.446  0.8718  0.0208  2.9407
 1627SOL    HW2 6428   6.439   0.677   5.367 -0.5704 -1.2282 -0.3411
 1628SOL     OW 6429   5.834   5.144   1.067  0.4328  0.2091  0.1606
 1628SOL    HW1 6430   5.885   5.116   1.143  0.3624  0.3090  0.2454
 1628SOL    HW2 6431   5.876   5.101   0.992  0.0911 -0.4327  0.3280
 1629SOL     OW 6432   5.694   6.309   2.429  0.2232  0.1175  0.1500
 1629SOL    HW1 6433   5.737   6.310   2.343  0.9318 -1.2703  0.4565
 1629SOL    HW2 6434   5.748   6.250   2.482 -0.2253  0.9156  1.5517
 1630SOL     OW 6435   1.915   0.802   4.033  0.2759 -0.4479  0.3769
 1630SOL    HW1 6436   1.957   0.772   3.952 -0.1781  0.8473 -0.3749
 1630SOL    HW2 6437   1.987   0.809   4.096  0.6390 -1.4828  0.0914
 1631SOL     OW 6438   1.926   3.191   6.676 -0.0766 -0.2256  0.2648
 1631SOL    HW1 6439   2.008   3.145   6.656  0.0971  0.4001 -0.5201
 1631SOL    HW2 6440   1.935   3.217   6.768  0.9389  0.4737 -0.0142
 1632SOL     OW 6441   4.108   6.427   6.783 -0.0889 -0.1889  0.0698
 1632SOL    HW1 6442   4.153   6.432   6.699 -0.4327 -1.3269 -0.2063
 1632SOL    HW2 6443   4.026   6.473   6.770 -0.7493 -1.5205 -0.6579
 1633SOL     OW 6444   6.076   6.273   2.639  0.1554  0.0069 -0.4532
 1633SOL    HW1 6445   6.062   6.251   2.732  0.1418  2.1037  0.0889
 1633SOL    HW2 6446   6.005   6.228   2.593  0.9781 -2.2334  0.3304
 1634SOL     OW 6447   6.380   6.393   1.979  0.4304  0.1741  0.3553
 1634SOL    HW1 6448   6.401   6.486   1.978 -0.0107  0.2796 -0.6743
 1634SOL    HW2 6449   6.288   6.389   2.004  0.0685  0.1283 -0.8896
 1635SOL     OW 6450   0.759   6.264   4.921 -0.2784 -0.2131  0.2081
 1635SOL    HW1 6451   0.705   6.215   4.983 -3.3105  3.1140  0.4816
 1635SOL    HW2 6452   0.765   6.352   4.957 -2.1055  1.9191 -3.9562
 1636SOL     OW 6453   5.796   0.926   4.467  0.1256 -0.9389 -0.0083
 1636SOL    HW1 6454   5.793   0.981   4.389 -1.2466 -1.9926 -0.7462
 1636SOL    HW2 6455   5.888   0.926   4.492  1.0697 -2.3095 -2.9533
 1637SOL     OW 6456   3.590   5.215   3.557 -0.2313  0.2377 -0.2318
 1637SOL    HW1 6457   3.539   5.163   3.619 -0.4977  0.5711 -0.1683
 1637SOL    HW2 6458   3.583   5.168   3.474  2.0423 -1.4987  0.4521
 1638SOL     OW 6459   0.478   5.452   1.673 -0.3155  0.1923  0.4914
 1638SOL    HW1 6460   0.527   5.469   1.593  0.5553 -0.0984  0.9485
 1638SOL    HW2 6461   0.492   5.359   1.691 -1.4699 -0.0194  0.3523
 1639SOL     OW 6462   2.295   4.977   1.208  0.3126  0.6460  0.2359
 1639SOL    HW1 6463   2.363   5.034   1.172  0.9798 -0.0151  0.4115
 1639SOL    HW2 6464   2.213   5.022   1.190  0.6800  0.7170 -1.4135
 1640SOL     OW 6465   2.698   0.680   0.929  0.1620 -0.1615 -0.0830
 1640SOL    HW1 6466   2.764   0.705   0.994 -0.9736  0.0984  1.0338
 1640SOL    HW2 6467   2.622   0.654   0.982 -0.3302 -1.3302 -1.3073
 1641SOL     OW 6468   1.421   4.991   4.512 -0.5508 -0.2991 -0.5868
 1641SOL    HW1 6469   1.363   4.940   4.568 -0.0055  1.4032  1.6745
 1641SOL    HW2 6470   1.497   4.934   4.499  0.2852 -0.0383  2.3352
 1642SOL     OW 6471   3.479   5.966   1.891 -0.0234  0.0597  0.4265
 1642SOL    HW1 6472   3.508   5.909   1.819  2.1825 -2.1700  2.8444
 1642SOL    HW2 6473   3.385   5.977   1.877 -0.0893 -2.1941 -1.5365
 1643SOL     OW 6474   4.474   2.332   3.223  0.3799  0.6708  0.0145
 1643SOL    HW1 6475   4.482   2.368   3.135  2.2377 -0.5262 -0.3443
 1643SOL    HW2 6476   4.556   2.353   3.266  0.8227 -1.5229  0.3722
 1644SOL     OW 6477   0.673   6.444   2.168 -0.5668  0.2408  0.4427
 1644SOL    HW1 6478   0.635   6.449   2.080 -0.6685  0.4578  0.4968
 1644SOL    HW2 6479   0.695   6.352   2.180 -1.5914  0.0165  0.6302
 1645SOL     OW 6480   1.007   0.228   0.396  0.1519  0.2756  0.1185
 1645SOL    HW1 6481   0.936   0.288   0.420 -0.8825 -1.0146  0.3962
 1645SOL    HW2 6482   1.036   0.258   0.310 -0.3309  1.1742  0.2531
 1646SOL     OW 6483   4.819   4.027   4.948  0.0620  0.5395 -0.0352
 1646SOL    HW1 6484   4.870   4.026   4.867  0.2123 -0.7530  0.0461
 1646SOL    HW2 6485   4.872   3.977   5.010 -0.9006 -0.0899  0.3054
 1647SOL     OW 6486   2.895   4.279   5.845 -0.7917  0.2446 -0.2529
 1647SOL    HW1 6487   2.987   4.299   5.828 -0.9382  0.4204 -0.8602
 1647SOL    HW2 6488   2.869   4.219   5.775 -0.3579 -2.2009  1.5564
 1648SOL     OW 6489   3.239   0.875   3.094 -0.2408  0.1381 -0.0714
 1648SOL    HW1 6490   3.292   0.940   3.140 -1.0321 -0.3385  1.5912
 1648SOL    HW2 6491   3.236   0.800   3.153 -1.5391 -0.3946 -0.7668
 1649SOL     OW 6492   5.683   4.648   1.185 -0.5309  0.1822  0.0370
 1649SOL    HW1 6493   5.603   4.636   1.235 -0.7510 -1.0329 -0.5729
 1649SOL    HW2 6494   5.747   4.681   1.249 -0.7810 -1.4011  1.1656
 1650SOL     OW 6495   6.013   5.909   5.149  0.3761  0.1514 -0.2437
 1650SOL    HW1 6496   5.938   5.934   5.095  0.9936  0.5117 -0.9402
 1650SOL    HW2 6497   6.080   5.974   5.130  1.3411 -0.9203 -0.6462
 1651SOL     OW 6498   2.540   2.793   2.474 -0.1644  0.1929 -0.9765
 1651SOL    HW1 6499   2.567   2.838   2.554  1.2085 -0.8431 -0.8158
 1651SOL    HW2 6500   2.516   2.864   2.414 -0.3242  1.0232  0.0337
 1652SOL     OW 6501   0.344   4.250   6.479 -0.0438 -0.8941 -0.5778
 1652SOL    HW1 6502   0.397   4.173   6.457 -0.7000 -1.0774 -1.6272
 1652SOL    HW2 6503   0.256   4.228   6.446 -1.2410 -1.2842  2.5341
 1653SOL     OW 6504   5.213   1.539   4.224  0.2328 -0.0543  0.0109
 1653SOL    HW1 6505   5.121   1.525   4.247  0.1912  0.2892  0.0512
 1653SOL    HW2 6506   5.232   1.471   4.159  0.4188 -1.1908  1.2131
 1654SOL     OW 6507   3.818   3.382   2.275  0.3791  0.1004 -0.0953
 1654SOL    HW1 6508   3.794   3.406   2.185 -1.0124  0.5004  0.3689
 1654SOL    HW2 6509   3.910   3.355   2.268  0.6507  1.2481 -1.4282
 1655SOL     OW 6510   3.583   5.460   4.232 -0.8079  0.1668 -0.4050
 1655SOL    HW1 6511   3.619   5.413   4.307  0.0114  1.2834 -0.0778
 1655SOL    HW2 6512   3.544   5.539   4.270  1.3551  1.7611 -1.2954
 1656SOL     OW 6513   0.699   4.429   1.490  0.4494 -0.2977  0.2639
 1656SOL    HW1 6514   0.616   4.473   1.476  1.0009  0.7720  0.2658
 1656SOL    HW2 6515   0.729   4.460   1.576 -0.0765 -2.2126  1.1986
 1657SOL     OW 6516   0.095   3.192   6.229  0.2054 -0.2504  0.1759
 1657SOL    HW1 6517   0.165   3.234   6.180  2.7297 -1.8907  2.0738
 1657SOL    HW2 6518   0.028   3.259   6.239  0.6456  0.8655 -3.2307
 1658SOL     OW 6519   0.326   2.232   5.426 -0.5961  0.6211  0.4231
 1658SOL    HW1 6520   0.360   2.162   5.369 -0.4890  0.6830  0.4107
 1658SOL    HW2 6521   0.377   2.309   5.402 -0.7909  0.7322  0.3577
 1659SOL     OW 6522   4.685   5.443   4.127 -0.4395 -0.4848  0.7089
 1659SOL    HW1 6523   4.628   5.468   4.055 -2.8320  0.2585  2.7092
 1659SOL    HW2 6524   4.699   5.349   4.115  0.1483 -0.1843 -1.2779
 1660SOL     OW 6525   0.190   3.557   6.779 -0.3118  0.3985  0.1584
 1660SOL    HW1 6526   0.197   3.643   6.821  0.8239  0.1868  0.4544
 1660SOL    HW2 6527   0.243   3.500   6.834 -1.2955 -0.5719  0.1343
 1661SOL     OW 6528   4.368   1.634   5.711 -0.1165 -0.7963 -0.2091
 1661SOL    HW1 6529   4.320   1.617   5.630 -0.6219  0.3661 -0.1861
 1661SOL    HW2 6530   4.299   1.656   5.774  0.3787  0.0038  0.0666
 1662SOL     OW 6531   3.464   0.640   2.043 -0.1098 -0.1124  0.1193
 1662SOL    HW1 6532   3.461   0.555   2.000 -1.0772  0.0121 -0.0674
 1662SOL    HW2 6533   3.415   0.699   1.986 -1.2290  0.1035  1.2677
 1663SOL     OW 6534   0.077   5.349   0.421  0.6860 -0.1835 -0.2084
 1663SOL    HW1 6535   0.051   5.382   0.335  1.1370  0.3166 -0.1544
 1663SOL    HW2 6536   0.007   5.289   0.446 -0.3204  0.9816 -0.1582
 1664SOL     OW 6537   2.435   2.298   5.717 -1.0515  0.1755  0.2893
 1664SOL    HW1 6538   2.431   2.365   5.785 -0.7080 -0.7815  1.2917
 1664SOL    HW2 6539   2.378   2.228   5.749  1.0689 -1.3881  0.8748
 1665SOL     OW 6540   4.098   3.686   6.704  0.2412 -0.2102 -0.5546
 1665SOL    HW1 6541   4.097   3.633   6.625 -0.8620 -2.7494  1.0512
 1665SOL    HW2 6542   4.027   3.651   6.757  0.9573  1.3964  1.5948
 1666SOL     OW 6543   3.845   6.540   0.871  0.0646 -0.1960  0.0413
 1666SOL    HW1 6544   3.849   6.595   0.793  1.2461  0.7398  0.7245
 1666SOL    HW2 6545   3.918   6.570   0.925 -2.3896  1.2240  2.8463
 1667SOL     OW 6546   5.427   0.138   5.095 -0.3001 -0.1737  0.3603
 1667SOL    HW1 6547   5.452   0.225   5.128 -1.2131  0.7207 -1.1607
 1667SOL    HW2 6548   5.466   0.134   5.008  1.2749 -2.0838  1.0849
 1668SOL     OW 6549   1.488   3.986   0.121  0.3474  0.1117  0.1608
 1668SOL    HW1 6550   1.504   4.034   0.040  1.7192 -0.4064  0.0873
 1668SOL    HW2 6551   1.493   4.052   0.190 -0.2194  0.4574 -0.1290
 1669SOL     OW 6552   5.391   4.289   5.242 -0.2668  0.1275 -0.0336
 1669SOL    HW1 6553   5.416   4.352   5.309  1.2789  0.0302 -0.4852
 1669SOL    HW2 6554   5.434   4.319   5.162  1.2074 -1.9019 -0.0876
 1670SOL     OW 6555   5.604   4.506   2.000 -0.5848 -0.2070 -0.2201
 1670SOL    HW1 6556   5.699   4.497   1.992 -0.4233 -0.0279  1.2542
 1670SOL    HW2 6557   5.571   4.486   1.913  0.6334 -2.8770 -0.1697
 1671SOL     OW 6558   3.215   4.030   2.682  0.5753 -0.3677 -0.6904
 1671SOL    HW1 6559   3.257   4.113   2.705 -0.0258  0.1867 -1.5440
 1671SOL    HW2 6560   3.288   3.973   2.655  0.9766 -0.0791 -0.2363
 1672SOL     OW 6561   0.376   4.371   5.873 -0.8705 -0.0034  0.3669
 1672SOL    HW1 6562   0.295   4.320   5.882 -1.6275  1.2429  0.9062
 1672SOL    HW2 6563   0.353   4.444   5.817  0.1876 -0.1819 -0.3406
 1673SOL     OW 6564   0.503   2.255   1.831 -0.4258 -0.2994  0.1720
 1673SOL    HW1 6565   0.417   2.213   1.836  0.2809 -1.6335  2.8835
 1673SOL    HW2 6566   0.566   2.184   1.843  0.9537  0.9728  0.8919
 1674SOL     OW 6567   3.522   5.387   0.593 -0.2355  0.2022 -0.0743
 1674SOL    HW1 6568   3.563   5.441   0.660 -1.3724 -0.3426  1.0871
 1674SOL    HW2 6569   3.435   5.423   0.582 -1.2478 -1.6941  1.1784
 1675SOL     OW 6570   5.912   4.740   5.903  0.0364  0.0014 -0.5955
 1675SOL    HW1 6571   5.990   4.705   5.861 -0.4823  1.3778 -2.8756
 1675SOL    HW2 6572   5.928   4.834   5.912 -1.5430  0.4529 -1.7903
 1676SOL     OW 6573   1.246   6.388   4.402 -0.2947 -0.0056  0.2546
 1676SOL    HW1 6574   1.302   6.412   4.476 -0.3541  0.1889  0.2363
 1676SOL    HW2 6575   1.234   6.294   4.411 -0.3726  0.0306  0.5418
 1677SOL     OW 6576   3.362   4.692   1.413 -0.1289 -0.5095 -0.0923
 1677SOL    HW1 6577   3.449   4.678   1.377 -0.7104 -3.6565 -0.5173
 1677SOL    HW2 6578   3.378   4.732   1.499  1.5733  0.9150 -1.0087
 1678SOL     OW 6579   5.664   5.278   4.123  0.2646 -0.2478  0.1298
 1678SOL    HW1 6580   5.595   5.250   4.183  0.0735 -1.9370 -0.8399
 1678SOL    HW2 6581   5.745   5.264   4.172  0.0794 -1.0357  0.2147
 1679SOL     OW 6582   2.706   0.353   6.034  0.0693  0.3609 -0.1127
 1679SOL    HW1 6583   2.785   0.370   5.984 -0.3228  0.9713 -0.5407
 1679SOL    HW2 6584   2.635   0.355   5.969 -0.3131 -0.0098  0.2842
 1680SOL     OW 6585   3.570   3.003   3.639  0.6158 -0.2609 -0.4210
 1680SOL    HW1 6586   3.626   3.029   3.566  1.9737 -1.0353  0.3069
 1680SOL    HW2 6587   3.536   2.917   3.615  0.8617 -0.4055 -0.2547
 1681SOL     OW 6588   6.700   4.954   1.120 -0.2728  0.5311 -0.1529
 1681SOL    HW1 6589   6.699   5.048   1.104  1.1309  0.3803 -1.3296
 1681SOL    HW2 6590   6.667   4.944   1.210  1.9208  2.3461  0.9407
 1682SOL     OW 6591   2.047   2.509   4.517 -0.3284  0.2413  0.0741
 1682SOL    HW1 6592   2.115   2.446   4.493 -2.2704 -1.5870 -1.0089
 1682SOL    HW2 6593   2.043   2.504   4.613  1.3200  0.7078  0.1851
 1683SOL     OW 6594   2.174   5.052   3.401  0.1032 -0.1408  0.0086
 1683SOL    HW1 6595   2.095   5.097   3.372  0.5876  0.5261 -0.2781
 1683SOL    HW2 6596   2.147   4.961   3.413 -0.7438  0.1147  0.0624
 1684SOL     OW 6597   2.314   0.588   3.878 -0.4441  0.3302 -0.2238
 1684SOL    HW1 6598   2.381   0.637   3.926  0.3292  1.0329 -1.9351
 1684SOL    HW2 6599   2.363   0.539   3.812 -1.3689 -1.5009  0.3797
 1685SOL     OW 6600   3.290   5.252   3.320 -0.1690 -0.1286  0.2394
 1685SOL    HW1 6601   3.348   5.322   3.290 -0.8580  0.9764  1.3875
 1685SOL    HW2 6602   3.206   5.272   3.278 -0.4773 -0.0053  0.8980
 1686SOL     OW 6603   4.921   1.353   1.076 -0.2138 -0.4847  0.2221
 1686SOL    HW1 6604   4.886   1.304   1.150  0.8534 -0.6744  0.6134
 1686SOL    HW2 6605   4.864   1.330   1.003  0.8707 -3.2379  0.1067
 1687SOL     OW 6606   3.934   3.795   0.131  0.0372  0.1275  0.0386
 1687SOL    HW1 6607   3.915   3.711   0.088  2.6930 -1.7666  2.1935
 1687SOL    HW2 6608   3.895   3.786   0.218  2.1891  0.0961  1.0787
 1688SOL     OW 6609   3.163   4.462   3.998 -0.0981  0.0001 -0.1550
 1688SOL    HW1 6610   3.217   4.406   3.942  0.0533 -0.5000  0.4848
 1688SOL    HW2 6611   3.183   4.551   3.969  1.2398 -0.1621  0.2172
 1689SOL     OW 6612   2.551   3.673   5.970 -0.2196  0.0295 -0.1352
 1689SOL    HW1 6613   2.605   3.675   6.049  0.1402  0.9132 -0.3888
 1689SOL    HW2 6614   2.477   3.616   5.993 -0.4160  0.7233  1.0398
 1690SOL     OW 6615   3.999   2.605   3.393 -0.5185 -0.0806  0.6914
 1690SOL    HW1 6616   4.080   2.632   3.438  0.0546 -0.8368  0.1312
 1690SOL    HW2 6617   3.950   2.687   3.382  0.2687  0.4252  0.8320
 1691SOL     OW 6618   2.786   2.524   4.550  0.3595  0.2914  0.3871
 1691SOL    HW1 6619   2.840   2.449   4.527  1.8037  0.6460  2.4154
 1691SOL    HW2 6620   2.707   2.485   4.588 -0.1072 -0.1983 -1.0156
 1692SOL     OW 6621   2.022   5.841   1.417  0.4518 -0.5177  0.0767
 1692SOL    HW1 6622   2.051   5.857   1.328  0.6374 -1.2882 -0.0105
 1692SOL    HW2 6623   2.103   5.837   1.469  0.4180 -1.1396  0.0914
 1693SOL     OW 6624   5.436   4.764   1.166 -0.0955 -0.3443  0.8168
 1693SOL    HW1 6625   5.354   4.791   1.127 -0.8880  0.3157  2.7861
 1693SOL    HW2 6626   5.503   4.794   1.105 -1.1131  2.9519  1.1412
 1694SOL     OW 6627   3.211   4.747   2.485  0.4175  0.0700  0.5139
 1694SOL    HW1 6628   3.223   4.794   2.402 -0.2277  1.9035  1.4027
 1694SOL    HW2 6629   3.125   4.777   2.517  0.5671 -0.7587  1.7416
 1695SOL     OW 6630   1.590   3.529   4.745 -0.8419  0.5455 -0.1113
 1695SOL    HW1 6631   1.575   3.453   4.689 -3.9641  0.8761  0.0875
 1695SOL    HW2 6632   1.525   3.593   4.715  0.0335  2.2089  1.3634
 1696SOL     OW 6633   3.869   2.833   0.544  0.5269 -0.0005  0.3590
 1696SOL    HW1 6634   3.792   2.891   0.545  2.2745  2.5418 -0.6296
 1696SOL    HW2 6635   3.836   2.751   0.507 -1.2364  1.9182 -2.8297
 1697SOL     OW 6636   0.553   3.139   6.648 -0.0114 -0.1048  0.3348
 1697SOL    HW1 6637   0.614   3.150   6.721 -0.0166 -2.4005  0.7534
 1697SOL    HW2 6638   0.468   3.126   6.691 -0.3351  0.3768 -0.1540
 1698SOL     OW 6639   0.298   0.063   4.818 -0.1313  0.0598 -0.1100
 1698SOL    HW1 6640   0.308   0.089   4.909  1.1233 -1.8122  0.3266
 1698SOL    HW2 6641   0.378   0.092   4.775  0.8942 -2.0820  0.1990
 1699SOL     OW 6642   3.695   3.318   3.122 -0.0861  0.0344  0.1447
 1699SOL    HW1 6643   3.611   3.356   3.149 -0.7315 -1.5776  0.5577
 1699SOL    HW2 6644   3.692   3.318   3.027 -0.0387  1.0527  0.1347
 1700SOL     OW 6645   1.076   6.139   5.986  0.3721 -0.3589 -0.1919
 1700SOL    HW1 6646   1.037   6.152   6.073  1.8902  0.8070  0.3657
 1700SOL    HW2 6647   1.016   6.183   5.926 -0.2528 -0.4371  0.3643
 1701SOL     OW 6648   0.703   1.440   1.574 -0.1962 -0.1466 -0.3250
 1701SOL    HW1 6649   0.703   1.524   1.619  0.9051 -0.6818  0.7172
 1701SOL    HW2 6650   0.770   1.449   1.507 -0.6784  0.0869 -0.7823
 1702SOL     OW 6651   1.183   0.636   1.883 -0.3033  0.0010 -0.2269
 1702SOL    HW1 6652   1.179   0.649   1.789 -0.8956  0.8856 -0.1010
 1702SOL    HW2 6653   1.268   0.594   1.899  0.1455  0.5648 -1.0735
 1703SOL     OW 6654   0.575   6.081   2.548  0.1905  0.0370  0.4735
 1703SOL    HW1 6655   0.545   6.064   2.459  2.8895  1.8162 -0.9055
 1703SOL    HW2 6656   0.572   6.176   2.557  0.2011 -0.0992  2.2216
 1704SOL     OW 6657   1.806   3.787   5.009  0.0306  0.0290  0.1070
 1704SOL    HW1 6658   1.838   3.742   4.932 -0.1931  0.8124 -0.4554
 1704SOL    HW2 6659   1.881   3.836   5.042  0.1763 -0.4517  0.5048
 1705SOL     OW 6660   5.409   5.758   6.786 -0.4782  0.2550  0.4346
 1705SOL    HW1 6661   5.337   5.768   6.724 -0.1728  0.3175  0.0857
 1705SOL    HW2 6662   5.385   5.812   6.861 -1.4046 -0.7279  0.8794
 1706SOL     OW 6663   1.160   3.066   4.855 -0.1732 -0.1129  0.3657
 1706SOL    HW1 6664   1.082   3.047   4.803 -0.5274 -0.2082  0.9200
 1706SOL    HW2 6665   1.158   3.160   4.869  1.0671  0.2475 -1.5722
 1707SOL     OW 6666   3.315   2.838   5.690  0.9979  0.0148  0.0674
 1707SOL    HW1 6667   3.271   2.754   5.703  0.2996  0.0372 -1.8809
 1707SOL    HW2 6668   3.274   2.897   5.754 -2.0228  0.0629 -1.7142
 1708SOL     OW 6669   4.424   0.310   2.010  0.4273 -0.1866 -0.2815
 1708SOL    HW1 6670   4.385   0.257   1.940  0.7434 -0.3003 -0.3728
 1708SOL    HW2 6671   4.474   0.247   2.062  0.5412 -0.0292 -0.2005
 1709SOL     OW 6672   1.353   5.444   1.126  0.3090 -0.2839  0.5045
 1709SOL    HW1 6673   1.386   5.372   1.179  0.9710  0.1141  0.6419
 1709SOL    HW2 6674   1.376   5.523   1.175  0.6260  0.0738 -0.2070
 1710SOL     OW 6675   2.853   6.148   1.108  0.6338 -0.6339  0.1064
 1710SOL    HW1 6676   2.786   6.216   1.103  0.4530 -0.9237 -2.0357
 1710SOL    HW2 6677   2.907   6.173   1.183  0.8377  2.1163 -0.8703
 1711SOL     OW 6678   5.821   4.275   4.268  0.2234 -0.9548 -0.0381
 1711SOL    HW1 6679   5.789   4.360   4.240  0.4497 -1.0836 -0.6860
 1711SOL    HW2 6680   5.916   4.278   4.253  0.1068 -1.6801 -1.0350
 1712SOL     OW 6681   6.074   4.311   4.030  0.3804 -0.1097  0.4644
 1712SOL    HW1 6682   6.043   4.398   4.004 -0.0503  0.6308  3.2041
 1712SOL    HW2 6683   6.034   4.252   3.966 -0.3259  1.5595 -0.7168
 1713SOL     OW 6684   4.386   6.020   5.492 -0.2328 -0.5552  0.1741
 1713SOL    HW1 6685   4.470   6.043   5.531 -1.1034 -0.3415  2.0847
 1713SOL    HW2 6686   4.407   5.965   5.417  1.5784 -1.7544  1.4820
 1714SOL     OW 6687   6.575   1.438   2.468 -0.1156  0.4383 -0.6868
 1714SOL    HW1 6688   6.517   1.430   2.544  0.1958  0.1379 -0.4809
 1714SOL    HW2 6689   6.574   1.350   2.429  0.3229  0.3926 -0.5938
 1715SOL     OW 6690   5.489   6.139   0.120  0.2861  0.0201  0.0217
 1715SOL    HW1 6691   5.541   6.219   0.111 -0.5096  0.4634 -0.8772
 1715SOL    HW2 6692   5.456   6.122   0.032 -1.1752 -0.1684  0.5790
 1716SOL     OW 6693   0.451   3.237   1.631  0.0783  0.5787  0.1837
 1716SOL    HW1 6694   0.492   3.301   1.573 -0.3704  3.5545  2.9097
 1716SOL    HW2 6695   0.524   3.195   1.676  0.3151  0.4001 -0.3567
 1717SOL     OW 6696   2.387   3.114   4.982  0.3117 -0.3574  0.2095
 1717SOL    HW1 6697   2.449   3.045   5.004  2.9448  1.2916 -1.4106
 1717SOL    HW2 6698   2.327   3.074   4.919  1.9581 -1.1370 -0.9288
 1718SOL     OW 6699   0.576   3.718   2.324 -0.0881  0.1279 -0.2250
 1718SOL    HW1 6700   0.511   3.651   2.345 -1.6316  1.6440 -0.0324
 1718SOL    HW2 6701   0.621   3.733   2.407 -0.8470  0.4890  0.1304
 1719SOL     OW 6702   1.687   3.323   2.884  0.3384 -0.6341 -0.0719
 1719SOL    HW1 6703   1.604   3.319   2.933  0.1540  0.9459 -0.2046
 1719SOL    HW2 6704   1.754   3.335   2.952  0.2969 -0.4340 -0.0656
 1720SOL     OW 6705   0.083   2.644   0.333 -0.2821 -0.2344 -0.2796
 1720SOL    HW1 6706   0.100   2.735   0.307 -0.6149  0.1294  0.7056
 1720SOL    HW2 6707   0.046   2.603   0.255  0.1632  0.3897 -0.8360
 1721SOL     OW 6708   4.576   0.268   6.479 -0.0763  0.1256  0.4179
 1721SOL    HW1 6709   4.580   0.326   6.402 -1.3865  0.6589  0.7233
 1721SOL    HW2 6710   4.558   0.181   6.443 -0.8409  0.4011  0.1176
 1722SOL     OW 6711   5.434   3.747   4.426  0.0526  0.0701  0.0793
 1722SOL    HW1 6712   5.399   3.813   4.367  1.0773  1.3125  0.8218
 1722SOL    HW2 6713   5.356   3.701   4.460 -0.6732  0.9206 -0.4054
 1723SOL     OW 6714   0.516   0.648   5.468 -0.1892 -0.0126 -0.4547
 1723SOL    HW1 6715   0.478   0.596   5.539  1.3641 -0.6095 -0.0244
 1723SOL    HW2 6716   0.596   0.684   5.506 -0.3183  1.2396 -1.3238
 1724SOL     OW 6717   4.333   5.613   5.524 -0.2442 -0.1013  0.0217
 1724SOL    HW1 6718   4.290   5.551   5.466  0.9316 -0.2557 -0.7165
 1724SOL    HW2 6719   4.314   5.699   5.485 -0.4110 -0.1226  0.0549
 1725SOL     OW 6720   1.652   2.042   1.418 -0.5149  0.1137 -0.0912
 1725SOL    HW1 6721   1.561   2.013   1.408 -0.4696 -1.0782  2.1657
 1725SOL    HW2 6722   1.646   2.138   1.422 -1.5935  0.0791 -0.5586
 1726SOL     OW 6723   6.129   1.705   1.549  0.3030 -0.0349 -0.4381
 1726SOL    HW1 6724   6.057   1.674   1.493 -0.8171  1.3666  0.1535
 1726SOL    HW2 6725   6.199   1.726   1.487 -0.7607  1.0903 -1.3298
 1727SOL     OW 6726   3.426   1.877   5.252 -0.2982  0.0472  0.9140
 1727SOL    HW1 6727   3.467   1.964   5.253 -2.0898  0.9478  0.7468
 1727SOL    HW2 6728   3.334   1.895   5.230 -0.8816 -1.8214  1.6716
 1728SOL     OW 6729   3.801   6.784   1.716 -0.3704 -0.3666 -0.1994
 1728SOL    HW1 6730   3.809   6.794   1.811  1.2548  0.6136 -0.3897
 1728SOL    HW2 6731   3.728   6.841   1.692 -0.3742 -0.1136  0.3945
 1729SOL     OW 6732   4.102   6.551   5.584 -0.0260  0.5252 -0.3575
 1729SOL    HW1 6733   4.089   6.464   5.545 -4.0832  1.3373 -1.2524
 1729SOL    HW2 6734   4.105   6.610   5.510 -0.5886  1.4247  0.3142
 1730SOL     OW 6735   5.095   5.028   6.659  0.6399 -0.4028  0.1771
 1730SOL    HW1 6736   5.034   5.076   6.716  1.5338  2.3524 -1.0303
 1730SOL    HW2 6737   5.179   5.032   6.705  1.1456  0.9822 -0.7983
 1731SOL     OW 6738   1.814   5.212   3.093 -0.4820 -0.5793  0.0973
 1731SOL    HW1 6739   1.839   5.189   3.182 -2.3644 -0.7833  0.6328
 1731SOL    HW2 6740   1.742   5.275   3.104  0.0702  0.3485 -1.3004
 1732SOL     OW 6741   4.219   1.992   4.971 -0.2845  0.4095 -0.2271
 1732SOL    HW1 6742   4.169   1.915   4.998  0.0306  0.9412  2.0142
 1732SOL    HW2 6743   4.181   2.016   4.886 -0.4739 -2.0947 -0.9408
 1733SOL     OW 6744   3.355   6.436   2.674 -0.2981  0.2357 -0.1624
 1733SOL    HW1 6745   3.398   6.377   2.736  1.3786  1.9157  0.3993
 1733SOL    HW2 6746   3.367   6.395   2.589  1.0177 -0.1675  0.1909
 1734SOL     OW 6747   0.930   5.601   3.534  0.2866  0.1202  0.1746
 1734SOL    HW1 6748   0.847   5.628   3.574 -1.0406 -0.3141 -2.0861
 1734SOL    HW2 6749   0.994   5.664   3.567 -1.3884  1.8718  0.2750
 1735SOL     OW 6750   4.538   2.467   1.750  0.1138  0.5320 -0.0689
 1735SOL    HW1 6751   4.533   2.479   1.845  1.1419  1.6198 -0.1171
 1735SOL    HW2 6752   4.562   2.375   1.739  1.2374  0.6859  0.8070
 1736SOL     OW 6753   2.112   0.938   6.291  0.1963 -0.6776  0.5122
 1736SOL    HW1 6754   2.034   0.936   6.347  0.1728 -0.1551  0.5046
 1736SOL    HW2 6755   2.082   0.905   6.206 -0.2636  0.4414  0.2206
 1737SOL     OW 6756   2.653   4.305   1.543 -0.1774  0.6129  0.5619
 1737SOL    HW1 6757   2.621   4.218   1.518  0.0583  0.0384  2.1442
 1737SOL    HW2 6758   2.633   4.312   1.636  2.5782  0.9829  1.2141
 1738SOL     OW 6759   1.778   0.170   2.616 -0.5310  0.1984 -0.1069
 1738SOL    HW1 6760   1.716   0.165   2.543 -0.1754 -0.3689 -0.3667
 1738SOL    HW2 6761   1.725   0.204   2.689 -0.6623  1.7262 -0.8704
 1739SOL     OW 6762   4.420   0.196   5.588 -0.4425 -0.0767  0.2031
 1739SOL    HW1 6763   4.382   0.242   5.662 -0.0356  0.2010  0.2405
 1739SOL    HW2 6764   4.383   0.241   5.511 -0.4040  0.0183  0.2397
 1740SOL     OW 6765   1.615   3.611   5.168  0.0654  0.3455 -0.1924
 1740SOL    HW1 6766   1.655   3.524   5.162  0.1076  0.4751 -2.5117
 1740SOL    HW2 6767   1.685   3.671   5.142 -0.1304  1.0559  0.8566
 1741SOL     OW 6768   3.513   2.115   4.078 -0.5972  0.2346 -0.2593
 1741SOL    HW1 6769   3.470   2.194   4.046  1.1422  1.1743 -0.3767
 1741SOL    HW2 6770   3.488   2.110   4.170 -1.3646  0.4633 -0.4455
 1742SOL     OW 6771   1.020   3.313   5.928 -0.2177  0.0526  0.2226
 1742SOL    HW1 6772   1.105   3.353   5.945 -1.2137  1.4339  2.3055
 1742SOL    HW2 6773   1.004   3.256   6.003 -0.3237 -1.7503 -1.0940
 1743SOL     OW 6774   6.268   0.461   0.210  0.1593 -0.3250 -0.5717
 1743SOL    HW1 6775   6.200   0.409   0.167  0.7091 -0.3303 -1.4449
 1743SOL    HW2 6776   6.263   0.435   0.302 -0.3098 -1.1052 -0.8083
 1744SOL     OW 6777   5.588   4.999   0.400 -0.1172 -0.2567  0.1659
 1744SOL    HW1 6778   5.614   4.992   0.308 -0.0439 -0.8214  0.2230
 1744SOL    HW2 6779   5.594   5.092   0.420  0.9636 -0.2496 -0.0939
 1745SOL     OW 6780   4.205   3.032   2.905 -0.0948 -0.0468 -0.3743
 1745SOL    HW1 6781   4.249   3.036   2.990  0.7269 -3.0795 -0.5146
 1745SOL    HW2 6782   4.247   3.101   2.853 -0.6395  1.8900  1.6162
 1746SOL     OW 6783   1.470   6.488   0.594  0.5885 -0.3847 -0.0051
 1746SOL    HW1 6784   1.523   6.558   0.555  1.4448 -1.4762 -0.8516
 1746SOL    HW2 6785   1.523   6.456   0.668  0.5564 -0.6634 -0.1028
 1747SOL     OW 6786   2.947   3.630   2.976 -0.3835 -0.8299 -0.0316
 1747SOL    HW1 6787   2.984   3.637   2.888  0.2530  0.5974  0.3265
 1747SOL    HW2 6788   2.982   3.547   3.010  3.5508  0.9222  0.7176
 1748SOL     OW 6789   0.513   4.397   1.732  0.7601 -0.4481 -0.6966
 1748SOL    HW1 6790   0.464   4.396   1.814  0.2919 -1.5374 -0.9801
 1748SOL    HW2 6791   0.454   4.437   1.668  1.2947  0.8336 -0.4227
 1749SOL     OW 6792   4.237   3.072   5.255 -0.1750 -0.0559  0.3521
 1749SOL    HW1 6793   4.309   3.082   5.193 -0.3662 -0.2412  0.0954
 1749SOL    HW2 6794   4.207   2.982   5.242 -2.0262  0.7120 -1.2921
 1750SOL     OW 6795   0.476   5.173   1.706  0.1732  0.2239  0.9605
 1750SOL    HW1 6796   0.505   5.137   1.621  0.2582  0.3195  0.9499
 1750SOL    HW2 6797   0.543   5.146   1.768 -0.2425 -0.4530  1.1308
 1751SOL     OW 6798   4.703   2.170   5.648  0.3745  0.1403 -0.1582
 1751SOL    HW1 6799   4.702   2.231   5.574  1.0281  1.1900  0.6613
 1751SOL    HW2 6800   4.758   2.214   5.714 -0.1944 -0.7594  0.9469
 1752SOL     OW 6801   6.356   4.642   2.659  0.0546  0.0490  0.2583
 1752SOL    HW1 6802   6.267   4.669   2.635  0.3458 -0.7662 -1.9086
 1752SOL    HW2 6803   6.413   4.695   2.604  0.7985 -1.2025 -0.2204
 1753SOL     OW 6804   2.228   3.149   3.703 -0.7089  0.2316  0.3542
 1753SOL    HW1 6805   2.212   3.066   3.657 -0.5215  0.6288 -0.4456
 1753SOL    HW2 6806   2.274   3.203   3.639  1.8312 -0.0596  1.7845
 1754SOL     OW 6807   2.316   6.372   3.260 -0.2418  0.5092 -0.4300
 1754SOL    HW1 6808   2.305   6.286   3.301 -0.6739  1.4462  1.5084
 1754SOL    HW2 6809   2.410   6.377   3.241 -0.0298  0.0181  0.4282
 1755SOL     OW 6810   0.731   4.461   3.426 -0.6626  0.9362 -0.0420
 1755SOL    HW1 6811   0.719   4.372   3.391 -0.0717  0.0604  1.8179
 1755SOL    HW2 6812   0.642   4.494   3.438 -0.8784  1.2278 -2.1773
 1756SOL     OW 6813   1.390   6.712   5.645  0.2905  0.2179  0.3080
 1756SOL    HW1 6814   1.306   6.705   5.690 -0.1033 -0.8775 -0.5721
 1756SOL    HW2 6815   1.387   6.797   5.601 -1.1432 -0.5606 -1.2185
 1757SOL     OW 6816   1.434   4.290   1.020 -0.0265  0.0822  0.2869
 1757SOL    HW1 6817   1.459   4.333   1.101  1.6080 -1.7638  0.8305
 1757SOL    HW2 6818   1.516   4.258   0.983 -1.1054 -2.9681  0.1996
 1758SOL     OW 6819   3.386   0.124   1.845 -0.4080 -0.0181 -0.3181
 1758SOL    HW1 6820   3.443   0.113   1.922 -1.1470 -1.1864  0.0914
 1758SOL    HW2 6821   3.405   0.047   1.791  0.7187  1.2173 -1.7401
 1759SOL     OW 6822   2.087   5.816   2.746  0.4121  0.0836 -0.8640
 1759SOL    HW1 6823   2.028   5.836   2.818 -1.0198  0.0949 -2.0087
 1759SOL    HW2 6824   2.122   5.729   2.767 -0.0240  0.0632 -0.2004
 1760SOL     OW 6825   3.959   1.533   6.513 -0.1161  0.3348 -0.5758
 1760SOL    HW1 6826   3.920   1.500   6.594 -0.8187  0.8284 -0.7078
 1760SOL    HW2 6827   3.910   1.489   6.443 -0.6230  1.1455 -0.7462
 1761SOL     OW 6828   3.196   1.284   1.748 -0.1291 -0.1333 -0.4477
 1761SOL    HW1 6829   3.220   1.236   1.827 -0.6777  0.8344  0.3285
 1761SOL    HW2 6830   3.105   1.310   1.761  0.0941  0.9684 -0.9032
 1762SOL     OW 6831   3.887   2.350   6.226 -0.0436  0.4515  0.2940
 1762SOL    HW1 6832   3.971   2.370   6.186 -0.3836 -0.1920 -0.7827
 1762SOL    HW2 6833   3.837   2.432   6.220 -0.3043  0.2100 -1.1875
 1763SOL     OW 6834   6.122   4.740   4.012  0.0648 -0.0860 -0.1551
 1763SOL    HW1 6835   6.038   4.717   4.053  0.9799 -1.6972  0.8961
 1763SOL    HW2 6836   6.141   4.828   4.045 -1.3929  0.5031 -0.7645
 1764SOL     OW 6837   0.989   4.035   3.594 -0.5091  0.3983  0.0737
 1764SOL    HW1 6838   0.975   4.018   3.687 -1.3525  1.2753  0.1167
 1764SOL    HW2 6839   1.042   3.961   3.564  1.6666  1.1990  1.7103
 1765SOL     OW 6840   0.996   5.705   2.601 -0.6979 -0.0928 -0.3298
 1765SOL    HW1 6841   1.060   5.748   2.545 -2.5154  1.6734 -1.2030
 1765SOL    HW2 6842   0.929   5.772   2.615 -0.9505 -0.8530  2.9658
 1766SOL     OW 6843   5.664   6.761   5.867  0.3901  0.0356  0.0925
 1766SOL    HW1 6844   5.701   6.811   5.940 -0.9929  0.7884  0.3056
 1766SOL    HW2 6845   5.724   6.777   5.794 -0.2987  2.5296 -0.0120
 1767SOL     OW 6846   2.612   4.391   5.704 -0.0723  0.2061  0.0472
 1767SOL    HW1 6847   2.686   4.428   5.656  1.4502 -1.8359  0.6839
 1767SOL    HW2 6848   2.619   4.297   5.690 -2.1130 -0.0966  0.7819
 1768SOL     OW 6849   0.520   5.162   6.099 -0.0757  0.3732  0.0276
 1768SOL    HW1 6850   0.590   5.174   6.035 -0.6549 -2.2568 -1.2309
 1768SOL    HW2 6851   0.565   5.151   6.182  0.8650  1.0770 -0.3725
 1769SOL     OW 6852   5.922   5.561   4.948  0.9301  0.3060 -0.2446
 1769SOL    HW1 6853   5.843   5.548   5.000  0.0418  0.6774 -1.4512
 1769SOL    HW2 6854   5.909   5.645   4.904  1.4439 -0.1652 -1.3548
 1770SOL     OW 6855   0.201   3.802   2.000 -0.4003  0.2183 -0.2306
 1770SOL    HW1 6856   0.232   3.887   2.032 -0.9419 -0.2626  1.7055
 1770SOL    HW2 6857   0.135   3.776   2.064  0.1856 -1.9500 -0.4498
 1771SOL     OW 6858   5.541   6.577   1.259  0.1322 -0.6105  0.3095
 1771SOL    HW1 6859   5.467   6.612   1.209 -1.0789 -1.4059  1.4798
 1771SOL    HW2 6860   5.559   6.492   1.219  0.1575 -0.5902  0.2769
 1772SOL     OW 6861   3.700   5.368   5.018  0.1486 -0.0948 -0.0994
 1772SOL    HW1 6862   3.705   5.293   4.959 -2.4705 -0.6500  0.2321
 1772SOL    HW2 6863   3.784   5.412   5.009  1.4514 -2.5828 -0.9304
 1773SOL     OW 6864   1.865   2.002   0.030  0.3064  0.2888  0.6176
 1773SOL    HW1 6865   1.800   1.998  -0.039  0.3173  0.3716  0.6035
 1773SOL    HW2 6866   1.820   2.044   0.104  0.3765  0.4435  0.5724
 1774SOL     OW 6867   3.138   3.149   3.144  0.4622  0.0478  0.0497
 1774SOL    HW1 6868   3.122   3.081   3.078 -1.4500  0.9599 -0.5000
 1774SOL    HW2 6869   3.223   3.127   3.180  1.0887 -1.1237 -1.9524
 1775SOL     OW 6870   0.828   6.757   4.485 -0.2886 -0.6339  0.3502
 1775SOL    HW1 6871   0.864   6.818   4.421 -1.7581 -0.6871 -0.5785
 1775SOL    HW2 6872   0.885   6.680   4.479  1.4337  0.5119  1.3614
 1776SOL     OW 6873   2.051   2.903   6.318  0.3080 -0.0204  0.3017
 1776SOL    HW1 6874   1.975   2.937   6.271 -0.6845  0.7029  2.3168
 1776SOL    HW2 6875   2.077   2.975   6.376  2.2130 -0.4551  0.0611
 1777SOL     OW 6876   6.052   3.105   1.622 -0.1504 -0.0090  0.6649
 1777SOL    HW1 6877   6.007   3.167   1.680  0.8254  0.9347  0.4607
 1777SOL    HW2 6878   6.015   3.123   1.535  0.6329  0.8375  0.4795
 1778SOL     OW 6879   1.237   4.326   2.840 -0.1079 -0.7799 -0.1161
 1778SOL    HW1 6880   1.234   4.253   2.778  0.8287  0.5644 -1.8320
 1778SOL    HW2 6881   1.323   4.318   2.881 -1.0541 -2.1804  1.7750
 1779SOL     OW 6882   3.483   3.232   0.909  0.4115  0.2490 -0.1601
 1779SOL    HW1 6883   3.520   3.292   0.974  0.8089 -1.1612  0.9507
 1779SOL    HW2 6884   3.553   3.219   0.846  0.1395  1.3578 -0.7116
 1780SOL     OW 6885   3.088   1.584   4.099 -0.3715  0.2430  1.1855
 1780SOL    HW1 6886   3.045   1.498   4.103  2.0575 -1.0864  0.7858
 1780SOL    HW2 6887   3.181   1.563   4.091  0.2298  2.9426  0.3130
 1781SOL     OW 6888   2.109   1.260   0.436  0.5692  0.3370 -0.1794
 1781SOL    HW1 6889   2.132   1.352   0.423 -0.0190  0.5559  0.2848
 1781SOL    HW2 6890   2.014   1.260   0.449  0.5027 -0.3862 -0.6009
 1782SOL     OW 6891   3.766   2.446   0.356 -0.4818 -0.2855 -0.5591
 1782SOL    HW1 6892   3.740   2.522   0.305 -0.9141  1.1034  1.5814
 1782SOL    HW2 6893   3.683   2.409   0.387 -0.2665  1.1429  2.0908
 1783SOL     OW 6894   5.171   0.390   1.548  0.2773  0.0645  0.4998
 1783SOL    HW1 6895   5.192   0.445   1.473 -0.3772 -1.3775 -0.8042
 1783SOL    HW2 6896   5.080   0.363   1.534  0.3859 -0.8658  1.4021
 1784SOL     OW 6897   3.733   3.077   4.009  0.2170  0.1241  0.5211
 1784SOL    HW1 6898   3.824   3.049   4.009  0.0418 -0.5568 -0.8540
 1784SOL    HW2 6899   3.736   3.169   4.037  1.2895  0.0342  0.7385
 1785SOL     OW 6900   2.737   5.415   1.650  0.3354 -0.7477  0.0243
 1785SOL    HW1 6901   2.800   5.442   1.717 -0.5492  2.2098 -0.1604
 1785SOL    HW2 6902   2.664   5.377   1.699  0.0859  0.5807  0.7482
 1786SOL     OW 6903   4.867   1.700   2.303 -0.2311 -0.0528  0.8698
 1786SOL    HW1 6904   4.934   1.632   2.297  0.0257  0.2569  0.0698
 1786SOL    HW2 6905   4.786   1.652   2.317 -0.3258 -0.7014 -1.3970
 1787SOL     OW 6906   4.078   0.794   2.780  0.3640 -0.4182  0.1429
 1787SOL    HW1 6907   4.167   0.760   2.785 -0.0977 -1.9527 -1.1919
 1787SOL    HW2 6908   4.025   0.728   2.825 -0.2621 -0.2173 -0.2932
 1788SOL     OW 6909   2.991   1.653   1.990  0.6100 -0.0450 -0.6203
 1788SOL    HW1 6910   3.054   1.589   2.023  0.5360 -0.2497 -0.8740
 1788SOL    HW2 6911   2.969   1.707   2.067  0.5339 -0.4380 -0.3643
 1789SOL     OW 6912   1.072   3.390   0.212 -0.0598  0.1508  0.0230
 1789SOL    HW1 6913   1.113   3.317   0.259 -1.5577 -0.2911  0.7098
 1789SOL    HW2 6914   1.080   3.367   0.120  0.1066 -0.5344  0.2019
 1790SOL     OW 6915   2.973   2.608   4.201 -0.3729  0.1616  0.3935
 1790SOL    HW1 6916   3.028   2.645   4.132  1.0394 -2.6910 -0.1578
 1790SOL    HW2 6917   3.035   2.580   4.268 -1.1204 -2.5436  0.0591
 1791SOL     OW 6918   2.561   5.725   6.323  0.2707  0.8541  0.5702
 1791SOL    HW1 6919   2.562   5.806   6.374 -1.0767  1.4893 -0.3364
 1791SOL    HW2 6920   2.468   5.703   6.316  0.6278 -2.2692  3.0328
 1792SOL     OW 6921   0.839   2.046   0.800  0.1012  0.0445  0.2150
 1792SOL    HW1 6922   0.900   2.053   0.727 -0.4910 -0.6871 -0.3709
 1792SOL    HW2 6923   0.837   2.133   0.839  0.7749  0.3191 -0.3569
 1793SOL     OW 6924   5.632   6.287   1.629 -0.0975 -0.2805  0.0390
 1793SOL    HW1 6925   5.665   6.340   1.557  0.7412  0.3890  0.8827
 1793SOL    HW2 6926   5.685   6.207   1.626  1.0302  0.4050  0.8310
 1794SOL     OW 6927   2.284   1.317   2.282 -0.0359 -0.2167  0.0295
 1794SOL    HW1 6928   2.227   1.263   2.336 -1.3318 -0.2351 -1.2870
 1794SOL    HW2 6929   2.368   1.319   2.329 -0.8950 -0.7746  1.6552
 1795SOL     OW 6930   4.114   0.409   3.694 -0.0672 -0.5724 -0.0877
 1795SOL    HW1 6931   4.124   0.396   3.788  1.0498  0.9205  0.0425
 1795SOL    HW2 6932   4.050   0.480   3.687  0.6330  0.0362 -0.4061
 1796SOL     OW 6933   4.051   5.841   3.087 -0.1666 -0.4520 -0.9648
 1796SOL    HW1 6934   4.113   5.772   3.061  0.6342 -1.3446  2.6873
 1796SOL    HW2 6935   4.100   5.894   3.149 -1.6343  1.8832 -1.6868
 1797SOL     OW 6936   2.431   0.996   3.276  0.1239 -0.4611 -0.4125
 1797SOL    HW1 6937   2.499   0.929   3.272 -0.5944 -1.2625  0.4156
 1797SOL    HW2 6938   2.471   1.066   3.328 -0.3090 -1.7334  1.7446
 1798SOL     OW 6939   4.756   0.112   2.834 -0.6556  0.3977 -0.3133
 1798SOL    HW1 6940   4.672   0.066   2.830  0.7288 -2.6480  1.8751
 1798SOL    HW2 6941   4.747   0.171   2.908 -0.7472 -0.2648  0.2125
 1799SOL     OW 6942   4.694   4.707   1.856  0.0067  0.0634 -0.4615
 1799SOL    HW1 6943   4.623   4.769   1.837  0.0178 -0.1381 -1.1997
 1799SOL    HW2 6944   4.767   4.739   1.804  0.5057  0.3409  0.3932
 1800SOL     OW 6945   5.832   3.299   4.954  0.5441  0.0383 -0.2306
 1800SOL    HW1 6946   5.749   3.339   4.928 -0.2229 -1.0388  0.4933
 1800SOL    HW2 6947   5.858   3.247   4.878  0.0358 -0.4282 -0.0872
 1801SOL     OW 6948   3.801   6.627   6.015  0.0743 -0.3064  0.3655
 1801SOL    HW1 6949   3.846   6.577   5.947 -1.9083 -1.2512 -0.3525
 1801SOL    HW2 6950   3.757   6.697   5.968  1.1929  0.9327  1.1183
 1802SOL     OW 6951   5.775   5.545   1.847  0.6073 -0.9254  0.1383
 1802SOL    HW1 6952   5.864   5.523   1.875  0.1895 -0.6734  1.7256
 1802SOL    HW2 6953   5.734   5.461   1.830  0.8933 -1.0805  0.2038
 1803SOL     OW 6954   4.881   4.203   5.734 -0.3196 -0.1106  0.4605
 1803SOL    HW1 6955   4.924   4.172   5.654 -1.4418 -2.1034  0.5802
 1803SOL    HW2 6956   4.789   4.177   5.723 -0.5686 -0.0616  2.2224
 1804SOL     OW 6957   3.817   3.884   5.676  0.0299 -0.1440  0.0360
 1804SOL    HW1 6958   3.908   3.865   5.653 -0.1609 -0.7300 -0.2679
 1804SOL    HW2 6959   3.767   3.852   5.601 -0.4605 -0.2830  0.4172
 1805SOL     OW 6960   3.446   4.637   5.636 -0.4007 -0.4982  0.4875
 1805SOL    HW1 6961   3.468   4.557   5.587  0.6338 -0.9556  1.6635
 1805SOL    HW2 6962   3.529   4.682   5.648 -0.8874  0.4492  0.4070
 1806SOL     OW 6963   3.290   6.195   6.236  0.0216 -0.6005 -0.0827
 1806SOL    HW1 6964   3.278   6.260   6.305 -1.7897  0.8276 -1.6210
 1806SOL    HW2 6965   3.369   6.223   6.190  1.8156 -2.1149  1.8691
 1807SOL     OW 6966   4.906   2.820   0.816 -0.3792 -0.2572  0.4687
 1807SOL    HW1 6967   4.954   2.784   0.890 -0.6852  0.0874  0.8419
 1807SOL    HW2 6968   4.817   2.835   0.850 -0.7850 -0.9767 -0.2297
 1808SOL     OW 6969   2.097   6.237   0.078  0.0421 -0.4046 -0.1638
 1808SOL    HW1 6970   2.193   6.242   0.078  0.0455 -0.3561 -0.7173
 1808SOL    HW2 6971   2.075   6.211  -0.012 -0.3900 -2.1827  0.4130
 1809SOL     OW 6972   2.483   3.576   2.928 -0.1343 -0.1309  0.3520
 1809SOL    HW1 6973   2.430   3.644   2.971 -1.1311 -0.0879 -0.8820
 1809SOL    HW2 6974   2.421   3.506   2.909  0.2927 -0.1658 -0.9565
 1810SOL     OW 6975   0.998   3.648   2.096  0.3240  0.1827  0.5006
 1810SOL    HW1 6976   0.930   3.582   2.091 -0.8102  1.1822  2.0556
 1810SOL    HW2 6977   1.027   3.659   2.005 -0.9397 -0.9053 -0.0652
 1811SOL     OW 6978   1.159   3.390   5.198 -0.4598  1.1694 -0.2231
 1811SOL    HW1 6979   1.106   3.465   5.171 -2.9044  0.4010  2.0191
 1811SOL    HW2 6980   1.150   3.388   5.294  1.6690 -0.5107  0.0199
 1812SOL     OW 6981   1.792   2.080   0.475  0.2321 -0.5161  0.3639
 1812SOL    HW1 6982   1.866   2.027   0.448  0.1545 -0.6023  0.3191
 1812SOL    HW2 6983   1.733   2.078   0.400  0.3226 -0.1951  0.2830
 1813SOL     OW 6984   4.327   2.921   0.856 -0.4970 -0.4241 -0.1838
 1813SOL    HW1 6985   4.248   2.921   0.802  0.1272  0.4384 -1.1436
 1813SOL    HW2 6986   4.301   2.965   0.937 -0.5396  1.6254 -1.2627
 1814SOL     OW 6987   4.612   5.394   5.069 -0.0804  0.2556  0.3066
 1814SOL    HW1 6988   4.553   5.332   5.111 -0.5769  0.0474 -0.6504
 1814SOL    HW2 6989   4.554   5.464   5.039  0.3188  0.6048  0.3457
 1815SOL     OW 6990   3.237   5.712   0.052  0.1054  0.4723  0.1637
 1815SOL    HW1 6991   3.281   5.768   0.116  0.1156 -0.8259  1.3527
 1815SOL    HW2 6992   3.307   5.679  -0.005  0.4539 -0.1516  0.9229
 1816SOL     OW 6993   4.365   0.681   6.504 -0.6426 -0.2539  0.0604
 1816SOL    HW1 6994   4.450   0.710   6.538  0.7834 -2.6034 -1.2562
 1816SOL    HW2 6995   4.327   0.631   6.577  0.9563 -2.5402 -0.5627
 1817SOL     OW 6996   5.141   4.486   5.704  0.0847  0.1194 -0.3212
 1817SOL    HW1 6997   5.209   4.464   5.640 -0.1320 -0.5524 -0.3302
 1817SOL    HW2 6998   5.060   4.492   5.652 -0.2396 -1.2332 -0.0238
 1818SOL     OW 6999   5.126   0.974   5.331 -0.3182  0.5370 -0.1394
 1818SOL    HW1 7000   5.144   1.005   5.420 -1.3135 -0.6318  0.5050
 1818SOL    HW2 7001   5.194   1.014   5.277  1.2865 -0.0197  1.4003
 1819SOL     OW 7002   3.013   4.559   4.951 -0.2633 -0.2162  0.1993
 1819SOL    HW1 7003   3.036   4.593   5.038 -1.6303 -0.9736  0.9105
 1819SOL    HW2 7004   3.096   4.534   4.912  0.6531  2.5416  0.2041
 1820SOL     OW 7005   1.596   3.882   4.663 -0.5718 -0.2392 -0.0252
 1820SOL    HW1 7006   1.577   3.841   4.578  1.4077 -1.7700  0.1786
 1820SOL    HW2 7007   1.513   3.877   4.711 -1.4653 -0.2604 -1.4965
 1821SOL     OW 7008   4.375   2.870   2.012  0.4186 -0.5408 -0.0363
 1821SOL    HW1 7009   4.416   2.872   1.925 -1.1803 -1.0848 -0.8532
 1821SOL    HW2 7010   4.353   2.778   2.026 -2.0677 -0.0790 -0.4604
 1822SOL     OW 7011   3.422   6.136   2.766 -0.2251  0.6702  0.0415
 1822SOL    HW1 7012   3.376   6.075   2.708 -0.2578  0.1512  0.5970
 1822SOL    HW2 7013   3.397   6.109   2.854  0.8019  0.6383  0.3451
 1823SOL     OW 7014   5.434   0.246   5.712 -0.1370 -0.2096  0.1296
 1823SOL    HW1 7015   5.521   0.272   5.739  0.2794  0.1790 -1.4495
 1823SOL    HW2 7016   5.438   0.151   5.702 -0.5096 -0.4545  2.0341
 1824SOL     OW 7017   6.215   0.523   1.106  0.0684 -0.3533  0.3439
 1824SOL    HW1 7018   6.308   0.525   1.084  0.1918 -1.4716  0.6900
 1824SOL    HW2 7019   6.171   0.498   1.024 -0.2178  2.5382 -0.5030
 1825SOL     OW 7020   4.935   6.530   6.748 -0.1364 -0.1780 -0.3858
 1825SOL    HW1 7021   4.976   6.572   6.672 -1.5254 -0.2940 -1.2516
 1825SOL    HW2 7022   4.894   6.603   6.796 -1.5032 -0.3430 -1.2250
 1826SOL     OW 7023   2.398   3.061   5.620  0.6277  0.1871  0.6280
 1826SOL    HW1 7024   2.491   3.063   5.641  0.7392 -2.1462  0.6855
 1826SOL    HW2 7025   2.393   3.012   5.538 -0.4983  1.0274  0.1684
 1827SOL     OW 7026   5.286   4.985   2.900  0.2014  0.3289 -0.6023
 1827SOL    HW1 7027   5.373   5.024   2.898  0.7252 -0.7544  0.3875
 1827SOL    HW2 7028   5.267   4.964   2.808  0.7164  1.1100 -0.8971
 1828SOL     OW 7029   5.510   5.127   3.315 -0.4963 -0.1445  0.2929
 1828SOL    HW1 7030   5.535   5.052   3.261  0.1215  0.5529 -0.4156
 1828SOL    HW2 7031   5.472   5.089   3.394 -1.2959 -1.1941 -0.5730
 1829SOL     OW 7032   5.303   4.852   2.463 -0.0644 -0.0588  0.2158
 1829SOL    HW1 7033   5.208   4.859   2.454  0.1710  1.5711 -1.9341
 1829SOL    HW2 7034   5.330   4.931   2.510  0.3379  0.3658 -0.6891
 1830SOL     OW 7035   4.309   2.980   3.481 -0.0005  0.3312  0.1281
 1830SOL    HW1 7036   4.264   3.014   3.403 -1.8127  2.2039  1.8667
 1830SOL    HW2 7037   4.256   3.011   3.554  0.7537 -2.6465  2.1100
 1831SOL     OW 7038   5.307   0.196   2.448 -0.1566  0.0688 -0.3288
 1831SOL    HW1 7039   5.363   0.266   2.416  0.2063 -0.7574 -1.5840
 1831SOL    HW2 7040   5.232   0.196   2.388  0.1749 -1.0260 -0.7839
 1832SOL     OW 7041   3.054   5.903   0.743  0.1984  0.7937  0.6271
 1832SOL    HW1 7042   3.054   5.947   0.827 -1.1619  3.1611 -0.5121
 1832SOL    HW2 7043   3.098   5.963   0.683 -0.0643 -0.2207 -0.6403
 1833SOL     OW 7044   0.479   5.417   0.992 -0.6230  0.1588  0.5629
 1833SOL    HW1 7045   0.412   5.397   0.927  0.7197 -0.0400 -0.8447
 1833SOL    HW2 7046   0.438   5.479   1.052 -2.0576  0.0030 -0.2137
 1834SOL     OW 7047   6.643   3.078   1.021  0.4177 -0.4695  0.4631
 1834SOL    HW1 7048   6.706   3.051   1.088  0.0792 -0.6051  0.7312
 1834SOL    HW2 7049   6.674   3.164   0.992  0.8805 -0.6532  0.3924
 1835SOL     OW 7050   5.065   6.759   3.811 -0.1985 -0.3673 -0.7785
 1835SOL    HW1 7051   5.043   6.689   3.751 -0.2358 -0.4903 -0.6222
 1835SOL    HW2 7052   5.001   6.828   3.793 -1.3135 -1.0836  0.3084
 1836SOL     OW 7053   0.804   3.344   2.328 -0.2829  0.6130 -0.1121
 1836SOL    HW1 7054   0.821   3.386   2.412  0.4035  0.2256 -0.0506
 1836SOL    HW2 7055   0.803   3.416   2.265  0.0564  0.8137  0.1091
 1837SOL     OW 7056   1.699   0.705   5.888 -0.3374 -0.6029  0.2183
 1837SOL    HW1 7057   1.782   0.722   5.932  1.0403 -0.7361 -2.1566
 1837SOL    HW2 7058   1.641   0.775   5.919  1.1574  0.4827  0.6883
 1838SOL     OW 7059   2.828   4.321   3.690 -0.1302 -0.2751 -0.5186
 1838SOL    HW1 7060   2.809   4.412   3.710  1.8030  0.1167 -0.2220
 1838SOL    HW2 7061   2.743   4.277   3.693 -0.9822  1.3396  0.2230
 1839SOL     OW 7062   4.174   2.241   0.662 -0.3814 -0.5234  0.2523
 1839SOL    HW1 7063   4.240   2.266   0.598  0.0895 -0.3809  0.7788
 1839SOL    HW2 7064   4.103   2.203   0.611  0.0257 -0.4939 -0.3405
 1840SOL     OW 7065   3.900   4.640   1.535 -0.2742 -0.7953  0.4180
 1840SOL    HW1 7066   3.939   4.583   1.602  0.3297 -1.2671 -0.3175
 1840SOL    HW2 7067   3.950   4.722   1.542 -1.4742 -0.1368  1.8174
 1841SOL     OW 7068   3.658   3.655   6.536  0.1009  0.3584 -0.7559
 1841SOL    HW1 7069   3.740   3.697   6.509 -0.5196  1.1519 -1.4278
 1841SOL    HW2 7070   3.594   3.682   6.471 -0.8084  0.1153  0.0140
 1842SOL     OW 7071   4.371   1.611   6.305  0.4146  0.3386 -0.2833
 1842SOL    HW1 7072   4.333   1.667   6.237  1.2280 -0.4855 -1.4495
 1842SOL    HW2 7073   4.426   1.669   6.357 -1.3656  1.2856  0.6334
 1843SOL     OW 7074   1.318   0.275   2.244  0.0162  0.6060 -0.0843
 1843SOL    HW1 7075   1.248   0.213   2.264  0.7428  0.3011  1.6849
 1843SOL    HW2 7076   1.279   0.361   2.260  0.2115  0.4122  1.6256
 1844SOL     OW 7077   5.791   5.629   0.148  0.0054  0.1394 -0.1978
 1844SOL    HW1 7078   5.881   5.656   0.169 -0.9781  3.3982  0.2351
 1844SOL    HW2 7079   5.752   5.607   0.232  0.1267 -0.5349 -0.3069
 1845SOL     OW 7080   3.414   2.207   1.711 -0.1424  0.1522  0.0338
 1845SOL    HW1 7081   3.400   2.122   1.753  2.1270  0.8555  2.4986
 1845SOL    HW2 7082   3.509   2.219   1.713 -0.1876  1.7041 -2.5672
 1846SOL     OW 7083   2.265   6.527   2.890  0.3047  0.8082  0.5014
 1846SOL    HW1 7084   2.235   6.570   2.810  0.1918 -0.8557 -0.4023
 1846SOL    HW2 7085   2.184   6.498   2.933  0.3794  1.4296  1.0666
 1847SOL     OW 7086   5.837   1.554   6.295 -0.0642  0.2510 -0.3597
 1847SOL    HW1 7087   5.806   1.569   6.384  1.5566 -1.6843  0.6156
 1847SOL    HW2 7088   5.758   1.543   6.243 -1.0683 -1.4456  1.4160
 1848SOL     OW 7089   0.804   3.861   4.768 -0.5157 -0.1537 -0.5700
 1848SOL    HW1 7090   0.714   3.890   4.755 -1.0274 -0.5214  1.7087
 1848SOL    HW2 7091   0.857   3.927   4.724 -1.7988  1.8561  0.7274
 1849SOL     OW 7092   4.900   2.433   1.583  0.2595 -0.4653  0.1602
 1849SOL    HW1 7093   4.847   2.379   1.525 -2.4504  2.3752 -0.2668
 1849SOL    HW2 7094   4.990   2.419   1.554 -0.4002 -3.6279 -0.7252
 1850SOL     OW 7095   5.804   1.557   6.600 -0.0326  0.9132 -0.6539
 1850SOL    HW1 7096   5.818   1.624   6.666 -2.1358  1.4943 -0.7031
 1850SOL    HW2 7097   5.845   1.479   6.636  0.7562  1.7396  0.3150
 1851SOL     OW 7098   4.149   2.375   0.245 -0.2512  0.5161  0.2221
 1851SOL    HW1 7099   4.138   2.465   0.276 -1.7034  0.4862 -0.1657
 1851SOL    HW2 7100   4.155   2.383   0.150 -0.2292  0.2098  0.1988
 1852SOL     OW 7101   3.641   3.205   2.402  0.3859 -0.1852  0.4159
 1852SOL    HW1 7102   3.688   3.276   2.358  1.5495 -0.0092  1.8662
 1852SOL    HW2 7103   3.707   3.164   2.459 -0.9492 -0.6252  1.7067
 1853SOL     OW 7104   5.139   4.776   1.095  0.7998 -0.3107 -0.3471
 1853SOL    HW1 7105   5.116   4.686   1.119  1.0108 -0.3586 -0.3248
 1853SOL    HW2 7106   5.171   4.770   1.005 -0.6514 -0.0282 -0.9075
 1854SOL     OW 7107   1.737   1.990   0.803  0.5787  0.2334 -0.6711
 1854SOL    HW1 7108   1.776   1.961   0.886  1.4240  1.2609 -0.6865
 1854SOL    HW2 7109   1.790   2.066   0.777  0.2243  0.0284 -2.0737
 1855SOL     OW 7110   1.293   0.990   3.135 -0.1927 -0.3298  0.2947
 1855SOL    HW1 7111   1.311   1.083   3.130 -1.4402 -0.1282 -1.2148
 1855SOL    HW2 7112   1.206   0.980   3.096  0.8074 -2.3666 -1.6078
 1856SOL     OW 7113   2.662   5.528   1.922 -0.1209  0.3726 -0.0678
 1856SOL    HW1 7114   2.753   5.513   1.948  0.0874  1.1718 -0.3039
 1856SOL    HW2 7115   2.651   5.623   1.930 -1.2146  0.1882  0.8497
 1857SOL     OW 7116   4.284   6.053   1.691  0.0489  0.2492  0.6329
 1857SOL    HW1 7117   4.212   6.113   1.670  0.5531  1.3648  1.9656
 1857SOL    HW2 7118   4.319   6.027   1.605 -0.2001  1.8519  0.0187
 1858SOL     OW 7119   6.359   4.298   0.435  0.2378  0.1665 -0.0572
 1858SOL    HW1 7120   6.275   4.286   0.479  0.3917  0.7391  0.4160
 1858SOL    HW2 7121   6.414   4.341   0.501  1.4382 -1.6871  0.2358
 1859SOL     OW 7122   4.832   4.195   0.986 -0.6808  0.2359 -0.3689
 1859SOL    HW1 7123   4.898   4.126   0.993 -1.0193 -0.1489 -0.9298
 1859SOL    HW2 7124   4.840   4.227   0.896  1.0533  2.5399  0.4884
 1860SOL     OW 7125   2.333   2.522   5.266 -0.1844 -0.4267 -0.2816
 1860SOL    HW1 7126   2.241   2.531   5.288  0.2519  1.3152  1.0474
 1860SOL    HW2 7127   2.366   2.457   5.328 -0.2769 -0.1617  0.0489
 1861SOL     OW 7128   1.462   6.454   5.471 -0.7682 -0.5286 -0.0579
 1861SOL    HW1 7129   1.534   6.502   5.512 -0.3964 -1.7109  0.7162
 1861SOL    HW2 7130   1.384   6.487   5.517 -0.7523  0.7413 -0.8862
 1862SOL     OW 7131   0.118   2.932   3.383 -0.3386 -0.1205  0.5101
 1862SOL    HW1 7132   0.064   2.856   3.362  0.4007 -0.8760  1.2669
 1862SOL    HW2 7133   0.055   3.003   3.398 -1.0422 -0.6082 -0.0638
 1863SOL     OW 7134   6.537   4.758   6.485  0.6241  0.0072 -0.0998
 1863SOL    HW1 7135   6.444   4.739   6.475  0.4787  0.4761  0.3227
 1863SOL    HW2 7136   6.562   4.713   6.565  0.4339  1.0025  0.5397
 1864SOL     OW 7137   2.298   2.201   3.323  0.5510  0.0649 -0.3534
 1864SOL    HW1 7138   2.375   2.246   3.289  1.2365 -0.2700  0.6958
 1864SOL    HW2 7139   2.266   2.148   3.251  2.1252 -0.8527 -0.4176
 1865SOL     OW 7140   4.153   0.491   6.577  0.0306 -0.4209  0.7612
 1865SOL    HW1 7141   4.145   0.549   6.501  0.9946 -1.7531 -0.4215
 1865SOL    HW2 7142   4.074   0.508   6.628 -1.9950 -1.2705 -1.8262
 1866SOL     OW 7143   3.669   1.333   4.222 -0.2455  0.8843  0.0354
 1866SOL    HW1 7144   3.757   1.308   4.252 -1.0922 -1.6081  0.6943
 1866SOL    HW2 7145   3.683   1.371   4.136  1.4581  0.1444 -0.0507
 1867SOL     OW 7146   2.390   3.815   4.274 -0.1230 -0.2944 -0.3357
 1867SOL    HW1 7147   2.296   3.822   4.287  0.0547 -1.9311  2.4788
 1867SOL    HW2 7148   2.405   3.723   4.251  0.7750  0.0003 -1.0007
 1868SOL     OW 7149   6.487   3.226   1.268  0.5361  0.1286 -0.2724
 1868SOL    HW1 7150   6.578   3.215   1.294  0.0739 -0.4896  1.2026
 1868SOL    HW2 7151   6.486   3.208   1.174  2.1463  1.5185 -0.5931
 1869SOL     OW 7152   5.689   6.492   2.636 -0.1429  0.7591  0.1231
 1869SOL    HW1 7153   5.673   6.446   2.553  1.4131 -0.5818  0.5194
 1869SOL    HW2 7154   5.784   6.503   2.640 -0.1886  0.8058  1.7153
 1870SOL     OW 7155   6.351   2.140   0.362  0.0788  0.1598 -0.1472
 1870SOL    HW1 7156   6.441   2.160   0.386  0.2952 -1.0653  0.1345
 1870SOL    HW2 7157   6.300   2.215   0.393  0.7652  0.0627  1.2624
 1871SOL     OW 7158   3.623   5.054   5.446  0.2397  0.1396  0.4965
 1871SOL    HW1 7159   3.653   5.127   5.391  1.0858 -1.1047 -0.7539
 1871SOL    HW2 7160   3.531   5.044   5.424  0.5519 -0.2962 -0.6627
 1872SOL     OW 7161   4.633   2.123   3.999  0.4506  0.2614 -0.2880
 1872SOL    HW1 7162   4.567   2.116   4.068 -1.7730 -0.2710 -2.3100
 1872SOL    HW2 7163   4.715   2.100   4.042 -1.1812 -2.7559  1.6202
 1873SOL     OW 7164   0.393   2.869   0.205  0.0864  0.3207  0.2826
 1873SOL    HW1 7165   0.301   2.858   0.183 -0.1344 -0.2935  1.4108
 1873SOL    HW2 7166   0.393   2.932   0.277  0.5558  0.4100  0.2071
 1874SOL     OW 7167   1.954   3.245   0.130  0.1548  0.6108  0.1646
 1874SOL    HW1 7168   1.974   3.338   0.119 -0.2117  0.9214  1.8549
 1874SOL    HW2 7169   2.014   3.215   0.199 -0.9661  0.0634  0.9366
 1875SOL     OW 7170   3.628   3.436   3.378  0.1607  0.0309 -0.5986
 1875SOL    HW1 7171   3.613   3.342   3.392 -0.9796  0.3718  0.7863
 1875SOL    HW2 7172   3.703   3.441   3.319  2.0890 -1.7366  1.5271
 1876SOL     OW 7173   2.003   3.300   2.125  0.4007 -1.0221  0.5109
 1876SOL    HW1 7174   1.921   3.274   2.081  0.2897  0.0899  0.0335
 1876SOL    HW2 7175   1.975   3.328   2.212 -0.0102  0.9792 -0.1972
 1877SOL     OW 7176   2.083   5.243   5.104  0.5245  0.5958  0.0990
 1877SOL    HW1 7177   2.130   5.259   5.023  1.4071 -0.3982  0.3970
 1877SOL    HW2 7178   2.147   5.263   5.173  0.8657 -1.6447  0.5005
 1878SOL     OW 7179   2.497   4.562   0.104  0.0638  0.2478 -0.0851
 1878SOL    HW1 7180   2.567   4.497   0.114 -1.1119 -1.1025 -0.2477
 1878SOL    HW2 7181   2.525   4.637   0.156  1.7557 -0.1346 -0.4010
 1879SOL     OW 7182   2.869   4.891   2.123 -0.1165 -0.5223  0.6246
 1879SOL    HW1 7183   2.779   4.907   2.150  0.0230 -1.5691  1.8213
 1879SOL    HW2 7184   2.922   4.943   2.183  0.1102 -0.8428  0.7087
 1880SOL     OW 7185   4.480   1.444   2.411  0.1019 -0.6826 -0.2807
 1880SOL    HW1 7186   4.418   1.393   2.462  0.6147  0.3196  1.4459
 1880SOL    HW2 7187   4.427   1.513   2.371 -0.5393 -2.2957 -2.3750
 1881SOL     OW 7188   3.693   2.586   2.457  0.1077  0.3202  0.0393
 1881SOL    HW1 7189   3.599   2.569   2.463  0.0138  0.8548  0.1621
 1881SOL    HW2 7190   3.726   2.521   2.395 -0.1155 -0.7191  0.9742
 1882SOL     OW 7191   4.790   3.440   0.064 -0.2025  0.2073  0.8467
 1882SOL    HW1 7192   4.813   3.525   0.025 -0.6256 -0.2367 -0.4194
 1882SOL    HW2 7193   4.844   3.434   0.142  0.7014  1.1294  0.3139
 1883SOL     OW 7194   0.870   1.942   0.068 -0.4922  0.0269  0.3748
 1883SOL    HW1 7195   0.824   2.024   0.087  0.3950  0.6913 -0.2240
 1883SOL    HW2 7196   0.924   1.926   0.146  0.0138  0.5183  0.1386
 1884SOL     OW 7197   0.188   1.476   5.153 -0.2102 -0.0064  0.4905
 1884SOL    HW1 7198   0.097   1.500   5.135  0.3101 -0.0676 -2.7329
 1884SOL    HW2 7199   0.186   1.382   5.170 -0.8507  0.2029  1.6992
 1885SOL     OW 7200   3.811   4.785   6.782  0.2079  0.2806  0.3431
 1885SOL    HW1 7201   3.737   4.738   6.742 -0.3757  0.4805  1.1530
 1885SOL    HW2 7202   3.884   4.770   6.722  0.0452 -1.6729  0.5837
 1886SOL     OW 7203   5.585   1.164   2.537  0.2331 -0.0373 -0.3931
 1886SOL    HW1 7204   5.611   1.102   2.605  2.2438 -0.3376 -1.3495
 1886SOL    HW2 7205   5.604   1.119   2.455 -1.2718  0.6704 -1.1726
 1887SOL     OW 7206   4.365   6.335   0.835  0.0200  0.0512 -0.1689
 1887SOL    HW1 7207   4.384   6.289   0.916 -0.0501  2.7753  1.5075
 1887SOL    HW2 7208   4.280   6.376   0.850  0.1279  0.8216 -1.5258
 1888SOL     OW 7209   2.197   0.853   6.671 -0.5023 -0.1869  0.4383
 1888SOL    HW1 7210   2.239   0.935   6.643 -0.1749 -0.6899 -0.5724
 1888SOL    HW2 7211   2.260   0.785   6.650  0.2494 -0.5635  3.3918
 1889SOL     OW 7212   5.157   6.633   4.041 -0.2966 -0.5665 -0.4522
 1889SOL    HW1 7213   5.134   6.672   3.957  2.3576 -0.6834 -1.3381
 1889SOL    HW2 7214   5.190   6.546   4.019 -1.2864 -1.3430  0.9398
 1890SOL     OW 7215   3.375   2.963   5.137  0.0776 -0.6514  0.3065
 1890SOL    HW1 7216   3.411   2.919   5.060  3.0273 -1.4645  1.9979
 1890SOL    HW2 7217   3.287   2.926   5.146 -0.1039 -1.0569 -2.1862
 1891SOL     OW 7218   4.919   1.120   4.200  0.5899 -0.2393  0.5958
 1891SOL    HW1 7219   4.966   1.165   4.270 -0.2899  0.9676  0.4353
 1891SOL    HW2 7220   4.946   1.164   4.119 -1.0372  0.7414  0.5293
 1892SOL     OW 7221   2.469   0.518   0.983  0.5387 -0.2009 -0.0002
 1892SOL    HW1 7222   2.384   0.496   0.945 -0.2238  1.4384  0.6295
 1892SOL    HW2 7223   2.524   0.443   0.964 -1.3715 -1.8441  0.6128
 1893SOL     OW 7224   2.786   6.565   6.407  0.2059 -0.5035 -0.5519
 1893SOL    HW1 7225   2.820   6.645   6.447 -0.0829 -0.3853 -0.5441
 1893SOL    HW2 7226   2.852   6.499   6.428  0.3660 -0.3047 -0.4187
 1894SOL     OW 7227   2.625   1.218   6.603  0.0181 -0.0677 -0.0286
 1894SOL    HW1 7228   2.564   1.280   6.643  0.2851 -0.2143  0.6153
 1894SOL    HW2 7229   2.630   1.145   6.666  0.2751 -0.4027 -0.4292
 1895SOL     OW 7230   0.083   1.488   6.310 -0.2069 -0.5546 -0.6805
 1895SOL    HW1 7231   0.046   1.400   6.306 -0.4222 -0.4705 -0.5692
 1895SOL    HW2 7232   0.013   1.542   6.348  0.5158 -0.6533  0.8709
 1896SOL     OW 7233   4.331   3.345   1.510  0.0311  0.4892  0.2797
 1896SOL    HW1 7234   4.421   3.324   1.488 -0.1792  0.1113 -0.2404
 1896SOL    HW2 7235   4.321   3.437   1.485  0.6041  0.8807  1.4352
 1897SOL     OW 7236   6.158   5.236   4.355  0.0692 -0.7317  0.4716
 1897SOL    HW1 7237   6.231   5.185   4.320  0.0685 -0.8822  0.6848
 1897SOL    HW2 7238   6.147   5.203   4.445 -0.5686 -1.0515  0.2852
 1898SOL     OW 7239   5.337   3.511   2.522  0.0050  0.1561 -0.1305
 1898SOL    HW1 7240   5.336   3.506   2.618 -2.2000 -1.8059 -0.1713
 1898SOL    HW2 7241   5.427   3.494   2.498  0.1417 -1.9386  1.5562
 1899SOL     OW 7242   3.836   1.763   3.187  0.2242 -0.1091 -0.3017
 1899SOL    HW1 7243   3.896   1.694   3.158 -1.3354 -1.4706 -0.4507
 1899SOL    HW2 7244   3.776   1.718   3.247 -0.8243  1.1337 -0.3772
 1900SOL     OW 7245   1.203   0.606   3.671  0.3758  0.5816  0.1760
 1900SOL    HW1 7246   1.187   0.523   3.625 -0.1380 -0.0509  1.4483
 1900SOL    HW2 7247   1.299   0.614   3.670  0.3565  1.4389 -2.3946
 1901SOL     OW 7248   1.434   2.748   6.209  0.2204  0.6018 -0.0651
 1901SOL    HW1 7249   1.472   2.703   6.285  0.9273  0.8135 -0.2920
 1901SOL    HW2 7250   1.439   2.684   6.138 -1.0791  0.1522  0.2232
 1902SOL     OW 7251   5.254   1.985   0.891  0.5357 -0.1014 -0.4590
 1902SOL    HW1 7252   5.291   2.061   0.847 -0.1401  1.3405  1.3399
 1902SOL    HW2 7253   5.329   1.943   0.934  0.7912 -0.0514 -0.8457
 1903SOL     OW 7254   1.061   0.783   3.171  0.4084  0.3113 -0.3328
 1903SOL    HW1 7255   1.121   0.709   3.158 -0.7700 -1.2065  1.9858
 1903SOL    HW2 7256   1.071   0.837   3.093  4.0115 -0.3748 -0.4913
 1904SOL     OW 7257   5.509   0.876   2.436  0.3040  0.0920  0.9351
 1904SOL    HW1 7258   5.470   0.792   2.412  0.4101  0.0383  0.9523
 1904SOL    HW2 7259   5.509   0.926   2.354 -0.3389  0.3071  1.0616
 1905SOL     OW 7260   4.636   5.677   0.476 -0.0748  0.4246 -0.0445
 1905SOL    HW1 7261   4.578   5.751   0.459  0.2345  1.2510  2.1790
 1905SOL    HW2 7262   4.586   5.621   0.536  0.6028  0.0063  0.1383
 1906SOL     OW 7263   5.729   4.576   1.708 -0.0271 -0.1925 -0.7965
 1906SOL    HW1 7264   5.689   4.662   1.699 -0.8308 -0.6416 -1.6962
 1906SOL    HW2 7265   5.702   4.529   1.629  3.6668  0.0438 -2.4064
 1907SOL     OW 7266   2.279   3.864   5.091 -0.0302 -0.2468 -0.1449
 1907SOL    HW1 7267   2.368   3.829   5.094 -0.1926 -0.5963  0.7156
 1907SOL    HW2 7268   2.242   3.845   5.177 -1.3567 -1.1608 -0.8734
 1908SOL     OW 7269   3.051   3.427   1.959  0.0311  0.1284 -0.1263
 1908SOL    HW1 7270   3.000   3.348   1.946  0.1591  0.0263 -0.0099
 1908SOL    HW2 7271   3.046   3.443   2.054 -1.9890  1.5864 -0.4027
 1909SOL     OW 7272   3.637   1.418   2.186 -0.4063  0.0450  0.0432
 1909SOL    HW1 7273   3.571   1.459   2.240 -2.0238 -2.7148  0.3587
 1909SOL    HW2 7274   3.720   1.454   2.217 -1.2716 -1.0243  4.1013
 1910SOL     OW 7275   5.213   0.796   4.043  0.0063 -0.0480 -0.4471
 1910SOL    HW1 7276   5.219   0.787   4.138 -0.8137 -0.9104 -0.4619
 1910SOL    HW2 7277   5.125   0.766   4.021  0.0714  0.4318 -1.4523
 1911SOL     OW 7278   6.739   1.042   3.586 -0.1348  0.4014  0.0151
 1911SOL    HW1 7279   6.773   1.021   3.499 -0.6121  0.4462 -0.1863
 1911SOL    HW2 7280   6.812   1.023   3.645 -0.1935 -0.7798 -0.2673
 1912SOL     OW 7281   0.483   4.630   1.405  0.2471  0.1700 -0.1790
 1912SOL    HW1 7282   0.450   4.642   1.494 -1.5608  0.9310 -0.9082
 1912SOL    HW2 7283   0.424   4.565   1.366  0.2264  0.7791 -1.2055
 1913SOL     OW 7284   6.671   3.760   6.115 -0.2191 -0.0808 -0.6116
 1913SOL    HW1 7285   6.682   3.671   6.148  0.1769  0.6457  1.4012
 1913SOL    HW2 7286   6.759   3.798   6.118 -0.6441  0.9045  0.2946
 1914SOL     OW 7287   1.296   0.415   5.620  0.0419 -1.0884  0.6919
 1914SOL    HW1 7288   1.387   0.436   5.642  0.2040  0.2296 -0.9922
 1914SOL    HW2 7289   1.249   0.422   5.703  1.2761 -0.6330  1.3845
 1915SOL     OW 7290   6.640   4.966   4.859 -0.3836 -0.2248 -0.1587
 1915SOL    HW1 7291   6.625   5.013   4.777 -0.3919  0.9194  0.4725
 1915SOL    HW2 7292   6.733   4.944   4.858 -0.5700 -1.0073 -0.8673
 1916SOL     OW 7293   2.666   0.905   5.957  0.2834 -0.5910 -0.2092
 1916SOL    HW1 7294   2.727   0.897   6.030 -2.7172 -1.8072  2.3946
 1916SOL    HW2 7295   2.610   0.979   5.980  0.0581 -0.1797 -1.9528
 1917SOL     OW 7296   5.502   6.567   3.874 -0.7625  0.0883  0.1673
 1917SOL    HW1 7297   5.525   6.650   3.831  1.6579  0.1460  1.3757
 1917SOL    HW2 7298   5.489   6.591   3.966  1.1903 -0.9612  0.7822
 1918SOL     OW 7299   1.036   5.450   2.745  0.4475 -0.8615  0.4496
 1918SOL    HW1 7300   0.993   5.535   2.744 -0.2786 -1.2166 -0.5961
 1918SOL    HW2 7301   1.130   5.470   2.747  0.2673 -0.0505  0.8284
 1919SOL     OW 7302   4.500   3.087   5.401  0.4168 -0.2961  0.1799
 1919SOL    HW1 7303   4.410   3.110   5.378  0.3525  0.0790  0.7743
 1919SOL    HW2 7304   4.491   3.009   5.456  0.0511  2.0446  3.7927
 1920SOL     OW 7305   3.358   1.431   2.018  0.3217 -0.4204  0.1658
 1920SOL    HW1 7306   3.264   1.412   2.015  0.4269 -1.6672  2.3645
 1920SOL    HW2 7307   3.399   1.346   2.036  1.6910  0.3923  1.1214
 1921SOL     OW 7308   4.547   1.944   1.334  0.0157  0.1039  0.0652
 1921SOL    HW1 7309   4.549   2.036   1.308  2.1201  0.6101  1.7663
 1921SOL    HW2 7310   4.454   1.924   1.344 -0.5438  1.6296 -1.6130
 1922SOL     OW 7311   0.389   2.937   1.139  0.0164 -0.3011 -0.2520
 1922SOL    HW1 7312   0.427   2.979   1.062 -0.3088  0.8432  0.1948
 1922SOL    HW2 7313   0.452   2.868   1.161  1.7897  1.4049  0.3470
 1923SOL     OW 7314   5.185   1.176   3.647  0.1934  0.1008  0.1691
 1923SOL    HW1 7315   5.244   1.132   3.586 -0.5293 -1.0849  0.2863
 1923SOL    HW2 7316   5.134   1.236   3.592  1.0945  0.7114 -0.0164
 1924SOL     OW 7317   5.082   3.969   3.090  0.2215 -0.6881  0.1996
 1924SOL    HW1 7318   5.161   3.949   3.040  1.3421 -0.9603  1.9968
 1924SOL    HW2 7319   5.085   3.909   3.164 -1.3009 -0.1868  0.7018
 1925SOL     OW 7320   5.691   1.905   6.085 -0.3346  0.1767 -0.3769
 1925SOL    HW1 7321   5.663   1.867   6.168 -1.7469 -0.6183 -1.1799
 1925SOL    HW2 7322   5.781   1.933   6.100 -0.2146 -0.9107  1.0984
 1926SOL     OW 7323   0.311   5.531   6.219 -0.1545  0.2460 -0.1188
 1926SOL    HW1 7324   0.333   5.528   6.126 -0.0835 -0.5229 -0.0894
 1926SOL    HW2 7325   0.221   5.500   6.223 -0.5835  1.4473 -0.0393
 1927SOL     OW 7326   1.753   5.634   5.453  0.1496  0.2019  0.0936
 1927SOL    HW1 7327   1.702   5.582   5.515  0.0731 -2.1602 -1.7964
 1927SOL    HW2 7328   1.694   5.644   5.377  1.7947 -1.0738 -1.4367
 1928SOL     OW 7329   5.737   1.147   3.797  0.2752 -0.4136 -0.3657
 1928SOL    HW1 7330   5.829   1.174   3.793 -0.0766  2.1944  3.2579
 1928SOL    HW2 7331   5.698   1.181   3.716  1.8910  1.5613 -0.3844
 1929SOL     OW 7332   1.022   1.572   3.235  0.2601 -0.1270  0.2215
 1929SOL    HW1 7333   0.961   1.626   3.185  0.2589  0.0944  0.4633
 1929SOL    HW2 7334   1.090   1.549   3.171 -0.3258 -0.7802 -0.1711
 1930SOL     OW 7335   4.361   2.320   4.943  0.4275  0.4792  0.5358
 1930SOL    HW1 7336   4.397   2.386   5.003  0.3673 -0.2576  1.4137
 1930SOL    HW2 7337   4.406   2.239   4.968  0.4091  0.1571 -0.4437
 1931SOL     OW 7338   6.791   6.372   2.488  0.0194  0.0475 -0.0602
 1931SOL    HW1 7339   6.711   6.416   2.519 -1.9255 -2.2166 -1.4968
 1931SOL    HW2 7340   6.823   6.325   2.565 -0.5039  0.3313  0.3393
 1932SOL     OW 7341   2.578   6.688   0.380 -0.4031 -0.0564  0.1746
 1932SOL    HW1 7342   2.655   6.700   0.434 -1.2994 -1.8723  2.0277
 1932SOL    HW2 7343   2.504   6.708   0.438 -1.3677 -0.6177 -0.8053
 1933SOL     OW 7344   1.856   3.189   5.726 -0.4762  0.3917  0.2250
 1933SOL    HW1 7345   1.798   3.154   5.793 -2.2483  0.9004 -0.9545
 1933SOL    HW2 7346   1.880   3.114   5.672 -0.9243  0.3366  0.0990
 1934SOL     OW 7347   0.746   5.037   1.574  0.7085  0.2752  0.0127
 1934SOL    HW1 7348   0.659   5.007   1.550 -0.1183  2.8257 -0.4744
 1934SOL    HW2 7349   0.744   5.046   1.669  0.8516 -0.7027  0.1261
 1935SOL     OW 7350   0.210   5.900   5.990 -0.1566  0.6563  0.1233
 1935SOL    HW1 7351   0.253   5.821   6.023 -0.0227  0.1237 -1.2799
 1935SOL    HW2 7352   0.133   5.868   5.943 -0.8670  1.4624  0.7059
 1936SOL     OW 7353   0.826   4.250   2.428 -0.7176  0.1438  0.7798
 1936SOL    HW1 7354   0.750   4.278   2.480 -0.6086  1.4413  0.2766
 1936SOL    HW2 7355   0.901   4.285   2.475 -0.6995  2.7731 -1.0487
 1937SOL     OW 7356   3.330   5.600   4.421  0.5090  0.1683  0.0864
 1937SOL    HW1 7357   3.258   5.541   4.400  1.1941 -0.3277 -0.9621
 1937SOL    HW2 7358   3.318   5.621   4.514 -0.4960 -0.5579  0.1355
 1938SOL     OW 7359   4.145   0.643   4.165  0.2110  0.3135  0.0533
 1938SOL    HW1 7360   4.082   0.691   4.111 -1.1919  1.6269  2.6617
 1938SOL    HW2 7361   4.231   0.675   4.137 -0.4944  1.2844 -1.0619
 1939SOL     OW 7362   6.532   1.781   5.354  0.2603  0.0125 -0.0514
 1939SOL    HW1 7363   6.515   1.688   5.368 -2.1076  0.3657 -0.1695
 1939SOL    HW2 7364   6.540   1.790   5.259 -1.0132  0.1051 -0.1713
 1940SOL     OW 7365   4.557   5.799   1.805  0.4541 -0.1602  0.1239
 1940SOL    HW1 7366   4.539   5.875   1.860  0.5720 -0.5424  0.6949
 1940SOL    HW2 7367   4.652   5.793   1.803  0.4359 -0.5883  0.4887
 1941SOL     OW 7368   6.632   2.939   1.606  0.1264  0.7542 -0.2306
 1941SOL    HW1 7369   6.616   2.848   1.630 -0.0739  0.8943  0.1624
 1941SOL    HW2 7370   6.546   2.973   1.580 -0.2652  1.5024  1.8585
 1942SOL     OW 7371   4.643   5.175   4.704 -0.4709  0.5217 -0.2986
 1942SOL    HW1 7372   4.685   5.210   4.625 -0.5075 -0.1704 -0.6333
 1942SOL    HW2 7373   4.602   5.094   4.675 -0.5558  0.3048  0.4152
 1943SOL     OW 7374   3.689   0.758   6.595  0.2703 -0.5904  0.6625
 1943SOL    HW1 7375   3.640   0.764   6.513 -2.2904  2.7843  2.1945
 1943SOL    HW2 7376   3.779   0.741   6.568 -0.7646 -1.5018 -2.6894
 1944SOL     OW 7377   3.053   6.590   1.064 -0.8431 -0.5458 -0.6704
 1944SOL    HW1 7378   2.974   6.571   1.116 -1.9240  2.8371 -0.8294
 1944SOL    HW2 7379   3.027   6.574   0.974 -0.8498 -0.8430 -0.6177
 1945SOL     OW 7380   6.349   1.343   6.559  0.2363  0.0998 -0.8344
 1945SOL    HW1 7381   6.266   1.392   6.561  0.5541  0.6641  1.2686
 1945SOL    HW2 7382   6.332   1.269   6.501 -2.3372 -0.7623  0.8367
 1946SOL     OW 7383   0.796   3.891   1.446  0.2216  0.1828  0.4464
 1946SOL    HW1 7384   0.806   3.979   1.481 -1.9855 -0.1299  2.0569
 1946SOL    HW2 7385   0.778   3.903   1.353  0.0770  1.4145  0.6255
 1947SOL     OW 7386   5.754   5.683   1.587 -0.6134 -0.4193  0.2445
 1947SOL    HW1 7387   5.831   5.648   1.543 -1.0522 -1.3348  0.1692
 1947SOL    HW2 7388   5.757   5.644   1.675  0.2964  1.4477  1.0823
 1948SOL     OW 7389   3.760   0.815   2.845 -0.0523 -0.0920  0.0847
 1948SOL    HW1 7390   3.725   0.782   2.927  2.7031 -0.0873  1.3800
 1948SOL    HW2 7391   3.809   0.894   2.870  0.7291 -0.0035 -1.5821
 1949SOL     OW 7392   2.244   5.101   1.760  0.3468  0.3954 -0.2830
 1949SOL    HW1 7393   2.198   5.174   1.719 -0.5460  0.4641  0.7926
 1949SOL    HW2 7394   2.186   5.073   1.831  1.1864 -0.6424  0.0179
 1950SOL     OW 7395   1.579   2.856   5.933  0.2363  0.0243  0.0919
 1950SOL    HW1 7396   1.492   2.816   5.927  0.2100  0.3110 -2.3919
 1950SOL    HW2 7397   1.640   2.783   5.927  0.1637 -0.0275 -0.0214
 1951SOL     OW 7398   6.256   6.266   3.578  0.6021 -0.6702  0.1061
 1951SOL    HW1 7399   6.185   6.222   3.531  1.3394 -1.2126 -0.5228
 1951SOL    HW2 7400   6.216   6.295   3.660 -0.0767 -1.9738  0.2590
 1952SOL     OW 7401   4.119   0.731   3.457 -0.2661 -0.0382 -0.1686
 1952SOL    HW1 7402   4.057   0.727   3.384 -2.2985  0.9924  1.4091
 1952SOL    HW2 7403   4.100   0.814   3.500  1.6252 -0.1203  0.9327
 1953SOL     OW 7404   0.794   4.718   5.089  0.3692  0.3138  0.6706
 1953SOL    HW1 7405   0.797   4.622   5.097  2.2992  0.1227 -1.3316
 1953SOL    HW2 7406   0.704   4.737   5.063  0.6075 -1.3310 -1.7461
 1954SOL     OW 7407   3.599   0.017   0.937  0.0266 -0.1605  0.1908
 1954SOL    HW1 7408   3.630   0.107   0.953  1.7110 -0.4000 -1.4232
 1954SOL    HW2 7409   3.615   0.002   0.844 -0.0384 -2.2058  0.4613
 1955SOL     OW 7410   0.129   1.681   2.002  0.7713 -0.0263 -0.6701
 1955SOL    HW1 7411   0.167   1.670   2.089 -0.1493  0.4303 -0.1942
 1955SOL    HW2 7412   0.200   1.659   1.941  1.0387 -1.7358  0.1942
 1956SOL     OW 7413   4.580   1.570   2.821 -0.0102  0.5158 -0.4825
 1956SOL    HW1 7414   4.569   1.543   2.912  0.3097  0.8421 -0.3425
 1956SOL    HW2 7415   4.641   1.644   2.826  2.0525 -1.0668 -1.2008
 1957SOL     OW 7416   3.579   2.950   0.635  0.1511  0.2368  0.4095
 1957SOL    HW1 7417   3.623   2.867   0.657  0.9037  0.3598 -0.5557
 1957SOL    HW2 7418   3.584   3.001   0.716  2.0393  0.3244  0.3044
 1958SOL     OW 7419   6.710   5.739   3.800 -0.8298  0.7273 -0.4607
 1958SOL    HW1 7420   6.708   5.831   3.827 -0.0875  0.4072  0.7249
 1958SOL    HW2 7421   6.629   5.702   3.835 -0.1218  0.4392  0.9057
 1959SOL     OW 7422   4.601   5.494   1.747 -0.0990  0.1439  0.3279
 1959SOL    HW1 7423   4.637   5.515   1.661 -0.8936 -0.0224 -0.0553
 1959SOL    HW2 7424   4.568   5.577   1.781 -1.4380 -0.0954 -0.3289
 1960SOL     OW 7425   6.068   0.042   6.785 -0.1855 -0.3378 -0.2424
 1960SOL    HW1 7426   5.983   0.000   6.772 -0.7926  0.3690  1.2416
 1960SOL    HW2 7427   6.130  -0.018   6.743 -1.2667 -1.5547 -0.1832
 1961SOL     OW 7428   0.168   5.639   5.465 -0.8744  0.2235  0.1731
 1961SOL    HW1 7429   0.187   5.732   5.477 -1.3983  0.2667  0.7452
 1961SOL    HW2 7430   0.092   5.638   5.406 -1.7938  0.2277  1.3241
 1962SOL     OW 7431   3.980   4.650   6.015 -0.9206  0.0795  0.1693
 1962SOL    HW1 7432   4.071   4.628   6.033  0.1792  1.3058 -3.2253
 1962SOL    HW2 7433   3.975   4.745   6.030 -1.8465 -0.0795  0.9584
 1963SOL     OW 7434   5.722   1.273   3.165  0.2893 -0.2665  0.0990
 1963SOL    HW1 7435   5.773   1.232   3.235  0.2967  0.6730  0.6594
 1963SOL    HW2 7436   5.711   1.204   3.099  1.4387 -0.7638  0.4166
 1964SOL     OW 7437   3.798   1.648   0.010 -0.2148 -0.3010 -0.6658
 1964SOL    HW1 7438   3.705   1.645  -0.008 -0.1773 -0.5755 -0.8146
 1964SOL    HW2 7439   3.833   1.567  -0.027 -0.0809 -0.7074  0.3110
 1965SOL     OW 7440   0.854   2.369   1.689  0.2250 -0.1067 -0.1257
 1965SOL    HW1 7441   0.847   2.359   1.594  3.5020 -0.2201 -0.4941
 1965SOL    HW2 7442   0.839   2.281   1.724  0.0770 -0.2944 -0.6586
 1966SOL     OW 7443   1.900   2.357   1.621  0.2191  0.0139  0.2221
 1966SOL    HW1 7444   1.821   2.321   1.661 -0.4565  2.5312  1.3164
 1966SOL    HW2 7445   1.958   2.375   1.694  0.4035  1.3528 -0.2179
 1967SOL     OW 7446   4.991   3.390   2.978 -0.2586  0.5276  0.5357
 1967SOL    HW1 7447   5.030   3.477   2.974 -2.8547  1.9033  2.3693
 1967SOL    HW2 7448   4.897   3.406   2.974 -0.8530 -2.1231  1.8334
 1968SOL     OW 7449   1.217   3.641   2.933  0.4713 -0.0704 -1.0023
 1968SOL    HW1 7450   1.209   3.548   2.911  3.2405 -0.9801  1.2932
 1968SOL    HW2 7451   1.310   3.655   2.947 -0.0220  2.7120  0.2567
 1969SOL     OW 7452   0.863   4.182   1.475  0.0872  0.4120  0.4334
 1969SOL    HW1 7453   0.813   4.264   1.482 -1.8730 -0.5831 -0.8015
 1969SOL    HW2 7454   0.917   4.180   1.554 -1.5227  1.8171  1.6674
 1970SOL     OW 7455   6.040   4.326   3.311  0.2590 -0.0451  0.3341
 1970SOL    HW1 7456   6.053   4.251   3.252 -0.3246 -0.8550  1.2181
 1970SOL    HW2 7457   6.014   4.287   3.394 -0.4791  1.1650  0.6917
 1971SOL     OW 7458   1.020   0.336   4.949 -0.9975 -0.4943 -0.0009
 1971SOL    HW1 7459   0.940   0.285   4.931  0.8565 -3.5544 -0.2322
 1971SOL    HW2 7460   1.071   0.281   5.007  1.9396  0.3517 -1.6113
 1972SOL     OW 7461   3.931   3.515   3.212  0.0604 -1.0115 -0.7771
 1972SOL    HW1 7462   3.915   3.552   3.125 -0.8892  0.2784 -0.0822
 1972SOL    HW2 7463   3.988   3.440   3.195 -1.7731 -2.1066 -2.7712
 1973SOL     OW 7464   3.225   1.212   1.038 -0.0240 -0.3764  0.4977
 1973SOL    HW1 7465   3.284   1.141   1.015 -0.7565 -0.6052 -0.8187
 1973SOL    HW2 7466   3.275   1.292   1.021  0.1760 -0.5706  0.1623
 1974SOL     OW 7467   1.497   3.006   2.851 -0.0567 -0.1641 -0.3174
 1974SOL    HW1 7468   1.560   2.976   2.916 -0.1381  0.2238 -0.0542
 1974SOL    HW2 7469   1.414   3.009   2.899 -0.3516 -1.0150 -0.7518
 1975SOL     OW 7470   5.898   4.364   1.154 -0.1869  0.2625  0.6536
 1975SOL    HW1 7471   5.869   4.420   1.226 -0.6416  0.0844  0.6099
 1975SOL    HW2 7472   5.923   4.426   1.085  1.3968  0.4783  1.3787
 1976SOL     OW 7473   2.224   5.337   1.565  0.0523  0.8032 -0.1184
 1976SOL    HW1 7474   2.267   5.308   1.646 -0.4584 -1.6820 -0.6526
 1976SOL    HW2 7475   2.131   5.333   1.585 -0.1319 -1.1126 -1.1538
 1977SOL     OW 7476   2.036   1.219   3.989  0.2431 -0.2060  0.0335
 1977SOL    HW1 7477   1.980   1.292   3.965  0.0304 -0.6810 -0.9815
 1977SOL    HW2 7478   2.026   1.210   4.083 -0.2889  0.6094  0.0576
 1978SOL     OW 7479   3.243   3.780   0.931 -0.7257  0.3585  0.5491
 1978SOL    HW1 7480   3.150   3.796   0.919 -0.9848 -0.4144  1.3970
 1978SOL    HW2 7481   3.260   3.698   0.883 -0.7646 -0.1795  1.4293
 1979SOL     OW 7482   5.246   3.400   2.756 -0.5611 -0.1827 -0.2249
 1979SOL    HW1 7483   5.159   3.378   2.790  0.3014  0.1585  2.4446
 1979SOL    HW2 7484   5.257   3.344   2.679 -2.4546 -1.4632  0.3635
 1980SOL     OW 7485   6.260   5.925   5.679 -0.8067 -0.2378  0.2274
 1980SOL    HW1 7486   6.192   5.985   5.647 -2.7167 -1.9068  0.9310
 1980SOL    HW2 7487   6.274   5.865   5.606  0.2191  0.3162 -0.0455
 1981SOL     OW 7488   3.050   5.327   5.514 -0.3912 -0.1542  0.2408
 1981SOL    HW1 7489   3.101   5.277   5.578  2.8688  1.4046 -0.8863
 1981SOL    HW2 7490   3.043   5.415   5.552 -1.7851 -0.1834  0.0930
 1982SOL     OW 7491   2.777   3.302   4.951  0.1783 -0.0731 -0.1249
 1982SOL    HW1 7492   2.764   3.314   4.857 -0.7939 -1.2640 -0.1704
 1982SOL    HW2 7493   2.862   3.343   4.969  0.3338  0.2599 -1.4940
 1983SOL     OW 7494   0.825   3.057   5.158 -0.3896 -0.4331 -0.6223
 1983SOL    HW1 7495   0.897   2.999   5.132  0.7569  0.4675  0.4047
 1983SOL    HW2 7496   0.814   3.116   5.083  1.7799  1.1016  0.1622
 1984SOL     OW 7497   5.456   5.541   1.534 -0.2856 -0.2160 -1.0512
 1984SOL    HW1 7498   5.454   5.627   1.574  0.7428 -0.1352 -1.1584
 1984SOL    HW2 7499   5.529   5.496   1.576 -0.3314 -0.7702 -1.5437
 1985SOL     OW 7500   2.655   6.121   4.642 -0.0457  0.2273  0.1477
 1985SOL    HW1 7501   2.606   6.055   4.592  1.3895  0.3720 -1.5459
 1985SOL    HW2 7502   2.679   6.077   4.723 -0.0422 -0.9882 -0.4833
 1986SOL     OW 7503   6.707   4.209   1.472  0.9553 -0.2722  0.0351
 1986SOL    HW1 7504   6.798   4.240   1.470  0.6709  0.5775 -1.0396
 1986SOL    HW2 7505   6.656   4.287   1.494  0.3404 -0.3071 -1.2007
 1987SOL     OW 7506   0.237   3.401   4.006  0.0516 -0.1773  0.0688
 1987SOL    HW1 7507   0.245   3.351   4.088 -0.5365  1.1135  0.9431
 1987SOL    HW2 7508   0.161   3.458   4.020 -1.4556 -1.4646 -2.2260
 1988SOL     OW 7509   1.655   1.103   3.386  0.1695 -0.2276 -0.3130
 1988SOL    HW1 7510   1.683   1.120   3.476  0.7511 -0.7498 -0.3916
 1988SOL    HW2 7511   1.736   1.098   3.336 -0.1596  0.4385 -0.9454
 1989SOL     OW 7512   1.297   6.221   3.081 -0.3008 -0.1300 -0.3583
 1989SOL    HW1 7513   1.243   6.299   3.089  0.4538  0.2834  1.0491
 1989SOL    HW2 7514   1.386   6.254   3.075  0.0519 -0.8666  0.5082
 1990SOL     OW 7515   0.300   1.535   2.941  0.4135  1.2506 -0.3630
 1990SOL    HW1 7516   0.229   1.552   2.879 -0.5999  1.0161  0.6958
 1990SOL    HW2 7517   0.307   1.615   2.993 -0.0104  0.7855  0.4271
 1991SOL     OW 7518   5.107   1.538   2.324 -0.2497  0.6222 -0.2863
 1991SOL    HW1 7519   5.139   1.523   2.413  0.8767  0.5272 -0.6921
 1991SOL    HW2 7520   5.049   1.464   2.306 -0.1886  0.4463  0.2279
 1992SOL     OW 7521   5.514   3.641   1.301  0.3312  0.5704 -0.1079
 1992SOL    HW1 7522   5.521   3.736   1.309  0.7049  0.6776 -1.3959
 1992SOL    HW2 7523   5.597   3.608   1.335  0.7004  0.8013 -0.7603
 1993SOL     OW 7524   1.400   1.689   4.348  0.3813  0.1331 -0.4481
 1993SOL    HW1 7525   1.316   1.651   4.320  0.4715 -1.4927  1.2785
 1993SOL    HW2 7526   1.390   1.783   4.333 -1.8035 -0.0035 -0.1931
 1994SOL     OW 7527   6.280   5.188   3.094  0.2121 -0.3225  0.6853
 1994SOL    HW1 7528   6.305   5.198   3.002 -1.0706 -0.2343  0.3282
 1994SOL    HW2 7529   6.359   5.158   3.137  1.6741  2.3634  0.0921
 1995SOL     OW 7530   6.113   6.586   1.903  0.1343  0.2590  0.2962
 1995SOL    HW1 7531   6.037   6.599   1.960 -0.1202  1.8002 -0.3494
 1995SOL    HW2 7532   6.082   6.525   1.837 -0.2061  0.0397  0.6495
 1996SOL     OW 7533   1.245   2.304   4.388  0.2104  0.1705 -0.5304
 1996SOL    HW1 7534   1.209   2.311   4.476  1.0133 -1.7774 -0.0025
 1996SOL    HW2 7535   1.339   2.314   4.399  0.3468 -0.3730 -1.1287
 1997SOL     OW 7536   6.086   1.063   4.173  0.3697 -0.4516 -1.1235
 1997SOL    HW1 7537   6.159   1.094   4.119  0.6407 -0.3596 -0.7146
 1997SOL    HW2 7538   6.128   1.019   4.247  0.0138 -0.3935 -0.8823
 1998SOL     OW 7539   5.447   0.396   0.992  0.1410 -0.0959  0.0685
 1998SOL    HW1 7540   5.353   0.410   0.980  0.1156  1.9690  1.9449
 1998SOL    HW2 7541   5.487   0.448   0.922 -0.1214  0.7951  0.5582
 1999SOL     OW 7542   5.163   1.825   4.730 -0.0592  0.2780  0.2824
 1999SOL    HW1 7543   5.124   1.847   4.815 -2.2213  0.6057 -0.7081
 1999SOL    HW2 7544   5.093   1.843   4.667  1.4560 -0.0226 -1.5759
 2000SOL     OW 7545   0.541   5.665   6.248  0.2976  0.1974 -0.1302
 2000SOL    HW1 7546   0.539   5.747   6.199  0.9252 -0.3608 -1.1296
 2000SOL    HW2 7547   0.454   5.626   6.233  0.5141 -0.0141 -0.9111
 2001SOL     OW 7548   0.034   3.479   5.452  0.4864 -0.5537  0.0367
 2001SOL    HW1 7549   0.080   3.419   5.393 -0.8220 -0.1959 -1.3783
 2001SOL    HW2 7550  -0.057   3.477   5.424  0.3943  2.1426 -0.1103
 2002SOL     OW 7551   0.780   5.162   0.900 -0.0821  0.4518 -0.0581
 2002SOL    HW1 7552   0.773   5.229   0.833  1.4181  0.3901 -0.3145
 2002SOL    HW2 7553   0.718   5.094   0.873  0.1689  0.6333 -1.1290
 2003SOL     OW 7554   0.153   0.741   0.128 -0.4838  0.0829 -0.2500
 2003SOL    HW1 7555   0.075   0.689   0.110 -0.2441  0.1741 -1.6474
 2003SOL    HW2 7556   0.153   0.809   0.060  0.1979  0.7904  0.4278
 2004SOL     OW 7557   6.232   2.426   3.886  0.2177 -0.6743 -1.1463
 2004SOL    HW1 7558   6.158   2.428   3.948  1.6535  1.1616  0.6630
 2004SOL    HW2 7559   6.192   2.409   3.801 -2.1855 -0.5818 -0.1125
 2005SOL     OW 7560   0.515   2.570   0.702  0.3216 -0.6704 -0.1126
 2005SOL    HW1 7561   0.486   2.622   0.626 -0.5026  1.1372  1.3494
 2005SOL    HW2 7562   0.437   2.520   0.728 -0.2845  0.8473  1.1658
 2006SOL     OW 7563   1.415   3.334   2.426  0.3571  0.0110 -0.6510
 2006SOL    HW1 7564   1.393   3.297   2.341 -0.8475 -1.6439  0.3116
 2006SOL    HW2 7565   1.425   3.258   2.484 -2.0915  1.1147  1.4088
 2007SOL     OW 7566   2.501   3.055   5.336 -0.0091  0.1751 -0.4640
 2007SOL    HW1 7567   2.518   3.020   5.248  1.0621  2.2101 -1.1136
 2007SOL    HW2 7568   2.434   3.122   5.323 -0.2631  0.0990  0.3728
 2008SOL     OW 7569   4.178   3.904   5.019  0.3688 -0.1362  0.5407
 2008SOL    HW1 7570   4.259   3.950   4.997 -0.1968  1.4974  1.7256
 2008SOL    HW2 7571   4.128   3.906   4.938  1.6611 -1.6263 -0.3675
 2009SOL     OW 7572   4.520   4.581   2.671  0.1670  0.0147  0.6282
 2009SOL    HW1 7573   4.453   4.645   2.695  1.0630  1.2253  0.0399
 2009SOL    HW2 7574   4.471   4.508   2.634 -0.8830  0.3921  1.2244
 2010SOL     OW 7575   0.362   5.610   4.212  0.7596  0.2166  0.0556
 2010SOL    HW1 7576   0.282   5.593   4.260 -0.5059  2.2092 -1.1612
 2010SOL    HW2 7577   0.353   5.560   4.131  2.0204 -1.6350  0.9853
 2011SOL     OW 7578   5.813   6.734   0.040 -0.4613  0.0247  0.5671
 2011SOL    HW1 7579   5.773   6.818   0.015 -0.1739  0.6839  2.1528
 2011SOL    HW2 7580   5.810   6.681  -0.039 -0.6735  1.5291 -0.4741
 2012SOL     OW 7581   0.496   1.570   5.256 -0.5789  0.0933  0.0244
 2012SOL    HW1 7582   0.564   1.596   5.193 -0.9330  0.1705 -0.3286
 2012SOL    HW2 7583   0.432   1.640   5.253 -0.8631 -0.1612  0.0811
 2013SOL     OW 7584   1.386   6.488   0.989 -0.0323 -0.0357 -0.5165
 2013SOL    HW1 7585   1.381   6.432   0.912 -1.0548 -0.4846 -0.1366
 2013SOL    HW2 7586   1.381   6.428   1.064 -0.3659  0.4964 -0.1006
 2014SOL     OW 7587   0.234   3.656   3.112  0.0509 -0.0493  0.0038
 2014SOL    HW1 7588   0.240   3.569   3.071  1.1218 -0.7441  1.5293
 2014SOL    HW2 7589   0.176   3.643   3.186  1.3732  0.1561  1.1082
 2015SOL     OW 7590   1.728   5.132   1.615  0.4908 -0.3496 -0.1078
 2015SOL    HW1 7591   1.717   5.069   1.687  0.5717 -1.0454 -0.6927
 2015SOL    HW2 7592   1.642   5.133   1.572  0.6183 -0.3905 -0.3625
 2016SOL     OW 7593   4.182   1.145   2.585 -0.0277  0.3737  0.6530
 2016SOL    HW1 7594   4.193   1.180   2.496  1.8828  0.8152  1.0217
 2016SOL    HW2 7595   4.252   1.081   2.594  0.2544  0.8465  2.0789
 2017SOL     OW 7596   3.816   0.556   5.428 -0.0442 -0.0061  0.5818
 2017SOL    HW1 7597   3.749   0.498   5.463  1.0386 -1.2366  0.6959
 2017SOL    HW2 7598   3.846   0.607   5.503 -1.1644  0.9102  0.4357
 2018SOL     OW 7599   4.587   3.889   4.960  0.6243  0.4509 -0.0461
 2018SOL    HW1 7600   4.592   3.863   4.868  1.7807 -1.4829  0.5020
 2018SOL    HW2 7601   4.673   3.927   4.979 -0.0263  1.9980 -0.0417
 2019SOL     OW 7602   3.284   2.780   6.144  0.0919 -0.0693 -0.3890
 2019SOL    HW1 7603   3.267   2.841   6.073  0.3085 -0.8003 -1.0943
 2019SOL    HW2 7604   3.211   2.718   6.142 -0.3645  0.4082  0.6065
 2020SOL     OW 7605   0.190   6.519   1.784 -0.2428 -0.1357  0.6448
 2020SOL    HW1 7606   0.186   6.613   1.798  0.2567  0.0902 -0.5976
 2020SOL    HW2 7607   0.261   6.489   1.841 -1.1637  0.0319  1.9269
 2021SOL     OW 7608   3.706   0.951   5.611  0.2855  0.0369  0.6477
 2021SOL    HW1 7609   3.651   0.989   5.679 -0.3852  2.4429 -1.0889
 2021SOL    HW2 7610   3.787   1.003   5.613  0.0905  0.4270 -0.6182
 2022SOL     OW 7611   2.038   5.011   0.783  0.0539 -0.2037 -0.2916
 2022SOL    HW1 7612   2.064   5.099   0.755 -0.3084  0.6433  1.8222
 2022SOL    HW2 7613   2.101   4.989   0.852  0.4835 -1.8687 -1.1828
 2023SOL     OW 7614   0.195   6.508   5.823  0.5614  0.3617  0.4040
 2023SOL    HW1 7615   0.154   6.503   5.910  2.6877 -0.1884  1.4425
 2023SOL    HW2 7616   0.197   6.601   5.803 -0.1079  0.4821  0.8694
 2024SOL     OW 7617   3.648   3.413   3.759 -0.1450  0.3032  0.5815
 2024SOL    HW1 7618   3.740   3.436   3.764  0.1840 -1.1490  2.5108
 2024SOL    HW2 7619   3.627   3.379   3.846 -2.0934 -0.8839 -0.2824
 2025SOL     OW 7620   5.495   1.894   2.322 -0.0256 -1.0706 -0.6197
 2025SOL    HW1 7621   5.426   1.839   2.286 -1.6827  1.2759 -1.2942
 2025SOL    HW2 7622   5.477   1.897   2.416 -2.1268  0.9945 -0.9922
 2026SOL     OW 7623   0.380   5.391   2.953  0.0247  0.1180 -0.1078
 2026SOL    HW1 7624   0.375   5.388   3.049 -1.0136  2.4434 -0.0217
 2026SOL    HW2 7625   0.336   5.311   2.925  0.0394 -0.4403  1.3330
 2027SOL     OW 7626   3.864   5.161   5.163 -0.2549  0.0553 -0.0291
 2027SOL    HW1 7627   3.834   5.084   5.211 -3.1165  1.3875  0.5694
 2027SOL    HW2 7628   3.842   5.142   5.071  0.7242 -0.5412 -0.1484
 2028SOL     OW 7629   4.238   4.209   1.188 -0.2012 -0.1380  0.4774
 2028SOL    HW1 7630   4.212   4.254   1.268 -0.2305 -0.2269  0.5180
 2028SOL    HW2 7631   4.292   4.136   1.218 -1.1783 -0.8802  0.5075
 2029SOL     OW 7632   4.031   2.387   3.039  0.1649 -0.0108 -0.1542
 2029SOL    HW1 7633   4.061   2.372   3.129 -0.6768  2.3931  0.6139
 2029SOL    HW2 7634   3.948   2.340   3.033  0.7806 -1.1341 -0.0739
 2030SOL     OW 7635   2.858   3.448   3.787  0.3027  0.5984  0.3616
 2030SOL    HW1 7636   2.803   3.393   3.733 -0.4235  1.0578  0.6219
 2030SOL    HW2 7637   2.799   3.487   3.851  1.1989 -0.2484  1.7648
 2031SOL     OW 7638   0.778   0.150   4.950 -0.4220 -0.1214  0.8588
 2031SOL    HW1 7639   0.782   0.133   4.856  1.1727  0.3439  0.8170
 2031SOL    HW2 7640   0.737   0.072   4.987  0.5564 -1.0897 -0.0351
 2032SOL     OW 7641   3.102   4.806   1.376  0.3500  0.0138 -0.0512
 2032SOL    HW1 7642   3.182   4.755   1.384  0.6877  0.2958 -1.3100
 2032SOL    HW2 7643   3.065   4.808   1.464  3.1512  2.2208  1.2389
 2033SOL     OW 7644   2.105   0.799   0.973  0.7969  0.1334 -0.4548
 2033SOL    HW1 7645   2.190   0.778   1.012  0.5671 -1.2958 -0.6717
 2033SOL    HW2 7646   2.071   0.715   0.943 -0.1912  0.8537 -1.4112
 2034SOL     OW 7647   6.694   1.620   6.436 -0.7755  0.0222 -0.2335
 2034SOL    HW1 7648   6.675   1.536   6.477  0.1533  0.4470  1.1484
 2034SOL    HW2 7649   6.712   1.679   6.510  3.9335  0.1487 -1.1815
 2035SOL     OW 7650   3.556   3.622   3.563  0.2260  0.1035  0.1755
 2035SOL    HW1 7651   3.586   3.556   3.500  0.5907  0.5532 -0.1316
 2035SOL    HW2 7652   3.539   3.574   3.643 -1.5861 -0.7320 -0.6398
 2036SOL     OW 7653   1.609   5.079   1.282 -0.4300  0.2661  0.0323
 2036SOL    HW1 7654   1.646   4.995   1.307 -0.0570  0.1111 -0.9997
 2036SOL    HW2 7655   1.663   5.109   1.209 -1.2113  0.8995 -0.3033
 2037SOL     OW 7656   6.591   0.506   4.142 -0.3878  0.6530  0.1112
 2037SOL    HW1 7657   6.553   0.499   4.230  0.5724  0.5285  0.5322
 2037SOL    HW2 7658   6.543   0.578   4.100  0.1305  1.7047  1.2645
 2038SOL     OW 7659   5.567   3.836   1.903 -0.3499 -0.1128  0.2318
 2038SOL    HW1 7660   5.576   3.821   1.809  3.2620  2.3316 -0.0101
 2038SOL    HW2 7661   5.601   3.756   1.944 -2.7127 -1.5314 -0.3999
 2039SOL     OW 7662   1.012   4.857   6.575 -0.6277 -0.0257  0.4416
 2039SOL    HW1 7663   0.972   4.780   6.617 -0.9818  0.1372  0.4063
 2039SOL    HW2 7664   1.096   4.866   6.619 -0.5150 -0.5251  0.3406
 2040SOL     OW 7665   3.905   0.441   6.044  0.4454 -0.1459  0.3448
 2040SOL    HW1 7666   3.865   0.527   6.057  1.4421  0.3861  0.0036
 2040SOL    HW2 7667   3.924   0.410   6.133  1.2310  0.5525  0.4316
 2041SOL     OW 7668   4.701   4.164   6.338 -0.4001  0.2151 -0.0067
 2041SOL    HW1 7669   4.729   4.083   6.296 -0.9149  0.1276 -0.1876
 2041SOL    HW2 7670   4.616   4.183   6.300 -0.7186  0.3288  0.7346
 2042SOL     OW 7671   1.864   1.285   4.692 -0.4980 -0.0290  0.1960
 2042SOL    HW1 7672   1.944   1.234   4.707 -0.2786 -0.1209 -1.1187
 2042SOL    HW2 7673   1.832   1.306   4.779  0.7070 -0.3975  0.7536
 2043SOL     OW 7674   6.684   0.797   0.834  0.3779 -0.4471  0.2678
 2043SOL    HW1 7675   6.706   0.787   0.927  0.5804 -0.7522  0.1866
 2043SOL    HW2 7676   6.723   0.721   0.792  0.8383  0.0236 -0.1651
 2044SOL     OW 7677   2.597   0.050   6.506 -0.2991 -0.4767  0.2371
 2044SOL    HW1 7678   2.563   0.004   6.429  0.4167  1.7060 -1.4590
 2044SOL    HW2 7679   2.659  -0.012   6.545 -1.9166 -2.2766  0.0839
 2045SOL     OW 7680   0.556   0.982   1.031 -0.2088  0.2015  0.4080
 2045SOL    HW1 7681   0.546   0.890   1.005  0.7838 -0.1264  1.1278
 2045SOL    HW2 7682   0.519   1.032   0.958  1.9986 -0.6758 -1.4357
 2046SOL     OW 7683   5.236   6.072   1.439 -0.1750 -0.3925 -0.3544
 2046SOL    HW1 7684   5.176   6.145   1.426 -0.8319 -1.3379 -3.6010
 2046SOL    HW2 7685   5.253   6.070   1.533 -2.0479  2.3797  0.1307
 2047SOL     OW 7686   2.395   2.046   0.218  0.6722  0.2185 -0.3129
 2047SOL    HW1 7687   2.311   2.022   0.178  0.5167 -0.8219  0.5687
 2047SOL    HW2 7688   2.426   1.964   0.258  0.5084  1.2776  2.1840
 2048SOL     OW 7689   5.450   5.483   6.760  0.3438  0.7778  1.0385
 2048SOL    HW1 7690   5.404   5.444   6.834  0.2901  1.1659  1.2110
 2048SOL    HW2 7691   5.450   5.577   6.778  0.2419  0.8872  0.5000
 2049SOL     OW 7692   6.525   5.857   3.181  0.3863  0.0630 -0.1802
 2049SOL    HW1 7693   6.558   5.805   3.254  0.2693 -0.8794 -0.7847
 2049SOL    HW2 7694   6.432   5.871   3.202 -0.6353 -3.2626 -1.7728
 2050SOL     OW 7695   5.346   3.222   1.463  0.6227  0.3170  0.4617
 2050SOL    HW1 7696   5.396   3.271   1.528  2.0981 -0.7864  0.2132
 2050SOL    HW2 7697   5.268   3.192   1.510 -0.0385  2.3708  0.7593
 2051SOL     OW 7698   2.179   1.655   5.549  0.6582 -0.6587 -0.6678
 2051SOL    HW1 7699   2.177   1.624   5.639 -3.0247 -1.0331 -0.7126
 2051SOL    HW2 7700   2.221   1.741   5.554  1.3270 -1.0448  1.2262
 2052SOL     OW 7701   0.064   6.040   0.161 -0.6425 -0.1543  0.0219
 2052SOL    HW1 7702   0.024   6.110   0.110  0.8600 -1.0827 -2.6246
 2052SOL    HW2 7703   0.008   5.964   0.147 -0.4817 -0.2967  0.1377
 2053SOL     OW 7704   3.781   2.648   5.498  0.0193  0.6784 -0.2075
 2053SOL    HW1 7705   3.703   2.634   5.552  0.7454  0.5964  0.8506
 2053SOL    HW2 7706   3.778   2.578   5.433  0.7710 -1.2539  1.7009
 2054SOL     OW 7707   2.426   2.065   0.996 -0.4074 -0.1464 -0.0093
 2054SOL    HW1 7708   2.353   2.026   1.044 -0.4345  0.4672  0.4549
 2054SOL    HW2 7709   2.385   2.110   0.922 -0.2813 -2.1214 -1.3709
 2055SOL     OW 7710   6.064   6.627   0.453  0.1061 -0.3199 -0.0226
 2055SOL    HW1 7711   5.977   6.655   0.425 -0.1919  0.6512  1.7113
 2055SOL    HW2 7712   6.062   6.532   0.446 -1.3133 -0.3578  0.4902
 2056SOL     OW 7713   4.034   6.235   2.396 -0.2360  0.2889 -0.1223
 2056SOL    HW1 7714   4.052   6.162   2.337 -3.8284 -2.5876  1.9385
 2056SOL    HW2 7715   3.985   6.297   2.343  0.6714  0.0802 -1.2721
 2057SOL     OW 7716   4.450   2.525   2.975 -0.0038  0.1281 -0.5781
 2057SOL    HW1 7717   4.463   2.561   3.063 -0.1945 -1.3639  0.0782
 2057SOL    HW2 7718   4.433   2.602   2.920  0.5020  1.1137  0.6072
 2058SOL     OW 7719   0.343   2.099   3.578 -0.1575  0.4874 -0.2772
 2058SOL    HW1 7720   0.275   2.070   3.638  0.9111  0.1296  0.8066
 2058SOL    HW2 7721   0.320   2.189   3.557 -1.0222  0.3311 -0.0325
 2059SOL     OW 7722   5.148   2.380   1.445  0.1075  0.2403  0.0173
 2059SOL    HW1 7723   5.141   2.388   1.350 -1.4922  0.2571  0.1213
 2059SOL    HW2 7724   5.236   2.414   1.465  0.7062 -0.3293 -1.4972
 2060SOL     OW 7725   4.540   0.921   1.856 -0.6017  0.6338 -0.5390
 2060SOL    HW1 7726   4.596   0.985   1.900  0.0857 -0.6825  0.5630
 2060SOL    HW2 7727   4.462   0.916   1.911 -0.8249  0.8045 -0.8387
 2061SOL     OW 7728   0.807   2.893   3.338 -0.3663  0.0175  0.0528
 2061SOL    HW1 7729   0.760   2.828   3.390  0.4352  0.5973  1.5435
 2061SOL    HW2 7730   0.807   2.972   3.391  1.7498  0.2060 -0.1445
 2062SOL     OW 7731   0.502   5.330   3.606  0.0401  0.5344  0.3951
 2062SOL    HW1 7732   0.466   5.286   3.682 -0.4977 -1.1206 -0.7584
 2062SOL    HW2 7733   0.567   5.270   3.571  0.1898  1.1969 -0.5175
 2063SOL     OW 7734   1.407   3.688   3.708 -0.5177  0.1655 -0.4822
 2063SOL    HW1 7735   1.462   3.694   3.787  0.6658  0.3397 -1.2998
 2063SOL    HW2 7736   1.320   3.670   3.742 -0.2399  1.2849  0.9478
 2064SOL     OW 7737   3.657   4.912   6.503 -0.1901 -0.2648  0.0590
 2064SOL    HW1 7738   3.594   4.884   6.437 -2.6589  1.4165  1.5369
 2064SOL    HW2 7739   3.638   4.856   6.579  0.6820 -0.2598  0.2941
 2065SOL     OW 7740   1.758   4.013   3.823  0.1210  0.8720  0.3294
 2065SOL    HW1 7741   1.821   4.016   3.751 -1.1111  0.1982 -0.8351
 2065SOL    HW2 7742   1.747   3.919   3.842 -0.0605  1.0123  0.9425
 2066SOL     OW 7743   0.126   0.469   2.292 -0.0722  0.1511  0.3272
 2066SOL    HW1 7744   0.073   0.448   2.369 -1.8727  2.0998 -0.2927
 2066SOL    HW2 7745   0.101   0.402   2.228 -0.0032 -0.3317  0.7882
 2067SOL     OW 7746   0.005   1.339   0.380  0.1896  0.6963  0.1505
 2067SOL    HW1 7747  -0.071   1.391   0.403 -0.7652 -0.7320  0.3665
 2067SOL    HW2 7748   0.051   1.324   0.462 -0.4897 -0.2393  0.3686
 2068SOL     OW 7749   1.148   1.003   0.937  0.4650  0.4207  0.4326
 2068SOL    HW1 7750   1.167   0.996   1.030  0.1269 -0.2345  0.4647
 2068SOL    HW2 7751   1.057   0.974   0.929  0.2536  1.1773 -0.0112
 2069SOL     OW 7752   6.592   5.692   0.771  0.0311  0.1128  0.3657
 2069SOL    HW1 7753   6.538   5.770   0.781  0.0322  0.3023 -0.9842
 2069SOL    HW2 7754   6.535   5.629   0.728  0.1146 -0.5529  1.2067
 2070SOL     OW 7755   3.458   1.114   6.432  0.5274  0.5530 -0.6870
 2070SOL    HW1 7756   3.496   1.028   6.413  0.3323  0.8155 -2.4518
 2070SOL    HW2 7757   3.520   1.177   6.394  0.6415  1.2049  0.5313
 2071SOL     OW 7758   3.424   4.471   5.915  0.0615 -0.7442 -0.2372
 2071SOL    HW1 7759   3.392   4.464   5.825 -1.3020 -0.4819  0.2050
 2071SOL    HW2 7760   3.454   4.382   5.936 -0.1279 -0.9392 -0.7668
 2072SOL     OW 7761   5.049   4.811   2.398 -0.0256  0.3338  0.2537
 2072SOL    HW1 7762   4.964   4.842   2.365 -0.2260  0.9178  1.2882
 2072SOL    HW2 7763   5.029   4.765   2.479  0.5420 -0.4594 -0.0441
 2073SOL     OW 7764   6.466   2.538   4.059 -0.3844  0.1560 -0.1566
 2073SOL    HW1 7765   6.433   2.519   3.971 -0.9987 -0.2852  0.1564
 2073SOL    HW2 7766   6.493   2.453   4.094 -0.0115  0.3483  0.0326
 2074SOL     OW 7767   0.545   3.938   0.567 -0.3694  0.0030 -0.1169
 2074SOL    HW1 7768   0.474   3.912   0.508  0.5417  1.0992 -1.7739
 2074SOL    HW2 7769   0.606   3.865   0.566  0.2180  0.4859 -1.5218
 2075SOL     OW 7770   1.567   3.557   1.608  0.0116  0.5303 -0.7677
 2075SOL    HW1 7771   1.639   3.579   1.666 -1.6720  0.6190  1.4297
 2075SOL    HW2 7772   1.555   3.463   1.617  1.9682 -0.1761 -3.8528
 2076SOL     OW 7773   5.008   5.716   0.253  0.3581 -0.1813 -0.0471
 2076SOL    HW1 7774   5.056   5.704   0.171 -0.3814 -0.1301 -0.4906
 2076SOL    HW2 7775   4.954   5.794   0.239  0.4977  0.0498  0.6234
 2077SOL     OW 7776   0.197   3.149   2.629  0.2543  0.3257 -0.1801
 2077SOL    HW1 7777   0.165   3.178   2.714 -2.1996  1.5558 -1.4220
 2077SOL    HW2 7778   0.157   3.063   2.617 -0.8718  0.9119 -0.7926
 2078SOL     OW 7779   1.552   2.532   2.551  0.2056 -0.0048 -0.5056
 2078SOL    HW1 7780   1.618   2.598   2.528 -0.6274  1.0412  0.0030
 2078SOL    HW2 7781   1.469   2.578   2.541 -0.4975 -1.4669 -1.6640
 2079SOL     OW 7782   3.380   2.631   1.211 -0.0631 -0.0221 -0.6222
 2079SOL    HW1 7783   3.470   2.600   1.198  0.9415  1.8568  1.1113
 2079SOL    HW2 7784   3.341   2.628   1.124  1.6149 -1.0677 -1.4003
 2080SOL     OW 7785   2.313   2.628   4.365 -0.2077  0.5218 -0.2541
 2080SOL    HW1 7786   2.345   2.663   4.282  0.4663  0.7150  0.0770
 2080SOL    HW2 7787   2.317   2.533   4.353  0.2063  0.5454 -0.3300
 2081SOL     OW 7788   4.646   3.481   2.651  0.0392 -0.0763  0.4596
 2081SOL    HW1 7789   4.624   3.573   2.644 -3.5126 -0.6814  1.7343
 2081SOL    HW2 7790   4.597   3.439   2.580  1.7764 -1.0452 -0.2562
 2082SOL     OW 7791   1.003   5.351   5.643 -0.0300  0.2577 -0.3561
 2082SOL    HW1 7792   1.025   5.444   5.652 -0.4948  0.3607 -0.2736
 2082SOL    HW2 7793   0.933   5.337   5.706 -2.5368  0.7341 -2.8406
 2083SOL     OW 7794   4.704   1.958   2.563  0.6628  0.0278  0.8215
 2083SOL    HW1 7795   4.686   2.009   2.484  2.2374 -1.5245 -0.6144
 2083SOL    HW2 7796   4.633   1.895   2.568 -0.2676  1.0879  1.5525
 2084SOL     OW 7797   0.214   5.846   3.834 -0.1280  0.1110  0.1452
 2084SOL    HW1 7798   0.192   5.897   3.756  1.8401 -0.1267 -0.6266
 2084SOL    HW2 7799   0.173   5.761   3.820 -0.0277  0.1650 -0.5055
 2085SOL     OW 7800   6.627   2.786   1.300 -0.6452 -0.5108 -0.2263
 2085SOL    HW1 7801   6.610   2.739   1.382 -0.8576 -1.4134 -0.7746
 2085SOL    HW2 7802   6.543   2.825   1.277 -0.8538 -1.1310 -0.5460
 2086SOL     OW 7803   3.716   4.259   0.753 -0.2768  0.4981 -0.2056
 2086SOL    HW1 7804   3.710   4.255   0.658 -0.6402  0.1625 -0.1709
 2086SOL    HW2 7805   3.810   4.251   0.772 -0.2221  0.3910 -0.5246
 2087SOL     OW 7806   5.344   0.332   4.591  0.2184 -0.0155  0.2147
 2087SOL    HW1 7807   5.369   0.402   4.531 -0.3157 -2.3186 -2.9777
 2087SOL    HW2 7808   5.416   0.269   4.585  0.0668 -0.3898  1.9394
 2088SOL     OW 7809   5.498   1.405   0.199 -0.2130 -0.8391 -0.5828
 2088SOL    HW1 7810   5.405   1.419   0.217 -0.1754 -1.4703  0.1473
 2088SOL    HW2 7811   5.506   1.310   0.192  0.5322 -0.8355  0.1941
 2089SOL     OW 7812   2.557   3.923   0.180 -0.4679  0.1306  0.2245
 2089SOL    HW1 7813   2.617   3.849   0.183 -0.0046  0.5066  0.2524
 2089SOL    HW2 7814   2.474   3.886   0.150 -0.1885 -0.3642  0.0675
 2090SOL     OW 7815   4.091   2.024   4.179  0.1396 -0.2290 -0.3323
 2090SOL    HW1 7816   4.185   2.042   4.190  0.2616 -0.6504 -0.6581
 2090SOL    HW2 7817   4.065   2.080   4.105  0.0293  0.2327  0.0546
 2091SOL     OW 7818   3.003   5.990   6.600 -0.2622 -0.2999 -0.6943
 2091SOL    HW1 7819   3.013   5.921   6.535  1.5226 -0.4853 -0.2604
 2091SOL    HW2 7820   2.964   5.946   6.676  2.0361 -1.1834  0.0483
 2092SOL     OW 7821   2.093   4.265   1.119 -0.1534  0.7872 -0.2524
 2092SOL    HW1 7822   2.132   4.244   1.203 -0.6955  0.3878 -0.0907
 2092SOL    HW2 7823   2.100   4.184   1.068 -1.9555  0.2545  0.2585
 2093SOL     OW 7824   0.137   3.123   0.724 -0.7509 -0.1701 -0.1565
 2093SOL    HW1 7825   0.131   3.177   0.802 -1.2147  1.5980 -1.3698
 2093SOL    HW2 7826   0.190   3.047   0.751  0.3038  1.0881  1.4698
 2094SOL     OW 7827   2.150   3.478   1.032 -0.6121 -0.8890 -0.4989
 2094SOL    HW1 7828   2.095   3.519   0.965 -0.8873 -2.0579 -1.0209
 2094SOL    HW2 7829   2.113   3.508   1.115 -0.2853  0.5565 -0.8560
 2095SOL     OW 7830   2.460   1.236   4.374 -0.2986  0.4100 -0.4970
 2095SOL    HW1 7831   2.388   1.205   4.318 -0.3351 -1.3786  0.4541
 2095SOL    HW2 7832   2.538   1.228   4.319 -0.4363 -0.6031 -0.5732
 2096SOL     OW 7833   6.443   5.988   5.876  0.6045  0.0010  0.0836
 2096SOL    HW1 7834   6.442   5.905   5.924 -3.6146  0.1420  0.6273
 2096SOL    HW2 7835   6.377   5.976   5.807  0.4355  2.6404 -0.2979
 2097SOL     OW 7836   3.840   2.908   0.195 -0.3378  0.2081 -0.0327
 2097SOL    HW1 7837   3.793   2.979   0.150  0.1888 -0.0240 -0.9811
 2097SOL    HW2 7838   3.876   2.856   0.124  1.1552  0.2477  0.6733
 2098SOL     OW 7839   4.626   2.222   4.516 -0.2571 -0.1682  0.0700
 2098SOL    HW1 7840   4.635   2.221   4.611  0.0731  1.1240  0.0755
 2098SOL    HW2 7841   4.705   2.177   4.484  0.4685  0.8360  0.3877
 2099SOL     OW 7842   3.863   4.752   0.228 -0.9404  0.0793 -0.4697
 2099SOL    HW1 7843   3.869   4.844   0.255  0.5143 -0.2414  0.4209
 2099SOL    HW2 7844   3.823   4.755   0.141 -0.5373  1.5809 -0.6375
 2100SOL     OW 7845   2.363   3.477   4.920 -0.0956  0.3116  0.1305
 2100SOL    HW1 7846   2.276   3.442   4.937 -0.1373  0.1204 -0.4449
 2100SOL    HW2 7847   2.414   3.455   4.998 -0.7540  1.0980  0.8027
 2101SOL     OW 7848   0.533   3.555   5.559  0.1946 -0.4111 -0.5184
 2101SOL    HW1 7849   0.447   3.522   5.585  0.4294 -0.2415  0.5172
 2101SOL    HW2 7850   0.527   3.565   5.464 -1.5668  1.3210 -0.2913
 2102SOL     OW 7851   0.888   0.893   0.977 -0.3640 -0.3858 -0.4039
 2102SOL    HW1 7852   0.814   0.951   0.964 -0.3356 -0.4308 -0.7758
 2102SOL    HW2 7853   0.860   0.808   0.942 -0.8175 -0.9154  1.1489
 2103SOL     OW 7854   6.497   3.964   5.955 -0.0331 -0.0836  0.2131
 2103SOL    HW1 7855   6.526   3.925   5.872 -0.5929  0.8245 -0.4308
 2103SOL    HW2 7856   6.547   4.045   5.963 -1.3762  0.8365 -0.2590
 2104SOL     OW 7857   3.259   5.005   4.948 -0.1756  0.7266 -0.0644
 2104SOL    HW1 7858   3.336   5.047   4.986 -1.1506  3.3210 -0.7021
 2104SOL    HW2 7859   3.217   4.961   5.022  0.5623  1.4917  0.8338
 2105SOL     OW 7860   3.910   4.156   2.859  0.1943  0.1344  0.1504
 2105SOL    HW1 7861   3.997   4.176   2.823  0.6910 -0.5005  0.9715
 2105SOL    HW2 7862   3.852   4.158   2.783  1.0406 -0.0998 -0.5157
 2106SOL     OW 7863   5.664   0.336   6.597 -0.0874  0.3074 -0.2871
 2106SOL    HW1 7864   5.649   0.390   6.520 -0.2669  0.0402 -0.4415
 2106SOL    HW2 7865   5.588   0.351   6.653  0.9828  2.0812  0.7867
 2107SOL     OW 7866   1.399   3.124   5.931 -0.2032  0.0086 -0.2427
 2107SOL    HW1 7867   1.486   3.087   5.949 -0.8314 -1.2525  0.3162
 2107SOL    HW2 7868   1.347   3.102   6.008 -0.5883  2.2233  0.1697
 2108SOL     OW 7869   0.307   0.738   2.751 -0.1352  0.1471 -0.1631
 2108SOL    HW1 7870   0.324   0.644   2.755 -0.0646  0.1788  3.5577
 2108SOL    HW2 7871   0.394   0.779   2.750 -0.0982  0.1450  1.1495
 2109SOL     OW 7872   2.051   6.028   4.462  0.0348 -0.1801  0.0394
 2109SOL    HW1 7873   2.137   6.054   4.494  1.3023 -1.5756 -1.9940
 2109SOL    HW2 7874   2.049   5.933   4.471 -0.8356 -0.2839 -0.9441
 2110SOL     OW 7875   2.081   2.144   2.006  0.0045 -0.0081  0.1220
 2110SOL    HW1 7876   2.147   2.170   1.942 -0.3135  0.3860 -0.0511
 2110SOL    HW2 7877   2.066   2.223   2.058 -1.0304  0.1831 -0.4520
 2111SOL     OW 7878   6.568   2.482   4.691  0.1507 -0.0968  0.2689
 2111SOL    HW1 7879   6.475   2.487   4.712 -0.0137 -1.6792  0.0544
 2111SOL    HW2 7880   6.593   2.393   4.716  1.8973  0.6567  1.4124
 2112SOL     OW 7881   3.726   1.491   5.133  0.5662  0.5008  0.7013
 2112SOL    HW1 7882   3.663   1.541   5.081 -1.0431 -0.8710  1.2105
 2112SOL    HW2 7883   3.800   1.476   5.074 -0.7164 -0.0504 -0.8498
 2113SOL     OW 7884   5.609   5.830   0.379  0.1510 -0.7918  0.0039
 2113SOL    HW1 7885   5.695   5.792   0.397  0.4611 -0.6678 -1.1577
 2113SOL    HW2 7886   5.620   5.923   0.400  1.2745 -0.1107 -2.9788
 2114SOL     OW 7887   0.537   4.196   2.903 -0.8948  0.3649  0.0113
 2114SOL    HW1 7888   0.527   4.239   2.818 -0.4353  1.5829  0.5432
 2114SOL    HW2 7889   0.617   4.233   2.940 -0.9446 -0.3365  0.8642
 2115SOL     OW 7890   6.600   4.656   0.759 -0.4525  0.1962 -0.0953
 2115SOL    HW1 7891   6.631   4.610   0.681  1.2154  0.5637  0.3134
 2115SOL    HW2 7892   6.594   4.748   0.732 -0.0488  0.2969  0.1481
 2116SOL     OW 7893   0.082   6.560   6.295  0.3689  0.0272  0.3309
 2116SOL    HW1 7894   0.152   6.568   6.360  1.4144  2.9821 -1.0177
 2116SOL    HW2 7895   0.007   6.603   6.335 -0.1645 -1.4144  0.9752
 2117SOL     OW 7896   0.483   0.864   3.525  0.6239  0.0450 -0.0400
 2117SOL    HW1 7897   0.533   0.888   3.603  2.2378  2.0494 -1.5771
 2117SOL    HW2 7898   0.391   0.868   3.553  1.0731  2.5695  1.3529
 2118SOL     OW 7899   0.464   1.133   4.401 -0.3817  0.0886 -0.8057
 2118SOL    HW1 7900   0.409   1.211   4.414 -0.4066  0.1430 -1.2289
 2118SOL    HW2 7901   0.474   1.126   4.306 -1.3189 -1.0786 -0.8490
 2119SOL     OW 7902   4.726   5.695   6.772 -0.3245 -0.6344  0.4372
 2119SOL    HW1 7903   4.666   5.692   6.697  1.2240 -1.1310 -0.8517
 2119SOL    HW2 7904   4.693   5.765   6.827 -1.2297  0.0971 -0.9824
 2120SOL     OW 7905   1.843   5.723   6.284 -0.2569  0.0260 -0.1821
 2120SOL    HW1 7906   1.818   5.631   6.283 -0.8331  0.1434  1.0444
 2120SOL    HW2 7907   1.778   5.766   6.229 -1.1063 -0.0639  0.7240
 2121SOL     OW 7908   6.352   1.107   2.251 -0.1191 -0.8019 -0.3198
 2121SOL    HW1 7909   6.393   1.034   2.204 -2.0832 -0.5345 -2.6804
 2121SOL    HW2 7910   6.304   1.066   2.323 -1.5808 -1.9973 -1.8810
 2122SOL     OW 7911   5.953   1.282   3.556 -0.0457  0.3191  0.2810
 2122SOL    HW1 7912   5.970   1.207   3.613  1.0438  1.4991  1.5873
 2122SOL    HW2 7913   5.933   1.244   3.471  1.2759 -1.4304  0.7029
 2123SOL     OW 7914   0.621   0.766   5.946 -0.5427 -0.2133  0.4353
 2123SOL    HW1 7915   0.695   0.826   5.957 -1.0083  0.2915  0.8632
 2123SOL    HW2 7916   0.550   0.807   5.995 -1.5772  0.1373 -1.2812
 2124SOL     OW 7917   2.653   6.093   4.049 -0.1610 -0.2967  0.2003
 2124SOL    HW1 7918   2.743   6.077   4.020  0.2967  1.8529  0.2637
 2124SOL    HW2 7919   2.659   6.106   4.143 -0.2684  1.2869  0.0186
 2125SOL     OW 7920   3.779   5.081   1.481  0.4797 -0.5673  0.3826
 2125SOL    HW1 7921   3.795   5.170   1.513  1.1940 -0.1547 -1.0346
 2125SOL    HW2 7922   3.724   5.040   1.548 -1.0523  1.3836  0.3882
 2126SOL     OW 7923   0.428   4.319   2.139 -0.0150 -0.4158 -0.1941
 2126SOL    HW1 7924   0.436   4.413   2.155 -0.1602 -0.4711  0.2179
 2126SOL    HW2 7925   0.339   4.298   2.167 -0.2974 -0.5114 -1.1248
 2127SOL     OW 7926   6.774   1.039   2.223  0.3947 -0.2856 -0.3580
 2127SOL    HW1 7927   6.855   0.999   2.192  0.6467  1.3726 -1.9855
 2127SOL    HW2 7928   6.800   1.122   2.261 -0.5551  0.6500 -1.6264
 2128SOL     OW 7929   4.307   5.230   0.407 -0.0092 -0.4723  0.2756
 2128SOL    HW1 7930   4.289   5.139   0.430 -0.2042 -1.5374 -3.4371
 2128SOL    HW2 7931   4.402   5.233   0.395 -0.0479 -0.2917  0.0111
 2129SOL     OW 7932   4.251   2.311   1.857 -0.3107  0.1139  0.0755
 2129SOL    HW1 7933   4.333   2.292   1.811  0.1898  1.1160  0.5218
 2129SOL    HW2 7934   4.262   2.273   1.943 -0.5894 -0.3295 -0.0812
 2130SOL     OW 7935   2.308   4.545   0.420 -0.3474 -0.0693 -0.4333
 2130SOL    HW1 7936   2.239   4.526   0.483 -0.2510 -1.1754 -0.6485
 2130SOL    HW2 7937   2.366   4.470   0.423 -0.2906 -0.1120 -1.7667
 2131SOL     OW 7938   6.598   5.868   6.201  0.3809 -0.2336 -0.0677
 2131SOL    HW1 7939   6.651   5.820   6.137 -1.0778 -0.5684 -1.0874
 2131SOL    HW2 7940   6.651   5.944   6.224  1.4508 -0.7448 -0.7707
 2132SOL     OW 7941   6.129   6.571   5.480  0.4003  0.4827 -0.0304
 2132SOL    HW1 7942   6.181   6.608   5.552  2.2396  0.7160 -1.3978
 2132SOL    HW2 7943   6.083   6.496   5.520  0.6984  1.0998  1.5600
 2133SOL     OW 7944   5.319   5.313   0.626  0.2742 -0.1250  0.2909
 2133SOL    HW1 7945   5.245   5.254   0.609  1.3784 -1.6614  0.6210
 2133SOL    HW2 7946   5.290   5.398   0.591  0.3009 -1.7650 -4.4415
 2134SOL     OW 7947   5.511   4.233   4.565  0.1220  0.0503  0.5376
 2134SOL    HW1 7948   5.513   4.321   4.603  0.4978  0.3755 -0.2123
 2134SOL    HW2 7949   5.434   4.192   4.604 -0.7389  1.1207  0.0169
 2135SOL     OW 7950   2.145   1.187   3.457 -0.0154 -0.3408  0.2694
 2135SOL    HW1 7951   2.158   1.229   3.542 -0.5205 -0.5672  0.4613
 2135SOL    HW2 7952   2.216   1.122   3.451  0.8748  0.6473 -0.1065
 2136SOL     OW 7953   0.293   5.759   2.395  0.6270  0.3971 -0.5787
 2136SOL    HW1 7954   0.219   5.816   2.413 -0.7242 -1.3794 -0.1427
 2136SOL    HW2 7955   0.265   5.705   2.321  1.4715 -0.2894 -0.4260
 2137SOL     OW 7956   3.400   2.436   2.213  0.3620  0.2633 -0.2001
 2137SOL    HW1 7957   3.444   2.374   2.272  0.7590  1.7448  1.1309
 2137SOL    HW2 7958   3.444   2.424   2.129 -0.0045 -1.6854 -0.1521
 2138SOL     OW 7959   6.146   6.497   2.287 -0.0196  0.5477 -0.3003
 2138SOL    HW1 7960   6.192   6.463   2.364 -2.8767  0.6809  1.6295
 2138SOL    HW2 7961   6.177   6.587   2.277 -0.9110  1.1546  1.9136
 2139SOL     OW 7962   1.990   0.381   1.864 -0.1167 -0.0300 -0.7831
 2139SOL    HW1 7963   2.038   0.361   1.944 -0.9896 -0.9092 -0.4682
 2139SOL    HW2 7964   1.898   0.366   1.887 -0.4246  0.2826 -1.7783
 2140SOL     OW 7965   0.459   1.125   0.106 -0.9998  0.2087 -0.0078
 2140SOL    HW1 7966   0.547   1.109   0.073  0.4221 -0.4504  3.6018
 2140SOL    HW2 7967   0.455   1.219   0.122 -0.7648  0.1762  0.2454
 2141SOL     OW 7968   0.206   6.648   4.632  0.4879 -0.0373  0.6962
 2141SOL    HW1 7969   0.262   6.669   4.707  1.7876 -1.4456  0.1610
 2141SOL    HW2 7970   0.185   6.556   4.643  0.8606 -0.3226 -0.7660
 2142SOL     OW 7971   5.571   0.067   6.304  0.4408  0.4086  0.1477
 2142SOL    HW1 7972   5.492   0.035   6.260 -0.0719  1.0286  0.5890
 2142SOL    HW2 7973   5.556   0.161   6.314  0.9319  0.4159  0.8678
 2143SOL     OW 7974   3.562   2.985   2.675  0.4421 -0.0425 -0.2154
 2143SOL    HW1 7975   3.470   2.987   2.648  0.2324 -0.6687  0.4245
 2143SOL    HW2 7976   3.608   2.945   2.601  0.2490  0.5144 -0.6459
 2144SOL     OW 7977   2.682   1.579   4.016  0.8527 -0.0311 -0.3517
 2144SOL    HW1 7978   2.763   1.539   3.984  0.1881  0.5289 -2.9290
 2144SOL    HW2 7979   2.628   1.591   3.938 -0.3638  2.7532  0.7681
 2145SOL     OW 7980   4.228   4.585   6.113  0.3761 -0.4968 -0.1833
 2145SOL    HW1 7981   4.183   4.563   6.195 -0.6103 -0.5755 -0.7215
 2145SOL    HW2 7982   4.281   4.662   6.134 -0.9368  0.3315  0.2044
 2146SOL     OW 7983   1.471   5.948   4.096 -0.2651  0.0061 -0.1836
 2146SOL    HW1 7984   1.409   6.015   4.124 -0.4308 -0.3792  0.4045
 2146SOL    HW2 7985   1.531   5.994   4.038 -1.2457  0.3297 -0.9736
 2147SOL     OW 7986   2.714   1.545   1.967  0.1525 -0.6715 -0.2081
 2147SOL    HW1 7987   2.717   1.532   1.872  0.6338 -0.7553 -0.1831
 2147SOL    HW2 7988   2.796   1.590   1.988 -0.5338  0.5134  0.0018
 2148SOL     OW 7989   2.981   0.544   0.013  0.2623  0.2222  0.2105
 2148SOL    HW1 7990   2.964   0.638   0.006 -1.6632 -0.1522 -0.9075
 2148SOL    HW2 7991   3.001   0.517  -0.077 -3.0327 -1.0098 -0.3015
 2149SOL     OW 7992   3.490   5.433   5.809  0.1299 -0.5124  0.1170
 2149SOL    HW1 7993   3.414   5.386   5.842 -0.7684  0.9434  0.2067
 2149SOL    HW2 7994   3.455   5.494   5.744  1.2080  0.2170  0.1888
 2150SOL     OW 7995   3.794   1.563   5.391  0.3634 -0.2032 -0.4238
 2150SOL    HW1 7996   3.709   1.602   5.408  0.2792 -0.0028 -1.2374
 2150SOL    HW2 7997   3.783   1.519   5.306  1.0860 -0.1093 -0.5745
 2151SOL     OW 7998   2.377   5.656   1.197 -0.6289 -0.1308  0.2156
 2151SOL    HW1 7999   2.425   5.728   1.238 -0.2345 -0.3118  0.0730
 2151SOL    HW2 8000   2.328   5.616   1.270  1.2305 -1.3995  0.8645
 2152SOL     OW 8001   4.818   0.825   1.482 -0.1331 -0.3094 -0.2811
 2152SOL    HW1 8002   4.725   0.802   1.482 -0.5171  1.0448  1.0736
 2152SOL    HW2 8003   4.841   0.831   1.575  1.6318 -1.7468 -0.5751
 2153SOL     OW 8004   5.013   4.066   4.740 -0.2431 -0.5125  0.1794
 2153SOL    HW1 8005   5.083   4.036   4.798  0.7462 -1.6440 -1.4899
 2153SOL    HW2 8006   5.019   4.007   4.664 -2.3947 -0.0144 -0.4281
 2154SOL     OW 8007   5.254   5.374   6.586 -0.4085 -0.5029 -0.3533
 2154SOL    HW1 8008   5.325   5.410   6.640  2.2395  0.7471 -4.1880
 2154SOL    HW2 8009   5.182   5.360   6.647  1.3127  3.2406  3.0206
 2155SOL     OW 8010   1.474   2.745   4.916  0.0801 -0.4193 -0.4089
 2155SOL    HW1 8011   1.512   2.695   4.843 -0.7213 -1.5902 -0.0498
 2155SOL    HW2 8012   1.541   2.810   4.938  0.1772  0.2544 -2.4534
 2156SOL     OW 8013   6.789   2.375   2.712 -0.3781  0.6082  0.0775
 2156SOL    HW1 8014   6.820   2.351   2.625 -0.5630  1.0882 -0.1272
 2156SOL    HW2 8015   6.846   2.329   2.773  0.2402  0.8788 -0.2972
 2157SOL     OW 8016   3.144   3.603   5.138 -0.3789  0.4816 -0.0599
 2157SOL    HW1 8017   3.095   3.628   5.217 -1.8375 -0.7085 -0.5401
 2157SOL    HW2 8018   3.154   3.685   5.090 -1.6573  0.8334  0.2176
 2158SOL     OW 8019   4.846   6.277   6.723 -0.5842  0.2994 -0.2940
 2158SOL    HW1 8020   4.931   6.304   6.690 -0.2334  0.3144  0.5885
 2158SOL    HW2 8021   4.788   6.351   6.706 -0.5002  0.1791 -1.1561
 2159SOL     OW 8022   0.653   4.718   6.138 -0.0948 -0.0459 -0.0223
 2159SOL    HW1 8023   0.725   4.727   6.077  0.6495 -0.4267  0.7757
 2159SOL    HW2 8024   0.580   4.765   6.097  0.4793 -0.0163 -1.0292
 2160SOL     OW 8025   0.914   0.898   4.946  0.4817  0.3721 -0.0619
 2160SOL    HW1 8026   0.907   0.879   5.040  1.3335 -0.4588 -0.1532
 2160SOL    HW2 8027   0.871   0.824   4.904  0.7483  0.3756 -0.3410
 2161SOL     OW 8028   0.529   6.218   0.384  0.1272  1.0409  0.3077
 2161SOL    HW1 8029   0.533   6.304   0.343  0.6014  1.1858  0.6433
 2161SOL    HW2 8030   0.503   6.159   0.314  0.2300  1.3911 -0.0290
 2162SOL     OW 8031   5.397   5.475   3.085 -0.1878 -0.3165 -0.0929
 2162SOL    HW1 8032   5.305   5.468   3.108 -0.3809  1.1039 -0.3479
 2162SOL    HW2 8033   5.437   5.521   3.159 -0.4531  2.5160 -1.5517
 2163SOL     OW 8034   4.495   1.418   1.771  0.0050  0.1477  0.1199
 2163SOL    HW1 8035   4.582   1.452   1.793  0.1832 -0.7598  0.9347
 2163SOL    HW2 8036   4.443   1.495   1.751  0.4590  0.8859  1.6280
 2164SOL     OW 8037   0.563   1.866   4.028 -0.4968  0.0539  0.2047
 2164SOL    HW1 8038   0.607   1.830   3.952  0.9105  1.0327  0.5044
 2164SOL    HW2 8039   0.585   1.959   4.026  0.5175 -0.0834  2.3899
 2165SOL     OW 8040   0.557   0.539   0.647 -0.2508 -0.4939 -0.2921
 2165SOL    HW1 8041   0.625   0.492   0.599  1.2173 -0.6851  1.8273
 2165SOL    HW2 8042   0.572   0.631   0.628 -1.0764 -0.6639 -1.8822
 2166SOL     OW 8043   0.352   1.084   2.709 -0.3215 -0.1323 -0.2059
 2166SOL    HW1 8044   0.311   1.165   2.741 -0.4993  0.2092 -1.2348
 2166SOL    HW2 8045   0.280   1.037   2.666  0.2604  0.3386 -1.7813
 2167SOL     OW 8046   5.123   5.750   2.022  0.1058 -0.4869 -0.0351
 2167SOL    HW1 8047   5.211   5.787   2.036 -0.0003  0.3821 -1.4724
 2167SOL    HW2 8048   5.067   5.827   2.014 -1.1796 -1.0052  2.7894
 2168SOL     OW 8049   2.742   4.151   4.735  0.4902 -0.3257 -0.6371
 2168SOL    HW1 8050   2.686   4.224   4.761  2.1846  1.3838 -1.5039
 2168SOL    HW2 8051   2.691   4.103   4.670 -0.3640  0.5451 -0.6200
 2169SOL     OW 8052   0.237   5.791   4.696 -0.1927  0.0701 -0.3380
 2169SOL    HW1 8053   0.235   5.806   4.602 -0.4686 -0.3843 -0.4048
 2169SOL    HW2 8054   0.151   5.755   4.717 -0.1851  0.3051  0.1103
 2170SOL     OW 8055   5.414   1.345   4.901 -0.2605 -0.3287 -0.2486
 2170SOL    HW1 8056   5.359   1.408   4.853  0.1193  0.0612 -0.1754
 2170SOL    HW2 8057   5.481   1.319   4.838  0.6136  0.6603  0.2492
 2171SOL     OW 8058   5.569   5.766   5.918  0.4484  0.3933  0.0557
 2171SOL    HW1 8059   5.504   5.709   5.877  2.1631 -0.4479 -1.6804
 2171SOL    HW2 8060   5.580   5.731   6.006 -2.3617  1.4136  0.9355
 2172SOL     OW 8061   4.878   6.623   2.600 -0.0460  0.8965  0.4437
 2172SOL    HW1 8062   4.898   6.602   2.691  1.0912 -0.3608 -0.0675
 2172SOL    HW2 8063   4.782   6.619   2.596 -0.0710 -0.2036  1.3377
 2173SOL     OW 8064   6.052   4.777   1.907 -0.5130  0.0516 -0.6127
 2173SOL    HW1 8065   5.990   4.847   1.926  0.9423  1.5349 -1.1037
 2173SOL    HW2 8066   6.024   4.704   1.963 -1.5000  1.3262  0.6280
 2174SOL     OW 8067   3.883   5.567   5.013  0.2022 -0.4729 -0.1947
 2174SOL    HW1 8068   3.924   5.571   4.927  0.8294 -0.1134  0.1132
 2174SOL    HW2 8069   3.806   5.623   5.005 -0.3921 -1.3662 -0.8565
 2175SOL     OW 8070   1.269   0.963   2.509  0.0567  0.0094  0.3164
 2175SOL    HW1 8071   1.210   0.924   2.444  0.8171  0.0936 -0.4422
 2175SOL    HW2 8072   1.329   0.893   2.533 -0.0095  0.0734  0.6735
 2176SOL     OW 8073   2.413   5.906   5.113 -0.0237  0.0901  0.1253
 2176SOL    HW1 8074   2.371   5.882   5.196 -1.3519 -0.6996 -0.7289
 2176SOL    HW2 8075   2.506   5.915   5.135 -0.4677  0.9015  1.8944
 2177SOL     OW 8076   2.912   5.105   2.782 -0.4695 -0.0520  0.4284
 2177SOL    HW1 8077   2.873   5.025   2.819 -0.2152 -0.4687 -0.1923
 2177SOL    HW2 8078   2.876   5.110   2.694 -0.8515  0.7885  0.6244
 2178SOL     OW 8079   5.005   2.725   1.056  0.3727  0.2521 -0.6087
 2178SOL    HW1 8080   4.971   2.672   1.128  0.0973  1.1159 -0.0914
 2178SOL    HW2 8081   5.100   2.711   1.058  0.2953 -0.2626 -0.5136
 2179SOL     OW 8082   2.795   6.728   6.677 -0.8312  0.0472  0.0538
 2179SOL    HW1 8083   2.881   6.768   6.687 -0.9856  0.2784  0.4580
 2179SOL    HW2 8084   2.769   6.703   6.765 -0.4004 -1.6811 -0.2596
 2180SOL     OW 8085   3.436   0.365   4.619 -0.4576 -0.0442 -0.2815
 2180SOL    HW1 8086   3.372   0.294   4.626 -0.8806  0.4362  0.9792
 2180SOL    HW2 8087   3.475   0.353   4.533 -0.8579 -1.5170 -0.2864
 2181SOL     OW 8088   6.027   6.326   6.720  0.2892  0.1245 -0.0375
 2181SOL    HW1 8089   6.084   6.402   6.730  0.0398  0.3012  0.0591
 2181SOL    HW2 8090   5.982   6.319   6.804  0.8202 -0.5532  0.2079
 2182SOL     OW 8091   3.096   2.414   6.724 -0.3274  0.4974  0.0078
 2182SOL    HW1 8092   3.180   2.429   6.767 -0.5596  0.9388  0.3080
 2182SOL    HW2 8093   3.061   2.502   6.709 -0.0029  0.3883 -1.5779
 2183SOL     OW 8094   6.467   5.941   0.838 -0.3770  0.2434  0.0187
 2183SOL    HW1 8095   6.391   5.933   0.896 -0.2669  0.2691  0.1661
 2183SOL    HW2 8096   6.500   6.029   0.853 -0.0923  0.1027  0.2312
 2184SOL     OW 8097   2.229   1.008   4.389 -0.5505  0.0504  0.6903
 2184SOL    HW1 8098   2.264   1.002   4.300  0.2528  1.5559  0.8802
 2184SOL    HW2 8099   2.134   1.018   4.376 -0.6409 -1.2829  0.0869
 2185SOL     OW 8100   5.687   1.471   0.981 -0.1018 -0.0032 -0.0384
 2185SOL    HW1 8101   5.616   1.447   0.922 -0.7584  1.3291  0.1678
 2185SOL    HW2 8102   5.758   1.500   0.923 -0.7757  1.3902 -0.2113
 2186SOL     OW 8103   4.565   6.082   2.914  0.0413  0.0057 -0.2306
 2186SOL    HW1 8104   4.610   6.104   2.832  1.4142 -0.3863  0.3944
 2186SOL    HW2 8105   4.575   6.160   2.968 -1.5433  0.5603 -0.6867
 2187SOL     OW 8106   4.508   2.555   3.624 -0.1026  0.3537 -0.2713
 2187SOL    HW1 8107   4.505   2.462   3.645 -0.6993  0.8513  2.1534
 2187SOL    HW2 8108   4.588   2.567   3.574 -0.3035 -1.5316 -1.1008
 2188SOL     OW 8109   1.766   0.024   4.107  0.4398  0.4044  0.1415
 2188SOL    HW1 8110   1.803   0.096   4.055  2.9870  0.4780  1.8442
 2188SOL    HW2 8111   1.794  -0.055   4.061 -0.1003  0.4751 -0.3165
 2189SOL     OW 8112   1.257   5.546   4.782  0.2827  0.0579 -0.6472
 2189SOL    HW1 8113   1.285   5.496   4.705  0.8498 -0.9298  0.1770
 2189SOL    HW2 8114   1.299   5.631   4.772  1.3019 -0.4597 -0.8560
 2190SOL     OW 8115   1.961   4.818   5.982  0.1549  1.1708 -0.5607
 2190SOL    HW1 8116   1.873   4.781   5.988  0.6232  0.1069  0.1842
 2190SOL    HW2 8117   1.970   4.845   5.891 -0.8196  0.9624 -0.7273
 2191SOL     OW 8118   1.151   2.162   6.644 -0.4092 -0.0510 -0.1330
 2191SOL    HW1 8119   1.191   2.238   6.602  1.4634 -1.1185 -0.3756
 2191SOL    HW2 8120   1.191   2.159   6.731  0.4989 -1.4388 -0.5648
 2192SOL     OW 8121   3.712   2.276   3.853  0.3664 -0.0643 -0.5679
 2192SOL    HW1 8122   3.709   2.305   3.761 -1.1616  0.4744 -0.3755
 2192SOL    HW2 8123   3.805   2.271   3.873  0.7441 -0.3716 -2.2080
 2193SOL     OW 8124   0.492   1.500   6.541 -0.6755  0.5591  0.0636
 2193SOL    HW1 8125   0.526   1.505   6.451 -0.0205 -0.3528  0.2428
 2193SOL    HW2 8126   0.397   1.499   6.531 -0.6041  0.3781 -0.6233
 2194SOL     OW 8127   4.543   5.320   1.102  0.0024  0.5038 -0.0348
 2194SOL    HW1 8128   4.562   5.343   1.193  2.1662  1.9363 -0.7592
 2194SOL    HW2 8129   4.622   5.275   1.072 -0.7810 -0.1718 -1.1374
 2195SOL     OW 8130   0.062   2.622   2.331  0.2097  0.0134  0.5330
 2195SOL    HW1 8131   0.108   2.643   2.413  0.1901  0.6245  0.3948
 2195SOL    HW2 8132  -0.024   2.663   2.341  1.2735  2.9640 -1.0714
 2196SOL     OW 8133   3.989   0.709   1.180 -0.4962 -0.0851 -0.3948
 2196SOL    HW1 8134   4.009   0.803   1.182 -3.5101  0.6884 -1.3055
 2196SOL    HW2 8135   4.017   0.680   1.093  1.1048 -0.2515  0.1479
 2197SOL     OW 8136   5.667   2.666   1.990 -0.3817  0.2192  0.8983
 2197SOL    HW1 8137   5.624   2.700   2.068 -0.5980 -1.2200  1.4383
 2197SOL    HW2 8138   5.618   2.703   1.917  0.8088  2.8977  1.3500
 2198SOL     OW 8139   6.041   5.491   0.461  0.2243 -0.2490  0.4393
 2198SOL    HW1 8140   6.112   5.553   0.479  0.9872 -1.3139  1.2365
 2198SOL    HW2 8141   6.084   5.405   0.462 -1.4229 -1.1795  3.4495
 2199SOL     OW 8142   6.470   5.341   5.585 -0.0483  0.3103 -0.3910
 2199SOL    HW1 8143   6.530   5.312   5.517 -1.0800  1.9773 -2.1326
 2199SOL    HW2 8144   6.397   5.279   5.581  0.1538  0.0756 -0.4311
 2200SOL     OW 8145   0.821   1.468   1.911  0.5250 -0.6897  0.5136
 2200SOL    HW1 8146   0.826   1.546   1.966  0.3403  0.0081 -0.4355
 2200SOL    HW2 8147   0.910   1.457   1.877  0.6573 -1.1661  0.9879
 2201SOL     OW 8148   5.408   1.175   5.812  0.2750 -0.2369 -0.1546
 2201SOL    HW1 8149   5.383   1.176   5.905  0.0221  0.0661 -0.2222
 2201SOL    HW2 8150   5.400   1.083   5.786 -0.5268 -0.1972 -0.0978
 2202SOL     OW 8151   5.246   1.128   3.180  0.5656 -0.6163 -0.5657
 2202SOL    HW1 8152   5.289   1.056   3.132  1.7830  0.3783 -1.0266
 2202SOL    HW2 8153   5.318   1.184   3.208 -0.4225  1.0844 -1.2798
 2203SOL     OW 8154   0.869   3.437   0.361 -0.1660  0.7147  0.4192
 2203SOL    HW1 8155   0.951   3.421   0.314 -0.8901  1.0858 -1.0286
 2203SOL    HW2 8156   0.876   3.528   0.391 -0.7226  1.3033 -1.1648
 2204SOL     OW 8157   4.808   1.321   5.303 -0.3252 -0.0927 -0.3481
 2204SOL    HW1 8158   4.743   1.340   5.371 -0.5940  0.1326 -0.6632
 2204SOL    HW2 8159   4.864   1.398   5.302  0.4139 -0.6089  0.4467
 2205SOL     OW 8160   5.276   5.525   2.174  0.3550 -0.0704 -0.3375
 2205SOL    HW1 8161   5.223   5.454   2.138  0.1880 -0.1957  0.1458
 2205SOL    HW2 8162   5.228   5.605   2.153 -0.3607 -0.2233  0.6555
 2206SOL     OW 8163   2.736   1.479   0.378 -0.1300  0.2324 -0.2876
 2206SOL    HW1 8164   2.805   1.525   0.331  1.0846 -2.7632 -1.6906
 2206SOL    HW2 8165   2.697   1.420   0.313 -0.1033 -2.2405  1.7642
 2207SOL     OW 8166   0.281   2.695   2.549 -0.1308  0.5970  0.3772
 2207SOL    HW1 8167   0.305   2.611   2.588 -2.6996 -0.9592 -1.1198
 2207SOL    HW2 8168   0.355   2.716   2.491 -0.0370 -1.4280 -0.3172
 2208SOL     OW 8169   2.967   1.081   3.535 -0.4402  0.1307  0.3140
 2208SOL    HW1 8170   2.986   1.061   3.444 -0.5706  2.3395 -0.2400
 2208SOL    HW2 8171   3.052   1.081   3.578 -0.5428 -3.5100  0.8808
 2209SOL     OW 8172   0.555   4.084   2.279 -0.1171 -0.0128  0.2094
 2209SOL    HW1 8173   0.538   4.174   2.249 -1.1796 -0.6327 -1.1376
 2209SOL    HW2 8174   0.587   4.038   2.202  5.5297  0.3270  1.8804
 2210SOL     OW 8175   0.318   1.540   1.809  0.2687 -0.0823 -0.1724
 2210SOL    HW1 8176   0.323   1.494   1.725  1.0013  0.9834 -0.7493
 2210SOL    HW2 8177   0.403   1.523   1.850  0.4601  0.5369 -0.2929
 2211SOL     OW 8178   3.619   4.844   5.075 -0.2077 -0.5709  0.2613
 2211SOL    HW1 8179   3.714   4.846   5.081 -0.2663  1.9749  1.8179
 2211SOL    HW2 8180   3.591   4.788   5.147  0.1257  1.3016  1.9595
 2212SOL     OW 8181   3.370   0.059   0.778  0.0144 -0.1859 -0.1154
 2212SOL    HW1 8182   3.429   0.105   0.718 -0.3822 -0.3159 -0.6088
 2212SOL    HW2 8183   3.428   0.023   0.845  0.3332  1.0143  0.2745
 2213SOL     OW 8184   3.871   2.391   3.315  0.3437  0.0857  0.1002
 2213SOL    HW1 8185   3.905   2.480   3.327 -0.9651  0.6873 -0.3756
 2213SOL    HW2 8186   3.820   2.374   3.394 -0.6299  0.3777 -0.4389
 2214SOL     OW 8187   3.556   1.140   6.699 -0.4392  0.0055 -0.1043
 2214SOL    HW1 8188   3.637   1.166   6.654 -0.6949  1.8770  0.4397
 2214SOL    HW2 8189   3.496   1.117   6.629  1.2188 -3.9521 -0.5299
 2215SOL     OW 8190   6.790   4.829   0.566 -0.3190  0.1906 -0.0343
 2215SOL    HW1 8191   6.751   4.871   0.643 -1.7599 -1.9575  0.5155
 2215SOL    HW2 8192   6.884   4.847   0.573 -0.5401  0.8017  1.7399
 2216SOL     OW 8193   0.010   3.750   2.429 -0.6664  0.2232 -0.0328
 2216SOL    HW1 8194  -0.049   3.738   2.504  1.4136  0.7405  1.8026
 2216SOL    HW2 8195   0.063   3.670   2.428  1.8463  1.7368  1.5342
 2217SOL     OW 8196   0.479   1.766   0.947  0.0369 -0.5935 -0.3427
 2217SOL    HW1 8197   0.477   1.815   0.865  0.9828  1.0167  0.5508
 2217SOL    HW2 8198   0.552   1.803   0.996  1.1101 -3.2209  0.2226
 2218SOL     OW 8199   3.228   3.661   2.808 -0.5304 -0.1521 -0.2329
 2218SOL    HW1 8200   3.223   3.692   2.899 -1.2169 -0.2847 -0.2186
 2218SOL    HW2 8201   3.272   3.577   2.814 -1.2636 -0.5280  0.0813
 2219SOL     OW 8202   3.279   6.394   6.410 -0.2751  0.1655  0.1749
 2219SOL    HW1 8203   3.320   6.402   6.496  1.1349  0.6050 -0.5041
 2219SOL    HW2 8204   3.299   6.476   6.366 -1.7234  0.2994 -0.2810
 2220SOL     OW 8205   4.872   4.472   3.273  0.4296  0.0779  0.0030
 2220SOL    HW1 8206   4.806   4.445   3.209  0.0965 -0.2485  0.4781
 2220SOL    HW2 8207   4.844   4.558   3.302  2.1565  1.5666 -2.4248
 2221SOL     OW 8208   1.609   0.373   5.039  0.0525  0.1648  0.3960
 2221SOL    HW1 8209   1.603   0.409   4.950 -1.5843  0.7973  0.7317
 2221SOL    HW2 8210   1.577   0.284   5.031 -2.1474  0.8700  0.6692
 2222SOL     OW 8211   3.778   0.895   6.245 -0.1153 -0.3515  0.6990
 2222SOL    HW1 8212   3.864   0.935   6.231 -0.0722 -0.1279  1.5778
 2222SOL    HW2 8213   3.797   0.804   6.264 -0.1257 -0.4701  0.1693
 2223SOL     OW 8214   4.895   6.785   1.872  0.7865 -1.0403 -0.1492
 2223SOL    HW1 8215   4.863   6.751   1.955  2.1776 -2.2030 -0.0555
 2223SOL    HW2 8216   4.926   6.873   1.892 -1.6298 -0.1088 -0.1122
 2224SOL     OW 8217   6.203   2.931   0.145  0.4967 -0.4071  0.0828
 2224SOL    HW1 8218   6.269   2.938   0.213 -0.1268 -0.6729  0.7265
 2224SOL    HW2 8219   6.126   2.895   0.189 -1.2686  3.0734  0.1716
 2225SOL     OW 8220   5.330   1.598   2.738 -0.7830 -0.0105  0.2018
 2225SOL    HW1 8221   5.329   1.543   2.816 -0.1886  0.9574  0.9175
 2225SOL    HW2 8222   5.249   1.576   2.691 -1.7241  0.2010  1.6665
 2226SOL     OW 8223   0.701   3.938   3.876  0.4868 -0.0403 -0.4669
 2226SOL    HW1 8224   0.642   3.898   3.813 -0.8508 -0.0441  0.7366
 2226SOL    HW2 8225   0.652   3.938   3.959  1.8318  0.7755  0.3748
 2227SOL     OW 8226   0.688   1.438   5.909 -0.0108  0.8300 -0.2017
 2227SOL    HW1 8227   0.765   1.437   5.965  0.4798  0.0534 -0.8798
 2227SOL    HW2 8228   0.717   1.482   5.829 -0.6099  1.6186  0.0040
 2228SOL     OW 8229   0.338   3.866   0.416 -0.8182  0.1724  0.2594
 2228SOL    HW1 8230   0.289   3.913   0.349  0.8493  1.1302 -0.3514
 2228SOL    HW2 8231   0.293   3.782   0.424 -0.6902 -0.2659 -2.5674
 2229SOL     OW 8232   4.530   0.883   0.823 -0.2937  0.7829 -0.6192
 2229SOL    HW1 8233   4.621   0.889   0.851 -0.3528 -0.0996 -0.2080
 2229SOL    HW2 8234   4.516   0.962   0.770  0.9226  0.5420 -1.3364
 2230SOL     OW 8235   5.429   1.828   1.015  0.0141  0.8294 -0.2711
 2230SOL    HW1 8236   5.391   1.745   1.046  1.7036 -0.3483 -1.1802
 2230SOL    HW2 8237   5.485   1.856   1.087  0.1202  0.7118 -0.3071
 2231SOL     OW 8238   2.396   6.666   5.936 -0.2179 -0.1185 -0.1857
 2231SOL    HW1 8239   2.395   6.622   6.020 -0.3519 -0.8592 -0.5647
 2231SOL    HW2 8240   2.328   6.621   5.885  0.3292 -0.1355 -0.9131
 2232SOL     OW 8241   1.496   3.709   6.564 -0.1978 -0.1420  0.2800
 2232SOL    HW1 8242   1.486   3.793   6.518 -0.0798  0.7897  1.8966
 2232SOL    HW2 8243   1.418   3.703   6.620  0.1622 -0.7590  0.7227
 2233SOL     OW 8244   4.105   6.289   5.888 -0.5686 -0.4369 -0.3071
 2233SOL    HW1 8245   4.151   6.256   5.811 -1.3032  1.4438 -1.6094
 2233SOL    HW2 8246   4.175   6.320   5.946 -0.0846  0.6253 -1.4169
 2234SOL     OW 8247   5.181   5.408   3.407  0.1086  0.0003  0.6615
 2234SOL    HW1 8248   5.269   5.444   3.417  0.4204 -0.8130  0.8809
 2234SOL    HW2 8249   5.176   5.379   3.316  1.0380 -2.4234  1.3148
 2235SOL     OW 8250   2.642   5.817   2.299  0.3025 -0.8728 -0.4987
 2235SOL    HW1 8251   2.648   5.853   2.388  2.2000 -0.9244 -0.5693
 2235SOL    HW2 8252   2.548   5.819   2.279 -0.0813 -0.0776  1.1741
 2236SOL     OW 8253   4.531   0.442   3.458 -0.1094  0.4930 -0.1964
 2236SOL    HW1 8254   4.462   0.507   3.465 -0.7224  0.3262 -3.4410
 2236SOL    HW2 8255   4.490   0.360   3.486 -0.2613  0.9190  0.8676
 2237SOL     OW 8256   4.455   1.854   4.294  0.8651 -0.2767 -0.3249
 2237SOL    HW1 8257   4.509   1.867   4.372  1.2319 -2.2634 -0.2116
 2237SOL    HW2 8258   4.451   1.941   4.253  4.0637  0.0164 -0.2841
 2238SOL     OW 8259   1.166   1.662   3.741  0.4569 -0.1336  0.2451
 2238SOL    HW1 8260   1.178   1.688   3.649  0.7381  0.0224  0.3269
 2238SOL    HW2 8261   1.108   1.585   3.736 -0.3421  0.4674 -0.0006
 2239SOL     OW 8262   5.753   1.757   5.203  0.0358  0.2616 -0.3387
 2239SOL    HW1 8263   5.820   1.708   5.252  0.4173 -1.3621 -2.3588
 2239SOL    HW2 8264   5.773   1.849   5.223  1.0956 -0.2613  1.3206
 2240SOL     OW 8265   1.023   5.735   1.342 -0.2767  0.2662  0.3672
 2240SOL    HW1 8266   0.979   5.662   1.300  0.2628 -0.3199  0.8042
 2240SOL    HW2 8267   0.973   5.752   1.422  1.6008 -1.9930  2.1540
 2241SOL     OW 8268   4.195   6.792   1.052  0.5912  0.4521  0.2545
 2241SOL    HW1 8269   4.272   6.746   1.020  1.4984  1.8069  0.3876
 2241SOL    HW2 8270   4.229   6.874   1.087 -0.8555  0.8404  0.8336
 2242SOL     OW 8271   4.162   0.310   0.820  0.2266  0.2727 -0.2200
 2242SOL    HW1 8272   4.231   0.254   0.784 -1.8717 -2.2569 -0.5844
 2242SOL    HW2 8273   4.177   0.395   0.779  2.2296 -0.5781 -1.4035
 2243SOL     OW 8274   1.592   1.765   0.961 -0.7740 -0.0009 -0.4916
 2243SOL    HW1 8275   1.569   1.686   0.912 -0.6346 -0.4589  0.1621
 2243SOL    HW2 8276   1.688   1.763   0.967 -0.7472  0.3801 -0.7304
 2244SOL     OW 8277   5.112   6.585   0.937  0.3510  0.6044 -0.0658
 2244SOL    HW1 8278   5.120   6.600   0.843 -0.6610 -0.4184 -0.3431
 2244SOL    HW2 8279   5.028   6.539   0.947  1.7291 -1.9071  0.9724
 2245SOL     OW 8280   2.246   0.420   0.871 -0.5641 -0.1094 -0.4337
 2245SOL    HW1 8281   2.230   0.392   0.781 -2.5708  2.3096 -0.9440
 2245SOL    HW2 8282   2.215   0.347   0.925 -2.8061 -0.1855 -1.7033
 2246SOL     OW 8283   1.403   2.600   0.115  0.1638  0.2694 -0.4439
 2246SOL    HW1 8284   1.315   2.630   0.091  0.2720 -0.2465 -1.5295
 2246SOL    HW2 8285   1.388   2.526   0.174 -0.1384 -0.2598 -1.1797
 2247SOL     OW 8286   2.573   2.300   1.585  0.0041  0.1716  0.0707
 2247SOL    HW1 8287   2.561   2.342   1.670 -0.5890  0.3814 -0.1072
 2247SOL    HW2 8288   2.609   2.213   1.606 -1.5104 -0.3540  0.6552
 2248SOL     OW 8289   5.837   0.725   1.712  0.2219  0.7264 -0.7315
 2248SOL    HW1 8290   5.864   0.761   1.627  0.7636  1.7436 -0.1525
 2248SOL    HW2 8291   5.855   0.796   1.774  0.6714 -0.3234  0.3621
 2249SOL     OW 8292   1.726   2.834   1.700 -0.5212 -0.0278 -0.1575
 2249SOL    HW1 8293   1.748   2.926   1.681 -2.8018  0.3023 -1.4800
 2249SOL    HW2 8294   1.760   2.820   1.789 -0.4595  2.2256  0.2505
 2250SOL     OW 8295   3.260   5.964   2.651  0.0520 -0.2288 -0.1386
 2250SOL    HW1 8296   3.299   5.985   2.566 -0.3921  1.4640  0.0448
 2250SOL    HW2 8297   3.249   5.869   2.649  1.1112 -0.3584 -1.5055
 2251SOL     OW 8298   5.331   5.524   2.651  0.1290  0.1897 -0.2550
 2251SOL    HW1 8299   5.366   5.502   2.564 -1.2691 -0.3485 -0.7098
 2251SOL    HW2 8300   5.241   5.493   2.649  0.0275  0.2975  1.3584
 2252SOL     OW 8301   4.190   3.175   3.681 -0.3707  0.6292  0.0439
 2252SOL    HW1 8302   4.153   3.147   3.764 -0.4222  1.6043  0.3688
 2252SOL    HW2 8303   4.187   3.271   3.685 -1.2915  0.6984 -1.4943
 2253SOL     OW 8304   1.919   0.037   2.801 -0.1318 -0.0597  0.7867
 2253SOL    HW1 8305   1.865  -0.026   2.849  0.0250 -1.8415 -1.1936
 2253SOL    HW2 8306   1.858   0.080   2.740  0.1851 -0.1190  0.4207
 2254SOL     OW 8307   4.540   0.477   4.484  0.5043 -0.1243 -0.1014
 2254SOL    HW1 8308   4.602   0.409   4.459  1.9752  0.9863  0.3849
 2254SOL    HW2 8309   4.463   0.428   4.516  0.4490 -1.5274 -2.2021
 2255SOL     OW 8310   3.070   0.240   3.594  0.0948  0.0019 -0.1815
 2255SOL    HW1 8311   3.153   0.274   3.628  0.5424 -0.3381 -0.9284
 2255SOL    HW2 8312   3.006   0.307   3.617  0.6456  0.4665  0.0240
 2256SOL     OW 8313   2.846   6.424   6.731 -0.3116 -0.2642 -0.1986
 2256SOL    HW1 8314   2.827   6.496   6.671 -0.2517 -0.8884 -0.9816
 2256SOL    HW2 8315   2.920   6.456   6.784 -0.8603  0.5818  0.0707
 2257SOL     OW 8316   1.105   0.984   5.275 -0.1196 -0.1467 -0.5965
 2257SOL    HW1 8317   1.046   0.921   5.317 -0.6442 -0.6014 -1.9697
 2257SOL    HW2 8318   1.192   0.954   5.299 -0.3471 -1.6286 -1.4666
 2258SOL     OW 8319   0.090   4.814   4.496 -0.3276 -0.0499  0.2959
 2258SOL    HW1 8320  -0.004   4.812   4.482 -0.3577  1.4564  0.1970
 2258SOL    HW2 8321   0.102   4.767   4.579 -1.5564  2.6373  2.1253
 2259SOL     OW 8322   3.907   1.138   1.019 -0.0522 -0.2722 -0.2847
 2259SOL    HW1 8323   3.907   1.189   0.938  0.1219 -0.4319 -0.3854
 2259SOL    HW2 8324   3.814   1.121   1.037 -0.1119  0.1260 -0.2215
 2260SOL     OW 8325   3.889   1.028   2.150  0.9172  1.0066 -0.2554
 2260SOL    HW1 8326   3.924   1.080   2.078  1.3284 -1.5115 -2.0270
 2260SOL    HW2 8327   3.811   0.986   2.112  1.2852 -0.5778  0.6825
 2261SOL     OW 8328   3.610   4.872   2.792 -0.2579  0.6105  0.0844
 2261SOL    HW1 8329   3.515   4.872   2.795 -0.2382  0.1891  0.8927
 2261SOL    HW2 8330   3.638   4.843   2.879  0.5961 -0.2330 -0.4474
 2262SOL     OW 8331   2.310   6.763   0.196 -0.7535 -0.3051 -0.0446
 2262SOL    HW1 8332   2.239   6.699   0.195  0.0440 -1.2261  0.5746
 2262SOL    HW2 8333   2.369   6.735   0.126 -0.4796 -0.1608  0.1265
 2263SOL     OW 8334   3.977   1.339   2.538 -0.4938 -0.0883  0.0517
 2263SOL    HW1 8335   3.972   1.342   2.443 -0.4431  1.0161  0.0731
 2263SOL    HW2 8336   4.025   1.258   2.557  0.6566  0.3309 -0.9235
 2264SOL     OW 8337   5.871   0.545   3.413 -0.4928 -0.1968  0.2641
 2264SOL    HW1 8338   5.873   0.449   3.420 -1.0921 -0.3654 -1.3296
 2264SOL    HW2 8339   5.962   0.568   3.394  0.3126 -0.0854  3.6192
 2265SOL     OW 8340   6.578   2.071   2.141 -0.2737 -0.0063 -0.2041
 2265SOL    HW1 8341   6.621   1.993   2.105 -1.8931 -1.0368 -0.0246
 2265SOL    HW2 8342   6.504   2.086   2.081 -0.9058  0.4211  0.6726
 2266SOL     OW 8343   5.734   3.734   6.731  0.0887 -0.7511 -0.3762
 2266SOL    HW1 8344   5.733   3.788   6.810  0.8908 -0.9161 -0.2418
 2266SOL    HW2 8345   5.689   3.787   6.665  0.7285  0.0325 -0.2025
 2267SOL     OW 8346   3.911   6.713   6.469 -0.3073  0.2727  0.0915
 2267SOL    HW1 8347   3.847   6.729   6.537 -1.2550  2.1145 -1.1377
 2267SOL    HW2 8348   3.996   6.722   6.513 -0.8913  1.5521  1.0128
 2268SOL     OW 8349   5.569   2.179   3.505  0.5088 -0.4810  0.0019
 2268SOL    HW1 8350   5.517   2.239   3.560 -0.6484 -0.3845 -1.1530
 2268SOL    HW2 8351   5.659   2.191   3.536  0.2635  1.5197  0.1175
 2269SOL     OW 8352   2.506   5.163   5.604 -0.6296 -0.0293  0.0243
 2269SOL    HW1 8353   2.461   5.211   5.534 -1.4469  0.4213  0.8444
 2269SOL    HW2 8354   2.437   5.140   5.666  0.1195 -0.2209  0.8100
 2270SOL     OW 8355   5.515   4.100   2.384  0.5801  0.0479 -0.0626
 2270SOL    HW1 8356   5.497   4.087   2.477 -0.0264 -1.9284 -0.4104
 2270SOL    HW2 8357   5.429   4.111   2.344  0.6074 -1.6754 -0.6901
 2271SOL     OW 8358   0.197   6.367   3.274 -0.1000  0.6854  0.6801
 2271SOL    HW1 8359   0.213   6.423   3.198  0.9866  0.6062  0.8363
 2271SOL    HW2 8360   0.245   6.287   3.255  0.3726  0.7533  1.5461
 2272SOL     OW 8361   4.825   5.899   5.070 -0.2697  0.1103 -0.7988
 2272SOL    HW1 8362   4.869   5.905   4.985  1.3384 -0.1459 -0.0082
 2272SOL    HW2 8363   4.776   5.982   5.077  0.3423  0.5546 -1.5568
 2273SOL     OW 8364   3.218   4.902   1.673 -0.7212  0.4762  0.2993
 2273SOL    HW1 8365   3.139   4.850   1.663 -0.9962  0.9009  0.2423
 2273SOL    HW2 8366   3.187   4.992   1.681 -0.1830  0.8737 -1.5197
 2274SOL     OW 8367   0.942   3.725   2.903 -0.5227 -0.6610  0.2688
 2274SOL    HW1 8368   0.926   3.801   2.847 -1.3082 -0.5460  0.6442
 2274SOL    HW2 8369   1.030   3.696   2.878  0.5015  1.3718  1.2632
 2275SOL     OW 8370   2.572   2.662   3.795 -0.2130  0.1433  0.0225
 2275SOL    HW1 8371   2.641   2.637   3.733 -0.6116 -0.4392 -0.2010
 2275SOL    HW2 8372   2.536   2.743   3.759 -0.1988  0.0029 -0.3166
 2276SOL     OW 8373   6.582   3.011   2.784  0.1275 -0.4291 -0.0326
 2276SOL    HW1 8374   6.570   3.085   2.726  0.5457  0.3694  0.8757
 2276SOL    HW2 8375   6.506   2.955   2.768 -1.2421  1.1495  0.6971
 2277SOL     OW 8376   0.310   6.664   0.933  0.4574 -0.1609 -0.0605
 2277SOL    HW1 8377   0.269   6.580   0.952  0.0090  0.0507 -0.0862
 2277SOL    HW2 8378   0.277   6.688   0.847 -0.5699  0.7376  0.5738
 2278SOL     OW 8379   0.846   1.787   5.672  0.8857  0.8215 -0.1556
 2278SOL    HW1 8380   0.753   1.764   5.680  0.9035  0.2203 -1.4515
 2278SOL    HW2 8381   0.882   1.771   5.759 -0.3160  1.5230  0.5052
 2279SOL     OW 8382   0.820   2.798   1.561  0.6232 -0.2860  0.2774
 2279SOL    HW1 8383   0.762   2.850   1.505 -0.9726  0.6676  2.6300
 2279SOL    HW2 8384   0.908   2.833   1.544 -0.1258  1.6145  0.0877
 2280SOL     OW 8385   0.164   1.490   4.096  0.5052  0.2907  0.1558
 2280SOL    HW1 8386   0.193   1.570   4.052 -1.6663  1.8227  1.3684
 2280SOL    HW2 8387   0.073   1.506   4.119  0.5922 -1.7328  2.2728
 2281SOL     OW 8388   4.884   6.278   0.460 -0.2016 -0.0622  0.4066
 2281SOL    HW1 8389   4.963   6.261   0.511 -0.6967 -0.5504  1.0234
 2281SOL    HW2 8390   4.903   6.238   0.375 -0.8166 -2.6880  1.4000
 2282SOL     OW 8391   3.505   2.976   1.080 -0.2045 -0.1989 -0.2896
 2282SOL    HW1 8392   3.455   2.931   1.012  0.2734  0.8104 -1.3443
 2282SOL    HW2 8393   3.554   3.043   1.033  0.7453  0.0186  0.9597
 2283SOL     OW 8394   1.231   2.750   1.196 -0.2402  0.4023 -0.1949
 2283SOL    HW1 8395   1.165   2.682   1.196 -0.2332  0.3367  2.0134
 2283SOL    HW2 8396   1.282   2.735   1.116 -1.0318 -1.3747 -0.3941
 2284SOL     OW 8397   4.536   4.155   3.243 -0.3131 -0.1102 -0.2377
 2284SOL    HW1 8398   4.464   4.114   3.291  0.6617 -0.3680  1.0262
 2284SOL    HW2 8399   4.610   4.153   3.303  0.2512  1.8924 -0.7857
 2285SOL     OW 8400   1.125   4.269   6.156 -0.2418 -0.4425  0.4933
 2285SOL    HW1 8401   1.034   4.276   6.183 -1.1855  0.1158 -2.4815
 2285SOL    HW2 8402   1.158   4.359   6.159 -0.6008 -0.2481 -0.8559
 2286SOL     OW 8403   3.707   2.544   1.131  0.2754  0.0408  0.4094
 2286SOL    HW1 8404   3.674   2.578   1.049  0.3313 -1.5826 -0.3270
 2286SOL    HW2 8405   3.796   2.515   1.111  0.4208 -0.0421  1.1349
 2287SOL     OW 8406   0.029   0.875   6.555 -0.1162  0.3781  0.6465
 2287SOL    HW1 8407   0.040   0.786   6.587  1.9509  1.0089  1.9223
 2287SOL    HW2 8408   0.025   0.929   6.634 -2.2180  1.3881 -0.0702
 2288SOL     OW 8409   1.116   4.103   5.234 -0.5132 -0.6119  0.4798
 2288SOL    HW1 8410   1.148   4.014   5.249  1.2363 -0.0924  0.0481
 2288SOL    HW2 8411   1.091   4.104   5.141 -1.3353 -0.8717  0.6904
 2289SOL     OW 8412   2.094   0.742   2.544 -0.3924 -0.4874  0.1440
 2289SOL    HW1 8413   2.170   0.694   2.511 -0.1170 -0.8687  1.2996
 2289SOL    HW2 8414   2.050   0.774   2.465  1.0909 -0.0414 -0.5505
 2290SOL     OW 8415   1.303   0.718   4.623 -0.6373 -0.0119 -0.7370
 2290SOL    HW1 8416   1.255   0.685   4.547 -0.1441 -0.2915 -0.9351
 2290SOL    HW2 8417   1.391   0.736   4.589 -0.4849  0.0977 -0.2866
 2291SOL     OW 8418   1.490   3.739   6.155 -0.5487 -0.1239  0.1815
 2291SOL    HW1 8419   1.462   3.792   6.229  0.1096  0.4008  0.0653
 2291SOL    HW2 8420   1.585   3.737   6.161 -0.5152 -0.5084 -0.3544
 2292SOL     OW 8421   0.633   5.126   4.686 -0.1124  0.0781 -0.2384
 2292SOL    HW1 8422   0.542   5.099   4.675  0.0672 -0.0915 -1.4724
 2292SOL    HW2 8423   0.678   5.047   4.718 -0.2991  0.0049 -0.1571
 2293SOL     OW 8424   3.083   6.121   2.990  0.7963 -0.4645  0.2729
 2293SOL    HW1 8425   3.024   6.046   2.978 -0.5747  0.8662 -2.1485
 2293SOL    HW2 8426   3.155   6.103   2.929  0.5327  0.0796 -0.2095
 2294SOL     OW 8427   6.588   6.293   3.786 -0.4556 -0.0366  0.4979
 2294SOL    HW1 8428   6.677   6.258   3.798  0.9316  2.1118 -2.3588
 2294SOL    HW2 8429   6.531   6.216   3.792  1.5847 -1.5411  2.0383
 2295SOL     OW 8430   2.413   4.344   4.419 -0.3183  0.2352  0.0725
 2295SOL    HW1 8431   2.386   4.337   4.327  1.4150  1.2228 -0.5551
 2295SOL    HW2 8432   2.381   4.263   4.459 -1.1882 -0.1732 -1.3595
 2296SOL     OW 8433   2.682   2.623   0.504 -0.0360 -0.6526  0.2045
 2296SOL    HW1 8434   2.631   2.679   0.561  0.0316 -1.0820  0.6976
 2296SOL    HW2 8435   2.622   2.554   0.477 -0.4625  0.2761 -1.3559
 2297SOL     OW 8436   0.109   2.027   2.131  0.4226  0.6156  0.7038
 2297SOL    HW1 8437   0.059   1.986   2.061  2.8675 -1.1474 -0.1512
 2297SOL    HW2 8438   0.105   1.964   2.203 -0.0856  1.3215  1.3068
 2298SOL     OW 8439   1.629   4.711   2.181  0.8229 -0.0531 -0.0830
 2298SOL    HW1 8440   1.596   4.798   2.204 -0.2015 -0.6125  0.6520
 2298SOL    HW2 8441   1.568   4.680   2.114  1.9893  0.3261 -1.3571
 2299SOL     OW 8442   5.291   0.012   5.638  0.2295  0.6732 -0.1306
 2299SOL    HW1 8443   5.225  -0.057   5.643 -1.6159  2.3492 -0.0672
 2299SOL    HW2 8444   5.340  -0.007   5.558 -0.3464 -0.5936 -0.2043
 2300SOL     OW 8445   5.661   0.251   2.821  0.0851  0.2812  0.5174
 2300SOL    HW1 8446   5.697   0.306   2.751 -0.8541 -0.0734 -0.2613
 2300SOL    HW2 8447   5.724   0.179   2.829  0.5324  0.6607  0.5007
 2301SOL     OW 8448   5.726   3.745   6.145 -0.2997 -0.7771 -0.1565
 2301SOL    HW1 8449   5.768   3.814   6.094  1.1607 -1.3057  0.2724
 2301SOL    HW2 8450   5.739   3.771   6.236  0.5048 -1.7000  0.0214
 2302SOL     OW 8451   0.552   0.528   3.511  0.3504  0.0558  0.1913
 2302SOL    HW1 8452   0.570   0.452   3.457 -2.1611 -1.1013  0.8094
 2302SOL    HW2 8453   0.501   0.586   3.455  1.4571  0.8844  0.0151
 2303SOL     OW 8454   4.626   0.769   2.193 -0.3807  1.2126  0.5549
 2303SOL    HW1 8455   4.657   0.694   2.244  1.5939  1.6162  0.0270
 2303SOL    HW2 8456   4.544   0.738   2.153  0.5776 -0.8409  0.0232
 2304SOL     OW 8457   3.465   0.959   1.311  0.4216  0.2611  0.4958
 2304SOL    HW1 8458   3.439   0.951   1.219 -0.8904 -2.9419  1.0200
 2304SOL    HW2 8459   3.548   0.913   1.316  1.0688  1.4147  0.7714
 2305SOL     OW 8460   4.280   3.886   6.269  0.0099  0.3067 -0.3534
 2305SOL    HW1 8461   4.194   3.843   6.271 -0.0215  0.3499 -0.7431
 2305SOL    HW2 8462   4.298   3.908   6.360  0.1618 -0.8007 -0.1023
 2306SOL     OW 8463   4.800   5.856   0.640  0.2308  0.1599 -0.4884
 2306SOL    HW1 8464   4.882   5.812   0.622 -0.0051 -0.9827  1.0365
 2306SOL    HW2 8465   4.737   5.814   0.582  0.4989  0.2536 -0.8492
 2307SOL     OW 8466   0.868   3.395   4.882 -0.2388  0.1985  0.9244
 2307SOL    HW1 8467   0.815   3.474   4.877 -0.8313 -0.1599  1.4691
 2307SOL    HW2 8468   0.913   3.391   4.797  3.9077  3.9152  2.5205
 2308SOL     OW 8469   1.713   3.578   0.379  0.0056  0.2846  0.2179
 2308SOL    HW1 8470   1.680   3.489   0.365 -0.4843  0.8680 -3.3762
 2308SOL    HW2 8471   1.639   3.635   0.356  1.1442  1.5811 -0.4237
 2309SOL     OW 8472   0.722   2.583   0.999  0.2791 -0.3772 -0.4033
 2309SOL    HW1 8473   0.710   2.491   0.976  1.8197 -0.8252  0.4038
 2309SOL    HW2 8474   0.803   2.584   1.051  1.2127  1.6588 -1.7856
 2310SOL     OW 8475   3.002   4.654   1.058  1.0005 -1.4473 -0.4055
 2310SOL    HW1 8476   2.993   4.645   1.152  4.1488  0.0154  0.1700
 2310SOL    HW2 8477   3.029   4.567   1.028  2.0003 -1.4316  0.4002
 2311SOL     OW 8478   5.390   4.003   3.547 -0.0102  0.3448  0.4065
 2311SOL    HW1 8479   5.304   3.973   3.519 -0.1957  1.3505 -0.1836
 2311SOL    HW2 8480   5.372   4.066   3.617  0.3080 -0.1330  0.9291
 2312SOL     OW 8481   3.298   5.213   3.819 -0.5952  0.1414  0.5248
 2312SOL    HW1 8482   3.297   5.304   3.849 -1.6216  0.5341 -0.5867
 2312SOL    HW2 8483   3.256   5.216   3.732  1.0463 -1.1191 -0.3717
 2313SOL     OW 8484   4.625   0.405   0.604 -0.1451  0.0346 -0.3918
 2313SOL    HW1 8485   4.564   0.443   0.541 -0.9559  2.1971  1.6035
 2313SOL    HW2 8486   4.599   0.440   0.688  2.5915 -0.6192  0.8396
 2314SOL     OW 8487   5.631   1.831   1.292  0.0769  0.2113  0.2445
 2314SOL    HW1 8488   5.619   1.737   1.281  1.8992  0.1423 -1.8345
 2314SOL    HW2 8489   5.641   1.843   1.386  0.6623 -1.8001  0.4778
 2315SOL     OW 8490   6.170   3.983   0.306  0.3254  0.3954 -0.1416
 2315SOL    HW1 8491   6.099   3.947   0.359  0.5722 -0.0188 -0.0921
 2315SOL    HW2 8492   6.210   3.907   0.264  0.2698  0.6956 -0.7547
 2316SOL     OW 8493   5.943   4.635   4.304 -0.6153 -0.1415  0.0721
 2316SOL    HW1 8494   5.943   4.726   4.274 -0.2825 -0.0340  0.3834
 2316SOL    HW2 8495   5.867   4.595   4.262 -0.3110  0.0714 -0.7025
 2317SOL     OW 8496   6.487   6.455   0.814 -0.4116 -0.2949 -0.3963
 2317SOL    HW1 8497   6.470   6.532   0.869  2.7797  2.4989 -2.8150
 2317SOL    HW2 8498   6.434   6.469   0.736 -0.1036 -0.7214 -0.6875
 2318SOL     OW 8499   1.581   0.249   2.787  0.5477  0.0036  0.3129
 2318SOL    HW1 8500   1.557   0.239   2.879 -0.7113 -2.2112 -0.1617
 2318SOL    HW2 8501   1.544   0.333   2.761 -2.7037 -1.0872  0.8835
 2319SOL     OW 8502   5.385   2.285   3.683 -0.1959  0.5574 -0.2979
 2319SOL    HW1 8503   5.397   2.367   3.730  0.0356  1.0477 -1.1956
 2319SOL    HW2 8504   5.294   2.260   3.702 -0.1487  0.8061  0.2930
 2320SOL     OW 8505   5.266   2.923   1.807  0.1832 -0.0591  0.6018
 2320SOL    HW1 8506   5.207   2.983   1.762  3.0397  1.6889 -1.1279
 2320SOL    HW2 8507   5.318   2.979   1.864  1.5221 -1.1866  0.5243
 2321SOL     OW 8508   1.549   2.851   2.068  0.1679 -0.4055 -0.2461
 2321SOL    HW1 8509   1.493   2.782   2.103 -1.3658 -0.5433 -2.7368
 2321SOL    HW2 8510   1.501   2.886   1.992  1.7468  2.1234 -0.2111
 2322SOL     OW 8511   0.959   1.192   1.176  0.6485  0.1813 -0.1187
 2322SOL    HW1 8512   0.875   1.161   1.211  1.2635 -2.5083 -0.8473
 2322SOL    HW2 8513   1.018   1.117   1.184  2.8663  1.8270 -0.1652
 2323SOL     OW 8514   3.180   1.479   0.191  0.5709  0.0220 -0.2831
 2323SOL    HW1 8515   3.198   1.398   0.144  0.1378 -1.0612  1.3363
 2323SOL    HW2 8516   3.138   1.451   0.273  3.5028  1.5808  1.9682
 2324SOL     OW 8517   0.405   0.714   3.289 -0.4749 -0.0919  0.5057
 2324SOL    HW1 8518   0.402   0.792   3.345 -0.0747  0.6090 -0.4162
 2324SOL    HW2 8519   0.332   0.660   3.320 -0.4962  0.4513  1.4419
 2325SOL     OW 8520   2.676   0.592   1.919  0.2335 -0.3476 -0.1037
 2325SOL    HW1 8521   2.724   0.518   1.881  0.0151 -1.6926  2.0230
 2325SOL    HW2 8522   2.738   0.633   1.979 -0.3934 -0.3904  0.5938
 2326SOL     OW 8523   5.615   4.372   3.113 -0.4696  0.2098  0.5082
 2326SOL    HW1 8524   5.532   4.378   3.066 -0.7855  2.7685  1.2496
 2326SOL    HW2 8525   5.682   4.387   3.047 -0.7126  0.4009  0.3064
 2327SOL     OW 8526   6.161   0.800   3.089 -0.1803 -0.1032  0.5263
 2327SOL    HW1 8527   6.247   0.826   3.056  0.5020 -1.7126  0.9480
 2327SOL    HW2 8528   6.125   0.742   3.021 -0.9723  0.6041  0.3235
 2328SOL     OW 8529   4.949   4.130   6.583  0.4783  0.3316  0.0650
 2328SOL    HW1 8530   5.036   4.117   6.546  1.0184  1.3110  0.9425
 2328SOL    HW2 8531   4.962   4.121   6.678 -0.8021 -1.7879  0.1111
 2329SOL     OW 8532   6.281   6.401   5.984  0.0882 -0.4725 -0.6862
 2329SOL    HW1 8533   6.215   6.356   6.036 -0.4293  0.1391 -0.8118
 2329SOL    HW2 8534   6.271   6.493   6.005 -0.2491 -0.1845 -1.9859
 2330SOL     OW 8535   1.093   2.914   0.430  0.2446 -0.4972 -0.3508
 2330SOL    HW1 8536   1.117   3.001   0.460 -0.5418 -0.4823  0.2656
 2330SOL    HW2 8537   1.000   2.920   0.409 -0.1004 -1.4354  0.7367
 2331SOL     OW 8538   5.495   6.349   0.354 -0.2565 -0.1995 -0.2676
 2331SOL    HW1 8539   5.411   6.370   0.395  0.8421 -0.3068  2.1900
 2331SOL    HW2 8540   5.525   6.431   0.317 -0.9043  0.1061 -0.1324
 2332SOL     OW 8541   5.568   1.792   6.691 -0.1432 -0.5625 -0.3491
 2332SOL    HW1 8542   5.569   1.845   6.771  0.4888  0.6418 -1.1306
 2332SOL    HW2 8543   5.644   1.733   6.700  0.4485  0.1748 -0.4468
 2333SOL     OW 8544   4.299   2.018   1.948  0.3419 -0.0824 -0.0145
 2333SOL    HW1 8545   4.360   1.945   1.940  1.3177  0.5083  1.5316
 2333SOL    HW2 8546   4.218   1.986   1.909  1.0483 -1.6133 -0.2986
 2334SOL     OW 8547   6.780   2.030   3.213 -0.8996  0.2814  0.0721
 2334SOL    HW1 8548   6.875   2.037   3.224 -0.4072 -1.5726 -2.1905
 2334SOL    HW2 8549   6.759   2.102   3.154 -0.5748 -0.3370 -0.8194
 2335SOL     OW 8550   3.605   0.246   6.577  0.4691 -0.3749 -0.3827
 2335SOL    HW1 8551   3.599   0.224   6.484 -1.3152 -0.4878 -0.2727
 2335SOL    HW2 8552   3.597   0.341   6.579 -1.0535 -0.4910 -0.2612
 2336SOL     OW 8553   5.986   3.776   3.404  0.5725  0.0761  0.0131
 2336SOL    HW1 8554   5.992   3.792   3.310 -2.0659  1.2256 -0.0629
 2336SOL    HW2 8555   6.062   3.822   3.442  0.9661  0.6600 -1.4403
 2337SOL     OW 8556   0.880   4.664   4.745  0.4145  0.0006 -0.6140
 2337SOL    HW1 8557   0.849   4.574   4.755  1.8745 -0.5122 -0.4419
 2337SOL    HW2 8558   0.934   4.663   4.666 -0.1728  0.9239 -1.0522
 2338SOL     OW 8559   6.107   3.188   3.151  0.2440 -0.2890 -0.1540
 2338SOL    HW1 8560   6.152   3.121   3.100 -0.0539 -0.0554 -0.7266
 2338SOL    HW2 8561   6.122   3.162   3.242 -1.1360 -1.9861 -0.3583
 2339SOL     OW 8562   5.723   0.607   0.655 -0.3140  0.5231  0.0181
 2339SOL    HW1 8563   5.712   0.700   0.639  0.7981  0.8397  0.9497
 2339SOL    HW2 8564   5.728   0.599   0.750  4.1627  0.1845 -0.0357
 2340SOL     OW 8565   1.511   0.270   3.038 -0.0007  0.0715 -0.0788
 2340SOL    HW1 8566   1.498   0.321   3.118  0.7469  1.0991 -0.5904
 2340SOL    HW2 8567   1.503   0.179   3.067 -1.3756  0.4470  0.8543
 2341SOL     OW 8568   2.434   6.375   5.552  0.2783 -0.1529 -0.1650
 2341SOL    HW1 8569   2.418   6.468   5.538 -2.3292 -0.4472  0.4068
 2341SOL    HW2 8570   2.487   6.371   5.632  3.4222  0.8907 -2.0286
 2342SOL     OW 8571   4.911   6.243   6.390  0.2639 -0.1179 -0.0100
 2342SOL    HW1 8572   4.939   6.156   6.421 -1.9892 -0.6730  0.6199
 2342SOL    HW2 8573   4.835   6.265   6.445  1.0711  2.5147  0.2099
 2343SOL     OW 8574   3.625   3.642   2.979  0.3856 -0.0634 -0.3045
 2343SOL    HW1 8575   3.592   3.730   2.960 -0.8858 -0.6725 -1.0165
 2343SOL    HW2 8576   3.665   3.613   2.897  1.3413  0.0597  0.1011
 2344SOL     OW 8577   0.780   0.899   5.213  0.5808 -0.3926  0.1361
 2344SOL    HW1 8578   0.805   0.882   5.304 -0.6191  1.9084  0.9761
 2344SOL    HW2 8579   0.712   0.835   5.194 -0.1040 -0.0491  1.3399
 2345SOL     OW 8580   2.997   3.947   0.964 -0.2469  0.6037  0.2203
 2345SOL    HW1 8581   2.996   3.888   0.889 -0.6667  0.3894  0.3888
 2345SOL    HW2 8582   2.929   4.012   0.945 -0.0619  0.7985  0.2204
 2346SOL     OW 8583   1.580   3.275   6.425  0.0279  0.0578  0.4056
 2346SOL    HW1 8584   1.628   3.343   6.473 -1.0578 -0.3497  2.1692
 2346SOL    HW2 8585   1.493   3.312   6.413  0.1045 -0.1157 -0.7034
 2347SOL     OW 8586   1.617   0.781   4.589 -0.2114 -0.4337 -0.1679
 2347SOL    HW1 8587   1.617   0.850   4.656 -0.3748  0.5221 -1.1217
 2347SOL    HW2 8588   1.641   0.702   4.636 -1.4515 -0.0090  1.2524
 2348SOL     OW 8589   0.133   3.423   4.897  0.1532 -0.8072  0.2408
 2348SOL    HW1 8590   0.058   3.443   4.953  1.2692  0.0372  1.5131
 2348SOL    HW2 8591   0.147   3.329   4.909 -0.6113 -0.9481  0.0843
 2349SOL     OW 8592   1.084   4.575   2.846  0.2687  0.2531 -0.7014
 2349SOL    HW1 8593   1.150   4.617   2.901 -1.7322 -0.4366  2.5651
 2349SOL    HW2 8594   1.118   4.486   2.831  0.9514  0.5164 -0.7311
 2350SOL     OW 8595   2.711   5.683   0.545  0.0001 -0.4077  0.4010
 2350SOL    HW1 8596   2.717   5.607   0.603  1.2238  0.3993  1.3839
 2350SOL    HW2 8597   2.630   5.727   0.572  0.2589 -0.3578  1.1220
 2351SOL     OW 8598   2.841   1.420   5.778 -0.0872 -0.1778  0.2505
 2351SOL    HW1 8599   2.897   1.445   5.851  4.3570 -0.7032 -2.6140
 2351SOL    HW2 8600   2.845   1.325   5.776 -0.7719 -0.2013 -0.2348
 2352SOL     OW 8601   4.433   6.751   5.307 -0.4453  0.3196 -0.2566
 2352SOL    HW1 8602   4.347   6.747   5.349 -0.5540 -1.0392 -0.5902
 2352SOL    HW2 8603   4.483   6.813   5.361 -0.8023 -0.8538  1.4795
 2353SOL     OW 8604   3.978   1.480   4.943 -0.1110 -0.5078 -0.1730
 2353SOL    HW1 8605   3.971   1.524   4.858  0.0588 -0.7044 -0.2882
 2353SOL    HW2 8606   3.958   1.388   4.925  0.0968 -0.5826 -0.0312
 2354SOL     OW 8607   3.911   0.769   2.225 -0.2159 -0.2176  0.0692
 2354SOL    HW1 8608   3.893   0.752   2.318 -1.3428 -2.9240 -0.5556
 2354SOL    HW2 8609   3.878   0.857   2.211 -2.0876 -0.5580  1.7799
 2355SOL     OW 8610   2.535   0.698   4.554 -0.4057 -0.1776 -0.5499
 2355SOL    HW1 8611   2.607   0.736   4.605 -0.1403 -1.0739 -0.2497
 2355SOL    HW2 8612   2.474   0.665   4.620 -0.7794 -0.0177 -0.8124
 2356SOL     OW 8613   5.090   2.336   5.954 -0.1180 -0.1054  0.0156
 2356SOL    HW1 8614   5.003   2.306   5.979 -0.1744  0.0526  0.0135
 2356SOL    HW2 8615   5.145   2.318   6.030 -0.1447 -0.2367  0.0042
 2357SOL     OW 8616   4.439   4.303   6.244  0.1364  0.0383  0.2712
 2357SOL    HW1 8617   4.363   4.300   6.302 -0.8733 -0.7635 -1.0285
 2357SOL    HW2 8618   4.481   4.386   6.263 -1.1764  0.5867  0.9069
 2358SOL     OW 8619   3.004   3.787   3.293 -0.0452 -0.0107  0.2580
 2358SOL    HW1 8620   3.057   3.735   3.353  1.2486  0.0086 -0.8139
 2358SOL    HW2 8621   3.043   3.875   3.297  0.7206 -0.2491 -1.3314
 2359SOL     OW 8622   0.554   6.208   5.586 -0.4149  0.2554  0.2365
 2359SOL    HW1 8623   0.463   6.219   5.557 -0.8947 -0.3899  1.4334
 2359SOL    HW2 8624   0.553   6.128   5.638 -0.2508  2.5988  4.3148
 2360SOL     OW 8625   5.766   5.124   5.705  1.1451  0.3752  0.2211
 2360SOL    HW1 8626   5.800   5.190   5.644 -0.2180  1.4095  0.5447
 2360SOL    HW2 8627   5.771   5.166   5.790 -1.7034  0.9474  0.1965
 2361SOL     OW 8628   3.225   3.119   6.381 -0.3634 -0.0346  0.1118
 2361SOL    HW1 8629   3.137   3.098   6.349 -0.4982 -0.0755  0.5030
 2361SOL    HW2 8630   3.266   3.167   6.309 -0.8456  0.3253  0.0731
 2362SOL     OW 8631   4.573   5.717   6.266  0.1607 -0.3127 -0.3571
 2362SOL    HW1 8632   4.498   5.667   6.235 -0.3833  0.7576 -0.8262
 2362SOL    HW2 8633   4.574   5.704   6.361 -0.7837 -0.1094 -0.3143
 2363SOL     OW 8634   4.766   4.805   5.739  0.5113 -0.2941 -0.1528
 2363SOL    HW1 8635   4.838   4.816   5.677 -0.6472  0.9256 -1.3403
 2363SOL    HW2 8636   4.809   4.795   5.824  2.2413 -3.4306 -1.2200
 2364SOL     OW 8637   4.001   6.407   6.495 -0.0035 -0.2246  0.2049
 2364SOL    HW1 8638   3.989   6.467   6.421  0.2681  1.6077  1.5830
 2364SOL    HW2 8639   3.915   6.405   6.538  0.2865  0.1259  0.8224
 2365SOL     OW 8640   0.681   3.241   0.390 -0.2844  0.0018  0.0559
 2365SOL    HW1 8641   0.633   3.265   0.469 -0.1094  1.9171 -0.3710
 2365SOL    HW2 8642   0.751   3.306   0.383  1.1838 -1.5469 -0.4197
 2366SOL     OW 8643   1.307   1.129   2.848 -0.1946 -0.2767 -0.1371
 2366SOL    HW1 8644   1.327   1.194   2.780  0.5744  0.1007  0.4332
 2366SOL    HW2 8645   1.236   1.169   2.899 -0.8120 -0.5838 -0.7340
 2367SOL     OW 8646   1.470   6.763   1.080  0.4925 -0.2912 -0.6371
 2367SOL    HW1 8647   1.441   6.672   1.086 -0.1592 -0.0650 -0.2945
 2367SOL    HW2 8648   1.520   6.778   1.160 -0.7559  0.1144  0.0965
 2368SOL     OW 8649   4.381   1.876   2.276 -0.2791  0.2789  0.0127
 2368SOL    HW1 8650   4.415   1.825   2.203  1.0946  2.1670 -0.7408
 2368SOL    HW2 8651   4.431   1.846   2.352  1.3353  1.2649 -0.6309
 2369SOL     OW 8652   2.980   5.268   1.288  0.7912  0.1065  0.4892
 2369SOL    HW1 8653   2.922   5.342   1.309  1.0586 -0.0782  1.9422
 2369SOL    HW2 8654   3.042   5.265   1.360  1.3962 -0.9409 -0.0601
 2370SOL     OW 8655   4.501   0.989   2.325  0.4879 -0.1695 -0.2176
 2370SOL    HW1 8656   4.557   0.924   2.282  1.3430  0.6700 -0.4038
 2370SOL    HW2 8657   4.463   0.942   2.399  1.5206 -0.7349 -0.0252
 2371SOL     OW 8658   4.082   1.817   1.225 -0.2899 -0.3162 -0.4811
 2371SOL    HW1 8659   3.996   1.786   1.255  0.4369 -2.4864 -0.4857
 2371SOL    HW2 8660   4.131   1.738   1.205  1.0748  0.9114 -2.3982
 2372SOL     OW 8661   1.919   6.054   3.175 -0.1420 -0.0784  0.1849
 2372SOL    HW1 8662   1.847   6.089   3.227  0.4337  0.2257  0.7884
 2372SOL    HW2 8663   1.959   5.987   3.231 -0.2049 -0.5371 -0.3072
 2373SOL     OW 8664   1.859   1.013   0.263 -0.5638  0.3330 -0.5139
 2373SOL    HW1 8665   1.792   1.070   0.299  0.2866  0.7580  0.4398
 2373SOL    HW2 8666   1.811   0.934   0.238 -1.5834  1.0351 -0.8629
 2374SOL     OW 8667   0.789   5.988   1.394 -0.3553 -0.4478 -0.4476
 2374SOL    HW1 8668   0.846   5.931   1.446 -0.5387  0.2010  0.4747
 2374SOL    HW2 8669   0.704   5.984   1.439 -0.3382  0.6468 -0.3075
 2375SOL     OW 8670   0.527   4.160   1.296 -0.3523  0.0930 -0.0011
 2375SOL    HW1 8671   0.484   4.081   1.262 -1.8655  0.5652  0.7275
 2375SOL    HW2 8672   0.588   4.127   1.361 -0.6676 -0.5218 -0.0033
 2376SOL     OW 8673   4.804   3.287   2.032  0.1951  0.2889  0.1403
 2376SOL    HW1 8674   4.863   3.214   2.015 -0.6456 -0.4223  0.1720
 2376SOL    HW2 8675   4.728   3.247   2.074 -0.8200  0.9952 -0.9411
 2377SOL     OW 8676   4.757   1.358   3.559  0.2661  0.0680  0.2042
 2377SOL    HW1 8677   4.809   1.425   3.514  2.2391 -0.1948  1.9161
 2377SOL    HW2 8678   4.774   1.278   3.509 -1.7138  0.6536 -1.5571
 2378SOL     OW 8679   1.462   3.086   3.588  0.1666 -0.3719  0.1154
 2378SOL    HW1 8680   1.421   3.038   3.517 -1.0881  0.8299 -0.0183
 2378SOL    HW2 8681   1.447   3.178   3.567 -0.7334  0.0287  2.2011
 2379SOL     OW 8682   2.479   5.455   1.732  0.1459 -0.1206 -0.0924
 2379SOL    HW1 8683   2.491   5.541   1.692 -0.2999  0.3296  0.7070
 2379SOL    HW2 8684   2.540   5.454   1.805 -0.2490 -0.2606  0.2388
 2380SOL     OW 8685   4.531   3.706   5.795  0.2774 -0.0356  0.4077
 2380SOL    HW1 8686   4.579   3.718   5.713 -1.5963  1.3416 -0.5433
 2380SOL    HW2 8687   4.543   3.789   5.842  0.9085 -0.6285  1.3289
 2381SOL     OW 8688   0.448   6.161   6.681 -0.3666  0.0798  0.2396
 2381SOL    HW1 8689   0.444   6.257   6.687 -1.1942  0.1162 -0.5719
 2381SOL    HW2 8690   0.457   6.144   6.587  0.3630 -0.6345  0.4318
 2382SOL     OW 8691   5.830   2.427   1.810  0.0827  0.1902  0.0823
 2382SOL    HW1 8692   5.913   2.398   1.847 -0.8739 -2.6356  0.2930
 2382SOL    HW2 8693   5.846   2.436   1.716  0.5838 -0.6371  0.0778
 2383SOL     OW 8694   2.297   3.941   6.611 -0.0540  0.0998 -0.2462
 2383SOL    HW1 8695   2.371   3.880   6.611 -0.6998 -0.7562 -1.9803
 2383SOL    HW2 8696   2.303   3.986   6.527 -1.1638  0.4446 -0.1540
 2384SOL     OW 8697   6.723   5.491   4.918 -0.2005 -0.2779 -0.2627
 2384SOL    HW1 8698   6.636   5.492   4.960 -1.9437  0.5961 -3.5313
 2384SOL    HW2 8699   6.729   5.576   4.875  1.2133 -1.2576 -2.1075
 2385SOL     OW 8700   6.693   0.917   3.326  0.2754 -0.0162 -0.4933
 2385SOL    HW1 8701   6.681   0.822   3.326  0.2221 -0.0108  0.2695
 2385SOL    HW2 8702   6.608   0.951   3.298 -0.4927 -0.1160  1.5758
 2386SOL     OW 8703   0.468   1.807   6.491 -0.2102  0.1289 -0.0592
 2386SOL    HW1 8704   0.512   1.745   6.549  1.2502  1.4480  0.3391
 2386SOL    HW2 8705   0.502   1.786   6.404 -0.5369 -0.2986 -0.0864
 2387SOL     OW 8706   5.887   4.060   6.504 -0.1672  0.0204  0.0473
 2387SOL    HW1 8707   5.950   4.008   6.553  1.4076  2.0567  0.2760
 2387SOL    HW2 8708   5.826   4.093   6.570  0.1398  0.2814  0.1968
 2388SOL     OW 8709   0.732   5.698   4.501 -0.2306 -0.1980  0.2080
 2388SOL    HW1 8710   0.676   5.623   4.479 -1.6798  0.5271  1.2606
 2388SOL    HW2 8711   0.772   5.724   4.418 -0.2479 -1.6776 -0.3002
 2389SOL     OW 8712   6.569   0.116   3.694 -0.4100  0.1282 -0.1685
 2389SOL    HW1 8713   6.592   0.200   3.655  1.2981  0.2042  0.9166
 2389SOL    HW2 8714   6.538   0.138   3.782 -0.6515 -0.3378 -0.1328
 2390SOL     OW 8715   1.168   1.684   3.469 -0.4993 -0.4542  0.2222
 2390SOL    HW1 8716   1.147   1.647   3.384  0.6659 -0.7121  0.0327
 2390SOL    HW2 8717   1.190   1.775   3.450  0.4418 -0.6947  0.1471
 2391SOL     OW 8718   2.945   6.571   2.031  0.0511 -0.1721 -0.1426
 2391SOL    HW1 8719   3.023   6.550   1.981  0.5250 -0.1807  0.5958
 2391SOL    HW2 8720   2.945   6.667   2.037 -0.9528 -0.0490 -1.6542
 2392SOL     OW 8721   5.354   4.196   1.992  0.0181 -0.3461  0.1931
 2392SOL    HW1 8722   5.362   4.290   2.012  0.5716 -0.2170 -0.5770
 2392SOL    HW2 8723   5.443   4.162   2.001  0.0760 -0.5101 -0.8548
 2393SOL     OW 8724   2.357   1.962   5.084 -0.2284 -0.6490  0.4237
 2393SOL    HW1 8725   2.325   1.927   5.000 -0.6284  1.0337 -0.1540
 2393SOL    HW2 8726   2.447   1.990   5.065 -0.4342  0.0472  0.4524
 2394SOL     OW 8727   5.241   3.778   6.538 -0.2174 -0.1734 -0.2795
 2394SOL    HW1 8728   5.207   3.796   6.625  0.1508  0.3359 -0.2318
 2394SOL    HW2 8729   5.211   3.689   6.517 -0.8484 -0.0515  0.0951
 2395SOL     OW 8730   6.302   1.239   4.188 -0.2270  0.1201 -0.0514
 2395SOL    HW1 8731   6.234   1.253   4.254 -0.1110  0.6491 -0.0398
 2395SOL    HW2 8732   6.384   1.249   4.236 -0.1321 -1.0537  0.0494
 2396SOL     OW 8733   0.949   0.846   0.623 -0.2100 -0.0002  0.5823
 2396SOL    HW1 8734   0.982   0.867   0.710  0.6075  2.5249 -0.2607
 2396SOL    HW2 8735   0.995   0.765   0.599  0.1840 -0.2690  2.1273
 2397SOL     OW 8736   1.782   2.655   5.910 -0.8421 -0.0941 -0.3181
 2397SOL    HW1 8737   1.793   2.560   5.908 -0.3472 -0.0405 -0.1694
 2397SOL    HW2 8738   1.871   2.690   5.912 -1.0221  0.3512  0.4374
 2398SOL     OW 8739   0.789   0.284   3.944 -0.0300 -0.4598 -0.0497
 2398SOL    HW1 8740   0.718   0.340   3.976  0.3656  0.0103  0.0356
 2398SOL    HW2 8741   0.845   0.344   3.894  0.8763 -0.5697  0.7919
 2399SOL     OW 8742   6.695   1.838   1.023 -0.5406  0.2558  0.1007
 2399SOL    HW1 8743   6.680   1.747   0.995 -0.5277 -0.3941  2.0650
 2399SOL    HW2 8744   6.756   1.831   1.096  1.0587  2.0434 -0.9605
 2400SOL     OW 8745   6.109   2.413   6.164  0.3434 -0.2244  0.4751
 2400SOL    HW1 8746   6.031   2.365   6.192 -0.3704 -0.4822 -1.7839
 2400SOL    HW2 8747   6.087   2.505   6.181  1.0787 -0.4687  3.2921
 2401SOL     OW 8748   3.879   5.483   0.172  0.5049 -0.1378  0.1425
 2401SOL    HW1 8749   3.892   5.500   0.266 -1.0796  0.8749  0.2184
 2401SOL    HW2 8750   3.958   5.516   0.130  0.3476  1.3351  0.9469
 2402SOL     OW 8751   6.244   2.902   5.966  0.0011  0.2000  0.0822
 2402SOL    HW1 8752   6.162   2.909   6.014  0.0569 -2.6175  0.7756
 2402SOL    HW2 8753   6.252   2.809   5.946  1.5355  0.8055 -2.7056
 2403SOL     OW 8754   5.935   2.248   2.160  0.0892  0.6737  0.7457
 2403SOL    HW1 8755   5.948   2.342   2.168 -1.4427  0.9805 -0.1240
 2403SOL    HW2 8756   5.940   2.230   2.066 -0.0178 -0.0588  0.8708
 2404SOL     OW 8757   0.924   0.447   6.313  0.2547  0.0440 -0.6825
 2404SOL    HW1 8758   1.005   0.495   6.330  1.0583 -1.4752 -0.0150
 2404SOL    HW2 8759   0.855   0.513   6.321  1.4229  1.4158 -1.5246
 2405SOL     OW 8760   3.125   3.151   5.246 -0.5533  0.0079  0.0824
 2405SOL    HW1 8761   3.050   3.143   5.188 -0.6150  0.2227  0.1307
 2405SOL    HW2 8762   3.138   3.063   5.282 -0.4934 -0.1327 -0.2831
 2406SOL     OW 8763   6.495   4.512   2.329 -0.6485  0.1887  0.1057
 2406SOL    HW1 8764   6.502   4.426   2.371 -1.9784  0.3974  0.8123
 2406SOL    HW2 8765   6.554   4.568   2.380 -1.0124  0.0588  0.6799
 2407SOL     OW 8766   2.142   4.790   3.333 -0.0937 -0.2994  0.2931
 2407SOL    HW1 8767   2.110   4.700   3.346  2.4126 -1.3085  0.0487
 2407SOL    HW2 8768   2.178   4.790   3.245 -1.3530  1.4373 -0.2761
 2408SOL     OW 8769   5.183   5.636   1.674 -0.5991  0.0113 -0.0708
 2408SOL    HW1 8770   5.190   5.571   1.604 -0.9060 -0.2024  0.0923
 2408SOL    HW2 8771   5.181   5.720   1.629 -1.9403 -0.1750 -0.3989
 2409SOL     OW 8772   6.061   4.247   0.268 -0.3657  0.4179  0.1251
 2409SOL    HW1 8773   6.102   4.166   0.297 -1.1682 -0.6423 -1.5399
 2409SOL    HW2 8774   6.020   4.284   0.346  0.6325 -0.3864  1.0510
 2410SOL     OW 8775   4.063   1.970   1.804 -0.0171 -0.2344  0.5193
 2410SOL    HW1 8776   4.042   2.014   1.722 -0.3970 -2.8447 -0.8912
 2410SOL    HW2 8777   3.992   1.908   1.817  1.2978 -1.6163  1.4863
 2411SOL     OW 8778   5.785   2.531   0.276 -0.0475 -0.2362  0.2258
 2411SOL    HW1 8779   5.859   2.552   0.334  0.8031 -0.2033 -0.8325
 2411SOL    HW2 8780   5.810   2.570   0.192 -1.3280 -0.1546 -0.1268
 2412SOL     OW 8781   3.248   5.982   1.190 -0.2966  0.1579 -0.2696
 2412SOL    HW1 8782   3.306   6.034   1.246 -0.7314  0.1727  0.1767
 2412SOL    HW2 8783   3.274   5.891   1.206  0.0988  0.2035 -0.6363
 2413SOL     OW 8784   3.044   3.903   1.633 -0.3824  0.4269  0.6017
 2413SOL    HW1 8785   2.986   3.913   1.557  0.1998 -1.1885 -0.1170
 2413SOL    HW2 8786   3.124   3.865   1.596  0.1358  0.1569  1.9436
 2414SOL     OW 8787   1.572   3.253   3.871 -0.4270 -0.5386 -0.3862
 2414SOL    HW1 8788   1.598   3.197   3.944 -3.7967 -2.7045 -0.6308
 2414SOL    HW2 8789   1.560   3.340   3.909  0.3732 -1.0283  1.0339
 2415SOL     OW 8790   0.588   1.069   1.891 -0.1249  0.2240  0.1881
 2415SOL    HW1 8791   0.615   0.977   1.891  0.4194  0.3733  0.9978
 2415SOL    HW2 8792   0.633   1.107   1.817 -0.4916 -0.1959 -0.2603
 2416SOL     OW 8793   4.389   5.289   4.746  0.3914  0.0734 -0.3971
 2416SOL    HW1 8794   4.334   5.244   4.682  1.0351 -0.1889 -0.7784
 2416SOL    HW2 8795   4.475   5.247   4.737  0.4753  0.0022  0.6723
 2417SOL     OW 8796   4.619   1.652   4.906 -0.2491 -0.8362 -0.5698
 2417SOL    HW1 8797   4.628   1.557   4.904 -1.7117 -0.9792 -1.9535
 2417SOL    HW2 8798   4.619   1.674   5.000 -0.3934 -2.2482 -0.2223
 2418SOL     OW 8799   3.978   3.593   2.513 -0.3913 -0.2631  0.3883
 2418SOL    HW1 8800   3.894   3.583   2.467  2.1418 -1.2862 -4.6373
 2418SOL    HW2 8801   3.997   3.505   2.547 -0.1438 -0.7661 -0.9862
 2419SOL     OW 8802   2.118   6.555   5.369  0.4668 -0.2998  0.1648
 2419SOL    HW1 8803   2.190   6.599   5.415  0.7074  1.4226 -1.6846
 2419SOL    HW2 8804   2.159   6.520   5.290 -0.2685 -1.5540  0.3258
 2420SOL     OW 8805   4.136   0.409   1.066 -0.3026  0.1960 -0.1802
 2420SOL    HW1 8806   4.132   0.356   0.987 -0.0799  0.2073 -0.2005
 2420SOL    HW2 8807   4.154   0.347   1.136  0.6502  0.3156 -0.2960
 2421SOL     OW 8808   1.001   0.249   5.400 -0.1446 -1.0538  0.1197
 2421SOL    HW1 8809   1.012   0.313   5.471 -1.7067 -0.8821  0.2557
 2421SOL    HW2 8810   1.008   0.301   5.320 -0.1509 -0.9329  0.1968
 2422SOL     OW 8811   3.287   6.790   6.753 -0.6373 -0.7276 -0.5796
 2422SOL    HW1 8812   3.222   6.806   6.821  0.0091 -2.0059  0.4091
 2422SOL    HW2 8813   3.340   6.718   6.788  1.4434  0.3972 -1.2208
 2423SOL     OW 8814   1.497   3.916   5.930 -0.3971  0.3031 -0.4119
 2423SOL    HW1 8815   1.491   3.854   6.002 -2.2803  0.0112 -0.7695
 2423SOL    HW2 8816   1.411   3.959   5.928 -0.4768  0.1657 -2.5828
 2424SOL     OW 8817   5.617   2.179   6.553  0.0567  0.1774 -0.3290
 2424SOL    HW1 8818   5.580   2.240   6.617 -1.4191 -1.5737  0.6026
 2424SOL    HW2 8819   5.701   2.217   6.529  0.6027  1.0194  2.5179
 2425SOL     OW 8820   6.614   4.265   3.717  0.4373 -0.1476 -0.4080
 2425SOL    HW1 8821   6.526   4.256   3.754  0.3858  0.3464 -0.4007
 2425SOL    HW2 8822   6.661   4.187   3.746 -0.1917 -0.7326 -0.9507
 2426SOL     OW 8823   3.334   3.794   0.137  0.0487  0.1077 -0.1792
 2426SOL    HW1 8824   3.316   3.758   0.223  0.2405 -0.5217 -0.4015
 2426SOL    HW2 8825   3.429   3.797   0.131  0.0376  0.4895 -0.2330
 2427SOL     OW 8826   6.744   0.501   6.249  0.3606  0.4625 -0.6214
 2427SOL    HW1 8827   6.729   0.491   6.155 -0.7498  0.1742 -0.4256
 2427SOL    HW2 8828   6.669   0.457   6.290  1.3073 -0.2448  0.4138
 2428SOL     OW 8829   6.114   1.488   1.859 -0.1878  0.2406  0.2805
 2428SOL    HW1 8830   6.082   1.569   1.900 -1.8952 -0.4965  0.4763
 2428SOL    HW2 8831   6.048   1.423   1.879 -0.0233 -0.6770 -1.8671
 2429SOL     OW 8832   6.368   2.505   2.087 -0.1402 -0.3224  0.7090
 2429SOL    HW1 8833   6.363   2.436   2.153  1.7563 -1.4860 -0.2640
 2429SOL    HW2 8834   6.430   2.569   2.123  0.3361 -0.5936  0.3776
 2430SOL     OW 8835   1.240   3.256   4.519  0.1471  0.2234  0.2407
 2430SOL    HW1 8836   1.195   3.307   4.587 -1.8029  1.5690 -1.8835
 2430SOL    HW2 8837   1.199   3.170   4.522  0.2052  0.2161  0.8828
 2431SOL     OW 8838   6.000   6.672   4.195 -0.2532 -0.1666  0.2949
 2431SOL    HW1 8839   6.072   6.626   4.153  0.0229  0.1901  0.3743
 2431SOL    HW2 8840   6.015   6.661   4.289 -1.4131 -1.8147  0.3245
 2432SOL     OW 8841   1.928   3.357   4.626 -0.3690 -0.3175  0.5111
 2432SOL    HW1 8842   1.933   3.386   4.717  0.2449 -0.5867  0.5717
 2432SOL    HW2 8843   2.017   3.327   4.605 -0.0387  1.3751 -0.7164
 2433SOL     OW 8844   0.452   4.492   0.803  0.1641  0.5821 -0.0994
 2433SOL    HW1 8845   0.390   4.422   0.783  0.9854  0.0093 -0.6856
 2433SOL    HW2 8846   0.535   4.447   0.818  0.5941  1.3956  0.0130
 2434SOL     OW 8847   5.960   2.768   2.195  0.0704  0.0450  0.1827
 2434SOL    HW1 8848   6.041   2.757   2.245  0.2264  0.1216 -0.0510
 2434SOL    HW2 8849   5.984   2.824   2.121 -0.2588  0.2940  0.2605
 2435SOL     OW 8850   0.326   5.254   4.408  0.1053  0.2060 -0.3106
 2435SOL    HW1 8851   0.288   5.190   4.468 -0.5974 -1.2878 -2.2448
 2435SOL    HW2 8852   0.383   5.307   4.463 -2.5316  0.6819  2.1633
 2436SOL     OW 8853   5.447   4.536   0.805  0.1078 -0.3239 -0.4833
 2436SOL    HW1 8854   5.422   4.627   0.820  0.4612 -0.2958 -0.0578
 2436SOL    HW2 8855   5.396   4.510   0.728  0.6791  0.5056 -1.1646
 2437SOL     OW 8856   2.649   2.585   4.063  0.1775 -0.5791 -0.6454
 2437SOL    HW1 8857   2.744   2.582   4.061  0.1911 -0.6500 -0.1762
 2437SOL    HW2 8858   2.623   2.619   3.978  0.6503  0.0515 -0.5418
 2438SOL     OW 8859   1.936   5.878   1.003 -0.4051 -0.2050 -0.0407
 2438SOL    HW1 8860   1.962   5.968   0.987  0.9956 -0.1190  2.3533
 2438SOL    HW2 8861   1.994   5.826   0.947 -0.4086  0.3178 -0.5336
 2439SOL     OW 8862   4.907   0.297   3.944  0.1442  0.3016  0.3015
 2439SOL    HW1 8863   4.910   0.312   3.850  0.8969  1.2243  0.4627
 2439SOL    HW2 8864   4.856   0.216   3.954 -2.0589  1.4660 -0.7494
 2440SOL     OW 8865   2.748   0.139   1.240 -0.5021  0.0991 -0.1549
 2440SOL    HW1 8866   2.809   0.130   1.313 -1.4500 -1.6926  0.4856
 2440SOL    HW2 8867   2.733   0.050   1.209 -2.9868  0.4029 -0.0924
 2441SOL     OW 8868   6.577   0.679   2.144 -0.2871  0.2921  0.2077
 2441SOL    HW1 8869   6.595   0.610   2.080 -2.0936 -0.3066  0.2878
 2441SOL    HW2 8870   6.664   0.707   2.174  0.5213 -1.1970 -0.6016
 2442SOL     OW 8871   5.115   4.295   5.387 -0.0017  0.3839  0.5954
 2442SOL    HW1 8872   5.164   4.348   5.324  1.9027 -2.6420 -0.6761
 2442SOL    HW2 8873   5.155   4.316   5.471  1.6023  0.0842 -0.0579
 2443SOL     OW 8874   2.207   5.075   2.385  0.2115  0.1081  0.1324
 2443SOL    HW1 8875   2.264   5.033   2.321 -1.4193 -1.5584 -0.3102
 2443SOL    HW2 8876   2.249   5.059   2.469 -0.0902 -2.0574 -0.0731
 2444SOL     OW 8877   5.868   5.210   5.478 -0.5226 -0.0415 -0.0240
 2444SOL    HW1 8878   5.908   5.297   5.479 -0.4599 -0.0736  1.0304
 2444SOL    HW2 8879   5.783   5.223   5.437 -0.6536  0.5916  0.4344
 2445SOL     OW 8880   0.854   4.747   0.886  0.3148  0.6277 -0.0085
 2445SOL    HW1 8881   0.819   4.836   0.880  0.6737  0.9519  1.9385
 2445SOL    HW2 8882   0.786   4.698   0.932 -0.2094 -0.3289 -1.7483
 2446SOL     OW 8883   3.079   5.916   4.727 -0.2452 -0.2469 -0.1735
 2446SOL    HW1 8884   3.168   5.941   4.703  0.8552 -0.1164  3.4252
 2446SOL    HW2 8885   3.024   5.951   4.656  2.5784 -1.5825 -3.2705
 2447SOL     OW 8886   2.642   1.196   3.823  0.4594  0.2390  0.3764
 2447SOL    HW1 8887   2.561   1.191   3.874  1.1794 -0.8814  1.4563
 2447SOL    HW2 8888   2.685   1.275   3.854  0.4544  0.0603  0.8450
 2448SOL     OW 8889   5.214   6.678   1.777  0.2548 -0.0097  0.6154
 2448SOL    HW1 8890   5.139   6.629   1.745  0.3606  0.0597  0.2499
 2448SOL    HW2 8891   5.289   6.642   1.730  0.3212  0.5583  0.2713
 2449SOL     OW 8892   3.148   6.055   1.494 -0.2925 -0.3944 -0.4257
 2449SOL    HW1 8893   3.186   5.968   1.479 -1.0475 -0.3852 -2.8744
 2449SOL    HW2 8894   3.125   6.055   1.586 -0.8196 -3.0417 -0.4656
 2450SOL     OW 8895   1.416   2.214   3.987 -0.6910  0.1174 -0.3307
 2450SOL    HW1 8896   1.399   2.305   3.963 -1.5121 -0.6231 -2.8828
 2450SOL    HW2 8897   1.329   2.177   4.001 -0.4546 -0.6066 -0.7312
 2451SOL     OW 8898   5.056   4.502   6.399  0.3286  0.4147  0.2979
 2451SOL    HW1 8899   5.077   4.553   6.477  0.9625 -1.0066  1.0876
 2451SOL    HW2 8900   4.979   4.450   6.423  0.5213 -0.0298 -0.0253
 2452SOL     OW 8901   4.178   4.435   2.259  0.3636  1.0103  0.3185
 2452SOL    HW1 8902   4.095   4.459   2.216  0.8603  0.4335 -1.0252
 2452SOL    HW2 8903   4.245   4.464   2.197  1.1586  1.1328  1.2259
 2453SOL     OW 8904   1.977   5.156   6.339 -0.0555  0.2931 -0.3520
 2453SOL    HW1 8905   1.913   5.100   6.384 -0.6052  0.6981 -0.6175
 2453SOL    HW2 8906   1.924   5.218   6.290  0.5328  1.3476  0.2996
 2454SOL     OW 8907   0.335   3.960   1.219  0.0734  0.1350 -0.3017
 2454SOL    HW1 8908   0.260   4.001   1.177  0.8365  2.1029  0.1396
 2454SOL    HW2 8909   0.330   3.989   1.310  2.4958  2.1283 -0.7108
 2455SOL     OW 8910   0.570   0.725   5.204 -0.0784  0.9793  0.1218
 2455SOL    HW1 8911   0.506   0.700   5.137 -1.1500  2.3929  0.5553
 2455SOL    HW2 8912   0.540   0.680   5.284  1.0674 -0.5215 -0.2411
 2456SOL     OW 8913   2.457   5.768   0.669 -0.5765 -0.4635 -0.1195
 2456SOL    HW1 8914   2.383   5.721   0.630 -0.8402 -1.2276  1.2551
 2456SOL    HW2 8915   2.479   5.717   0.747  0.3092  0.7037  0.4085
 2457SOL     OW 8916   6.261   2.188   5.009  0.3891 -0.3990 -0.0136
 2457SOL    HW1 8917   6.312   2.110   5.033  0.2258  0.1209  2.2615
 2457SOL    HW2 8918   6.313   2.261   5.043 -1.0853  0.2332  0.9573
 2458SOL     OW 8919   0.267   2.177   5.700  0.2818  0.2286 -0.1012
 2458SOL    HW1 8920   0.312   2.206   5.621  3.0220  0.5291  1.4287
 2458SOL    HW2 8921   0.264   2.082   5.693  1.9037  0.1458  0.0780
 2459SOL     OW 8922   5.500   4.549   0.450  0.5759  0.2564 -0.2856
 2459SOL    HW1 8923   5.428   4.550   0.513  0.1908  0.2085 -0.7225
 2459SOL    HW2 8924   5.558   4.619   0.479  0.9328 -0.4457  0.7337
 2460SOL     OW 8925   5.764   4.489   2.909 -0.2774 -0.0680  0.0968
 2460SOL    HW1 8926   5.711   4.555   2.864  1.7911  0.2958 -2.0218
 2460SOL    HW2 8927   5.813   4.447   2.838  1.2239 -1.3235  1.8130
 2461SOL     OW 8928   0.412   6.741   2.118 -0.4003  0.2236 -0.1887
 2461SOL    HW1 8929   0.368   6.722   2.201 -1.3884  2.9126 -0.0053
 2461SOL    HW2 8930   0.341   6.767   2.059  0.5387  0.7046 -1.1447
 2462SOL     OW 8931   4.672   3.209   1.498 -0.0736  0.4527 -0.9013
 2462SOL    HW1 8932   4.670   3.277   1.565  0.4957  1.6316 -2.0234
 2462SOL    HW2 8933   4.667   3.127   1.546 -0.0161  1.2733  0.5479
 2463SOL     OW 8934   6.171   2.912   4.347  0.1537 -0.7201 -0.3336
 2463SOL    HW1 8935   6.168   2.959   4.264  1.7660  0.1494  0.0650
 2463SOL    HW2 8936   6.148   2.978   4.413  1.2536 -0.7621  0.1149
 2464SOL     OW 8937   2.613   5.418   3.394  0.0945 -0.2550  1.0616
 2464SOL    HW1 8938   2.698   5.391   3.428 -0.0445 -1.5654  0.4259
 2464SOL    HW2 8939   2.629   5.504   3.355  0.4803  0.8097  3.3945
 2465SOL     OW 8940   0.857   1.923   5.420 -0.3137 -0.7299  0.0268
 2465SOL    HW1 8941   0.843   1.872   5.500  1.0285 -0.0066  0.7505
 2465SOL    HW2 8942   0.850   2.014   5.448  0.6118 -0.4606 -0.5956
 2466SOL     OW 8943   5.176   6.741   2.776 -0.3136  0.0293 -0.2719
 2466SOL    HW1 8944   5.171   6.750   2.681 -1.5675  0.5232 -0.1666
 2466SOL    HW2 8945   5.183   6.647   2.791 -0.8188 -0.1008 -0.8310
 2467SOL     OW 8946   0.371   4.375   1.315 -0.3855  0.1942 -0.2118
 2467SOL    HW1 8947   0.417   4.291   1.317 -0.4612  0.1535 -0.1348
 2467SOL    HW2 8948   0.295   4.360   1.258 -0.2286  0.2999 -0.4475
 2468SOL     OW 8949   5.774   4.321   5.131  0.3895  0.1772  0.1629
 2468SOL    HW1 8950   5.865   4.335   5.104  1.1053  1.0817  2.7431
 2468SOL    HW2 8951   5.776   4.238   5.178 -0.5204 -0.6333 -1.1418
 2469SOL     OW 8952   6.550   0.331   4.387 -0.5273  0.4031  0.1935
 2469SOL    HW1 8953   6.556   0.340   4.482 -0.1705  0.3631  0.1757
 2469SOL    HW2 8954   6.456   0.327   4.370 -0.5816 -0.2244  0.6069
 2470SOL     OW 8955   0.733   5.131   0.136 -0.1202 -0.1823  0.0890
 2470SOL    HW1 8956   0.815   5.123   0.086  0.3314  0.4690  0.7127
 2470SOL    HW2 8957   0.708   5.040   0.155  0.5056 -0.3845 -0.0289
 2471SOL     OW 8958   2.950   3.132   1.976  0.2509  0.0425  0.0829
 2471SOL    HW1 8959   2.892   3.057   1.966  0.1306  0.2643 -0.9977
 2471SOL    HW2 8960   3.038   3.094   1.974  0.1853 -0.0985 -0.1686
 2472SOL     OW 8961   5.470   0.227   3.978 -0.2562  0.3933 -0.3854
 2472SOL    HW1 8962   5.391   0.219   3.923  0.6177 -0.1260 -1.6142
 2472SOL    HW2 8963   5.527   0.285   3.928  1.0019 -0.9615 -0.5777
 2473SOL     OW 8964   2.306   4.141   6.439 -0.1060 -0.0937 -0.0321
 2473SOL    HW1 8965   2.324   4.070   6.378  1.1735  0.7984 -0.7281
 2473SOL    HW2 8966   2.354   4.216   6.404 -0.7090  0.8830  1.1645
 2474SOL     OW 8967   3.180   0.546   5.214 -0.8116  1.0823  0.2396
 2474SOL    HW1 8968   3.169   0.452   5.224  0.9152  0.2317 -3.6627
 2474SOL    HW2 8969   3.243   0.570   5.283 -0.2910 -0.9067  0.5339
 2475SOL     OW 8970   5.709   1.867   2.165  0.1579  0.5329  0.1306
 2475SOL    HW1 8971   5.694   1.937   2.101  2.5641 -0.4518 -1.6730
 2475SOL    HW2 8972   5.639   1.878   2.229 -1.0903  2.9529 -1.4759
 2476SOL     OW 8973   2.440   0.933   4.966 -0.3567 -0.1421  0.1316
 2476SOL    HW1 8974   2.503   0.983   4.914  0.6971 -0.4819  1.0566
 2476SOL    HW2 8975   2.418   0.858   4.912 -2.3999  1.5114 -1.5422
 2477SOL     OW 8976   4.925   1.757   2.654 -0.0826 -0.1980  0.5799
 2477SOL    HW1 8977   4.856   1.817   2.680  0.1089  0.1882  0.2036
 2477SOL    HW2 8978   4.978   1.807   2.591 -0.3195 -0.9840 -0.2695
 2478SOL     OW 8979   3.856   1.402   3.475  0.1088  0.3173 -0.0428
 2478SOL    HW1 8980   3.887   1.475   3.422  1.2023  0.1741  0.3794
 2478SOL    HW2 8981   3.935   1.356   3.502 -0.5072 -0.4256  0.5546
 2479SOL     OW 8982   3.096   5.681   4.854  0.3641 -0.1837 -0.2541
 2479SOL    HW1 8983   3.011   5.682   4.897  0.1878  1.5202 -0.5690
 2479SOL    HW2 8984   3.097   5.761   4.802  2.8596  0.7917  1.1412
 2480SOL     OW 8985   0.991   4.789   4.528 -0.2171 -0.3179 -0.5031
 2480SOL    HW1 8986   1.028   4.858   4.583  0.2521 -0.2976 -0.8440
 2480SOL    HW2 8987   1.047   4.787   4.450  0.9036 -2.2802  0.2647
 2481SOL     OW 8988   0.861   2.055   4.637  0.0808  0.4575 -0.6801
 2481SOL    HW1 8989   0.825   2.023   4.555 -2.2657 -1.2844  0.8809
 2481SOL    HW2 8990   0.833   2.146   4.643  1.3741  1.0096 -2.3192
 2482SOL     OW 8991   2.807   6.322   4.587 -0.1174  0.3073  0.3118
 2482SOL    HW1 8992   2.852   6.340   4.669 -1.3763  0.8012  0.9269
 2482SOL    HW2 8993   2.737   6.261   4.611 -1.4710  1.6379 -0.0552
 2483SOL     OW 8994   5.503   3.153   6.627 -0.0207 -0.2599 -0.0309
 2483SOL    HW1 8995   5.416   3.181   6.658  0.0282 -1.5449  1.3938
 2483SOL    HW2 8996   5.492   3.061   6.603  0.8643 -0.3258 -0.2165
 2484SOL     OW 8997   0.786   3.039   2.902  0.0435 -0.9548  0.0916
 2484SOL    HW1 8998   0.803   2.970   2.837  0.7319  0.4885 -1.3253
 2484SOL    HW2 8999   0.744   3.109   2.852  0.3051  0.0876  1.2896
 2485SOL     OW 9000   6.520   6.310   2.546  0.0256 -0.4613 -0.4121
 2485SOL    HW1 9001   6.522   6.284   2.454  0.6265 -2.0580  0.0296
 2485SOL    HW2 9002   6.561   6.238   2.593  0.2284  0.5642  1.0711
 2486SOL     OW 9003   6.551   3.684   2.740 -0.0361  0.2543 -0.3630
 2486SOL    HW1 9004   6.535   3.669   2.833 -2.8002  1.1359 -0.6107
 2486SOL    HW2 9005   6.508   3.611   2.696 -0.8450  1.0906 -1.0024
 2487SOL     OW 9006   5.828   1.743   6.785 -0.1122 -0.3961  0.2036
 2487SOL    HW1 9007   5.923   1.729   6.784 -0.2462 -1.5919  1.6950
 2487SOL    HW2 9008   5.818   1.839   6.786  1.1437 -0.2365  2.2222
 2488SOL     OW 9009   4.204   4.753   1.562  0.5523  0.3031  0.1342
 2488SOL    HW1 9010   4.270   4.723   1.498 -0.1384 -0.0302 -0.4402
 2488SOL    HW2 9011   4.217   4.696   1.638 -0.3102 -1.0729 -0.6971
 2489SOL     OW 9012   0.701   2.837   6.605  0.2131 -0.2287  0.4557
 2489SOL    HW1 9013   0.690   2.929   6.630  0.0029  0.1132 -0.8656
 2489SOL    HW2 9014   0.733   2.839   6.515 -0.0827 -1.4583  0.3031
 2490SOL     OW 9015   0.698   1.852   3.780 -0.0999  0.2033 -0.2454
 2490SOL    HW1 9016   0.775   1.865   3.725 -0.6433  0.4191 -0.9754
 2490SOL    HW2 9017   0.625   1.881   3.726 -0.5965  1.0458  0.8336
 2491SOL     OW 9018   5.319   1.384   3.013 -0.4547  0.4549 -0.0642
 2491SOL    HW1 9019   5.404   1.425   3.030  0.8687 -1.9543 -0.5012
 2491SOL    HW2 9020   5.264   1.410   3.088  1.2558  0.5201  1.2155
 2492SOL     OW 9021   2.877   6.462   2.290 -0.3142 -0.4848 -0.3917
 2492SOL    HW1 9022   2.919   6.511   2.219  0.9193  0.2820  0.8105
 2492SOL    HW2 9023   2.871   6.372   2.257 -0.0103 -0.0943 -1.5565
 2493SOL     OW 9024   1.068   4.570   0.018  0.1035 -0.0409  0.1871
 2493SOL    HW1 9025   1.159   4.578  -0.009  0.4066 -1.3437  0.7270
 2493SOL    HW2 9026   1.051   4.475   0.018 -0.4823 -0.0049  2.5123
 2494SOL     OW 9027   5.155   0.724   4.314  0.1087 -0.0224  0.3035
 2494SOL    HW1 9028   5.073   0.681   4.337  1.1938 -1.5551  1.5196
 2494SOL    HW2 9029   5.222   0.674   4.361  1.8612  0.4818 -1.5303
 2495SOL     OW 9030   5.362   6.619   5.180 -0.0342 -0.1655  0.1420
 2495SOL    HW1 9031   5.319   6.651   5.259  1.5014 -0.2705  1.0535
 2495SOL    HW2 9032   5.309   6.544   5.152  0.6204 -1.5511  2.3797
 2496SOL     OW 9033   5.081   5.805   3.495  0.1999 -0.2784  0.2088
 2496SOL    HW1 9034   5.128   5.882   3.461  1.3674 -0.5742  1.0950
 2496SOL    HW2 9035   4.989   5.831   3.494  0.5521  1.0340  0.2421
 2497SOL     OW 9036   0.173   4.264   3.595  0.0145  0.5766 -0.6376
 2497SOL    HW1 9037   0.229   4.203   3.547 -0.1954  0.1168 -0.3058
 2497SOL    HW2 9038   0.103   4.286   3.532 -1.1200 -1.2140 -0.0882
 2498SOL     OW 9039   5.184   4.991   6.145  0.0331  0.3471  0.7690
 2498SOL    HW1 9040   5.251   5.059   6.142  0.1718  0.2073 -1.4108
 2498SOL    HW2 9041   5.149   4.995   6.234 -0.0720  3.3758  0.7121
 2499SOL     OW 9042   0.436   4.334   0.356  0.3086 -0.1770 -0.4018
 2499SOL    HW1 9043   0.357   4.288   0.328  0.2494 -1.1369  1.2688
 2499SOL    HW2 9044   0.501   4.313   0.289 -0.5223 -0.2527 -1.2154
 2500SOL     OW 9045   6.687   3.999   3.763  0.4583  0.1647  0.3776
 2500SOL    HW1 9046   6.708   3.954   3.681  1.8107  0.4771  0.5294
 2500SOL    HW2 9047   6.658   3.929   3.822 -0.3997 -0.0769 -0.3137
 2501SOL     OW 9048   3.373   1.205   1.352 -0.5701 -0.6513 -0.2140
 2501SOL    HW1 9049   3.405   1.216   1.442 -1.0855  1.7472 -0.2558
 2501SOL    HW2 9050   3.399   1.116   1.328  1.0768 -0.7656  1.7066
 2502SOL     OW 9051   0.979   4.942   5.574 -0.0108 -0.3321  0.1718
 2502SOL    HW1 9052   0.894   4.927   5.615 -0.7260  0.4496 -0.9605
 2502SOL    HW2 9053   1.018   5.014   5.623  0.6907 -1.6593  1.6463
 2503SOL     OW 9054   4.747   5.158   5.504  0.0303 -0.4294  0.4126
 2503SOL    HW1 9055   4.827   5.108   5.488 -0.7174 -1.6197  0.3559
 2503SOL    HW2 9056   4.677   5.107   5.464 -0.7512  0.7264  0.2332
 2504SOL     OW 9057   3.030   6.586   1.524 -0.0919  0.4105 -0.2172
 2504SOL    HW1 9058   3.072   6.667   1.497 -0.6740  0.7986  0.0252
 2504SOL    HW2 9059   3.063   6.520   1.463  0.7411  0.7337 -0.1286
 2505SOL     OW 9060   6.317   5.087   0.109  0.7292  0.3583 -0.2142
 2505SOL    HW1 9061   6.297   5.043   0.191 -0.3442 -0.8444 -1.0657
 2505SOL    HW2 9062   6.412   5.097   0.109  0.6950  0.7750  1.3489
 2506SOL     OW 9063   2.137   0.782   3.285 -0.1748  0.2288 -0.0688
 2506SOL    HW1 9064   2.100   0.843   3.349 -1.0107 -0.3064 -0.0268
 2506SOL    HW2 9065   2.172   0.838   3.216  0.4905  0.8042  0.7156
 2507SOL     OW 9066   2.951   0.440   0.449 -0.2276  0.3663 -0.1303
 2507SOL    HW1 9067   2.876   0.424   0.392 -0.1012  0.5394 -0.3462
 2507SOL    HW2 9068   2.913   0.468   0.532 -0.5692 -2.4005  0.7789
 2508SOL     OW 9069   3.123   2.875   5.029  0.4239 -0.0170 -0.1188
 2508SOL    HW1 9070   3.081   2.939   4.972  0.0964  0.5627  0.7416
 2508SOL    HW2 9071   3.164   2.812   4.970  2.2558  1.9251 -1.0479
 2509SOL     OW 9072   3.923   4.921   2.638  0.6189  0.2981 -0.0981
 2509SOL    HW1 9073   3.863   4.853   2.610  1.1829 -0.2383 -0.0312
 2509SOL    HW2 9074   3.997   4.873   2.677 -0.1571  0.9830  2.3747
 2510SOL     OW 9075   2.410   5.741   1.833  0.1968  0.5315 -0.2867
 2510SOL    HW1 9076   2.414   5.837   1.839 -0.1960  0.6728 -1.8739
 2510SOL    HW2 9077   2.432   5.711   1.921 -1.8453  2.1283  0.8517
 2511SOL     OW 9078   4.763   1.865   6.142  0.0892 -0.1035  0.3625
 2511SOL    HW1 9079   4.717   1.938   6.100  1.4020  0.7327  0.3425
 2511SOL    HW2 9080   4.799   1.815   6.069  1.5368  0.8046  0.4081
 2512SOL     OW 9081   4.977   3.513   5.701 -0.6328  0.6642  0.1926
 2512SOL    HW1 9082   5.021   3.428   5.707 -1.4753  0.0219 -1.9653
 2512SOL    HW2 9083   4.885   3.492   5.685 -0.3606  1.8263 -3.9924
 2513SOL     OW 9084   4.053   6.381   0.390  0.4898 -0.1623 -0.2641
 2513SOL    HW1 9085   4.008   6.452   0.343 -0.1280 -1.3683 -1.5501
 2513SOL    HW2 9086   4.146   6.395   0.372  0.4082  0.5260 -0.1925
 2514SOL     OW 9087   2.739   4.688   0.461  0.2683 -0.3652 -0.2749
 2514SOL    HW1 9088   2.796   4.765   0.456 -0.1754  0.0749  0.9628
 2514SOL    HW2 9089   2.740   4.664   0.553 -0.1926 -1.3998 -0.5322
 2515SOL     OW 9090   0.483   0.752   2.437  0.2298  0.4191 -0.4390
 2515SOL    HW1 9091   0.417   0.811   2.473  0.8986  1.1676 -0.4093
 2515SOL    HW2 9092   0.523   0.802   2.366  0.8373  0.0177 -0.3811
 2516SOL     OW 9093   1.819   2.579   1.014 -0.4070  0.0669  0.2070
 2516SOL    HW1 9094   1.805   2.554   0.922 -0.0571 -0.6120  0.3312
 2516SOL    HW2 9095   1.771   2.661   1.024  0.3576  0.6582 -0.8384
 2517SOL     OW 9096   1.663   5.032   1.901 -0.0219 -0.6551  0.7266
 2517SOL    HW1 9097   1.696   5.089   1.971 -0.5573  0.7696 -0.1318
 2517SOL    HW2 9098   1.656   4.946   1.942  0.9267 -0.1504  2.0482
 2518SOL     OW 9099   3.457   6.727   6.106  0.2882  0.1379 -0.4697
 2518SOL    HW1 9100   3.520   6.773   6.050  0.9099 -0.0072  0.1077
 2518SOL    HW2 9101   3.413   6.666   6.047  0.0827  0.8245 -1.0584
 2519SOL     OW 9102   0.552   0.009   3.342  0.0905 -0.0528 -0.1152
 2519SOL    HW1 9103   0.519  -0.021   3.257 -1.1866  2.4304 -0.5799
 2519SOL    HW2 9104   0.647   0.020   3.328 -0.0122 -0.2328 -1.0503
 2520SOL     OW 9105   3.717   3.388   6.393 -0.2165 -0.3541  0.0345
 2520SOL    HW1 9106   3.808   3.367   6.372 -0.4907 -3.0095  1.0776
 2520SOL    HW2 9107   3.720   3.476   6.429  1.7866 -0.0089 -0.8486
 2521SOL     OW 9108   0.607   5.444   2.790 -0.0351 -0.3652 -0.2466
 2521SOL    HW1 9109   0.588   5.524   2.741  0.3786  0.1837  0.4659
 2521SOL    HW2 9110   0.526   5.424   2.836  0.0731  0.0506  0.1290
 2522SOL     OW 9111   3.046   4.214   5.249  0.5614 -0.5751  0.3206
 2522SOL    HW1 9112   3.034   4.158   5.173 -0.5097  0.9382 -0.6909
 2522SOL    HW2 9113   3.020   4.159   5.323 -0.3315 -1.4760 -0.6172
 2523SOL     OW 9114   0.503   0.670   3.007  0.1951 -0.0017 -0.1187
 2523SOL    HW1 9115   0.485   0.756   2.968  0.2421  1.0022  1.8972
 2523SOL    HW2 9116   0.474   0.680   3.098  0.1860 -2.1540  0.1497
 2524SOL     OW 9117   4.045   1.622   0.624 -0.1255 -0.2954 -0.6051
 2524SOL    HW1 9118   4.043   1.706   0.671 -0.7853  0.1187 -1.3520
 2524SOL    HW2 9119   4.098   1.639   0.546 -1.8392  0.0105 -1.7787
 2525SOL     OW 9120   1.211   2.875   1.441  0.1648 -0.2591 -0.2233
 2525SOL    HW1 9121   1.182   2.830   1.361  0.3208 -0.6840 -0.0413
 2525SOL    HW2 9122   1.138   2.933   1.463 -0.0100 -0.3730 -0.4947
 2526SOL     OW 9123   2.200   4.914   5.584 -0.1011 -0.1005 -0.5847
 2526SOL    HW1 9124   2.111   4.928   5.616 -0.3724  2.5763 -2.2416
 2526SOL    HW2 9125   2.256   4.950   5.654 -0.4206  0.3351 -0.5501
 2527SOL     OW 9126   5.008   0.345   2.433  0.1323  0.7643  0.4424
 2527SOL    HW1 9127   5.011   0.293   2.513  4.0879  0.3067  0.2069
 2527SOL    HW2 9128   5.003   0.280   2.362  0.9904  0.8928  0.2523
 2528SOL     OW 9129   0.553   2.254   1.022  0.0646 -0.3118  0.3128
 2528SOL    HW1 9130   0.507   2.177   1.054  0.2689  0.2765  2.1566
 2528SOL    HW2 9131   0.489   2.298   0.965 -0.1957 -1.5929 -0.4192
 2529SOL     OW 9132   3.881   0.814   3.806  0.0948 -0.4103 -0.3460
 2529SOL    HW1 9133   3.799   0.807   3.855  0.3589 -1.7437 -0.0631
 2529SOL    HW2 9134   3.878   0.743   3.743  0.5965  0.1539 -1.0121
 2530SOL     OW 9135   3.164   1.256   0.023 -0.6229 -0.0365 -0.1850
 2530SOL    HW1 9136   3.184   1.282  -0.066 -0.5521 -0.9585 -0.4494
 2530SOL    HW2 9137   3.069   1.266   0.031 -0.4746  1.4290  0.1135
 2531SOL     OW 9138   2.854   3.545   4.769  0.6991 -0.2742 -0.1757
 2531SOL    HW1 9139   2.820   3.617   4.715 -0.7997  0.3939  1.5309
 2531SOL    HW2 9140   2.812   3.467   4.734 -0.1954  0.1389 -0.0587
 2532SOL     OW 9141   6.198   1.892   5.709 -0.2291 -0.3282  0.1972
 2532SOL    HW1 9142   6.271   1.946   5.677 -0.9654  0.2655 -0.5225
 2532SOL    HW2 9143   6.239   1.809   5.733  0.9126  0.5002  1.2544
 2533SOL     OW 9144   0.376   3.465   2.963  0.8469 -0.4598 -0.0141
 2533SOL    HW1 9145   0.434   3.498   2.895  0.2008 -0.9604 -0.8156
 2533SOL    HW2 9146   0.390   3.370   2.963  0.3692 -0.5331  0.1143
 2534SOL     OW 9147   5.011   0.631   5.920 -0.6237  0.4340 -0.0276
 2534SOL    HW1 9148   4.990   0.541   5.894 -1.3621  0.4242  0.5511
 2534SOL    HW2 9149   5.106   0.634   5.922 -0.5912 -0.2991 -0.1876
 2535SOL     OW 9150   3.116   5.920   4.131 -0.0370  0.1041  0.4608
 2535SOL    HW1 9151   3.074   6.000   4.163 -1.6087 -0.2280 -0.7028
 2535SOL    HW2 9152   3.154   5.945   4.047  2.7512  0.5609  1.7334
 2536SOL     OW 9153   1.281   3.371   2.808  0.2270  0.5010  0.3234
 2536SOL    HW1 9154   1.354   3.359   2.869 -0.3753  0.5901  1.0745
 2536SOL    HW2 9155   1.232   3.290   2.812 -0.0403  0.6587  0.2594
 2537SOL     OW 9156   6.087   0.188   4.194  0.7826 -0.3242 -0.2178
 2537SOL    HW1 9157   6.055   0.169   4.106  1.1186  0.9686 -0.6451
 2537SOL    HW2 9158   6.011   0.176   4.250  0.1901  0.2494 -0.8793
 2538SOL     OW 9159   1.620   5.033   3.478  0.2875 -0.0631 -0.2378
 2538SOL    HW1 9160   1.701   5.082   3.462  0.7881 -0.9117 -0.3786
 2538SOL    HW2 9161   1.611   4.976   3.402  0.6066 -1.3505  0.6409
 2539SOL     OW 9162   5.726   2.309   6.019 -0.0359  0.0410 -0.1029
 2539SOL    HW1 9163   5.760   2.234   5.971  3.7047  1.3483  0.1551
 2539SOL    HW2 9164   5.770   2.385   5.980 -1.0791  1.7239  1.7787
 2540SOL     OW 9165   5.788   3.223   6.033  0.5867  0.2841  0.4737
 2540SOL    HW1 9166   5.746   3.145   6.069 -0.0798  0.0583 -0.7318
 2540SOL    HW2 9167   5.736   3.296   6.066 -0.3908  0.0431 -0.4752
 2541SOL     OW 9168   6.013   6.297   4.097 -0.7189  0.3498  0.3044
 2541SOL    HW1 9169   5.931   6.315   4.052  0.0638  0.8542 -0.9713
 2541SOL    HW2 9170   6.065   6.376   4.086 -0.3220  0.3189  1.7491
 2542SOL     OW 9171   6.210   1.453   0.188  0.5085 -0.6317  0.3647
 2542SOL    HW1 9172   6.167   1.372   0.159  0.6501 -0.9187  0.9370
 2542SOL    HW2 9173   6.263   1.480   0.113 -1.9198  0.6591 -1.0043
 2543SOL     OW 9174   4.685   2.327   3.395 -0.1368 -0.2851 -0.3184
 2543SOL    HW1 9175   4.761   2.357   3.345  0.4475 -0.3753  0.5084
 2543SOL    HW2 9176   4.711   2.335   3.486 -1.3581  0.2798 -0.0028
 2544SOL     OW 9177   5.821   5.793   2.000 -0.2755  0.1759  0.2581
 2544SOL    HW1 9178   5.810   5.871   1.945 -1.5376  0.7504  1.2621
 2544SOL    HW2 9179   5.797   5.720   1.943  1.3115  0.4443 -0.8223
 2545SOL     OW 9180   4.905   4.549   6.764  0.0503 -0.8104  0.0079
 2545SOL    HW1 9181   4.855   4.533   6.684 -1.4933 -3.5168  1.3696
 2545SOL    HW2 9182   4.847   4.520   6.834  2.4079 -1.1849  1.9206
 2546SOL     OW 9183   0.292   6.255   3.012  0.3778 -0.1467 -0.5908
 2546SOL    HW1 9184   0.339   6.336   2.995  0.0636 -0.2618 -2.2212
 2546SOL    HW2 9185   0.331   6.192   2.951  1.5030 -1.6084  1.5230
 2547SOL     OW 9186   5.947   1.901   2.371 -0.2517 -0.3498  0.3924
 2547SOL    HW1 9187   5.948   1.805   2.375 -1.0287 -0.4971 -1.5988
 2547SOL    HW2 9188   5.876   1.922   2.310 -1.1898  1.5943  2.0189
 2548SOL     OW 9189   0.084   5.225   2.863  0.1172  0.0183 -0.4437
 2548SOL    HW1 9190   0.073   5.285   2.789  0.7004 -0.4914 -0.9574
 2548SOL    HW2 9191   0.080   5.138   2.823 -0.9727 -0.3112  0.3193
 2549SOL     OW 9192   3.162   5.499   1.693  0.0450 -0.9128 -0.3884
 2549SOL    HW1 9193   3.187   5.471   1.605  0.2262 -1.3753 -0.1938
 2549SOL    HW2 9194   3.243   5.533   1.731 -0.3442  0.7179 -0.9193
 2550SOL     OW 9195   0.510   1.301   3.722 -0.1773  0.0560  0.1497
 2550SOL    HW1 9196   0.557   1.222   3.696 -0.4278 -0.0439 -0.0119
 2550SOL    HW2 9197   0.426   1.268   3.755 -0.2796  0.2536  0.0868
 2551SOL     OW 9198   2.026   3.482   3.955 -0.0035  0.4059 -0.1547
 2551SOL    HW1 9199   2.000   3.468   4.046  1.6204 -0.2834  0.2448
 2551SOL    HW2 9200   2.085   3.557   3.958  1.1948 -0.4920 -0.3835
 2552SOL     OW 9201   0.292   1.316   1.289  0.1221 -0.4233 -0.0588
 2552SOL    HW1 9202   0.358   1.364   1.339  0.5784 -0.2869 -0.7634
 2552SOL    HW2 9203   0.213   1.321   1.342  0.6095 -0.3499  0.6720
 2553SOL     OW 9204   5.493   0.452   2.393  0.0562  0.3101  0.1498
 2553SOL    HW1 9205   5.488   0.439   2.299  2.8236  0.3788 -0.0788
 2553SOL    HW2 9206   5.447   0.534   2.409  1.2428  1.3305 -1.4356
 2554SOL     OW 9207   3.376   1.449   5.359 -0.6411  0.3909  0.0097
 2554SOL    HW1 9208   3.418   1.394   5.425  0.4200  0.1718 -0.8298
 2554SOL    HW2 9209   3.433   1.526   5.352 -0.2860  0.0325 -1.2307
 2555SOL     OW 9210   4.424   1.017   4.015 -0.2623  0.5581  0.3487
 2555SOL    HW1 9211   4.517   0.996   4.024  0.9517  2.4414 -4.4275
 2555SOL    HW2 9212   4.411   1.094   4.069  1.4167  1.1289 -0.0017
 2556SOL     OW 9213   3.761   3.970   6.800  0.0220  0.9468  0.2813
 2556SOL    HW1 9214   3.751   3.875   6.810  1.2675  0.6980 -0.5782
 2556SOL    HW2 9215   3.850   3.981   6.765 -0.2242  2.4105  0.0573
 2557SOL     OW 9216   5.319   2.467   2.954  0.4059 -0.7766  0.1796
 2557SOL    HW1 9217   5.237   2.491   2.911  0.4660  3.5586  1.9250
 2557SOL    HW2 9218   5.376   2.439   2.883 -1.6831 -1.2300 -1.4403
 2558SOL     OW 9219   3.957   2.086   2.168  0.0267 -0.2701 -0.2712
 2558SOL    HW1 9220   3.990   2.048   2.086 -0.4405 -0.4880 -0.3658
 2558SOL    HW2 9221   4.028   2.075   2.230  0.1280 -0.7426 -0.4653
 2559SOL     OW 9222   2.231   1.733   3.460  0.3520  0.8984  0.3152
 2559SOL    HW1 9223   2.138   1.739   3.437  0.6084  0.7491 -0.7849
 2559SOL    HW2 9224   2.277   1.755   3.379  1.3024  3.2063  1.4044
 2560SOL     OW 9225   1.178   5.546   6.140  0.3947  0.2177 -0.3472
 2560SOL    HW1 9226   1.265   5.517   6.166  0.2814  0.2158  0.0300
 2560SOL    HW2 9227   1.179   5.541   6.044  1.7452  2.7978 -0.5722
 2561SOL     OW 9228   0.873   6.640   5.865 -0.4830  0.3738  0.2981
 2561SOL    HW1 9229   0.819   6.562   5.882  0.5910  0.1543  3.2348
 2561SOL    HW2 9230   0.820   6.713   5.897 -1.0010  0.7743 -1.3793
 2562SOL     OW 9231   1.764   1.890   3.373 -0.4659 -0.2701 -0.4632
 2562SOL    HW1 9232   1.785   1.914   3.463  3.1140 -0.2402 -1.1703
 2562SOL    HW2 9233   1.791   1.965   3.321 -2.7713 -0.1483 -1.6398
 2563SOL     OW 9234   1.803   4.914   2.475 -0.2873  0.0019 -0.1087
 2563SOL    HW1 9235   1.895   4.897   2.492 -0.3012  0.0154 -0.0145
 2563SOL    HW2 9236   1.758   4.833   2.501 -0.3875  0.2868  0.6596
 2564SOL     OW 9237   6.705   3.765   6.662 -0.0599 -0.1152 -0.8864
 2564SOL    HW1 9238   6.640   3.708   6.624 -1.0949  0.4200  0.0122
 2564SOL    HW2 9239   6.702   3.746   6.756  0.9615  0.0425 -0.8029
 2565SOL     OW 9240   3.243   2.283   4.903 -0.4028 -0.2554  0.1088
 2565SOL    HW1 9241   3.186   2.275   4.980 -0.0137  1.9576  0.6933
 2565SOL    HW2 9242   3.213   2.214   4.845 -3.3171  0.3977  0.6513
 2566SOL     OW 9243   0.687   5.128   5.055  0.2197  0.0920 -0.3965
 2566SOL    HW1 9244   0.606   5.101   5.012  0.7142 -0.6380 -0.8950
 2566SOL    HW2 9245   0.731   5.046   5.076  1.1801  0.4863 -0.8200
 2567SOL     OW 9246   4.413   4.389   2.068 -0.1209 -0.2851  0.4860
 2567SOL    HW1 9247   4.480   4.418   2.130 -0.2678  0.1575  0.4392
 2567SOL    HW2 9248   4.453   4.400   1.982  0.6399 -2.2823  0.5254
 2568SOL     OW 9249   3.965   5.735   2.820  1.0456  0.1955  0.6860
 2568SOL    HW1 9250   3.973   5.738   2.725 -1.3092  1.7023  0.4406
 2568SOL    HW2 9251   4.051   5.761   2.853  1.5188  0.9712 -1.0486
 2569SOL     OW 9252   4.825   6.434   1.502 -0.1369 -0.2660 -0.5979
 2569SOL    HW1 9253   4.770   6.356   1.515  0.5640 -0.5555  0.8877
 2569SOL    HW2 9254   4.781   6.483   1.432 -1.6509 -1.0492 -0.2478
 2570SOL     OW 9255   2.822   4.317   1.824 -0.3614 -0.0956 -0.3018
 2570SOL    HW1 9256   2.895   4.326   1.887  0.2575  0.8733 -1.1258
 2570SOL    HW2 9257   2.748   4.357   1.868  0.5667  2.5045 -0.9472
 2571SOL     OW 9258   2.010   6.169   1.340  0.3299 -0.2049  0.4326
 2571SOL    HW1 9259   2.042   6.239   1.282 -0.0313 -1.4470 -1.3604
 2571SOL    HW2 9260   2.057   6.091   1.312 -0.3021 -0.9709  1.4509
 2572SOL     OW 9261   3.181   2.924   5.415 -0.4564 -0.2749 -0.5966
 2572SOL    HW1 9262   3.158   2.944   5.506 -2.1075  0.1011 -1.0582
 2572SOL    HW2 9263   3.260   2.871   5.421 -0.6087 -0.3630  1.0668
 2573SOL     OW 9264   5.435   0.747   0.512  0.4562  0.3930 -0.5565
 2573SOL    HW1 9265   5.412   0.825   0.562 -0.3400  1.0352 -1.8746
 2573SOL    HW2 9266   5.464   0.684   0.578  3.6709  2.6045  0.3956
 2574SOL     OW 9267   3.879   4.237   2.167  0.4845  0.6119  0.3610
 2574SOL    HW1 9268   3.874   4.292   2.245 -0.4647  0.7271  0.2343
 2574SOL    HW2 9269   3.927   4.291   2.104  0.2535  0.9815  0.4957
 2575SOL     OW 9270   3.272   4.829   2.237 -0.5706 -0.6476  0.1845
 2575SOL    HW1 9271   3.239   4.765   2.174  0.2732 -1.4286  0.5102
 2575SOL    HW2 9272   3.289   4.908   2.185 -0.2094 -1.1717 -0.5054
 2576SOL     OW 9273   6.525   0.644   0.516  0.1332  0.5005 -0.1317
 2576SOL    HW1 9274   6.545   0.731   0.551  2.7006 -0.8887  2.3090
 2576SOL    HW2 9275   6.604   0.620   0.467 -0.0799 -0.8859  0.1709
 2577SOL     OW 9276   1.170   5.950   4.733  0.1795 -0.7409  0.2199
 2577SOL    HW1 9277   1.186   6.044   4.720 -0.7829 -0.6154 -0.1059
 2577SOL    HW2 9278   1.188   5.935   4.826 -0.9360  0.0398  0.5846
 2578SOL     OW 9279   1.248   3.579   6.160 -0.0841  0.1483 -0.2104
 2578SOL    HW1 9280   1.160   3.580   6.199  0.3711  0.9511  0.8563
 2578SOL    HW2 9281   1.289   3.659   6.192  1.2593 -0.5257 -0.1752
 2579SOL     OW 9282   2.128   5.273   5.966 -0.3184  0.4278  0.1573
 2579SOL    HW1 9283   2.189   5.304   6.032 -0.4096  0.5725  0.1760
 2579SOL    HW2 9284   2.077   5.204   6.009 -0.6078  0.7544  0.3456
 2580SOL     OW 9285   3.782   6.084   2.509 -0.1024  0.4112  0.4896
 2580SOL    HW1 9286   3.740   6.151   2.563  1.5076  1.2047  0.8312
 2580SOL    HW2 9287   3.873   6.084   2.539  0.5785  0.0882 -1.4756
 2581SOL     OW 9288   3.422   1.337   2.997 -0.2512 -0.0277  0.1388
 2581SOL    HW1 9289   3.478   1.315   2.922 -1.3117 -3.2522  0.1526
 2581SOL    HW2 9290   3.365   1.406   2.964  2.1112  1.6957 -0.5906
 2582SOL     OW 9291   4.120   3.174   5.535  0.0128 -0.0811  0.0117
 2582SOL    HW1 9292   4.036   3.213   5.509  1.2040  1.7157 -1.4264
 2582SOL    HW2 9293   4.159   3.145   5.452  0.8151 -0.9065  0.6681
 2583SOL     OW 9294   0.244   4.890   0.622 -0.1833 -0.1120  0.3620
 2583SOL    HW1 9295   0.252   4.986   0.619  0.1194 -0.1240  0.7736
 2583SOL    HW2 9296   0.334   4.859   0.618 -0.3356 -0.4417 -1.7814
 2584SOL     OW 9297   5.793   0.363   1.230  0.1598  0.6111  0.4061
 2584SOL    HW1 9298   5.809   0.358   1.136  1.3623  3.0573  0.3949
 2584SOL    HW2 9299   5.863   0.419   1.263 -0.1435 -0.2942  2.8112
 2585SOL     OW 9300   2.638   4.416   2.841 -1.0081 -0.4175  0.7507
 2585SOL    HW1 9301   2.719   4.468   2.849 -0.3820 -1.6980  4.4464
 2585SOL    HW2 9302   2.665   4.336   2.796 -0.9509  0.4044 -0.7390
 2586SOL     OW 9303   0.506   1.193   2.548  0.1611  0.0481  0.0585
 2586SOL    HW1 9304   0.536   1.281   2.571  3.1377 -0.7708 -0.3227
 2586SOL    HW2 9305   0.484   1.152   2.632  0.1570  0.6796  0.3706
 2587SOL     OW 9306   6.503   3.158   5.062 -0.0159 -0.4428 -1.0420
 2587SOL    HW1 9307   6.589   3.116   5.060 -0.6719 -2.2142  1.6122
 2587SOL    HW2 9308   6.523   3.251   5.075  1.5173 -0.8066 -0.4813
 2588SOL     OW 9309   5.059   2.210   2.434 -0.3903 -0.1880  0.3250
 2588SOL    HW1 9310   5.085   2.123   2.404  2.5852  0.8936 -0.5730
 2588SOL    HW2 9311   5.005   2.193   2.511  3.9969 -2.9525  3.2882
 2589SOL     OW 9312   4.954   4.028   1.540  0.5920  0.1600 -0.2494
 2589SOL    HW1 9313   5.049   4.025   1.545  0.6399  1.7177  0.2032
 2589SOL    HW2 9314   4.924   3.958   1.599  1.4413 -0.3874 -0.4560
 2590SOL     OW 9315   4.457   2.608   2.224  0.9853 -0.0564 -0.1860
 2590SOL    HW1 9316   4.389   2.567   2.277 -0.0277  2.2959  0.4771
 2590SOL    HW2 9317   4.422   2.607   2.135 -0.4358  1.9035  0.2684
 2591SOL     OW 9318   2.739   2.428   5.620 -0.5686 -0.0007 -0.6631
 2591SOL    HW1 9319   2.722   2.489   5.692  1.7064 -0.6465  0.5326
 2591SOL    HW2 9320   2.769   2.483   5.548  1.2364  0.3965  0.3253
 2592SOL     OW 9321   6.565   1.481   5.282 -0.4065 -0.1828 -0.2641
 2592SOL    HW1 9322   6.636   1.506   5.222 -1.3190  1.1265 -0.8732
 2592SOL    HW2 9323   6.607   1.474   5.368  0.5242  0.1921 -0.6721
 2593SOL     OW 9324   0.464   0.612   3.759 -0.2271 -0.2106  0.1128
 2593SOL    HW1 9325   0.383   0.660   3.742 -0.8070 -0.8142  1.0702
 2593SOL    HW2 9326   0.488   0.573   3.675 -0.8913  0.0253 -0.1877
 2594SOL     OW 9327   4.654   1.968   1.649 -0.0098  0.0948 -0.5146
 2594SOL    HW1 9328   4.561   1.973   1.667  0.2396 -1.1624  1.4245
 2594SOL    HW2 9329   4.663   1.896   1.587 -0.2687 -0.4249  0.0376
 2595SOL     OW 9330   6.037   2.803   4.754 -0.3091 -0.0287 -0.2348
 2595SOL    HW1 9331   6.119   2.803   4.704  0.2060  0.1150  0.6006
 2595SOL    HW2 9332   6.007   2.712   4.751  0.5013 -0.3327  0.4501
 2596SOL     OW 9333   2.401   3.841   3.076  0.4181  0.1748 -0.0645
 2596SOL    HW1 9334   2.462   3.822   3.147 -0.8263 -1.0220  0.7201
 2596SOL    HW2 9335   2.314   3.829   3.114 -0.2933 -1.8142 -2.0644
 2597SOL     OW 9336   3.105   4.797   6.227  0.5195  0.2672 -0.0285
 2597SOL    HW1 9337   3.138   4.744   6.298 -1.1884 -0.4295  0.3042
 2597SOL    HW2 9338   3.163   4.779   6.153  1.1819 -0.4484  0.6563
 2598SOL     OW 9339   4.789   6.546   3.055  0.4269  0.1028 -0.2015
 2598SOL    HW1 9340   4.836   6.514   2.978  1.1995 -0.4426  0.4806
 2598SOL    HW2 9341   4.853   6.598   3.103  0.8691 -1.8991  1.5348
 2599SOL     OW 9342   4.743   3.629   3.874  0.1976  0.3744 -0.6823
 2599SOL    HW1 9343   4.809   3.559   3.884 -0.2215  0.0773  0.1494
 2599SOL    HW2 9344   4.776   3.683   3.802  0.2968 -0.9380 -1.6594
 2600SOL     OW 9345   3.210   3.731   3.072 -0.2202  0.1864  0.2556
 2600SOL    HW1 9346   3.116   3.745   3.076 -0.1070  0.7751  1.1975
 2600SOL    HW2 9347   3.229   3.672   3.144  0.0926 -0.2112 -0.1433
 2601SOL     OW 9348   2.355   5.386   2.049 -1.0726  0.7177  0.4872
 2601SOL    HW1 9349   2.428   5.447   2.041 -0.0215 -0.5998 -0.5795
 2601SOL    HW2 9350   2.291   5.416   1.984 -0.7249  0.8932  0.2221
 2602SOL     OW 9351   3.603   1.554   1.342 -0.0659  0.1193 -0.5504
 2602SOL    HW1 9352   3.517   1.596   1.331  0.4520  1.2709 -0.3334
 2602SOL    HW2 9353   3.597   1.473   1.291 -1.5941 -0.2855  0.1991
 2603SOL     OW 9354   6.596   3.418   4.512 -0.0456  0.5840  0.2660
 2603SOL    HW1 9355   6.591   3.323   4.516  1.1366  0.5458  1.3342
 2603SOL    HW2 9356   6.581   3.447   4.602  1.4610  1.2903  0.3080
 2604SOL     OW 9357   4.982   5.245   1.330 -0.5134  0.3084 -0.0648
 2604SOL    HW1 9358   5.008   5.181   1.396  0.9306  1.1983  0.2623
 2604SOL    HW2 9359   5.034   5.323   1.350 -1.9743  1.4885 -0.6525
 2605SOL     OW 9360   4.453   4.877   1.767 -0.2459 -0.4092 -0.0788
 2605SOL    HW1 9361   4.498   4.878   1.683  0.6653 -0.9509  0.3821
 2605SOL    HW2 9362   4.406   4.793   1.769  0.5510 -0.8548  0.3562
 2606SOL     OW 9363   0.112   3.217   3.530 -0.2872  0.2430  0.3162
 2606SOL    HW1 9364   0.092   3.259   3.614 -1.3534  0.1509  0.1211
 2606SOL    HW2 9365   0.200   3.181   3.542 -0.6369 -0.2448  1.6044
 2607SOL     OW 9366   0.261   5.326   0.844 -0.1152 -0.0582 -0.3689
 2607SOL    HW1 9367   0.210   5.369   0.775 -1.4401 -0.8233  0.0965
 2607SOL    HW2 9368   0.229   5.366   0.925  0.8772  0.2782 -0.1296
 2608SOL     OW 9369   2.501   3.458   0.471  0.3181  0.2918  0.3937
 2608SOL    HW1 9370   2.562   3.411   0.414  2.7070 -0.6232  3.3735
 2608SOL    HW2 9371   2.501   3.548   0.439  0.7047 -0.3794 -1.6042
 2609SOL     OW 9372   2.374   2.825   1.073 -0.4612  0.0130 -0.8271
 2609SOL    HW1 9373   2.379   2.763   1.146 -3.4345 -1.7082 -1.8760
 2609SOL    HW2 9374   2.439   2.793   1.010 -0.6516 -0.9397 -0.5623
 2610SOL     OW 9375   0.723   3.803   6.281 -0.2065  0.2562  0.0665
 2610SOL    HW1 9376   0.728   3.730   6.219  0.1183 -0.0904  0.4925
 2610SOL    HW2 9377   0.688   3.763   6.361 -2.5720  1.0796 -0.4640
 2611SOL     OW 9378   2.708   1.307   1.026 -0.1351 -0.4701 -0.6861
 2611SOL    HW1 9379   2.723   1.302   1.121  1.1625  0.7048 -0.8030
 2611SOL    HW2 9380   2.679   1.218   1.002 -0.6278 -0.7436  0.8159
 2612SOL     OW 9381   3.482   1.736   0.215 -0.3027 -0.3400  0.3189
 2612SOL    HW1 9382   3.397   1.770   0.186  0.0780  0.3916  0.0165
 2612SOL    HW2 9383   3.525   1.707   0.134 -0.1460 -0.4268  0.4332
 2613SOL     OW 9384   1.054   0.269   6.484 -0.0528  0.1475 -0.0964
 2613SOL    HW1 9385   1.013   0.331   6.424 -0.1494  2.1266  1.8654
 2613SOL    HW2 9386   1.127   0.318   6.522  1.9029 -2.0612 -0.7969
 2614SOL     OW 9387   4.196   1.349   5.715 -0.0091  0.3941 -0.2156
 2614SOL    HW1 9388   4.186   1.443   5.726 -0.4947  0.6832 -2.7162
 2614SOL    HW2 9389   4.138   1.326   5.642  0.0456 -1.8604  0.3648
 2615SOL     OW 9390   6.754   1.832   5.552  0.0980 -0.0716  0.6617
 2615SOL    HW1 9391   6.675   1.844   5.498  0.9230  1.8509 -0.2046
 2615SOL    HW2 9392   6.825   1.821   5.489  1.0012  1.6243  1.3253
 2616SOL     OW 9393   2.183   2.386   6.557  0.0138  0.1961 -0.6802
 2616SOL    HW1 9394   2.148   2.317   6.613  1.2336 -0.3263 -0.5180
 2616SOL    HW2 9395   2.259   2.346   6.514  1.6083  1.7988  0.4705
 2617SOL     OW 9396   5.032   4.594   0.237 -0.6926  0.0682 -0.1595
 2617SOL    HW1 9397   4.991   4.631   0.158 -2.7042 -0.8338  0.3934
 2617SOL    HW2 9398   5.117   4.564   0.207 -1.4460 -0.3587 -2.0560
 2618SOL     OW 9399   5.848   5.025   2.082 -0.1709 -0.7395  0.0640
 2618SOL    HW1 9400   5.883   4.966   2.149  0.3843  0.4308  0.8254
 2618SOL    HW2 9401   5.886   5.110   2.102 -2.6165  0.3822  0.2988
 2619SOL     OW 9402   2.357   1.274   1.261 -0.3409  0.7248 -0.2232
 2619SOL    HW1 9403   2.436   1.222   1.274 -0.8492 -0.2343 -0.8612
 2619SOL    HW2 9404   2.301   1.254   1.336 -1.1113 -0.7764 -1.1391
 2620SOL     OW 9405   5.501   5.074   5.078 -1.0518  0.0394 -0.3947
 2620SOL    HW1 9406   5.489   5.169   5.077 -0.0794  0.1603 -0.9757
 2620SOL    HW2 9407   5.476   5.046   4.990 -0.2478 -0.1008 -0.5828
 2621SOL     OW 9408   1.731   6.526   6.348 -0.2094 -0.1517 -0.2828
 2621SOL    HW1 9409   1.725   6.539   6.253 -1.0839  0.9232 -0.1015
 2621SOL    HW2 9410   1.645   6.492   6.373  0.1539 -0.8134  0.0745
 2622SOL     OW 9411   0.974   5.084   6.757  1.0036 -0.0373 -0.5137
 2622SOL    HW1 9412   0.978   4.992   6.735 -1.3342  0.0521 -1.5499
 2622SOL    HW2 9413   1.065   5.109   6.773  1.7319 -2.3674 -0.7118
 2623SOL     OW 9414   0.622   4.963   1.247  0.2590 -0.1374  0.0247
 2623SOL    HW1 9415   0.562   4.916   1.189  0.4491 -1.3861  0.8012
 2623SOL    HW2 9416   0.604   5.056   1.230 -1.5939 -0.4733 -0.0761
 2624SOL     OW 9417   2.169   2.300   4.407  0.3054 -0.4931  0.2172
 2624SOL    HW1 9418   2.225   2.232   4.369  1.5476  0.6093  0.0173
 2624SOL    HW2 9419   2.081   2.275   4.380  0.8898 -1.1788 -1.1869
 2625SOL     OW 9420   2.705   3.670   0.633 -0.1201  0.0087 -0.1349
 2625SOL    HW1 9421   2.693   3.630   0.546 -1.0336 -1.8339  0.7895
 2625SOL    HW2 9422   2.693   3.764   0.618 -2.5332 -0.4587 -1.6400
 2626SOL     OW 9423   1.528   0.433   2.482 -0.1708 -0.0462 -0.4454
 2626SOL    HW1 9424   1.439   0.461   2.459 -0.6428 -0.9061  0.2873
 2626SOL    HW2 9425   1.523   0.337   2.485  0.1457 -0.0324  2.0382
 2627SOL     OW 9426   4.086   1.149   4.148  0.2394 -0.0050 -0.5743
 2627SOL    HW1 9427   4.121   1.069   4.187 -0.6043 -1.1174 -1.9784
 2627SOL    HW2 9428   4.162   1.206   4.136  0.9180 -0.7471  0.1114
 2628SOL     OW 9429   4.841   5.289   3.766 -0.0026  0.2104  0.2102
 2628SOL    HW1 9430   4.800   5.376   3.768  2.4447  1.5367 -1.4736
 2628SOL    HW2 9431   4.931   5.306   3.737  0.3915 -2.9593 -0.8236
 2629SOL     OW 9432   2.204   6.388   6.420 -0.0926  0.5535  1.3408
 2629SOL    HW1 9433   2.258   6.404   6.497  0.5588  1.8686  0.6498
 2629SOL    HW2 9434   2.116   6.418   6.445 -0.1943 -0.2487  1.9890
 2630SOL     OW 9435   5.974   2.700   2.634 -0.7527 -0.3123  0.2042
 2630SOL    HW1 9436   5.941   2.742   2.555 -1.2159 -0.0041  0.5545
 2630SOL    HW2 9437   6.016   2.620   2.603  0.4459  0.5545 -0.5230
 2631SOL     OW 9438   6.273   5.430   3.669  0.3486  0.6510  0.4200
 2631SOL    HW1 9439   6.182   5.437   3.642  0.2675 -0.8218  0.2406
 2631SOL    HW2 9440   6.284   5.339   3.694  1.3867  1.1500  1.9024
 2632SOL     OW 9441   4.004   6.182   0.677 -0.1047 -0.0872 -0.2568
 2632SOL    HW1 9442   3.987   6.121   0.605  3.2632 -0.1647 -1.1909
 2632SOL    HW2 9443   3.949   6.258   0.657  1.2458  0.2202 -3.4897
 2633SOL     OW 9444   1.161   2.699   3.917 -0.0199  0.1258  0.2962
 2633SOL    HW1 9445   1.157   2.756   3.840  0.5916 -0.2932 -0.0604
 2633SOL    HW2 9446   1.183   2.758   3.989  0.8185  0.3331 -0.1046
 2634SOL     OW 9447   1.714   3.774   0.640 -0.0406  0.7290 -0.1938
 2634SOL    HW1 9448   1.668   3.733   0.567  2.9453 -1.3731 -1.0596
 2634SOL    HW2 9449   1.646   3.788   0.706 -1.9621 -2.0795 -1.4028
 2635SOL     OW 9450   3.656   2.700   3.843  0.2051  0.3902  0.2642
 2635SOL    HW1 9451   3.736   2.681   3.893  0.2909  2.5728  1.0524
 2635SOL    HW2 9452   3.608   2.762   3.898 -0.9692  0.8359 -1.2075
 2636SOL     OW 9453   0.699   6.558   4.998  0.2857 -0.0612  0.2082
 2636SOL    HW1 9454   0.718   6.494   5.067 -1.8328 -0.9617  0.0401
 2636SOL    HW2 9455   0.647   6.626   5.043 -1.3084 -0.7708 -0.4670
 2637SOL     OW 9456   3.837   5.036   0.565 -0.2972  0.6428 -0.7176
 2637SOL    HW1 9457   3.897   5.098   0.606  1.3382 -1.7491  0.7180
 2637SOL    HW2 9458   3.751   5.058   0.600  0.7009  0.2026  2.2181
 2638SOL     OW 9459   6.572   3.370   3.013 -0.2717 -0.2806  0.6052
 2638SOL    HW1 9460   6.596   3.373   2.920  0.5394 -0.6054  0.7929
 2638SOL    HW2 9461   6.488   3.325   3.015  0.0607 -0.9378  0.0869
 2639SOL     OW 9462   3.968   4.468   1.195  0.2800  0.1627 -0.0741
 2639SOL    HW1 9463   4.035   4.483   1.261  0.1362  1.0145 -0.1119
 2639SOL    HW2 9464   3.892   4.517   1.227 -0.0094  0.0132 -0.5274
 2640SOL     OW 9465   2.478   1.426   2.861  0.3000  0.1149  0.2039
 2640SOL    HW1 9466   2.509   1.496   2.802 -0.0235  1.3727  1.4652
 2640SOL    HW2 9467   2.407   1.384   2.811  0.2375  0.9467 -0.4467
 2641SOL     OW 9468   0.693   2.074   5.861  0.0369 -0.3305 -0.6349
 2641SOL    HW1 9469   0.746   2.130   5.803  0.9592  0.1160  0.5964
 2641SOL    HW2 9470   0.619   2.129   5.887 -1.1156 -0.9641 -2.3794
 2642SOL     OW 9471   1.837   0.471   5.961  0.0468  0.1566  0.7913
 2642SOL    HW1 9472   1.796   0.544   5.916 -0.0003 -0.3797 -0.0537
 2642SOL    HW2 9473   1.866   0.412   5.891  2.6769  0.7019  1.3140
 2643SOL     OW 9474   6.475   3.870   4.910 -0.1259  0.8731  0.4343
 2643SOL    HW1 9475   6.505   3.920   4.835 -0.4508  0.4541  0.0202
 2643SOL    HW2 9476   6.451   3.936   4.975  0.2248  1.2330  0.1987
 2644SOL     OW 9477   3.338   1.679   2.625 -0.3976 -0.0847  0.0512
 2644SOL    HW1 9478   3.248   1.667   2.655 -0.6214 -1.0801 -0.9683
 2644SOL    HW2 9479   3.338   1.764   2.582 -1.2398 -0.7258 -1.2651
 2645SOL     OW 9480   1.185   3.836   3.863 -0.4522  0.0930  0.2497
 2645SOL    HW1 9481   1.264   3.888   3.875 -0.7458  0.6387 -0.1390
 2645SOL    HW2 9482   1.113   3.896   3.884 -0.8437  0.1996 -1.2543
 2646SOL     OW 9483   2.214   1.927   1.146  0.0557 -0.2872 -0.5569
 2646SOL    HW1 9484   2.210   1.834   1.170  0.7132  0.1008  1.2324
 2646SOL    HW2 9485   2.157   1.970   1.209  0.6141  0.6430 -0.6772
 2647SOL     OW 9486   0.070   6.213   3.689 -0.1834  0.5641  0.1269
 2647SOL    HW1 9487   0.090   6.283   3.628  0.3423  0.1534 -0.1818
 2647SOL    HW2 9488   0.077   6.133   3.637  1.1411  0.1344  0.9000
 2648SOL     OW 9489   4.331   0.103   0.091  0.1132  0.0937  0.7809
 2648SOL    HW1 9490   4.404   0.061   0.044 -1.0712 -1.2535  0.0614
 2648SOL    HW2 9491   4.324   0.190   0.051 -0.9171 -1.0349 -1.7072
 2649SOL     OW 9492   4.748   4.178   4.626  0.1237  0.2322  0.0399
 2649SOL    HW1 9493   4.731   4.262   4.668 -1.7052 -1.3533  2.7823
 2649SOL    HW2 9494   4.834   4.152   4.658 -0.7399 -0.3935  2.0638
 2650SOL     OW 9495   5.898   5.951   5.686 -0.4853 -0.0063 -0.1205
 2650SOL    HW1 9496   5.804   5.966   5.684 -0.8670 -2.0313  0.5349
 2650SOL    HW2 9497   5.925   5.959   5.594 -1.7611 -1.9282 -0.7124
 2651SOL     OW 9498   6.339   5.507   0.152  0.2789 -0.4683 -0.3119
 2651SOL    HW1 9499   6.312   5.593   0.119  1.1402 -0.2884 -0.5658
 2651SOL    HW2 9500   6.323   5.448   0.078 -0.8276 -0.6309  0.0449
 2652SOL     OW 9501   5.500   2.904   3.913  0.3986 -0.1673 -0.6483
 2652SOL    HW1 9502   5.547   2.986   3.897  0.2064  0.0705 -0.0022
 2652SOL    HW2 9503   5.500   2.860   3.828  1.1702  0.1524 -0.8265
 2653SOL     OW 9504   3.986   2.914   3.547 -0.0690  0.7840  0.1613
 2653SOL    HW1 9505   3.946   2.992   3.509 -0.6416  0.4453  0.0678
 2653SOL    HW2 9506   3.915   2.849   3.551  0.5324  0.0867 -0.2684
 2654SOL     OW 9507   4.212   1.327   0.510 -0.9858 -0.6696 -0.1861
 2654SOL    HW1 9508   4.259   1.245   0.493 -0.7189 -0.5712  0.0589
 2654SOL    HW2 9509   4.120   1.306   0.492 -0.8537 -0.8743 -0.6359
 2655SOL     OW 9510   5.232   4.839   5.136 -0.2140  0.1008  0.3976
 2655SOL    HW1 9511   5.144   4.801   5.142 -1.0788  2.1853  2.3861
 2655SOL    HW2 9512   5.291   4.765   5.146 -1.7881 -1.0422  1.6993
 2656SOL     OW 9513   3.596   2.587   0.588  0.1159  0.1158  0.0465
 2656SOL    HW1 9514   3.569   2.512   0.536  1.8866  0.3621 -1.3020
 2656SOL    HW2 9515   3.568   2.663   0.538  1.6152  0.3506 -0.4944
 2657SOL     OW 9516   0.708   4.028   3.436  0.8286  0.2821  0.5673
 2657SOL    HW1 9517   0.761   4.040   3.514  0.5524 -2.2905  1.2658
 2657SOL    HW2 9518   0.728   3.939   3.408 -0.3645  0.5610 -1.3061
 2658SOL     OW 9519   3.733   5.062   6.759 -0.9154  0.2497 -0.0487
 2658SOL    HW1 9520   3.762   4.971   6.768  0.0858  0.5399 -0.2098
 2658SOL    HW2 9521   3.805   5.113   6.795  0.4272  1.1887 -3.7153
 2659SOL     OW 9522   0.093   3.302   3.803  0.4451  0.1343 -0.0399
 2659SOL    HW1 9523   0.008   3.288   3.845  0.2716  0.2000 -0.3717
 2659SOL    HW2 9524   0.150   3.329   3.875  0.1820  0.1057  0.1826
 2660SOL     OW 9525   4.923   1.946   4.651 -0.1072  0.4487  0.1892
 2660SOL    HW1 9526   4.921   1.988   4.737 -3.5818 -1.3232  1.1497
 2660SOL    HW2 9527   4.885   1.859   4.665 -0.3172 -0.1249 -3.0574
 2661SOL     OW 9528   6.743   2.091   1.483 -0.2958 -0.3186  0.2065
 2661SOL    HW1 9529   6.837   2.105   1.474 -0.1905 -0.1912  1.3389
 2661SOL    HW2 9530   6.728   2.003   1.450 -0.0324  0.2282 -1.4335
 2662SOL     OW 9531   4.418   2.660   0.423  0.1166  0.4376 -0.0587
 2662SOL    HW1 9532   4.420   2.565   0.424  0.8448  0.4352  1.4697
 2662SOL    HW2 9533   4.337   2.683   0.377  0.9285 -0.8653 -2.3015
 2663SOL     OW 9534   0.637   0.890   3.200 -0.3003 -0.2305 -0.0240
 2663SOL    HW1 9535   0.575   0.836   3.248 -0.0492 -1.4524 -1.0086
 2663SOL    HW2 9536   0.704   0.828   3.171  2.4330  1.2743  2.5433
 2664SOL     OW 9537   6.497   5.448   5.072 -0.4416  0.3053 -0.5699
 2664SOL    HW1 9538   6.451   5.382   5.124 -0.1947  0.4290 -0.1963
 2664SOL    HW2 9539   6.465   5.532   5.106 -0.0557  0.3901 -0.4207
 2665SOL     OW 9540   6.407   0.282   0.650  0.1627  0.1892  0.3087
 2665SOL    HW1 9541   6.420   0.187   0.656  1.6955  0.4223  1.3224
 2665SOL    HW2 9542   6.410   0.312   0.741 -0.2448  1.2169 -0.0122
 2666SOL     OW 9543   6.329   3.577   1.026  0.2836 -0.0589  0.1650
 2666SOL    HW1 9544   6.327   3.577   1.122  0.3593  0.8765  0.1766
 2666SOL    HW2 9545   6.304   3.666   1.002 -0.4262 -0.4801 -0.7052
 2667SOL     OW 9546   5.717   5.138   4.833 -0.2102  0.4129 -0.6455
 2667SOL    HW1 9547   5.701   5.048   4.803 -0.7128  0.3988 -0.3506
 2667SOL    HW2 9548   5.745   5.128   4.924  0.8270  0.4866 -0.9447
 2668SOL     OW 9549   3.401   6.346   2.410  0.0176 -0.3305  0.2363
 2668SOL    HW1 9550   3.334   6.357   2.343  0.3402 -0.0648 -0.0482
 2668SOL    HW2 9551   3.457   6.275   2.377 -0.1844 -0.6184  0.5194
 2669SOL     OW 9552   6.337   3.509   5.921  1.1224  0.0688 -0.5968
 2669SOL    HW1 9553   6.405   3.443   5.931  3.0495  2.0443  0.0631
 2669SOL    HW2 9554   6.335   3.554   6.005  1.3107  2.1238 -1.6264
 2670SOL     OW 9555   6.165   1.409   0.551 -0.1006  0.1372 -0.2100
 2670SOL    HW1 9556   6.236   1.431   0.491  0.0562  2.4088  0.6922
 2670SOL    HW2 9557   6.087   1.449   0.511 -0.6913 -1.3500 -0.6114
 2671SOL     OW 9558   6.701   6.228   2.966 -0.0640  0.2781  0.1775
 2671SOL    HW1 9559   6.632   6.176   2.925  0.7261  0.3575 -1.3466
 2671SOL    HW2 9560   6.760   6.249   2.894  1.5648  0.1921  1.4283
 2672SOL     OW 9561   2.713   2.167   2.002  0.1350  0.2787  0.5241
 2672SOL    HW1 9562   2.727   2.075   2.024  0.9451  0.1813 -0.3620
 2672SOL    HW2 9563   2.617   2.177   2.002  0.0396 -0.5687  0.5893
 2673SOL     OW 9564   3.389   3.142   5.328  0.1334 -0.2806 -0.4526
 2673SOL    HW1 9565   3.297   3.170   5.324  0.0305 -0.3178  1.1453
 2673SOL    HW2 9566   3.390   3.058   5.282 -0.0151  1.0792 -3.1620
 2674SOL     OW 9567   6.156   3.707   4.171 -0.0698 -0.2293  0.1741
 2674SOL    HW1 9568   6.101   3.631   4.186 -1.4845  1.0014  1.6048
 2674SOL    HW2 9569   6.225   3.700   4.238 -1.0581  0.4635  1.3115
 2675SOL     OW 9570   0.830   3.438   2.070  0.6302 -0.2179  0.1310
 2675SOL    HW1 9571   0.742   3.432   2.033  0.2191 -0.8267  1.1593
 2675SOL    HW2 9572   0.864   3.349   2.067  0.6530 -0.2557  1.0236
 2676SOL     OW 9573   4.632   2.588   6.010  0.3483  0.1121 -0.1437
 2676SOL    HW1 9574   4.703   2.582   5.947 -0.8676  0.6243 -1.6206
 2676SOL    HW2 9575   4.646   2.672   6.054  1.3215 -0.3472  0.4641
 2677SOL     OW 9576   6.565   1.858   5.077  0.0420  0.5350  0.1365
 2677SOL    HW1 9577   6.524   1.943   5.092  0.1551  0.9095 -1.4711
 2677SOL    HW2 9578   6.573   1.852   4.981  0.3278 -1.1453  0.2379
 2678SOL     OW 9579   2.902   4.593   2.370 -0.4385  0.4157  0.6732
 2678SOL    HW1 9580   2.944   4.645   2.438  0.9782  0.8167 -0.4568
 2678SOL    HW2 9581   2.885   4.509   2.412  1.2031  0.3536  1.2996
 2679SOL     OW 9582   2.111   3.280   2.852 -0.1261 -0.3042 -0.2239
 2679SOL    HW1 9583   2.058   3.201   2.856 -1.0305  0.3472  1.5816
 2679SOL    HW2 9584   2.069   3.333   2.784 -1.1408 -0.2619  0.4180
 2680SOL     OW 9585   4.282   0.346   4.230  0.0025 -0.5081 -0.6565
 2680SOL    HW1 9586   4.303   0.393   4.311 -0.0261 -0.8633 -0.4445
 2680SOL    HW2 9587   4.285   0.414   4.163 -0.5002 -0.1133 -0.2838
 2681SOL     OW 9588   5.010   6.740   5.454 -0.1411  0.3965 -0.3935
 2681SOL    HW1 9589   4.933   6.711   5.405 -0.8128 -1.8077  1.8275
 2681SOL    HW2 9590   5.068   6.664   5.457  1.6674  1.6582 -1.0022
 2682SOL     OW 9591   4.523   3.713   4.725 -0.0011 -0.0236 -0.1038
 2682SOL    HW1 9592   4.434   3.689   4.750  0.4688 -0.6723  1.0669
 2682SOL    HW2 9593   4.513   3.783   4.660 -1.3409  0.1359  0.2528
 2683SOL     OW 9594   1.744   5.938   2.254  0.0305 -0.1061  0.0949
 2683SOL    HW1 9595   1.808   5.874   2.224  0.9431  0.7801  0.1008
 2683SOL    HW2 9596   1.762   6.016   2.202 -0.0929  0.6125  1.0995
 2684SOL     OW 9597   6.720   5.509   6.373  0.7357 -0.3156 -0.3096
 2684SOL    HW1 9598   6.627   5.506   6.393  0.3541 -2.3735 -2.0315
 2684SOL    HW2 9599   6.756   5.571   6.435 -1.5994 -0.3136  1.1478
 2685SOL     OW 9600   6.568   3.307   5.971  0.7270 -0.1975 -0.2826
 2685SOL    HW1 9601   6.620   3.229   5.956  0.6589  0.0701 -2.1001
 2685SOL    HW2 9602   6.582   3.328   6.063  0.7962 -2.2968  0.2263
 2686SOL     OW 9603   1.368   5.701   0.666  0.2425  0.1917  0.3524
 2686SOL    HW1 9604   1.295   5.727   0.610  1.5422 -1.2041 -2.1495
 2686SOL    HW2 9605   1.338   5.620   0.707  0.3401 -0.3966 -0.6914
 2687SOL     OW 9606   5.542   5.936   1.088  0.1216 -0.1283  0.1863
 2687SOL    HW1 9607   5.569   5.877   1.158 -0.0958  0.9058  1.1696
 2687SOL    HW2 9608   5.473   5.991   1.127 -0.5766 -0.0558 -1.0753
 2688SOL     OW 9609   4.404   4.363   4.078  0.0096  0.0858 -0.2135
 2688SOL    HW1 9610   4.485   4.407   4.053 -0.1238  0.7760  0.5182
 2688SOL    HW2 9611   4.428   4.271   4.086  0.2758 -0.0209 -1.8586
 2689SOL     OW 9612   3.982   3.181   5.211  0.1446 -0.5182  0.2609
 2689SOL    HW1 9613   3.933   3.113   5.257  1.1908 -0.7459  1.0944
 2689SOL    HW2 9614   4.073   3.152   5.217  0.3375 -0.5930 -2.0442
 2690SOL     OW 9615   5.137   5.748   6.371 -0.4231  0.1936  0.0894
 2690SOL    HW1 9616   5.046   5.723   6.356  0.3507 -0.9148 -3.8723
 2690SOL    HW2 9617   5.182   5.665   6.386  0.2108  0.5596  0.2651
 2691SOL     OW 9618   5.518   6.636   3.157 -0.6498  0.5179  0.4255
 2691SOL    HW1 9619   5.494   6.700   3.090 -1.6749  0.4049  0.6676
 2691SOL    HW2 9620   5.565   6.568   3.109 -2.5337 -0.2432 -0.4773
 2692SOL     OW 9621   5.928   0.807   2.125  0.5224  0.9546  0.9044
 2692SOL    HW1 9622   5.950   0.844   2.040  0.8882  0.1930  0.6608
 2692SOL    HW2 9623   5.960   0.717   2.122 -2.0058 -0.0332  0.7786
 2693SOL     OW 9624   0.978   3.035   3.138 -0.3184  0.0905  0.0681
 2693SOL    HW1 9625   0.996   3.095   3.065 -0.5782  0.4131  0.2676
 2693SOL    HW2 9626   1.061   2.991   3.154  0.5079  1.9913  1.3851
 2694SOL     OW 9627   4.606   3.981   3.827 -0.2278 -0.3859 -0.2618
 2694SOL    HW1 9628   4.590   4.051   3.764  0.8328 -0.5601 -0.7595
 2694SOL    HW2 9629   4.701   3.981   3.839 -0.1401 -2.0090 -0.6085
 2695SOL     OW 9630   4.549   4.915   5.935 -0.6256 -0.1002 -0.0261
 2695SOL    HW1 9631   4.523   4.868   5.856  0.7142 -1.5740  0.3659
 2695SOL    HW2 9632   4.606   4.986   5.903  1.0261 -1.5029 -0.3482
 2696SOL     OW 9633   3.384   1.919   3.025 -0.0312  0.0985  0.1065
 2696SOL    HW1 9634   3.397   2.005   2.984  1.4681 -0.4585 -0.6528
 2696SOL    HW2 9635   3.470   1.896   3.059 -0.6848 -0.6004  1.3672
 2697SOL     OW 9636   6.631   1.829   3.961 -0.6309 -0.1035 -0.3042
 2697SOL    HW1 9637   6.565   1.895   3.940  0.3805  0.9613 -0.2412
 2697SOL    HW2 9638   6.710   1.880   3.980  0.6517 -1.3787 -1.9113
 2698SOL     OW 9639   1.793   0.779   0.713 -0.5036 -0.2513  0.3434
 2698SOL    HW1 9640   1.831   0.709   0.660  0.5582 -1.3502  2.4243
 2698SOL    HW2 9641   1.866   0.839   0.729 -1.1070  0.7034 -0.3974
 2699SOL     OW 9642   3.638   0.402   2.845  0.5880 -0.6975 -0.3577
 2699SOL    HW1 9643   3.609   0.490   2.871  2.7907  0.5133 -1.7771
 2699SOL    HW2 9644   3.602   0.390   2.757 -1.0388 -1.9577  0.4091
 2700SOL     OW 9645   0.590   0.822   4.816 -0.0715  0.3355  0.3107
 2700SOL    HW1 9646   0.643   0.752   4.779 -1.3053 -1.5943  1.9728
 2700SOL    HW2 9647   0.567   0.877   4.742 -0.6939 -2.1317 -1.4432
 2701SOL     OW 9648   5.638   5.955   5.256 -0.1183  0.2040  1.1413
 2701SOL    HW1 9649   5.684   5.893   5.312 -0.2077 -0.2391  0.7364
 2701SOL    HW2 9650   5.657   5.925   5.167 -0.6993  0.3664  0.9564
 2702SOL     OW 9651   1.849   6.615   3.150 -0.1821  0.1322  0.1842
 2702SOL    HW1 9652   1.928   6.569   3.177 -1.5627 -1.6621  1.4023
 2702SOL    HW2 9653   1.777   6.565   3.189 -1.9511  1.5436 -1.0799
 2703SOL     OW 9654   5.835   4.136   6.235  0.0824 -0.5863  0.2724
 2703SOL    HW1 9655   5.742   4.150   6.249  0.2450  1.0107 -0.0290
 2703SOL    HW2 9656   5.871   4.122   6.323 -0.2753 -0.0722  0.5024
 2704SOL     OW 9657   3.413   0.586   6.428  0.1106  0.1303 -0.0146
 2704SOL    HW1 9658   3.493   0.551   6.389 -0.9653 -1.3488 -1.0127
 2704SOL    HW2 9659   3.342   0.533   6.390 -1.4619  2.1325 -0.0757
 2705SOL     OW 9660   1.481   0.955   5.035  0.2480  0.1886 -0.5481
 2705SOL    HW1 9661   1.443   0.924   4.953  0.3099 -0.4898 -0.3302
 2705SOL    HW2 9662   1.566   0.912   5.040  0.0462 -0.1614  0.0904
 2706SOL     OW 9663   1.738   1.036   0.858 -0.4421 -0.4316  0.3272
 2706SOL    HW1 9664   1.831   1.012   0.867 -0.3321  0.7547  4.5173
 2706SOL    HW2 9665   1.691   0.962   0.896 -0.8662  0.5018  1.7257
 2707SOL     OW 9666   2.837   3.382   6.252 -0.0486  0.4284 -0.9282
 2707SOL    HW1 9667   2.904   3.333   6.205 -0.3390 -0.4497 -0.4585
 2707SOL    HW2 9668   2.799   3.318   6.313 -1.0316  1.0104 -0.9054
 2708SOL     OW 9669   0.821   3.775   3.386 -0.4155 -0.1146  0.1674
 2708SOL    HW1 9670   0.779   3.713   3.445  0.3902 -0.0350  0.8234
 2708SOL    HW2 9671   0.884   3.723   3.337 -2.0833 -0.4986 -1.7188
 2709SOL     OW 9672   1.564   2.168   1.996 -0.1361 -0.6059  0.6095
 2709SOL    HW1 9673   1.642   2.131   2.038  0.3669 -1.2429 -0.8166
 2709SOL    HW2 9674   1.571   2.140   1.904 -1.1912  0.7261  0.0979
 2710SOL     OW 9675   2.502   0.346   5.870  0.1247 -0.0930 -0.2466
 2710SOL    HW1 9676   2.411   0.373   5.888  0.5692 -0.1988  2.5016
 2710SOL    HW2 9677   2.494   0.255   5.841 -0.5871 -0.4453  0.9948
 2711SOL     OW 9678   0.685   0.747   4.128 -0.6788 -0.0401  0.0062
 2711SOL    HW1 9679   0.692   0.731   4.034  0.4043 -0.8970  0.2132
 2711SOL    HW2 9680   0.707   0.840   4.139  0.4903 -0.2504 -0.4575
 2712SOL     OW 9681   4.669   3.857   2.723 -0.5399 -0.6197  0.4534
 2712SOL    HW1 9682   4.648   3.923   2.789 -2.0619  0.8253 -1.3462
 2712SOL    HW2 9683   4.749   3.890   2.681 -1.3362  0.1764 -0.4889
 2713SOL     OW 9684   3.975   1.580   2.852  0.1106  0.3515 -0.7364
 2713SOL    HW1 9685   4.037   1.587   2.925 -0.4542  2.5281 -0.4134
 2713SOL    HW2 9686   3.970   1.486   2.835  0.6446 -0.1973  1.7018
 2714SOL     OW 9687   3.940   4.359   6.658 -0.1453  0.1299 -0.1823
 2714SOL    HW1 9688   4.023   4.348   6.704  0.1934  0.4914 -0.6958
 2714SOL    HW2 9689   3.886   4.285   6.686 -0.0455  0.4783  0.9975
 2715SOL     OW 9690   2.217   2.295   3.872  0.1432  0.5130  0.1064
 2715SOL    HW1 9691   2.145   2.358   3.872 -0.7328 -0.4479 -0.3776
 2715SOL    HW2 9692   2.245   2.290   3.780 -0.4293 -0.4827 -0.0281
 2716SOL     OW 9693   6.408   2.525   0.636  0.1632  0.3478 -0.2102
 2716SOL    HW1 9694   6.493   2.488   0.614  0.1653  0.9020 -1.1803
 2716SOL    HW2 9695   6.373   2.558   0.553 -0.1364  1.8605  0.4754
 2717SOL     OW 9696   5.332   5.501   5.457 -0.1726 -0.2944  0.2697
 2717SOL    HW1 9697   5.260   5.509   5.519 -0.6579 -0.8056 -0.2080
 2717SOL    HW2 9698   5.346   5.590   5.425  0.1577 -0.0073  1.1768
 2718SOL     OW 9699   3.663   4.898   5.875  0.0236  0.3909 -0.0872
 2718SOL    HW1 9700   3.736   4.931   5.823  0.5171 -0.7716 -0.1652
 2718SOL    HW2 9701   3.704   4.844   5.943 -0.6334  1.5635  1.2871
 2719SOL     OW 9702   5.137   6.561   4.563  0.0629 -0.0184  0.0758
 2719SOL    HW1 9703   5.117   6.621   4.491 -0.2847  0.2058  0.3574
 2719SOL    HW2 9704   5.150   6.618   4.638  0.3181 -0.2602  0.2163
 2720SOL     OW 9705   6.094   4.151   5.177 -0.1441  0.0008 -0.2616
 2720SOL    HW1 9706   6.021   4.094   5.203  0.5691 -1.0095 -0.4109
 2720SOL    HW2 9707   6.055   4.238   5.168 -0.9129 -0.0678  1.8110
 2721SOL     OW 9708   3.570   2.838   4.309 -0.3904 -0.5809 -0.2033
 2721SOL    HW1 9709   3.586   2.886   4.390 -0.3220  0.2435 -0.6934
 2721SOL    HW2 9710   3.656   2.803   4.284 -0.5066 -1.2623  0.3394
 2722SOL     OW 9711   5.380   0.581   4.985 -0.1338 -0.3343 -0.2076
 2722SOL    HW1 9712   5.303   0.634   5.004  1.3402  1.3554  1.3455
 2722SOL    HW2 9713   5.344   0.500   4.947 -2.5892  0.7107 -0.2934
 2723SOL     OW 9714   5.841   1.893   6.504  0.2258 -0.4035 -0.3157
 2723SOL    HW1 9715   5.749   1.869   6.494  0.0652  0.0233  0.0889
 2723SOL    HW2 9716   5.889   1.812   6.485 -0.3041 -1.1107  1.1658
 2724SOL     OW 9717   0.234   2.072   1.475  0.5995  0.1435  0.5690
 2724SOL    HW1 9718   0.239   2.041   1.385 -0.6051  0.3976  0.4000
 2724SOL    HW2 9719   0.325   2.086   1.501  0.9002  3.5548 -1.7916
 2725SOL     OW 9720   0.942   0.114   2.742 -0.1047  0.0548  0.2791
 2725SOL    HW1 9721   0.869   0.130   2.683 -0.8546  1.2758  1.4817
 2725SOL    HW2 9722   1.019   0.108   2.685 -1.2089 -2.1594 -1.0996
 2726SOL     OW 9723   4.220   3.814   2.205  0.0569 -0.0186 -0.2264
 2726SOL    HW1 9724   4.257   3.856   2.282 -0.0643 -2.0225  0.9922
 2726SOL    HW2 9725   4.251   3.867   2.131 -1.8460  3.4353  1.2631
 2727SOL     OW 9726   1.909   6.430   6.532 -0.0492 -0.5131 -0.5351
 2727SOL    HW1 9727   1.868   6.458   6.451 -0.7838  0.7402  0.2397
 2727SOL    HW2 9728   1.836   6.408   6.590  0.4385 -0.5810  0.0700
 2728SOL     OW 9729   4.599   1.932   4.691 -0.5244  0.1318  0.0690
 2728SOL    HW1 9730   4.605   1.996   4.761 -1.1855  0.6104 -0.2940
 2728SOL    HW2 9731   4.569   1.852   4.734  2.7643 -0.7482  0.9730
 2729SOL     OW 9732   4.873   5.301   0.766 -0.0730  0.1220  0.3615
 2729SOL    HW1 9733   4.921   5.383   0.760  0.5245 -0.1885  0.7580
 2729SOL    HW2 9734   4.817   5.300   0.688 -1.2174  1.5948  1.1277
 2730SOL     OW 9735   2.483   0.679   3.590  0.7737  0.8098 -0.2094
 2730SOL    HW1 9736   2.464   0.744   3.658 -1.8225  1.0063 -1.0102
 2730SOL    HW2 9737   2.398   0.639   3.572  2.1599 -2.4202 -0.1950
 2731SOL     OW 9738   1.869   1.689   6.540 -0.1224  0.1532 -0.4574
 2731SOL    HW1 9739   1.837   1.682   6.630  1.2567  0.7656  0.1073
 2731SOL    HW2 9740   1.912   1.605   6.524  2.5116  1.2130  0.6628
 2732SOL     OW 9741   6.320   6.379   0.037 -0.4148  0.7200 -0.0666
 2732SOL    HW1 9742   6.305   6.291   0.072  0.0136  0.8445  0.4505
 2732SOL    HW2 9743   6.360   6.364  -0.049  0.1967  0.4115  0.2682
 2733SOL     OW 9744   1.793   2.780   1.983 -0.4004  0.1208 -0.4424
 2733SOL    HW1 9745   1.705   2.803   2.013  0.1488  0.9711  0.5628
 2733SOL    HW2 9746   1.825   2.719   2.049  0.2646  0.8518 -0.0860
 2734SOL     OW 9747   2.905   2.342   0.836  0.0556 -0.1199 -0.0566
 2734SOL    HW1 9748   2.918   2.251   0.810 -0.4625  0.0259 -0.8573
 2734SOL    HW2 9749   2.834   2.339   0.899 -0.6834 -0.1659 -0.8763
 2735SOL     OW 9750   5.755   6.252   3.961 -0.2532 -0.5859  0.0338
 2735SOL    HW1 9751   5.691   6.247   3.890 -3.3389 -0.4630  2.6052
 2735SOL    HW2 9752   5.749   6.342   3.992  1.0973 -0.6234  0.4817
 2736SOL     OW 9753   5.269   1.053   2.021  0.2200  0.2083 -0.3962
 2736SOL    HW1 9754   5.206   1.082   1.956  0.1385  2.0905  0.4490
 2736SOL    HW2 9755   5.224   0.984   2.069 -0.5341  0.3209 -0.9293
 2737SOL     OW 9756   1.147   1.601   4.801 -0.0177  0.4069  0.3692
 2737SOL    HW1 9757   1.231   1.626   4.762 -0.2662 -0.7012 -0.9551
 2737SOL    HW2 9758   1.083   1.620   4.732 -0.4020 -2.2011 -0.0594
 2738SOL     OW 9759   4.175   1.595   1.741  0.2054  0.2696  0.3352
 2738SOL    HW1 9760   4.137   1.674   1.703 -0.9084  0.2640  1.3712
 2738SOL    HW2 9761   4.142   1.524   1.686  0.6740  0.4740 -0.2085
 2739SOL     OW 9762   1.749   3.124   0.976  0.1881  0.7397  0.1203
 2739SOL    HW1 9763   1.841   3.133   0.999  0.5653 -2.2123  0.1291
 2739SOL    HW2 9764   1.748   3.123   0.881  0.4885 -1.3402  0.1060
 2740SOL     OW 9765   5.722   3.848   0.169 -0.4380 -0.2530  0.2115
 2740SOL    HW1 9766   5.804   3.800   0.180 -1.5130 -2.2365  0.0540
 2740SOL    HW2 9767   5.716   3.904   0.247  1.0664 -0.0269  0.1952
 2741SOL     OW 9768   2.916   1.664   2.889  0.5806  0.2181 -0.3039
 2741SOL    HW1 9769   2.967   1.722   2.946  0.8320 -2.0631  1.9423
 2741SOL    HW2 9770   2.848   1.720   2.853  2.2485  2.4401 -0.2239
 2742SOL     OW 9771   6.229   2.795   0.601 -0.6330 -0.0604 -0.5318
 2742SOL    HW1 9772   6.140   2.760   0.601 -1.4621  1.9043  0.0451
 2742SOL    HW2 9773   6.269   2.759   0.522 -1.2645 -2.4909  0.1693
 2743SOL     OW 9774   0.593   4.879   6.621  0.3420  0.3575 -0.0822
 2743SOL    HW1 9775   0.626   4.846   6.537 -0.0725  0.5300 -0.3152
 2743SOL    HW2 9776   0.670   4.914   6.665  0.5289  0.4496 -0.4796
 2744SOL     OW 9777   5.670   5.318   1.204  0.6392  0.2909 -0.2065
 2744SOL    HW1 9778   5.733   5.265   1.155  0.6655  1.4798 -1.5346
 2744SOL    HW2 9779   5.598   5.258   1.223  1.7021 -0.8256  0.4659
 2745SOL     OW 9780   0.472   1.733   6.210 -0.2506  0.2816 -0.2052
 2745SOL    HW1 9781   0.391   1.744   6.159 -0.4495 -1.3983 -0.3000
 2745SOL    HW2 9782   0.529   1.803   6.179  0.3376 -1.6991 -4.1753
 2746SOL     OW 9783   3.687   4.306   4.185 -0.3804  0.6918  0.0287
 2746SOL    HW1 9784   3.659   4.346   4.103 -1.0776 -0.0286 -0.1003
 2746SOL    HW2 9785   3.614   4.321   4.245 -0.1903  0.5547  0.2933
 2747SOL     OW 9786   5.040   5.738   0.607 -0.1888 -0.4363  0.4776
 2747SOL    HW1 9787   5.033   5.656   0.559 -1.9790 -0.5877  0.8996
 2747SOL    HW2 9788   5.111   5.786   0.565 -1.2066 -0.8616 -1.8616
 2748SOL     OW 9789   6.071   0.888   4.541  0.1080 -0.1881 -0.2645
 2748SOL    HW1 9790   6.150   0.941   4.556 -0.6416  0.9191 -0.0711
 2748SOL    HW2 9791   6.066   0.831   4.618  0.7936 -0.3750 -0.3490
 2749SOL     OW 9792   0.314   4.649   5.997  0.0917 -0.0568  0.6281
 2749SOL    HW1 9793   0.266   4.656   5.915 -2.3001  1.4682  2.0488
 2749SOL    HW2 9794   0.391   4.705   5.985 -0.0221 -0.1597 -0.6784
 2750SOL     OW 9795   5.466   5.058   1.646  0.0489  0.3721 -0.2785
 2750SOL    HW1 9796   5.484   5.123   1.713 -0.1949 -0.0404  0.1968
 2750SOL    HW2 9797   5.487   5.101   1.563  1.4172  0.5246  0.1244
 2751SOL     OW 9798   6.129   6.048   0.723  0.3311 -0.2477  0.1327
 2751SOL    HW1 9799   6.180   6.129   0.728  2.0577 -1.3513  2.4489
 2751SOL    HW2 9800   6.120   6.020   0.814 -2.3247 -1.4544 -0.4076
 2752SOL     OW 9801   2.207   0.678   4.495  0.1939 -0.4532  0.1186
 2752SOL    HW1 9802   2.232   0.770   4.500  1.0216 -0.7009  0.8590
 2752SOL    HW2 9803   2.131   0.670   4.553 -0.6151 -0.0240 -0.8473
 2753SOL     OW 9804   2.018   4.138   4.852 -0.1928 -0.0162 -0.3155
 2753SOL    HW1 9805   2.036   4.229   4.828 -1.5675  0.6699  1.0735
 2753SOL    HW2 9806   2.019   4.091   4.768  3.7176  0.5925 -0.7891
 2754SOL     OW 9807   5.098   3.092   1.673 -0.0309  0.3337  0.2078
 2754SOL    HW1 9808   5.096   3.187   1.666  0.8042  0.3643  0.2780
 2754SOL    HW2 9809   5.097   3.061   1.582  0.3086  0.4322  0.1683
 2755SOL     OW 9810   2.991   4.110   0.165 -0.0983 -0.2099  0.2825
 2755SOL    HW1 9811   3.065   4.077   0.115  0.8311  1.4731  0.4713
 2755SOL    HW2 9812   2.914   4.072   0.123  0.6881  0.4574 -1.8996
 2756SOL     OW 9813   0.406   0.474   2.738 -0.5092 -0.1244 -0.1193
 2756SOL    HW1 9814   0.396   0.414   2.664 -2.0729  0.2339 -0.2206
 2756SOL    HW2 9815   0.491   0.515   2.723 -1.0712  0.4359 -2.1068
 2757SOL     OW 9816   2.664   2.473   2.745 -0.6590 -0.4523  0.4675
 2757SOL    HW1 9817   2.662   2.390   2.793 -0.0722 -0.3429  0.6918
 2757SOL    HW2 9818   2.632   2.537   2.808 -0.1401 -0.3510  0.6366
 2758SOL     OW 9819   0.946   0.065   3.926  0.1737 -0.2272 -0.1091
 2758SOL    HW1 9820   0.886   0.139   3.938 -1.0317 -1.0768 -0.6626
 2758SOL    HW2 9821   1.014   0.098   3.867  0.2565  0.7489  0.5126
 2759SOL     OW 9822   5.662   3.050   4.989 -0.7249 -0.5947  0.2335
 2759SOL    HW1 9823   5.648   3.017   4.901  0.4744  1.4096 -0.7885
 2759SOL    HW2 9824   5.746   3.014   5.016 -1.1440 -1.3009  0.6498
 2760SOL     OW 9825   2.231   2.213   2.809 -0.2670 -0.0499  0.4039
 2760SOL    HW1 9826   2.165   2.152   2.843 -0.2857  0.0118  0.4794
 2760SOL    HW2 9827   2.228   2.287   2.870 -0.7830  0.3743 -0.1284
 2761SOL     OW 9828   3.853   4.132   4.784 -0.0435 -0.2921 -0.0350
 2761SOL    HW1 9829   3.935   4.083   4.774  0.5017  0.4282  0.7736
 2761SOL    HW2 9830   3.845   4.182   4.702  1.0055  0.6132  0.3908
 2762SOL     OW 9831   6.008   5.308   1.553  0.2552  0.7416  0.3255
 2762SOL    HW1 9832   6.024   5.215   1.539 -0.9811  0.5581  0.0191
 2762SOL    HW2 9833   5.913   5.315   1.559  0.2358  2.1503 -0.9805
 2763SOL     OW 9834   0.520   3.849   3.700 -0.1011  0.1893 -0.2771
 2763SOL    HW1 9835   0.497   3.910   3.629 -0.4339 -0.7709 -1.0096
 2763SOL    HW2 9836   0.438   3.834   3.746  0.3268  1.7272  1.0827
 2764SOL     OW 9837   1.640   1.657   3.372  0.2257  0.2604  0.4200
 2764SOL    HW1 9838   1.652   1.751   3.383  1.6860  0.2189 -0.4949
 2764SOL    HW2 9839   1.592   1.649   3.289 -1.2799  0.2227  1.2618
 2765SOL     OW 9840   1.680   6.122   3.249  0.3752  0.3333  0.0993
 2765SOL    HW1 9841   1.617   6.104   3.320 -1.0944  1.1044 -0.9432
 2765SOL    HW2 9842   1.648   6.204   3.210  3.1607  1.8649  0.7256
 2766SOL     OW 9843   4.248   5.747   6.642  0.1211  0.6443 -0.6158
 2766SOL    HW1 9844   4.258   5.839   6.619 -0.7253  0.3225 -2.4052
 2766SOL    HW2 9845   4.329   5.706   6.611  0.1627  0.6619 -0.5298
 2767SOL     OW 9846   6.690   1.513   0.056  0.1141 -0.2683  0.0787
 2767SOL    HW1 9847   6.719   1.422   0.062  1.2863  0.1414  1.3373
 2767SOL    HW2 9848   6.656   1.533   0.143 -1.1553  0.1933 -0.5055
 2768SOL     OW 9849   1.397   1.521   3.765 -0.3328 -0.5133  0.1042
 2768SOL    HW1 9850   1.326   1.585   3.765 -0.0606 -0.2107  0.3574
 2768SOL    HW2 9851   1.390   1.478   3.679 -1.1955 -0.9087  0.3638
 2769SOL     OW 9852   6.490   6.120   3.549  0.1255 -0.4892 -0.0862
 2769SOL    HW1 9853   6.441   6.202   3.545 -1.4097 -1.3267  0.3585
 2769SOL    HW2 9854   6.424   6.055   3.574  1.1816 -1.9531 -0.9652
 2770SOL     OW 9855   2.960   4.822   2.541 -0.2145 -0.5649 -0.7405
 2770SOL    HW1 9856   2.947   4.831   2.635  2.2644 -0.5442 -0.3421
 2770SOL    HW2 9857   2.913   4.896   2.503 -0.3403  0.0512  0.5635
 2771SOL     OW 9858   3.023   3.555   1.703 -0.3267 -0.3311  0.0584
 2771SOL    HW1 9859   3.029   3.528   1.795 -0.0567  2.5635  0.9986
 2771SOL    HW2 9860   2.934   3.588   1.694 -0.1636 -0.0497 -0.5351
 2772SOL     OW 9861   4.726   4.621   6.530  0.5184 -0.1309  0.0479
 2772SOL    HW1 9862   4.704   4.579   6.446  1.7651  0.0834 -0.4006
 2772SOL    HW2 9863   4.750   4.711   6.506  1.6764 -0.2982  0.5180
 2773SOL     OW 9864   6.802   1.005   2.885  0.6283  0.5026  0.3355
 2773SOL    HW1 9865   6.852   1.085   2.902  2.3714 -0.3841 -0.4032
 2773SOL    HW2 9866   6.711   1.029   2.904  1.3691  2.0013  2.3858
 2774SOL     OW 9867   3.169   0.874   2.552 -0.2846  0.4285 -0.4032
 2774SOL    HW1 9868   3.220   0.941   2.596  0.1499  0.6058 -1.1555
 2774SOL    HW2 9869   3.190   0.884   2.459 -0.7743 -0.2711 -0.6060
 2775SOL     OW 9870   2.564   6.550   2.907 -0.2770  0.1014  0.0973
 2775SOL    HW1 9871   2.608   6.465   2.906 -0.0644  0.1512  1.8309
 2775SOL    HW2 9872   2.473   6.529   2.884  0.0973 -0.3574 -1.0265
 2776SOL     OW 9873   6.450   3.406   0.489 -0.2153  0.0452  0.1720
 2776SOL    HW1 9874   6.371   3.369   0.451 -0.1162  0.1331 -0.1223
 2776SOL    HW2 9875   6.513   3.334   0.490 -0.4738 -0.1821  0.9358
 2777SOL     OW 9876   3.211   1.849   6.200  0.3104  0.0139  0.3330
 2777SOL    HW1 9877   3.299   1.856   6.164 -0.0947 -1.2265 -0.9679
 2777SOL    HW2 9878   3.176   1.938   6.195  0.7626  0.1258 -1.0907
 2778SOL     OW 9879   4.359   2.179   4.487  0.5012  0.1815 -0.0021
 2778SOL    HW1 9880   4.453   2.188   4.470  0.7017 -1.3207  0.1912
 2778SOL    HW2 9881   4.319   2.190   4.401  0.9846 -0.6133 -0.3460
 2779SOL     OW 9882   0.926   0.019   6.252  0.0146  0.3746  0.7113
 2779SOL    HW1 9883   0.870  -0.054   6.280  1.2368 -0.2209  1.6924
 2779SOL    HW2 9884   0.881   0.097   6.283 -0.3133 -0.0927  1.4476
 2780SOL     OW 9885   3.677   3.448   0.281  0.0199 -0.3050 -0.5405
 2780SOL    HW1 9886   3.726   3.464   0.361 -0.0022 -0.7109 -0.4417
 2780SOL    HW2 9887   3.633   3.364   0.296 -3.0450  1.3227  0.5460
 2781SOL     OW 9888   4.671   4.355   2.176  0.0973  0.8816 -0.0741
 2781SOL    HW1 9889   4.699   4.376   2.087 -1.8868 -1.3217 -1.3656
 2781SOL    HW2 9890   4.734   4.290   2.206  1.1190  2.0699  0.4012
 2782SOL     OW 9891   0.266   5.608   3.270 -0.4571 -0.2678  0.3693
 2782SOL    HW1 9892   0.227   5.674   3.212 -0.9374 -1.0366 -0.2120
 2782SOL    HW2 9893   0.358   5.633   3.277 -0.0009 -0.9662 -1.9883
 2783SOL     OW 9894   2.956   2.802   1.694 -0.5702  0.4912  0.4230
 2783SOL    HW1 9895   2.912   2.803   1.609 -0.4597 -2.7276  0.2145
 2783SOL    HW2 9896   3.050   2.805   1.672 -0.5575  0.6058  0.4924
 2784SOL     OW 9897   3.956   5.158   6.128  0.4299 -0.6358 -0.3864
 2784SOL    HW1 9898   4.010   5.080   6.142 -0.9281 -1.4903  0.2198
 2784SOL    HW2 9899   3.872   5.124   6.097 -0.1797  0.5874 -0.1401
 2785SOL     OW 9900   5.816   0.194   4.344 -0.3787 -0.2595  0.2098
 2785SOL    HW1 9901   5.789   0.284   4.324 -1.6844 -0.4196  1.1133
 2785SOL    HW2 9902   5.774   0.141   4.276 -0.6374 -0.3036  0.4027
 2786SOL     OW 9903   0.866   2.657   3.862 -0.0255  0.3429 -0.1052
 2786SOL    HW1 9904   0.858   2.735   3.806  2.2837  2.5852  2.3571
 2786SOL    HW2 9905   0.956   2.628   3.849 -0.7293 -1.7562 -0.6373
 2787SOL     OW 9906   0.761   4.374   4.743 -0.0281 -0.8223  0.7135
 2787SOL    HW1 9907   0.709   4.306   4.786  0.3571 -1.0953  0.7480
 2787SOL    HW2 9908   0.719   4.385   4.657  1.5836 -3.1419 -0.4644
 2788SOL     OW 9909   1.248   1.541   5.871 -0.0249 -0.4462 -0.2353
 2788SOL    HW1 9910   1.192   1.463   5.878  0.1797 -0.5971 -0.2619
 2788SOL    HW2 9911   1.298   1.542   5.953  0.0719 -0.4212 -0.2943
 2789SOL     OW 9912   3.881   0.214   5.557  0.4429  0.2560  0.2332
 2789SOL    HW1 9913   3.912   0.266   5.630 -0.8343  1.1647  0.1714
 2789SOL    HW2 9914   3.807   0.264   5.522 -0.6493 -1.4493 -0.0196
 2790SOL     OW 9915   4.341   4.262   5.771  0.1468  0.6649  0.2482
 2790SOL    HW1 9916   4.293   4.213   5.705  0.6393 -3.0303  2.3359
 2790SOL    HW2 9917   4.277   4.322   5.809 -1.1399  0.1537 -1.0399
 2791SOL     OW 9918   6.797   0.576   0.695 -0.0596 -0.3694 -0.6762
 2791SOL    HW1 9919   6.765   0.494   0.733 -0.8702 -0.2010 -0.9929
 2791SOL    HW2 9920   6.772   0.571   0.603  0.2946  0.0402 -0.7974
 2792SOL     OW 9921   4.202   4.430   1.383 -0.0352  0.6218 -0.4758
 2792SOL    HW1 9922   4.281   4.484   1.381 -1.0272  2.4019  2.6164
 2792SOL    HW2 9923   4.211   4.377   1.462 -1.6917  0.4431 -0.3737
 2793SOL     OW 9924   4.904   0.056   4.763  0.3393 -0.6273 -0.0803
 2793SOL    HW1 9925   4.944   0.116   4.826  0.5818 -2.7863  1.9561
 2793SOL    HW2 9926   4.976   0.002   4.733 -0.0556 -0.6142 -1.0832
 2794SOL     OW 9927   0.723   3.948   0.835  0.2443  0.6653  0.7562
 2794SOL    HW1 9928   0.687   4.036   0.847 -1.4714 -0.0564  1.2980
 2794SOL    HW2 9929   0.647   3.890   0.846  1.2514 -0.8597 -0.0141
 2795SOL     OW 9930   2.209   5.546   2.481 -0.3025  0.4108  0.3407
 2795SOL    HW1 9931   2.133   5.598   2.507 -0.0110  1.2340 -0.3857
 2795SOL    HW2 9932   2.280   5.579   2.537 -0.1185  0.8039 -0.1173
 2796SOL     OW 9933   5.962   6.553   5.848 -0.9830 -0.0587  0.1158
 2796SOL    HW1 9934   6.020   6.572   5.922 -1.5293  1.7014  0.1487
 2796SOL    HW2 9935   6.000   6.475   5.807  0.5036  0.1313  1.0409
 2797SOL     OW 9936   5.791   4.986   4.530  0.2268  0.4851 -0.4328
 2797SOL    HW1 9937   5.784   4.895   4.561  0.7429  0.4330 -0.4535
 2797SOL    HW2 9938   5.712   5.000   4.479 -0.0870  0.1997 -0.0323
 2798SOL     OW 9939   2.045   4.002   1.460 -0.1124 -0.7187 -0.0610
 2798SOL    HW1 9940   2.075   4.092   1.445 -0.0479 -1.1029 -2.8399
 2798SOL    HW2 9941   2.115   3.961   1.510  0.7841  0.2443 -0.4869
 2799SOL     OW 9942   0.953   1.167   6.796  0.2042 -0.1398  0.0715
 2799SOL    HW1 9943   0.955   1.087   6.848 -1.8923 -0.4505 -0.2496
 2799SOL    HW2 9944   0.919   1.235   6.855 -3.1862 -0.7119 -0.9871
 2800SOL     OW 9945   3.445   4.445   3.467  0.1401 -0.0882 -0.3484
 2800SOL    HW1 9946   3.372   4.385   3.483 -0.5606  0.7499 -0.2840
 2800SOL    HW2 9947   3.523   4.390   3.470  0.1527 -0.3980  5.0467
 2801SOL     OW 9948   5.587   1.431   6.385 -0.0714  0.9347  0.3004
 2801SOL    HW1 9949   5.493   1.437   6.398 -0.2860 -0.7232 -0.2336
 2801SOL    HW2 9950   5.624   1.498   6.443 -1.3947 -0.6513  3.2200
 2802SOL     OW 9951   3.152   1.802   2.943 -0.2416 -0.6143  0.6775
 2802SOL    HW1 9952   3.222   1.856   2.979 -0.3155 -0.0091 -0.0806
 2802SOL    HW2 9953   3.142   1.831   2.853 -1.0452 -1.1256  0.5902
 2803SOL     OW 9954   4.438   0.744   4.431  0.0632 -0.2082  0.1237
 2803SOL    HW1 9955   4.383   0.783   4.498 -0.2825  0.8004 -0.7218
 2803SOL    HW2 9956   4.484   0.673   4.476  0.7804  1.2030  1.7393
 2804SOL     OW 9957   6.766   2.213   4.131  0.3744  0.5218 -0.4275
 2804SOL    HW1 9958   6.804   2.277   4.191  2.0497  0.0812 -0.9856
 2804SOL    HW2 9959   6.694   2.260   4.088  1.2410  1.8722 -0.4547
 2805SOL     OW 9960   2.624   5.706   2.596  0.1965 -0.3737 -0.0646
 2805SOL    HW1 9961   2.712   5.742   2.585 -1.0898  2.1881 -5.4024
 2805SOL    HW2 9962   2.624   5.625   2.544 -0.4889 -0.5909  0.2641
 2806SOL     OW 9963   1.137   1.090   5.692  0.3472 -0.4015 -0.0453
 2806SOL    HW1 9964   1.189   1.101   5.771 -0.1154 -0.8073  0.3225
 2806SOL    HW2 9965   1.147   0.998   5.669 -2.1750 -1.1591  1.4718
 2807SOL     OW 9966   0.699   4.840   6.377  0.6448 -0.1157 -0.4864
 2807SOL    HW1 9967   0.673   4.827   6.286  1.5528  2.3820 -1.1991
 2807SOL    HW2 9968   0.791   4.866   6.372  0.9509 -0.7474  1.2266
 2808SOL     OW 9969   6.347   0.943   6.685  0.8040  0.3716 -0.4002
 2808SOL    HW1 9970   6.276   0.902   6.736  4.2039 -1.4531  3.4072
 2808SOL    HW2 9971   6.386   0.870   6.636 -0.2085  1.4915 -3.0559
 2809SOL     OW 9972   1.302   4.058   2.698  0.0637 -0.9469 -0.6509
 2809SOL    HW1 9973   1.227   4.044   2.640  0.8740 -0.8475 -1.7491
 2809SOL    HW2 9974   1.278   4.014   2.779 -1.0397 -1.2162 -1.1069
 2810SOL     OW 9975   1.737   2.378   6.224  0.3800  0.0689  0.5429
 2810SOL    HW1 9976   1.731   2.314   6.295 -0.8120  0.1898  0.5701
 2810SOL    HW2 9977   1.824   2.417   6.235 -0.0234  0.5721  2.3721
 2811SOL     OW 9978   4.107   1.297   3.528 -0.2795  1.2209  0.3296
 2811SOL    HW1 9979   4.174   1.329   3.588  1.6906 -0.4190 -0.8600
 2811SOL    HW2 9980   4.100   1.204   3.547  0.4860  0.6254 -1.9601
 2812SOL     OW 9981   6.616   2.778   3.297 -0.3628 -0.0760  0.3197
 2812SOL    HW1 9982   6.571   2.703   3.338  0.0686 -0.1063  0.7513
 2812SOL    HW2 9983   6.594   2.771   3.204  0.7330 -1.5161  0.1387
 2813SOL     OW 9984   5.084   0.804   2.440 -0.7004 -0.0572 -0.1560
 2813SOL    HW1 9985   4.999   0.763   2.422 -0.4054 -0.8712  0.2777
 2813SOL    HW2 9986   5.066   0.865   2.512 -1.3037  1.2078 -1.3093
 2814SOL     OW 9987   3.178   3.133   2.849  0.0301  0.3183 -0.6880
 2814SOL    HW1 9988   3.249   3.116   2.911  0.7413  0.0039 -1.5699
 2814SOL    HW2 9989   3.183   3.061   2.786 -0.0108  1.1909 -1.7116
 2815SOL     OW 9990   1.927   3.984   6.653  0.1992  0.7781 -0.2425
 2815SOL    HW1 9991   1.856   4.035   6.613  0.1415  1.2181  0.3956
 2815SOL    HW2 9992   1.993   4.049   6.674 -0.3827  0.7986  1.6970
 2816SOL     OW 9993   5.562   3.047   3.109 -0.2942 -0.2371  0.5642
 2816SOL    HW1 9994   5.565   3.139   3.083 -1.1304 -0.1553  0.7151
 2816SOL    HW2 9995   5.512   3.004   3.039 -1.1249 -0.3114  1.1840
 2817SOL     OW 9996   4.959   5.325   1.777 -0.3825  0.0081  0.0437
 2817SOL    HW1 9997   4.892   5.338   1.711  1.5624  1.5841 -1.7365
 2817SOL    HW2 9998   4.953   5.402   1.833 -0.5318 -0.2388  0.3783
 2818SOL     OW 9999   3.630   3.206   6.199  0.2208 -0.2982 -0.4321
 2818SOL    HW110000   3.666   3.267   6.135 -1.0895  0.5317 -0.4072
 2818SOL    HW210001   3.657   3.241   6.284  0.2863 -0.3106 -0.4472
 2819SOL     OW10002   3.698   1.216   4.905 -0.0669  0.1456  0.2471
 2819SOL    HW110003   3.771   1.259   4.861 -0.9379 -0.4564 -1.9537
 2819SOL    HW210004   3.620   1.258   4.868 -0.8758  0.4067  2.1383
 2820SOL     OW10005   5.809   0.346   0.944  0.5910  0.1284  0.9603
 2820SOL    HW110006   5.888   0.324   0.895  0.9519 -0.5839  1.8307
 2820SOL    HW210007   5.768   0.261   0.961  0.1512  0.4163  1.3601
 2821SOL     OW10008   5.450   4.569   1.763  0.4958 -0.3127 -0.0905
 2821SOL    HW110009   5.355   4.582   1.760  0.5274  0.4255  1.4588
 2821SOL    HW210010   5.485   4.637   1.706  0.1292 -0.0765 -0.0393
 2822SOL     OW10011   6.362   4.256   5.879  0.4371  0.2239 -0.4770
 2822SOL    HW110012   6.274   4.280   5.909  0.5167  0.9368 -0.8080
 2822SOL    HW210013   6.350   4.233   5.787  0.4172 -0.7237 -0.2494
 2823SOL     OW10014   0.647   6.775   5.161 -0.6553 -0.6800  0.1535
 2823SOL    HW110015   0.699   6.840   5.209 -0.5354  1.4477 -2.5696
 2823SOL    HW210016   0.607   6.721   5.229 -1.0582  2.4770  2.6962
 2824SOL     OW10017   6.518   1.208   3.592  0.3336 -0.2157  0.4661
 2824SOL    HW110018   6.515   1.283   3.532 -0.3406 -0.6073  0.0052
 2824SOL    HW210019   6.594   1.158   3.564  0.4365 -0.0234  0.3977
 2825SOL     OW10020   6.192   2.713   0.001 -0.0912  0.2624 -0.4483
 2825SOL    HW110021   6.189   2.802   0.037 -0.4111 -0.2626  0.9143
 2825SOL    HW210022   6.259   2.717  -0.067  1.7265  0.9968  1.2703
 2826SOL     OW10023   0.756   4.098   0.036  0.5672 -0.1647 -0.0958
 2826SOL    HW110024   0.793   4.023   0.082  0.1024 -1.9490 -2.4471
 2826SOL    HW210025   0.683   4.062  -0.015  0.5368  1.8144 -1.5765
 2827SOL     OW10026   6.042   1.772   4.923  0.3999 -0.4914 -0.0788
 2827SOL    HW110027   6.082   1.779   5.010  1.3962 -1.1135 -0.4821
 2827SOL    HW210028   5.998   1.856   4.911  0.0892 -0.4602  1.0995
 2828SOL     OW10029   0.120   2.899   5.782 -0.3804 -0.3619 -0.1305
 2828SOL    HW110030   0.073   2.930   5.860  1.4219  1.1145  0.4293
 2828SOL    HW210031   0.078   2.816   5.761 -3.5256  1.0553  0.0260
 2829SOL     OW10032   1.326   6.202   5.421 -0.6440 -0.2807 -0.0300
 2829SOL    HW110033   1.336   6.159   5.506 -0.1753  0.5489  0.3485
 2829SOL    HW210034   1.371   6.286   5.432 -1.2371  0.1523 -0.8626
 2830SOL     OW10035   2.049   5.086   3.002 -0.4826  0.1810  0.4822
 2830SOL    HW110036   2.005   5.021   3.058 -1.0055 -0.5277 -0.7200
 2830SOL    HW210037   1.988   5.159   2.998 -0.8477 -0.1427  0.1052
 2831SOL     OW10038   2.001   2.241   0.248  0.1993  0.1949 -0.2608
 2831SOL    HW110039   1.994   2.154   0.288 -1.2705  0.3581 -0.1034
 2831SOL    HW210040   1.946   2.296   0.303 -2.3454  0.3299 -2.7418
 2832SOL     OW10041   5.238   6.275   0.168  0.0684  0.1195  0.3809
 2832SOL    HW110042   5.313   6.222   0.139 -0.8569 -1.2425  0.3810
 2832SOL    HW210043   5.254   6.361   0.130  1.2960 -0.3250 -0.1833
 2833SOL     OW10044   1.849   6.167   0.407 -0.3648 -0.3424  0.0309
 2833SOL    HW110045   1.762   6.130   0.396 -0.9975  1.4491 -1.5925
 2833SOL    HW210046   1.843   6.222   0.484 -0.2448 -1.2760  0.7262
 2834SOL     OW10047   0.328   3.733   3.850 -0.0216  0.1747  0.6696
 2834SOL    HW110048   0.236   3.717   3.872 -0.3463  0.7817 -0.1950
 2834SOL    HW210049   0.375   3.661   3.891 -1.1252 -1.5424 -0.9247
 2835SOL     OW10050   3.396   2.348   0.033 -0.2416 -0.4780 -0.0411
 2835SOL    HW110051   3.436   2.278   0.086  2.0462  0.7091 -0.0540
 2835SOL    HW210052   3.387   2.421   0.094  1.5255  0.5910 -0.9846
 2836SOL     OW10053   6.635   5.042   3.847 -0.0395 -0.0826  0.1739
 2836SOL    HW110054   6.612   4.949   3.839 -0.8104  0.0215  1.0101
 2836SOL    HW210055   6.700   5.057   3.779 -0.4339 -1.0712 -0.4338
 2837SOL     OW10056   5.817   1.151   0.124 -0.9063  0.2094  0.3649
 2837SOL    HW110057   5.733   1.116   0.093 -0.4983 -1.0314  0.5818
 2837SOL    HW210058   5.794   1.205   0.200 -1.5504  0.2770  0.1294
 2838SOL     OW10059   2.033   2.350   1.081  0.2707  0.3895 -0.5132
 2838SOL    HW110060   2.053   2.366   1.173 -1.5949 -0.5100  0.0946
 2838SOL    HW210061   1.964   2.412   1.059 -0.8794 -0.8670 -0.6211
 2839SOL     OW10062   5.500   6.753   0.939  0.0323 -0.1884 -0.2584
 2839SOL    HW110063   5.434   6.724   1.002 -0.5888  0.4702 -0.5896
 2839SOL    HW210064   5.581   6.711   0.968 -0.3551 -0.3365  0.6558
 2840SOL     OW10065   4.793   5.060   1.664  0.0948 -0.4161  0.6930
 2840SOL    HW110066   4.867   5.106   1.625  0.5866 -0.5144  1.5060
 2840SOL    HW210067   4.736   5.130   1.696 -1.4319 -0.2142 -2.0841
 2841SOL     OW10068   4.732   2.219   6.175 -0.4173  0.1854  0.0667
 2841SOL    HW110069   4.650   2.226   6.127  0.0678 -0.3213 -0.8668
 2841SOL    HW210070   4.706   2.210   6.267 -1.3725  0.8523 -0.1291
 2842SOL     OW10071   6.075   4.606   2.648 -0.0058 -0.4800  0.6225
 2842SOL    HW110072   6.057   4.639   2.736 -2.1408 -1.7793  0.7458
 2842SOL    HW210073   5.994   4.620   2.599  1.0152 -0.1012 -1.0743
 2843SOL     OW10074   0.152   2.617   4.211 -0.0113  0.3541  0.1278
 2843SOL    HW110075   0.057   2.619   4.218 -0.1130  1.8782 -1.1091
 2843SOL    HW210076   0.181   2.699   4.250  0.7034  0.4342 -0.5442
 2844SOL     OW10077   1.514   1.607   6.389 -0.4224  0.1059 -0.3509
 2844SOL    HW110078   1.475   1.534   6.437 -0.4896  0.3233 -0.0661
 2844SOL    HW210079   1.587   1.569   6.342  1.4042  0.3520  2.0961
 2845SOL     OW10080   3.642   0.970   1.759  0.5892 -0.3072 -0.5913
 2845SOL    HW110081   3.731   1.003   1.749  0.9683 -0.7872  0.8787
 2845SOL    HW210082   3.613   0.949   1.670  1.4867  0.9857 -1.2205
 2846SOL     OW10083   1.881   3.555   1.715  0.1809  0.4036 -0.2537
 2846SOL    HW110084   1.888   3.473   1.666  1.2221 -0.4655  1.2637
 2846SOL    HW210085   1.947   3.612   1.676  1.0498 -0.3012  0.1744
 2847SOL     OW10086   3.853   2.637   6.165  0.6754  0.2732 -0.0467
 2847SOL    HW110087   3.802   2.701   6.115  0.9272 -0.4754 -1.3191
 2847SOL    HW210088   3.834   2.657   6.256 -2.7364 -0.5535 -0.4167
 2848SOL     OW10089   1.975   5.759   2.225 -0.5451  0.0804 -0.0113
 2848SOL    HW110090   2.021   5.811   2.159  0.5045  0.7054  1.1809
 2848SOL    HW210091   2.013   5.787   2.308 -1.6482 -0.8933  0.8454
 2849SOL     OW10092   1.953   2.173   5.775 -0.3000 -0.0536  0.1496
 2849SOL    HW110093   1.881   2.207   5.722 -0.6119  0.3714  0.8397
 2849SOL    HW210094   1.911   2.113   5.837  0.2756 -2.1436 -1.3462
 2850SOL     OW10095   4.750   4.099   5.329 -0.4367  0.1032 -0.1327
 2850SOL    HW110096   4.780   4.117   5.240 -2.8816  1.0401 -0.8397
 2850SOL    HW210097   4.726   4.184   5.364 -0.0607 -0.3304  1.2479
 2851SOL     OW10098   6.138   1.254   1.590 -0.1934  0.0090 -0.3246
 2851SOL    HW110099   6.149   1.345   1.617 -0.8878 -0.1555  0.5156
 2851SOL    HW210100   6.211   1.239   1.530  0.7349  0.7102  0.5884
 2852SOL     OW10101   3.416   0.613   5.403 -0.2616 -0.7787  0.5507
 2852SOL    HW110102   3.435   0.643   5.492  2.6308 -1.9372  0.4439
 2852SOL    HW210103   3.453   0.525   5.399 -2.9961 -1.9729 -0.9679
 2853SOL     OW10104   6.778   1.729   1.719  0.1567  0.4223  0.1603
 2853SOL    HW110105   6.822   1.762   1.797  0.0079  0.4651  0.2270
 2853SOL    HW210106   6.785   1.633   1.726  1.3247  0.4406 -0.4567
 2854SOL     OW10107   4.154   2.046   2.369 -0.1061  0.0951 -0.6758
 2854SOL    HW110108   4.243   2.015   2.352 -0.0169  0.0787 -0.1846
 2854SOL    HW210109   4.149   2.055   2.464 -0.8172 -0.4629 -0.6588
 2855SOL     OW10110   5.116   1.756   0.867  0.0708  0.0454 -0.8372
 2855SOL    HW110111   5.147   1.705   0.942 -0.5512  0.0546 -0.5665
 2855SOL    HW210112   5.155   1.843   0.880 -1.3727  0.5485  0.4046
 2856SOL     OW10113   5.356   5.345   0.154  0.2281  0.4600  0.0137
 2856SOL    HW110114   5.361   5.252   0.176  0.1910  0.4292 -0.1084
 2856SOL    HW210115   5.439   5.382   0.184  0.1154  0.4461  0.3397
 2857SOL     OW10116   6.299   5.309   0.940  0.5972  0.3879 -0.2405
 2857SOL    HW110117   6.317   5.400   0.965  2.9376 -0.0708 -0.0920
 2857SOL    HW210118   6.314   5.259   1.020  0.0014 -0.2206 -0.5018
 2858SOL     OW10119   6.536   0.648   3.079 -0.1745  0.2746 -0.1009
 2858SOL    HW110120   6.522   0.682   3.167  0.4732 -0.6545  0.3827
 2858SOL    HW210121   6.453   0.663   3.034 -0.4267  1.0055  0.5772
 2859SOL     OW10122   3.717   6.566   4.295 -1.0552  0.2806 -0.2638
 2859SOL    HW110123   3.681   6.597   4.378 -2.1531 -0.8049 -0.2991
 2859SOL    HW210124   3.785   6.503   4.320  1.1835  2.5561 -0.1925
 2860SOL     OW10125   2.784   1.984   0.991  0.0197 -0.6830  0.6428
 2860SOL    HW110126   2.759   1.903   1.034 -1.1348 -1.3612 -1.1949
 2860SOL    HW210127   2.817   2.039   1.061 -0.5538 -2.1959  2.1651
 2861SOL     OW10128   1.119   4.585   5.604 -0.4575 -0.1037  0.1480
 2861SOL    HW110129   1.140   4.529   5.679  0.8113  1.8667  1.3694
 2861SOL    HW210130   1.026   4.606   5.614 -0.4574 -0.4037  0.7930
 2862SOL     OW10131   5.134   4.351   0.765  0.1676 -0.4962 -0.2771
 2862SOL    HW110132   5.148   4.326   0.857  1.4690 -0.1289 -0.3565
 2862SOL    HW210133   5.050   4.313   0.743  0.5885 -2.0236  0.5839
 2863SOL     OW10134   2.069   6.637   0.185  0.3810 -0.2132  0.7105
 2863SOL    HW110135   2.011   6.562   0.188 -0.0496  0.0333 -0.7806
 2863SOL    HW210136   2.030   6.700   0.246  0.3208 -0.8838  1.3784
 2864SOL     OW10137   4.136   1.355   4.562 -0.0653 -0.1785 -0.5970
 2864SOL    HW110138   4.178   1.439   4.547 -0.4930  0.1376 -0.0606
 2864SOL    HW210139   4.197   1.291   4.525  0.3366  0.3496 -0.8653
 2865SOL     OW10140   3.573   3.630   1.002  0.7283  0.0740  0.0275
 2865SOL    HW110141   3.517   3.627   0.924 -0.7592  0.9263  1.0346
 2865SOL    HW210142   3.586   3.538   1.026 -0.4949 -0.1292 -0.0493
 2866SOL     OW10143   1.993   3.521   3.424  0.2111 -0.0746  0.0296
 2866SOL    HW110144   2.033   3.455   3.367 -0.9472 -0.1138 -0.7681
 2866SOL    HW210145   2.026   3.500   3.512 -0.3025 -1.8696 -0.1665
 2867SOL     OW10146   1.840   5.265   5.655  0.3948  0.3340 -0.5942
 2867SOL    HW110147   1.922   5.311   5.673 -0.3658  1.3777  0.2934
 2867SOL    HW210148   1.855   5.176   5.687  0.7805  0.8412  0.6967
 2868SOL     OW10149   4.997   1.069   3.248 -0.0038  0.2894 -0.4993
 2868SOL    HW110150   5.084   1.099   3.222  1.3520 -2.4143  0.4575
 2868SOL    HW210151   4.944   1.075   3.169  1.7542 -0.2629 -1.7759
 2869SOL     OW10152   3.089   2.408   2.205 -0.7926 -0.2771  0.0265
 2869SOL    HW110153   3.175   2.423   2.245 -1.1853 -0.4316  0.9795
 2869SOL    HW210154   3.106   2.406   2.111  0.2025 -0.0375  0.1832
 2870SOL     OW10155   1.089   4.059   3.119  0.5731 -0.0755  0.2646
 2870SOL    HW110156   1.028   4.097   3.055 -0.1161 -2.4178 -0.5669
 2870SOL    HW210157   1.171   4.047   3.070  0.7805  0.2749  0.5170
 2871SOL     OW10158   3.329   2.694   2.820 -0.4541 -0.1280  0.4080
 2871SOL    HW110159   3.405   2.750   2.834 -0.9515  0.3793  1.1366
 2871SOL    HW210160   3.303   2.712   2.729  0.1984 -0.2055  0.1965
 2872SOL     OW10161   6.509   5.268   2.943  0.7672 -0.0340  0.2303
 2872SOL    HW110162   6.469   5.343   2.986  0.6055  0.4373 -0.7258
 2872SOL    HW210163   6.522   5.296   2.852  1.0175 -1.0376 -0.0568
 2873SOL     OW10164   6.338   3.328   5.465  0.2962  0.0351 -0.0684
 2873SOL    HW110165   6.409   3.264   5.470  0.7199  0.6134  2.3227
 2873SOL    HW210166   6.266   3.288   5.515 -0.3121  0.3898 -0.6471
 2874SOL     OW10167   6.736   3.101   5.940 -0.8985 -0.6410 -0.4231
 2874SOL    HW110168   6.795   3.079   6.012 -2.1033 -0.2862  0.7168
 2874SOL    HW210169   6.677   3.026   5.933 -1.6938 -0.0639 -0.0625
 2875SOL     OW10170   1.367   3.523   4.314 -0.3142 -0.0056  0.6105
 2875SOL    HW110171   1.408   3.498   4.396  2.5108  1.6001 -0.1652
 2875SOL    HW210172   1.411   3.470   4.248 -0.1049  1.1042 -0.1694
 2876SOL     OW10173   5.317   5.602   4.934  0.4873  0.3896 -0.5472
 2876SOL    HW110174   5.236   5.552   4.921  0.5565  0.5475 -1.7029
 2876SOL    HW210175   5.385   5.536   4.943  0.2583  0.2579  0.2670
 2877SOL     OW10176   3.903   1.456   1.155  0.1532  0.1447  0.3491
 2877SOL    HW110177   3.890   1.540   1.199 -0.3336  0.5472 -0.5386
 2877SOL    HW210178   3.830   1.450   1.093 -1.6838 -2.3863  2.5548
 2878SOL     OW10179   6.105   2.303   1.064 -0.4335 -0.1606 -0.0408
 2878SOL    HW110180   6.167   2.358   1.017 -0.3304 -1.4919 -1.5683
 2878SOL    HW210181   6.152   2.272   1.140  0.1473  0.3119 -0.2028
 2879SOL     OW10182   2.880   5.146   4.500 -0.0578 -0.0945 -0.1136
 2879SOL    HW110183   2.855   5.230   4.537  0.3106 -0.4928  1.1082
 2879SOL    HW210184   2.812   5.126   4.435 -0.9605  0.4501  0.6465
 2880SOL     OW10185   2.151   2.539   3.189  0.1310 -0.7142 -0.0082
 2880SOL    HW110186   2.244   2.538   3.211 -0.0554 -0.3936  0.8361
 2880SOL    HW210187   2.107   2.508   3.268 -0.5646  0.5254  0.1168
 2881SOL     OW10188   1.129   4.129   4.370  0.6356  0.1496  0.1338
 2881SOL    HW110189   1.168   4.156   4.453  0.2502  0.1408  0.3194
 2881SOL    HW210190   1.117   4.035   4.379  1.5248 -0.0164 -0.3250
 2882SOL     OW10191   4.354   5.839   2.727 -0.5249 -0.2766  0.2485
 2882SOL    HW110192   4.335   5.865   2.637 -1.8526 -1.1605  0.2473
 2882SOL    HW210193   4.447   5.817   2.726 -0.7095 -1.1131 -1.1333
 2883SOL     OW10194   1.973   0.908   4.388 -0.5409  0.3005  0.2675
 2883SOL    HW110195   1.975   0.883   4.480 -0.0214 -2.4081 -0.4086
 2883SOL    HW210196   1.879   0.912   4.367 -0.6923  1.8301  1.0763
 2884SOL     OW10197   2.887   5.381   2.693 -0.0376  0.0379  0.0251
 2884SOL    HW110198   2.801   5.421   2.681  0.4869  2.2192  2.4240
 2884SOL    HW210199   2.872   5.308   2.754 -0.1675  0.8200  0.9610
 2885SOL     OW10200   0.680   3.613   6.063 -0.0708 -0.2173  0.6565
 2885SOL    HW110201   0.729   3.558   6.001  0.7977 -0.1986  1.3004
 2885SOL    HW210202   0.588   3.600   6.039  0.2448 -0.2499 -0.5896
 2886SOL     OW10203   4.579   0.761   5.254  0.5672 -0.1468 -0.0508
 2886SOL    HW110204   4.653   0.791   5.307  0.3333  0.8543 -0.2614
 2886SOL    HW210205   4.504   0.765   5.314  0.2542  1.2448 -0.4930
 2887SOL     OW10206   6.172   6.491   4.056  0.0310 -0.4528  0.0243
 2887SOL    HW110207   6.164   6.508   3.962 -1.7277  0.2337  0.2649
 2887SOL    HW210208   6.266   6.499   4.074  0.0937  2.8208 -1.0914
 2888SOL     OW10209   4.509   1.991   6.700  0.2105  0.0676  0.1103
 2888SOL    HW110210   4.424   2.020   6.731 -0.7467 -0.6482 -1.6927
 2888SOL    HW210211   4.543   1.935   6.770 -1.3811 -0.6722  0.3286
 2889SOL     OW10212   0.773   4.293   3.039 -0.4554  0.1792 -0.3938
 2889SOL    HW110213   0.855   4.323   3.077 -0.0881  1.2198 -1.9062
 2889SOL    HW210214   0.713   4.284   3.113  0.6207  0.7795  0.5653
 2890SOL     OW10215   6.441   1.012   3.282 -0.0559  0.0972 -0.1450
 2890SOL    HW110216   6.373   1.028   3.348  0.6730  2.2808  0.1580
 2890SOL    HW210217   6.418   1.069   3.209  1.4730  1.0285  0.0334
 2891SOL     OW10218   1.341   4.173   5.746 -0.0536  0.0420 -0.0977
 2891SOL    HW110219   1.291   4.099   5.713  0.3201 -1.0823  1.7674
 2891SOL    HW210220   1.280   4.222   5.801  0.6519 -0.9897  1.6794
 2892SOL     OW10221   4.844   1.709   4.744  0.1488 -0.3170  0.8053
 2892SOL    HW110222   4.783   1.714   4.818  0.1733 -2.1683  0.9785
 2892SOL    HW210223   4.809   1.641   4.688 -0.3588  1.6475 -1.4085
 2893SOL     OW10224   3.966   3.859   3.753  0.2008  0.1918 -0.1042
 2893SOL    HW110225   3.906   3.883   3.682  0.0207 -2.3946 -0.9434
 2893SOL    HW210226   3.922   3.786   3.797  1.4292  0.1675  1.1289
 2894SOL     OW10227   3.525   4.748   3.056 -0.5135  0.4061 -0.2494
 2894SOL    HW110228   3.476   4.665   3.049 -1.8950  1.0820  0.8683
 2894SOL    HW210229   3.569   4.743   3.140 -0.6111  0.7983 -0.1732
 2895SOL     OW10230   4.349   6.387   6.009  0.6318  0.2428  0.4295
 2895SOL    HW110231   4.372   6.298   5.981  3.3996  1.2071 -0.7495
 2895SOL    HW210232   4.391   6.443   5.945 -2.5573  2.4707  0.0594
 2896SOL     OW10233   3.309   4.473   6.698  0.0046  0.3165 -0.8658
 2896SOL    HW110234   3.279   4.387   6.727 -2.4309  1.7991  1.6477
 2896SOL    HW210235   3.401   4.477   6.724  0.0225 -1.3670 -0.5988
 2897SOL     OW10236   3.994   3.043   3.991 -0.1667  0.1523  0.3557
 2897SOL    HW110237   4.033   3.003   3.913  1.1587  3.2185 -0.7229
 2897SOL    HW210238   4.036   2.997   4.064 -0.1288 -1.6209 -0.7132
 2898SOL     OW10239   2.146   1.019   0.238 -0.1414 -0.6759  0.3518
 2898SOL    HW110240   2.061   1.032   0.281  0.5299 -2.1811  2.2686
 2898SOL    HW210241   2.133   1.054   0.150 -2.9335 -1.3752  0.3703
 2899SOL     OW10242   4.050   2.589   2.885 -0.4425 -0.1862  0.3724
 2899SOL    HW110243   4.025   2.549   2.802 -0.3059 -0.3666  0.4164
 2899SOL    HW210244   4.036   2.520   2.950 -1.5981  0.3016  0.6630
 2900SOL     OW10245   0.633   4.939   0.853 -0.1189  0.2950  0.0805
 2900SOL    HW110246   0.594   4.897   0.931  2.5160 -0.2988  1.1825
 2900SOL    HW210247   0.594   4.891   0.779  1.8834 -3.5775  1.2438
 2901SOL     OW10248   2.556   1.887   5.678  0.0601  0.3733 -0.3465
 2901SOL    HW110249   2.572   1.968   5.726 -1.0363  1.1970 -1.3099
 2901SOL    HW210250   2.608   1.895   5.598  0.5937 -0.2525 -0.0690
 2902SOL     OW10251   0.706   2.181   5.409  0.7080  0.2075 -0.5195
 2902SOL    HW110252   0.706   2.254   5.471 -1.4915 -0.5382  0.4505
 2902SOL    HW210253   0.735   2.220   5.326 -0.6230  2.2464 -0.1016
 2903SOL     OW10254   3.044   5.796   5.759  0.6678 -0.1183  0.9022
 2903SOL    HW110255   3.060   5.888   5.782 -0.8794  0.3022  0.4609
 2903SOL    HW210256   2.954   5.796   5.725  1.2476 -1.5127 -0.7562
 2904SOL     OW10257   6.174   6.235   2.134 -0.4558 -0.3405  0.1786
 2904SOL    HW110258   6.165   6.270   2.223 -0.3114  0.7444 -0.2174
 2904SOL    HW210259   6.230   6.157   2.144  0.9584  0.7184  0.8304
 2905SOL     OW10260   1.877   4.421   1.095  0.1342 -0.0107 -0.6493
 2905SOL    HW110261   1.950   4.369   1.129  1.0720  1.3002 -0.5662
 2905SOL    HW210262   1.911   4.462   1.016 -0.1893  1.3284 -0.1291
 2906SOL     OW10263   2.271   3.107   2.090 -1.1001 -0.1423  0.0666
 2906SOL    HW110264   2.354   3.060   2.101 -0.4128  0.8351 -0.7090
 2906SOL    HW210265   2.206   3.052   2.133  0.2291 -0.0774  2.2878
 2907SOL     OW10266   4.689   2.756   3.159 -0.3065  0.4862 -0.2543
 2907SOL    HW110267   4.716   2.739   3.068 -1.1986  0.1880 -0.4691
 2907SOL    HW210268   4.772   2.758   3.208  0.0621 -2.0666 -0.6287
 2908SOL     OW10269   0.392   5.708   6.699  0.1810 -0.5303  0.1121
 2908SOL    HW110270   0.352   5.785   6.738  1.5176  0.8264 -1.0592
 2908SOL    HW210271   0.486   5.728   6.696  0.6084 -2.3455  0.0728
 2909SOL     OW10272   6.291   6.776   0.434  0.1813 -0.5019  0.3688
 2909SOL    HW110273   6.215   6.718   0.442  0.4051 -0.7590  0.6310
 2909SOL    HW210274   6.297   6.793   0.340  0.1737 -0.9889  0.2762
 2910SOL     OW10275   6.448   0.177   5.771  0.4098  0.2843  0.0848
 2910SOL    HW110276   6.398   0.165   5.691 -0.2456  0.7917  0.4132
 2910SOL    HW210277   6.538   0.191   5.742  0.3476 -0.5039 -0.5156
 2911SOL     OW10278   6.485   0.932   2.085  0.2724  0.4459 -0.4460
 2911SOL    HW110279   6.507   0.841   2.106  0.7420  0.6791  0.1201
 2911SOL    HW210280   6.570   0.978   2.088 -0.1431  1.1722  0.7126
 2912SOL     OW10281   0.618   2.889   3.870 -0.0380 -0.0078 -0.5730
 2912SOL    HW110282   0.671   2.866   3.946  2.3515  1.0501 -1.7811
 2912SOL    HW210283   0.551   2.821   3.865  0.1936 -0.5170  1.9850
 2913SOL     OW10284   2.271   5.572   1.422 -0.0003 -0.0144  0.3122
 2913SOL    HW110285   2.201   5.612   1.473 -0.0832 -1.3085  1.2686
 2913SOL    HW210286   2.263   5.478   1.440  2.7736 -0.1209  1.5201
 2914SOL     OW10287   2.203   1.579   0.494  0.0775 -0.0721 -0.3948
 2914SOL    HW110288   2.122   1.606   0.537  0.1587 -1.4253  0.7112
 2914SOL    HW210289   2.250   1.531   0.562  0.4929 -1.7913 -1.8292
 2915SOL     OW10290   5.884   3.737   4.515 -0.3825  0.4039  0.0040
 2915SOL    HW110291   5.827   3.761   4.442 -0.0984 -0.9231 -0.6938
 2915SOL    HW210292   5.888   3.641   4.511  0.3757  0.3695  1.2039
 2916SOL     OW10293   5.601   5.319   1.707  0.4674 -0.3051  0.2237
 2916SOL    HW110294   5.641   5.298   1.791  1.0524 -3.8102 -0.7807
 2916SOL    HW210295   5.662   5.284   1.642 -0.5020  1.3129 -1.6834
 2917SOL     OW10296   6.736   6.569   5.500 -0.0110 -0.8574  0.2703
 2917SOL    HW110297   6.690   6.521   5.431 -0.2625  0.9748 -0.9022
 2917SOL    HW210298   6.829   6.561   5.476 -0.1365  0.3445 -0.7198
 2918SOL     OW10299   3.680   5.094   6.053  0.1475  0.3791 -0.0420
 2918SOL    HW110300   3.598   5.089   6.102  0.9727  0.1250  1.3552
 2918SOL    HW210301   3.653   5.083   5.962 -1.4514  1.0438  0.3006
 2919SOL     OW10302   0.549   4.662   4.412 -0.1810  0.5295  0.2484
 2919SOL    HW110303   0.479   4.699   4.466 -0.9568 -0.5128 -0.0091
 2919SOL    HW210304   0.599   4.738   4.382 -0.2337  1.1835  1.7455
 2920SOL     OW10305   2.098   6.614   6.642 -0.3632 -0.5856  0.2756
 2920SOL    HW110306   2.015   6.572   6.617 -0.3346 -0.9621  0.8003
 2920SOL    HW210307   2.152   6.542   6.675  0.2273 -0.3632 -0.1904
 2921SOL     OW10308   0.315   1.379   4.336 -0.1256 -0.6402 -0.5126
 2921SOL    HW110309   0.228   1.382   4.375 -0.4250 -1.4358 -1.1165
 2921SOL    HW210310   0.300   1.373   4.242  0.5839 -0.3778 -0.6479
 2922SOL     OW10311   2.265   0.596   0.187  0.2278  0.1989 -0.0667
 2922SOL    HW110312   2.305   0.682   0.169 -1.3793  1.2048  0.9096
 2922SOL    HW210313   2.190   0.616   0.243 -0.6273 -1.7903 -0.4275
 2923SOL     OW10314   5.668   0.393   1.654 -0.0139 -0.1340 -0.2023
 2923SOL    HW110315   5.758   0.402   1.686  0.4022  0.3891 -1.4506
 2923SOL    HW210316   5.640   0.483   1.637  0.6061 -0.4288 -3.3887
 2924SOL     OW10317   3.662   2.689   1.365  0.6138 -0.7151 -0.1346
 2924SOL    HW110318   3.683   2.652   1.279  0.1788 -1.7816  0.1960
 2924SOL    HW210319   3.742   2.678   1.416  0.6741 -0.6596 -0.2174
 2925SOL     OW10320   3.875   5.980   0.081  0.0186  0.3221  0.2836
 2925SOL    HW110321   3.830   5.902   0.114  1.2597 -0.1270  0.9674
 2925SOL    HW210322   3.835   6.053   0.129 -0.3094 -0.0148  0.5240
 2926SOL     OW10323   5.681   4.749   0.513 -0.1292 -0.4773 -0.4710
 2926SOL    HW110324   5.660   4.837   0.547  1.8388 -0.8912  2.1785
 2926SOL    HW210325   5.704   4.764   0.422  1.8080  2.1419  0.2988
 2927SOL     OW10326   4.657   5.168   4.121 -0.0313  0.8450 -0.4586
 2927SOL    HW110327   4.599   5.138   4.051 -1.4971  2.5183 -0.0500
 2927SOL    HW210328   4.661   5.095   4.183 -1.4702  0.5691 -0.6601
 2928SOL     OW10329   3.635   2.955   4.541  0.5085  0.1874  0.1007
 2928SOL    HW110330   3.669   3.045   4.535  1.3063 -0.1210 -0.1834
 2928SOL    HW210331   3.671   2.922   4.623  0.3603  0.0730  0.1191
 2929SOL     OW10332   0.334   0.201   6.426 -0.3491 -0.0351  0.0873
 2929SOL    HW110333   0.335   0.107   6.444 -1.0657 -0.1048 -0.1882
 2929SOL    HW210334   0.252   0.232   6.464 -0.4098  0.3663 -0.3614
 2930SOL     OW10335   1.354   2.718   2.959  0.1030 -0.4148 -0.2982
 2930SOL    HW110336   1.325   2.693   3.046 -0.9164  1.5277 -0.0350
 2930SOL    HW210337   1.298   2.668   2.899  1.4168 -2.4587  0.0825
 2931SOL     OW10338   5.875   3.690   5.658 -0.4377 -0.2873  0.4501
 2931SOL    HW110339   5.780   3.691   5.654 -0.4287 -1.6845 -0.5908
 2931SOL    HW210340   5.902   3.761   5.600 -0.8351 -1.0825 -0.7424
 2932SOL     OW10341   3.303   3.436   5.267 -0.5321 -0.3212  0.5390
 2932SOL    HW110342   3.224   3.383   5.282 -0.6733 -0.6447 -1.1897
 2932SOL    HW210343   3.271   3.515   5.223  0.1103 -0.4654 -0.2029
 2933SOL     OW10344   4.280   4.419   6.489  0.2613  0.4135 -0.2736
 2933SOL    HW110345   4.227   4.357   6.539  1.8872 -1.8472 -1.1863
 2933SOL    HW210346   4.313   4.481   6.554  0.1804 -0.8602  1.0379
 2934SOL     OW10347   5.106   5.993   5.374 -0.5410  0.5434  0.0128
 2934SOL    HW110348   5.075   5.910   5.338  1.5097 -0.8496  1.2142
 2934SOL    HW210349   5.155   6.033   5.303  1.3331 -0.9779  0.3444
 2935SOL     OW10350   2.482   6.351   4.754 -0.2472 -0.3873 -0.1428
 2935SOL    HW110351   2.505   6.259   4.738  2.9553  0.5507 -1.7578
 2935SOL    HW210352   2.443   6.380   4.671  1.2439  0.3333 -0.6270
 2936SOL     OW10353   1.336   1.974   3.745  0.0771  0.1938  0.9436
 2936SOL    HW110354   1.259   1.997   3.798  0.2141 -0.1937  1.3156
 2936SOL    HW210355   1.303   1.972   3.655  0.5197  4.1395  0.5084
 2937SOL     OW10356   5.239   6.021   5.133  0.3273  0.0444  0.0100
 2937SOL    HW110357   5.314   6.080   5.134  0.1507  0.2702  0.9276
 2937SOL    HW210358   5.241   5.981   5.046  1.0159  0.6720 -0.2737
 2938SOL     OW10359   1.526   0.504   5.768  0.3170  0.0099  0.3216
 2938SOL    HW110360   1.460   0.532   5.832 -0.4648  1.0560 -0.8838
 2938SOL    HW210361   1.601   0.560   5.786  0.1906  0.1360  0.4678
 2939SOL     OW10362   3.152   2.452   6.016 -0.0992  0.5752  0.5359
 2939SOL    HW110363   3.148   2.448   6.112 -4.3280  3.0067  0.7323
 2939SOL    HW210364   3.140   2.545   5.996  1.1309  0.1972 -2.4366
 2940SOL     OW10365   5.535   5.535   2.838  0.1599 -0.0606  0.5332
 2940SOL    HW110366   5.494   5.560   2.920 -1.0166 -1.5962  0.4748
 2940SOL    HW210367   5.461   5.514   2.780  0.9944 -0.8529 -0.2826
 2941SOL     OW10368   1.766   3.417   6.577 -0.6658  0.5361 -0.5887
 2941SOL    HW110369   1.756   3.480   6.649  0.0444  0.3924 -0.3537
 2941SOL    HW210370   1.810   3.342   6.618 -0.6378  0.2825 -1.0855
 2942SOL     OW10371   6.717   1.293   5.712 -0.0008  0.4791 -0.6483
 2942SOL    HW110372   6.790   1.283   5.651  1.4005  2.3345  0.6120
 2942SOL    HW210373   6.759   1.317   5.795 -1.9912  0.3410  0.4467
 2943SOL     OW10374   2.152   4.206   3.710  0.2443  0.5201  1.0494
 2943SOL    HW110375   2.226   4.185   3.653 -1.2178  0.7755 -1.0596
 2943SOL    HW210376   2.142   4.129   3.766  1.5237  0.1169  0.7525
 2944SOL     OW10377   0.129   2.367   4.879 -0.3140 -0.5076  0.4143
 2944SOL    HW110378   0.132   2.320   4.795  0.9653  0.3234 -0.0346
 2944SOL    HW210379   0.042   2.408   4.879 -0.6736 -1.2262 -0.0881
 2945SOL     OW10380   4.921   4.028   0.040 -0.2249  0.1702  0.3724
 2945SOL    HW110381   4.897   4.111   0.081 -0.0165  0.0149  0.8239
 2945SOL    HW210382   4.849   3.969   0.061 -0.8104  0.4806 -0.7307
 2946SOL     OW10383   1.540   5.256   0.944 -0.5927 -0.3955  0.1839
 2946SOL    HW110384   1.502   5.334   0.983 -0.3379 -0.0465 -0.2508
 2946SOL    HW210385   1.612   5.232   1.003  0.9342  1.1625 -0.9469
 2947SOL     OW10386   1.120   5.213   6.401 -1.0027 -0.0056 -0.6946
 2947SOL    HW110387   1.057   5.285   6.400 -1.0668 -0.0433  0.0501
 2947SOL    HW210388   1.175   5.230   6.477 -2.4728 -1.9390  0.9051
 2948SOL     OW10389   6.284   3.695   3.034 -0.4068 -0.6624 -0.1217
 2948SOL    HW110390   6.378   3.689   3.049 -0.0497  1.7899 -0.9130
 2948SOL    HW210391   6.262   3.613   2.988  1.1350 -1.6576  0.8298
 2949SOL     OW10392   5.851   3.733   2.501 -0.0915 -0.2147  0.0705
 2949SOL    HW110393   5.804   3.812   2.475  0.2046  0.1044  0.4980
 2949SOL    HW210394   5.919   3.723   2.434 -1.5111 -1.3837 -1.2753
 2950SOL     OW10395   6.526   5.443   6.097  0.4479 -0.1556  0.7302
 2950SOL    HW110396   6.566   5.409   6.017  0.5429 -0.4230  0.8895
 2950SOL    HW210397   6.455   5.381   6.117 -1.2583  1.2657 -0.5470
 2951SOL     OW10398   3.326   3.547   2.473  0.8638 -0.4671 -0.5166
 2951SOL    HW110399   3.330   3.597   2.554 -1.6246 -0.9390 -0.0137
 2951SOL    HW210400   3.281   3.605   2.411 -1.1831 -1.6333 -0.2087
 2952SOL     OW10401   1.976   0.688   0.259  0.1117  0.0291 -0.5664
 2952SOL    HW110402   2.029   0.697   0.180 -0.6897  0.1061 -1.1016
 2952SOL    HW210403   2.038   0.702   0.331  0.7310  0.5196 -1.1864
 2953SOL     OW10404   4.883   0.907   6.250 -0.1194 -0.2010  0.7901
 2953SOL    HW110405   4.801   0.954   6.267  0.5743  1.5466 -0.4295
 2953SOL    HW210406   4.934   0.917   6.330 -0.4776  0.0671  0.9881
 2954SOL     OW10407   1.673   2.989   2.527 -0.4113 -0.8780 -0.1309
 2954SOL    HW110408   1.686   3.082   2.545  0.1456 -0.2321 -3.2503
 2954SOL    HW210409   1.586   2.969   2.562 -0.9612  1.0868 -0.2848
 2955SOL     OW10410   2.727   6.482   4.161  0.4281  0.1463 -0.0531
 2955SOL    HW110411   2.719   6.451   4.251  1.2744  1.8013  0.6140
 2955SOL    HW210412   2.820   6.499   4.149 -0.0490  3.6958  0.1242
 2956SOL     OW10413   5.318   4.445   5.516  0.4555 -0.3713 -0.2301
 2956SOL    HW110414   5.401   4.408   5.546  1.1440  1.1550 -0.1210
 2956SOL    HW210415   5.335   4.539   5.511 -1.3539  0.0099  0.0609
 2957SOL     OW10416   2.568   5.635   5.057  0.6940 -0.6347  0.1754
 2957SOL    HW110417   2.480   5.605   5.078  0.2618  0.8031  0.5502
 2957SOL    HW210418   2.594   5.688   5.132  1.2014  0.3274 -0.6465
 2958SOL     OW10419   4.658   2.284   0.037 -0.2053  0.3044  0.1380
 2958SOL    HW110420   4.731   2.294  -0.024 -1.4846 -1.6151 -1.8646
 2958SOL    HW210421   4.667   2.195   0.072 -2.1415 -0.4148 -1.0225
 2959SOL     OW10422   3.074   3.485   2.282  0.0555  0.0508 -0.5403
 2959SOL    HW110423   3.084   3.569   2.237  0.9212  0.5828  0.6098
 2959SOL    HW210424   3.134   3.490   2.356 -1.2418 -0.8467  0.6203
 2960SOL     OW10425   0.546   1.826   4.306 -0.0401  0.1608  0.3465
 2960SOL    HW110426   0.527   1.869   4.223 -0.6927  1.9078  1.3509
 2960SOL    HW210427   0.462   1.788   4.333 -0.2525  1.0691  1.0032
 2961SOL     OW10428   5.568   3.762   4.842  0.0672  0.9098  0.1826
 2961SOL    HW110429   5.619   3.817   4.782 -0.8297  0.1658 -1.3466
 2961SOL    HW210430   5.515   3.824   4.892 -1.8390  1.5401 -2.3457
 2962SOL     OW10431   5.921   2.505   0.891  1.4205 -0.1283 -0.1112
 2962SOL    HW110432   5.959   2.549   0.967  0.1319 -0.5155  0.7975
 2962SOL    HW210433   5.868   2.435   0.929  0.1619  0.1266 -1.3273
 2963SOL     OW10434   0.014   5.386   1.519 -0.1677 -0.4077 -0.1702
 2963SOL    HW110435   0.032   5.456   1.581  1.1878 -1.2280  0.3987
 2963SOL    HW210436  -0.067   5.346   1.551 -0.1138 -0.0848  0.3755
 2964SOL     OW10437   6.692   3.084   3.047 -0.2641  0.0961  0.1512
 2964SOL    HW110438   6.647   3.168   3.045  0.5335  0.5291 -0.5428
 2964SOL    HW210439   6.643   3.029   2.986  0.7968  0.9335 -1.5260
 2965SOL     OW10440   5.822   1.032   4.227  0.3765 -0.7813  0.1343
 2965SOL    HW110441   5.792   0.968   4.163 -0.7744  0.2431 -0.3820
 2965SOL    HW210442   5.913   1.048   4.205  0.1672 -0.9150 -0.8407
 2966SOL     OW10443   1.518   4.123   2.139  0.1755 -0.1444 -0.0806
 2966SOL    HW110444   1.496   4.089   2.225  1.5251  0.0358  0.3608
 2966SOL    HW210445   1.563   4.206   2.157  2.6316 -1.2313 -0.7818
 2967SOL     OW10446   5.180   1.305   6.386 -0.0974 -0.6914 -0.0152
 2967SOL    HW110447   5.229   1.388   6.386 -0.5925 -0.3962  0.3586
 2967SOL    HW210448   5.167   1.284   6.478  1.7052 -2.2082 -0.0504
 2968SOL     OW10449   3.963   5.414   3.319  0.1504  0.5071  0.2031
 2968SOL    HW110450   3.887   5.419   3.260  0.7325 -0.4258 -0.6628
 2968SOL    HW210451   3.982   5.505   3.342 -0.2853  0.8732 -0.8154
 2969SOL     OW10452   5.096   2.724   0.054 -0.5936  0.0505 -0.4870
 2969SOL    HW110453   5.051   2.651   0.011 -3.2806  1.6585 -0.6472
 2969SOL    HW210454   5.099   2.793  -0.011 -1.1143  1.1782  0.6430
 2970SOL     OW10455   2.349   5.539   4.376  0.5355 -0.0403 -0.1492
 2970SOL    HW110456   2.304   5.527   4.460 -1.1996  2.1325 -0.6808
 2970SOL    HW210457   2.427   5.591   4.398  0.8526 -0.6724  0.2693
 2971SOL     OW10458   6.255   1.130   6.262 -0.8033 -0.0276  0.2888
 2971SOL    HW110459   6.178   1.078   6.285 -0.5757 -0.8198 -0.6589
 2971SOL    HW210460   6.313   1.121   6.337 -1.7026  0.7616  1.1101
 2972SOL     OW10461   2.697   0.299   6.530  0.2677  0.4125  0.0514
 2972SOL    HW110462   2.692   0.327   6.439  1.7724  0.8959  0.0884
 2972SOL    HW210463   2.667   0.208   6.529 -0.2647  0.5902 -0.8279
 2973SOL     OW10464   2.897   2.569   2.630  0.8242 -0.3732 -1.0635
 2973SOL    HW110465   2.830   2.516   2.674  1.6401 -1.8306 -1.5012
 2973SOL    HW210466   2.897   2.536   2.540  1.8210 -0.1020 -1.1732
 2974SOL     OW10467   5.334   1.544   6.379 -0.6639 -0.0969  0.3294
 2974SOL    HW110468   5.318   1.583   6.465  0.1551 -1.4738  1.1551
 2974SOL    HW210469   5.279   1.594   6.319 -3.9435 -1.2343  2.1519
 2975SOL     OW10470   6.569   1.170   2.391 -0.3000 -1.0816  0.1262
 2975SOL    HW110471   6.637   1.139   2.331 -0.4812  0.7503 -1.1067
 2975SOL    HW210472   6.489   1.171   2.338 -0.3708  1.0641  0.1761
 2976SOL     OW10473   6.091   4.236   3.570  0.4462  0.0708  0.2066
 2976SOL    HW110474   6.144   4.192   3.504 -0.9309 -0.1067 -0.8291
 2976SOL    HW210475   6.073   4.168   3.636  1.2347  0.0586  0.4177
 2977SOL     OW10476   3.057   4.720   3.104 -0.1847 -0.0242 -0.1018
 2977SOL    HW110477   3.113   4.747   3.031 -0.4370 -0.2904 -0.3969
 2977SOL    HW210478   3.113   4.726   3.181  0.1022  0.1996 -0.3286
 2978SOL     OW10479   3.707   4.754   2.573  0.1893  0.0896 -0.0496
 2978SOL    HW110480   3.694   4.802   2.654  0.6347  0.3669 -0.1331
 2978SOL    HW210481   3.668   4.810   2.506 -0.9659 -0.5571  0.0785
 2979SOL     OW10482   4.539   6.588   0.172 -0.0137  0.0959  0.2996
 2979SOL    HW110483   4.587   6.658   0.128 -0.3370  0.3477  0.3442
 2979SOL    HW210484   4.448   6.601   0.147  0.1381 -1.4122 -1.1711
 2980SOL     OW10485   3.967   1.363   0.821 -0.2177 -0.1657  0.3112
 2980SOL    HW110486   3.980   1.456   0.805 -0.2362  0.0390  1.4358
 2980SOL    HW210487   4.035   1.319   0.769  1.9411  0.6319  2.3153
 2981SOL     OW10488   6.199   2.067   1.946 -0.5315 -0.2768 -0.1975
 2981SOL    HW110489   6.193   2.023   2.031 -1.2395  1.4568  0.7121
 2981SOL    HW210490   6.285   2.043   1.912 -0.8991 -2.3542  0.2110
 2982SOL     OW10491   3.486   6.309   1.906 -0.4122 -0.4244  0.0632
 2982SOL    HW110492   3.550   6.248   1.867  0.1550  0.0597  0.2266
 2982SOL    HW210493   3.520   6.396   1.884  0.8544 -0.0466  2.9842
 2983SOL     OW10494   4.199   1.773   4.321  0.5379 -0.0370  0.4356
 2983SOL    HW110495   4.158   1.859   4.319  0.3142 -0.1278  1.1157
 2983SOL    HW210496   4.292   1.790   4.307  0.5048  0.3201  0.6537
 2984SOL     OW10497   0.398   1.356   1.606 -0.1975 -1.0390 -0.4632
 2984SOL    HW110498   0.368   1.270   1.577 -0.3491 -0.7797 -1.0863
 2984SOL    HW210499   0.488   1.363   1.574 -0.0634 -1.1031 -0.1093
 2985SOL     OW10500   4.091   6.195   1.559  0.4496  0.3269 -0.6449
 2985SOL    HW110501   4.010   6.233   1.595  0.6387  0.1572 -0.0159
 2985SOL    HW210502   4.072   6.182   1.466 -1.0892 -1.8461 -0.1198
 2986SOL     OW10503   0.888   5.240   4.625 -0.4346  0.0394  0.2287
 2986SOL    HW110504   0.798   5.209   4.634 -0.4899  0.1218 -0.0513
 2986SOL    HW210505   0.887   5.296   4.547  0.2756 -1.5475 -0.9842
 2987SOL     OW10506   1.547   1.515   2.046 -0.3106  0.1298 -0.1503
 2987SOL    HW110507   1.624   1.492   2.098 -0.0572  1.3309  0.0281
 2987SOL    HW210508   1.567   1.483   1.958  0.2203  0.0785 -0.0130
 2988SOL     OW10509   3.154   4.341   5.850 -0.2493 -0.2174 -0.1672
 2988SOL    HW110510   3.143   4.262   5.902  0.5563 -0.9548 -1.0834
 2988SOL    HW210511   3.216   4.317   5.782  0.3943  1.3495 -0.1851
 2989SOL     OW10512   6.728   0.329   4.765 -0.4809 -0.3127  0.7656
 2989SOL    HW110513   6.786   0.366   4.831 -0.7824  0.0084  0.8543
 2989SOL    HW210514   6.786   0.283   4.705 -0.3483 -3.0309  2.7488
 2990SOL     OW10515   0.298   2.671   1.765 -0.5130  0.4424  0.1060
 2990SOL    HW110516   0.371   2.616   1.794 -1.1427  0.1402  1.1639
 2990SOL    HW210517   0.340   2.751   1.734  0.4520 -0.6839 -1.7057
 2991SOL     OW10518   1.123   1.911   6.715 -0.3442  0.1232 -0.0970
 2991SOL    HW110519   1.043   1.911   6.768  0.8394  0.2423  1.7803
 2991SOL    HW210520   1.119   1.993   6.667 -1.3731  0.1038 -0.0762
 2992SOL     OW10521   5.993   5.032   0.303 -0.5159 -0.4661  0.6437
 2992SOL    HW110522   5.996   4.937   0.292 -0.1748 -0.3736 -0.0902
 2992SOL    HW210523   5.973   5.067   0.216  2.5997  0.2906  0.0869
 2993SOL     OW10524   0.518   6.282   4.016 -0.2410  0.2043  0.5978
 2993SOL    HW110525   0.538   6.203   4.067  1.0253  0.3092  0.3058
 2993SOL    HW210526   0.428   6.270   3.988 -0.1233 -1.0722  0.6880
 2994SOL     OW10527   3.872   4.511   2.761 -0.7463  0.5607 -0.1067
 2994SOL    HW110528   3.779   4.502   2.781 -0.6042  0.6887  0.6453
 2994SOL    HW210529   3.874   4.558   2.678 -1.3411  2.1289  0.7240
 2995SOL     OW10530   1.011   2.135   6.419 -0.1472  0.0691 -0.2597
 2995SOL    HW110531   1.028   2.045   6.388 -1.4500  0.1456 -1.2727
 2995SOL    HW210532   1.075   2.149   6.488  0.5385 -1.4025 -0.5631
 2996SOL     OW10533   3.911   6.760   1.422 -0.1997  0.6023  0.3296
 2996SOL    HW110534   4.000   6.794   1.431  0.4535 -1.0691  0.6854
 2996SOL    HW210535   3.865   6.794   1.498  0.4732  0.5523  0.7701
 2997SOL     OW10536   2.199   2.912   5.421  0.1018  0.2794 -0.6493
 2997SOL    HW110537   2.214   3.006   5.430  0.4549  0.0635  1.7514
 2997SOL    HW210538   2.118   2.896   5.471 -0.1234 -0.6623 -1.2889
 2998SOL     OW10539   3.982   5.819   4.654  0.1078 -0.3670 -0.1377
 2998SOL    HW110540   4.035   5.881   4.604  0.6156 -0.5660  0.1498
 2998SOL    HW210541   3.892   5.842   4.633  0.0933  2.7811  2.5616
 2999SOL     OW10542   0.718   5.766   0.571  0.3508 -0.2132 -0.6851
 2999SOL    HW110543   0.683   5.709   0.502 -1.2016 -1.0408  0.7064
 2999SOL    HW210544   0.659   5.842   0.572 -0.2294 -0.6513  0.3187
 3000SOL     OW10545   2.272   2.815   1.888  0.0274  0.0488  0.2894
 3000SOL    HW110546   2.355   2.864   1.889 -0.1816  0.4158  0.0338
 3000SOL    HW210547   2.265   2.778   1.976  0.9668 -0.8515  0.0060
 3001SOL     OW10548   3.181   5.275   1.085  0.1271  0.4966 -0.5347
 3001SOL    HW110549   3.258   5.224   1.110  2.0429  3.3756  0.0391
 3001SOL    HW210550   3.125   5.273   1.162 -0.6679 -1.9486 -1.0854
 3002SOL     OW10551   0.732   0.206   5.327  0.1541  0.0653  0.3079
 3002SOL    HW110552   0.822   0.223   5.355  1.4095 -2.8907 -1.4094
 3002SOL    HW210553   0.717   0.264   5.252  0.8096  0.2282  0.3042
 3003SOL     OW10554   2.660   6.269   3.078 -0.5137 -0.0183 -0.2267
 3003SOL    HW110555   2.648   6.241   3.169 -0.2476 -1.8326 -0.7072
 3003SOL    HW210556   2.637   6.192   3.026 -0.9397  1.0780 -1.7241
 3004SOL     OW10557   5.601   5.064   0.135 -0.2981  0.2421  0.0970
 3004SOL    HW110558   5.636   5.147   0.104  0.0846  0.0341 -0.0325
 3004SOL    HW210559   5.652   4.997   0.088 -0.7875 -0.0622 -0.0105
 3005SOL     OW10560   0.994   4.168   2.863  0.3344 -0.4643 -0.9038
 3005SOL    HW110561   0.900   4.185   2.868  0.4998  1.1027 -2.1733
 3005SOL    HW210562   1.030   4.244   2.818  2.5500  0.0279  1.4375
 3006SOL     OW10563   3.095   3.490   5.780 -0.4002 -0.2212  0.3159
 3006SOL    HW110564   3.142   3.407   5.781  0.7678  0.3155 -1.7569
 3006SOL    HW210565   3.003   3.466   5.771 -0.5183 -1.2808  3.3640
 3007SOL     OW10566   3.050   5.522   3.466  0.1215  0.0286  0.2037
 3007SOL    HW110567   3.091   5.594   3.515  0.0401  0.5992 -0.5470
 3007SOL    HW210568   3.028   5.560   3.381 -1.1589 -0.5041  0.2655
 3008SOL     OW10569   1.803   1.949   5.975  0.3286 -0.0727 -0.5845
 3008SOL    HW110570   1.817   1.855   5.982  1.8435  0.1994  0.8075
 3008SOL    HW210571   1.809   1.981   6.065 -2.6340  1.0994 -0.6825
 3009SOL     OW10572   0.649   5.082   3.046  0.2374 -0.0150 -0.2536
 3009SOL    HW110573   0.644   5.002   2.993 -0.1843 -0.1992  0.0562
 3009SOL    HW210574   0.720   5.133   3.006  0.8813 -0.7897 -0.1247
 3010SOL     OW10575   0.044   0.219   6.207 -0.4445 -0.1729  0.0499
 3010SOL    HW110576   0.039   0.310   6.235 -1.7633  0.0158 -0.7177
 3010SOL    HW210577  -0.007   0.171   6.273  0.3353 -0.3792  0.5111
 3011SOL     OW10578   0.759   2.918   0.618 -0.0904  0.1276 -0.5366
 3011SOL    HW110579   0.796   2.983   0.678 -1.0097 -0.0463  0.2576
 3011SOL    HW210580   0.804   2.932   0.535  0.9688  0.6094  0.1056
 3012SOL     OW10581   5.403   2.541   4.309  0.8450 -0.1659 -0.2009
 3012SOL    HW110582   5.444   2.487   4.241  0.2235  0.7055 -1.3086
 3012SOL    HW210583   5.312   2.550   4.280  0.8662  1.2104  0.1226
 3013SOL     OW10584   4.911   0.207   3.317 -0.7182 -0.2074 -0.1808
 3013SOL    HW110585   4.963   0.144   3.367 -1.6300 -1.3130 -0.5605
 3013SOL    HW210586   4.826   0.208   3.362 -1.2541 -0.5289 -1.1446
 3014SOL     OW10587   4.877   0.535   2.295  0.3033  0.2617 -0.1163
 3014SOL    HW110588   4.856   0.593   2.368  0.5622  1.1560 -0.7173
 3014SOL    HW210589   4.911   0.455   2.335 -0.5133  0.3416  0.7509
 3015SOL     OW10590   6.499   6.167   4.837 -0.3078 -0.2398 -0.0927
 3015SOL    HW110591   6.466   6.227   4.904 -0.1797 -1.5404  1.1828
 3015SOL    HW210592   6.579   6.209   4.806  0.7385 -0.5364  2.0277
 3016SOL     OW10593   4.268   3.620   4.810  0.3540  0.2106 -0.2160
 3016SOL    HW110594   4.271   3.560   4.884  1.7947 -0.0879 -0.4967
 3016SOL    HW210595   4.223   3.570   4.741  2.2065 -0.8761 -0.6975
 3017SOL     OW10596   1.293   4.162   5.417 -0.0316  0.2994  0.3293
 3017SOL    HW110597   1.222   4.142   5.357  0.0462 -0.8697  0.5957
 3017SOL    HW210598   1.296   4.087   5.476  1.7784  0.0410 -0.0238
 3018SOL     OW10599   2.667   4.367   3.992  0.8004 -0.8069  0.3150
 3018SOL    HW110600   2.617   4.289   4.016  0.0850 -0.6747 -0.6723
 3018SOL    HW210601   2.758   4.337   3.988  0.4712 -1.7767 -0.6760
 3019SOL     OW10602   1.493   5.850   0.857 -0.0281 -0.1947 -0.3162
 3019SOL    HW110603   1.432   5.793   0.810  0.9235 -0.3100 -1.4673
 3019SOL    HW210604   1.523   5.798   0.932  0.3992 -1.0213 -1.0388
 3020SOL     OW10605   2.317   6.392   4.534 -0.0753 -0.2426 -0.0952
 3020SOL    HW110606   2.280   6.307   4.510  0.6861 -0.8535  0.8264
 3020SOL    HW210607   2.377   6.413   4.463 -0.1213 -0.5706 -0.2313
 3021SOL     OW10608   2.869   6.093   1.725  0.1434  0.4980 -0.2487
 3021SOL    HW110609   2.812   6.017   1.715  0.0409  0.5810 -0.2988
 3021SOL    HW210610   2.954   6.056   1.752  0.1585  0.3469 -0.4991
 3022SOL     OW10611   3.026   4.947   1.094  0.5306 -0.1731  0.6820
 3022SOL    HW110612   2.962   4.987   1.153 -0.0282  0.0483 -0.0539
 3022SOL    HW210613   3.018   4.853   1.111  1.1765 -0.0529  1.7430
 3023SOL     OW10614   4.734   2.155   0.436 -0.4208 -0.4314  0.0012
 3023SOL    HW110615   4.703   2.074   0.476  0.4183 -0.9227 -0.3144
 3023SOL    HW210616   4.799   2.189   0.497  0.2080 -0.7096 -0.5049
 3024SOL     OW10617   0.643   3.673   2.584  0.1079 -0.3804  0.3004
 3024SOL    HW110618   0.695   3.730   2.640  1.1980 -0.7817 -0.2724
 3024SOL    HW210619   0.622   3.598   2.640 -1.3414  0.5359  1.0585
 3025SOL     OW10620   3.829   4.390   2.392  0.3397  0.2515  0.1039
 3025SOL    HW110621   3.863   4.380   2.481 -0.7048 -0.1357  0.4729
 3025SOL    HW210622   3.734   4.394   2.403  0.0346 -2.0858 -1.1733
 3026SOL     OW10623   1.604   5.736   6.432  0.5030  0.4149 -0.4067
 3026SOL    HW110624   1.668   5.715   6.365 -0.6708 -0.8391 -1.1831
 3026SOL    HW210625   1.528   5.768   6.383  0.0873  0.7098  0.4166
 3027SOL     OW10626   2.047   5.436   3.050 -0.6772  0.1342 -0.2957
 3027SOL    HW110627   2.018   5.524   3.074 -0.4910  0.8404 -2.4568
 3027SOL    HW210628   1.975   5.379   3.077 -1.2195  1.0558  0.2632
 3028SOL     OW10629   0.085   1.978   0.039 -0.5121 -0.1024 -0.1194
 3028SOL    HW110630   0.143   1.939   0.105  1.1880 -0.3560 -1.6873
 3028SOL    HW210631   0.071   2.068   0.070  2.2507  0.5595 -0.5575
 3029SOL     OW10632   1.027   3.909   2.700  0.4920 -0.4953  0.6564
 3029SOL    HW110633   1.008   3.860   2.620 -0.2734 -1.2147  1.2634
 3029SOL    HW210634   0.941   3.939   2.731  0.7266 -0.6775  1.4928
 3030SOL     OW10635   3.920   0.350   2.587  0.2441 -0.1577  0.3164
 3030SOL    HW110636   3.856   0.391   2.646  0.2954 -0.1544  0.3699
 3030SOL    HW210637   4.004   0.358   2.633  0.5412  1.1609 -0.3959
 3031SOL     OW10638   4.115   1.887   3.399 -0.0906  0.2663  0.5824
 3031SOL    HW110639   4.158   1.967   3.430  1.9002 -0.7533  0.6520
 3031SOL    HW210640   4.121   1.827   3.472  0.5152 -0.6723 -0.2123
 3032SOL     OW10641   2.692   5.828   1.941  0.0066 -0.0721  0.3760
 3032SOL    HW110642   2.625   5.887   1.974  0.3935  1.3793 -1.3052
 3032SOL    HW210643   2.775   5.865   1.973  0.1265 -1.2776  1.5762
 3033SOL     OW10644   5.152   1.086   5.598 -0.2576 -0.2612  0.0296
 3033SOL    HW110645   5.146   1.182   5.602 -2.4479 -0.4040  1.8545
 3033SOL    HW210646   5.235   1.066   5.642  0.3600  0.7770 -0.6096
 3034SOL     OW10647   5.834   2.706   0.064 -0.1503  0.5117 -0.0157
 3034SOL    HW110648   5.845   2.783   0.008 -0.3402  0.8100  0.3528
 3034SOL    HW210649   5.832   2.633   0.003 -1.7623  0.9498 -0.5281
 3035SOL     OW10650   6.205   5.567   5.624 -0.8815 -0.1760  0.2451
 3035SOL    HW110651   6.252   5.612   5.554  0.5680 -2.5027 -0.3654
 3035SOL    HW210652   6.121   5.544   5.586 -0.6122 -0.2617 -0.2981
 3036SOL     OW10653   2.332   2.393   2.030  0.1116 -0.1945 -0.2867
 3036SOL    HW110654   2.286   2.460   1.978  2.4033  1.5877 -0.1777
 3036SOL    HW210655   2.356   2.438   2.111  1.4858 -1.2258 -0.0891
 3037SOL     OW10656   3.291   5.791   5.276  0.2662  0.8743 -0.1005
 3037SOL    HW110657   3.301   5.700   5.249 -2.0767 -0.0558  1.7971
 3037SOL    HW210658   3.370   5.811   5.325  0.7409 -0.1612 -0.4263
 3038SOL     OW10659   5.895   5.461   3.379 -0.1681  0.0341  0.3789
 3038SOL    HW110660   5.863   5.529   3.319 -2.0524 -2.0551 -1.1644
 3038SOL    HW210661   5.818   5.406   3.395  1.5470 -2.4396  0.5411
 3039SOL     OW10662   3.311   2.282   3.097 -0.0476 -0.2168  0.2445
 3039SOL    HW110663   3.259   2.358   3.068 -0.9006 -0.9340 -0.1629
 3039SOL    HW210664   3.394   2.319   3.125 -1.0452  1.0697  1.6384
 3040SOL     OW10665   0.715   1.580   2.517  0.2667 -0.3992  0.1511
 3040SOL    HW110666   0.677   1.584   2.429  0.0766 -0.8818  0.2093
 3040SOL    HW210667   0.641   1.561   2.575  0.0727  1.6684  0.6496
 3041SOL     OW10668   3.009   6.055   2.686  0.1773 -0.2766 -0.2190
 3041SOL    HW110669   3.101   6.027   2.693  0.6414  0.7782 -1.6313
 3041SOL    HW210670   3.014   6.142   2.646 -1.3789  0.4765  1.1283
 3042SOL     OW10671   2.866   3.910   3.054  0.4735  0.2452  0.0243
 3042SOL    HW110672   2.925   3.956   3.114 -1.6779 -0.1792  2.6730
 3042SOL    HW210673   2.887   3.817   3.067  0.3323  0.1751 -0.2544
 3043SOL     OW10674   1.333   0.979   1.480  0.1768  0.3799 -0.1655
 3043SOL    HW110675   1.243   0.949   1.493  0.8827 -1.4144  0.8684
 3043SOL    HW210676   1.365   1.001   1.568  0.8823  0.5971 -0.4653
 3044SOL     OW10677   4.363   4.833   6.154  0.0126 -0.0664 -0.1839
 3044SOL    HW110678   4.438   4.859   6.100 -0.3029  2.0989  0.3423
 3044SOL    HW210679   4.391   4.851   6.244 -0.4709 -1.0296  0.1672
 3045SOL     OW10680   5.067   3.384   3.548  0.3884  0.3972  0.4833
 3045SOL    HW110681   5.011   3.451   3.508  1.9869  0.8551 -1.0988
 3045SOL    HW210682   5.071   3.314   3.483  2.0837  0.6327  0.2899
 3046SOL     OW10683   5.879   4.835   2.287  0.0604 -0.0400  0.3932
 3046SOL    HW110684   5.787   4.812   2.300  0.0444 -0.2585 -0.0757
 3046SOL    HW210685   5.910   4.861   2.374  0.0672 -1.8101  0.9623
 3047SOL     OW10686   5.085   5.544   4.087  0.6193  0.0169  0.0111
 3047SOL    HW110687   5.099   5.530   4.181  2.1414  1.7771  0.1159
 3047SOL    HW210688   5.021   5.615   4.082 -0.5116 -1.0062 -0.3289
 3048SOL     OW10689   5.774   5.403   2.793 -0.0741 -0.0158 -0.2385
 3048SOL    HW110690   5.704   5.464   2.815 -1.0639 -0.4170 -2.0473
 3048SOL    HW210691   5.807   5.433   2.708  0.0275 -1.4478 -0.7418
 3049SOL     OW10692   2.040   1.305   0.029 -0.2612 -0.4322 -0.8681
 3049SOL    HW110693   1.954   1.346   0.033  0.1234  0.4059 -0.9431
 3049SOL    HW210694   2.022   1.214   0.007 -1.1069 -0.1879 -1.2307
 3050SOL     OW10695   4.103   2.979   6.631  0.2132 -0.7313  0.1813
 3050SOL    HW110696   4.058   2.986   6.547 -0.5025 -0.5097  0.5673
 3050SOL    HW210697   4.191   3.013   6.615 -0.1625  0.0375 -0.2939
 3051SOL     OW10698   5.324   6.375   4.532  0.0464 -0.1765  0.0472
 3051SOL    HW110699   5.267   6.447   4.558  1.9140  0.7242  1.9190
 3051SOL    HW210700   5.318   6.312   4.604 -0.3328 -1.1896 -0.8313
 3052SOL     OW10701   5.132   0.867   2.140  0.2432  0.7215 -0.2116
 3052SOL    HW110702   5.045   0.902   2.119 -1.2113 -2.0909  0.6014
 3052SOL    HW210703   5.125   0.841   2.232  1.8688  0.1938 -0.2170
 3053SOL     OW10704   3.197   1.310   3.540 -0.0349  0.1018  0.5270
 3053SOL    HW110705   3.111   1.336   3.507  0.1572  0.2261  0.1179
 3053SOL    HW210706   3.233   1.254   3.472  0.1350 -0.0978  0.7788
 3054SOL     OW10707   6.468   3.496   3.413 -0.2450  0.8044  0.2973
 3054SOL    HW110708   6.526   3.419   3.410 -0.8912  0.3258 -1.7768
 3054SOL    HW210709   6.517   3.564   3.367 -0.0838  1.3540  1.2636
 3055SOL     OW10710   0.543   5.406   4.809 -0.0201  0.1544  0.0892
 3055SOL    HW110711   0.485   5.339   4.773 -0.0900  1.2248 -1.8987
 3055SOL    HW210712   0.486   5.458   4.866 -0.0497 -1.1711  1.3368
 3056SOL     OW10713   2.605   1.717   4.410 -0.2171  0.1397  0.4626
 3056SOL    HW110714   2.518   1.753   4.395 -1.7280 -3.3293 -0.1317
 3056SOL    HW210715   2.655   1.742   4.332 -0.7847  1.7782  0.5877
 3057SOL     OW10716   6.217   4.697   0.739  0.0270 -0.0066  0.5865
 3057SOL    HW110717   6.240   4.672   0.828  0.2962 -1.9605  0.0205
 3057SOL    HW210718   6.261   4.632   0.684  0.3351  1.4759 -1.0159
 3058SOL     OW10719   2.541   1.980   0.599 -0.1876 -0.3500 -0.0758
 3058SOL    HW110720   2.549   1.931   0.681  0.2725  0.5913  0.4642
 3058SOL    HW210721   2.559   1.916   0.530 -1.3377 -1.3391  0.5049
 3059SOL     OW10722   5.178   3.396   4.707  0.6034  0.8073  0.3210
 3059SOL    HW110723   5.087   3.422   4.696  0.3082 -0.3664 -0.0834
 3059SOL    HW210724   5.178   3.342   4.786  0.9657  0.8258  0.3356
 3060SOL     OW10725   3.304   5.482   6.430 -0.3016  0.2514  0.6351
 3060SOL    HW110726   3.388   5.481   6.475 -0.5563  0.5747  1.1356
 3060SOL    HW210727   3.263   5.564   6.458 -1.2496 -0.4272  1.2772
 3061SOL     OW10728   2.296   2.207   3.623  0.2386  0.2289  0.2706
 3061SOL    HW110729   2.379   2.194   3.668  0.9081 -3.0895 -1.6068
 3061SOL    HW210730   2.320   2.222   3.532 -1.2223  1.7992  0.0840
 3062SOL     OW10731   2.887   4.888   4.969 -0.3350  0.4929 -0.0818
 3062SOL    HW110732   2.842   4.815   4.927 -0.3817  1.1191 -1.1483
 3062SOL    HW210733   2.941   4.847   5.037 -0.4378 -0.5169 -0.5902
 3063SOL     OW10734   3.114   4.942   3.848 -0.5206 -0.0178 -0.1966
 3063SOL    HW110735   3.142   4.972   3.934  0.1822  1.4291 -0.9007
 3063SOL    HW210736   3.116   4.846   3.854  0.9627  0.0521  0.9493
 3064SOL     OW10737   0.161   6.426   1.021 -0.2209 -0.2268 -0.0834
 3064SOL    HW110738   0.125   6.337   1.018 -0.0747 -0.2615 -1.0049
 3064SOL    HW210739   0.139   6.457   1.109 -1.6154 -0.6112 -0.2632
 3065SOL     OW10740   3.941   5.089   4.181  0.1379 -0.3969 -0.0664
 3065SOL    HW110741   3.969   5.004   4.146 -2.1976 -1.0172 -0.5961
 3065SOL    HW210742   3.908   5.069   4.268  0.5260  0.1793  0.2220
 3066SOL     OW10743   0.449   3.067   4.199 -0.1131 -0.1733 -0.0238
 3066SOL    HW110744   0.479   2.977   4.202 -0.5519 -0.3945 -1.4579
 3066SOL    HW210745   0.523   3.115   4.161 -0.0096  0.0140  0.4108
 3067SOL     OW10746   4.656   1.747   5.475 -0.3055 -0.4646  0.2498
 3067SOL    HW110747   4.747   1.776   5.474 -0.3860 -0.2066 -0.8622
 3067SOL    HW210748   4.657   1.668   5.529  1.2349 -2.4597 -2.4512
 3068SOL     OW10749   5.054   0.129   0.902  0.0823  0.3489 -0.1212
 3068SOL    HW110750   5.082   0.038   0.898  1.3064  0.7181 -0.9502
 3068SOL    HW210751   5.080   0.159   0.989 -0.9413 -0.2643  0.4039
 3069SOL     OW10752   6.213   1.116   5.952  0.1731 -0.8544 -0.4572
 3069SOL    HW110753   6.271   1.061   5.900  1.1082  0.0764 -0.4461
 3069SOL    HW210754   6.239   1.100   6.043  2.8261  1.9628 -0.5293
 3070SOL     OW10755   1.683   0.440   3.866 -0.3479 -0.3875  0.0616
 3070SOL    HW110756   1.674   0.535   3.859 -2.1827 -0.6206 -1.1623
 3070SOL    HW210757   1.726   0.414   3.784  0.9869 -0.5660  0.7786
 3071SOL     OW10758   3.800   4.234   6.064  0.4148  0.2262  0.3683
 3071SOL    HW110759   3.841   4.232   6.151  0.9841 -1.5001  0.0781
 3071SOL    HW210760   3.830   4.155   6.021  0.1085  1.0474 -1.4250
 3072SOL     OW10761   2.258   5.967   5.735 -0.1242  0.4325  0.0876
 3072SOL    HW110762   2.326   5.913   5.696  0.2585  1.7352 -1.1511
 3072SOL    HW210763   2.259   6.048   5.683  0.1062  2.1019  2.5028
 3073SOL     OW10764   4.043   4.263   1.002 -0.0158 -0.0979 -0.1963
 3073SOL    HW110765   4.031   4.353   1.033 -0.4681  0.0720 -0.8443
 3073SOL    HW210766   4.112   4.227   1.058 -0.3725  0.3995  0.5755
 3074SOL     OW10767   3.594   4.872   0.799 -0.4431 -0.2486 -0.5261
 3074SOL    HW110768   3.560   4.947   0.750  0.6573  0.9573  0.4945
 3074SOL    HW210769   3.522   4.848   0.858 -0.6711  0.2420 -0.5973
 3075SOL     OW10770   3.904   5.176   0.134  0.1436 -0.0889  0.1610
 3075SOL    HW110771   3.935   5.256   0.175  0.8500  0.0115 -0.5453
 3075SOL    HW210772   3.874   5.121   0.206  0.7797  0.3305  0.7470
 3076SOL     OW10773   3.860   6.765   5.675 -0.0661  0.2500 -0.4274
 3076SOL    HW110774   3.919   6.777   5.750 -0.5876 -0.8485  0.1863
 3076SOL    HW210775   3.855   6.851   5.635  0.7232  0.7212  0.4358
 3077SOL     OW10776   2.701   5.902   1.660 -0.1578  0.1693 -0.2655
 3077SOL    HW110777   2.615   5.940   1.642 -0.0380  0.6100  0.0695
 3077SOL    HW210778   2.689   5.852   1.741 -0.0449  0.4314 -0.0841
 3078SOL     OW10779   5.664   4.152   0.944  0.1637 -0.2363 -0.4328
 3078SOL    HW110780   5.593   4.172   0.882 -0.7565 -0.3801  0.5401
 3078SOL    HW210781   5.716   4.232   0.946 -0.9379  0.4952  0.0861
 3079SOL     OW10782   2.329   1.106   5.354 -0.1555 -0.2997 -0.1059
 3079SOL    HW110783   2.306   1.095   5.446 -1.1449  1.3965 -0.1149
 3079SOL    HW210784   2.359   1.020   5.326 -1.1242 -1.1719  1.4450
 3080SOL     OW10785   4.895   2.550   1.281 -0.1266  0.1042  0.0851
 3080SOL    HW110786   4.812   2.581   1.317  0.1766  3.1868 -1.5061
 3080SOL    HW210787   4.962   2.599   1.330  0.5276  0.4808 -1.1340
 3081SOL     OW10788   5.516   4.017   1.578 -0.4085  0.3887 -0.1146
 3081SOL    HW110789   5.540   3.930   1.610 -0.6268  0.6362  0.7460
 3081SOL    HW210790   5.582   4.075   1.615 -1.2326  0.8145  0.7482
 3082SOL     OW10791   3.765   0.845   3.528  0.3286  0.2272 -0.3930
 3082SOL    HW110792   3.810   0.929   3.533 -0.3660  0.7876 -2.4890
 3082SOL    HW210793   3.675   0.867   3.505  0.6962 -1.0707 -3.6567
 3083SOL     OW10794   4.992   1.210   3.934  0.0515  0.0191  0.1285
 3083SOL    HW110795   5.084   1.185   3.945  0.4146 -0.3325 -2.8656
 3083SOL    HW210796   4.995   1.290   3.882 -1.3594  0.4400  0.6366
 3084SOL     OW10797   5.393   3.512   5.814  0.8436 -0.4654  0.0564
 3084SOL    HW110798   5.323   3.571   5.843  0.2440 -1.5854  0.9947
 3084SOL    HW210799   5.473   3.554   5.845  0.4720  0.0976  0.2809
 3085SOL     OW10800   3.795   2.237   0.575 -0.6712  0.0445 -0.0070
 3085SOL    HW110801   3.751   2.159   0.541 -0.2775  0.4493 -1.5309
 3085SOL    HW210802   3.862   2.257   0.510 -0.2583  1.2132  0.7432
 3086SOL     OW10803   0.095   1.249   2.335  0.2117 -0.3025 -0.3073
 3086SOL    HW110804   0.034   1.315   2.302 -0.0478 -0.6812 -0.5995
 3086SOL    HW210805   0.179   1.294   2.343 -0.0322  0.1379 -0.2123
 3087SOL     OW10806   4.502   5.782   4.263 -0.3643 -0.3965 -0.0609
 3087SOL    HW110807   4.412   5.757   4.282 -0.8272  1.8215  1.0325
 3087SOL    HW210808   4.503   5.877   4.271  2.4775 -0.4559  1.7973
 3088SOL     OW10809   4.611   2.546   4.872  0.3160 -0.2327 -0.1658
 3088SOL    HW110810   4.600   2.633   4.833 -1.5014 -1.2392 -2.0936
 3088SOL    HW210811   4.703   2.543   4.899  1.0194  1.4608 -2.1137
 3089SOL     OW10812   1.595   3.377   1.881  0.1575  0.2347  0.0594
 3089SOL    HW110813   1.637   3.460   1.900 -1.0383  0.4486  2.0658
 3089SOL    HW210814   1.655   3.311   1.916  0.7228  0.2708 -0.8066
 3090SOL     OW10815   5.063   0.028   5.998  0.4020  0.8040  0.0628
 3090SOL    HW110816   5.094   0.058   5.913  1.7625  1.3395  0.7134
 3090SOL    HW210817   5.047   0.108   6.048 -1.0909  0.5163  0.1058
 3091SOL     OW10818   5.058   4.868   1.959  0.2421  0.0746 -0.0043
 3091SOL    HW110819   5.118   4.888   2.030  2.0012 -1.2194 -1.0588
 3091SOL    HW210820   4.976   4.911   1.984  0.7891 -0.3270  2.7737
 3092SOL     OW10821   0.230   3.255   0.359 -0.9884  0.2123  0.3970
 3092SOL    HW110822   0.239   3.312   0.435 -3.5811 -0.8147  1.5839
 3092SOL    HW210823   0.272   3.173   0.385 -0.8144  0.2562  0.2547
 3093SOL     OW10824   5.735   5.969   3.834 -0.2304  0.1416  0.3872
 3093SOL    HW110825   5.694   5.884   3.816 -1.2670  0.7602 -0.2759
 3093SOL    HW210826   5.735   5.976   3.930  1.2071 -1.2284  0.5159
 3094SOL     OW10827   6.668   4.921   0.189 -0.9383 -0.6156 -0.2073
 3094SOL    HW110828   6.624   4.928   0.105 -0.6687  0.6757 -0.2642
 3094SOL    HW210829   6.760   4.936   0.170 -1.1037  1.9186  0.5319
 3095SOL     OW10830   0.700   2.994   5.437  0.0259 -0.5087  0.6682
 3095SOL    HW110831   0.725   3.020   5.526  0.7749  1.4903 -0.0643
 3095SOL    HW210832   0.776   3.018   5.383 -0.0016 -2.6352 -0.4004
 3096SOL     OW10833   1.631   2.514   0.248 -0.3782 -0.1951  0.7909
 3096SOL    HW110834   1.645   2.420   0.245  2.1435  0.1265  0.0974
 3096SOL    HW210835   1.613   2.539   0.158 -0.6223  0.0393  0.9017
 3097SOL     OW10836   6.433   0.967   4.293  0.2084  0.3965 -0.4843
 3097SOL    HW110837   6.501   1.034   4.307  2.0787 -1.4522 -0.3214
 3097SOL    HW210838   6.412   0.936   4.381  0.4787 -0.2861 -0.6562
 3098SOL     OW10839   4.092   3.983   1.514  0.1856  0.4363 -0.9340
 3098SOL    HW110840   4.060   3.957   1.428 -2.4841  1.0718 -0.2325
 3098SOL    HW210841   4.105   4.078   1.507  0.3999  0.4225 -0.7514
 3099SOL     OW10842   3.166   4.545   4.691 -0.5863  0.5498  0.2345
 3099SOL    HW110843   3.194   4.583   4.608  0.6998 -1.9515 -0.5904
 3099SOL    HW210844   3.200   4.604   4.757  0.1427  1.5261 -0.9640
 3100SOL     OW10845   3.016   0.505   2.803  0.0326  0.3309 -0.0725
 3100SOL    HW110846   2.985   0.592   2.828  1.2144 -0.0192  3.1521
 3100SOL    HW210847   3.011   0.454   2.885  0.6310 -2.2568 -1.5307
 3101SOL     OW10848   4.858   4.728   1.152  0.4496  0.0905  0.7000
 3101SOL    HW110849   4.903   4.680   1.083  0.4272  1.1161 -0.0559
 3101SOL    HW210850   4.766   4.702   1.142  0.7236 -1.3362  1.6864
 3102SOL     OW10851   1.137   1.007   1.212 -0.2677  0.3602 -0.5167
 3102SOL    HW110852   1.075   0.935   1.224 -0.3359  0.4020 -0.6186
 3102SOL    HW210853   1.223   0.965   1.218 -0.2972  0.0386 -1.8412
 3103SOL     OW10854   6.342   3.873   0.516  0.2684  0.4509  0.2132
 3103SOL    HW110855   6.294   3.825   0.583 -0.7821  1.6280  0.3280
 3103SOL    HW210856   6.286   3.948   0.495  1.3994  1.0691 -0.6951
 3104SOL     OW10857   1.486   4.934   2.173 -0.2100 -0.3753  0.3131
 3104SOL    HW110858   1.568   4.982   2.160 -1.1296  1.2303  0.2457
 3104SOL    HW210859   1.422   5.001   2.194 -1.6204 -1.5642 -0.0492
 3105SOL     OW10860   4.188   0.607   6.302  0.0549 -0.4412 -0.5773
 3105SOL    HW110861   4.217   0.647   6.220 -1.4588  1.9751 -0.0232
 3105SOL    HW210862   4.254   0.634   6.366  0.0866 -0.4908 -0.5897
 3106SOL     OW10863   4.658   0.501   6.601  0.4568 -0.4442  0.2107
 3106SOL    HW110864   4.626   0.412   6.587 -1.6129  0.4521 -1.2672
 3106SOL    HW210865   4.601   0.537   6.669  0.2056  0.2391 -0.3454
 3107SOL     OW10866   5.919   1.724   1.751 -0.5626 -0.0183  0.0191
 3107SOL    HW110867   5.992   1.737   1.690 -1.2267 -0.1596 -0.8159
 3107SOL    HW210868   5.940   1.779   1.826  0.8059 -0.6617  0.1435
 3108SOL     OW10869   2.976   2.439   3.748 -0.3486  0.1482  0.2776
 3108SOL    HW110870   2.929   2.476   3.674  1.1087  0.3886 -0.5595
 3108SOL    HW210871   3.031   2.511   3.780  0.9236 -0.6682 -0.0197
 3109SOL     OW10872   5.541   4.802   1.689 -0.1890 -0.0197 -0.3186
 3109SOL    HW110873   5.549   4.833   1.779 -2.2080 -0.4777  0.0663
 3109SOL    HW210874   5.498   4.873   1.642  0.3544 -0.0026 -0.8122
 3110SOL     OW10875   0.148   2.043   0.396 -0.4484  0.0317  0.6363
 3110SOL    HW110876   0.229   2.088   0.372 -0.0255 -0.8082  0.4548
 3110SOL    HW210877   0.080   2.087   0.344  0.0783 -0.0929 -0.1783
 3111SOL     OW10878   5.309   0.672   2.368 -0.1181  0.1040  0.3344
 3111SOL    HW110879   5.220   0.704   2.386 -0.1410 -0.6748  1.8087
 3111SOL    HW210880   5.296   0.583   2.336  0.1292 -0.1156  0.8295
 3112SOL     OW10881   1.718   5.628   6.717 -0.1055 -0.3460  0.7086
 3112SOL    HW110882   1.768   5.590   6.790  0.0621  0.1687  0.8667
 3112SOL    HW210883   1.783   5.677   6.667 -0.1859 -0.8464  0.1068
 3113SOL     OW10884   6.005   1.656   5.852 -0.5065  0.2042  0.1787
 3113SOL    HW110885   5.938   1.724   5.852  2.5896  3.6503  2.4299
 3113SOL    HW210886   6.020   1.636   5.760 -1.0721  3.2403 -0.6833
 3114SOL     OW10887   1.440   3.978   1.933  0.4145 -0.3701  0.0389
 3114SOL    HW110888   1.522   3.935   1.912 -0.1289 -1.3454 -0.1320
 3114SOL    HW210889   1.460   4.033   2.009  1.1117 -0.9502  0.2739
 3115SOL     OW10890   3.855   3.117   1.527  0.2635 -0.1154 -0.2335
 3115SOL    HW110891   3.915   3.099   1.455 -0.4377  1.1341 -1.1672
 3115SOL    HW210892   3.911   3.149   1.598  0.8691 -0.6079 -0.4830
 3116SOL     OW10893   1.329   4.998   4.174 -0.6521 -0.4117 -0.1384
 3116SOL    HW110894   1.357   4.919   4.127 -0.5890  0.2218 -1.2119
 3116SOL    HW210895   1.272   5.044   4.111 -1.8142 -0.2782  0.9698
 3117SOL     OW10896   2.854   0.943   6.152  0.3958  0.3897 -0.6030
 3117SOL    HW110897   2.927   0.972   6.208  1.4237 -1.1636 -1.0793
 3117SOL    HW210898   2.826   0.860   6.191 -1.4524  1.1512 -0.1820
 3118SOL     OW10899   0.134   4.758   2.470  0.3240  0.0930  0.2713
 3118SOL    HW110900   0.135   4.841   2.423 -0.6559 -0.7368 -1.2945
 3118SOL    HW210901   0.209   4.710   2.436 -1.9495 -1.6605 -2.8076
 3119SOL     OW10902   0.821   1.741   0.812  0.1934 -0.9869 -0.1226
 3119SOL    HW110903   0.804   1.801   0.740 -1.4499 -0.4598  0.6456
 3119SOL    HW210904   0.797   1.790   0.891  0.5732 -2.0286  0.6783
 3120SOL     OW10905   0.902   1.791   1.777  0.1598 -0.3706 -0.2923
 3120SOL    HW110906   0.890   1.824   1.866  0.9153 -2.1441  0.5182
 3120SOL    HW210907   0.824   1.737   1.761  0.4023 -0.6958 -0.3875
 3121SOL     OW10908   4.487   0.846   1.236  0.4252 -0.0507 -0.2576
 3121SOL    HW110909   4.456   0.893   1.159  1.8098 -0.6592 -1.2252
 3121SOL    HW210910   4.539   0.911   1.284  0.0960  0.1486 -0.1661
 3122SOL     OW10911   2.767   6.547   1.507  0.3010 -0.5382 -0.4312
 3122SOL    HW110912   2.861   6.559   1.516  0.1427 -0.1990  0.9692
 3122SOL    HW210913   2.745   6.479   1.571 -0.5348  0.0528 -0.0813
 3123SOL     OW10914   6.657   6.681   4.300 -0.0738  0.5592 -0.2797
 3123SOL    HW110915   6.577   6.636   4.325  0.0422  0.1338 -0.6617
 3123SOL    HW210916   6.627   6.763   4.262 -0.2576  1.1765  1.1268
 3124SOL     OW10917   2.130   5.629   5.344 -0.1186 -0.2567 -0.1572
 3124SOL    HW110918   2.195   5.587   5.288 -0.4415 -0.2282 -0.5583
 3124SOL    HW210919   2.071   5.558   5.369  0.1305 -0.3054  0.3006
 3125SOL     OW10920   1.945   2.370   2.583 -0.5259  0.0602  0.2284
 3125SOL    HW110921   2.028   2.332   2.556 -0.2825 -0.1524  1.2746
 3125SOL    HW210922   1.879   2.320   2.534 -0.0380  0.7004 -1.1612
 3126SOL     OW10923   3.564   0.438   1.668 -0.4891  0.4734  0.6070
 3126SOL    HW110924   3.488   0.471   1.619 -2.0169 -2.6674  0.6093
 3126SOL    HW210925   3.629   0.419   1.601  0.2017  2.8012  0.5624
 3127SOL     OW10926   4.797   5.205   3.432  0.0145 -0.1724 -0.3070
 3127SOL    HW110927   4.713   5.222   3.389  0.7390 -0.4104 -1.8946
 3127SOL    HW210928   4.849   5.284   3.417 -0.0008  0.1021  0.9373
 3128SOL     OW10929   2.050   4.098   3.983 -0.0480 -0.0303 -0.0446
 3128SOL    HW110930   2.046   4.082   4.077  2.7020 -0.0683  0.1491
 3128SOL    HW210931   2.142   4.085   3.960 -0.0840  2.5476 -2.2659
 3129SOL     OW10932   3.887   4.825   5.104 -0.4398 -0.7851 -0.5583
 3129SOL    HW110933   3.856   4.778   5.181 -1.1256 -1.3513 -1.1640
 3129SOL    HW210934   3.979   4.843   5.122 -0.8126 -0.0957  0.7814
 3130SOL     OW10935   3.397   3.090   4.442  0.0505 -0.3321  0.4326
 3130SOL    HW110936   3.486   3.054   4.452  0.4583  0.3855 -0.4717
 3130SOL    HW210937   3.361   3.091   4.531  0.0885 -2.7789  0.5487
 3131SOL     OW10938   6.165   4.983   3.650 -0.6122 -0.1001  0.4396
 3131SOL    HW110939   6.230   4.915   3.631 -0.5192  0.3696 -1.0576
 3131SOL    HW210940   6.216   5.061   3.670 -0.7263 -0.3054  1.6347
 3132SOL     OW10941   5.214   5.392   1.499 -0.2069 -0.5764  0.1605
 3132SOL    HW110942   5.234   5.348   1.417 -0.6074 -1.4627  0.5272
 3132SOL    HW210943   5.299   5.410   1.538  0.0045  0.2945 -0.6602
 3133SOL     OW10944   0.120   2.902   2.550 -0.7185  0.6990 -0.5760
 3133SOL    HW110945   0.179   2.832   2.520  0.1519  1.4525 -0.6822
 3133SOL    HW210946   0.040   2.889   2.500 -0.2932  0.2316 -1.1539
 3134SOL     OW10947   0.590   6.495   0.345 -0.0606  0.3044 -0.2010
 3134SOL    HW110948   0.574   6.554   0.418  1.5539 -0.3103  0.7055
 3134SOL    HW210949   0.612   6.552   0.272  0.0575  0.8705  0.2679
 3135SOL     OW10950   5.426   6.137   6.120 -0.4898  0.6025 -0.0287
 3135SOL    HW110951   5.449   6.103   6.034  0.1880 -0.1879  0.4540
 3135SOL    HW210952   5.371   6.069   6.159 -0.3438  0.7131  0.3771
 3136SOL     OW10953   1.926   1.194   1.707 -0.3551 -0.1443  0.0401
 3136SOL    HW110954   1.956   1.105   1.686 -3.2464 -1.5323  1.3565
 3136SOL    HW210955   2.001   1.234   1.750  0.5223 -2.5137  0.9018
 3137SOL     OW10956   6.078   3.421   5.035  0.3117 -0.0344  0.0735
 3137SOL    HW110957   5.988   3.399   5.011  0.4691  0.8244 -1.4621
 3137SOL    HW210958   6.131   3.350   4.997  0.3194 -0.3998  0.7489
 3138SOL     OW10959   5.322   5.319   3.865 -0.8425  0.1235  0.2957
 3138SOL    HW110960   5.356   5.330   3.954 -0.4320  1.2445  0.0240
 3138SOL    HW210961   5.389   5.268   3.820 -0.6514  0.2758  0.4053
 3139SOL     OW10962   5.944   4.763   3.200 -0.2365 -0.2800  0.2460
 3139SOL    HW110963   5.969   4.678   3.163  0.4262 -0.0652  0.1746
 3139SOL    HW210964   6.015   4.822   3.173 -1.7490  0.8088 -1.5581
 3140SOL     OW10965   0.038   4.996   2.724 -0.2246  0.2955 -0.1510
 3140SOL    HW110966  -0.041   4.968   2.676 -0.4811 -0.0007  0.4327
 3140SOL    HW210967   0.102   5.014   2.655 -1.0129  1.2222 -0.6775
 3141SOL     OW10968   5.358   2.652   6.662 -0.4697  0.5235 -0.3371
 3141SOL    HW110969   5.276   2.664   6.614 -1.4942 -1.1500  0.9041
 3141SOL    HW210970   5.344   2.573   6.714  1.8542  0.3481  0.1014
 3142SOL     OW10971   4.734   0.107   5.875  0.0010 -0.1281 -0.6137
 3142SOL    HW110972   4.678   0.075   5.804  1.3639 -1.9150 -0.9497
 3142SOL    HW210973   4.687   0.084   5.955 -0.8087  0.5049 -0.8841
 3143SOL     OW10974   3.525   0.728   4.942  0.0501  0.1982  0.3148
 3143SOL    HW110975   3.587   0.799   4.921 -0.3166  0.3283 -0.3719
 3143SOL    HW210976   3.512   0.734   5.036  1.1783  0.0980  0.4936
 3144SOL     OW10977   1.248   6.227   4.791  0.0808  0.3759 -0.3770
 3144SOL    HW110978   1.297   6.158   4.836  0.3893 -0.0001 -1.2650
 3144SOL    HW210979   1.173   6.245   4.848  1.6693  1.5690  1.4676
 3145SOL     OW10980   4.336   2.326   5.373  0.0546 -0.3187  0.1235
 3145SOL    HW110981   4.302   2.290   5.292  0.2977 -0.0740 -0.0887
 3145SOL    HW210982   4.314   2.260   5.440 -0.4545 -0.3568 -0.0772
 3146SOL     OW10983   4.307   0.029   1.907 -0.6331  0.3074  0.1631
 3146SOL    HW110984   4.292  -0.010   1.821  0.6944 -2.3138  1.0146
 3146SOL    HW210985   4.365  -0.032   1.951  0.1369  2.4392  2.3338
 3147SOL     OW10986   5.471   2.186   2.255  0.1454  0.7049  0.4505
 3147SOL    HW110987   5.469   2.101   2.301  3.1175 -0.6490 -1.6134
 3147SOL    HW210988   5.413   2.174   2.180  2.5446 -0.5729 -1.3083
 3148SOL     OW10989   6.017   0.101   1.048 -0.0928 -0.3006  0.1035
 3148SOL    HW110990   6.028   0.056   0.965 -0.5299  0.3708 -0.3256
 3148SOL    HW210991   5.923   0.117   1.055 -0.0053  0.0783  0.4940
 3149SOL     OW10992   0.266   1.743   4.293  0.1516 -0.2387 -0.2486
 3149SOL    HW110993   0.302   1.743   4.204  0.7494 -0.6035 -0.0070
 3149SOL    HW210994   0.227   1.656   4.303  1.1295 -0.6217  0.2658
 3150SOL     OW10995   2.711   5.669   3.351 -0.1209  0.3985 -0.0698
 3150SOL    HW110996   2.673   5.726   3.418  1.8007  0.5403  0.9677
 3150SOL    HW210997   2.762   5.727   3.296  3.1922 -0.3393  1.9455
 3151SOL     OW10998   3.249   2.352   4.601  0.1947 -0.0877  0.3391
 3151SOL    HW110999   3.341   2.374   4.587  0.4881 -0.4436  1.5823
 3151SOL    HW211000   3.231   2.377   4.692 -0.2376 -2.2389  0.9168
 3152SOL     OW11001   4.390   1.266   4.127  0.5965  0.0865  0.3185
 3152SOL    HW111002   4.476   1.281   4.166  2.1986  0.0406 -2.8941
 3152SOL    HW211003   4.351   1.354   4.121  1.2039  0.3445  0.1197
 3153SOL     OW11004   5.463   0.786   3.920 -0.5279 -0.4057 -0.4740
 3153SOL    HW111005   5.486   0.878   3.933  0.6247 -0.7338 -0.0292
 3153SOL    HW211006   5.392   0.771   3.982 -0.2836  0.0250 -0.0794
 3154SOL     OW11007   6.475   6.608   0.121 -0.1628  0.0720  0.1429
 3154SOL    HW111008   6.546   6.581   0.063  0.2781  2.8455 -0.7526
 3154SOL    HW211009   6.408   6.541   0.110 -0.3469  0.6917 -4.1181
 3155SOL     OW11010   3.081   3.297   6.118  0.2242 -0.6204  0.0940
 3155SOL    HW111011   3.087   3.390   6.141 -0.5038 -0.0630 -1.7774
 3155SOL    HW211012   3.170   3.263   6.129  0.4423  0.2254  1.0397
 3156SOL     OW11013   1.336   1.421   1.059  0.4085 -0.2630 -0.1059
 3156SOL    HW111014   1.313   1.512   1.080 -1.6936 -0.9581  0.8747
 3156SOL    HW211015   1.265   1.391   1.001  0.9110 -1.3677 -0.1685
 3157SOL     OW11016   6.610   3.376   5.704  0.1153  0.8553  0.0841
 3157SOL    HW111017   6.563   3.406   5.782  2.3511 -0.0818  1.9123
 3157SOL    HW211018   6.557   3.303   5.671 -1.8268  2.4154 -0.4583
 3158SOL     OW11019   0.565   3.323   5.179  0.0312  0.1508  0.2496
 3158SOL    HW111020   0.575   3.268   5.257  2.1902 -0.7853 -0.5965
 3158SOL    HW211021   0.643   3.378   5.178 -0.4567  0.8505 -0.7204
 3159SOL     OW11022   3.786   0.527   1.840  0.1841 -0.3290  0.0278
 3159SOL    HW111023   3.757   0.521   1.931  0.7401 -0.8528  0.1767
 3159SOL    HW211024   3.729   0.466   1.793  1.9235 -2.4906  0.5599
 3160SOL     OW11025   0.996   5.559   0.268  0.0959 -0.2435  0.0906
 3160SOL    HW111026   0.942   5.480   0.275  0.3435 -0.3557  0.8785
 3160SOL    HW211027   1.050   5.558   0.348  1.1308 -0.0354 -0.5897
 3161SOL     OW11028   1.035   3.576   6.387  0.5620  0.3503  0.4765
 3161SOL    HW111029   0.948   3.602   6.357  0.1758 -0.9225  0.3993
 3161SOL    HW211030   1.077   3.657   6.413 -0.7417  0.9739  0.7523
 3162SOL     OW11031   1.067   6.394   0.212  0.0863  0.0945  0.9161
 3162SOL    HW111032   1.161   6.375   0.202 -0.1139 -0.4315 -0.0861
 3162SOL    HW211033   1.024   6.309   0.207 -0.3989  0.2226  2.3495
 3163SOL     OW11034   0.347   0.684   2.089  0.1567 -0.5012 -1.1055
 3163SOL    HW111035   0.363   0.620   2.158  2.6968  0.4616 -0.6906
 3163SOL    HW211036   0.306   0.633   2.019 -1.5185 -1.7116  0.6433
 3164SOL     OW11037   1.918   4.489   4.554  0.2570  0.2148  0.2756
 3164SOL    HW111038   1.844   4.490   4.615  0.2178 -2.3144  0.3859
 3164SOL    HW211039   1.879   4.459   4.471  0.7929  0.9943 -0.2685
 3165SOL     OW11040   1.268   1.878   3.155 -0.4963 -0.3802 -0.2671
 3165SOL    HW111041   1.330   1.946   3.180  0.1525 -0.5470 -1.3692
 3165SOL    HW211042   1.234   1.906   3.070 -0.9354 -0.9622 -0.2912
 3166SOL     OW11043   6.186   5.406   5.878  0.6678 -0.4319  0.0545
 3166SOL    HW111044   6.234   5.468   5.823  2.7961 -1.2899  0.8334
 3166SOL    HW211045   6.149   5.343   5.816 -0.4218  0.8277 -0.6356
 3167SOL     OW11046   5.461   4.296   0.520 -0.1638  0.0160 -0.1357
 3167SOL    HW111047   5.373   4.284   0.487  0.0582 -1.0641 -0.3527
 3167SOL    HW211048   5.481   4.388   0.502 -1.5320  0.4931  0.6479
 3168SOL     OW11049   5.411   5.515   1.079  0.3230 -0.1214 -0.3158
 3168SOL    HW111050   5.410   5.481   0.989 -0.4733  2.1465 -1.2250
 3168SOL    HW211051   5.501   5.547   1.091  0.2987  0.0121 -0.4851
 3169SOL     OW11052   0.771   0.234   6.265 -0.0444 -0.4985  1.3425
 3169SOL    HW111053   0.688   0.280   6.275  0.0201 -0.3227  1.0466
 3169SOL    HW211054   0.838   0.302   6.270  0.0144 -0.4481  0.0728
 3170SOL     OW11055   1.881   2.713   4.361 -0.6070 -0.2121 -0.1693
 3170SOL    HW111056   1.817   2.669   4.417 -1.1401  2.8256  1.8533
 3170SOL    HW211057   1.966   2.695   4.402 -0.6305 -0.6823 -0.3218
 3171SOL     OW11058   0.245   0.702   4.655 -0.6675  0.5315 -0.0781
 3171SOL    HW111059   0.287   0.780   4.691  0.4771  0.4990 -1.2771
 3171SOL    HW211060   0.315   0.638   4.646 -0.4523  1.0446 -3.7788
 3172SOL     OW11061   3.562   5.588   0.360  0.5811  0.0380  0.1694
 3172SOL    HW111062   3.577   5.499   0.393  0.0460  0.3304  1.2514
 3172SOL    HW211063   3.468   5.590   0.340  0.7510  0.1114 -0.6511
 3173SOL     OW11064   2.500   3.760   5.413 -0.0845  0.1348 -0.1620
 3173SOL    HW111065   2.544   3.681   5.444 -0.5696  0.3131  1.0493
 3173SOL    HW211066   2.437   3.781   5.482 -2.1115 -0.1319 -1.8283
 3174SOL     OW11067   3.528   4.218   5.996  0.0780  0.1086 -0.2735
 3174SOL    HW111068   3.622   4.234   5.993  0.1329 -0.2518 -0.5648
 3174SOL    HW211069   3.516   4.136   5.949 -0.4689  0.5251 -0.8832
 3175SOL     OW11070   6.157   1.179   0.142  0.2685 -0.0261  0.0611
 3175SOL    HW111071   6.140   1.143   0.229 -0.3238  2.1803  0.9279
 3175SOL    HW211072   6.100   1.129   0.083 -3.3263  1.7221  1.7353
 3176SOL     OW11073   0.919   3.333   1.289 -0.0311  0.3196 -0.4107
 3176SOL    HW111074   0.960   3.296   1.210 -0.5737 -0.9157 -0.1297
 3176SOL    HW211075   0.987   3.329   1.355 -0.7205 -2.3551  0.2389
 3177SOL     OW11076   0.755   2.177   1.442  0.4418 -0.1337 -0.8682
 3177SOL    HW111077   0.761   2.253   1.383 -0.1756  2.0477  1.6520
 3177SOL    HW211078   0.837   2.180   1.492 -0.8066  0.7933  1.2743
 3178SOL     OW11079   4.339   3.571   5.946 -0.3985  0.1575  0.2965
 3178SOL    HW111080   4.373   3.482   5.937 -1.7805 -0.2500 -1.5146
 3178SOL    HW211081   4.406   3.627   5.907  0.3088 -0.1136  1.1014
 3179SOL     OW11082   4.048   0.957   0.773 -0.1939  0.2769  0.3529
 3179SOL    HW111083   4.057   0.875   0.822  0.9474  0.2353  0.0866
 3179SOL    HW211084   4.064   1.025   0.838  1.0663  0.2273  0.1101
 3180SOL     OW11085   0.084   2.437   1.568  0.2346  0.8809 -0.2865
 3180SOL    HW111086   0.112   2.364   1.623  0.7821  0.8568 -0.5922
 3180SOL    HW211087   0.155   2.500   1.573 -0.4449  1.6172  0.3563
 3181SOL     OW11088   5.140   6.430   5.721  0.2581 -0.3255 -0.1403
 3181SOL    HW111089   5.128   6.486   5.797 -3.1795  1.4360 -1.7357
 3181SOL    HW211090   5.072   6.363   5.730  1.3992 -1.5716 -0.5038
 3182SOL     OW11091   6.025   1.652   0.223  0.2315  0.0786  0.0553
 3182SOL    HW111092   5.953   1.605   0.180 -0.4984 -0.2113  1.5297
 3182SOL    HW211093   6.103   1.600   0.203 -0.0206  0.1279 -1.1536
 3183SOL     OW11094   3.193   0.184   0.951 -0.4183 -0.3059  0.7432
 3183SOL    HW111095   3.175   0.134   1.031  0.2832 -1.6794  0.0900
 3183SOL    HW211096   3.243   0.123   0.897 -0.4932  0.7612 -0.5586
 3184SOL     OW11097   2.004   0.921   2.011 -0.5647  0.0746 -0.1692
 3184SOL    HW111098   2.088   0.947   1.973 -1.1633  0.8252 -1.0343
 3184SOL    HW211099   1.951   0.896   1.935 -1.4807  0.6789  0.2581
 3185SOL     OW11100   0.263   0.758   1.346 -0.2033 -0.7594  0.4577
 3185SOL    HW111101   0.328   0.826   1.329 -1.5747  0.1369 -1.5941
 3185SOL    HW211102   0.314   0.685   1.381  1.7501  0.2309 -0.1345
 3186SOL     OW11103   1.774   3.083   0.265 -0.5014  0.0292  0.3458
 3186SOL    HW111104   1.828   3.147   0.218  0.3727  0.1679  1.5112
 3186SOL    HW211105   1.761   3.012   0.202  1.7334 -0.3795  0.2797
 3187SOL     OW11106   0.403   5.705   1.606  0.6654  0.3271  0.0907
 3187SOL    HW111107   0.346   5.747   1.671  0.2211  1.3336 -0.9218
 3187SOL    HW211108   0.436   5.627   1.651  0.6648  1.1771  1.6565
 3188SOL     OW11109   2.207   3.210   0.906 -0.1404  0.2554  0.5013
 3188SOL    HW111110   2.278   3.147   0.917 -0.3535  0.0290  0.5865
 3188SOL    HW211111   2.230   3.284   0.963 -0.8183 -0.5398  1.8565
 3189SOL     OW11112   1.132   2.798   2.328 -0.1370 -0.0976 -0.3717
 3189SOL    HW111113   1.145   2.730   2.263  3.1079 -0.3678  0.3891
 3189SOL    HW211114   1.188   2.772   2.402 -3.2757  0.4248  2.4197
 3190SOL     OW11115   1.860   2.229   4.291 -0.1268 -0.3169  0.1682
 3190SOL    HW111116   1.920   2.210   4.219 -2.0881  1.4855 -2.0984
 3190SOL    HW211117   1.837   2.143   4.326  0.2923 -1.3244 -1.8809
 3191SOL     OW11118   2.502   4.063   1.388 -0.3074 -0.2157  0.1381
 3191SOL    HW111119   2.565   4.048   1.317 -2.2234 -0.7123 -1.5194
 3191SOL    HW211120   2.522   3.993   1.451 -1.8819 -3.1814 -2.3577
 3192SOL     OW11121   5.340   2.250   5.174 -0.4056  0.1835 -0.1466
 3192SOL    HW111122   5.281   2.178   5.149 -0.4602  0.1855 -0.0222
 3192SOL    HW211123   5.424   2.207   5.190 -0.4829  0.1242  0.1034
 3193SOL     OW11124   1.431   5.628   6.622  0.3846 -0.2028  0.2067
 3193SOL    HW111125   1.465   5.645   6.709 -1.8493  1.4048  0.8733
 3193SOL    HW211126   1.499   5.660   6.563  1.0092  0.7475  1.4000
 3194SOL     OW11127   5.217   3.500   1.909  0.0983 -0.1271 -0.1662
 3194SOL    HW111128   5.310   3.480   1.914  0.1563  0.1674 -0.0015
 3194SOL    HW211129   5.210   3.567   1.840 -0.0980 -0.7452 -0.7563
 3195SOL     OW11130   4.829   5.905   6.352 -0.2346 -0.2888 -0.2497
 3195SOL    HW111131   4.834   5.953   6.435 -0.3388  0.2398 -0.5439
 3195SOL    HW211132   4.841   5.814   6.377  0.2599 -0.0855  0.2874
 3196SOL     OW11133   0.718   0.597   6.442  0.1385 -0.3567 -0.1511
 3196SOL    HW111134   0.646   0.591   6.378 -0.2931 -1.5869  0.4207
 3196SOL    HW211135   0.691   0.540   6.514  1.2579 -0.0774  0.5164
 3197SOL     OW11136   4.285   5.107   5.585 -0.0258  0.0295 -0.1927
 3197SOL    HW111137   4.229   5.118   5.508 -0.5636  1.7934  0.4045
 3197SOL    HW211138   4.254   5.026   5.626 -1.8035  0.6842 -0.1714
 3198SOL     OW11139   4.758   3.786   5.988  0.0907  0.1890 -0.2015
 3198SOL    HW111140   4.683   3.842   5.967 -0.0723  1.0498  2.3793
 3198SOL    HW211141   4.809   3.783   5.907 -2.6434 -0.3768 -2.0408
 3199SOL     OW11142   5.113   0.929   6.432  0.2213  0.2858 -0.0734
 3199SOL    HW111143   5.079   1.019   6.436  1.8212  0.8754  2.0494
 3199SOL    HW211144   5.185   0.933   6.369  1.4498  0.9779  1.3182
 3200SOL     OW11145   6.099   4.169   1.367 -0.2315  0.3323 -0.1710
 3200SOL    HW111146   6.182   4.185   1.411  0.4846 -0.9038 -1.0043
 3200SOL    HW211147   6.041   4.239   1.398  0.5561  0.1625  1.8122
 3201SOL     OW11148   3.278   1.151   4.162  0.1395 -0.2071 -0.0095
 3201SOL    HW111149   3.309   1.190   4.081  1.6036 -0.7554  0.2619
 3201SOL    HW211150   3.336   1.077   4.178 -1.1347 -1.0963  0.7035
 3202SOL     OW11151   5.177   1.357   1.033  0.5847 -0.2176  0.1847
 3202SOL    HW111152   5.085   1.340   1.014  1.1907 -2.7462 -0.9359
 3202SOL    HW211153   5.180   1.371   1.128 -0.9796  0.4727  0.1672
 3203SOL     OW11154   0.430   3.031   2.656 -0.5089  0.3941 -0.2418
 3203SOL    HW111155   0.455   2.989   2.574 -1.3121 -0.6250  0.0181
 3203SOL    HW211156   0.351   3.080   2.635 -0.5560  0.3615 -0.1447
 3204SOL     OW11157   6.486   3.498   2.287 -0.0614 -0.2409  0.2853
 3204SOL    HW111158   6.580   3.505   2.304 -0.0278 -0.6420  0.2756
 3204SOL    HW211159   6.466   3.574   2.232  0.3847 -0.4916 -0.2451
 3205SOL     OW11160   4.821   4.342   6.481 -0.3567 -0.0996 -0.3775
 3205SOL    HW111161   4.840   4.265   6.535  1.1754  0.8041  0.4473
 3205SOL    HW211162   4.772   4.307   6.406 -3.5744 -1.2983  2.0444
 3206SOL     OW11163   6.508   2.769   4.469 -0.2206  0.5940 -0.0123
 3206SOL    HW111164   6.525   2.849   4.419 -0.5931  1.2469  0.8752
 3206SOL    HW211165   6.581   2.711   4.448 -1.0891  0.2528 -2.4408
 3207SOL     OW11166   0.675   6.422   1.236  0.4675  0.2214  0.0248
 3207SOL    HW111167   0.722   6.500   1.205  1.8999 -1.1246 -1.3845
 3207SOL    HW211168   0.595   6.421   1.184  1.2402 -0.1309 -1.2126
 3208SOL     OW11169   6.683   0.966   4.838 -0.2633  0.6756  0.2016
 3208SOL    HW111170   6.651   1.056   4.840 -0.0433  0.7723 -0.4486
 3208SOL    HW211171   6.684   0.939   4.929 -0.3939  1.3117  0.3964
 3209SOL     OW11172   4.758   0.175   0.881  0.4224 -0.4473 -0.5114
 3209SOL    HW111173   4.852   0.188   0.882  0.3540  0.3277 -1.7237
 3209SOL    HW211174   4.721   0.263   0.879 -0.3873 -0.7024  1.0407
 3210SOL     OW11175   4.728   4.972   2.452 -0.0346  0.8656  0.1134
 3210SOL    HW111176   4.768   5.044   2.501  0.7775  0.0912  0.6260
 3210SOL    HW211177   4.720   4.901   2.515 -0.6500  0.4363 -0.4314
 3211SOL     OW11178   4.596   4.161   5.674  0.2795  0.1457 -0.1293
 3211SOL    HW111179   4.507   4.174   5.708  0.7592  0.5274  1.0439
 3211SOL    HW211180   4.583   4.129   5.585 -1.0513 -0.8479  0.3772
 3212SOL     OW11181   5.237   3.250   6.632  0.3023 -0.0697 -1.0838
 3212SOL    HW111182   5.159   3.236   6.687  0.7407  1.8886  0.1419
 3212SOL    HW211183   5.220   3.333   6.588  1.8859  0.6524 -0.4072
 3213SOL     OW11184   1.140   3.803   0.729  0.0980 -0.1368  0.3338
 3213SOL    HW111185   1.074   3.735   0.713  1.0899 -0.6774 -1.9357
 3213SOL    HW211186   1.094   3.885   0.713 -0.2147 -0.4845 -0.6567
 3214SOL     OW11187   0.310   4.148   6.100  0.9341  0.2029  0.0079
 3214SOL    HW111188   0.329   4.241   6.096  0.8204  0.1885 -3.1287
 3214SOL    HW211189   0.395   4.104   6.092  0.8013  0.0559 -0.6262
 3215SOL     OW11190   6.203   1.878   2.173  0.1093 -0.2124  0.0697
 3215SOL    HW111191   6.240   1.836   2.251 -1.3303 -1.2609  0.2270
 3215SOL    HW211192   6.165   1.960   2.206  0.5907 -0.0529  0.2359
 3216SOL     OW11193   6.487   2.953   4.287  0.3462  0.6937 -0.3042
 3216SOL    HW111194   6.396   2.940   4.315  0.4951 -1.6752 -0.7678
 3216SOL    HW211195   6.483   2.949   4.191  1.0899 -0.8678 -0.2953
 3217SOL     OW11196   2.146   4.628   1.591 -0.0254 -0.2587  0.1685
 3217SOL    HW111197   2.135   4.672   1.506 -0.3449  0.5560  0.6242
 3217SOL    HW211198   2.208   4.683   1.639 -0.8434  0.0039  0.9500
 3218SOL     OW11199   2.984   2.120   5.044  0.4431 -0.2222  0.2787
 3218SOL    HW111200   2.968   2.203   4.998 -0.8931 -0.7854 -0.3108
 3218SOL    HW211201   3.010   2.147   5.132 -0.2974  0.8320  0.2018
 3219SOL     OW11202   6.719   2.214   3.724 -0.2110  0.0115  0.4681
 3219SOL    HW111203   6.702   2.206   3.630  1.1285  0.6966  0.1310
 3219SOL    HW211204   6.765   2.134   3.747 -1.1479 -0.4719  0.7131
 3220SOL     OW11205   5.012   1.236   2.216 -0.0766  0.5030  0.1596
 3220SOL    HW111206   4.947   1.238   2.146  0.5324  0.1516 -0.4287
 3220SOL    HW211207   4.996   1.154   2.262  0.0940  0.3129 -0.1210
 3221SOL     OW11208   1.895   6.647   0.711  0.3783 -0.5193  0.4911
 3221SOL    HW111209   1.975   6.610   0.747  1.6480  2.0894  0.5585
 3221SOL    HW211210   1.900   6.740   0.732 -1.8909  0.0087 -0.9540
 3222SOL     OW11211   1.981   3.761   0.591  0.6283  0.3317 -0.0381
 3222SOL    HW111212   1.983   3.706   0.513  1.2620  0.5115 -0.1516
 3222SOL    HW211213   1.891   3.754   0.623  1.0168 -1.8516  0.7144
 3223SOL     OW11214   1.224   2.269   5.692 -0.5088 -0.2078  0.1130
 3223SOL    HW111215   1.225   2.176   5.669 -1.2435 -0.1285 -0.2893
 3223SOL    HW211216   1.159   2.307   5.633 -1.1792  0.3265  1.1706
 3224SOL     OW11217   1.372   3.996   0.489 -0.0740  0.1657  0.3205
 3224SOL    HW111218   1.370   4.043   0.573 -0.9274 -2.3019  1.7787
 3224SOL    HW211219   1.465   3.988   0.468  0.4088 -1.8739  2.7451
 3225SOL     OW11220   6.479   5.034   4.503 -0.0175  0.0054  0.3093
 3225SOL    HW111221   6.429   4.967   4.550 -3.4932  1.5382 -0.8885
 3225SOL    HW211222   6.568   5.026   4.538 -1.3213 -2.0116  3.6703
 3226SOL     OW11223   0.087   0.553   3.488  0.1021  0.0111  0.2335
 3226SOL    HW111224   0.124   0.636   3.518  1.8855 -0.6810  0.0823
 3226SOL    HW211225   0.159   0.511   3.440 -0.3290 -2.1587  1.3508
 3227SOL     OW11226   0.561   5.140   0.554  0.2371 -0.0650  0.0897
 3227SOL    HW111227   0.603   5.216   0.593 -1.0993  1.6961 -1.6296
 3227SOL    HW211228   0.467   5.153   0.571 -0.5487  1.2427 -3.9730
 3228SOL     OW11229   5.884   3.017   5.590  1.0374 -0.4916  0.4922
 3228SOL    HW111230   5.851   2.955   5.655 -0.3865 -0.2401  0.0426
 3228SOL    HW211231   5.884   3.102   5.635  0.6761 -0.4241  0.3648
 3229SOL     OW11232   2.501   4.322   1.770  0.2242 -0.4586  0.2906
 3229SOL    HW111233   2.529   4.358   1.854  1.6137 -2.6758  0.8534
 3229SOL    HW211234   2.468   4.398   1.721  1.2750  1.2155  2.0547
 3230SOL     OW11235   6.372   1.631   4.621 -0.4180 -0.4411  0.4797
 3230SOL    HW111236   6.298   1.686   4.646 -0.4729 -0.1916 -0.2163
 3230SOL    HW211237   6.356   1.609   4.529 -0.0906 -1.1309  0.5796
 3231SOL     OW11238   0.456   2.903   6.419 -0.5347 -0.0216 -0.0834
 3231SOL    HW111239   0.535   2.958   6.420  1.5044 -2.7739  0.3530
 3231SOL    HW211240   0.404   2.937   6.492  0.6769  1.2822  0.2366
 3232SOL     OW11241   2.457   3.248   0.663 -0.4168 -0.2288 -0.1107
 3232SOL    HW111242   2.418   3.314   0.719  0.2908  0.3662 -0.3079
 3232SOL    HW211243   2.498   3.297   0.591  1.8099 -0.6886  0.7552
 3233SOL     OW11244   3.106   1.521   5.867 -0.6424  0.2801  0.0566
 3233SOL    HW111245   3.173   1.462   5.902 -1.5331 -0.5880  0.3424
 3233SOL    HW211246   3.100   1.591   5.931 -0.4964 -0.0046  0.3843
 3234SOL     OW11247   1.913   1.282   1.228  0.7346 -0.1041 -0.2000
 3234SOL    HW111248   1.906   1.189   1.249 -2.1075 -0.1212 -0.7601
 3234SOL    HW211249   1.942   1.323   1.309  1.8109 -1.4437  0.1169
 3235SOL     OW11250   0.274   0.479   0.165  0.1067  0.0483  0.0140
 3235SOL    HW111251   0.250   0.571   0.150 -1.4614 -0.4871 -1.0884
 3235SOL    HW211252   0.296   0.475   0.258 -0.8683  1.3400  0.3368
 3236SOL     OW11253   2.663   4.040   2.121  0.2374  0.0711  0.0711
 3236SOL    HW111254   2.758   4.050   2.135 -0.2707  1.1860  3.6017
 3236SOL    HW211255   2.634   4.127   2.094  0.0492 -0.0292 -0.0487
 3237SOL     OW11256   4.944   0.676   0.444 -0.2343  0.2210 -0.5464
 3237SOL    HW111257   5.024   0.634   0.413  0.2607  0.6313  0.1329
 3237SOL    HW211258   4.950   0.766   0.412 -0.8308  0.0446 -1.1886
 3238SOL     OW11259   5.792   5.311   2.156 -0.2595  0.2137 -0.7080
 3238SOL    HW111260   5.799   5.268   2.241  0.0161 -0.0919 -0.8846
 3238SOL    HW211261   5.722   5.375   2.167 -2.0999 -1.6366 -1.0250
 3239SOL     OW11262   1.145   3.652   2.325  0.2063  0.3894 -0.2050
 3239SOL    HW111263   1.235   3.659   2.293  0.2723  0.0184 -0.1039
 3239SOL    HW211264   1.092   3.648   2.245  0.3516 -0.2852 -0.2717
 3240SOL     OW11265   5.795   4.034   1.774 -0.2918 -0.5763 -0.0461
 3240SOL    HW111266   5.805   3.939   1.766 -0.9083 -0.5438 -1.6341
 3240SOL    HW211267   5.884   4.067   1.784  0.0228 -1.2606 -0.4582
 3241SOL     OW11268   4.535   5.094   0.592  0.1985 -0.6254  0.0165
 3241SOL    HW111269   4.618   5.067   0.555 -0.6776 -0.4249 -2.2116
 3241SOL    HW211270   4.559   5.151   0.666  2.0051 -3.0046  1.3852
 3242SOL     OW11271   2.878   5.967   3.921 -0.0600 -0.3979 -0.2091
 3242SOL    HW111272   2.921   5.921   3.993  0.2896  0.7388  0.3400
 3242SOL    HW211273   2.886   5.908   3.847  1.4320 -0.7188  0.1753
 3243SOL     OW11274   6.051   5.937   5.444 -0.5638 -0.4681 -0.2212
 3243SOL    HW111275   5.984   5.915   5.380 -0.9456  0.2086 -0.0668
 3243SOL    HW211276   6.132   5.901   5.408 -0.7428  0.0416 -1.1616
 3244SOL     OW11277   2.918   2.879   5.312 -0.5218  0.4914  0.3177
 3244SOL    HW111278   2.888   2.810   5.252 -0.9474  0.0396  1.0302
 3244SOL    HW211279   3.013   2.870   5.314 -0.1036  2.6159 -2.8011
 3245SOL     OW11280   3.614   4.366   2.122 -0.3197 -0.6173 -0.4016
 3245SOL    HW111281   3.701   4.335   2.149 -0.3531  1.5536  2.7075
 3245SOL    HW211282   3.632   4.435   2.058  0.2764 -0.1370  0.2678
 3246SOL     OW11283   5.323   4.706   5.481 -0.6144  0.0911 -0.2154
 3246SOL    HW111284   5.264   4.736   5.550  0.5726  0.8207  0.5302
 3246SOL    HW211285   5.370   4.785   5.454  0.2761 -0.5196 -0.5100
 3247SOL     OW11286   4.473   3.766   5.184 -0.5772 -0.6049  0.3121
 3247SOL    HW111287   4.547   3.737   5.238 -0.9927 -0.1256  1.1601
 3247SOL    HW211288   4.512   3.785   5.099  0.5847  1.1570  1.1807
 3248SOL     OW11289   4.097   3.860   5.696 -0.6459 -0.4939  0.0333
 3248SOL    HW111290   4.185   3.891   5.674 -0.1688 -1.5427  0.3989
 3248SOL    HW211291   4.107   3.820   5.783 -1.7326  0.3932  0.5943
 3249SOL     OW11292   4.640   4.712   4.347  0.4551 -0.4839  1.1564
 3249SOL    HW111293   4.579   4.724   4.274 -0.0583  0.6309  1.7355
 3249SOL    HW211294   4.583   4.703   4.424  0.9894 -1.6619  1.4223
 3250SOL     OW11295   3.586   1.376   0.780 -0.2564  0.0134  0.4174
 3250SOL    HW111296   3.607   1.285   0.760  0.8908  0.2175  0.6322
 3250SOL    HW211297   3.636   1.427   0.716  0.7815  0.5544  1.6067
 3251SOL     OW11298   5.971   1.019   3.052 -0.3008 -0.2890 -0.0950
 3251SOL    HW111299   6.021   0.939   3.068  1.5390  0.4624 -1.6577
 3251SOL    HW211300   6.001   1.049   2.966 -3.6478  0.1357 -1.2551
 3252SOL     OW11301   1.294   2.413   5.311  0.0098 -0.4424 -0.4566
 3252SOL    HW111302   1.229   2.405   5.241 -0.1458  1.2161 -0.5372
 3252SOL    HW211303   1.326   2.503   5.304 -0.8500  0.1610  2.3124
 3253SOL     OW11304   0.062   6.603   1.200  0.6709 -0.8099  0.1113
 3253SOL    HW111305  -0.022   6.630   1.161  1.2001 -0.5889 -0.9142
 3253SOL    HW211306   0.054   6.627   1.292  1.2190  3.3087 -0.7014
 3254SOL     OW11307   3.980   4.882   1.412  0.1602 -0.5762  0.8502
 3254SOL    HW111308   3.937   4.967   1.405  0.4937 -0.5046 -0.7101
 3254SOL    HW211309   4.073   4.901   1.396  0.2531 -1.2079  0.6204
 3255SOL     OW11310   2.878   2.666   6.523 -0.0842 -0.0935  0.4588
 3255SOL    HW111311   2.967   2.683   6.555 -0.5704  0.7778  1.4150
 3255SOL    HW211312   2.872   2.718   6.442  0.2440 -0.0617  0.4531
 3256SOL     OW11313   2.971   2.763   6.223 -0.0856 -0.1928 -0.2963
 3256SOL    HW111314   2.989   2.850   6.260 -1.4319 -0.2329  0.5263
 3256SOL    HW211315   2.991   2.772   6.130  1.5010  0.4786  0.0633
 3257SOL     OW11316   0.116   6.786   2.154 -0.5428 -0.3774  0.4777
 3257SOL    HW111317   0.129   6.796   2.248 -0.0349 -1.1065  0.4967
 3257SOL    HW211318   0.023   6.766   2.144 -0.8688  0.9576  0.7041
 3258SOL     OW11319   5.801   0.079   0.702 -0.0391  0.3710  0.1492
 3258SOL    HW111320   5.736   0.030   0.651  0.2334 -0.9387  1.0305
 3258SOL    HW211321   5.754   0.105   0.781  0.9791 -2.2835  1.7233
 3259SOL     OW11322   0.595   4.552   5.659  0.3633 -0.3977 -0.3779
 3259SOL    HW111323   0.534   4.505   5.602 -0.4840  0.1378  0.0523
 3259SOL    HW211324   0.637   4.484   5.711  0.8639 -0.8568 -1.3627
 3260SOL     OW11325   6.643   6.116   2.689  0.2760 -0.0731  0.1532
 3260SOL    HW111326   6.645   6.065   2.609  3.3561 -0.0340  0.0996
 3260SOL    HW211327   6.735   6.138   2.707 -0.5913  2.6650  1.9530
 3261SOL     OW11328   3.332   3.750   3.645 -0.7076 -0.1990 -0.1110
 3261SOL    HW111329   3.425   3.767   3.637 -0.9866  1.0998 -0.7612
 3261SOL    HW211330   3.327   3.670   3.698  0.8064 -1.0812 -1.1938
 3262SOL     OW11331   0.701   1.076   0.716  0.3204  0.1163 -0.0081
 3262SOL    HW111332   0.747   1.128   0.781  0.5226 -0.7319  0.5484
 3262SOL    HW211333   0.608   1.094   0.731  0.2870 -1.0168  1.3779
 3263SOL     OW11334   3.354   2.373   5.880 -0.5197 -0.5860  0.2404
 3263SOL    HW111335   3.394   2.460   5.881 -1.6078 -0.0732 -0.2605
 3263SOL    HW211336   3.276   2.382   5.934 -0.1554 -1.5042  0.9483
 3264SOL     OW11337   4.559   6.315   3.101 -0.1475 -0.3386  0.0351
 3264SOL    HW111338   4.466   6.334   3.092  0.0806 -0.1220 -2.9716
 3264SOL    HW211339   4.603   6.393   3.068  1.0529 -0.9354  0.1584
 3265SOL     OW11340   2.307   6.017   1.860  0.0503 -0.3278 -0.2515
 3265SOL    HW111341   2.233   6.027   1.920  0.0410  4.1637 -0.6420
 3265SOL    HW211342   2.383   6.042   1.912  1.0303 -2.4818 -0.5462
 3266SOL     OW11343   1.775   5.635   4.966 -0.8484  0.6094  0.2842
 3266SOL    HW111344   1.812   5.553   4.998 -0.3709  1.2670  1.5018
 3266SOL    HW211345   1.833   5.703   5.001 -1.2007  1.4651 -0.7480
 3267SOL     OW11346   5.449   6.537   4.358 -0.6047 -0.4917 -0.2336
 3267SOL    HW111347   5.408   6.465   4.407 -1.5338  0.7674  0.9268
 3267SOL    HW211348   5.397   6.614   4.381  0.9376  0.7324 -0.6872
 3268SOL     OW11349   2.968   5.627   4.114 -0.2069  0.4027 -0.5318
 3268SOL    HW111350   3.032   5.616   4.043  0.6682 -0.7952  0.3963
 3268SOL    HW211351   3.009   5.688   4.174  2.6046 -3.9560  2.6225
 3269SOL     OW11352   0.177   4.322   4.744 -0.3044  0.6406 -0.5205
 3269SOL    HW111353   0.102   4.374   4.713 -1.3000 -0.7563 -0.5707
 3269SOL    HW211354   0.140   4.234   4.758  0.7873  0.4921  1.8045
 3270SOL     OW11355   3.277   1.614   5.668 -1.6619  0.5426 -0.2525
 3270SOL    HW111356   3.233   1.666   5.600 -1.8103  0.0485 -0.5411
 3270SOL    HW211357   3.206   1.589   5.727 -1.4168  1.6237  0.5289
 3271SOL     OW11358   3.102   2.049   5.874 -0.1161  0.7805 -0.3696
 3271SOL    HW111359   3.091   2.069   5.967 -0.6859  1.1859 -0.5145
 3271SOL    HW211360   3.081   2.132   5.830 -1.4290  0.1657 -0.9433
 3272SOL     OW11361   5.313   0.375   1.980 -0.4336 -0.3185 -0.2456
 3272SOL    HW111362   5.345   0.430   1.909  0.3894 -0.5189 -0.0508
 3272SOL    HW211363   5.290   0.292   1.939 -0.3627 -0.2911 -0.3400
 3273SOL     OW11364   0.066   1.510   1.475 -0.6675 -0.2342 -0.4646
 3273SOL    HW111365  -0.014   1.483   1.430 -0.3953 -1.5314 -0.2051
 3273SOL    HW211366   0.073   1.451   1.550  0.4211  0.0038 -0.3603
 3274SOL     OW11367   0.112   0.282   2.090  0.3598 -0.2548  0.1275
 3274SOL    HW111368   0.148   0.268   2.002 -0.0242 -0.7604  0.0433
 3274SOL    HW211369   0.082   0.195   2.117  1.8800 -0.4413  1.3858
 3275SOL     OW11370   5.224   0.203   3.055 -0.0695  0.2836  0.1141
 3275SOL    HW111371   5.153   0.155   3.014  0.5689  0.2606 -1.0103
 3275SOL    HW211372   5.273   0.241   2.982  1.1515  0.1841  0.8457
 3276SOL     OW11373   1.550   1.097   3.984  0.0076 -0.0844  0.4428
 3276SOL    HW111374   1.644   1.080   3.975 -0.4084 -2.6230  0.1366
 3276SOL    HW211375   1.512   1.060   3.905 -1.1665  2.2064 -0.1313
 3277SOL     OW11376   1.060   2.111   0.617  0.5303  0.0701 -0.2638
 3277SOL    HW111377   1.069   2.136   0.525 -0.5777  0.8550 -0.1776
 3277SOL    HW211378   1.120   2.168   0.664  1.4793 -0.6772 -0.5276
 3278SOL     OW11379   0.066   6.174   1.068  0.6523  0.2390  0.1845
 3278SOL    HW111380   0.060   6.083   1.094 -1.6180 -0.1116 -1.3060
 3278SOL    HW211381   0.104   6.219   1.144 -0.4945 -1.5472  1.8869
 3279SOL     OW11382   0.815   6.694   2.934  0.2075  0.9274 -0.1410
 3279SOL    HW111383   0.727   6.717   2.964 -0.2380  0.3392 -0.9509
 3279SOL    HW211384   0.847   6.774   2.891  1.1852  2.0611  2.5330
 3280SOL     OW11385   6.546   2.141   4.382 -0.6401  0.0446 -0.8089
 3280SOL    HW111386   6.591   2.139   4.297  0.5553 -0.6278 -0.1943
 3280SOL    HW211387   6.473   2.201   4.369 -0.3548  0.1260 -2.2515
 3281SOL     OW11388   1.308   4.354   4.064  0.7473  0.0929 -0.4912
 3281SOL    HW111389   1.300   4.392   3.977  1.5420 -1.3333 -1.2106
 3281SOL    HW211390   1.403   4.344   4.077  0.7070  1.1604  0.9432
 3282SOL     OW11391   1.476   4.331   2.573 -0.6012 -0.0723 -0.0355
 3282SOL    HW111392   1.457   4.301   2.662  0.1457  1.7522  0.7852
 3282SOL    HW211393   1.540   4.268   2.539  0.9929  0.5487  1.6570
 3283SOL     OW11394   2.859   4.665   1.318 -0.1452  0.7641 -0.5418
 3283SOL    HW111395   2.853   4.634   1.408 -1.3558 -1.5374 -1.3327
 3283SOL    HW211396   2.841   4.758   1.323  0.1454  0.7500  1.6171
 3284SOL     OW11397   0.788   0.709   0.807  0.3779  0.4594 -0.0112
 3284SOL    HW111398   0.693   0.721   0.799  0.4501  0.3652 -1.1060
 3284SOL    HW211399   0.826   0.765   0.739  1.0234 -0.7627 -0.6892
 3285SOL     OW11400   1.785   1.492   2.170  0.1914 -0.6763  0.0951
 3285SOL    HW111401   1.814   1.529   2.253  2.3838 -0.0468 -0.8777
 3285SOL    HW211402   1.796   1.398   2.180  0.9632 -0.5614  0.3485
 3286SOL     OW11403   3.386   1.017   0.637  0.2946 -0.0115 -0.4822
 3286SOL    HW111404   3.377   0.960   0.713  0.5769 -1.1293 -1.2494
 3286SOL    HW211405   3.480   1.034   0.630  0.3442 -0.4265 -0.9217
 3287SOL     OW11406   0.997   3.404   4.635  0.0877 -0.0393  0.7421
 3287SOL    HW111407   1.018   3.474   4.574  2.4172 -0.6972  0.6976
 3287SOL    HW211408   0.956   3.336   4.580  1.7577 -0.4456 -0.0531
 3288SOL     OW11409   6.376   3.985   3.128 -0.4318 -0.0069 -0.1942
 3288SOL    HW111410   6.403   3.966   3.038  0.2450 -0.2686  0.0535
 3288SOL    HW211411   6.445   3.947   3.182 -1.6323 -1.2637  0.5081
 3289SOL     OW11412   3.685   2.600   3.455 -0.0649 -0.0262 -0.0389
 3289SOL    HW111413   3.683   2.667   3.387  0.7797 -0.0474 -0.0941
 3289SOL    HW211414   3.755   2.628   3.515 -0.0747 -0.5655  0.2341
 3290SOL     OW11415   5.921   6.138   1.597 -0.1815  0.4456 -0.2197
 3290SOL    HW111416   5.854   6.099   1.541 -0.7247  0.2977  0.5236
 3290SOL    HW211417   5.994   6.155   1.537  0.7415 -3.1250 -0.3872
 3291SOL     OW11418   4.848   2.384   1.847  0.0691 -0.1030 -0.1189
 3291SOL    HW111419   4.816   2.295   1.827  1.6737 -0.6459 -0.4077
 3291SOL    HW211420   4.879   2.418   1.763  3.5015 -1.0086  0.6348
 3292SOL     OW11421   1.517   0.930   5.711 -0.2171 -0.8876 -0.3548
 3292SOL    HW111422   1.438   0.909   5.661 -1.6163  2.6686  0.0733
 3292SOL    HW211423   1.495   0.906   5.801  0.1119 -1.9489 -0.5361
 3293SOL     OW11424   5.725   2.176   2.857 -0.4738 -0.6347  0.3634
 3293SOL    HW111425   5.695   2.130   2.779 -2.4488  0.6196  0.3237
 3293SOL    HW211426   5.723   2.269   2.833  3.0861 -0.3525  0.5473
 3294SOL     OW11427   2.837   0.424   6.298 -0.3609 -0.4831  0.9820
 3294SOL    HW111428   2.899   0.399   6.230 -1.0854  0.5214 -0.0952
 3294SOL    HW211429   2.754   0.438   6.251 -0.8638  0.2716  2.0542
 3295SOL     OW11430   5.107   3.660   1.217  0.3941 -0.0219  0.1864
 3295SOL    HW111431   5.060   3.743   1.218  0.6046  0.2118 -2.4531
 3295SOL    HW211432   5.156   3.661   1.135  0.7361 -2.5653  0.2716
 3296SOL     OW11433   1.515   0.155   2.473  0.3223 -0.6421 -0.0797
 3296SOL    HW111434   1.594   0.144   2.420  2.1929  1.0430  2.1480
 3296SOL    HW211435   1.470   0.071   2.466  1.7654 -1.3253 -2.2321
 3297SOL     OW11436   1.580   0.518   2.730 -0.5177 -0.1600  0.5470
 3297SOL    HW111437   1.554   0.503   2.638  0.7780 -0.9883  0.2843
 3297SOL    HW211438   1.654   0.578   2.725  0.0232 -0.7774  0.9918
 3298SOL     OW11439   6.081   5.165   2.253  0.1471 -0.1563 -0.2565
 3298SOL    HW111440   6.002   5.182   2.305  0.6240 -0.4938  0.6119
 3298SOL    HW211441   6.152   5.170   2.317  0.6161 -2.1370 -0.5753
 3299SOL     OW11442   2.116   0.547   5.981  0.4988 -0.5392  0.9729
 3299SOL    HW111443   2.032   0.507   6.002  0.7073 -1.2577  0.4858
 3299SOL    HW211444   2.110   0.636   6.016 -1.7598  0.6129 -1.9077
 3300SOL     OW11445   0.887   4.365   6.267 -0.6243 -0.5659 -0.0012
 3300SOL    HW111446   0.792   4.365   6.250 -0.4650  0.2738 -0.9903
 3300SOL    HW211447   0.898   4.428   6.339 -0.8819 -1.2524  0.6627
 3301SOL     OW11448   3.088   5.457   0.163  0.0234 -0.3403 -0.1781
 3301SOL    HW111449   3.084   5.431   0.071  0.3540  0.3843 -0.4068
 3301SOL    HW211450   3.110   5.550   0.160 -0.4316 -0.2001  0.6226
 3302SOL     OW11451   0.338   1.372   0.192  0.3433  0.1543  0.0749
 3302SOL    HW111452   0.282   1.448   0.175  0.5269  0.1644 -0.5098
 3302SOL    HW211453   0.367   1.383   0.283  0.0793  0.5946  0.1081
 3303SOL     OW11454   2.437   3.721   1.041 -0.2139 -0.4962 -0.4340
 3303SOL    HW111455   2.474   3.689   1.123 -0.3728  1.7946  0.6040
 3303SOL    HW211456   2.484   3.802   1.023 -1.0221 -0.3210 -1.9716
 3304SOL     OW11457   1.495   4.204   0.645 -0.6549  0.4304  0.4804
 3304SOL    HW111458   1.549   4.246   0.578 -0.9500  2.6012  1.5387
 3304SOL    HW211459   1.557   4.153   0.697  0.0015  0.9882  0.2589
 3305SOL     OW11460   2.639   6.565   2.623 -0.6562  0.3729  0.0073
 3305SOL    HW111461   2.634   6.619   2.702  0.7028  1.2067 -0.4443
 3305SOL    HW211462   2.724   6.522   2.629 -2.7972 -4.3286  1.9010
 3306SOL     OW11463   5.297   3.575   0.742 -0.0534  0.1044  0.2302
 3306SOL    HW111464   5.256   3.540   0.822 -0.5678  2.3847  1.0235
 3306SOL    HW211465   5.225   3.582   0.679  0.0584 -0.2965  0.0564
 3307SOL     OW11466   0.216   0.828   1.720  0.2419 -0.3492 -0.3271
 3307SOL    HW111467   0.188   0.916   1.745  2.0276 -0.0958  0.9515
 3307SOL    HW211468   0.292   0.842   1.663  0.0955 -1.0692 -0.7153
 3308SOL     OW11469   4.147   4.540   2.978 -0.3994 -0.3716  0.0709
 3308SOL    HW111470   4.230   4.578   3.010 -1.3535  2.6177 -0.6964
 3308SOL    HW211471   4.170   4.500   2.895  0.2548  0.7546 -0.3176
 3309SOL     OW11472   5.899   5.839   6.134  0.3566  0.4352 -0.3347
 3309SOL    HW111473   5.901   5.904   6.204 -0.3690 -0.0743  0.1698
 3309SOL    HW211474   5.922   5.888   6.055 -0.3712  1.3380  0.0012
 3310SOL     OW11475   0.147   5.049   5.126 -0.2328  0.2929  0.0916
 3310SOL    HW111476   0.115   4.989   5.193 -0.0013 -1.4095 -1.2372
 3310SOL    HW211477   0.092   5.127   5.135  0.2257  0.3834  2.6211
 3311SOL     OW11478   1.090   5.297   0.650  0.6943 -0.1489  0.0250
 3311SOL    HW111479   1.009   5.278   0.602  0.8895 -0.1605 -0.3059
 3311SOL    HW211480   1.074   5.264   0.738 -0.2655  1.2866  0.4335
 3312SOL     OW11481   2.767   0.865   4.956 -0.0106 -0.1417  0.1009
 3312SOL    HW111482   2.741   0.948   4.915  1.1054  0.5603  0.7639
 3312SOL    HW211483   2.730   0.868   5.044 -0.0789 -0.4061  0.0833
 3313SOL     OW11484   6.445   2.866   5.636 -0.4051  0.1142 -0.3014
 3313SOL    HW111485   6.449   2.780   5.595 -1.5506  0.4656 -1.1981
 3313SOL    HW211486   6.355   2.875   5.666 -0.4342  1.1727 -0.6414
 3314SOL     OW11487   2.276   1.747   0.005 -0.2939 -0.4700  0.0440
 3314SOL    HW111488   2.356   1.783  -0.034 -0.7603  0.5086 -0.0440
 3314SOL    HW211489   2.301   1.727   0.096 -0.3091  1.2009  0.4503
 3315SOL     OW11490   5.596   6.177   5.815 -0.1047 -0.3735  0.3703
 3315SOL    HW111491   5.589   6.220   5.729 -2.8871  0.6779  1.0158
 3315SOL    HW211492   5.634   6.244   5.872  1.4714 -0.9764  0.0839
 3316SOL     OW11493   0.031   0.724   2.846 -0.2500 -0.3150 -0.3199
 3316SOL    HW111494   0.121   0.730   2.814  0.7593 -0.3660  2.2241
 3316SOL    HW211495   0.004   0.814   2.861 -0.6864 -0.2945 -1.1730
 3317SOL     OW11496   3.202   2.867   1.537  0.1116 -0.3569 -0.2057
 3317SOL    HW111497   3.214   2.927   1.463 -1.1224  1.7500  1.1965
 3317SOL    HW211498   3.196   2.780   1.497 -0.3255  0.6880 -2.5560
 3318SOL     OW11499   1.696   4.881   6.071  0.0365 -0.3325 -0.2823
 3318SOL    HW111500   1.624   4.863   6.131  0.7663 -2.5263  0.0152
 3318SOL    HW211501   1.713   4.975   6.082 -3.1715  0.4268 -0.8991
 3319SOL     OW11502   0.950   4.309   3.732 -0.7649  0.0440 -0.2271
 3319SOL    HW111503   1.016   4.359   3.685 -0.3895  0.6991  0.9446
 3319SOL    HW211504   0.954   4.222   3.692  0.0561  0.3633 -0.8911
 3320SOL     OW11505   6.131   2.017   4.616 -0.7488 -0.7537 -0.3728
 3320SOL    HW111506   6.134   2.112   4.626 -0.9058 -0.7543 -0.3029
 3320SOL    HW211507   6.107   2.003   4.525 -1.1670 -0.7185 -0.2714
 3321SOL     OW11508   5.460   3.963   6.106  0.9275 -0.0683 -0.3121
 3321SOL    HW111509   5.428   3.889   6.157  0.4207  1.0896  1.1094
 3321SOL    HW211510   5.422   4.040   6.147  4.3855  1.3253  0.6682
 3322SOL     OW11511   1.650   1.479   6.202 -0.2017 -0.1322  0.0069
 3322SOL    HW111512   1.655   1.388   6.172  0.1067  0.1715 -0.8823
 3322SOL    HW211513   1.733   1.518   6.174  0.4650 -0.0378  1.9622
 3323SOL     OW11514   5.175   5.225   5.849  0.1536 -0.5818  0.3338
 3323SOL    HW111515   5.245   5.277   5.809 -0.3834  0.1213  0.2944
 3323SOL    HW211516   5.192   5.229   5.943  0.0541 -0.2299  0.3404
 3324SOL     OW11517   1.864   3.243   5.414 -0.3456  0.2671 -0.1328
 3324SOL    HW111518   1.893   3.309   5.476  0.3774  0.1708 -0.3546
 3324SOL    HW211519   1.878   3.160   5.459  2.3702  0.0354 -1.1973
 3325SOL     OW11520   0.457   0.773   0.023 -0.2323 -0.1994  0.2205
 3325SOL    HW111521   0.396   0.811  -0.040 -0.4850 -2.1576 -0.8092
 3325SOL    HW211522   0.407   0.770   0.105 -0.9305 -0.2259 -0.1937
 3326SOL     OW11523   0.043   0.547   5.708  0.3601  0.0666 -0.0053
 3326SOL    HW111524   0.058   0.515   5.619  1.8864 -1.2044  0.6694
 3326SOL    HW211525  -0.052   0.548   5.717  0.2025 -1.9578 -0.9157
 3327SOL     OW11526   1.501   1.834   5.880  0.1958 -0.5803  0.0098
 3327SOL    HW111527   1.520   1.903   5.944  0.6918 -1.0159  0.3344
 3327SOL    HW211528   1.524   1.753   5.924  1.0344 -0.8544 -0.8996
 3328SOL     OW11529   0.670   4.171   0.530  0.0666 -0.0342 -0.1420
 3328SOL    HW111530   0.603   4.239   0.541 -0.0672 -0.2531  0.4320
 3328SOL    HW211531   0.624   4.090   0.551  0.4986 -0.1917  0.2050
 3329SOL     OW11532   1.992   4.886   1.698 -0.6976  0.1676  0.1564
 3329SOL    HW111533   1.951   4.816   1.748 -1.7543  1.5744  1.3313
 3329SOL    HW211534   2.035   4.940   1.764  2.0568 -0.5361 -0.9112
 3330SOL     OW11535   2.647   2.037   6.566 -0.1413 -0.2406 -0.3576
 3330SOL    HW111536   2.624   2.044   6.659  2.3127  0.5598  0.2635
 3330SOL    HW211537   2.739   2.063   6.562 -0.0679 -0.6376 -2.9816
 3331SOL     OW11538   1.260   1.122   3.531  0.1819  0.1883  0.4505
 3331SOL    HW111539   1.175   1.112   3.573 -0.2057  0.9608 -0.1282
 3331SOL    HW211540   1.285   1.033   3.505 -1.1840  0.1224 -0.7553
 3332SOL     OW11541   6.197   4.433   1.286 -0.1331  0.4910 -0.3365
 3332SOL    HW111542   6.200   4.364   1.219  0.7210 -0.5777  0.7612
 3332SOL    HW211543   6.107   4.432   1.318 -0.5320  0.9718 -1.4059
 3333SOL     OW11544   0.637   0.743   0.321  0.0066  0.5326 -0.1920
 3333SOL    HW111545   0.702   0.777   0.383 -1.4723  0.1218  1.6909
 3333SOL    HW211546   0.556   0.786   0.347 -0.9681 -0.8679 -0.8316
 3334SOL     OW11547   2.997   2.533   5.445 -0.2593 -0.0318  0.0153
 3334SOL    HW111548   3.035   2.447   5.428  0.8524  0.5817 -0.6931
 3334SOL    HW211549   2.928   2.542   5.380 -0.8622 -0.6567  0.5425
 3335SOL     OW11550   1.322   3.263   6.309 -0.2711  0.0445 -0.1048
 3335SOL    HW111551   1.382   3.308   6.248 -0.6180 -1.5554 -1.6915
 3335SOL    HW211552   1.357   3.174   6.315  0.1221  0.2992  2.6096
 3336SOL     OW11553   0.877   2.373   4.657  0.3245  0.3511  0.8699
 3336SOL    HW111554   0.864   2.467   4.665  1.1183  0.3889  1.9651
 3336SOL    HW211555   0.811   2.334   4.714  0.6950  0.2962  1.2691
 3337SOL     OW11556   2.016   5.767   4.062  0.7035  0.0106 -0.2980
 3337SOL    HW111557   2.100   5.806   4.039  0.9154  0.1602  0.6865
 3337SOL    HW211558   2.025   5.675   4.037  1.4454 -0.1445  0.5108
 3338SOL     OW11559   5.843   4.725   2.550  0.4316 -0.0920  0.2122
 3338SOL    HW111560   5.774   4.782   2.584  1.2151  0.9464  0.1100
 3338SOL    HW211561   5.802   4.639   2.545 -0.2063  0.0438  2.2041
 3339SOL     OW11562   2.691   5.457   5.403  0.7986 -0.2635 -0.2772
 3339SOL    HW111563   2.648   5.395   5.344 -1.8240  1.6529 -0.5678
 3339SOL    HW211564   2.686   5.541   5.358  1.3123  0.7596  1.4696
 3340SOL     OW11565   5.853   6.605   3.052 -0.0597  0.2527  0.1234
 3340SOL    HW111566   5.777   6.547   3.057  0.0403  0.1615  0.5632
 3340SOL    HW211567   5.891   6.587   2.966 -0.5195  0.2803 -0.0873
 3341SOL     OW11568   2.299   0.244   6.455 -0.0116 -0.2767 -0.1422
 3341SOL    HW111569   2.333   0.206   6.536  0.7108 -0.3015 -0.4533
 3341SOL    HW211570   2.363   0.311   6.431 -1.2931  1.2608  0.4575
 3342SOL     OW11571   5.678   2.506   5.728  0.1352 -0.1831 -0.3727
 3342SOL    HW111572   5.607   2.448   5.702 -1.6590  1.4390  0.7093
 3342SOL    HW211573   5.727   2.521   5.647 -0.9171 -1.1074 -1.2045
 3343SOL     OW11574   5.463   5.249   5.521  0.5256  0.1285 -0.2268
 3343SOL    HW111575   5.491   5.234   5.611 -0.4731  0.4414  0.1445
 3343SOL    HW211576   5.426   5.337   5.521 -0.4974 -0.2821 -0.6749
 3344SOL     OW11577   1.590   6.065   0.401 -0.3192 -0.3424  0.3654
 3344SOL    HW111578   1.596   6.085   0.494  0.1050  1.3162  0.0132
 3344SOL    HW211579   1.501   6.090   0.377 -0.3004 -0.3951  0.2379
 3345SOL     OW11580   5.087   4.584   5.243  0.3257  0.3532  0.5660
 3345SOL    HW111581   5.151   4.580   5.172  0.2485  1.1988  0.4383
 3345SOL    HW211582   5.034   4.661   5.224 -2.1967 -1.5157 -0.5289
 3346SOL     OW11583   1.793   0.563   1.192 -0.7831 -0.1849 -0.3221
 3346SOL    HW111584   1.780   0.561   1.287 -0.9866 -1.8623 -0.3523
 3346SOL    HW211585   1.863   0.500   1.176 -1.1499 -0.3551 -1.3358
 3347SOL     OW11586   2.914   1.497   1.028  0.5858 -0.3671  0.0928
 3347SOL    HW111587   2.979   1.436   0.993  0.9065  0.2811 -0.4698
 3347SOL    HW211588   2.840   1.442   1.054  0.5338 -0.9219 -1.1639
 3348SOL     OW11589   2.255   1.183   1.790  0.1180  0.0198 -0.2683
 3348SOL    HW111590   2.255   1.096   1.829  3.2748 -0.2296 -0.6126
 3348SOL    HW211591   2.254   1.243   1.865 -0.5601 -0.3267  0.0048
 3349SOL     OW11592   6.206   0.068   3.937  0.2189  0.2968 -0.1999
 3349SOL    HW111593   6.166   0.152   3.918  0.4055  0.2641 -0.7550
 3349SOL    HW211594   6.143   0.003   3.904  0.6410  0.2437 -0.9232
 3350SOL     OW11595   1.656   6.515   0.801  0.3436  0.3628  0.2643
 3350SOL    HW111596   1.608   6.597   0.797 -0.2730 -0.0217 -1.7431
 3350SOL    HW211597   1.748   6.540   0.792  0.2406  0.8833  0.6581
 3351SOL     OW11598   3.360   6.394   6.668 -0.0880  0.3351  0.3184
 3351SOL    HW111599   3.396   6.477   6.698  1.7138  0.2422 -1.3610
 3351SOL    HW211600   3.331   6.350   6.748  2.0827  1.1672  1.6649
 3352SOL     OW11601   5.020   0.039   2.958 -0.3892 -0.1825 -0.1207
 3352SOL    HW111602   4.935   0.058   2.918 -0.1506 -0.7138 -0.8911
 3352SOL    HW211603   5.077   0.018   2.885  0.0690 -1.1115  0.4894
 3353SOL     OW11604   2.458   4.235   6.669 -0.1107 -0.3685  0.0706
 3353SOL    HW111605   2.522   4.193   6.727 -1.8488 -0.0801  2.3483
 3353SOL    HW211606   2.453   4.177   6.594  3.3224 -0.0186 -0.6251
 3354SOL     OW11607   4.312   1.087   1.270 -0.4702  0.0460 -0.3161
 3354SOL    HW111608   4.288   0.995   1.276 -0.7037  0.0060 -1.6799
 3354SOL    HW211609   4.228   1.134   1.270 -0.4520  0.1155 -1.6717
 3355SOL     OW11610   6.307   5.255   1.458 -0.4711 -0.4397 -0.4007
 3355SOL    HW111611   6.237   5.193   1.477  0.1322 -0.6247  1.4797
 3355SOL    HW211612   6.264   5.340   1.457 -0.7530 -0.5448  0.8332
 3356SOL     OW11613   5.235   4.698   1.606  0.0204 -0.2015 -0.0276
 3356SOL    HW111614   5.308   4.705   1.544 -0.3370 -0.1860 -0.4509
 3356SOL    HW211615   5.216   4.789   1.631  1.4307 -0.3179  1.6113
 3357SOL     OW11616   2.056   4.125   2.952 -0.5408 -0.4130  0.1113
 3357SOL    HW111617   2.091   4.102   2.866 -0.0459  0.5967  0.0214
 3357SOL    HW211618   2.127   4.106   3.013 -0.2153  0.6029  0.0632
 3358SOL     OW11619   5.897   3.800   1.672  0.4588  0.0232  0.3003
 3358SOL    HW111620   5.905   3.868   1.606 -0.9875  1.0176  1.0857
 3358SOL    HW211621   5.977   3.748   1.664  0.6222  0.5383 -1.7197
 3359SOL     OW11622   6.643   3.037   0.605  0.0695  0.2825  0.2104
 3359SOL    HW111623   6.548   3.025   0.593  0.0443 -0.9774  1.3817
 3359SOL    HW211624   6.651   3.123   0.647 -0.6673 -0.0909  1.1618
 3360SOL     OW11625   3.296   6.323   2.141 -0.9628 -0.1932 -0.1735
 3360SOL    HW111626   3.267   6.233   2.156 -0.8750 -0.4397 -1.3759
 3360SOL    HW211627   3.333   6.322   2.052 -0.2242  0.8444  0.1040
 3361SOL     OW11628   5.292   2.273   6.530  0.0326 -0.3732 -0.2346
 3361SOL    HW111629   5.329   2.199   6.579 -0.4516 -0.4461  0.0285
 3361SOL    HW211630   5.367   2.312   6.485  0.5176 -0.2102  0.6931
 3362SOL     OW11631   4.815   3.924   6.255 -0.0696  0.3738  0.2518
 3362SOL    HW111632   4.891   3.872   6.282  0.6721  1.1888 -0.2511
 3362SOL    HW211633   4.797   3.896   6.165 -0.4092  0.1492  0.3845
 3363SOL     OW11634   6.305   0.110   1.156  0.0849  0.3272 -0.2635
 3363SOL    HW111635   6.300   0.105   1.251  0.2297 -0.2198 -0.2868
 3363SOL    HW211636   6.215   0.131   1.128  0.4851  2.8833  0.1384
 3364SOL     OW11637   6.052   0.914   0.784 -0.1233 -0.3745  0.0414
 3364SOL    HW111638   6.036   0.973   0.710  1.6943 -0.6985 -0.6744
 3364SOL    HW211639   6.132   0.867   0.760  0.8692 -0.0662  2.4722
 3365SOL     OW11640   2.345   5.583   0.887  0.2196  0.4713  0.0774
 3365SOL    HW111641   2.387   5.500   0.866 -3.1298 -0.7324 -2.7915
 3365SOL    HW211642   2.287   5.563   0.960 -1.9308 -0.3669 -1.7390
 3366SOL     OW11643   6.102   1.164   2.836  0.6424  0.1925 -0.2740
 3366SOL    HW111644   6.089   1.071   2.820 -1.0262  0.0787  1.3204
 3366SOL    HW211645   6.166   1.192   2.770  1.8571 -2.2339 -0.2155
 3367SOL     OW11646   6.227   0.912   5.615 -0.1874 -0.6091 -0.1757
 3367SOL    HW111647   6.297   0.904   5.679 -0.3630 -0.1991  0.0709
 3367SOL    HW211648   6.150   0.937   5.666 -0.3060 -0.1885 -0.5512
 3368SOL     OW11649   5.603   5.179   6.368  0.3073 -0.8767  0.3189
 3368SOL    HW111650   5.594   5.210   6.458 -0.4999 -1.0895  0.3226
 3368SOL    HW211651   5.649   5.250   6.323 -1.4459  0.3405  0.3469
 3369SOL     OW11652   5.363   2.130   1.131 -0.1057  0.3945  0.3106
 3369SOL    HW111653   5.449   2.173   1.134  0.1670 -0.0155 -1.1597
 3369SOL    HW211654   5.316   2.176   1.062 -0.0058 -1.2848 -0.9034
 3370SOL     OW11655   0.193   3.565   1.168 -0.1270  0.1098  0.3154
 3370SOL    HW111656   0.112   3.614   1.164 -0.0897  0.2697  1.1623
 3370SOL    HW211657   0.197   3.532   1.258  0.9575  0.4908  0.4294
 3371SOL     OW11658   0.484   1.024   5.697 -0.3007 -0.3183 -0.1625
 3371SOL    HW111659   0.429   0.963   5.746  0.6597 -0.5091  0.7138
 3371SOL    HW211660   0.536   1.068   5.764  1.3454 -0.8663 -1.0201
 3372SOL     OW11661   5.011   2.044   3.798 -0.3501 -0.6070  0.3352
 3372SOL    HW111662   4.955   1.969   3.780 -0.4845 -0.3532 -0.3319
 3372SOL    HW211663   4.960   2.097   3.860 -0.3630 -0.9365  0.6083
 3373SOL     OW11664   4.912   0.506   0.076 -0.5397  0.5585  0.0411
 3373SOL    HW111665   4.948   0.458   0.150 -0.3832 -2.1023 -1.6357
 3373SOL    HW211666   4.818   0.490   0.080 -0.3998 -0.6726 -0.9870
 3374SOL     OW11667   3.906   0.783   0.417 -0.2930  0.5522  0.4478
 3374SOL    HW111668   3.983   0.774   0.361 -0.9268 -1.3282 -0.1971
 3374SOL    HW211669   3.872   0.870   0.397  0.4709  0.5863 -0.8267
 3375SOL     OW11670   3.165   0.553   1.923  0.0658  0.8336 -0.6876
 3375SOL    HW111671   3.239   0.494   1.908 -0.7300 -0.2415 -0.5188
 3375SOL    HW211672   3.088   0.502   1.898 -0.7805  1.2793  0.8611
 3376SOL     OW11673   5.344   3.438   1.180  0.0065  0.2809  0.2785
 3376SOL    HW111674   5.431   3.471   1.202 -0.9434  2.3276  1.1378
 3376SOL    HW211675   5.310   3.401   1.261 -0.0043 -0.3866 -0.0203
 3377SOL     OW11676   4.797   0.707   4.666 -0.5456 -0.0377  0.1461
 3377SOL    HW111677   4.737   0.760   4.718 -0.4994 -0.0588  0.2215
 3377SOL    HW211678   4.883   0.723   4.706 -0.1231  1.7671 -1.3225
 3378SOL     OW11679   1.733   3.021   6.459 -0.1645  0.1191  0.6535
 3378SOL    HW111680   1.785   3.017   6.540 -1.1022  1.1388  1.3423
 3378SOL    HW211681   1.689   3.106   6.464 -0.8797 -0.1682 -0.5358
 3379SOL     OW11682   6.173   3.643   6.733 -0.2448 -0.4211 -0.7085
 3379SOL    HW111683   6.209   3.588   6.663  1.1272 -0.4765  0.0060
 3379SOL    HW211684   6.167   3.584   6.808 -0.9840 -0.1689 -0.5644
 3380SOL     OW11685   4.338   3.184   3.258 -0.0114  0.6156  0.1625
 3380SOL    HW111686   4.382   3.269   3.255 -0.2672  0.9103  2.7528
 3380SOL    HW211687   4.409   3.120   3.244  0.4462  1.1991 -0.2134
 3381SOL     OW11688   2.206   2.597   2.938 -0.0320  0.1511  0.9606
 3381SOL    HW111689   2.201   2.577   3.031 -1.1403  1.9127  1.3279
 3381SOL    HW211690   2.298   2.617   2.922  0.5205 -1.9726  1.2341
 3382SOL     OW11691   5.498   1.572   5.828 -0.0515  0.1947 -0.0707
 3382SOL    HW111692   5.442   1.602   5.900 -1.5391 -1.4754 -0.4603
 3382SOL    HW211693   5.556   1.507   5.868 -0.1050  0.0878 -0.1680
 3383SOL     OW11694   6.167   2.753   3.150  0.4711  0.3189 -0.1718
 3383SOL    HW111695   6.167   2.659   3.167 -0.0725  0.1253 -1.2072
 3383SOL    HW211696   6.106   2.789   3.214  1.1328  0.0656  0.6310
 3384SOL     OW11697   4.429   6.004   4.584 -0.2125 -0.2173  0.0708
 3384SOL    HW111698   4.503   6.052   4.622  1.7877 -1.6742 -1.7689
 3384SOL    HW211699   4.395   5.951   4.657  1.3787 -0.4422  0.6939
 3385SOL     OW11700   2.675   2.574   0.191 -0.5183 -0.5953  0.1691
 3385SOL    HW111701   2.699   2.606   0.278 -0.5249  1.6679 -0.6083
 3385SOL    HW211702   2.673   2.479   0.200 -0.7381 -0.4093  2.6974
 3386SOL     OW11703   0.029   2.242   1.119 -0.6894  0.2312 -0.8321
 3386SOL    HW111704   0.033   2.298   1.197  1.5209  0.2325 -0.8605
 3386SOL    HW211705   0.013   2.154   1.153  1.0051  0.1054 -0.2223
 3387SOL     OW11706   2.566   3.308   2.326 -0.0947  0.2782  0.3397
 3387SOL    HW111707   2.633   3.310   2.258 -0.0865 -0.8804  0.3002
 3387SOL    HW211708   2.605   3.354   2.400  0.3404  0.5272 -0.0375
 3388SOL     OW11709   3.322   2.435   3.815  0.0572  0.3547 -0.0527
 3388SOL    HW111710   3.387   2.471   3.754  1.1844 -0.6734  0.4871
 3388SOL    HW211711   3.269   2.376   3.762 -0.4357  1.1820 -0.4965
 3389SOL     OW11712   4.861   3.398   0.342  0.0079 -0.3172  0.0839
 3389SOL    HW111713   4.871   3.304   0.356 -1.3898 -0.4139  0.6213
 3389SOL    HW211714   4.795   3.425   0.406 -0.4153  0.8190 -0.7959
 3390SOL     OW11715   3.017   6.355   6.491  0.2379  0.2757  0.3755
 3390SOL    HW111716   3.028   6.334   6.584  1.2963 -0.7653  0.0410
 3390SOL    HW211717   3.105   6.377   6.461  0.3428 -1.6485 -0.8833
 3391SOL     OW11718   4.191   1.407   6.494 -0.5953  0.1655  0.1166
 3391SOL    HW111719   4.102   1.439   6.507 -0.5121  0.8769 -0.9756
 3391SOL    HW211720   4.234   1.475   6.444  0.3604 -0.5043  0.0026
 3392SOL     OW11721   2.625   4.762   0.226 -0.0257  0.0624 -0.3240
 3392SOL    HW111722   2.647   4.715   0.306  0.7547 -0.2355 -0.7075
 3392SOL    HW211723   2.607   4.852   0.256  2.3585  0.4999 -0.0393
 3393SOL     OW11724   3.673   3.991   3.204  0.1752  0.6949 -0.1284
 3393SOL    HW111725   3.760   3.991   3.164  0.1389  2.3482 -0.2569
 3393SOL    HW211726   3.615   3.954   3.137  0.6537  0.2406 -0.2982
 3394SOL     OW11727   3.930   5.111   2.975  0.0258 -0.0269 -0.5212
 3394SOL    HW111728   3.853   5.075   3.019  0.2682 -1.4562 -1.2035
 3394SOL    HW211729   3.969   5.036   2.930  0.6639  1.0780 -1.8886
 3395SOL     OW11730   3.142   1.828   4.272 -0.1576 -0.5056 -0.2720
 3395SOL    HW111731   3.109   1.763   4.211  1.1334 -0.7613 -0.7320
 3395SOL    HW211732   3.202   1.882   4.220 -0.6829  0.6284  0.2577
 3396SOL     OW11733   6.047   0.170   6.471  0.0168 -0.0448 -0.2339
 3396SOL    HW111734   5.981   0.231   6.503  0.2384 -0.4327  1.0411
 3396SOL    HW211735   6.022   0.086   6.510  1.0203 -0.2797 -0.0709
 3397SOL     OW11736   2.674   5.253   3.059 -0.0733  0.1550  0.0939
 3397SOL    HW111737   2.679   5.320   2.991 -1.4390 -0.0266 -0.2247
 3397SOL    HW211738   2.598   5.278   3.112 -1.3364 -1.7159 -0.7166
 3398SOL     OW11739   6.514   0.707   3.348 -0.4734 -0.1709  0.2278
 3398SOL    HW111740   6.502   0.658   3.429 -0.8000  0.8022  0.7698
 3398SOL    HW211741   6.477   0.793   3.365  0.3955  0.3937 -0.6015
 3399SOL     OW11742   5.148   3.702   2.493 -0.0728  0.0015 -0.2108
 3399SOL    HW111743   5.145   3.725   2.400 -1.6488  0.5653 -0.0630
 3399SOL    HW211744   5.219   3.639   2.500  0.9085  0.9003 -1.5729
 3400SOL     OW11745   1.643   2.309   5.248 -0.5645  0.3620  0.2871
 3400SOL    HW111746   1.701   2.237   5.225 -1.7044 -0.0494 -1.5123
 3400SOL    HW211747   1.689   2.387   5.216  0.4196  0.4272  1.7530
 3401SOL     OW11748   2.565   5.686   4.433 -0.2878  0.1478 -0.5245
 3401SOL    HW111749   2.602   5.719   4.514 -0.2295 -1.9996  0.3773
 3401SOL    HW211750   2.627   5.715   4.365 -0.4263  2.1051  0.1172
 3402SOL     OW11751   1.242   1.314   1.866 -0.0472 -0.0641  0.6687
 3402SOL    HW111752   1.161   1.266   1.883  0.5139 -1.4348 -0.3599
 3402SOL    HW211753   1.295   1.300   1.945  0.2443 -1.4709  0.2520
 3403SOL     OW11754   2.421   2.314   5.416 -0.1529 -0.8227 -0.4903
 3403SOL    HW111755   2.427   2.219   5.406  1.2162 -0.7510 -0.5318
 3403SOL    HW211756   2.427   2.328   5.511 -2.3713 -0.8664 -0.2931
 3404SOL     OW11757   3.909   3.752   6.429 -0.3808 -0.2046  0.9889
 3404SOL    HW111758   3.915   3.846   6.448  0.4805 -0.3832  1.6878
 3404SOL    HW211759   3.945   3.743   6.341  1.5302 -0.1012  1.6978
 3405SOL     OW11760   3.659   2.785   5.947 -0.4925  0.4676  0.4283
 3405SOL    HW111761   3.703   2.838   5.880  0.3677  1.1680  1.5270
 3405SOL    HW211762   3.669   2.834   6.028  1.9007 -2.1472  1.8851
 3406SOL     OW11763   2.900   3.822   0.341  0.4462  0.6674 -0.3025
 3406SOL    HW111764   2.932   3.909   0.366  1.3067  0.7439 -1.5484
 3406SOL    HW211765   2.931   3.811   0.251 -1.7918  0.0791 -1.0473
 3407SOL     OW11766   0.657   0.595   2.651 -0.2925  0.7067  0.3560
 3407SOL    HW111767   0.752   0.594   2.662 -0.3991 -2.0156  1.8890
 3407SOL    HW211768   0.633   0.687   2.660  2.2534  1.6283 -1.1565
 3408SOL     OW11769   2.549   4.844   2.886  0.4461 -0.4069 -0.3535
 3408SOL    HW111770   2.563   4.936   2.862 -0.0018 -0.4976 -0.9846
 3408SOL    HW211771   2.530   4.847   2.980 -0.0182  0.2026 -0.4591
 3409SOL     OW11772   6.083   3.327   3.978 -0.1307  0.2140 -0.1287
 3409SOL    HW111773   6.009   3.271   3.956  0.6956 -1.1100  0.3418
 3409SOL    HW211774   6.142   3.318   3.903  0.9242 -1.2176  0.8166
 3410SOL     OW11775   0.598   3.885   2.100  0.4847  0.4557  0.0581
 3410SOL    HW111776   0.572   3.833   2.176  2.1019  3.1513  2.7031
 3410SOL    HW211777   0.693   3.873   2.094  0.5279  1.1430 -0.8776
 3411SOL     OW11778   0.053   1.011   0.755 -0.5641  0.2805  0.3849
 3411SOL    HW111779  -0.005   0.938   0.777  0.4730 -0.4590  0.7378
 3411SOL    HW211780   0.031   1.032   0.664 -1.3257 -0.0229  0.4862
 3412SOL     OW11781   2.914   2.233   6.136  0.1887 -0.2764 -0.3303
 3412SOL    HW111782   2.851   2.256   6.204  1.3658  3.6025 -0.2917
 3412SOL    HW211783   2.877   2.270   6.056  0.9584 -0.7285 -0.9071
 3413SOL     OW11784   3.536   1.601   6.770  0.1534  0.1692 -0.1675
 3413SOL    HW111785   3.537   1.509   6.796 -1.0129  0.2243  0.1589
 3413SOL    HW211786   3.479   1.604   6.693  0.9233  0.4919 -0.7372
 3414SOL     OW11787   3.116   1.285   1.288 -0.5891 -0.0277  0.5767
 3414SOL    HW111788   3.198   1.296   1.335 -0.6013  2.3565  0.1492
 3414SOL    HW211789   3.140   1.241   1.206 -0.1878 -1.7842  1.5962
 3415SOL     OW11790   5.733   3.045   1.912  0.2740  0.1938  0.3570
 3415SOL    HW111791   5.775   3.006   1.835 -0.1898  1.7759 -0.7623
 3415SOL    HW211792   5.665   2.983   1.937  0.8058 -0.6132 -0.1445
 3416SOL     OW11793   4.930   3.209   4.598 -0.1401  0.4034  0.3395
 3416SOL    HW111794   4.954   3.201   4.505 -0.8313 -0.6976  0.2424
 3416SOL    HW211795   4.910   3.302   4.609 -0.0057  0.5560 -0.6124
 3417SOL     OW11796   5.105   5.674   2.928 -0.0349 -0.1425 -0.2868
 3417SOL    HW111797   5.087   5.679   3.022  1.1396 -3.1040  0.2213
 3417SOL    HW211798   5.193   5.708   2.918 -0.6254  1.3727 -0.5686
 3418SOL     OW11799   1.734   3.106   1.675 -0.0575 -0.3509  0.3047
 3418SOL    HW111800   1.657   3.155   1.647 -0.7096 -1.1614  0.6656
 3418SOL    HW211801   1.808   3.154   1.637 -0.7879 -0.1293 -0.8709
 3419SOL     OW11802   3.683   1.510   0.985 -0.2175 -0.2334  0.3080
 3419SOL    HW111803   3.659   1.460   0.907  0.2822 -2.4225  1.4984
 3419SOL    HW211804   3.635   1.468   1.056  1.8004 -0.3350  1.6827
 3420SOL     OW11805   3.076   0.533   1.450  0.1729 -0.1806 -0.3653
 3420SOL    HW111806   2.989   0.507   1.481  0.4943  0.0058  0.7337
 3420SOL    HW211807   3.134   0.464   1.484  0.2958 -1.0536 -2.2420
 3421SOL     OW11808   5.686   5.668   6.194  0.5922  0.4603  0.3031
 3421SOL    HW111809   5.630   5.693   6.268  0.0767  1.5792 -0.4438
 3421SOL    HW211810   5.761   5.726   6.200  1.2983 -0.4771  0.8123
 3422SOL     OW11811   4.318   5.817   2.448  0.6910 -0.0254  0.6231
 3422SOL    HW111812   4.310   5.730   2.408  1.7198 -0.1645  0.6943
 3422SOL    HW211813   4.361   5.870   2.381 -1.3224  0.8894 -0.0374
 3423SOL     OW11814   6.268   1.911   6.435  0.2458  0.5370  0.0397
 3423SOL    HW111815   6.194   1.873   6.388  0.0810  1.9680 -0.9595
 3423SOL    HW211816   6.300   1.980   6.376  1.2473  1.1294  1.2303
 3424SOL     OW11817   4.175   5.882   0.131  0.1334 -0.3518  0.7098
 3424SOL    HW111818   4.158   5.965   0.086 -0.2156  0.6861  2.6270
 3424SOL    HW211819   4.247   5.843   0.082  0.2139  1.0220 -0.3376
 3425SOL     OW11820   4.375   6.228   4.104 -0.0883  0.3828  0.1279
 3425SOL    HW111821   4.349   6.139   4.078  0.7370  0.1239  0.1386
 3425SOL    HW211822   4.370   6.279   4.023  0.4794  0.0616 -0.1198
 3426SOL     OW11823   1.054   2.115   3.666 -0.7916 -0.3297  0.0938
 3426SOL    HW111824   1.042   2.036   3.720 -0.1959 -0.8514 -0.5094
 3426SOL    HW211825   1.036   2.085   3.577  2.0370 -0.5107 -0.5270
 3427SOL     OW11826   2.223   1.216   1.514 -0.3015 -0.0813 -0.1906
 3427SOL    HW111827   2.223   1.124   1.487 -2.1088  0.3134 -1.7006
 3427SOL    HW211828   2.258   1.214   1.603  0.9766 -2.0565 -0.6532
 3428SOL     OW11829   1.692   6.567   6.077  0.1900  0.9473 -0.0176
 3428SOL    HW111830   1.633   6.508   6.031 -2.0414  0.0927  3.5754
 3428SOL    HW211831   1.656   6.654   6.060  0.4395  0.8328 -1.2144
 3429SOL     OW11832   3.784   1.920   0.012  0.3118 -0.1371 -0.0539
 3429SOL    HW111833   3.805   1.827   0.015  1.3489  0.1177  1.0242
 3429SOL    HW211834   3.864   1.962  -0.020 -0.1332  0.4040 -0.4930
 3430SOL     OW11835   4.247   3.270   2.750 -0.2273  0.4047 -0.0297
 3430SOL    HW111836   4.201   3.216   2.685 -0.8985 -0.2360  0.9495
 3430SOL    HW211837   4.294   3.335   2.698  0.5810 -1.0845 -1.2705
 3431SOL     OW11838   5.317   1.714   5.973 -0.3094  0.3599 -0.1426
 3431SOL    HW111839   5.272   1.795   5.950  0.6991  1.2009  0.6727
 3431SOL    HW211840   5.306   1.707   6.068  2.5364  1.4901  0.3747
 3432SOL     OW11841   0.644   6.065   5.918 -0.0615 -0.2762 -0.1219
 3432SOL    HW111842   0.671   6.139   5.863  0.4726  0.2011  0.7605
 3432SOL    HW211843   0.682   6.084   6.004  1.5164 -2.3728 -0.2617
 3433SOL     OW11844   0.490   6.305   5.305 -0.1287  0.3893  0.4265
 3433SOL    HW111845   0.568   6.258   5.336  0.0753 -1.5799 -2.6070
 3433SOL    HW211846   0.418   6.266   5.355  0.4216 -0.6981  0.4146
 3434SOL     OW11847   1.324   5.298   6.010  0.1076 -0.1011 -0.3120
 3434SOL    HW111848   1.309   5.315   6.103 -0.9048  0.2729 -0.5262
 3434SOL    HW211849   1.329   5.203   6.004  1.9770 -0.0989  0.3570
 3435SOL     OW11850   1.736   3.760   3.951  0.1569 -0.2531 -0.0749
 3435SOL    HW111851   1.702   3.672   3.964  0.9155 -1.0158 -2.7194
 3435SOL    HW211852   1.831   3.751   3.954  0.2703  0.2419 -1.4750
 3436SOL     OW11853   1.880   2.109   6.217 -0.4040 -0.0507  0.5388
 3436SOL    HW111854   1.843   2.117   6.304  1.2978  0.2539  1.2673
 3436SOL    HW211855   1.886   2.199   6.185  0.9489  0.0473  0.9989
 3437SOL     OW11856   4.839   0.601   3.408 -0.4882  0.1518 -0.0505
 3437SOL    HW111857   4.802   0.616   3.495  1.3043 -0.7158  0.9079
 3437SOL    HW211858   4.925   0.563   3.424 -0.3136 -0.5361 -2.2173
 3438SOL     OW11859   5.849   4.971   2.957  0.0280 -0.3762  0.2654
 3438SOL    HW111860   5.837   5.020   2.876 -0.3823 -0.5194  0.2395
 3438SOL    HW211861   5.897   5.031   3.014 -2.1514  0.8267  0.9473
 3439SOL     OW11862   0.511   2.147   4.418  0.2571  0.3905  0.3075
 3439SOL    HW111863   0.563   2.127   4.496 -0.7537 -0.4758  0.7858
 3439SOL    HW211864   0.423   2.115   4.439 -0.0296  0.1126 -1.2046
 3440SOL     OW11865   0.607   5.178   6.353 -0.4066 -0.5609  0.2191
 3440SOL    HW111866   0.561   5.261   6.367 -0.5681 -0.2293 -2.0240
 3440SOL    HW211867   0.647   5.159   6.438 -1.2792  1.2388  1.0894
 3441SOL     OW11868   0.228   2.494   2.875 -0.1503 -0.5920  0.3330
 3441SOL    HW111869   0.169   2.425   2.904  0.1423 -0.7036  0.6651
 3441SOL    HW211870   0.218   2.563   2.940 -0.3977 -0.3432  0.0342
 3442SOL     OW11871   1.544   6.379   3.203  0.0259 -0.2886 -0.3976
 3442SOL    HW111872   1.506   6.463   3.180  0.6040  0.2053  0.4210
 3442SOL    HW211873   1.622   6.400   3.254  0.4147 -1.3117 -0.5380
 3443SOL     OW11874   1.766   0.918   3.641  1.0691 -0.3453 -0.5212
 3443SOL    HW111875   1.762   0.992   3.702  0.1209 -0.0736 -0.9029
 3443SOL    HW211876   1.856   0.918   3.609  1.8388 -0.9477  1.4291
 3444SOL     OW11877   0.333   4.373   6.707  0.1984 -0.1514  0.2541
 3444SOL    HW111878   0.298   4.458   6.682 -0.4801 -0.0031  1.6285
 3444SOL    HW211879   0.366   4.336   6.625 -0.1200  1.1319 -0.4835
 3445SOL     OW11880   0.361   4.018   1.491 -0.1472 -0.4426 -0.7028
 3445SOL    HW111881   0.446   4.048   1.523 -0.0603 -1.3138 -0.0626
 3445SOL    HW211882   0.309   4.006   1.571 -0.7020 -0.4053 -1.0572
 3446SOL     OW11883   4.183   5.895   0.402 -0.4997 -0.6582 -0.0122
 3446SOL    HW111884   4.223   5.902   0.315  0.3115 -0.0417  0.3905
 3446SOL    HW211885   4.109   5.954   0.399  0.1696  0.2052  0.0494
 3447SOL     OW11886   3.873   5.833   2.014  0.0839  0.6661  0.0617
 3447SOL    HW111887   3.908   5.897   1.951  0.8449  1.4249  1.2053
 3447SOL    HW211888   3.923   5.753   1.997  1.4420  1.3306  0.7271
 3448SOL     OW11889   2.610   0.842   6.415 -0.0808 -0.5884  0.1191
 3448SOL    HW111890   2.685   0.821   6.361  1.1287  0.0215  1.4844
 3448SOL    HW211891   2.575   0.924   6.378  1.4323  0.4524  0.8811
 3449SOL     OW11892   0.006   3.728   0.506  0.3021 -0.2253 -0.0096
 3449SOL    HW111893   0.022   3.729   0.600 -0.0215 -0.5801  0.0547
 3449SOL    HW211894  -0.090   3.720   0.499  0.4855 -2.9943 -0.3402
 3450SOL     OW11895   0.757   6.137   5.396  0.2931  0.0425  0.1637
 3450SOL    HW111896   0.809   6.213   5.372  2.0411 -0.8434  0.9315
 3450SOL    HW211897   0.711   6.163   5.476  0.7987  0.3292  0.3616
 3451SOL     OW11898   5.915   5.365   3.856  0.3302 -0.6016  0.0438
 3451SOL    HW111899   5.967   5.389   3.779  1.8539 -0.4726  1.0590
 3451SOL    HW211900   5.909   5.270   3.852 -0.6000 -0.5182 -0.8317
 3452SOL     OW11901   4.463   3.520   0.314  0.2837  0.2007 -0.0071
 3452SOL    HW111902   4.531   3.516   0.381  1.0473 -0.2777 -0.7992
 3452SOL    HW211903   4.453   3.613   0.294  1.3779  0.2059 -0.5672
 3453SOL     OW11904   2.859   5.278   2.339 -0.0217 -0.6906  0.0381
 3453SOL    HW111905   2.829   5.318   2.420 -0.3051  0.4731 -0.6084
 3453SOL    HW211906   2.842   5.185   2.350 -1.7479 -0.3544  0.6170
 3454SOL     OW11907   1.584   0.317   3.524  0.2045  0.0569 -0.1020
 3454SOL    HW111908   1.672   0.321   3.486  1.0013  0.6344  1.6839
 3454SOL    HW211909   1.575   0.226   3.552  0.4719  0.1262  0.2181
 3455SOL     OW11910   1.430   0.162   5.283 -0.1208 -0.1855  0.4634
 3455SOL    HW111911   1.390   0.238   5.241  1.2309  0.4623  0.3029
 3455SOL    HW211912   1.376   0.088   5.255  0.3025  0.3051 -1.8606
 3456SOL     OW11913   6.017   5.427   0.141 -0.1382  0.1268 -0.2127
 3456SOL    HW111914   6.035   5.458   0.230  1.1850  0.6219 -0.6277
 3456SOL    HW211915   5.997   5.506   0.092 -0.9499 -0.1573 -0.3584
 3457SOL     OW11916   2.606   1.647   5.850 -0.3681  0.3352 -0.3882
 3457SOL    HW111917   2.570   1.715   5.794 -0.7050  0.4915  0.0046
 3457SOL    HW211918   2.696   1.674   5.868 -0.7376  1.0776  0.3858
 3458SOL     OW11919   5.720   0.144   4.769 -0.2338  0.3436 -0.1481
 3458SOL    HW111920   5.695   0.055   4.795 -1.1314  0.7456  0.4268
 3458SOL    HW211921   5.651   0.200   4.805  0.7903  1.3690  0.2975
 3459SOL     OW11922   3.913   5.940   3.516  0.4624  0.6139 -0.4750
 3459SOL    HW111923   3.852   5.960   3.587 -0.6918 -4.1775  0.2513
 3459SOL    HW211924   3.859   5.941   3.437  0.5397  0.8774 -0.5253
 3460SOL     OW11925   6.265   3.029   4.724 -0.3709 -0.7091 -0.1006
 3460SOL    HW111926   6.209   3.085   4.670 -0.1321  1.2074  1.5149
 3460SOL    HW211927   6.237   3.046   4.813  3.1166  0.8886  0.8736
 3461SOL     OW11928   2.176   6.636   0.500 -0.1613 -0.5094  0.0066
 3461SOL    HW111929   2.115   6.697   0.459 -1.5011 -2.3645 -0.9233
 3461SOL    HW211930   2.262   6.672   0.483 -0.9379  2.1450  1.2572
 3462SOL     OW11931   3.000   3.724   2.691  0.0230  0.4698  0.0375
 3462SOL    HW111932   3.018   3.766   2.607 -0.5405 -0.2271 -0.4412
 3462SOL    HW211933   3.085   3.718   2.733  0.4265  0.1900 -0.7883
 3463SOL     OW11934   4.576   5.419   2.565  0.2247  0.1804  0.4317
 3463SOL    HW111935   4.556   5.380   2.650  0.5718 -0.2583  0.3189
 3463SOL    HW211936   4.511   5.382   2.505  1.7378 -1.8143 -0.0851
 3464SOL     OW11937   1.679   5.807   3.239  0.1542 -0.2584 -0.3493
 3464SOL    HW111938   1.705   5.823   3.148  2.8752  2.9299  0.8148
 3464SOL    HW211939   1.595   5.851   3.248  0.3693  0.3223 -1.0794
 3465SOL     OW11940   6.161   5.521   6.235  0.3322 -0.4317 -0.1718
 3465SOL    HW111941   6.213   5.600   6.247 -1.7239  0.8670  0.6940
 3465SOL    HW211942   6.113   5.535   6.153  1.3638 -1.6785 -1.0423
 3466SOL     OW11943   4.034   4.646   5.703  0.0669 -0.4024  0.5248
 3466SOL    HW111944   3.961   4.598   5.664  0.9785  0.9226 -3.2722
 3466SOL    HW211945   4.084   4.579   5.750 -0.9052 -2.3760 -1.0804
 3467SOL     OW11946   2.586   6.223   6.534 -0.0362  0.7836  0.5483
 3467SOL    HW111947   2.647   6.197   6.604  1.0763  0.5687 -0.4768
 3467SOL    HW211948   2.527   6.284   6.577 -1.1913 -1.4479  2.4215
 3468SOL     OW11949   5.328   2.262   4.074 -0.0586 -0.0945 -0.8398
 3468SOL    HW111950   5.281   2.191   4.031  0.6908 -0.4616 -1.0675
 3468SOL    HW211951   5.314   2.248   4.168  0.0174 -0.4981 -0.8893
 3469SOL     OW11952   2.796   3.596   3.243 -0.0812  0.1844  0.3147
 3469SOL    HW111953   2.842   3.677   3.265 -0.1958  0.6286 -1.0058
 3469SOL    HW211954   2.832   3.570   3.158 -0.2760 -0.9827  0.5650
 3470SOL     OW11955   3.311   0.322   3.711 -0.1081 -0.2105  0.6588
 3470SOL    HW111956   3.397   0.285   3.689  0.0850  1.5411 -1.9632
 3470SOL    HW211957   3.320   0.415   3.692 -1.5821  0.7061  3.7794
 3471SOL     OW11958   2.619   5.467   3.701  0.2756  0.6726 -0.4671
 3471SOL    HW111959   2.589   5.539   3.757 -0.9776 -0.7600  0.7960
 3471SOL    HW211960   2.714   5.466   3.712  0.3362  2.2507 -0.6792
 3472SOL     OW11961   1.043   1.804   5.284 -0.3426 -0.3842 -0.7129
 3472SOL    HW111962   1.013   1.797   5.193 -2.0024 -0.0609 -0.2137
 3472SOL    HW211963   0.973   1.852   5.329  0.3322 -0.7689  0.7967
 3473SOL     OW11964   3.735   5.409   5.924 -0.3110 -0.2611 -0.3117
 3473SOL    HW111965   3.762   5.327   5.882 -1.6332 -0.0720 -1.6050
 3473SOL    HW211966   3.646   5.424   5.892 -0.6206  0.9706  1.0062
 3474SOL     OW11967   1.721   6.159   1.260 -0.4026  0.1674 -0.0336
 3474SOL    HW111968   1.807   6.170   1.302 -0.0955 -1.2809 -0.2382
 3474SOL    HW211969   1.687   6.077   1.296 -1.4268  0.4088 -0.4351
 3475SOL     OW11970   4.696   3.539   2.073  0.0938 -0.5745 -0.2409
 3475SOL    HW111971   4.728   3.449   2.066 -1.5201 -1.1644 -0.3115
 3475SOL    HW211972   4.745   3.575   2.147  1.1264 -1.3349 -0.5261
 3476SOL     OW11973   0.798   2.624   1.767  0.7446 -0.3669  0.3393
 3476SOL    HW111974   0.839   2.548   1.725  0.7016 -0.3615  0.2878
 3476SOL    HW211975   0.774   2.681   1.694  0.6888 -0.3483  0.3731
 3477SOL     OW11976   6.691   6.412   5.913  0.1093 -0.6308  0.0983
 3477SOL    HW111977   6.750   6.403   5.838 -0.1180 -0.7617 -0.0663
 3477SOL    HW211978   6.613   6.361   5.889 -0.1789 -0.2469  0.2039
 3478SOL     OW11979   4.602   0.583   1.243  0.4651 -0.1945  0.4877
 3478SOL    HW111980   4.558   0.666   1.262  1.2378  0.0980  1.0493
 3478SOL    HW211981   4.536   0.531   1.197  0.4535  1.2776 -1.2667
 3479SOL     OW11982   6.612   1.656   3.570 -0.1545 -0.2987  0.1199
 3479SOL    HW111983   6.520   1.683   3.572 -0.0698 -0.0243  1.0869
 3479SOL    HW211984   6.658   1.728   3.527 -0.1453  0.4540  1.3201
 3480SOL     OW11985   5.723   3.568   6.404 -0.0613 -0.4720  0.1981
 3480SOL    HW111986   5.629   3.579   6.419 -0.2223 -0.8832 -0.4275
 3480SOL    HW211987   5.759   3.656   6.407 -0.6060 -0.2210 -0.3685
 3481SOL     OW11988   3.205   2.047   4.679  0.1980 -0.0009  0.0363
 3481SOL    HW111989   3.221   2.125   4.627  0.0786 -0.0585 -0.0877
 3481SOL    HW211990   3.183   1.979   4.615 -1.3539  0.2733  0.2451
 3482SOL     OW11991   0.091   1.924   3.691  0.2025  0.3656  0.6106
 3482SOL    HW111992   0.079   1.922   3.786  0.7441 -2.5795  0.7217
 3482SOL    HW211993   0.170   1.872   3.676 -1.6486 -2.0872 -1.5839
 3483SOL     OW11994   5.736   0.102   1.707  0.8481 -0.1648  0.1095
 3483SOL    HW111995   5.680   0.178   1.694  1.4026  0.2202 -0.0795
 3483SOL    HW211996   5.712   0.041   1.637 -2.1542 -1.7726  2.3026
 3484SOL     OW11997   1.750   3.801   4.246 -0.4308 -0.3503 -0.3405
 3484SOL    HW111998   1.748   3.754   4.163 -2.4942 -0.2248 -0.4105
 3484SOL    HW211999   1.685   3.757   4.301  0.1170  0.2475  0.8399
 3485SOL     OW12000   0.093   4.001   2.383 -0.3113  0.2168 -0.4342
 3485SOL    HW112001   0.073   3.907   2.395 -0.8472  0.2954 -0.6744
 3485SOL    HW212002   0.134   4.027   2.466 -0.5961 -0.1224 -0.1800
 3486SOL     OW12003   6.562   1.610   2.102  0.4387 -0.2886  0.1921
 3486SOL    HW112004   6.650   1.581   2.123  0.6104 -0.4770 -0.7570
 3486SOL    HW212005   6.508   1.578   2.175  1.1224 -0.3074  0.6940
 3487SOL     OW12006   3.370   5.984   0.842 -0.5286 -0.0829  0.2366
 3487SOL    HW112007   3.452   6.006   0.887 -0.8835  1.2970  0.2476
 3487SOL    HW212008   3.302   6.024   0.895 -1.0749  0.2684 -0.7092
 3488SOL     OW12009   3.982   3.334   6.324 -0.2981 -0.1854  0.5601
 3488SOL    HW112010   4.057   3.389   6.300  0.4412 -1.3316  0.1263
 3488SOL    HW212011   4.000   3.250   6.281 -1.0209 -1.0012  1.7967
 3489SOL     OW12012   0.643   2.725   2.865  0.3459  0.2297 -0.4910
 3489SOL    HW112013   0.607   2.647   2.906 -0.6323  1.4846  1.1706
 3489SOL    HW212014   0.568   2.769   2.825  0.1263  2.1483  1.7870
 3490SOL     OW12015   3.603   0.278   0.976  0.2833  0.2829 -0.6911
 3490SOL    HW112016   3.519   0.320   0.993  0.2510 -0.7129  2.0884
 3490SOL    HW212017   3.664   0.351   0.960 -0.6863  1.1116 -0.6955
 3491SOL     OW12018   5.754   2.889   1.107 -0.1306 -0.6385 -0.8314
 3491SOL    HW112019   5.806   2.927   1.036  0.2994 -0.3054 -0.3415
 3491SOL    HW212020   5.813   2.828   1.151  0.7853  1.6783  1.4023
 3492SOL     OW12021   1.736   0.181   0.819 -0.2032  0.5417  0.6864
 3492SOL    HW112022   1.716   0.193   0.912  2.1793 -1.1868  1.5072
 3492SOL    HW212023   1.824   0.217   0.809  0.3106 -0.9749 -0.4786
 3493SOL     OW12024   5.105   1.274   5.049  0.7276 -0.0902 -0.1714
 3493SOL    HW112025   5.139   1.229   4.972  0.5032 -1.7895  0.6641
 3493SOL    HW212026   5.061   1.205   5.100  0.8035  0.9812  1.4412
 3494SOL     OW12027   6.093   5.098   2.819  0.1258  0.0536  0.1912
 3494SOL    HW112028   6.166   5.045   2.852  0.2164  0.4937  0.7106
 3494SOL    HW212029   6.123   5.189   2.828 -1.0618  0.3236  1.8524
 3495SOL     OW12030   3.904   4.486   3.526  0.0384 -0.4878 -0.1387
 3495SOL    HW112031   3.965   4.447   3.589  0.2418  2.0151  1.3571
 3495SOL    HW212032   3.954   4.556   3.485 -1.6601  1.4177  0.8803
 3496SOL     OW12033   2.630   4.557   5.922 -0.2869 -0.1149 -0.4809
 3496SOL    HW112034   2.699   4.508   5.967  1.4114  2.1495 -0.4520
 3496SOL    HW212035   2.613   4.507   5.842  0.6358 -1.2608  0.0142
 3497SOL     OW12036   6.199   4.398   5.398  0.4344 -0.4422 -0.2820
 3497SOL    HW112037   6.246   4.348   5.465 -0.0859 -0.8149 -0.1879
 3497SOL    HW212038   6.161   4.472   5.446 -1.9616 -1.9736  0.3688
 3498SOL     OW12039   2.203   3.195   1.821 -0.3267  0.7593  0.0316
 3498SOL    HW112040   2.163   3.109   1.811  0.2093  0.4048  0.8131
 3498SOL    HW212041   2.297   3.179   1.810 -0.2831  1.3856 -0.6073
 3499SOL     OW12042   6.116   5.794   4.594  0.3721 -0.2576  0.0141
 3499SOL    HW112043   6.104   5.818   4.686  1.2211  0.2702  0.0000
 3499SOL    HW212044   6.188   5.731   4.596  0.2649 -0.3871 -0.2667
 3500SOL     OW12045   0.009   4.980   1.979 -0.4871 -0.0452 -0.1359
 3500SOL    HW112046   0.011   5.041   1.906 -2.2734 -0.1935 -0.3723
 3500SOL    HW212047  -0.084   4.967   1.996 -0.1236  0.5381  2.6654
 3501SOL     OW12048   0.643   1.465   3.880 -0.0210  0.6919 -0.1784
 3501SOL    HW112049   0.594   1.384   3.866  2.2839 -0.7608 -0.3583
 3501SOL    HW212050   0.635   1.513   3.797 -0.4555  0.1104 -0.4735
 3502SOL     OW12051   0.851   1.172   3.947  0.5735 -0.2028 -0.0399
 3502SOL    HW112052   0.929   1.136   3.906 -0.1560  0.5893 -2.2410
 3502SOL    HW212053   0.877   1.260   3.976  1.1616 -0.8549  1.5839
 3503SOL     OW12054   5.100   6.079   2.664  0.4839  0.5298  0.1821
 3503SOL    HW112055   5.101   6.111   2.574 -0.4709 -0.0693 -0.0523
 3503SOL    HW212056   5.097   5.984   2.656  1.4771  0.4216  0.8630
 3504SOL     OW12057   6.710   4.503   1.061  0.0467  0.1920  0.3358
 3504SOL    HW112058   6.735   4.528   0.972  1.1785  0.0483  0.5876
 3504SOL    HW212059   6.682   4.411   1.053  1.0183 -0.1163  0.2512
 3505SOL     OW12060   0.100   0.157   2.454  0.3494  0.6643 -0.3121
 3505SOL    HW112061   0.015   0.196   2.473  0.4738  0.3186  1.0114
 3505SOL    HW212062   0.099   0.072   2.499  0.8947  0.0687 -1.3828
 3506SOL     OW12063   0.307   3.896   3.130  0.0580 -0.4309 -0.1463
 3506SOL    HW112064   0.289   3.803   3.116 -0.6581 -0.4054  0.5743
 3506SOL    HW212065   0.401   3.904   3.112  0.1911 -1.3417  0.0477
 3507SOL     OW12066   2.836   5.652   4.946  0.0042  0.0006  0.0727
 3507SOL    HW112067   2.884   5.580   4.986 -2.3082 -1.3673  0.5380
 3507SOL    HW212068   2.746   5.640   4.974 -0.9180  1.5968 -1.9441
 3508SOL     OW12069   0.097   4.249   0.820 -0.0762  0.1691  0.4267
 3508SOL    HW112070   0.135   4.311   0.882 -0.1663  1.4186 -0.7218
 3508SOL    HW212071   0.139   4.269   0.737 -0.7944 -0.6987 -0.1678
 3509SOL     OW12072   3.875   1.078   0.081 -0.0407 -0.0640  0.0136
 3509SOL    HW112073   3.796   1.038   0.047 -0.0992  0.1282 -0.0792
 3509SOL    HW212074   3.879   1.052   0.173  0.8040 -1.6712 -0.4442
 3510SOL     OW12075   0.549   2.414   6.304 -0.2848  0.3713  0.1300
 3510SOL    HW112076   0.610   2.408   6.377  0.1541 -0.4531 -0.2824
 3510SOL    HW212077   0.586   2.355   6.238 -1.4902 -0.0889 -0.1536
 3511SOL     OW12078   0.183   4.260   1.486 -0.1359  0.2749 -0.3616
 3511SOL    HW112079   0.206   4.349   1.462 -0.1003  0.6505  1.0362
 3511SOL    HW212080   0.265   4.211   1.480 -0.0361  0.4621 -0.5315
 3512SOL     OW12081   3.402   1.692   6.342 -0.2041 -0.6909  0.1864
 3512SOL    HW112082   3.356   1.771   6.371  0.3847 -0.0588 -0.5157
 3512SOL    HW212083   3.353   1.663   6.265  0.0494 -0.5301 -0.0377
 3513SOL     OW12084   5.415   6.415   5.404  0.1321 -0.4963  0.0216
 3513SOL    HW112085   5.490   6.471   5.387 -0.3066 -0.0641 -0.5418
 3513SOL    HW212086   5.432   6.335   5.354 -0.6458  0.3413 -1.6425
 3514SOL     OW12087   4.039   4.141   3.525 -0.0955  0.2816  0.2628
 3514SOL    HW112088   4.069   4.192   3.600 -1.1936 -0.4983  1.2871
 3514SOL    HW212089   3.976   4.198   3.481  0.4279  0.6809  0.0258
 3515SOL     OW12090   1.627   5.421   3.120  0.0430 -0.0928  0.6056
 3515SOL    HW112091   1.628   5.483   3.047 -0.9833 -0.3810  0.3296
 3515SOL    HW212092   1.644   5.474   3.197 -1.0534  0.5873  0.4013
 3516SOL     OW12093   4.019   2.457   1.388 -0.4511 -0.1067  0.1888
 3516SOL    HW112094   4.095   2.483   1.336  1.6683 -0.0420  3.0311
 3516SOL    HW212095   3.987   2.539   1.425 -0.7157 -0.3294  0.4562
 3517SOL     OW12096   3.347   2.722   4.230 -0.1176  0.4682 -0.2305
 3517SOL    HW112097   3.418   2.781   4.256 -0.6219  0.3076  1.6100
 3517SOL    HW212098   3.277   2.781   4.202 -0.7339  0.8200  1.8950
 3518SOL     OW12099   5.680   0.660   1.195 -0.1471 -0.2540 -0.2069
 3518SOL    HW112100   5.702   0.568   1.210  2.3155  0.0693 -1.2923
 3518SOL    HW212101   5.675   0.699   1.283  0.1263 -1.1506  0.2121
 3519SOL     OW12102   1.780   6.435   3.364  0.6430  0.0100 -0.0837
 3519SOL    HW112103   1.860   6.382   3.363  1.3062  0.9592  0.7139
 3519SOL    HW212104   1.770   6.461   3.455  0.0865  0.8934 -0.3852
 3520SOL     OW12105   2.605   4.219   0.257  0.5693 -0.0975  0.3089
 3520SOL    HW112106   2.521   4.255   0.286  1.2712  0.1021  2.2095
 3520SOL    HW212107   2.587   4.128   0.236 -0.5751  0.5050 -1.5548
 3521SOL     OW12108   3.702   5.586   1.049  0.4444 -0.2878 -0.0281
 3521SOL    HW112109   3.612   5.583   1.080  1.0277 -1.9872  1.7535
 3521SOL    HW212110   3.696   5.620   0.960 -1.9007 -0.0195  0.1657
 3522SOL     OW12111   6.606   0.549   4.933 -0.6458  0.4182  0.0077
 3522SOL    HW112112   6.689   0.559   4.886 -0.0230 -2.3632  0.3444
 3522SOL    HW212113   6.540   0.550   4.865 -0.0554 -0.2176 -0.5887
 3523SOL     OW12114   1.172   2.154   4.113 -0.4413  0.3690 -0.2571
 3523SOL    HW112115   1.101   2.211   4.082 -0.0523  0.5084 -0.9205
 3523SOL    HW212116   1.208   2.200   4.189 -0.6810  0.5881 -0.2746
 3524SOL     OW12117   3.802   6.253   2.909  0.4800  0.1675 -0.7661
 3524SOL    HW112118   3.835   6.306   2.982 -0.0462 -0.8835  0.2796
 3524SOL    HW212119   3.863   6.180   2.903 -0.3856 -0.6209 -0.2655
 3525SOL     OW12120   5.849   2.293   4.808  0.0403 -0.0726 -0.2078
 3525SOL    HW112121   5.791   2.277   4.883 -0.5647  0.3369 -0.5867
 3525SOL    HW212122   5.791   2.293   4.732  0.8288 -1.8928 -0.8568
 3526SOL     OW12123   6.120   5.059   1.546 -0.1831  0.1652  0.3962
 3526SOL    HW112124   6.191   5.052   1.609  0.2315 -1.8307 -0.2163
 3526SOL    HW212125   6.082   4.971   1.543 -1.7765  0.8355 -0.3316
 3527SOL     OW12126   3.329   2.701   3.289  0.1273 -0.0611  0.6781
 3527SOL    HW112127   3.345   2.607   3.280  2.2387  0.2166  1.1434
 3527SOL    HW212128   3.371   2.740   3.213 -0.5274  0.5598  0.6222
 3528SOL     OW12129   0.975   6.309   2.290  0.0761 -0.6537 -0.0440
 3528SOL    HW112130   1.050   6.360   2.261  0.6289 -0.9916  0.7858
 3528SOL    HW212131   0.906   6.374   2.307  0.6435 -0.2206  0.6142
 3529SOL     OW12132   0.526   5.580   1.966  0.1855  0.2365 -0.0122
 3529SOL    HW112133   0.585   5.518   2.011  1.3401  0.8270 -0.6590
 3529SOL    HW212134   0.473   5.525   1.909  1.6991 -0.1484 -1.1295
 3530SOL     OW12135   3.430   4.273   4.801  0.3188 -0.3070  0.1484
 3530SOL    HW112136   3.494   4.208   4.773  0.5718  0.0687 -0.1704
 3530SOL    HW212137   3.483   4.351   4.819 -0.0277 -0.0553  0.0801
 3531SOL     OW12138   3.930   3.249   5.924 -0.8343 -0.0915 -0.2780
 3531SOL    HW112139   3.984   3.308   5.872  0.2119 -1.8801 -1.2982
 3531SOL    HW212140   3.847   3.296   5.934  0.0509  1.6635 -0.7826
 3532SOL     OW12141   5.071   4.302   5.874  0.4645 -0.0787  0.1896
 3532SOL    HW112142   5.097   4.368   5.810  1.7616 -0.7901 -0.0551
 3532SOL    HW212143   4.990   4.264   5.839  0.2388  0.7013 -0.1474
 3533SOL     OW12144   3.294   2.152   6.681  0.4269 -0.2321  0.1220
 3533SOL    HW112145   3.361   2.088   6.705 -0.0979 -0.8781 -0.1013
 3533SOL    HW212146   3.328   2.236   6.713  0.7982 -0.7272  1.0513
 3534SOL     OW12147   4.793   2.048   0.815  0.5373 -0.5717  0.2769
 3534SOL    HW112148   4.705   2.081   0.833  0.4787  0.4454 -1.5683
 3534SOL    HW212149   4.837   2.050   0.899 -1.0627 -0.6914  1.1610
 3535SOL     OW12150   4.389   2.776   0.105  0.5361  0.0299  0.0456
 3535SOL    HW112151   4.411   2.687   0.133  2.0262  0.5591  0.6203
 3535SOL    HW212152   4.414   2.778   0.013 -1.1070 -0.6417 -0.4523
 3536SOL     OW12153   6.778   1.427   5.949  0.1550 -0.0674  0.0112
 3536SOL    HW112154   6.789   1.375   6.028  0.1080  2.1476  1.5704
 3536SOL    HW212155   6.687   1.457   5.952 -0.0578 -0.5171 -1.2778
 3537SOL     OW12156   4.173   5.286   3.422 -0.2139 -0.4547 -0.4467
 3537SOL    HW112157   4.156   5.200   3.461 -1.0293 -0.3554 -0.5728
 3537SOL    HW212158   4.090   5.312   3.383  0.0244  0.4071 -0.4039
 3538SOL     OW12159   4.208   4.838   5.654  0.3043  0.5511 -0.3440
 3538SOL    HW112160   4.130   4.783   5.660  0.2740  0.7537  2.2042
 3538SOL    HW212161   4.279   4.784   5.688  0.6817  1.3525  0.1785
 3539SOL     OW12162   2.779   4.669   4.847  0.1749 -0.5598  0.7983
 3539SOL    HW112163   2.836   4.598   4.878 -0.7602 -2.1279 -0.8194
 3539SOL    HW212164   2.806   4.683   4.756 -0.9373 -0.2173  0.5033
 3540SOL     OW12165   3.386   4.059   0.118  0.1120  0.8762  0.2851
 3540SOL    HW112166   3.369   3.965   0.122  1.0864  0.6700 -0.1272
 3540SOL    HW212167   3.461   4.073   0.176  0.7956  1.1824 -0.6388
 3541SOL     OW12168   1.256   6.490   5.256  0.5000 -0.4275  0.2557
 3541SOL    HW112169   1.287   6.405   5.225 -0.3178 -0.6211 -0.0532
 3541SOL    HW212170   1.173   6.471   5.299 -0.5080  0.4041 -1.2352
 3542SOL     OW12171   2.813   4.854   1.662 -0.2794 -0.3383  0.3827
 3542SOL    HW112172   2.840   4.917   1.729 -0.2171 -1.1972  1.1807
 3542SOL    HW212173   2.895   4.811   1.637 -0.0430  0.9986 -1.3699
 3543SOL     OW12174   2.709   5.739   4.135  0.0157 -0.3259 -0.2268
 3543SOL    HW112175   2.780   5.694   4.090 -0.8576 -1.5515 -0.4390
 3543SOL    HW212176   2.752   5.794   4.201  1.0868 -2.0674  0.5858
 3544SOL     OW12177   6.565   5.513   1.986 -0.3378  0.1241  0.3928
 3544SOL    HW112178   6.595   5.538   2.074  0.0686  0.1955  0.2401
 3544SOL    HW212179   6.624   5.442   1.961 -0.1895  0.3735  0.0214
 3545SOL     OW12180   1.044   4.028   0.005  0.0117  0.9252  0.2393
 3545SOL    HW112181   1.038   3.935  -0.015 -1.8625  0.8155  1.1166
 3545SOL    HW212182   1.106   4.032   0.079 -0.4548  0.2866  0.6749
 3546SOL     OW12183   4.392   5.878   5.251  0.2679 -0.1804  0.4500
 3546SOL    HW112184   4.334   5.933   5.199 -0.1722  0.5092  1.6470
 3546SOL    HW212185   4.394   5.794   5.203 -1.0110  0.0637 -0.0693
 3547SOL     OW12186   0.876   6.019   2.209 -0.5830  0.0278  0.2692
 3547SOL    HW112187   0.898   6.057   2.294  1.0197 -2.4763  1.1050
 3547SOL    HW212188   0.915   6.078   2.145 -0.1163  0.9657  1.3868
 3548SOL     OW12189   2.054   1.504   1.941 -0.6314  0.0877  0.0963
 3548SOL    HW112190   2.000   1.432   1.976 -0.6541 -0.5343 -1.1802
 3548SOL    HW212191   2.005   1.583   1.965  0.4982 -0.0940  3.5120
 3549SOL     OW12192   5.415   6.697   6.579 -0.0054 -0.8182 -0.1579
 3549SOL    HW112193   5.503   6.733   6.582 -0.6635  0.9364 -0.5327
 3549SOL    HW212194   5.411   6.651   6.495  0.3617 -0.3271 -0.4512
 3550SOL     OW12195   6.028   4.819   4.695  0.2762  0.0042  0.0967
 3550SOL    HW112196   5.979   4.821   4.777 -0.3885  0.9712 -0.2995
 3550SOL    HW212197   5.971   4.772   4.634  0.6191 -0.4157  0.0957
 3551SOL     OW12198   4.654   6.182   2.670  0.0193 -0.8118 -0.5111
 3551SOL    HW112199   4.603   6.147   2.597 -1.1360  0.1176 -0.1738
 3551SOL    HW212200   4.619   6.270   2.684  1.8075 -0.0679 -0.3437
 3552SOL     OW12201   4.671   6.764   4.932  0.6042 -0.1727  0.0814
 3552SOL    HW112202   4.724   6.791   4.857  1.1100  0.4624  0.6517
 3552SOL    HW212203   4.590   6.731   4.893  0.7465  0.4013 -0.7325
 3553SOL     OW12204   3.233   2.821   6.417  0.4179  0.4336  0.1726
 3553SOL    HW112205   3.237   2.913   6.392  0.4049  0.9454  1.9185
 3553SOL    HW212206   3.294   2.777   6.358  0.0720  1.4732 -0.9897
 3554SOL     OW12207   5.612   1.837   0.802  0.4275  0.3693  0.0351
 3554SOL    HW112208   5.532   1.802   0.842 -0.3813  0.2095 -1.6409
 3554SOL    HW212209   5.683   1.791   0.846 -0.4630 -0.5317  0.5753
 3555SOL     OW12210   6.307   5.017   6.128  0.6145 -0.0786 -0.5608
 3555SOL    HW112211   6.320   4.979   6.214  0.2736 -0.8172 -0.8340
 3555SOL    HW212212   6.278   5.107   6.145 -1.0346 -0.7084  0.1198
 3556SOL     OW12213   2.280   6.409   1.296 -0.3014  0.0449  0.0509
 3556SOL    HW112214   2.252   6.466   1.367  2.3489  1.6163 -0.0082
 3556SOL    HW212215   2.295   6.468   1.222  0.9642 -0.9242 -0.5166
 3557SOL     OW12216   3.516   5.196   1.752 -0.1913  0.1146  0.2480
 3557SOL    HW112217   3.420   5.197   1.752 -0.1959  1.0543  1.1180
 3557SOL    HW212218   3.541   5.285   1.728  0.4218  0.7890  3.0714
 3558SOL     OW12219   4.722   0.865   5.746 -0.2592  0.6338 -0.0460
 3558SOL    HW112220   4.762   0.855   5.832 -0.6265  0.2191  0.0791
 3558SOL    HW212221   4.781   0.923   5.698  0.6366 -0.1878  0.0433
 3559SOL     OW12222   4.184   2.202   6.205 -0.4252  0.2073 -0.0311
 3559SOL    HW112223   4.088   2.200   6.211 -0.5455  1.4409 -0.9994
 3559SOL    HW212224   4.203   2.168   6.117  0.1641 -1.6081  0.7467
 3560SOL     OW12225   3.380   1.520   4.085  0.1639 -0.1865 -0.2021
 3560SOL    HW112226   3.450   1.459   4.061 -0.1181 -0.4620 -0.3450
 3560SOL    HW212227   3.346   1.552   4.001  0.1752  0.0105 -0.1316
 3561SOL     OW12228   5.621   3.759   1.641  0.1756 -0.3729  0.5020
 3561SOL    HW112229   5.715   3.750   1.655  0.2095 -0.3902  0.2600
 3561SOL    HW212230   5.596   3.680   1.593  0.2149  0.1024 -0.3200
 3562SOL     OW12231   6.645   3.290   1.688  0.1652  0.7206  0.0128
 3562SOL    HW112232   6.673   3.345   1.762  0.8816 -1.0231  1.0854
 3562SOL    HW212233   6.673   3.202   1.712 -2.0281 -0.3403 -1.1151
 3563SOL     OW12234   0.554   5.873   1.916 -0.1584 -0.6017 -0.0136
 3563SOL    HW112235   0.584   5.871   2.007 -0.1548  2.3909  0.1417
 3563SOL    HW212236   0.540   5.781   1.893  0.9995 -1.5112  2.6045
 3564SOL     OW12237   6.553   4.238   2.408  0.8053 -0.3772 -0.0735
 3564SOL    HW112238   6.546   4.159   2.461  0.4027 -0.4199 -0.1883
 3564SOL    HW212239   6.552   4.207   2.317 -0.0368 -0.1966 -0.1343
 3565SOL     OW12240   4.744   3.460   5.151 -0.1692  0.0163  0.5062
 3565SOL    HW112241   4.756   3.534   5.210  0.0817  0.8857 -0.6070
 3565SOL    HW212242   4.698   3.496   5.075 -1.0597 -1.2071  0.4152
 3566SOL     OW12243   6.561   6.674   1.744 -0.0405 -0.0005 -0.0886
 3566SOL    HW112244   6.639   6.708   1.699  0.4668 -1.7524 -0.6580
 3566SOL    HW212245   6.491   6.680   1.679 -0.4789  1.8414  0.5190
 3567SOL     OW12246   0.480   3.815   4.591  0.1525 -0.2601  0.2278
 3567SOL    HW112247   0.514   3.768   4.515  2.8593 -1.6442  2.1298
 3567SOL    HW212248   0.483   3.752   4.662  1.0726  1.9242  2.2655
 3568SOL     OW12249   5.112   5.051   3.246  0.0021  0.2993 -0.0894
 3568SOL    HW112250   5.102   5.068   3.153 -0.5560  1.8971  0.2376
 3568SOL    HW212251   5.193   5.096   3.270 -0.1561  0.3768  0.3107
 3569SOL     OW12252   6.540   3.694   0.523 -0.1573  0.7902 -0.3121
 3569SOL    HW112253   6.461   3.748   0.524 -0.1723  0.8035 -1.4250
 3569SOL    HW212254   6.509   3.605   0.541 -0.3302  0.9000 -0.0582
 3570SOL     OW12255   6.466   2.811   3.710  0.0930  0.1790  0.2715
 3570SOL    HW112256   6.425   2.787   3.627 -0.7134 -0.1582  0.7619
 3570SOL    HW212257   6.395   2.851   3.762  0.3425 -0.5161  1.1701
 3571SOL     OW12258   6.034   2.015   4.356 -0.1942  0.4527 -0.8467
 3571SOL    HW112259   6.003   1.933   4.318 -0.6437 -0.6303  1.6744
 3571SOL    HW212260   6.010   2.082   4.292 -3.9013 -0.8326 -1.0193
 3572SOL     OW12261   5.880   2.874   6.334  0.1396 -0.5071 -0.6228
 3572SOL    HW112262   5.814   2.876   6.264  0.4060  0.1552 -0.8702
 3572SOL    HW212263   5.883   2.965   6.365 -0.0712 -0.8225  0.3482
 3573SOL     OW12264   2.163   1.557   2.751 -0.0165 -0.4538  0.1868
 3573SOL    HW112265   2.184   1.464   2.758 -2.4979 -1.1578 -0.6663
 3573SOL    HW212266   2.100   1.573   2.821  1.8548  1.1320  1.6085
 3574SOL     OW12267   4.469   1.553   6.642 -0.3805 -0.7535  0.5010
 3574SOL    HW112268   4.548   1.501   6.632 -1.4665 -2.2495 -0.8083
 3574SOL    HW212269   4.463   1.603   6.560 -0.0068  0.5539  1.2361
 3575SOL     OW12270   4.691   0.333   5.597  0.4289  0.6014 -0.4965
 3575SOL    HW112271   4.721   0.243   5.588  0.1493  0.4883 -0.3087
 3575SOL    HW212272   4.697   0.369   5.509  1.7406  0.7834 -0.3626
 3576SOL     OW12273   1.582   3.709   5.770  0.3731 -0.6941 -0.2372
 3576SOL    HW112274   1.583   3.794   5.813 -0.9379 -1.5373  1.5933
 3576SOL    HW212275   1.623   3.649   5.833  0.8795 -1.5140 -1.3054
 3577SOL     OW12276   0.546   2.819   4.232  0.3035 -0.1196 -0.3945
 3577SOL    HW112277   0.513   2.730   4.216 -0.0709 -0.0114 -0.2531
 3577SOL    HW212278   0.634   2.820   4.194  1.5518 -1.4796  2.1907
 3578SOL     OW12279   3.091   1.275   3.198  0.7531  0.5389  0.2654
 3578SOL    HW112280   3.129   1.277   3.110 -0.9598  2.1605 -0.5087
 3578SOL    HW212281   3.053   1.362   3.210 -0.7013 -0.2483  1.8706
 3579SOL     OW12282   4.096   1.318   2.910 -0.0148 -0.6170 -0.3884
 3579SOL    HW112283   4.056   1.242   2.868 -0.6806 -1.1547  1.1327
 3579SOL    HW212284   4.046   1.330   2.990 -0.4816  1.9778 -0.9701
 3580SOL     OW12285   5.375   5.084   6.771  0.4034 -0.0533 -0.8516
 3580SOL    HW112286   5.445   5.059   6.831  0.8595  0.7720 -1.0257
 3580SOL    HW212287   5.414   5.079   6.684  0.5376  1.2882 -0.8908
 3581SOL     OW12288   3.303   3.436   4.572 -0.4437  0.0835 -0.1425
 3581SOL    HW112289   3.235   3.401   4.630  0.0298  0.8251  0.8946
 3581SOL    HW212290   3.256   3.492   4.511 -0.7785  0.6255  0.5962
 3582SOL     OW12291   5.401   4.384   3.383 -0.2356 -0.0944 -0.0386
 3582SOL    HW112292   5.461   4.362   3.312  0.6234  1.4945  0.1606
 3582SOL    HW212293   5.457   4.390   3.461 -0.8502  0.1469  0.3951
 3583SOL     OW12294   6.697   2.393   5.057 -0.0309  0.0226 -0.5130
 3583SOL    HW112295   6.734   2.305   5.053  0.5054  0.2039  0.3131
 3583SOL    HW212296   6.751   2.440   5.120 -1.0180  0.6169 -0.0777
 3584SOL     OW12297   4.907   3.777   3.040  0.2672  0.4441 -0.1980
 3584SOL    HW112298   4.964   3.851   3.017  0.3119  0.6157  0.4500
 3584SOL    HW212299   4.959   3.699   3.018  0.2418  0.5956 -0.8347
 3585SOL     OW12300   2.156   0.198   2.179 -0.9078  0.2194  0.4508
 3585SOL    HW112301   2.141   0.225   2.270 -0.5157  3.0410 -0.2176
 3585SOL    HW212302   2.092   0.249   2.129  1.3095  1.6092 -1.1349
 3586SOL     OW12303   1.218   2.326   6.419  0.1616  0.2220  0.2204
 3586SOL    HW112304   1.175   2.261   6.363 -0.6053  0.4641  0.5208
 3586SOL    HW212305   1.301   2.345   6.374 -0.1212 -0.1126 -0.4569
 3587SOL     OW12306   3.796   2.926   6.673  0.5027 -0.2352  0.0623
 3587SOL    HW112307   3.888   2.943   6.653  0.2779 -0.6680 -1.4341
 3587SOL    HW212308   3.795   2.835   6.704  0.9038  0.5430  2.6660
 3588SOL     OW12309   5.231   5.027   4.345  0.1033  0.2195  0.2422
 3588SOL    HW112310   5.189   5.104   4.309  0.5133 -0.1692 -1.1169
 3588SOL    HW212311   5.163   4.960   4.345 -0.2829  0.5763  1.5210
 3589SOL     OW12312   3.510   5.283   3.003 -0.1994 -0.1972  0.4936
 3589SOL    HW112313   3.521   5.237   3.086 -2.0840 -0.8103  0.4525
 3589SOL    HW212314   3.558   5.229   2.940  0.5905 -0.1503  1.0411
 3590SOL     OW12315   6.037   5.898   6.701 -0.0169 -0.2922 -0.1863
 3590SOL    HW112316   5.972   5.941   6.645  0.5636 -0.0150 -0.6558
 3590SOL    HW212317   6.072   5.968   6.755  1.7081  0.0804 -1.6993
 3591SOL     OW12318   2.968   1.520   6.740 -0.1317 -0.1579  0.6532
 3591SOL    HW112319   2.897   1.528   6.676  0.7786  2.1508 -0.1906
 3591SOL    HW212320   3.034   1.583   6.710  0.7539  0.3183  3.3477
 3592SOL     OW12321   0.621   3.478   2.789  0.7654  0.1470 -0.1564
 3592SOL    HW112322   0.708   3.465   2.828  0.1742 -1.2342  0.7733
 3592SOL    HW212323   0.591   3.390   2.767 -0.1420  0.6654 -1.0525
 3593SOL     OW12324   6.080   3.581   4.664 -0.3220  0.2728  0.0857
 3593SOL    HW112325   6.016   3.644   4.632  0.1969  0.2393 -1.0865
 3593SOL    HW212326   6.093   3.604   4.756 -0.4285  1.6474 -0.2211
 3594SOL     OW12327   0.692   1.004   3.720 -0.4482  0.0196 -0.0396
 3594SOL    HW112328   0.717   1.054   3.797 -1.5135  0.3421  0.1153
 3594SOL    HW212329   0.775   0.986   3.675 -0.1271  3.5881 -1.1672
 3595SOL     OW12330   1.479   3.892   3.897 -0.2398 -0.2179 -0.6320
 3595SOL    HW112331   1.572   3.883   3.916 -0.5067 -0.2455  0.7106
 3595SOL    HW212332   1.435   3.838   3.962 -1.1557 -1.5731 -2.2719
 3596SOL     OW12333   0.518   2.693   3.257  0.0286 -0.1714  0.1164
 3596SOL    HW112334   0.473   2.734   3.183  0.5916  0.9147  0.3420
 3596SOL    HW212335   0.559   2.615   3.221  1.2250  0.9292 -0.9999
 3597SOL     OW12336   4.203   1.379   1.605  0.1509  0.9425 -0.3453
 3597SOL    HW112337   4.221   1.311   1.670 -1.5668  1.0895  0.3139
 3597SOL    HW212338   4.284   1.383   1.553  0.9572 -0.3201  0.7301
 3598SOL     OW12339   5.143   3.029   6.322 -0.2727 -0.3312 -0.0998
 3598SOL    HW112340   5.086   2.957   6.293 -1.0851  0.3520 -0.2501
 3598SOL    HW212341   5.118   3.103   6.266 -1.0461  0.6840  1.5055
 3599SOL     OW12342   6.370   1.347   4.672  0.4050  0.2142  0.2660
 3599SOL    HW112343   6.380   1.440   4.652 -1.4352  0.3407 -0.2482
 3599SOL    HW212344   6.277   1.329   4.658  0.7511 -1.7537  0.1743
 3600SOL     OW12345   4.653   3.300   6.099  0.6648 -0.3543  0.0050
 3600SOL    HW112346   4.722   3.339   6.044  0.8261 -1.6669 -0.7653
 3600SOL    HW212347   4.609   3.375   6.138  1.1018  0.6042 -1.2466
 3601SOL     OW12348   1.880   0.115   4.450 -0.2386 -0.0468 -0.4260
 3601SOL    HW112349   1.793   0.153   4.463 -0.1401  0.1936 -0.4735
 3601SOL    HW212350   1.908   0.089   4.537 -1.4442 -2.5286 -0.6568
 3602SOL     OW12351   1.791   2.756   5.356 -0.2698 -0.3345  0.2932
 3602SOL    HW112352   1.726   2.704   5.403  0.8048 -1.4531  0.5774
 3602SOL    HW212353   1.839   2.802   5.425  3.2690 -4.1920  0.7783
 3603SOL     OW12354   0.200   6.082   3.291  0.5645  0.1984  0.0488
 3603SOL    HW112355   0.154   6.017   3.239  1.8933 -1.1564  0.4891
 3603SOL    HW212356   0.133   6.119   3.349 -0.0378 -1.4865  0.4672
 3604SOL     OW12357   6.480   2.560   6.131 -0.7921 -0.0427 -0.6088
 3604SOL    HW112358   6.492   2.465   6.139  0.0262  0.2350  3.5087
 3604SOL    HW212359   6.541   2.586   6.062  0.3722 -2.3047 -0.5206
 3605SOL     OW12360   2.494   1.794   6.659 -0.1881 -0.6686  0.1166
 3605SOL    HW112361   2.522   1.769   6.571  2.6679  0.2319  0.6533
 3605SOL    HW212362   2.473   1.887   6.651 -0.6538 -0.7621  0.2421
 3606SOL     OW12363   2.105   6.526   3.218  0.1801  0.3811 -0.3360
 3606SOL    HW112364   2.145   6.606   3.253  1.0786 -0.4955  0.7433
 3606SOL    HW212365   2.171   6.459   3.232 -0.4018 -0.4820 -1.5988
 3607SOL     OW12366   5.465   6.267   2.558  1.0973  0.6383 -0.0583
 3607SOL    HW112367   5.408   6.320   2.503  0.7003 -0.2265 -0.4795
 3607SOL    HW212368   5.551   6.272   2.516  1.2507  1.5508  0.3202
 3608SOL     OW12369   4.176   4.366   3.877 -0.1063 -0.2505 -0.5331
 3608SOL    HW112370   4.114   4.330   3.940 -0.3244 -2.1401 -1.7474
 3608SOL    HW212371   4.260   4.368   3.923 -0.4876 -0.4955  0.1794
 3609SOL     OW12372   4.011   5.811   2.504 -0.0591  0.3003 -0.1651
 3609SOL    HW112373   4.005   5.901   2.536  2.5699  0.3892  0.2340
 3609SOL    HW212374   4.098   5.805   2.465 -0.3414 -1.9659 -0.5713
 3610SOL     OW12375   4.027   6.441   2.679 -0.2967 -0.5349 -0.0079
 3610SOL    HW112376   3.932   6.428   2.678 -0.2537 -1.0740  1.2452
 3610SOL    HW212377   4.046   6.485   2.596 -1.3805 -2.1824 -1.2092
 3611SOL     OW12378   6.445   3.038   6.161  0.7621  0.2052  0.2820
 3611SOL    HW112379   6.381   3.038   6.089  0.9562  0.7373  0.1020
 3611SOL    HW212380   6.502   2.963   6.143 -1.4041 -1.9974  1.9155
 3612SOL     OW12381   1.333   1.146   0.283 -0.6897  0.7704  0.6310
 3612SOL    HW112382   1.347   1.224   0.229 -0.7138 -0.3228 -1.0093
 3612SOL    HW212383   1.240   1.149   0.305 -1.2141  0.0915 -1.3041
 3613SOL     OW12384   2.298   0.573   5.760  0.4208 -0.3639  0.2989
 3613SOL    HW112385   2.232   0.537   5.820 -0.9637  2.1494  0.4238
 3613SOL    HW212386   2.338   0.644   5.809  0.6889  0.4388 -1.0441
 3614SOL     OW12387   5.977   3.510   2.116 -0.1836  0.2196  0.6989
 3614SOL    HW112388   5.911   3.445   2.094 -1.7070  2.2568 -1.1326
 3614SOL    HW212389   6.052   3.488   2.061 -0.3502 -0.5063  0.7611
 3615SOL     OW12390   5.033   0.277   6.189 -0.1908 -0.2656  0.7429
 3615SOL    HW112391   5.102   0.341   6.205  1.3724 -1.6214 -0.2057
 3615SOL    HW212392   4.952   0.327   6.191  0.9402  1.6776  0.2404
 3616SOL     OW12393   3.036   1.601   0.504  0.0344 -0.0407 -0.1221
 3616SOL    HW112394   3.080   1.585   0.421 -0.6301  2.1810 -0.9723
 3616SOL    HW212395   3.065   1.530   0.561  0.2319 -1.8228 -2.3290
 3617SOL     OW12396   3.397   2.801   0.896 -0.1523  0.1829 -0.2020
 3617SOL    HW112397   3.363   2.712   0.891  0.5681 -0.0462 -1.4478
 3617SOL    HW212398   3.321   2.857   0.881 -0.2470 -0.2865 -1.6323
 3618SOL     OW12399   1.329   2.976   5.479 -0.4683 -0.0915  0.3044
 3618SOL    HW112400   1.333   3.036   5.405  0.0707 -1.0519 -0.4659
 3618SOL    HW212401   1.400   3.005   5.537  0.7379 -0.8434 -0.7514
 3619SOL     OW12402   3.187   2.357   1.674  0.4056  0.1618  0.0763
 3619SOL    HW112403   3.252   2.286   1.678 -0.8210 -1.0212  0.0086
 3619SOL    HW212404   3.234   2.432   1.639  1.5456 -0.8868 -0.6985
 3620SOL     OW12405   4.282   1.805   1.435 -0.3489  0.0709  0.3323
 3620SOL    HW112406   4.209   1.861   1.409  0.0848  0.6651  0.3789
 3620SOL    HW212407   4.284   1.736   1.369 -1.0911 -0.0791  0.4575
 3621SOL     OW12408   6.486   0.696   1.833 -0.1729  0.2035 -0.1278
 3621SOL    HW112409   6.564   0.752   1.840 -1.2998  1.6205  2.5532
 3621SOL    HW212410   6.521   0.611   1.806  2.3297  0.7949  0.9014
 3622SOL     OW12411   2.313   3.820   6.054  0.1496 -0.3641 -0.2486
 3622SOL    HW112412   2.290   3.728   6.043  0.4449 -0.7766  2.1961
 3622SOL    HW212413   2.387   3.833   5.994 -0.8230 -1.2764 -1.7263
 3623SOL     OW12414   1.548   0.921   0.627 -0.2372  0.0015  0.3582
 3623SOL    HW112415   1.494   0.976   0.684 -0.8933  1.0517 -1.2040
 3623SOL    HW212416   1.629   0.906   0.676 -1.2051 -0.0742  1.9976
 3624SOL     OW12417   3.370   0.807   1.863 -0.0389 -0.0903 -0.1812
 3624SOL    HW112418   3.434   0.868   1.826  0.7382 -2.1068 -2.3786
 3624SOL    HW212419   3.291   0.820   1.810 -0.5747  0.4081  0.7028
 3625SOL     OW12420   4.961   3.057   6.087 -0.2547  0.5410  0.1437
 3625SOL    HW112421   5.029   3.010   6.039 -1.1771 -0.1768 -0.5159
 3625SOL    HW212422   4.990   3.148   6.088  0.2102  0.4210 -1.0249
 3626SOL     OW12423   2.076   2.675   5.261  0.1263  0.1087  0.5249
 3626SOL    HW112424   2.156   2.722   5.287  0.0161  0.3587  0.4150
 3626SOL    HW212425   2.011   2.700   5.326  0.8516 -2.2744  2.2796
 3627SOL     OW12426   3.846   1.396   5.638  0.4062  0.0594 -0.2469
 3627SOL    HW112427   3.821   1.452   5.566  1.0005  0.0028 -0.5045
 3627SOL    HW212428   3.870   1.456   5.709  1.5973  0.1633 -0.7096
 3628SOL     OW12429   3.933   2.686   0.906  0.2263  0.6734  0.0478
 3628SOL    HW112430   3.847   2.703   0.869 -0.1038  0.3888  0.6669
 3628SOL    HW212431   3.961   2.604   0.866  0.1391  0.6820 -0.0290
 3629SOL     OW12432   4.482   2.036   0.194 -0.4326 -0.2282  0.1895
 3629SOL    HW112433   4.469   1.941   0.184 -0.9620 -0.3488  1.7427
 3629SOL    HW212434   4.403   2.075   0.158 -0.1058 -0.3566 -0.6796
 3630SOL     OW12435   5.441   3.138   4.725 -0.3345 -0.9924  0.1772
 3630SOL    HW112436   5.421   3.150   4.633  1.8563 -0.6178 -0.3024
 3630SOL    HW212437   5.404   3.052   4.746 -0.8964 -1.0671 -1.0392
 3631SOL     OW12438   4.351   2.998   0.244 -0.4086 -0.1436 -0.2833
 3631SOL    HW112439   4.355   2.929   0.178  0.9394  0.1805 -0.5840
 3631SOL    HW212440   4.438   3.039   0.241 -1.7513  2.9726 -1.6304
 3632SOL     OW12441   0.572   6.785   0.947  0.9070  0.2205  0.6235
 3632SOL    HW112442   0.485   6.764   0.912 -0.0191  0.4004  2.6375
 3632SOL    HW212443   0.633   6.736   0.892 -0.6602 -2.0642  0.7758
 3633SOL     OW12444   4.840   1.501   2.589  0.3233 -0.2597 -0.0112
 3633SOL    HW112445   4.858   1.592   2.612 -1.5787  0.4959 -1.2913
 3633SOL    HW212446   4.758   1.481   2.634  0.0339 -0.9053 -0.7996
 3634SOL     OW12447   0.481   4.876   2.902 -0.7878  0.2856 -0.5230
 3634SOL    HW112448   0.514   4.788   2.883  0.2737  0.3791  0.7676
 3634SOL    HW212449   0.398   4.861   2.946 -0.6127 -0.0853 -0.3071
 3635SOL     OW12450   0.118   5.663   6.637 -0.2017 -0.4002  0.1647
 3635SOL    HW112451   0.187   5.652   6.702 -0.5703 -0.7641  0.4972
 3635SOL    HW212452   0.037   5.658   6.686 -0.5004 -1.2293 -0.3792
 3636SOL     OW12453   6.347   3.121   5.848 -0.9075  0.2579 -0.2625
 3636SOL    HW112454   6.337   3.031   5.878 -1.5808  0.2981 -0.3580
 3636SOL    HW212455   6.428   3.151   5.889 -0.9858 -0.2010  0.2350
 3637SOL     OW12456   1.578   5.075   4.308  0.2688 -0.1780 -0.1669
 3637SOL    HW112457   1.490   5.043   4.329 -0.1108 -0.1232 -1.6056
 3637SOL    HW212458   1.593   5.047   4.218  1.2358  0.8887 -0.3567
 3638SOL     OW12459   5.304   1.207   1.417 -0.2495  0.6299  0.5913
 3638SOL    HW112460   5.392   1.170   1.406  0.0918  1.8695 -1.2475
 3638SOL    HW212461   5.298   1.223   1.511  0.4129 -1.9360  1.1639
 3639SOL     OW12462   2.734   5.908   5.124  0.5737 -0.2348  0.0391
 3639SOL    HW112463   2.825   5.879   5.117 -0.1315 -2.4173 -0.8785
 3639SOL    HW212464   2.705   5.921   5.034 -0.0718  0.3080  0.3155
 3640SOL     OW12465   4.035   2.636   6.638  0.3427  0.0893  0.5849
 3640SOL    HW112466   3.945   2.646   6.669 -0.0626 -0.2596 -0.4395
 3640SOL    HW212467   4.088   2.688   6.700 -0.4842 -0.1609  1.5244
 3641SOL     OW12468   2.611   1.105   5.703 -0.2375  1.1250 -0.0825
 3641SOL    HW112469   2.561   1.114   5.784  1.3784  1.2698  0.9566
 3641SOL    HW212470   2.703   1.105   5.732  0.3512 -1.3726 -1.6576
 3642SOL     OW12471   2.567   1.224   0.579  0.2853 -0.4707 -0.6019
 3642SOL    HW112472   2.617   1.177   0.645  0.4725 -1.3488 -1.3561
 3642SOL    HW212473   2.577   1.316   0.603  0.8576 -0.7370  0.2293
 3643SOL     OW12474   6.301   3.974   6.218  0.3396  0.2501 -0.1483
 3643SOL    HW112475   6.261   3.941   6.298 -0.4703  1.5970  0.0274
 3643SOL    HW212476   6.267   3.917   6.149  0.2139 -0.2690  0.3390
 3644SOL     OW12477   4.094   3.437   2.919  0.0121 -0.0732 -0.2755
 3644SOL    HW112478   4.110   3.530   2.901 -1.4092  0.3332  0.4781
 3644SOL    HW212479   4.145   3.391   2.851  0.0413  1.2654 -1.2003
 3645SOL     OW12480   0.749   3.299   6.265  0.1867 -0.0315 -0.3021
 3645SOL    HW112481   0.809   3.243   6.217 -0.3213 -0.7018 -0.1649
 3645SOL    HW212482   0.734   3.374   6.207 -0.3218 -0.7658 -1.1382
 3646SOL     OW12483   0.879   1.461   0.842  0.3507 -0.4820  0.1152
 3646SOL    HW112484   0.829   1.541   0.825 -1.4836 -1.7221 -0.7233
 3646SOL    HW212485   0.943   1.456   0.772 -0.1668 -0.2049 -0.3868
 3647SOL     OW12486   0.099   4.772   4.201 -0.2061 -0.0953  0.5071
 3647SOL    HW112487   0.072   4.688   4.165 -1.1726  0.5248 -0.2908
 3647SOL    HW212488   0.085   4.765   4.295 -3.5933  0.2674  0.1531
 3648SOL     OW12489   1.290   3.568   0.193  0.1030 -0.7501  0.2078
 3648SOL    HW112490   1.214   3.530   0.150  0.4788  0.1067 -1.2716
 3648SOL    HW212491   1.253   3.628   0.258 -0.4726 -1.0879  0.2015
 3649SOL     OW12492   3.534   2.595   5.601  0.3817  0.1501  0.2325
 3649SOL    HW112493   3.496   2.507   5.600  0.1499  0.2399 -1.5125
 3649SOL    HW212494   3.491   2.638   5.675 -0.0781 -0.9502  0.6301
 3650SOL     OW12495   0.561   0.223   1.487 -0.1207  0.0944  0.3637
 3650SOL    HW112496   0.547   0.222   1.392 -0.6951 -0.2768  0.4540
 3650SOL    HW212497   0.570   0.131   1.511 -0.5396  0.1559  0.7578
 3651SOL     OW12498   0.199   6.238   6.475  0.3580 -0.2991 -0.3513
 3651SOL    HW112499   0.286   6.234   6.436  0.3678 -2.5876 -0.2329
 3651SOL    HW212500   0.145   6.182   6.420 -0.6560 -0.1817  0.4882
 3652SOL     OW12501   3.362   6.107   6.541  0.4123  0.4160  0.1954
 3652SOL    HW112502   3.272   6.131   6.565  0.0617 -0.6675 -0.0044
 3652SOL    HW212503   3.365   6.012   6.550  1.6339  0.4692  0.4800
 3653SOL     OW12504   4.912   6.189   3.664 -0.1109 -0.2500 -0.1944
 3653SOL    HW112505   4.999   6.227   3.678 -0.3698  0.5347 -0.6730
 3653SOL    HW212506   4.918   6.147   3.578 -0.8537  1.7646 -1.2844
 3654SOL     OW12507   6.510   3.891   1.712 -0.2061  0.0292  0.8158
 3654SOL    HW112508   6.545   3.819   1.763 -0.5363 -0.9497 -0.2991
 3654SOL    HW212509   6.572   3.903   1.640 -1.7076 -1.2959 -0.8071
 3655SOL     OW12510   6.292   5.148   4.777  0.1670 -0.0076  0.1356
 3655SOL    HW112511   6.376   5.192   4.789  0.1925 -0.4698  1.9574
 3655SOL    HW212512   6.227   5.210   4.812 -0.2518  0.2323 -1.0097
 3656SOL     OW12513   1.109   5.561   0.517 -0.1859  0.1479  0.0242
 3656SOL    HW112514   1.160   5.485   0.542 -1.5065 -0.3217  1.4857
 3656SOL    HW212515   1.040   5.567   0.583  0.4643  3.2447  0.5883
 3657SOL     OW12516   2.437   4.225   2.890  0.0040  0.5438 -0.5796
 3657SOL    HW112517   2.477   4.305   2.855  0.3661  0.5322 -0.1849
 3657SOL    HW212518   2.441   4.163   2.817  2.5386 -0.1235  0.0417
 3658SOL     OW12519   4.898   4.262   2.434  0.3273  0.4467 -0.0514
 3658SOL    HW112520   4.928   4.276   2.344  0.5206 -0.8343 -0.2070
 3658SOL    HW212521   4.911   4.169   2.449 -0.5298  0.4824  1.0103
 3659SOL     OW12522   5.482   0.251   0.337 -0.1101  0.2353 -0.3652
 3659SOL    HW112523   5.474   0.325   0.277 -0.5656 -0.0427 -0.6529
 3659SOL    HW212524   5.513   0.289   0.420 -0.4708  0.7586 -0.4740
 3660SOL     OW12525   3.144   0.904   2.053  0.2610 -0.2191 -0.7097
 3660SOL    HW112526   3.088   0.898   1.975 -0.9836 -1.1895  0.2033
 3660SOL    HW212527   3.187   0.819   2.058 -0.6430 -0.6422  0.3246
 3661SOL     OW12528   4.495   0.428   4.838  0.7232  0.2486  0.0344
 3661SOL    HW112529   4.588   0.450   4.825  0.7987 -0.1631 -0.1121
 3661SOL    HW212530   4.492   0.333   4.831  0.2354  0.2887 -0.2847
 3662SOL     OW12531   2.680   5.046   1.502 -0.4572  0.3994  0.1264
 3662SOL    HW112532   2.728   5.035   1.584  1.3259 -2.5840 -1.1701
 3662SOL    HW212533   2.588   5.057   1.529 -0.4509 -3.6669  2.5651
 3663SOL     OW12534   4.892   5.719   1.422 -0.3437 -0.1795  0.1794
 3663SOL    HW112535   4.965   5.765   1.465 -0.1899 -0.4865  0.2531
 3663SOL    HW212536   4.861   5.780   1.356 -1.5021  0.8913  1.6554
 3664SOL     OW12537   0.952   4.946   2.919  0.0954  0.6257 -0.1189
 3664SOL    HW112538   0.910   4.893   2.852 -2.0024  0.7112  1.0539
 3664SOL    HW212539   0.961   5.033   2.880  2.7196 -0.2270 -1.7160
 3665SOL     OW12540   3.343   3.409   2.795  0.6909  0.0156  0.1096
 3665SOL    HW112541   3.361   3.340   2.731  2.3409  0.2095  0.3167
 3665SOL    HW212542   3.393   3.384   2.873  0.0044  0.6145  0.7567
 3666SOL     OW12543   2.335   6.079   3.142  0.4420  0.2735  0.2979
 3666SOL    HW112544   2.429   6.061   3.137  0.8758  2.3973 -0.4504
 3666SOL    HW212545   2.317   6.083   3.236  0.9491 -0.7155  0.4545
 3667SOL     OW12546   1.748   4.807   0.469 -0.2211 -0.1397  0.0897
 3667SOL    HW112547   1.691   4.770   0.537 -2.2060 -2.7984 -2.7274
 3667SOL    HW212548   1.798   4.732   0.436  4.0137  1.8136  1.3581
 3668SOL     OW12549   3.874   0.471   1.188  0.8399 -0.0309  0.5387
 3668SOL    HW112550   3.834   0.496   1.104  1.7033 -0.7996 -0.1280
 3668SOL    HW212551   3.949   0.529   1.197  3.0401 -2.3890 -1.1715
 3669SOL     OW12552   4.781   0.833   3.239  0.1377 -0.1334  0.1546
 3669SOL    HW112553   4.851   0.840   3.175  0.0084  0.7825  0.1098
 3669SOL    HW212554   4.819   0.782   3.311 -0.2453 -2.7703 -1.3659
 3670SOL     OW12555   2.289   0.128   1.795  0.1224  0.8406  0.3655
 3670SOL    HW112556   2.226   0.057   1.803  1.4500 -0.4926 -0.4352
 3670SOL    HW212557   2.347   0.101   1.724  1.3504  2.1980  0.7955
 3671SOL     OW12558   5.777   4.853   3.440 -0.2646  0.1365  0.6140
 3671SOL    HW112559   5.823   4.837   3.358  2.6190  2.4298  1.5952
 3671SOL    HW212560   5.710   4.919   3.419  0.0989  0.3116 -0.0009
 3672SOL     OW12561   4.211   3.874   0.212 -0.2636  0.1203 -0.6889
 3672SOL    HW112562   4.132   3.838   0.173 -1.1253  2.7047 -1.5510
 3672SOL    HW212563   4.192   3.878   0.306 -0.5760 -0.5909 -0.7158
 3673SOL     OW12564   3.377   0.274   5.824 -0.5199  0.9151  0.3329
 3673SOL    HW112565   3.467   0.302   5.840 -0.6764  1.3875  0.3862
 3673SOL    HW212566   3.384   0.213   5.750 -0.1533  0.9254  0.3565
 3674SOL     OW12567   0.289   6.135   0.548  0.5259 -0.2763 -0.4807
 3674SOL    HW112568   0.210   6.122   0.496  0.8333 -1.0252 -0.7742
 3674SOL    HW212569   0.323   6.220   0.519 -0.1792  0.0603 -0.3323
 3675SOL     OW12570   2.816   4.430   4.523  0.3892  0.4176  0.2825
 3675SOL    HW112571   2.791   4.387   4.605  3.3234 -0.3042  0.9150
 3675SOL    HW212572   2.792   4.367   4.455  0.2544 -0.0810  0.7845
 3676SOL     OW12573   2.999   3.362   3.078 -0.0326 -0.1836  0.1004
 3676SOL    HW112574   3.047   3.294   3.125  0.4212  0.1482  0.1223
 3676SOL    HW212575   2.978   3.323   2.993  1.3449  0.0843 -0.3904
 3677SOL     OW12576   2.584   0.244   1.671  0.0443 -0.0276  0.3038
 3677SOL    HW112577   2.535   0.171   1.634 -0.8472  0.8148 -0.2157
 3677SOL    HW212578   2.593   0.222   1.764 -3.6725  0.9764  1.0776
 3678SOL     OW12579   5.394   3.177   1.901 -0.0986  0.1015 -0.6577
 3678SOL    HW112580   5.367   3.165   1.992 -0.1310  1.1528 -0.5227
 3678SOL    HW212581   5.365   3.265   1.878  0.2287 -0.0159 -1.5745
 3679SOL     OW12582   3.313   6.794   4.907  0.3241  0.6514 -0.0140
 3679SOL    HW112583   3.374   6.721   4.912 -1.9220 -1.4957 -1.4381
 3679SOL    HW212584   3.336   6.840   4.826 -1.8559 -2.2200 -2.4934
 3680SOL     OW12585   2.068   4.294   6.412 -0.1831 -0.0210 -0.0572
 3680SOL    HW112586   2.064   4.232   6.339  1.0110  1.4938 -1.4846
 3680SOL    HW212587   2.153   4.278   6.452  0.0979  0.6265 -0.3846
 3681SOL     OW12588   1.926   2.359   5.037  0.2449  0.3513  0.0048
 3681SOL    HW112589   1.979   2.351   5.117  2.2148  3.5099 -0.7985
 3681SOL    HW212590   1.849   2.409   5.065  0.4632  0.6314  0.1103
 3682SOL     OW12591   5.391   5.861   2.946 -0.6987  0.5094  0.7012
 3682SOL    HW112592   5.376   5.807   3.023  0.6497 -0.1531  0.5363
 3682SOL    HW212593   5.417   5.946   2.980 -2.3031  0.9265  0.9602
 3683SOL     OW12594   3.874   3.901   4.443  0.0516  0.4718  0.3227
 3683SOL    HW112595   3.870   3.851   4.524  2.1707 -1.5515 -0.6841
 3683SOL    HW212596   3.965   3.894   4.415 -0.0677  3.1175 -1.0699
 3684SOL     OW12597   6.278   5.077   1.775  0.2623  0.0896 -0.0977
 3684SOL    HW112598   6.224   5.059   1.852 -0.1337 -1.2302 -0.6481
 3684SOL    HW212599   6.362   5.036   1.795 -0.4488 -2.0428 -1.1037
 3685SOL     OW12600   4.072   6.285   5.452 -0.3246  0.1283 -0.1358
 3685SOL    HW112601   4.085   6.283   5.358 -1.2533  1.2969 -0.3090
 3685SOL    HW212602   4.059   6.193   5.476  0.2885 -0.2170 -1.0735
 3686SOL     OW12603   5.336   1.834   3.010  0.0611 -0.2507 -0.1334
 3686SOL    HW112604   5.352   1.751   3.056  1.4052  1.0828  1.9923
 3686SOL    HW212605   5.313   1.896   3.080  0.2201  1.4239 -1.5121
 3687SOL     OW12606   0.610   4.539   6.616 -0.1521 -0.1070  0.0108
 3687SOL    HW112607   0.527   4.528   6.569 -0.3498  0.1280  0.3012
 3687SOL    HW212608   0.612   4.632   6.640  0.7293  0.1561 -0.9895
 3688SOL     OW12609   5.556   4.174   3.984 -0.4113  0.6132 -0.4311
 3688SOL    HW112610   5.579   4.216   3.901 -2.7435  0.6069 -1.1475
 3688SOL    HW212611   5.488   4.110   3.961 -3.0744  2.4322  1.7598
 3689SOL     OW12612   6.742   4.339   3.998  0.4143 -0.6223  0.2518
 3689SOL    HW112613   6.786   4.262   4.034  1.4721 -0.1980 -0.0972
 3689SOL    HW212614   6.651   4.311   3.985 -0.3898 -0.5249  4.1870
 3690SOL     OW12615   2.850   1.923   3.021 -0.0728 -0.1181 -0.6227
 3690SOL    HW112616   2.762   1.961   3.019 -0.9554 -2.0468 -1.4267
 3690SOL    HW212617   2.897   1.967   2.951 -1.1126 -0.5629 -1.6460
 3691SOL     OW12618   5.198   0.363   3.702  0.0162 -0.0525  0.2268
 3691SOL    HW112619   5.264   0.295   3.685 -1.5219 -1.4269 -0.4463
 3691SOL    HW212620   5.163   0.341   3.788 -0.6875 -0.2805 -0.1154
 3692SOL     OW12621   0.953   5.983   4.535  0.8150 -0.5775 -0.3338
 3692SOL    HW112622   0.914   5.997   4.449  0.8779 -0.1444 -0.2918
 3692SOL    HW212623   1.042   6.017   4.526  0.6800 -0.1360  0.0358
 3693SOL     OW12624   1.485   4.474   1.575 -0.2896 -0.1293  0.3388
 3693SOL    HW112625   1.481   4.544   1.510  0.6754 -0.9875 -0.6890
 3693SOL    HW212626   1.393   4.448   1.588 -0.4571 -0.3853 -1.1932
 3694SOL     OW12627   5.453   5.207   3.044  0.2260 -0.5207 -0.6149
 3694SOL    HW112628   5.434   5.301   3.032 -1.1305 -0.8975 -1.6772
 3694SOL    HW212629   5.448   5.193   3.138  2.0225  0.7712 -0.2744
 3695SOL     OW12630   6.305   5.078   6.599  0.4026 -0.2975 -0.1779
 3695SOL    HW112631   6.339   5.166   6.581  3.0592 -1.1738  0.1468
 3695SOL    HW212632   6.315   5.068   6.693 -0.4771 -0.7489 -0.1246
 3696SOL     OW12633   3.176   2.964   2.078 -0.0120 -0.1441  0.1218
 3696SOL    HW112634   3.241   3.002   2.020  0.4073  0.5348  1.0147
 3696SOL    HW212635   3.179   2.870   2.060 -0.8533  0.1576 -1.9080
 3697SOL     OW12636   4.357   0.679   2.843 -0.3292 -0.1503  0.0183
 3697SOL    HW112637   4.419   0.752   2.834 -0.3455 -0.1779 -0.3052
 3697SOL    HW212638   4.388   0.632   2.920  1.4919 -1.5470 -1.4996
 3698SOL     OW12639   0.511   6.747   5.820 -0.3980  0.6122 -0.2330
 3698SOL    HW112640   0.535   6.681   5.885 -2.1017  0.1768 -0.0041
 3698SOL    HW212641   0.571   6.731   5.747 -0.0683 -0.4919  0.2573
 3699SOL     OW12642   4.547   4.488   3.307 -0.6766 -0.1309 -0.2964
 3699SOL    HW112643   4.541   4.541   3.227 -1.9508 -0.0184 -0.1533
 3699SOL    HW212644   4.477   4.423   3.298 -0.9712  0.0105  0.8046
 3700SOL     OW12645   2.815   6.194   5.765  0.3611  0.0363  0.1677
 3700SOL    HW112646   2.734   6.150   5.792  0.1700  0.9274  1.1032
 3700SOL    HW212647   2.814   6.189   5.669 -0.1482 -1.0927  0.2163
 3701SOL     OW12648   4.230   1.677   4.002  0.5999 -0.1193 -0.1476
 3701SOL    HW112649   4.137   1.699   4.010  0.1808 -1.9555  0.3965
 3701SOL    HW212650   4.267   1.750   3.953 -1.0675  0.7944 -0.1333
 3702SOL     OW12651   2.262   2.047   3.106  0.4198  0.2456 -0.3235
 3702SOL    HW112652   2.287   1.983   3.040 -1.2323  0.2869 -1.0381
 3702SOL    HW212653   2.171   2.025   3.128  0.6215  0.8419  1.2183
 3703SOL     OW12654   6.143   1.906   3.417  0.0776  0.2574 -0.0470
 3703SOL    HW112655   6.157   1.910   3.322 -1.5860 -0.8646 -0.3900
 3703SOL    HW212656   6.119   1.995   3.441 -0.5877  0.3241 -0.9006
 3704SOL     OW12657   6.552   3.452   0.217  0.4074  0.5565 -0.1722
 3704SOL    HW112658   6.494   3.467   0.292 -0.2746 -1.2564 -0.2823
 3704SOL    HW212659   6.631   3.414   0.255  0.4230  0.4679 -0.2925
 3705SOL     OW12660   5.503   2.574   2.296  0.3361  0.9693 -0.0972
 3705SOL    HW112661   5.451   2.648   2.263 -2.4270 -1.6947 -2.3065
 3705SOL    HW212662   5.530   2.527   2.217  0.5669 -1.2857  1.2544
 3706SOL     OW12663   1.959   2.789   3.804 -0.7718  0.3918  0.2262
 3706SOL    HW112664   1.910   2.722   3.756 -0.6789 -0.4957  1.3105
 3706SOL    HW212665   1.992   2.743   3.882  0.0523  1.4846  0.5504
 3707SOL     OW12666   0.705   2.752   4.971 -0.1274 -0.1384  0.4050
 3707SOL    HW112667   0.779   2.809   4.954 -1.3511  1.2320 -0.5540
 3707SOL    HW212668   0.666   2.787   5.051 -1.1731  0.7420 -0.4563
 3708SOL     OW12669   6.373   1.655   6.219 -0.2444  0.0331  0.1100
 3708SOL    HW112670   6.356   1.734   6.269 -1.1626 -1.0913  1.6769
 3708SOL    HW212671   6.286   1.623   6.194  0.0427 -0.9565  0.3202
 3709SOL     OW12672   1.578   0.671   3.391 -0.0465 -0.1849  0.3509
 3709SOL    HW112673   1.611   0.651   3.303  0.7135  0.7936  0.3971
 3709SOL    HW212674   1.543   0.760   3.384 -0.2540 -0.2175  0.9618
 3710SOL     OW12675   2.561   2.433   4.647  0.4901  0.1877 -0.2311
 3710SOL    HW112676   2.487   2.490   4.629  1.1340  0.2055 -3.3001
 3710SOL    HW212677   2.561   2.423   4.743 -2.8184  0.9733 -0.0344
 3711SOL     OW12678   2.813   1.507   0.669 -0.0762  0.5662  0.2814
 3711SOL    HW112679   2.883   1.478   0.727 -2.8177 -1.3047  2.9543
 3711SOL    HW212680   2.841   1.479   0.582  2.3684 -0.2485  1.2394
 3712SOL     OW12681   2.422   3.539   3.756  0.1974 -0.2759 -0.3046
 3712SOL    HW112682   2.361   3.600   3.714 -0.0357 -0.0509  0.3451
 3712SOL    HW212683   2.474   3.594   3.814 -1.0562 -0.8597  1.4907
 3713SOL     OW12684   6.689   1.358   4.960  0.1608 -0.2192 -0.5909
 3713SOL    HW112685   6.635   1.308   4.898  1.1679 -2.5473  0.2770
 3713SOL    HW212686   6.705   1.296   5.031  1.5436  1.3855  0.5427
 3714SOL     OW12687   4.302   0.653   6.060  0.7633 -0.2316 -0.0478
 3714SOL    HW112688   4.358   0.579   6.036  1.6859 -0.0428  1.4152
 3714SOL    HW212689   4.363   0.725   6.077 -0.0847  0.7118 -0.8445
 3715SOL     OW12690   0.642   1.995   1.857 -0.0612  0.0743 -0.6733
 3715SOL    HW112691   0.732   1.982   1.827 -0.0923 -1.9757 -0.0284
 3715SOL    HW212692   0.621   1.916   1.906 -1.8479  0.9996  0.1651
 3716SOL     OW12693   5.673   1.275   1.341  0.2848  0.1082 -0.0503
 3716SOL    HW112694   5.756   1.251   1.381  1.7541  2.0855 -1.7341
 3716SOL    HW212695   5.662   1.214   1.268  0.0461 -0.3715  0.3762
 3717SOL     OW12696   6.072   1.628   1.001 -0.5843  0.5302 -0.0032
 3717SOL    HW112697   6.052   1.562   1.068  0.4770 -0.5956 -0.7750
 3717SOL    HW212698   6.149   1.595   0.956 -0.8980  1.5852 -1.3824
 3718SOL     OW12699   0.731   5.783   6.021 -0.1671  0.1006  0.4992
 3718SOL    HW112700   0.729   5.843   5.947  0.8477  0.2248  0.5546
 3718SOL    HW212701   0.641   5.781   6.053 -0.0622  2.4265  1.1470
 3719SOL     OW12702   3.277   1.632   1.857  0.7202 -0.2629  0.4829
 3719SOL    HW112703   3.320   1.549   1.874 -1.2161 -1.2461  0.8122
 3719SOL    HW212704   3.242   1.659   1.941 -0.7116 -0.3444 -0.0602
 3720SOL     OW12705   1.307   5.408   5.755 -0.0522  0.0347 -0.4622
 3720SOL    HW112706   1.276   5.493   5.784 -2.6933 -0.0709 -2.6334
 3720SOL    HW212707   1.288   5.349   5.828 -1.0241  0.7769 -0.0958
 3721SOL     OW12708   4.032   6.345   3.054  0.3589  0.7547 -0.3746
 3721SOL    HW112709   4.035   6.358   3.149 -1.8736 -1.8094  0.1921
 3721SOL    HW212710   4.122   6.354   3.025  1.3025  0.3820  2.2031
 3722SOL     OW12711   1.890   3.814   2.002  0.0570 -0.1132 -0.3071
 3722SOL    HW112712   1.942   3.798   2.081 -1.8305 -0.6372  0.8779
 3722SOL    HW212713   1.953   3.804   1.930  1.1714 -2.9090  0.9010
 3723SOL     OW12714   3.718   3.793   5.420  0.3161  0.3779  0.6835
 3723SOL    HW112715   3.673   3.781   5.337 -0.1168 -1.1183  1.1068
 3723SOL    HW212716   3.732   3.704   5.453  2.4473  0.8328  1.1724
 3724SOL     OW12717   3.097   5.592   5.591 -0.0432  0.2612  0.2142
 3724SOL    HW112718   3.070   5.650   5.662 -0.6550 -0.5009  0.6156
 3724SOL    HW212719   3.048   5.623   5.515  1.1729  1.5601 -0.0996
 3725SOL     OW12720   5.258   2.060   0.473 -0.2018  0.4382  0.2351
 3725SOL    HW112721   5.290   2.145   0.440 -0.2459 -0.0173 -1.0438
 3725SOL    HW212722   5.183   2.083   0.529 -0.3283  1.2357 -0.2431
 3726SOL     OW12723   0.066   3.483   2.413  0.2965 -0.2113 -0.1896
 3726SOL    HW112724   0.063   3.422   2.340 -0.3023 -0.7330  0.2636
 3726SOL    HW212725   0.145   3.458   2.462  0.0482 -0.6241 -0.0013
 3727SOL     OW12726   6.100   1.340   4.685 -0.1565  0.2325  0.1104
 3727SOL    HW112727   6.108   1.416   4.742 -2.4942 -0.0485  0.9314
 3727SOL    HW212728   6.097   1.265   4.744 -2.8351 -0.0471 -0.2334
 3728SOL     OW12729   0.599   3.666   6.504 -0.1999 -0.4963 -0.2722
 3728SOL    HW112730   0.506   3.687   6.501 -0.3255 -0.8671  0.6869
 3728SOL    HW212731   0.603   3.571   6.509  0.2275 -0.4825 -0.2898
 3729SOL     OW12732   1.512   3.043   0.013 -0.0562  0.5821  0.0768
 3729SOL    HW112733   1.533   2.980   0.082 -0.5490  0.5505  0.2009
 3729SOL    HW212734   1.563   3.014  -0.063  0.0635  0.2958  0.2680
 3730SOL     OW12735   1.897   3.624   0.964 -0.3620 -0.4487  0.3064
 3730SOL    HW112736   1.827   3.598   1.023 -1.2125 -1.7685 -1.1953
 3730SOL    HW212737   1.862   3.700   0.917  0.4490  0.8248  1.6651
 3731SOL     OW12738   4.435   2.526   1.502  0.2714 -0.0412  0.1776
 3731SOL    HW112739   4.378   2.449   1.494 -0.9117  0.8445 -0.0934
 3731SOL    HW212740   4.499   2.501   1.569  0.3518 -1.5234 -0.4159
 3732SOL     OW12741   0.340   2.842   6.112 -0.1365  0.0609 -0.1630
 3732SOL    HW112742   0.353   2.775   6.179  0.5712 -1.1558 -1.4535
 3732SOL    HW212743   0.419   2.896   6.117  0.4159 -0.6782 -0.7046
 3733SOL     OW12744   4.902   1.556   5.287  0.0237 -0.1700  0.1339
 3733SOL    HW112745   4.979   1.563   5.232  0.0618  0.5629  0.2767
 3733SOL    HW212746   4.906   1.632   5.344 -0.7022 -0.2324  0.2769
 3734SOL     OW12747   4.204   0.387   3.418 -0.3316  0.0105  0.7356
 3734SOL    HW112748   4.254   0.307   3.434  0.0283  0.3120  1.1320
 3734SOL    HW212749   4.163   0.406   3.502  1.2880  1.4125  1.2610
 3735SOL     OW12750   6.690   4.064   0.807 -0.3492  0.4583 -1.0155
 3735SOL    HW112751   6.621   4.128   0.817 -1.1122 -0.3875 -0.7262
 3735SOL    HW212752   6.771   4.115   0.808 -0.8378  1.2485  0.9459
 3736SOL     OW12753   5.972   5.598   3.051 -0.2254 -0.0157  0.3417
 3736SOL    HW112754   6.053   5.553   3.072  1.2665  0.9810 -2.7048
 3736SOL    HW212755   5.909   5.528   3.034  1.1897 -0.9472 -1.3104
 3737SOL     OW12756   6.152   5.085   2.020 -0.3973  0.0838  0.7464
 3737SOL    HW112757   6.208   5.161   2.006  1.2630 -0.9085  1.6303
 3737SOL    HW212758   6.107   5.102   2.102 -0.2263  0.2365  0.8084
 3738SOL     OW12759   4.253   6.070   5.077  0.3618 -0.2460 -0.6628
 3738SOL    HW112760   4.220   6.131   5.143  1.3732 -0.9782  0.5563
 3738SOL    HW212761   4.314   6.122   5.025  0.2671  0.1025 -0.4310
 3739SOL     OW12762   0.364   5.002   0.213 -0.4552  0.3147  0.0657
 3739SOL    HW112763   0.385   5.096   0.210  2.1643 -0.1790 -2.6497
 3739SOL    HW212764   0.424   4.967   0.279 -0.1262  0.3419 -0.2120
 3740SOL     OW12765   5.954   5.411   4.486 -0.0887  0.7497 -0.0341
 3740SOL    HW112766   5.875   5.450   4.523 -0.8682  0.2371 -1.1155
 3740SOL    HW212767   5.975   5.339   4.546 -2.1383 -0.9533 -1.2341
 3741SOL     OW12768   4.757   4.735   5.408 -0.7768 -0.0874  0.0803
 3741SOL    HW112769   4.818   4.771   5.472  0.1578 -1.5100  0.0373
 3741SOL    HW212770   4.787   4.770   5.324  1.0388 -1.9813 -0.1509
 3742SOL     OW12771   6.593   1.850   6.360  1.6864 -0.3135  0.1696
 3742SOL    HW112772   6.630   1.762   6.362  1.0853 -0.5572  0.6757
 3742SOL    HW212773   6.624   1.890   6.441  3.0093  0.3868 -0.6447
 3743SOL     OW12774   5.348   2.841   5.392 -0.7040 -0.3539  0.0680
 3743SOL    HW112775   5.287   2.768   5.386  0.8898 -1.6963 -0.6382
 3743SOL    HW212776   5.370   2.861   5.301  1.9142 -1.7143  0.3180
 3744SOL     OW12777   4.923   0.523   6.225  0.4216 -0.2325 -0.3914
 3744SOL    HW112778   4.974   0.601   6.204  0.4442  0.4335  1.8518
 3744SOL    HW212779   4.866   0.510   6.150  2.4401  0.1985 -2.0858
 3745SOL     OW12780   5.212   1.981   3.169 -0.0575  0.4731  0.1524
 3745SOL    HW112781   5.233   2.031   3.248 -0.5941 -0.6622  1.0437
 3745SOL    HW212782   5.126   1.942   3.187 -0.1374  0.1050 -0.9465
 3746SOL     OW12783   3.639   2.319   1.325 -0.0635 -0.0719  0.2331
 3746SOL    HW112784   3.627   2.385   1.258  1.8125 -0.2184 -0.3267
 3746SOL    HW212785   3.734   2.307   1.330 -0.1434 -0.2479  2.7527
 3747SOL     OW12786   3.727   4.050   6.310  0.1947  0.3630 -0.5079
 3747SOL    HW112787   3.656   4.063   6.373 -0.3558  2.2596 -1.4596
 3747SOL    HW212788   3.792   4.117   6.333  1.5741 -1.1096  0.1197
 3748SOL     OW12789   5.270   3.442   0.332  0.0523  0.1681 -0.1258
 3748SOL    HW112790   5.243   3.398   0.413 -0.9240 -0.3970 -0.7445
 3748SOL    HW212791   5.220   3.399   0.263  1.6611 -0.0994 -1.1846
 3749SOL     OW12792   1.320   6.195   2.189  0.0485 -0.0834  0.2174
 3749SOL    HW112793   1.346   6.165   2.276 -0.9334 -1.4977  0.0540
 3749SOL    HW212794   1.324   6.117   2.134  1.1564  0.8882 -1.1608
 3750SOL     OW12795   3.493   5.664   6.701  0.1293  0.5411  0.0655
 3750SOL    HW112796   3.490   5.606   6.625 -0.6454  0.8827 -0.1736
 3750SOL    HW212797   3.496   5.604   6.776  3.4943  0.1337 -0.2158
 3751SOL     OW12798   6.050   6.591   3.271  0.1722  0.0897 -0.4876
 3751SOL    HW112799   5.971   6.569   3.222 -0.1676  0.8830 -0.3046
 3751SOL    HW212800   6.107   6.515   3.259 -0.1121  0.0372 -1.6658
 3752SOL     OW12801   4.855   6.376   4.989  0.2828  0.2424  0.6218
 3752SOL    HW112802   4.836   6.406   4.900 -0.3663 -1.9236 -0.0499
 3752SOL    HW212803   4.928   6.431   5.018  0.2300  1.2809 -1.0844
 3753SOL     OW12804   6.115   0.467   4.046 -0.2164 -0.0990 -0.5920
 3753SOL    HW112805   6.196   0.518   4.037  0.2089 -0.6460 -0.0239
 3753SOL    HW212806   6.083   0.489   4.134 -0.7057  0.1390 -0.8284
 3754SOL     OW12807   3.426   4.359   2.302 -0.3564 -0.6188  0.2371
 3754SOL    HW112808   3.491   4.378   2.235 -0.7221  1.9827  0.5075
 3754SOL    HW212809   3.444   4.269   2.330  0.9820 -1.1015 -1.9926
 3755SOL     OW12810   5.350   0.733   1.042 -0.2168 -0.7367 -0.1520
 3755SOL    HW112811   5.375   0.807   1.098  2.9339 -0.0145 -2.2024
 3755SOL    HW212812   5.380   0.656   1.090  1.7321 -0.1920 -0.4109
 3756SOL     OW12813   1.080   5.425   2.458  0.2709 -0.4758  0.0511
 3756SOL    HW112814   1.108   5.516   2.469 -1.4941  0.3218 -1.4003
 3756SOL    HW212815   1.044   5.400   2.543 -0.6980  0.7796  0.0399
 3757SOL     OW12816   3.236   6.765   5.914 -0.4842  0.6469  0.0550
 3757SOL    HW112817   3.268   6.676   5.930  2.5177  1.9474  2.2676
 3757SOL    HW212818   3.255   6.782   5.822 -0.8119 -0.8497 -0.3157
 3758SOL     OW12819   3.999   3.339   2.579 -0.2280 -0.5105  0.0539
 3758SOL    HW112820   4.071   3.292   2.536 -1.0048 -0.4979 -1.3084
 3758SOL    HW212821   3.925   3.278   2.573 -0.6764  0.0143  0.2364
 3759SOL     OW12822   5.985   0.844   6.473  0.2397 -0.1878  0.4858
 3759SOL    HW112823   5.979   0.889   6.389 -1.3398  0.0202  0.6801
 3759SOL    HW212824   5.992   0.914   6.538 -1.0745 -0.2342  0.7011
 3760SOL     OW12825   6.551   3.344   3.988  0.1282 -0.2939  0.0183
 3760SOL    HW112826   6.475   3.375   4.037  0.5392 -1.7016  1.6654
 3760SOL    HW212827   6.531   3.252   3.969  0.7946 -0.2759 -0.8356
 3761SOL     OW12828   0.119   2.831   3.819 -0.0056  0.0450 -0.3478
 3761SOL    HW112829   0.038   2.832   3.869 -0.9983  0.1838 -1.9004
 3761SOL    HW212830   0.173   2.900   3.859 -1.5590  1.5356 -0.7422
 3762SOL     OW12831   4.986   4.825   5.560 -0.5258  0.1456  0.1193
 3762SOL    HW112832   4.977   4.920   5.553 -0.7796  0.1775  0.7957
 3762SOL    HW212833   5.074   4.812   5.594 -0.5003  0.1424  0.0515
 3763SOL     OW12834   2.951   3.242   2.837  0.0698  0.3917 -0.4798
 3763SOL    HW112835   2.972   3.304   2.768 -0.1369 -0.6169 -1.4901
 3763SOL    HW212836   3.035   3.203   2.861  0.1710  0.8996  0.0040
 3764SOL     OW12837   5.092   2.696   2.318 -0.2974 -0.6095 -0.0588
 3764SOL    HW112838   5.096   2.602   2.337  1.1246 -0.5970 -0.1961
 3764SOL    HW212839   4.998   2.717   2.319 -0.7088 -2.2450 -1.0772
 3765SOL     OW12840   3.146   0.160   2.317  0.1846 -0.1013 -0.5858
 3765SOL    HW112841   3.227   0.178   2.364 -1.2760  0.3200  1.9861
 3765SOL    HW212842   3.130   0.067   2.331 -1.5756  0.4951  2.2719
 3766SOL     OW12843   4.005   2.069   4.766 -0.1760  0.2373 -0.5382
 3766SOL    HW112844   4.087   2.046   4.722 -0.0436 -1.4379  0.4797
 3766SOL    HW212845   3.965   2.135   4.710  1.0860 -0.1243 -1.9235
 3767SOL     OW12846   2.413   4.714   5.517 -0.2570 -0.1964  0.1586
 3767SOL    HW112847   2.472   4.718   5.442 -0.8760  0.2960 -0.3181
 3767SOL    HW212848   2.353   4.788   5.504  0.7767  1.0593  2.1363
 3768SOL     OW12849   1.549   2.320   1.383  0.0193 -0.1599 -0.3072
 3768SOL    HW112850   1.633   2.342   1.344 -0.0254 -0.0050 -0.3182
 3768SOL    HW212851   1.490   2.307   1.308  0.0491 -0.3367 -0.3013
 3769SOL     OW12852   3.532   0.186   5.056  0.5936  0.2976 -0.5800
 3769SOL    HW112853   3.479   0.201   4.977 -0.6480 -0.0271  0.1664
 3769SOL    HW212854   3.476   0.214   5.128  0.9611 -1.2087  0.3273
 3770SOL     OW12855   5.969   4.775   1.631  0.2019  0.4340 -0.5533
 3770SOL    HW112856   6.037   4.717   1.664 -0.1441 -0.3472 -1.1775
 3770SOL    HW212857   5.932   4.816   1.710 -2.7271 -3.6717  0.5979
 3771SOL     OW12858   2.053   3.694   5.744 -0.4763  0.0991 -0.8808
 3771SOL    HW112859   2.043   3.670   5.836  1.0212 -0.5933 -0.8592
 3771SOL    HW212860   1.964   3.704   5.712 -1.0836 -1.2913  0.2309
 3772SOL     OW12861   0.620   1.881   2.604 -0.6685  0.1891  0.0833
 3772SOL    HW112862   0.662   1.813   2.551  1.8922  1.0361  0.8652
 3772SOL    HW212863   0.587   1.944   2.539  0.7049  0.2652 -0.5779
 3773SOL     OW12864   3.030   2.025   1.713  0.3434  0.3854  0.0285
 3773SOL    HW112865   3.099   2.029   1.648  0.9441  0.8838  0.6823
 3773SOL    HW212866   3.075   2.032   1.797 -0.3086 -1.3337  0.5588
 3774SOL     OW12867   3.886   3.179   3.619 -0.4698 -0.3573  0.0674
 3774SOL    HW112868   3.940   3.258   3.617  0.2842 -0.8698 -0.7152
 3774SOL    HW212869   3.934   3.118   3.674 -1.6087  0.0844  1.6130
 3775SOL     OW12870   1.248   6.438   0.452  0.2944  0.2353  0.0266
 3775SOL    HW112871   1.184   6.378   0.490 -0.0311  0.4931 -0.1061
 3775SOL    HW212872   1.321   6.438   0.514 -0.4861  1.1215  0.9967
 3776SOL     OW12873   3.641   2.744   3.209  0.2130 -0.1923 -0.2384
 3776SOL    HW112874   3.588   2.819   3.182  0.7026 -0.1439 -1.1065
 3776SOL    HW212875   3.731   2.770   3.188  0.5834 -0.2991  1.1571
 3777SOL     OW12876   4.611   3.605   6.516 -0.6206 -0.3950  0.2966
 3777SOL    HW112877   4.635   3.533   6.574  0.2388 -0.7950 -0.5314
 3777SOL    HW212878   4.687   3.616   6.458 -1.1076  0.5644 -0.1874
 3778SOL     OW12879   6.497   5.475   3.141  0.4251  0.1086  0.1314
 3778SOL    HW112880   6.569   5.537   3.135 -0.4507  1.3120  1.4019
 3778SOL    HW212881   6.471   5.478   3.233 -0.8731 -0.7360 -0.1821
 3779SOL     OW12882   2.097   0.429   6.479 -0.0206  0.0132 -0.2816
 3779SOL    HW112883   2.156   0.355   6.463  0.4559  0.2524  0.3379
 3779SOL    HW212884   2.118   0.491   6.409  1.7801  0.8882  0.9542
 3780SOL     OW12885   2.480   3.030   2.332  0.0002  0.0915 -0.2270
 3780SOL    HW112886   2.569   3.000   2.316  0.0509  0.9784 -1.9093
 3780SOL    HW212887   2.488   3.124   2.345 -0.5566 -0.0210  1.0381
 3781SOL     OW12888   3.381   4.365   0.551 -0.5724 -0.3688  0.2459
 3781SOL    HW112889   3.456   4.329   0.598 -2.1639 -1.2957  2.2506
 3781SOL    HW212890   3.365   4.304   0.480 -1.5393 -2.2157  1.9583
 3782SOL     OW12891   3.953   2.420   4.720  0.1823 -0.3648 -0.4398
 3782SOL    HW112892   4.044   2.396   4.702  0.3463 -0.2883  0.2485
 3782SOL    HW212893   3.902   2.346   4.687  0.6073 -1.1517  0.6021
 3783SOL     OW12894   0.484   3.158   5.403 -0.3935 -0.0781 -0.5941
 3783SOL    HW112895   0.465   3.174   5.495 -0.0501  0.0569 -0.5447
 3783SOL    HW212896   0.563   3.104   5.404  0.4268  1.0775 -0.8334
 3784SOL     OW12897   5.106   6.692   2.469 -0.5060 -0.2638 -0.0808
 3784SOL    HW112898   5.016   6.684   2.500 -0.7510  1.0338 -0.4030
 3784SOL    HW212899   5.099   6.737   2.385  0.5249  1.3195  0.6295
 3785SOL     OW12900   1.556   4.080   1.330 -0.3657  0.0275 -0.1573
 3785SOL    HW112901   1.506   4.161   1.322 -1.3040 -0.5338 -0.1448
 3785SOL    HW212902   1.546   4.037   1.245 -2.0793 -1.2861  0.6496
 3786SOL     OW12903   5.769   1.840   4.664  0.1472  0.3737  0.0413
 3786SOL    HW112904   5.858   1.873   4.679  0.6152 -0.5377 -0.6902
 3786SOL    HW212905   5.781   1.751   4.633 -0.8187  1.3866 -3.8022
 3787SOL     OW12906   6.478   3.133   5.607  0.1406 -0.1179 -0.1982
 3787SOL    HW112907   6.492   3.039   5.597 -1.8417 -0.3698 -1.1739
 3787SOL    HW212908   6.413   3.140   5.676 -0.8524  0.3991 -1.1504
 3788SOL     OW12909   0.899   5.507   1.253  0.0150  0.3069  0.2233
 3788SOL    HW112910   0.859   5.438   1.306 -1.0274  1.9900  1.7096
 3788SOL    HW212911   0.843   5.512   1.175 -0.4199  0.0869  0.5188
 3789SOL     OW12912   1.955   3.514   4.208 -0.2516  0.1681  0.0342
 3789SOL    HW112913   2.037   3.517   4.259  0.3330 -0.3972 -0.8437
 3789SOL    HW212914   1.886   3.528   4.273  0.1652 -4.2479  1.8006
 3790SOL     OW12915   0.181   3.959   4.846  0.0242 -0.2532 -0.6201
 3790SOL    HW112916   0.243   3.982   4.915  0.7564  0.4310 -1.4769
 3790SOL    HW212917   0.117   4.030   4.846 -0.0229 -0.2962 -0.5803
 3791SOL     OW12918   2.312   1.080   4.640  0.2726  0.0922  0.4110
 3791SOL    HW112919   2.301   1.046   4.551 -0.6533 -2.0753  1.2839
 3791SOL    HW212920   2.223   1.080   4.676  0.6954  0.5604  1.4819
 3792SOL     OW12921   1.439   3.347   3.423  0.7816  0.0708 -0.2922
 3792SOL    HW112922   1.509   3.406   3.396  2.1787  0.0418  2.8063
 3792SOL    HW212923   1.427   3.366   3.516 -2.4187 -0.9157 -0.4080
 3793SOL     OW12924   1.656   5.092   5.786 -0.2755  0.7266 -0.1462
 3793SOL    HW112925   1.690   5.124   5.869 -0.4950 -1.6112  0.9167
 3793SOL    HW212926   1.731   5.052   5.743 -0.3933  1.0082 -0.6316
 3794SOL     OW12927   2.674   1.007   0.764  0.1765 -0.2996 -0.1794
 3794SOL    HW112928   2.625   0.925   0.753 -0.7058  0.4957 -3.0287
 3794SOL    HW212929   2.751   0.996   0.709 -0.4127  1.1023 -1.3148
 3795SOL     OW12930   0.312   0.722   6.196  0.4770  0.0525  0.0720
 3795SOL    HW112931   0.324   0.649   6.256 -0.2128 -0.2683 -0.1704
 3795SOL    HW212932   0.260   0.786   6.245 -0.9242 -0.6199 -0.4809
 3796SOL     OW12933   0.343   2.582   0.057  0.3155 -0.7715 -0.0410
 3796SOL    HW112934   0.404   2.607  -0.012  0.4981 -1.0891  0.0021
 3796SOL    HW212935   0.393   2.594   0.138 -0.5178  1.5088  0.2008
 3797SOL     OW12936   2.678   1.138   2.724 -0.0854 -0.0284  0.6541
 3797SOL    HW112937   2.659   1.220   2.679  2.7915  1.0286  1.1427
 3797SOL    HW212938   2.751   1.159   2.783  0.4817 -2.8444  1.1263
 3798SOL     OW12939   2.140   3.928   0.715 -0.0624 -0.0267  0.1774
 3798SOL    HW112940   2.220   3.895   0.673  0.2297  2.7051 -1.6314
 3798SOL    HW212941   2.070   3.876   0.676  0.5249  0.1439 -1.1614
 3799SOL     OW12942   1.362   6.420   4.646  0.1090 -0.1163  0.2544
 3799SOL    HW112943   1.361   6.497   4.703  2.1096  0.0588  0.1288
 3799SOL    HW212944   1.319   6.352   4.697 -1.6460  1.0326  0.3921
 3800SOL     OW12945   5.425   5.342   0.859 -0.3840 -0.6427  0.0916
 3800SOL    HW112946   5.507   5.319   0.815 -0.4401  0.1194 -0.4408
 3800SOL    HW212947   5.365   5.364   0.788 -0.3430  1.0606  0.5221
 3801SOL     OW12948   5.099   5.366   3.685  0.2567 -0.4482  0.0521
 3801SOL    HW112949   5.126   5.363   3.593  0.3611 -1.6814  0.1090
 3801SOL    HW212950   5.177   5.341   3.734  0.1794  0.1308  0.4868
 3802SOL     OW12951   3.290   6.450   5.398 -0.0264 -0.6923 -0.5126
 3802SOL    HW112952   3.319   6.467   5.488  0.1337 -2.4249 -0.1962
 3802SOL    HW212953   3.353   6.497   5.344  0.0495  0.1429  0.2670
 3803SOL     OW12954   0.450   4.734   0.663  0.0656  0.6459  0.0714
 3803SOL    HW112955   0.487   4.667   0.720  1.1186 -0.1383 -1.4469
 3803SOL    HW212956   0.440   4.690   0.578  0.3465  2.2741 -0.8399
 3804SOL     OW12957   4.478   4.817   0.418 -0.5596 -0.2917  0.9527
 3804SOL    HW112958   4.416   4.887   0.399 -0.4682 -0.5452 -0.3463
 3804SOL    HW212959   4.425   4.738   0.423 -0.3423 -0.5460 -0.3981
 3805SOL     OW12960   3.754   3.718   0.584  0.2957  0.2152  0.4207
 3805SOL    HW112961   3.757   3.784   0.654  1.0898  1.9820 -1.1817
 3805SOL    HW212962   3.801   3.759   0.511 -0.4020 -1.6072 -1.1259
 3806SOL     OW12963   2.548   0.297   0.676  0.4828  0.1943  0.2675
 3806SOL    HW112964   2.456   0.315   0.658  0.7309  2.8604  1.0915
 3806SOL    HW212965   2.591   0.305   0.591 -0.1339 -2.4091 -0.3670
 3807SOL     OW12966   3.499   4.106   3.393  0.4716 -0.3288  0.0436
 3807SOL    HW112967   3.442   4.045   3.440 -0.8729  0.1146 -0.9386
 3807SOL    HW212968   3.529   4.058   3.317  1.3647 -0.5330  0.5171
 3808SOL     OW12969   6.481   2.054   1.857 -0.4308 -0.1872 -0.3861
 3808SOL    HW112970   6.465   1.965   1.824 -0.8088 -0.4966  0.5880
 3808SOL    HW212971   6.545   2.091   1.797 -0.7543 -0.8914 -1.1840
 3809SOL     OW12972   4.562   4.576   6.033  0.8261  0.1490  0.3946
 3809SOL    HW112973   4.507   4.573   5.955  0.3537 -0.7486  0.7517
 3809SOL    HW212974   4.646   4.540   6.004  0.5436 -0.5146  0.3769
 3810SOL     OW12975   0.454   5.006   5.378 -0.1225  0.4509 -0.3225
 3810SOL    HW112976   0.548   4.997   5.364  0.1756  1.8524  0.6354
 3810SOL    HW212977   0.439   4.975   5.467 -0.5170  0.6003 -0.3338
 3811SOL     OW12978   1.877   1.521   4.515  0.0182  0.8058 -0.3586
 3811SOL    HW112979   1.867   1.435   4.555  1.5654  0.9508  0.4428
 3811SOL    HW212980   1.869   1.505   4.421 -0.2921 -0.1148 -0.1853
 3812SOL     OW12981   3.368   3.431   0.501  0.7817  0.0110 -0.5637
 3812SOL    HW112982   3.418   3.352   0.522 -1.9330 -1.4885  0.8498
 3812SOL    HW212983   3.357   3.428   0.406  0.8247 -1.2750 -0.5460
 3813SOL     OW12984   5.791   2.438   2.454 -0.4896  0.0049  0.1305
 3813SOL    HW112985   5.886   2.437   2.463 -0.5790  0.9732  1.5013
 3813SOL    HW212986   5.767   2.347   2.435  0.5731 -0.5432  1.3145
 3814SOL     OW12987   0.526   3.250   3.312 -0.1487 -0.5895 -0.5747
 3814SOL    HW112988   0.436   3.274   3.288  0.2132  1.9486  0.2383
 3814SOL    HW212989   0.570   3.334   3.324  1.6273 -1.7281  1.6444
 3815SOL     OW12990   4.075   4.854   4.623  0.3095 -0.1480 -0.3448
 3815SOL    HW112991   4.032   4.805   4.694 -0.8152  0.8725 -0.2931
 3815SOL    HW212992   4.132   4.789   4.581 -0.2878 -1.2137  0.4178
 3816SOL     OW12993   0.711   0.164   2.533 -0.1858  0.0045  0.0104
 3816SOL    HW112994   0.618   0.141   2.536 -0.1676 -0.0709  0.0031
 3816SOL    HW212995   0.714   0.246   2.484 -0.4499  1.1054  1.7730
 3817SOL     OW12996   5.368   6.158   1.197 -0.4292 -0.2051 -0.2172
 3817SOL    HW112997   5.292   6.209   1.169 -1.2937 -0.0338  2.2440
 3817SOL    HW212998   5.335   6.100   1.265  1.7537  0.4135  1.4963
 3818SOL     OW12999   3.875   4.586   6.538  0.2346  0.0392  0.0879
 3818SOL    HW113000   3.902   4.507   6.584  0.3328 -0.4093 -0.7270
 3818SOL    HW213001   3.780   4.591   6.551  0.6452  1.8813  3.3697
 3819SOL     OW13002   1.217   5.438   6.582  0.1700  0.0098  0.4169
 3819SOL    HW113003   1.282   5.501   6.612  0.4026  0.0793 -0.2152
 3819SOL    HW213004   1.204   5.379   6.657  0.6457  0.2471  0.6920
 3820SOL     OW13005   0.992   2.366   4.051 -0.0071 -0.4288  0.4220
 3820SOL    HW113006   1.010   2.439   4.110 -0.4472 -0.1913  0.2612
 3820SOL    HW213007   0.903   2.381   4.021  0.2720 -0.4483 -0.4374
 3821SOL     OW13008   1.456   3.182   4.821 -0.2728  0.8477 -0.0070
 3821SOL    HW113009   1.401   3.143   4.888  0.2440  2.0154  1.1470
 3821SOL    HW213010   1.425   3.272   4.814  1.1683  1.4155  0.3811
 3822SOL     OW13011   3.689   6.684   4.866  0.1253  0.5431  0.2676
 3822SOL    HW113012   3.771   6.668   4.914  0.5551 -0.6822 -0.8164
 3822SOL    HW213013   3.712   6.751   4.801  0.6077 -0.6176 -0.7967
 3823SOL     OW13014   5.078   5.132   0.847  0.9346  0.0764 -0.2400
 3823SOL    HW113015   5.000   5.182   0.823  1.6116  1.4198  0.2718
 3823SOL    HW213016   5.090   5.149   0.940  2.3209  0.6013 -0.4890
 3824SOL     OW13017   4.259   2.814   6.382 -0.5998 -0.2744  0.5788
 3824SOL    HW113018   4.192   2.878   6.358  0.8655  2.0877  2.2689
 3824SOL    HW213019   4.324   2.820   6.312 -0.5561 -0.0204  0.6390
 3825SOL     OW13020   5.989   3.226   0.627  1.1414 -0.1321  0.3411
 3825SOL    HW113021   5.998   3.185   0.541  1.3382 -0.6002  0.5839
 3825SOL    HW213022   5.896   3.243   0.636  0.9829 -1.0486  0.4803
 3826SOL     OW13023   5.079   5.179   2.982 -0.0978 -0.3516  0.0431
 3826SOL    HW113024   5.145   5.123   2.942  0.1707 -0.5864  0.8057
 3826SOL    HW213025   4.995   5.141   2.955 -0.0467  1.3259 -2.9595
 3827SOL     OW13026   3.699   3.322   1.913 -0.3818  0.2476  0.3791
 3827SOL    HW113027   3.692   3.237   1.869 -0.0960  0.2023  0.4181
 3827SOL    HW213028   3.635   3.378   1.869 -0.4540  0.0590  0.2443
 3828SOL     OW13029   4.662   3.457   1.762 -0.1930  0.0541 -0.0252
 3828SOL    HW113030   4.700   3.511   1.693  1.4374 -2.3044 -1.0956
 3828SOL    HW213031   4.737   3.433   1.817 -1.0833 -0.1358  1.1409
 3829SOL     OW13032   2.527   1.089   6.305 -0.0443  0.4564 -0.5174
 3829SOL    HW113033   2.565   1.145   6.373  0.9111 -0.1203 -0.5590
 3829SOL    HW213034   2.509   1.148   6.232  0.3329  0.8277 -0.3133
 3830SOL     OW13035   5.616   0.342   3.493 -0.2134  0.2909  0.2786
 3830SOL    HW113036   5.566   0.350   3.413 -1.3363  1.3208  1.0545
 3830SOL    HW213037   5.701   0.307   3.465 -0.3887  1.1275 -1.4123
 3831SOL     OW13038   4.214   1.862   0.193 -0.3953 -0.2017 -0.2971
 3831SOL    HW113039   4.182   1.856   0.283 -1.5527  0.2150 -0.6647
 3831SOL    HW213040   4.135   1.865   0.140  0.1990  2.3216 -1.1699
 3832SOL     OW13041   4.104   4.898   6.089 -0.1076  0.3902 -0.1695
 3832SOL    HW113042   4.195   4.883   6.113 -0.0774  0.8040 -0.0313
 3832SOL    HW213043   4.059   4.914   6.172  0.3470  3.8177 -0.4581
 3833SOL     OW13044   2.594   1.922   1.687 -0.2980 -0.5021  0.2259
 3833SOL    HW113045   2.653   1.994   1.709 -1.5675  1.3877 -2.0902
 3833SOL    HW213046   2.535   1.915   1.763  0.1360  0.5819  0.6741
 3834SOL     OW13047   0.695   2.515   3.131 -0.0280  0.1955 -0.3770
 3834SOL    HW113048   0.630   2.504   3.061 -1.0551 -2.1216  0.8021
 3834SOL    HW213049   0.742   2.431   3.133  1.2451  0.8957  0.5087
 3835SOL     OW13050   0.300   1.110   3.672 -0.2163  0.0356 -0.2675
 3835SOL    HW113051   0.318   1.142   3.584 -1.7035  0.5754 -0.4061
 3835SOL    HW213052   0.298   1.015   3.663  0.3500  0.0548 -0.6624
 3836SOL     OW13053   5.239   1.413   0.536  0.1798 -0.0163  0.5344
 3836SOL    HW113054   5.247   1.402   0.631 -2.2112 -0.4676  0.7500
 3836SOL    HW213055   5.329   1.420   0.505  0.9974  1.5991  2.9832
 3837SOL     OW13056   0.121   4.912   0.070 -0.1461  0.0799 -0.1656
 3837SOL    HW113057   0.185   4.953   0.128  0.9167 -1.5298 -0.1344
 3837SOL    HW213058   0.124   4.964  -0.010  0.8587  0.3355  0.0239
 3838SOL     OW13059   5.062   5.364   6.377  1.0924 -0.0971  0.1907
 3838SOL    HW113060   5.143   5.387   6.422  0.6009  0.1719  0.9585
 3838SOL    HW213061   4.997   5.424   6.413  0.3636 -0.9041  0.2428
 3839SOL     OW13062   4.868   2.117   4.168 -0.4177 -0.7670  0.3355
 3839SOL    HW113063   4.956   2.080   4.166 -0.1414 -0.1411  0.5104
 3839SOL    HW213064   4.837   2.098   4.257 -0.3371 -0.7146  0.3753
 3840SOL     OW13065   3.907   6.587   0.310 -0.4366 -0.7490  0.0961
 3840SOL    HW113066   3.942   6.671   0.340 -1.1530  0.0560 -1.2608
 3840SOL    HW213067   3.833   6.571   0.368 -0.5527 -0.2418  0.0940
 3841SOL     OW13068   1.485   0.962   3.768  0.5067  0.4540  0.2038
 3841SOL    HW113069   1.419   0.959   3.699 -0.1929  1.2174  0.8162
 3841SOL    HW213070   1.569   0.950   3.722 -0.0994 -1.5402 -0.4705
 3842SOL     OW13071   2.139   0.694   0.463 -0.0836 -0.5115 -0.1644
 3842SOL    HW113072   2.103   0.760   0.522  0.0640 -0.5233 -0.0598
 3842SOL    HW213073   2.230   0.685   0.491 -0.7347 -2.6313  1.5242
 3843SOL     OW13074   2.502   1.006   6.755 -0.0927  0.1303  0.3912
 3843SOL    HW113075   2.574   1.037   6.811  0.3093  2.7219 -1.4105
 3843SOL    HW213076   2.432   1.069   6.769 -1.1642 -0.9895  0.2818
 3844SOL     OW13077   3.619   4.170   0.510  0.0494  0.0162  0.0785
 3844SOL    HW113078   3.666   4.088   0.496  1.5214  0.6311  1.2281
 3844SOL    HW213079   3.619   4.213   0.424  0.8378 -0.3797 -0.1266
 3845SOL     OW13080   4.544   5.811   1.091 -0.1300 -0.1535 -0.8715
 3845SOL    HW113081   4.568   5.755   1.017  0.5174  0.5723 -1.2280
 3845SOL    HW213082   4.474   5.763   1.135 -0.2523 -0.7881 -1.7194
 3846SOL     OW13083   0.862   2.530   6.080 -0.6790  0.4211 -0.6563
 3846SOL    HW113084   0.915   2.494   6.009  0.7752  0.6914  0.2632
 3846SOL    HW213085   0.852   2.458   6.142 -0.8826  0.5523 -0.5355
 3847SOL     OW13086   5.585   2.524   3.588  0.3531 -0.3315  0.2477
 3847SOL    HW113087   5.626   2.610   3.584  1.1265 -0.6158  1.3851
 3847SOL    HW213088   5.659   2.463   3.591 -0.1192 -0.8586  2.4560
 3848SOL     OW13089   5.650   6.601   4.878 -0.2938  0.6194 -0.0982
 3848SOL    HW113090   5.658   6.508   4.860  1.0690  1.0141 -1.7148
 3848SOL    HW213091   5.714   6.618   4.947  1.1914  0.7494 -1.4590
 3849SOL     OW13092   1.898   0.417   3.678 -0.2368 -0.4244  0.3787
 3849SOL    HW113093   1.892   0.494   3.621 -2.0777 -0.6856  0.1630
 3849SOL    HW213094   1.952   0.446   3.752 -1.0247  1.1210  0.3813
 3850SOL     OW13095   1.997   0.941   0.777  0.2195 -0.0916  0.0116
 3850SOL    HW113096   2.051   1.014   0.745  0.7947 -0.2510  0.5972
 3850SOL    HW213097   2.046   0.906   0.851  0.6635 -2.0005 -1.1362
 3851SOL     OW13098   0.074   4.018   3.051  0.5727  0.1178 -0.3283
 3851SOL    HW113099   0.158   3.976   3.067  1.1172  1.0511 -0.7090
 3851SOL    HW213100   0.069   4.028   2.956  0.5228  1.0447 -0.2375
 3852SOL     OW13101   5.656   1.520   4.152 -0.6062  0.5456 -0.3574
 3852SOL    HW113102   5.696   1.460   4.214  1.2941  1.5377 -0.5368
 3852SOL    HW213103   5.667   1.478   4.067 -3.6347 -1.0369 -0.0850
 3853SOL     OW13104   1.546   0.373   0.750 -0.1696  0.0748 -0.2377
 3853SOL    HW113105   1.606   0.421   0.806 -0.3065  0.1821 -0.1834
 3853SOL    HW213106   1.593   0.292   0.728  0.1001  0.2751 -0.4097
 3854SOL     OW13107   1.679   6.668   0.479  0.0416 -0.0541  0.5982
 3854SOL    HW113108   1.770   6.667   0.507  0.4280 -0.3665 -0.6282
 3854SOL    HW213109   1.662   6.759   0.454  0.3072 -0.1854 -0.0724
 3855SOL     OW13110   3.555   1.168   2.107  0.0234 -0.2288 -0.0898
 3855SOL    HW113111   3.566   1.248   2.159  0.6055 -1.3985  1.6890
 3855SOL    HW213112   3.642   1.150   2.072 -0.6592  1.4314 -2.9956
 3856SOL     OW13113   5.179   4.955   1.729 -0.4730  0.2104 -0.3409
 3856SOL    HW113114   5.236   5.022   1.766 -0.0178  0.2424 -1.0784
 3856SOL    HW213115   5.132   4.919   1.804  2.1404 -1.4000  0.6508
 3857SOL     OW13116   5.017   5.555   4.748 -0.3766  0.6576 -0.2923
 3857SOL    HW113117   4.970   5.628   4.709 -0.3080  1.0870  0.4110
 3857SOL    HW213118   4.950   5.504   4.793 -0.2199  1.1092  0.4643
 3858SOL     OW13119   1.625   5.413   1.545 -0.4190  0.0719 -0.1623
 3858SOL    HW113120   1.541   5.375   1.571 -1.0516  0.2122 -1.8801
 3858SOL    HW213121   1.687   5.341   1.550 -0.7925 -0.2187  0.3831
 3859SOL     OW13122   0.118   4.120   5.502 -0.5152  0.3513  0.0258
 3859SOL    HW113123   0.057   4.047   5.515  0.6109 -0.6988 -0.4685
 3859SOL    HW213124   0.183   4.110   5.571 -0.4713  1.0393  0.0964
 3860SOL     OW13125   5.029   2.165   1.983  0.4127 -0.4590 -0.3096
 3860SOL    HW113126   4.969   2.162   1.909  0.4148 -1.9173 -0.2695
 3860SOL    HW213127   5.056   2.075   1.996  0.8988 -0.1351  1.0850
 3861SOL     OW13128   6.304   3.901   0.816 -0.1434  0.2562 -0.9588
 3861SOL    HW113129   6.318   3.920   0.909  0.9702 -2.1803 -0.5407
 3861SOL    HW213130   6.212   3.924   0.800 -0.3745  0.6645  0.7545
 3862SOL     OW13131   1.671   1.162   1.794  0.0455 -0.2131 -0.2998
 3862SOL    HW113132   1.638   1.252   1.790 -4.1309 -1.5652 -1.0960
 3862SOL    HW213133   1.755   1.165   1.749  1.0107  3.5443  1.3522
 3863SOL     OW13134   3.293   4.019   0.807 -0.4234  0.1861 -0.1644
 3863SOL    HW113135   3.293   3.934   0.850  1.1318 -0.8324 -2.0414
 3863SOL    HW213136   3.369   4.064   0.845  0.7143 -0.5629 -1.4688
 3864SOL     OW13137   1.165   6.718   4.581  0.1489  0.4091 -0.1133
 3864SOL    HW113138   1.176   6.809   4.553 -0.7501  1.0641  1.5091
 3864SOL    HW213139   1.235   6.705   4.646 -1.2895  0.8251  1.5870
 3865SOL     OW13140   6.543   5.945   2.497  0.6230  0.2619 -0.2114
 3865SOL    HW113141   6.488   5.958   2.574  0.6440  1.9333 -0.4384
 3865SOL    HW213142   6.518   5.859   2.464 -1.8827  0.9479 -0.3242
 3866SOL     OW13143   1.396   4.703   3.654 -0.4792 -0.2994  0.6710
 3866SOL    HW113144   1.378   4.634   3.590 -1.2177  0.9090 -0.4729
 3866SOL    HW213145   1.491   4.706   3.660 -0.2172  1.1238 -2.2391
 3867SOL     OW13146   1.532   0.726   0.425  0.2474  0.0599  0.0678
 3867SOL    HW113147   1.547   0.790   0.356  1.4296 -0.6974 -0.4149
 3867SOL    HW213148   1.552   0.773   0.506 -1.4913  1.0613 -0.0204
 3868SOL     OW13149   6.495   6.621   5.991 -0.3876  0.5726 -0.2890
 3868SOL    HW113150   6.573   6.565   5.985 -1.3163 -0.8091  0.2086
 3868SOL    HW213151   6.429   6.567   6.034 -1.6715  1.6891 -0.7745
 3869SOL     OW13152   0.173   3.734   5.509  0.1146  0.4452 -0.3123
 3869SOL    HW113153   0.109   3.795   5.472  0.1623 -0.4426 -2.0048
 3869SOL    HW213154   0.147   3.648   5.474 -0.6548 -0.7841  2.8950
 3870SOL     OW13155   6.472   5.998   0.087 -0.4130  0.4723 -0.4141
 3870SOL    HW113156   6.389   6.044   0.102 -1.4992 -0.3073 -3.3672
 3870SOL    HW213157   6.534   6.067   0.062  0.6319  1.3763  3.8124
 3871SOL     OW13158   6.599   0.569   6.609 -0.0437 -0.6549 -0.1661
 3871SOL    HW113159   6.529   0.508   6.632 -0.2553 -0.6433 -0.7626
 3871SOL    HW213160   6.556   0.635   6.555  0.3577 -0.4490 -0.2370
 3872SOL     OW13161   4.797   0.026   1.319  0.0870 -0.5781  0.7012
 3872SOL    HW113162   4.772   0.114   1.291 -0.2796 -0.9278 -0.0748
 3872SOL    HW213163   4.889   0.035   1.345 -0.2501  0.2686  1.6682
 3873SOL     OW13164   2.784   3.004   0.282  0.1438  0.5339 -0.0037
 3873SOL    HW113165   2.826   3.012   0.196  0.8882 -1.2706  0.1463
 3873SOL    HW213166   2.692   2.989   0.262  0.0213  1.7106 -0.4190
 3874SOL     OW13167   3.088   5.398   4.395  0.0230  0.3387 -0.2949
 3874SOL    HW113168   3.137   5.331   4.348 -0.0691 -0.1343  0.2685
 3874SOL    HW213169   3.076   5.362   4.483 -0.3717  0.9254 -0.0998
 3875SOL     OW13170   3.556   6.593   2.429  0.9245 -0.3864 -0.0230
 3875SOL    HW113171   3.522   6.680   2.406  2.2530 -0.6698 -3.7225
 3875SOL    HW213172   3.481   6.534   2.419  0.3934  0.1007  0.9713
 3876SOL     OW13173   1.168   2.609   6.486 -0.4343 -0.3865  0.4432
 3876SOL    HW113174   1.138   2.622   6.396 -0.6012 -0.2583  0.5161
 3876SOL    HW213175   1.172   2.513   6.495 -0.8485 -0.4103  0.4355
 3877SOL     OW13176   3.836   4.411   3.029 -0.2453  0.5810 -0.1194
 3877SOL    HW113177   3.845   4.317   3.010 -0.5189  0.5056  0.1279
 3877SOL    HW213178   3.894   4.453   2.965  2.5767  0.0853  1.9401
 3878SOL     OW13179   1.130   3.586   4.461 -0.2331 -0.0702  0.2692
 3878SOL    HW113180   1.200   3.540   4.415 -0.6584  0.6504 -1.1529
 3878SOL    HW213181   1.144   3.678   4.442 -1.3764  0.1162  0.2127
 3879SOL     OW13182   0.696   3.181   1.031 -0.2793  0.2253  0.0943
 3879SOL    HW113183   0.738   3.100   1.002 -0.6781  0.2968 -0.7312
 3879SOL    HW213184   0.668   3.164   1.121 -0.9018 -0.7808 -0.2701
 3880SOL     OW13185   0.659   4.331   3.935  0.0745 -0.0745 -0.0917
 3880SOL    HW113186   0.741   4.301   3.975 -0.8282  1.5622  3.3982
 3880SOL    HW213187   0.591   4.284   3.983 -1.1074  1.6089 -0.0579
 3881SOL     OW13188   4.088   0.855   5.902 -0.1795 -0.3554 -0.1214
 3881SOL    HW113189   4.115   0.769   5.934 -0.3054 -0.8262 -1.2224
 3881SOL    HW213190   4.139   0.868   5.821 -0.1337  0.6242  0.0465
 3882SOL     OW13191   3.616   4.734   1.595 -0.1178 -0.4008  0.0315
 3882SOL    HW113192   3.700   4.698   1.567 -0.5129 -2.0378  0.8520
 3882SOL    HW213193   3.632   4.827   1.607  1.3935 -0.5780 -0.4735
 3883SOL     OW13194   0.044   2.209   5.445  0.2433 -0.5901  0.2043
 3883SOL    HW113195   0.133   2.242   5.438 -0.4018  1.0897 -0.5753
 3883SOL    HW213196   0.019   2.188   5.355 -1.7785  3.6618 -0.4411
 3884SOL     OW13197   1.137   0.543   4.488  0.6647 -0.0070 -0.0751
 3884SOL    HW113198   1.176   0.485   4.554 -1.8997 -1.2337  0.4862
 3884SOL    HW213199   1.159   0.502   4.404  0.1136 -1.0182  0.2564
 3885SOL     OW13200   5.330   4.695   4.744 -0.2502 -0.1260 -0.2983
 3885SOL    HW113201   5.242   4.701   4.705 -0.3921  1.0685  0.1781
 3885SOL    HW213202   5.389   4.697   4.669 -0.5156  2.3494 -0.5091
 3886SOL     OW13203   0.446   6.748   2.675  0.3617  0.0256 -0.1166
 3886SOL    HW113204   0.464   6.724   2.584 -1.0134 -0.4361 -0.2932
 3886SOL    HW213205   0.430   6.665   2.718  0.3063  0.3004  0.3919
 3887SOL     OW13206   1.700   4.986   3.761  0.3391 -0.9037  0.2804
 3887SOL    HW113207   1.660   5.004   3.676 -0.4351 -0.9667  0.6156
 3887SOL    HW213208   1.684   4.892   3.776 -0.5726 -0.6598  0.9938
 3888SOL     OW13209   5.740   0.838   4.044 -0.1816  0.3195  0.1290
 3888SOL    HW113210   5.662   0.843   3.988  0.9923 -0.3270 -1.6508
 3888SOL    HW213211   5.774   0.750   4.030  2.4778  1.4801 -1.4670
 3889SOL     OW13212   5.291   2.489   5.376 -0.4719 -0.5373  0.4039
 3889SOL    HW113213   5.260   2.486   5.286 -1.1472  0.2324  0.6002
 3889SOL    HW213214   5.316   2.399   5.396  0.9248 -0.4911 -0.9698
 3890SOL     OW13215   4.850   5.964   0.917 -0.8761  0.2108 -0.6608
 3890SOL    HW113216   4.850   5.893   0.852 -1.5312 -1.5758  1.2083
 3890SOL    HW213217   4.942   5.992   0.920 -0.4572 -1.0429 -0.9369
 3891SOL     OW13218   2.437   2.286   6.438 -0.4296  0.3251 -0.1896
 3891SOL    HW113219   2.486   2.337   6.374 -1.3523  1.9529  0.3296
 3891SOL    HW213220   2.485   2.298   6.520 -0.7704  0.5728 -0.0205
 3892SOL     OW13221   0.583   1.129   2.267  0.2549  0.1099 -0.0065
 3892SOL    HW113222   0.589   1.037   2.239  0.3416 -0.1857  0.9373
 3892SOL    HW213223   0.576   1.124   2.362  2.8716  1.1576  0.3243
 3893SOL     OW13224   2.692   5.187   0.808  0.3159  0.0100 -0.1763
 3893SOL    HW113225   2.701   5.112   0.867 -0.6619 -0.8017 -1.0193
 3893SOL    HW213226   2.782   5.220   0.797  0.8821 -1.5697 -0.4732
 3894SOL     OW13227   3.565   2.680   1.996  0.3886 -0.0337  0.0130
 3894SOL    HW113228   3.601   2.662   1.909 -0.2060 -2.8780  0.2652
 3894SOL    HW213229   3.586   2.602   2.048 -0.2255  1.1176  2.1240
 3895SOL     OW13230   1.865   4.319   2.579 -0.6479  0.0014  0.1457
 3895SOL    HW113231   1.944   4.282   2.617  0.1016 -0.4875 -1.7708
 3895SOL    HW213232   1.800   4.249   2.587  0.2508 -1.1447 -1.7823
 3896SOL     OW13233   0.728   1.920   1.485 -0.1411 -0.5836 -0.3557
 3896SOL    HW113234   0.822   1.907   1.472  0.4850  0.6752  2.3395
 3896SOL    HW213235   0.717   2.015   1.484 -1.2617 -0.6981  0.1096
 3897SOL     OW13236   5.582   5.766   2.386 -0.2627  0.1539  0.3897
 3897SOL    HW113237   5.550   5.770   2.476 -1.9253  0.8380 -0.1724
 3897SOL    HW213238   5.558   5.678   2.356  2.4112 -0.9761  1.2731
 3898SOL     OW13239   0.228   2.521   5.739 -0.0782 -0.1150 -0.1838
 3898SOL    HW113240   0.267   2.444   5.699 -0.1072 -0.2973  0.1395
 3898SOL    HW213241   0.192   2.571   5.666  2.0813  0.8173 -0.6870
 3899SOL     OW13242   4.879   2.260   2.216  0.4196  0.1334  0.2725
 3899SOL    HW113243   4.942   2.260   2.287  1.7577  0.7741 -0.8658
 3899SOL    HW213244   4.931   2.273   2.137 -1.0571 -0.1284 -0.7997
 3900SOL     OW13245   1.180   0.370   2.680  0.1453 -0.5231  0.2526
 3900SOL    HW113246   1.193   0.281   2.648  0.6898 -0.5696  0.5933
 3900SOL    HW213247   1.196   0.365   2.774 -0.9731 -0.2907  0.4606
 3901SOL     OW13248   5.469   6.778   2.485 -0.7859  0.1932  0.3075
 3901SOL    HW113249   5.446   6.745   2.398 -0.2799  1.2928 -0.2682
 3901SOL    HW213250   5.410   6.852   2.499 -0.2909  0.5514  0.5272
 3902SOL     OW13251   3.875   2.359   6.538 -0.3084 -0.5535 -0.2739
 3902SOL    HW113252   3.812   2.306   6.587  1.9876 -2.1822  1.1232
 3902SOL    HW213253   3.896   2.305   6.462  0.2585 -0.5478 -0.1193
 3903SOL     OW13254   2.880   5.411   2.070 -0.1932  0.0741  0.3930
 3903SOL    HW113255   2.888   5.350   2.143 -1.2613 -0.0163  0.4626
 3903SOL    HW213256   2.891   5.498   2.110  0.2404 -0.0227  0.4830
 3904SOL     OW13257   6.360   1.666   5.760 -0.1779 -0.1190 -0.4949
 3904SOL    HW113258   6.452   1.647   5.745  0.1027 -0.1838  1.1208
 3904SOL    HW213259   6.334   1.606   5.831 -1.0902  0.8411  0.0140
 3905SOL     OW13260   4.926   2.308   3.905 -0.6950 -0.0017  0.2168
 3905SOL    HW113261   4.853   2.281   3.961 -0.4979 -1.1251 -0.0423
 3905SOL    HW213262   4.960   2.387   3.947 -1.6664  0.1823  0.6842
 3906SOL     OW13263   4.906   3.637   0.258  0.0410 -0.1505  0.7867
 3906SOL    HW113264   4.876   3.559   0.305  1.3470 -0.7919  0.5834
 3906SOL    HW213265   4.989   3.659   0.299  1.6378 -1.1904 -1.6582
 3907SOL     OW13266   2.438   6.801   1.585  0.0654 -0.7230 -0.3569
 3907SOL    HW113267   2.498   6.756   1.644 -0.7604 -0.1943  0.9374
 3907SOL    HW213268   2.366   6.739   1.571  0.2873 -0.8719 -0.8862
 3908SOL     OW13269   0.854   2.970   0.978  0.2579 -0.1091 -0.2099
 3908SOL    HW113270   0.888   2.898   0.924 -0.4679 -0.2015 -0.5579
 3908SOL    HW213271   0.876   2.945   1.068 -2.5819 -2.3350  0.0337
 3909SOL     OW13272   3.940   0.055   0.352 -0.3626 -0.4271 -0.2144
 3909SOL    HW113273   4.032   0.080   0.363 -0.5107  0.2532 -0.5040
 3909SOL    HW213274   3.897   0.089   0.431 -0.2835 -1.1950  0.1719
 3910SOL     OW13275   6.312   5.576   2.133  0.2877 -0.6480 -0.2141
 3910SOL    HW113276   6.271   5.634   2.069  0.1108  0.6242  0.9914
 3910SOL    HW213277   6.397   5.616   2.150  0.9838 -1.8338 -0.7753
 3911SOL     OW13278   2.868   1.282   6.396 -0.4601 -0.7092  0.3107
 3911SOL    HW113279   2.811   1.329   6.336 -0.4711 -0.5002  0.4817
 3911SOL    HW213280   2.819   1.280   6.479 -0.4676 -1.0374  0.2996
 3912SOL     OW13281   6.216   3.517   6.386  0.3872  0.5113 -0.8265
 3912SOL    HW113282   6.131   3.512   6.429  0.4189  1.0042 -0.7067
 3912SOL    HW213283   6.274   3.465   6.443 -0.2357 -1.5313 -1.9476
 3913SOL     OW13284   3.083   4.962   5.875 -0.6083 -0.5644  0.3334
 3913SOL    HW113285   3.066   5.029   5.942 -0.9138 -2.0352  1.7700
 3913SOL    HW213286   3.067   4.879   5.919 -1.1253 -1.5836 -1.6833
 3914SOL     OW13287   1.329   6.106   0.287  0.4732 -0.0243 -0.1561
 3914SOL    HW113288   1.274   6.032   0.262  1.9412 -1.1921 -0.0111
 3914SOL    HW213289   1.301   6.177   0.229 -0.1643 -1.0183 -1.1015
 3915SOL     OW13290   4.921   3.927   1.264 -0.1383  0.1130  0.3109
 3915SOL    HW113291   4.960   4.009   1.234 -1.3251  0.9726  1.0232
 3915SOL    HW213292   4.901   3.943   1.357 -1.2891 -0.6084  0.2105
 3916SOL     OW13293   0.245   3.404   4.557 -0.1186 -0.6466 -0.1751
 3916SOL    HW113294   0.191   3.420   4.634  0.4538  2.0724 -0.2402
 3916SOL    HW213295   0.325   3.364   4.591 -0.5098 -0.9243  0.4318
 3917SOL     OW13296   3.909   0.227   0.879  0.5430 -0.3724  0.3293
 3917SOL    HW113297   3.872   0.307   0.916  1.7357  0.4116 -0.1088
 3917SOL    HW213298   3.996   0.253   0.848  1.5672 -2.1748  1.5253
 3918SOL     OW13299   6.367   3.865   3.435 -0.3315  0.0764 -0.0916
 3918SOL    HW113300   6.338   3.955   3.420 -1.0159 -0.1922 -0.4641
 3918SOL    HW213301   6.351   3.850   3.528  2.3357  1.2042  0.6280
 3919SOL     OW13302   6.311   3.400   4.099 -0.2550 -0.8537 -0.1241
 3919SOL    HW113303   6.301   3.396   4.195  1.0461 -0.2397  0.0618
 3919SOL    HW213304   6.224   3.382   4.065 -1.0169  0.1274  1.2138
 3920SOL     OW13305   2.431   4.529   1.587  0.0046  0.2908 -0.1398
 3920SOL    HW113306   2.444   4.526   1.492  0.0705  0.5266 -0.1400
 3920SOL    HW213307   2.444   4.622   1.610 -1.3843  0.4859 -0.0977
 3921SOL     OW13308   4.250   6.782   2.591  0.1017  0.0041  0.0300
 3921SOL    HW113309   4.193   6.725   2.539 -0.2457  2.9252 -3.1077
 3921SOL    HW213310   4.190   6.835   2.643  0.2357 -0.0172  0.2076
 3922SOL     OW13311   2.794   5.039   2.540 -0.3233  0.2866 -0.6930
 3922SOL    HW113312   2.764   4.950   2.557 -0.4963  0.4080 -0.3447
 3922SOL    HW213313   2.714   5.088   2.521 -0.3548  0.6050  0.2079
 3923SOL     OW13314   1.098   2.819   2.686  0.2501 -0.0907 -0.2343
 3923SOL    HW113315   1.136   2.733   2.671 -0.9353 -0.8111  0.7349
 3923SOL    HW213316   1.172   2.880   2.677  2.0269 -1.5200  3.0750
 3924SOL     OW13317   6.439   1.649   1.135 -0.2227  0.2170 -0.4745
 3924SOL    HW113318   6.530   1.663   1.109 -0.1493  0.8009  0.0692
 3924SOL    HW213319   6.395   1.621   1.055  0.5457 -0.6298 -0.6263
 3925SOL     OW13320   1.725   4.190   1.051 -0.2383 -0.0986 -1.0148
 3925SOL    HW113321   1.767   4.134   1.117 -0.7857 -2.1175 -2.2929
 3925SOL    HW213322   1.754   4.278   1.073  1.1318 -0.9245  0.7658
 3926SOL     OW13323   2.098   5.004   6.117 -0.3173  0.4925 -0.2178
 3926SOL    HW113324   2.036   4.935   6.091 -1.0019  1.0115  0.0194
 3926SOL    HW213325   2.056   5.047   6.191  0.6200  0.4521  0.3378
 3927SOL     OW13326   3.627   4.324   1.204  0.4815 -0.4386 -0.0720
 3927SOL    HW113327   3.656   4.325   1.295 -0.4556 -0.1134  0.2377
 3927SOL    HW213328   3.568   4.249   1.198 -0.3515  0.1938 -0.1018
 3928SOL     OW13329   5.640   1.338   1.993 -0.0599  0.4240 -0.2537
 3928SOL    HW113330   5.670   1.368   1.907  0.4907 -0.3839 -0.3623
 3928SOL    HW213331   5.697   1.383   2.055 -0.5708  1.1407 -0.3008
 3929SOL     OW13332   4.359   5.499   3.769 -0.1326 -0.1281  0.1378
 3929SOL    HW113333   4.314   5.419   3.795  0.3274 -0.1375  0.9274
 3929SOL    HW213334   4.303   5.537   3.701 -0.7620 -0.7064  0.3243
 3930SOL     OW13335   2.646   3.694   0.377  0.1359 -0.0012  0.2702
 3930SOL    HW113336   2.639   3.671   0.285  0.6186  0.0947  0.2061
 3930SOL    HW213337   2.727   3.745   0.383  0.0231  0.1311  0.7177
 3931SOL     OW13338   3.724   0.319   2.370 -0.7061 -0.1465  0.8019
 3931SOL    HW113339   3.655   0.375   2.405  0.2227  1.4141  0.2549
 3931SOL    HW213340   3.802   0.341   2.421 -0.5091 -1.6276  1.1870
 3932SOL     OW13341   0.594   1.693   2.822  0.0931 -0.3229 -0.1287
 3932SOL    HW113342   0.592   1.747   2.901 -1.4588  0.0080 -0.3591
 3932SOL    HW213343   0.621   1.752   2.752  0.9517 -0.4871  0.0630
 3933SOL     OW13344   2.737   3.927   0.684 -0.7782  0.3525 -0.9562
 3933SOL    HW113345   2.766   3.977   0.760 -0.8716 -0.7712 -0.1494
 3933SOL    HW213346   2.769   3.976   0.609  1.9609 -0.0590 -0.1470
 3934SOL     OW13347   1.321   4.450   3.138  0.3028 -0.5790  0.1746
 3934SOL    HW113348   1.317   4.525   3.078  0.6855  0.0306  0.8920
 3934SOL    HW213349   1.406   4.410   3.120 -0.2221 -1.3187 -0.7498
 3935SOL     OW13350   2.617   5.712   3.857  0.0490  0.0854  0.3567
 3935SOL    HW113351   2.523   5.727   3.869  0.3633  2.6066  0.1633
 3935SOL    HW213352   2.655   5.727   3.943  0.4581  0.8272  0.0520
 3936SOL     OW13353   0.646   3.217   4.080  0.1847  0.1018  0.2640
 3936SOL    HW113354   0.735   3.185   4.095  0.4142 -0.2282 -1.5691
 3936SOL    HW213355   0.657   3.310   4.060  0.3143 -0.2388 -1.3844
 3937SOL     OW13356   5.706   5.686   2.689 -0.2185  0.0871 -0.1737
 3937SOL    HW113357   5.763   5.706   2.763  0.1064 -1.0585 -0.1087
 3937SOL    HW213358   5.641   5.626   2.724 -0.5687  0.2004 -0.6193
 3938SOL     OW13359   1.300   2.594   4.586  0.2726  0.0528  0.3011
 3938SOL    HW113360   1.279   2.680   4.623 -0.6454  0.3284 -0.8313
 3938SOL    HW213361   1.268   2.597   4.496  0.4707 -1.3870  0.1524
 3939SOL     OW13362   1.737   5.952   2.977  0.2318  0.1428  0.5681
 3939SOL    HW113363   1.782   6.010   3.038 -0.0079  0.5794  0.3374
 3939SOL    HW213364   1.776   5.970   2.892 -2.1342  2.5513 -0.1762
 3940SOL     OW13365   4.539   3.697   1.468 -0.0261 -0.7690  0.0148
 3940SOL    HW113366   4.484   3.775   1.478  1.1826  0.3058 -1.3216
 3940SOL    HW213367   4.489   3.627   1.509 -1.7285  0.4610  0.1316
 3941SOL     OW13368   5.613   0.566   4.786  0.3855  0.4806 -0.0121
 3941SOL    HW113369   5.695   0.611   4.807  0.4556  0.5320 -0.3892
 3941SOL    HW213370   5.554   0.589   4.858  1.2435 -1.0307  1.2416
 3942SOL     OW13371   3.271   1.139   1.982  0.1804 -0.1247 -1.0933
 3942SOL    HW113372   3.226   1.057   2.005  0.0357 -0.2544 -1.8110
 3942SOL    HW213373   3.357   1.131   2.022 -0.5659  0.3212  0.6885
 3943SOL     OW13374   1.393   0.169   5.560 -0.3372 -0.0533  0.1389
 3943SOL    HW113375   1.435   0.166   5.475  1.2615 -0.1154  0.8939
 3943SOL    HW213376   1.323   0.234   5.550  0.9698  1.2853 -0.7259
 3944SOL     OW13377   0.826   1.604   4.734 -0.0107  0.0673  0.3782
 3944SOL    HW113378   0.890   1.609   4.664  0.1260  2.7358  0.6082
 3944SOL    HW213379   0.844   1.520   4.777  2.3718  0.0775 -0.4619
 3945SOL     OW13380   1.420   1.870   0.399 -0.7478 -0.3189 -0.1447
 3945SOL    HW113381   1.379   1.784   0.409  0.4464 -0.9213 -0.2326
 3945SOL    HW213382   1.478   1.878   0.475  0.6195 -0.4653 -1.1163
 3946SOL     OW13383   0.736   5.868   2.662  0.4693 -0.2281  0.7075
 3946SOL    HW113384   0.676   5.794   2.649  0.1840  0.3280 -1.4965
 3946SOL    HW213385   0.690   5.943   2.624  1.4795  0.7484  1.3575
 3947SOL     OW13386   3.758   6.415   5.279  0.0249  0.1063 -0.2214
 3947SOL    HW113387   3.805   6.477   5.222 -2.5558  2.8130  0.3575
 3947SOL    HW213388   3.755   6.458   5.364  0.5481 -2.1764  1.0254
 3948SOL     OW13389   4.525   0.772   6.176 -0.3086 -0.3142  0.0324
 3948SOL    HW113390   4.543   0.811   6.091 -0.5786 -0.3961 -0.0642
 3948SOL    HW213391   4.600   0.714   6.193 -0.2815 -0.3393 -0.1729
 3949SOL     OW13392   4.780   0.284   3.064  0.2251 -0.3434  0.1252
 3949SOL    HW113393   4.839   0.250   3.131  0.7373  0.0869 -0.0879
 3949SOL    HW213394   4.730   0.352   3.109  2.0984  1.5096 -0.3868
 3950SOL     OW13395   5.584   3.224   6.365 -0.0837 -0.7026  0.0469
 3950SOL    HW113396   5.678   3.221   6.381 -0.2208  0.5123  1.3169
 3950SOL    HW213397   5.545   3.176   6.437 -0.4598 -0.9163 -0.2927
 3951SOL     OW13398   4.295   5.192   1.166  0.4301 -0.1674 -0.3640
 3951SOL    HW113399   4.336   5.116   1.124  0.6198 -0.7147  0.7969
 3951SOL    HW213400   4.359   5.262   1.156  0.0716 -0.0039 -1.8412
 3952SOL     OW13401   2.753   3.621   1.642  0.1689 -0.4838 -0.3674
 3952SOL    HW113402   2.737   3.530   1.617  0.3254 -0.3682 -0.9042
 3952SOL    HW213403   2.697   3.635   1.719  0.7994 -1.2832  0.2503
 3953SOL     OW13404   0.256   1.973   1.194 -0.1916 -0.2464 -0.2587
 3953SOL    HW113405   0.288   2.011   1.112 -0.2789 -0.9164 -0.6064
 3953SOL    HW213406   0.335   1.939   1.236  0.2699  2.3301  1.1696
 3954SOL     OW13407   6.315   5.065   4.143 -0.1159 -0.5100 -0.3049
 3954SOL    HW113408   6.392   5.109   4.108 -0.3334  0.9238  0.9253
 3954SOL    HW213409   6.245   5.084   4.080  0.2663 -0.8811 -0.8491
 3955SOL     OW13410   1.905   2.861   2.482 -0.1690 -0.0329  0.3814
 3955SOL    HW113411   1.929   2.907   2.401  0.5948 -0.9803  0.0550
 3955SOL    HW213412   1.831   2.911   2.516  0.3037  1.1409 -0.2292
 3956SOL     OW13413   6.438   6.583   2.335 -0.1464  0.0768 -0.7975
 3956SOL    HW113414   6.456   6.495   2.302  1.2739 -0.2688  0.8097
 3956SOL    HW213415   6.522   6.627   2.334 -0.7562  1.2787 -1.1076
 3957SOL     OW13416   5.229   6.785   6.778  0.3414  0.2078  0.1935
 3957SOL    HW113417   5.303   6.779   6.717 -0.8831  0.9540 -1.4612
 3957SOL    HW213418   5.224   6.878   6.800 -1.8596  0.7485 -2.1348
 3958SOL     OW13419   5.393   5.795   2.058 -0.1415  0.0667  0.1323
 3958SOL    HW113420   5.473   5.847   2.051  0.9052 -1.2309  1.7508
 3958SOL    HW213421   5.423   5.705   2.070 -1.9011 -1.0088 -2.6215
 3959SOL     OW13422   1.082   5.818   5.446 -0.0199 -0.1631 -0.3361
 3959SOL    HW113423   1.146   5.845   5.379  0.3273  1.1331  0.4835
 3959SOL    HW213424   1.092   5.882   5.516 -0.6984 -1.2296  0.7796
 3960SOL     OW13425   2.130   5.862   2.455 -0.3342  0.6272 -0.2168
 3960SOL    HW113426   2.123   5.859   2.551 -2.3177  0.2882 -0.3146
 3960SOL    HW213427   2.132   5.955   2.434 -2.5546  0.8037  0.0902
 3961SOL     OW13428   3.360   3.899   2.062 -0.0356  0.3565  0.0234
 3961SOL    HW113429   3.318   3.815   2.076 -0.6144  0.8747  1.6236
 3961SOL    HW213430   3.345   3.919   1.970 -2.1846 -0.0786  0.2407
 3962SOL     OW13431   3.663   6.142   4.066 -0.3638 -0.0612  1.2544
 3962SOL    HW113432   3.707   6.225   4.048  0.0698 -0.7934 -1.3260
 3962SOL    HW213433   3.569   6.164   4.061 -0.2658  0.0520 -0.8530
 3963SOL     OW13434   1.918   0.091   1.545 -0.4495 -0.2514  0.0953
 3963SOL    HW113435   1.989   0.049   1.593 -0.8980 -0.3814  0.6561
 3963SOL    HW213436   1.842   0.033   1.558 -1.0001  0.5636  0.6466
 3964SOL     OW13437   4.771   2.077   3.137  0.5575  0.1670 -0.3602
 3964SOL    HW113438   4.683   2.044   3.152  0.4946  0.5028  0.0138
 3964SOL    HW213439   4.770   2.166   3.172  1.6658 -0.5777  1.7801
 3965SOL     OW13440   1.655   2.130   2.501  0.0212  0.5170 -0.8118
 3965SOL    HW113441   1.562   2.152   2.489  0.0525  0.5921 -0.9163
 3965SOL    HW213442   1.702   2.208   2.473  0.0248  1.8833  2.4903
 3966SOL     OW13443   1.586   6.533   4.938  0.2760 -0.0294 -0.0130
 3966SOL    HW113444   1.585   6.535   5.034  0.3992  0.2556 -0.0202
 3966SOL    HW213445   1.504   6.576   4.913 -1.0375 -2.3247  0.0081
 3967SOL     OW13446   6.194   2.971   5.673 -0.2589 -0.1458  0.0590
 3967SOL    HW113447   6.171   3.060   5.647  1.0480  0.4254  0.7617
 3967SOL    HW213448   6.152   2.958   5.758 -1.2383 -0.5660 -0.4741
 3968SOL     OW13449   5.400   0.536   1.245  0.3632  0.4771 -0.1706
 3968SOL    HW113450   5.460   0.564   1.314 -0.8878 -0.5442  1.3893
 3968SOL    HW213451   5.439   0.456   1.210 -0.8836 -1.1949  2.0583
 3969SOL     OW13452   4.008   0.234   3.006  0.6226 -0.1966 -0.4096
 3969SOL    HW113453   4.024   0.328   3.018 -0.5407 -0.1284  0.9073
 3969SOL    HW213454   4.032   0.195   3.090  1.4198 -1.1499 -1.0530
 3970SOL     OW13455   5.454   5.956   6.462  0.3674 -0.2367 -0.2348
 3970SOL    HW113456   5.396   5.981   6.389 -0.2770  0.3056  0.4469
 3970SOL    HW213457   5.528   6.016   6.456  0.6844 -0.6844 -0.8859
 3971SOL     OW13458   5.197   3.320   5.700  0.6682 -0.0172 -0.4938
 3971SOL    HW113459   5.211   3.302   5.607  2.0155  0.1014 -0.3409
 3971SOL    HW213460   5.258   3.391   5.720 -0.9601  1.2888  0.0728
 3972SOL     OW13461   3.345   4.251   5.671  0.4143  0.3035  0.0516
 3972SOL    HW113462   3.309   4.182   5.615  0.2757  1.2228 -1.0272
 3972SOL    HW213463   3.407   4.297   5.615  1.0232  0.6336  0.9745
 3973SOL     OW13464   3.443   3.243   3.686 -0.0707  0.3616  0.0011
 3973SOL    HW113465   3.515   3.303   3.702 -0.3531  1.3306 -2.0381
 3973SOL    HW213466   3.484   3.157   3.678  1.1656  1.0785 -2.6230
 3974SOL     OW13467   6.626   2.743   5.248 -0.1312 -0.3141 -0.0400
 3974SOL    HW113468   6.599   2.743   5.157 -1.0485  0.2657  0.2213
 3974SOL    HW213469   6.596   2.827   5.283  2.2625  0.5096  0.2258
 3975SOL     OW13470   4.274   3.964   5.298 -0.2709 -0.3756  0.0114
 3975SOL    HW113471   4.253   4.027   5.229  3.1626  1.0715  0.0904
 3975SOL    HW213472   4.325   3.896   5.254  0.8413 -0.1123  0.8473
 3976SOL     OW13473   1.052   2.059   3.384  0.3243  0.3481  0.4532
 3976SOL    HW113474   1.085   2.125   3.323  0.2344  0.0500  0.0748
 3976SOL    HW213475   0.960   2.049   3.360  1.1631 -2.8316 -2.2910
 3977SOL     OW13476   0.909   6.233   4.391 -0.4809 -0.2523  0.3434
 3977SOL    HW113477   0.900   6.289   4.468  1.5656  3.0534 -1.5910
 3977SOL    HW213478   1.002   6.214   4.386 -0.2772  1.0245 -2.1311
 3978SOL     OW13479   0.228   0.619   1.078 -0.3379  1.0295  0.0007
 3978SOL    HW113480   0.295   0.551   1.076 -1.9718 -0.6571 -0.6561
 3978SOL    HW213481   0.238   0.661   1.164 -0.5795 -1.4560  1.3151
 3979SOL     OW13482   2.641   6.660   1.708  0.0858 -0.3144 -0.4586
 3979SOL    HW113483   2.669   6.630   1.621  1.2767 -0.9861  0.1367
 3979SOL    HW213484   2.699   6.614   1.769 -0.9058 -0.0492  0.7123
 3980SOL     OW13485   5.177   3.947   4.936  0.1492  0.4553  0.5052
 3980SOL    HW113486   5.186   3.853   4.918  0.3894  0.7312 -0.8842
 3980SOL    HW213487   5.248   3.967   4.997  3.2669  0.6525 -2.8718
 3981SOL     OW13488   3.029   2.272   5.728 -0.2347  0.2556 -0.0474
 3981SOL    HW113489   2.934   2.279   5.727 -0.2133  0.7181 -1.2575
 3981SOL    HW213490   3.059   2.357   5.761 -0.2357 -0.4369  1.8728
 3982SOL     OW13491   0.142   6.476   2.287 -0.1026 -0.1715  0.5040
 3982SOL    HW113492   0.068   6.471   2.225 -0.1230  2.0693  0.2774
 3982SOL    HW213493   0.107   6.440   2.368 -1.1087 -0.1482  0.0969
 3983SOL     OW13494   4.922   5.832   2.385  0.5751  0.4667  0.0596
 3983SOL    HW113495   4.972   5.898   2.338  1.7077  0.4049  1.1313
 3983SOL    HW213496   4.979   5.804   2.456 -0.8008  0.0340  1.0495
 3984SOL     OW13497   1.419   4.847   2.654  0.3848  0.8233  0.1406
 3984SOL    HW113498   1.394   4.806   2.571 -1.3905 -0.1163  1.0741
 3984SOL    HW213499   1.431   4.774   2.714 -0.7483  1.5392  1.3004
 3985SOL     OW13500   6.352   2.641   0.384 -0.0649  0.0617 -0.0022
 3985SOL    HW113501   6.306   2.595   0.314 -0.9464  1.3982 -0.3399
 3985SOL    HW213502   6.443   2.616   0.373 -0.5746 -2.1212  0.2547
 3986SOL     OW13503   1.489   4.732   0.292  0.2477  1.0700 -0.1372
 3986SOL    HW113504   1.520   4.737   0.383  0.4956 -0.9371 -0.0720
 3986SOL    HW213505   1.414   4.791   0.289 -0.1120  0.7429  1.5296
 3987SOL     OW13506   4.200   2.511   0.715  0.3145 -0.3053  0.2699
 3987SOL    HW113507   4.179   2.534   0.624  1.5625  0.7344  0.2034
 3987SOL    HW213508   4.199   2.416   0.716  2.4743 -0.4472 -1.4566
 3988SOL     OW13509   5.555   0.390   0.605  0.2147 -0.0863 -0.0659
 3988SOL    HW113510   5.590   0.345   0.682 -0.4661  1.1054  0.9821
 3988SOL    HW213511   5.590   0.479   0.612  0.1978  0.0176 -1.1812
 3989SOL     OW13512   0.887   6.241   2.665  0.5461  0.3014  0.8640
 3989SOL    HW113513   0.855   6.310   2.724  2.0399  1.3330  0.5365
 3989SOL    HW213514   0.825   6.169   2.677 -0.7662  1.4882  1.6322
 3990SOL     OW13515   6.048   3.934   0.727  0.3608 -0.1375 -0.2901
 3990SOL    HW113516   6.030   3.904   0.638  0.7387 -4.1167  0.7815
 3990SOL    HW213517   5.974   3.904   0.778 -0.0845  2.5052  0.7821
 3991SOL     OW13518   4.601   0.038   0.701 -0.0389  0.1446 -0.2272
 3991SOL    HW113519   4.656  -0.035   0.675 -1.8721 -1.0524 -0.9895
 3991SOL    HW213520   4.654   0.088   0.763  1.7151 -1.1248 -0.6402
 3992SOL     OW13521   2.845   3.972   6.477 -0.1418 -0.0647  0.0825
 3992SOL    HW113522   2.899   3.904   6.518 -0.3245  0.4945  1.2864
 3992SOL    HW213523   2.829   3.939   6.388  1.5855 -0.5636 -0.0816
 3993SOL     OW13524   3.430   1.053   5.066 -0.6312  0.4519  0.0382
 3993SOL    HW113525   3.509   1.014   5.030 -1.3195 -1.4121  0.4606
 3993SOL    HW213526   3.461   1.131   5.112  0.8793  0.0524 -0.2550
 3994SOL     OW13527   3.293   3.140   4.697 -0.3661  1.1916  0.7249
 3994SOL    HW113528   3.231   3.212   4.707 -1.3877  0.6858 -1.3902
 3994SOL    HW213529   3.373   3.172   4.737 -1.4395  2.6185  1.8353
 3995SOL     OW13530   6.035   3.992   1.151 -0.2680 -0.5456 -0.4634
 3995SOL    HW113531   6.045   4.062   1.215 -1.3358 -1.5444  0.8369
 3995SOL    HW213532   6.125   3.966   1.130  0.1093 -1.0195  1.5771
 3996SOL     OW13533   5.915   3.316   0.081  0.0389  0.1096 -0.5273
 3996SOL    HW113534   5.960   3.293   0.000 -2.0823  1.2700 -2.1558
 3996SOL    HW213535   5.837   3.261   0.081  0.2505 -0.2304  1.0273
 3997SOL     OW13536   0.022   1.320   3.010 -0.2187  0.2179  0.1248
 3997SOL    HW113537  -0.037   1.325   2.935  0.5559  0.8350 -0.4678
 3997SOL    HW213538  -0.031   1.283   3.081 -0.8351 -0.8333 -0.8539
 3998SOL     OW13539   1.781   5.093   0.474  0.0853 -0.4418  0.2572
 3998SOL    HW113540   1.780   4.998   0.473  1.3966 -0.4659  0.6089
 3998SOL    HW213541   1.688   5.117   0.475 -0.3029 -1.6731 -1.4460
 3999SOL     OW13542   0.892   2.110   1.770  0.4222 -0.0920 -0.7461
 3999SOL    HW113543   0.936   2.096   1.853  0.3643 -3.1668 -1.0936
 3999SOL    HW213544   0.962   2.107   1.705  0.3936  1.6787 -0.9034
 4000SOL     OW13545   0.873   2.748   0.808  0.4507  0.4229  0.1266
 4000SOL    HW113546   0.829   2.685   0.866  0.8925 -0.0932 -0.0886
 4000SOL    HW213547   0.810   2.764   0.738  0.5202 -0.1632 -0.0793
 4001SOL     OW13548   2.519   6.274   0.159 -0.3956 -0.1688 -0.0478
 4001SOL    HW113549   2.462   6.318   0.096 -1.5337 -0.6325  0.6299
 4001SOL    HW213550   2.464   6.207   0.199  0.4145 -0.1483  1.1602
 4002SOL     OW13551   5.429   6.419   5.680  0.3022 -0.0894  0.3465
 4002SOL    HW113552   5.337   6.406   5.706 -0.0838  1.7782  0.0729
 4002SOL    HW213553   5.428   6.414   5.585  0.2621  1.0276  0.2755
 4003SOL     OW13554   3.236   5.257   5.716 -0.1472  0.3393  0.0628
 4003SOL    HW113555   3.289   5.177   5.711  2.2855  1.9244 -0.9780
 4003SOL    HW213556   3.231   5.277   5.809 -1.0032 -1.0933  0.3683
 4004SOL     OW13557   3.683   4.456   3.699  0.1657 -0.3696  0.1431
 4004SOL    HW113558   3.756   4.507   3.662 -0.3721  0.4250  0.1538
 4004SOL    HW213559   3.697   4.367   3.666  1.6042 -0.4241  0.8164
 4005SOL     OW13560   4.162   4.425   0.773 -0.2879 -0.1186  0.0909
 4005SOL    HW113561   4.231   4.488   0.795  0.2368 -0.3382 -0.8705
 4005SOL    HW213562   4.098   4.435   0.843 -0.6070  2.0645 -0.4249
 4006SOL     OW13563   1.320   4.084   1.711  0.1793 -0.2290  0.0630
 4006SOL    HW113564   1.396   4.039   1.675  0.2965 -0.7034  0.8845
 4006SOL    HW213565   1.335   4.084   1.806 -1.1365 -0.8604  0.2815
 4007SOL     OW13566   0.308   1.337   6.153 -0.7234  0.1887 -0.6144
 4007SOL    HW113567   0.273   1.401   6.215 -0.3388 -0.6273  0.4886
 4007SOL    HW213568   0.284   1.370   6.067 -1.4128  1.2776 -0.0185
 4008SOL     OW13569   4.873   1.437   3.790  0.3346 -0.0680  0.2271
 4008SOL    HW113570   4.822   1.402   3.717  0.5929  3.1234 -1.6844
 4008SOL    HW213571   4.809   1.484   3.843  0.6581  0.4578  0.1522
 4009SOL     OW13572   0.636   5.382   2.296 -0.0138 -0.0175  0.5935
 4009SOL    HW113573   0.659   5.369   2.204 -0.3831 -0.2685  0.5339
 4009SOL    HW213574   0.690   5.456   2.324  0.5732 -0.3582  0.3584
 4010SOL     OW13575   2.666   3.514   0.852 -0.3143 -0.2411 -0.0513
 4010SOL    HW113576   2.679   3.579   0.782  1.2535 -1.2882 -0.7965
 4010SOL    HW213577   2.571   3.503   0.858 -0.4883 -0.8223 -2.7072
 4011SOL     OW13578   1.099   3.571   2.578  0.0196  0.4039  0.3553
 4011SOL    HW113579   1.172   3.546   2.636 -0.5063 -0.7173  0.5542
 4011SOL    HW213580   1.140   3.580   2.492  0.0572 -2.5452 -0.0292
 4012SOL     OW13581   5.370   2.455   3.891  0.8025  0.3738  0.6586
 4012SOL    HW113582   5.371   2.372   3.939 -1.2088  0.5246  1.0620
 4012SOL    HW213583   5.287   2.496   3.916 -0.8532  0.0927 -3.5601
 4013SOL     OW13584   4.132   0.230   1.954  0.1117 -0.0463  0.2153
 4013SOL    HW113585   4.121   0.197   2.044  1.4803 -2.0813 -0.2860
 4013SOL    HW213586   4.192   0.167   1.913 -0.1006  1.1022 -1.9931
 4014SOL     OW13587   0.051   4.909   5.326 -0.5755  0.1097 -0.0547
 4014SOL    HW113588   0.045   4.926   5.420 -0.3255  0.0702 -0.0306
 4014SOL    HW213589   0.013   4.822   5.315 -2.6196  0.9801 -0.2900
 4015SOL     OW13590   2.990   5.830   2.013  0.4762 -0.1134  0.2816
 4015SOL    HW113591   3.019   5.881   1.937  2.6197 -0.7812  0.5986
 4015SOL    HW213592   3.050   5.855   2.083 -0.2440 -0.9676  1.2339
 4016SOL     OW13593   3.202   0.333   0.475 -0.6076  0.1155 -0.0643
 4016SOL    HW113594   3.115   0.368   0.459 -0.2728  0.9600 -0.0916
 4016SOL    HW213595   3.187   0.244   0.507 -1.5535  0.8511  1.6707
 4017SOL     OW13596   0.349   4.035   5.383 -0.1357  0.4534  0.1555
 4017SOL    HW113597   0.276   4.088   5.417 -0.4774 -0.7837  1.4662
 4017SOL    HW213598   0.306   3.961   5.340  0.3176 -0.6863  1.6048
 4018SOL     OW13599   5.474   5.896   3.568  0.5109  0.0700 -0.2817
 4018SOL    HW113600   5.417   5.844   3.625  1.5628 -2.2851 -1.2760
 4018SOL    HW213601   5.414   5.943   3.511 -0.4907  0.6517  1.1901
 4019SOL     OW13602   5.939   1.928   5.762 -0.6819  0.3330  0.0155
 4019SOL    HW113603   6.033   1.940   5.752 -0.7196  0.3025 -0.3555
 4019SOL    HW213604   5.916   1.861   5.698 -1.2134  1.4184 -0.9438
 4020SOL     OW13605   4.866   1.989   2.880  0.3658  0.2654 -0.3089
 4020SOL    HW113606   4.824   2.023   2.959  0.6023 -0.6528  0.2187
 4020SOL    HW213607   4.941   2.047   2.866  0.6072  0.1383  0.4211
 4021SOL     OW13608   4.620   4.422   0.952  0.7752  0.3301  0.1941
 4021SOL    HW113609   4.549   4.361   0.970  0.6475  0.7581  1.1945
 4021SOL    HW213610   4.673   4.422   1.032  1.8843  0.0550 -0.5110
 4022SOL     OW13611   3.014   3.283   3.933  0.0728 -0.3620 -0.3245
 4022SOL    HW113612   2.949   3.339   3.890  0.9538  0.9451 -0.0271
 4022SOL    HW213613   2.962   3.223   3.987 -0.9105  0.3581 -0.4412
 4023SOL     OW13614   0.960   0.344   4.274  0.3844  0.2306  0.6634
 4023SOL    HW113615   1.019   0.349   4.199  0.1631 -0.9016  0.3876
 4023SOL    HW213616   0.923   0.431   4.282 -0.9981 -0.0629 -1.7266
 4024SOL     OW13617   6.471   6.345   2.224 -0.0351 -0.5408 -0.6912
 4024SOL    HW113618   6.564   6.344   2.200 -0.3155  1.1046 -1.9878
 4024SOL    HW213619   6.425   6.337   2.141 -1.0601 -0.1479 -0.1711
 4025SOL     OW13620   1.601   4.350   4.173 -0.7997 -0.3260 -0.1936
 4025SOL    HW113621   1.565   4.301   4.247  3.5848 -0.3578  2.2463
 4025SOL    HW213622   1.641   4.282   4.117  0.9886  0.0123  0.6040
 4026SOL     OW13623   4.038   4.163   5.914 -0.0015 -0.1810 -0.2287
 4026SOL    HW113624   4.061   4.132   6.002  2.0887 -0.2289 -0.7398
 4026SOL    HW213625   4.058   4.090   5.856 -0.6026  0.1308 -0.8503
 4027SOL     OW13626   0.021   0.708   2.214  0.3449  0.1203 -0.2598
 4027SOL    HW113627   0.074   0.630   2.230 -0.3094 -0.2961 -0.0729
 4027SOL    HW213628   0.084   0.776   2.192  1.0068 -0.2285  0.4910
 4028SOL     OW13629   4.170   0.511   4.587 -0.2361  0.2909  0.2277
 4028SOL    HW113630   4.203   0.425   4.561  0.2176  0.9622 -1.5597
 4028SOL    HW213631   4.213   0.528   4.671  0.6639 -0.6719 -0.0089
 4029SOL     OW13632   3.642   5.857   6.539 -0.0101 -0.6522  0.2112
 4029SOL    HW113633   3.570   5.801   6.511  0.6483 -1.6663  0.4756
 4029SOL    HW213634   3.695   5.801   6.595  2.6343 -0.9292 -2.3453
 4030SOL     OW13635   0.425   2.885   1.638 -0.2961 -0.3143  0.9467
 4030SOL    HW113636   0.477   2.956   1.676 -1.4767 -0.6005  3.2580
 4030SOL    HW213637   0.354   2.930   1.591  0.7822  0.0314 -0.4254
 4031SOL     OW13638   1.082   3.776   1.366  0.2692 -0.4252 -0.0904
 4031SOL    HW113639   1.158   3.758   1.421  0.2982  2.4726  0.9918
 4031SOL    HW213640   1.012   3.798   1.427 -0.3452  0.6896 -1.1394
 4032SOL     OW13641   4.672   2.860   6.229  0.2909 -0.1437  0.5086
 4032SOL    HW113642   4.693   2.936   6.284  0.0946 -0.1672  0.6168
 4032SOL    HW213643   4.622   2.802   6.286  1.3674 -0.8558  0.7551
 4033SOL     OW13644   4.538   4.875   0.904  0.4814  0.2644 -0.0319
 4033SOL    HW113645   4.604   4.943   0.918  1.3908 -0.6009 -0.0013
 4033SOL    HW213646   4.565   4.833   0.822  0.1361 -0.2874  0.1384
 4034SOL     OW13647   5.105   5.293   0.360 -0.2158 -0.3849  0.1402
 4034SOL    HW113648   5.150   5.246   0.430  2.9851  1.3237 -0.5784
 4034SOL    HW213649   5.158   5.275   0.282 -3.8742 -2.5908 -2.1491
 4035SOL     OW13650   4.201   5.509   0.694 -0.8856 -0.0400 -0.2019
 4035SOL    HW113651   4.153   5.470   0.621 -0.2784 -0.2293 -0.5093
 4035SOL    HW213652   4.133   5.545   0.751 -1.4235 -0.9943 -0.2281
 4036SOL     OW13653   3.444   3.611   6.354  0.6804 -0.4798  0.1939
 4036SOL    HW113654   3.365   3.662   6.336  1.0033  0.1726  0.5871
 4036SOL    HW213655   3.426   3.568   6.438  0.9367  0.0909  0.5510
 4037SOL     OW13656   5.636   0.560   4.515 -0.1224  0.0455 -0.3841
 4037SOL    HW113657   5.619   0.556   4.609  1.8671 -0.9645 -0.0143
 4037SOL    HW213658   5.662   0.650   4.498 -1.4884  0.4960 -0.1838
 4038SOL     OW13659   0.122   1.087   1.386 -0.1036 -0.1592 -0.4275
 4038SOL    HW113660   0.188   1.053   1.446  1.9615  0.4410 -2.2193
 4038SOL    HW213661   0.167   1.091   1.301 -2.5840 -0.0509 -1.8199
 4039SOL     OW13662   4.212   3.054   1.088  0.2188  0.3129 -0.5453
 4039SOL    HW113663   4.288   3.041   1.145  1.6191  1.8879 -1.9302
 4039SOL    HW213664   4.166   3.129   1.127 -0.6394 -0.6046  0.2604
 4040SOL     OW13665   1.113   5.927   0.242  0.3546 -0.1443  0.0188
 4040SOL    HW113666   1.067   5.985   0.182  0.6180 -0.5292 -0.5590
 4040SOL    HW213667   1.067   5.938   0.326 -0.0359  0.3656 -0.2582
 4041SOL     OW13668   3.034   1.656   6.114  0.1614  0.1969  0.0475
 4041SOL    HW113669   2.980   1.624   6.186 -0.5762  1.7895  0.2681
 4041SOL    HW213670   3.101   1.710   6.156  0.9777 -0.4810 -0.3417
 4042SOL     OW13671   1.083   1.777   0.977 -0.3085  0.0812 -0.0896
 4042SOL    HW113672   1.029   1.726   0.917 -1.3951 -1.5396  2.1354
 4042SOL    HW213673   1.030   1.785   1.056  1.4124  1.3769  1.0113
 4043SOL     OW13674   1.253   3.754   0.396  0.2824  0.4498  0.1585
 4043SOL    HW113675   1.298   3.816   0.454 -1.1168  0.7717  0.9468
 4043SOL    HW213676   1.183   3.805   0.356  1.6917  0.4597 -2.5338
 4044SOL     OW13677   5.812   1.326   4.627 -0.3978  0.2208  0.1040
 4044SOL    HW113678   5.897   1.315   4.668 -0.8749  0.3829  1.1655
 4044SOL    HW213679   5.795   1.420   4.631  0.6321  0.6519 -2.7553
 4045SOL     OW13680   5.067   0.161   0.640  0.0054  0.4448 -0.3510
 4045SOL    HW113681   5.011   0.236   0.615  0.0718  0.4962 -0.3459
 4045SOL    HW213682   5.071   0.165   0.735 -0.5595  0.0234 -0.3060
 4046SOL     OW13683   3.392   1.043   2.713  0.2803 -0.4735 -0.3047
 4046SOL    HW113684   3.437   1.063   2.631  2.7175  0.4199  1.1465
 4046SOL    HW213685   3.312   1.096   2.710  0.5030 -0.1839 -1.9444
 4047SOL     OW13686   6.331   1.406   5.144 -0.2885 -0.8073  0.4916
 4047SOL    HW113687   6.412   1.417   5.194 -0.9350 -1.4014  1.7054
 4047SOL    HW213688   6.326   1.484   5.089 -0.7166  1.0364  2.9950
 4048SOL     OW13689   4.040   2.714   2.477 -0.0504  0.4825 -0.3789
 4048SOL    HW113690   4.117   2.741   2.527 -1.6390  1.1951  1.8437
 4048SOL    HW213691   4.013   2.631   2.518  0.3134 -0.5126 -2.0659
 4049SOL     OW13692   0.990   4.576   3.475 -0.0471  0.6634 -0.0697
 4049SOL    HW113693   1.050   4.525   3.529  0.0115  0.0923 -0.6465
 4049SOL    HW213694   0.916   4.516   3.460  0.3819  0.4341 -1.4165
 4050SOL     OW13695   1.725   5.038   2.899  0.4697 -0.1704  0.6463
 4050SOL    HW113696   1.724   5.093   2.821  5.5001 -2.3993 -1.4082
 4050SOL    HW213697   1.742   5.099   2.971  1.4495  1.4187 -0.8498
 4051SOL     OW13698   2.917   1.293   1.839 -0.6460  0.1334  0.3550
 4051SOL    HW113699   2.887   1.212   1.797  0.0071  0.5078 -0.8715
 4051SOL    HW213700   2.886   1.363   1.782  1.1733  0.6022 -0.1139
 4052SOL     OW13701   6.651   2.811   2.346 -0.2500  0.2465 -0.7858
 4052SOL    HW113702   6.679   2.871   2.277  1.2459  1.4574  0.7973
 4052SOL    HW213703   6.580   2.858   2.391 -0.9960 -0.4013 -1.2535
 4053SOL     OW13704   6.296   4.798   1.510  0.2932  0.2712  0.2453
 4053SOL    HW113705   6.275   4.705   1.516  0.0045  0.1676 -1.5842
 4053SOL    HW213706   6.361   4.814   1.579 -0.2620 -1.0878  1.1080
 4054SOL     OW13707   0.376   1.866   5.938  0.2271 -0.2425 -0.0280
 4054SOL    HW113708   0.310   1.812   5.982 -0.7816  1.0818  0.1720
 4054SOL    HW213709   0.354   1.956   5.963  0.3497  0.4803 -2.2529
 4055SOL     OW13710   5.985   4.414   1.708  0.4587  0.7973 -0.6323
 4055SOL    HW113711   5.907   4.470   1.707  0.6103  1.0112 -0.9562
 4055SOL    HW213712   6.008   4.407   1.800  0.9336  1.9917 -0.6394
 4056SOL     OW13713   1.476   2.010   0.994  0.8424 -0.2980 -0.1945
 4056SOL    HW113714   1.518   1.930   0.961  0.2833 -0.0984 -1.4590
 4056SOL    HW213715   1.500   2.013   1.087 -0.6020 -2.8979  0.3727
 4057SOL     OW13716   0.614   4.571   2.439 -0.4222 -0.0509 -0.2595
 4057SOL    HW113717   0.625   4.666   2.440 -0.8744  0.0102 -0.7083
 4057SOL    HW213718   0.679   4.539   2.501  0.0776  0.5172 -0.4787
 4058SOL     OW13719   5.761   1.456   5.680  0.2244  0.2690  0.0588
 4058SOL    HW113720   5.686   1.399   5.663  0.7009  0.4146 -2.9826
 4058SOL    HW213721   5.835   1.396   5.684  0.1411  0.2384  1.9725
 4059SOL     OW13722   3.451   5.705   4.883  0.4289  0.5078  0.5276
 4059SOL    HW113723   3.545   5.721   4.874  0.2878  0.3999 -1.5830
 4059SOL    HW213724   3.432   5.722   4.975  2.1942  2.2000  0.6329
 4060SOL     OW13725   3.354   2.922   3.863  0.5258 -0.9564  0.6530
 4060SOL    HW113726   3.411   2.951   3.791 -0.7637  1.1619  0.3985
 4060SOL    HW213727   3.414   2.901   3.934  1.7025  0.1837  0.0431
 4061SOL     OW13728   1.540   3.155   5.144 -0.3714 -0.0191 -0.1766
 4061SOL    HW113729   1.570   3.084   5.200  0.8948  1.1647  0.7267
 4061SOL    HW213730   1.456   3.182   5.181 -1.3086 -1.5734 -1.0620
 4062SOL     OW13731   3.387   3.717   3.354  0.4169 -0.4265 -0.0076
 4062SOL    HW113732   3.346   3.638   3.318  1.4019 -0.2386 -1.6403
 4062SOL    HW213733   3.447   3.684   3.420  0.6925 -1.0421 -0.5527
 4063SOL     OW13734   1.247   0.680   1.604  0.1032 -0.4736  0.3252
 4063SOL    HW113735   1.209   0.629   1.533  2.1972 -1.0554 -0.4472
 4063SOL    HW213736   1.306   0.741   1.560  0.5015  0.0123  1.5068
 4064SOL     OW13737   3.523   1.959   6.728  0.1893 -0.3633 -0.2813
 4064SOL    HW113738   3.533   1.893   6.658  0.6833 -3.5384  2.5127
 4064SOL    HW213739   3.607   1.958   6.773 -0.3818  0.9851  0.8547
 4065SOL     OW13740   5.539   1.767   3.975 -0.3982 -0.4004  0.1086
 4065SOL    HW113741   5.531   1.809   3.890  0.8304 -1.8624 -0.7812
 4065SOL    HW213742   5.629   1.784   4.002 -1.0394  0.8618  1.6043
 4066SOL     OW13743   2.282   2.734   3.459  0.0538 -0.2374 -0.0417
 4066SOL    HW113744   2.326   2.674   3.399  1.6757  0.8133  0.0434
 4066SOL    HW213745   2.311   2.821   3.433 -0.5968  0.3794  1.1615
 4067SOL     OW13746   4.720   2.689   3.502 -0.0268 -0.3910 -0.0788
 4067SOL    HW113747   4.802   2.671   3.549 -1.2491  0.0763  2.3908
 4067SOL    HW213748   4.709   2.784   3.509 -0.5025 -0.3761 -0.9050
 4068SOL     OW13749   2.820   3.657   2.349  0.1671  0.0070 -0.3045
 4068SOL    HW113750   2.782   3.584   2.398 -0.5723  0.3324 -0.3872
 4068SOL    HW213751   2.820   3.627   2.258 -2.8580  1.1666 -0.7996
 4069SOL     OW13752   0.192   1.800   6.125  0.2163  0.9586 -0.4437
 4069SOL    HW113753   0.114   1.780   6.177 -0.1628  3.0133 -0.1641
 4069SOL    HW213754   0.233   1.874   6.169  1.2428  1.1923 -1.7158
 4070SOL     OW13755   0.204   0.042   1.553  0.1804  0.2618  0.2633
 4070SOL    HW113756   0.280   0.067   1.605 -0.0373  0.7911  0.3425
 4070SOL    HW213757   0.240   0.001   1.475  0.5660  0.7692  0.1675
 4071SOL     OW13758   0.935   0.432   3.763 -0.1346 -0.1968 -0.2919
 4071SOL    HW113759   1.020   0.409   3.726 -0.5073 -1.9581 -0.1401
 4071SOL    HW213760   0.897   0.493   3.700  0.4600 -0.8552 -1.3130
 4072SOL     OW13761   5.490   0.394   3.259  0.2957 -0.1198  0.3593
 4072SOL    HW113762   5.552   0.386   3.187 -0.5530  0.9684 -0.5265
 4072SOL    HW213763   5.441   0.312   3.258  0.1387 -0.0269 -0.4627
 4073SOL     OW13764   0.220   1.618   1.295 -0.2445 -0.1935 -0.1917
 4073SOL    HW113765   0.307   1.585   1.315  0.0024  0.0546 -0.8510
 4073SOL    HW213766   0.164   1.580   1.363 -0.0059 -2.0702 -1.0065
 4074SOL     OW13767   0.808   6.031   5.120  0.4322  0.0986  0.3758
 4074SOL    HW113768   0.743   6.097   5.144  0.9870  0.7309  0.1856
 4074SOL    HW213769   0.841   5.998   5.204 -1.8515 -2.0388  0.5597
 4075SOL     OW13770   3.233   2.138   3.346 -0.0662  0.0080  0.0488
 4075SOL    HW113771   3.233   2.177   3.259  1.7205  0.3348  0.1547
 4075SOL    HW213772   3.161   2.181   3.392  1.0226  2.2695 -0.2493
 4076SOL     OW13773   2.862   3.436   0.145 -0.1330  0.4350  0.0421
 4076SOL    HW113774   2.920   3.414   0.217  2.1902  4.0903 -0.4782
 4076SOL    HW213775   2.882   3.371   0.077  1.0960 -0.2270  1.0100
 4077SOL     OW13776   3.181   4.480   6.177  0.3356 -0.1301 -0.5247
 4077SOL    HW113777   3.207   4.479   6.085 -1.0901  0.4427 -0.9555
 4077SOL    HW213778   3.241   4.542   6.219 -0.3316  1.2217 -1.5049
 4078SOL     OW13779   2.967   3.039   6.289 -0.2949 -0.0534  0.0795
 4078SOL    HW113780   2.949   3.044   6.195 -0.9560  0.3978  0.2191
 4078SOL    HW213781   2.896   3.089   6.329  1.1283  1.6043  0.6795
 4079SOL     OW13782   1.572   1.042   6.536 -0.1825 -0.0971  0.4611
 4079SOL    HW113783   1.573   0.977   6.466  0.6840  0.2938  0.0915
 4079SOL    HW213784   1.531   0.998   6.609 -0.7364 -0.6480 -0.1708
 4080SOL     OW13785   4.612   5.600   5.537  0.0770  0.0707 -0.4705
 4080SOL    HW113786   4.516   5.606   5.538 -0.0214 -1.0582 -1.1386
 4080SOL    HW213787   4.639   5.641   5.619 -1.0898 -1.1021  0.5512
 4081SOL     OW13788   1.112   1.267   3.095  0.0577  0.3375  0.1881
 4081SOL    HW113789   1.037   1.214   3.123 -1.0428  1.7887  0.0917
 4081SOL    HW213790   1.089   1.295   3.006 -0.2696  2.4765  0.8977
 4082SOL     OW13791   1.872   2.330   2.158 -0.2213  0.0488  0.1765
 4082SOL    HW113792   1.832   2.245   2.137  1.1797 -0.3143 -1.2954
 4082SOL    HW213793   1.959   2.307   2.193 -0.5481  0.8522  1.5662
 4083SOL     OW13794   1.228   4.027   0.240 -0.0376 -0.4475  0.0793
 4083SOL    HW113795   1.231   4.081   0.319  0.6696 -2.2524  1.3517
 4083SOL    HW213796   1.308   4.050   0.193 -0.8306  1.1897 -0.5538
 4084SOL     OW13797   0.564   5.322   5.586  0.1483 -0.1038 -0.1084
 4084SOL    HW113798   0.614   5.316   5.667  0.6874  0.6070 -0.3785
 4084SOL    HW213799   0.535   5.413   5.582  0.8820  0.1006 -1.1454
 4085SOL     OW13800   5.384   6.646   0.697  0.1049  0.0156  0.2740
 4085SOL    HW113801   5.401   6.623   0.788 -0.8779  0.7744  0.6608
 4085SOL    HW213802   5.471   6.649   0.657  0.7891  1.9406  1.7340
 4086SOL     OW13803   1.128   5.225   1.713 -0.3875 -0.1165  0.0851
 4086SOL    HW113804   1.146   5.280   1.790 -0.5086 -1.0884  0.8257
 4086SOL    HW213805   1.214   5.210   1.674 -0.3329  0.4455 -0.0310
 4087SOL     OW13806   6.743   0.029   5.425  0.2566 -0.3585  0.4780
 4087SOL    HW113807   6.838   0.030   5.438  0.1792  0.2706  1.0644
 4087SOL    HW213808   6.713  -0.053   5.464  0.3204  0.3950  2.2161
 4088SOL     OW13809   2.362   3.616   6.662  0.4237  0.0512  0.4467
 4088SOL    HW113810   2.283   3.562   6.664  0.0600  0.5909  0.8260
 4088SOL    HW213811   2.423   3.567   6.607 -0.6238  0.2429 -0.9368
 4089SOL     OW13812   5.878   3.177   3.604  0.1803 -0.1610 -0.1378
 4089SOL    HW113813   5.836   3.181   3.518  0.2085 -0.6455 -0.1769
 4089SOL    HW213814   5.809   3.202   3.666 -0.0650 -0.5926 -0.2330
 4090SOL     OW13815   1.480   2.017   2.729 -0.0808  0.0380  0.0643
 4090SOL    HW113816   1.513   1.954   2.793  1.7516  1.5493  0.7034
 4090SOL    HW213817   1.515   1.987   2.645 -0.2755 -0.4822  0.1675
 4091SOL     OW13818   2.213   4.620   2.392 -0.5677 -0.2258  0.3671
 4091SOL    HW113819   2.299   4.578   2.404 -0.6249 -0.5590 -0.3261
 4091SOL    HW213820   2.153   4.547   2.379 -0.8736  0.0287  0.3528
 4092SOL     OW13821   4.483   3.775   6.119  0.3283 -0.0823 -0.0391
 4092SOL    HW113822   4.493   3.838   6.048 -1.2873 -1.0102 -1.1432
 4092SOL    HW213823   4.415   3.811   6.175  0.2521 -0.2662 -0.0105
 4093SOL     OW13824   1.189   6.429   2.167 -0.6671 -0.0382 -0.0630
 4093SOL    HW113825   1.258   6.495   2.164 -0.7612  0.1750  1.4321
 4093SOL    HW213826   1.235   6.346   2.163 -0.2376  0.0945  1.4099
 4094SOL     OW13827   1.241   5.308   2.246 -0.4540 -0.5765 -0.1665
 4094SOL    HW113828   1.317   5.255   2.269 -0.0764  0.4184  0.9772
 4094SOL    HW213829   1.198   5.326   2.329 -1.1919 -0.0112 -0.6543
 4095SOL     OW13830   3.739   4.957   1.724  0.4210  0.0162  0.1649
 4095SOL    HW113831   3.812   5.015   1.744  0.2587 -0.3565  1.9306
 4095SOL    HW213832   3.755   4.878   1.774 -0.6055 -0.5318 -0.3210
 4096SOL     OW13833   1.896   5.919   3.652  0.5708 -0.8412  0.2918
 4096SOL    HW113834   1.949   5.902   3.574 -0.1020 -1.5987 -0.0098
 4096SOL    HW213835   1.849   6.000   3.632 -0.2033 -1.4528 -0.4264
 4097SOL     OW13836   3.684   6.128   1.819  0.3073  0.3864  0.7293
 4097SOL    HW113837   3.619   6.065   1.852 -0.4526  1.3415  1.1094
 4097SOL    HW213838   3.768   6.088   1.839 -0.1537 -0.2504  1.4712
 4098SOL     OW13839   3.719   5.811   4.560  0.3236  0.0862 -0.4956
 4098SOL    HW113840   3.711   5.722   4.525 -1.4428 -0.5251  1.2816
 4098SOL    HW213841   3.642   5.856   4.527 -0.8808 -0.2356  1.7117
 4099SOL     OW13842   3.442   3.571   4.091  0.3434 -0.2230  0.6344
 4099SOL    HW113843   3.531   3.601   4.110 -0.3800  1.4434  1.5563
 4099SOL    HW213844   3.432   3.491   4.142  1.1611 -0.1560  0.9095
 4100SOL     OW13845   4.063   6.603   2.422 -0.2804 -0.6153 -0.4968
 4100SOL    HW113846   4.127   6.543   2.384  1.0448  0.4024  0.0411
 4100SOL    HW213847   3.995   6.611   2.354  1.1346 -0.2164 -1.9453
 4101SOL     OW13848   5.702   0.179   0.109  0.0760 -0.2527  0.1936
 4101SOL    HW113849   5.635   0.134   0.159 -0.7072 -1.1978 -1.5997
 4101SOL    HW213850   5.663   0.263   0.085  0.4385  0.1857  1.0801
 4102SOL     OW13851   6.667   5.793   2.922  0.0454  0.7364  0.1601
 4102SOL    HW113852   6.698   5.741   2.997 -1.5928 -0.0185  0.3757
 4102SOL    HW213853   6.594   5.844   2.958 -0.0657  1.1741 -0.6777
 4103SOL     OW13854   1.452   3.651   5.567  0.2350 -0.0744 -0.0546
 4103SOL    HW113855   1.498   3.681   5.645  0.9747 -1.2304 -0.0221
 4103SOL    HW213856   1.420   3.563   5.590 -0.2189 -0.1115 -0.7863
 4104SOL     OW13857   5.671   2.731   5.958  0.3331 -0.9029  0.4568
 4104SOL    HW113858   5.606   2.682   5.908 -1.0244 -0.3652  1.6280
 4104SOL    HW213859   5.734   2.762   5.893  0.0318 -2.3552 -0.5623
 4105SOL     OW13860   2.805   0.637   2.602 -0.0570  0.8034 -0.6293
 4105SOL    HW113861   2.867   0.668   2.668 -0.3455 -1.2012  0.6582
 4105SOL    HW213862   2.801   0.708   2.538  0.4983  2.6786  1.3056
 4106SOL     OW13863   4.462   5.002   4.619 -0.0617  0.0986 -0.2498
 4106SOL    HW113864   4.401   5.052   4.565 -1.3987 -0.1913  0.9565
 4106SOL    HW213865   4.411   4.973   4.694  1.7669  0.5938  1.2750
 4107SOL     OW13866   5.789   0.981   1.389  0.4782 -0.3632  0.3025
 4107SOL    HW113867   5.831   0.899   1.414  0.6255 -0.0521  1.1043
 4107SOL    HW213868   5.809   0.990   1.296 -0.5466 -1.8176 -0.0866
 4108SOL     OW13869   5.048   4.759   3.748 -0.0036  0.2830 -0.1529
 4108SOL    HW113870   5.074   4.844   3.712  2.1981  0.5759  1.8518
 4108SOL    HW213871   5.114   4.698   3.713  1.6191  0.4164  2.3868
 4109SOL     OW13872   6.344   2.966   3.363  0.2330 -0.5807 -0.1406
 4109SOL    HW113873   6.429   2.990   3.327  0.2337 -0.0536  0.1985
 4109SOL    HW213874   6.357   2.879   3.402  1.0170  0.1049  1.2189
 4110SOL     OW13875   4.575   2.472   1.100 -0.5695 -0.0246 -0.1916
 4110SOL    HW113876   4.578   2.547   1.159 -0.3183 -0.7247  0.7045
 4110SOL    HW213877   4.492   2.481   1.053 -0.5364  0.8121 -0.0918
 4111SOL     OW13878   5.037   4.881   5.935 -0.3362 -0.0457 -0.1773
 4111SOL    HW113879   5.005   4.956   5.884  1.8530 -0.1793 -1.9290
 4111SOL    HW213880   5.091   4.921   6.004  1.5972  0.0877 -1.6658
 4112SOL     OW13881   3.550   0.540   6.658 -0.2587 -0.1270  0.1708
 4112SOL    HW113882   3.615   0.610   6.652 -2.3688  2.0368  1.2776
 4112SOL    HW213883   3.500   0.546   6.577  1.5409 -2.5827 -1.2448
 4113SOL     OW13884   4.258   4.664   2.089 -0.6832  0.3113  0.3645
 4113SOL    HW113885   4.190   4.726   2.116  0.5119  2.2880 -0.9135
 4113SOL    HW213886   4.331   4.680   2.149 -0.3596  0.1685  0.0149
 4114SOL     OW13887   4.470   2.109   0.991 -0.7325  0.2331  0.3739
 4114SOL    HW113888   4.550   2.071   1.028 -0.6195  1.2006  1.1608
 4114SOL    HW213889   4.499   2.185   0.941 -1.2969  2.0359  2.6183
 4115SOL     OW13890   1.646   6.466   1.098 -0.8310  0.3433 -0.0544
 4115SOL    HW113891   1.685   6.382   1.122 -0.4465  0.5149 -0.0641
 4115SOL    HW213892   1.595   6.448   1.019  0.2309  0.3585 -0.7574
 4116SOL     OW13893   6.618   3.204   2.251 -0.4229 -0.0562  0.4118
 4116SOL    HW113894   6.695   3.154   2.275 -0.4865 -0.2504  0.2153
 4116SOL    HW213895   6.653   3.286   2.215 -0.3300  0.2696  1.2171
 4117SOL     OW13896   4.330   4.057   3.410 -0.1122  0.3864 -0.1489
 4117SOL    HW113897   4.238   4.081   3.410 -0.3318 -0.2529 -2.3922
 4117SOL    HW213898   4.331   3.964   3.432 -0.0034  0.3491 -0.3128
 4118SOL     OW13899   5.587   6.311   5.030 -0.2780 -0.2219  0.1534
 4118SOL    HW113900   5.620   6.398   5.049  0.5825 -0.2033 -1.2036
 4118SOL    HW213901   5.611   6.296   4.938  0.1254 -2.0986  0.5102
 4119SOL     OW13902   6.561   0.284   0.425  0.3167 -0.4269  0.4003
 4119SOL    HW113903   6.566   0.327   0.340  1.1091 -1.1539  0.0667
 4119SOL    HW213904   6.490   0.330   0.470 -0.7804 -0.6703 -1.0049
 4120SOL     OW13905   1.912   0.942   3.017  0.1550 -0.1773 -0.2267
 4120SOL    HW113906   1.885   1.032   2.998  0.5613  0.3226  1.4006
 4120SOL    HW213907   1.993   0.931   2.968 -0.4224 -0.0286 -1.2499
 4121SOL     OW13908   2.938   1.374   4.254  0.3536 -0.1019 -0.1686
 4121SOL    HW113909   2.938   1.449   4.315  1.4980 -1.6451  1.8518
 4121SOL    HW213910   2.848   1.368   4.224 -0.4814  0.1960  2.1044
 4122SOL     OW13911   6.541   1.041   0.201 -0.4781 -0.3127 -0.1179
 4122SOL    HW113912   6.521   1.103   0.132 -0.1880 -0.7429 -0.5945
 4122SOL    HW213913   6.626   1.068   0.234  0.5244 -1.5364 -1.5823
 4123SOL     OW13914   1.973   1.412   3.661  0.1365 -0.1065  0.1426
 4123SOL    HW113915   2.056   1.364   3.660 -0.1804 -0.6588 -0.1564
 4123SOL    HW213916   1.971   1.453   3.747  0.2755 -0.8865  0.5295
 4124SOL     OW13917   1.813   2.954   6.206 -0.2541 -0.4385  0.8253
 4124SOL    HW113918   1.760   2.966   6.284  0.1387 -0.4077  1.0910
 4124SOL    HW213919   1.768   3.004   6.138 -0.4333 -0.2192  1.1053
 4125SOL     OW13920   3.159   2.624   1.424 -0.2161 -0.6889  0.0576
 4125SOL    HW113921   3.100   2.594   1.355 -0.0116  0.1427 -0.4908
 4125SOL    HW213922   3.246   2.595   1.397 -0.2190 -0.9456  0.3107
 4126SOL     OW13923   3.572   0.829   3.286  0.3126 -0.0774  0.3191
 4126SOL    HW113924   3.507   0.760   3.298  0.5034 -0.6077 -1.3441
 4126SOL    HW213925   3.621   0.801   3.208  0.8041  1.6248 -0.0130
 4127SOL     OW13926   6.033   4.744   5.209 -0.0488 -0.3609  0.5717
 4127SOL    HW113927   6.062   4.722   5.297  2.8538 -0.6401 -0.3471
 4127SOL    HW213928   6.106   4.794   5.171 -1.1050 -0.4333 -1.7419
 4128SOL     OW13929   2.445   2.184   3.937  0.5540 -0.0540  0.1082
 4128SOL    HW113930   2.477   2.249   4.000  0.2474 -0.9591  1.2176
 4128SOL    HW213931   2.351   2.204   3.928  0.9297  1.2308 -1.5010
 4129SOL     OW13932   6.736   6.132   1.655 -0.2144 -0.4133 -0.2307
 4129SOL    HW113933   6.730   6.036   1.656  0.1226 -0.4381 -0.2557
 4129SOL    HW213934   6.807   6.151   1.717 -1.1967 -0.1003  0.8204
 4130SOL     OW13935   4.240   6.682   3.511  0.0304  0.7912 -0.1823
 4130SOL    HW113936   4.146   6.678   3.495  0.1870  1.7987 -1.4459
 4130SOL    HW213937   4.267   6.769   3.482  1.5837  0.0237 -1.1816
 4131SOL     OW13938   0.009   4.446   4.528 -0.0003  0.1818  0.2188
 4131SOL    HW113939  -0.030   4.532   4.510  3.8373  2.2840  0.8334
 4131SOL    HW213940  -0.059   4.398   4.576 -2.2908  2.8600 -0.0911
 4132SOL     OW13941   4.590   0.827   2.844  0.1824 -0.3442 -0.3802
 4132SOL    HW113942   4.673   0.861   2.810 -0.0616  0.8522  0.1477
 4132SOL    HW213943   4.613   0.743   2.883  1.3039  0.2989  0.4086
 4133SOL     OW13944   5.594   5.655   3.533 -0.0242 -0.2869 -0.3171
 4133SOL    HW113945   5.579   5.749   3.545 -1.3265 -0.3977 -0.8844
 4133SOL    HW213946   5.674   5.649   3.482  0.1683  0.5159 -0.1182
 4134SOL     OW13947   6.258   6.480   2.562 -0.7243 -0.9578  0.4446
 4134SOL    HW113948   6.346   6.442   2.560 -1.0864 -1.8190 -0.1819
 4134SOL    HW213949   6.202   6.408   2.593 -1.3659 -0.8089 -0.3174
 4135SOL     OW13950   4.568   6.613   6.382 -0.1344 -0.3040 -0.3021
 4135SOL    HW113951   4.524   6.533   6.352  1.4206 -0.7090 -1.6321
 4135SOL    HW213952   4.661   6.592   6.378  0.2420  0.9675  1.1522
 4136SOL     OW13953   2.427   1.898   3.979  0.6521 -0.4957 -0.8376
 4136SOL    HW113954   2.422   1.988   3.947  0.0044 -0.9680 -2.1409
 4136SOL    HW213955   2.474   1.851   3.910  2.5130 -0.8470  0.6007
 4137SOL     OW13956   3.498   6.120   3.328  0.5947 -0.4347  0.2014
 4137SOL    HW113957   3.502   6.175   3.406 -2.8234  0.6634 -0.2249
 4137SOL    HW213958   3.463   6.036   3.359  0.5419 -0.4696  0.0493
 4138SOL     OW13959   5.712   0.271   5.745  0.1433 -0.0532  0.1817
 4138SOL    HW113960   5.765   0.255   5.823  0.7927  1.3122  0.0457
 4138SOL    HW213961   5.759   0.225   5.675  0.0663 -0.4976  0.4179
 4139SOL     OW13962   3.697   2.190   5.034  0.5226 -0.3380 -0.4344
 4139SOL    HW113963   3.759   2.256   5.065  1.3020 -0.9056 -0.7462
 4139SOL    HW213964   3.751   2.114   5.014 -0.2087 -0.6639 -1.2503
 4140SOL     OW13965   3.746   0.548   2.118 -0.7844 -0.1006  0.2755
 4140SOL    HW113966   3.659   0.583   2.137 -0.1502  1.8929 -0.2659
 4140SOL    HW213967   3.806   0.619   2.141  0.5800 -0.8595 -0.8214
 4141SOL     OW13968   3.740   2.071   0.226 -0.5541  0.1665  0.8939
 4141SOL    HW113969   3.820   2.045   0.273 -0.3684  0.1932  0.5906
 4141SOL    HW213970   3.751   2.037   0.138 -1.2125 -0.4771  1.0498
 4142SOL     OW13971   5.913   3.501   1.451  0.1846 -0.0982 -0.0710
 4142SOL    HW113972   5.919   3.522   1.358  1.9639 -2.1354 -0.4898
 4142SOL    HW213973   6.003   3.484   1.478 -0.5180 -1.6834  1.4637
 4143SOL     OW13974   2.353   0.500   2.738  0.1055 -0.7220 -0.1548
 4143SOL    HW113975   2.316   0.420   2.699 -2.1612  0.4628 -0.5620
 4143SOL    HW213976   2.278   0.556   2.754  1.3829  0.4086  2.4086
 4144SOL     OW13977   4.247   0.459   4.920 -0.0362 -0.1767  0.0073
 4144SOL    HW113978   4.336   0.459   4.885  0.0889  0.5019  0.3074
 4144SOL    HW213979   4.258   0.452   5.015 -0.1084  3.2223  0.3921
 4145SOL     OW13980   0.159   2.641   0.700  0.0005 -0.1966 -0.5768
 4145SOL    HW113981   0.085   2.680   0.655 -0.2194 -0.5194 -0.4957
 4145SOL    HW213982   0.143   2.658   0.793  0.9350  1.3183 -0.6585
 4146SOL     OW13983   0.690   0.216   4.270 -0.3730  0.2623 -0.0772
 4146SOL    HW113984   0.761   0.280   4.282 -0.8034  0.6835  0.2798
 4146SOL    HW213985   0.620   0.267   4.229 -0.8914  0.1318  0.6429
 4147SOL     OW13986   2.388   5.126   2.133 -0.0032 -0.2499 -0.1063
 4147SOL    HW113987   2.401   5.219   2.113 -0.3300  0.1664  1.4548
 4147SOL    HW213988   2.293   5.115   2.130  0.0658 -0.6877 -0.8641
 4148SOL     OW13989   2.834   3.269   6.723  0.0471  0.4559  0.2089
 4148SOL    HW113990   2.919   3.269   6.679 -0.2304 -0.1990 -0.3402
 4148SOL    HW213991   2.835   3.188   6.775  0.9668  1.8995  2.6185
 4149SOL     OW13992   6.514   2.412   1.617 -0.0101 -0.6542 -0.7863
 4149SOL    HW113993   6.491   2.375   1.532  0.6862 -2.6510 -0.1653
 4149SOL    HW213994   6.550   2.338   1.667  1.5033  0.8945  0.5485
 4150SOL     OW13995   4.019   6.635   1.823 -0.0636  0.6608  0.0442
 4150SOL    HW113996   3.937   6.667   1.787 -0.8052 -0.0724  1.0289
 4150SOL    HW213997   4.039   6.694   1.895  0.1193  0.6600 -0.0043
 4151SOL     OW13998   2.250   0.949   3.087 -0.3523 -0.3253  0.2178
 4151SOL    HW113999   2.318   0.989   3.140 -0.5430  0.0028  0.2144
 4151SOL    HW214000   2.297   0.912   3.012 -0.0941 -0.7320  0.5805
 4152SOL     OW14001   3.414   5.113   1.087  0.2734  0.0050  0.2732
 4152SOL    HW114002   3.475   5.070   1.147  1.0052  0.9145  0.2066
 4152SOL    HW214003   3.471   5.166   1.030 -0.5654  0.6494  0.0232
 4153SOL     OW14004   3.485   1.477   0.386 -0.0007  0.1607 -0.5927
 4153SOL    HW114005   3.393   1.468   0.413  0.2664  1.3596  0.8256
 4153SOL    HW214006   3.488   1.562   0.342  0.5317  0.3596 -0.1705
 4154SOL     OW14007   6.593   4.279   2.136 -0.4004  0.3506  0.4010
 4154SOL    HW114008   6.602   4.372   2.119  0.1870  0.2724  0.2732
 4154SOL    HW214009   6.599   4.237   2.050  1.1600  0.0676  0.6158
 4155SOL     OW14010   5.513   2.821   2.713  0.5410  0.3165  0.5185
 4155SOL    HW114011   5.539   2.734   2.681 -0.9693  0.1278 -0.2892
 4155SOL    HW214012   5.422   2.831   2.684  0.5559  2.0084  0.9540
 4156SOL     OW14013   2.079   1.283   4.471 -0.6490 -0.1014 -0.0582
 4156SOL    HW114014   2.072   1.341   4.547 -0.0796  1.9109 -1.4354
 4156SOL    HW214015   2.157   1.314   4.425 -0.5998 -1.7038 -1.1105
 4157SOL     OW14016   4.392   1.979   3.890  0.5418 -0.4450 -0.2644
 4157SOL    HW114017   4.376   1.979   3.984 -0.0197  0.5116 -0.3443
 4157SOL    HW214018   4.480   2.016   3.880  0.3605  0.0250 -0.1430
 4158SOL     OW14019   4.844   2.217   5.867 -0.0127 -0.4479 -0.1192
 4158SOL    HW114020   4.920   2.160   5.871  0.6226  0.3561 -0.4630
 4158SOL    HW214021   4.799   2.203   5.950  0.1964 -1.3385 -0.1430
 4159SOL     OW14022   0.819   1.207   0.931  0.0681  0.5361  0.5402
 4159SOL    HW114023   0.851   1.188   1.020 -1.1952  1.0991  1.1354
 4159SOL    HW214024   0.837   1.301   0.919  3.0141 -0.1102 -1.0110
 4160SOL     OW14025   5.724   2.790   4.390 -0.4467  0.4292  0.3548
 4160SOL    HW114026   5.674   2.751   4.318 -1.4238  0.5277  0.9652
 4160SOL    HW214027   5.812   2.752   4.380 -0.9888 -0.8237  0.0751
 4161SOL     OW14028   1.947   0.351   1.561 -0.4464  0.7546 -0.2176
 4161SOL    HW114029   1.923   0.258   1.553 -0.9364  0.7262  1.3096
 4161SOL    HW214030   1.969   0.362   1.653  2.1940  1.5745 -0.8428
 4162SOL     OW14031   1.011   5.918   1.079 -0.4287  0.3529 -0.3992
 4162SOL    HW114032   1.080   5.920   1.012  0.4708 -1.1057  0.4416
 4162SOL    HW214033   1.053   5.954   1.157 -0.4133 -1.0898  0.2784
 4163SOL     OW14034   1.898   1.767   3.945  0.6103  0.1210  0.0440
 4163SOL    HW114035   1.825   1.766   3.884 -0.3412  1.4525  1.1034
 4163SOL    HW214036   1.960   1.829   3.907  0.9248 -0.5381 -0.5388
 4164SOL     OW14037   0.175   3.141   4.795 -0.2870  0.5307 -0.0774
 4164SOL    HW114038   0.234   3.075   4.758  0.3198  2.0967 -2.0492
 4164SOL    HW214039   0.090   3.122   4.755 -1.1572 -1.4729  2.4556
 4165SOL     OW14040   4.321   3.080   6.101 -0.2206  0.4327 -0.4006
 4165SOL    HW114041   4.230   3.067   6.074 -0.4526 -0.9727  0.9008
 4165SOL    HW214042   4.369   3.010   6.056  0.4441  1.8305 -1.9543
 4166SOL     OW14043   5.487   1.945   0.137 -0.0051  0.5594 -0.0325
 4166SOL    HW114044   5.478   1.860   0.179 -1.7541 -0.4104 -2.1366
 4166SOL    HW214045   5.542   1.996   0.196  2.1930 -2.4005  0.7204
 4167SOL     OW14046   2.096   2.167   4.130  0.2103  0.3378 -0.3564
 4167SOL    HW114047   2.184   2.151   4.164  0.2614 -1.0574 -1.0805
 4167SOL    HW214048   2.108   2.235   4.064  0.3284  2.0280  1.3392
 4168SOL     OW14049   6.800   0.726   2.495  0.1243 -0.6190 -0.4535
 4168SOL    HW114050   6.790   0.631   2.499  0.6131 -0.6923 -0.8806
 4168SOL    HW214051   6.773   0.749   2.406  1.2881 -0.5262 -0.7977
 4169SOL     OW14052   6.698   4.404   0.629  0.0778 -0.6056 -0.9050
 4169SOL    HW114053   6.761   4.461   0.673 -0.9307  0.6226 -1.0209
 4169SOL    HW214054   6.742   4.318   0.627  0.4713 -0.5587  1.8250
 4170SOL     OW14055   6.797   6.065   5.593  0.7156 -0.0082  0.5163
 4170SOL    HW114056   6.728   6.024   5.645 -0.1635 -0.3507 -0.8991
 4170SOL    HW214057   6.753   6.136   5.546  1.4814  0.2132  0.1209
 4171SOL     OW14058   0.448   4.403   5.473  0.1922 -0.4487 -0.8730
 4171SOL    HW114059   0.354   4.402   5.492  0.4920  0.5408  0.8209
 4171SOL    HW214060   0.473   4.310   5.478 -0.6410 -0.7036 -1.1344
 4172SOL     OW14061   4.979   3.221   2.733  0.2526 -0.7831  0.3882
 4172SOL    HW114062   5.039   3.147   2.727 -1.1165 -1.9172  0.0910
 4172SOL    HW214063   4.966   3.234   2.827  1.8153  0.2121  0.4851
 4173SOL     OW14064   3.378   3.422   0.177 -0.2955  0.1652 -0.2454
 4173SOL    HW114065   3.412   3.496   0.126  0.6675 -0.6821 -0.8697
 4173SOL    HW214066   3.390   3.346   0.120 -0.7726 -0.5580  0.5951
 4174SOL     OW14067   3.506   3.584   6.748 -0.4102  0.3511  0.0984
 4174SOL    HW114068   3.503   3.492   6.720 -0.9027 -0.1743  1.7870
 4174SOL    HW214069   3.574   3.623   6.693  0.3367 -1.1964 -0.1358
 4175SOL     OW14070   4.708   2.995   2.212  0.5489  0.1115  0.2595
 4175SOL    HW114071   4.675   3.053   2.144  1.4578 -1.0378 -1.2086
 4175SOL    HW214072   4.666   3.026   2.292 -2.5139 -0.0340 -1.1686
 4176SOL     OW14073   1.978   1.910   3.110  0.5087  0.2328 -0.1534
 4176SOL    HW114074   1.920   1.976   3.147 -1.3911 -0.8290 -1.0863
 4176SOL    HW214075   1.950   1.827   3.150 -0.2175 -0.6324 -2.2642
 4177SOL     OW14076   2.310   4.383   0.029  0.1558 -0.6235  0.0660
 4177SOL    HW114077   2.360   4.448   0.079 -0.8526 -0.6601  1.1490
 4177SOL    HW214078   2.370   4.356  -0.041  1.1247  0.3836  0.4747
 4178SOL     OW14079   1.654   0.338   1.633 -0.3302 -0.4601  0.1031
 4178SOL    HW114080   1.568   0.328   1.592  0.0789 -0.5260 -0.7625
 4178SOL    HW214081   1.712   0.362   1.561  0.5674 -1.3642  0.5023
 4179SOL     OW14082   3.016   4.605   5.905  0.1829  0.3572  0.3923
 4179SOL    HW114083   3.010   4.532   5.966  2.2662 -0.1825  0.0425
 4179SOL    HW214084   3.035   4.564   5.820 -0.0262  1.2368 -0.0936
 4180SOL     OW14085   2.109   3.432   4.988  0.4593  0.1747 -0.2522
 4180SOL    HW114086   2.111   3.340   5.014  1.8604  0.4064  0.5474
 4180SOL    HW214087   2.025   3.443   4.944 -0.1600 -1.2427  0.5311
 4181SOL     OW14088   3.906   2.604   4.453 -0.0942 -0.1164  0.3433
 4181SOL    HW114089   3.910   2.538   4.384 -0.5103  0.0245  0.1789
 4181SOL    HW214090   3.918   2.554   4.534 -1.8521 -0.6341  0.3311
 4182SOL     OW14091   4.633   2.264   4.783 -0.2629 -0.0140 -0.0198
 4182SOL    HW114092   4.600   2.342   4.829 -1.8729 -0.0131 -1.0975
 4182SOL    HW214093   4.610   2.191   4.841  0.5438  0.2302  0.6250
 4183SOL     OW14094   0.897   2.296   6.228  0.6922 -0.2038 -0.2085
 4183SOL    HW114095   0.931   2.255   6.308  1.5829 -0.6001 -0.7768
 4183SOL    HW214096   0.878   2.223   6.170  0.6723  0.1184 -0.6095
 4184SOL     OW14097   0.865   2.484   0.424  0.0898  0.2623 -0.0741
 4184SOL    HW114098   0.958   2.483   0.444 -0.1425 -0.3800  1.0239
 4184SOL    HW214099   0.822   2.463   0.507 -1.0746  1.4021 -0.3673
 4185SOL     OW14100   3.912   5.186   2.676  0.1239 -0.1416 -0.1627
 4185SOL    HW114101   3.900   5.091   2.684  0.7116 -0.2008  0.0806
 4185SOL    HW214102   3.942   5.198   2.586  1.2399 -0.3240  0.1721
 4186SOL     OW14103   1.749   4.304   0.193  0.7211  0.4705 -0.1421
 4186SOL    HW114104   1.767   4.330   0.103  1.6471 -1.2024 -0.4929
 4186SOL    HW214105   1.823   4.247   0.216 -1.6973 -2.9176  0.0205
 4187SOL     OW14106   5.058   0.424   4.634  0.0936  0.1743 -0.4592
 4187SOL    HW114107   5.151   0.401   4.631 -0.0378 -0.4766  0.1984
 4187SOL    HW214108   5.057   0.519   4.640  0.7278  0.1764 -0.2819
 4188SOL     OW14109   1.132   5.991   1.336  0.0920 -0.3452  0.6911
 4188SOL    HW114110   1.121   5.896   1.338 -0.0944 -0.4407 -1.7113
 4188SOL    HW214111   1.165   6.013   1.423  0.8513 -2.6810  1.0705
 4189SOL     OW14112   0.915   3.181   6.590 -0.1872  0.2642  0.2445
 4189SOL    HW114113   0.946   3.090   6.595 -0.1999  0.2841  0.8204
 4189SOL    HW214114   0.933   3.208   6.500  0.8755  0.0587  0.3789
 4190SOL     OW14115   4.852   5.080   2.872 -0.5545 -0.3694 -0.0400
 4190SOL    HW114116   4.877   4.989   2.858  0.5801 -0.3731  1.6491
 4190SOL    HW214117   4.829   5.113   2.786  1.7205 -1.4653 -1.1442
 4191SOL     OW14118   6.614   1.719   4.661 -0.0781 -0.1039  0.2712
 4191SOL    HW114119   6.523   1.691   4.651 -0.5181  1.0552  0.9114
 4191SOL    HW214120   6.636   1.759   4.576 -0.1955 -0.3049  0.1461
 4192SOL     OW14121   2.137   6.556   0.787 -0.1385  0.3442 -0.5120
 4192SOL    HW114122   2.117   6.466   0.762  0.2166  0.2211 -0.3607
 4192SOL    HW214123   2.178   6.594   0.709 -1.4399  0.7601 -1.0067
 4193SOL     OW14124   0.804   2.597   2.658  0.0380  0.2267  0.2616
 4193SOL    HW114125   0.734   2.555   2.609  0.3292 -1.2552  1.0777
 4193SOL    HW214126   0.758   2.654   2.720 -0.4788 -1.1129  1.1328
 4194SOL     OW14127   0.575   0.106   2.891  0.6026  0.4650 -0.3765
 4194SOL    HW114128   0.547   0.076   2.805  1.7549  2.0722 -1.3787
 4194SOL    HW214129   0.624   0.187   2.873 -0.2617  1.5738  1.9105
 4195SOL     OW14130   4.375   4.666   1.371  0.3678 -0.3114 -0.6907
 4195SOL    HW114131   4.451   4.618   1.337  0.0051 -0.1722 -1.7661
 4195SOL    HW214132   4.329   4.694   1.292 -0.5136  0.0605 -0.0516
 4196SOL     OW14133   1.312   6.143   0.592 -0.5351 -0.3442 -0.4137
 4196SOL    HW114134   1.216   6.146   0.594 -0.6365 -1.9123 -1.2799
 4196SOL    HW214135   1.333   6.138   0.499  0.4003  0.0343 -0.2266
 4197SOL     OW14136   0.669   3.487   4.034  0.9551  0.1716  0.2808
 4197SOL    HW114137   0.699   3.499   3.944 -1.8098  3.8905 -0.3978
 4197SOL    HW214138   0.716   3.554   4.084 -0.1840  0.6257  0.7889
 4198SOL     OW14139   5.418   3.251   0.104  0.5924 -0.4557 -0.1440
 4198SOL    HW114140   5.421   3.328   0.048  0.2891 -1.4598 -1.6195
 4198SOL    HW214141   5.325   3.237   0.122  0.6626 -0.3522  0.3063
 4199SOL     OW14142   0.178   0.557   5.405 -0.1734  0.6217 -0.2373
 4199SOL    HW114143   0.255   0.518   5.445  0.0759  2.4615  1.1491
 4199SOL    HW214144   0.120   0.482   5.388  1.8195 -0.7812 -1.2224
 4200SOL     OW14145   1.341   1.697   1.118  0.1187  0.1887  0.1854
 4200SOL    HW114146   1.407   1.744   1.067 -1.3716  1.3241 -0.8146
 4200SOL    HW214147   1.259   1.742   1.097 -0.8468 -0.5816  2.0895
 4201SOL     OW14148   0.357   5.507   3.947  0.1222 -0.2115 -0.5609
 4201SOL    HW114149   0.336   5.414   3.959  1.4819 -0.7382 -1.9148
 4201SOL    HW214150   0.288   5.540   3.890  0.2592 -0.6971 -1.0187
 4202SOL     OW14151   6.364   5.666   6.511 -0.4203  1.1586  0.0941
 4202SOL    HW114152   6.386   5.575   6.534  0.0022  1.3646  0.5152
 4202SOL    HW214153   6.358   5.665   6.415 -0.5430  0.6605  0.0999
 4203SOL     OW14154   6.443   2.962   2.498  0.4812  0.1142  0.4476
 4203SOL    HW114155   6.454   3.055   2.520  2.0481  0.2265 -0.6765
 4203SOL    HW214156   6.405   2.923   2.577  1.5693  1.3459  1.6233
 4204SOL     OW14157   4.703   0.092   4.568 -0.7029  0.3206 -0.1864
 4204SOL    HW114158   4.746   0.142   4.499 -0.5178 -1.0277 -1.0936
 4204SOL    HW214159   4.767   0.088   4.639  0.8391 -1.7602 -1.5531
 4205SOL     OW14160   4.464   0.009   2.749  0.2698  0.3773  0.2201
 4205SOL    HW114161   4.458  -0.059   2.816  1.1075  0.1561  0.0854
 4205SOL    HW214162   4.384  -0.001   2.698  0.3487 -0.4701  0.2437
 4206SOL     OW14163   2.933   1.609   6.353  1.0736  0.4223  0.1506
 4206SOL    HW114164   2.880   1.559   6.415  1.5627 -0.8538 -0.4172
 4206SOL    HW214165   2.904   1.699   6.364  1.4172  0.2965  2.4871
 4207SOL     OW14166   2.617   3.336   3.190 -0.7708  0.2744 -0.0333
 4207SOL    HW114167   2.606   3.267   3.256  3.4121 -0.7821 -0.1618
 4207SOL    HW214168   2.662   3.406   3.236 -0.3430  0.7167 -1.0912
 4208SOL     OW14169   3.197   3.863   6.026  0.3020 -0.1018 -1.1732
 4208SOL    HW114170   3.287   3.832   6.015 -0.0514 -0.9840 -1.6870
 4208SOL    HW214171   3.149   3.823   5.953 -0.5380  0.2452 -0.8225
 4209SOL     OW14172   6.774   0.582   1.574  0.0208  0.1260  0.1693
 4209SOL    HW114173   6.720   0.557   1.499  0.6785 -0.0424 -0.2567
 4209SOL    HW214174   6.789   0.675   1.562  0.3090  0.0551 -0.0312
 4210SOL     OW14175   5.345   6.111   6.686  0.6146 -0.2725  0.5415
 4210SOL    HW114176   5.262   6.118   6.639  1.2244  1.3988 -0.3690
 4210SOL    HW214177   5.404   6.068   6.625  0.8994  0.2011  0.4773
 4211SOL     OW14178   1.622   2.633   1.556  0.1204  0.4757 -0.7476
 4211SOL    HW114179   1.555   2.669   1.496  0.8440  1.6315 -0.8988
 4211SOL    HW214180   1.655   2.710   1.602  1.5136 -0.0559 -0.8410
 4212SOL     OW14181   6.105   3.898   2.654  0.0219  0.1697 -0.5805
 4212SOL    HW114182   6.029   3.942   2.692  0.5582  1.4780 -0.9507
 4212SOL    HW214183   6.139   3.960   2.589  1.5154 -0.2835 -0.2833
 4213SOL     OW14184   0.603   3.584   0.881  0.3886 -0.3773  0.1658
 4213SOL    HW114185   0.663   3.553   0.948 -0.0417 -0.0041  0.7285
 4213SOL    HW214186   0.535   3.516   0.876  1.1287 -1.0782 -0.8656
 4214SOL     OW14187   6.635   1.076   1.233 -0.5670  0.7154 -0.3081
 4214SOL    HW114188   6.601   1.134   1.165  0.2851 -0.3206 -1.6818
 4214SOL    HW214189   6.693   1.131   1.285 -0.1312  1.2369 -1.3040
 4215SOL     OW14190   4.123   2.794   0.028  0.8814 -0.5527 -0.1578
 4215SOL    HW114191   4.211   2.798   0.064  0.8924  2.1133 -0.2371
 4215SOL    HW214192   4.117   2.872  -0.028 -1.7657 -0.2401  0.4363
 4216SOL     OW14193   0.585   6.406   3.071 -0.3008  0.2849  0.1530
 4216SOL    HW114194   0.508   6.362   3.107 -1.1380  0.6623 -1.1074
 4216SOL    HW214195   0.549   6.466   3.005  0.9612  1.4942  0.5303
 4217SOL     OW14196   4.547   6.616   3.161 -0.1303 -0.4754 -0.1090
 4217SOL    HW114197   4.559   6.698   3.209 -0.5705  0.2736 -1.2380
 4217SOL    HW214198   4.632   6.600   3.120 -0.4568  0.2341 -1.1017
 4218SOL     OW14199   5.433   5.354   5.805  0.1863  0.1386  0.0001
 4218SOL    HW114200   5.461   5.356   5.897  1.7541  0.1140 -0.4546
 4218SOL    HW214201   5.400   5.442   5.788 -0.1353  0.1387  0.5727
 4219SOL     OW14202   6.119   5.358   2.744 -0.3472 -0.2257  0.5029
 4219SOL    HW114203   6.184   5.423   2.772 -1.1628 -0.0828  2.1809
 4219SOL    HW214204   6.052   5.408   2.699 -0.2677 -0.0971  0.5271
 4220SOL     OW14205   5.780   6.524   4.501 -0.2848 -0.0245 -0.1127
 4220SOL    HW114206   5.749   6.451   4.555 -0.4819 -0.4897 -0.8402
 4220SOL    HW214207   5.718   6.529   4.429  0.7411 -0.3339 -1.0586
 4221SOL     OW14208   4.316   2.859   3.126 -0.1883 -0.1266 -0.3443
 4221SOL    HW114209   4.307   2.782   3.183  1.8575  0.6655  1.2042
 4221SOL    HW214210   4.397   2.900   3.156  0.6021  0.7676 -3.4029
 4222SOL     OW14211   3.994   3.446   3.655 -0.3875 -0.4233  0.2832
 4222SOL    HW114212   4.088   3.448   3.642 -0.3256 -1.6381  0.3506
 4222SOL    HW214213   3.959   3.514   3.598  0.5472  0.2365  0.4865
 4223SOL     OW14214   5.976   3.732   5.171 -0.0844 -0.3216 -0.2453
 4223SOL    HW114215   5.919   3.808   5.179  0.1904 -0.2328  1.0628
 4223SOL    HW214216   5.916   3.657   5.179  0.0153 -0.2371  1.9983
 4224SOL     OW14217   4.656   0.482   3.205 -0.7192  0.1792 -0.1207
 4224SOL    HW114218   4.581   0.461   3.260 -1.7278  0.8019 -1.2221
 4224SOL    HW214219   4.720   0.519   3.266 -1.6920  0.5735  0.6920
 4225SOL     OW14220   5.489   5.319   2.474  0.4972  0.4418  0.0692
 4225SOL    HW114221   5.419   5.294   2.414  0.2307 -1.3513  1.0446
 4225SOL    HW214222   5.542   5.240   2.484  2.4665  1.6371 -0.3256
 4226SOL     OW14223   2.537   3.367   4.394 -0.4049  0.3712  0.1213
 4226SOL    HW114224   2.474   3.400   4.459  0.0261  1.6302 -0.0673
 4226SOL    HW214225   2.614   3.422   4.406  0.4515 -0.7480 -0.0664
 4227SOL     OW14226   4.988   6.579   5.918 -0.3864 -0.1971  0.3459
 4227SOL    HW114227   4.944   6.592   5.834 -1.1259  0.7336  0.8575
 4227SOL    HW214228   5.005   6.667   5.950  0.0982 -0.5437  1.0789
 4228SOL     OW14229   0.942   4.485   0.914 -0.9291 -0.4791 -0.1135
 4228SOL    HW114230   0.866   4.449   0.869 -1.3021 -1.1565  1.0326
 4228SOL    HW214231   0.942   4.578   0.891 -1.1150 -0.7985 -1.4798
 4229SOL     OW14232   1.486   1.201   1.334 -0.3322  0.2822 -0.5221
 4229SOL    HW114233   1.466   1.125   1.388 -0.3253  0.9316  0.4107
 4229SOL    HW214234   1.400   1.232   1.304 -0.4702  0.8886  0.4692
 4230SOL     OW14235   4.354   3.267   4.875 -0.7122 -0.1274  0.0683
 4230SOL    HW114236   4.311   3.336   4.926 -0.4107 -1.7750  2.7167
 4230SOL    HW214237   4.293   3.193   4.879 -0.1434 -0.6649 -1.0140
 4231SOL     OW14238   3.308   3.625   2.080  0.5073 -0.4114 -0.0021
 4231SOL    HW114239   3.320   3.536   2.114  0.2106 -1.0013 -1.3587
 4231SOL    HW214240   3.303   3.614   1.985  0.6127  1.0825 -0.2117
 4232SOL     OW14241   4.799   6.659   6.112 -0.0980 -0.1198  0.0714
 4232SOL    HW114242   4.879   6.646   6.062  0.5000  4.0349 -0.3575
 4232SOL    HW214243   4.821   6.631   6.201  1.8103  0.8008 -0.0715
 4233SOL     OW14244   0.915   3.580   0.813 -0.0495  0.0603  0.3633
 4233SOL    HW114245   0.974   3.521   0.860  0.0422 -2.8968 -3.0314
 4233SOL    HW214246   0.828   3.561   0.849  0.3009 -0.1058  1.1429
 4234SOL     OW14247   3.852   4.315   0.180  0.1591 -0.4016 -0.3143
 4234SOL    HW114248   3.888   4.368   0.251  1.1188 -0.3645 -0.8094
 4234SOL    HW214249   3.776   4.364   0.149  0.8465  0.5190 -0.5546
 4235SOL     OW14250   5.724   4.158   0.618 -0.1507  0.3566 -0.1982
 4235SOL    HW114251   5.792   4.201   0.671  0.2333  1.1139 -1.2590
 4235SOL    HW214252   5.687   4.229   0.565 -1.1670 -0.2147 -0.2704
 4236SOL     OW14253   6.237   2.013   1.573  0.1378 -0.8871  0.8541
 4236SOL    HW114254   6.145   2.032   1.595  0.3196 -0.6622  1.4489
 4236SOL    HW214255   6.266   1.953   1.642  0.3229 -1.2840  0.4366
 4237SOL     OW14256   2.101   0.062   5.502  0.5077 -0.0314  0.0838
 4237SOL    HW114257   2.181   0.008   5.499  0.6459  0.2018 -0.9828
 4237SOL    HW214258   2.068   0.051   5.591  0.9917 -1.2131  0.1382
 4238SOL     OW14259   5.890   2.270   0.310  0.1759 -0.4595 -0.7908
 4238SOL    HW114260   5.942   2.314   0.378  0.5178 -1.9207 -0.0715
 4238SOL    HW214261   5.853   2.342   0.259  0.7707  0.6654  0.2918
 4239SOL     OW14262   5.453   0.925   3.578 -0.3453 -0.0583  0.5755
 4239SOL    HW114263   5.388   0.940   3.646  2.4831 -0.0926  3.5429
 4239SOL    HW214264   5.475   1.012   3.546  0.9937  0.4132  2.5813
 4240SOL     OW14265   2.633   0.151   1.925 -0.7291 -0.3642  0.8444
 4240SOL    HW114266   2.547   0.182   1.952 -1.8318 -1.0846 -1.5755
 4240SOL    HW214267   2.627   0.056   1.931  0.0518 -0.4090  1.0312
 4241SOL     OW14268   3.275   4.780   4.500 -0.2841 -0.0782  0.2784
 4241SOL    HW114269   3.271   4.870   4.531 -0.3847  0.0974 -0.2456
 4241SOL    HW214270   3.274   4.786   4.405  1.2146 -0.5698  0.2068
 4242SOL     OW14271   1.537   5.140   6.310  0.1514 -0.1382 -0.6122
 4242SOL    HW114272   1.470   5.082   6.273 -1.6977  1.2139  0.4126
 4242SOL    HW214273   1.610   5.135   6.249 -0.1590 -3.0263 -0.9014
 4243SOL     OW14274   5.284   5.003   5.515 -0.3664  0.1585 -0.0257
 4243SOL    HW114275   5.352   5.069   5.507 -0.1585 -0.1481 -0.9525
 4243SOL    HW214276   5.271   4.992   5.609  0.8570  0.2219  0.1612
 4244SOL     OW14277   3.939   5.648   1.159  0.0442 -0.0541  0.4274
 4244SOL    HW114278   3.946   5.743   1.168 -1.5441 -0.0290  2.0153
 4244SOL    HW214279   3.867   5.634   1.098  0.8387 -0.2693 -0.4887
 4245SOL     OW14280   1.361   1.556   6.107  0.0053 -0.7107 -0.5230
 4245SOL    HW114281   1.303   1.559   6.183  1.7849  0.2896  0.9084
 4245SOL    HW214282   1.448   1.540   6.144  1.0349  0.4100 -2.2645
 4246SOL     OW14283   3.099   2.095   6.254 -0.2677  0.8183 -0.2769
 4246SOL    HW114284   3.082   2.128   6.342 -0.2822 -0.6147  0.2900
 4246SOL    HW214285   3.043   2.148   6.197 -1.0731  1.0630  0.7074
 4247SOL     OW14286   2.512   4.094   6.062 -0.2587  0.4292 -0.1540
 4247SOL    HW114287   2.559   4.083   5.980 -0.3096  0.6404 -0.2103
 4247SOL    HW214288   2.420   4.094   6.037 -0.3806 -1.5873  0.1149
 4248SOL     OW14289   4.834   4.202   1.388 -0.6602 -0.2091  0.0857
 4248SOL    HW114290   4.869   4.135   1.448 -1.5463  0.9222  1.9547
 4248SOL    HW214291   4.892   4.277   1.401  0.5364 -0.6464 -2.2513
 4249SOL     OW14292   1.877   4.805   0.146 -0.0965 -0.1343  0.0015
 4249SOL    HW114293   1.869   4.770   0.235  1.0326 -1.9792 -0.5554
 4249SOL    HW214294   1.795   4.782   0.103 -0.3292  0.0543  0.3456
 4250SOL     OW14295   0.868   3.460   2.886 -0.2644 -0.4825  0.0769
 4250SOL    HW114296   0.887   3.552   2.867  4.2108 -1.5180 -1.6365
 4250SOL    HW214297   0.888   3.450   2.979  0.1864  0.0839  0.0441
 4251SOL     OW14298   3.408   6.579   3.400 -0.6619 -0.3809  0.6415
 4251SOL    HW114299   3.458   6.529   3.335 -1.6581 -2.1217  1.1503
 4251SOL    HW214300   3.358   6.642   3.348 -0.3507 -0.7766 -0.1545
 4252SOL     OW14301   0.815   6.028   4.090 -0.0257 -0.1272 -0.0164
 4252SOL    HW114302   0.720   6.031   4.079 -0.4624 -2.4793  2.1677
 4252SOL    HW214303   0.831   5.950   4.142  3.2078 -0.1330 -0.7879
 4253SOL     OW14304   3.939   1.730   1.857  0.5173 -0.5481 -0.1071
 4253SOL    HW114305   3.916   1.648   1.814  1.0620 -0.7626 -0.0001
 4253SOL    HW214306   3.918   1.716   1.950 -1.8246  0.3389 -0.4275
 4254SOL     OW14307   5.978   0.886   1.878 -0.2353 -0.6690  0.8210
 4254SOL    HW114308   6.043   0.818   1.862  2.2618  1.4000  1.5384
 4254SOL    HW214309   6.012   0.963   1.833 -1.9469  0.6571  1.6654
 4255SOL     OW14310   1.087   1.322   5.840  1.0646 -0.0569 -0.3107
 4255SOL    HW114311   1.079   1.245   5.783  0.3674 -0.2612  0.0460
 4255SOL    HW214312   1.026   1.305   5.911  1.7300  0.3224  0.3610
 4256SOL     OW14313   4.245   1.382   6.050  0.3707 -0.2052  0.2143
 4256SOL    HW114314   4.298   1.417   5.979 -0.3564 -0.1744 -0.3212
 4256SOL    HW214315   4.165   1.435   6.049  1.1559  1.1319  2.3340
 4257SOL     OW14316   3.869   0.017   1.989  0.4435 -0.0560 -0.1112
 4257SOL    HW114317   3.875   0.103   2.031  1.0256  0.2244 -0.7547
 4257SOL    HW214318   3.817  -0.036   2.050  1.9194  0.0983  1.3364
 4258SOL     OW14319   0.902   6.538   0.354 -0.3561 -0.0716  0.9721
 4258SOL    HW114320   0.848   6.578   0.286 -0.8339 -1.0165  0.7737
 4258SOL    HW214321   0.960   6.479   0.306  0.2771  0.3027  1.2646
 4259SOL     OW14322   6.302   4.343   1.758 -0.7062  0.3663  0.4131
 4259SOL    HW114323   6.334   4.276   1.819 -1.9919  0.0965  0.8197
 4259SOL    HW214324   6.380   4.393   1.735  0.4476 -1.7074 -0.4823
 4260SOL     OW14325   4.348   6.546   4.581  0.2536 -0.1894 -0.4654
 4260SOL    HW114326   4.281   6.509   4.524  1.3020 -1.4140 -0.9516
 4260SOL    HW214327   4.365   6.477   4.646  0.9124  0.1582 -0.2570
 4261SOL     OW14328   5.110   5.021   3.649  0.3283 -0.7092  0.5879
 4261SOL    HW114329   5.085   5.066   3.729  2.4223  0.4864  0.6409
 4261SOL    HW214330   5.042   5.043   3.586  0.6676  1.6152  0.9637
 4262SOL     OW14331   6.410   6.659   1.473 -0.2957 -0.0224  0.2720
 4262SOL    HW114332   6.360   6.741   1.474 -1.6039 -0.7509 -0.6294
 4262SOL    HW214333   6.470   6.669   1.399  0.2258  0.4897  0.7605
 4263SOL     OW14334   1.343   2.276   2.735  0.3677 -0.1734  0.3905
 4263SOL    HW114335   1.317   2.192   2.698  0.6750 -0.3333  0.5416
 4263SOL    HW214336   1.422   2.258   2.785 -0.1046  0.0122  1.2325
 4264SOL     OW14337   6.724   4.245   1.173  0.1728  0.2354 -0.5150
 4264SOL    HW114338   6.736   4.237   1.267 -1.3095 -1.0049 -0.3855
 4264SOL    HW214339   6.775   4.173   1.136  1.6126  1.3368 -0.7890
 4265SOL     OW14340   6.612   4.268   4.650  0.7809 -0.3371  0.0987
 4265SOL    HW114341   6.540   4.229   4.600  0.6036 -0.0603  0.1325
 4265SOL    HW214342   6.573   4.346   4.690  1.0694 -0.2538  0.2169
 4266SOL     OW14343   1.803   6.697   1.184  0.5413  0.3647 -0.5626
 4266SOL    HW114344   1.869   6.652   1.237  1.6397  0.2165 -1.9862
 4266SOL    HW214345   1.747   6.626   1.151 -0.0807  0.4475  0.2716
 4267SOL     OW14346   3.646   2.843   5.212 -0.1301  0.3611  0.5254
 4267SOL    HW114347   3.652   2.751   5.237  0.3256  0.6727  1.6111
 4267SOL    HW214348   3.576   2.879   5.268  0.3440  0.8842  0.7909
 4268SOL     OW14349   5.273   0.653   5.861  0.0340  0.2909 -0.4140
 4268SOL    HW114350   5.253   0.669   5.769 -2.3768 -0.6457 -0.1415
 4268SOL    HW214351   5.335   0.581   5.860  1.2131  1.2632 -1.2944
 4269SOL     OW14352   0.257   1.988   4.775 -0.0499  0.2042  0.5746
 4269SOL    HW114353   0.190   1.947   4.720  0.0502  0.2926  0.3851
 4269SOL    HW214354   0.209   2.024   4.849 -0.2725  0.6824  0.2001
 4270SOL     OW14355   1.901   0.632   6.245  0.3048  0.3441  0.5607
 4270SOL    HW114356   1.910   0.691   6.170 -0.5266  2.0138  1.7133
 4270SOL    HW214357   1.976   0.652   6.301  1.0791 -1.0975  0.0962
 4271SOL     OW14358   5.583   4.552   6.459 -0.5638  0.2949 -0.5876
 4271SOL    HW114359   5.570   4.507   6.376  0.0844 -0.9175 -0.0645
 4271SOL    HW214360   5.649   4.618   6.441 -1.9301  1.4702 -1.5032
 4272SOL     OW14361   0.080   5.940   1.242 -0.0349  0.5704  0.6500
 4272SOL    HW114362   0.171   5.966   1.251 -0.4055  1.6337  1.5642
 4272SOL    HW214363   0.057   5.903   1.327 -0.0957 -0.9494  0.0012
 4273SOL     OW14364   2.327   2.060   6.619  0.7974 -0.3363  0.2873
 4273SOL    HW114365   2.246   2.059   6.568  1.1273 -0.5707 -0.2377
 4273SOL    HW214366   2.383   2.122   6.572  1.0884 -0.5191  0.3968
 4274SOL     OW14367   0.676   5.735   6.738  0.3084 -0.5898  0.1782
 4274SOL    HW114368   0.766   5.708   6.725  0.1336 -1.1660  0.1598
 4274SOL    HW214369   0.682   5.830   6.753  0.7868 -0.3949 -1.1126
 4275SOL     OW14370   5.494   4.741   2.081 -0.2785  0.6073  0.8361
 4275SOL    HW114371   5.518   4.661   2.034  1.3814  2.7065 -2.2691
 4275SOL    HW214372   5.519   4.812   2.021 -1.2649  3.4912  3.5759
 4276SOL     OW14373   3.908   1.438   3.992 -0.5780 -0.5947 -0.2719
 4276SOL    HW114374   3.922   1.498   4.065  0.4898  1.0603 -1.7519
 4276SOL    HW214375   3.838   1.478   3.941  0.4793 -0.2925 -1.5436
 4277SOL     OW14376   4.115   5.997   5.429  0.0241 -0.1394  0.3089
 4277SOL    HW114377   4.121   5.905   5.404  0.5476  0.3609 -1.6535
 4277SOL    HW214378   4.206   6.025   5.436 -0.0270  0.8396 -1.9055
 4278SOL     OW14379   2.172   2.942   0.264  0.0194  0.4971 -0.1987
 4278SOL    HW114380   2.190   2.875   0.329 -0.2676  1.2151  0.6377
 4278SOL    HW214381   2.240   2.930   0.197 -1.8774 -2.7445 -1.8131
 4279SOL     OW14382   4.805   5.549   0.301  0.2421  0.8474 -0.3333
 4279SOL    HW114383   4.879   5.607   0.282  1.2690  0.5787  2.3039
 4279SOL    HW214384   4.749   5.600   0.359 -0.0756  0.0422  0.0892
 4280SOL     OW14385   1.418   0.481   1.857 -0.3121 -0.0093  0.1556
 4280SOL    HW114386   1.479   0.422   1.901  0.9761  0.5757 -0.7732
 4280SOL    HW214387   1.427   0.459   1.764 -1.3122  0.2870 -0.0152
 4281SOL     OW14388   2.563   4.458   0.450  0.4255  0.7067 -0.2184
 4281SOL    HW114389   2.650   4.419   0.459  0.3368  0.6412  0.3780
 4281SOL    HW214390   2.579   4.552   0.451  0.6382  0.7105 -1.6421
 4282SOL     OW14391   4.919   6.497   3.417  0.3065 -0.3659 -0.4425
 4282SOL    HW114392   4.940   6.512   3.325  1.0160  0.2805 -0.1857
 4282SOL    HW214393   4.994   6.450   3.452 -1.0461 -2.9319 -0.7626
 4283SOL     OW14394   4.952   1.493   4.154  0.6430 -0.2132 -0.4429
 4283SOL    HW114395   4.933   1.441   4.232  2.3180  1.4732  1.1737
 4283SOL    HW214396   4.866   1.519   4.121 -0.1007 -1.1893  0.6573
 4284SOL     OW14397   1.275   2.920   4.101  0.0300  0.0526 -0.2651
 4284SOL    HW114398   1.280   2.988   4.034 -1.7150  0.7688  0.2803
 4284SOL    HW214399   1.304   2.963   4.181 -0.5355  0.0015 -0.0283
 4285SOL     OW14400   5.690   4.549   5.272 -0.1278  0.0874 -0.3520
 4285SOL    HW114401   5.756   4.555   5.340 -0.4905 -1.1604  0.1495
 4285SOL    HW214402   5.715   4.472   5.221  0.1784  1.0403 -1.6991
 4286SOL     OW14403   4.639   0.565   2.923 -0.4221  0.5780  0.1211
 4286SOL    HW114404   4.609   0.491   2.871 -0.3276  0.2596  0.5110
 4286SOL    HW214405   4.642   0.532   3.013  2.6965  0.0246 -0.0447
 4287SOL     OW14406   3.597   2.840   2.891 -0.3985  0.3246 -0.0355
 4287SOL    HW114407   3.682   2.796   2.891 -1.3411 -1.6192 -1.2460
 4287SOL    HW214408   3.597   2.894   2.811 -0.9927 -1.1922 -1.0984
 4288SOL     OW14409   3.858   6.080   1.070  0.7492  0.1232  0.2268
 4288SOL    HW114410   3.917   6.023   1.019 -0.3473 -0.3418 -0.5658
 4288SOL    HW214411   3.785   6.023   1.095 -0.9038  1.3634 -1.4835
 4289SOL     OW14412   5.040   6.035   3.952 -0.2192  0.0634  0.2151
 4289SOL    HW114413   5.019   6.125   3.977  0.7920  1.1691 -2.5489
 4289SOL    HW214414   5.014   5.983   4.028 -0.4102  2.7035  2.1137
 4290SOL     OW14415   5.380   1.625   5.003  0.1244 -0.1567 -0.0989
 4290SOL    HW114416   5.408   1.716   5.003 -1.0032  0.2851  2.2811
 4290SOL    HW214417   5.425   1.586   5.079  2.4593 -2.3168 -2.3826
 4291SOL     OW14418   4.591   5.581   3.897 -0.1407 -0.1421 -0.0180
 4291SOL    HW114419   4.661   5.595   3.833  0.2140  1.8920  0.7370
 4291SOL    HW214420   4.511   5.582   3.845  0.1324  1.6014 -0.4723
 4292SOL     OW14421   2.961   1.156   0.345 -0.1467  0.3824  0.1042
 4292SOL    HW114422   2.975   1.191   0.258 -2.1358 -0.4878 -0.6388
 4292SOL    HW214423   3.031   1.092   0.358 -0.1125  0.1672 -1.0743
 4293SOL     OW14424   0.457   3.663   1.407  0.0122 -0.8133  0.4690
 4293SOL    HW114425   0.456   3.726   1.335  1.3396 -0.8852  0.3642
 4293SOL    HW214426   0.463   3.718   1.486 -2.0292 -0.7079  0.6071
 4294SOL     OW14427   5.554   3.508   0.375 -0.2619 -0.0905 -0.2887
 4294SOL    HW114428   5.591   3.419   0.382  0.8791  0.3387 -0.7048
 4294SOL    HW214429   5.469   3.495   0.334  0.4506 -0.8902 -1.5905
 4295SOL     OW14430   3.854   0.771   4.650  0.0842  0.0460 -0.3222
 4295SOL    HW114431   3.783   0.749   4.590  0.1172  0.3630 -0.4788
 4295SOL    HW214432   3.932   0.730   4.611 -0.2267 -1.4743  0.5523
 4296SOL     OW14433   5.275   4.331   1.005 -0.1004 -0.0815  0.0432
 4296SOL    HW114434   5.293   4.272   1.078 -0.4830  0.5497  0.6579
 4296SOL    HW214435   5.354   4.326   0.950 -0.1099 -1.1227  0.0947
 4297SOL     OW14436   6.292   6.063   3.322 -0.2812  0.3681 -0.0231
 4297SOL    HW114437   6.311   6.035   3.412  0.3926 -0.5452 -0.4273
 4297SOL    HW214438   6.369   6.115   3.297 -0.5124  0.7044 -0.0389
 4298SOL     OW14439   0.106   3.881   5.787 -0.2411  0.6535 -0.1870
 4298SOL    HW114440   0.140   3.793   5.770 -2.0098 -0.0472 -0.4053
 4298SOL    HW214441   0.122   3.895   5.880  2.9083  1.4677 -0.7597
 4299SOL     OW14442   2.072   1.541   6.305 -0.0449 -0.0001 -0.3858
 4299SOL    HW114443   2.000   1.545   6.242 -0.4684 -0.3477  0.0640
 4299SOL    HW214444   2.034   1.497   6.381  0.8810 -0.9469 -0.4537
 4300SOL     OW14445   2.978   3.312   4.299  0.5933 -0.1767  0.1027
 4300SOL    HW114446   3.058   3.352   4.332  0.0917  1.4847 -0.6389
 4300SOL    HW214447   2.907   3.366   4.335 -0.2447 -1.7379  0.9188
 4301SOL     OW14448   6.593   5.431   5.845 -0.0773 -0.8412  0.3455
 4301SOL    HW114449   6.684   5.401   5.837 -0.0176 -0.3253 -1.4022
 4301SOL    HW214450   6.550   5.397   5.766 -1.0528  0.0785  0.4680
 4302SOL     OW14451   3.511   2.466   4.578 -0.0543  0.7345 -0.2466
 4302SOL    HW114452   3.584   2.526   4.591  0.8914 -0.1614 -1.2554
 4302SOL    HW214453   3.542   2.382   4.613 -0.9602  0.5702  0.1825
 4303SOL     OW14454   4.654   1.068   4.660  0.0704  0.3191  0.3671
 4303SOL    HW114455   4.597   1.143   4.645 -1.1550 -0.6719 -0.0942
 4303SOL    HW214456   4.739   1.106   4.684 -0.8489  1.8323  1.3898
 4304SOL     OW14457   2.357   6.266   3.950 -0.1310 -0.1067  1.2547
 4304SOL    HW114458   2.315   6.288   4.033 -0.3813  0.3913  1.0010
 4304SOL    HW214459   2.429   6.328   3.941 -1.0516  0.8745  0.3710
 4305SOL     OW14460   1.792   0.883   6.703  0.0650  0.5369 -0.3019
 4305SOL    HW114461   1.714   0.867   6.757  1.4109 -1.6837  1.1457
 4305SOL    HW214462   1.780   0.825   6.627  0.6673 -0.5001  0.3678
 4306SOL     OW14463   6.401   5.647   6.257 -0.0251 -0.3972  0.2716
 4306SOL    HW114464   6.434   5.595   6.184 -1.4900  1.5134 -1.8864
 4306SOL    HW214465   6.456   5.725   6.258 -0.5531 -0.0199  0.6557
 4307SOL     OW14466   0.182   1.896   6.450  0.7942  0.0820  0.4847
 4307SOL    HW114467   0.244   1.824   6.440 -0.5428 -0.9275 -1.0470
 4307SOL    HW214468   0.208   1.960   6.385  1.5781  0.7002  1.3912
 4308SOL     OW14469   0.998   4.361   3.155 -0.0630 -0.3380  0.5641
 4308SOL    HW114470   1.039   4.406   3.082 -0.3385 -1.9301 -0.6173
 4308SOL    HW214471   1.069   4.351   3.219  0.2856  0.6975  0.3722
 4309SOL     OW14472   6.046   1.090   0.380  0.0073  0.6108  1.1338
 4309SOL    HW114473   6.027   1.108   0.472 -2.3955 -0.0291  0.8267
 4309SOL    HW214474   5.979   1.026   0.353 -0.3246  1.8851 -1.4205
 4310SOL     OW14475   6.077   4.384   1.991 -0.1317 -0.3879 -0.0672
 4310SOL    HW114476   6.136   4.324   1.945 -0.5272 -2.4983  1.9896
 4310SOL    HW214477   6.132   4.424   2.059 -0.2354  0.4795 -0.4814
 4311SOL     OW14478   2.202   3.319   4.569 -0.5542 -0.5693  0.2529
 4311SOL    HW114479   2.245   3.239   4.539  0.1101  0.4742 -1.6897
 4311SOL    HW214480   2.274   3.375   4.599 -0.6695  0.4958 -1.3589
 4312SOL     OW14481   1.534   2.434   2.071  0.0258  0.1660 -0.2915
 4312SOL    HW114482   1.542   2.339   2.077 -1.9630 -0.0879 -0.9564
 4312SOL    HW214483   1.566   2.455   1.983 -2.4821 -0.3484 -1.4182
 4313SOL     OW14484   0.535   3.786   5.013  0.7849 -0.2673  0.0271
 4313SOL    HW114485   0.512   3.878   5.003 -1.2612 -0.7864 -0.6501
 4313SOL    HW214486   0.454   3.739   4.992  1.8718 -2.2353 -0.0221
 4314SOL     OW14487   5.777   6.006   1.798 -0.4892 -0.0099 -0.1769
 4314SOL    HW114488   5.819   6.047   1.723  0.6237  1.3377  1.1273
 4314SOL    HW214489   5.719   6.073   1.833 -0.3143 -0.2972  0.6876
 4315SOL     OW14490   1.430   6.110   0.831  0.3339 -0.1171  0.3862
 4315SOL    HW114491   1.395   6.117   0.742 -0.1701 -0.3629  0.5638
 4315SOL    HW214492   1.463   6.021   0.837  2.1652  0.4878 -0.1999
 4316SOL     OW14493   5.439   1.611   5.565 -0.2240 -0.0106 -0.0811
 4316SOL    HW114494   5.493   1.608   5.644 -0.2632  0.7230 -0.0192
 4316SOL    HW214495   5.376   1.540   5.577  1.6677 -1.9570 -0.8761
 4317SOL     OW14496   5.935   1.158   3.308 -0.5663  0.1582  0.1354
 4317SOL    HW114497   5.894   1.082   3.349 -0.4886  0.2826  0.4493
 4317SOL    HW214498   5.967   1.126   3.224 -0.9987 -0.0238  0.0406
 4318SOL     OW14499   6.676   2.099   0.250 -0.4246  0.4305 -0.0297
 4318SOL    HW114500   6.662   2.135   0.162 -1.1625 -0.9112 -0.4842
 4318SOL    HW214501   6.684   2.177   0.306  2.5050  1.3929 -1.5745
 4319SOL     OW14502   2.853   4.308   4.977  0.1188  0.0359 -0.5340
 4319SOL    HW114503   2.863   4.247   4.904  1.2709 -1.1676  0.5706
 4319SOL    HW214504   2.929   4.365   4.972 -0.3201  0.6104 -0.8351
 4320SOL     OW14505   0.881   1.227   6.290  0.3174  0.1540 -0.2011
 4320SOL    HW114506   0.907   1.199   6.377  0.4023 -1.8182 -0.8132
 4320SOL    HW214507   0.786   1.216   6.289  0.1679  1.3577  0.0256
 4321SOL     OW14508   4.974   6.035   4.349  0.3070 -0.0500  0.0366
 4321SOL    HW114509   4.923   5.997   4.421  1.0981 -0.0345  0.6089
 4321SOL    HW214510   4.916   6.026   4.273 -0.0360 -1.2256  0.4080
 4322SOL     OW14511   3.964   0.730   1.761 -0.4631 -0.1070  0.7588
 4322SOL    HW114512   3.915   0.671   1.819 -0.4105 -0.7389  0.1707
 4322SOL    HW214513   3.961   0.687   1.676 -2.3627  1.7893 -0.2482
 4323SOL     OW14514   3.800   0.535   0.920 -0.3187 -0.0941  0.5249
 4323SOL    HW114515   3.864   0.602   0.894 -0.3382 -0.6599 -1.1303
 4323SOL    HW214516   3.716   0.581   0.920  0.0377  0.6432  2.6640
 4324SOL     OW14517   4.828   2.599   5.024  0.0609  0.4991  0.3604
 4324SOL    HW114518   4.866   2.682   4.995  1.7726 -0.1052  0.7189
 4324SOL    HW214519   4.841   2.598   5.119 -1.7711  0.6651  0.6476
 4325SOL     OW14520   5.658   0.866   6.435 -0.0953 -0.5755 -0.1973
 4325SOL    HW114521   5.604   0.879   6.512  0.7112  0.5368  0.2028
 4325SOL    HW214522   5.675   0.954   6.402  3.6373 -0.6224  1.2082
 4326SOL     OW14523   3.104   0.145   1.842  0.1997  0.2098 -0.8783
 4326SOL    HW114524   3.108   0.229   1.797 -0.3390  0.4800 -0.4497
 4326SOL    HW214525   3.195   0.123   1.862  0.3524  0.6316 -1.1005
 4327SOL     OW14526   0.981   2.271   1.070  0.2704  0.5712 -0.4620
 4327SOL    HW114527   0.961   2.342   1.130  1.3496 -0.7259  1.5223
 4327SOL    HW214528   1.071   2.288   1.041  0.2747  0.4052 -0.5507
 4328SOL     OW14529   3.365   1.993   0.457  0.2250  0.1478 -0.6862
 4328SOL    HW114530   3.280   1.954   0.437 -0.0471 -0.3576  1.1953
 4328SOL    HW214531   3.350   2.041   0.539  2.2214 -1.8420  0.9632
 4329SOL     OW14532   5.271   2.731   1.165  0.1193 -0.0449  0.5903
 4329SOL    HW114533   5.223   2.704   1.244  2.3733 -0.3097  1.9806
 4329SOL    HW214534   5.364   2.723   1.190  0.9074  1.1346 -1.6831
 4330SOL     OW14535   5.297   3.250   4.481  0.4850 -0.2095 -0.0794
 4330SOL    HW114536   5.274   3.299   4.560  0.2736  0.2873 -0.4449
 4330SOL    HW214537   5.310   3.317   4.414 -0.0375 -0.6578 -0.6431
 4331SOL     OW14538   5.558   4.361   3.746 -0.1406 -0.0818 -0.0867
 4331SOL    HW114539   5.472   4.321   3.733 -0.1319 -0.1373  0.0243
 4331SOL    HW214540   5.599   4.360   3.659 -0.8788  1.4314 -0.4870
 4332SOL     OW14541   4.514   2.897   4.582 -0.0228  0.5173  0.1044
 4332SOL    HW114542   4.597   2.881   4.537 -0.6719 -2.7449 -0.1737
 4332SOL    HW214543   4.448   2.853   4.528 -1.5228  0.6057  1.7692
 4333SOL     OW14544   4.844   6.543   6.368  0.2693  0.1968  0.4880
 4333SOL    HW114545   4.890   6.624   6.387 -0.5803  0.7360  0.2708
 4333SOL    HW214546   4.897   6.475   6.410  1.1796  0.8176  0.3584
 4334SOL     OW14547   5.841   1.302   5.985 -0.2581  0.2483  0.5965
 4334SOL    HW114548   5.888   1.297   5.902  1.0107  0.0700  1.2966
 4334SOL    HW214549   5.806   1.391   5.987 -2.1432 -0.3967 -1.0541
 4335SOL     OW14550   1.409   2.856   0.332  0.0264  0.0662  0.5611
 4335SOL    HW114551   1.408   2.786   0.267 -0.3239 -1.4762  2.1594
 4335SOL    HW214552   1.328   2.905   0.316  0.8491  0.9054 -1.3331
 4336SOL     OW14553   0.929   2.928   5.884 -0.0203  0.3709 -0.0437
 4336SOL    HW114554   1.019   2.920   5.917  0.0696  1.0877 -0.1056
 4336SOL    HW214555   0.929   2.877   5.804  0.1010 -0.3323  0.3948
 4337SOL     OW14556   2.817   0.437   1.665 -0.0814  0.2804  0.1328
 4337SOL    HW114557   2.737   0.384   1.665 -0.6570  1.0917  1.6022
 4337SOL    HW214558   2.886   0.375   1.687 -0.5080 -0.1678  0.2346
 4338SOL     OW14559   5.513   1.618   3.378 -0.1721  0.4223  0.2177
 4338SOL    HW114560   5.477   1.692   3.427 -0.8810 -1.2252  2.3363
 4338SOL    HW214561   5.583   1.584   3.434 -0.0946 -0.7184 -0.5373
 4339SOL     OW14562   0.314   6.621   0.303 -0.3409 -0.1244 -0.1579
 4339SOL    HW114563   0.223   6.603   0.325 -0.1001 -3.1836 -1.1793
 4339SOL    HW214564   0.362   6.607   0.385 -0.7576  1.5446  0.3930
 4340SOL     OW14565   1.916   5.467   5.322  0.2295  0.0004 -0.1337
 4340SOL    HW114566   1.843   5.524   5.348  0.5332  0.2966  0.0658
 4340SOL    HW214567   1.893   5.438   5.234  0.2994  0.8031 -0.4199
 4341SOL     OW14568   0.816   0.940   2.811  0.3728 -0.0766  0.0052
 4341SOL    HW114569   0.877   0.923   2.739 -1.1520 -0.5540 -1.2544
 4341SOL    HW214570   0.808   1.035   2.813  0.5665 -0.0480 -0.3636
 4342SOL     OW14571   4.872   4.402   2.688  0.2526 -0.5378 -0.2705
 4342SOL    HW114572   4.869   4.393   2.593  1.1582  0.6260 -0.4314
 4342SOL    HW214573   4.881   4.496   2.703 -2.9544 -0.3128  1.0747
 4343SOL     OW14574   4.143   5.796   3.729  0.2486  0.0406  0.4912
 4343SOL    HW114575   4.212   5.791   3.663  0.9001 -0.2732  1.1823
 4343SOL    HW214576   4.075   5.850   3.689  0.1610 -1.0272 -0.8462
 4344SOL     OW14577   1.144   0.479   2.123 -0.1717 -0.2344 -0.4535
 4344SOL    HW114578   1.052   0.452   2.123 -0.0894 -0.8432  2.3233
 4344SOL    HW214579   1.176   0.456   2.036 -2.2414 -1.5332 -0.9310
 4345SOL     OW14580   4.594   6.483   5.023  0.1834 -0.0420  0.4743
 4345SOL    HW114581   4.615   6.577   5.019 -1.1097  0.2312 -0.2000
 4345SOL    HW214582   4.680   6.440   5.016  0.6602  1.0557 -0.9583
 4346SOL     OW14583   0.219   3.064   4.486  0.1802 -0.3325  0.3542
 4346SOL    HW114584   0.284   3.019   4.539  0.7074 -1.9051 -1.5061
 4346SOL    HW214585   0.153   3.094   4.548  2.3259  0.7981  2.2393
 4347SOL     OW14586   4.862   2.100   1.771 -0.6309 -0.4341  0.2005
 4347SOL    HW114587   4.794   2.061   1.716 -0.6479  1.4459 -1.1759
 4347SOL    HW214588   4.936   2.113   1.712 -0.2781  0.6497  0.8622
 4348SOL     OW14589   2.921   6.186   1.371  0.1733 -0.3915  0.0896
 4348SOL    HW114590   2.947   6.094   1.379 -1.1728 -0.6064  3.5276
 4348SOL    HW214591   2.973   6.232   1.437 -2.5197  0.4162  1.8073
 4349SOL     OW14592   5.586   4.452   1.027  0.4388 -0.0029  0.7345
 4349SOL    HW114593   5.639   4.521   1.067 -0.8875  0.7172  1.3059
 4349SOL    HW214594   5.545   4.494   0.951  1.4458 -0.8319 -0.2945
 4350SOL     OW14595   3.340   4.292   2.756 -0.3991 -0.3968 -0.5076
 4350SOL    HW114596   3.395   4.309   2.832 -0.4732  0.0115 -0.5423
 4350SOL    HW214597   3.376   4.347   2.687 -0.0588 -1.0989 -0.8983
 4351SOL     OW14598   2.386   3.542   4.236 -1.0761 -0.0437  0.0486
 4351SOL    HW114599   2.460   3.487   4.262  0.0042  0.5484 -1.5964
 4351SOL    HW214600   2.310   3.485   4.244  0.0888 -2.1393 -2.4446
 4352SOL     OW14601   3.817   1.975   3.526 -0.2286 -0.0660 -0.1794
 4352SOL    HW114602   3.820   1.883   3.551  0.6530  0.2449  0.9249
 4352SOL    HW214603   3.888   1.984   3.461 -0.3023 -0.1546 -0.2734
 4353SOL     OW14604   5.709   2.842   0.700 -0.3442  0.2737 -0.2769
 4353SOL    HW114605   5.627   2.807   0.663  0.4929 -1.0630 -0.9550
 4353SOL    HW214606   5.777   2.786   0.663  1.0340  2.1899 -0.7872
 4354SOL     OW14607   1.295   0.060   3.365  0.1238  0.2614  0.2314
 4354SOL    HW114608   1.216   0.006   3.366  0.8830 -0.9719  2.8146
 4354SOL    HW214609   1.268   0.143   3.405  0.0177 -0.0118  0.7424
 4355SOL     OW14610   0.153   4.497   0.313  0.4069 -0.1156 -0.3765
 4355SOL    HW114611   0.138   4.566   0.249  3.6873  0.3690 -0.7576
 4355SOL    HW214612   0.173   4.419   0.261  1.7545 -0.0515  0.0106
 4356SOL     OW14613   1.924   3.016   4.807 -0.9595  0.0694 -0.3192
 4356SOL    HW114614   1.865   3.020   4.882 -0.1403 -1.6664  0.4885
 4356SOL    HW214615   1.932   2.922   4.789  0.2067  0.3679 -1.4834
 4357SOL     OW14616   3.124   3.380   0.256 -0.3581  0.0893 -0.2644
 4357SOL    HW114617   3.213   3.409   0.238  0.3027 -0.1185  2.3082
 4357SOL    HW214618   3.133   3.287   0.277 -1.3183 -0.1468 -0.8376
 4358SOL     OW14619   6.487   2.859   4.744  0.0358  0.5202  0.3368
 4358SOL    HW114620   6.508   2.844   4.652 -1.0833 -1.0769  0.2949
 4358SOL    HW214621   6.398   2.895   4.743 -0.2661 -0.1722  0.7905
 4359SOL     OW14622   0.127   0.952   2.623 -0.3547 -0.2444 -0.0333
 4359SOL    HW114623   0.099   0.871   2.580  0.1363 -1.0770  1.1654
 4359SOL    HW214624   0.084   0.949   2.709  2.2564 -0.9070  1.3494
 4360SOL     OW14625   2.170   1.870   2.883  0.0079 -0.1982  0.7942
 4360SOL    HW114626   2.110   1.880   2.957  0.5527  0.0479  1.2183
 4360SOL    HW214627   2.182   1.776   2.874  0.8755 -0.2139  1.8186
 4361SOL     OW14628   6.514   3.820   6.380 -0.0623 -0.0116  0.2219
 4361SOL    HW114629   6.501   3.869   6.461 -0.9867 -0.0739  0.1263
 4361SOL    HW214630   6.504   3.728   6.404  0.9606 -0.1247  0.2675
 4362SOL     OW14631   6.159   4.020   4.898 -0.7156  0.0646  0.0304
 4362SOL    HW114632   6.107   4.058   4.968  0.5660  0.2290  0.9241
 4362SOL    HW214633   6.151   4.081   4.825 -0.0884  1.1898  0.8685
 4363SOL     OW14634   4.505   6.337   0.109  0.3215 -0.0467  0.7287
 4363SOL    HW114635   4.541   6.330   0.021 -0.0646 -0.6833  0.6200
 4363SOL    HW214636   4.511   6.431   0.130 -0.9483  0.3374 -0.5316
 4364SOL     OW14637   5.859   1.714   5.562 -0.9167 -0.5247  0.1828
 4364SOL    HW114638   5.894   1.675   5.482  0.4073 -1.6308  1.2522
 4364SOL    HW214639   5.798   1.649   5.596 -0.2327 -0.7989  0.9144
 4365SOL     OW14640   1.571   0.062   4.737  1.0173  0.6264 -0.1891
 4365SOL    HW114641   1.496   0.121   4.747  1.8842  1.4103  2.7758
 4365SOL    HW214642   1.536  -0.025   4.756  0.8645  1.0491  1.7076
 4366SOL     OW14643   1.433   4.457   2.137 -0.0267  0.2396  0.0027
 4366SOL    HW114644   1.441   4.440   2.044 -2.2356 -2.7079  0.2185
 4366SOL    HW214645   1.518   4.432   2.174  0.1244 -0.7741 -0.9881
 4367SOL     OW14646   2.132   2.410   0.697 -0.4455 -0.0169 -0.0909
 4367SOL    HW114647   2.081   2.474   0.747 -1.4045 -0.3364 -0.6412
 4367SOL    HW214648   2.214   2.456   0.677  0.4281 -0.2420  2.6441
 4368SOL     OW14649   6.555   0.347   6.389 -0.1184 -0.0287  0.6502
 4368SOL    HW114650   6.611   0.300   6.450 -0.8320 -1.7812  0.0070
 4368SOL    HW214651   6.479   0.291   6.377 -0.3257  0.5809 -1.2866
 4369SOL     OW14652   0.092   1.419   4.506 -0.1370  0.2326  0.4637
 4369SOL    HW114653   0.050   1.333   4.495  0.7171 -0.1565  0.1596
 4369SOL    HW214654   0.046   1.458   4.581  0.6717 -1.2621  1.8130
 4370SOL     OW14655   6.052   0.909   2.806  0.7066  0.0842 -0.0675
 4370SOL    HW114656   6.128   0.852   2.805  1.0352  0.5161 -0.8844
 4370SOL    HW214657   5.978   0.852   2.783  0.9393 -0.1294 -0.2874
 4371SOL     OW14658   2.633   4.569   1.103 -0.0972 -0.0374  0.2015
 4371SOL    HW114659   2.635   4.553   1.197  0.1865 -1.1902  0.0095
 4371SOL    HW214660   2.562   4.514   1.071  1.3248 -1.5148 -0.5655
 4372SOL     OW14661   1.399   4.439   3.791 -0.0965 -0.7219 -0.8698
 4372SOL    HW114662   1.418   4.346   3.775 -0.0811 -0.6144 -1.4972
 4372SOL    HW214663   1.463   4.486   3.738 -0.2602 -0.3482 -0.7415
 4373SOL     OW14664   0.571   5.980   0.506  0.6930  0.6259  0.2606
 4373SOL    HW114665   0.487   5.947   0.474  1.5694  0.2829 -1.8472
 4373SOL    HW214666   0.565   6.075   0.494  1.6560  0.4224 -2.9749
 4374SOL     OW14667   3.839   5.969   4.141  0.3049 -0.2036  0.0952
 4374SOL    HW114668   3.779   6.036   4.108 -0.3768  0.1149  1.8707
 4374SOL    HW214669   3.781   5.905   4.183  1.1615 -0.2053  1.3130
 4375SOL     OW14670   4.905   0.781   1.778 -0.5097 -0.2130 -0.3207
 4375SOL    HW114671   4.882   0.865   1.819 -1.4137 -1.3360  1.5844
 4375SOL    HW214672   4.997   0.768   1.802 -0.7299 -0.3503  0.4930
 4376SOL     OW14673   4.253   4.145   5.518  0.1041  0.0720 -0.0107
 4376SOL    HW114674   4.202   4.091   5.459 -0.2085 -0.0467  0.3633
 4376SOL    HW214675   4.343   4.139   5.486 -0.0666  0.0244 -0.4797
 4377SOL     OW14676   4.715   6.351   3.527 -0.2134  0.1166 -0.0839
 4377SOL    HW114677   4.740   6.284   3.592  0.4160  0.0476 -0.3826
 4377SOL    HW214678   4.797   6.396   3.508 -0.7034  1.2496  0.4090
 4378SOL     OW14679   0.699   5.089   5.847 -0.2841 -0.2609  0.0610
 4378SOL    HW114680   0.779   5.060   5.892  0.1738 -0.4356 -0.8395
 4378SOL    HW214681   0.726   5.168   5.799 -0.6205 -0.3866 -0.3398
 4379SOL     OW14682   4.286   1.922   0.917  0.0937 -0.4105  0.3231
 4379SOL    HW114683   4.323   1.865   0.985  2.0061 -0.9278 -1.0777
 4379SOL    HW214684   4.334   2.005   0.927  0.3632 -0.4823 -0.3790
 4380SOL     OW14685   1.746   4.984   0.757  0.0009 -0.2131  0.6912
 4380SOL    HW114686   1.657   5.014   0.741 -0.2630 -1.8382 -1.3212
 4380SOL    HW214687   1.801   5.040   0.703  0.0599 -0.1366  0.8285
 4381SOL     OW14688   1.321   3.213   5.312  0.0315 -0.0437  0.3018
 4381SOL    HW114689   1.386   3.266   5.358  3.5257 -0.5874 -3.4572
 4381SOL    HW214690   1.264   3.277   5.270  1.2666  0.6982 -0.3269
 4382SOL     OW14691   0.426   6.063   1.755 -0.3784 -0.1920  0.1487
 4382SOL    HW114692   0.463   5.999   1.816  0.9513  1.1864  0.8456
 4382SOL    HW214693   0.435   6.021   1.669 -0.0673 -1.1797  0.6426
 4383SOL     OW14694   6.283   0.667   1.487 -0.6739  0.2856  0.3685
 4383SOL    HW114695   6.266   0.697   1.576  0.1667 -1.1011  1.0244
 4383SOL    HW214696   6.325   0.582   1.497  2.4015  1.4269 -1.2194
 4384SOL     OW14697   6.336   0.770   1.247  0.3319 -0.1016 -0.4846
 4384SOL    HW114698   6.329   0.737   1.337  0.3557 -0.4317 -0.6040
 4384SOL    HW214699   6.283   0.710   1.195  0.4042  0.0282 -0.7107
 4385SOL     OW14700   5.671   3.082   4.432  0.4850 -0.1223  0.0387
 4385SOL    HW114701   5.697   2.996   4.466  1.8027  0.7831  1.4749
 4385SOL    HW214702   5.717   3.145   4.488 -1.4565  1.5606 -0.1197
 4386SOL     OW14703   0.571   0.391   2.121  0.0190  0.3443  0.4752
 4386SOL    HW114704   0.569   0.438   2.037  0.3717  0.8134  0.7288
 4386SOL    HW214705   0.506   0.435   2.175 -0.5830 -0.2892  0.2814
 4387SOL     OW14706   3.878   5.425   2.937 -0.2285  0.7399  0.0518
 4387SOL    HW114707   3.816   5.446   2.868 -0.5244  0.1395  0.1333
 4387SOL    HW214708   3.855   5.484   3.009 -1.9579 -0.7526  0.7935
 4388SOL     OW14709   2.808   4.397   0.578  0.0561  0.5895 -0.6733
 4388SOL    HW114710   2.773   4.411   0.666  0.6815 -1.4129 -0.0472
 4388SOL    HW214711   2.898   4.430   0.583  0.2177  0.1142 -0.4422
 4389SOL     OW14712   0.053   4.835   1.715 -0.4010 -0.3541  0.1026
 4389SOL    HW114713   0.019   4.913   1.671 -1.5467 -0.6175  0.4774
 4389SOL    HW214714   0.102   4.788   1.647 -0.8824 -0.0040 -0.4963
 4390SOL     OW14715   6.745   4.281   3.138 -0.1554  0.2905  0.4214
 4390SOL    HW114716   6.681   4.262   3.070 -0.4668 -3.4964  1.5226
 4390SOL    HW214717   6.830   4.268   3.096 -0.3334 -1.5542  0.5745
 4391SOL     OW14718   0.908   4.528   6.485  0.7543  0.2779 -0.0919
 4391SOL    HW114719   0.965   4.489   6.551  0.6097  1.0781  0.5246
 4391SOL    HW214720   0.834   4.563   6.535 -0.0066 -0.2621 -0.8254
 4392SOL     OW14721   5.668   6.170   6.458 -0.9976 -0.0127 -0.1021
 4392SOL    HW114722   5.678   6.223   6.379  1.1015 -0.5038 -0.2076
 4392SOL    HW214723   5.661   6.234   6.529 -0.6341  0.4235 -0.4538
 4393SOL     OW14724   5.636   3.519   3.606  0.4379 -0.0578  0.7449
 4393SOL    HW114725   5.645   3.488   3.696 -1.4025 -0.6195  0.7832
 4393SOL    HW214726   5.704   3.585   3.596  2.0200 -1.4581  1.8708
 4394SOL     OW14727   3.491   4.981   1.564 -0.4471 -0.1749 -0.0327
 4394SOL    HW114728   3.516   5.043   1.632 -0.4449 -0.9713  0.6995
 4394SOL    HW214729   3.401   4.957   1.584  0.3236 -2.3163  1.1993
 4395SOL     OW14730   4.808   0.431   4.751  0.3131  0.0720 -0.1213
 4395SOL    HW114731   4.901   0.412   4.733  0.8791  1.5845  0.9732
 4395SOL    HW214732   4.789   0.508   4.699 -0.1291  0.1882  0.2112
 4396SOL     OW14733   1.206   4.258   3.318 -0.0747 -0.2472  0.2517
 4396SOL    HW114734   1.148   4.193   3.279  1.0881 -1.8414  1.0993
 4396SOL    HW214735   1.253   4.296   3.243  0.7469 -1.8858 -0.0878
 4397SOL     OW14736   5.075   3.527   0.581 -0.1007 -0.1742 -0.6177
 4397SOL    HW114737   5.121   3.445   0.565 -1.2791 -1.1556  0.7218
 4397SOL    HW214738   4.989   3.500   0.614  0.8239  1.4845  3.9171
 4398SOL     OW14739   3.132   0.694   6.432 -0.2689 -0.4132  0.6094
 4398SOL    HW114740   3.227   0.703   6.433 -0.2259 -0.8018 -0.1027
 4398SOL    HW214741   3.100   0.775   6.473  0.2989  0.6433 -0.9842
 4399SOL     OW14742   3.683   4.618   3.372 -0.3003 -0.3441  0.4697
 4399SOL    HW114743   3.659   4.540   3.321 -1.8139  0.8682 -0.7869
 4399SOL    HW214744   3.746   4.586   3.436 -0.9560 -2.6324  0.0806
 4400SOL     OW14745   6.204   6.742   2.501 -0.5624  0.1561 -0.1548
 4400SOL    HW114746   6.284   6.794   2.496 -2.1168  2.6210 -3.4691
 4400SOL    HW214747   6.235   6.652   2.509  2.3484  1.2073  2.5276
 4401SOL     OW14748   4.258   3.581   5.264 -0.6268  0.0777 -0.3354
 4401SOL    HW114749   4.313   3.646   5.219 -1.1777  0.2347 -0.7963
 4401SOL    HW214750   4.249   3.615   5.353 -0.9978  0.6953 -0.5994
 4402SOL     OW14751   3.759   0.407   1.454  0.5290 -0.5684  0.1362
 4402SOL    HW114752   3.784   0.315   1.445  0.8958 -0.4352 -0.2437
 4402SOL    HW214753   3.807   0.452   1.384 -0.1648 -0.1892 -0.1047
 4403SOL     OW14754   5.619   1.508   1.539 -0.1515 -0.2680 -0.3634
 4403SOL    HW114755   5.640   1.477   1.451 -0.0104 -3.3775  0.6546
 4403SOL    HW214756   5.524   1.506   1.544 -0.1171 -2.5282  0.2673
 4404SOL     OW14757   2.620   1.626   0.089  0.1987 -0.0184  0.0015
 4404SOL    HW114758   2.580   1.688   0.150  0.7824  1.3987 -0.9702
 4404SOL    HW214759   2.713   1.626   0.113  0.2329 -0.3699 -0.1286
 4405SOL     OW14760   4.651   1.477   1.465 -0.2774 -0.7079 -0.0316
 4405SOL    HW114761   4.618   1.566   1.462  2.8790  0.5502 -2.3105
 4405SOL    HW214762   4.695   1.471   1.550 -1.4351 -0.5558  0.6089
 4406SOL     OW14763   0.881   4.245   1.801  0.5028  0.1397 -0.7813
 4406SOL    HW114764   0.809   4.229   1.863  0.5373  2.2387 -0.1319
 4406SOL    HW214765   0.935   4.166   1.807 -1.4950 -1.3094 -0.9675
 4407SOL     OW14766   1.586   6.672   2.251  0.2918 -0.2370  0.2776
 4407SOL    HW114767   1.654   6.680   2.183 -1.0451 -0.4179 -1.1410
 4407SOL    HW214768   1.505   6.694   2.206 -0.4326  1.7027  2.3563
 4408SOL     OW14769   4.431   1.696   1.743  0.0911  0.0346 -0.2974
 4408SOL    HW114770   4.413   1.737   1.658  0.9469  2.7234  0.7390
 4408SOL    HW214771   4.344   1.679   1.780 -0.2905  0.3745 -1.0138
 4409SOL     OW14772   3.680   5.632   3.781 -0.1481  0.0958 -0.3942
 4409SOL    HW114773   3.600   5.646   3.831 -0.7372 -1.3634 -0.8954
 4409SOL    HW214774   3.750   5.661   3.840 -0.9182 -0.2916  0.7532
 4410SOL     OW14775   5.230   4.430   2.403 -0.0384  0.0498 -0.8217
 4410SOL    HW114776   5.231   4.346   2.357 -0.0551 -0.1480 -0.4675
 4410SOL    HW214777   5.143   4.466   2.386  0.1430  0.2286 -1.3857
 4411SOL     OW14778   4.332   5.578   2.661  0.7868 -0.4582  0.1660
 4411SOL    HW114779   4.321   5.672   2.667  0.0952 -0.6185  1.9926
 4411SOL    HW214780   4.420   5.566   2.625  1.2112  0.8892  0.7142
 4412SOL     OW14781   4.138   2.814   5.276  0.1788  0.5034  0.2762
 4412SOL    HW114782   4.071   2.843   5.337 -0.9038  1.1676 -1.1779
 4412SOL    HW214783   4.160   2.725   5.305 -0.9833  0.4484  1.0420
 4413SOL     OW14784   1.152   0.147   3.766 -0.2304  0.5417  0.3203
 4413SOL    HW114785   1.201   0.207   3.710 -1.5259  1.2484 -0.1145
 4413SOL    HW214786   1.172   0.060   3.732 -0.3111  0.9090 -0.6981
 4414SOL     OW14787   3.558   6.569   3.129 -0.2298  0.4942  0.8874
 4414SOL    HW114788   3.571   6.525   3.045 -0.2725 -1.9269  2.0666
 4414SOL    HW214789   3.495   6.639   3.110  0.0290  0.2346 -1.1341
 4415SOL     OW14790   4.650   1.152   1.963 -0.2366  0.2528 -0.2449
 4415SOL    HW114791   4.713   1.217   1.932  0.5352 -0.0107  0.7200
 4415SOL    HW214792   4.594   1.200   2.024  0.5343 -0.0433  0.7129
 4416SOL     OW14793   2.326   5.784   3.622 -0.6877  0.3452 -0.0057
 4416SOL    HW114794   2.322   5.848   3.694  0.9636  1.1975 -0.6162
 4416SOL    HW214795   2.253   5.808   3.565 -1.7769 -0.0925  1.1367
 4417SOL     OW14796   1.996   6.440   1.627 -0.3274 -0.3048 -0.0527
 4417SOL    HW114797   2.009   6.519   1.678  1.0009 -0.8620  0.5125
 4417SOL    HW214798   2.014   6.466   1.537 -4.3824  1.1179 -0.6392
 4418SOL     OW14799   1.262   4.365   0.639  0.1451 -0.7539  0.7770
 4418SOL    HW114800   1.306   4.297   0.688 -0.0984 -1.3767  0.1461
 4418SOL    HW214801   1.307   4.368   0.555 -2.1429 -2.7651 -0.6545
 4419SOL     OW14802   5.573   0.331   1.383 -0.5553 -0.1845  0.3683
 4419SOL    HW114803   5.645   0.319   1.321 -0.6156 -0.5715  0.3703
 4419SOL    HW214804   5.614   0.361   1.463 -0.3260 -1.0126  0.5637
 4420SOL     OW14805   4.503   5.504   0.674 -0.1791 -0.4766 -0.6196
 4420SOL    HW114806   4.502   5.408   0.670  0.1369 -0.6749  2.0043
 4420SOL    HW214807   4.411   5.528   0.685 -0.3341 -0.3835 -1.9152
 4421SOL     OW14808   2.133   3.377   1.569  0.2611 -0.0356  0.2906
 4421SOL    HW114809   2.165   3.311   1.629  1.7430  0.0965 -0.3204
 4421SOL    HW214810   2.075   3.330   1.509  1.1342 -0.7510 -0.0043
 4422SOL     OW14811   0.438   3.139   0.953 -0.0683  0.3067  0.9375
 4422SOL    HW114812   0.384   3.190   1.015 -0.9806  1.4937 -0.7395
 4422SOL    HW214813   0.522   3.185   0.951  0.0170  0.1793  1.3695
 4423SOL     OW14814   6.694   5.978   5.865 -0.2378 -0.4680 -0.1585
 4423SOL    HW114815   6.734   6.020   5.941 -0.5696  0.5218 -0.5143
 4423SOL    HW214816   6.600   5.987   5.880 -0.4299 -3.3060  0.9707
 4424SOL     OW14817   6.504   3.180   4.630  0.5307  0.0756 -0.5095
 4424SOL    HW114818   6.471   3.240   4.696  1.8840  1.6318 -1.1722
 4424SOL    HW214819   6.478   3.093   4.660 -1.6688  0.9883  0.3650
 4425SOL     OW14820   3.421   0.566   2.987  0.3127 -0.6093 -0.3677
 4425SOL    HW114821   3.347   0.505   2.988 -0.0187 -0.2160 -0.5451
 4425SOL    HW214822   3.407   0.618   2.907  0.8063 -0.5656 -0.4256
 4426SOL     OW14823   0.716   6.771   5.592  0.1300  0.0010  0.5438
 4426SOL    HW114824   0.808   6.779   5.566  0.0021 -1.7971 -0.6663
 4426SOL    HW214825   0.666   6.802   5.517 -0.2271 -0.8016  0.4303
 4427SOL     OW14826   3.388   0.754   2.761 -0.5826 -0.5183 -0.3775
 4427SOL    HW114827   3.463   0.777   2.706  0.2499  0.2698  1.0205
 4427SOL    HW214828   3.371   0.833   2.812 -0.8394 -1.4488  1.0309
 4428SOL     OW14829   6.113   5.844   4.860  0.5595 -0.0257  0.0749
 4428SOL    HW114830   6.047   5.890   4.911  1.0513  1.4287 -0.5299
 4428SOL    HW214831   6.187   5.834   4.920  1.0684  1.5129 -0.2593
 4429SOL     OW14832   4.625   1.389   5.522 -0.1094  0.7828  0.0713
 4429SOL    HW114833   4.669   1.459   5.570 -0.0070  1.3734 -0.8588
 4429SOL    HW214834   4.585   1.335   5.589  0.9511  0.9667  0.8767
 4430SOL     OW14835   1.433   3.413   5.718 -0.2067 -0.0331  0.3433
 4430SOL    HW114836   1.348   3.395   5.759  0.3507 -1.2307  1.0245
 4430SOL    HW214837   1.494   3.418   5.791  0.5192 -0.4711 -0.2274
 4431SOL     OW14838   2.335   4.785   0.565  0.3489 -0.4206  0.1402
 4431SOL    HW114839   2.321   4.717   0.499 -1.6953 -0.7412  0.8437
 4431SOL    HW214840   2.298   4.749   0.646  2.5908  0.0530  1.4696
 4432SOL     OW14841   6.724   0.858   1.830  0.1159 -0.1469 -0.3225
 4432SOL    HW114842   6.808   0.840   1.873 -0.6875 -1.5954  0.7339
 4432SOL    HW214843   6.697   0.943   1.865  1.1814  0.3916 -0.7690
 4433SOL     OW14844   6.236   3.666   2.569 -0.1820  0.8791  0.0444
 4433SOL    HW114845   6.180   3.684   2.493 -0.9796  0.3754  0.4957
 4433SOL    HW214846   6.201   3.722   2.638 -0.6017  0.0221  0.5368
 4434SOL     OW14847   0.164   5.573   5.956  0.2571  0.4266 -0.0559
 4434SOL    HW114848   0.108   5.524   6.016 -1.1104  1.4737 -0.4423
 4434SOL    HW214849   0.105   5.631   5.909  1.3949  0.1870 -1.8962
 4435SOL     OW14850   4.362   3.360   0.848  0.3051  0.5636 -0.4934
 4435SOL    HW114851   4.380   3.376   0.755 -1.0942  0.0462 -0.8768
 4435SOL    HW214852   4.387   3.442   0.891  2.0229  0.4262 -1.1540
 4436SOL     OW14853   0.628   3.564   0.030 -0.4691  0.1709 -0.2959
 4436SOL    HW114854   0.700   3.575  -0.031 -0.2498 -0.9919 -0.2572
 4436SOL    HW214855   0.631   3.472   0.056 -1.6377  0.2270  0.1179
 4437SOL     OW14856   4.000   1.816   3.995  0.1430  0.2437  0.3571
 4437SOL    HW114857   3.936   1.829   3.925  0.4090 -0.8212 -0.0974
 4437SOL    HW214858   4.003   1.900   4.041 -0.6092  0.7069 -0.4258
 4438SOL     OW14859   4.394   0.801   2.516  0.2765  0.4267 -0.6603
 4438SOL    HW114860   4.434   0.715   2.509  1.1951  0.8050 -0.2387
 4438SOL    HW214861   4.300   0.785   2.510  0.4795 -0.5034 -1.4625
 4439SOL     OW14862   4.741   4.974   4.356  0.2458  0.1363  0.0923
 4439SOL    HW114863   4.826   4.931   4.346 -0.7934 -1.6170 -1.9880
 4439SOL    HW214864   4.678   4.903   4.348 -1.4767  1.5928  0.1842
 4440SOL     OW14865   4.381   5.532   0.984 -0.5508 -0.3562 -0.4142
 4440SOL    HW114866   4.436   5.524   0.906 -0.7516 -3.4204 -0.3467
 4440SOL    HW214867   4.428   5.483   1.052 -2.3901 -1.3977  0.1807
 4441SOL     OW14868   1.208   6.627   1.668 -0.1785 -0.0528  0.3263
 4441SOL    HW114869   1.244   6.713   1.691  2.1107 -0.8147 -0.0844
 4441SOL    HW214870   1.215   6.576   1.748 -2.4396  0.3512  0.8468
 4442SOL     OW14871   0.210   5.966   6.273  0.1721  0.5758 -0.4984
 4442SOL    HW114872   0.269   5.932   6.340  0.5149  2.5816  0.2852
 4442SOL    HW214873   0.262   5.965   6.193  0.7886  0.9271 -0.1150
 4443SOL     OW14874   5.172   0.889   3.758  0.0377  0.3588 -0.2964
 4443SOL    HW114875   5.196   0.824   3.824 -1.7134  0.5632  0.6321
 4443SOL    HW214876   5.184   0.973   3.802  1.4294  0.6516 -1.1854
 4444SOL     OW14877   3.810   4.688   1.278 -0.2676 -0.7143  0.1595
 4444SOL    HW114878   3.822   4.769   1.228 -1.6704 -0.9436 -0.5900
 4444SOL    HW214879   3.846   4.708   1.364 -0.0829  0.5218 -0.1809
 4445SOL     OW14880   0.678   1.081   4.567 -0.2902 -0.1309 -0.4071
 4445SOL    HW114881   0.720   1.167   4.566 -1.0715  0.3886  2.1610
 4445SOL    HW214882   0.595   1.094   4.520 -1.1124  1.0106  1.2479
 4446SOL     OW14883   2.803   0.498   0.688  0.4522  0.1254 -0.0650
 4446SOL    HW114884   2.837   0.429   0.744  0.2487 -0.1482 -0.2754
 4446SOL    HW214885   2.762   0.561   0.748  1.5221  0.5786  0.2089
 4447SOL     OW14886   5.689   1.169   5.194  0.0095  0.6282  0.1743
 4447SOL    HW114887   5.611   1.222   5.175  1.7290  2.1735 -3.6053
 4447SOL    HW214888   5.655   1.093   5.241 -3.3926  2.3861  0.9182
 4448SOL     OW14889   6.568   3.961   4.671  0.5346  0.3223 -0.2044
 4448SOL    HW114890   6.629   3.966   4.596  0.8254  0.7472  0.0528
 4448SOL    HW214891   6.516   4.041   4.664  0.0889  0.0202 -0.3485
 4449SOL     OW14892   4.698   5.119   5.817  0.2384 -0.0105 -0.0020
 4449SOL    HW114893   4.793   5.115   5.802  0.2482 -0.1713  0.0952
 4449SOL    HW214894   4.661   5.143   5.733  0.0186 -3.9910 -1.2295
 4450SOL     OW14895   2.509   6.339   6.275 -0.2265  0.0917 -0.6023
 4450SOL    HW114896   2.583   6.281   6.258  0.6228  1.0699 -0.3466
 4450SOL    HW214897   2.500   6.339   6.370 -0.4082  0.1460 -0.6205
 4451SOL     OW14898   6.459   5.459   3.424  0.0154  0.2750 -0.5026
 4451SOL    HW114899   6.368   5.435   3.404 -0.3898  0.9644  0.4671
 4451SOL    HW214900   6.485   5.398   3.493  0.2080  0.2659 -0.5816
 4452SOL     OW14901   4.415   6.111   6.404 -0.1640  0.4051  0.8669
 4452SOL    HW114902   4.326   6.134   6.431 -0.3112 -0.6499  1.3333
 4452SOL    HW214903   4.405   6.072   6.318  0.0983  2.0851  0.0290
 4453SOL     OW14904   0.495   6.497   1.041  0.4009  0.1469  0.3402
 4453SOL    HW114905   0.439   6.446   0.983  1.6175  1.3119 -1.9745
 4453SOL    HW214906   0.452   6.583   1.047  1.1273  0.5523 -0.1824
 4454SOL     OW14907   0.725   1.902   6.206 -0.4673  0.7114  0.1122
 4454SOL    HW114908   0.790   1.947   6.152 -1.1400  0.7305 -0.7060
 4454SOL    HW214909   0.773   1.875   6.284  0.5787  0.5430 -0.5644
 4455SOL     OW14910   6.133   6.616   3.807 -0.2549  0.0228 -0.3712
 4455SOL    HW114911   6.163   6.657   3.726  2.2313 -0.8185  0.0220
 4455SOL    HW214912   6.039   6.606   3.796 -0.3768  2.3125 -2.0280
 4456SOL     OW14913   4.966   2.610   3.000  0.2695  0.4518  0.0232
 4456SOL    HW114914   5.042   2.613   2.943 -1.1263 -1.0618 -2.0827
 4456SOL    HW214915   4.894   2.585   2.943 -1.9768  2.3440  1.7986
 4457SOL     OW14916   1.241   2.808   3.679 -1.0351  0.2566  0.0260
 4457SOL    HW114917   1.279   2.727   3.643 -1.2741  0.3324 -0.4045
 4457SOL    HW214918   1.185   2.841   3.609 -1.3738  0.5038  0.4116
 4458SOL     OW14919   2.925   0.308   0.861 -0.3505  0.2727 -0.4861
 4458SOL    HW114920   3.020   0.308   0.861 -0.3496 -0.0267 -0.0200
 4458SOL    HW214921   2.900   0.325   0.952 -0.7406  0.3920 -0.6101
 4459SOL     OW14922   4.927   3.473   4.629 -0.3925 -0.1491 -0.4643
 4459SOL    HW114923   4.920   3.504   4.719  0.4894 -1.4858  0.0968
 4459SOL    HW214924   4.858   3.519   4.582 -1.8853 -0.5589  1.2233
 4460SOL     OW14925   1.832   3.904   0.945  0.2367  0.6031 -0.0347
 4460SOL    HW114926   1.796   3.930   1.030  0.7112  0.9703  0.0580
 4460SOL    HW214927   1.925   3.925   0.951  0.2799  0.6038 -0.6352
 4461SOL     OW14928   6.159   1.205   5.190 -0.0516  0.0086 -0.1151
 4461SOL    HW114929   6.235   1.259   5.169  0.9586 -0.6068  1.6770
 4461SOL    HW214930   6.084   1.254   5.157  0.8261  2.4251  1.2714
 4462SOL     OW14931   4.976   2.898   6.591  0.2730  0.2315  0.2981
 4462SOL    HW114932   4.991   2.910   6.497 -1.2070  2.0353  0.2473
 4462SOL    HW214933   4.908   2.831   6.596 -0.1246  0.6193  0.0674
 4463SOL     OW14934   4.522   3.459   3.198  0.0528  0.1712 -0.2451
 4463SOL    HW114935   4.532   3.433   3.106 -0.3872 -1.3493  0.0984
 4463SOL    HW214936   4.544   3.552   3.200  0.4927  0.1246 -1.8126
 4464SOL     OW14937   5.781   6.522   4.048 -0.0133  0.2880  0.8571
 4464SOL    HW114938   5.705   6.553   4.098 -0.7700 -0.2921  0.1008
 4464SOL    HW214939   5.857   6.547   4.101 -0.7401  0.7278  1.7144
 4465SOL     OW14940   6.089   0.751   2.490  1.0995 -0.5700 -0.2047
 4465SOL    HW114941   6.148   0.683   2.525 -0.0314 -0.9459  1.0568
 4465SOL    HW214942   6.007   0.705   2.473  1.1300 -0.0503 -1.9516
 4466SOL     OW14943   4.562   0.258   1.462  0.2911 -0.0918 -0.1006
 4466SOL    HW114944   4.566   0.199   1.537  1.6061  0.8271  0.5984
 4466SOL    HW214945   4.496   0.323   1.486 -0.2389 -0.5362 -0.3255
 4467SOL     OW14946   6.542   1.809   6.083 -0.4721 -0.4226 -0.1537
 4467SOL    HW114947   6.492   1.732   6.110 -0.5307  0.0067  1.0257
 4467SOL    HW214948   6.571   1.849   6.166  0.8742 -0.0408 -0.7864
 4468SOL     OW14949   4.491   2.663   0.703  0.1590 -0.3942  0.3642
 4468SOL    HW114950   4.430   2.730   0.733 -0.1913 -0.4942 -0.1117
 4468SOL    HW214951   4.477   2.659   0.608 -0.2364 -1.5396  0.4580
 4469SOL     OW14952   6.679   6.795   4.685 -0.7182  0.1185  0.0898
 4469SOL    HW114953   6.721   6.872   4.644 -0.5023 -0.0622 -0.0343
 4469SOL    HW214954   6.597   6.828   4.720 -1.0291  0.2275 -0.7167
 4470SOL     OW14955   3.819   5.741   5.240 -0.2888 -0.3105 -0.0233
 4470SOL    HW114956   3.792   5.823   5.281  0.8990  0.5126 -0.8137
 4470SOL    HW214957   3.737   5.698   5.215 -0.9404  0.3483  0.9302
 4471SOL     OW14958   4.986   6.591   1.640  0.0695  0.4464 -0.3815
 4471SOL    HW114959   4.936   6.630   1.712  2.7300  2.0290  0.7536
 4471SOL    HW214960   4.924   6.533   1.597 -2.0578  0.4932  2.3255
 4472SOL     OW14961   2.470   5.040   5.249 -0.2132  0.3318  0.2745
 4472SOL    HW114962   2.391   5.073   5.291 -0.3463  0.5537 -0.1359
 4472SOL    HW214963   2.541   5.063   5.309 -0.0563  3.1005 -0.8097
 4473SOL     OW14964   5.338   5.228   2.273  0.2887 -0.2171  0.1651
 4473SOL    HW114965   5.378   5.162   2.216 -1.3352 -0.6079 -0.5844
 4473SOL    HW214966   5.271   5.270   2.218 -0.3045  0.4169  1.3385
 4474SOL     OW14967   1.035   5.311   4.082  0.7203 -0.1060 -0.0520
 4474SOL    HW114968   1.030   5.372   4.156  2.1077  0.0159 -0.0305
 4474SOL    HW214969   1.017   5.225   4.120 -0.5453  0.1828  0.0486
 4475SOL     OW14970   6.733   0.811   0.340  0.4178  0.0553 -0.1484
 4475SOL    HW114971   6.688   0.813   0.256  0.1546  0.5410 -0.0003
 4475SOL    HW214972   6.741   0.718   0.361 -0.4872 -0.0424 -0.1954
 4476SOL     OW14973   1.227   0.173   4.473  0.0419 -0.1495 -0.5874
 4476SOL    HW114974   1.288   0.234   4.433  0.1743 -0.7121 -1.2612
 4476SOL    HW214975   1.211   0.208   4.561  0.8281  0.3453 -0.6376
 4477SOL     OW14976   1.594   6.517   5.223 -0.1368  0.0762  0.2106
 4477SOL    HW114977   1.557   6.606   5.229  0.3473  0.1685  2.7747
 4477SOL    HW214978   1.538   6.464   5.279  0.2699 -1.0322 -0.3934
 4478SOL     OW14979   3.318   5.709   1.866  0.4182  0.4587 -0.5369
 4478SOL    HW114980   3.309   5.790   1.817 -1.5466  0.5048 -0.1835
 4478SOL    HW214981   3.277   5.727   1.951 -0.2116 -0.9077 -0.5081
 4479SOL     OW14982   5.456   4.186   0.774 -0.7284  0.2197 -0.5948
 4479SOL    HW114983   5.372   4.141   0.775 -1.0703  0.8538 -0.0302
 4479SOL    HW214984   5.470   4.209   0.682 -0.3377 -1.3975 -0.9724
 4480SOL     OW14985   5.854   0.190   2.153 -0.5374  0.4251  0.0154
 4480SOL    HW114986   5.806   0.220   2.076 -1.2966  0.3713  0.4561
 4480SOL    HW214987   5.831   0.254   2.221 -0.3228  0.1523  0.3416
 4481SOL     OW14988   3.123   5.334   4.922  0.1312 -0.3813 -0.3437
 4481SOL    HW114989   3.208   5.319   4.963  0.1242 -0.8165 -0.4829
 4481SOL    HW214990   3.086   5.247   4.910 -0.9952 -0.1500  1.0925
 4482SOL     OW14991   2.869   1.345   2.860  0.2161  0.5879  0.4990
 4482SOL    HW114992   2.934   1.415   2.870 -0.4583  1.0629  1.7970
 4482SOL    HW214993   2.805   1.362   2.929 -1.0943 -0.0920 -0.5015
 4483SOL     OW14994   3.483   0.737   4.218 -0.1385  0.1342  0.2175
 4483SOL    HW114995   3.401   0.730   4.267  0.3548 -0.5166  0.9732
 4483SOL    HW214996   3.515   0.647   4.211  0.8051  0.4419  0.4477
 4484SOL     OW14997   3.538   1.390   3.217  0.1504 -0.3291  0.3578
 4484SOL    HW114998   3.495   1.326   3.275  0.6198 -1.3194 -0.3605
 4484SOL    HW214999   3.500   1.373   3.131  0.0505  0.5909  0.2183
 4485SOL     OW15000   5.528   2.483   0.885  0.0543 -0.1788 -0.6221
 4485SOL    HW115001   5.501   2.485   0.977 -0.7686 -2.5167 -0.7419
 4485SOL    HW215002   5.622   2.464   0.889  0.6879  2.6115 -0.2891
 4486SOL     OW15003   0.277   0.273   2.894  0.1267 -0.4822 -0.5222
 4486SOL    HW115004   0.314   0.267   2.982 -0.5259  3.8632  0.2296
 4486SOL    HW215005   0.317   0.351   2.856 -2.5391  0.0302 -2.5698
 4487SOL     OW15006   6.476   1.012   3.874  0.2825 -0.6934  0.2728
 4487SOL    HW115007   6.496   1.090   3.822 -2.0006 -0.5572 -0.5310
 4487SOL    HW215008   6.533   1.018   3.951  1.1095  1.0397 -0.4301
 4488SOL     OW15009   1.544   2.637   4.125 -0.4493  0.6546 -0.0934
 4488SOL    HW115010   1.570   2.550   4.095  0.2891  0.1737  1.7815
 4488SOL    HW215011   1.522   2.684   4.045  0.3964 -0.8409 -1.2760
 4489SOL     OW15012   6.171   0.050   0.810  0.5703  0.7544 -0.0618
 4489SOL    HW115013   6.143  -0.038   0.783  0.3337  0.3108  1.5167
 4489SOL    HW215014   6.266   0.042   0.822  0.2974  0.1098  2.0471
 4490SOL     OW15015   6.492   5.365   2.677 -0.0645  0.7914  0.1340
 4490SOL    HW115016   6.553   5.420   2.627 -0.0088  1.1265  0.5719
 4490SOL    HW215017   6.408   5.409   2.668 -0.3848  0.0248 -0.9575
 4491SOL     OW15018   5.742   4.394   6.781 -0.2150 -0.1388  0.0009
 4491SOL    HW115019   5.817   4.416   6.837 -0.4212 -0.1267  0.2745
 4491SOL    HW215020   5.781   4.374   6.696 -0.0464  1.6595 -0.3792
 4492SOL     OW15021   0.172   6.255   1.318  0.3568  0.1231  0.3256
 4492SOL    HW115022   0.150   6.261   1.411 -1.4584 -0.2811 -0.0198
 4492SOL    HW215023   0.267   6.243   1.316  0.3557 -0.5289  2.1559
 4493SOL     OW15024   5.293   5.614   1.309  0.2055 -0.5190  0.0667
 4493SOL    HW115025   5.345   5.598   1.230  1.4636  0.2806  0.7112
 4493SOL    HW215026   5.333   5.560   1.376  0.9054  0.9036  0.8332
 4494SOL     OW15027   4.397   2.025   1.603 -0.5234 -0.1668  0.2741
 4494SOL    HW115028   4.405   2.112   1.565  0.9253 -0.8739 -1.1452
 4494SOL    HW215029   4.336   1.979   1.544  1.2603 -1.0768 -0.9641
 4495SOL     OW15030   2.398   3.196   4.174  0.2047 -0.0496  0.4613
 4495SOL    HW115031   2.475   3.179   4.228  1.6666 -1.0846 -1.7944
 4495SOL    HW215032   2.428   3.260   4.109 -1.0411  0.0512 -0.0368
 4496SOL     OW15033   2.714   1.130   5.054 -0.6638 -0.3083  0.4252
 4496SOL    HW115034   2.790   1.188   5.054  0.6626 -1.9683  0.7187
 4496SOL    HW215035   2.668   1.151   4.973  0.4704  0.2812 -0.0969
 4497SOL     OW15036   0.784   5.293   1.347 -0.3493 -0.2200 -0.3324
 4497SOL    HW115037   0.824   5.270   1.431  0.7255  0.1796 -0.7234
 4497SOL    HW215038   0.813   5.224   1.287 -3.2898 -2.0534  0.1718
 4498SOL     OW15039   4.106   5.088   5.858 -0.4345 -0.0980 -0.6519
 4498SOL    HW115040   4.112   5.050   5.946 -2.6299  1.3289  0.2076
 4498SOL    HW215041   4.045   5.031   5.811 -0.7734  0.2093 -0.5928
 4499SOL     OW15042   5.625   3.279   3.442 -0.4168 -0.2731 -0.1579
 4499SOL    HW115043   5.690   3.313   3.381 -2.4792 -0.2468 -2.5091
 4499SOL    HW215044   5.604   3.354   3.498  1.0683 -0.1152  0.2404
 4500SOL     OW15045   3.763   6.799   6.678  0.3131 -0.2096  0.0928
 4500SOL    HW115046   3.783   6.807   6.772 -1.5126 -0.6195  0.5575
 4500SOL    HW215047   3.732   6.885   6.652  0.4219 -0.2102 -0.0425
 4501SOL     OW15048   0.125   2.904   0.444 -0.1303  0.0382  0.0017
 4501SOL    HW115049   0.077   2.886   0.525 -0.8897  1.8708  0.0234
 4501SOL    HW215050   0.165   2.990   0.458  0.8696 -0.2242 -1.0646
 4502SOL     OW15051   6.333   1.671   5.031  0.5283 -0.0471 -0.2430
 4502SOL    HW115052   6.257   1.717   5.065  0.0811 -1.1969  0.3554
 4502SOL    HW215053   6.404   1.736   5.035  0.7587 -0.2969  3.7716
 4503SOL     OW15054   1.841   1.922   2.508 -0.9735  0.1544  0.5083
 4503SOL    HW115055   1.798   2.007   2.506 -0.0725  0.7152  2.4446
 4503SOL    HW215056   1.895   1.924   2.588  1.0852 -1.2466 -0.7554
 4504SOL     OW15057   6.678   6.291   4.161  0.3657  0.6212  0.8103
 4504SOL    HW115058   6.719   6.329   4.238  2.4195 -1.9911  1.1097
 4504SOL    HW215059   6.725   6.210   4.145 -1.6959 -0.2353 -1.6805
 4505SOL     OW15060   0.130   6.620   0.572 -0.8665 -0.3047  0.1375
 4505SOL    HW115061   0.056   6.669   0.535 -1.3644 -1.4544 -0.4424
 4505SOL    HW215062   0.090   6.563   0.637 -0.5085 -1.0402 -0.2864
 4506SOL     OW15063   3.860   5.830   3.924 -0.4462 -0.2299  0.5240
 4506SOL    HW115064   3.918   5.756   3.944 -1.7774 -1.1648  1.0482
 4506SOL    HW215065   3.861   5.883   4.003 -0.1740 -0.1497  0.4679
 4507SOL     OW15066   5.502   1.107   4.272 -0.1286 -0.0329 -0.3072
 4507SOL    HW115067   5.522   1.052   4.348 -0.6365  0.7239  0.3916
 4507SOL    HW215068   5.556   1.185   4.284 -0.1038  0.0276 -0.8024
 4508SOL     OW15069   6.768   2.680   5.656  0.2067 -0.2552  0.1491
 4508SOL    HW115070   6.704   2.652   5.590  1.1112 -2.1440  0.0057
 4508SOL    HW215071   6.851   2.680   5.608  0.5467  0.6110  0.7315
 4509SOL     OW15072   4.145   1.561   2.541  0.7453 -0.2273 -0.0112
 4509SOL    HW115073   4.229   1.523   2.571  1.0152 -0.0710 -0.5675
 4509SOL    HW215074   4.080   1.495   2.566  0.5133  1.1556  3.7012
 4510SOL     OW15075   5.957   0.719   0.025 -0.3772  0.0679  0.0326
 4510SOL    HW115076   5.884   0.691  -0.031  0.3061  0.2975 -1.0118
 4510SOL    HW215077   5.934   0.687   0.112  0.5972 -4.2750 -1.0995
 4511SOL     OW15078   3.289   2.399   4.236  0.2038  0.7507  0.1700
 4511SOL    HW115079   3.307   2.489   4.260  0.4051  0.7606 -0.0135
 4511SOL    HW215080   3.362   2.374   4.178 -0.1527  0.6611 -0.2477
 4512SOL     OW15081   2.530   4.273   2.068  0.0110 -0.2920 -0.2788
 4512SOL    HW115082   2.535   4.368   2.058 -1.0715 -0.3002 -1.0719
 4512SOL    HW215083   2.437   4.255   2.082  0.2892 -1.1882  0.5389
 4513SOL     OW15084   2.612   2.378   3.010  0.1562  0.3865  0.2533
 4513SOL    HW115085   2.682   2.391   3.074 -1.1473  0.0018  1.8207
 4513SOL    HW215086   2.579   2.467   2.992  0.9897  0.5615 -0.4491
 4514SOL     OW15087   6.686   0.998   5.949 -0.6170  0.3310  0.1898
 4514SOL    HW115088   6.770   0.954   5.936 -1.9250 -2.7473  1.2864
 4514SOL    HW215089   6.699   1.049   6.029 -0.1889 -1.3821  1.2698
 4515SOL     OW15090   2.283   6.608   1.524 -0.1695  0.1361 -0.1964
 4515SOL    HW115091   2.312   6.520   1.547  2.6229  0.6713 -1.2068
 4515SOL    HW215092   2.237   6.640   1.601  0.8896 -1.3460  1.1078
 4516SOL     OW15093   1.182   1.069   2.198 -0.6035 -0.4248 -0.2091
 4516SOL    HW115094   1.232   1.148   2.217 -1.3396  0.7367 -2.6748
 4516SOL    HW215095   1.141   1.086   2.113 -3.3505 -2.2243  0.6196
 4517SOL     OW15096   2.140   2.111   4.659 -0.0442 -0.3869  0.3246
 4517SOL    HW115097   2.195   2.075   4.589  0.1246  1.7277 -0.6964
 4517SOL    HW215098   2.183   2.193   4.683 -1.1187 -0.1800  1.6618
 4518SOL     OW15099   2.161   2.842   4.556 -0.1519 -0.0607  0.2602
 4518SOL    HW115100   2.225   2.772   4.547 -0.5400 -0.2279 -1.6755
 4518SOL    HW215101   2.098   2.809   4.621 -0.9866 -2.0752 -1.4878
 4519SOL     OW15102   1.258   4.851   0.248  0.0907 -0.6336  0.4627
 4519SOL    HW115103   1.164   4.863   0.265 -0.4820 -3.7997  0.3150
 4519SOL    HW215104   1.266   4.863   0.153 -0.5327 -1.9372  0.2220
 4520SOL     OW15105   0.943   4.209   2.168 -1.0137 -0.2171  0.2200
 4520SOL    HW115106   0.900   4.205   2.254 -1.0800 -1.5436  0.1463
 4520SOL    HW215107   1.031   4.240   2.187 -1.7763  2.0371  0.4400
 4521SOL     OW15108   5.052   0.041   1.433 -0.0218 -0.5537  0.3725
 4521SOL    HW115109   5.139   0.056   1.468 -0.4301 -2.9791  2.7297
 4521SOL    HW215110   4.992   0.070   1.502 -1.1310  0.5461 -0.9707
 4522SOL     OW15111   5.701   5.286   0.776 -0.2311 -0.2799 -0.2394
 4522SOL    HW115112   5.788   5.296   0.737  0.0059  1.4686  0.6492
 4522SOL    HW215113   5.717   5.257   0.865 -0.6207 -0.9106 -0.3660
 4523SOL     OW15114   0.166   4.093   6.333  0.2019  0.3001  0.2383
 4523SOL    HW115115   0.083   4.079   6.288 -1.1232  3.1527  1.5204
 4523SOL    HW215116   0.229   4.109   6.263 -0.6169 -0.5607 -0.7235
 4524SOL     OW15117   1.153   4.113   2.439  0.1224  0.1398  0.0310
 4524SOL    HW115118   1.108   4.031   2.420 -1.9502  1.1424  0.3860
 4524SOL    HW215119   1.144   4.165   2.359  1.6774 -0.0510 -0.2942
 4525SOL     OW15120   6.570   1.210   0.585 -0.6799 -0.4991 -0.0143
 4525SOL    HW115121   6.541   1.238   0.498 -3.8606 -1.2619  0.6730
 4525SOL    HW215122   6.597   1.119   0.573 -2.1384 -0.9489 -0.0659
 4526SOL     OW15123   3.703   1.688   2.298  0.5296  0.2247  0.3312
 4526SOL    HW115124   3.651   1.706   2.219  2.3165 -0.5794 -1.1023
 4526SOL    HW215125   3.643   1.640   2.355 -0.9253  1.1302 -0.3652
 4527SOL     OW15126   4.965   3.276   1.054 -0.2600  0.3467 -0.2504
 4527SOL    HW115127   4.999   3.365   1.044  0.7060  0.3447  2.3136
 4527SOL    HW215128   4.876   3.288   1.086 -0.6143  0.3640 -1.2170
 4528SOL     OW15129   5.026   2.358   5.516 -0.2978  0.2895  0.1554
 4528SOL    HW115130   4.956   2.410   5.556  1.0384  2.5269 -0.2888
 4528SOL    HW215131   5.084   2.336   5.589 -1.2075 -1.2822  0.4647
 4529SOL     OW15132   2.133   3.875   3.186 -0.3690  0.1473 -0.7607
 4529SOL    HW115133   2.188   3.816   3.237  0.7794  0.1859 -1.9029
 4529SOL    HW215134   2.044   3.841   3.198 -0.2929  0.6735  1.9390
 4530SOL     OW15135   1.371   1.620   2.242  0.5716  0.1942  0.3457
 4530SOL    HW115136   1.305   1.687   2.223 -0.8130 -0.9026  1.0463
 4530SOL    HW215137   1.417   1.607   2.159  0.2796  1.3776 -0.0167
 4531SOL     OW15138   5.602   3.630   0.986  0.4240 -0.2580 -0.2678
 4531SOL    HW115139   5.668   3.568   1.019  0.0653 -0.4312  0.1261
 4531SOL    HW215140   5.593   3.695   1.056  1.5701  0.8581 -1.0972
 4532SOL     OW15141   1.825   6.413   0.554 -0.0210  0.0579 -0.0010
 4532SOL    HW115142   1.809   6.491   0.607  0.3079 -0.1824  0.4522
 4532SOL    HW215143   1.915   6.388   0.574 -0.9392 -2.0228  1.9394
 4533SOL     OW15144   3.464   4.672   4.042 -0.1552  0.4028  0.1148
 4533SOL    HW115145   3.482   4.578   4.038  0.9761  0.6149 -0.0042
 4533SOL    HW215146   3.524   4.711   3.978  0.2931  1.3190  1.0609
 4534SOL     OW15147   3.362   0.405   1.467  0.0990 -0.4051  0.1150
 4534SOL    HW115148   3.402   0.339   1.410  0.3557 -0.2785  0.1452
 4534SOL    HW215149   3.369   0.486   1.418  0.2025 -0.3194  0.2696
 4535SOL     OW15150   0.734   3.630   1.524  0.1662 -0.1666 -0.4432
 4535SOL    HW115151   0.771   3.703   1.474  0.5333 -0.1572 -0.1584
 4535SOL    HW215152   0.677   3.673   1.589  1.8009 -0.0023  0.9435
 4536SOL     OW15153   1.477   0.859   6.742 -0.1069 -0.4650  0.4410
 4536SOL    HW115154   1.400   0.825   6.788  1.6212 -2.1301  2.3387
 4536SOL    HW215155   1.511   0.784   6.693  1.4523 -0.4016  1.3467
 4537SOL     OW15156   3.744   3.342   0.523  0.0694  0.1595  0.5873
 4537SOL    HW115157   3.815   3.320   0.464 -0.4131 -0.8100  0.3447
 4537SOL    HW215158   3.787   3.363   0.606  0.5856 -1.8617  0.8821
 4538SOL     OW15159   4.268   5.093   0.704  0.0290  0.0585 -0.4985
 4538SOL    HW115160   4.228   5.011   0.732 -2.0346  0.6157 -1.5949
 4538SOL    HW215161   4.331   5.068   0.636 -1.9597 -0.5233 -2.2134
 4539SOL     OW15162   4.147   3.117   2.513 -0.1131 -0.4778 -0.1216
 4539SOL    HW115163   4.237   3.086   2.515  0.7663  1.9264 -0.3129
 4539SOL    HW215164   4.105   3.064   2.445  1.9892  0.3943 -2.2191
 4540SOL     OW15165   2.294   0.772   6.104 -0.1719  0.3244 -0.4175
 4540SOL    HW115166   2.316   0.777   6.011 -1.7454  1.2941 -0.7738
 4540SOL    HW215167   2.259   0.858   6.125  0.1312  0.1162  1.0939
 4541SOL     OW15168   3.891   1.811   6.427  0.0779  0.0634  0.8233
 4541SOL    HW115169   3.960   1.751   6.456  1.5943  1.5161  0.4242
 4541SOL    HW215170   3.819   1.796   6.487  1.3891 -0.3015  2.3857
 4542SOL     OW15171   6.780   5.762   2.674 -0.0812  0.3515 -0.3647
 4542SOL    HW115172   6.746   5.773   2.763  0.3722 -1.6800  0.1143
 4542SOL    HW215173   6.822   5.845   2.653  0.7346  0.5084  1.7320
 4543SOL     OW15174   1.742   3.558   2.674  0.1220 -0.0618 -0.1960
 4543SOL    HW115175   1.817   3.586   2.726  0.5296  0.7386 -1.1724
 4543SOL    HW215176   1.687   3.509   2.735  0.6846  0.6602  0.9249
 4544SOL     OW15177   6.607   6.147   4.511 -0.1590 -0.0096 -0.0090
 4544SOL    HW115178   6.548   6.144   4.586 -0.2264  0.6624 -0.0245
 4544SOL    HW215179   6.612   6.240   4.489 -1.1973 -0.3239 -1.6925
 4545SOL     OW15180   1.353   6.181   1.533  0.3234 -0.6184 -0.0747
 4545SOL    HW115181   1.410   6.106   1.548  0.3377 -0.7492 -0.7411
 4545SOL    HW215182   1.392   6.226   1.458 -0.6806 -0.9518 -0.8159
 4546SOL     OW15183   0.908   2.632   6.615  0.6053  0.2546  0.6292
 4546SOL    HW115184   0.997   2.654   6.588  0.2359  1.7862  0.5456
 4546SOL    HW215185   0.862   2.716   6.614 -1.1285 -0.6444 -0.4338
 4547SOL     OW15186   0.095   5.936   2.320  0.2397 -0.0195  0.2517
 4547SOL    HW115187   0.040   5.922   2.243 -0.5836  1.1674  0.6053
 4547SOL    HW215188   0.161   5.999   2.292 -1.0260  1.6553  0.9362
 4548SOL     OW15189   4.882   4.139   3.801 -0.5110  0.5589  0.5114
 4548SOL    HW115190   4.841   4.155   3.716 -0.1736  0.2778  0.2951
 4548SOL    HW215191   4.958   4.197   3.802 -0.3673  0.3713  0.5124
 4549SOL     OW15192   3.054   4.240   6.625  0.3641  0.6664  0.4233
 4549SOL    HW115193   2.998   4.173   6.587 -1.4522  2.3185 -0.0122
 4549SOL    HW215194   3.129   4.245   6.566 -0.0725 -0.1280 -0.2213
 4550SOL     OW15195   3.344   5.822   0.612 -0.1619 -0.2936  0.2281
 4550SOL    HW115196   3.375   5.845   0.700  2.7229  0.2042 -0.8290
 4550SOL    HW215197   3.314   5.904   0.575  0.0504 -0.2257  0.2079
 4551SOL     OW15198   2.086   4.665   4.431 -0.2954 -0.0080 -0.2759
 4551SOL    HW115199   2.018   4.603   4.456 -0.6395 -0.5001 -2.2786
 4551SOL    HW215200   2.138   4.619   4.365  1.0871  0.8990  0.1334
 4552SOL     OW15201   5.522   1.269   5.565 -0.5132  0.3295 -0.2937
 4552SOL    HW115202   5.444   1.293   5.513 -1.0319 -0.6698  0.0010
 4552SOL    HW215203   5.486   1.232   5.646  0.2884  1.0345  0.4027
 4553SOL     OW15204   1.251   2.093   6.182  0.0617  0.2336  0.0898
 4553SOL    HW115205   1.227   2.158   6.117 -0.4125  0.9690  0.9663
 4553SOL    HW215206   1.346   2.094   6.185  0.0463  1.3835  0.5649
 4554SOL     OW15207   5.083   2.677   5.486 -0.1202  0.6489 -0.0863
 4554SOL    HW115208   5.143   2.602   5.487  0.5867  1.2025  0.6561
 4554SOL    HW215209   5.125   2.742   5.542 -0.8697  1.4917 -0.4729
 4555SOL     OW15210   2.125   1.748   2.561  0.0667 -0.5236  0.8609
 4555SOL    HW115211   2.174   1.674   2.596  3.0303  1.2002  0.7045
 4555SOL    HW215212   2.117   1.730   2.467  1.8900 -0.1329  0.5988
 4556SOL     OW15213   1.619   4.816   4.455  0.4517 -0.0330 -0.8872
 4556SOL    HW115214   1.584   4.771   4.378  0.7733  0.3732 -1.2720
 4556SOL    HW215215   1.694   4.866   4.422  0.3356  0.4735 -0.3864
 4557SOL     OW15216   1.038   6.228   5.405 -0.2856 -0.5008 -0.0440
 4557SOL    HW115217   1.007   6.150   5.452 -1.2718 -0.4220 -0.5214
 4557SOL    HW215218   1.132   6.216   5.398 -0.1493 -0.6688  1.6653
 4558SOL     OW15219   2.112   6.438   1.902 -0.1769  0.3763  0.5390
 4558SOL    HW115220   2.099   6.523   1.859  1.8298  0.4162 -0.1005
 4558SOL    HW215221   2.034   6.426   1.955 -0.1849  3.0154  1.2699
 4559SOL     OW15222   6.102   4.701   3.703 -0.4735  0.0701 -0.0172
 4559SOL    HW115223   6.099   4.672   3.795 -2.3787 -2.6791 -0.8327
 4559SOL    HW215224   6.019   4.745   3.689 -0.6884 -0.5340 -0.7001
 4560SOL     OW15225   4.721   2.896   5.952  0.2411  0.0306 -0.1257
 4560SOL    HW115226   4.800   2.894   5.898  0.7092 -0.3003  0.5582
 4560SOL    HW215227   4.754   2.893   6.042 -0.5761 -0.6787  0.1564
 4561SOL     OW15228   3.740   3.232   4.482  0.0632  0.7064 -0.6200
 4561SOL    HW115229   3.801   3.237   4.555 -1.1802 -0.5302  0.5520
 4561SOL    HW215230   3.664   3.283   4.510 -0.8555 -0.6445 -0.5711
 4562SOL     OW15231   5.294   6.472   0.518  0.0379 -0.3426  0.1972
 4562SOL    HW115232   5.329   6.531   0.586  1.5362 -1.4279  0.4295
 4562SOL    HW215233   5.268   6.394   0.567 -0.8508 -0.3280 -0.2462
 4563SOL     OW15234   4.184   5.260   3.781 -0.1454  0.0802 -0.0309
 4563SOL    HW115235   4.108   5.231   3.832  0.8302 -0.2332  1.2749
 4563SOL    HW215236   4.185   5.201   3.705  0.6197 -2.0406  1.5467
 4564SOL     OW15237   1.872   1.838   1.403  0.4539  0.6818  0.3432
 4564SOL    HW115238   1.803   1.902   1.418  0.1644 -0.2634  4.0336
 4564SOL    HW215239   1.826   1.758   1.377  0.5630  1.0626 -1.1150
 4565SOL     OW15240   5.569   4.445   4.709 -0.6878 -0.2872  0.1662
 4565SOL    HW115241   5.529   4.504   4.645  0.1096  1.0470  0.8577
 4565SOL    HW215242   5.610   4.503   4.773 -0.8353 -1.5873  1.4994
 4566SOL     OW15243   1.512   3.906   1.552  0.6611  0.0768 -0.1860
 4566SOL    HW115244   1.596   3.895   1.597  0.1695  0.1578  0.7665
 4566SOL    HW215245   1.536   3.938   1.465  1.6599 -0.6350 -0.1953
 4567SOL     OW15246   3.682   6.584   5.543 -0.6102  0.3332  0.5147
 4567SOL    HW115247   3.622   6.655   5.521 -0.9703  0.2155  1.0932
 4567SOL    HW215248   3.755   6.628   5.586  0.7060  0.7222 -1.9229
 4568SOL     OW15249   0.118   2.282   1.798  0.0586  0.2304 -0.1183
 4568SOL    HW115250   0.161   2.344   1.858 -1.0499 -0.0213  0.9660
 4568SOL    HW215251   0.156   2.197   1.821 -0.1161  0.1831 -0.0016
 4569SOL     OW15252   1.143   3.343   4.921  0.4202 -0.1580  0.4584
 4569SOL    HW115253   1.167   3.334   5.013  1.0969  1.3797  0.4465
 4569SOL    HW215254   1.049   3.360   4.922 -0.4985 -4.1663  0.5990
 4570SOL     OW15255   5.632   6.290   0.596  0.6380 -0.4116 -0.0719
 4570SOL    HW115256   5.578   6.319   0.522  0.6848 -1.4157 -0.5219
 4570SOL    HW215257   5.614   6.196   0.603  0.8897 -0.3868  0.9903
 4571SOL     OW15258   2.401   6.078   6.719 -0.0018 -0.1832  0.1142
 4571SOL    HW115259   2.431   6.169   6.707 -0.8412  0.0579 -0.2700
 4571SOL    HW215260   2.479   6.030   6.746  0.9162  0.2644 -1.5985
 4572SOL     OW15261   1.269   4.608   1.847  0.2981  0.2611  0.1684
 4572SOL    HW115262   1.289   4.659   1.769 -0.6129 -0.0028 -0.2563
 4572SOL    HW215263   1.351   4.565   1.870  0.7699  0.9637 -0.1782
 4573SOL     OW15264   4.122   3.299   1.256  0.6509  0.6905 -0.5684
 4573SOL    HW115265   4.215   3.311   1.278  1.0991  0.3657 -2.1462
 4573SOL    HW215266   4.110   3.351   1.177 -0.8560  1.7462  0.3083
 4574SOL     OW15267   1.054   2.107   2.240 -0.1808 -0.0108 -0.1296
 4574SOL    HW115268   1.032   2.071   2.326 -1.2566 -2.3181 -1.2726
 4574SOL    HW215269   0.997   2.183   2.230 -1.3220 -0.7515  0.5133
 4575SOL     OW15270   6.402   4.400   0.773 -0.3055 -0.1180  0.3288
 4575SOL    HW115271   6.429   4.319   0.730  0.5783 -1.0017  2.4228
 4575SOL    HW215272   6.421   4.469   0.709 -1.0321 -1.5065 -1.4756
 4576SOL     OW15273   3.152   0.274   5.237  0.0789  0.7104  0.3522
 4576SOL    HW115274   3.177   0.243   5.324 -3.3616  1.4051  1.7366
 4576SOL    HW215275   3.214   0.231   5.177  2.6093  0.2671  3.0817
 4577SOL     OW15276   2.243   3.028   2.440  0.6360  0.4303  0.2758
 4577SOL    HW115277   2.281   3.008   2.526  1.3366  1.0783  0.1304
 4577SOL    HW215278   2.319   3.042   2.383  0.2046 -0.8829 -0.6820
 4578SOL     OW15279   1.660   3.889   1.828  0.6483 -0.3716 -0.3193
 4578SOL    HW115280   1.730   3.894   1.893  0.9088  0.4327 -0.6560
 4578SOL    HW215281   1.691   3.942   1.755 -0.8732  1.0811  0.0557
 4579SOL     OW15282   6.333   4.178   1.520  0.6753 -0.1520 -0.2983
 4579SOL    HW115283   6.399   4.229   1.472 -2.4639  2.4391 -2.3192
 4579SOL    HW215284   6.325   4.222   1.604 -1.2052  2.2491 -1.6070
 4580SOL     OW15285   0.961   3.195   1.722  0.2458 -0.2805 -1.2531
 4580SOL    HW115286   0.971   3.285   1.691  0.6100 -0.3263 -1.2804
 4580SOL    HW215287   0.930   3.204   1.812  2.0225 -0.0753 -0.6226
 4581SOL     OW15288   2.560   3.784   3.869 -0.2183 -0.1117 -0.1913
 4581SOL    HW115289   2.494   3.853   3.878  0.3115  0.3041  0.6547
 4581SOL    HW215290   2.621   3.799   3.941  0.3130 -1.0323 -0.4245
 4582SOL     OW15291   2.779   2.123   1.736  0.3724  0.3543 -0.1137
 4582SOL    HW115292   2.792   2.145   1.828 -0.4055 -1.2943  0.4427
 4582SOL    HW215293   2.864   2.088   1.708 -0.3581 -2.7932  1.1689
 4583SOL     OW15294   2.853   4.603   2.766 -0.0913 -0.5101  0.5210
 4583SOL    HW115295   2.889   4.689   2.790 -1.9353 -0.0846  1.9521
 4583SOL    HW215296   2.925   4.542   2.785  0.1877  0.3786  2.6480
 4584SOL     OW15297   2.080   3.739   4.635 -0.1135 -0.0122  0.0023
 4584SOL    HW115298   1.998   3.715   4.678 -0.9797  1.1009 -0.9483
 4584SOL    HW215299   2.146   3.731   4.703 -0.9517 -1.2892  0.6971
 4585SOL     OW15300   4.730   6.149   5.055 -0.1430  0.5381 -0.8182
 4585SOL    HW115301   4.740   6.152   5.150  0.6715 -0.4867 -0.8577
 4585SOL    HW215302   4.781   6.224   5.023  0.7042  0.0981 -0.5184
 4586SOL     OW15303   0.649   3.551   1.823 -0.0478 -0.0831 -0.4137
 4586SOL    HW115304   0.702   3.531   1.746  0.5124 -0.3841  0.0495
 4586SOL    HW215305   0.614   3.466   1.851  1.2009 -0.2601  0.7208
 4587SOL     OW15306   6.516   5.068   5.357  0.7659 -0.7122 -0.1161
 4587SOL    HW115307   6.531   5.029   5.271  0.1820  1.7557 -1.4398
 4587SOL    HW215308   6.598   5.051   5.405  2.5244  0.7048 -2.3745
 4588SOL     OW15309   4.570   5.045   1.282 -0.0750 -0.5789  0.5681
 4588SOL    HW115310   4.494   5.013   1.233 -0.1743 -0.3844  0.5927
 4588SOL    HW215311   4.644   4.994   1.247 -0.0341  0.0286 -0.2853
 4589SOL     OW15312   6.421   0.019   0.726 -0.4203 -0.4079 -0.0638
 4589SOL    HW115313   6.396  -0.016   0.640  1.4148  0.5083 -1.0404
 4589SOL    HW215314   6.514  -0.005   0.736 -0.5803 -0.4497  1.6546
 4590SOL     OW15315   6.691   2.625   4.209  0.3366 -0.0713  0.1490
 4590SOL    HW115316   6.656   2.597   4.293 -0.6566  1.7277  0.3850
 4590SOL    HW215317   6.618   2.618   4.148  0.2634  1.1936  0.0573
 4591SOL     OW15318   1.139   5.116   1.285  0.0167 -0.7371  0.4543
 4591SOL    HW115319   1.079   5.127   1.211 -1.1748  1.0630  1.6226
 4591SOL    HW215320   1.083   5.121   1.362  1.6122  0.9372  1.5834
 4592SOL     OW15321   0.200   0.919   2.155  0.2343 -0.1713 -0.4918
 4592SOL    HW115322   0.245   0.951   2.234  0.1227  0.1518 -0.5601
 4592SOL    HW215323   0.269   0.878   2.104  0.9711  2.3819 -1.7221
 4593SOL     OW15324   2.896   4.885   0.431 -0.6909  0.1663 -0.2372
 4593SOL    HW115325   2.893   4.975   0.399 -0.2497  0.4632  0.5360
 4593SOL    HW215326   2.926   4.892   0.521  1.5022 -0.9168 -0.8052
 4594SOL     OW15327   0.493   0.756   1.615 -0.7741 -0.7910 -0.4953
 4594SOL    HW115328   0.586   0.757   1.640 -0.8800 -1.4885 -0.0710
 4594SOL    HW215329   0.478   0.668   1.580 -0.8222 -0.0956 -2.3576
 4595SOL     OW15330   5.358   6.177   4.026  0.4740  0.8311  0.0711
 4595SOL    HW115331   5.311   6.159   4.107 -0.8942  1.0972 -0.6323
 4595SOL    HW215332   5.354   6.095   3.977  2.5251  0.2325  0.8289
 4596SOL     OW15333   6.471   6.171   3.173 -0.8528  0.2894  0.1284
 4596SOL    HW115334   6.549   6.227   3.180 -0.4952 -0.3982  2.2999
 4596SOL    HW215335   6.483   6.124   3.091  0.1464  1.4596 -0.4359
 4597SOL     OW15336   4.990   2.806   6.293  0.0489  0.1265 -0.6408
 4597SOL    HW115337   4.908   2.840   6.257  0.5447  1.0764 -0.9069
 4597SOL    HW215338   4.998   2.719   6.255  0.5239  1.0679 -2.8266
 4598SOL     OW15339   2.620   1.357   4.158 -0.0410 -0.0146  0.0683
 4598SOL    HW115340   2.646   1.436   4.110 -0.3420  0.4565  0.6687
 4598SOL    HW215341   2.525   1.364   4.164  0.0975  0.6640  1.9744
 4599SOL     OW15342   1.795   0.768   2.345  0.5722  0.4708 -0.1712
 4599SOL    HW115343   1.717   0.823   2.349 -0.2972 -0.7590  0.3389
 4599SOL    HW215344   1.864   0.827   2.314  0.2538  2.5090  2.5573
 4600SOL     OW15345   0.134   1.017   3.272 -0.5321 -0.1883  0.1280
 4600SOL    HW115346   0.185   0.954   3.221  1.7749  0.4595  1.4759
 4600SOL    HW215347   0.056   0.969   3.298  0.0558 -1.7348 -0.8101
 4601SOL     OW15348   2.272   5.997   4.262 -0.3653  0.4604  0.7366
 4601SOL    HW115349   2.247   5.968   4.174 -0.2070  0.4134  0.7065
 4601SOL    HW215350   2.195   5.979   4.315  0.0896 -1.0408  0.9451
 4602SOL     OW15351   3.130   3.372   0.667  0.4712 -0.6828 -0.8226
 4602SOL    HW115352   3.205   3.411   0.623  1.4838 -0.6959  0.8153
 4602SOL    HW215353   3.129   3.282   0.636  0.9920 -0.6256 -1.0249
 4603SOL     OW15354   5.174   2.388   1.102  0.1197 -0.7460 -0.2128
 4603SOL    HW115355   5.198   2.430   1.020  1.2654  1.3176  1.0665
 4603SOL    HW215356   5.086   2.355   1.088 -0.2169  0.6961 -1.8635
 4604SOL     OW15357   4.152   2.150   6.543  0.4121 -0.3568 -0.5351
 4604SOL    HW115358   4.186   2.176   6.457  2.6420  0.3749  0.4939
 4604SOL    HW215359   4.057   2.157   6.534  0.6560  2.4678 -2.1197
 4605SOL     OW15360   1.074   6.473   0.774 -0.5711 -0.5445 -0.1542
 4605SOL    HW115361   1.071   6.558   0.819 -1.5558 -0.1643 -0.8761
 4605SOL    HW215362   1.090   6.409   0.843 -1.5440  0.0706  0.6641
 4606SOL     OW15363   5.162   1.084   0.557 -0.4129 -0.3689  0.0379
 4606SOL    HW115364   5.132   1.114   0.642 -1.2487  0.9752 -0.6981
 4606SOL    HW215365   5.164   1.163   0.502  1.3662 -0.9715 -0.8485
 4607SOL     OW15366   3.052   5.779   1.537 -0.5232  0.2689  0.7480
 4607SOL    HW115367   3.054   5.687   1.565  2.2105 -0.3042 -0.8949
 4607SOL    HW215368   3.092   5.827   1.609 -0.6329 -0.0515  1.0215
 4608SOL     OW15369   5.609   5.378   0.297  0.3721 -0.3650 -0.7120
 4608SOL    HW115370   5.678   5.438   0.327  2.0309 -2.3476 -0.3312
 4608SOL    HW215371   5.590   5.324   0.374 -0.4139 -0.9458 -1.2987
 4609SOL     OW15372   4.479   4.118   4.110  0.3024  0.1322  0.0292
 4609SOL    HW115373   4.436   4.046   4.155  1.5117 -3.7409 -4.2941
 4609SOL    HW215374   4.572   4.107   4.129  0.4602  0.9531 -0.2079
 4610SOL     OW15375   3.932   1.422   1.677 -0.3568 -0.3491 -0.3717
 4610SOL    HW115376   3.845   1.382   1.685  0.2965 -1.4800  1.8063
 4610SOL    HW215377   3.989   1.351   1.648 -0.0163  0.2397 -1.1980
 4611SOL     OW15378   1.274   1.918   5.241 -0.0051 -0.0987 -0.7281
 4611SOL    HW115379   1.248   1.991   5.185  0.2558 -0.0784 -0.8267
 4611SOL    HW215380   1.192   1.880   5.272 -0.1825  2.1116  1.7947
 4612SOL     OW15381   3.866   1.904   1.506 -0.0558  0.5142  0.3242
 4612SOL    HW115382   3.907   1.818   1.507  1.2067  1.0505 -1.4403
 4612SOL    HW215383   3.779   1.889   1.468  0.3789  0.0949 -0.5291
 4613SOL     OW15384   2.991   0.805   1.433 -0.3028  0.3412 -0.2919
 4613SOL    HW115385   2.953   0.820   1.347  0.4240  0.5024 -0.5919
 4613SOL    HW215386   3.031   0.718   1.428  0.6995  0.7961 -0.4846
 4614SOL     OW15387   4.006   1.544   3.230  0.0913  0.6067 -0.0522
 4614SOL    HW115388   4.026   1.451   3.225 -0.7783  0.3885  0.2931
 4614SOL    HW215389   4.079   1.582   3.280  0.3303  0.0701  0.0068
 4615SOL     OW15390   6.611   5.247   6.748  0.0669  0.1222  0.3859
 4615SOL    HW115391   6.682   5.255   6.685  0.2405  0.1060  0.5770
 4615SOL    HW215392   6.640   5.298   6.824 -0.7413  1.2862 -0.0619
 4616SOL     OW15393   3.720   6.441   4.033  0.4999 -0.4042 -0.0519
 4616SOL    HW115394   3.706   6.469   4.124  0.7400  2.8353 -0.8971
 4616SOL    HW215395   3.807   6.399   4.034  1.3023  1.1876  0.9383
 4617SOL     OW15396   5.919   6.053   4.930  0.1721  0.1967 -0.1193
 4617SOL    HW115397   5.858   6.038   4.858 -0.6953 -0.3326  0.7113
 4617SOL    HW215398   5.924   6.149   4.938 -0.2714  0.2453 -0.4262
 4618SOL     OW15399   3.119   2.237   1.300  0.1688  0.9466  0.1212
 4618SOL    HW115400   3.133   2.321   1.344 -1.7505  0.2655  2.2106
 4618SOL    HW215401   3.167   2.174   1.353 -2.5517  0.0379  1.6775
 4619SOL     OW15402   6.261   1.698   2.377 -0.6617  0.2729 -0.6980
 4619SOL    HW115403   6.196   1.632   2.352 -2.2838  2.5721 -3.1769
 4619SOL    HW215404   6.227   1.735   2.459 -1.0190 -0.3728 -0.5479
 4620SOL     OW15405   5.764   3.486   4.498 -0.1270  0.1727 -0.2517
 4620SOL    HW115406   5.784   3.393   4.505 -0.9406 -0.1157 -1.4023
 4620SOL    HW215407   5.693   3.500   4.561 -1.0034 -0.3272 -1.0994
 4621SOL     OW15408   3.496   4.795   6.290 -0.3060 -0.4607  0.5796
 4621SOL    HW115409   3.464   4.752   6.369 -2.9438  1.1395  0.5084
 4621SOL    HW215410   3.499   4.724   6.224 -0.2150 -1.3768  1.5425
 4622SOL     OW15411   1.120   5.886   4.315 -0.1475  0.2504 -0.5213
 4622SOL    HW115412   1.030   5.868   4.287 -0.3431  0.7147 -0.2034
 4622SOL    HW215413   1.127   5.846   4.401 -1.2005  3.2221  1.0743
 4623SOL     OW15414   1.013   5.616   5.659 -0.2952  0.1085  0.2575
 4623SOL    HW115415   0.929   5.655   5.684 -0.9227  0.4829 -2.1506
 4623SOL    HW215416   1.036   5.660   5.577  2.2560 -0.0344  0.8265
 4624SOL     OW15417   2.750   3.608   2.034 -0.2625  0.2928  0.1181
 4624SOL    HW115418   2.754   3.518   2.002 -0.9870 -0.5996  2.3060
 4624SOL    HW215419   2.702   3.656   1.967  1.7661 -0.4592 -1.9931
 4625SOL     OW15420   4.115   4.684   4.082 -0.1003  0.1070  0.0444
 4625SOL    HW115421   4.087   4.662   3.993 -1.6769 -0.8654  0.7204
 4625SOL    HW215422   4.177   4.615   4.105  1.0535  0.9059 -0.6246
 4626SOL     OW15423   2.190   6.555   5.765 -0.2296 -0.1918  0.2570
 4626SOL    HW115424   2.255   6.560   5.695 -0.4040  0.1487  0.1159
 4626SOL    HW215425   2.134   6.632   5.752 -1.2257 -0.9697 -0.1770
 4627SOL     OW15426   4.972   1.597   6.526  0.0985 -0.2459  0.1206
 4627SOL    HW115427   5.033   1.623   6.594  0.2115  0.2202 -0.1529
 4627SOL    HW215428   4.942   1.679   6.488 -0.9113 -0.4554  0.4365
 4628SOL     OW15429   3.831   2.783   4.260 -0.0053  0.1489  0.2930
 4628SOL    HW115430   3.877   2.866   4.271  0.4646 -0.0977  0.2252
 4628SOL    HW215431   3.863   2.728   4.332  1.2894 -0.6746 -0.8411
 4629SOL     OW15432   6.675   4.819   1.498  0.2360  0.0724  0.0381
 4629SOL    HW115433   6.752   4.765   1.478  0.0824 -0.0242 -0.2914
 4629SOL    HW215434   6.627   4.768   1.563  0.1460 -0.1408 -0.1939
 4630SOL     OW15435   3.059   4.476   5.392  0.5982 -0.0962 -0.2729
 4630SOL    HW115436   3.100   4.542   5.336  1.3440  0.5694  1.0066
 4630SOL    HW215437   3.053   4.398   5.336  1.9981  0.3176 -1.0655
 4631SOL     OW15438   5.409   3.288   5.065 -0.1520 -0.3958  0.1572
 4631SOL    HW115439   5.450   3.274   5.150  1.4721  2.0730 -0.1296
 4631SOL    HW215440   5.477   3.267   5.001 -0.4017  0.5359 -0.4308
 4632SOL     OW15441   5.469   3.894   0.996  1.0976  0.1801 -0.2112
 4632SOL    HW115442   5.478   3.875   0.902 -0.7219 -0.6406 -0.2601
 4632SOL    HW215443   5.538   3.958   1.014  2.2649 -0.5413 -1.8364
 4633SOL     OW15444   5.692   5.965   3.403  0.4657  0.2983 -0.0270
 4633SOL    HW115445   5.630   5.934   3.470 -1.0389  2.0841 -0.4996
 4633SOL    HW215446   5.729   6.045   3.441  0.1575  0.9171 -0.9907
 4634SOL     OW15447   5.942   4.181   6.006  0.4763 -0.1097 -0.5086
 4634SOL    HW115448   5.970   4.090   6.015  2.4241  0.3751 -1.2185
 4634SOL    HW215449   5.893   4.199   6.087  1.1281 -1.4213  0.2130
 4635SOL     OW15450   4.702   1.254   2.446  0.3917 -0.2338 -0.4286
 4635SOL    HW115451   4.619   1.300   2.436  1.0108  0.4457 -3.1245
 4635SOL    HW215452   4.767   1.324   2.450  1.0022 -0.7998 -0.3965
 4636SOL     OW15453   4.398   1.701   3.215  0.4986 -0.6521 -0.3438
 4636SOL    HW115454   4.467   1.635   3.214 -1.3113 -2.7917 -4.2665
 4636SOL    HW215455   4.323   1.657   3.255  0.0567  0.0545 -0.3686
 4637SOL     OW15456   5.537   4.889   0.914  0.0049 -0.1802  0.0664
 4637SOL    HW115457   5.477   4.845   0.855  0.4146 -1.2321  0.4014
 4637SOL    HW215458   5.621   4.891   0.867 -0.0875  0.5583 -0.0802
 4638SOL     OW15459   6.273   0.460   1.920 -0.6942 -0.4134 -0.1151
 4638SOL    HW115460   6.266   0.365   1.910  1.2626 -0.4718 -1.5707
 4638SOL    HW215461   6.365   0.478   1.904 -1.1791  1.8215 -0.6409
 4639SOL     OW15462   1.647   5.933   0.647 -0.2831  0.2103 -0.6543
 4639SOL    HW115463   1.586   5.907   0.715 -0.5754  2.5273  0.0432
 4639SOL    HW215464   1.715   5.866   0.649 -0.8919 -0.4090  1.1140
 4640SOL     OW15465   3.994   3.100   6.142  0.5187 -0.0212  0.3024
 4640SOL    HW115466   4.027   3.029   6.086  0.2824 -0.2355  0.4338
 4640SOL    HW215467   3.977   3.172   6.081 -0.5743 -0.5458 -0.0364
 4641SOL     OW15468   1.115   0.484   6.719  0.2804 -0.3856 -0.1612
 4641SOL    HW115469   1.094   0.572   6.687  2.3189  0.3566  0.4259
 4641SOL    HW215470   1.184   0.453   6.661 -0.7808 -1.8591 -0.6865
 4642SOL     OW15471   1.399   5.746   5.500  0.0895  0.0946  0.6681
 4642SOL    HW115472   1.309   5.753   5.533 -0.2260 -1.0489  0.1132
 4642SOL    HW215473   1.395   5.785   5.412 -0.0125 -0.4938  0.4070
 4643SOL     OW15474   6.606   0.008   0.217 -0.0552  0.1725  0.0896
 4643SOL    HW115475   6.531   0.062   0.192 -1.3015 -2.3846 -2.3235
 4643SOL    HW215476   6.570  -0.081   0.220  2.0535 -0.7239  2.9796
 4644SOL     OW15477   0.983   5.526   4.345  0.3607 -0.1092 -0.5379
 4644SOL    HW115478   0.954   5.605   4.300  0.3604  1.5499  2.1007
 4644SOL    HW215479   0.903   5.473   4.355 -0.4478  1.2492  0.6932
 4645SOL     OW15480   1.826   2.942   4.200 -0.3167  0.5311  0.1431
 4645SOL    HW115481   1.912   2.968   4.167  0.5180 -0.7357  1.2496
 4645SOL    HW215482   1.840   2.858   4.243 -2.0109  0.5409  0.8115
 4646SOL     OW15483   1.189   0.548   1.368  0.0901  0.6583 -0.6728
 4646SOL    HW115484   1.217   0.542   1.277  0.5458 -0.4242 -0.4847
 4646SOL    HW215485   1.098   0.517   1.368 -0.1366  1.2997 -0.8431
 4647SOL     OW15486   2.755   4.294   5.267 -0.0064 -0.1865 -0.0800
 4647SOL    HW115487   2.802   4.299   5.184  0.5202 -2.0523  0.0569
 4647SOL    HW215488   2.787   4.214   5.308  0.3204  1.0751  2.3018
 4648SOL     OW15489   2.378   4.150   0.718 -0.0512 -0.2553  0.2503
 4648SOL    HW115490   2.377   4.071   0.663 -1.0619 -0.5167  0.6279
 4648SOL    HW215491   2.427   4.124   0.796 -0.5716 -0.5810  0.4708
 4649SOL     OW15492   6.641   6.267   5.471  0.2204  0.2957 -0.4378
 4649SOL    HW115493   6.597   6.326   5.533  0.6460 -0.7821  0.9272
 4649SOL    HW215494   6.573   6.207   5.441 -0.1840  1.3414 -1.7312
 4650SOL     OW15495   0.942   2.076   2.488  0.2090 -0.3114  0.0004
 4650SOL    HW115496   0.986   2.106   2.568 -0.3310  1.0627 -0.1780
 4650SOL    HW215497   0.873   2.141   2.474  0.6605 -0.1871 -1.8947
 4651SOL     OW15498   3.003   6.662   0.305  0.3972  0.4916  0.1306
 4651SOL    HW115499   3.052   6.608   0.367  0.8382 -0.2336 -0.8391
 4651SOL    HW215500   2.955   6.724   0.361  1.1685  0.1844  1.1705
 4652SOL     OW15501   4.968   4.208   3.145 -0.0990  0.5497  0.1767
 4652SOL    HW115502   5.023   4.130   3.137  2.6348  2.3068  0.7530
 4652SOL    HW215503   4.905   4.186   3.214  0.5948 -1.1512  0.3138
 4653SOL     OW15504   0.279   6.707   2.423 -0.8873 -0.6041 -0.3239
 4653SOL    HW115505   0.205   6.732   2.478  0.0388 -0.5577  0.9391
 4653SOL    HW215506   0.250   6.629   2.376 -0.9264 -2.0972  2.0152
 4654SOL     OW15507   1.556   5.404   5.894  0.1445 -0.0656 -0.0447
 4654SOL    HW115508   1.462   5.390   5.908  0.0898  1.4826  1.4579
 4654SOL    HW215509   1.598   5.333   5.943 -0.1968 -1.9949 -2.3755
 4655SOL     OW15510   5.067   1.452   3.193 -0.3010  0.1217 -0.0321
 4655SOL    HW115511   5.129   1.522   3.213 -2.3498  1.3800  2.4886
 4655SOL    HW215512   4.993   1.497   3.152 -1.4061 -0.6028  1.0934
 4656SOL     OW15513   1.424   0.604   0.124 -0.2687 -0.0205  0.4014
 4656SOL    HW115514   1.351   0.645   0.077  1.7416  2.6883 -0.6551
 4656SOL    HW215515   1.454   0.672   0.184  1.7200 -0.8336  0.3839
 4657SOL     OW15516   4.047   4.158   0.082 -0.0106  0.0765  0.1977
 4657SOL    HW115517   4.049   4.093   0.153 -0.1795 -0.6278 -0.4313
 4657SOL    HW215518   3.968   4.209   0.100 -1.3236 -1.5438 -0.7176
 4658SOL     OW15519   4.955   2.065   6.130 -0.3979 -0.2623  0.0321
 4658SOL    HW115520   4.991   2.054   6.218 -0.4262 -0.2130  0.0495
 4658SOL    HW215521   4.866   2.097   6.144 -0.2236  0.2531 -0.0237
 4659SOL     OW15522   2.015   5.080   2.646  0.3420 -0.6477 -0.2280
 4659SOL    HW115523   2.040   5.089   2.554  1.3606  1.5698  0.2189
 4659SOL    HW215524   1.939   5.137   2.657 -0.6287 -1.9431  0.0367
 4660SOL     OW15525   5.499   4.062   6.708  0.0235  0.0963  0.4169
 4660SOL    HW115526   5.463   4.099   6.789 -1.2388  0.8846 -0.4669
 4660SOL    HW215527   5.593   4.076   6.715 -0.0344 -0.0343  1.8281
 4661SOL     OW15528   0.210   3.259   6.595  0.3428 -0.6302 -0.2621
 4661SOL    HW115529   0.279   3.265   6.529  0.7768 -0.6294  0.1831
 4661SOL    HW215530   0.256   3.274   6.678 -0.6826  2.7921 -0.1703
 4662SOL     OW15531   6.730   5.059   4.592 -0.0080 -0.6351  0.2268
 4662SOL    HW115532   6.809   5.011   4.569 -0.1571 -0.9842  0.4512
 4662SOL    HW215533   6.760   5.132   4.645  0.2499 -0.3101 -0.3537
 4663SOL     OW15534   0.847   6.155   3.799 -0.0942 -0.3368  0.0353
 4663SOL    HW115535   0.927   6.147   3.851 -0.4672 -1.6062  0.4541
 4663SOL    HW215536   0.872   6.129   3.711 -0.3707 -2.3475  0.5110
 4664SOL     OW15537   5.651   4.754   4.058 -0.3981  0.3847 -0.2858
 4664SOL    HW115538   5.620   4.728   3.971  1.3627 -1.7104 -0.3701
 4664SOL    HW215539   5.623   4.683   4.116  0.5362  0.5493  0.3963
 4665SOL     OW15540   6.494   5.760   4.144  0.3943  0.0494  0.1174
 4665SOL    HW115541   6.437   5.835   4.134 -0.2259 -0.3457  0.6350
 4665SOL    HW215542   6.519   5.760   4.237 -1.0136 -1.3552  0.5428
 4666SOL     OW15543   6.070   3.294   6.277  0.3453  0.1189  0.5797
 4666SOL    HW115544   6.114   3.379   6.266  0.9794 -0.3430 -0.7084
 4666SOL    HW215545   6.042   3.271   6.188 -0.7529 -0.5385  1.0794
 4667SOL     OW15546   2.733   1.904   3.586  0.2816 -0.5337  0.3890
 4667SOL    HW115547   2.788   1.894   3.663 -1.9800 -1.4337  1.9988
 4667SOL    HW215548   2.775   1.851   3.519  0.8805 -1.9738  1.8533
 4668SOL     OW15549   1.228   5.658   5.858 -0.1283 -0.1664 -0.1242
 4668SOL    HW115550   1.170   5.645   5.784 -1.5124  0.8042  0.7570
 4668SOL    HW215551   1.195   5.736   5.902  1.8214  0.4087  0.4458
 4669SOL     OW15552   6.166   1.844   5.187  0.7562 -0.0441  0.0633
 4669SOL    HW115553   6.088   1.900   5.188  1.0031  0.3414  1.8307
 4669SOL    HW215554   6.217   1.873   5.263  0.7961 -2.7714  1.1988
 4670SOL     OW15555   5.298   2.901   4.765  0.5495 -0.5606  0.3305
 4670SOL    HW115556   5.320   2.817   4.805 -2.4457 -1.4328  0.3879
 4670SOL    HW215557   5.236   2.941   4.825  2.0944  1.8853  0.4250
 4671SOL     OW15558   6.725   4.701   1.913  0.3706  0.0824 -0.6461
 4671SOL    HW115559   6.789   4.736   1.851 -0.7481  0.7132 -1.5101
 4671SOL    HW215560   6.701   4.776   1.967 -0.6267  0.2111 -1.2378
 4672SOL     OW15561   3.949   6.099   6.634  0.3435  0.2990 -0.0071
 4672SOL    HW115562   3.873   6.137   6.589 -1.4221 -2.4610  0.3603
 4672SOL    HW215563   3.912   6.061   6.714  2.0958 -1.1993  0.1467
 4673SOL     OW15564   1.417   1.822   5.609  0.0929 -0.4694  0.7907
 4673SOL    HW115565   1.433   1.837   5.702  0.8147  0.9433  0.4499
 4673SOL    HW215566   1.461   1.894   5.564 -0.6990 -0.8265 -0.6240
 4674SOL     OW15567   3.198   1.946   2.716  0.0412  0.0042  0.1113
 4674SOL    HW115568   3.187   1.968   2.623  0.7426 -1.3554 -0.3202
 4674SOL    HW215569   3.264   2.008   2.747 -0.5471  0.7856 -0.1543
 4675SOL     OW15570   1.568   1.904   0.614  0.1412  0.5122  0.1003
 4675SOL    HW115571   1.631   1.833   0.622  0.3877  0.7232  0.0432
 4675SOL    HW215572   1.601   1.973   0.671  1.3002  1.5883 -1.7418
 4676SOL     OW15573   6.072   2.307   1.927  0.2314  0.2510 -0.1866
 4676SOL    HW115574   6.150   2.363   1.934  0.4862 -0.3186  3.1980
 4676SOL    HW215575   6.107   2.221   1.904  0.1835  0.6932 -2.0475
 4677SOL     OW15576   2.467   3.325   1.588 -0.3987 -0.6233  0.1335
 4677SOL    HW115577   2.434   3.241   1.622 -0.5666 -0.2029  1.0447
 4677SOL    HW215578   2.561   3.310   1.575  0.1719 -0.1877  2.9540
 4678SOL     OW15579   5.745   3.276   6.596 -0.1669 -0.2058 -0.6392
 4678SOL    HW115580   5.677   3.212   6.618  1.2453 -2.2128 -1.8133
 4678SOL    HW215581   5.711   3.359   6.630 -1.1437 -1.8573  3.0218
 4679SOL     OW15582   5.883   2.654   0.648 -0.1741 -0.2486 -0.3121
 4679SOL    HW115583   5.899   2.586   0.582 -1.6175 -1.1031  0.1593
 4679SOL    HW215584   5.903   2.612   0.731 -1.3724 -0.2195  0.0091
 4680SOL     OW15585   5.707   6.780   1.465  0.4779  0.0258 -0.2569
 4680SOL    HW115586   5.786   6.787   1.410  1.2097 -0.5193  0.7094
 4680SOL    HW215587   5.639   6.753   1.404  1.3897 -1.0966 -0.8271
 4681SOL     OW15588   1.521   6.325   1.355 -0.3595  0.3021  0.6033
 4681SOL    HW115589   1.582   6.391   1.389 -0.1962  0.9766 -0.9025
 4681SOL    HW215590   1.577   6.263   1.309 -0.5630 -0.6638  1.6168
 4682SOL     OW15591   0.239   1.618   1.005  0.3178 -0.4931 -0.4128
 4682SOL    HW115592   0.200   1.632   1.092 -0.6641  0.8276 -1.0379
 4682SOL    HW215593   0.323   1.663   1.010  0.7422 -1.3133  0.1697
 4683SOL     OW15594   2.588   4.524   1.352  0.2878 -0.0107  0.3005
 4683SOL    HW115595   2.619   4.443   1.393  0.0569  0.3909  1.2976
 4683SOL    HW215596   2.617   4.594   1.411 -0.3920  0.5588 -0.0171
 4684SOL     OW15597   4.556   3.244   2.127  0.3992 -0.1160 -0.3132
 4684SOL    HW115598   4.498   3.313   2.096 -0.9720 -1.2089 -0.2741
 4684SOL    HW215599   4.499   3.184   2.176  1.7787 -0.5963  0.7891
 4685SOL     OW15600   0.928   2.234   0.139 -0.0737  0.4080 -0.0477
 4685SOL    HW115601   0.988   2.283   0.083  1.7741 -0.2822  1.2219
 4685SOL    HW215602   0.843   2.276   0.127  0.2282  0.3349 -3.2701
 4686SOL     OW15603   5.581   2.181   5.700 -0.1379 -0.1743 -0.5838
 4686SOL    HW115604   5.578   2.088   5.676 -1.2995  0.1628 -1.9326
 4686SOL    HW215605   5.665   2.192   5.745 -0.6356 -2.1708  0.9936
 4687SOL     OW15606   3.222   1.718   0.109 -0.0555 -0.0555  0.0700
 4687SOL    HW115607   3.214   1.629   0.142 -4.6958  0.3201  0.5615
 4687SOL    HW215608   3.198   1.712   0.017 -2.4137  0.8531  0.5709
 4688SOL     OW15609   1.141   3.136   2.838 -0.0894  1.0469 -0.3006
 4688SOL    HW115610   1.052   3.169   2.828 -0.2523  0.7927  0.2858
 4688SOL    HW215611   1.161   3.096   2.753 -1.4630 -1.1399  0.3193
 4689SOL     OW15612   2.296   0.354   0.592 -0.7860 -0.2121  0.1683
 4689SOL    HW115613   2.333   0.429   0.546  0.4727 -2.3772 -2.6652
 4689SOL    HW215614   2.203   0.355   0.569 -0.6243  0.0675 -0.4931
 4690SOL     OW15615   6.346   4.975   2.876  0.4198 -0.1168 -0.2159
 4690SOL    HW115616   6.358   5.005   2.786 -0.9568 -1.3844 -0.8506
 4690SOL    HW215617   6.404   4.899   2.884  2.1874  1.2384  0.6922
 4691SOL     OW15618   0.972   2.385   4.335 -0.3124  0.0602 -0.1032
 4691SOL    HW115619   0.956   2.396   4.429  1.4254  2.0007  0.0577
 4691SOL    HW215620   1.057   2.341   4.331 -0.9854 -1.2263 -0.8131
 4692SOL     OW15621   1.670   5.354   3.697  0.3090  0.3006 -0.2186
 4692SOL    HW115622   1.710   5.277   3.738 -0.4318 -0.1243 -0.2746
 4692SOL    HW215623   1.585   5.362   3.739  0.1939  0.8135 -0.5450
 4693SOL     OW15624   1.913   5.277   0.276  0.0029 -0.0198  0.7160
 4693SOL    HW115625   1.864   5.261   0.356 -0.2165  0.0652  0.5977
 4693SOL    HW215626   1.878   5.214   0.213  2.3217 -2.3633  1.5401
 4694SOL     OW15627   1.656   0.259   4.245 -0.6233 -0.2434  0.0702
 4694SOL    HW115628   1.631   0.238   4.335  0.0474  0.3631  0.4066
 4694SOL    HW215629   1.702   0.181   4.214  0.8219  0.2446  0.9118
 4695SOL     OW15630   1.812   2.653   3.649  0.3703  0.4531  0.0462
 4695SOL    HW115631   1.754   2.729   3.656 -0.8413 -0.1685 -2.2339
 4695SOL    HW215632   1.856   2.665   3.565  1.8446 -0.2747  0.6877
 4696SOL     OW15633   6.652   0.938   6.336  0.3820  0.4554 -0.1526
 4696SOL    HW115634   6.641   0.867   6.273  2.6698  0.5691 -0.7802
 4696SOL    HW215635   6.715   0.904   6.400 -0.9591  0.7896  1.4262
 4697SOL     OW15636   1.600   6.087   1.921 -0.0151  0.0574  0.5056
 4697SOL    HW115637   1.620   6.018   1.858  2.2949  0.4373  0.7192
 4697SOL    HW215638   1.528   6.136   1.881  0.0834 -0.8965 -0.9006
 4698SOL     OW15639   5.981   2.725   4.337  0.4905 -0.4707 -0.2316
 4698SOL    HW115640   5.970   2.713   4.243  2.2774 -1.4257 -0.3645
 4698SOL    HW215641   6.042   2.799   4.345  0.6681 -0.6530  0.1418
 4699SOL     OW15642   6.229   4.199   5.621  0.5003  0.0713  0.0960
 4699SOL    HW115643   6.311   4.203   5.572  1.4561 -1.7815  1.3909
 4699SOL    HW215644   6.200   4.108   5.612 -1.7367  0.8050 -0.7469
 4700SOL     OW15645   3.207   4.073   1.061 -0.2853 -0.3655 -0.2824
 4700SOL    HW115646   3.132   4.014   1.061 -1.3720  0.9293  1.0262
 4700SOL    HW215647   3.217   4.100   0.970 -1.1674 -0.8624 -0.5351
 4701SOL     OW15648   3.759   1.207   6.517  0.4089 -0.1161 -0.0695
 4701SOL    HW115649   3.774   1.276   6.452 -0.6663  0.4978  0.3006
 4701SOL    HW215650   3.812   1.133   6.487  0.1069  0.2335 -1.5274
 4702SOL     OW15651   3.773   5.685   6.681 -0.8443  0.0211 -0.1319
 4702SOL    HW115652   3.705   5.706   6.745  0.5828  0.3791  1.3338
 4702SOL    HW215653   3.855   5.689   6.731  0.1416 -1.9989 -1.4358
 4703SOL     OW15654   3.433   5.447   1.050 -0.3620  0.2229  0.1654
 4703SOL    HW115655   3.455   5.471   0.960  0.1056  0.3225  0.3056
 4703SOL    HW215656   3.366   5.380   1.041  1.5376 -1.7092 -0.3111
 4704SOL     OW15657   1.685   0.895   1.741  0.2457 -0.3038 -0.2453
 4704SOL    HW115658   1.779   0.888   1.725  0.4249  0.6439  0.3104
 4704SOL    HW215659   1.672   0.987   1.764 -0.6882 -0.6144  0.5245
 4705SOL     OW15660   6.231   4.535   1.556  0.3326  0.2513 -0.2143
 4705SOL    HW115661   6.211   4.473   1.626  1.8274 -0.9527 -0.7810
 4705SOL    HW215662   6.209   4.488   1.475  3.7013 -0.6410 -0.8044
 4706SOL     OW15663   1.678   3.820   2.163 -0.7079  0.3419  0.3180
 4706SOL    HW115664   1.756   3.849   2.116 -1.1942  0.1787 -0.6329
 4706SOL    HW215665   1.704   3.738   2.206 -0.5771 -0.1517 -0.6757
 4707SOL     OW15666   4.777   2.707   1.534  0.5444 -0.0340  0.2628
 4707SOL    HW115667   4.852   2.658   1.567 -0.5153 -1.2008  1.0065
 4707SOL    HW215668   4.747   2.759   1.609 -0.7252 -1.2651  0.6415
 4708SOL     OW15669   6.620   2.271   0.445  0.2678  0.0071  0.0629
 4708SOL    HW115670   6.615   2.263   0.540  1.0826  0.2708  0.1328
 4708SOL    HW215671   6.640   2.363   0.429 -0.6354  0.1316 -0.4024
 4709SOL     OW15672   0.587   4.100   6.224 -0.2899  0.7578 -0.1872
 4709SOL    HW115673   0.624   4.148   6.298 -2.4848  1.3834  0.6031
 4709SOL    HW215674   0.602   4.156   6.149  1.2416  0.4987 -0.1015
 4710SOL     OW15675   3.679   2.568   4.771 -0.2949 -0.2781 -0.1929
 4710SOL    HW115676   3.607   2.507   4.782 -0.0091 -0.6487 -0.3552
 4710SOL    HW215677   3.755   2.524   4.810  0.6996 -1.5228 -3.1774
 4711SOL     OW15678   2.356   2.931   3.881 -0.1447  0.2745  0.1346
 4711SOL    HW115679   2.365   2.904   3.790  0.0388  2.6197 -0.5931
 4711SOL    HW215680   2.299   3.007   3.879 -0.3951  0.1891  2.0287
 4712SOL     OW15681   0.306   3.548   4.268  0.1834 -0.0402 -0.1078
 4712SOL    HW115682   0.220   3.561   4.305  0.4948  1.3623  0.1580
 4712SOL    HW215683   0.321   3.453   4.273 -0.5378 -0.0804  1.6126
 4713SOL     OW15684   4.582   3.140   0.202 -0.8937  0.2529 -0.2676
 4713SOL    HW115685   4.583   3.229   0.165 -1.0783  0.2618 -0.2510
 4713SOL    HW215686   4.618   3.151   0.290  1.1243 -0.0242 -1.0080
 4714SOL     OW15687   5.171   1.876   2.594 -0.1907 -0.3153  0.2591
 4714SOL    HW115688   5.260   1.887   2.560 -0.9492  2.3227 -1.1261
 4714SOL    HW215689   5.183   1.863   2.688  1.6320  0.5519  0.1916
 4715SOL     OW15690   4.719   1.580   3.957  0.0332  0.1307  0.4162
 4715SOL    HW115691   4.663   1.604   3.884  0.8597  1.5813  0.2347
 4715SOL    HW215692   4.719   1.657   4.014 -1.1317 -1.1849  2.3292
 4716SOL     OW15693   4.226   1.629   0.875  0.0340 -0.4843 -0.3497
 4716SOL    HW115694   4.308   1.651   0.918 -0.1981 -0.9432  0.3412
 4716SOL    HW215695   4.173   1.709   0.883  0.3904 -0.2001 -0.7677
 4717SOL     OW15696   1.934   0.407   2.171 -0.8139 -0.0519  0.0122
 4717SOL    HW115697   1.861   0.469   2.181 -1.8847 -1.2134 -0.2911
 4717SOL    HW215698   1.932   0.354   2.250 -0.2425 -0.0515  0.0311
 4718SOL     OW15699   6.061   2.648   5.344  0.4521 -0.0037 -0.0660
 4718SOL    HW115700   6.002   2.647   5.269  0.1320 -0.3079  0.1861
 4718SOL    HW215701   6.091   2.738   5.351  0.4061  0.0441 -0.5016
 4719SOL     OW15702   4.284   0.384   2.960 -0.0524 -0.8246 -0.2760
 4719SOL    HW115703   4.283   0.453   3.026  0.3471 -0.1999 -0.9107
 4719SOL    HW215704   4.314   0.306   3.007 -3.5112 -1.4187  1.2110
 4720SOL     OW15705   0.868   3.281   4.439 -0.2243  0.7381  0.0907
 4720SOL    HW115706   0.866   3.326   4.355 -1.4008  0.3406 -0.1099
 4720SOL    HW215707   0.784   3.303   4.479  0.8675  2.0906  1.8094
 4721SOL     OW15708   4.534   1.728   2.524  0.1068 -0.1278 -0.2387
 4721SOL    HW115709   4.471   1.774   2.580  1.5020 -0.1419  1.4516
 4721SOL    HW215710   4.524   1.636   2.548  0.5291 -0.1637 -0.1889
 4722SOL     OW15711   5.124   1.914   5.952 -0.1350 -0.3285 -0.0874
 4722SOL    HW115712   5.067   1.925   5.876  0.4313  1.1866 -0.3353
 4722SOL    HW215713   5.078   1.960   6.023  0.1726 -0.2069  0.0335
 4723SOL     OW15714   0.566   6.778   1.829  0.1711 -0.1958  0.1016
 4723SOL    HW115715   0.627   6.755   1.900  0.3829 -0.6798 -0.2336
 4723SOL    HW215716   0.573   6.873   1.821 -0.0997 -0.0944  0.9545
 4724SOL     OW15717   6.443   0.745   6.489 -0.1832 -0.0850  0.5323
 4724SOL    HW115718   6.357   0.705   6.488 -1.0555  1.6670  0.2143
 4724SOL    HW215719   6.461   0.766   6.397  0.5857 -0.4224  0.5942
 4725SOL     OW15720   6.334   6.213   4.123 -0.2294  0.0259  0.1633
 4725SOL    HW115721   6.279   6.191   4.048 -0.1745 -0.6386  0.3146
 4725SOL    HW215722   6.382   6.291   4.095 -2.1501  1.3902  0.5027
 4726SOL     OW15723   3.070   3.608   4.435  0.0893 -0.1323  0.5832
 4726SOL    HW115724   3.076   3.589   4.342  0.4136 -1.0744  0.7888
 4726SOL    HW215725   3.051   3.702   4.439  0.8358  0.0733 -0.4117
 4727SOL     OW15726   4.207   2.208   5.154 -0.3147  0.3675  0.0755
 4727SOL    HW115727   4.231   2.130   5.105 -1.2970  1.3470 -2.0899
 4727SOL    HW215728   4.232   2.281   5.097 -3.2596  1.5170  0.0960
 4728SOL     OW15729   5.102   0.473   3.185  0.1610  0.3920 -0.0534
 4728SOL    HW115730   5.145   0.391   3.207 -0.0289  0.4981  0.7283
 4728SOL    HW215731   5.039   0.487   3.256  1.5946  2.2489  0.9149
 4729SOL     OW15732   4.470   0.740   0.568 -0.1707  0.3284  0.3178
 4729SOL    HW115733   4.474   0.751   0.663  0.8370  0.0044  0.3255
 4729SOL    HW215734   4.482   0.828   0.532  0.1378  0.3553  0.4848
 4730SOL     OW15735   3.219   3.738   2.327 -0.5055 -0.2482  0.2238
 4730SOL    HW115736   3.210   3.734   2.231  0.7413  4.4465 -0.3381
 4730SOL    HW215737   3.142   3.786   2.357 -0.0002 -0.1311  1.3810
 4731SOL     OW15738   4.041   1.732   6.215 -0.0621 -0.2248  0.1055
 4731SOL    HW115739   4.110   1.794   6.237 -1.2489  0.7634  1.1648
 4731SOL    HW215740   3.959   1.776   6.240 -0.9962 -1.8820  0.1389
 4732SOL     OW15741   1.979   6.319   3.065  0.4324 -0.3369  0.0144
 4732SOL    HW115742   1.951   6.234   3.099 -0.1377 -0.2328 -0.1826
 4732SOL    HW215743   2.068   6.330   3.098 -0.0449 -0.3062  1.3579
 4733SOL     OW15744   4.374   3.889   1.554 -0.2307  0.0642  0.3413
 4733SOL    HW115745   4.289   3.891   1.598  0.5360 -0.3112  1.9224
 4733SOL    HW215746   4.437   3.904   1.624  1.2837 -3.9646  0.0763
 4734SOL     OW15747   3.479   3.390   2.138 -0.2696  0.0121  0.2698
 4734SOL    HW115748   3.523   3.338   2.071 -1.6371 -0.5105 -0.2433
 4734SOL    HW215749   3.451   3.327   2.204  0.6226  0.4661  1.1302
 4735SOL     OW15750   1.315   5.417   0.369 -0.2343 -0.2101 -0.3040
 4735SOL    HW115751   1.373   5.488   0.396  1.7261 -1.1837 -1.6745
 4735SOL    HW215752   1.304   5.430   0.275  0.5456 -1.9106 -0.6775
 4736SOL     OW15753   4.168   6.765   5.430  0.8293  0.1386 -0.1017
 4736SOL    HW115754   4.118   6.824   5.374 -1.7113 -2.1529 -0.5037
 4736SOL    HW215755   4.154   6.798   5.519 -1.6074 -0.4246 -0.1935
 4737SOL     OW15756   4.548   0.642   0.007 -0.0727  0.3442  0.3855
 4737SOL    HW115757   4.470   0.689   0.037 -1.2391  0.7524 -2.8111
 4737SOL    HW215758   4.618   0.707   0.009 -0.0274  0.2772  2.2614
 4738SOL     OW15759   6.278   1.998   2.923  0.0433  0.0880 -0.4125
 4738SOL    HW115760   6.253   1.954   2.842 -0.1336 -2.0049  0.7203
 4738SOL    HW215761   6.374   2.000   2.921  0.0395  0.0334 -0.6616
 4739SOL     OW15762   0.270   6.162   4.014  0.1329  0.3223  0.6493
 4739SOL    HW115763   0.195   6.159   3.954 -0.6811  1.6335  1.5376
 4739SOL    HW215764   0.284   6.070   4.039 -0.3987 -0.0810 -0.4549
 4740SOL     OW15765   4.400   4.857   3.198 -0.4885 -0.1191  0.2596
 4740SOL    HW115766   4.473   4.840   3.257 -0.1215  2.0644  0.5403
 4740SOL    HW215767   4.398   4.782   3.139 -0.8326 -2.4039  2.9325
 4741SOL     OW15768   4.568   5.967   3.466  0.1784  0.3617  0.1089
 4741SOL    HW115769   4.632   5.905   3.502 -0.7415 -0.2149  0.8056
 4741SOL    HW215770   4.608   5.998   3.385  0.5862 -1.3263 -0.3828
 4742SOL     OW15771   3.715   5.674   1.860  0.4958  0.8124  0.0621
 4742SOL    HW115772   3.757   5.751   1.897  2.0863  0.3217 -0.5983
 4742SOL    HW215773   3.780   5.639   1.798 -0.6745 -0.3460 -0.5676
 4743SOL     OW15774   0.238   3.598   5.173 -0.1226 -0.5123  0.1955
 4743SOL    HW115775   0.181   3.530   5.208 -1.9775  0.7253 -0.2560
 4743SOL    HW215776   0.243   3.578   5.079 -0.6361 -0.0836  0.0693
 4744SOL     OW15777   0.863   0.652   2.872 -0.1156  0.5426 -0.1548
 4744SOL    HW115778   0.888   0.668   2.963 -2.3079 -1.0151  0.8191
 4744SOL    HW215779   0.817   0.731   2.845 -2.2699 -0.1658  1.2415
 4745SOL     OW15780   2.254   5.017   0.160 -0.6756 -0.1830  0.1053
 4745SOL    HW115781   2.176   5.015   0.104 -0.9830 -0.0453  0.5268
 4745SOL    HW215782   2.318   4.964   0.113 -1.2584 -0.8977  0.1030
 4746SOL     OW15783   4.538   3.851   2.193  0.3322  0.5745  0.2127
 4746SOL    HW115784   4.564   3.875   2.282  2.6812  0.9201 -0.5138
 4746SOL    HW215785   4.522   3.935   2.149  0.6442  0.4741 -0.0964
 4747SOL     OW15786   5.547   1.932   2.867 -0.3653  0.2259  0.5485
 4747SOL    HW115787   5.468   1.910   2.918  0.1098  1.8403  2.1026
 4747SOL    HW215788   5.582   2.009   2.911  0.5203  1.2758 -1.8464
 4748SOL     OW15789   5.988   6.129   1.197 -0.1159  0.2229  0.6965
 4748SOL    HW115790   5.965   6.059   1.257 -0.9260  0.5332  0.7617
 4748SOL    HW215791   6.062   6.095   1.147 -1.3501 -1.2287 -0.2246
 4749SOL     OW15792   5.601   4.084   5.223  0.1793 -0.3509  0.6290
 4749SOL    HW115793   5.549   4.151   5.179  0.3722  0.3866  1.5022
 4749SOL    HW215794   5.569   4.084   5.313  1.0100 -0.5813  0.9335
 4750SOL     OW15795   5.677   2.123   3.131 -0.2114 -0.2596 -0.1562
 4750SOL    HW115796   5.585   2.150   3.123  0.1927  1.2529 -0.0899
 4750SOL    HW215797   5.724   2.183   3.073  0.8260 -0.4631  0.4543
 4751SOL     OW15798   3.576   4.414   3.956  0.1583  0.2526 -0.1648
 4751SOL    HW115799   3.627   4.440   3.880 -1.7682  0.8945 -1.3036
 4751SOL    HW215800   3.493   4.383   3.920 -0.6562  0.1767  1.6530
 4752SOL     OW15801   5.076   6.116   1.057 -0.2035  0.2717  0.2875
 4752SOL    HW115802   4.996   6.122   1.109 -0.6520  2.9404 -0.5381
 4752SOL    HW215803   5.109   6.206   1.053  2.1478 -0.5517 -0.4760
 4753SOL     OW15804   0.287   4.540   1.622  0.3875  0.5082  0.3175
 4753SOL    HW115805   0.249   4.510   1.705  1.4759  0.0780  0.6706
 4753SOL    HW215806   0.331   4.622   1.644 -1.4497  1.7401 -0.3736
 4754SOL     OW15807   0.469   2.428   4.571  0.1434  0.1402 -0.4481
 4754SOL    HW115808   0.493   2.412   4.479  0.5446 -0.3897 -0.2597
 4754SOL    HW215809   0.553   2.440   4.615  0.0171 -0.6795  0.0381
 4755SOL     OW15810   5.152   1.474   2.571 -0.4538 -0.2053  0.8285
 4755SOL    HW115811   5.074   1.445   2.618 -0.0778 -1.0252  0.9696
 4755SOL    HW215812   5.219   1.410   2.594 -0.0771 -0.2386 -0.2836
 4756SOL     OW15813   6.727   2.776   2.752 -0.0232 -0.3861  0.3357
 4756SOL    HW115814   6.679   2.858   2.764 -0.0915 -0.3552 -0.1409
 4756SOL    HW215815   6.812   2.803   2.718 -0.3615 -0.5619 -0.6843
 4757SOL     OW15816   6.691   6.211   0.072  0.1907 -0.2992  0.3828
 4757SOL    HW115817   6.683   6.287   0.015 -0.1183 -0.6112  0.0029
 4757SOL    HW215818   6.624   6.224   0.139  0.5032  0.0286  0.6407
 4758SOL     OW15819   5.331   2.337   0.331 -0.8496 -0.1658 -0.2116
 4758SOL    HW115820   5.403   2.376   0.379 -2.6665  1.5707  1.2734
 4758SOL    HW215821   5.353   2.351   0.239  0.7194  0.2203  0.1958
 4759SOL     OW15822   5.879   3.157   6.397  0.1589 -0.1368 -0.0678
 4759SOL    HW115823   5.949   3.217   6.372  0.7076 -0.9481 -0.5232
 4759SOL    HW215824   5.841   3.195   6.476 -1.1912  2.2003 -1.6941
 4760SOL     OW15825   5.085   3.482   2.142  0.1481  0.0780 -0.5715
 4760SOL    HW115826   5.100   3.395   2.179  2.0414  1.1134  1.3707
 4760SOL    HW215827   5.124   3.478   2.055  0.8782 -0.8324 -0.2271
 4761SOL     OW15828   4.788   5.742   5.725  0.1034 -0.2512  0.4812
 4761SOL    HW115829   4.855   5.811   5.721 -0.3032  0.0920 -1.3056
 4761SOL    HW215830   4.827   5.669   5.677 -0.0890 -0.7160  1.0288
 4762SOL     OW15831   4.446   2.439   0.105  0.5651  0.0288  0.7600
 4762SOL    HW115832   4.441   2.433   0.201 -1.1922  0.8158  0.7581
 4762SOL    HW215833   4.523   2.387   0.082  0.1259 -1.5001  2.4899
 4763SOL     OW15834   1.344   3.373   1.906  0.1736  0.0385  0.4934
 4763SOL    HW115835   1.435   3.378   1.878 -0.1274  1.2963 -0.3694
 4763SOL    HW215836   1.316   3.464   1.914 -1.3163 -0.3043 -0.3559
 4764SOL     OW15837   5.260   0.947   6.155 -0.0874 -0.4164  0.2558
 4764SOL    HW115838   5.200   1.000   6.103 -0.8499 -1.0298  0.5016
 4764SOL    HW215839   5.344   0.956   6.110 -0.7631 -1.0890 -1.1987
 4765SOL     OW15840   3.087   6.049   0.983  0.2941 -0.2282  0.7735
 4765SOL    HW115841   3.153   6.022   1.047 -0.6723 -1.0549  1.4672
 4765SOL    HW215842   3.006   6.056   1.034 -0.4532 -0.6713 -0.3160
 4766SOL     OW15843   4.919   6.427   5.406  0.5724  0.3306  0.4708
 4766SOL    HW115844   4.942   6.350   5.458 -0.9226 -1.8749 -1.8474
 4766SOL    HW215845   4.983   6.427   5.334 -1.1383 -0.6275 -1.1632
 4767SOL     OW15846   6.003   0.338   3.083  0.1251  0.0399  0.3850
 4767SOL    HW115847   5.998   0.251   3.123 -0.6486 -0.6938 -1.2310
 4767SOL    HW215848   6.023   0.321   2.991  0.4545  1.6099  0.1354
 4768SOL     OW15849   2.864   1.815   2.510  0.3944 -0.2014 -0.0860
 4768SOL    HW115850   2.818   1.890   2.548  0.2462 -0.1896 -0.2874
 4768SOL    HW215851   2.927   1.854   2.450 -0.1700 -0.2587 -0.7317
 4769SOL     OW15852   5.177   4.315   3.939 -0.1309  0.1366  0.5463
 4769SOL    HW115853   5.093   4.357   3.960 -0.5438 -0.6500  0.5375
 4769SOL    HW215854   5.243   4.382   3.955 -0.8507  1.1971 -0.6642
 4770SOL     OW15855   1.907   2.752   2.927 -0.2086  1.0142  0.0443
 4770SOL    HW115856   1.991   2.755   2.972 -0.6016 -1.0278  1.0129
 4770SOL    HW215857   1.920   2.688   2.857 -1.2225 -0.1225  0.8610
 4771SOL     OW15858   6.380   5.708   1.490  0.2624 -0.4014  0.3154
 4771SOL    HW115859   6.428   5.707   1.573  2.7243  0.3783 -1.0096
 4771SOL    HW215860   6.447   5.721   1.423 -1.5576 -1.5396 -1.8824
 4772SOL     OW15861   1.401   2.642   2.189  0.0093  0.2128  0.1812
 4772SOL    HW115862   1.486   2.667   2.226  0.1266  1.8099 -1.0525
 4772SOL    HW215863   1.408   2.548   2.174  0.9123 -0.0021  1.6769
 4773SOL     OW15864   2.254   1.639   1.508  0.3920 -0.0815  0.7594
 4773SOL    HW115865   2.192   1.710   1.519  0.9363  0.0285  4.2441
 4773SOL    HW215866   2.216   1.565   1.556  0.6051 -1.6772 -1.3838
 4774SOL     OW15867   4.740   4.675   3.070  0.3267  0.2684  0.5667
 4774SOL    HW115868   4.648   4.651   3.064  0.1020  1.2395 -0.0893
 4774SOL    HW215869   4.751   4.705   3.160  0.1689 -0.4621  0.8390
 4775SOL     OW15870   4.554   2.991   3.182  0.1138  0.1070  0.5625
 4775SOL    HW115871   4.601   2.911   3.157  0.7657  0.7849 -0.4414
 4775SOL    HW215872   4.598   3.061   3.134  1.0405  1.4468  3.1656
 4776SOL     OW15873   5.031   4.307   3.625  0.2992  0.3772 -0.8860
 4776SOL    HW115874   5.062   4.366   3.693 -1.3677  0.1628  0.0991
 4776SOL    HW215875   5.072   4.341   3.544  3.2583 -0.0685  0.2980
 4777SOL     OW15876   4.886   4.935   0.822  0.5417 -0.5847 -0.1386
 4777SOL    HW115877   4.831   4.969   0.752  0.2945 -1.2258 -0.2622
 4777SOL    HW215878   4.964   4.989   0.820 -0.0087  0.2254 -0.0744
 4778SOL     OW15879   0.368   2.225   6.516 -0.2736  0.3425 -0.1980
 4778SOL    HW115880   0.413   2.145   6.490 -1.1636 -0.3167  0.2401
 4778SOL    HW215881   0.408   2.293   6.463  0.1157 -0.4784 -0.9826
 4779SOL     OW15882   1.997   3.817   3.942 -0.0319 -0.2694 -0.0585
 4779SOL    HW115883   2.069   3.784   3.996  1.3043 -0.4007 -1.8272
 4779SOL    HW215884   1.994   3.911   3.961  0.1383 -0.3809  0.5389
 4780SOL     OW15885   3.837   5.009   2.328 -0.1544  0.1829  0.4660
 4780SOL    HW115886   3.885   4.970   2.401  1.1184  0.5032 -0.1581
 4780SOL    HW215887   3.872   5.098   2.321 -1.4063  0.6985  0.4607
 4781SOL     OW15888   2.057   2.622   1.251  0.1828  0.1998  0.2307
 4781SOL    HW115889   1.990   2.612   1.183  0.8719  1.1080 -0.5998
 4781SOL    HW215890   2.008   2.651   1.328 -0.5313 -0.3020 -0.0151
 4782SOL     OW15891   3.482   2.376   4.018  0.8531 -0.0500  0.1345
 4782SOL    HW115892   3.572   2.384   3.986  0.2740 -0.6103 -1.7784
 4782SOL    HW215893   3.428   2.398   3.942 -0.6557 -4.6571 -0.4640
 4783SOL     OW15894   1.234   2.543   2.773 -0.7447  0.0930 -0.2488
 4783SOL    HW115895   1.282   2.464   2.751  1.2076  0.8779  0.9109
 4783SOL    HW215896   1.161   2.513   2.827 -1.9685 -1.1827 -2.4640
 4784SOL     OW15897   1.336   6.213   1.071  0.4680 -0.4015 -0.5060
 4784SOL    HW115898   1.390   6.201   0.993  2.1098 -0.1029  0.5311
 4784SOL    HW215899   1.366   6.145   1.132 -1.8206 -1.5902 -0.6219
 4785SOL     OW15900   1.426   0.626   6.179  0.5200 -0.2034 -0.2341
 4785SOL    HW115901   1.424   0.699   6.117 -1.6525  0.9185  1.0110
 4785SOL    HW215902   1.350   0.573   6.155 -1.0637  0.8497  1.9668
 4786SOL     OW15903   2.155   5.916   1.196  0.6019 -0.1012  1.0527
 4786SOL    HW115904   2.148   5.864   1.116  1.7472 -0.1677  0.9663
 4786SOL    HW215905   2.236   5.885   1.237  0.4377  0.4766  1.8371
 4787SOL     OW15906   2.189   5.808   3.150  0.3050  0.2225  0.1187
 4787SOL    HW115907   2.167   5.867   3.222  1.4976  1.0096 -0.1272
 4787SOL    HW215908   2.247   5.860   3.093 -0.3271 -0.4891 -1.2301
 4788SOL     OW15909   0.687   3.699   5.735 -0.6999 -0.4752 -0.5023
 4788SOL    HW115910   0.641   3.648   5.669 -1.1375 -1.2373  0.3745
 4788SOL    HW215911   0.768   3.650   5.752 -0.3584 -0.0279 -0.8166
 4789SOL     OW15912   5.665   3.469   1.569 -0.5267  0.0678  0.0156
 4789SOL    HW115913   5.756   3.472   1.539 -0.5882  0.6782 -0.1256
 4789SOL    HW215914   5.644   3.376   1.573  0.3442 -0.1080  0.7789
 4790SOL     OW15915   1.209   2.995   6.099 -0.8156  0.3500 -0.2290
 4790SOL    HW115916   1.214   2.919   6.042 -1.6288 -0.8556  1.2101
 4790SOL    HW215917   1.251   2.967   6.181 -1.1845  1.4184  0.3584
 4791SOL     OW15918   1.036   6.177   4.988  0.0097  0.3893 -0.4603
 4791SOL    HW115919   0.964   6.193   4.926 -1.7496 -1.5524  0.9394
 4791SOL    HW215920   1.008   6.100   5.038  2.4640  0.4138  1.1143
 4792SOL     OW15921   3.160   0.285   1.608  0.1558 -0.3469  0.2231
 4792SOL    HW115922   3.239   0.310   1.561  0.4281 -0.3452  0.6750
 4792SOL    HW215923   3.157   0.190   1.603  0.1162 -0.3387  0.0936
 4793SOL     OW15924   0.528   3.314   0.583 -0.0083  0.5031  0.9824
 4793SOL    HW115925   0.479   3.389   0.550 -0.5723 -0.1323  0.3364
 4793SOL    HW215926   0.475   3.238   0.559 -0.5703 -0.0044  3.6039
 4794SOL     OW15927   3.919   0.588   3.596 -0.0279 -0.3863  0.0435
 4794SOL    HW115928   3.910   0.532   3.519  0.5340 -0.1321 -0.2155
 4794SOL    HW215929   3.984   0.653   3.570 -0.7164  0.4326  0.3134
 4795SOL     OW15930   4.473   5.653   2.054  0.3930 -0.4924  0.2396
 4795SOL    HW115931   4.522   5.685   1.978  0.5226 -0.0489  0.5048
 4795SOL    HW215932   4.538   5.651   2.125 -0.0188  0.3231  0.6516
 4796SOL     OW15933   2.642   5.017   4.764 -0.5937 -0.2137 -0.0637
 4796SOL    HW115934   2.710   4.962   4.725 -0.1179  0.4750 -0.2420
 4796SOL    HW215935   2.691   5.084   4.812 -1.1347  0.4888 -0.4708
 4797SOL     OW15936   0.748   3.411   5.914  0.6209 -0.0756  0.0559
 4797SOL    HW115937   0.836   3.375   5.909  0.5861 -0.0140 -1.7098
 4797SOL    HW215938   0.694   3.337   5.942  1.1239 -0.3176  0.4021
 4798SOL     OW15939   1.455   6.387   3.847  0.2105 -0.3224 -0.0158
 4798SOL    HW115940   1.417   6.413   3.763 -3.1423 -0.4993  1.2845
 4798SOL    HW215941   1.462   6.292   3.842 -1.5004 -0.5059  0.3801
 4799SOL     OW15942   4.490   6.722   6.723  0.5530 -0.2124  0.3663
 4799SOL    HW115943   4.446   6.667   6.658  0.9002  2.6969 -2.6261
 4799SOL    HW215944   4.570   6.750   6.679  1.7160  0.5046  2.8068
 4800SOL     OW15945   6.567   4.505   4.782 -0.7389  0.2092  0.2595
 4800SOL    HW115946   6.575   4.583   4.728 -0.7892  0.9963  1.3809
 4800SOL    HW215947   6.507   4.530   4.852  1.1786 -0.0234  2.0636
 4801SOL     OW15948   1.674   3.003   4.949  0.7440 -0.1518  0.2836
 4801SOL    HW115949   1.624   3.063   5.005 -0.4354 -1.9459  1.2998
 4801SOL    HW215950   1.719   2.945   5.011  1.3902 -0.6629 -0.6393
 4802SOL     OW15951   0.913   3.174   1.997 -0.3568 -0.5667 -0.0240
 4802SOL    HW115952   0.836   3.145   2.044 -0.5141  1.6902  1.2707
 4802SOL    HW215953   0.987   3.144   2.050 -0.5063  0.9731  1.1161
 4803SOL     OW15954   3.098   3.240   6.625  0.1960 -0.1449 -0.0086
 4803SOL    HW115955   3.147   3.219   6.546  0.2720 -0.6000  0.1515
 4803SOL    HW215956   3.150   3.201   6.696  1.1566  1.9148  0.4900
 4804SOL     OW15957   4.805   1.168   4.948  0.2788  0.0985  0.1025
 4804SOL    HW115958   4.760   1.098   4.995 -2.2763  2.4236  1.4381
 4804SOL    HW215959   4.883   1.186   5.001  0.8029 -1.4129 -0.0879
 4805SOL     OW15960   3.566   5.289   2.030  0.0510  0.2224 -0.1503
 4805SOL    HW115961   3.650   5.334   2.024 -0.0559  0.4929  0.2567
 4805SOL    HW215962   3.501   5.359   2.020 -0.1199  0.1142  0.1669
 4806SOL     OW15963   1.211   5.944   0.914 -0.2362 -0.0442 -0.2104
 4806SOL    HW115964   1.165   5.939   0.831  1.0013 -0.2075 -0.8994
 4806SOL    HW215965   1.289   5.995   0.896  0.4585 -0.7650  0.6609
 4807SOL     OW15966   6.124   1.465   6.441  0.0471 -0.5635 -0.2008
 4807SOL    HW115967   6.104   1.432   6.353 -2.1216 -1.7118  0.6432
 4807SOL    HW215968   6.055   1.427   6.497 -0.2021  2.2105  1.5468
 4808SOL     OW15969   2.475   6.552   0.756  0.1801  0.3183  0.1343
 4808SOL    HW115970   2.484   6.641   0.721 -0.3700  0.5128  0.4713
 4808SOL    HW215971   2.560   6.533   0.795 -0.0239  1.1270  1.0255
 4809SOL     OW15972   1.329   4.920   1.102  0.4397 -0.2182 -0.3308
 4809SOL    HW115973   1.245   4.890   1.068 -0.7416  1.9833  0.4330
 4809SOL    HW215974   1.311   4.945   1.192  2.0916 -0.2824  0.0562
 4810SOL     OW15975   1.379   3.701   2.198  0.2789 -0.0405  0.0236
 4810SOL    HW115976   1.375   3.780   2.145  1.0353  0.1431  0.2317
 4810SOL    HW215977   1.452   3.716   2.258 -0.4338 -0.3309  0.9843
 4811SOL     OW15978   1.952   1.217   2.008 -0.0625 -0.1236 -1.0072
 4811SOL    HW115979   1.864   1.210   2.046 -0.5171  1.1149 -1.7638
 4811SOL    HW215980   1.987   1.128   2.012 -1.4648 -0.7020 -0.9513
 4812SOL     OW15981   2.644   2.124   5.755  0.0284  0.5046 -0.2337
 4812SOL    HW115982   2.719   2.113   5.697 -0.0319  0.6905 -0.3459
 4812SOL    HW215983   2.590   2.192   5.714 -0.0325  0.6122  0.0179
 4813SOL     OW15984   1.823   1.172   6.588 -0.0232  0.2187  0.3982
 4813SOL    HW115985   1.736   1.132   6.591 -0.4021  1.0747  1.6243
 4813SOL    HW215986   1.882   1.106   6.623 -0.7714  0.9697  3.2973
 4814SOL     OW15987   4.659   1.017   6.373 -0.0902  0.3135  0.2354
 4814SOL    HW115988   4.652   0.925   6.397  1.1987  0.1613  0.0819
 4814SOL    HW215989   4.603   1.062   6.437  0.8273 -0.3924  1.6043
 4815SOL     OW15990   3.669   0.784   3.959  0.3689  0.0955  0.1605
 4815SOL    HW115991   3.705   0.840   4.028  0.0327  2.0013 -1.1259
 4815SOL    HW215992   3.579   0.766   3.988  1.0997 -1.5775  1.5734
 4816SOL     OW15993   4.537   4.746   3.710 -0.2321 -0.3477 -0.4731
 4816SOL    HW115994   4.545   4.650   3.708 -0.7026 -0.3863 -0.5677
 4816SOL    HW215995   4.624   4.776   3.737  0.6897 -0.6839 -2.7856
 4817SOL     OW15996   5.069   6.050   6.603 -0.1403  0.0891 -0.5871
 4817SOL    HW115997   4.976   6.031   6.619 -0.0248  1.0718  1.5532
 4817SOL    HW215998   5.115   5.973   6.636 -0.1812 -0.6072 -2.0845
 4818SOL     OW15999   0.344   3.687   6.568 -0.5318 -0.2069  0.4894
 4818SOL    HW116000   0.335   3.626   6.641 -0.3062 -0.8138  0.0179
 4818SOL    HW216001   0.295   3.765   6.596 -0.7085 -0.5454  1.1528
 4819SOL     OW16002   3.904   1.309   4.727 -0.4360  0.2212 -0.3239
 4819SOL    HW116003   3.891   1.215   4.711  1.0172 -0.0647 -0.0157
 4819SOL    HW216004   3.978   1.332   4.672 -0.4636  1.0775 -0.0059
 4820SOL     OW16005   5.663   6.112   0.354  0.4299  0.6097  0.2003
 4820SOL    HW116006   5.603   6.161   0.298  1.6841  0.3117 -1.4572
 4820SOL    HW216007   5.697   6.177   0.415 -1.7881  0.7241  1.4397
 4821SOL     OW16008   0.622   1.758   3.230  0.6768  0.3388  0.6411
 4821SOL    HW116009   0.583   1.679   3.193  2.1354 -0.5240  0.8538
 4821SOL    HW216010   0.599   1.827   3.169 -0.4704 -0.2747  0.3485
 4822SOL     OW16011   1.107   3.058   2.144  0.2028  0.0220  0.1194
 4822SOL    HW116012   1.137   2.969   2.126  0.4334  0.0067  0.5564
 4822SOL    HW216013   1.181   3.114   2.119  0.0087  0.0998 -0.2785
 4823SOL     OW16014   4.295   0.712   5.355 -0.1966  0.7756  0.5425
 4823SOL    HW116015   4.212   0.760   5.346 -1.0173 -0.7294 -0.2350
 4823SOL    HW216016   4.281   0.655   5.431 -0.4777 -0.5777 -0.4794
 4824SOL     OW16017   6.535   3.580   6.524  0.4429  0.1298  0.6257
 4824SOL    HW116018   6.486   3.532   6.591 -0.5389 -1.2014 -0.9852
 4824SOL    HW216019   6.551   3.517   6.455  2.2653  1.2222 -0.0274
 4825SOL     OW16020   3.265   4.732   5.931 -0.2643  0.0525  0.4412
 4825SOL    HW116021   3.174   4.703   5.930 -0.4667  0.6599 -0.7047
 4825SOL    HW216022   3.316   4.651   5.927 -0.7836 -0.2367 -0.6170
 4826SOL     OW16023   4.627   6.287   6.406  0.2656 -0.0929  0.0414
 4826SOL    HW116024   4.652   6.320   6.320 -1.6069 -0.3977 -0.6714
 4826SOL    HW216025   4.570   6.212   6.388  0.1899 -0.4323  1.5476
 4827SOL     OW16026   0.485   3.499   5.833  1.1492  0.9077 -0.2499
 4827SOL    HW116027   0.573   3.468   5.855  0.9906 -0.3202 -1.2027
 4827SOL    HW216028   0.499   3.582   5.788  1.9194  0.1679 -1.4113
 4828SOL     OW16029   5.826   0.064   4.109  0.3455 -0.0022  0.3229
 4828SOL    HW116030   5.901   0.011   4.136 -0.1240 -1.2216 -0.6786
 4828SOL    HW216031   5.767   0.002   4.065 -0.8442  1.0985  0.3140
 4829SOL     OW16032   2.077   6.135   2.023  0.4374 -0.3266 -0.3140
 4829SOL    HW116033   2.110   6.204   1.967  1.1517 -0.6098 -0.2478
 4829SOL    HW216034   2.094   6.166   2.112  0.6009 -0.5130 -0.2807
 4830SOL     OW16035   4.613   1.042   3.212 -0.1769  0.8149 -0.2971
 4830SOL    HW116036   4.675   0.968   3.217  0.4953  1.2723 -1.3548
 4830SOL    HW216037   4.621   1.072   3.122 -1.6010  1.2091 -0.3011
 4831SOL     OW16038   2.324   6.688   2.318  0.1386  0.4775 -0.1854
 4831SOL    HW116039   2.351   6.596   2.321 -0.6644  0.2270  2.6519
 4831SOL    HW216040   2.252   6.690   2.255 -1.5784 -1.4382  1.5635
 4832SOL     OW16041   6.512   2.776   3.026 -0.1569 -0.6720  0.0385
 4832SOL    HW116042   6.511   2.707   2.960 -0.7230 -0.0414 -0.6303
 4832SOL    HW216043   6.428   2.819   3.016  0.9852  1.4882 -1.0466
 4833SOL     OW16044   0.576   4.900   0.419  0.3146 -0.3306  0.1226
 4833SOL    HW116045   0.576   4.985   0.463 -0.6049  0.1997 -0.8309
 4833SOL    HW216046   0.578   4.835   0.489 -0.0581  0.4776  0.8896
 4834SOL     OW16047   1.161   6.399   5.687 -0.2782  0.1968  0.3809
 4834SOL    HW116048   1.236   6.340   5.698 -0.4506 -0.3911 -1.2734
 4834SOL    HW216049   1.103   6.378   5.760  0.7314 -0.0289  1.1323
 4835SOL     OW16050   2.351   0.849   0.166 -1.0438  0.1118  0.0556
 4835SOL    HW116051   2.298   0.915   0.210 -2.1152  0.6185 -1.8562
 4835SOL    HW216052   2.384   0.893   0.087 -0.5725 -1.2001 -0.5133
 4836SOL     OW16053   1.957   5.140   4.130 -0.2102 -0.3172 -0.3526
 4836SOL    HW116054   1.949   5.165   4.222  1.4578 -0.7271 -0.0510
 4836SOL    HW216055   1.940   5.220   4.081  2.3377  0.8479  0.4850
 4837SOL     OW16056   3.136   5.732   3.632  0.1343  0.5525 -0.2215
 4837SOL    HW116057   3.159   5.758   3.721  1.8304 -0.3172 -0.3469
 4837SOL    HW216058   3.103   5.811   3.591 -0.1143  1.1084  1.0066
 4838SOL     OW16059   4.385   4.895   4.288  0.6062 -0.0327 -0.4848
 4838SOL    HW116060   4.309   4.954   4.288  0.3932 -0.2794  0.7381
 4838SOL    HW216061   4.367   4.833   4.359  1.9984 -0.0413 -0.1069
 4839SOL     OW16062   0.581   1.522   4.382 -0.1113 -0.3087 -0.4834
 4839SOL    HW116063   0.584   1.583   4.308 -1.5655  1.7773  1.0762
 4839SOL    HW216064   0.503   1.469   4.365 -1.8444  1.7641  0.6536
 4840SOL     OW16065   5.369   2.188   1.565 -0.3925  0.0540  0.1028
 4840SOL    HW116066   5.363   2.282   1.549 -1.4651 -0.0465 -0.1438
 4840SOL    HW216067   5.356   2.179   1.660  0.2020  0.1802  0.2037
 4841SOL     OW16068   4.060   3.306   3.953 -0.0602  0.3301 -0.1203
 4841SOL    HW116069   4.085   3.333   4.041 -0.6981 -1.2131  0.5568
 4841SOL    HW216070   4.028   3.216   3.963  0.4420 -0.1010 -2.0215
 4842SOL     OW16071   0.028   1.227   1.978 -0.5779 -0.0405  0.0201
 4842SOL    HW116072  -0.000   1.301   1.924 -1.8829 -0.7962 -0.3873
 4842SOL    HW216073  -0.039   1.221   2.046  0.6300  0.4078  1.2810
 4843SOL     OW16074   0.045   3.481   4.373 -0.1042 -0.2027 -0.0015
 4843SOL    HW116075   0.110   3.440   4.429  2.0161  1.1544 -1.3314
 4843SOL    HW216076  -0.039   3.457   4.412  1.1869  1.1332  4.0613
 4844SOL     OW16077   5.749   2.215   5.044  0.4100  0.5032  0.2133
 4844SOL    HW116078   5.723   2.239   5.133  2.1799  1.6790  0.4667
 4844SOL    HW216079   5.836   2.177   5.054 -0.7935 -2.7698 -0.6421
 4845SOL     OW16080   3.569   4.706   1.189  0.0332  0.1723 -0.0555
 4845SOL    HW116081   3.584   4.800   1.178 -1.9929  0.5215 -0.2347
 4845SOL    HW216082   3.653   4.672   1.219  0.2629  2.3905  2.1983
 4846SOL     OW16083   5.359   2.465   1.616 -0.3385  0.5181  0.6752
 4846SOL    HW116084   5.420   2.518   1.566 -0.9670  1.2786  0.6927
 4846SOL    HW216085   5.291   2.527   1.645 -0.5395 -0.0956  1.5744
 4847SOL     OW16086   6.071   0.572   2.085 -0.3320 -0.5819 -0.1775
 4847SOL    HW116087   6.059   0.497   2.143  0.6050  0.5409  1.5357
 4847SOL    HW216088   6.153   0.554   2.040 -2.2525 -2.6896 -3.2445
 4848SOL     OW16089   0.224   2.114   4.385 -0.1416  0.1440 -0.0317
 4848SOL    HW116090   0.232   2.144   4.295  0.8929  1.2121  0.3890
 4848SOL    HW216091   0.191   2.189   4.434 -0.8025 -0.4560  0.4665
 4849SOL     OW16092   3.845   6.374   0.569  0.1609 -0.0569 -0.1976
 4849SOL    HW116093   3.910   6.380   0.500  1.4287 -1.5095  0.7949
 4849SOL    HW216094   3.851   6.458   0.615  0.5644  0.2353 -0.7632
 4850SOL     OW16095   0.601   0.318   3.371 -0.0599 -0.1310 -0.0020
 4850SOL    HW116096   0.543   0.307   3.295 -1.3718 -0.4311  0.9968
 4850SOL    HW216097   0.686   0.285   3.343 -0.2569  0.6697 -1.6470
 4851SOL     OW16098   0.401   5.120   2.877  0.0709  0.5732  0.2000
 4851SOL    HW116099   0.424   5.152   2.964  1.8092  2.1577 -0.7588
 4851SOL    HW216100   0.428   5.028   2.877  2.2873  1.1506  0.6599
 4852SOL     OW16101   2.160   1.261   0.693  0.1696 -0.1181 -0.3791
 4852SOL    HW116102   2.221   1.334   0.703  0.9737 -0.9481  1.0713
 4852SOL    HW216103   2.155   1.247   0.598  2.6124 -0.3164 -0.5388
 4853SOL     OW16104   6.245   5.523   1.352  0.5633  0.3772 -0.2940
 4853SOL    HW116105   6.292   5.585   1.408 -0.0904  2.8362 -2.3069
 4853SOL    HW216106   6.176   5.575   1.311 -2.0957 -2.4468  0.2792
 4854SOL     OW16107   0.228   1.737   6.725 -0.0239  0.0264 -0.0744
 4854SOL    HW116108   0.318   1.757   6.751  0.6117 -1.3528 -1.0394
 4854SOL    HW216109   0.197   1.676   6.792  0.6074 -1.2806 -0.9089
 4855SOL     OW16110   4.806   2.350   1.101  0.4179 -0.5917  0.1380
 4855SOL    HW116111   4.721   2.393   1.099 -0.5045 -2.3348 -0.8830
 4855SOL    HW216112   4.856   2.398   1.167 -2.1745 -0.9479  2.5671
 4856SOL     OW16113   1.188   3.620   4.820  0.4259 -0.0446  0.1156
 4856SOL    HW116114   1.136   3.642   4.742 -0.6968 -1.9704  0.2327
 4856SOL    HW216115   1.163   3.529   4.839  0.8218  0.3087  2.6033
 4857SOL     OW16116   1.849   2.109   5.141  0.2390  0.3289 -0.4128
 4857SOL    HW116117   1.840   2.154   5.058  0.3025 -2.1852 -1.8841
 4857SOL    HW216118   1.944   2.103   5.155  0.3052 -1.0634 -1.2793
 4858SOL     OW16119   1.708   6.241   5.550 -0.2271 -0.2037  0.5315
 4858SOL    HW116120   1.622   6.207   5.577 -1.2318  2.3439  0.7915
 4858SOL    HW216121   1.733   6.301   5.621  0.5039  1.0883 -0.7732
 4859SOL     OW16122   3.211   0.719   4.326 -0.3639 -0.2607 -0.3327
 4859SOL    HW116123   3.169   0.777   4.262 -1.7132  0.1461  0.8783
 4859SOL    HW216124   3.184   0.753   4.411  1.6550 -0.5899  0.5050
 4860SOL     OW16125   2.825   1.622   5.514 -0.0141  0.7100 -0.3260
 4860SOL    HW116126   2.866   1.574   5.585 -2.5370 -1.0743  0.0434
 4860SOL    HW216127   2.825   1.713   5.543  1.6172  0.4731  0.5674
 4861SOL     OW16128   1.977   0.362   1.146  0.0202 -0.2124 -0.3996
 4861SOL    HW116129   2.064   0.344   1.109  0.1741 -0.4371  0.0611
 4861SOL    HW216130   1.952   0.279   1.188 -1.3878 -0.8715 -2.4046
 4862SOL     OW16131   5.973   4.227   5.421  0.2370 -0.0399 -0.4524
 4862SOL    HW116132   5.954   4.284   5.496 -1.4743 -0.7342 -0.2940
 4862SOL    HW216133   6.048   4.267   5.378  3.7147 -1.4359  3.5763
 4863SOL     OW16134   4.535   5.643   3.539 -0.2256  0.4675 -0.3753
 4863SOL    HW116135   4.487   5.567   3.575  0.0279 -0.5445 -2.0763
 4863SOL    HW216136   4.468   5.709   3.525 -0.4285  0.6811  1.3057
 4864SOL     OW16137   1.532   6.385   2.410 -0.4515  0.0666 -0.2554
 4864SOL    HW116138   1.601   6.383   2.477 -0.7409  2.5243  0.2316
 4864SOL    HW216139   1.452   6.407   2.458 -0.8538  0.8878 -1.2614
 4865SOL     OW16140   6.419   0.194   3.390 -0.5367  0.1840  0.2627
 4865SOL    HW116141   6.353   0.263   3.398  0.5358  1.1256  1.6622
 4865SOL    HW216142   6.397   0.131   3.459 -1.8922 -1.2715 -1.4235
 4866SOL     OW16143   4.814   2.398   4.155  0.7861 -0.4407  0.3044
 4866SOL    HW116144   4.723   2.416   4.180  0.5104 -1.1864 -0.1061
 4866SOL    HW216145   4.817   2.302   4.146  1.7577 -0.4729  0.8393
 4867SOL     OW16146   1.288   1.239   6.156 -0.2769  0.0247 -0.7614
 4867SOL    HW116147   1.322   1.209   6.241  1.9535 -0.6269 -1.8154
 4867SOL    HW216148   1.287   1.334   6.164  1.2302  0.0319 -0.4473
 4868SOL     OW16149   3.462   1.399   3.572  0.0754  0.1002 -0.4545
 4868SOL    HW116150   3.373   1.364   3.580  0.2787 -0.2946  0.0899
 4868SOL    HW216151   3.456   1.463   3.501 -0.9448  1.0387  0.4518
 4869SOL     OW16152   2.715   1.009   1.059 -0.4012 -0.3116 -0.4373
 4869SOL    HW116153   2.808   1.029   1.064 -0.6096  0.6042 -0.0569
 4869SOL    HW216154   2.700   0.990   0.966  0.3045 -1.2542 -0.3727
 4870SOL     OW16155   2.950   1.017   3.883  0.3172  0.5905 -0.0167
 4870SOL    HW116156   3.010   1.071   3.832  0.7835 -0.8633 -1.0785
 4870SOL    HW216157   2.883   0.990   3.821  0.3562 -0.4365  0.3677
 4871SOL     OW16158   2.738   1.539   6.567  0.1671 -0.0366  0.0325
 4871SOL    HW116159   2.667   1.505   6.622  0.1038  0.0573  0.0104
 4871SOL    HW216160   2.699   1.614   6.522 -0.0106 -0.5691 -0.7242
 4872SOL     OW16161   4.189   6.774   0.650  0.0605  0.1680 -0.2528
 4872SOL    HW116162   4.235   6.833   0.709 -0.1326 -1.6892  1.9021
 4872SOL    HW216163   4.256   6.713   0.619 -0.2849 -0.4365  0.1479
 4873SOL     OW16164   1.376   2.090   0.250  0.1437  0.2423  0.0837
 4873SOL    HW116165   1.384   2.021   0.315  4.4713  0.2360 -0.1950
 4873SOL    HW216166   1.356   2.044   0.168 -0.7680 -0.2097  0.5425
 4874SOL     OW16167   3.022   4.323   2.005 -0.3024 -0.2218 -0.1605
 4874SOL    HW116168   3.040   4.362   2.090  1.5944  0.4369 -0.8158
 4874SOL    HW216169   3.042   4.230   2.017 -0.2660 -0.1707  0.1728
 4875SOL     OW16170   0.921   4.311   3.996  0.1430  0.0813 -0.7269
 4875SOL    HW116171   0.986   4.263   4.048  0.1098 -0.9482 -1.5898
 4875SOL    HW216172   0.950   4.299   3.906 -0.9685  0.0275 -1.0912
 4876SOL     OW16173   3.422   0.600   3.250  0.1199 -0.5048  0.5292
 4876SOL    HW116174   3.458   0.514   3.274  0.0235 -0.9273 -0.7156
 4876SOL    HW216175   3.393   0.588   3.159  0.9009  1.0967  0.0310
 4877SOL     OW16176   5.003   1.097   0.143 -0.2615 -0.4117 -0.3537
 4877SOL    HW116177   5.018   1.192   0.146  1.7562 -0.7110  2.0828
 4877SOL    HW216178   5.078   1.062   0.095  0.3480 -0.9243  0.9219
 4878SOL     OW16179   4.054   1.020   1.486 -0.3061  0.3932  0.0943
 4878SOL    HW116180   4.123   0.954   1.482 -2.5471 -2.1690  0.5427
 4878SOL    HW216181   4.067   1.073   1.407  1.1643 -1.0574 -0.7077
 4879SOL     OW16182   3.220   4.248   0.052 -0.2062 -0.5262  0.5205
 4879SOL    HW116183   3.272   4.172   0.079 -2.0760 -1.3651  2.0245
 4879SOL    HW216184   3.162   4.213  -0.017 -0.0670 -0.0736  0.1708
 4880SOL     OW16185   6.262   2.454   0.922  0.3106  0.8063 -0.3555
 4880SOL    HW116186   6.347   2.423   0.891  1.0713  2.6289 -0.1858
 4880SOL    HW216187   6.279   2.540   0.961 -1.1844  0.1611  1.9936
 4881SOL     OW16188   5.332   0.481   1.738  0.7995  0.0026 -0.5619
 4881SOL    HW116189   5.285   0.432   1.670 -0.0917 -0.3269  0.2646
 4881SOL    HW216190   5.414   0.507   1.696  0.4454 -0.5306 -1.6355
 4882SOL     OW16191   6.493   4.009   4.242 -0.4545 -0.2734  0.3742
 4882SOL    HW116192   6.469   4.059   4.164 -3.0819 -2.6486 -0.5035
 4882SOL    HW216193   6.582   4.036   4.262 -0.0194  1.0937 -2.8923
 4883SOL     OW16194   1.147   5.090   6.160 -0.1002  0.6836  0.2632
 4883SOL    HW116195   1.153   5.132   6.246 -1.8114 -0.7450  1.1369
 4883SOL    HW216196   1.080   5.140   6.114 -1.0342 -0.1167  0.7342
 4884SOL     OW16197   5.501   4.091   2.866 -0.1055 -0.0024  0.0701
 4884SOL    HW116198   5.410   4.065   2.884  0.1190 -0.8857 -0.0529
 4884SOL    HW216199   5.509   4.177   2.908 -0.2167 -1.0679  2.4423
 4885SOL     OW16200   0.721   3.023   5.692 -0.0774  0.5919  0.1246
 4885SOL    HW116201   0.693   3.114   5.683 -0.8258  0.5847  2.0252
 4885SOL    HW216202   0.766   3.020   5.776 -3.4916 -1.5184  2.1194
 4886SOL     OW16203   4.072   3.440   5.816  0.5466  0.2645 -0.3824
 4886SOL    HW116204   4.157   3.419   5.778  0.1496 -0.1231 -1.0624
 4886SOL    HW216205   4.012   3.441   5.742 -0.0065  0.7496  0.0652
 4887SOL     OW16206   5.017   5.177   4.783 -0.0446  0.3559  0.2731
 4887SOL    HW116207   4.946   5.116   4.803  0.3747 -0.8317 -1.5893
 4887SOL    HW216208   5.095   5.139   4.825 -0.3565  1.3875  1.8778
 4888SOL     OW16209   2.032   1.920   0.391  0.4284 -0.2175 -0.5399
 4888SOL    HW116210   2.075   1.926   0.306  0.5353 -0.2873 -0.4916
 4888SOL    HW216211   2.101   1.889   0.450  0.6307  0.8116 -0.2162
 4889SOL     OW16212   2.153   3.474   3.647 -0.1226 -0.2486 -0.5150
 4889SOL    HW116213   2.237   3.432   3.626  0.2214 -0.0415  0.4324
 4889SOL    HW216214   2.175   3.542   3.710 -1.1985 -1.1695  0.9076
 4890SOL     OW16215   6.360   4.558   0.534  0.1239  0.3575  0.7527
 4890SOL    HW116216   6.418   4.584   0.463  0.4928 -1.3087  0.3944
 4890SOL    HW216217   6.275   4.594   0.510  0.4910  0.7921  0.0653
 4891SOL     OW16218   3.519   4.972   4.480  0.6711 -0.1484 -0.7361
 4891SOL    HW116219   3.526   4.947   4.388  0.8594 -2.3360 -0.1917
 4891SOL    HW216220   3.606   4.954   4.516  0.5584  0.5576 -0.1014
 4892SOL     OW16221   2.647   0.946   4.196  0.5759  0.2676  0.0810
 4892SOL    HW116222   2.737   0.967   4.168  0.9497 -2.3758 -1.0014
 4892SOL    HW216223   2.630   0.859   4.159 -1.5403 -0.4044  2.3551
 4893SOL     OW16224   5.010   6.066   2.030 -0.2089  0.6168  0.1472
 4893SOL    HW116225   4.919   6.081   2.053  0.3238  1.9240  1.6646
 4893SOL    HW216226   5.024   6.116   1.949 -1.2258 -1.0307 -1.0993
 4894SOL     OW16227   3.952   1.386   2.248  0.3027 -0.2470  0.3879
 4894SOL    HW116228   3.957   1.474   2.211 -1.0686  0.2421  1.3096
 4894SOL    HW216229   3.929   1.330   2.173 -0.7687  0.4760  0.1603
 4895SOL     OW16230   0.396   3.958   6.436 -0.3000  0.4899  0.6161
 4895SOL    HW116231   0.442   3.951   6.352  0.1348  1.7523  0.7286
 4895SOL    HW216232   0.305   3.975   6.411 -0.4799 -0.6695  0.4078
 4896SOL     OW16233   6.773   3.469   1.845 -0.0530 -0.1556  0.4561
 4896SOL    HW116234   6.863   3.439   1.856  0.3563  1.0478  0.5841
 4896SOL    HW216235   6.777   3.531   1.772 -0.9002 -0.5428  0.0616
 4897SOL     OW16236   5.986   0.608   2.985  0.5309 -0.3995 -0.0146
 4897SOL    HW116237   5.998   0.525   3.031  1.2257  0.8419  2.1545
 4897SOL    HW216238   5.891   0.622   2.985  0.5768  0.8702  3.6401
 4898SOL     OW16239   1.005   1.766   5.007  0.0365  0.5011 -0.2379
 4898SOL    HW116240   0.922   1.784   4.963  0.6573  0.3528 -1.5115
 4898SOL    HW216241   1.050   1.703   4.950 -0.0337 -1.4096  1.6782
 4899SOL     OW16242   3.009   2.005   3.684  0.3817 -0.7427 -0.8217
 4899SOL    HW116243   3.081   1.948   3.711  1.0161 -0.0517 -1.0200
 4899SOL    HW216244   3.014   2.007   3.589  0.9714  0.3766 -0.7901
 4900SOL     OW16245   3.010   4.679   1.613  0.4861  0.6592  0.0822
 4900SOL    HW116246   2.945   4.612   1.591 -3.3131  2.6502  3.8004
 4900SOL    HW216247   3.084   4.630   1.650 -1.6514 -1.6044  1.6718
 4901SOL     OW16248   0.532   2.754   3.562 -0.4282  0.0269 -0.2545
 4901SOL    HW116249   0.613   2.711   3.536 -0.5628 -0.4957  0.1776
 4901SOL    HW216250   0.489   2.776   3.479  0.3922  0.7925 -0.4947
 4902SOL     OW16251   2.575   4.505   3.099  0.3974  0.0424 -0.2066
 4902SOL    HW116252   2.645   4.556   3.140  0.3641 -0.3839  0.3950
 4902SOL    HW216253   2.595   4.509   3.006 -0.2244  2.0705 -0.2973
 4903SOL     OW16254   5.068   6.694   5.063  0.2218  0.2892  0.2811
 4903SOL    HW116255   4.980   6.699   5.100 -0.0972  1.1250 -0.5328
 4903SOL    HW216256   5.105   6.781   5.079 -1.1057  1.9400 -3.9950
 4904SOL     OW16257   6.409   3.369   4.805 -0.0242  0.0024  0.1111
 4904SOL    HW116258   6.421   3.450   4.855 -1.4627 -0.1036  0.6833
 4904SOL    HW216259   6.314   3.358   4.801  0.0866 -0.4598 -1.9218
 4905SOL     OW16260   0.765   3.239   0.730 -0.7599  0.3512  0.3488
 4905SOL    HW116261   0.685   3.265   0.684 -0.5523  1.7847  0.7589
 4905SOL    HW216262   0.741   3.241   0.822 -0.0611  1.5646  0.5207
 4906SOL     OW16263   3.278   3.973   6.438  0.5374 -0.6412  0.3173
 4906SOL    HW116264   3.257   3.957   6.530 -0.0674 -1.3518  0.0642
 4906SOL    HW216265   3.324   4.057   6.438 -0.3377 -0.1351  1.1589
 4907SOL     OW16266   3.081   4.432   2.694 -0.1601  0.3970  0.2332
 4907SOL    HW116267   3.078   4.443   2.789 -0.1098 -0.2217  0.3123
 4907SOL    HW216268   3.169   4.398   2.677 -0.6334 -0.8092  0.1192
 4908SOL     OW16269   3.230   4.885   5.645  0.0815  0.5331  0.2288
 4908SOL    HW116270   3.289   4.818   5.680  0.3371  0.5054 -0.2536
 4908SOL    HW216271   3.185   4.920   5.722 -0.0394 -0.1762  0.4872
 4909SOL     OW16272   5.905   0.397   6.651  0.6063  0.1424  0.2632
 4909SOL    HW116273   5.903   0.492   6.638 -0.8514  0.2984  1.3925
 4909SOL    HW216274   5.817   0.367   6.628  1.2278 -1.0627 -0.7161
 4910SOL     OW16275   5.499   1.474   0.457  1.0468  0.0519 -0.4790
 4910SOL    HW116276   5.519   1.567   0.447 -0.3805  0.3298 -0.9442
 4910SOL    HW216277   5.524   1.435   0.373  1.8782 -0.0405 -0.1962
 4911SOL     OW16278   5.462   1.355   3.282 -0.2208 -0.0785 -0.0195
 4911SOL    HW116279   5.541   1.332   3.232 -1.0713  0.9898 -1.9370
 4911SOL    HW216280   5.482   1.441   3.319 -0.6366  0.3892 -0.8700
 4912SOL     OW16281   5.560   1.893   3.762  0.3027  0.0426  0.1048
 4912SOL    HW116282   5.571   1.988   3.750  1.1810 -0.0224  0.3318
 4912SOL    HW216283   5.542   1.860   3.674  3.8346 -0.0583 -0.7428
 4913SOL     OW16284   3.224   2.492   3.497 -0.2003  0.3993  0.3358
 4913SOL    HW116285   3.305   2.474   3.448 -1.4966 -0.8350 -1.5185
 4913SOL    HW216286   3.164   2.527   3.431 -2.1974 -1.7769  0.8412
 4914SOL     OW16287   1.173   4.616   0.372 -0.0540 -0.0159 -0.4222
 4914SOL    HW116288   1.095   4.580   0.329 -2.5154  2.6242  1.4178
 4914SOL    HW216289   1.206   4.682   0.310 -0.6510  0.4100 -0.2915
 4915SOL     OW16290   5.210   4.782   5.721 -0.3928 -0.0250  0.7208
 4915SOL    HW116291   5.169   4.763   5.806 -0.2708  0.0003  0.7854
 4915SOL    HW216292   5.301   4.803   5.742 -0.0292 -1.2762  0.4508
 4916SOL     OW16293   4.718   6.120   3.868 -0.0123 -0.0623  0.4423
 4916SOL    HW116294   4.669   6.049   3.825 -1.6136  1.0115  0.3987
 4916SOL    HW216295   4.784   6.145   3.804 -1.0367  0.1230 -0.5753
 4917SOL     OW16296   2.973   0.782   1.152  0.1333  0.9883 -0.4513
 4917SOL    HW116297   3.009   0.845   1.090  1.7173  3.3557  2.5383
 4917SOL    HW216298   3.013   0.698   1.128  1.3444  1.9745 -2.0516
 4918SOL     OW16299   1.127   6.320   1.433  0.0381 -0.1528  0.1372
 4918SOL    HW116300   1.211   6.274   1.441  0.0463 -0.1347  0.1559
 4918SOL    HW216301   1.101   6.308   1.342 -0.5445 -1.2183  0.4229
 4919SOL     OW16302   1.399   6.435   6.205 -0.2266  0.1472  0.1034
 4919SOL    HW116303   1.383   6.353   6.158  0.4297  0.5194 -0.8097
 4919SOL    HW216304   1.323   6.489   6.183 -0.5342 -0.1215  0.4960
 4920SOL     OW16305   3.228   0.637   2.165 -0.5134  0.2977 -0.2617
 4920SOL    HW116306   3.205   0.568   2.102 -0.1167  0.8381 -1.0052
 4920SOL    HW216307   3.323   0.633   2.171 -0.5393  0.3392  0.2148
 4921SOL     OW16308   4.602   0.003   5.664  0.7830  0.1339 -0.2762
 4921SOL    HW116309   4.548   0.077   5.636  0.2593 -0.5073 -0.9900
 4921SOL    HW216310   4.621  -0.045   5.583  0.4170 -0.9747  0.2767
 4922SOL     OW16311   6.080   5.309   4.888  0.0948 -0.0659 -0.0511
 4922SOL    HW116312   6.113   5.385   4.934  1.4783 -0.7311  0.0969
 4922SOL    HW216313   5.985   5.321   4.886  0.0361  0.3283  2.3527
 4923SOL     OW16314   5.872   0.171   0.413  0.1887 -0.7970 -0.3560
 4923SOL    HW116315   5.892   0.162   0.506 -0.2351 -0.7317 -0.2584
 4923SOL    HW216316   5.926   0.244   0.383  2.2843 -2.4171 -0.7477
 4924SOL     OW16317   3.006   4.643   0.723  0.5983 -0.5220  0.4215
 4924SOL    HW116318   3.016   4.616   0.814  1.3561  1.5189  1.0094
 4924SOL    HW216319   3.092   4.626   0.684  1.0586  0.7986  0.7776
 4925SOL     OW16320   0.936   0.958   3.611  0.2653  0.1107  0.4264
 4925SOL    HW116321   0.927   0.893   3.541  0.3246  0.0593  0.4663
 4925SOL    HW216322   1.011   0.928   3.662  0.5137  0.4035  0.2381
 4926SOL     OW16323   0.926   0.527   1.916  0.1358 -0.4038 -0.1750
 4926SOL    HW116324   1.008   0.574   1.906  0.2064 -0.8676 -2.1680
 4926SOL    HW216325   0.868   0.565   1.850  0.0258 -2.6357 -1.5038
 4927SOL     OW16326   0.281   0.623   0.803  0.0831 -0.2876 -0.0058
 4927SOL    HW116327   0.244   0.623   0.890  0.1941 -0.2960  0.0421
 4927SOL    HW216328   0.261   0.536   0.768 -0.7708  0.0372 -0.3393
 4928SOL     OW16329   5.929   3.566   4.018  0.3354  0.9203  0.0720
 4928SOL    HW116330   5.841   3.532   4.040  0.7228  0.8971  1.7451
 4928SOL    HW216331   5.970   3.495   3.970 -1.5193  1.9957 -3.4051
 4929SOL     OW16332   1.530   0.287   2.076  0.4326 -0.1850 -0.0672
 4929SOL    HW116333   1.594   0.260   2.142 -0.2664 -1.2419  0.2113
 4929SOL    HW216334   1.445   0.273   2.119 -0.0106  2.6650  0.1497
 4930SOL     OW16335   2.502   0.886   3.760  0.1786  0.2098 -0.7542
 4930SOL    HW116336   2.522   0.836   3.839  1.3196 -2.1903 -2.4257
 4930SOL    HW216337   2.576   0.946   3.751  0.8281 -0.5632 -0.7464
 4931SOL     OW16338   4.165   5.034   2.868 -0.2714  0.2269 -0.4597
 4931SOL    HW116339   4.233   5.046   2.934 -0.9704  1.1086  0.1245
 4931SOL    HW216340   4.180   4.945   2.835  0.9979  0.3150 -0.1807
 4932SOL     OW16341   3.313   5.520   5.215  0.2100  0.1639  0.4767
 4932SOL    HW116342   3.296   5.455   5.147 -0.0974  0.9996 -0.2632
 4932SOL    HW216343   3.340   5.468   5.291  0.2362 -0.8067 -0.1712
 4933SOL     OW16344   2.155   3.788   5.347  0.0799 -0.2220  0.0910
 4933SOL    HW116345   2.187   3.743   5.425  0.0143  1.0985  0.9249
 4933SOL    HW216346   2.060   3.795   5.361  0.1178  0.3543  0.1007
 4934SOL     OW16347   0.381   0.507   0.424 -0.2194  0.8685  0.0453
 4934SOL    HW116348   0.452   0.552   0.468  0.4365 -0.4004  0.3392
 4934SOL    HW216349   0.338   0.457   0.493  0.1164 -0.2618 -0.5356
 4935SOL     OW16350   5.283   3.309   5.451 -0.5697  0.1672  0.0715
 4935SOL    HW116351   5.335   3.229   5.454 -0.4765  0.2497  1.1133
 4935SOL    HW216352   5.346   3.378   5.430 -0.0068  0.4268  2.4038
 4936SOL     OW16353   2.800   0.748   4.669  0.2923 -0.0689 -0.2773
 4936SOL    HW116354   2.794   0.814   4.738 -1.3230 -0.5056  0.0359
 4936SOL    HW216355   2.817   0.666   4.716  0.0157 -0.2336 -0.4621
 4937SOL     OW16356   2.679   4.701   2.580  0.3330 -0.0970  1.1335
 4937SOL    HW116357   2.693   4.664   2.667 -1.8548  1.1785  2.1209
 4937SOL    HW216358   2.747   4.662   2.526  1.0860 -1.7815  3.1572
 4938SOL     OW16359   5.850   6.705   0.311  0.1805  0.0454  0.0376
 4938SOL    HW116360   5.843   6.799   0.332  2.8319  0.4423 -0.4720
 4938SOL    HW216361   5.857   6.703   0.216 -1.1488 -0.8218 -0.0615
 4939SOL     OW16362   1.304   1.565   0.771 -0.0587 -0.2433 -0.2292
 4939SOL    HW116363   1.373   1.548   0.835  0.8330  0.6776 -0.9306
 4939SOL    HW216364   1.301   1.660   0.764  0.5162 -0.3419 -2.2557
 4940SOL     OW16365   5.041   1.311   1.472 -0.0052  0.0884 -0.1712
 4940SOL    HW116366   5.028   1.406   1.474 -0.6735  0.0986 -2.4507
 4940SOL    HW216367   5.130   1.300   1.438 -1.1224 -0.0411 -3.3337
 4941SOL     OW16368   5.468   4.438   0.014  0.0782  0.2295  0.1468
 4941SOL    HW116369   5.563   4.437   0.001  0.1131 -0.7734  0.4764
 4941SOL    HW216370   5.432   4.425  -0.074  0.2645 -0.6600  0.1955
 4942SOL     OW16371   1.391   3.116   0.575 -0.2274  0.1567  0.5338
 4942SOL    HW116372   1.438   3.032   0.577 -2.2044 -1.0289 -0.0068
 4942SOL    HW216373   1.456   3.179   0.544  0.5235 -1.7810 -2.1804
 4943SOL     OW16374   2.314   3.277   1.297  0.3596  0.2047  0.1256
 4943SOL    HW116375   2.359   3.307   1.218  1.2902  0.4403  0.7401
 4943SOL    HW216376   2.370   3.305   1.369  0.0874 -0.9795  0.8202
 4944SOL     OW16377   5.272   1.427   1.307 -0.2597  0.0153  0.4228
 4944SOL    HW116378   5.275   1.345   1.356  0.5979  0.5667  1.3355
 4944SOL    HW216379   5.357   1.469   1.325 -1.1138  1.6276  0.9194
 4945SOL     OW16380   5.783   2.022   6.775 -0.0327  0.4270  0.3591
 4945SOL    HW116381   5.747   2.059   6.856 -2.1775 -1.6673  0.4627
 4945SOL    HW216382   5.723   2.052   6.706  0.6058  0.5212 -0.1691
 4946SOL     OW16383   3.622   1.429   4.470  0.1748  0.0441 -0.5345
 4946SOL    HW116384   3.550   1.492   4.462  1.7093  1.7029 -2.0027
 4946SOL    HW216385   3.625   1.386   4.384  1.8815  1.1008 -1.0398
 4947SOL     OW16386   5.333   6.737   2.196  0.0869  0.0192  0.0425
 4947SOL    HW116387   5.286   6.659   2.168  1.6999 -0.6254 -1.0509
 4947SOL    HW216388   5.265   6.799   2.221 -1.2159 -2.0737  1.9873
 4948SOL     OW16389   5.858   2.655   1.187  0.4483 -0.1019  0.0714
 4948SOL    HW116390   5.953   2.658   1.198  0.6216 -1.7969 -0.5583
 4948SOL    HW216391   5.832   2.571   1.225 -0.5944 -0.3175 -1.0362
 4949SOL     OW16392   3.278   2.925   1.269 -0.6927  0.0122  0.0171
 4949SOL    HW116393   3.303   2.835   1.288 -0.7537 -0.1033 -0.4338
 4949SOL    HW216394   3.345   2.955   1.207  0.6233  1.0027  1.8233
 4950SOL     OW16395   1.645   4.677   0.759 -0.5471  0.2525  0.0694
 4950SOL    HW116396   1.608   4.726   0.832  1.7685 -1.1757  2.3790
 4950SOL    HW216397   1.604   4.590   0.764 -1.4782  0.5783 -1.3314
 4951SOL     OW16398   1.164   6.452   1.897 -0.1452  0.1210 -0.3629
 4951SOL    HW116399   1.071   6.461   1.877 -0.0199  0.5644 -0.7392
 4951SOL    HW216400   1.169   6.470   1.991 -0.5735 -0.9067 -0.1169
 4952SOL     OW16401   2.465   0.448   6.629 -0.2329  0.1094 -0.0384
 4952SOL    HW116402   2.520   0.465   6.705  0.5978  1.6627 -0.9375
 4952SOL    HW216403   2.511   0.379   6.581  1.9984  2.5436 -1.6778
 4953SOL     OW16404   3.637   2.530   2.893  0.7219  0.5838  0.3063
 4953SOL    HW116405   3.559   2.557   2.846  1.9625 -1.0578 -3.0193
 4953SOL    HW216406   3.703   2.596   2.872  0.9588  0.5154  0.8134
 4954SOL     OW16407   6.454   2.929   6.460  0.5744 -0.2004 -0.2741
 4954SOL    HW116408   6.379   2.987   6.463  1.7063  1.3417 -0.4678
 4954SOL    HW216409   6.494   2.945   6.375  1.9571  0.1746  0.4051
 4955SOL     OW16410   0.428   0.906   4.591  0.5131 -0.2671 -0.3401
 4955SOL    HW116411   0.457   0.836   4.533 -0.0123 -1.0231  0.2947
 4955SOL    HW216412   0.439   0.986   4.539 -0.9841 -1.0123 -1.9026
 4956SOL     OW16413   1.099   1.802   0.586  0.1775 -0.1749 -0.0121
 4956SOL    HW116414   1.138   1.851   0.658  0.7210 -0.5734 -0.0359
 4956SOL    HW216415   1.008   1.831   0.584  0.1380 -0.2226  0.8823
 4957SOL     OW16416   4.429   6.116   0.242 -0.0463 -0.2991  0.0433
 4957SOL    HW116417   4.470   6.192   0.199  1.6047 -1.2231 -0.1241
 4957SOL    HW216418   4.335   6.133   0.237  0.2770  1.5869 -0.2485
 4958SOL     OW16419   5.317   1.418   6.692  0.0016 -0.0595 -0.2779
 4958SOL    HW116420   5.251   1.349   6.692  0.1566 -0.2185 -1.0521
 4958SOL    HW216421   5.277   1.490   6.741  0.3763 -1.1724  1.7892
 4959SOL     OW16422   5.271   0.120   1.891  0.9742  0.4142 -0.0297
 4959SOL    HW116423   5.229   0.038   1.866  0.3499  0.4931  0.6968
 4959SOL    HW216424   5.347   0.093   1.942  0.6239  0.2759  0.4313
 4960SOL     OW16425   2.272   1.012   2.698  0.2675 -0.2661  0.4451
 4960SOL    HW116426   2.204   0.954   2.734  1.9012 -2.3873  0.3288
 4960SOL    HW216427   2.348   0.997   2.754  1.1820  0.7008 -0.4970
 4961SOL     OW16428   4.839   3.993   3.303 -0.0707 -0.3307 -0.3852
 4961SOL    HW116429   4.870   3.945   3.227  0.7484 -1.6910  0.7510
 4961SOL    HW216430   4.769   3.939   3.340 -1.4753  1.0206 -0.9487
 4962SOL     OW16431   0.488   2.413   2.239 -0.4246  0.1202  0.3274
 4962SOL    HW116432   0.511   2.502   2.215  1.1514 -0.5579 -0.8713
 4962SOL    HW216433   0.556   2.387   2.301 -0.2093 -0.6129 -0.2014
 4963SOL     OW16434   5.128   5.656   1.032 -0.5277  0.6879  0.1223
 4963SOL    HW116435   5.169   5.726   0.982  0.4347  0.3524  0.4198
 4963SOL    HW216436   5.162   5.667   1.121 -1.4380  0.6701  0.4845
 4964SOL     OW16437   6.300   2.002   0.625 -0.5773 -0.0737 -0.0264
 4964SOL    HW116438   6.383   1.958   0.611 -0.9711 -1.0421  0.6038
 4964SOL    HW216439   6.317   2.093   0.599  0.6989 -0.2291  0.1889
 4965SOL     OW16440   4.649   2.922   1.262 -0.3710 -0.0918 -0.0192
 4965SOL    HW116441   4.585   2.958   1.200  0.9752  0.1903 -1.2770
 4965SOL    HW216442   4.734   2.941   1.223  0.6102  1.3093  2.5545
 4966SOL     OW16443   4.077   5.445   4.376  0.4474 -0.1057  0.0731
 4966SOL    HW116444   4.078   5.377   4.309 -0.0227  1.2102 -1.3237
 4966SOL    HW216445   4.008   5.419   4.436  0.2613 -0.8502 -0.4524
 4967SOL     OW16446   4.358   3.060   2.225  0.2024  0.2308  0.5096
 4967SOL    HW116447   4.357   2.989   2.161  0.0163 -1.0086  1.8286
 4967SOL    HW216448   4.265   3.078   2.243  0.2443  0.9536  0.0457
 4968SOL     OW16449   2.481   4.558   4.000  0.8509 -0.1087 -0.0532
 4968SOL    HW116450   2.562   4.508   3.988  1.2744 -0.2234  2.7046
 4968SOL    HW216451   2.418   4.517   3.940  2.6499 -0.3112 -1.9186
 4969SOL     OW16452   5.748   2.409   2.735 -0.6444 -0.1128  0.1554
 4969SOL    HW116453   5.743   2.489   2.787  0.7143  0.0774  0.0270
 4969SOL    HW216454   5.730   2.437   2.646  1.3073  0.3433 -0.1262
 4970SOL     OW16455   5.529   4.649   3.817 -0.0310  0.4357 -0.8471
 4970SOL    HW116456   5.481   4.646   3.734 -0.9103 -1.0617 -0.3138
 4970SOL    HW216457   5.597   4.583   3.807  0.2545  0.6872 -0.5895
 4971SOL     OW16458   5.187   2.450   2.527  0.6005  0.6311 -0.0226
 4971SOL    HW116459   5.270   2.440   2.574  0.4750 -0.4770 -0.0065
 4971SOL    HW216460   5.151   2.361   2.522 -1.1910  1.2454  1.0505
 4972SOL     OW16461   5.527   1.364   4.625  0.4443 -0.1134  0.4344
 4972SOL    HW116462   5.542   1.441   4.679  2.2809  1.8901 -2.6207
 4972SOL    HW216463   5.615   1.327   4.611  0.2447  0.2213 -2.1111
 4973SOL     OW16464   6.165   1.458   5.361 -0.3261 -0.1802 -0.1282
 4973SOL    HW116465   6.205   1.427   5.280  0.9610  1.3331 -0.1293
 4973SOL    HW216466   6.212   1.413   5.431 -1.4838 -1.5394 -0.1977
 4974SOL     OW16467   6.342   4.227   6.151  0.5526  0.1302  0.3622
 4974SOL    HW116468   6.341   4.215   6.056  2.8298 -2.2922  0.5159
 4974SOL    HW216469   6.344   4.138   6.186 -2.5011  0.8843  2.8543
 4975SOL     OW16470   5.991   4.088   2.881  0.3577 -0.1147  0.3005
 4975SOL    HW116471   6.056   4.158   2.876 -0.0353  0.3515  1.3561
 4975SOL    HW216472   6.000   4.054   2.970 -0.1031 -0.7767  0.1035
 4976SOL     OW16473   4.865   3.659   6.722  0.2856  0.3478 -0.3888
 4976SOL    HW116474   4.849   3.616   6.638  2.3987  2.3777 -1.9336
 4976SOL    HW216475   4.815   3.741   6.717 -1.5577 -0.5629  1.4367
 4977SOL     OW16476   3.812   3.103   2.577  0.3121 -0.4095 -0.0632
 4977SOL    HW116477   3.804   3.014   2.543  0.7818 -0.2489 -0.6050
 4977SOL    HW216478   3.793   3.095   2.671  2.6039 -1.4680  0.3585
 4978SOL     OW16479   0.983   4.749   1.317  0.2753 -0.5710 -0.6073
 4978SOL    HW116480   0.982   4.842   1.292 -0.7761 -0.5088 -0.3766
 4978SOL    HW216481   0.919   4.708   1.259  0.1109 -0.9906 -0.1356
 4979SOL     OW16482   6.157   2.516   0.187 -0.6207 -0.1411 -0.1549
 4979SOL    HW116483   6.169   2.435   0.136  0.7338 -0.2943  0.3726
 4979SOL    HW216484   6.174   2.586   0.125 -0.7949 -0.2823 -0.3650
 4980SOL     OW16485   2.813   3.178   5.184 -0.0384  0.3294  0.2632
 4980SOL    HW116486   2.796   3.231   5.107 -0.0955  1.8050  1.2666
 4980SOL    HW216487   2.774   3.093   5.164  0.2453  0.5761 -1.4544
 4981SOL     OW16488   1.092   4.416   1.167  0.3145 -0.6833  0.0755
 4981SOL    HW116489   1.065   4.325   1.170 -0.2780 -0.4827  1.2105
 4981SOL    HW216490   1.026   4.459   1.112 -1.3028 -0.3582  2.1403
 4982SOL     OW16491   1.067   0.884   1.495  0.0227 -0.1358  0.2183
 4982SOL    HW116492   1.017   0.818   1.543 -0.5208  1.0766  1.3888
 4982SOL    HW216493   1.052   0.864   1.403  0.0923 -1.7810  0.5356
 4983SOL     OW16494   2.314   1.263   6.757 -0.5573  0.1894 -0.2373
 4983SOL    HW116495   2.364   1.345   6.752  0.6484 -0.5105 -0.0288
 4983SOL    HW216496   2.242   1.283   6.818 -0.6303  1.2564 -0.6394
 4984SOL     OW16497   2.020   6.368   1.135 -0.2208 -0.1843  0.7576
 4984SOL    HW116498   1.952   6.316   1.093 -0.1548 -2.2901  3.0052
 4984SOL    HW216499   2.092   6.370   1.071 -0.6083 -2.0698  0.2051
 4985SOL     OW16500   4.658   2.114   2.316 -0.5341 -0.0795  0.3268
 4985SOL    HW116501   4.571   2.121   2.277 -0.8526  0.3993  1.1104
 4985SOL    HW216502   4.716   2.157   2.254 -0.8193 -0.5832 -0.3011
 4986SOL     OW16503   4.769   4.162   3.512 -0.1678  0.2307 -0.4071
 4986SOL    HW116504   4.815   4.240   3.481 -1.1517  0.7731 -0.5327
 4986SOL    HW216505   4.813   4.089   3.467 -1.2227  0.9402 -2.7235
 4987SOL     OW16506   4.255   6.306   2.865 -0.0076  0.6206 -0.1433
 4987SOL    HW116507   4.265   6.220   2.824  0.4449  0.6901 -0.1826
 4987SOL    HW216508   4.186   6.349   2.814  1.2168  1.0750 -1.4522
 4988SOL     OW16509   6.764   2.108   5.167  0.4135 -0.1045  0.2157
 4988SOL    HW116510   6.792   2.064   5.087 -0.6557  0.2336 -0.3610
 4988SOL    HW216511   6.668   2.101   5.166  0.4148 -0.8304  1.8945
 4989SOL     OW16512   1.088   3.864   4.461 -0.3070  0.6328  0.0560
 4989SOL    HW116513   0.994   3.847   4.454 -0.6437  2.8914 -2.5933
 4989SOL    HW216514   1.097   3.924   4.535 -0.6507 -0.9646  1.4501
 4990SOL     OW16515   0.796   0.859   4.477 -0.1444 -0.2180 -0.4368
 4990SOL    HW116516   0.744   0.935   4.499 -0.5264 -0.8879  1.0937
 4990SOL    HW216517   0.860   0.852   4.548  0.6988 -0.6184 -1.2037
 4991SOL     OW16518   2.899   2.135   6.772  0.1254  0.3212 -0.5510
 4991SOL    HW116519   2.976   2.152   6.717 -0.4464 -1.5812 -2.0473
 4991SOL    HW216520   2.895   2.040   6.780 -2.6872  0.2475 -1.5254
 4992SOL     OW16521   4.378   4.561   4.824  0.4215 -0.0584 -0.3249
 4992SOL    HW116522   4.362   4.492   4.760  1.2711 -0.5076 -0.0714
 4992SOL    HW216523   4.396   4.515   4.905 -0.7432  0.5105  0.2784
 4993SOL     OW16524   0.314   1.009   2.381  0.0181 -0.2937 -0.3369
 4993SOL    HW116525   0.371   1.086   2.383 -0.5468  0.1182  0.5068
 4993SOL    HW216526   0.236   1.035   2.430  0.3651 -1.8376  1.1481
 4994SOL     OW16527   4.910   1.102   1.618  0.0935  0.2351 -0.4512
 4994SOL    HW116528   4.829   1.146   1.642  0.9082  1.1638  0.6980
 4994SOL    HW216529   4.962   1.168   1.573  0.1671 -0.3959 -1.3234
 4995SOL     OW16530   5.283   6.156   2.929  0.0678 -0.2228 -0.6263
 4995SOL    HW116531   5.226   6.124   2.998  0.1185  2.4920  0.8080
 4995SOL    HW216532   5.244   6.122   2.848 -0.9424 -2.1098  0.5755
 4996SOL     OW16533   5.271   4.887   2.153 -0.3253 -0.4223 -0.3354
 4996SOL    HW116534   5.320   4.812   2.119 -1.3024 -0.1722 -2.5075
 4996SOL    HW216535   5.228   4.855   2.232  0.8604 -1.5248 -0.1001
 4997SOL     OW16536   0.254   1.316   5.879 -0.4115 -0.1136  0.1085
 4997SOL    HW116537   0.294   1.400   5.860 -1.2122  0.4241  0.7403
 4997SOL    HW216538   0.166   1.337   5.908 -0.1840 -1.0754  1.6049
 4998SOL     OW16539   3.811   3.123   1.191  0.0424  0.2338 -0.3359
 4998SOL    HW116540   3.855   3.078   1.263  3.4141  2.1559 -0.9944
 4998SOL    HW216541   3.860   3.097   1.113  1.5024  3.9829 -0.8753
 4999SOL     OW16542   4.772   0.715   2.494  1.0205  0.3051 -0.0912
 4999SOL    HW116543   4.785   0.700   2.588  1.2127  1.8889  0.1604
 4999SOL    HW216544   4.773   0.810   2.485 -0.7926  0.2246 -1.4640
 5000SOL     OW16545   5.124   3.333   2.380  0.4187 -0.0356 -0.4454
 5000SOL    HW116546   5.202   3.376   2.415  0.6205  0.4853 -1.4928
 5000SOL    HW216547   5.051   3.372   2.429  0.6113  1.4177 -1.2692
 5001SOL     OW16548   5.505   2.433   1.875  0.0594  0.1749  0.0674
 5001SOL    HW116549   5.443   2.360   1.884 -0.8068  1.0743  1.9817
 5001SOL    HW216550   5.485   2.471   1.790 -0.2289 -1.1356 -0.4821
 5002SOL     OW16551   2.214   4.263   2.071  0.0648  0.0244  0.2915
 5002SOL    HW116552   2.252   4.221   2.148  1.3791  0.4060 -0.1403
 5002SOL    HW216553   2.168   4.192   2.026 -2.2132  0.0996  2.2651
 5003SOL     OW16554   1.669   4.126   4.574  0.1450  0.2020 -0.9141
 5003SOL    HW116555   1.671   4.057   4.640 -2.7866  0.4488 -0.4434
 5003SOL    HW216556   1.716   4.090   4.499  0.9085 -1.2554  0.2329
 5004SOL     OW16557   0.800   4.358   6.709  0.3143  0.6062 -0.0734
 5004SOL    HW116558   0.725   4.395   6.662 -0.0510 -1.4283 -1.2380
 5004SOL    HW216559   0.805   4.408   6.790 -1.0883  2.0815 -0.8340
 5005SOL     OW16560   3.414   0.231   5.293  0.4437 -0.1932  0.4516
 5005SOL    HW116561   3.465   0.288   5.350  0.9261 -0.9274  0.7791
 5005SOL    HW216562   3.391   0.156   5.348  2.9364 -2.0958 -0.8301
 5006SOL     OW16563   2.824   5.048   1.275 -0.6391  0.4161 -0.3548
 5006SOL    HW116564   2.763   5.022   1.344 -2.7742 -1.1389 -2.6552
 5006SOL    HW216565   2.855   5.135   1.301  1.5340 -1.4597  4.3108
 5007SOL     OW16566   4.324   1.810   3.686  0.1340  0.4303 -0.2366
 5007SOL    HW116567   4.230   1.790   3.692  0.5595 -1.8415 -0.3112
 5007SOL    HW216568   4.336   1.886   3.743 -1.5819  0.1270  0.5913
 5008SOL     OW16569   6.307   0.778   0.898  0.1820 -0.6645  0.8168
 5008SOL    HW116570   6.226   0.758   0.944 -1.1553  0.2796 -1.0271
 5008SOL    HW216571   6.321   0.871   0.913  0.7403 -0.7423  0.8058
 5009SOL     OW16572   3.455   0.646   4.678 -0.3251 -0.2481 -0.4397
 5009SOL    HW116573   3.516   0.664   4.750  0.2121  0.0491 -0.9542
 5009SOL    HW216574   3.453   0.551   4.673  0.5590 -0.2623 -0.7825
 5010SOL     OW16575   1.487   2.094   6.449 -0.3556  0.1170  0.2042
 5010SOL    HW116576   1.481   2.146   6.529  2.1404 -1.6263  1.6351
 5010SOL    HW216577   1.445   2.011   6.471 -0.3413 -0.1138 -0.5981
 5011SOL     OW16578   2.683   0.537   0.008  0.4263  0.6997 -0.0395
 5011SOL    HW116579   2.685   0.627  -0.025 -0.7645  0.6767 -0.2265
 5011SOL    HW216580   2.767   0.500  -0.019 -0.4559  0.6733 -3.1262
 5012SOL     OW16581   4.419   6.671   4.829  0.4416 -0.0625 -0.0224
 5012SOL    HW116582   4.342   6.651   4.881  0.3137  0.1302 -0.1359
 5012SOL    HW216583   4.402   6.630   4.744 -0.3069  1.4104 -0.6208
 5013SOL     OW16584   1.568   0.450   0.437 -0.1003 -0.5164  0.6291
 5013SOL    HW116585   1.594   0.451   0.529  0.6754  0.4865  0.4216
 5013SOL    HW216586   1.544   0.540   0.418 -0.7959 -0.8290 -0.0092
 5014SOL     OW16587   3.738   0.414   5.096  0.2135 -0.0433  0.2227
 5014SOL    HW116588   3.659   0.432   5.147 -0.0809 -1.2071  0.2153
 5014SOL    HW216589   3.726   0.324   5.064  1.1132  0.0955 -0.5698
 5015SOL     OW16590   0.327   1.716   4.035 -0.8197 -0.0347  0.1627
 5015SOL    HW116591   0.282   1.711   3.951 -1.5941 -0.3563  0.5887
 5015SOL    HW216592   0.408   1.763   4.016 -1.5186  0.9224 -0.5314
 5016SOL     OW16593   0.454   4.749   1.633  0.0695 -0.3602 -0.5791
 5016SOL    HW116594   0.440   4.833   1.589 -0.7176  1.0649  2.1618
 5016SOL    HW216595   0.541   4.756   1.671  0.2638 -1.0726 -0.8827
 5017SOL     OW16596   2.265   5.140   4.803  0.5143  0.4446  0.1517
 5017SOL    HW116597   2.319   5.118   4.727  1.1962  1.5771  0.2908
 5017SOL    HW216598   2.299   5.224   4.834 -1.1085  1.0254  0.4697
 5018SOL     OW16599   2.384   1.052   4.165 -0.0611 -0.2183 -0.1966
 5018SOL    HW116600   2.468   1.007   4.170  1.0367  1.6541 -0.7984
 5018SOL    HW216601   2.379   1.086   4.076 -1.5558 -0.4182 -0.2284
 5019SOL     OW16602   2.013   0.187   4.179  0.1250 -0.1392 -0.0932
 5019SOL    HW116603   2.055   0.268   4.210  0.3168 -0.0630 -0.5488
 5019SOL    HW216604   1.950   0.165   4.248  0.4314  0.1191  0.2737
 5020SOL     OW16605   0.873   3.008   4.484  0.5342  0.0256 -0.3330
 5020SOL    HW116606   0.838   3.094   4.460 -1.2384 -0.1486  1.4782
 5020SOL    HW216607   0.964   3.026   4.510  0.0896  1.3976  0.3336
 5021SOL     OW16608   2.376   5.140   6.635 -0.5399  0.3209 -0.4346
 5021SOL    HW116609   2.292   5.175   6.667 -0.0823  1.8387 -0.7894
 5021SOL    HW216610   2.354   5.100   6.551 -1.2882 -1.3668  0.5139
 5022SOL     OW16611   0.016   2.839   3.078  0.1392 -0.2291 -0.1685
 5022SOL    HW116612  -0.013   2.923   3.113  0.8698 -0.3107  0.6763
 5022SOL    HW216613   0.002   2.846   2.984 -0.7643  0.4491  0.0094
 5023SOL     OW16614   5.260   0.690   0.106  0.2260 -0.0910 -0.5318
 5023SOL    HW116615   5.219   0.664   0.024  0.9554 -2.2510 -0.2854
 5023SOL    HW216616   5.205   0.650   0.174  0.3453  0.5939 -0.0193
 5024SOL     OW16617   3.009   2.247   3.448 -0.6707 -0.3300  0.6276
 5024SOL    HW116618   2.961   2.197   3.383 -1.2308  0.4537  0.4209
 5024SOL    HW216619   2.962   2.331   3.453  0.9813  0.6635  0.0409
 5025SOL     OW16620   6.282   5.944   4.192 -0.6217  0.3680 -0.3870
 5025SOL    HW116621   6.318   6.031   4.174 -1.2827  0.8591  0.6172
 5025SOL    HW216622   6.187   5.955   4.186 -0.7373 -0.1314  0.3721
 5026SOL     OW16623   1.422   0.325   3.812  0.1891  0.3367 -0.3690
 5026SOL    HW116624   1.404   0.350   3.721 -0.4825  1.5774  0.0877
 5026SOL    HW216625   1.517   0.338   3.821  0.9745 -3.0874 -1.8221
 5027SOL     OW16626   5.823   6.626   1.748 -0.0047 -0.3516  0.2650
 5027SOL    HW116627   5.764   6.563   1.789 -1.7688  0.5909 -0.6743
 5027SOL    HW216628   5.781   6.711   1.763  2.2547  0.6326  1.4266
 5028SOL     OW16629   6.001   4.645   2.142 -0.1840 -0.8316 -0.2060
 5028SOL    HW116630   5.955   4.702   2.203  1.9295  0.9790 -0.1774
 5028SOL    HW216631   5.979   4.556   2.171 -0.6008 -0.0364  2.1226
 5029SOL     OW16632   2.984   0.622   3.858 -0.0441 -0.3642 -0.2918
 5029SOL    HW116633   2.924   0.636   3.931 -1.0576  1.8700 -1.4564
 5029SOL    HW216634   2.995   0.709   3.819  1.9831 -1.1633 -1.6427
 5030SOL     OW16635   4.612   0.030   4.227 -0.2070  0.0426 -0.4769
 5030SOL    HW116636   4.565   0.103   4.186  0.6248  0.5823 -0.4927
 5030SOL    HW216637   4.565   0.014   4.309  0.7501  1.9139  0.4873
 5031SOL     OW16638   2.613   6.373   3.950 -0.0277  0.1958 -0.5222
 5031SOL    HW116639   2.650   6.285   3.942 -0.1848  0.1815 -1.1513
 5031SOL    HW216640   2.638   6.402   4.038  0.8409 -0.0981 -0.6623
 5032SOL     OW16641   6.126   4.906   2.515  0.0847 -0.1889  0.1256
 5032SOL    HW116642   6.083   4.820   2.513 -2.0239  0.8096 -0.8552
 5032SOL    HW216643   6.096   4.946   2.597  0.5115 -0.1284  0.2524
 5033SOL     OW16644   1.979   1.907   4.760 -0.0046  0.1084 -0.1511
 5033SOL    HW116645   2.025   1.991   4.757 -0.2899  0.3049  0.8176
 5033SOL    HW216646   1.979   1.877   4.669  0.4585  0.9575 -0.4426
 5034SOL     OW16647   4.300   0.109   4.760 -0.3256 -0.2574 -0.0901
 5034SOL    HW116648   4.324   0.119   4.853 -0.4552 -0.7355 -0.0039
 5034SOL    HW216649   4.334   0.024   4.735  0.0292  0.0263 -0.5894
 5035SOL     OW16650   1.222   0.926   0.475  0.2894  0.0104  0.1694
 5035SOL    HW116651   1.312   0.953   0.454  0.0229  3.2027  2.3878
 5035SOL    HW216652   1.224   0.907   0.569 -1.1526 -1.0656  0.0124
 5036SOL     OW16653   4.915   5.542   2.286 -0.1130 -0.8032  0.2840
 5036SOL    HW116654   4.930   5.576   2.198  0.5960  0.8385  1.0140
 5036SOL    HW216655   4.888   5.618   2.338 -0.0756 -1.6523  1.5998
 5037SOL     OW16656   5.929   5.550   2.567  0.4313 -0.1060 -0.4326
 5037SOL    HW116657   5.849   5.602   2.559 -0.4885 -0.8299  2.8300
 5037SOL    HW216658   5.935   5.503   2.484 -3.2510 -0.9643 -0.3690
 5038SOL     OW16659   5.965   1.717   2.074 -0.0841 -0.4193 -0.1170
 5038SOL    HW116660   6.046   1.756   2.108 -0.2129 -1.4696  1.5054
 5038SOL    HW216661   5.900   1.787   2.080  0.4002  0.0443 -0.2143
 5039SOL     OW16662   5.874   0.942   5.128  0.1430 -0.0797  0.1320
 5039SOL    HW116663   5.959   0.985   5.124  0.2495 -0.0833  1.7615
 5039SOL    HW216664   5.847   0.951   5.219 -1.2752 -0.7198 -0.1992
 5040SOL     OW16665   4.730   0.541   6.027 -0.7093 -0.0870  0.7651
 5040SOL    HW116666   4.790   0.501   5.964 -2.2185 -2.1362  0.5269
 5040SOL    HW216667   4.746   0.635   6.018  0.8642 -0.4368 -0.8711
 5041SOL     OW16668   2.460   2.773   5.472 -0.1024 -0.0227 -0.4657
 5041SOL    HW116669   2.391   2.763   5.407 -0.8019  0.7941  0.1316
 5041SOL    HW216670   2.513   2.847   5.440  1.5380 -1.6680 -1.7927
 5042SOL     OW16671   1.875   2.239   3.801  0.0397 -0.2592  0.0148
 5042SOL    HW116672   1.909   2.199   3.721  1.6488 -2.6037  1.7466
 5042SOL    HW216673   1.820   2.172   3.840  0.3863  0.3219  1.5493
 5043SOL     OW16674   3.836   6.288   1.639  0.2769 -0.6118  0.2259
 5043SOL    HW116675   3.791   6.272   1.722 -1.0201 -0.3911 -0.4048
 5043SOL    HW216676   3.766   6.291   1.574  1.1298  0.5717 -0.6914
 5044SOL     OW16677   6.031   6.023   4.211 -0.9561 -0.6604  0.2050
 5044SOL    HW116678   6.009   6.117   4.210  0.0312 -0.3257  2.7926
 5044SOL    HW216679   5.954   5.981   4.247 -0.8333 -0.6533  0.4754
 5045SOL     OW16680   2.886   6.305   3.449 -0.3036  0.0029 -0.0046
 5045SOL    HW116681   2.861   6.216   3.425  2.2362 -1.2141  1.4352
 5045SOL    HW216682   2.959   6.326   3.390 -0.5441  0.9471  0.0160
 5046SOL     OW16683   2.093   2.965   1.775  0.1002 -0.3368 -0.1225
 5046SOL    HW116684   2.098   2.953   1.680  1.9298 -0.5218 -0.0267
 5046SOL    HW216685   2.151   2.899   1.811  0.3656  0.5147  1.0592
 5047SOL     OW16686   2.045   0.236   4.713 -0.2238 -0.0225  0.5753
 5047SOL    HW116687   1.957   0.234   4.752 -0.9890 -0.9719 -1.0504
 5047SOL    HW216688   2.077   0.324   4.729 -3.0546  1.6479 -1.9535
 5048SOL     OW16689   1.817   3.707   4.743 -0.4089  0.0873 -0.2867
 5048SOL    HW116690   1.762   3.772   4.700 -0.6682 -0.2705 -0.4956
 5048SOL    HW216691   1.764   3.628   4.746  0.1884 -0.3341 -0.7257
 5049SOL     OW16692   1.208   4.466   5.831 -0.5665  0.3719 -0.3888
 5049SOL    HW116693   1.176   4.376   5.838  1.4819 -0.4883 -1.2078
 5049SOL    HW216694   1.213   4.497   5.922  0.9361 -1.2341  0.1316
 5050SOL     OW16695   1.074   5.382   1.077  0.2937 -0.2256  0.2931
 5050SOL    HW116696   1.164   5.401   1.103  0.3840  2.3554 -1.4436
 5050SOL    HW216697   1.021   5.435   1.136  0.1127  0.2752 -0.3002
 5051SOL     OW16698   1.131   5.983   5.655  0.2396 -0.3422  0.1725
 5051SOL    HW116699   1.202   6.034   5.692 -1.5268  1.4873  1.2536
 5051SOL    HW216700   1.083   5.950   5.732 -1.6643  0.8687 -0.4183
 5052SOL     OW16701   6.020   4.425   5.124 -0.1798 -0.0111 -0.1777
 5052SOL    HW116702   6.040   4.487   5.054 -1.1445 -0.0408 -0.4887
 5052SOL    HW216703   6.072   4.455   5.199 -2.4981  2.7040  0.4841
 5053SOL     OW16704   6.729   3.482   2.115  0.4501  0.3967 -0.1476
 5053SOL    HW116705   6.745   3.462   2.023  0.2531  1.0338 -0.3242
 5053SOL    HW216706   6.756   3.573   2.125 -2.0128  1.2143 -0.2118
 5054SOL     OW16707   4.376   3.627   0.965  0.4724  0.0168  0.0549
 5054SOL    HW116708   4.432   3.626   1.043  2.2776  1.2342 -1.1684
 5054SOL    HW216709   4.362   3.720   0.947 -1.3878 -0.2546 -0.1015
 5055SOL     OW16710   2.756   4.726   5.514 -0.2189  0.4285 -0.9526
 5055SOL    HW116711   2.787   4.735   5.604 -2.0058  0.5417 -0.3046
 5055SOL    HW216712   2.764   4.633   5.495 -0.9956  0.1977 -0.2119
 5056SOL     OW16713   6.201   3.807   2.145 -0.4930  0.2930 -0.0594
 5056SOL    HW116714   6.292   3.802   2.176 -0.7938 -2.6069  0.7007
 5056SOL    HW216715   6.208   3.792   2.050 -0.1730 -0.7031  0.1010
 5057SOL     OW16716   4.682   1.740   0.326 -0.8428  0.1844  0.4020
 5057SOL    HW116717   4.588   1.748   0.343 -0.9586  2.9095 -0.9191
 5057SOL    HW216718   4.720   1.718   0.411 -2.4919  1.1351  1.4469
 5058SOL     OW16719   3.053   2.221   6.501 -0.1343  0.4132 -0.5130
 5058SOL    HW116720   3.000   2.301   6.503  0.0859  0.5661 -0.7870
 5058SOL    HW216721   3.116   2.232   6.572  1.2098  1.3961 -1.7830
 5059SOL     OW16722   2.824   5.428   0.273 -0.5419 -0.1938 -0.4198
 5059SOL    HW116723   2.812   5.503   0.332 -1.1853 -1.1352  0.6807
 5059SOL    HW216724   2.916   5.432   0.249  0.0461 -0.4421  1.6036
 5060SOL     OW16725   3.643   1.930   3.076 -0.5055  0.0277  0.4460
 5060SOL    HW116726   3.679   2.014   3.107  0.3074 -0.7070  1.5636
 5060SOL    HW216727   3.699   1.864   3.116 -0.2332 -1.0539 -1.5904
 5061SOL     OW16728   3.166   3.705   4.732 -0.0202  0.9433  0.1763
 5061SOL    HW116729   3.185   3.796   4.711  0.0736  0.4863 -2.0481
 5061SOL    HW216730   3.082   3.688   4.689  0.2290 -0.1505  0.0933
 5062SOL     OW16731   3.979   6.096   0.403 -0.0924 -0.4905  0.2570
 5062SOL    HW116732   4.024   6.181   0.398 -0.2953 -0.3684  0.4346
 5062SOL    HW216733   3.886   6.118   0.394 -0.0303 -0.8994 -1.7042
 5063SOL     OW16734   4.709   6.303   6.163 -0.1964 -0.3410 -0.5186
 5063SOL    HW116735   4.795   6.325   6.198 -0.9590  0.8747  0.7135
 5063SOL    HW216736   4.698   6.359   6.087 -0.9397  1.5550  0.9022
 5064SOL     OW16737   6.296   4.917   6.379 -0.1982 -0.4271  0.0990
 5064SOL    HW116738   6.271   4.829   6.409 -3.3481  0.4855  0.4872
 5064SOL    HW216739   6.310   4.967   6.460  0.9824 -0.3717 -0.1197
 5065SOL     OW16740   6.774   3.307   0.589  0.5621  0.0643  0.4165
 5065SOL    HW116741   6.701   3.309   0.651 -1.8345  1.3550 -2.2045
 5065SOL    HW216742   6.834   3.241   0.624 -1.7841 -0.9859  2.7955
 5066SOL     OW16743   5.277   5.806   4.664  0.0906 -0.3382  0.1257
 5066SOL    HW116744   5.232   5.816   4.747  0.3940 -0.7673  0.3473
 5066SOL    HW216745   5.368   5.831   4.682  0.1230 -0.2788 -0.1118
 5067SOL     OW16746   3.581   6.008   0.067  0.1118 -0.0178  0.0424
 5067SOL    HW116747   3.595   5.999  -0.027 -0.1186 -0.8931  0.0825
 5067SOL    HW216748   3.597   5.921   0.103 -1.4015 -0.1187  0.5882
 5068SOL     OW16749   3.149   4.284   3.126 -0.5073  0.2653 -0.5509
 5068SOL    HW116750   3.154   4.245   3.213 -0.5985  0.0925 -0.6240
 5068SOL    HW216751   3.134   4.211   3.067 -0.4947  0.3879 -0.7083
 5069SOL     OW16752   3.149   1.179   2.711 -0.2689  0.1299 -0.0901
 5069SOL    HW116753   3.139   1.120   2.786 -1.6589  2.1048  1.3816
 5069SOL    HW216754   3.062   1.216   2.698  0.1800  0.6012 -2.0606
 5070SOL     OW16755   6.441   4.160   0.665 -0.3965  0.4591 -0.1542
 5070SOL    HW116756   6.385   4.180   0.591  0.0102  0.4847 -0.4602
 5070SOL    HW216757   6.480   4.075   0.644  0.3567  0.8446 -0.3640
 5071SOL     OW16758   6.484   1.783   0.038 -0.0285 -0.4990  0.0102
 5071SOL    HW116759   6.429   1.846  -0.009 -0.0726 -0.3006  0.3259
 5071SOL    HW216760   6.428   1.707   0.050  0.3716 -1.0490 -1.3637
 5072SOL     OW16761   2.449   3.050   5.935  0.3753  0.0972  0.4558
 5072SOL    HW116762   2.445   2.975   5.994 -1.3314 -1.0476 -1.0322
 5072SOL    HW216763   2.447   3.012   5.847 -1.0784  1.8957 -0.3413
 5073SOL     OW16764   5.508   3.330   4.096  0.2942  0.4242  0.5247
 5073SOL    HW116765   5.457   3.336   4.177  0.6695 -2.0088  1.0287
 5073SOL    HW216766   5.448   3.288   4.034  0.1541  1.8814 -0.3567
 5074SOL     OW16767   3.536   2.298   2.791 -0.8525  0.2480  0.1537
 5074SOL    HW116768   3.597   2.225   2.775 -1.9301 -1.2656  2.3747
 5074SOL    HW216769   3.590   2.365   2.833 -0.2997 -0.2860  0.3234
 5075SOL     OW16770   3.556   2.506   3.689 -0.7181  0.1601  0.2187
 5075SOL    HW116771   3.589   2.530   3.602 -1.7600  0.9011  0.0076
 5075SOL    HW216772   3.609   2.556   3.750 -0.6093  0.3705 -0.0468
 5076SOL     OW16773   0.192   6.125   4.799  0.4454  0.1039 -0.5060
 5076SOL    HW116774   0.230   6.085   4.878  1.8271  1.3905 -0.4679
 5076SOL    HW216775   0.207   6.219   4.811  0.2979  0.3585 -2.1044
 5077SOL     OW16776   0.479   5.948   1.465 -0.2479  0.0934 -0.3602
 5077SOL    HW116777   0.438   5.864   1.484  0.9926 -0.9769 -2.0416
 5077SOL    HW216778   0.447   5.972   1.378  0.5212  0.6166 -0.5168
 5078SOL     OW16779   4.282   6.628   4.102 -0.4598  0.1622  0.0911
 5078SOL    HW116780   4.283   6.600   4.010  0.8326  1.8897 -0.4807
 5078SOL    HW216781   4.286   6.724   4.097 -0.4114  0.2811  1.9602
 5079SOL     OW16782   4.981   4.671   0.498 -0.0991  0.4043 -0.0077
 5079SOL    HW116783   4.928   4.595   0.522  2.4223 -0.7408  2.4981
 5079SOL    HW216784   4.999   4.660   0.405 -1.0538 -1.2411 -0.0333
 5080SOL     OW16785   1.557   5.060   2.573  0.1158  0.4526  0.3430
 5080SOL    HW116786   1.501   4.997   2.619 -1.0597  2.0483  1.1872
 5080SOL    HW216787   1.637   5.011   2.556 -0.8672 -1.3805  0.6543
 5081SOL     OW16788   5.797   4.100   6.756 -0.0650  0.0330 -0.2366
 5081SOL    HW116789   5.758   4.183   6.785 -1.2204 -0.6797  0.3083
 5081SOL    HW216790   5.869   4.085   6.818  1.6275  1.6889 -1.6488
 5082SOL     OW16791   0.792   1.939   3.353 -0.0270  0.6096 -0.6484
 5082SOL    HW116792   0.826   1.906   3.437 -1.2313  1.5200  0.2275
 5082SOL    HW216793   0.727   1.875   3.326  0.7102  0.0611 -1.1532
 5083SOL     OW16794   0.120   1.823   3.446 -0.3772 -0.4619 -0.2850
 5083SOL    HW116795   0.078   1.878   3.512 -1.1188  0.7635 -1.7149
 5083SOL    HW216796   0.048   1.779   3.402  0.2087 -3.0124  1.0860
 5084SOL     OW16797   3.067   6.399   3.047 -0.3145  0.0829  0.0612
 5084SOL    HW116798   3.094   6.413   3.138 -0.5998  0.4290  0.0957
 5084SOL    HW216799   3.078   6.305   3.033 -1.7665 -0.2469  0.9559
 5085SOL     OW16800   0.606   0.539   5.774 -0.4902 -0.2175  0.2169
 5085SOL    HW116801   0.631   0.621   5.817 -1.2130  0.8201 -1.2106
 5085SOL    HW216802   0.522   0.517   5.813  0.0730 -0.7287  1.1666
 5086SOL     OW16803   1.206   0.841   5.620  0.1718  0.3958 -0.0473
 5086SOL    HW116804   1.174   0.838   5.529  0.7781  0.0358 -0.2596
 5086SOL    HW216805   1.212   0.749   5.646  0.6040  0.4723  0.1366
 5087SOL     OW16806   2.264   2.706   6.269  0.0664 -0.4696  0.0755
 5087SOL    HW116807   2.197   2.757   6.315 -0.1338 -0.3845 -0.3094
 5087SOL    HW216808   2.340   2.710   6.327  0.1241  0.4531 -0.0461
 5088SOL     OW16809   3.111   0.094   0.521  0.4846 -0.4224 -0.5460
 5088SOL    HW116810   3.021   0.082   0.490  0.3010 -0.7752  0.1010
 5088SOL    HW216811   3.124   0.023   0.584  0.9395  0.1144 -0.0244
 5089SOL     OW16812   3.869   6.635   5.139  0.3111 -0.1416 -0.2594
 5089SOL    HW116813   3.930   6.708   5.138 -0.1192  0.2335 -1.4450
 5089SOL    HW216814   3.783   6.676   5.143  0.0637 -0.6772  3.0455
 5090SOL     OW16815   3.757   4.246   5.444  0.4814  0.2468  0.4459
 5090SOL    HW116816   3.806   4.235   5.526 -1.3258  1.2653  1.7662
 5090SOL    HW216817   3.756   4.159   5.405  0.2481 -0.6232  2.2444
 5091SOL     OW16818   1.695   4.311   3.565 -0.6082  0.2479 -0.2204
 5091SOL    HW116819   1.629   4.254   3.604 -0.1078 -0.0013  0.2903
 5091SOL    HW216820   1.719   4.267   3.483 -0.6732  0.0480 -0.1346
 5092SOL     OW16821   6.137   5.257   0.329  0.3083 -0.1726 -0.5165
 5092SOL    HW116822   6.082   5.185   0.361 -0.2663  0.3996 -0.1972
 5092SOL    HW216823   6.110   5.270   0.238  2.0498 -1.9048 -1.3470
 5093SOL     OW16824   3.950   4.922   3.389  0.1371 -0.1892 -0.2619
 5093SOL    HW116825   3.898   4.919   3.308  1.9260  3.3931 -1.7633
 5093SOL    HW216826   4.004   4.843   3.386 -1.5919 -1.3965 -1.2241
 5094SOL     OW16827   6.519   3.393   6.761 -0.3004  0.4171 -0.0121
 5094SOL    HW116828   6.534   3.420   6.851 -0.0365  0.9504 -0.2137
 5094SOL    HW216829   6.571   3.313   6.751  0.1548  0.6917  0.1288
 5095SOL     OW16830   4.549   0.491   5.749 -0.0304 -1.1888 -0.3561
 5095SOL    HW116831   4.596   0.424   5.699 -2.0150 -2.9664  0.0074
 5095SOL    HW216832   4.549   0.458   5.839 -0.4352 -0.3307 -0.0339
 5096SOL     OW16833   4.667   3.153   1.069  0.1689  0.2605 -0.4748
 5096SOL    HW116834   4.633   3.155   0.980 -0.8031 -2.1907 -0.2548
 5096SOL    HW216835   4.742   3.094   1.065 -1.7573 -2.5261  0.7495
 5097SOL     OW16836   2.617   1.043   2.048  0.4488 -0.3243  0.1552
 5097SOL    HW116837   2.569   1.125   2.033 -0.0113  0.0519  3.1183
 5097SOL    HW216838   2.707   1.063   2.020 -0.0157  0.5833 -0.8034
 5098SOL     OW16839   4.145   5.198   4.857 -0.1288 -0.7504  0.1336
 5098SOL    HW116840   4.196   5.264   4.904 -1.6616 -0.1844  1.0989
 5098SOL    HW216841   4.133   5.127   4.920 -0.5170 -0.8741 -0.0734
 5099SOL     OW16842   6.513   1.193   4.827  0.4372 -0.2018 -0.5464
 5099SOL    HW116843   6.481   1.221   4.913  2.5200  1.3750 -0.2041
 5099SOL    HW216844   6.476   1.257   4.765  0.1556 -0.4270 -0.6087
 5100SOL     OW16845   3.049   2.488   4.729 -0.1352 -0.1265 -0.6069
 5100SOL    HW116846   3.019   2.443   4.651  0.4512 -0.2400 -0.7707
 5100SOL    HW216847   2.996   2.451   4.800 -1.5849  0.8906 -1.1016
 5101SOL     OW16848   2.180   5.243   1.216 -0.6420 -0.1279 -0.2442
 5101SOL    HW116849   2.258   5.290   1.188 -0.4439  0.2384  0.8801
 5101SOL    HW216850   2.194   5.226   1.309 -0.7859 -2.2629 -0.5642
 5102SOL     OW16851   1.730   6.207   0.759  0.9173 -0.5234 -0.3320
 5102SOL    HW116852   1.706   6.292   0.721 -0.6920  0.0183  1.7343
 5102SOL    HW216853   1.669   6.145   0.719  1.8850 -0.7069 -1.6004
 5103SOL     OW16854   6.079   5.949   1.805  0.0378 -0.3889  0.0333
 5103SOL    HW116855   6.038   6.031   1.833  0.2031  0.1733 -1.2892
 5103SOL    HW216856   6.036   5.928   1.722  1.1494 -0.7374 -0.4787
 5104SOL     OW16857   3.074   0.257   4.740  0.5161 -0.1769 -0.0677
 5104SOL    HW116858   3.089   0.351   4.747  0.0565 -0.1067 -0.0034
 5104SOL    HW216859   3.150   0.224   4.691  1.6444 -0.0662  1.5349
 5105SOL     OW16860   1.165   5.841   2.424 -0.3558  0.0261 -0.5029
 5105SOL    HW116861   1.175   5.935   2.434 -0.4223 -0.1807  2.3730
 5105SOL    HW216862   1.254   5.806   2.433 -0.3943 -0.2316 -1.0742
 5106SOL     OW16863   5.653   1.612   2.302 -0.2297  0.1666 -0.6559
 5106SOL    HW116864   5.666   1.670   2.228 -0.6213 -1.1925 -1.8310
 5106SOL    HW216865   5.560   1.623   2.325  0.0107  0.9530 -0.0332
 5107SOL     OW16866   5.656   0.469   6.064 -0.0189 -0.0395  0.2714
 5107SOL    HW116867   5.745   0.434   6.053  0.0412  0.2607 -0.1963
 5107SOL    HW216868   5.666   0.539   6.129 -0.0442 -0.5014  0.7844
 5108SOL     OW16869   1.233   5.510   0.813 -0.0751 -0.4944  0.1840
 5108SOL    HW116870   1.226   5.528   0.907 -0.0316  2.0135 -0.2350
 5108SOL    HW216871   1.206   5.418   0.804 -1.2903 -0.4290  2.4795
 5109SOL     OW16872   3.917   3.155   4.695  0.0266  0.1117  0.5596
 5109SOL    HW116873   3.873   3.158   4.780 -0.4185 -0.8248  0.3771
 5109SOL    HW216874   3.926   3.062   4.676  1.4087  0.2933  0.2262
 5110SOL     OW16875   3.069   4.256   4.241 -0.1994 -0.0335 -0.3933
 5110SOL    HW116876   3.092   4.343   4.272 -1.5619 -0.0044  0.6572
 5110SOL    HW216877   3.050   4.268   4.148 -2.1409  1.2081  0.0962
 5111SOL     OW16878   2.198   5.511   1.863  0.1012 -0.3562 -0.0090
 5111SOL    HW116879   2.166   5.601   1.868 -1.2207 -0.8621  1.6294
 5111SOL    HW216880   2.269   5.515   1.799 -1.4275  1.3712 -1.7451
 5112SOL     OW16881   0.141   6.148   1.862 -0.2140  1.0335  0.5108
 5112SOL    HW116882   0.234   6.124   1.864 -0.4505  0.1150  1.0250
 5112SOL    HW216883   0.102   6.099   1.934 -1.4465 -0.1024 -0.8659
 5113SOL     OW16884   3.861   1.853   2.751  0.1606 -0.1206  0.6078
 5113SOL    HW116885   3.911   1.777   2.780 -0.9099 -1.0578  0.1003
 5113SOL    HW216886   3.867   1.850   2.655  2.1343  1.8784  0.5970
 5114SOL     OW16887   3.249   3.386   1.133  0.6527  0.2166  0.3192
 5114SOL    HW116888   3.201   3.329   1.193 -0.8401  2.0499  0.9538
 5114SOL    HW216889   3.204   3.376   1.049 -0.5532  1.5064  0.7796
 5115SOL     OW16890   5.788   2.956   2.309 -0.4255 -0.2380  0.2466
 5115SOL    HW116891   5.834   3.040   2.297 -0.3184 -0.3104  0.1332
 5115SOL    HW216892   5.828   2.898   2.243  0.0722 -0.6121  0.8661
 5116SOL     OW16893   2.230   4.134   2.316  0.0366 -0.0538 -0.4787
 5116SOL    HW116894   2.220   4.182   2.398  0.2040  1.6448 -1.4059
 5116SOL    HW216895   2.277   4.055   2.340  0.1341  0.4362  1.0492
 5117SOL     OW16896   5.656   2.498   4.129  0.6473  0.2052 -0.1440
 5117SOL    HW116897   5.616   2.581   4.153 -1.8693 -0.3329 -2.0125
 5117SOL    HW216898   5.658   2.498   4.033  1.6457 -1.4327 -0.1710
 5118SOL     OW16899   1.845   3.359   1.532  0.0854 -0.8729  0.6249
 5118SOL    HW116900   1.886   3.367   1.445  0.3450 -1.8590  0.6515
 5118SOL    HW216901   1.751   3.364   1.515  0.1557  0.1167  0.4254
 5119SOL     OW16902   5.747   5.245   1.492  0.1038  0.5197  0.3431
 5119SOL    HW116903   5.694   5.293   1.428  1.1330  0.9271 -0.2339
 5119SOL    HW216904   5.762   5.160   1.452 -0.4358  0.2588  0.6844
 5120SOL     OW16905   0.609   0.117   2.116 -0.2820  0.5653  0.2797
 5120SOL    HW116906   0.529   0.068   2.098  1.1239 -1.1096 -1.9046
 5120SOL    HW216907   0.584   0.209   2.102 -1.9576  0.1670  0.3777
 5121SOL     OW16908   2.110   3.322   3.281  0.0371 -0.5255  0.4107
 5121SOL    HW116909   2.198   3.356   3.299  0.9525 -1.4423 -2.0236
 5121SOL    HW216910   2.123   3.230   3.260 -1.3864 -0.4959 -0.7607
 5122SOL     OW16911   4.213   2.400   5.891  0.9223 -0.1387  0.1454
 5122SOL    HW116912   4.125   2.428   5.918  1.0037  0.0571  0.2121
 5122SOL    HW216913   4.209   2.304   5.892  0.7707 -0.1329  0.3523
 5123SOL     OW16914   0.078   2.494   5.245 -0.5608 -0.6199  0.4726
 5123SOL    HW116915   0.109   2.582   5.266 -1.2986 -0.4208  0.7830
 5123SOL    HW216916   0.149   2.454   5.196  1.1729 -1.0027  3.0778
 5124SOL     OW16917   5.667   2.900   0.185  0.2061  0.0968 -0.3379
 5124SOL    HW116918   5.696   2.811   0.167  0.0791 -0.0242  0.0593
 5124SOL    HW216919   5.572   2.898   0.172  0.3844  0.5726 -1.9732
 5125SOL     OW16920   4.155   1.172   2.324 -0.2812  0.3314  0.3334
 5125SOL    HW116921   4.167   1.224   2.245 -2.1459  1.7056  0.8838
 5125SOL    HW216922   4.183   1.084   2.299 -2.6532  0.2326 -2.5065
 5126SOL     OW16923   2.192   4.675   0.217 -0.0043 -0.4064 -0.3964
 5126SOL    HW116924   2.169   4.759   0.256  2.9323  1.4130 -2.1335
 5126SOL    HW216925   2.236   4.627   0.287 -0.0007  0.3214  0.1102
 5127SOL     OW16926   3.632   4.515   0.921  0.5400  0.0003 -0.0834
 5127SOL    HW116927   3.546   4.556   0.912 -0.4809 -2.3868 -2.4972
 5127SOL    HW216928   3.619   4.446   0.986  0.2726 -1.0907 -1.2625
 5128SOL     OW16929   2.858   2.148   2.456 -0.3612 -0.1495 -0.0960
 5128SOL    HW116930   2.820   2.096   2.528 -1.1975  1.7192  0.8663
 5128SOL    HW216931   2.791   2.147   2.388 -1.0787  0.9797  0.5701
 5129SOL     OW16932   0.880   3.403   3.162  0.6719 -0.4718  0.1135
 5129SOL    HW116933   0.802   3.392   3.217  0.9002 -2.5575  0.0930
 5129SOL    HW216934   0.946   3.346   3.202  1.7409  0.1408 -0.7145
 5130SOL     OW16935   1.880   0.663   4.921 -0.1141  0.2713  0.6427
 5130SOL    HW116936   1.824   0.602   4.874 -1.4998  2.2785 -0.4940
 5130SOL    HW216937   1.969   0.641   4.893 -0.4903 -1.6323  0.8406
 5131SOL     OW16938   2.913   0.812   0.007  0.0049 -0.1176  0.8410
 5131SOL    HW116939   2.911   0.799   0.101 -0.6098 -1.8472  0.6318
 5131SOL    HW216940   2.822   0.827  -0.017  0.3259  1.8087  0.6616
 5132SOL     OW16941   3.405   0.000   0.408 -0.0378 -0.5479 -0.4985
 5132SOL    HW116942   3.480   0.059   0.401 -0.2276 -0.1735  0.5678
 5132SOL    HW216943   3.330   0.054   0.382  0.0898 -1.0794 -2.1474
 5133SOL     OW16944   3.359   6.519   5.650  0.3866  0.6684  0.2012
 5133SOL    HW116945   3.351   6.613   5.636 -0.1424  0.3667 -1.9625
 5133SOL    HW216946   3.385   6.510   5.741  0.0574  2.8850  0.5685
 5134SOL     OW16947   3.104   3.361   4.736 -0.6712 -0.0525  0.0120
 5134SOL    HW116948   3.105   3.374   4.831 -0.1623  0.9236 -0.1085
 5134SOL    HW216949   3.044   3.428   4.703  0.1563  0.4765 -0.4519
 5135SOL     OW16950   5.698   6.060   1.493  0.6902 -0.6884  0.4702
 5135SOL    HW116951   5.713   6.118   1.418  1.7201  1.0644  1.9746
 5135SOL    HW216952   5.637   5.994   1.459 -0.2539  1.0298 -1.4212
 5136SOL     OW16953   0.351   0.599   5.947 -0.1101 -0.0252 -0.0685
 5136SOL    HW116954   0.319   0.660   5.880  0.3649 -0.9697 -1.1969
 5136SOL    HW216955   0.341   0.647   6.029 -2.0962  0.6160 -0.6307
 5137SOL     OW16956   2.068   0.500   3.894 -0.2128  0.0246  0.2977
 5137SOL    HW116957   2.023   0.482   3.977 -0.4960 -1.5289 -0.1582
 5137SOL    HW216958   2.150   0.541   3.920  0.2209 -1.4723  1.4566
 5138SOL     OW16959   3.172   1.911   0.272  0.0063 -0.0219 -0.3760
 5138SOL    HW116960   3.131   1.988   0.233 -0.2302  0.0579  0.0193
 5138SOL    HW216961   3.177   1.847   0.201 -2.7999 -0.8391  0.0282
 5139SOL     OW16962   4.835   0.107   0.217  0.3875  0.4730 -0.5219
 5139SOL    HW116963   4.789   0.125   0.299 -0.0330  2.8656 -1.1935
 5139SOL    HW216964   4.927   0.097   0.243 -0.0120 -0.9109  0.4486
 5140SOL     OW16965   6.698   2.342   1.372 -0.0340  0.2399  0.2567
 5140SOL    HW116966   6.761   2.378   1.434  0.8386  0.5541 -0.7789
 5140SOL    HW216967   6.689   2.250   1.397 -0.6597  0.6438  1.6075
 5141SOL     OW16968   6.593   3.765   3.888 -0.0005  0.8727  0.0671
 5141SOL    HW116969   6.502   3.761   3.919  0.1116  1.5745  0.5228
 5141SOL    HW216970   6.600   3.694   3.825 -1.1658  1.4390 -0.7425
 5142SOL     OW16971   5.423   1.665   1.885  0.0897 -0.6142  0.2162
 5142SOL    HW116972   5.375   1.665   1.802 -0.0292 -1.6417  0.2757
 5142SOL    HW216973   5.512   1.641   1.861  0.5118  0.8683  0.1651
 5143SOL     OW16974   4.251   0.909   4.274  0.1772 -0.4673  0.4037
 5143SOL    HW116975   4.190   0.855   4.223  1.5738 -1.0248 -0.7540
 5143SOL    HW216976   4.298   0.846   4.329  2.2213 -0.6350 -1.3678
 5144SOL     OW16977   3.850   5.423   0.843 -0.1815  0.6363 -0.2051
 5144SOL    HW116978   3.873   5.343   0.795  0.0439 -0.5032  1.7209
 5144SOL    HW216979   3.928   5.443   0.895 -0.8266  1.1503  0.5913
 5145SOL     OW16980   4.802   2.510   5.789  0.1368  0.5772 -0.4467
 5145SOL    HW116981   4.719   2.471   5.761  0.3119 -1.0350  1.0928
 5145SOL    HW216982   4.847   2.439   5.836  1.5634  1.9581  0.3680
 5146SOL     OW16983   1.087   6.117   2.531 -0.2825  0.6997 -0.6071
 5146SOL    HW116984   1.050   6.134   2.444  0.2040  2.4716 -0.4918
 5146SOL    HW216985   1.018   6.140   2.592 -1.4175 -2.5162 -0.4582
 5147SOL     OW16986   6.162   4.090   2.482  0.0693 -0.2427  0.1588
 5147SOL    HW116987   6.200   4.068   2.397  0.7331 -0.0204  0.3938
 5147SOL    HW216988   6.167   4.185   2.488  0.2599 -0.2735  0.5501
 5148SOL     OW16989   0.710   1.123   1.224  0.2731 -0.2791 -0.5877
 5148SOL    HW116990   0.705   1.090   1.314 -1.5412  0.8568 -0.2236
 5148SOL    HW216991   0.636   1.084   1.179  0.1239  0.5590 -1.0921
 5149SOL     OW16992   5.595   2.773   5.638 -0.4437 -0.0030 -0.4726
 5149SOL    HW116993   5.522   2.729   5.682 -1.1515  0.7276 -0.8912
 5149SOL    HW216994   5.670   2.715   5.652 -1.3110 -1.2729 -0.8774
 5150SOL     OW16995   5.642   5.074   2.499 -0.0743  0.1690  0.0798
 5150SOL    HW116996   5.634   5.027   2.582  1.9148 -0.5990 -0.1007
 5150SOL    HW216997   5.615   5.009   2.433 -1.7101  0.7964  0.0706
 5151SOL     OW16998   0.996   3.179   6.176 -0.3611 -0.3510 -0.5054
 5151SOL    HW116999   1.047   3.103   6.147 -0.9663 -1.7935  1.8600
 5151SOL    HW217000   1.051   3.218   6.244 -0.8405  0.2634 -0.4713
 5152SOL     OW17001   3.961   3.301   0.791  0.1027  0.1488 -0.0626
 5152SOL    HW117002   4.027   3.313   0.723 -0.2451  0.5226 -0.3390
 5152SOL    HW217003   3.928   3.389   0.808 -1.6373 -0.2137 -1.2601
 5153SOL     OW17004   6.368   4.739   3.644  0.4375 -0.3721 -0.6804
 5153SOL    HW117005   6.278   4.719   3.668  0.8980 -0.8818  0.7373
 5153SOL    HW217006   6.362   4.777   3.557 -1.1139 -0.6721 -0.7297
 5154SOL     OW17007   6.304   1.311   0.765 -0.1527 -0.1902 -0.5191
 5154SOL    HW117008   6.243   1.351   0.703  0.1053  1.4959  0.2697
 5154SOL    HW217009   6.387   1.306   0.718 -0.4192 -0.7239 -0.9473
 5155SOL     OW17010   5.691   2.678   3.195 -0.1855  0.7230 -0.1154
 5155SOL    HW117011   5.746   2.730   3.136  0.5614  0.8775  0.6863
 5155SOL    HW217012   5.601   2.697   3.168  0.1190  1.3878 -0.6920
 5156SOL     OW17013   2.923   3.014   2.454  0.3079  0.0692 -0.1419
 5156SOL    HW117014   2.989   3.051   2.395 -0.9320 -0.5742 -1.9909
 5156SOL    HW217015   2.849   2.992   2.398 -1.2316  0.0837  1.7668
 5157SOL     OW17016   5.706   1.726   2.548 -0.1299  0.2476  0.0457
 5157SOL    HW117017   5.695   1.660   2.616 -0.1469  0.5192  0.3092
 5157SOL    HW217018   5.690   1.679   2.466  2.1197 -0.6343  0.0420
 5158SOL     OW17019   2.285   0.522   2.005 -0.2262 -0.1346 -0.1177
 5158SOL    HW117020   2.320   0.432   2.006 -1.8801 -0.8735 -1.7085
 5158SOL    HW217021   2.266   0.538   1.913 -0.8958  1.5027  0.2810
 5159SOL     OW17022   3.143   2.718   3.644  0.4723 -0.2766 -0.5179
 5159SOL    HW117023   3.189   2.637   3.625  1.0740 -0.6636  2.2254
 5159SOL    HW217024   3.206   2.787   3.624  0.2769 -0.4829 -1.9680
 5160SOL     OW17025   6.042   6.584   4.487 -0.0165  0.3071 -0.3961
 5160SOL    HW117026   5.949   6.567   4.476 -0.0114 -2.0990  2.0287
 5160SOL    HW217027   6.083   6.497   4.482  1.7734  1.0199  0.8447
 5161SOL     OW17028   3.574   2.338   3.115  0.0562 -0.0132 -0.3419
 5161SOL    HW117029   3.632   2.261   3.115 -0.8191 -0.6919 -0.4751
 5161SOL    HW217030   3.620   2.402   3.060  0.5357 -0.6525 -0.7070
 5162SOL     OW17031   3.452   5.086   4.006  0.3773 -0.0015  0.0993
 5162SOL    HW117032   3.392   5.133   3.948  1.9952  0.1654 -1.5272
 5162SOL    HW217033   3.523   5.148   4.023  0.4169 -0.3939  1.5086
 5163SOL     OW17034   5.431   4.934   3.487 -0.3101  0.0224 -0.1376
 5163SOL    HW117035   5.488   4.867   3.526 -0.3781 -0.1314 -0.3028
 5163SOL    HW217036   5.386   4.973   3.562 -2.2914 -1.9529 -0.2114
 5164SOL     OW17037   3.520   3.764   2.328 -0.0554 -0.3921  1.0079
 5164SOL    HW117038   3.546   3.740   2.240 -0.6307 -1.2440  1.0612
 5164SOL    HW217039   3.442   3.711   2.346 -1.3958  1.5073  1.1268
 5165SOL     OW17040   1.991   0.927   3.466 -0.5487  0.0743 -0.4451
 5165SOL    HW117041   2.008   1.020   3.452 -0.2222 -0.0685 -1.0279
 5165SOL    HW217042   1.916   0.908   3.409  0.4199 -0.3786 -1.6200
 5166SOL     OW17043   6.589   0.426   5.546  0.3663  0.3422  0.5117
 5166SOL    HW117044   6.511   0.430   5.492  0.0109  1.6588  1.0760
 5166SOL    HW217045   6.577   0.347   5.600 -0.2737  0.1901  0.1552
 5167SOL     OW17046   5.385   2.229   2.745  0.4244  0.1833 -0.1044
 5167SOL    HW117047   5.343   2.190   2.821  1.7968  0.5293  0.8796
 5167SOL    HW217048   5.402   2.155   2.687  1.4844 -0.4765  0.9958
 5168SOL     OW17049   1.199   1.668   1.786  0.5812 -0.3318 -0.1804
 5168SOL    HW117050   1.109   1.634   1.790 -0.3560  1.4450 -3.0636
 5168SOL    HW217051   1.252   1.592   1.760 -0.6154 -0.7923 -1.4061
 5169SOL     OW17052   1.157   2.705   0.591  0.3915  0.8635  0.8053
 5169SOL    HW117053   1.115   2.728   0.674  1.7699 -0.3083  1.8819
 5169SOL    HW217054   1.133   2.776   0.531  1.5723  3.2379  2.9777
 5170SOL     OW17055   4.219   3.454   6.184  0.0095  0.0109 -0.1425
 5170SOL    HW117056   4.144   3.494   6.140 -0.4289 -2.2492 -1.6249
 5170SOL    HW217057   4.294   3.482   6.132  0.0123  0.7919  0.2592
 5171SOL     OW17058   5.026   0.031   4.476 -0.9419 -0.7338 -0.0257
 5171SOL    HW117059   5.004   0.034   4.383 -1.4442 -1.2161  0.0708
 5171SOL    HW217060   4.942   0.043   4.521 -0.6504 -0.1170  0.3720
 5172SOL     OW17061   6.322   2.437   1.822 -0.5346  0.0350 -0.0355
 5172SOL    HW117062   6.333   2.461   1.914 -0.5327  0.2511 -0.0908
 5172SOL    HW217063   6.400   2.471   1.779 -0.2101 -0.6492 -0.0105
 5173SOL     OW17064   2.846   5.849   3.176 -0.4645  0.2029  0.2632
 5173SOL    HW117065   2.930   5.851   3.223 -1.2333 -1.3787  1.8224
 5173SOL    HW217066   2.868   5.876   3.087  1.8526 -0.8466  0.4408
 5174SOL     OW17067   4.460   4.903   0.035  0.0399 -0.1466  0.3022
 5174SOL    HW117068   4.380   4.934   0.077 -0.7805  1.2190 -2.0603
 5174SOL    HW217069   4.430   4.846  -0.036  1.3034 -1.3273  0.6634
 5175SOL     OW17070   0.634   0.418   4.608 -0.1338 -0.5151  0.3636
 5175SOL    HW117071   0.632   0.380   4.520 -0.1120 -1.5968  0.8111
 5175SOL    HW217072   0.623   0.343   4.667  0.4530  0.1081  1.3022
 5176SOL     OW17073   0.025   3.749   4.031  0.0177 -0.4822 -0.1707
 5176SOL    HW117074   0.016   3.666   4.077 -0.1102 -0.5924 -0.3923
 5176SOL    HW217075  -0.055   3.757   3.979  1.0758 -1.4142 -2.0592
 5177SOL     OW17076   4.907   0.501   6.494 -0.0376  0.3365  0.0684
 5177SOL    HW117077   4.816   0.494   6.521 -0.3221  1.6355 -0.4715
 5177SOL    HW217078   4.904   0.501   6.398  0.6211 -0.4881  0.0350
 5178SOL     OW17079   6.391   2.468   3.333  0.5001  0.4316 -0.3950
 5178SOL    HW117080   6.298   2.487   3.344  0.9134  2.3302  0.2794
 5178SOL    HW217081   6.405   2.466   3.238 -0.2522 -0.0877 -0.5011
 5179SOL     OW17082   4.015   3.452   1.509  0.1081  0.3450 -0.1402
 5179SOL    HW117083   3.993   3.416   1.595  0.7793 -1.6932 -0.7650
 5179SOL    HW217084   4.079   3.391   1.473  0.4817  1.6226 -1.7483
 5180SOL     OW17085   5.835   1.315   2.458  0.9448  0.3270 -0.4659
 5180SOL    HW117086   5.865   1.231   2.425  3.4199  1.5237 -1.5306
 5180SOL    HW217087   5.744   1.300   2.485  1.3868 -2.6916 -0.3873
 5181SOL     OW17088   4.409   3.810   6.507 -0.1837 -0.5810 -0.4581
 5181SOL    HW117089   4.343   3.751   6.544 -0.3300  0.2540  0.6693
 5181SOL    HW217090   4.493   3.768   6.527 -0.3262 -2.0792 -2.6382
 5182SOL     OW17091   2.749   6.440   1.909 -0.1699 -0.1408  0.5446
 5182SOL    HW117092   2.688   6.407   1.975 -0.6781 -0.8501 -0.2622
 5182SOL    HW217093   2.816   6.486   1.960  0.1154 -1.7025  1.6698
 5183SOL     OW17094   5.760   2.306   4.319  0.3679 -0.0912 -0.2276
 5183SOL    HW117095   5.739   2.218   4.285  0.5072  0.5651 -2.1120
 5183SOL    HW217096   5.708   2.365   4.265 -0.7257  0.9591  1.8604
 5184SOL     OW17097   1.186   3.986   5.606 -0.4741 -0.0355  0.1485
 5184SOL    HW117098   1.104   4.034   5.617 -0.7052 -0.3379 -0.2324
 5184SOL    HW217099   1.159   3.898   5.580 -0.0167 -0.0392 -0.3326
 5185SOL     OW17100   5.412   0.656   3.319 -0.2002 -0.1722  0.3685
 5185SOL    HW117101   5.348   0.678   3.251  1.7137 -0.0736 -1.5052
 5185SOL    HW217102   5.442   0.568   3.296 -0.3029 -0.6003  1.7649
 5186SOL     OW17103   0.934   2.879   1.208  0.2155 -0.2466 -0.0604
 5186SOL    HW117104   0.939   2.784   1.199 -1.7605 -0.3880 -0.1881
 5186SOL    HW217105   0.906   2.892   1.299 -0.0957  0.1622 -0.2123
 5187SOL     OW17106   3.918   4.547   0.938 -0.2162  0.1697 -0.1068
 5187SOL    HW117107   3.823   4.553   0.927 -0.1324  2.4805 -0.0288
 5187SOL    HW217108   3.931   4.533   1.032 -0.4871 -3.2345 -0.4612
 5188SOL     OW17109   1.062   0.368   0.160 -0.0165 -0.2155 -0.0453
 5188SOL    HW117110   1.074   0.396   0.070  0.8625 -0.0304  0.1212
 5188SOL    HW217111   1.114   0.429   0.212 -2.4027  1.1814  0.8396
 5189SOL     OW17112   0.968   0.071   3.516  0.0385  0.5949  0.2790
 5189SOL    HW117113   1.031   0.136   3.485 -1.6257  1.8284 -0.6703
 5189SOL    HW217114   0.918   0.116   3.584  0.6717 -0.6367  1.6244
 5190SOL     OW17115   0.966   3.448   1.595  0.1392  0.1255  0.0903
 5190SOL    HW117116   0.897   3.497   1.551 -0.6789  0.0292  1.2191
 5190SOL    HW217117   1.047   3.493   1.572 -0.3016  0.3212 -1.1450
 5191SOL     OW17118   0.822   5.265   2.954 -0.0667  0.5920 -0.1249
 5191SOL    HW117119   0.903   5.251   2.906  1.0380  0.9753  1.5618
 5191SOL    HW217120   0.778   5.336   2.908  0.3794  0.1712 -1.2343
 5192SOL     OW17121   5.529   3.875   6.533 -0.1694 -0.2672  0.1252
 5192SOL    HW117122   5.447   3.827   6.537  0.3339 -1.0705  2.2063
 5192SOL    HW217123   5.515   3.951   6.591  0.9052 -1.0950  1.5505
 5193SOL     OW17124   6.538   0.707   6.204 -0.0881  0.0231  0.0079
 5193SOL    HW117125   6.474   0.653   6.158  0.1620  0.6575 -1.1290
 5193SOL    HW217126   6.623   0.675   6.173  0.0621  1.0077 -0.6355
 5194SOL     OW17127   6.593   1.471   0.768 -0.4703  0.3370 -0.1841
 5194SOL    HW117128   6.618   1.402   0.707  1.2744  1.8931 -1.3756
 5194SOL    HW217129   6.548   1.536   0.714  1.0748  1.7360  0.0944
 5195SOL     OW17130   4.028   3.453   5.322  0.2753 -0.0507  0.1429
 5195SOL    HW117131   4.044   3.377   5.266 -1.4226 -0.2840 -0.0986
 5195SOL    HW217132   4.086   3.521   5.288 -1.5820  0.2256 -2.7966
 5196SOL     OW17133   5.701   0.032   6.556  0.4448 -0.4095 -0.1267
 5196SOL    HW117134   5.678   0.121   6.583 -0.3920 -0.8041  0.4747
 5196SOL    HW217135   5.670   0.025   6.466  0.9951  0.0765 -0.3607
 5197SOL     OW17136   0.014   5.358   2.019 -0.6666 -0.2139 -0.0019
 5197SOL    HW117137   0.087   5.309   1.981 -0.4011  0.1544  0.0293
 5197SOL    HW217138  -0.001   5.316   2.104  2.1933  2.1876  1.8738
 5198SOL     OW17139   2.161   4.912   2.826  0.0350  0.5734 -0.1563
 5198SOL    HW117140   2.083   4.941   2.777  0.8655  1.2007 -1.1558
 5198SOL    HW217141   2.170   4.976   2.896 -1.0234 -0.1884  0.7187
 5199SOL     OW17142   1.205   6.139   4.427 -0.9229  0.7482 -0.4693
 5199SOL    HW117143   1.269   6.107   4.491 -0.9918  0.6741 -0.4373
 5199SOL    HW217144   1.198   6.067   4.363 -2.2971  0.0001  0.4747
 5200SOL     OW17145   0.450   6.544   1.930  0.2008  0.1461  0.2493
 5200SOL    HW117146   0.482   6.596   1.857 -0.5030 -1.1126 -0.9894
 5200SOL    HW217147   0.433   6.609   1.999 -1.0121  1.6437 -1.3541
 5201SOL     OW17148   4.777   4.526   0.678  0.0505  0.0082 -0.0086
 5201SOL    HW117149   4.776   4.461   0.608  1.7045 -1.2861  1.0940
 5201SOL    HW217150   4.726   4.485   0.748 -1.0349  1.0148 -0.1803
 5202SOL     OW17151   5.083   1.287   4.366  0.3276 -0.4186  0.2757
 5202SOL    HW117152   5.146   1.292   4.294 -0.9388 -0.9158 -0.9233
 5202SOL    HW217153   5.135   1.258   4.441  1.3648 -1.8602 -0.9130
 5203SOL     OW17154   1.713   4.732   5.834 -0.0103 -0.0964 -0.1252
 5203SOL    HW117155   1.758   4.778   5.762 -1.8005 -0.1228 -1.3077
 5203SOL    HW217156   1.709   4.798   5.904 -0.2219  0.6890 -0.8540
 5204SOL     OW17157   1.458   1.762   1.971  0.0625 -0.3917 -0.2860
 5204SOL    HW117158   1.372   1.759   1.928  0.7089 -2.1806 -1.5580
 5204SOL    HW217159   1.486   1.671   1.976  1.9549  0.1559 -0.0199
 5205SOL     OW17160   0.895   0.192   1.223  0.3931 -0.3698 -0.0692
 5205SOL    HW117161   0.847   0.114   1.252  0.0563 -0.4635 -0.8499
 5205SOL    HW217162   0.987   0.168   1.233  0.3168 -1.2279 -1.1476
 5206SOL     OW17163   1.476   2.430   4.353 -0.2118  0.5374 -0.5676
 5206SOL    HW117164   1.396   2.470   4.318 -1.1723 -1.0578 -0.2563
 5206SOL    HW217165   1.544   2.495   4.333 -1.4354  1.6262 -1.4752
 5207SOL     OW17166   4.778   3.701   1.275  0.5687 -0.3551 -0.6275
 5207SOL    HW117167   4.698   3.717   1.326  0.1528 -0.1846 -1.3228
 5207SOL    HW217168   4.810   3.789   1.253  0.8078 -0.4265 -0.5602
 5208SOL     OW17169   5.197   6.161   6.410  0.4114  0.0720 -0.4322
 5208SOL    HW117170   5.145   6.189   6.335  0.3820  0.0292 -0.4274
 5208SOL    HW217171   5.134   6.126   6.472  0.3569  0.7850 -0.0746
 5209SOL     OW17172   3.054   0.383   2.568 -0.4897 -0.1589 -0.3784
 5209SOL    HW117173   3.109   0.311   2.600 -1.0425 -0.0927  0.7623
 5209SOL    HW217174   3.020   0.424   2.647 -3.5435 -1.2399 -1.0000
 5210SOL     OW17175   1.172   2.804   2.046 -0.3829 -0.3133  0.2274
 5210SOL    HW117176   1.236   2.746   2.086 -0.3627  0.2452  1.0130
 5210SOL    HW217177   1.096   2.747   2.029 -0.1342 -0.7041  0.4153
 5211SOL     OW17178   5.898   4.434   2.288 -0.1527  0.0904  0.1134
 5211SOL    HW117179   5.913   4.343   2.314  0.3604 -0.0336 -0.6126
 5211SOL    HW217180   5.804   4.446   2.301  0.1059  0.1640  2.4241
 5212SOL     OW17181   5.137   0.128   5.173 -0.0213 -0.2358 -0.1457
 5212SOL    HW117182   5.228   0.150   5.154  0.3094 -0.9261  0.5730
 5212SOL    HW217183   5.136   0.109   5.267 -0.8581 -0.4653 -0.1896
 5213SOL     OW17184   4.428   4.858   6.447  0.7127 -0.3103 -0.2493
 5213SOL    HW117185   4.509   4.903   6.422  1.0838 -0.1832  1.0964
 5213SOL    HW217186   4.374   4.927   6.487  0.4312 -0.6365 -0.0630
 5214SOL     OW17187   4.497   4.100   2.087  0.4081 -0.2759  1.0264
 5214SOL    HW117188   4.481   4.173   2.147  1.5404  0.5700  0.3255
 5214SOL    HW217189   4.551   4.137   2.018 -0.0647 -1.4796 -0.0214
 5215SOL     OW17190   0.012   0.160   2.892  0.2266  0.1555 -0.6449
 5215SOL    HW117191   0.104   0.185   2.882  0.3536 -1.0736 -3.3607
 5215SOL    HW217192  -0.035   0.243   2.897  1.4387  0.8054  0.8795
 5216SOL     OW17193   3.353   5.275   5.971 -0.0207  0.2608 -0.0373
 5216SOL    HW117194   3.400   5.196   5.944 -0.1970  0.1649 -0.0652
 5216SOL    HW217195   3.390   5.297   6.056 -0.1881 -0.0323  0.1149
 5217SOL     OW17196   3.220   2.086   5.530  0.3243  0.3274  0.1292
 5217SOL    HW117197   3.149   2.120   5.477  0.1107 -0.7708 -0.3173
 5217SOL    HW217198   3.191   2.098   5.621  0.1089  0.9882 -0.0250
 5218SOL     OW17199   5.870   2.854   5.826  0.3897 -0.4839 -0.3920
 5218SOL    HW117200   5.928   2.778   5.819  0.1495 -0.8978  1.5613
 5218SOL    HW217201   5.903   2.903   5.901 -1.7047 -0.6904  0.7485
 5219SOL     OW17202   6.326   0.149   0.216 -0.1342 -0.1756 -0.1555
 5219SOL    HW117203   6.337   0.192   0.301  1.3809 -0.9320  0.0686
 5219SOL    HW217204   6.258   0.199   0.172  0.0701  1.1173  0.9439
 5220SOL     OW17205   0.481   1.567   1.351 -0.2084  0.6314  0.0612
 5220SOL    HW117206   0.522   1.512   1.285 -0.9018 -1.2864  1.1577
 5220SOL    HW217207   0.543   1.566   1.424 -1.1652 -0.4836  0.8888
 5221SOL     OW17208   2.587   3.414   6.649 -0.0937 -0.7497 -0.0954
 5221SOL    HW117209   2.550   3.366   6.723  0.0575 -0.6275  0.0607
 5221SOL    HW217210   2.681   3.393   6.651  0.3501  1.0676  1.1565
 5222SOL     OW17211   3.706   2.402   2.236  0.4427  0.1698  0.0725
 5222SOL    HW117212   3.743   2.416   2.149  0.2513 -1.6723 -0.3470
 5222SOL    HW217213   3.689   2.308   2.241  1.2913  0.0605  2.4577
 5223SOL     OW17214   5.877   3.477   3.348 -0.5773 -0.9360  0.1074
 5223SOL    HW117215   5.865   3.570   3.364 -1.5284 -0.8363 -1.0548
 5223SOL    HW217216   5.970   3.468   3.329 -0.6623 -0.0275 -0.8549
 5224SOL     OW17217   3.573   1.740   2.033  0.1565 -0.0875  0.1028
 5224SOL    HW117218   3.596   1.670   1.972 -0.3823 -0.5566  0.4232
 5224SOL    HW217219   3.479   1.728   2.048 -0.2679  1.5923 -0.9549
 5225SOL     OW17220   5.913   1.257   5.047 -0.0392 -0.2527  0.3485
 5225SOL    HW117221   5.882   1.342   5.016 -0.1517 -0.7768 -1.0921
 5225SOL    HW217222   5.837   1.216   5.088 -0.1771  0.0557  0.3997
 5226SOL     OW17223   6.556   0.493   0.182 -0.0610 -0.2518 -0.5537
 5226SOL    HW117224   6.505   0.560   0.228 -0.1419 -1.6357  1.4904
 5226SOL    HW217225   6.501   0.467   0.108 -1.2576 -0.0121  0.2341
 5227SOL     OW17226   3.945   1.661   2.126  0.2166 -0.1124  0.0536
 5227SOL    HW117227   3.863   1.681   2.171  0.6921  1.9135  0.1543
 5227SOL    HW217228   4.013   1.680   2.191  0.8309  0.8378 -0.8313
 5228SOL     OW17229   0.542   2.460   2.921  0.1762  0.1433 -0.3795
 5228SOL    HW117230   0.579   2.401   2.855 -0.1349  1.2752 -1.6046
 5228SOL    HW217231   0.486   2.403   2.974 -0.3869 -0.6369 -1.7419
 5229SOL     OW17232   2.513   6.065   1.575  0.4046  0.3074 -0.3321
 5229SOL    HW117233   2.550   6.145   1.614 -1.2597  0.4846  1.0225
 5229SOL    HW217234   2.444   6.097   1.516 -2.1494 -0.0571  2.2255
 5230SOL     OW17235   4.752   3.718   5.332  0.1275  0.6197  0.5635
 5230SOL    HW117236   4.689   3.667   5.383 -0.1162 -0.3718 -0.7007
 5230SOL    HW217237   4.790   3.779   5.396 -1.5571  0.7385  1.5124
 5231SOL     OW17238   1.049   6.468   1.166 -0.3812 -0.7137  0.4055
 5231SOL    HW117239   0.981   6.402   1.162  1.0155 -2.1670 -0.7862
 5231SOL    HW217240   1.105   6.450   1.090  0.7620  1.0554  0.7454
 5232SOL     OW17241   1.617   0.270   4.517  0.1510  0.0489  0.3694
 5232SOL    HW117242   1.604   0.339   4.581 -0.9828 -0.4419  0.7087
 5232SOL    HW217243   1.596   0.189   4.564 -0.3701 -0.3511 -0.5099
 5233SOL     OW17244   5.721   2.305   0.994  0.0815 -0.3687  0.5492
 5233SOL    HW117245   5.783   2.245   1.036  0.5401 -1.5109 -1.6061
 5233SOL    HW217246   5.664   2.248   0.943  0.7513  0.9916 -1.8627
 5234SOL     OW17247   6.124   3.558   2.843  0.1993  0.6317  0.1796
 5234SOL    HW117248   6.080   3.617   2.782 -1.2283 -0.7942 -0.2514
 5234SOL    HW217249   6.066   3.552   2.918 -1.2077 -2.3631 -0.9760
 5235SOL     OW17250   1.397   3.870   3.453 -0.4083  0.1586  0.0754
 5235SOL    HW117251   1.385   3.792   3.508 -0.6424 -0.7975 -1.2866
 5235SOL    HW217252   1.343   3.853   3.376  1.0148  0.8120 -1.1075
 5236SOL     OW17253   6.797   1.872   0.559 -0.4365  0.6460 -0.0100
 5236SOL    HW117254   6.828   1.897   0.647  1.3485  0.2304 -0.4808
 5236SOL    HW217255   6.834   1.938   0.501  1.2070 -0.8801 -0.8147
 5237SOL     OW17256   3.623   6.484   2.878 -0.6120 -0.4633 -0.4744
 5237SOL    HW117257   3.648   6.396   2.853  0.5554  0.0602 -1.2150
 5237SOL    HW217258   3.641   6.538   2.801  0.8055  0.7814  0.6599
 5238SOL     OW17259   0.293   6.803   0.692 -0.5355 -0.1305  0.0869
 5238SOL    HW117260   0.243   6.745   0.634  1.4081 -0.5077 -1.3193
 5238SOL    HW217261   0.309   6.881   0.640 -0.9664  0.6284  1.0703
 5239SOL     OW17262   1.634   0.639   3.133  0.2364 -0.0362 -0.1737
 5239SOL    HW117263   1.708   0.626   3.073 -0.3703 -1.8447 -0.5809
 5239SOL    HW217264   1.556   0.623   3.080 -0.3476 -0.7251  0.8455
 5240SOL     OW17265   0.915   4.895   0.560  0.3977 -0.3727  0.0934
 5240SOL    HW117266   0.845   4.835   0.533 -1.4990  2.0533 -0.7768
 5240SOL    HW217267   0.957   4.851   0.634 -1.7096 -2.1916  0.3189
 5241SOL     OW17268   3.877   0.624   5.020  0.5097  0.3397  0.3587
 5241SOL    HW117269   3.842   0.698   5.069 -0.7696 -0.1761  0.2637
 5241SOL    HW217270   3.813   0.554   5.033 -0.1023  0.2834 -2.3261
 5242SOL     OW17271   5.203   0.052   4.193  0.0239  0.4104 -0.3085
 5242SOL    HW117272   5.207  -0.021   4.131 -1.7718  0.8088 -0.9736
 5242SOL    HW217273   5.281   0.043   4.246  1.6752  0.0547 -2.6369
 5243SOL     OW17274   0.366   1.086   1.541 -0.1922 -0.1736  0.6245
 5243SOL    HW117275   0.397   1.039   1.464 -1.3214 -1.5101  0.9457
 5243SOL    HW217276   0.413   1.047   1.614 -0.1366  0.1422  0.7619
 5244SOL     OW17277   4.803   5.431   4.879  0.2486  0.3493 -0.1093
 5244SOL    HW117278   4.802   5.360   4.815  0.3186 -1.0663  1.3985
 5244SOL    HW217279   4.734   5.408   4.941  2.2364 -0.0624  2.0964
 5245SOL     OW17280   4.893   6.204   2.807 -0.4485 -0.0042 -0.4159
 5245SOL    HW117281   4.819   6.182   2.751  0.2263 -2.3738 -0.4736
 5245SOL    HW217282   4.970   6.175   2.758  0.3429  0.3259  0.6022
 5246SOL     OW17283   5.251   4.537   0.602  0.1898  0.7540  0.0276
 5246SOL    HW117284   5.187   4.606   0.582 -0.1628  0.3421 -0.2714
 5246SOL    HW217285   5.202   4.474   0.655  1.0243  1.6653  1.9494
 5247SOL     OW17286   6.520   1.066   2.942  0.1517  0.2850 -0.1998
 5247SOL    HW117287   6.519   1.089   2.849 -0.8492  0.0704 -0.2470
 5247SOL    HW217288   6.430   1.077   2.970  0.1666 -1.0113  0.4138
 5248SOL     OW17289   4.923   0.511   1.431  0.2865 -0.0545  0.2837
 5248SOL    HW117290   4.993   0.576   1.428  0.6931 -0.5408 -1.1364
 5248SOL    HW217291   4.889   0.506   1.342 -0.3280 -1.1529  0.5495
 5249SOL     OW17292   3.719   5.935   6.274 -0.4984 -0.3374 -0.5032
 5249SOL    HW117293   3.735   6.027   6.293  0.3531 -0.6539  0.4175
 5249SOL    HW217294   3.711   5.894   6.360  2.1688 -1.6074 -0.7485
 5250SOL     OW17295   1.918   0.123   1.959  0.0286  0.5202 -0.0254
 5250SOL    HW117296   1.855   0.181   1.917 -1.2317 -0.5669  0.2930
 5250SOL    HW217297   1.964   0.081   1.886 -0.4133  0.4820 -0.2859
 5251SOL     OW17298   0.623   6.305   0.606 -0.4569  0.2057  0.8600
 5251SOL    HW117299   0.679   6.381   0.592  1.0486 -0.6178  2.0595
 5251SOL    HW217300   0.582   6.289   0.522  0.8026  1.0868  0.0461
 5252SOL     OW17301   3.158   3.807   3.924  0.6125  0.6637  0.5209
 5252SOL    HW117302   3.113   3.732   3.885 -0.2761  0.8059  1.2165
 5252SOL    HW217303   3.091   3.875   3.929  1.3390  1.4227  0.1431
 5253SOL     OW17304   4.701   5.433   0.055 -0.0491  0.4058 -0.4811
 5253SOL    HW117305   4.762   5.439   0.128  0.2896 -0.7510 -0.6477
 5253SOL    HW217306   4.690   5.524   0.026  0.2690  0.8193  0.6141
 5254SOL     OW17307   1.871   6.226   1.782 -0.4512 -0.0562 -0.0206
 5254SOL    HW117308   1.909   6.287   1.719 -1.1464 -2.0089 -2.5130
 5254SOL    HW217309   1.937   6.157   1.793 -0.7851 -0.3001  0.5319
 5255SOL     OW17310   5.353   3.970   4.257 -0.2754  0.1646  0.4082
 5255SOL    HW117311   5.279   4.021   4.225 -0.4214 -0.4800 -0.3394
 5255SOL    HW217312   5.426   4.031   4.259 -0.3377  0.3252 -0.9039
 5256SOL     OW17313   0.595   1.302   2.779 -0.3754  0.0744 -0.0424
 5256SOL    HW117314   0.574   1.276   2.869 -0.1938 -1.7864 -0.4972
 5256SOL    HW217315   0.690   1.291   2.773 -0.5300 -1.0402 -0.7900
 5257SOL     OW17316   5.807   6.520   0.774  0.2441  0.0720 -0.6385
 5257SOL    HW117317   5.780   6.435   0.739  2.4183 -0.3004 -1.5839
 5257SOL    HW217318   5.796   6.580   0.700  0.6250  0.1992 -0.5898
 5258SOL     OW17319   5.645   2.592   3.880  0.1770 -0.2299  0.3043
 5258SOL    HW117320   5.573   2.560   3.825 -0.9073  0.5369  1.2318
 5258SOL    HW217321   5.679   2.669   3.834 -1.0525  0.7075  0.9238
 5259SOL     OW17322   4.543   1.779   0.070  0.1858 -0.3637  0.0906
 5259SOL    HW117323   4.449   1.761   0.081 -0.0892  0.7340 -0.3546
 5259SOL    HW217324   4.580   1.695   0.044 -0.7737 -0.6738 -0.3408
 5260SOL     OW17325   5.763   5.877   0.914  0.0340  0.2446 -0.0287
 5260SOL    HW117326   5.689   5.876   0.974  0.2478  1.4993  0.2801
 5260SOL    HW217327   5.787   5.969   0.906  0.8685 -0.0318 -0.9872
 5261SOL     OW17328   2.245   4.180   1.405 -0.2146 -0.3798  0.2403
 5261SOL    HW117329   2.274   4.261   1.364 -1.2628  0.2258  0.6516
 5261SOL    HW217330   2.323   4.125   1.408  0.3454  0.3460 -0.6742
 5262SOL     OW17331   4.811   5.567   3.679  0.3853  0.7701  0.3531
 5262SOL    HW117332   4.889   5.624   3.674  1.1721 -0.2857  0.3265
 5262SOL    HW217333   4.828   5.497   3.616 -1.1669  1.1873 -0.5838
 5263SOL     OW17334   0.801   0.611   3.619 -0.3835 -0.8684  0.1696
 5263SOL    HW117335   0.723   0.572   3.582  0.2667 -2.1751  0.1154
 5263SOL    HW217336   0.828   0.677   3.556 -0.7089 -1.3132 -0.4388
 5264SOL     OW17337   4.609   2.208   1.261 -0.2790 -0.1698 -0.5056
 5264SOL    HW117338   4.529   2.257   1.242 -0.2546  0.3232  0.5681
 5264SOL    HW217339   4.652   2.197   1.176 -1.2485 -0.0318 -1.0255
 5265SOL     OW17340   6.372   1.752   4.054  0.5796 -0.7994 -0.7260
 5265SOL    HW117341   6.452   1.779   4.009 -0.5893 -0.6985 -2.9120
 5265SOL    HW217342   6.383   1.781   4.144  2.1772  0.9506 -1.4329
 5266SOL     OW17343   4.975   2.285   4.589 -0.1887 -0.7075  0.6399
 5266SOL    HW117344   5.041   2.284   4.659 -0.1931  0.9811  0.7045
 5266SOL    HW217345   4.989   2.368   4.543 -1.8839 -0.5762  0.2844
 5267SOL     OW17346   6.265   0.247   6.157  0.1409 -0.0398 -0.1198
 5267SOL    HW117347   6.182   0.202   6.142 -0.0242  0.3341 -0.3338
 5267SOL    HW217348   6.331   0.180   6.143 -0.1761 -0.7672  1.6481
 5268SOL     OW17349   4.159   6.746   3.133  0.0106 -0.2689  0.2714
 5268SOL    HW117350   4.180   6.672   3.190  1.4894 -0.6285 -0.6827
 5268SOL    HW217351   4.152   6.707   3.045 -0.9812  0.4651  0.0121
 5269SOL     OW17352   0.117   4.811   0.892  0.0296 -0.3929  0.2972
 5269SOL    HW117353   0.151   4.886   0.843  0.7284 -1.2454 -0.5636
 5269SOL    HW217354   0.070   4.850   0.966  1.8279  0.8523  0.8474
 5270SOL     OW17355   1.707   6.662   2.511 -0.2839  0.8604 -0.5190
 5270SOL    HW117356   1.670   6.668   2.423  1.7229  0.2712 -1.4746
 5270SOL    HW217357   1.732   6.570   2.520  0.4578  1.1267  0.2625
 5271SOL     OW17358   6.651   0.494   5.976  0.1729 -0.2999 -0.5469
 5271SOL    HW117359   6.687   0.409   5.952 -2.8801 -1.4217 -1.5002
 5271SOL    HW217360   6.583   0.512   5.911 -1.3312  1.4370  1.3601
 5272SOL     OW17361   4.731   4.820   0.315  0.4716  0.3996  0.3773
 5272SOL    HW117362   4.651   4.806   0.365  2.2600  0.8458  3.5909
 5272SOL    HW217363   4.740   4.916   0.309  0.7989  0.3543  0.0629
 5273SOL     OW17364   5.732   1.519   1.785  0.7372  0.0556 -0.3686
 5273SOL    HW117365   5.813   1.570   1.790 -0.2328  1.9324 -1.9579
 5273SOL    HW217366   5.710   1.519   1.691 -0.8804 -0.7256 -0.0245
 5274SOL     OW17367   1.740   5.985   4.926 -0.2949 -0.2339  0.1900
 5274SOL    HW117368   1.787   5.980   5.010  0.0771  0.3313  0.0240
 5274SOL    HW217369   1.648   5.976   4.949 -0.1844 -0.2244  0.6455
 5275SOL     OW17370   3.957   4.567   1.777  0.0884 -0.0447 -0.5717
 5275SOL    HW117371   3.886   4.506   1.795  0.5083 -1.1004 -2.2721
 5275SOL    HW217372   4.021   4.549   1.847 -1.1584  0.7637  0.8393
 5276SOL     OW17373   4.861   3.545   0.880  0.2262 -0.1102  0.4515
 5276SOL    HW117374   4.903   3.623   0.916  0.2762 -0.1355  0.4476
 5276SOL    HW217375   4.816   3.506   0.954  0.4276 -0.2276  0.5118
 5277SOL     OW17376   2.399   5.405   1.148  0.0827  0.1785  0.0439
 5277SOL    HW117377   2.440   5.373   1.229 -0.2884 -1.2277 -0.2996
 5277SOL    HW217378   2.404   5.500   1.155  2.6927  0.0969  0.3993
 5278SOL     OW17379   4.735   6.041   6.139  0.2537  0.6003 -0.4905
 5278SOL    HW117380   4.775   5.996   6.214 -0.4974  0.8152  0.0532
 5278SOL    HW217381   4.716   6.129   6.171 -1.5187  0.2231 -0.4146
 5279SOL     OW17382   6.762   5.137   0.652 -1.0446  0.3629  0.2263
 5279SOL    HW117383   6.738   5.220   0.693 -1.9811  0.2910 -0.1559
 5279SOL    HW217384   6.741   5.150   0.559 -5.5398 -1.7236  0.6762
 5280SOL     OW17385   4.423   1.178   1.712  0.0289 -0.3461 -0.0091
 5280SOL    HW117386   4.446   1.121   1.785 -0.4010 -0.0697  0.3490
 5280SOL    HW217387   4.458   1.264   1.738 -0.1731 -0.2360 -0.1015
 5281SOL     OW17388   4.968   2.752   3.230  0.0574 -0.4385 -0.4251
 5281SOL    HW117389   4.999   2.836   3.196  0.0855 -0.4724 -0.4840
 5281SOL    HW217390   4.979   2.691   3.156 -0.5515 -0.3554 -0.5903
 5282SOL     OW17391   3.189   1.936   6.576 -0.9089  0.3305 -0.5218
 5282SOL    HW117392   3.153   1.973   6.496 -3.5614 -0.6694  0.1199
 5282SOL    HW217393   3.224   2.011   6.624  1.1861  0.9048 -2.7354
 5283SOL     OW17394   5.079   2.391   0.395  0.3217 -0.6476 -0.2022
 5283SOL    HW117395   5.168   2.390   0.362  0.5378 -2.2132  0.3649
 5283SOL    HW217396   5.087   2.374   0.489 -0.4646  1.0355  0.2183
 5284SOL     OW17397   3.522   0.100   2.079 -0.5115  0.0823  0.7515
 5284SOL    HW117398   3.468   0.138   2.148  2.2004  1.5891  2.2141
 5284SOL    HW217399   3.595   0.060   2.125 -0.0283 -1.3671 -1.1568
 5285SOL     OW17400   5.119   2.579   3.950  0.0242  0.4041  0.4655
 5285SOL    HW117401   5.094   2.669   3.927  1.2485  0.2351 -1.7675
 5285SOL    HW217402   5.107   2.575   4.045  0.1333  2.9823  0.6633
 5286SOL     OW17403   1.904   2.672   6.301 -0.2759  0.1486 -0.0767
 5286SOL    HW117404   1.836   2.687   6.236  0.1625 -1.9605 -1.1159
 5286SOL    HW217405   1.958   2.751   6.299 -0.8019  0.4956 -1.6143
 5287SOL     OW17406   5.741   2.389   5.416 -0.6209  0.7318 -0.0376
 5287SOL    HW117407   5.826   2.413   5.453 -0.7367  0.7521  0.2130
 5287SOL    HW217408   5.682   2.459   5.444 -0.6554  0.8795 -0.4665
 5288SOL     OW17409   4.969   4.103   5.483  0.0758 -0.0579  0.2620
 5288SOL    HW117410   4.883   4.099   5.441  0.4066  0.0728 -0.4448
 5288SOL    HW217411   5.016   4.169   5.433  0.9607 -0.9097 -0.0523
 5289SOL     OW17412   1.494   3.188   2.642  0.2720  0.6952  0.0429
 5289SOL    HW117413   1.565   3.249   2.663 -1.7217  2.8541  0.9348
 5289SOL    HW217414   1.501   3.119   2.708  0.5920  1.7140  1.1032
 5290SOL     OW17415   2.841   5.964   2.896 -0.2449 -0.0041  0.5798
 5290SOL    HW117416   2.760   6.014   2.887  0.2982  1.4217  2.6638
 5290SOL    HW217417   2.901   6.005   2.833 -0.8205 -0.3777 -0.2235
 5291SOL     OW17418   4.226   4.481   4.241 -0.2232 -0.0536  0.1795
 5291SOL    HW117419   4.320   4.468   4.227 -0.3924  0.6417 -1.9737
 5291SOL    HW217420   4.191   4.392   4.252  0.5549 -0.3835  0.0466
 5292SOL     OW17421   1.175   3.086   0.160 -0.4909 -0.1392  0.3215
 5292SOL    HW117422   1.186   3.121   0.248 -0.4879  1.7733 -0.3794
 5292SOL    HW217423   1.209   3.155   0.102 -1.8267 -0.6938 -1.2228
 5293SOL     OW17424   2.131   5.582   0.091  0.2751  0.1846  0.4836
 5293SOL    HW117425   2.126   5.500   0.139 -0.2519 -0.4859 -0.6645
 5293SOL    HW217426   2.198   5.567   0.024  0.9010  1.0455  0.8981
 5294SOL     OW17427   6.372   1.998   5.367  0.3564 -0.2665  0.0429
 5294SOL    HW117428   6.385   2.042   5.451  0.4467  0.4672 -0.3420
 5294SOL    HW217429   6.430   1.922   5.370  0.9199  0.1687  0.3506
 5295SOL     OW17430   4.904   4.604   2.111  0.0899  0.4106 -0.0831
 5295SOL    HW117431   4.817   4.613   2.073 -0.3706  1.7553  1.1821
 5295SOL    HW217432   4.964   4.637   2.044 -0.2468 -1.3213 -1.3038
 5296SOL     OW17433   5.662   6.273   4.486 -0.1967  0.2402  0.2488
 5296SOL    HW117434   5.716   6.216   4.431  0.2425  1.4293 -0.5725
 5296SOL    HW217435   5.578   6.278   4.441 -0.1162  0.5342  0.1313
 5297SOL     OW17436   5.835   5.113   3.913  0.0651 -0.5147  0.2945
 5297SOL    HW117437   5.784   5.082   3.838 -0.7069 -1.4056  1.1399
 5297SOL    HW217438   5.771   5.160   3.967  0.6341  0.2113  0.3377
 5298SOL     OW17439   4.222   5.784   2.096  0.3951  0.2239  0.3142
 5298SOL    HW117440   4.310   5.745   2.091 -0.4025 -1.7873  0.9440
 5298SOL    HW217441   4.229   5.864   2.044  2.0691 -0.9353 -1.4286
 5299SOL     OW17442   2.055   1.607   1.193 -0.7645 -0.4469  1.1811
 5299SOL    HW117443   2.025   1.529   1.240  1.2209 -1.1394  1.3779
 5299SOL    HW217444   2.093   1.663   1.260  0.4300 -0.6215  0.6644
 5300SOL     OW17445   3.876   5.755   0.324  0.0346  0.5280  0.1564
 5300SOL    HW117446   3.941   5.824   0.315  2.2915 -1.4886 -0.1181
 5300SOL    HW217447   3.921   5.686   0.374 -2.0761 -0.7636  0.4020
 5301SOL     OW17448   6.599   2.600   6.565 -0.2187 -0.4516 -0.7606
 5301SOL    HW117449   6.651   2.680   6.567 -0.4407 -0.3172 -0.0092
 5301SOL    HW217450   6.509   2.630   6.554 -0.2813 -0.6038 -0.6744
 5302SOL     OW17451   4.536   5.289   2.793  0.0812  0.4482  0.1015
 5302SOL    HW117452   4.566   5.340   2.868 -0.5833  0.9042  0.0557
 5302SOL    HW217453   4.482   5.220   2.831  2.1197 -1.1446  0.3073
 5303SOL     OW17454   2.937   3.361   5.346  0.0213 -0.7284 -0.2761
 5303SOL    HW117455   3.002   3.304   5.305  0.8853 -1.3882  1.8546
 5303SOL    HW217456   2.854   3.314   5.337  0.6422 -2.1740  1.0429
 5304SOL     OW17457   4.782   2.864   5.524  0.1598  0.1899  0.0367
 5304SOL    HW117458   4.821   2.807   5.458 -1.3924 -0.2925 -0.5183
 5304SOL    HW217459   4.689   2.870   5.499 -0.5524 -0.2587  2.3108
 5305SOL     OW17460   2.127   0.772   4.222  0.1396  0.1028  0.0614
 5305SOL    HW117461   2.145   0.703   4.286 -0.4989 -0.3163 -0.1917
 5305SOL    HW217462   2.097   0.846   4.274 -1.3405 -0.5585  0.2142
 5306SOL     OW17463   6.165   2.297   4.682 -0.1949  0.0232  0.2741
 5306SOL    HW117464   6.075   2.312   4.652 -0.0855  2.1653  0.9052
 5306SOL    HW217465   6.201   2.384   4.698  1.7937 -0.8079  0.6943
 5307SOL     OW17466   3.797   1.319   2.983  0.0367  0.0343  0.0305
 5307SOL    HW117467   3.732   1.310   2.913 -0.6785 -0.4614  0.7327
 5307SOL    HW217468   3.752   1.370   3.051 -0.6913 -2.6301  1.7231
 5308SOL     OW17469   6.666   1.271   2.800 -0.0376 -0.1735 -0.0616
 5308SOL    HW117470   6.607   1.342   2.774 -1.9126 -1.0036  1.6735
 5308SOL    HW217471   6.648   1.202   2.736  1.5736  0.7177 -1.5705
 5309SOL     OW17472   3.162   3.089   0.325 -0.0972 -0.3420 -0.3135
 5309SOL    HW117473   3.095   3.071   0.391  0.4755 -2.0597 -0.1423
 5309SOL    HW217474   3.236   3.123   0.375 -0.4241  0.4601 -0.3619
 5310SOL     OW17475   2.216   5.787   1.589 -0.1788  0.0114  0.4648
 5310SOL    HW117476   2.256   5.786   1.676  0.6392  0.1738  0.1084
 5310SOL    HW217477   2.284   5.752   1.531 -0.1600  1.2607 -0.3205
 5311SOL     OW17478   3.651   4.344   3.277  0.4741 -0.0650  0.3488
 5311SOL    HW117479   3.599   4.266   3.296  1.5809 -0.6250  1.2645
 5311SOL    HW217480   3.691   4.326   3.191 -1.3875  0.7077 -0.7310
 5312SOL     OW17481   0.879   3.487   3.486  0.7788  0.2790 -1.0645
 5312SOL    HW117482   0.803   3.473   3.430  0.2426 -0.1110 -0.2622
 5312SOL    HW217483   0.929   3.406   3.478  1.0816  0.5081 -1.5378
 5313SOL     OW17484   3.794   3.179   4.951  0.5273  0.4828  0.3524
 5313SOL    HW117485   3.798   3.247   5.018  1.1667  1.8327 -0.9765
 5313SOL    HW217486   3.827   3.100   4.994  3.0858  1.8196  1.0723
 5314SOL     OW17487   0.718   5.602   5.444  0.4601 -0.1479 -0.1665
 5314SOL    HW117488   0.654   5.585   5.513 -0.9513 -0.3845 -1.4969
 5314SOL    HW217489   0.713   5.696   5.429 -0.4993 -0.3377 -1.1207
 5315SOL     OW17490   0.796   5.961   1.776 -0.0829  0.6025  0.2919
 5315SOL    HW117491   0.785   6.056   1.782 -0.7381  0.7088 -1.8104
 5315SOL    HW217492   0.720   5.926   1.823 -1.1876  1.1781 -0.9937
 5316SOL     OW17493   4.540   3.716   1.940 -0.0114 -0.2307  0.3184
 5316SOL    HW117494   4.608   3.654   1.967  0.2598  0.4659  1.2779
 5316SOL    HW217495   4.527   3.772   2.016 -2.7628 -1.2685  0.7071
 5317SOL     OW17496   1.505   4.356   1.266  0.6027  0.4053 -0.1333
 5317SOL    HW117497   1.549   4.436   1.292  0.2224  0.8533 -0.8271
 5317SOL    HW217498   1.414   4.368   1.295  0.7951 -0.2830  0.8109
 5318SOL     OW17499   0.545   0.870   2.756  0.2806 -0.5686 -0.3612
 5318SOL    HW117500   0.500   0.954   2.761 -0.1069 -0.7826 -0.1791
 5318SOL    HW217501   0.638   0.892   2.763  0.1640 -0.1871  0.0822
 5319SOL     OW17502   1.748   0.237   5.314  0.0622  0.2932  0.0485
 5319SOL    HW117503   1.727   0.143   5.317 -1.5428  0.6522  0.9353
 5319SOL    HW217504   1.712   0.266   5.230  0.7469  0.0932 -0.3240
 5320SOL     OW17505   5.697   3.132   0.070 -0.5250  0.0861  0.1360
 5320SOL    HW117506   5.693   3.038   0.087  0.6867 -0.2360 -1.1550
 5320SOL    HW217507   5.606   3.161   0.068 -0.9023 -1.0485  0.6143
 5321SOL     OW17508   3.380   0.452   2.296 -0.0683 -0.2184  0.1830
 5321SOL    HW117509   3.309   0.516   2.299 -0.5230 -0.7245  0.2446
 5321SOL    HW217510   3.460   0.506   2.296 -0.4154  0.4928 -2.9164
 5322SOL     OW17511   4.278   0.372   0.165 -0.8298  0.1906  0.2391
 5322SOL    HW117512   4.245   0.338   0.248 -2.4842  1.2943  0.0816
 5322SOL    HW217513   4.371   0.385   0.180 -0.9346 -0.4668  1.6293
 5323SOL     OW17514   4.205   3.441   5.005  0.0858  0.1940 -0.1071
 5323SOL    HW117515   4.213   3.493   5.085  1.8598 -1.1813  0.6767
 5323SOL    HW217516   4.116   3.458   4.974  0.0894  2.4379  0.9553
 5324SOL     OW17517   4.127   2.301   1.616 -0.6055 -0.2512  1.1262
 5324SOL    HW117518   4.117   2.395   1.603 -1.9518 -0.5292 -0.0358
 5324SOL    HW217519   4.173   2.293   1.700 -0.3144  1.4269  1.1578
 5325SOL     OW17520   1.018   5.197   2.804  0.4487 -0.1376  0.0479
 5325SOL    HW117521   1.051   5.282   2.774  0.6487  0.2547  1.3401
 5325SOL    HW217522   1.086   5.135   2.778  0.7906  0.2420  0.0246
 5326SOL     OW17523   6.382   2.054   6.237  0.1687 -0.4349  0.0885
 5326SOL    HW117524   6.364   1.992   6.166 -0.2490 -1.0705  0.7347
 5326SOL    HW217525   6.478   2.063   6.236  0.3065 -1.6726  0.4544
 5327SOL     OW17526   2.346   1.982   2.564 -0.2629 -0.0176  0.0903
 5327SOL    HW117527   2.407   2.009   2.496  2.0524 -2.0009  1.2287
 5327SOL    HW217528   2.276   1.936   2.518  1.9111 -2.4907 -1.0113
 5328SOL     OW17529   2.682   3.675   0.092 -0.8289 -0.1400  0.0027
 5328SOL    HW117530   2.747   3.606   0.102 -0.6347 -0.5524 -3.0724
 5328SOL    HW217531   2.598   3.629   0.086 -0.5976 -0.4121 -3.2182
 5329SOL     OW17532   6.731   0.667   0.029 -0.0868  0.1214 -0.3292
 5329SOL    HW117533   6.713   0.630  -0.058  0.7487 -0.8912 -0.0946
 5329SOL    HW217534   6.644   0.688   0.064 -0.4097  0.9386 -1.5598
 5330SOL     OW17535   2.099   4.588   0.616 -0.1512  0.1169  0.0520
 5330SOL    HW117536   2.053   4.668   0.640  0.7774  0.8350 -0.4862
 5330SOL    HW217537   2.107   4.538   0.697 -0.0607  0.9208  0.5368
 5331SOL     OW17538   5.564   6.331   1.137  0.1049 -0.7270  0.5830
 5331SOL    HW117539   5.505   6.256   1.133  1.1151 -1.5644 -3.6446
 5331SOL    HW217540   5.625   6.309   1.208 -1.6285 -2.2560  1.6773
 5332SOL     OW17541   1.527   3.707   0.926 -0.3046 -0.1867  0.2981
 5332SOL    HW117542   1.505   3.626   0.970 -0.8748 -0.4136 -0.3918
 5332SOL    HW217543   1.504   3.693   0.834  0.0663  0.5724  0.0703
 5333SOL     OW17544   2.682   6.761   0.935  0.0305  0.2257 -0.5814
 5333SOL    HW117545   2.589   6.777   0.920  0.2483  4.4782  1.2963
 5333SOL    HW217546   2.726   6.793   0.856  0.0251 -0.5159 -0.8979
 5334SOL     OW17547   4.529   4.300   2.984 -0.1107  0.1422  0.2578
 5334SOL    HW117548   4.511   4.254   3.066  0.6251 -0.1643  0.2503
 5334SOL    HW217549   4.516   4.393   3.005  0.9812  0.1460  0.9752
 5335SOL     OW17550   2.142   5.449   4.238 -0.6373  0.2304 -0.1389
 5335SOL    HW117551   2.215   5.490   4.283  1.3264 -1.5319 -1.5179
 5335SOL    HW217552   2.130   5.500   4.158 -0.9593  0.5290  0.0950
 5336SOL     OW17553   2.651   1.030   2.484 -0.1651 -0.0286  0.4951
 5336SOL    HW117554   2.742   1.030   2.453 -0.1559  0.0607  0.5229
 5336SOL    HW217555   2.658   1.043   2.578 -0.1392 -1.3675  0.6926
 5337SOL     OW17556   4.748   5.665   4.248  0.3550 -0.6129  0.1951
 5337SOL    HW117557   4.662   5.705   4.259  1.0934  0.7521  1.2807
 5337SOL    HW217558   4.730   5.578   4.213 -1.4758 -0.4373  0.6280
 5338SOL     OW17559   2.959   0.062   2.714 -0.2868 -0.3658 -0.2335
 5338SOL    HW117560   3.045   0.084   2.675  0.2151 -1.7977  0.0275
 5338SOL    HW217561   2.979  -0.004   2.780 -1.3608  0.7761  1.2984
 5339SOL     OW17562   1.870   5.474   4.595  0.1547 -0.1734  1.2468
 5339SOL    HW117563   1.926   5.459   4.672 -1.2635 -0.5999  2.2395
 5339SOL    HW217564   1.802   5.532   4.627  0.6426  1.3002 -0.2601
 5340SOL     OW17565   6.045   0.785   6.066  0.1467  0.1872 -0.0925
 5340SOL    HW117566   6.054   0.772   5.972  0.1928 -0.8092  0.0382
 5340SOL    HW217567   6.009   0.703   6.098 -1.1162  0.9670  0.5980
 5341SOL     OW17568   1.853   0.351   0.436 -0.1229 -0.1357 -0.4423
 5341SOL    HW117569   1.886   0.267   0.403 -0.4003 -1.2834  2.0323
 5341SOL    HW217570   1.767   0.361   0.394 -0.2255 -1.2410 -0.5237
 5342SOL     OW17571   4.229   5.433   6.536  0.1917  0.2179  0.5991
 5342SOL    HW117572   4.196   5.508   6.586 -0.6085  0.8812 -0.8386
 5342SOL    HW217573   4.312   5.464   6.499 -0.3643  0.6021 -0.3764
 5343SOL     OW17574   2.072   4.389   2.885 -0.5024  0.5299  0.1831
 5343SOL    HW117575   2.076   4.434   2.969  0.9623  0.9855 -0.1053
 5343SOL    HW217576   2.047   4.299   2.908 -1.3132  0.9410  0.9692
 5344SOL     OW17577   4.530   1.946   3.137  0.5443 -1.1644 -0.1288
 5344SOL    HW117578   4.474   1.880   3.178  0.2146 -1.7161 -1.4159
 5344SOL    HW217579   4.474   1.989   3.072  1.0939 -0.4391 -0.1409
 5345SOL     OW17580   3.756   6.639   2.152  0.3498 -0.0128 -0.6148
 5345SOL    HW117581   3.689   6.571   2.147  0.5524 -0.2384 -0.2932
 5345SOL    HW217582   3.739   6.683   2.235  0.6556 -0.1327 -0.4872
 5346SOL     OW17583   5.513   2.415   6.394  0.5110 -0.5415 -0.4333
 5346SOL    HW117584   5.559   2.477   6.337 -0.2167  0.1071 -0.3292
 5346SOL    HW217585   5.545   2.437   6.482  1.1619 -1.1276 -0.5120
 5347SOL     OW17586   0.677   6.404   1.528 -0.7081 -0.0947  0.2814
 5347SOL    HW117587   0.650   6.405   1.437 -1.2725  0.1727  0.4507
 5347SOL    HW217588   0.758   6.456   1.529 -1.9498  1.9181  0.3112
 5348SOL     OW17589   0.683   1.116   6.741 -0.1603  0.1708  0.0410
 5348SOL    HW117590   0.778   1.132   6.737 -0.1094 -0.3677 -1.4810
 5348SOL    HW217591   0.666   1.059   6.667 -1.7564  0.6045  0.0537
 5349SOL     OW17592   0.955   5.690   0.747 -0.1200 -0.1754  0.7500
 5349SOL    HW117593   1.006   5.769   0.728 -0.0499 -0.3022  0.3926
 5349SOL    HW217594   0.865   5.713   0.724  0.1469 -0.7387 -1.0716
 5350SOL     OW17595   5.389   0.070   5.360  0.1156 -0.2252 -0.2306
 5350SOL    HW117596   5.415   0.093   5.271  1.2062 -0.2851  0.0611
 5350SOL    HW217597   5.368   0.154   5.402 -0.4898 -0.2041 -0.5530
 5351SOL     OW17598   3.564   2.880   4.026 -0.1993  0.0807  0.3733
 5351SOL    HW117599   3.567   2.869   4.121 -0.1968  1.3502  0.5396
 5351SOL    HW217600   3.630   2.947   4.008 -0.1749 -0.1815 -0.5275
 5352SOL     OW17601   4.075   3.139   1.734 -0.3188  0.1498 -0.4276
 5352SOL    HW117602   4.083   3.068   1.798  0.5999 -1.0259 -1.8002
 5352SOL    HW217603   4.112   3.215   1.778  0.2024 -0.6075  0.4815
 5353SOL     OW17604   3.213   5.026   2.007  0.0765  0.2419 -0.2816
 5353SOL    HW117605   3.191   5.108   2.052 -0.0923  0.6559 -1.1011
 5353SOL    HW217606   3.147   5.017   1.939  1.0044  0.2500 -1.2200
 5354SOL     OW17607   5.005   0.338   0.259  0.0628  0.1433 -0.7367
 5354SOL    HW117608   5.033   0.247   0.266  1.5250  0.5371 -1.1271
 5354SOL    HW217609   4.949   0.352   0.336 -0.6832 -1.2303 -0.9953
 5355SOL     OW17610   0.715   4.698   1.250  0.1563 -0.4368 -0.4139
 5355SOL    HW117611   0.705   4.792   1.264  1.8027 -0.3489  0.5617
 5355SOL    HW217612   0.643   4.658   1.299 -0.8442  0.3119 -1.2388
 5356SOL     OW17613   6.243   6.152   0.175  0.3492  0.2746  0.6313
 5356SOL    HW117614   6.152   6.132   0.194  0.8893 -2.3376  0.8474
 5356SOL    HW217615   6.278   6.185   0.258 -0.0626 -0.1708  0.9878
 5357SOL     OW17616   2.295   5.405   6.471  0.4180 -0.6189 -0.6250
 5357SOL    HW117617   2.293   5.322   6.424 -0.2128 -1.8521  1.4626
 5357SOL    HW217618   2.231   5.395   6.542  1.2583  1.1541  0.4657
 5358SOL     OW17619   4.372   4.051   0.035  0.8981  0.1199  0.1374
 5358SOL    HW117620   4.345   3.983   0.097 -1.8097 -0.9152 -1.9696
 5358SOL    HW217621   4.456   4.020   0.001  1.2129 -0.5656  1.4927
 5359SOL     OW17622   0.947   0.429   5.594 -0.0753 -1.1822 -0.0939
 5359SOL    HW117623   0.868   0.384   5.626 -0.4090  0.5404  1.7319
 5359SOL    HW217624   1.008   0.423   5.667 -0.1205  1.1935  0.2125
 5360SOL     OW17625   5.433   3.545   5.297 -0.1168  0.7174  0.0180
 5360SOL    HW117626   5.346   3.525   5.263  0.1471 -0.3597 -0.0581
 5360SOL    HW217627   5.492   3.523   5.225  0.2706  0.6923  0.3396
 5361SOL     OW17628   4.485   2.057   4.932 -0.4714  0.2559  0.5946
 5361SOL    HW117629   4.403   2.009   4.933 -0.4003  0.1363  0.6702
 5361SOL    HW217630   4.542   2.009   4.991 -0.2667  0.2009  0.3556
 5362SOL     OW17631   3.111   6.310   2.581  0.3109 -0.1373 -0.1091
 5362SOL    HW117632   3.177   6.362   2.626  0.9265  0.0927 -1.2611
 5362SOL    HW217633   3.161   6.252   2.524 -0.4982  0.7832 -1.8091
 5363SOL     OW17634   0.906   2.835   6.410  0.2218  0.1906  0.3697
 5363SOL    HW117635   0.979   2.872   6.459  1.1370 -1.8153  0.6350
 5363SOL    HW217636   0.947   2.771   6.351 -1.3660 -1.6879  1.1890
 5364SOL     OW17637   4.321   0.777   0.088 -0.3180 -0.5557  0.0641
 5364SOL    HW117638   4.245   0.818   0.048 -0.6439 -2.2878 -1.1620
 5364SOL    HW217639   4.286   0.709   0.145  0.2814 -0.4857  0.5380
 5365SOL     OW17640   4.260   3.303   4.569  0.4420 -0.2786  0.1472
 5365SOL    HW117641   4.351   3.274   4.574  1.1110  1.8295  1.2643
 5365SOL    HW217642   4.224   3.284   4.656  1.2291  2.9860  1.3246
 5366SOL     OW17643   1.284   3.110   1.183 -0.3276  0.2872 -0.2044
 5366SOL    HW117644   1.287   3.015   1.195  0.2023  0.2929 -0.2753
 5366SOL    HW217645   1.199   3.126   1.141 -1.3386  0.0678  1.6554
 5367SOL     OW17646   5.451   1.268   5.157 -0.0660 -0.4516 -0.2247
 5367SOL    HW117647   5.439   1.304   5.069 -1.5060  0.5283  0.3420
 5367SOL    HW217648   5.400   1.187   5.158 -0.1845 -0.3765 -0.2387
 5368SOL     OW17649   0.248   3.908   0.816 -0.1203 -0.1272 -0.1065
 5368SOL    HW117650   0.338   3.879   0.833  0.6976  1.1883 -1.8512
 5368SOL    HW217651   0.256   3.971   0.745 -2.5995 -1.1581 -1.4422
 5369SOL     OW17652   5.438   3.092   5.417 -0.0352  0.2708  0.0621
 5369SOL    HW117653   5.509   3.097   5.352  0.9623  0.7515  1.1414
 5369SOL    HW217654   5.416   2.999   5.420  1.0325 -0.0019  0.1708
 5370SOL     OW17655   6.579   5.184   1.525 -0.2383 -0.0214  0.1744
 5370SOL    HW117656   6.593   5.106   1.472 -1.2575 -0.4662  0.5388
 5370SOL    HW217657   6.486   5.204   1.515 -0.4080  0.0257  1.5776
 5371SOL     OW17658   3.347   5.848   6.537  0.2324 -0.1750 -0.0618
 5371SOL    HW117659   3.257   5.814   6.538 -0.2486  1.0045  0.3631
 5371SOL    HW217660   3.396   5.789   6.594  0.2330 -2.0008 -1.8412
 5372SOL     OW17661   1.501   6.240   4.207 -0.5469 -0.0297 -0.0097
 5372SOL    HW117662   1.511   6.334   4.193 -0.4471  0.0440  0.5202
 5372SOL    HW217663   1.411   6.221   4.180 -0.4890  0.1699 -0.3466
 5373SOL     OW17664   0.104   2.677   3.503  0.6891  0.3781  0.1574
 5373SOL    HW117665   0.138   2.763   3.527 -0.9175  1.2185 -0.4103
 5373SOL    HW217666   0.025   2.666   3.556  2.0365 -1.7950  1.9041
 5374SOL     OW17667   3.947   2.953   2.807 -0.1239  0.6319 -0.0112
 5374SOL    HW117668   4.038   2.960   2.837  0.6505  0.1360 -2.0741
 5374SOL    HW217669   3.926   3.041   2.775 -0.7046  0.9782  1.2705
 5375SOL     OW17670   3.710   5.627   0.757  0.1333  0.4506  0.5731
 5375SOL    HW117671   3.776   5.562   0.782 -0.3859 -0.6602 -0.8128
 5375SOL    HW217672   3.761   5.706   0.736  1.1423 -0.5698 -1.0767
 5376SOL     OW17673   5.794   5.917   4.262  0.1609  0.1007 -0.0963
 5376SOL    HW117674   5.714   5.969   4.249 -1.1156 -0.6089  3.8136
 5376SOL    HW217675   5.765   5.826   4.252  1.0155 -0.1127 -0.7768
 5377SOL     OW17676   1.996   2.451   3.941 -0.4406 -0.2112 -0.1055
 5377SOL    HW117677   1.927   2.428   3.878 -0.1676  1.2901 -1.0102
 5377SOL    HW217678   1.958   2.523   3.992  0.1858  0.1654 -0.1546
 5378SOL     OW17679   0.732   4.893   4.421 -0.0829 -0.0630  0.0360
 5378SOL    HW117680   0.814   4.854   4.450  0.7329  0.3526 -1.6133
 5378SOL    HW217681   0.674   4.886   4.498  1.1812 -1.1647  0.9444
 5379SOL     OW17682   3.560   5.873   0.417  0.3185  0.3684  0.8301
 5379SOL    HW117683   3.606   5.790   0.404 -0.5882  0.0895 -0.9811
 5379SOL    HW217684   3.533   5.872   0.508 -0.1821 -1.6238  0.7057
 5380SOL     OW17685   0.771   0.200   3.647 -0.5326 -0.4696  0.3061
 5380SOL    HW117686   0.687   0.226   3.611 -0.4829 -2.2080 -1.2012
 5380SOL    HW217687   0.784   0.258   3.722 -1.9066  1.4887 -0.8788
 5381SOL     OW17688   2.630   6.006   5.840  0.4613 -0.0924  0.4596
 5381SOL    HW117689   2.600   5.961   5.761 -2.1630 -0.2164  1.4178
 5381SOL    HW217690   2.677   5.938   5.890  1.4318 -0.2181 -0.5916
 5382SOL     OW17691   4.795   5.795   3.511 -0.3732 -0.0696  0.4856
 5382SOL    HW117692   4.722   5.734   3.518  0.8682 -1.5116  1.4146
 5382SOL    HW217693   4.833   5.798   3.599 -1.8767  4.0776  1.2372
 5383SOL     OW17694   0.916   4.115   6.547 -0.2575 -0.6482  0.1872
 5383SOL    HW117695   0.909   4.020   6.538  0.2312 -0.5965 -0.8498
 5383SOL    HW217696   0.999   4.137   6.504 -1.7433  0.5722 -2.2188
 5384SOL     OW17697   0.163   4.930   2.252 -0.1078 -0.3729  0.0758
 5384SOL    HW117698   0.095   4.942   2.185 -0.0153  1.1293  0.2201
 5384SOL    HW217699   0.243   4.965   2.212 -0.2322  1.3734  1.2366
 5385SOL     OW17700   6.297   4.784   3.389  0.1222 -0.1898  0.1770
 5385SOL    HW117701   6.245   4.705   3.373 -0.9764  0.4856  0.2914
 5385SOL    HW217702   6.282   4.838   3.312  1.3977 -0.3476 -0.2036
 5386SOL     OW17703   2.973   2.060   2.824 -0.7937 -0.2133 -0.3547
 5386SOL    HW117704   2.988   2.155   2.816 -2.0205  0.0029 -0.3876
 5386SOL    HW217705   3.056   2.020   2.799 -0.5004  0.8445 -1.1490
 5387SOL     OW17706   0.784   5.617   6.365  0.7703  0.3703  0.1205
 5387SOL    HW117707   0.795   5.705   6.402 -0.8732  1.1329 -1.0613
 5387SOL    HW217708   0.704   5.624   6.312 -0.7085 -2.4278  1.7678
 5388SOL     OW17709   2.420   1.542   3.602  0.1468 -0.3467  0.0598
 5388SOL    HW117710   2.478   1.507   3.535  0.7418  0.8134 -0.0671
 5388SOL    HW217711   2.343   1.573   3.554 -0.2278 -1.1515  0.1329
 5389SOL     OW17712   6.033   4.524   0.584  0.0301  0.0799  0.2757
 5389SOL    HW117713   6.059   4.608   0.624  0.4649  0.5600 -0.9551
 5389SOL    HW217714   5.942   4.512   0.612 -0.7411  2.0124 -1.1614
 5390SOL     OW17715   5.149   0.255   5.800  0.0173  0.4097 -0.1583
 5390SOL    HW117716   5.234   0.285   5.832  0.5392 -0.3092 -0.8244
 5390SOL    HW217717   5.171   0.186   5.737 -1.0620  0.2387 -0.3555
 5391SOL     OW17718   4.813   6.590   5.708 -0.7985 -0.2770 -0.2877
 5391SOL    HW117719   4.737   6.648   5.710 -2.4471 -2.1948 -1.8310
 5391SOL    HW217720   4.810   6.550   5.621  1.2256 -1.4278  0.1028
 5392SOL     OW17721   0.118   4.343   2.491 -0.4799 -0.7983  0.7277
 5392SOL    HW117722   0.133   4.329   2.397 -1.1311 -2.1674  0.8166
 5392SOL    HW217723   0.204   4.370   2.524 -0.9420  3.4161 -0.8246
 5393SOL     OW17724   3.156   4.582   5.656  0.2580 -0.5404  0.3673
 5393SOL    HW117725   3.248   4.561   5.642  0.4826  0.7086 -0.2200
 5393SOL    HW217726   3.112   4.556   5.575  0.3446  0.1425  0.0923
 5394SOL     OW17727   3.387   4.210   4.252  0.0666  0.2071 -0.1379
 5394SOL    HW117728   3.328   4.284   4.236  1.7794  1.1373 -2.8042
 5394SOL    HW217729   3.379   4.155   4.175  2.3137  0.1608 -0.4192
 5395SOL     OW17730   3.352   4.877   2.672 -0.6875 -0.1165 -0.4156
 5395SOL    HW117731   3.402   4.934   2.613  0.7801 -1.3906 -0.4466
 5395SOL    HW217732   3.299   4.823   2.614  0.0213 -0.6950 -0.5336
 5396SOL     OW17733   6.377   0.798   4.919  0.0343 -0.0833 -0.3027
 5396SOL    HW117734   6.341   0.709   4.927 -0.0596 -0.3575 -2.8456
 5396SOL    HW217735   6.442   0.804   4.989  0.2217 -2.2555 -0.2255
 5397SOL     OW17736   1.077   5.922   0.679  0.6641  0.7193  0.2009
 5397SOL    HW117737   0.991   5.944   0.714  0.9879 -1.0381  2.2523
 5397SOL    HW217738   1.060   5.899   0.588 -0.8889  1.1945  0.3349
 5398SOL     OW17739   4.989   3.259   4.326  0.4090  0.1043 -0.2212
 5398SOL    HW117740   5.077   3.232   4.299  0.6149 -0.3469  0.8493
 5398SOL    HW217741   4.986   3.353   4.305  0.7822 -0.0823 -1.1609
 5399SOL     OW17742   2.112   2.534   0.024 -1.1109 -0.4621 -0.1247
 5399SOL    HW117743   2.147   2.586  -0.048  5.3248 -1.6598  1.5536
 5399SOL    HW217744   2.101   2.446  -0.014 -0.2987 -0.5037 -0.2796
 5400SOL     OW17745   2.275   4.814   5.127 -0.8388 -0.1393  0.0981
 5400SOL    HW117746   2.265   4.889   5.185 -2.4736 -0.3934  0.1860
 5400SOL    HW217747   2.362   4.825   5.089 -0.0679  0.5031  1.9094
 5401SOL     OW17748   2.650   0.520   3.747 -0.3759 -0.1421 -0.3544
 5401SOL    HW117749   2.622   0.562   3.829  0.1394  0.6443 -0.5739
 5401SOL    HW217750   2.591   0.557   3.681  1.3933  1.8819 -0.9015
 5402SOL     OW17751   1.064   3.649   5.179 -0.1349 -0.3531 -0.6858
 5402SOL    HW117752   1.154   3.674   5.199 -0.5054  0.3099  0.2254
 5402SOL    HW217753   1.026   3.724   5.133 -0.1710 -0.7019 -1.2325
 5403SOL     OW17754   6.073   0.669   5.104 -0.0050 -0.1604 -0.3779
 5403SOL    HW117755   6.071   0.751   5.055 -1.8506 -0.1248 -0.3160
 5403SOL    HW217756   6.104   0.604   5.041 -1.8279 -0.0196 -1.4886
 5404SOL     OW17757   3.783   5.562   3.156 -0.4785 -0.5894 -0.6773
 5404SOL    HW117758   3.706   5.545   3.210 -0.6311  1.3799 -0.2002
 5404SOL    HW217759   3.784   5.657   3.145  1.0542 -0.7087 -1.9323
 5405SOL     OW17760   4.189   6.741   5.953 -0.2835  0.1051 -0.5257
 5405SOL    HW117761   4.253   6.693   5.901 -0.6898  0.1070 -1.0375
 5405SOL    HW217762   4.134   6.672   5.992  0.1248  0.0962  0.0452
 5406SOL     OW17763   0.021   4.989   5.593 -0.2834  0.3038 -0.8984
 5406SOL    HW117764   0.075   5.003   5.671  0.2655  1.5082 -1.4823
 5406SOL    HW217765  -0.028   4.909   5.613  0.5769  0.0381  0.2728
 5407SOL     OW17766   0.752   4.712   3.320  0.0534 -0.3730  0.9924
 5407SOL    HW117767   0.824   4.722   3.258  0.4875 -0.4228  1.4808
 5407SOL    HW217768   0.766   4.625   3.359 -2.1430 -1.9224 -1.2801
 5408SOL     OW17769   3.819   2.883   5.013 -0.1941  0.5680 -0.0908
 5408SOL    HW117770   3.754   2.879   5.083  0.1854  1.7863  0.3679
 5408SOL    HW217771   3.891   2.829   5.043 -0.0662  1.0223  0.4359
 5409SOL     OW17772   1.336   6.415   0.184  0.2684  0.1844  0.1748
 5409SOL    HW117773   1.311   6.430   0.275  0.6440  1.3432  0.1098
 5409SOL    HW217774   1.342   6.503   0.147 -2.2947 -0.3057 -1.6467
 5410SOL     OW17775   5.855   0.245   3.394  0.2863  0.0589  0.8685
 5410SOL    HW117776   5.847   0.169   3.336  2.1375  1.5718 -1.5953
 5410SOL    HW217777   5.933   0.227   3.447  0.3358 -0.0278  0.7665
 5411SOL     OW17778   4.309   4.271   1.608  0.3134  0.5133 -0.7481
 5411SOL    HW117779   4.279   4.199   1.663 -1.7674  1.9956  0.2327
 5411SOL    HW217780   4.355   4.230   1.536 -1.8084 -1.8916 -0.8695
 5412SOL     OW17781   3.488   5.821   1.610  0.0490 -0.3404 -0.4411
 5412SOL    HW117782   3.493   5.728   1.631  3.0160 -0.0356  0.7198
 5412SOL    HW217783   3.547   5.833   1.536  2.0600  0.9733  1.2710
 5413SOL     OW17784   4.636   4.944   2.178 -0.4924  0.0478  0.2011
 5413SOL    HW117785   4.669   4.941   2.268  0.3119  1.1657 -0.0451
 5413SOL    HW217786   4.556   4.997   2.184  0.1598  1.0544  0.0846
 5414SOL     OW17787   0.365   3.571   2.056  0.0189 -0.5152 -0.1478
 5414SOL    HW117788   0.454   3.605   2.046 -0.6490  1.0792 -1.0843
 5414SOL    HW217789   0.309   3.640   2.019 -1.6599 -1.1269  1.1347
 5415SOL     OW17790   2.506   6.386   0.420 -0.5208  0.3619  1.3072
 5415SOL    HW117791   2.537   6.333   0.346 -0.1131  1.5813  0.5641
 5415SOL    HW217792   2.489   6.472   0.382 -0.2170  1.0473  2.6634
 5416SOL     OW17793   4.376   1.197   3.243 -0.1958 -0.3194  0.2237
 5416SOL    HW117794   4.438   1.125   3.231 -0.6784 -0.8075  0.6348
 5416SOL    HW217795   4.371   1.209   3.338 -0.1628  0.2273  0.1640
 5417SOL     OW17796   3.586   5.609   5.138  0.2116 -0.2353 -0.5186
 5417SOL    HW117797   3.634   5.533   5.103  1.0242  0.1785 -0.3258
 5417SOL    HW217798   3.511   5.570   5.183 -0.4288 -0.8209 -2.0121
 5418SOL     OW17799   4.713   0.174   2.028 -0.0440 -0.0668  0.1232
 5418SOL    HW117800   4.701   0.242   1.962 -0.6014  1.7112  1.9393
 5418SOL    HW217801   4.807   0.176   2.048  0.1553 -0.7363 -0.7246
 5419SOL     OW17802   5.393   2.841   0.068 -0.0246 -0.1348 -0.3319
 5419SOL    HW117803   5.399   2.768   0.007  0.1966  0.2595 -0.7899
 5419SOL    HW217804   5.353   2.912   0.018 -2.5257 -0.6671  0.7923
 5420SOL     OW17805   0.018   0.831   1.431 -0.6667 -0.2185 -0.6139
 5420SOL    HW117806   0.091   0.782   1.392  0.3046  0.3527  0.4456
 5420SOL    HW217807   0.033   0.922   1.405 -0.0381  0.1646  0.9633
 5421SOL     OW17808   0.511   5.276   0.196  0.1697 -0.0469 -0.0388
 5421SOL    HW117809   0.594   5.228   0.194 -1.1814 -2.5230 -1.0491
 5421SOL    HW217810   0.521   5.343   0.127  1.8637  0.7960  0.9564
 5422SOL     OW17811   6.513   4.168   5.659  0.5827 -0.0897 -0.1244
 5422SOL    HW117812   6.594   4.145   5.706  1.3911 -0.8971 -1.8271
 5422SOL    HW217813   6.494   4.092   5.605 -1.0228  0.3259 -0.1850
 5423SOL     OW17814   0.735   1.017   4.155  0.0467 -0.1112 -0.2294
 5423SOL    HW117815   0.800   1.057   4.097 -0.0156 -0.6428 -0.6730
 5423SOL    HW217816   0.671   1.087   4.171  1.2309  0.7421  1.0416
 5424SOL     OW17817   5.330   2.777   3.639  0.1396  0.6987  0.4370
 5424SOL    HW117818   5.329   2.682   3.642 -1.0855  0.4970 -2.8482
 5424SOL    HW217819   5.244   2.801   3.605 -0.6871  3.2366  3.6905
 5425SOL     OW17820   2.035   2.237   3.445 -0.4904 -0.6078 -0.0176
 5425SOL    HW117821   2.120   2.206   3.413 -1.2808  0.4607 -3.5491
 5425SOL    HW217822   2.054   2.323   3.483 -0.0692  0.0131 -1.5756
 5426SOL     OW17823   3.048   0.659   5.963 -0.6834 -0.8776  0.3188
 5426SOL    HW117824   3.026   0.570   5.990 -0.1234 -0.9627  0.5198
 5426SOL    HW217825   3.095   0.696   6.038 -1.1628 -0.3138  0.3454
 5427SOL     OW17826   1.153   4.782   1.548  0.2448 -0.4493 -0.5093
 5427SOL    HW117827   1.094   4.777   1.473  0.0158 -0.5178 -0.3291
 5427SOL    HW217828   1.232   4.825   1.515  1.2512 -2.9047 -1.4678
 5428SOL     OW17829   0.179   2.267   3.217 -0.5482 -0.1341 -0.9656
 5428SOL    HW117830   0.183   2.356   3.253  2.3868  0.4769 -2.5258
 5428SOL    HW217831   0.086   2.252   3.200 -0.9968  3.3107 -2.2009
 5429SOL     OW17832   1.949   5.480   6.623 -0.2364  0.1854  0.0247
 5429SOL    HW117833   1.875   5.448   6.572 -0.8472  1.2099  0.2512
 5429SOL    HW217834   1.993   5.543   6.565  0.6343 -0.6131 -0.2127
 5430SOL     OW17835   1.593   1.821   6.169 -0.1107  0.1368  0.3501
 5430SOL    HW117836   1.554   1.795   6.252 -1.6306  0.5925 -0.1839
 5430SOL    HW217837   1.660   1.754   6.152  0.4687  0.2156  2.0670
 5431SOL     OW17838   6.211   0.987   3.528  0.6746 -0.0512  1.3004
 5431SOL    HW117839   6.233   0.901   3.564  2.1197  0.6832  2.2919
 5431SOL    HW217840   6.242   1.048   3.595 -0.9782  1.2240  0.9441
 5432SOL     OW17841   1.263   3.990   2.145 -0.7335 -0.2472  0.5246
 5432SOL    HW117842   1.283   4.061   2.206  0.6292 -1.8935  2.1179
 5432SOL    HW217843   1.333   3.992   2.081 -0.1454 -0.7304  1.1399
 5433SOL     OW17844   0.437   4.096   4.663  0.2946  0.2778 -0.3365
 5433SOL    HW117845   0.412   4.085   4.755 -1.3205  0.5329 -0.7084
 5433SOL    HW217846   0.455   4.008   4.631  0.8990  0.1942  0.2264
 5434SOL     OW17847   6.652   2.824   0.884  0.3540  0.2256 -0.0503
 5434SOL    HW117848   6.571   2.800   0.841  0.3559 -0.0222  0.0793
 5434SOL    HW217849   6.645   2.918   0.901 -0.2758  0.0514  0.7367
 5435SOL     OW17850   1.793   0.420   6.504  0.3372 -0.2506  0.4857
 5435SOL    HW117851   1.756   0.467   6.430 -0.1175 -0.1176  0.7979
 5435SOL    HW217852   1.752   0.334   6.501  0.3655 -0.2666  0.5459
 5436SOL     OW17853   0.538   4.974   3.900  0.3005 -0.2012 -0.1384
 5436SOL    HW117854   0.482   5.046   3.871  1.0549 -0.1579 -1.5470
 5436SOL    HW217855   0.505   4.953   3.988 -1.0041  0.7430 -0.3642
 5437SOL     OW17856   1.143   4.505   3.715  0.4475  0.0563  0.2871
 5437SOL    HW117857   1.205   4.438   3.744  1.6468  0.2370 -1.6793
 5437SOL    HW217858   1.198   4.574   3.678 -0.8668  1.0239  0.0804
 5438SOL     OW17859   2.651   3.683   3.624 -0.0956 -0.0694 -0.8004
 5438SOL    HW117860   2.610   3.724   3.700 -0.3537  0.6170 -1.3037
 5438SOL    HW217861   2.735   3.729   3.615  0.3644 -0.7960 -0.3716
 5439SOL     OW17862   3.339   3.199   6.140 -0.6700 -0.3443  0.4690
 5439SOL    HW117863   3.430   3.196   6.169 -1.5724  1.2411  4.0265
 5439SOL    HW217864   3.343   3.186   6.045  3.0330 -2.2448  0.7109
 5440SOL     OW17865   4.063   6.581   4.272  0.1298 -0.3692 -0.3355
 5440SOL    HW117866   4.137   6.570   4.212 -0.3704 -0.2324 -1.0014
 5440SOL    HW217867   4.048   6.675   4.274 -0.8883 -0.4882 -1.3107
 5441SOL     OW17868   2.060   6.495   3.652  0.1911 -0.4371 -0.1573
 5441SOL    HW117869   2.068   6.467   3.743 -2.4911 -1.1448 -0.0444
 5441SOL    HW217870   2.064   6.414   3.601 -2.7258 -0.6659 -0.2189
 5442SOL     OW17871   4.692   3.699   3.175 -0.1765 -0.1132  0.5818
 5442SOL    HW117872   4.651   3.777   3.138  0.7459  1.2437  2.2541
 5442SOL    HW217873   4.778   3.695   3.134 -0.1618 -0.1456  0.6151
 5443SOL     OW17874   1.822   0.392   2.911  0.4552  0.0068  0.2811
 5443SOL    HW117875   1.729   0.384   2.894 -0.4649 -0.4497  4.5045
 5443SOL    HW217876   1.838   0.487   2.914  0.5029  0.1086 -1.5491
 5444SOL     OW17877   6.410   4.453   6.298 -0.1300  0.0122  0.3108
 5444SOL    HW117878   6.481   4.430   6.359 -1.0167 -0.7512  1.0812
 5444SOL    HW217879   6.390   4.370   6.253  1.6216  0.8542 -2.2960
 5445SOL     OW17880   6.726   6.347   3.192 -0.1667 -0.0172  0.2389
 5445SOL    HW117881   6.734   6.310   3.104 -0.5917 -0.9177  0.5705
 5445SOL    HW217882   6.816   6.368   3.217 -0.2410  2.6525 -1.3950
 5446SOL     OW17883   4.202   5.880   4.842  0.1882 -0.5020 -0.2203
 5446SOL    HW117884   4.206   5.927   4.924  1.5373 -0.4120 -0.3221
 5446SOL    HW217885   4.108   5.865   4.827 -0.0286 -1.5189  1.8839
 5447SOL     OW17886   6.006   3.030   0.406  0.3263 -0.1254 -0.0099
 5447SOL    HW117887   5.912   3.023   0.422  0.5829 -1.4560  1.0685
 5447SOL    HW217888   6.031   2.943   0.373  1.7476 -1.0221  3.0378
 5448SOL     OW17889   5.028   3.071   4.810  0.0621 -0.0545 -0.1614
 5448SOL    HW117890   4.993   3.087   4.722 -3.4775 -0.3829  1.0052
 5448SOL    HW217891   5.052   3.158   4.842  0.1915  0.2290 -1.0038
 5449SOL     OW17892   2.434   0.359   0.163 -0.2289 -0.0242 -0.5308
 5449SOL    HW117893   2.390   0.441   0.138 -0.2277  0.0431 -0.3120
 5449SOL    HW217894   2.442   0.311   0.081 -1.0900 -0.2247 -0.5068
 5450SOL     OW17895   3.218   3.276   3.416  0.0418  0.3114 -0.1563
 5450SOL    HW117896   3.265   3.193   3.426  0.2546  0.3687 -0.6403
 5450SOL    HW217897   3.128   3.256   3.442  0.3655  0.2478  0.9793
 5451SOL     OW17898   1.859   6.193   1.020  0.0905  0.1664  0.8148
 5451SOL    HW117899   1.791   6.200   0.953  0.0186  0.9488  0.9592
 5451SOL    HW217900   1.814   6.157   1.096  0.0671 -0.2699  0.5995
 5452SOL     OW17901   6.454   2.884   4.032 -0.3378 -0.4388  0.1116
 5452SOL    HW117902   6.390   2.926   3.975  0.2484 -0.8597 -0.8946
 5452SOL    HW217903   6.455   2.792   4.003  1.8113 -0.1413 -1.0088
 5453SOL     OW17904   1.557   6.117   3.847  0.1776 -0.3074 -0.2039
 5453SOL    HW117905   1.513   6.055   3.788  0.9069  0.5886 -1.7692
 5453SOL    HW217906   1.636   6.143   3.799  0.3925  1.0668  0.8413
 5454SOL     OW17907   1.524   4.429   0.806 -0.0104  0.0648  0.0568
 5454SOL    HW117908   1.465   4.407   0.878  0.9207 -0.8396  0.5819
 5454SOL    HW217909   1.509   4.361   0.741 -1.9479  1.7162 -1.3454
 5455SOL     OW17910   5.901   5.081   5.084 -0.0430 -0.4464 -0.1837
 5455SOL    HW117911   5.985   5.044   5.056 -0.3720 -1.2355 -0.1437
 5455SOL    HW217912   5.872   5.025   5.156 -0.0088  0.5705  0.6589
 5456SOL     OW17913   2.339   3.766   0.585 -0.1429 -0.2276 -0.5375
 5456SOL    HW117914   2.302   3.720   0.511 -0.8532  1.2283 -1.1336
 5456SOL    HW217915   2.394   3.834   0.546  1.0151 -0.6551  0.3082
 5457SOL     OW17916   4.281   1.869   6.202  0.2622  0.5502  0.2863
 5457SOL    HW117917   4.251   1.904   6.118  0.4170  1.0050  0.4175
 5457SOL    HW217918   4.343   1.934   6.234  2.7242 -1.1063 -0.7549
 5458SOL     OW17919   1.920   3.790   3.339 -0.0650 -0.0528 -0.3312
 5458SOL    HW117920   1.955   3.704   3.363  1.0987  0.5373  0.1869
 5458SOL    HW217921   1.855   3.809   3.406  0.3226 -0.1356  0.0703
 5459SOL     OW17922   6.218   3.780   5.268 -0.1218  0.5953  0.3465
 5459SOL    HW117923   6.139   3.786   5.214 -0.7935 -0.1526  1.2076
 5459SOL    HW217924   6.229   3.686   5.284  1.1359  0.6653 -0.0233
 5460SOL     OW17925   4.530   6.331   1.761  0.6076  0.0569 -0.0177
 5460SOL    HW117926   4.545   6.307   1.853  3.3773  0.3235 -0.3032
 5460SOL    HW217927   4.531   6.427   1.760 -0.5197  0.0799 -0.2057
 5461SOL     OW17928   0.022   3.032   4.134  0.1037  0.0110  0.1731
 5461SOL    HW117929   0.012   2.977   4.057  1.8826  1.2188 -1.0064
 5461SOL    HW217930   0.095   2.993   4.182  1.4643  1.3308 -0.7407
 5462SOL     OW17931   3.532   5.403   1.299  0.0906  0.6525 -0.0590
 5462SOL    HW117932   3.487   5.422   1.217 -2.0924 -1.2065  0.5908
 5462SOL    HW217933   3.621   5.377   1.273 -0.2690  0.9969 -1.7234
 5463SOL     OW17934   4.238   5.143   4.199  0.0519 -0.0625  0.2668
 5463SOL    HW117935   4.190   5.219   4.166  0.4387  0.8553  1.7133
 5463SOL    HW217936   4.259   5.092   4.121 -1.1109  0.7859 -0.6287
 5464SOL     OW17937   3.823   2.719   2.852  0.0845 -0.2220 -0.6113
 5464SOL    HW117938   3.900   2.676   2.890 -0.2168  1.1356  1.7673
 5464SOL    HW217939   3.858   2.795   2.807  0.1749  0.8047  1.0872
 5465SOL     OW17940   2.699   2.174   0.502 -0.2216  0.2027  0.4083
 5465SOL    HW117941   2.775   2.120   0.522  0.7796  0.4587 -2.2507
 5465SOL    HW217942   2.624   2.122   0.531  0.7844 -1.9049 -0.5476
 5466SOL     OW17943   2.515   0.012   2.505 -0.5577 -0.1730  0.3260
 5466SOL    HW117944   2.579  -0.048   2.545  0.0308 -0.3348 -0.8092
 5466SOL    HW217945   2.450  -0.046   2.466  0.8498 -0.2226 -2.1776
 5467SOL     OW17946   2.481   5.015   0.564  0.6892  0.1561 -0.4033
 5467SOL    HW117947   2.441   4.928   0.553  2.5671 -0.5825 -2.0192
 5467SOL    HW217948   2.525   5.011   0.649  1.1146 -0.6638 -0.6457
 5468SOL     OW17949   3.303   5.245   4.222  0.1204  0.0399  0.0301
 5468SOL    HW117950   3.352   5.309   4.171  0.7454 -0.4719 -0.0322
 5468SOL    HW217951   3.360   5.225   4.296  0.0417 -0.6205 -0.0802
 5469SOL     OW17952   1.987   5.955   1.708  0.2323 -0.5170 -0.0545
 5469SOL    HW117953   2.075   5.984   1.687  0.2533  0.4631  1.2299
 5469SOL    HW217954   1.956   5.911   1.629  0.8033  1.6223 -1.5633
 5470SOL     OW17955   6.533   6.229   0.309 -0.3438 -0.1332  0.1955
 5470SOL    HW117956   6.455   6.237   0.365 -0.5614 -2.0391  0.2318
 5470SOL    HW217957   6.606   6.256   0.365 -0.8148  0.2280  0.6403
 5471SOL     OW17958   3.523   0.848   6.357  0.3013  0.2055  0.4441
 5471SOL    HW117959   3.608   0.881   6.328  0.4400 -0.2298  0.3595
 5471SOL    HW217960   3.470   0.846   6.277  0.1764  0.5806  0.5155
 5472SOL     OW17961   0.204   2.862   1.940 -0.5431 -0.0058 -0.7594
 5472SOL    HW117962   0.208   2.792   1.875 -0.5019  0.4876 -1.2929
 5472SOL    HW217963   0.283   2.913   1.926 -0.6207  0.2092 -0.4353
 5473SOL     OW17964   0.243   3.055   3.925 -0.0294 -0.1086  0.1882
 5473SOL    HW117965   0.313   3.098   3.877 -1.1923  1.0221 -0.5477
 5473SOL    HW217966   0.228   3.110   4.002 -0.5852  0.0429 -0.0268
 5474SOL     OW17967   6.276   6.289   6.378  0.3809 -0.2400  0.3831
 5474SOL    HW117968   6.319   6.326   6.455  2.1653  1.0880 -1.1451
 5474SOL    HW217969   6.346   6.242   6.332 -0.3314  0.0523 -1.0533
 5475SOL     OW17970   2.108   3.814   1.827 -0.3285  0.1765 -0.6581
 5475SOL    HW117971   2.198   3.830   1.855 -0.5285  0.3664 -0.1141
 5475SOL    HW217972   2.115   3.748   1.758  0.2541  0.4217 -0.8382
 5476SOL     OW17973   6.571   1.725   2.453 -0.3638 -0.2899 -0.3277
 5476SOL    HW117974   6.595   1.632   2.454  0.5116 -0.0862  0.8466
 5476SOL    HW217975   6.486   1.728   2.409 -0.9986 -1.7977  0.7156
 5477SOL     OW17976   6.354   1.355   5.878 -0.1914  0.6038  0.4266
 5477SOL    HW117977   6.293   1.289   5.912 -0.4170  1.2698  1.3919
 5477SOL    HW217978   6.413   1.372   5.952  1.4745 -0.3541 -0.6401
 5478SOL     OW17979   4.466   3.148   5.090  0.5886  0.3324  0.0017
 5478SOL    HW117980   4.530   3.099   5.038  0.9683  1.6183 -0.7801
 5478SOL    HW217981   4.432   3.214   5.030  0.1157  1.0568  1.0393
 5479SOL     OW17982   1.774   4.568   2.360  0.9552  0.5777 -0.4539
 5479SOL    HW117983   1.729   4.602   2.283 -0.5872 -0.6181 -0.1260
 5479SOL    HW217984   1.745   4.625   2.432  0.0651 -0.0747 -0.2767
 5480SOL     OW17985   4.642   4.142   1.847  0.1255 -0.4913  0.2960
 5480SOL    HW117986   4.655   4.211   1.782 -0.5184  1.0546  1.7198
 5480SOL    HW217987   4.730   4.116   1.874  0.3918 -1.1283 -1.1360
 5481SOL     OW17988   0.979   3.655   3.205  0.7102 -0.4552  0.0608
 5481SOL    HW117989   0.930   3.576   3.181 -1.4187  0.6064  0.6560
 5481SOL    HW217990   0.986   3.705   3.124  0.5946 -0.5126  0.0148
 5482SOL     OW17991   4.968   4.813   4.246  0.0990 -0.0761  0.5102
 5482SOL    HW117992   5.009   4.731   4.219 -0.8852 -0.4684  0.1365
 5482SOL    HW217993   4.972   4.869   4.168  1.4668  0.5419  0.9924
 5483SOL     OW17994   5.716   3.648   2.004  0.3308  0.3090  0.3670
 5483SOL    HW117995   5.800   3.615   1.974  0.4596  0.6045  0.4026
 5483SOL    HW217996   5.726   3.660   2.098  0.6619  1.5338  0.1990
 5484SOL     OW17997   1.341   4.911   1.408  0.2520 -0.2121  0.0703
 5484SOL    HW117998   1.435   4.909   1.425  0.4750  1.2768 -0.8412
 5484SOL    HW217999   1.313   4.997   1.438 -1.2577 -1.3480  2.2331
 5485SOL     OW18000   1.319   4.485   3.467  0.1305 -0.5561  0.0346
 5485SOL    HW118001   1.305   4.403   3.515  1.8131 -1.1538 -0.4305
 5485SOL    HW218002   1.319   4.459   3.375  1.2769 -0.1489 -0.0899
 5486SOL     OW18003   0.785   1.937   0.531 -0.0173 -0.2826  0.2136
 5486SOL    HW118004   0.760   2.030   0.526  0.6309 -0.1400 -0.7296
 5486SOL    HW218005   0.747   1.899   0.452 -1.3045 -1.1031  1.1883
 5487SOL     OW18006   4.908   0.362   5.923  0.0105 -0.7315  0.0595
 5487SOL    HW118007   4.848   0.291   5.902  0.2307 -0.7766 -0.4413
 5487SOL    HW218008   4.995   0.328   5.900  0.1940 -0.5592  0.4900
 5488SOL     OW18009   1.897   5.655   2.622 -0.3335 -0.3949  0.2088
 5488SOL    HW118010   1.972   5.713   2.633  0.1922 -1.1269  0.5040
 5488SOL    HW218011   1.915   5.581   2.679  0.6393 -2.4612 -2.5417
 5489SOL     OW18012   0.349   0.799   0.301 -0.4522  0.0235  0.4728
 5489SOL    HW118013   0.330   0.765   0.389 -1.1110 -0.0976  0.2866
 5489SOL    HW218014   0.266   0.792   0.254 -0.3786  1.1203  0.1681
 5490SOL     OW18015   6.796   5.946   0.427  0.2638  0.7971 -0.0767
 5490SOL    HW118016   6.722   6.004   0.414 -2.0915 -2.2617 -1.7313
 5490SOL    HW218017   6.841   5.946   0.342  0.1726  0.1721 -0.1314
 5491SOL     OW18018   3.403   1.137   0.130 -0.0543  0.3952  0.3424
 5491SOL    HW118019   3.447   1.161   0.048 -2.5120 -2.0737 -1.9005
 5491SOL    HW218020   3.313   1.168   0.118 -1.0151 -1.9338  1.0931
 5492SOL     OW18021   5.180   0.697   3.033 -0.0195 -0.0409 -0.0309
 5492SOL    HW118022   5.184   0.686   2.938 -1.2534 -1.0021  0.0039
 5492SOL    HW218023   5.162   0.609   3.067  1.3145  0.1277  1.1690
 5493SOL     OW18024   0.814   2.553   5.594 -0.1661 -0.2453  0.1029
 5493SOL    HW118025   0.818   2.609   5.517 -3.2628 -1.3892 -1.0349
 5493SOL    HW218026   0.734   2.578   5.639 -0.0464 -1.7111  1.2332
 5494SOL     OW18027   0.876   4.143   0.350 -0.2514  0.1454 -0.4162
 5494SOL    HW118028   0.816   4.144   0.424  1.1365  0.1272  0.7445
 5494SOL    HW218029   0.948   4.086   0.378 -0.4713 -1.2438 -2.4313
 5495SOL     OW18030   6.421   3.341   1.535  0.0126  0.1284 -0.0966
 5495SOL    HW118031   6.499   3.300   1.572 -0.4468 -0.2534  0.4544
 5495SOL    HW218032   6.394   3.283   1.464  0.3287  0.3548 -0.4060
 5496SOL     OW18033   1.848   6.045   2.754  0.4152  0.8559  0.1826
 5496SOL    HW118034   1.807   6.034   2.667  1.8895  0.9213 -0.5474
 5496SOL    HW218035   1.916   6.111   2.740  1.5534 -0.0978  1.0867
 5497SOL     OW18036   5.747   3.027   4.126 -0.6376 -0.2574  0.1827
 5497SOL    HW118037   5.720   3.003   4.215 -1.4192 -0.2770 -0.0532
 5497SOL    HW218038   5.673   3.076   4.091  0.4709  1.5234  0.2381
 5498SOL     OW18039   5.536   0.300   4.882 -0.0227  0.0987 -0.4961
 5498SOL    HW118040   5.444   0.305   4.856 -0.1798 -0.4315 -0.0443
 5498SOL    HW218041   5.573   0.384   4.853 -1.5773  2.2152  2.9159
 5499SOL     OW18042   1.016   1.691   6.179 -0.4270 -0.0198 -0.2214
 5499SOL    HW118043   0.925   1.672   6.201 -0.6349 -0.6507 -1.5049
 5499SOL    HW218044   1.062   1.609   6.197 -0.3992 -0.1814 -0.9739
 5500SOL     OW18045   4.455   4.337   6.777 -0.0582 -0.7103  0.6618
 5500SOL    HW118046   4.516   4.264   6.774  0.4857 -0.2469  0.3264
 5500SOL    HW218047   4.503   4.410   6.740 -0.7358 -0.2787  0.6189
 5501SOL     OW18048   5.769   0.335   2.371 -0.2188  0.3538 -0.2399
 5501SOL    HW118049   5.697   0.389   2.337 -0.3649 -0.1856 -0.8091
 5501SOL    HW218050   5.729   0.282   2.440 -0.3545  0.1289 -0.4858
 5502SOL     OW18051   4.913   4.423   3.948  0.2898 -0.0943 -0.4895
 5502SOL    HW118052   4.878   4.386   4.030 -1.2007  1.6303 -0.2804
 5502SOL    HW218053   4.958   4.503   3.975  1.8312 -0.6992 -1.1390
 5503SOL     OW18054   6.711   5.970   4.202 -0.3640 -0.2184 -0.4840
 5503SOL    HW118055   6.779   5.903   4.195 -1.6590 -1.6397 -0.1211
 5503SOL    HW218056   6.671   5.953   4.288 -0.6035  1.1674 -0.3003
 5504SOL     OW18057   5.703   0.647   2.911 -0.0710 -0.5476  0.1057
 5504SOL    HW118058   5.700   0.643   3.007 -0.0630  0.1241  0.1385
 5504SOL    HW218059   5.622   0.603   2.883 -1.0140  0.8890  0.4785
 5505SOL     OW18060   3.011   0.061   2.079 -0.0751 -0.5229 -0.1393
 5505SOL    HW118061   3.076   0.074   2.147  1.6119 -1.8007 -1.4285
 5505SOL    HW218062   3.054   0.087   1.998 -1.1585 -1.3891 -1.0401
 5506SOL     OW18063   6.799   1.131   4.464 -0.9769 -0.3218 -0.6362
 5506SOL    HW118064   6.860   1.110   4.394  2.8663  2.2221  1.5564
 5506SOL    HW218065   6.823   1.073   4.536 -1.1282  0.6926  0.2692
 5507SOL     OW18066   1.729   5.256   2.325 -0.5431 -0.0136 -0.0394
 5507SOL    HW118067   1.722   5.185   2.262  2.4613  0.9426 -1.6155
 5507SOL    HW218068   1.818   5.251   2.359 -0.1691  2.9425 -0.2515
 5508SOL     OW18069   0.057   5.513   2.793  0.1420  0.0792 -0.1767
 5508SOL    HW118070   0.029   5.499   2.883  0.9932 -1.0950 -0.0777
 5508SOL    HW218071   0.003   5.586   2.762 -0.5382  0.1369  1.1004
 5509SOL     OW18072   5.922   5.724   3.766  0.2453 -0.4343 -0.1624
 5509SOL    HW118073   5.977   5.690   3.837  0.1674  1.3447  0.7826
 5509SOL    HW218074   5.833   5.701   3.792  0.3178 -1.0229 -0.4072
 5510SOL     OW18075   5.972   4.460   3.675 -0.0978  0.0584 -0.0220
 5510SOL    HW118076   6.041   4.525   3.662 -0.0150  0.2321  1.1408
 5510SOL    HW218077   6.009   4.379   3.639  0.3291  0.3604 -0.2752
 5511SOL     OW18078   1.767   4.792   3.015 -0.6956  0.0051  0.3362
 5511SOL    HW118079   1.773   4.847   2.937 -1.5948 -2.6548 -1.7535
 5511SOL    HW218080   1.806   4.845   3.084  0.2066  2.4854 -1.8966
 5512SOL     OW18081   3.929   4.721   3.075 -0.5540  0.2473 -0.2995
 5512SOL    HW118082   3.929   4.644   3.133 -0.1357 -0.8997 -1.7620
 5512SOL    HW218083   4.007   4.710   3.022 -2.0510  0.0762 -2.5875
 5513SOL     OW18084   2.351   2.612   1.616  0.4301 -0.1548 -0.6808
 5513SOL    HW118085   2.352   2.538   1.556 -0.7973 -0.6858 -0.0694
 5513SOL    HW218086   2.407   2.584   1.688 -1.0468 -1.0550  0.1663
 5514SOL     OW18087   2.501   3.838   2.172  0.0956  0.2698 -0.3367
 5514SOL    HW118088   2.563   3.769   2.198 -0.6194  0.7546  3.1685
 5514SOL    HW218089   2.557   3.911   2.144  0.9242 -0.6992 -1.3179
 5515SOL     OW18090   0.157   4.318   2.169  0.2811 -0.1136 -0.2926
 5515SOL    HW118091   0.073   4.288   2.204 -0.0784 -2.2091 -2.5921
 5515SOL    HW218092   0.143   4.410   2.147 -1.2200 -0.2718 -0.0846
 5516SOL     OW18093   1.243   0.769   0.054  0.4035 -0.4241 -0.3016
 5516SOL    HW118094   1.188   0.782   0.131  2.7190  0.5963  1.3272
 5516SOL    HW218095   1.191   0.801  -0.019 -1.9903 -1.6662  0.7733
 5517SOL     OW18096   2.899   0.705   1.703  0.8597 -0.4297 -0.0873
 5517SOL    HW118097   2.882   0.611   1.698  2.0446 -0.6243 -0.8428
 5517SOL    HW218098   2.889   0.736   1.613 -0.5947  0.3871  0.3288
 5518SOL     OW18099   4.228   1.024   5.063 -0.1159 -0.0391  0.3504
 5518SOL    HW118100   4.207   0.976   4.982 -1.4817  0.9857  0.0451
 5518SOL    HW218101   4.144   1.031   5.108  0.0308  2.0093  0.3873
 5519SOL     OW18102   6.706   1.851   2.034  0.0403  0.0180 -0.2324
 5519SOL    HW118103   6.780   1.791   2.022 -0.7282 -1.3050  1.2613
 5519SOL    HW218104   6.639   1.797   2.076 -1.1327  1.6563  0.0725
 5520SOL     OW18105   1.275   2.278   5.975  0.3924 -0.0373 -0.0855
 5520SOL    HW118106   1.369   2.273   5.988  0.5061  0.1491 -0.8225
 5520SOL    HW218107   1.263   2.289   5.880 -0.4054 -1.2937 -0.1645
 5521SOL     OW18108   1.221   0.399   2.953 -0.7119  0.3319  1.0325
 5521SOL    HW118109   1.199   0.469   3.014 -1.8636  0.2577  0.7286
 5521SOL    HW218110   1.201   0.318   3.000 -2.7459  0.2870  0.2054
 5522SOL     OW18111   2.790   1.558   3.623 -0.2979 -0.5951 -0.0058
 5522SOL    HW118112   2.729   1.612   3.573 -2.6797 -1.7649  1.4394
 5522SOL    HW218113   2.813   1.487   3.563  1.0481  0.7103 -1.1254
 5523SOL     OW18114   6.165   4.417   2.252  0.3079 -0.0825 -0.5454
 5523SOL    HW118115   6.071   4.410   2.271  0.1629  1.6995 -0.4258
 5523SOL    HW218116   6.207   4.368   2.323 -0.5156 -0.5072 -0.3406
 5524SOL     OW18117   6.121   4.259   0.570  0.0682  0.1945  0.1778
 5524SOL    HW118118   6.104   4.350   0.596 -0.8793  0.4620 -1.2194
 5524SOL    HW218119   6.069   4.206   0.630  0.1057  0.6226  0.5870
 5525SOL     OW18120   1.724   0.718   0.159  0.3815  0.2330  0.0658
 5525SOL    HW118121   1.805   0.724   0.209 -0.6784  0.6766  1.8203
 5525SOL    HW218122   1.676   0.645   0.198 -0.9824  1.3205  0.5276
 5526SOL     OW18123   0.936   6.040   6.527 -0.0205  0.0318 -0.7033
 5526SOL    HW118124   0.992   5.985   6.581 -0.1301 -0.2126 -0.8410
 5526SOL    HW218125   0.942   6.127   6.568 -0.5636 -0.2799  0.0534
 5527SOL     OW18126   0.982   0.781   1.244 -0.9609  0.0367 -0.3505
 5527SOL    HW118127   1.045   0.711   1.224 -0.9379 -0.1657  0.4208
 5527SOL    HW218128   0.949   0.808   1.158  0.4256  0.3894 -0.8075
 5528SOL     OW18129   2.982   3.875   2.438  0.0202 -0.1277 -0.2209
 5528SOL    HW118130   2.929   3.954   2.429 -0.0353 -0.1631 -0.2091
 5528SOL    HW218131   2.927   3.805   2.402 -0.5705 -0.4191  1.1670
 5529SOL     OW18132   0.516   4.258   3.712 -0.0795  0.1000 -1.0329
 5529SOL    HW118133   0.559   4.202   3.647 -0.2617 -0.5461 -0.6062
 5529SOL    HW218134   0.577   4.259   3.786 -0.7617 -0.7827 -0.4415
 5530SOL     OW18135   1.918   3.033   2.859  0.3256  0.0042  0.2064
 5530SOL    HW118136   1.868   3.066   2.784  1.6022  0.4707 -0.4861
 5530SOL    HW218137   1.893   2.941   2.866  0.6068 -0.2039 -1.1744
 5531SOL     OW18138   6.047   4.857   5.619 -0.3883  0.4406 -0.3339
 5531SOL    HW118139   6.099   4.898   5.688 -2.8191  0.3108  1.7491
 5531SOL    HW218140   6.053   4.917   5.545 -0.0380  2.1534  1.0169
 5532SOL     OW18141   0.619   4.345   0.121  0.0611  0.0437  0.1513
 5532SOL    HW118142   0.559   4.348   0.046 -0.0033  0.2634  0.2107
 5532SOL    HW218143   0.674   4.268   0.105  0.9296  0.8284 -0.8060
 5533SOL     OW18144   2.362   6.091   4.837 -0.4472 -0.4618  0.3030
 5533SOL    HW118145   2.337   6.156   4.903 -0.5320 -0.4936  0.3013
 5533SOL    HW218146   2.316   6.011   4.863 -2.2307  0.0788 -1.0085
 5534SOL     OW18147   4.979   1.952   2.373 -0.7462  0.0617 -0.4250
 5534SOL    HW118148   5.051   1.920   2.428  0.5441 -0.7219 -2.4444
 5534SOL    HW218149   4.918   1.879   2.368  1.0151 -1.4217 -3.0362
 5535SOL     OW18150   0.685   3.359   1.465 -0.0957  0.5517  0.3410
 5535SOL    HW118151   0.667   3.447   1.498 -1.6328  0.6064 -0.5576
 5535SOL    HW218152   0.736   3.374   1.385 -1.8264  0.7494 -0.7695
 5536SOL     OW18153   2.804   0.758   4.345  0.6443 -0.3523 -0.2712
 5536SOL    HW118154   2.795   0.760   4.440  0.9100 -0.4953 -0.2405
 5536SOL    HW218155   2.766   0.841   4.316 -4.8997 -2.5684 -0.5846
 5537SOL     OW18156   1.026   2.383   5.869  0.3717  0.6653 -0.0534
 5537SOL    HW118157   1.098   2.358   5.927 -0.9027  1.5595  2.0298
 5537SOL    HW218158   1.069   2.419   5.792  2.1537 -0.5122  0.3322
 5538SOL     OW18159   6.192   2.304   1.508  0.1144 -0.1873  0.2068
 5538SOL    HW118160   6.213   2.286   1.416  2.6302 -1.8287  0.9810
 5538SOL    HW218161   6.235   2.233   1.556 -1.8574  0.1271  2.6171
 5539SOL     OW18162   1.577   4.183   3.934 -0.2688  0.2625  0.2986
 5539SOL    HW118163   1.532   4.133   4.002 -0.8746  0.9658  0.4281
 5539SOL    HW218164   1.632   4.119   3.889 -1.4509 -0.6342  0.0910
 5540SOL     OW18165   6.510   1.651   2.939  0.1620 -0.2806 -0.4896
 5540SOL    HW118166   6.472   1.594   3.007  0.4872  0.1502  0.0599
 5540SOL    HW218167   6.522   1.735   2.982  0.0400  0.1063 -1.1928
 5541SOL     OW18168   3.542   1.775   4.591  0.0070 -0.0170 -0.0495
 5541SOL    HW118169   3.482   1.832   4.543  0.3449  0.2674 -0.1383
 5541SOL    HW218170   3.613   1.757   4.529 -1.7802 -3.4790 -1.3751
 5542SOL     OW18171   0.268   0.232   0.043  0.1473 -0.2404 -0.3391
 5542SOL    HW118172   0.177   0.233   0.010  0.5231  0.4349 -1.4190
 5542SOL    HW218173   0.280   0.318   0.082 -0.1350 -0.8676  1.2207
 5543SOL     OW18174   5.502   0.448   0.129 -0.4903 -0.4856 -0.4254
 5543SOL    HW118175   5.498   0.422   0.037 -1.4041  0.3541 -0.6445
 5543SOL    HW218176   5.482   0.542   0.128  0.3637 -0.2717  0.5545
 5544SOL     OW18177   1.983   3.612   6.010 -0.3984 -0.3852 -0.3168
 5544SOL    HW118178   1.946   3.698   6.031  0.0142 -0.2260 -0.2288
 5544SOL    HW218179   1.934   3.551   6.065 -0.6351 -0.1969 -0.3156
 5545SOL     OW18180   2.050   4.487   0.039  0.4581  0.3930  0.3984
 5545SOL    HW118181   2.062   4.552   0.108  1.1169  0.9697 -0.2553
 5545SOL    HW218182   2.131   4.436   0.039 -0.1630 -0.6452  1.1054
 5546SOL     OW18183   4.018   3.370   0.089  0.0338  0.0393  0.7635
 5546SOL    HW118184   4.114   3.364   0.093  0.1580  1.1697  0.0024
 5546SOL    HW218185   3.997   3.354  -0.003 -0.4699  0.2764  0.8334
 5547SOL     OW18186   4.519   5.942   0.410 -0.3032 -0.2577 -0.0914
 5547SOL    HW118187   4.451   5.933   0.477  0.4777  0.1966  0.7858
 5547SOL    HW218188   4.487   6.013   0.353 -0.2635  0.4089  0.6963
 5548SOL     OW18189   5.492   0.001   2.935 -0.0642  0.4009  0.0614
 5548SOL    HW118190   5.515  -0.037   2.850 -1.5568 -2.4741  0.7905
 5548SOL    HW218191   5.448   0.083   2.913  2.8827  1.6800 -1.6695
 5549SOL     OW18192   2.355   4.643   5.862 -0.0383 -0.1310 -0.3191
 5549SOL    HW118193   2.402   4.643   5.779  0.4051  0.3905 -0.0739
 5549SOL    HW218194   2.376   4.728   5.902 -0.5147 -0.2363  0.1726
 5550SOL     OW18195   0.398   0.854   6.524  0.1295 -0.7767 -0.1285
 5550SOL    HW118196   0.468   0.870   6.461 -0.4585 -2.4235 -1.2713
 5550SOL    HW218197   0.383   0.760   6.521 -0.8884 -0.7147  1.4586
 5551SOL     OW18198   2.874   5.508   1.437  0.2732 -0.5117 -0.6727
 5551SOL    HW118199   2.920   5.569   1.495  0.9133  0.9637 -2.6487
 5551SOL    HW218200   2.814   5.461   1.495 -0.3000  2.0238  0.9374
 5552SOL     OW18201   1.791   3.164   2.261 -0.2476 -0.3406  0.3004
 5552SOL    HW118202   1.858   3.152   2.328 -0.8906  0.2913  1.0794
 5552SOL    HW218203   1.742   3.240   2.291 -0.3715  0.1207 -1.0469
 5553SOL     OW18204   3.953   0.048   5.932 -0.3729 -0.8061 -0.4412
 5553SOL    HW118205   3.922   0.040   6.022 -0.6753  0.4351 -0.4110
 5553SOL    HW218206   4.046   0.028   5.936 -0.6454 -2.0383 -0.0837
 5554SOL     OW18207   6.136   1.797   0.498 -0.5127  0.6170  0.0347
 5554SOL    HW118208   6.170   1.873   0.545 -1.6599  1.2878 -0.1943
 5554SOL    HW218209   6.175   1.802   0.411 -0.2285  0.6837  0.1667
 5555SOL     OW18210   5.324   3.484   6.271  0.4935 -0.3556 -0.5673
 5555SOL    HW118211   5.348   3.394   6.248  0.6360 -0.5065  0.1453
 5555SOL    HW218212   5.385   3.508   6.341 -0.2058 -0.0663 -0.0493
 5556SOL     OW18213   1.863   4.514   1.503  0.2371 -0.1611  0.2252
 5556SOL    HW118214   1.834   4.604   1.518  0.1924 -0.4647  2.2321
 5556SOL    HW218215   1.957   4.516   1.518  0.4946 -0.1871 -1.2230
 5557SOL     OW18216   6.617   4.802   6.212 -0.2596  0.4782  0.3578
 5557SOL    HW118217   6.593   4.813   6.304 -0.5682 -0.2648  0.3753
 5557SOL    HW218218   6.712   4.808   6.211 -0.2927  1.1132  0.6322
 5558SOL     OW18219   4.387   5.083   3.049  0.1995  0.2559 -0.0688
 5558SOL    HW118220   4.390   4.997   3.090  0.0619  0.7408  0.9742
 5558SOL    HW218221   4.475   5.119   3.061  0.3043  0.2079 -0.6446
 5559SOL     OW18222   1.711   2.830   1.075  0.7813 -0.4512 -0.4782
 5559SOL    HW118223   1.699   2.918   1.041 -1.3627 -0.6127 -0.3337
 5559SOL    HW218224   1.717   2.840   1.170  3.8975 -0.2384 -0.6223
 5560SOL     OW18225   5.301   1.370   5.385 -0.5861  0.1985 -0.3602
 5560SOL    HW118226   5.352   1.351   5.306 -1.6294 -0.1831 -0.9763
 5560SOL    HW218227   5.252   1.449   5.363 -0.2314  0.5913  0.2419
 5561SOL     OW18228   3.832   3.836   2.673  0.5792 -0.2577  0.8472
 5561SOL    HW118229   3.783   3.911   2.708  1.2338 -0.4723  2.2602
 5561SOL    HW218230   3.864   3.867   2.588  0.6942  0.9996  1.3261
 5562SOL     OW18231   1.711   5.654   5.904  0.0816 -0.2737 -0.3853
 5562SOL    HW118232   1.639   5.602   5.867 -0.0914  0.4715 -1.1394
 5562SOL    HW218233   1.776   5.590   5.930 -0.3034 -0.8951 -0.9152
 5563SOL     OW18234   1.792   3.975   1.583  0.1819 -0.7084  0.3117
 5563SOL    HW118235   1.883   3.979   1.553 -0.1456 -3.8761 -1.5686
 5563SOL    HW218236   1.765   4.066   1.588  2.9892  0.3024 -0.5773
 5564SOL     OW18237   6.721   5.444   2.314 -0.6997 -0.3972 -0.2243
 5564SOL    HW118238   6.704   5.478   2.402 -0.4144 -2.1003  0.5293
 5564SOL    HW218239   6.793   5.381   2.326 -0.9778 -1.0084 -1.5900
 5565SOL     OW18240   2.541   3.268   2.931  0.1909  0.5941  0.2770
 5565SOL    HW118241   2.533   3.277   3.026  0.6960 -0.7589  0.4657
 5565SOL    HW218242   2.590   3.346   2.903  1.2975  0.2991  1.3249
 5566SOL     OW18243   3.410   3.557   1.270  0.8500 -0.7447  0.8342
 5566SOL    HW118244   3.359   3.507   1.206  2.2590 -0.8931 -0.2093
 5566SOL    HW218245   3.353   3.630   1.293 -1.4156 -2.9011  2.6446
 5567SOL     OW18246   2.554   1.529   0.588  0.0211 -0.2619 -0.2671
 5567SOL    HW118247   2.649   1.516   0.600  0.3379  0.9471 -1.3463
 5567SOL    HW218248   2.546   1.580   0.508 -1.3590  2.3677  1.3861
 5568SOL     OW18249   5.232   5.211   1.837  0.5687 -0.0104  0.2548
 5568SOL    HW118250   5.153   5.225   1.785 -1.1704 -0.1755  2.7112
 5568SOL    HW218251   5.279   5.294   1.831 -1.7470  1.5213  1.8211
 5569SOL     OW18252   0.731   5.685   5.721 -0.3225  0.3147 -0.2862
 5569SOL    HW118253   0.651   5.730   5.748 -1.5952 -0.6005 -2.3227
 5569SOL    HW218254   0.734   5.606   5.776  1.4469  2.2333  2.6617
 5570SOL     OW18255   2.860   0.120   1.771  0.1785  0.1002 -0.1029
 5570SOL    HW118256   2.945   0.110   1.814 -0.4617 -3.1670  0.6543
 5570SOL    HW218257   2.798   0.132   1.843 -0.1974  1.2385 -0.5871
 5571SOL     OW18258   4.155   0.899   2.257 -0.0816 -0.1655 -0.7464
 5571SOL    HW118259   4.120   0.836   2.320  0.8903  1.6226  1.7664
 5571SOL    HW218260   4.082   0.918   2.198 -1.4919 -0.9503  0.6790
 5572SOL     OW18261   0.451   3.427   1.220 -0.2605  0.4327 -0.1297
 5572SOL    HW118262   0.361   3.444   1.192  0.2289  1.2448 -1.2998
 5572SOL    HW218263   0.479   3.509   1.261 -0.9193 -0.6864  2.8038
 5573SOL     OW18264   1.234   3.993   6.072  0.1445 -0.0454 -0.2765
 5573SOL    HW118265   1.196   4.073   6.107 -0.5146 -0.9884  1.2606
 5573SOL    HW218266   1.165   3.956   6.017 -0.7368 -1.0844  1.4618
 5574SOL     OW18267   2.939   2.983   5.585 -0.6688 -0.7927  0.1652
 5574SOL    HW118268   2.906   3.073   5.579  0.4221 -0.4503 -1.1617
 5574SOL    HW218269   2.921   2.944   5.500 -0.8786 -1.7592  0.6337
 5575SOL     OW18270   4.426   6.582   2.933  0.2162 -0.3093 -0.2347
 5575SOL    HW118271   4.471   6.609   3.014 -0.5776  1.1158 -0.2391
 5575SOL    HW218272   4.338   6.559   2.961  1.0663 -3.9778 -0.0856
 5576SOL     OW18273   2.620   4.948   2.227 -0.3871 -0.3485 -0.4585
 5576SOL    HW118274   2.538   4.969   2.182 -0.5138  1.3652  0.4925
 5576SOL    HW218275   2.596   4.946   2.320  0.2857 -1.7810 -0.2870
 5577SOL     OW18276   1.712   1.014   4.738 -0.3150  0.2476 -0.3528
 5577SOL    HW118277   1.716   1.052   4.651 -1.4523  0.1234 -0.4617
 5577SOL    HW218278   1.801   1.027   4.773 -0.1049  1.1362 -1.1607
 5578SOL     OW18279   2.958   0.297   0.134  0.1077  0.0333  0.0805
 5578SOL    HW118280   2.905   0.368   0.098 -0.8677 -0.2040  1.0275
 5578SOL    HW218281   3.014   0.339   0.199  0.7903  0.2095 -0.6052
 5579SOL     OW18282   0.041   3.206   5.719  0.1285  0.2661  0.8129
 5579SOL    HW118283   0.018   3.180   5.809 -1.6471 -0.2622  0.2387
 5579SOL    HW218284  -0.037   3.252   5.687  1.0949  1.2742 -0.1538
 5580SOL     OW18285   4.370   4.662   6.610  0.2118 -0.2767  0.4434
 5580SOL    HW118286   4.444   4.632   6.662  0.5648 -1.1666 -0.5353
 5580SOL    HW218287   4.409   4.711   6.538 -0.0714 -1.2978 -0.4470
 5581SOL     OW18288   5.624   5.712   3.823 -0.2222  0.0490  0.6533
 5581SOL    HW118289   5.633   5.655   3.899 -0.9651 -1.2983 -0.2394
 5581SOL    HW218290   5.539   5.689   3.785 -0.6368  1.8827  0.3571
 5582SOL     OW18291   6.395   5.613   4.838 -0.2247  0.3779  0.0520
 5582SOL    HW118292   6.425   5.704   4.838  0.6453  0.1023 -0.3667
 5582SOL    HW218293   6.319   5.613   4.897  1.2646  0.8729  2.0905
 5583SOL     OW18294   2.373   0.686   4.850 -0.4719  0.1402  0.3184
 5583SOL    HW118295   2.413   0.600   4.862  0.1493  0.1887 -1.2044
 5583SOL    HW218296   2.281   0.667   4.831 -0.5532 -0.1235  0.9421
 5584SOL     OW18297   0.954   4.569   1.600  0.9668 -0.4266 -0.3291
 5584SOL    HW118298   1.006   4.509   1.546  0.9625 -0.2554 -0.5223
 5584SOL    HW218299   0.937   4.644   1.543  0.8952 -0.2809 -0.1157
 5585SOL     OW18300   6.020   2.548   0.408 -0.2360  0.4289  0.0776
 5585SOL    HW118301   6.049   2.482   0.471 -1.9652  1.1657  1.7304
 5585SOL    HW218302   6.080   2.537   0.334  0.9647 -1.4459  1.2185
 5586SOL     OW18303   4.518   5.018   5.496 -0.2343  0.2707 -0.0830
 5586SOL    HW118304   4.538   4.938   5.546  0.2895 -0.3714 -1.2710
 5586SOL    HW218305   4.434   5.047   5.531 -0.3214 -0.6684  0.5432
 5587SOL     OW18306   5.570   0.635   1.702  0.3525 -0.2932 -0.6287
 5587SOL    HW118307   5.539   0.679   1.781 -0.0363 -0.8573 -0.4592
 5587SOL    HW218308   5.665   0.648   1.702  0.4663 -1.0212  0.3964
 5588SOL     OW18309   3.978   2.684   2.180 -0.2682 -0.8847  0.4740
 5588SOL    HW118310   3.936   2.766   2.155 -2.2781 -1.8728  0.3819
 5588SOL    HW218311   4.022   2.704   2.263 -0.1758  0.4289  0.1350
 5589SOL     OW18312   6.014   0.486   4.292  0.0396 -0.1094  0.0432
 5589SOL    HW118313   5.919   0.484   4.299  0.0310 -2.0500 -0.1737
 5589SOL    HW218314   6.045   0.445   4.373  0.7364  0.9062  0.3221
 5590SOL     OW18315   3.353   5.587   5.640  0.6845  0.3334 -0.3938
 5590SOL    HW118316   3.377   5.669   5.596 -1.0630  0.4564 -1.2139
 5590SOL    HW218317   3.263   5.569   5.610  0.4902 -1.1103  0.9172
 5591SOL     OW18318   4.291   5.697   4.061  0.0834 -0.5761  0.2440
 5591SOL    HW118319   4.209   5.675   4.017  0.5866 -2.2109  0.0563
 5591SOL    HW218320   4.354   5.633   4.028  1.3279  0.3485  0.7447
 5592SOL     OW18321   5.995   3.770   5.943 -0.0561 -0.7153  0.1179
 5592SOL    HW118322   5.928   3.804   5.884 -0.3666  0.1402  0.9463
 5592SOL    HW218323   6.060   3.839   5.949  0.6553 -1.3321 -0.2614
 5593SOL     OW18324   3.046   3.616   5.396  0.6853 -0.0669 -0.1580
 5593SOL    HW118325   3.027   3.532   5.355 -1.7582  0.7442 -0.8468
 5593SOL    HW218326   2.970   3.634   5.451  1.9964  0.8650  1.4587
 5594SOL     OW18327   0.804   2.920   1.837  0.1222  0.6312 -0.0618
 5594SOL    HW118328   0.832   2.833   1.809  1.4547  1.0539 -0.1149
 5594SOL    HW218329   0.885   2.971   1.840 -0.5506  1.6892  0.6148
 5595SOL     OW18330   3.585   0.562   2.430  0.0473  0.3085  0.1683
 5595SOL    HW118331   3.526   0.520   2.493 -0.9928 -0.1395 -1.0687
 5595SOL    HW218332   3.607   0.646   2.470  0.8947 -0.7084  1.9632
 5596SOL     OW18333   5.969   4.449   0.103  0.1221 -0.2272 -0.0938
 5596SOL    HW118334   6.002   4.363   0.132 -0.0953  0.4619  2.4141
 5596SOL    HW218335   6.047   4.497   0.077  0.3789 -0.7447 -0.2996
 5597SOL     OW18336   5.332   4.580   0.239  0.4764  0.3167  0.7342
 5597SOL    HW118337   5.396   4.562   0.307 -0.1610 -1.9622  0.8409
 5597SOL    HW218338   5.380   4.566   0.157  0.7188  1.0320  0.7488
 5598SOL     OW18339   1.764   1.172   2.421  0.4450 -0.2497  0.0374
 5598SOL    HW118340   1.694   1.107   2.432 -1.8033  1.8265 -1.1680
 5598SOL    HW218341   1.736   1.246   2.474  0.2359  1.6859 -2.5944
 5599SOL     OW18342   6.580   4.249   2.911  0.1826 -1.0498  1.2003
 5599SOL    HW118343   6.554   4.239   2.820  1.3968 -1.5919  0.9043
 5599SOL    HW218344   6.523   4.189   2.959 -0.6941 -0.5143  0.8601
 5600SOL     OW18345   1.143   2.159   1.306  0.2121 -0.2383 -0.1763
 5600SOL    HW118346   1.102   2.165   1.220  1.1950 -1.4559 -0.7635
 5600SOL    HW218347   1.174   2.248   1.324  0.4672 -0.0805 -1.3253
 5601SOL     OW18348   2.433   3.902   6.308  0.2163 -1.0578 -0.8531
 5601SOL    HW118349   2.369   3.843   6.268 -1.5091  1.5177 -2.1768
 5601SOL    HW218350   2.468   3.952   6.234 -1.2000  2.1257  0.4799
 5602SOL     OW18351   6.348   2.250   5.910  0.4786 -0.9216 -0.1013
 5602SOL    HW118352   6.413   2.251   5.980  0.8365 -0.6439 -0.4337
 5602SOL    HW218353   6.381   2.186   5.847  0.3040 -0.9610 -0.1525
 5603SOL     OW18354   6.204   3.853   6.433  0.2298 -1.1468  0.0418
 5603SOL    HW118355   6.220   3.920   6.499  2.3593 -1.9212  0.3796
 5603SOL    HW218356   6.172   3.777   6.482 -2.5399 -0.3725 -0.3786
 5604SOL     OW18357   6.068   3.451   0.781  0.1392 -0.0266  0.2007
 5604SOL    HW118358   6.014   3.528   0.797  0.1728 -0.0271  0.3174
 5604SOL    HW218359   6.016   3.397   0.721  0.9981  1.0640 -1.6193
 5605SOL     OW18360   3.071   1.280   3.799  0.4873 -0.5528  0.0746
 5605SOL    HW118361   3.102   1.316   3.716  1.0425  1.5578  1.1098
 5605SOL    HW218362   3.151   1.268   3.851 -0.0271  1.4660  1.4739
 5606SOL     OW18363   2.652   5.162   3.597 -0.2359  0.3518 -0.7847
 5606SOL    HW118364   2.694   5.077   3.612 -0.2310  0.3931 -0.5639
 5606SOL    HW218365   2.714   5.209   3.542  0.4194  0.7348  0.2488
 5607SOL     OW18366   0.909   1.495   1.105  0.0147  0.0768 -0.1585
 5607SOL    HW118367   0.914   1.494   1.010  0.0369  0.2042 -0.1590
 5607SOL    HW218368   0.917   1.403   1.131 -1.7896 -0.1742 -0.3697
 5608SOL     OW18369   0.191   4.067   0.570 -0.2738 -0.4346 -0.0701
 5608SOL    HW118370   0.113   4.111   0.536 -0.7127 -1.3921 -0.3103
 5608SOL    HW218371   0.217   4.007   0.501  0.0124 -0.9445  0.4763
 5609SOL     OW18372   5.662   5.336   3.297  0.4505  0.2269  0.2181
 5609SOL    HW118373   5.687   5.322   3.206 -1.1195  0.5064 -0.2782
 5609SOL    HW218374   5.605   5.262   3.318 -0.0961  0.7504  0.6207
 5610SOL     OW18375   4.636   6.169   4.698 -0.3172 -0.6038  0.2433
 5610SOL    HW118376   4.603   6.208   4.778  0.6332 -0.1030  0.4060
 5610SOL    HW218377   4.634   6.240   4.634 -0.5087 -0.8367 -0.0118
 5611SOL     OW18378   2.089   2.598   2.696  0.3437  0.4502  0.2420
 5611SOL    HW118379   2.140   2.583   2.776  0.7686  0.7343  0.0283
 5611SOL    HW218380   2.065   2.510   2.666  2.0615  0.1835 -0.5128
 5612SOL     OW18381   6.506   1.477   6.073  0.2937 -0.2952  0.3235
 5612SOL    HW118382   6.471   1.542   6.134  3.3447  0.9988  0.9167
 5612SOL    HW218383   6.539   1.407   6.129  2.1322  0.3909  0.1745
 5613SOL     OW18384   3.395   0.412   1.882  0.1253 -0.2263 -0.4406
 5613SOL    HW118385   3.453   0.414   1.806 -0.8406  0.8903 -1.1774
 5613SOL    HW218386   3.382   0.319   1.899  0.3616 -0.5009 -1.6332
 5614SOL     OW18387   6.365   0.825   2.924 -0.2651  0.0360 -0.5792
 5614SOL    HW118388   6.439   0.885   2.930 -0.0787 -0.2323 -0.0785
 5614SOL    HW218389   6.373   0.786   2.837 -0.3047  0.6203 -0.8514
 5615SOL     OW18390   3.930   4.066   3.100  0.4103 -0.4221 -0.2059
 5615SOL    HW118391   3.944   4.094   3.009 -0.6985 -1.2102 -0.6384
 5615SOL    HW218392   3.944   3.971   3.098 -0.7210 -0.6053  0.2068
 5616SOL     OW18393   3.450   0.478   2.645 -0.3927 -0.0447  0.5969
 5616SOL    HW118394   3.410   0.554   2.687  1.6201 -0.1356  2.9049
 5616SOL    HW218395   3.391   0.406   2.665 -0.0069  0.1094  2.5003
 5617SOL     OW18396   2.833   1.767   3.300 -0.1914  0.1949  0.4796
 5617SOL    HW118397   2.859   1.818   3.223 -1.3392 -1.7353 -1.2918
 5617SOL    HW218398   2.740   1.788   3.311 -0.1494  0.0930  1.0494
 5618SOL     OW18399   0.536   3.991   2.564  0.2855 -0.0923  0.0892
 5618SOL    HW118400   0.535   4.010   2.470  0.3750  0.7063  0.2379
 5618SOL    HW218401   0.451   3.950   2.581  0.4565 -0.6698 -0.4167
 5619SOL     OW18402   1.771   0.580   1.474 -0.0481  0.5007  0.2352
 5619SOL    HW118403   1.714   0.621   1.539 -0.3847 -0.3681  0.5027
 5619SOL    HW218404   1.851   0.559   1.523 -0.2875 -0.1202  0.3649
 5620SOL     OW18405   6.011   1.027   6.784  0.3106 -0.1003 -0.3110
 5620SOL    HW118406   6.015   0.936   6.812  0.6820  0.6417  2.3032
 5620SOL    HW218407   5.929   1.060   6.822  0.7314  0.9261 -0.2651
 5621SOL     OW18408   2.285   1.032   6.492 -0.2849 -0.1241 -0.6169
 5621SOL    HW118409   2.361   1.033   6.434  0.1475 -1.6650 -0.1262
 5621SOL    HW218410   2.220   0.979   6.446 -0.6813  0.3049 -0.5617
 5622SOL     OW18411   0.945   0.158   3.085 -0.6889  0.2408  0.4560
 5622SOL    HW118412   0.945   0.089   3.019  0.3118  3.6571 -3.5348
 5622SOL    HW218413   1.038   0.175   3.101 -0.8390  1.9993 -0.3262
 5623SOL     OW18414   4.448   3.422   6.788 -0.1959 -0.3103  0.1139
 5623SOL    HW118415   4.487   3.474   6.858  1.6016 -2.7760  1.0937
 5623SOL    HW218416   4.367   3.388   6.826 -1.0077  1.0933 -0.2830
 5624SOL     OW18417   4.420   1.131   6.461  0.5114 -0.2777 -0.0897
 5624SOL    HW118418   4.419   1.204   6.399  0.8263 -0.6613 -0.5511
 5624SOL    HW218419   4.382   1.058   6.413 -0.2118 -0.3078  0.5175
 5625SOL     OW18420   1.347   0.868   5.272  0.0327 -0.1969 -0.2180
 5625SOL    HW118421   1.381   0.912   5.195 -0.5829 -1.4925 -1.2679
 5625SOL    HW218422   1.304   0.789   5.238 -1.6137 -0.0256  1.2920
 5626SOL     OW18423   0.681   6.339   3.813  0.6528 -0.6817  0.0316
 5626SOL    HW118424   0.631   6.325   3.894  0.5452 -2.2311 -0.2806
 5626SOL    HW218425   0.753   6.277   3.819  0.5590 -0.9074 -1.1348
 5627SOL     OW18426   3.472   1.972   2.557 -0.3338  0.3308 -0.1136
 5627SOL    HW118427   3.485   1.961   2.652 -0.7581  0.2699 -0.0586
 5627SOL    HW218428   3.554   2.008   2.526 -0.6751  1.7042  0.5072
 5628SOL     OW18429   4.353   2.379   6.314 -0.0707  0.3726  0.3634
 5628SOL    HW118430   4.335   2.309   6.251  0.1577  2.9267 -2.8397
 5628SOL    HW218431   4.267   2.413   6.337 -0.0899  0.4015  0.2484
 5629SOL     OW18432   1.242   5.504   0.103  0.5049 -0.1243 -0.4745
 5629SOL    HW118433   1.160   5.536   0.140  0.4929 -1.1006  0.3996
 5629SOL    HW218434   1.281   5.580   0.061  0.6207  1.1500  1.7804
 5630SOL     OW18435   4.704   2.393   6.536  0.0543 -0.3168 -0.1519
 5630SOL    HW118436   4.615   2.419   6.557 -0.3175 -1.6171 -0.0641
 5630SOL    HW218437   4.702   2.298   6.532  1.4560 -0.3790 -0.0834
 5631SOL     OW18438   6.674   2.658   5.920 -0.2314 -0.4750 -0.1327
 5631SOL    HW118439   6.746   2.649   5.982  0.4479  2.9812 -0.1875
 5631SOL    HW218440   6.716   2.659   5.834 -0.0081  2.6509 -0.1182
 5632SOL     OW18441   4.213   1.594   0.425  0.0579 -0.4562 -0.1445
 5632SOL    HW118442   4.162   1.559   0.353 -0.2811 -0.4430  0.0892
 5632SOL    HW218443   4.235   1.518   0.478 -0.6155 -0.3298  0.3231
 5633SOL     OW18444   0.914   1.633   2.878  0.3961 -0.4491 -0.2991
 5633SOL    HW118445   0.936   1.711   2.827 -0.1900 -0.0087  0.1031
 5633SOL    HW218446   0.821   1.642   2.896  0.7966  0.0454  1.8754
 5634SOL     OW18447   2.047   1.606   4.194  0.3929  0.4129 -0.0979
 5634SOL    HW118448   2.054   1.699   4.218  0.3787  0.5811 -0.7233
 5634SOL    HW218449   2.099   1.599   4.114  0.2299 -0.0825 -0.1577
 5635SOL     OW18450   2.752   4.926   3.541 -0.1603  0.4637 -0.2241
 5635SOL    HW118451   2.717   4.926   3.452 -1.4800  1.7945  0.2604
 5635SOL    HW218452   2.847   4.921   3.530 -0.1859  2.4991 -1.7824
 5636SOL     OW18453   0.500   2.955   2.031  0.0367  0.0376  0.2876
 5636SOL    HW118454   0.481   2.997   2.115  1.7727  1.1978  0.1524
 5636SOL    HW218455   0.563   2.886   2.053 -0.4395 -0.4687  0.0843
 5637SOL     OW18456   3.108   5.637   2.865 -0.6336  0.4111  0.0246
 5637SOL    HW118457   3.153   5.561   2.901 -0.5953  0.1246 -0.6199
 5637SOL    HW218458   3.045   5.601   2.803  0.0365  0.9525 -0.9890
 5638SOL     OW18459   6.618   0.792   5.080 -0.1546  0.1545  0.6952
 5638SOL    HW118460   6.641   0.745   5.160  2.7781  1.3129  0.6705
 5638SOL    HW218461   6.642   0.733   5.009  0.5972  0.4618  0.6837
 5639SOL     OW18462   0.506   0.572   1.191  0.3442  0.2516 -0.5949
 5639SOL    HW118463   0.577   0.611   1.241  0.1768  0.0263 -0.1780
 5639SOL    HW218464   0.507   0.479   1.216  0.3940  0.0901 -1.1692
 5640SOL     OW18465   6.225   0.387   0.456 -0.5172 -0.3059  0.3402
 5640SOL    HW118466   6.160   0.444   0.497  1.6982  1.6470  1.3750
 5640SOL    HW218467   6.273   0.349   0.529  1.9986  1.4208 -0.2625
 5641SOL     OW18468   3.560   2.132   5.270 -0.7314 -0.0949  0.2595
 5641SOL    HW118469   3.634   2.155   5.214  0.6722 -0.0688  2.0070
 5641SOL    HW218470   3.486   2.180   5.234  0.5329  1.4293 -0.4425
 5642SOL     OW18471   3.332   2.867   4.687 -0.4504  0.3478 -0.7119
 5642SOL    HW118472   3.312   2.854   4.594  0.0278  2.8079 -1.2383
 5642SOL    HW218473   3.304   2.957   4.705 -1.4946 -0.4131  1.8367
 5643SOL     OW18474   3.836   0.583   0.566 -0.2302 -0.8850 -0.0591
 5643SOL    HW118475   3.743   0.577   0.585 -0.3992  0.8137 -0.1714
 5643SOL    HW218476   3.844   0.656   0.505  1.0760 -1.6790 -0.9026
 5644SOL     OW18477   3.385   1.652   4.808  0.3303 -0.6217 -0.6738
 5644SOL    HW118478   3.446   1.687   4.743  0.4074  0.1009 -0.2184
 5644SOL    HW218479   3.321   1.603   4.757  0.6713 -0.4728 -1.2503
 5645SOL     OW18480   1.368   3.724   4.980  0.5018  0.3725  0.4706
 5645SOL    HW118481   1.301   3.680   4.928  1.6200 -0.1405 -0.5879
 5645SOL    HW218482   1.422   3.652   5.013  0.8945  0.8140  0.7975
 5646SOL     OW18483   0.791   0.731   2.150  0.3330 -1.1069  0.5915
 5646SOL    HW118484   0.809   0.672   2.077 -1.0444 -0.0899 -0.6609
 5646SOL    HW218485   0.877   0.758   2.182  0.9667 -2.5613  0.1875
 5647SOL     OW18486   4.195   6.009   6.614 -0.2838  0.6601  0.0056
 5647SOL    HW118487   4.225   6.079   6.672 -1.4606  0.5627  0.7868
 5647SOL    HW218488   4.101   6.026   6.603 -0.4187 -0.3159 -0.4641
 5648SOL     OW18489   3.235   6.388   3.544  0.4561 -0.3177 -0.0673
 5648SOL    HW118490   3.238   6.303   3.589  2.5858 -0.5628 -0.5461
 5648SOL    HW218491   3.323   6.423   3.555 -0.2054  1.5419 -0.4672
 5649SOL     OW18492   4.722   6.618   5.430 -0.1550 -1.1324  0.3799
 5649SOL    HW118493   4.797   6.558   5.433 -1.1039 -2.3674 -0.0815
 5649SOL    HW218494   4.648   6.564   5.403 -1.2657  0.0375  0.9672
 5650SOL     OW18495   5.041   6.263   1.387  0.2870  0.1649 -0.2934
 5650SOL    HW118496   4.985   6.204   1.336 -2.0410  0.6468  1.4846
 5650SOL    HW218497   4.980   6.306   1.448  2.5304  1.3393  1.2600
 5651SOL     OW18498   5.969   0.884   5.671 -1.0263  0.3252  0.1302
 5651SOL    HW118499   5.956   0.870   5.577 -1.1094  0.9003  0.0565
 5651SOL    HW218500   5.933   0.805   5.711 -2.2794  0.6843 -0.2373
 5652SOL     OW18501   4.284   3.393   6.589 -0.2957 -0.2745 -0.1589
 5652SOL    HW118502   4.348   3.433   6.648  0.6247 -0.5790 -0.9196
 5652SOL    HW218503   4.336   3.340   6.529 -1.1310  0.5247 -1.6563
 5653SOL     OW18504   3.594   3.536   4.932 -0.3100  0.4849  0.0270
 5653SOL    HW118505   3.602   3.448   4.893  0.7671 -0.1405  1.5587
 5653SOL    HW218506   3.509   3.567   4.902 -0.7608 -1.1243 -0.4913
 5654SOL     OW18507   5.057   5.275   5.286  0.5825 -0.3867 -0.0449
 5654SOL    HW118508   5.038   5.336   5.215  1.1002 -1.8099 -1.4583
 5654SOL    HW218509   5.150   5.288   5.306  0.2278  0.6352  1.0135
 5655SOL     OW18510   0.966   1.805   1.493  0.4266  0.4368  0.9114
 5655SOL    HW118511   1.058   1.790   1.472  0.6979  0.8604  1.7441
 5655SOL    HW218512   0.960   1.790   1.588 -0.9502 -2.4029  0.4926
 5656SOL     OW18513   4.043   1.237   5.489 -0.1626 -1.0387 -0.4842
 5656SOL    HW118514   4.030   1.272   5.401  0.3595 -1.1660 -0.6204
 5656SOL    HW218515   3.987   1.289   5.545  1.2400  0.6256 -0.5451
 5657SOL     OW18516   4.041   3.709   2.776  0.3099 -0.1560 -0.4726
 5657SOL    HW118517   4.049   3.650   2.702 -2.5309 -0.8952 -0.3021
 5657SOL    HW218518   3.962   3.761   2.758  0.6483  1.0045  1.1174
 5658SOL     OW18519   2.347   5.833   5.359  0.5981 -0.4961  0.6278
 5658SOL    HW118520   2.288   5.759   5.377  0.2711 -0.4686 -0.2970
 5658SOL    HW218521   2.408   5.833   5.433  0.3873 -1.4782  0.8184
 5659SOL     OW18522   5.125   3.771   2.217  0.2720  0.0589 -0.0827
 5659SOL    HW118523   5.078   3.694   2.184 -1.6639  1.5404 -0.9695
 5659SOL    HW218524   5.208   3.770   2.170  0.4030 -1.5914  0.1090
 5660SOL     OW18525   1.263   0.608   5.135 -0.0973 -0.2407  0.0070
 5660SOL    HW118526   1.286   0.618   5.043  0.4144  0.3818  0.2040
 5660SOL    HW218527   1.270   0.514   5.151  2.7581 -0.0786  0.1663
 5661SOL     OW18528   4.311   5.257   5.854  0.0531 -0.0672  0.8047
 5661SOL    HW118529   4.369   5.220   5.787 -0.8323  1.4377 -0.8740
 5661SOL    HW218530   4.232   5.203   5.850 -0.2434  0.3990  0.1574
 5662SOL     OW18531   6.171   5.803   5.912 -0.4175 -0.2175  0.4902
 5662SOL    HW118532   6.096   5.750   5.885  1.4764 -2.5050 -0.6115
 5662SOL    HW218533   6.212   5.831   5.830  0.6631 -0.1388  1.0318
 5663SOL     OW18534   1.275   5.820   0.030 -0.0975 -0.0614 -0.3134
 5663SOL    HW118535   1.351   5.797   0.084  0.9929  1.5013 -1.0706
 5663SOL    HW218536   1.229   5.888   0.080  1.0809  1.6069 -1.3626
 5664SOL     OW18537   1.501   5.808   2.172  0.0618  0.4051  0.6194
 5664SOL    HW118538   1.560   5.873   2.210  0.1561 -0.0544  1.2856
 5664SOL    HW218539   1.549   5.725   2.178 -0.7988 -0.0549  1.5940
 5665SOL     OW18540   1.181   6.553   2.440  0.0700  0.0446  0.2098
 5665SOL    HW118541   1.157   6.507   2.359  1.4695 -0.2880 -0.0422
 5665SOL    HW218542   1.195   6.483   2.504 -1.1023  0.3088  0.7862
 5666SOL     OW18543   1.684   0.779   5.053  0.5545  0.0518  0.1762
 5666SOL    HW118544   1.760   0.737   5.012  0.5629 -0.7385  0.9516
 5666SOL    HW218545   1.644   0.709   5.105 -0.5471  0.5381  0.0015
 5667SOL     OW18546   3.208   2.952   2.659  0.1154 -0.2792 -0.2543
 5667SOL    HW118547   3.113   2.941   2.656  0.1119 -0.5493  0.4628
 5667SOL    HW218548   3.238   2.924   2.573 -0.4671 -0.0534 -0.5374
 5668SOL     OW18549   2.354   6.079   0.777 -0.2448 -0.1853  0.3091
 5668SOL    HW118550   2.307   6.092   0.860 -0.3633 -1.2559  0.4250
 5668SOL    HW218551   2.353   6.164   0.735 -0.6861  0.2371  1.1580
 5669SOL     OW18552   3.177   1.606   4.592  0.2125  0.1145 -0.2395
 5669SOL    HW118553   3.131   1.689   4.604 -0.8687 -0.3571 -0.9492
 5669SOL    HW218554   3.229   1.619   4.513 -0.2170  0.0208 -0.5442
 5670SOL     OW18555   6.285   0.030   4.316  0.2693 -0.2458  0.1018
 5670SOL    HW118556   6.246   0.046   4.402  0.4421 -0.0087  0.1384
 5670SOL    HW218557   6.244   0.095   4.258 -2.5071 -2.6005 -0.8286
 5671SOL     OW18558   5.205   2.408   2.232  0.2334  0.3612 -0.1167
 5671SOL    HW118559   5.243   2.461   2.303  0.5606 -1.0309  0.7985
 5671SOL    HW218560   5.160   2.337   2.277 -0.3302 -0.0531 -1.3014
 5672SOL     OW18561   3.025   5.653   0.683 -0.7554  0.7274  0.3402
 5672SOL    HW118562   3.007   5.745   0.701  1.5070  0.9078  2.3497
 5672SOL    HW218563   3.016   5.610   0.768  0.8234 -0.3565  0.0192
 5673SOL     OW18564   6.016   5.833   3.518  0.1676  0.1471 -0.1175
 5673SOL    HW118565   5.949   5.769   3.494 -0.3013  0.5242  0.1720
 5673SOL    HW218566   6.014   5.834   3.614  1.2115 -0.4959 -0.0805
 5674SOL     OW18567   3.568   5.378   2.439 -0.0929  0.6179  0.0480
 5674SOL    HW118568   3.577   5.382   2.534 -0.1297 -1.5424  0.1753
 5674SOL    HW218569   3.508   5.451   2.418 -2.5971 -0.6836  2.0598
 5675SOL     OW18570   2.051   2.625   4.982 -0.2754 -0.6650 -0.1487
 5675SOL    HW118571   2.043   2.632   5.077 -0.3691  1.8963 -0.2847
 5675SOL    HW218572   2.032   2.533   4.963 -2.8282 -0.6993  2.0577
 5676SOL     OW18573   5.900   2.117   1.104 -0.5442  0.0580  0.3108
 5676SOL    HW118574   5.929   2.026   1.107 -0.8812 -0.0707 -0.2393
 5676SOL    HW218575   5.981   2.168   1.113 -0.2283 -0.2964 -0.4293
 5677SOL     OW18576   0.908   0.872   5.456 -0.4457 -0.0960  0.3076
 5677SOL    HW118577   0.947   0.793   5.493 -1.5841 -1.3399 -1.0152
 5677SOL    HW218578   0.826   0.882   5.504 -0.9465 -0.5282 -0.4341
 5678SOL     OW18579   4.810   3.631   6.211  0.5024 -0.0199  0.5675
 5678SOL    HW118580   4.811   3.667   6.122 -0.5416 -0.1307  0.4889
 5678SOL    HW218581   4.722   3.594   6.220  1.3550 -2.0661  0.8508
 5679SOL     OW18582   4.826   2.273   5.053  0.1569 -0.1675  0.3222
 5679SOL    HW118583   4.805   2.328   4.977  3.2762 -2.1863 -2.3233
 5679SOL    HW218584   4.902   2.316   5.093  0.5400 -0.7522  0.2467
 5680SOL     OW18585   3.926   5.931   5.006 -0.5088  0.5842 -0.3232
 5680SOL    HW118586   3.945   5.859   5.066  0.1084 -0.2355 -1.4675
 5680SOL    HW218587   3.891   6.000   5.063 -0.4998 -0.3631  0.8915
 5681SOL     OW18588   2.115   5.533   2.785 -0.1086  0.5625  0.2736
 5681SOL    HW118589   2.083   5.517   2.874 -1.6759  1.2633 -0.1231
 5681SOL    HW218590   2.198   5.486   2.780 -0.3252 -0.0456  1.8840
 5682SOL     OW18591   2.782   6.729   2.924 -0.4531 -0.0053  0.2196
 5682SOL    HW118592   2.720   6.655   2.925 -0.3456 -0.0923  0.5654
 5682SOL    HW218593   2.826   6.724   3.009  0.4277 -0.2744 -0.2484
 5683SOL     OW18594   5.834   3.989   5.152  0.6851  0.1483  0.2865
 5683SOL    HW118595   5.750   4.030   5.174  1.8233  1.6855  2.0939
 5683SOL    HW218596   5.839   3.995   5.056 -1.2116  0.0603  0.1418
 5684SOL     OW18597   1.652   5.327   0.682  0.3733  0.2010  0.3662
 5684SOL    HW118598   1.610   5.293   0.761 -1.3097  0.9100 -0.1837
 5684SOL    HW218599   1.726   5.378   0.715  1.3842 -1.7841  1.3113
 5685SOL     OW18600   1.461   1.287   2.664  0.2608 -0.6787  0.3950
 5685SOL    HW118601   1.503   1.373   2.665 -0.6203 -0.2098 -0.7242
 5685SOL    HW218602   1.420   1.281   2.578 -0.4231 -1.8727  0.7745
 5686SOL     OW18603   5.408   1.803   5.365 -0.2293  0.0242  0.2704
 5686SOL    HW118604   5.429   1.757   5.284 -0.0378  0.7056 -0.0724
 5686SOL    HW218605   5.407   1.734   5.432  1.0544 -0.3288 -0.0509
 5687SOL     OW18606   5.328   6.536   6.165  0.3929  0.0588 -0.0297
 5687SOL    HW118607   5.286   6.621   6.148 -1.2146 -0.9949 -1.6978
 5687SOL    HW218608   5.398   6.531   6.099  1.1258  0.4830  0.7053
 5688SOL     OW18609   4.278   3.212   6.329 -0.2610 -0.2871 -0.3552
 5688SOL    HW118610   4.296   3.168   6.247  0.9591  0.5320 -0.5560
 5688SOL    HW218611   4.265   3.304   6.304 -0.1948 -0.0867  0.3298
 5689SOL     OW18612   6.780   4.212   3.399  0.2610 -0.1476  0.0582
 5689SOL    HW118613   6.694   4.237   3.432 -0.5604 -1.6578 -0.7979
 5689SOL    HW218614   6.771   4.213   3.304  1.7729  1.4886 -0.1061
 5690SOL     OW18615   4.289   1.131   5.895  0.3374  0.1641 -0.0520
 5690SOL    HW118616   4.244   1.153   5.813  0.6933  0.6175 -0.1266
 5690SOL    HW218617   4.247   1.186   5.961 -2.1176 -2.3823  0.7056
 5691SOL     OW18618   1.933   3.426   5.615 -0.1930  0.7252  0.0843
 5691SOL    HW118619   1.935   3.361   5.686 -0.1889 -1.6420 -1.9425
 5691SOL    HW218620   2.025   3.435   5.590 -0.2833  0.9139 -0.1746
 5692SOL     OW18621   1.050   5.202   0.900 -0.0557  0.0695  0.2376
 5692SOL    HW118622   0.959   5.173   0.904 -0.0526  0.1889  1.6213
 5692SOL    HW218623   1.054   5.277   0.960  0.4072  1.6925 -1.6920
 5693SOL     OW18624   4.476   4.164   3.664 -0.1776 -0.0043  0.2384
 5693SOL    HW118625   4.435   4.117   3.592  0.8537  0.3393 -0.6046
 5693SOL    HW218626   4.520   4.238   3.622  1.6435 -0.5937  1.0145
 5694SOL     OW18627   5.470   5.026   4.538  0.1998  0.8240  0.1148
 5694SOL    HW118628   5.398   5.049   4.481  1.0164  0.1675 -1.2232
 5694SOL    HW218629   5.484   4.932   4.524  1.9085  1.1192 -0.3974
 5695SOL     OW18630   6.603   0.181   1.844 -0.3473 -0.1089  0.4271
 5695SOL    HW118631   6.510   0.169   1.824 -0.0747 -1.0333 -0.3997
 5695SOL    HW218632   6.623   0.269   1.814 -0.5788 -0.5132 -1.0311
 5696SOL     OW18633   0.105   4.788   6.224 -0.2331  0.1634 -0.4959
 5696SOL    HW118634   0.119   4.781   6.130  1.0397  0.0625 -0.3165
 5696SOL    HW218635   0.180   4.838   6.256 -0.1304 -0.6438  0.5810
 5697SOL     OW18636   0.816   0.627   5.084 -0.1962  0.0333  0.1176
 5697SOL    HW118637   0.763   0.547   5.082  1.3018 -0.9674 -0.7882
 5697SOL    HW218638   0.783   0.675   5.160  1.2516 -3.1466  3.0123
 5698SOL     OW18639   4.045   4.348   5.370 -0.0362  0.2476  0.1687
 5698SOL    HW118640   4.056   4.272   5.312 -0.1932  1.2636 -1.2381
 5698SOL    HW218641   4.123   4.348   5.425  1.9415  1.2403 -2.4429
 5699SOL     OW18642   0.729   0.302   5.713 -0.0404  0.0967 -0.3365
 5699SOL    HW118643   0.651   0.286   5.660 -1.1786 -1.2938  1.6532
 5699SOL    HW218644   0.708   0.379   5.765 -0.5026 -0.7819  0.8353
 5700SOL     OW18645   0.246   3.935   2.608  0.0524  0.3926  0.1287
 5700SOL    HW118646   0.289   3.853   2.631  0.7241  0.5644 -0.5038
 5700SOL    HW218647   0.243   3.984   2.690  3.6987  1.5881 -0.2669
 5701SOL     OW18648   3.476   1.958   6.035  0.5490  0.1783 -0.2591
 5701SOL    HW118649   3.511   1.962   5.946 -1.3720 -0.3718 -1.0984
 5701SOL    HW218650   3.450   2.048   6.054  0.6747  0.2397 -0.3739
 5702SOL     OW18651   5.884   5.633   1.022 -0.4804 -0.1809  0.3059
 5702SOL    HW118652   5.912   5.588   0.942  1.9526 -0.4729  1.2281
 5702SOL    HW218653   5.867   5.722   0.994 -2.4293 -0.9041 -1.0064
 5703SOL     OW18654   4.647   4.790   0.677 -0.4772 -0.4686  0.0015
 5703SOL    HW118655   4.695   4.715   0.643 -0.2826 -0.3473  0.0095
 5703SOL    HW218656   4.647   4.853   0.605  0.5898  0.0927  0.4821
 5704SOL     OW18657   1.247   3.848   0.998  0.7426 -0.4049 -0.2762
 5704SOL    HW118658   1.331   3.805   1.015  1.4463  0.8424 -0.4386
 5704SOL    HW218659   1.243   3.854   0.902  0.9148  0.3323 -0.2480
 5705SOL     OW18660   2.507   1.822   0.843  0.4591  0.5283 -0.3277
 5705SOL    HW118661   2.522   1.889   0.910 -1.8649 -2.1476  3.2282
 5705SOL    HW218662   2.522   1.739   0.889  0.2876 -1.5071 -3.6594
 5706SOL     OW18663   3.242   2.588   0.964 -0.2611 -0.6027  0.3508
 5706SOL    HW118664   3.198   2.505   0.981  0.0494 -1.1984 -1.5437
 5706SOL    HW218665   3.172   2.652   0.960 -1.1270 -1.5619 -2.8124
 5707SOL     OW18666   5.254   2.950   6.607  0.6960 -0.1624  0.4101
 5707SOL    HW118667   5.218   3.037   6.591  0.6542 -0.4714 -1.4356
 5707SOL    HW218668   5.178   2.892   6.611  0.8260 -0.5404 -1.5932
 5708SOL     OW18669   2.311   2.511   2.287 -0.1146 -0.3800 -0.2096
 5708SOL    HW118670   2.246   2.557   2.341 -0.8629 -0.8013 -0.7351
 5708SOL    HW218671   2.386   2.498   2.346 -0.7431 -0.4462  0.6036
 5709SOL     OW18672   5.483   1.886   2.604  0.6351 -0.0516  0.4699
 5709SOL    HW118673   5.504   1.793   2.592  0.0484 -0.2808  1.1889
 5709SOL    HW218674   5.506   1.904   2.695  2.7277  1.0560 -0.2107
 5710SOL     OW18675   0.194   3.616   0.345 -0.1804  0.6076 -0.0550
 5710SOL    HW118676   0.126   3.643   0.407 -0.6930  0.6175 -0.6114
 5710SOL    HW218677   0.180   3.673   0.269  0.5605  0.7228 -0.1074
 5711SOL     OW18678   2.036   5.291   2.037  0.0350 -0.0493  0.1215
 5711SOL    HW118679   2.053   5.337   2.120 -0.1954 -0.2434  0.2788
 5711SOL    HW218680   2.024   5.362   1.973  0.0001  0.1073  0.2987
 5712SOL     OW18681   2.572   1.677   6.392  0.1908  0.2824 -0.0963
 5712SOL    HW118682   2.614   1.695   6.308 -1.1148 -0.8268 -1.0305
 5712SOL    HW218683   2.515   1.603   6.375  1.3692 -1.2813  2.2888
 5713SOL     OW18684   4.981   0.965   0.390  0.1959  0.0195  0.1008
 5713SOL    HW118685   4.981   0.984   0.296 -3.2984  0.4014  0.0676
 5713SOL    HW218686   5.072   0.977   0.416  1.1685  0.6103 -3.0671
 5714SOL     OW18687   0.219   4.612   6.654 -0.3128  0.3843  0.2692
 5714SOL    HW118688   0.282   4.684   6.647  0.8794 -0.7581 -1.4581
 5714SOL    HW218689   0.172   4.614   6.571 -0.2876 -0.8018  0.2171
 5715SOL     OW18690   6.468   0.103   6.765  0.1037  0.3251 -0.5877
 5715SOL    HW118691   6.506   0.016   6.754  0.9331  0.7428 -1.1571
 5715SOL    HW218692   6.412   0.095   6.843 -0.0862 -0.7888 -0.8170
 5716SOL     OW18693   5.578   5.439   4.875  0.1371  0.0403 -0.1811
 5716SOL    HW118694   5.619   5.461   4.959  1.7719  1.6995 -1.3418
 5716SOL    HW218695   5.566   5.344   4.879  0.9737 -0.0437  1.5808
 5717SOL     OW18696   1.377   3.543   2.629  0.0694 -0.0563 -0.5362
 5717SOL    HW118697   1.426   3.482   2.573  1.7657  0.4056  0.3740
 5717SOL    HW218698   1.331   3.486   2.691  1.6484 -0.4684  0.3156
 5718SOL     OW18699   3.636   4.008   2.750 -0.4445 -0.1259 -0.8292
 5718SOL    HW118700   3.662   4.095   2.719  0.8941 -0.6719 -1.3147
 5718SOL    HW218701   3.563   3.983   2.694 -1.3533  0.9811 -0.1820
 5719SOL     OW18702   0.865   6.572   6.677 -0.1385  0.4798  0.1271
 5719SOL    HW118703   0.832   6.633   6.611 -1.1490  2.1470  2.0408
 5719SOL    HW218704   0.793   6.562   6.739  0.6519 -1.2687  0.8507
 5720SOL     OW18705   0.796   0.662   3.203 -0.1586 -0.3226  0.1418
 5720SOL    HW118706   0.806   0.572   3.171  1.0551 -0.8098  1.7734
 5720SOL    HW218707   0.878   0.681   3.249 -0.4005  1.6303 -0.1394
 5721SOL     OW18708   0.556   4.612   2.819  0.3011 -0.2039 -0.1598
 5721SOL    HW118709   0.497   4.559   2.764  1.6541 -2.0728  0.0956
 5721SOL    HW218710   0.567   4.560   2.898  2.5191 -0.0818 -0.3271
 5722SOL     OW18711   5.399   0.386   6.636 -0.4380  0.1786  0.6055
 5722SOL    HW118712   5.347   0.323   6.686 -1.5348 -1.1177 -1.9821
 5722SOL    HW218713   5.335   0.449   6.602  0.1499  0.4969  0.0664
 5723SOL     OW18714   5.390   0.286   2.866 -0.0304 -0.4949  0.1153
 5723SOL    HW118715   5.385   0.379   2.886  1.9555 -0.6773  1.8270
 5723SOL    HW218716   5.484   0.268   2.862 -0.3724 -2.4359 -0.2086
 5724SOL     OW18717   6.753   2.792   0.645  0.8175  0.2951  0.7460
 5724SOL    HW118718   6.716   2.873   0.611 -0.5936 -0.8236 -0.5371
 5724SOL    HW218719   6.711   2.779   0.730 -2.8903 -1.5142 -1.1291
 5725SOL     OW18720   4.652   1.391   4.881 -0.2521 -0.0766 -0.0761
 5725SOL    HW118721   4.563   1.355   4.878 -0.4161  0.3583 -0.8742
 5725SOL    HW218722   4.708   1.315   4.898 -0.6132 -0.7057 -1.4959
 5726SOL     OW18723   3.585   0.041   5.452 -0.2294 -0.2481  0.2008
 5726SOL    HW118724   3.604   0.135   5.453 -0.7661 -0.1135 -0.9894
 5726SOL    HW218725   3.514   0.030   5.516 -2.0665  0.6267 -1.5703
 5727SOL     OW18726   1.720   0.292   1.879 -0.4371  0.2776  0.5267
 5727SOL    HW118727   1.689   0.304   1.789 -0.4973  0.3463  0.5560
 5727SOL    HW218728   1.640   0.284   1.931 -0.4000  0.0253  0.5462
 5728SOL     OW18729   6.211   0.378   5.080 -0.1685 -0.8714 -0.2856
 5728SOL    HW118730   6.159   0.299   5.069  0.7450 -1.6255  0.5795
 5728SOL    HW218731   6.241   0.375   5.171 -0.2095  0.5417 -0.2008
 5729SOL     OW18732   0.310   3.429   2.561 -0.4953 -0.0483 -0.3678
 5729SOL    HW118733   0.399   3.441   2.530 -0.5390 -0.1473 -0.5331
 5729SOL    HW218734   0.300   3.334   2.570 -0.1121  0.0209  1.0519
 5730SOL     OW18735   5.679   3.693   5.150 -0.1312  0.3049  0.3961
 5730SOL    HW118736   5.662   3.655   5.064 -1.6221  0.3558  0.6433
 5730SOL    HW218737   5.670   3.788   5.137 -1.4685  0.2498  0.8220
 5731SOL     OW18738   0.600   3.392   4.579 -0.5133 -0.5856  0.2630
 5731SOL    HW118739   0.588   3.297   4.578  0.7417 -0.7998 -1.8953
 5731SOL    HW218740   0.565   3.420   4.663  0.2350 -3.1098  1.5272
 5732SOL     OW18741   5.884   1.465   2.144 -0.0432 -0.1654  0.1459
 5732SOL    HW118742   5.833   1.489   2.221 -0.6481 -2.2948  0.4743
 5732SOL    HW218743   5.917   1.548   2.110 -0.2748  0.8887  2.3288
 5733SOL     OW18744   5.467   5.887   0.822  0.4125  0.3697  0.2783
 5733SOL    HW118745   5.377   5.872   0.851  1.0129 -2.2082  1.0642
 5733SOL    HW218746   5.513   5.918   0.900  0.0601  2.6996 -0.3667
 5734SOL     OW18747   3.070   3.783   0.546  0.1519  0.2594 -0.6619
 5734SOL    HW118748   3.087   3.877   0.551 -0.8467  0.4105  0.3980
 5734SOL    HW218749   3.010   3.773   0.473  0.3721  0.4248 -0.8669
 5735SOL     OW18750   3.520   3.226   4.848 -0.0196  0.4152 -0.2054
 5735SOL    HW118751   3.453   3.214   4.916  0.0602 -1.1857 -0.3723
 5735SOL    HW218752   3.598   3.183   4.883 -0.0997 -0.8410 -1.4460
 5736SOL     OW18753   2.401   0.576   0.447 -0.4504 -0.0771  0.3419
 5736SOL    HW118754   2.452   0.647   0.485 -1.8171  1.5044 -0.6018
 5736SOL    HW218755   2.443   0.558   0.363 -0.6586  0.3046  0.1530
 5737SOL     OW18756   2.902   1.678   2.239  0.4706 -0.0253  0.1138
 5737SOL    HW118757   2.818   1.709   2.274  0.4699 -0.0747  0.1559
 5737SOL    HW218758   2.908   1.587   2.268  0.0608 -0.3435 -0.7695
 5738SOL     OW18759   5.424   0.579   3.715 -0.2833 -0.3605 -0.1189
 5738SOL    HW118760   5.345   0.526   3.712 -0.6222  0.0821  0.7518
 5738SOL    HW218761   5.415   0.633   3.793  0.1837  0.7845 -0.8209
 5739SOL     OW18762   3.408   5.478   3.170 -0.0709 -0.1181 -0.3855
 5739SOL    HW118763   3.465   5.465   3.246  0.8199  2.6081 -0.4930
 5739SOL    HW218764   3.455   5.436   3.098 -0.1744 -1.3680  0.2434
 5740SOL     OW18765   2.401   2.852   6.079  0.8301  0.1115 -0.4344
 5740SOL    HW118766   2.349   2.799   6.018  0.1042 -0.4679  0.6395
 5740SOL    HW218767   2.360   2.837   6.164  1.9747  0.6819  0.2471
 5741SOL     OW18768   5.086   0.484   4.042  0.2621 -0.3600 -0.4965
 5741SOL    HW118769   5.028   0.409   4.036 -0.8725  0.4354  0.1251
 5741SOL    HW218770   5.041   0.553   3.993  1.5508 -0.2347 -1.5418
 5742SOL     OW18771   3.343   2.277   5.233 -0.3774 -0.1936 -0.0400
 5742SOL    HW118772   3.250   2.283   5.254 -0.3031 -0.3430  0.3446
 5742SOL    HW218773   3.360   2.352   5.176 -0.6151  0.1487  0.3362
 5743SOL     OW18774   2.521   2.738   6.383  0.6830  0.4391 -0.2492
 5743SOL    HW118775   2.558   2.651   6.388  1.0587  0.6499  1.1479
 5743SOL    HW218776   2.545   2.770   6.296  0.9514 -0.6547 -0.5920
 5744SOL     OW18777   2.018   2.356   5.299 -0.2529  0.6458 -0.5892
 5744SOL    HW118778   2.054   2.411   5.368 -2.1689  1.3175 -0.0696
 5744SOL    HW218779   1.957   2.297   5.344 -1.6092  1.1606 -1.6868
 5745SOL     OW18780   1.283   3.206   0.831 -0.0613 -0.1835 -0.7708
 5745SOL    HW118781   1.334   3.163   0.762  2.0436 -0.9359  1.1186
 5745SOL    HW218782   1.271   3.138   0.897 -0.4877  0.9743  0.3797
 5746SOL     OW18783   6.252   4.901   5.791 -0.4239  0.1238 -0.4739
 5746SOL    HW118784   6.259   4.806   5.801 -0.5678  0.0935 -0.6571
 5746SOL    HW218785   6.190   4.928   5.858 -0.5067  0.0689 -0.5294
 5747SOL     OW18786   5.511   6.213   5.252  0.4068  0.3026 -0.2316
 5747SOL    HW118787   5.539   6.253   5.170  1.7287  2.0383  0.9711
 5747SOL    HW218788   5.559   6.131   5.257  0.7552  0.4621 -0.9364
 5748SOL     OW18789   4.028   1.986   3.157  0.6997  0.0067 -0.1660
 5748SOL    HW118790   4.087   1.972   3.231  0.0138  1.1305  0.6150
 5748SOL    HW218791   3.973   1.908   3.155 -1.1991  1.1552  2.3492
 5749SOL     OW18792   6.519   6.496   5.283  0.9240 -0.9535  0.2635
 5749SOL    HW118793   6.438   6.447   5.291  1.5264 -1.9519  0.4076
 5749SOL    HW218794   6.493   6.588   5.294 -0.2698 -1.1930 -0.4156
 5750SOL     OW18795   6.155   1.901   3.139  0.1337  0.0793  0.2336
 5750SOL    HW118796   6.070   1.859   3.130  0.4406 -0.2518 -1.4392
 5750SOL    HW218797   6.179   1.927   3.050  0.3071  3.1516  1.0636
 5751SOL     OW18798   6.364   6.464   3.276  0.4132 -0.3919 -0.3742
 5751SOL    HW118799   6.292   6.412   3.314  1.8070 -1.1092  1.4504
 5751SOL    HW218800   6.443   6.416   3.301  1.5826  0.9134 -1.4628
 5752SOL     OW18801   4.166   1.052   0.507  0.3613  0.0079 -0.4852
 5752SOL    HW118802   4.260   1.038   0.521  0.5248  0.5260 -1.0346
 5752SOL    HW218803   4.125   1.017   0.586  1.2904  3.4943  1.8264
 5753SOL     OW18804   2.098   3.462   1.862 -0.1371  0.2350 -0.4550
 5753SOL    HW118805   2.135   3.460   1.773 -2.0783 -0.9627 -1.3013
 5753SOL    HW218806   2.020   3.516   1.854  0.0229  0.6582  0.7120
 5754SOL     OW18807   4.869   5.646   4.507 -0.0477 -0.1686  0.1307
 5754SOL    HW118808   4.829   5.664   4.422 -0.8823 -2.3011  0.0181
 5754SOL    HW218809   4.814   5.694   4.570  1.2621  2.3951 -0.5357
 5755SOL     OW18810   5.802   4.316   1.942  0.1698  0.6494 -0.0789
 5755SOL    HW118811   5.791   4.273   2.027  0.3721  1.0465  0.1470
 5755SOL    HW218812   5.895   4.334   1.936  0.3013 -0.1681 -0.7752
 5756SOL     OW18813   0.328   5.609   2.799 -0.5618  0.3322 -0.5460
 5756SOL    HW118814   0.361   5.541   2.858 -0.8545  0.7851  0.1467
 5756SOL    HW218815   0.233   5.605   2.808 -0.6295  0.0895 -1.3460
 5757SOL     OW18816   6.311   4.327   4.906 -0.9354  0.1763  0.0160
 5757SOL    HW118817   6.304   4.420   4.883  0.2552  0.3700  0.3825
 5757SOL    HW218818   6.249   4.284   4.847 -1.8523  1.2433  0.1557
 5758SOL     OW18819   4.612   3.525   4.937  0.3739  0.1093 -0.2408
 5758SOL    HW118820   4.592   3.461   4.870  1.0196  0.6503 -0.9688
 5758SOL    HW218821   4.588   3.609   4.898 -0.0190  0.3597  0.5188
 5759SOL     OW18822   3.707   5.640   2.813 -0.3509  0.1426  0.0991
 5759SOL    HW118823   3.715   5.629   2.719  0.7262 -1.6196  0.3594
 5759SOL    HW218824   3.785   5.689   2.839  0.1042 -0.6331  0.2345
 5760SOL     OW18825   5.622   4.896   3.206  0.1379 -0.0153  0.0854
 5760SOL    HW118826   5.591   4.806   3.211  0.0208 -0.0327 -0.8307
 5760SOL    HW218827   5.681   4.897   3.131  0.0427  0.6988  0.0146
 5761SOL     OW18828   3.820   0.005   4.176 -0.3747 -0.3701 -0.5418
 5761SOL    HW118829   3.792  -0.083   4.200  0.1821 -0.2262  0.7221
 5761SOL    HW218830   3.770   0.063   4.233 -0.0950  0.0805 -0.7467
 5762SOL     OW18831   6.290   0.614   0.661  0.1643 -0.4594 -0.2610
 5762SOL    HW118832   6.316   0.673   0.732 -0.5114 -1.9501  1.2925
 5762SOL    HW218833   6.369   0.605   0.607  0.7719  0.4961  0.4391
 5763SOL     OW18834   6.502   0.176   4.890  0.8114 -0.0095 -0.2575
 5763SOL    HW118835   6.583   0.227   4.900  1.0364 -0.6495  1.5467
 5763SOL    HW218836   6.445   0.209   4.960  0.4732 -1.3119  0.0980
 5764SOL     OW18837   2.442   0.783   1.343  0.1604 -0.2823  0.1372
 5764SOL    HW118838   2.435   0.705   1.398 -0.4425 -0.3346 -0.0127
 5764SOL    HW218839   2.504   0.840   1.390 -0.6648 -0.1401  1.0921
 5765SOL     OW18840   0.856   1.859   6.420 -0.3780 -0.4107  0.6944
 5765SOL    HW118841   0.843   1.793   6.488 -1.3237  0.2165  1.1457
 5765SOL    HW218842   0.898   1.932   6.466 -0.9734 -0.0060  0.6080
 5766SOL     OW18843   4.835   1.830   3.584  0.2768 -0.3195 -0.2440
 5766SOL    HW118844   4.744   1.852   3.565  0.6867  1.1496 -0.6744
 5766SOL    HW218845   4.837   1.813   3.678 -0.2651  0.6440 -0.0439
 5767SOL     OW18846   0.906   1.649   4.349  0.5053 -0.3862 -0.0863
 5767SOL    HW118847   0.883   1.560   4.321 -0.2998  0.4908 -2.4576
 5767SOL    HW218848   0.824   1.698   4.341  0.9663  0.6106  1.0830
 5768SOL     OW18849   3.335   2.845   2.447 -0.1953  0.0524  0.3989
 5768SOL    HW118850   3.380   2.909   2.392  1.1683 -0.9721  0.2720
 5768SOL    HW218851   3.283   2.793   2.385  0.8002 -0.6601  0.1408
 5769SOL     OW18852   1.205   4.649   0.656 -0.0291 -0.2314  0.8803
 5769SOL    HW118853   1.205   4.566   0.703 -0.0445 -1.8549 -1.7583
 5769SOL    HW218854   1.215   4.625   0.564 -0.9108  2.6534 -0.1038
 5770SOL     OW18855   0.464   5.975   2.337 -0.1312 -0.4938  0.4570
 5770SOL    HW118856   0.390   6.012   2.290  0.7722  0.3898 -0.3106
 5770SOL    HW218857   0.427   5.903   2.388 -1.6230  0.3778  0.6384
 5771SOL     OW18858   2.392   5.974   2.722  0.2257  1.2732 -0.0194
 5771SOL    HW118859   2.310   5.982   2.769  0.8157  2.0012  0.9297
 5771SOL    HW218860   2.378   5.904   2.659 -0.3246 -0.3346  1.8262
 5772SOL     OW18861   4.580   5.285   3.313 -0.0399 -0.4287  0.3723
 5772SOL    HW118862   4.544   5.213   3.364 -1.8454  0.2762  0.1486
 5772SOL    HW218863   4.507   5.345   3.299  0.6908  0.0577 -1.9192
 5773SOL     OW18864   4.359   2.451   0.945 -0.5554  0.1884 -0.1416
 5773SOL    HW118865   4.299   2.378   0.962 -2.0490  1.7321  1.5420
 5773SOL    HW218866   4.327   2.490   0.864  0.3103 -0.9986 -1.1086
 5774SOL     OW18867   6.330   3.415   0.804  0.0842 -0.6749  0.2065
 5774SOL    HW118868   6.237   3.398   0.788 -0.2121  0.9641  0.0438
 5774SOL    HW218869   6.332   3.457   0.890  0.3972  1.3296 -0.7191
 5775SOL     OW18870   6.195   5.773   1.997 -0.0152  0.0287  0.0778
 5775SOL    HW118871   6.118   5.716   2.003  0.4391 -0.4542  2.3381
 5775SOL    HW218872   6.166   5.845   1.942 -1.2834 -1.3284 -1.1522
 5776SOL     OW18873   4.642   5.650   0.884  0.4353  0.3381 -0.5617
 5776SOL    HW118874   4.609   5.620   0.799 -0.7341 -0.7924  0.2491
 5776SOL    HW218875   4.702   5.581   0.912 -0.4451 -0.1384  0.2373
 5777SOL     OW18876   3.578   1.933   1.203  0.0741  0.3666  0.2220
 5777SOL    HW118877   3.500   1.886   1.174  1.5893 -4.1587  2.4896
 5777SOL    HW218878   3.644   1.911   1.137  0.3851  0.7950  0.3953
 5778SOL     OW18879   3.163   3.106   0.648 -0.0718 -0.2023 -0.1475
 5778SOL    HW118880   3.233   3.042   0.637  1.0105  1.0714 -1.0133
 5778SOL    HW218881   3.094   3.079   0.588  0.5729 -0.2898 -0.8486
 5779SOL     OW18882   4.427   6.310   4.370 -0.2718  0.9430  0.3494
 5779SOL    HW118883   4.355   6.332   4.429 -1.7607 -0.9588 -0.6583
 5779SOL    HW218884   4.387   6.304   4.284  1.2099  0.3607 -0.3381
 5780SOL     OW18885   1.701   5.243   2.726  0.0546 -0.8363  0.2027
 5780SOL    HW118886   1.677   5.335   2.719  0.8020 -0.6692 -0.1202
 5780SOL    HW218887   1.639   5.197   2.669 -0.9939 -0.6628  1.1514
 5781SOL     OW18888   0.309   0.564   6.419 -0.1524  0.0524 -0.2837
 5781SOL    HW118889   0.220   0.580   6.449  0.2437  1.0447  0.3979
 5781SOL    HW218890   0.341   0.493   6.476  0.7587  2.2270  2.1492
 5782SOL     OW18891   3.152   0.519   4.756  0.6745  0.0686  0.0403
 5782SOL    HW118892   3.219   0.517   4.825 -1.5100  2.6176  2.5133
 5782SOL    HW218893   3.183   0.586   4.695  1.1828 -0.0103  0.2037
 5783SOL     OW18894   5.683   0.892   1.894 -0.3130  0.3203 -0.0644
 5783SOL    HW118895   5.638   0.817   1.932  3.1278 -2.4106 -0.8612
 5783SOL    HW218896   5.738   0.926   1.965  1.1235 -0.5529 -0.7084
 5784SOL     OW18897   3.743   1.722   4.150  0.4166  0.8998 -0.2765
 5784SOL    HW118898   3.690   1.737   4.072  0.9165 -0.4485 -0.9168
 5784SOL    HW218899   3.833   1.741   4.121  0.3780  2.5741  0.6202
 5785SOL     OW18900   5.327   0.993   5.119 -0.1340  0.0196  0.4448
 5785SOL    HW118901   5.282   0.990   5.034  1.4661 -0.5261 -0.4368
 5785SOL    HW218902   5.350   0.902   5.137  1.0094  0.3168  0.6097
 5786SOL     OW18903   1.325   0.336   0.317 -0.0831 -0.1538 -0.2017
 5786SOL    HW118904   1.267   0.412   0.326  0.0583  0.1645 -1.7431
 5786SOL    HW218905   1.413   0.372   0.322 -0.0053 -0.4001  0.3146
 5787SOL     OW18906   2.349   3.667   2.485  0.2332  0.0021  0.0258
 5787SOL    HW118907   2.403   3.710   2.552 -1.7563 -0.8628  2.3356
 5787SOL    HW218908   2.327   3.582   2.522 -0.4091 -0.8146 -2.0633
 5788SOL     OW18909   4.556   5.085   6.382 -0.6665 -0.1298 -0.6989
 5788SOL    HW118910   4.518   5.127   6.305 -0.9199  3.1976  1.0590
 5788SOL    HW218911   4.651   5.088   6.367 -0.7685 -1.2786 -1.6769
 5789SOL     OW18912   5.943   1.989   6.201 -0.0350 -0.1397  0.4755
 5789SOL    HW118913   5.944   1.924   6.271 -0.4540 -1.4542 -0.6972
 5789SOL    HW218914   6.028   1.980   6.157 -0.5378 -0.7400 -0.4121
 5790SOL     OW18915   4.859   2.326   3.631  0.3052 -0.1612  0.0672
 5790SOL    HW118916   4.923   2.257   3.648  0.5268  0.3687  1.5455
 5790SOL    HW218917   4.863   2.382   3.709 -1.4949  0.2512 -0.0984
 5791SOL     OW18918   4.282   2.330   2.909  0.4429 -0.2042 -0.2026
 5791SOL    HW118919   4.199   2.344   2.955 -0.4506 -1.0660 -1.4753
 5791SOL    HW218920   4.331   2.411   2.922  0.5658 -0.6576  2.8694
 5792SOL     OW18921   3.995   1.215   1.990  0.2306  0.2395 -0.3119
 5792SOL    HW118922   3.989   1.219   1.894  0.3584 -0.3633 -0.3479
 5792SOL    HW218923   4.085   1.244   2.009 -0.1735  1.5261 -0.2891
 5793SOL     OW18924   0.149   5.281   6.769  0.0326  0.5956 -0.3097
 5793SOL    HW118925   0.232   5.315   6.737  0.1373 -0.2070 -0.9195
 5793SOL    HW218926   0.161   5.275   6.864  0.5631  0.7776 -0.3623
 5794SOL     OW18927   0.115   5.202   3.301 -0.0959 -0.6917 -0.0864
 5794SOL    HW118928   0.096   5.174   3.390  0.2142 -2.5396 -0.5506
 5794SOL    HW218929   0.175   5.135   3.267 -0.3763 -0.1624 -1.7478
 5795SOL     OW18930   5.086   4.629   1.833 -0.1312 -0.5877 -0.2463
 5795SOL    HW118931   5.127   4.647   1.749  0.0294  0.8930  0.1195
 5795SOL    HW218932   5.053   4.714   1.863 -0.8641 -1.2126  0.8364
 5796SOL     OW18933   4.276   2.724   5.700  0.1061  0.1590  0.6366
 5796SOL    HW118934   4.313   2.714   5.788  0.0737 -1.0873  0.5302
 5796SOL    HW218935   4.184   2.748   5.714  0.5863  2.0031  0.9075
 5797SOL     OW18936   0.743   0.646   4.718 -0.1297  0.2944 -0.2873
 5797SOL    HW118937   0.824   0.661   4.670  0.4508 -0.1583  0.5337
 5797SOL    HW218938   0.711   0.562   4.687  0.8600 -0.5677  0.9166
 5798SOL     OW18939   6.674   2.536   1.173 -0.1305  0.4530  0.4353
 5798SOL    HW118940   6.669   2.482   1.252  0.3473  0.4662  0.4738
 5798SOL    HW218941   6.653   2.625   1.204  0.4105  0.5202  0.6120
 5799SOL     OW18942   1.412   2.304   3.606 -0.3843 -0.2936 -0.0868
 5799SOL    HW118943   1.500   2.311   3.645 -0.1209 -1.0739 -0.5010
 5799SOL    HW218944   1.373   2.229   3.651 -1.5637  1.1572  1.4122
 5800SOL     OW18945   0.325   3.345   0.068 -0.1568 -0.1381  0.4010
 5800SOL    HW118946   0.419   3.341   0.087  0.0917 -0.0762 -0.7391
 5800SOL    HW218947   0.283   3.343   0.154  0.9083  0.4016  0.9545
 5801SOL     OW18948   2.417   6.172   1.251 -0.3607  0.3807 -0.2346
 5801SOL    HW118949   2.499   6.187   1.298  0.0586  1.2292 -1.1782
 5801SOL    HW218950   2.365   6.251   1.269 -1.6559 -0.8205  1.6404
 5802SOL     OW18951   2.384   5.678   2.893 -0.1059 -0.4859  0.0973
 5802SOL    HW118952   2.444   5.738   2.937 -1.9965  2.8080 -1.3897
 5802SOL    HW218953   2.344   5.628   2.964  2.1047 -0.5901  1.3569
 5803SOL     OW18954   2.228   2.236   1.803  0.5264  0.3243  0.0480
 5803SOL    HW118955   2.258   2.327   1.804 -0.6410  0.7497 -0.6739
 5803SOL    HW218956   2.219   2.215   1.710 -2.2243  0.5801  0.1586
 5804SOL     OW18957   4.742   6.156   5.332 -0.1605 -0.2831 -0.3679
 5804SOL    HW118958   4.715   6.100   5.405  0.2737 -0.1452 -0.0982
 5804SOL    HW218959   4.825   6.193   5.360  0.7205 -1.3003 -1.4997
 5805SOL     OW18960   6.325   3.338   6.595 -0.1043  0.2491 -0.0828
 5805SOL    HW118961   6.379   3.350   6.673 -1.0664  1.7661  0.3972
 5805SOL    HW218962   6.375   3.279   6.539  2.1972  1.8379  0.1891
 5806SOL     OW18963   5.281   4.760   0.809 -0.2200  0.1734 -0.1924
 5806SOL    HW118964   5.189   4.737   0.817 -0.1422 -0.5115 -1.1246
 5806SOL    HW218965   5.290   4.794   0.720 -0.1446  3.0788  0.7981
 5807SOL     OW18966   3.109   3.368   5.009 -0.5544 -0.5503  0.3836
 5807SOL    HW118967   3.118   3.448   5.061 -0.1676 -0.4089  0.1006
 5807SOL    HW218968   3.190   3.319   5.026 -0.3340 -0.4074 -0.2512
 5808SOL     OW18969   4.868   5.470   3.084  0.0108  0.1934 -0.0915
 5808SOL    HW118970   4.848   5.541   3.024  0.2147  1.1591  0.9478
 5808SOL    HW218971   4.812   5.487   3.160  1.1265  0.0949  0.7802
 5809SOL     OW18972   2.348   4.269   0.350  0.3992 -0.3665  0.3550
 5809SOL    HW118973   2.274   4.276   0.411  0.0627  0.1259 -0.0961
 5809SOL    HW218974   2.322   4.322   0.274  1.5992  0.5970  0.5739
 5810SOL     OW18975   0.464   1.840   1.289  0.4816  0.5710  0.3497
 5810SOL    HW118976   0.440   1.753   1.322 -0.7636  0.4055 -0.8844
 5810SOL    HW218977   0.538   1.824   1.231  0.1926  0.3126  0.0486
 5811SOL     OW18978   1.022   5.151   5.232 -0.2824  0.5656  0.1907
 5811SOL    HW118979   1.061   5.207   5.299 -1.0313  0.9134  0.3430
 5811SOL    HW218980   0.937   5.190   5.214 -0.3830  0.0657 -0.4534
 5812SOL     OW18981   1.292   4.391   4.508  0.4901 -0.2904  0.0406
 5812SOL    HW118982   1.257   4.421   4.424 -0.4578  0.0294  0.5302
 5812SOL    HW218983   1.214   4.380   4.563  1.2321  1.6863  1.5950
 5813SOL     OW18984   5.254   2.062   3.920 -0.0178  0.1610  0.2053
 5813SOL    HW118985   5.289   1.976   3.940 -1.3841 -0.5577 -0.3894
 5813SOL    HW218986   5.190   2.047   3.850 -0.3890  1.6293  0.1866
 5814SOL     OW18987   5.142   6.674   4.815  0.1982 -0.3600  0.3439
 5814SOL    HW118988   5.235   6.690   4.827  0.0944 -0.5238  1.4223
 5814SOL    HW218989   5.107   6.667   4.903 -1.1508  1.4114  0.0080
 5815SOL     OW18990   0.941   2.069   5.073 -0.4564  0.2377 -0.0413
 5815SOL    HW118991   0.873   2.002   5.085 -0.9013  0.7220  0.1755
 5815SOL    HW218992   1.021   2.019   5.058 -0.7738 -0.3474  0.1742
 5816SOL     OW18993   0.675   2.560   4.752 -0.4477  0.0690  0.2030
 5816SOL    HW118994   0.693   2.607   4.834  1.8216  0.0133 -0.1735
 5816SOL    HW218995   0.620   2.620   4.701  2.4547  2.5739 -0.3374
 5817SOL     OW18996   2.885   3.291   2.201 -0.0054  0.6271  0.1444
 5817SOL    HW118997   2.915   3.203   2.177  0.9579  0.9712  0.0241
 5817SOL    HW218998   2.965   3.336   2.228 -0.3149  1.8068 -0.8269
 5818SOL     OW18999   1.051   2.774   4.733 -0.2434  0.9588  0.3538
 5818SOL    HW119000   1.016   2.764   4.644 -1.0042  1.1892  0.6208
 5818SOL    HW219001   0.989   2.833   4.776 -0.4531  0.0326  1.3539
 5819SOL     OW19002   0.026   2.944   1.199  0.3615 -0.2270  0.1719
 5819SOL    HW119003   0.077   2.930   1.279 -1.2350  0.6645  1.4275
 5819SOL    HW219004  -0.060   2.907   1.219 -0.4851  1.2114 -0.6013
 5820SOL     OW19005   6.300   4.976   0.652 -0.2232  0.6574  0.1280
 5820SOL    HW119006   6.282   4.906   0.715 -0.3572  1.8020  1.4286
 5820SOL    HW219007   6.394   4.992   0.660  0.0076 -0.0734 -0.9534
 5821SOL     OW19008   5.591   1.966   4.496 -0.5147  0.7467 -0.3428
 5821SOL    HW119009   5.666   1.946   4.553  1.0970  0.1486 -2.5363
 5821SOL    HW219010   5.535   1.889   4.503 -0.0269  0.4121 -0.0543
 5822SOL     OW19011   5.973   3.813   6.648  0.0860 -0.3297 -0.0539
 5822SOL    HW119012   6.033   3.744   6.677  0.3716  0.6233  1.7479
 5822SOL    HW219013   5.886   3.780   6.669  0.3192  0.9336  3.5998
 5823SOL     OW19014   1.024   1.202   4.353  0.0986 -0.1375  0.2085
 5823SOL    HW119015   0.944   1.237   4.313 -0.2322 -1.1313 -0.0293
 5823SOL    HW219016   1.095   1.241   4.303 -0.2599  0.2342 -0.0166
 5824SOL     OW19017   4.469   0.909   5.917 -0.5840  0.4745  0.6393
 5824SOL    HW119018   4.410   0.983   5.904 -0.9664 -0.0922 -1.0655
 5824SOL    HW219019   4.519   0.904   5.836  0.8531  0.0877  1.5299
 5825SOL     OW19020   4.909   6.514   3.748  0.3420  0.0810 -0.1719
 5825SOL    HW119021   4.867   6.485   3.829 -0.3742  2.0564  0.2092
 5825SOL    HW219022   4.981   6.451   3.735  0.8076  0.0091  2.2629
 5826SOL     OW19023   3.855   5.016   4.419  0.1151 -0.2864 -0.3041
 5826SOL    HW119024   3.867   5.073   4.495 -1.4840  2.1560 -1.7491
 5826SOL    HW219025   3.821   4.935   4.455 -0.9902  0.9403  1.6032
 5827SOL     OW19026   4.018   5.449   5.199  0.2399 -0.3540 -0.1351
 5827SOL    HW119027   3.972   5.497   5.130 -0.0025 -0.6610 -0.1905
 5827SOL    HW219028   3.983   5.360   5.194 -0.9743 -0.0092  1.4415
 5828SOL     OW19029   1.469   5.995   1.203  0.0514  1.0864  0.5963
 5828SOL    HW119030   1.421   5.914   1.184 -2.1577  2.6106 -0.7369
 5828SOL    HW219031   1.481   5.993   1.298 -2.0022  0.2332  0.8971
 5829SOL     OW19032   6.698   6.492   1.878  0.2848  0.1341 -0.1487
 5829SOL    HW119033   6.786   6.527   1.863  0.0832  0.3044 -0.9820
 5829SOL    HW219034   6.640   6.561   1.845 -0.1649  0.0461  0.4490
 5830SOL     OW19035   1.865   4.941   1.286 -0.6642 -0.4929  0.4616
 5830SOL    HW119036   1.832   4.923   1.197  0.4089 -0.6817  0.0826
 5830SOL    HW219037   1.903   5.028   1.280 -0.2685 -0.6534  0.6456
 5831SOL     OW19038   6.660   6.715   0.765 -0.1126  0.5968 -0.6541
 5831SOL    HW119039   6.675   6.766   0.845  0.5616  0.5391 -0.7389
 5831SOL    HW219040   6.716   6.638   0.775 -0.9331 -0.0210 -0.6413
 5832SOL     OW19041   1.750   2.448   0.780  0.2672 -0.0074  0.6232
 5832SOL    HW119042   1.794   2.364   0.796  2.1571  0.8451  0.1665
 5832SOL    HW219043   1.720   2.441   0.689  0.0563 -0.3445  0.7167
 5833SOL     OW19044   4.757   2.874   1.771  0.3547  0.6039  0.2943
 5833SOL    HW119045   4.811   2.949   1.795  0.2298  0.2541  1.7534
 5833SOL    HW219046   4.744   2.826   1.853 -0.9965 -0.0813 -0.2820
 5834SOL     OW19047   4.577   1.219   6.693  0.0456  0.1920 -0.3099
 5834SOL    HW119048   4.531   1.182   6.617  0.1963 -2.0186  0.5924
 5834SOL    HW219049   4.514   1.211   6.764  0.4675  0.7649  0.1320
 5835SOL     OW19050   1.566   0.614   6.591 -0.1896  0.4256  0.0415
 5835SOL    HW119051   1.536   0.532   6.631 -0.0988  1.4948  2.5452
 5835SOL    HW219052   1.601   0.589   6.506  0.0020 -2.1427  0.7962
 5836SOL     OW19053   4.591   1.087   5.399 -0.2878  0.0107  0.0025
 5836SOL    HW119054   4.669   1.036   5.373 -0.1064 -1.0207  2.2999
 5836SOL    HW219055   4.624   1.175   5.416  0.7275 -0.7296  2.2388
 5837SOL     OW19056   5.246   1.462   5.870 -0.3476  0.7991 -0.0434
 5837SOL    HW119057   5.337   1.442   5.847 -0.0624  0.5296  1.2610
 5837SOL    HW219058   5.248   1.553   5.900 -0.4795  0.7304  0.1718
 5838SOL     OW19059   3.360   5.835   0.246  0.3640  0.2689 -0.3229
 5838SOL    HW119060   3.329   5.925   0.239  2.6344  1.0790 -0.5206
 5838SOL    HW219061   3.443   5.841   0.293  2.1411 -1.3073 -3.0044
 5839SOL     OW19062   5.337   4.143   6.240  0.3810  0.3390  0.1367
 5839SOL    HW119063   5.242   4.134   6.230  0.3756  1.2090 -0.6487
 5839SOL    HW219064   5.349   4.230   6.277  0.7961 -0.4062  1.8542
 5840SOL     OW19065   6.427   6.061   1.700 -0.4564  0.2677  0.2286
 5840SOL    HW119066   6.360   5.994   1.706  0.8261 -1.1765 -0.8117
 5840SOL    HW219067   6.450   6.065   1.607  2.1694 -0.6404  0.7473
 5841SOL     OW19068   2.332   5.504   3.576 -0.5510  0.1885 -0.0258
 5841SOL    HW119069   2.247   5.480   3.538  0.5950  1.0835 -3.5591
 5841SOL    HW219070   2.322   5.597   3.598 -0.8289 -0.0195  0.7704
 5842SOL     OW19071   1.676   1.761   1.795  0.6001  0.6955 -0.0097
 5842SOL    HW119072   1.600   1.741   1.850  0.3043  0.9390 -0.3236
 5842SOL    HW219073   1.665   1.853   1.772  0.4830  0.4795 -0.8363
 5843SOL     OW19074   3.219   1.286   4.390 -0.5316 -0.5722 -0.1775
 5843SOL    HW119075   3.152   1.328   4.337  0.5127  0.6215 -0.6005
 5843SOL    HW219076   3.263   1.226   4.330  0.3814  0.4766 -0.5835
 5844SOL     OW19077   2.301   4.096   1.809  0.0398  0.3367  0.2498
 5844SOL    HW119078   2.218   4.142   1.800  1.1803  2.2770 -1.5448
 5844SOL    HW219079   2.367   4.161   1.785  1.9801 -1.5012  0.2469
 5845SOL     OW19080   1.396   0.405   1.573 -0.3541 -0.4242  0.5866
 5845SOL    HW119081   1.406   0.500   1.572 -0.5056 -0.3987 -0.8794
 5845SOL    HW219082   1.302   0.391   1.583 -0.2530 -0.4448  1.5830
 5846SOL     OW19083   3.141   6.203   6.712  0.1585  0.0441 -0.0488
 5846SOL    HW119084   3.133   6.210   6.808  0.8234  0.6693 -0.0319
 5846SOL    HW219085   3.079   6.134   6.688 -1.2165  1.0064  0.6423
 5847SOL     OW19086   0.161   0.380   1.552 -0.2477 -0.3082  0.7051
 5847SOL    HW119087   0.089   0.441   1.541  1.1766  1.0510 -2.7661
 5847SOL    HW219088   0.157   0.325   1.474  3.4288  1.1035 -0.6982
 5848SOL     OW19089   6.768   2.281   3.089  0.9927 -0.2503 -0.0674
 5848SOL    HW119090   6.740   2.252   3.002 -0.4457 -1.6884  0.8100
 5848SOL    HW219091   6.774   2.376   3.082 -0.3089 -0.2257 -1.4246
 5849SOL     OW19092   5.874   0.047   3.762  0.4421 -0.5778  0.1870
 5849SOL    HW119093   5.787   0.008   3.757 -0.9075  2.2245  0.3797
 5849SOL    HW219094   5.893   0.074   3.672 -0.0286  1.0331  0.5398
 5850SOL     OW19095   6.083   4.426   6.014 -0.3348 -0.4569 -0.3738
 5850SOL    HW119096   6.046   4.338   6.014 -0.0333 -0.5978 -1.3621
 5850SOL    HW219097   6.068   4.459   6.103 -2.7584 -0.5209 -0.7033
 5851SOL     OW19098   6.449   5.984   5.172 -0.8625  0.0869 -0.7077
 5851SOL    HW119099   6.390   6.042   5.124 -0.4918  0.3429 -0.8575
 5851SOL    HW219100   6.447   6.016   5.262 -1.4852 -0.3342 -0.5649
 5852SOL     OW19101   0.958   4.026   3.862  0.2822  0.2358  0.1337
 5852SOL    HW119102   0.872   3.990   3.883  0.5334 -0.7590 -0.4829
 5852SOL    HW219103   0.986   4.070   3.942 -0.6307  0.2373  0.4609
 5853SOL     OW19104   5.023   5.091   5.494  0.0988  0.1326 -0.4527
 5853SOL    HW119105   5.011   5.164   5.432  0.6963  0.5099 -0.1381
 5853SOL    HW219106   5.118   5.082   5.501  0.0664 -1.7480 -1.7187
 5854SOL     OW19107   2.403   5.366   2.680 -0.3063 -0.0331  0.3514
 5854SOL    HW119108   2.481   5.380   2.733 -1.2933 -1.4074  2.2470
 5854SOL    HW219109   2.436   5.357   2.590  1.6107  0.1475  1.0099
 5855SOL     OW19110   1.856   2.143   3.190  0.0402  0.3701  0.2459
 5855SOL    HW119111   1.843   2.208   3.121 -1.8269 -1.1957 -1.0043
 5855SOL    HW219112   1.882   2.194   3.267  0.2070  2.3932 -1.0738
 5856SOL     OW19113   4.484   1.215   2.163  0.4595 -0.0056 -0.6388
 5856SOL    HW119114   4.518   1.267   2.236 -0.8967  1.2482 -0.8383
 5856SOL    HW219115   4.476   1.126   2.198  2.9788 -0.1827 -0.3278
 5857SOL     OW19116   2.848   3.163   1.388 -0.2066 -0.1578 -0.4130
 5857SOL    HW119117   2.871   3.124   1.473 -1.8434 -0.1728  0.0533
 5857SOL    HW219118   2.773   3.111   1.358 -0.4258  0.6493 -1.2695
 5858SOL     OW19119   0.657   2.936   1.353  0.2539  0.1366  0.7685
 5858SOL    HW119120   0.620   2.881   1.284 -1.4065 -0.1149  1.8082
 5858SOL    HW219121   0.615   3.021   1.341  0.9359  0.4640  0.6860
 5859SOL     OW19122   2.667   2.944   5.701  0.4920 -0.4242  0.3284
 5859SOL    HW119123   2.596   2.883   5.720 -0.2248 -0.1789 -1.4654
 5859SOL    HW219124   2.732   2.891   5.655  0.1779 -0.0079 -0.6078
 5860SOL     OW19125   3.634   4.184   6.723  0.0710  0.1684 -0.2615
 5860SOL    HW119126   3.671   4.103   6.757  2.1045  1.4396  0.7052
 5860SOL    HW219127   3.543   4.162   6.704  0.5422 -2.3100  0.0150
 5861SOL     OW19128   6.159   1.761   4.681 -0.1424  0.0574 -0.4817
 5861SOL    HW119129   6.093   1.735   4.744  2.1672 -0.3999  1.9194
 5861SOL    HW219130   6.141   1.854   4.665 -1.3493 -0.0596  0.0953
 5862SOL     OW19131   5.888   3.768   2.778  0.8437 -0.5810 -0.0144
 5862SOL    HW119132   5.808   3.819   2.778  0.8706 -0.4621  1.6440
 5862SOL    HW219133   5.909   3.755   2.686 -1.1923 -0.8090 -0.4884
 5863SOL     OW19134   2.638   3.778   1.874 -0.3529  0.1909 -0.0282
 5863SOL    HW119135   2.692   3.851   1.847 -0.7782  0.3534 -0.4477
 5863SOL    HW219136   2.548   3.806   1.857 -0.5508 -0.2307  0.2807
 5864SOL     OW19137   6.072   1.888   1.068  0.0294 -0.7943  0.1318
 5864SOL    HW119138   6.078   1.923   0.980 -0.8919  0.0808  0.4063
 5864SOL    HW219139   6.057   1.794   1.056 -1.4895 -0.4701 -0.6720
 5865SOL     OW19140   2.054   0.594   1.706 -0.0887  0.5804 -0.2985
 5865SOL    HW119141   2.054   0.523   1.770 -1.2277  0.2414 -0.6551
 5865SOL    HW219142   2.126   0.573   1.647 -0.6290 -0.4707 -0.6012
 5866SOL     OW19143   5.521   0.718   6.667  0.4128  0.1765  0.0283
 5866SOL    HW119144   5.548   0.710   6.758  0.5202 -0.9665 -0.1004
 5866SOL    HW219145   5.448   0.780   6.669  0.4807  0.2333  0.8721
 5867SOL     OW19146   5.717   2.986   3.316 -0.5173 -0.5988 -0.1673
 5867SOL    HW119147   5.655   2.997   3.243  0.0052 -0.2242 -0.5614
 5867SOL    HW219148   5.676   3.032   3.389 -0.2669  0.4760 -0.6897
 5868SOL     OW19149   5.115   6.306   0.671 -0.8766 -0.1436 -0.0257
 5868SOL    HW119150   5.050   6.359   0.718  0.9891  2.8907 -0.5757
 5868SOL    HW219151   5.184   6.291   0.735 -0.6556 -0.5500 -0.3522
 5869SOL     OW19152   4.334   3.186   0.520 -0.5858  0.0054 -0.4329
 5869SOL    HW119153   4.419   3.195   0.478 -0.0644  2.2380  0.9525
 5869SOL    HW219154   4.280   3.140   0.456  1.4620 -0.9565 -1.5713
 5870SOL     OW19155   3.773   6.715   3.638  0.1599  0.2330  0.2026
 5870SOL    HW119156   3.681   6.701   3.617  0.6492  0.7097 -2.5957
 5870SOL    HW219157   3.784   6.677   3.726 -2.4807 -0.5867  0.2426
 5871SOL     OW19158   6.430   2.372   5.139 -0.0613 -0.3063  0.8099
 5871SOL    HW119159   6.515   2.398   5.101 -0.0116 -0.1077  1.0548
 5871SOL    HW219160   6.408   2.443   5.199 -0.9727  0.2271 -0.1235
 5872SOL     OW19161   5.450   4.813   6.195 -0.5108 -0.2943 -0.2825
 5872SOL    HW119162   5.358   4.838   6.188 -0.0823  1.2974 -0.6780
 5872SOL    HW219163   5.498   4.893   6.174  0.9687 -1.0307  0.1592
 5873SOL     OW19164   2.071   5.490   2.226  0.5771 -0.4680  0.8694
 5873SOL    HW119165   2.047   5.571   2.182  1.7693  0.2086  1.4060
 5873SOL    HW219166   2.135   5.517   2.292  0.7720 -1.8079  1.2575
 5874SOL     OW19167   3.828   0.370   3.862 -0.2401 -0.4260  0.2909
 5874SOL    HW119168   3.920   0.351   3.845  0.1122  0.7591  0.7262
 5874SOL    HW219169   3.825   0.465   3.870 -1.5152 -0.4504  0.2491
 5875SOL     OW19170   0.180   0.936   6.337  0.0612  0.1087  0.5627
 5875SOL    HW119171   0.249   0.980   6.386  0.0123  0.3435  0.4193
 5875SOL    HW219172   0.113   0.916   6.402  1.8113 -3.4822  1.5442
 5876SOL     OW19173   3.111   3.386   1.485 -0.3875 -0.0777  0.2590
 5876SOL    HW119174   3.090   3.445   1.557 -2.1097  1.1445 -1.1582
 5876SOL    HW219175   3.047   3.407   1.417  1.1753 -1.1561 -1.6611
 5877SOL     OW19176   4.441   6.662   1.011  0.1856 -0.1021 -0.1853
 5877SOL    HW119177   4.501   6.637   0.940  4.1530  0.7983  2.5283
 5877SOL    HW219178   4.421   6.579   1.055  0.9673 -0.2095 -0.0272
 5878SOL     OW19179   4.893   6.323   4.383  0.0953 -0.6907 -0.0255
 5878SOL    HW119180   4.905   6.388   4.314  1.3384 -0.1857  0.6293
 5878SOL    HW219181   4.938   6.245   4.351 -0.2914 -0.8127 -0.2674
 5879SOL     OW19182   2.891   2.363   4.919  0.0974 -0.5344 -0.1698
 5879SOL    HW119183   2.802   2.330   4.926  1.2508 -3.6062  2.5828
 5879SOL    HW219184   2.904   2.415   4.999  0.6819  0.2397 -0.7490
 5880SOL     OW19185   4.089   1.247   0.051  0.5491 -0.1294 -0.4761
 5880SOL    HW119186   4.006   1.201   0.044  0.8084 -1.0439  1.6360
 5880SOL    HW219187   4.139   1.221  -0.027 -0.9808  0.1764 -1.5926
 5881SOL     OW19188   3.662   0.655   3.041  0.0176  0.6403 -0.3064
 5881SOL    HW119189   3.568   0.640   3.053 -0.0769  0.1270 -1.5366
 5881SOL    HW219190   3.704   0.580   3.082 -0.0163  1.4198  1.2620
 5882SOL     OW19191   0.521   6.058   4.171 -0.0955  0.0381 -0.0719
 5882SOL    HW119192   0.444   6.004   4.151 -0.8788  1.3019 -0.5805
 5882SOL    HW219193   0.510   6.083   4.263  1.1280 -1.9692  0.6898
 5883SOL     OW19194   6.472   0.082   6.100 -0.2963  0.0970  0.0890
 5883SOL    HW119195   6.498   0.003   6.052 -1.0590 -0.7327  1.0037
 5883SOL    HW219196   6.542   0.144   6.083 -0.0674 -0.4973 -1.2995
 5884SOL     OW19197   0.147   5.500   0.642 -0.2130 -0.3800 -0.3651
 5884SOL    HW119198   0.154   5.592   0.615 -0.9779 -0.3353 -0.4233
 5884SOL    HW219199   0.131   5.453   0.561 -2.9252 -0.2030 -0.0359
 5885SOL     OW19200   1.659   5.747   2.471  0.3123 -0.1253 -0.0916
 5885SOL    HW119201   1.665   5.819   2.407  1.3771  1.1081  1.3027
 5885SOL    HW219202   1.750   5.729   2.494 -0.0448 -0.5912  1.0133
 5886SOL     OW19203   5.213   4.235   1.669  0.6093  0.2397 -0.3662
 5886SOL    HW119204   5.275   4.184   1.721  0.8634  0.7364 -0.1767
 5886SOL    HW219205   5.262   4.257   1.589  0.5047  0.1989 -0.4413
 5887SOL     OW19206   2.846   5.795   3.717 -0.4717  0.1107  0.2996
 5887SOL    HW119207   2.879   5.725   3.662  0.6257 -0.3008  1.4479
 5887SOL    HW219208   2.752   5.777   3.725 -0.2747 -0.9725  0.2401
 5888SOL     OW19209   5.975   1.550   2.642 -0.2929 -0.4179 -0.4553
 5888SOL    HW119210   5.964   1.555   2.737  1.2584 -0.6427 -0.2390
 5888SOL    HW219211   5.912   1.483   2.615 -1.9785  0.8767  0.1610
 5889SOL     OW19212   3.865   1.657   5.784 -0.2559 -0.2977 -0.0137
 5889SOL    HW119213   3.774   1.684   5.782  0.1838  1.5621  1.7977
 5889SOL    HW219214   3.907   1.707   5.714 -0.1747  0.8973  0.8569
 5890SOL     OW19215   0.565   3.303   2.505  0.4019 -0.4821 -0.2626
 5890SOL    HW119216   0.594   3.241   2.571 -2.0917 -1.1229  0.3261
 5890SOL    HW219217   0.644   3.322   2.453  3.4107  2.4420  4.5952
 5891SOL     OW19218   0.045   1.206   0.931  0.4138  0.1668  0.6988
 5891SOL    HW119219   0.123   1.224   0.985  0.3343 -0.2157  0.9463
 5891SOL    HW219220   0.066   1.126   0.884  0.6036  0.6698 -0.0876
 5892SOL     OW19221   5.018   3.079   0.723  0.2090  0.1182 -0.6572
 5892SOL    HW119222   4.972   3.006   0.763  1.4386 -0.1598  0.3147
 5892SOL    HW219223   4.973   3.093   0.639 -1.2520 -0.4803 -0.0060
 5893SOL     OW19224   0.139   2.364   0.646  0.1275 -0.0833  0.3876
 5893SOL    HW119225   0.134   2.457   0.665 -0.8904 -0.2146  0.8358
 5893SOL    HW219226   0.147   2.359   0.551  1.5500  0.4818  0.4503
 5894SOL     OW19227   6.403   5.363   0.358 -0.0038  0.3656  0.3179
 5894SOL    HW119228   6.390   5.424   0.286  0.7224 -0.5906 -0.6521
 5894SOL    HW219229   6.341   5.292   0.341  0.9276 -0.3908  0.0129
 5895SOL     OW19230   0.743   5.106   4.256  0.0935  0.1832  0.3196
 5895SOL    HW119231   0.728   5.038   4.321 -0.4186  0.2002  0.2260
 5895SOL    HW219232   0.660   5.111   4.208  0.4200  0.2656 -0.2409
 5896SOL     OW19233   0.423   0.898   3.931  0.1866 -0.3818  0.4626
 5896SOL    HW119234   0.510   0.881   3.896  1.1884  2.6672  1.2048
 5896SOL    HW219235   0.364   0.872   3.860  1.3815 -4.6919  0.7679
 5897SOL     OW19236   1.502   2.011   3.236 -0.3010  0.2017 -0.0566
 5897SOL    HW119237   1.585   1.998   3.283  0.1475  1.4138 -0.4905
 5897SOL    HW219238   1.469   2.095   3.269 -1.3938 -0.2855  0.1425
 5898SOL     OW19239   3.660   5.163   2.781  0.4325 -0.0185  0.0049
 5898SOL    HW119240   3.658   5.084   2.727 -0.8622  0.5887 -0.8913
 5898SOL    HW219241   3.739   5.210   2.752 -0.3648  0.4138 -1.5796
 5899SOL     OW19242   0.909   1.074   0.508  0.3512 -0.1092  0.1476
 5899SOL    HW119243   0.936   0.986   0.534 -0.4144 -0.0282  1.2786
 5899SOL    HW219244   0.842   1.098   0.571 -0.2183  0.8723 -0.8025
 5900SOL     OW19245   4.701   6.310   1.057 -0.0728  0.2763  0.9625
 5900SOL    HW119246   4.606   6.297   1.063  0.0743 -0.7366  1.3842
 5900SOL    HW219247   4.715   6.402   1.080 -1.0849  0.8647 -0.6139
 5901SOL     OW19248   6.250   1.461   2.602 -0.3983 -0.1436  0.3241
 5901SOL    HW119249   6.222   1.375   2.571 -1.7514  0.3144  0.1919
 5901SOL    HW219250   6.188   1.522   2.562 -0.8469  0.6877  2.1966
 5902SOL     OW19251   4.756   0.144   2.345 -0.2916  0.2727 -0.4590
 5902SOL    HW119252   4.790   0.145   2.434 -1.2693  0.2311 -0.0693
 5902SOL    HW219253   4.833   0.145   2.289  0.3404  1.9326  0.3795
 5903SOL     OW19254   0.557   1.931   3.008  0.6740 -0.1301  0.2236
 5903SOL    HW119255   0.500   1.977   2.946 -1.2884 -0.1021  1.9319
 5903SOL    HW219256   0.597   2.000   3.060  0.4485 -0.2069  0.5072
 5904SOL     OW19257   5.550   4.633   3.217  0.5263  0.6342 -0.2459
 5904SOL    HW119258   5.595   4.552   3.193  1.6026  0.8386  0.9692
 5904SOL    HW219259   5.482   4.643   3.151 -0.1720 -1.6990  0.0216
 5905SOL     OW19260   1.943   4.836   3.902  0.6303  0.5093 -0.0612
 5905SOL    HW119261   1.965   4.847   3.810  0.3459 -1.1775 -0.3527
 5905SOL    HW219262   1.896   4.753   3.907  0.3320  0.7306  1.5543
 5906SOL     OW19263   4.808   1.101   6.722 -0.4160 -0.2566 -0.5667
 5906SOL    HW119264   4.840   1.130   6.808 -0.2247  0.5877 -0.9081
 5906SOL    HW219265   4.724   1.146   6.712  1.4702  3.2527 -2.6374
 5907SOL     OW19266   5.006   2.040   1.029  0.6605 -0.0233  0.3140
 5907SOL    HW119267   5.095   2.028   0.996  0.5070  2.0153 -1.0382
 5907SOL    HW219268   5.014   2.033   1.124  2.5353  1.3656  0.3127
 5908SOL     OW19269   6.057   0.723   5.368 -0.2302 -0.5473 -0.1397
 5908SOL    HW119270   6.058   0.698   5.275 -0.9301  0.6592 -0.4886
 5908SOL    HW219271   5.978   0.683   5.403 -1.1410  0.7872 -0.6047
 5909SOL     OW19272   5.873   2.731   4.073 -0.1682 -0.0835 -0.5105
 5909SOL    HW119273   5.817   2.808   4.068 -1.9592 -1.2995 -0.0624
 5909SOL    HW219274   5.824   2.663   4.026  0.0609 -1.6839  1.4481
 5910SOL     OW19275   0.695   1.904   5.183  0.1481  0.0347  0.2030
 5910SOL    HW119276   0.609   1.925   5.222 -0.4558  0.5954 -1.3407
 5910SOL    HW219277   0.753   1.891   5.258 -0.6758  2.2438  1.3063
 5911SOL     OW19278   0.622   5.873   5.446 -0.7841  0.1419 -0.1214
 5911SOL    HW119279   0.675   5.952   5.461 -1.3847  0.7332 -0.9881
 5911SOL    HW219280   0.563   5.870   5.521 -1.1596  0.8696 -0.3733
 5912SOL     OW19281   5.571   3.733   3.936 -0.0066 -0.6012 -0.0040
 5912SOL    HW119282   5.505   3.723   4.004 -0.8786 -0.6652 -0.8507
 5912SOL    HW219283   5.561   3.823   3.904  0.4737 -0.5345  0.0127
 5913SOL     OW19284   3.462   5.062   6.686  0.3167  0.3742  0.5442
 5913SOL    HW119285   3.545   5.096   6.719  1.0199  0.0402 -0.8096
 5913SOL    HW219286   3.469   4.967   6.699  0.6638  0.2254 -0.6644
 5914SOL     OW19287   1.802   5.661   3.728  0.1078  0.0420  0.4274
 5914SOL    HW119288   1.756   5.667   3.812 -0.4160 -0.7425  0.2096
 5914SOL    HW219289   1.822   5.751   3.705 -1.2283  0.3920  0.5828
 5915SOL     OW19290   0.959   4.956   6.339 -0.4975 -0.6845 -0.0130
 5915SOL    HW119291   1.003   4.927   6.419  1.6358  0.4942 -0.6789
 5915SOL    HW219292   1.030   4.990   6.284 -2.2246  1.0893 -1.2694
 5916SOL     OW19293   3.838   6.332   4.357  0.6239 -0.4841  0.1585
 5916SOL    HW119294   3.899   6.309   4.287  0.9973  1.4051 -0.1932
 5916SOL    HW219295   3.864   6.277   4.431 -0.3185 -3.1519 -1.3656
 5917SOL     OW19296   1.646   2.832   3.019 -0.8211  0.2750 -0.3160
 5917SOL    HW119297   1.579   2.766   3.001 -0.5716  0.0323 -0.3828
 5917SOL    HW219298   1.728   2.789   2.994 -0.8782  1.6855 -3.4371
 5918SOL     OW19299   2.284   3.219   5.260 -0.0539  0.0856  0.1771
 5918SOL    HW119300   2.219   3.205   5.191 -2.7372 -0.1439  2.5705
 5918SOL    HW219301   2.271   3.310   5.288 -0.1613 -0.2810  1.4002
 5919SOL     OW19302   0.929   3.467   4.257  0.1554  0.0329  0.2609
 5919SOL    HW119303   1.020   3.488   4.277  0.6569  0.2033 -2.0254
 5919SOL    HW219304   0.898   3.539   4.202  0.1636 -2.1979 -2.9529
 5920SOL     OW19305   3.822   4.702   5.362 -0.4588 -0.3874  0.1551
 5920SOL    HW119306   3.838   4.658   5.446 -1.2915  1.7893  1.5604
 5920SOL    HW219307   3.730   4.684   5.343 -0.8457  0.7415  0.8118
 5921SOL     OW19308   3.035   5.208   2.982 -0.9964 -0.4826  0.0325
 5921SOL    HW119309   2.992   5.190   2.898 -0.2444 -0.7032 -0.3181
 5921SOL    HW219310   3.001   5.141   3.041 -0.6172 -1.0970 -0.4259
 5922SOL     OW19311   1.895   0.012   2.383  0.6826 -0.3947  0.0191
 5922SOL    HW119312   1.969   0.056   2.424  2.5402 -3.1005 -0.1562
 5922SOL    HW219313   1.834  -0.006   2.456  1.7323 -0.9932  0.7693
 5923SOL     OW19314   2.916   0.168   3.391  0.7116  0.7361  0.0994
 5923SOL    HW119315   2.898   0.224   3.315  0.1584 -0.4563 -0.6836
 5923SOL    HW219316   2.961   0.225   3.453 -1.0432  2.4306 -0.0886
 5924SOL     OW19317   4.759   4.409   3.655 -0.0526  0.0788  0.3353
 5924SOL    HW119318   4.780   4.436   3.744 -0.3337 -0.1991  0.4875
 5924SOL    HW219319   4.834   4.356   3.628  0.1141  0.3096  0.3419
 5925SOL     OW19320   1.590   5.814   0.286 -0.1441  0.3876 -0.1430
 5925SOL    HW119321   1.616   5.774   0.369  2.0903 -1.4961 -1.6076
 5925SOL    HW219322   1.635   5.899   0.285  0.0236  0.3095  0.4559
 5926SOL     OW19323   6.765   5.708   2.281  0.2422  0.2458 -0.4059
 5926SOL    HW119324   6.764   5.613   2.270 -0.4680  0.2853 -0.7752
 5926SOL    HW219325   6.786   5.722   2.374 -1.0928 -0.3231  0.0063
 5927SOL     OW19326   4.215   2.339   4.689  0.1007  0.1665 -0.1165
 5927SOL    HW119327   4.272   2.345   4.765  0.1172  1.2759 -0.1968
 5927SOL    HW219328   4.261   2.280   4.629 -0.0168 -0.8882  0.8007
 5928SOL     OW19329   3.259   3.795   1.244  0.0222 -0.2000  0.5125
 5928SOL    HW119330   3.286   3.815   1.154 -0.6072 -1.0749  0.1109
 5928SOL    HW219331   3.164   3.802   1.242  0.0938  1.5598  1.5834
 5929SOL     OW19332   5.160   0.997   4.380 -0.3030  0.1691  0.3983
 5929SOL    HW119333   5.206   1.057   4.322 -0.3528 -0.4778 -0.3250
 5929SOL    HW219334   5.165   0.912   4.336 -0.3946 -0.3237  1.3128
 5930SOL     OW19335   2.020   3.939   5.049  0.8641  0.4379 -0.4805
 5930SOL    HW119336   2.021   4.003   4.978  1.8709 -0.5386 -1.3900
 5930SOL    HW219337   2.112   3.915   5.061  0.4285 -1.9748 -1.2807
 5931SOL     OW19338   3.351   4.502   2.548 -0.3568  0.2888  0.0970
 5931SOL    HW119339   3.322   4.591   2.530 -1.5788 -0.5754 -2.7057
 5931SOL    HW219340   3.363   4.463   2.461  1.8701 -1.7701  1.2182
 5932SOL     OW19341   3.245   4.255   1.794  0.5397 -0.0444  1.5263
 5932SOL    HW119342   3.216   4.328   1.849  0.5564  0.9248  0.2983
 5932SOL    HW219343   3.208   4.273   1.708  1.5523 -0.8344  0.8943
 5933SOL     OW19344   4.029   2.146   3.913 -0.2894  0.1275  0.1483
 5933SOL    HW119345   4.000   2.236   3.932  1.2528  0.6201  0.2679
 5933SOL    HW219346   4.083   2.153   3.835  0.6249 -0.5404  0.6983
 5934SOL     OW19347   5.894   2.276   6.230  0.8267 -0.0253 -0.5663
 5934SOL    HW119348   5.830   2.325   6.179 -1.7064 -0.5357  1.8424
 5934SOL    HW219349   5.889   2.186   6.197  0.2337 -0.0686 -0.3676
 5935SOL     OW19350   6.649   3.692   0.108 -0.4432 -0.0365 -0.1007
 5935SOL    HW119351   6.556   3.713   0.118 -0.3445  0.2150  0.2735
 5935SOL    HW219352   6.656   3.602   0.140  0.2511  1.3893  4.4282
 5936SOL     OW19353   3.505   6.730   4.525 -0.6505 -0.1456  0.6762
 5936SOL    HW119354   3.600   6.721   4.534 -0.6106  0.9537  1.5995
 5936SOL    HW219355   3.472   6.640   4.523  0.4989 -0.5735 -0.9658
 5937SOL     OW19356   0.293   1.328   4.751  0.1707  0.2390  0.3050
 5937SOL    HW119357   0.238   1.378   4.690  1.3040 -0.4580 -1.3939
 5937SOL    HW219358   0.380   1.369   4.743  1.0205 -1.6499 -0.8035
 5938SOL     OW19359   1.368   1.977   1.330 -0.1178 -0.2992 -0.3272
 5938SOL    HW119360   1.324   1.907   1.377 -0.4946 -0.5069 -0.9752
 5938SOL    HW219361   1.300   2.041   1.312  0.2454  0.2896  0.3440
 5939SOL     OW19362   6.609   1.478   4.396  0.4543 -0.6773 -0.3407
 5939SOL    HW119363   6.582   1.521   4.315 -0.0937 -2.6062 -1.2434
 5939SOL    HW219364   6.704   1.493   4.401  0.1103  1.6750  0.0824
 5940SOL     OW19365   4.349   1.212   2.833 -0.3305 -0.0550  0.0252
 5940SOL    HW119366   4.256   1.205   2.850  0.1102 -2.3801  1.9758
 5940SOL    HW219367   4.377   1.123   2.812  1.6606  0.3020  0.8881
 5941SOL     OW19368   0.565   6.562   5.324 -0.6147  0.5495  0.1643
 5941SOL    HW119369   0.569   6.565   5.420  0.4549  1.0582  0.1098
 5941SOL    HW219370   0.533   6.474   5.305  0.9785 -0.2457  0.9530
 5942SOL     OW19371   4.662   0.501   1.587 -0.1873  0.4192 -0.2592
 5942SOL    HW119372   4.635   0.447   1.513 -0.7275  0.1374  0.1370
 5942SOL    HW219373   4.744   0.542   1.559  0.2534 -0.6392 -0.5452
 5943SOL     OW19374   1.762   3.519   4.423  0.0682 -0.3425  0.0658
 5943SOL    HW119375   1.814   3.488   4.497  1.9789 -0.8196 -1.3611
 5943SOL    HW219376   1.733   3.439   4.379  2.3298 -0.2431 -1.8440
 5944SOL     OW19377   4.493   5.969   6.634 -0.1248 -0.1036 -0.4351
 5944SOL    HW119378   4.443   6.017   6.568 -0.3925 -0.0104 -0.1688
 5944SOL    HW219379   4.515   5.886   6.592  0.1327  0.1577 -0.8127
 5945SOL     OW19380   3.926   0.653   6.332 -0.2195  0.2448 -0.0647
 5945SOL    HW119381   3.949   0.695   6.415 -0.4206 -2.5004  1.4805
 5945SOL    HW219382   4.006   0.609   6.305 -0.2327  0.8962 -1.2443
 5946SOL     OW19383   4.598   6.567   4.080 -0.1290  0.2096  0.4007
 5946SOL    HW119384   4.515   6.530   4.110 -0.8573  2.1148  0.8848
 5946SOL    HW219385   4.598   6.657   4.114  2.6812 -0.0810  1.4765
 5947SOL     OW19386   2.429   0.060   0.881  0.3050 -0.0616 -0.4679
 5947SOL    HW119387   2.342   0.034   0.911 -0.3422  1.2271 -1.1684
 5947SOL    HW219388   2.434   0.154   0.898  2.0701 -0.3244  0.7398
 5948SOL     OW19389   6.228   2.958   1.799  0.1645  0.3488 -0.3752
 5948SOL    HW119390   6.253   2.886   1.741 -0.9802 -0.1251 -0.3139
 5948SOL    HW219391   6.168   3.011   1.746 -0.6831  0.0555  0.2624
 5949SOL     OW19392   1.593   2.470   0.548 -0.0004  0.3164 -0.8515
 5949SOL    HW119393   1.503   2.494   0.570  0.8389  2.6893  0.3532
 5949SOL    HW219394   1.604   2.501   0.458  0.0685  1.5689 -0.4331
 5950SOL     OW19395   5.810   1.365   0.729  0.3768  0.5197 -0.7247
 5950SOL    HW119396   5.716   1.351   0.717 -0.2305  1.4687  1.9533
 5950SOL    HW219397   5.827   1.451   0.689  0.2352  0.1284 -1.6427
 5951SOL     OW19398   2.047   2.040   1.326  0.2209  0.2002 -0.3683
 5951SOL    HW119399   1.991   2.117   1.326  0.2963  0.3342 -2.5624
 5951SOL    HW219400   1.989   1.968   1.349 -0.4761  0.5808 -0.8826
 5952SOL     OW19401   0.866   4.604   5.676  0.0978 -0.7261 -0.0744
 5952SOL    HW119402   0.771   4.610   5.663 -0.0558  0.6342  1.3933
 5952SOL    HW219403   0.884   4.510   5.672 -1.1301 -0.9493 -1.4124
 5953SOL     OW19404   5.824   0.569   5.161  0.4817 -0.1777 -0.0145
 5953SOL    HW119405   5.894   0.625   5.130 -0.0720  0.6029  0.1284
 5953SOL    HW219406   5.814   0.590   5.254  0.4667 -0.7264  0.1152
 5954SOL     OW19407   6.535   1.856   0.549 -0.2805 -0.2188 -0.3480
 5954SOL    HW119408   6.540   1.869   0.454 -0.2577  3.4058  0.0080
 5954SOL    HW219409   6.627   1.849   0.577 -0.2805 -1.0529 -0.5065
 5955SOL     OW19410   2.805   6.510   3.236 -0.1216  0.0113  0.2139
 5955SOL    HW119411   2.855   6.432   3.211  1.6521  0.6203  1.6712
 5955SOL    HW219412   2.848   6.581   3.189 -0.0410  0.4498  0.9401
 5956SOL     OW19413   5.577   1.937   5.587 -0.1571  0.4238  0.4083
 5956SOL    HW119414   5.504   1.889   5.547  0.2625  0.3799 -0.3273
 5956SOL    HW219415   5.614   1.875   5.650  0.5512 -0.3567 -0.7300
 5957SOL     OW19416   6.798   0.326   5.346  0.0015  0.0776 -0.0887
 5957SOL    HW119417   6.736   0.362   5.409  1.8476  1.0036  1.3172
 5957SOL    HW219418   6.828   0.244   5.387  1.6210  0.9544  0.6067
 5958SOL     OW19419   3.802   3.636   4.110 -0.0649  0.1159  0.3730
 5958SOL    HW119420   3.850   3.636   4.027  1.2683 -0.9209  1.1044
 5958SOL    HW219421   3.812   3.725   4.144 -0.0578  0.3589 -0.2398
 5959SOL     OW19422   5.730   2.100   5.397  0.3085 -0.4756  0.5207
 5959SOL    HW119423   5.683   2.078   5.478 -0.3244  0.6638  0.4928
 5959SOL    HW219424   5.734   2.196   5.398  0.2076 -0.4402 -0.8487
 5960SOL     OW19425   2.723   2.935   4.175  0.2073 -0.3381  0.4101
 5960SOL    HW119426   2.672   3.005   4.216 -1.2555 -1.1565  0.0446
 5960SOL    HW219427   2.708   2.859   4.230 -2.2244 -1.5979 -1.8110
 5961SOL     OW19428   0.863   4.419   5.013  0.3923  0.3779 -0.3662
 5961SOL    HW119429   0.818   4.430   4.929  1.9055 -0.3474 -1.3373
 5961SOL    HW219430   0.880   4.325   5.018  2.6517  0.7181 -0.5732
 5962SOL     OW19431   2.785   2.908   2.244  0.5618  0.3186  0.2959
 5962SOL    HW119432   2.734   2.827   2.240 -1.9758  1.8829 -2.0253
 5962SOL    HW219433   2.846   2.901   2.170  0.2639  0.5651  0.0256
 5963SOL     OW19434   3.594   0.432   3.435  0.0423  0.3932  0.1120
 5963SOL    HW119435   3.574   0.481   3.515  2.6018  1.3321  0.2838
 5963SOL    HW219436   3.644   0.356   3.466  0.0315  0.1344 -0.4981
 5964SOL     OW19437   0.742   3.157   3.439  0.4091  0.2019  1.4736
 5964SOL    HW119438   0.698   3.128   3.519  0.6422 -1.1019  1.1542
 5964SOL    HW219439   0.670   3.177   3.379  0.2387 -0.4848  1.4453
 5965SOL     OW19440   1.382   5.248   1.291 -0.1548  0.4161 -0.5179
 5965SOL    HW119441   1.296   5.207   1.294 -0.2105  0.5017 -0.8733
 5965SOL    HW219442   1.444   5.175   1.287 -0.1167  0.3063  1.2811
 5966SOL     OW19443   1.631   1.451   3.554 -0.0915 -0.3658  0.4667
 5966SOL    HW119444   1.646   1.498   3.472  1.3512 -1.0877  0.2753
 5966SOL    HW219445   1.541   1.419   3.547 -1.1851  2.3679  0.6603
 5967SOL     OW19446   6.734   0.216   5.960  0.2564 -0.3363  0.0154
 5967SOL    HW119447   6.778   0.197   5.878  0.5851  0.8962 -0.1096
 5967SOL    HW219448   6.788   0.174   6.027 -0.1268 -1.5242 -0.3900
 5968SOL     OW19449   0.852   3.505   6.613  0.1787 -0.2461  0.0398
 5968SOL    HW119450   0.778   3.450   6.587 -0.1393 -0.5952  1.5899
 5968SOL    HW219451   0.929   3.449   6.598  0.2287  0.3026 -2.0761
 5969SOL     OW19452   4.671   3.186   0.459  0.0248 -0.2226  0.2227
 5969SOL    HW119453   4.658   3.278   0.482  2.4723  0.2868 -0.1510
 5969SOL    HW219454   4.695   3.144   0.541 -2.2414 -0.8182  0.6192
 5970SOL     OW19455   1.799   4.432   2.000  0.4437 -0.6057 -0.2565
 5970SOL    HW119456   1.893   4.435   2.014  0.7045 -1.0633 -1.7042
 5970SOL    HW219457   1.764   4.382   2.074  1.3096 -0.3041  0.3653
 5971SOL     OW19458   6.781   3.490   4.093 -0.0039  0.5250 -0.5156
 5971SOL    HW119459   6.702   3.445   4.064 -0.9821  0.8717  1.4588
 5971SOL    HW219460   6.778   3.485   4.188  2.9422 -0.3955 -0.3752
 5972SOL     OW19461   2.087   1.525   6.701  0.3713 -0.5323  0.0523
 5972SOL    HW119462   2.121   1.602   6.747  1.0315 -1.2521  0.7953
 5972SOL    HW219463   2.078   1.458   6.768  1.7046 -1.7365 -0.8965
 5973SOL     OW19464   5.898   4.504   3.917  0.0254 -0.4897  0.5532
 5973SOL    HW119465   5.803   4.495   3.913 -0.2759  1.7141  1.4933
 5973SOL    HW219466   5.926   4.500   3.825 -1.1525  0.2160  0.1402
 5974SOL     OW19467   0.214   2.702   0.992  0.4175  0.3309  0.4106
 5974SOL    HW119468   0.185   2.789   1.016  0.2768 -0.0128  1.5168
 5974SOL    HW219469   0.307   2.701   1.010  0.0086 -0.4945  2.7835
 5975SOL     OW19470   1.348   5.100   3.494 -0.3171  0.4006  0.7204
 5975SOL    HW119471   1.342   5.104   3.399 -0.9860  1.5520  0.7876
 5975SOL    HW219472   1.441   5.090   3.512 -0.1141  0.8469 -0.0384
 5976SOL     OW19473   4.907   2.756   5.758  0.8280  0.3610  0.4626
 5976SOL    HW119474   4.868   2.670   5.772  0.4576  0.5452  0.5711
 5976SOL    HW219475   4.866   2.789   5.678  0.3407  0.7873  0.8802
 5977SOL     OW19476   0.781   2.373   5.230 -0.1654  0.1710 -0.1274
 5977SOL    HW119477   0.806   2.354   5.139  0.4604 -1.9429  0.4434
 5977SOL    HW219478   0.833   2.449   5.254  0.1022  0.3922 -1.3473
 5978SOL     OW19479   6.406   1.237   0.043  0.2426  0.0172  0.2690
 5978SOL    HW119480   6.317   1.209   0.068  0.0533  1.5105  1.4336
 5978SOL    HW219481   6.398   1.261  -0.049 -0.4871 -0.1549  0.2741
 5979SOL     OW19482   4.870   1.812   3.833 -0.0088 -0.6375  0.2306
 5979SOL    HW119483   4.855   1.821   3.928  0.6151 -0.9047  0.3605
 5979SOL    HW219484   4.944   1.752   3.827  0.6562  0.2402 -0.3986
 5980SOL     OW19485   5.564   4.434   6.198 -0.4334 -0.2527  0.3368
 5980SOL    HW119486   5.580   4.368   6.130 -1.9819  0.0483 -0.3738
 5980SOL    HW219487   5.587   4.517   6.157 -0.0871 -0.1919  0.6507
 5981SOL     OW19488   6.188   3.934   5.901  0.0096 -0.0981 -0.1222
 5981SOL    HW119489   6.179   3.886   5.819  0.2843  2.2171 -1.6297
 5981SOL    HW219490   6.280   3.923   5.925  0.9519  2.0727 -2.2105
 5982SOL     OW19491   0.712   1.878   1.151  0.1896 -0.2118 -0.2173
 5982SOL    HW119492   0.757   1.958   1.125 -0.8361  0.1499 -0.9495
 5982SOL    HW219493   0.777   1.829   1.202  0.7013  1.2734  0.6294
 5983SOL     OW19494   1.863   5.766   0.716  0.9691  0.2011  0.7974
 5983SOL    HW119495   1.841   5.698   0.652 -3.7731  0.4701  1.7495
 5983SOL    HW219496   1.852   5.724   0.801  1.0497  1.3616  1.4071
 5984SOL     OW19497   0.242   5.208   1.918  0.0434 -0.2688 -0.0577
 5984SOL    HW119498   0.316   5.198   1.858 -0.6597 -0.6029 -0.8767
 5984SOL    HW219499   0.239   5.125   1.966 -2.0637 -1.8366 -2.6401
 5985SOL     OW19500   6.154   2.279   3.658  0.1912  0.1128  0.1626
 5985SOL    HW119501   6.147   2.205   3.718 -0.9407  0.5527  0.6059
 5985SOL    HW219502   6.129   2.244   3.572 -0.8641  0.0807  0.4690
 5986SOL     OW19503   0.759   0.132   5.940 -0.3234  0.2405 -0.4712
 5986SOL    HW119504   0.765   0.168   5.851  1.3027  2.3434  0.3931
 5986SOL    HW219505   0.669   0.102   5.948 -2.1169  4.6924 -1.2099
 5987SOL     OW19506   0.028   2.329   6.035 -0.7102  0.0139  0.6509
 5987SOL    HW119507   0.007   2.290   5.950 -2.2667  0.4454  0.8010
 5987SOL    HW219508   0.123   2.327   6.040 -0.6551 -3.2695  0.4044
 5988SOL     OW19509   3.856   6.144   5.153  0.2747  0.3023 -0.1500
 5988SOL    HW119510   3.941   6.188   5.153 -0.3101  1.5088 -0.9602
 5988SOL    HW219511   3.796   6.209   5.191 -0.0228 -1.1744  2.1237
 5989SOL     OW19512   2.219   2.717   5.917 -0.0430  0.0064  0.3717
 5989SOL    HW119513   2.157   2.788   5.933  0.9954  1.0184  0.0133
 5989SOL    HW219514   2.200   2.653   5.986  0.3290  1.5191  1.9406
 5990SOL     OW19515   5.557   2.390   6.706 -0.3499 -0.1670  0.0835
 5990SOL    HW119516   5.472   2.398   6.750 -0.2294 -0.2340  0.3288
 5990SOL    HW219517   5.604   2.470   6.730 -0.0706 -0.4619  0.5417
 5991SOL     OW19518   1.220   2.499   3.319  1.0057 -0.0670  0.0254
 5991SOL    HW119519   1.161   2.563   3.278  1.2409  0.1850  0.0771
 5991SOL    HW219520   1.241   2.538   3.404  1.9186  0.2435 -0.3374
 5992SOL     OW19521   0.856   3.486   2.539  0.5578 -0.3679  0.5546
 5992SOL    HW119522   0.792   3.557   2.538  0.7883 -0.0693  2.7752
 5992SOL    HW219523   0.941   3.530   2.550  0.6477 -0.9602  2.5437
 5993SOL     OW19524   4.779   0.829   3.775 -0.5883  0.0473  0.3871
 5993SOL    HW119525   4.726   0.779   3.713  0.8665  0.3861 -1.2056
 5993SOL    HW219526   4.779   0.918   3.740  1.1039  0.0256  0.2613
 5994SOL     OW19527   1.870   2.636   4.081  0.2956 -0.5862 -0.2735
 5994SOL    HW119528   1.883   2.643   4.176 -0.1320 -0.0140 -0.2521
 5994SOL    HW219529   1.777   2.618   4.071  0.6309 -2.3192 -0.5223
 5995SOL     OW19530   6.182   6.635   6.060  0.1823 -0.2691 -0.1816
 5995SOL    HW119531   6.183   6.720   6.017 -0.1278 -1.2929 -2.3057
 5995SOL    HW219532   6.147   6.653   6.147 -1.9361  1.4498 -1.3053
 5996SOL     OW19533   4.634   4.113   1.195  0.3866  0.0334  0.2235
 5996SOL    HW119534   4.709   4.139   1.248  0.5044  0.5839 -0.2020
 5996SOL    HW219535   4.663   4.127   1.105 -0.2101  0.1930  0.0536
 5997SOL     OW19536   0.118   5.926   5.404 -0.0871 -0.4467 -0.3661
 5997SOL    HW119537   0.095   5.979   5.480 -1.5495  1.1391 -1.8301
 5997SOL    HW219538   0.048   5.943   5.340  2.3926  0.4257 -3.0806
 5998SOL     OW19539   4.684   2.327   2.516  0.4838  0.9875  0.3168
 5998SOL    HW119540   4.758   2.288   2.562  0.3364  0.9534  0.5247
 5998SOL    HW219541   4.654   2.258   2.456 -1.2566 -0.1018  2.3296
 5999SOL     OW19542   4.224   2.406   4.218  0.0813 -1.1917 -0.0485
 5999SOL    HW119543   4.235   2.479   4.157  0.4456 -0.2318  1.1340
 5999SOL    HW219544   4.275   2.335   4.178  1.8197 -0.0388 -0.0107
 6000SOL     OW19545   5.330   4.539   4.010  0.3144  0.1272 -0.3101
 6000SOL    HW119546   5.386   4.486   4.067 -0.6033  0.9230  1.3853
 6000SOL    HW219547   5.389   4.572   3.942  1.3152 -1.3215 -0.1908
 6001SOL     OW19548   2.383   0.699   6.527  0.2246 -0.0566  0.0490
 6001SOL    HW119549   2.430   0.620   6.552  0.9144  0.2795 -0.1463
 6001SOL    HW219550   2.452   0.760   6.499 -0.3475  0.3577 -0.4941
 6002SOL     OW19551   4.865   3.897   0.575  0.1857 -0.4975 -0.4633
 6002SOL    HW119552   4.793   3.895   0.639  1.1500 -0.2134  0.6623
 6002SOL    HW219553   4.826   3.936   0.497 -1.1883 -1.3950 -0.2729
 6003SOL     OW19554   1.263   3.500   0.536  0.4488  0.4707 -0.2541
 6003SOL    HW119555   1.228   3.568   0.479 -0.2745  1.0314  0.8186
 6003SOL    HW219556   1.191   3.438   0.549  1.3684 -1.0572 -1.9637
 6004SOL     OW19557   3.172   5.623   3.933  0.3734 -0.1456  0.2540
 6004SOL    HW119558   3.208   5.711   3.918 -0.4062  0.1473  0.0419
 6004SOL    HW219559   3.203   5.572   3.858 -0.1842  0.2751 -0.2715
 6005SOL     OW19560   5.259   0.360   4.845  0.0934  0.2736 -0.9409
 6005SOL    HW119561   5.283   0.332   4.756  1.4306 -0.3960 -0.4058
 6005SOL    HW219562   5.182   0.307   4.867  0.8058 -0.8464 -1.0692
 6006SOL     OW19563   6.328   3.168   0.050  0.1090 -0.1739 -0.7612
 6006SOL    HW119564   6.309   3.082   0.087 -1.7670  0.4824 -0.0986
 6006SOL    HW219565   6.393   3.151  -0.019  0.5714 -1.9521  0.0600
 6007SOL     OW19566   2.036   3.854   6.305 -0.6505  1.0201 -0.4514
 6007SOL    HW119567   2.097   3.792   6.346 -0.3086  0.0381 -2.3281
 6007SOL    HW219568   1.955   3.844   6.355 -0.4874 -0.7151 -0.4571
 6008SOL     OW19569   4.038   0.220   4.888  0.0057 -0.0551  0.0036
 6008SOL    HW119570   4.042   0.316   4.891  0.0856 -0.0251 -0.8218
 6008SOL    HW219571   4.120   0.194   4.846 -1.1672 -0.3251 -2.2190
 6009SOL     OW19572   2.770   4.161   2.807  0.2381  0.2643 -0.1234
 6009SOL    HW119573   2.729   4.158   2.720 -0.6331 -1.2595  0.3071
 6009SOL    HW219574   2.724   4.094   2.857  1.8783 -0.0305  1.0329
 6010SOL     OW19575   0.225   3.325   2.189 -0.3482  0.1567  0.2464
 6010SOL    HW119576   0.250   3.345   2.098 -1.2564 -1.7541 -0.4718
 6010SOL    HW219577   0.290   3.372   2.242  1.7036 -0.6169 -1.4317
 6011SOL     OW19578   6.743   5.748   4.824 -0.8488 -0.0796 -0.0760
 6011SOL    HW119579   6.681   5.775   4.757 -1.8651  0.5209  1.0688
 6011SOL    HW219580   6.754   5.826   4.879 -0.9902 -0.8968  1.1552
 6012SOL     OW19581   0.078   5.743   4.200 -0.1060  0.1554 -0.1375
 6012SOL    HW119582   0.108   5.737   4.290 -3.2870 -0.9159  0.9900
 6012SOL    HW219583   0.051   5.654   4.177 -1.2051  0.7737 -1.4080
 6013SOL     OW19584   4.814   4.982   1.181  0.4707 -0.2549 -0.4772
 6013SOL    HW119585   4.901   5.019   1.193 -0.4062  1.8494 -0.2329
 6013SOL    HW219586   4.829   4.888   1.173  2.6465 -0.0838  0.8313
 6014SOL     OW19587   2.132   4.118   6.740 -0.3256 -0.2443 -0.2572
 6014SOL    HW119588   2.188   4.195   6.737 -0.1105 -0.3991 -0.2179
 6014SOL    HW219589   2.183   4.048   6.700 -0.7885 -0.2054 -0.9366
 6015SOL     OW19590   0.919   5.826   1.582  0.3900 -0.2416 -0.2045
 6015SOL    HW119591   0.872   5.883   1.642 -1.4395 -0.8507 -1.0118
 6015SOL    HW219592   0.909   5.738   1.619  0.9202 -0.3861 -0.3824
 6016SOL     OW19593   4.246   2.517   2.378 -0.0769 -0.1570 -0.3135
 6016SOL    HW119594   4.284   2.468   2.451  1.1593  0.0909 -0.7751
 6016SOL    HW219595   4.193   2.452   2.332  0.4692 -0.7383 -0.1449
 6017SOL     OW19596   4.475   3.931   0.562 -0.0183  0.2566  0.4008
 6017SOL    HW119597   4.525   3.948   0.642  0.0905 -0.8250  0.5705
 6017SOL    HW219598   4.453   4.018   0.529 -1.1476  0.7642  2.2929
 6018SOL     OW19599   0.462   1.244   2.050  0.4369 -0.7595  0.4427
 6018SOL    HW119600   0.477   1.219   2.141 -0.6739 -1.3375  0.4823
 6018SOL    HW219601   0.499   1.173   1.999  0.2031 -0.9069  0.4749
 6019SOL     OW19602   4.359   0.198   3.142 -0.1573  0.9217 -0.3012
 6019SOL    HW119603   4.296   0.127   3.125  0.4475  0.3144 -0.0680
 6019SOL    HW219604   4.356   0.210   3.237 -1.4041  2.3074 -0.4834
 6020SOL     OW19605   6.662   4.001   3.220  0.1108 -0.4037 -0.1966
 6020SOL    HW119606   6.687   4.039   3.304 -0.0451 -0.8007  0.0324
 6020SOL    HW219607   6.730   4.029   3.159 -0.1995  0.5486 -0.1203
 6021SOL     OW19608   4.176   3.603   4.263 -0.1430 -0.3321  0.1235
 6021SOL    HW119609   4.199   3.526   4.212 -0.5700  0.8422 -1.9727
 6021SOL    HW219610   4.089   3.585   4.298 -0.6704 -0.4481 -1.1881
 6022SOL     OW19611   2.547   3.342   5.089 -0.0104  0.0210 -0.0130
 6022SOL    HW119612   2.616   3.307   5.033  0.4530 -0.1866  0.6712
 6022SOL    HW219613   2.479   3.273   5.089 -1.1717  1.0692 -2.3059
 6023SOL     OW19614   2.137   6.180   1.575  0.3810 -0.5379 -0.2317
 6023SOL    HW119615   2.083   6.140   1.507  0.1031 -0.8762  0.1837
 6023SOL    HW219616   2.088   6.259   1.600  0.6024 -0.2824 -0.5850
 6024SOL     OW19617   0.471   6.747   3.078 -0.3223  0.1558 -0.1432
 6024SOL    HW119618   0.435   6.688   3.012  1.4956 -0.5054 -0.5930
 6024SOL    HW219619   0.527   6.807   3.029  1.1791 -0.4356  0.7849
 6025SOL     OW19620   5.240   3.460   3.320  0.4084 -0.0853 -0.0719
 6025SOL    HW119621   5.167   3.407   3.352 -0.9537  1.0786 -1.1072
 6025SOL    HW219622   5.286   3.488   3.399 -0.7404 -0.1921  0.6546
 6026SOL     OW19623   1.928   1.739   1.904 -0.2221  0.0714  0.5228
 6026SOL    HW119624   1.953   1.819   1.857 -1.2257  1.8974  2.8967
 6026SOL    HW219625   1.833   1.734   1.893 -0.1872 -0.7025  0.5582
 6027SOL     OW19626   2.329   0.171   1.398  0.4487 -0.3110 -0.0037
 6027SOL    HW119627   2.371   0.104   1.453  1.5716 -1.1408 -1.7864
 6027SOL    HW219628   2.363   0.154   1.310  2.0312  3.5523 -0.3103
 6028SOL     OW19629   2.156   1.599   5.808 -0.1903  0.6586  0.0900
 6028SOL    HW119630   2.087   1.616   5.871 -1.5737 -0.8068 -0.9614
 6028SOL    HW219631   2.224   1.555   5.858 -1.6064 -1.2316  0.4504
 6029SOL     OW19632   0.582   2.847   2.498  0.0434  0.0787  0.1769
 6029SOL    HW119633   0.665   2.881   2.531  0.9237  0.4191 -2.2154
 6029SOL    HW219634   0.603   2.761   2.462 -0.5792  0.2478 -0.6212
 6030SOL     OW19635   6.612   4.754   3.749  0.0121  0.0045 -0.6491
 6030SOL    HW119636   6.518   4.749   3.731 -0.2430 -0.1437  0.6249
 6030SOL    HW219637   6.619   4.742   3.843  1.4617 -1.9080 -0.9395
 6031SOL     OW19638   0.733   4.885   2.537  0.0799  0.4104  0.0851
 6031SOL    HW119639   0.649   4.884   2.491 -0.3166  2.5967  0.6136
 6031SOL    HW219640   0.766   4.974   2.523  1.9708 -0.1834  0.5032
 6032SOL     OW19641   1.252   3.468   1.639 -0.4428 -0.0050  0.0673
 6032SOL    HW119642   1.248   3.442   1.731  2.5522  0.1655  0.3552
 6032SOL    HW219643   1.319   3.411   1.601 -1.0876  0.4407 -1.8512
 6033SOL     OW19644   4.672   1.053   1.357  0.5017  0.0095 -0.4455
 6033SOL    HW119645   4.710   1.140   1.368  0.5123  0.0328 -0.6538
 6033SOL    HW219646   4.747   0.994   1.360  0.6728  0.1202 -1.6887
 6034SOL     OW19647   3.502   0.612   1.176  0.1957 -0.1450  0.3387
 6034SOL    HW119648   3.451   0.623   1.256  1.4732 -1.0242  1.3147
 6034SOL    HW219649   3.583   0.661   1.193 -0.2699  1.2722 -1.1957
 6035SOL     OW19650   1.458   6.445   2.748  0.3684 -0.0969 -0.3925
 6035SOL    HW119651   1.497   6.358   2.741  0.9388  0.1723 -0.6506
 6035SOL    HW219652   1.365   6.431   2.732  0.4272 -0.6881 -0.2329
 6036SOL     OW19653   4.834   0.965   2.179 -0.3854  0.2380 -0.4601
 6036SOL    HW119654   4.784   1.016   2.115 -0.6370  0.4426 -0.1061
 6036SOL    HW219655   4.785   0.883   2.187 -0.7635  0.5050  0.0106
 6037SOL     OW19656   4.960   0.556   5.216  0.4896  0.0859 -0.1340
 6037SOL    HW119657   4.943   0.487   5.152  0.9611 -1.1305  0.9987
 6037SOL    HW219658   4.896   0.539   5.286  0.2368  1.1565 -0.0890
 6038SOL     OW19659   4.668   0.281   1.224  0.2164  0.0982  0.0406
 6038SOL    HW119660   4.712   0.366   1.216  1.8872 -0.6379  0.8795
 6038SOL    HW219661   4.612   0.290   1.300 -0.1569  0.6555 -0.2904
 6039SOL     OW19662   5.164   5.369   4.949 -0.3885  0.1487  0.3537
 6039SOL    HW119663   5.117   5.312   4.888  0.3802 -1.3655  1.1276
 6039SOL    HW219664   5.096   5.405   5.005 -0.8224 -0.7156  0.4056
 6040SOL     OW19665   6.708   0.184   5.646  0.3837 -0.2661  0.1322
 6040SOL    HW119666   6.699   0.126   5.571  0.7622  1.6207 -1.4722
 6040SOL    HW219667   6.778   0.145   5.699 -0.1953 -1.8720 -0.2417
 6041SOL     OW19668   4.783   0.804   0.044 -0.0640  0.0428 -0.4074
 6041SOL    HW119669   4.839   0.880   0.056 -1.0870  0.4451  2.3827
 6041SOL    HW219670   4.839   0.739   0.001  0.9861  2.0970 -2.3114
 6042SOL     OW19671   1.758   3.070   5.952  0.5690  0.3220  0.1530
 6042SOL    HW119672   1.698   3.126   6.001 -0.4749 -0.6417  0.0001
 6042SOL    HW219673   1.709   2.989   5.937  1.4300  0.0117 -1.1266
 6043SOL     OW19674   0.286   4.124   2.827  0.3939  0.5572 -0.0097
 6043SOL    HW119675   0.343   4.110   2.903 -0.0334  0.8247  0.3648
 6043SOL    HW219676   0.310   4.210   2.794  1.9813 -0.3607 -1.4118
 6044SOL     OW19677   3.215   5.413   1.454 -0.1454 -0.6390 -0.8457
 6044SOL    HW119678   3.243   5.334   1.407  1.6076  0.9282 -2.6231
 6044SOL    HW219679   3.295   5.466   1.461 -1.5944  1.7607 -1.3590
 6045SOL     OW19680   5.454   6.595   5.942  0.0662 -0.3050 -0.2001
 6045SOL    HW119681   5.522   6.660   5.926 -0.3082  0.3417  0.7215
 6045SOL    HW219682   5.449   6.544   5.861  2.9253 -1.6003  0.3381
 6046SOL     OW19683   5.406   2.673   3.098  0.5702  0.3756 -0.2263
 6046SOL    HW119684   5.387   2.588   3.058  0.4651  0.5552 -0.5648
 6046SOL    HW219685   5.380   2.663   3.189  1.6813 -0.3396  0.0359
 6047SOL     OW19686   5.738   2.580   4.969 -0.1324  0.1475 -0.0144
 6047SOL    HW119687   5.710   2.616   5.053 -1.3834  0.0238 -0.3506
 6047SOL    HW219688   5.718   2.649   4.906  0.1451 -0.0349 -0.3067
 6048SOL     OW19689   3.070   5.328   4.112 -0.0875 -0.1020 -0.2625
 6048SOL    HW119690   3.143   5.290   4.160 -0.4013 -0.9976 -0.4624
 6048SOL    HW219691   3.036   5.397   4.169  0.7885  0.2029 -0.0924
 6049SOL     OW19692   1.016   4.269   0.571  0.6659  0.4016 -0.4583
 6049SOL    HW119693   1.105   4.299   0.586  1.5889 -1.6503 -1.4016
 6049SOL    HW219694   1.014   4.181   0.608 -1.0385  0.4662 -0.3196
 6050SOL     OW19695   2.771   2.485   5.279  0.2159  0.1102 -0.8366
 6050SOL    HW119696   2.716   2.410   5.257  0.2722  0.0236 -0.6847
 6050SOL    HW219697   2.768   2.541   5.202 -1.0689  0.6964 -0.3928
 6051SOL     OW19698   3.775   2.075   2.547 -0.2764 -0.1599  0.2349
 6051SOL    HW119699   3.812   1.988   2.530 -0.7743 -0.4353  0.5349
 6051SOL    HW219700   3.776   2.119   2.462 -0.6143 -0.6896 -0.0490
 6052SOL     OW19701   2.384   5.201   3.439  0.4867 -0.2023  0.3000
 6052SOL    HW119702   2.406   5.222   3.349 -0.2878 -0.2347  0.0946
 6052SOL    HW219703   2.304   5.149   3.432 -0.5833  1.2690  1.0976
 6053SOL     OW19704   4.422   3.887   4.269  0.3602  0.4146  0.4755
 6053SOL    HW119705   4.479   3.843   4.206  1.5198 -1.3904  2.6208
 6053SOL    HW219706   4.345   3.831   4.274 -0.0531  0.9470  0.1507
 6054SOL     OW19707   5.924   6.327   4.959  0.6375 -0.2084 -0.1849
 6054SOL    HW119708   5.943   6.318   5.052 -0.8655  0.8257  0.2641
 6054SOL    HW219709   5.964   6.410   4.934 -0.6926  0.5525  0.0804
 6055SOL     OW19710   1.373   0.212   1.012  0.5262  0.8277  0.1488
 6055SOL    HW119711   1.463   0.243   1.015  1.3021 -1.2138 -0.5557
 6055SOL    HW219712   1.378   0.120   1.038 -1.2755  0.5114 -0.4617
 6056SOL     OW19713   6.131   1.477   2.296 -0.6224  0.0728 -0.2517
 6056SOL    HW119714   6.072   1.457   2.222  0.1861 -1.1194 -0.6083
 6056SOL    HW219715   6.130   1.397   2.349  2.4417 -0.9426 -1.5117
 6057SOL     OW19716   2.635   6.405   3.426 -0.1708 -0.1655  0.2879
 6057SOL    HW119717   2.712   6.382   3.477  0.0533 -0.8602 -0.3440
 6057SOL    HW219718   2.669   6.428   3.339 -0.5191  1.2446  0.4943
 6058SOL     OW19719   3.336   4.300   3.864 -0.5650 -0.1070  0.9393
 6058SOL    HW119720   3.319   4.316   3.772 -1.1601  0.6226  1.1689
 6058SOL    HW219721   3.294   4.217   3.883 -1.5314  0.3548  0.8495
 6059SOL     OW19722   5.496   6.012   3.144  0.1111 -0.0030  0.2386
 6059SOL    HW119723   5.562   6.073   3.176  0.9360 -2.1908  3.0804
 6059SOL    HW219724   5.424   6.019   3.206 -0.5616 -0.6460 -0.4426
 6060SOL     OW19725   2.550   2.415   6.211 -0.3374  0.3234 -0.5604
 6060SOL    HW119726   2.596   2.498   6.200 -1.2005  1.7585  4.1309
 6060SOL    HW219727   2.618   2.354   6.239 -0.0833  0.0668 -1.6887
 6061SOL     OW19728   0.991   0.731   4.631 -0.0549 -0.1350  0.0472
 6061SOL    HW119729   1.021   0.661   4.572 -2.3625 -1.3046  0.1402
 6061SOL    HW219730   1.026   0.706   4.717  0.6344 -0.1629 -0.2305
 6062SOL     OW19731   1.683   6.042   2.514  0.1100  0.0235  0.6344
 6062SOL    HW119732   1.725   6.084   2.438  0.2147 -1.0693  0.0656
 6062SOL    HW219733   1.608   5.996   2.477 -0.7200  0.7195  1.4317
 6063SOL     OW19734   1.687   2.908   3.352  0.0957 -0.3630 -0.0756
 6063SOL    HW119735   1.726   2.855   3.282 -0.9824 -1.2456 -0.0444
 6063SOL    HW219736   1.728   2.994   3.343 -2.0671  0.4915 -3.7143
 6064SOL     OW19737   0.124   0.286   6.562  0.2222 -0.9655 -0.1493
 6064SOL    HW119738   0.093   0.374   6.543  0.5973 -1.1360 -1.6844
 6064SOL    HW219739   0.055   0.248   6.617 -0.4357 -0.0719 -0.3328
 6065SOL     OW19740   6.433   2.756   0.787  0.1176 -0.0434 -0.3122
 6065SOL    HW119741   6.421   2.673   0.741 -0.4586  0.4498 -1.0717
 6065SOL    HW219742   6.379   2.819   0.739  1.7634  1.1377 -0.7210
 6066SOL     OW19743   0.616   2.216   2.101 -0.0766  0.3050 -0.5875
 6066SOL    HW119744   0.671   2.276   2.051  1.4384 -0.7557 -0.2569
 6066SOL    HW219745   0.560   2.273   2.154  0.8014  1.4258 -0.8296
 6067SOL     OW19746   3.030   2.750   0.921  0.2844 -0.7795  0.6102
 6067SOL    HW119747   3.018   2.841   0.893  2.0750 -0.7090 -0.0161
 6067SOL    HW219748   2.994   2.698   0.849  3.0433 -0.5691 -1.0292
 6068SOL     OW19749   4.556   2.280   0.824  0.4514 -0.4302  0.0607
 6068SOL    HW119750   4.618   2.326   0.767 -1.4646  0.9319 -1.0271
 6068SOL    HW219751   4.499   2.349   0.859 -0.8640 -1.6846  0.5153
 6069SOL     OW19752   5.902   3.203   4.258  0.1593 -0.1333  0.2672
 6069SOL    HW119753   5.858   3.286   4.242 -1.3976 -0.8755  0.5359
 6069SOL    HW219754   5.838   3.136   4.235 -0.1089 -1.2857  3.6932
 6070SOL     OW19755   0.744   4.684   0.448 -0.3093  0.3756  0.0572
 6070SOL    HW119756   0.661   4.665   0.404 -0.8189 -0.6794  1.4104
 6070SOL    HW219757   0.802   4.614   0.419  0.4166  1.5845 -1.5591
 6071SOL     OW19758   4.276   2.100   1.189 -0.3200  0.4777  0.5538
 6071SOL    HW119759   4.189   2.075   1.158 -0.1164 -1.1037  1.1702
 6071SOL    HW219760   4.331   2.101   1.111 -0.5807  0.0700  0.3642
 6072SOL     OW19761   4.051   4.350   4.567  0.1839 -0.0482  0.1484
 6072SOL    HW119762   3.964   4.310   4.562  0.5294 -0.7534 -0.4745
 6072SOL    HW219763   4.055   4.389   4.655 -1.7159  2.2869 -0.6872
 6073SOL     OW19764   3.576   1.970   3.652  0.0190 -0.1783 -0.5105
 6073SOL    HW119765   3.665   1.986   3.621  0.7266 -0.1898  1.4047
 6073SOL    HW219766   3.535   2.057   3.655  0.6522  0.0996  0.5391
 6074SOL     OW19767   2.922   6.289   3.730  0.3439  0.3250 -0.6110
 6074SOL    HW119768   2.913   6.301   3.635 -1.7479  0.4203 -0.4423
 6074SOL    HW219769   2.965   6.204   3.739 -1.4809 -0.7874 -1.6851
 6075SOL     OW19770   6.245   0.530   2.562  0.4361 -0.4872  0.2852
 6075SOL    HW119771   6.212   0.446   2.530  0.6487  0.3798 -2.4117
 6075SOL    HW219772   6.311   0.557   2.499  1.1921  1.2154  1.6887
 6076SOL     OW19773   1.523   2.513   6.342  0.2684 -0.4168 -0.2740
 6076SOL    HW119774   1.612   2.486   6.321  1.1459  1.3099  0.9505
 6076SOL    HW219775   1.521   2.516   6.438 -0.4919  1.3320 -0.2916
 6077SOL     OW19776   3.883   4.166   5.678 -0.7160 -0.1802 -0.0071
 6077SOL    HW119777   3.873   4.071   5.686  1.2289 -0.4216  0.0826
 6077SOL    HW219778   3.907   4.194   5.766 -0.3089  0.2581 -0.2609
 6078SOL     OW19779   1.420   4.356   6.356  0.3574 -0.1145  0.4490
 6078SOL    HW119780   1.448   4.294   6.288 -0.4710 -0.1546  0.1318
 6078SOL    HW219781   1.337   4.321   6.388 -1.0879  1.7145 -1.0013
 6079SOL     OW19782   5.989   0.788   1.474 -0.1683 -0.4016 -0.0284
 6079SOL    HW119783   6.057   0.848   1.506  0.1228  1.4410 -3.6311
 6079SOL    HW219784   6.032   0.703   1.469  1.5267  0.4575 -0.9895
 6080SOL     OW19785   0.347   0.300   2.526 -0.1536 -0.1042  0.0580
 6080SOL    HW119786   0.257   0.269   2.513 -0.7299  0.7543  1.7197
 6080SOL    HW219787   0.401   0.234   2.483 -1.5521 -0.8520 -0.6354
 6081SOL     OW19788   3.875   5.372   4.576  0.0864  0.5263  0.0303
 6081SOL    HW119789   3.786   5.340   4.564  0.7348 -1.0596 -0.8690
 6081SOL    HW219790   3.921   5.301   4.620  0.8688  1.4152  0.7027
 6082SOL     OW19791   2.972   2.649   2.069 -0.6590  0.1796  0.0436
 6082SOL    HW119792   3.053   2.652   2.018 -1.2117  2.4631 -0.8282
 6082SOL    HW219793   2.998   2.614   2.154  1.2757  0.9726 -0.1769
 6083SOL     OW19794   4.274   4.174   0.678  0.0734  0.1900  0.4913
 6083SOL    HW119795   4.338   4.198   0.611 -0.7557 -0.1760 -0.4415
 6083SOL    HW219796   4.228   4.256   0.698  0.9182  0.4916  1.2890
 6084SOL     OW19797   4.918   1.662   3.113  0.4405 -0.6652 -0.1306
 6084SOL    HW119798   4.981   1.688   3.045  1.2753  0.7370  1.1094
 6084SOL    HW219799   4.842   1.631   3.064  1.0591  0.1674 -1.7108
 6085SOL     OW19800   4.531   4.791   4.081 -0.0974 -0.6862  0.4913
 6085SOL    HW119801   4.547   4.858   4.015 -0.1699 -2.5811 -1.5845
 6085SOL    HW219802   4.463   4.828   4.138 -0.2826  0.9061 -0.7151
 6086SOL     OW19803   0.700   4.905   5.647  0.0354  0.5113  0.0653
 6086SOL    HW119804   0.622   4.849   5.648  0.0170  0.4076 -1.9013
 6086SOL    HW219805   0.688   4.965   5.720 -1.0252 -0.6391  0.8777
 6087SOL     OW19806   0.751   6.233   1.758  0.1368 -0.0417 -0.2294
 6087SOL    HW119807   0.834   6.276   1.777 -0.6167  1.9193 -1.1012
 6087SOL    HW219808   0.731   6.256   1.667 -0.5177 -1.9640 -0.6251
 6088SOL     OW19809   3.295   1.387   4.645  0.6690  0.1646  0.6959
 6088SOL    HW119810   3.309   1.355   4.556  0.4696 -1.9852  1.4000
 6088SOL    HW219811   3.239   1.464   4.634  0.9731  0.1748 -1.0426
 6089SOL     OW19812   3.821   3.578   0.065 -0.0156  0.2637 -0.3364
 6089SOL    HW119813   3.888   3.509   0.061  0.4882  0.7153  0.2732
 6089SOL    HW219814   3.762   3.550   0.135  0.7490  0.9410  0.5970
 6090SOL     OW19815   5.815   4.715   4.556  0.0028  0.8497 -0.1338
 6090SOL    HW119816   5.850   4.664   4.483  0.0460  1.1150 -0.3040
 6090SOL    HW219817   5.720   4.713   4.544 -0.0250  0.3222  0.1940
 6091SOL     OW19818   0.682   0.849   5.617  0.4014 -0.5333  0.0926
 6091SOL    HW119819   0.656   0.809   5.699  1.6333 -1.6384 -0.0228
 6091SOL    HW219820   0.621   0.922   5.605 -0.5291 -1.0675  1.3849
 6092SOL     OW19821   5.439   3.532   6.771 -0.1357  0.1669  0.1593
 6092SOL    HW119822   5.529   3.512   6.795  0.7083  2.1444 -1.1627
 6092SOL    HW219823   5.415   3.606   6.827 -1.2103 -0.7124  0.9323
 6093SOL     OW19824   1.694   4.110   2.575  1.0620 -0.4752  0.2505
 6093SOL    HW119825   1.709   4.097   2.481  2.6444 -0.9403  0.5474
 6093SOL    HW219826   1.619   4.054   2.595  0.2602  0.1580 -0.8551
 6094SOL     OW19827   5.851   0.891   3.618 -0.1693  0.2845 -0.2596
 6094SOL    HW119828   5.897   0.941   3.684 -0.0925  0.3698 -0.3768
 6094SOL    HW219829   5.902   0.810   3.609  0.3407  0.6692 -0.8714
 6095SOL     OW19830   1.065   5.865   5.918 -0.1692 -0.3105  0.0686
 6095SOL    HW119831   1.072   5.959   5.934 -1.7356 -0.0220 -0.7338
 6095SOL    HW219832   1.028   5.829   5.999 -0.5965 -0.0578 -0.0114
 6096SOL     OW19833   1.983   3.139   1.071 -0.1950 -0.1044  0.4682
 6096SOL    HW119834   2.021   3.064   1.117  1.3652  0.4332  0.1027
 6096SOL    HW219835   2.041   3.154   0.996 -1.8010  0.0300 -0.8060
 6097SOL     OW19836   5.239   5.967   5.608  0.2745  0.5798 -0.5102
 6097SOL    HW119837   5.326   5.971   5.569  0.1220 -0.5820 -1.0125
 6097SOL    HW219838   5.179   5.969   5.533 -0.2867  3.7629 -0.1053
 6098SOL     OW19839   5.385   2.364   4.651 -0.1731 -0.8971 -0.1228
 6098SOL    HW119840   5.382   2.268   4.651  1.0989 -0.9635 -0.7073
 6098SOL    HW219841   5.445   2.386   4.722  1.9476 -0.7070 -1.8742
 6099SOL     OW19842   4.126   2.518   6.403  0.7694  0.0653  0.1150
 6099SOL    HW119843   4.084   2.575   6.338 -1.0790 -1.7290 -0.3963
 6099SOL    HW219844   4.095   2.550   6.487 -0.7790 -0.4785 -0.1977
 6100SOL     OW19845   5.586   5.932   5.699  0.1554  0.3827  0.0922
 6100SOL    HW119846   5.551   5.871   5.764 -2.8151  2.9092  1.1630
 6100SOL    HW219847   5.604   6.012   5.748  0.5157  1.5040 -1.7519
 6101SOL     OW19848   6.642   4.196   1.891  0.3635 -0.1114  0.9121
 6101SOL    HW119849   6.587   4.167   1.818  0.5519  1.0646  0.2830
 6101SOL    HW219850   6.728   4.213   1.851  0.4700  0.5368  1.3959
 6102SOL     OW19851   1.968   2.754   4.746 -0.1490 -0.2224  0.4398
 6102SOL    HW119852   1.976   2.712   4.832  0.0393  1.6119  1.3910
 6102SOL    HW219853   1.886   2.720   4.710  0.1499 -1.6008  0.9935
 6103SOL     OW19854   1.799   5.464   3.382  0.3955 -0.2549 -0.2218
 6103SOL    HW119855   1.843   5.380   3.371  0.5804 -0.0522 -1.0469
 6103SOL    HW219856   1.862   5.529   3.352  0.1813  0.1742  0.2334
 6104SOL     OW19857   4.392   2.980   2.585 -0.1225  0.5262 -0.6833
 6104SOL    HW119858   4.436   2.945   2.662  0.3993  0.3876 -1.0369
 6104SOL    HW219859   4.381   2.904   2.527 -3.0405  0.0020  0.3684
 6105SOL     OW19860   6.182   3.459   1.503 -0.3898 -0.6650  0.0956
 6105SOL    HW119861   6.268   3.428   1.530 -0.3264 -0.6016 -0.0325
 6105SOL    HW219862   6.182   3.450   1.407  0.0630  0.8378 -0.0588
 6106SOL     OW19863   3.491   4.265   6.267 -0.0626 -0.3039 -0.1142
 6106SOL    HW119864   3.523   4.355   6.256 -0.2079 -0.1658  0.5307
 6106SOL    HW219865   3.485   4.230   6.178 -1.3165  0.7897 -0.4936
 6107SOL     OW19866   0.042   0.907   3.952  0.3001 -0.3447  0.1186
 6107SOL    HW119867   0.104   0.873   3.888  0.2940 -1.2299  0.5735
 6107SOL    HW219868  -0.038   0.857   3.937 -0.4741  1.0833 -0.7541
 6108SOL     OW19869   3.104   0.048   1.469 -0.1252 -0.3819  0.0530
 6108SOL    HW119870   3.026   0.101   1.480  0.2989  0.2962 -0.1587
 6108SOL    HW219871   3.118   0.044   1.375  1.2617  1.2526  0.1499
 6109SOL     OW19872   1.990   4.057   2.211 -0.0395  0.4501  0.6864
 6109SOL    HW119873   2.067   4.094   2.255  0.8419  0.0510 -0.4695
 6109SOL    HW219874   2.018   4.042   2.121 -1.1659 -0.6341  0.4791
 6110SOL     OW19875   1.704   1.160   4.497  0.0804  0.1936 -0.2209
 6110SOL    HW119876   1.684   1.224   4.428 -0.3451 -0.3284 -0.5891
 6110SOL    HW219877   1.759   1.208   4.559 -1.9995  1.5929  0.6532
 6111SOL     OW19878   4.751   2.004   0.161  0.2861 -0.0697 -0.0014
 6111SOL    HW119879   4.666   1.989   0.202 -0.9365  3.5614 -0.8237
 6111SOL    HW219880   4.789   2.076   0.210  3.1221 -1.7954  0.5216
 6112SOL     OW19881   3.843   2.261   5.834  0.4081  0.2555  0.3763
 6112SOL    HW119882   3.750   2.268   5.853  0.7309  0.0078  2.2352
 6112SOL    HW219883   3.854   2.173   5.799 -0.0328  0.1992  0.3708
 6113SOL     OW19884   4.217   3.013   1.539  0.6122 -0.6888  0.0802
 6113SOL    HW119885   4.185   3.089   1.588  1.2877  0.0807 -0.6305
 6113SOL    HW219886   4.222   2.943   1.604 -0.2060 -0.1824  0.7092
 6114SOL     OW19887   0.378   5.990   0.775 -0.2257  0.2860 -0.0112
 6114SOL    HW119888   0.457   5.940   0.759 -0.8674 -0.1894 -1.9277
 6114SOL    HW219889   0.362   6.037   0.693 -2.1181  0.0870  0.2022
 6115SOL     OW19890   5.652   6.559   6.414  0.6289  0.3478  0.6325
 6115SOL    HW119891   5.629   6.515   6.332 -0.0625  1.8277 -0.0257
 6115SOL    HW219892   5.632   6.495   6.482 -1.3682 -0.0093 -0.2085
 6116SOL     OW19893   4.730   2.898   0.148 -0.4344 -0.0588 -0.1671
 6116SOL    HW119894   4.684   2.981   0.140  1.8352  1.2075 -0.8353
 6116SOL    HW219895   4.741   2.886   0.243 -1.3894  0.0156 -0.0381
 6117SOL     OW19896   2.304   1.533   6.481 -0.0750  0.3251  0.4979
 6117SOL    HW119897   2.258   1.549   6.563 -1.3666  2.3192 -0.5455
 6117SOL    HW219898   2.235   1.518   6.417  0.8186  0.5579 -0.5575
 6118SOL     OW19899   1.932   3.887   5.967  0.0487  0.1381  0.1584
 6118SOL    HW119900   2.014   3.936   5.970  0.0826  0.0537  2.1039
 6118SOL    HW219901   1.883   3.926   5.895  0.2423  2.7703  1.3664
 6119SOL     OW19902   5.749   1.120   4.772  0.0074  0.7169 -0.0921
 6119SOL    HW119903   5.776   1.171   4.696  0.7185 -0.0748 -0.3755
 6119SOL    HW219904   5.783   1.169   4.847 -0.4766  1.3600 -0.2822
 6120SOL     OW19905   6.107   3.560   0.472  0.1133 -0.4720  0.2260
 6120SOL    HW119906   6.017   3.528   0.466 -1.1513  2.9422 -1.6219
 6120SOL    HW219907   6.110   3.605   0.557  0.2461 -0.9329  0.4715
 6121SOL     OW19908   0.001   3.754   6.360  0.0454  0.0851 -0.3687
 6121SOL    HW119909  -0.055   3.812   6.310  0.1141  0.9798  0.5522
 6121SOL    HW219910  -0.015   3.778   6.451  1.1856 -0.3215 -0.0416
 6122SOL     OW19911   2.633   5.476   2.462 -0.3834  0.0622 -0.0777
 6122SOL    HW119912   2.545   5.496   2.431 -0.1664 -0.5079 -1.1027
 6122SOL    HW219913   2.665   5.408   2.402 -0.0074 -1.2035  1.4891
 6123SOL     OW19914   5.715   1.401   5.379  0.1176 -0.1486 -0.2876
 6123SOL    HW119915   5.655   1.399   5.453 -1.5411 -0.3041 -1.5846
 6123SOL    HW219916   5.736   1.309   5.362  1.9778 -0.0315  1.0861
 6124SOL     OW19917   1.818   5.385   5.068  0.2097  0.4772  0.5505
 6124SOL    HW119918   1.907   5.386   5.033  0.4037  1.1773  1.0516
 6124SOL    HW219919   1.812   5.302   5.116  1.3063  1.3466  2.2910
 6125SOL     OW19920   3.540   2.758   6.311  0.6748 -0.0415  0.1778
 6125SOL    HW119921   3.471   2.756   6.244  0.6498 -0.4826  0.2159
 6125SOL    HW219922   3.605   2.819   6.277 -0.4447  1.6336  0.8391
 6126SOL     OW19923   5.342   5.459   1.819  0.1283 -0.3316 -0.3525
 6126SOL    HW119924   5.430   5.492   1.801 -0.0000  0.2556  0.0700
 6126SOL    HW219925   5.284   5.531   1.793 -0.2015 -0.5384 -0.1916
 6127SOL     OW19926   5.081   2.130   1.557 -0.3815 -1.2853 -0.0941
 6127SOL    HW119927   5.156   2.131   1.617 -1.5090  0.0084  1.3632
 6127SOL    HW219928   5.090   2.209   1.505 -1.4561 -0.3572  1.0742
 6128SOL     OW19929   1.989   5.005   0.023 -0.1552 -0.3200  0.2054
 6128SOL    HW119930   1.913   5.063   0.030 -0.6185 -0.9668  0.6796
 6128SOL    HW219931   1.961   4.923   0.064  0.4807 -0.8904 -0.4624
 6129SOL     OW19932   0.651   2.297   2.744 -0.7724 -0.4556 -0.2558
 6129SOL    HW119933   0.706   2.226   2.775  2.1265  1.2687 -1.1190
 6129SOL    HW219934   0.670   2.303   2.651 -2.6710  0.0690 -0.6501
 6130SOL     OW19935   1.686   3.324   4.240 -0.1771 -0.1196 -0.4709
 6130SOL    HW119936   1.657   3.241   4.202  0.2478 -0.0760 -0.9133
 6130SOL    HW219937   1.679   3.386   4.168 -1.4133  0.4490  0.1230
 6131SOL     OW19938   6.107   5.602   3.945 -0.2267  0.0448  0.0056
 6131SOL    HW119939   6.163   5.584   3.869  0.2518  2.1392 -0.2124
 6131SOL    HW219940   6.166   5.600   4.020  0.3773  2.6886 -0.2695
 6132SOL     OW19941   4.369   0.553   1.106 -0.3927 -0.1555 -0.7165
 6132SOL    HW119942   4.346   0.637   1.066  0.3533 -0.2963 -1.4656
 6132SOL    HW219943   4.286   0.507   1.114 -1.1990  1.4926  1.7898
 6133SOL     OW19944   4.955   0.710   3.954 -0.1691  0.9224  0.6219
 6133SOL    HW119945   4.941   0.761   4.033 -0.2145  1.0488  0.5331
 6133SOL    HW219946   4.908   0.758   3.886 -2.2578 -0.4896  0.9788
 6134SOL     OW19947   4.680   0.668   5.583 -0.3559  0.0331 -0.1870
 6134SOL    HW119948   4.719   0.739   5.635  1.5964  0.2092 -1.7809
 6134SOL    HW219949   4.628   0.619   5.646  1.9146  0.1997  1.9983
 6135SOL     OW19950   3.015   1.059   6.375  0.4415  0.2017 -0.4638
 6135SOL    HW119951   3.027   1.033   6.467 -2.5793  1.0149  0.2611
 6135SOL    HW219952   2.954   1.132   6.379 -0.0731  0.0059 -3.1765
 6136SOL     OW19953   4.032   5.622   3.927  0.5858  0.0945  0.3087
 6136SOL    HW119954   4.023   5.539   3.881  1.0697 -0.8512  1.8309
 6136SOL    HW219955   4.092   5.673   3.873  2.3628 -1.5690  0.6063
 6137SOL     OW19956   3.721   1.799   0.988  0.2703  0.2395  0.3707
 6137SOL    HW119957   3.732   1.722   0.933  0.4287  0.3167  0.2931
 6137SOL    HW219958   3.701   1.870   0.927  0.0625  0.2477  0.4476
 6138SOL     OW19959   5.075   5.620   3.841  0.7099  0.4047  0.0100
 6138SOL    HW119960   5.099   5.544   3.788  0.5045 -0.0407  0.5481
 6138SOL    HW219961   5.077   5.588   3.931 -1.6965  0.3878  0.1195
 6139SOL     OW19962   3.437   2.501   1.468  0.0731 -0.3126 -0.9263
 6139SOL    HW119963   3.484   2.567   1.417  0.3408 -0.9916 -1.5531
 6139SOL    HW219964   3.453   2.419   1.424  1.7343 -1.2112  1.1703
 6140SOL     OW19965   3.434   2.834   0.309  0.5900  0.0150 -1.2480
 6140SOL    HW119966   3.380   2.843   0.231 -0.3322 -0.0315 -0.6238
 6140SOL    HW219967   3.372   2.827   0.382  1.4302  0.3372 -0.4725
 6141SOL     OW19968   2.499   1.701   4.886  0.1464  0.1371 -0.6638
 6141SOL    HW119969   2.446   1.623   4.871 -0.9127  0.8945 -1.0250
 6141SOL    HW219970   2.454   1.770   4.836 -1.0094  1.7858  2.4075
 6142SOL     OW19971   5.513   3.039   5.709 -0.0458  0.4681 -0.1373
 6142SOL    HW119972   5.553   2.955   5.686  0.0667  0.7513 -0.9834
 6142SOL    HW219973   5.470   3.068   5.629  1.3881  2.0648 -0.3785
 6143SOL     OW19974   5.575   2.618   6.199 -0.3629  0.1845 -0.3292
 6143SOL    HW119975   5.627   2.647   6.124 -1.2367 -1.8747 -1.8180
 6143SOL    HW219976   5.491   2.663   6.189  0.1306  1.3459  0.5098
 6144SOL     OW19977   4.774   4.134   4.316 -0.1492  0.2114 -0.9682
 6144SOL    HW119978   4.806   4.213   4.272  4.5376 -1.1854 -0.5330
 6144SOL    HW219979   4.798   4.146   4.408  0.0233 -1.4203 -0.7763
 6145SOL     OW19980   5.831   2.380   3.539 -0.2611  0.3568 -0.3052
 6145SOL    HW119981   5.881   2.310   3.582  2.6592  2.2299 -0.3349
 6145SOL    HW219982   5.839   2.363   3.446  1.9603  1.5401 -0.3968
 6146SOL     OW19983   5.151   4.000   2.500  0.1841 -0.2592 -0.2887
 6146SOL    HW119984   5.157   3.905   2.492 -0.5847 -0.2690 -0.9781
 6146SOL    HW219985   5.240   4.029   2.518  0.7182 -0.9886 -1.5856
 6147SOL     OW19986   3.851   5.152   1.847 -0.9919  0.5314 -0.2203
 6147SOL    HW119987   3.930   5.189   1.808 -0.3234  0.0897  0.6834
 6147SOL    HW219988   3.881   5.111   1.928 -2.2464  0.8726  0.4440
 6148SOL     OW19989   1.669   0.708   3.815  0.1193 -0.0297 -0.3011
 6148SOL    HW119990   1.600   0.688   3.752  1.5122  0.3608 -1.9990
 6148SOL    HW219991   1.709   0.789   3.783  2.1769 -0.8959 -0.0738
 6149SOL     OW19992   3.886   1.055   1.707 -0.2294  0.1933 -0.2376
 6149SOL    HW119993   3.930   0.988   1.759 -0.5239  0.0177 -0.2107
 6149SOL    HW219994   3.940   1.063   1.628  1.2832  1.8058  0.8702
 6150SOL     OW19995   1.150   1.626   4.201  0.0449  0.6408  0.2582
 6150SOL    HW119996   1.074   1.650   4.254  0.4188  0.2694  0.9666
 6150SOL    HW219997   1.167   1.704   4.148 -0.9544  0.6595 -0.0666
 6151SOL     OW19998   4.987   5.374   6.122  0.2882  0.3487  0.4571
 6151SOL    HW119999   5.022   5.358   6.209  1.2426  2.1019  0.4344
 6151SOL    HW220000   4.893   5.383   6.135  0.2645 -0.6045  1.0955
 6152SOL     OW20001   1.456   4.774   4.047 -0.2985  0.6959 -0.6961
 6152SOL    HW120002   1.545   4.807   4.057 -0.6098  1.1470  0.8516
 6152SOL    HW220003   1.453   4.741   3.957  1.6304 -0.0034 -0.5572
 6153SOL     OW20004   0.419   0.202   5.767  0.6196  0.0312 -0.3279
 6153SOL    HW120005   0.437   0.181   5.675  0.6217 -0.1146 -0.2945
 6153SOL    HW220006   0.435   0.120   5.814 -0.9141 -0.3373 -0.3933
 6154SOL     OW20007   0.806   0.779   2.501  0.3450 -0.0770  0.1435
 6154SOL    HW120008   0.774   0.868   2.490 -1.6261 -0.4375  2.2804
 6154SOL    HW220009   0.737   0.724   2.464 -0.3908 -0.7842  2.3903
 6155SOL     OW20010   5.350   1.640   1.546 -0.2952  0.4774  0.6702
 6155SOL    HW120011   5.329   1.734   1.549 -0.1376  0.5404 -0.1000
 6155SOL    HW220012   5.271   1.598   1.513  0.0812  0.4920 -0.2752
 6156SOL     OW20013   6.664   1.197   3.181 -0.2818  0.3746 -0.1443
 6156SOL    HW120014   6.648   1.163   3.269  0.3774  0.5206  0.0378
 6156SOL    HW220015   6.623   1.134   3.122 -1.4632  0.7063  0.2958
 6157SOL     OW20016   4.661   3.471   0.528  0.5434  0.1341 -0.1216
 6157SOL    HW120017   4.703   3.442   0.609 -1.4842  0.9522  1.2892
 6157SOL    HW220018   4.628   3.558   0.547 -1.1910 -0.1897 -1.3547
 6158SOL     OW20019   4.173   6.638   4.950 -0.0407 -0.4211 -0.3258
 6158SOL    HW120020   4.135   6.716   4.991  1.1383  0.0151 -0.0092
 6158SOL    HW220021   4.184   6.576   5.023  0.6758 -0.1959 -0.2254
 6159SOL     OW20022   5.291   0.972   0.106  0.1377 -0.0124 -0.0697
 6159SOL    HW120023   5.357   0.946   0.042 -0.2525  0.9462 -0.8768
 6159SOL    HW220024   5.259   0.889   0.143  2.6900 -0.4992  1.3088
 6160SOL     OW20025   3.141   2.917   3.328  0.2535  0.5429  0.3935
 6160SOL    HW120026   3.211   2.852   3.317 -1.0145 -0.8329  0.1227
 6160SOL    HW220027   3.165   2.966   3.407  2.2520  1.0976 -0.4975
 6161SOL     OW20028   0.052   4.597   6.411  0.3103  0.1952 -0.3492
 6161SOL    HW120029   0.037   4.525   6.350 -0.2428  1.0095 -1.2125
 6161SOL    HW220030   0.050   4.675   6.356 -3.0548  1.2454  0.9942
 6162SOL     OW20031   1.012   2.466   2.507  0.1963  0.6384  0.2575
 6162SOL    HW120032   0.975   2.549   2.538 -0.5624  0.2863  0.3366
 6162SOL    HW220033   0.935   2.415   2.478  0.7880  0.5871 -1.3304
 6163SOL     OW20034   6.255   3.401   3.076 -0.0370 -0.7498 -0.4972
 6163SOL    HW120035   6.323   3.365   3.018 -0.4203  0.0978 -1.5164
 6163SOL    HW220036   6.212   3.324   3.113  1.4956 -1.3092  0.2232
 6164SOL     OW20037   3.516   2.305   4.857 -0.6374 -0.4466  0.5045
 6164SOL    HW120038   3.578   2.248   4.901 -0.6094 -1.0584 -0.2981
 6164SOL    HW220039   3.430   2.267   4.874 -0.5263 -1.5544 -1.1387
 6165SOL     OW20040   2.207   6.772   4.340 -0.0688  0.2817 -0.5030
 6165SOL    HW120041   2.190   6.856   4.383 -0.3483 -0.4665  0.9232
 6165SOL    HW220042   2.123   6.746   4.303 -1.0510 -1.1264  2.3829
 6166SOL     OW20043   5.493   0.765   5.157 -0.4414  0.1691  0.0218
 6166SOL    HW120044   5.443   0.735   5.081 -0.2817  0.8516 -0.3564
 6166SOL    HW220045   5.539   0.686   5.187 -0.9362 -0.2276 -0.2485
 6167SOL     OW20046   5.376   1.394   2.327 -0.0322 -0.5165 -0.3304
 6167SOL    HW120047   5.414   1.329   2.268 -1.4872 -1.9752  0.2785
 6167SOL    HW220048   5.292   1.416   2.288  0.3854  0.9515 -0.4632
 6168SOL     OW20049   2.790   1.744   1.102 -0.1911 -0.2335  0.6038
 6168SOL    HW120050   2.749   1.722   1.186 -0.5398 -1.2946  0.1737
 6168SOL    HW220051   2.819   1.660   1.067  0.8728  0.3140  0.1203
 6169SOL     OW20052   2.631   2.273   0.949  0.3136 -0.3761 -0.1243
 6169SOL    HW120053   2.592   2.340   0.893 -2.4283  0.0083  2.0037
 6169SOL    HW220054   2.598   2.190   0.915 -0.3356 -0.2328  0.1307
 6170SOL     OW20055   5.105   6.048   3.091 -0.5791 -0.8064  0.1537
 6170SOL    HW120056   5.033   5.986   3.082 -0.4931 -0.8645 -0.1798
 6170SOL    HW220057   5.144   6.029   3.176  0.7878 -2.6864 -0.8007
 6171SOL     OW20058   2.594   1.530   0.914 -0.1893 -0.4023  0.0488
 6171SOL    HW120059   2.655   1.547   0.842 -0.5807 -0.4485 -0.3011
 6171SOL    HW220060   2.631   1.454   0.959  0.2451 -0.1561  0.1099
 6172SOL     OW20061   5.537   2.953   3.588  0.3394 -0.1070 -0.2099
 6172SOL    HW120062   5.502   3.028   3.538 -0.9274  0.1371  0.9784
 6172SOL    HW220063   5.460   2.897   3.603  0.3561  0.5171  2.6538
 6173SOL     OW20064   2.175   2.975   2.894 -0.2981  0.0923 -0.0550
 6173SOL    HW120065   2.088   3.002   2.864 -0.2433  0.8590  0.4568
 6173SOL    HW220066   2.215   2.934   2.817 -0.9840  0.0349 -0.3874
 6174SOL     OW20067   6.612   2.214   2.861  0.4496 -0.6020 -0.8224
 6174SOL    HW120068   6.527   2.231   2.819  0.5561 -1.4306 -1.4059
 6174SOL    HW220069   6.676   2.250   2.800  0.5518 -0.5814 -0.7030
 6175SOL     OW20070   1.152   2.738   5.969  0.3661 -0.7960  0.2257
 6175SOL    HW120071   1.227   2.680   5.967  0.9693 -0.0199  0.0137
 6175SOL    HW220072   1.107   2.722   5.886  0.5534 -0.9232  0.1491
 6176SOL     OW20073   5.347   4.005   3.931  0.0085 -0.5576 -0.1182
 6176SOL    HW120074   5.348   3.914   3.960 -0.0622 -0.3809  0.4569
 6176SOL    HW220075   5.257   4.022   3.905 -0.1513 -0.4297  0.5089
 6177SOL     OW20076   5.907   3.238   5.770  0.2803 -0.5389  0.8427
 6177SOL    HW120077   5.951   3.323   5.780  0.4129 -0.4515 -0.2767
 6177SOL    HW220078   5.870   3.219   5.856 -1.7051  1.7381  0.6035
 6178SOL     OW20079   3.728   6.215   6.339  0.2020 -0.0208 -0.3065
 6178SOL    HW120080   3.694   6.206   6.428 -0.7663  0.1758 -0.6454
 6178SOL    HW220081   3.714   6.307   6.318 -0.7949 -0.3522 -1.1391
 6179SOL     OW20082   2.248   6.124   1.043  0.1853  0.0145 -0.1145
 6179SOL    HW120083   2.179   6.078   1.089  0.3885  2.2947  2.7704
 6179SOL    HW220084   2.318   6.135   1.108  1.5407  1.3058 -1.6876
 6180SOL     OW20085   3.220   0.546   3.935 -0.2622 -0.2102  0.2699
 6180SOL    HW120086   3.134   0.574   3.903  0.6243  0.4612 -1.7172
 6180SOL    HW220087   3.274   0.539   3.856  1.4119 -1.0004  1.4184
 6181SOL     OW20088   3.009   5.074   4.817  0.2401 -0.0705  0.0629
 6181SOL    HW120089   2.962   4.994   4.844 -1.0761  1.3718  2.4198
 6181SOL    HW220090   3.101   5.055   4.836  0.6124 -2.4161 -3.2387
 6182SOL     OW20091   5.157   6.038   0.664 -0.6291  0.1658  0.2654
 6182SOL    HW120092   5.177   5.992   0.582 -0.5551 -0.2609  0.5203
 6182SOL    HW220093   5.165   6.131   0.642 -0.5178  0.0523 -0.1872
 6183SOL     OW20094   0.563   0.875   2.158  0.1007  0.3919 -0.1015
 6183SOL    HW120095   0.500   0.815   2.117 -0.5054 -1.6724  3.4311
 6183SOL    HW220096   0.647   0.829   2.153  0.2771  0.7097 -0.1246
 6184SOL     OW20097   1.111   1.878   0.288 -0.0990  0.4289 -0.6161
 6184SOL    HW120098   1.099   1.972   0.296 -1.5916  0.1941  0.4282
 6184SOL    HW220099   1.103   1.845   0.378 -0.7500 -0.7979 -1.0926
 6185SOL     OW20100   1.266   3.121   3.353 -0.5422 -0.0746  0.8434
 6185SOL    HW120101   1.265   3.214   3.371 -0.0346  0.8498 -2.9739
 6185SOL    HW220102   1.338   3.109   3.291  0.3836 -3.3017  2.3282
 6186SOL     OW20103   0.128   4.463   2.943 -0.6265  0.0939 -0.1545
 6186SOL    HW120104   0.163   4.473   2.855 -0.2970 -0.4217 -0.0855
 6186SOL    HW220105   0.198   4.420   2.992 -0.0640  2.0697  0.8529
 6187SOL     OW20106   1.765   3.187   1.943  0.8105  0.4817  0.0700
 6187SOL    HW120107   1.751   3.115   2.004 -1.2900  0.7686  0.0035
 6187SOL    HW220108   1.753   3.147   1.856 -0.3491  0.8966  0.0332
 6188SOL     OW20109   2.490   3.686   5.163 -0.1290  0.4381  0.3852
 6188SOL    HW120110   2.560   3.621   5.168 -0.5159  0.0286  0.4890
 6188SOL    HW220111   2.499   3.738   5.243 -1.3179 -1.0235  1.5238
 6189SOL     OW20112   1.132   1.322   0.433  0.3673 -0.0694  0.2205
 6189SOL    HW120113   1.073   1.249   0.449 -0.1126  0.4434  0.8175
 6189SOL    HW220114   1.198   1.315   0.501  1.9178 -1.5362 -1.3268
 6190SOL     OW20115   2.874   2.721   3.690  0.1355 -0.6298  0.2671
 6190SOL    HW120116   2.846   2.765   3.770 -1.1397 -3.6618  1.6454
 6190SOL    HW220117   2.969   2.732   3.689  0.1397 -0.2365  2.0158
 6191SOL     OW20118   4.529   3.174   4.544 -0.0411 -0.2339  0.1514
 6191SOL    HW120119   4.593   3.172   4.472  1.3038  0.0181  1.3084
 6191SOL    HW220120   4.518   3.082   4.568 -0.0520 -0.2697  0.0134
 6192SOL     OW20121   0.011   2.962   5.293 -0.3576  0.3140  0.7835
 6192SOL    HW120122   0.005   3.018   5.216  1.5830  0.4941  0.7095
 6192SOL    HW220123  -0.017   2.876   5.262  0.6077  0.3334 -0.2126
 6193SOL     OW20124   5.426   5.220   4.242  0.2900  0.2214  0.3497
 6193SOL    HW120125   5.414   5.275   4.319 -1.5596  0.2728  0.0739
 6193SOL    HW220126   5.343   5.226   4.195  0.8069 -1.0946 -0.8051
 6194SOL     OW20127   1.498   5.201   0.513  0.3159 -0.4391 -0.1131
 6194SOL    HW120128   1.558   5.250   0.569  1.3733  0.5983 -2.0420
 6194SOL    HW220129   1.452   5.142   0.572  1.8885  0.0782  1.7096
 6195SOL     OW20130   2.407   2.974   0.517  0.1251 -0.0141  0.6870
 6195SOL    HW120131   2.423   3.066   0.535  0.3476  0.3541 -1.1662
 6195SOL    HW220132   2.404   2.932   0.603  2.5428  1.2877  1.5049
 6196SOL     OW20133   4.578   5.213   1.714 -0.1363 -0.8497 -0.0252
 6196SOL    HW120134   4.549   5.199   1.624 -1.1726 -1.1619  0.3347
 6196SOL    HW220135   4.588   5.307   1.723  1.1610 -0.8912 -0.8025
 6197SOL     OW20136   6.481   4.188   1.062 -0.1283  0.3116 -0.9476
 6197SOL    HW120137   6.562   4.207   1.110 -0.5473 -1.3254  0.5301
 6197SOL    HW220138   6.441   4.273   1.048 -0.1579  0.9026  2.0594
 6198SOL     OW20139   5.911   6.646   6.556 -0.3474 -0.1555  0.2690
 6198SOL    HW120140   5.876   6.558   6.565 -0.5755 -0.0351  0.5844
 6198SOL    HW220141   5.833   6.702   6.544 -0.1866 -0.0375 -0.2734
 6199SOL     OW20142   2.298   5.248   5.417 -0.1553 -0.6485  0.1217
 6199SOL    HW120143   2.205   5.246   5.440 -0.1078 -0.3851  0.3355
 6199SOL    HW220144   2.301   5.293   5.332 -0.3911 -2.1445 -0.7167
 6200SOL     OW20145   5.511   1.887   3.447 -0.1641 -0.5765  0.4040
 6200SOL    HW120146   5.515   1.980   3.469  0.8313 -0.5248  0.0740
 6200SOL    HW220147   5.562   1.880   3.366  1.0068 -1.6187  1.1850
 6201SOL     OW20148   0.353   1.323   4.019  0.2053  0.1211  0.0447
 6201SOL    HW120149   0.290   1.256   3.994  0.3314 -0.6259  1.6160
 6201SOL    HW220150   0.300   1.401   4.037  0.0430  0.4172 -1.5942
 6202SOL     OW20151   1.283   6.752   5.249  0.3344  0.0141  0.1028
 6202SOL    HW120152   1.286   6.657   5.260  1.5045  0.0831  0.5742
 6202SOL    HW220153   1.215   6.767   5.184 -1.9236 -0.9280  2.1098
 6203SOL     OW20154   6.067   2.988   3.679  0.4051 -0.1743  0.0010
 6203SOL    HW120155   6.035   3.066   3.634  0.3593 -0.4473 -0.4524
 6203SOL    HW220156   6.001   2.969   3.745  0.8439  0.6697  0.7036
 6204SOL     OW20157   1.949   0.385   2.655  0.1925 -0.5689 -0.3054
 6204SOL    HW120158   1.949   0.370   2.750 -0.9213 -0.8259 -0.3347
 6204SOL    HW220159   1.895   0.314   2.620  0.1419 -0.1488 -1.0814
 6205SOL     OW20160   2.419   1.871   6.134  0.2390 -0.3382  0.7588
 6205SOL    HW120161   2.400   1.879   6.228  0.7948 -1.6018  0.9964
 6205SOL    HW220162   2.335   1.852   6.094  0.1363 -0.6426  1.1130
 6206SOL     OW20163   3.145   6.300   0.852  0.1491 -0.2938 -0.8505
 6206SOL    HW120164   3.138   6.221   0.907 -0.2667  0.5643  0.3661
 6206SOL    HW220165   3.226   6.287   0.803  1.6873 -0.1621  1.5142
 6207SOL     OW20166   5.088   2.991   2.416  0.0099 -0.0594 -0.1539
 6207SOL    HW120167   5.065   3.083   2.404 -0.5512 -0.1022  0.5369
 6207SOL    HW220168   5.010   2.942   2.390  0.7768 -0.4341 -1.8919
 6208SOL     OW20169   6.779   6.008   3.154 -0.1626  0.0699  0.3179
 6208SOL    HW120170   6.705   6.011   3.214  0.6651 -0.1215  1.3868
 6208SOL    HW220171   6.742   6.031   3.069 -1.3494  0.4503  0.9121
 6209SOL     OW20172   3.615   2.588   5.247 -0.3264 -0.0490  0.0123
 6209SOL    HW120173   3.555   2.539   5.191  0.1004 -0.7660  0.1704
 6209SOL    HW220174   3.698   2.542   5.238 -0.4903 -0.8423  2.0714
 6210SOL     OW20175   3.096   2.709   6.681  0.1298  0.2835 -0.2883
 6210SOL    HW120176   3.135   2.747   6.760  1.4445 -1.1914 -0.1687
 6210SOL    HW220177   3.139   2.755   6.609  2.0680 -1.1600 -0.1512
 6211SOL     OW20178   0.241   0.318   5.173 -0.3376  0.1603  0.2995
 6211SOL    HW120179   0.147   0.321   5.159 -0.5532  1.2805  1.7474
 6211SOL    HW220180   0.253   0.247   5.236  0.0106 -1.1106 -1.1303
 6212SOL     OW20181   2.873   2.527   3.513  0.4632 -0.4034  0.6340
 6212SOL    HW120182   2.843   2.604   3.561 -2.0123 -0.4361 -0.6779
 6212SOL    HW220183   2.943   2.560   3.456  0.0582  0.6986  0.7513
 6213SOL     OW20184   6.285   3.609   4.471  0.5339 -0.0621 -0.3961
 6213SOL    HW120185   6.312   3.700   4.481 -1.4991  0.4017  1.3826
 6213SOL    HW220186   6.229   3.591   4.546 -0.6147 -2.2349 -1.6588
 6214SOL     OW20187   5.807   6.121   3.627 -0.7558 -0.0879 -0.0335
 6214SOL    HW120188   5.807   6.050   3.692 -2.3535  1.4493  1.7564
 6214SOL    HW220189   5.743   6.184   3.660 -1.4740  0.9041 -3.0143
 6215SOL     OW20190   3.607   0.560   0.278  0.6356  0.0470  0.3278
 6215SOL    HW120191   3.560   0.633   0.238  2.1257  1.6672  1.3730
 6215SOL    HW220192   3.544   0.519   0.337 -0.1338  0.6916 -0.0355
 6216SOL     OW20193   6.282   4.651   6.467  0.0080  0.3442  0.1021
 6216SOL    HW120194   6.296   4.579   6.405 -1.3799  0.4935 -0.4105
 6216SOL    HW220195   6.260   4.607   6.549  0.4572  0.1675  0.1315
 6217SOL     OW20196   1.384   6.100   2.441  0.0051  0.4044  0.5235
 6217SOL    HW120197   1.459   6.155   2.464  1.4648 -1.2594 -0.0411
 6217SOL    HW220198   1.361   6.056   2.523 -1.9112  2.5708  1.2692
 6218SOL     OW20199   5.249   0.765   0.790 -0.3309  0.7463  0.1826
 6218SOL    HW120200   5.265   0.765   0.884 -0.0150  0.2431  0.1318
 6218SOL    HW220201   5.286   0.847   0.759 -1.1817  1.3054  0.6174
 6219SOL     OW20202   2.931   2.337   3.099 -0.1224 -0.4842  0.2002
 6219SOL    HW120203   2.896   2.425   3.110 -1.0523 -0.9047  0.6365
 6219SOL    HW220204   2.957   2.333   3.007 -2.6377 -0.6550 -0.5649
 6220SOL     OW20205   0.420   1.540   5.903 -0.0157  0.3623 -0.1775
 6220SOL    HW120206   0.514   1.530   5.919 -0.3673 -0.1958  1.9209
 6220SOL    HW220207   0.410   1.630   5.871  1.2442  0.3797 -0.5491
 6221SOL     OW20208   2.562   2.899   1.871 -0.1528 -0.7476 -0.0464
 6221SOL    HW120209   2.653   2.870   1.868  0.5798  1.3030  0.6176
 6221SOL    HW220210   2.529   2.865   1.954 -0.2963 -2.1935 -0.6564
 6222SOL     OW20211   4.436   5.271   1.456 -0.2547  0.3358  0.0405
 6222SOL    HW120212   4.445   5.347   1.398 -1.0028 -0.4178 -1.1193
 6222SOL    HW220213   4.411   5.200   1.398  0.1948 -0.7545  1.1426
 6223SOL     OW20214   0.202   2.737   5.521 -0.0759 -0.1283  0.0442
 6223SOL    HW120215   0.243   2.710   5.439  2.0206 -1.6789  1.5212
 6223SOL    HW220216   0.208   2.833   5.520  1.0539 -0.1834 -1.0471
 6224SOL     OW20217   2.441   1.957   3.482  0.5782  0.0050 -0.2850
 6224SOL    HW120218   2.456   2.013   3.558 -0.6395  0.7184 -0.5418
 6224SOL    HW220219   2.431   2.018   3.409  0.4925 -0.6059 -0.7899
 6225SOL     OW20220   6.280   5.421   2.381 -0.0023 -0.3410  0.1247
 6225SOL    HW120221   6.295   5.326   2.376  0.2790 -0.3044  0.2206
 6225SOL    HW220222   6.299   5.453   2.292 -0.9804 -0.4912 -0.1455
 6226SOL     OW20223   6.730   5.603   5.310  0.0223 -0.8785  0.4742
 6226SOL    HW120224   6.695   5.614   5.399 -0.4955  0.2076  0.1593
 6226SOL    HW220225   6.653   5.611   5.253  0.6109  0.5064 -0.1699
 6227SOL     OW20226   6.376   1.846   4.321 -0.0887  0.0121  0.2712
 6227SOL    HW120227   6.468   1.869   4.337 -0.2980  0.4235  0.9011
 6227SOL    HW220228   6.327   1.923   4.349 -0.7398 -0.8590  1.5842
 6228SOL     OW20229   0.178   0.388   4.892 -0.0831  0.4916  0.5613
 6228SOL    HW120230   0.226   0.466   4.918  0.0952  1.1056 -1.4187
 6228SOL    HW220231   0.153   0.346   4.974  3.1873  0.5088  1.7019
 6229SOL     OW20232   1.572   3.714   4.429 -0.5273  0.0298 -0.1345
 6229SOL    HW120233   1.490   3.678   4.397 -1.2197  0.7625  0.7272
 6229SOL    HW220234   1.626   3.638   4.450 -0.3983 -0.4636 -2.0712
 6230SOL     OW20235   0.545   0.453   0.120 -0.0377 -0.4490  0.0901
 6230SOL    HW120236   0.571   0.437   0.029 -0.4098 -0.7355  0.0346
 6230SOL    HW220237   0.452   0.475   0.116  0.2239  0.7840  0.2727
 6231SOL     OW20238   6.206   4.897   0.966 -0.3109  0.4658 -0.2546
 6231SOL    HW120239   6.122   4.858   0.941 -0.1678 -1.1218  1.5306
 6231SOL    HW220240   6.268   4.824   0.966  0.5669  1.1847  0.6064
 6232SOL     OW20241   2.336   3.824   0.068  0.1622 -0.0799 -0.3660
 6232SOL    HW120242   2.313   3.892   0.005 -1.3956 -0.6493 -0.4634
 6232SOL    HW220243   2.368   3.751   0.015  2.6437  0.8128 -0.2141
 6233SOL     OW20244   2.781   3.723   4.578  0.0472  0.1855 -0.4198
 6233SOL    HW120245   2.710   3.758   4.524  0.3567  0.4082 -0.6914
 6233SOL    HW220246   2.850   3.789   4.572 -0.0110  0.3311  0.4637
 6234SOL     OW20247   1.037   4.043   1.708  0.4276 -0.1969  0.3012
 6234SOL    HW120248   1.018   3.955   1.739  0.1421 -0.8745 -1.7111
 6234SOL    HW220249   1.132   4.051   1.712  0.3991 -0.2444  1.3397
 6235SOL     OW20250   1.117   0.844   3.813  0.3164 -0.0063  0.0690
 6235SOL    HW120251   1.152   0.766   3.770 -0.0719 -0.7126  0.9880
 6235SOL    HW220252   1.093   0.813   3.901 -1.8427  0.6218 -0.2458
 6236SOL     OW20253   4.076   2.569   1.701 -0.3298  0.4196  0.4421
 6236SOL    HW120254   4.149   2.627   1.721 -1.0808  1.3686  0.5128
 6236SOL    HW220255   3.998   2.623   1.714 -1.0289 -0.4039 -0.1755
 6237SOL     OW20256   2.702   6.678   0.117 -0.0320 -0.3969 -0.6751
 6237SOL    HW120257   2.676   6.696   0.207 -0.6656  2.0706 -1.2670
 6237SOL    HW220258   2.619   6.672   0.069  0.3115 -1.2909 -1.1864
 6238SOL     OW20259   3.386   5.494   2.021  0.1577 -0.1235  0.4421
 6238SOL    HW120260   3.362   5.539   2.102  1.0903  0.5520  0.3568
 6238SOL    HW220261   3.375   5.561   1.953  0.0674 -0.4792  0.1019
 6239SOL     OW20262   3.643   3.895   1.068  0.0247 -0.1456 -0.3361
 6239SOL    HW120263   3.736   3.881   1.055  0.5570  1.2723  1.5882
 6239SOL    HW220264   3.604   3.808   1.056  1.7607 -1.0513  0.2680
 6240SOL     OW20265   1.408   2.645   5.911  0.2592  0.5707  0.0592
 6240SOL    HW120266   1.439   2.562   5.949 -0.2986  0.3746  0.0995
 6240SOL    HW220267   1.401   2.627   5.817 -1.3793  0.0543  0.2436
 6241SOL     OW20268   4.865   1.040   5.581  0.2542 -0.0856 -0.6709
 6241SOL    HW120269   4.840   1.117   5.632  0.7262 -0.9806  1.0010
 6241SOL    HW220270   4.960   1.042   5.580  0.3590 -1.5995  1.0355
 6242SOL     OW20271   4.473   3.036   3.743 -0.3230 -0.7388 -0.5122
 6242SOL    HW120272   4.481   2.941   3.743 -0.6489 -0.7671 -0.4061
 6242SOL    HW220273   4.381   3.053   3.723 -0.1638 -0.4348 -1.0059
 6243SOL     OW20274   5.789   6.784   6.177 -0.1221 -0.0795 -0.5547
 6243SOL    HW120275   5.809   6.691   6.177 -1.3986 -0.3813 -2.0580
 6243SOL    HW220276   5.702   6.790   6.216  0.3368  0.6131  0.4188
 6244SOL     OW20277   3.629   4.471   2.555 -0.5461  0.5042  0.0196
 6244SOL    HW120278   3.534   4.478   2.544 -0.8255 -0.5624  1.4131
 6244SOL    HW220279   3.660   4.561   2.563 -1.3458  0.8869 -1.0330
 6245SOL     OW20280   3.544   4.697   5.283 -0.1751 -0.0770 -0.0610
 6245SOL    HW120281   3.464   4.717   5.331  0.0501 -1.7330  1.1053
 6245SOL    HW220282   3.535   4.604   5.260  1.3609 -0.2589 -0.0115
 6246SOL     OW20283   2.079   6.453   2.343  0.2422  0.3144 -0.9746
 6246SOL    HW120284   2.123   6.369   2.356  0.5648  0.6604  0.2746
 6246SOL    HW220285   2.023   6.439   2.266 -0.4500 -1.3334 -0.2120
 6247SOL     OW20286   4.065   4.832   2.206 -0.3631 -0.2177  0.0224
 6247SOL    HW120287   4.123   4.885   2.260  0.7114  1.2212 -2.3553
 6247SOL    HW220288   3.988   4.816   2.260  1.7744 -1.3957  2.9896
 6248SOL     OW20289   0.884   1.790   3.550  0.0498  0.2158  0.4734
 6248SOL    HW120290   0.969   1.750   3.532  1.9693  2.6597  3.0928
 6248SOL    HW220291   0.828   1.717   3.575  2.5582 -1.2389  2.4085
 6249SOL     OW20292   6.414   1.635   0.647 -0.3291  0.1618  0.0944
 6249SOL    HW120293   6.449   1.722   0.631 -0.2010  0.7868  3.2242
 6249SOL    HW220294   6.361   1.616   0.569  0.9580  2.2963 -1.4037
 6250SOL     OW20295   2.682   6.358   1.100 -0.1665  0.4841  0.2780
 6250SOL    HW120296   2.740   6.433   1.087 -0.6057  0.9196  0.7914
 6250SOL    HW220297   2.653   6.366   1.191 -0.4256 -0.1588  0.2518
 6251SOL     OW20298   5.080   6.156   2.391  0.0301 -0.6109 -0.3313
 6251SOL    HW120299   5.126   6.085   2.347  0.9858  0.3568 -0.9665
 6251SOL    HW220300   5.077   6.226   2.326 -2.7207 -0.7500 -0.4422
 6252SOL     OW20301   4.158   2.703   4.046  0.5240  0.4521  0.1463
 6252SOL    HW120302   4.233   2.667   3.999  0.5087  0.5160  0.0730
 6252SOL    HW220303   4.196   2.764   4.109  0.4989  0.8735 -0.2437
 6253SOL     OW20304   4.838   2.549   0.399  0.3520  0.3219  0.4605
 6253SOL    HW120305   4.926   2.511   0.396  0.9923  1.7546 -0.1022
 6253SOL    HW220306   4.809   2.552   0.308 -0.2317 -0.0240  0.6282
 6254SOL     OW20307   1.662   2.473   1.766  0.6174  0.1006  0.1135
 6254SOL    HW120308   1.647   2.540   1.700  1.0812  1.0418  0.9270
 6254SOL    HW220309   1.622   2.394   1.730 -0.1565  0.8670 -0.7659
 6255SOL     OW20310   1.390   3.659   1.932 -0.1153 -0.4943 -0.4660
 6255SOL    HW120311   1.475   3.688   1.900 -1.2746  1.6000 -1.8650
 6255SOL    HW220312   1.392   3.676   2.026  0.0823  2.2172 -0.8943
 6256SOL     OW20313   2.508   1.168   3.452  0.1567 -0.7219 -0.1274
 6256SOL    HW120314   2.587   1.221   3.464 -1.4645  2.3338 -1.7722
 6256SOL    HW220315   2.450   1.195   3.523 -0.9649  0.3607 -1.4037
 6257SOL     OW20316   5.598   3.217   1.637 -0.4817  0.0766  0.6913
 6257SOL    HW120317   5.567   3.127   1.649  3.6614 -1.9674 -1.7029
 6257SOL    HW220318   5.678   3.222   1.689 -0.7496  2.5178  0.9608
 6258SOL     OW20319   3.910   3.470   5.588  0.0348 -0.4454 -0.2692
 6258SOL    HW120320   3.951   3.488   5.503  2.0939  1.4352  0.9879
 6258SOL    HW220321   3.816   3.472   5.570  0.3723  1.1944 -2.2998
 6259SOL     OW20322   2.535   1.268   1.962  0.1515  0.2331 -0.3041
 6259SOL    HW120323   2.590   1.331   1.917  1.3691 -0.6929 -0.1604
 6259SOL    HW220324   2.447   1.307   1.961  0.3821  0.7854 -2.3544
 6260SOL     OW20325   0.852   1.667   2.106  0.6540  0.6641 -0.5777
 6260SOL    HW120326   0.777   1.677   2.164  2.4996 -1.0850  2.3528
 6260SOL    HW220327   0.905   1.746   2.121  2.0059 -0.5732  1.6838
 6261SOL     OW20328   0.722   1.583   6.238 -0.6523 -0.8763  0.7970
 6261SOL    HW120329   0.667   1.507   6.220  0.8948 -1.8843  0.1154
 6261SOL    HW220330   0.661   1.657   6.239 -1.7172 -1.4838 -3.0094
 6262SOL     OW20331   5.177   4.728   3.355 -0.3053  0.4715 -0.5335
 6262SOL    HW120332   5.237   4.801   3.365 -1.4338  1.2962  0.4976
 6262SOL    HW220333   5.096   4.758   3.395 -0.7705 -1.3764  0.0057
 6263SOL     OW20334   4.078   3.265   3.122 -0.1167 -0.0285  0.3179
 6263SOL    HW120335   4.106   3.328   3.055  1.1751  0.5149  1.3256
 6263SOL    HW220336   4.160   3.234   3.161 -0.7218 -2.2662 -0.0494
 6264SOL     OW20337   3.898   3.777   1.046  0.2922  0.4201 -0.1290
 6264SOL    HW120338   3.952   3.764   0.968  0.8259  1.0880  0.1266
 6264SOL    HW220339   3.908   3.695   1.095 -1.2219 -0.6183 -1.4359
 6265SOL     OW20340   4.338   0.904   2.047  0.0082 -0.2646  0.1198
 6265SOL    HW120341   4.277   0.908   1.973  0.4207  1.7344 -0.1810
 6265SOL    HW220342   4.281   0.900   2.124 -0.4702 -0.5926 -0.2437
 6266SOL     OW20343   4.417   6.451   3.884 -0.2947  0.6538  0.5437
 6266SOL    HW120344   4.423   6.435   3.790 -0.3166 -0.8415  0.7701
 6266SOL    HW220345   4.500   6.494   3.906  2.2964 -3.8229  0.6638
 6267SOL     OW20346   4.414   2.791   6.639  0.1390  0.2582  0.3038
 6267SOL    HW120347   4.359   2.861   6.602 -0.5660  0.7066  2.0509
 6267SOL    HW220348   4.416   2.723   6.572  2.8000  2.8061 -2.5084
 6268SOL     OW20349   6.369   5.153   1.180  0.2804  0.1697  0.5419
 6268SOL    HW120350   6.424   5.078   1.201  0.8895  0.5389  0.2808
 6268SOL    HW220351   6.373   5.209   1.258 -0.6115 -0.3145  0.9529
 6269SOL     OW20352   5.640   0.545   4.035  0.3653  0.3148  0.0324
 6269SOL    HW120353   5.552   0.528   4.000 -0.1524  2.2507  0.3058
 6269SOL    HW220354   5.689   0.577   3.959  1.4256 -2.3643 -0.5486
 6270SOL     OW20355   2.444   3.075   1.003 -0.2069 -0.3968  0.9468
 6270SOL    HW120356   2.427   2.994   1.052  0.4965 -0.1861  1.5586
 6270SOL    HW220357   2.456   3.142   1.071 -0.5493  0.1786  0.4537
 6271SOL     OW20358   5.988   4.371   6.539  0.0048  0.4093 -0.3124
 6271SOL    HW120359   6.067   4.410   6.577  1.6689  0.0664 -3.1137
 6271SOL    HW220360   6.020   4.300   6.484 -2.3164 -0.0768 -1.1635
 6272SOL     OW20361   1.011   3.700   5.803 -0.1392  0.2477  0.0840
 6272SOL    HW120362   1.095   3.725   5.764  1.1001 -1.5233  1.4690
 6272SOL    HW220363   0.973   3.640   5.739  0.7298 -0.7017  0.4221
 6273SOL     OW20364   1.125   4.781   0.950  0.0953 -0.3809 -0.4834
 6273SOL    HW120365   1.038   4.759   0.916  0.6365  0.2913 -2.4782
 6273SOL    HW220366   1.173   4.699   0.948 -0.1772 -0.5446 -0.4002
 6274SOL     OW20367   0.712   4.380   0.750 -0.3687  0.3775 -0.4122
 6274SOL    HW120368   0.765   4.306   0.779 -0.4573  1.0255  1.5207
 6274SOL    HW220369   0.719   4.378   0.654  1.9599 -0.3959 -0.2742
 6275SOL     OW20370   0.393   2.339   0.837  0.4451  0.2236  0.3149
 6275SOL    HW120371   0.299   2.343   0.858  0.8905  2.6510  2.4323
 6275SOL    HW220372   0.397   2.290   0.755 -2.5751 -0.7429  0.5918
 6276SOL     OW20373   2.263   3.869   1.570  0.1310  0.3074  0.0996
 6276SOL    HW120374   2.332   3.929   1.598  0.5999  0.7646 -1.9253
 6276SOL    HW220375   2.309   3.791   1.540 -0.3763 -0.2810  0.8128
 6277SOL     OW20376   0.922   0.096   6.647  0.2768 -0.5795 -0.3094
 6277SOL    HW120377   0.978   0.154   6.594 -2.9215  1.5018 -1.6927
 6277SOL    HW220378   0.911   0.144   6.730 -0.7564 -0.1295 -0.6916
 6278SOL     OW20379   3.387   5.961   2.402 -0.0517  0.0741 -0.3811
 6278SOL    HW120380   3.321   6.023   2.372 -0.5736 -0.1551  0.2730
 6278SOL    HW220381   3.402   5.904   2.326  0.5376  1.0678 -1.0360
 6279SOL     OW20382   6.488   4.872   4.246  0.0990 -0.2502  0.1291
 6279SOL    HW120383   6.399   4.901   4.226  0.6733  1.2980 -0.2941
 6279SOL    HW220384   6.508   4.914   4.330  0.1831 -1.2039  0.6054
 6280SOL     OW20385   5.288   4.214   3.719 -0.1846  0.1448  0.2723
 6280SOL    HW120386   5.256   4.228   3.808  1.0715 -0.0140  0.7689
 6280SOL    HW220387   5.214   4.238   3.663 -0.6863  1.1798  1.3260
 6281SOL     OW20388   6.110   1.971   0.813  0.0769 -0.0670 -0.1466
 6281SOL    HW120389   6.098   2.064   0.794  1.8598  0.3643  0.5563
 6281SOL    HW220390   6.174   1.942   0.748  0.0688 -0.6203  0.0901
 6282SOL     OW20391   4.906   1.319   1.967 -0.4095 -0.2995 -0.2598
 6282SOL    HW120392   4.993   1.350   1.993  1.3740 -1.9985 -3.6091
 6282SOL    HW220393   4.879   1.378   1.897 -2.6183  0.9213  1.4906
 6283SOL     OW20394   3.510   3.418   1.695 -0.8448  0.1414 -0.1293
 6283SOL    HW120395   3.438   3.373   1.738 -0.5067  1.5221  2.0411
 6283SOL    HW220396   3.558   3.349   1.650 -1.3011 -1.4326  1.6632
 6284SOL     OW20397   1.067   4.987   3.153 -0.1961 -0.4377 -0.2133
 6284SOL    HW120398   1.028   4.956   3.071  2.0338 -0.3487 -1.3823
 6284SOL    HW220399   1.059   4.914   3.214  0.3459 -1.4424 -1.3126
 6285SOL     OW20400   3.854   3.033   5.377 -0.1452  0.4985 -0.0467
 6285SOL    HW120401   3.768   2.992   5.373 -0.0200  0.3280 -1.7859
 6285SOL    HW220402   3.907   2.972   5.428 -1.0826  0.7200  1.2463
 6286SOL     OW20403   0.416   0.272   3.133  0.1494 -0.0938  0.3806
 6286SOL    HW120404   0.456   0.187   3.150  0.5826  0.3398  1.6873
 6286SOL    HW220405   0.482   0.319   3.082  0.0439 -0.4164 -0.0606
 6287SOL     OW20406   3.785   4.239   4.522 -0.1746 -0.1453 -0.1567
 6287SOL    HW120407   3.793   4.171   4.456 -0.3238  0.0068 -0.3353
 6287SOL    HW220408   3.692   4.264   4.519 -0.4125 -0.8593  0.8348
 6288SOL     OW20409   6.610   4.367   6.032 -0.2168  0.3440  0.3690
 6288SOL    HW120410   6.630   4.287   6.081 -1.5410 -0.0154  0.3630
 6288SOL    HW220411   6.516   4.362   6.017 -0.0668  1.1795 -0.9355
 6289SOL     OW20412   3.173   6.601   3.725 -0.1295 -0.1141  0.1095
 6289SOL    HW120413   3.156   6.645   3.641  1.0362 -0.4053 -0.2879
 6289SOL    HW220414   3.177   6.508   3.704  0.1180 -0.1960  0.4957
 6290SOL     OW20415   0.200   0.779   3.127  0.1852 -0.0218 -0.1038
 6290SOL    HW120416   0.264   0.724   3.173 -2.2188 -0.8039  2.5408
 6290SOL    HW220417   0.136   0.717   3.091 -1.7837  0.8768  1.6710
 6291SOL     OW20418   1.021   6.694   3.305  0.2227  0.1990 -0.1324
 6291SOL    HW120419   1.004   6.725   3.394 -0.3783 -0.9468  0.1758
 6291SOL    HW220420   0.951   6.630   3.289 -0.2463  1.0827 -1.7956
 6292SOL     OW20421   5.133   4.366   6.123  0.6914 -0.1515 -0.7203
 6292SOL    HW120422   5.105   4.298   6.184  0.4666  0.2320 -0.3935
 6292SOL    HW220423   5.110   4.332   6.037 -0.1183 -0.1653 -0.5072
 6293SOL     OW20424   4.411   6.687   0.453  0.2088  0.5639 -0.1191
 6293SOL    HW120425   4.488   6.691   0.397  1.9549  2.2386  2.2131
 6293SOL    HW220426   4.429   6.615   0.513 -1.0452 -0.3657 -0.8052
 6294SOL     OW20427   1.734   1.651   1.273  0.1629 -0.0557 -0.4329
 6294SOL    HW120428   1.727   1.560   1.302  0.8860  0.4918  1.6241
 6294SOL    HW220429   1.782   1.646   1.190  0.8547 -1.4959  0.0193
 6295SOL     OW20430   3.711   3.867   3.523  0.0523  0.3545 -0.0137
 6295SOL    HW120431   3.720   3.772   3.531  0.2953  0.5039  1.7876
 6295SOL    HW220432   3.669   3.880   3.437  0.0876 -1.3623 -0.3157
 6296SOL     OW20433   2.031   3.362   2.592  0.3617 -0.2252  0.1610
 6296SOL    HW120434   2.122   3.356   2.563 -0.0600  1.4187 -1.6906
 6296SOL    HW220435   2.015   3.456   2.602 -0.9725 -0.5162  1.0908
 6297SOL     OW20436   2.219   6.112   5.291  0.7005 -0.5003 -0.0105
 6297SOL    HW120437   2.236   6.018   5.282  0.2584 -0.7028  1.0569
 6297SOL    HW220438   2.244   6.132   5.381  2.0467  0.7061 -0.6079
 6298SOL     OW20439   0.740   3.721   5.329  0.3527 -0.0838  0.1329
 6298SOL    HW120440   0.659   3.675   5.308  1.1968 -0.7618 -1.8323
 6298SOL    HW220441   0.719   3.814   5.315 -0.5836 -0.0476  1.5111
 6299SOL     OW20442   3.634   1.513   1.893  0.0781  0.7652 -0.0284
 6299SOL    HW120443   3.659   1.485   1.982  0.7931  1.6422  0.0598
 6299SOL    HW220444   3.652   1.436   1.839 -0.3590  0.2222  0.5765
 6300SOL     OW20445   0.334   5.342   2.171 -0.2725 -0.2749  0.2659
 6300SOL    HW120446   0.397   5.301   2.230  0.9798 -1.8176 -1.9631
 6300SOL    HW220447   0.346   5.295   2.088 -3.1034  0.6260 -0.7600
 6301SOL     OW20448   0.592   3.636   4.420  0.3118  0.3086  0.0156
 6301SOL    HW120449   0.530   3.604   4.355  1.4036 -0.4528 -0.6840
 6301SOL    HW220450   0.622   3.558   4.466 -0.2655  0.8115  1.2901
 6302SOL     OW20451   6.216   3.429   2.014 -0.0382  0.3855  0.1382
 6302SOL    HW120452   6.282   3.402   1.951 -0.0403  2.1491 -0.7102
 6302SOL    HW220453   6.246   3.395   2.098  0.7457 -0.7493 -0.5753
 6303SOL     OW20454   2.269   2.319   5.022  0.2243  0.6800  0.4696
 6303SOL    HW120455   2.313   2.369   5.091 -1.8219  1.4645  1.2937
 6303SOL    HW220456   2.203   2.268   5.069 -1.0016  0.9842 -0.8644
 6304SOL     OW20457   6.001   0.718   4.745  0.6025  0.4510 -0.1594
 6304SOL    HW120458   6.021   0.625   4.741  1.5814  0.5461  1.5404
 6304SOL    HW220459   5.916   0.723   4.789  0.3163  0.3679 -0.6853
 6305SOL     OW20460   4.807   1.093   3.012 -0.0738 -0.4428 -0.2938
 6305SOL    HW120461   4.884   1.137   2.975 -2.2145  1.9792 -2.1753
 6305SOL    HW220462   4.819   1.001   2.989  2.1147 -0.1034 -0.7534
 6306SOL     OW20463   4.903   1.863   6.759  0.2936 -0.2923  0.7249
 6306SOL    HW120464   4.898   1.959   6.759  2.1395 -0.1048 -1.8674
 6306SOL    HW220465   4.854   1.837   6.681 -0.2548 -1.4983  1.4500
 6307SOL     OW20466   2.253   2.833   2.670  0.3014  0.1632 -0.2048
 6307SOL    HW120467   2.346   2.817   2.686  0.3877  0.4496 -0.4258
 6307SOL    HW220468   2.215   2.745   2.668  0.2801  0.1084  1.5642
 6308SOL     OW20469   2.436   5.998   3.861 -0.4398  0.0312  0.2387
 6308SOL    HW120470   2.528   5.996   3.890  0.2561  1.6702 -1.6305
 6308SOL    HW220471   2.402   6.081   3.895 -1.4637 -0.8367  1.4310
 6309SOL     OW20472   4.302   0.786   0.996  0.0425  0.3574 -0.5784
 6309SOL    HW120473   4.361   0.840   0.944  0.4680  1.0450  0.5847
 6309SOL    HW220474   4.239   0.847   1.034  0.6547  0.1088  0.9180
 6310SOL     OW20475   3.445   6.164   1.302  0.2841  0.3349 -0.4490
 6310SOL    HW120476   3.387   6.228   1.342 -1.6744 -1.6803  0.1448
 6310SOL    HW220477   3.513   6.149   1.367  0.6079  1.5660 -0.4843
 6311SOL     OW20478   5.900   1.900   0.299 -0.5880 -0.1857  0.4960
 6311SOL    HW120479   5.959   1.954   0.352  0.2864  0.5800 -1.2107
 6311SOL    HW220480   5.948   1.819   0.283  0.0774  0.4691 -0.9605
 6312SOL     OW20481   3.020   1.518   3.222 -0.2184 -0.0721  0.2547
 6312SOL    HW120482   3.042   1.575   3.296 -0.9942  0.8542 -0.2084
 6312SOL    HW220483   2.956   1.568   3.172 -1.7831 -1.8152  0.4341
 6313SOL     OW20484   6.282   5.674   0.891  0.5210  0.3152  0.0806
 6313SOL    HW120485   6.322   5.619   0.958 -1.5264 -1.2624  0.1158
 6313SOL    HW220486   6.247   5.749   0.940 -0.1338 -0.3569  0.6680
 6314SOL     OW20487   5.526   5.985   4.810  0.7295  0.0533  0.3735
 6314SOL    HW120488   5.613   6.024   4.798  0.6882  0.0040 -0.1206
 6314SOL    HW220489   5.543   5.891   4.813  0.3318 -0.4119 -4.3528
 6315SOL     OW20490   3.129   3.646   3.495  0.3716  0.5563  0.0693
 6315SOL    HW120491   3.203   3.682   3.543 -0.0577  0.5173  0.7768
 6315SOL    HW220492   3.154   3.556   3.476  0.6810  0.6712 -0.0831
 6316SOL     OW20493   1.113   0.867   2.732 -0.4290  0.2453  0.0043
 6316SOL    HW120494   1.089   0.800   2.668  2.7942 -1.2300  0.1563
 6316SOL    HW220495   1.179   0.921   2.687  0.8131  0.0803  1.5574
 6317SOL     OW20496   5.003   4.931   0.393  0.1284 -0.2611 -0.3769
 6317SOL    HW120497   4.993   4.904   0.301 -0.4147 -0.4947 -0.2535
 6317SOL    HW220498   4.999   4.849   0.442 -1.4665  0.0146 -0.0006
 6318SOL     OW20499   1.768   3.206   0.713  0.0366 -0.4042  0.6580
 6318SOL    HW120500   1.719   3.288   0.703  1.5636  0.4043 -0.6857
 6318SOL    HW220501   1.745   3.155   0.635  1.8111  0.2966 -0.3837
 6319SOL     OW20502   4.865   3.008   2.984 -0.3037 -0.0436 -0.2035
 6319SOL    HW120503   4.846   2.915   2.970 -1.3103  0.0584  0.3496
 6319SOL    HW220504   4.934   3.008   3.050 -2.1174 -0.4236  1.8420
 6320SOL     OW20505   1.152   3.215   2.425 -0.0023 -0.1765  0.4062
 6320SOL    HW120506   1.175   3.303   2.454 -1.8200 -0.0368  1.5837
 6320SOL    HW220507   1.171   3.215   2.331 -0.9382  1.8272  0.1630
 6321SOL     OW20508   5.237   3.744   0.982  0.6818 -0.5837 -0.3558
 6321SOL    HW120509   5.308   3.809   0.980  1.1129 -1.0562 -0.6171
 6321SOL    HW220510   5.281   3.660   0.968  0.0014 -0.8255 -1.0542
 6322SOL     OW20511   4.084   6.673   2.099  0.3218 -0.1578 -0.3263
 6322SOL    HW120512   4.105   6.761   2.130 -0.8961  0.8817 -2.2159
 6322SOL    HW220513   3.988   6.671   2.099  0.3058 -0.8166 -1.9806
 6323SOL     OW20514   5.944   2.026   4.837 -0.2848 -0.8353 -0.1030
 6323SOL    HW120515   6.008   2.063   4.776  0.2535 -1.2019  0.2291
 6323SOL    HW220516   5.898   2.102   4.872 -0.0741 -0.5685 -0.3952
 6324SOL     OW20517   6.489   1.619   1.829 -0.1766 -0.4731  0.5944
 6324SOL    HW120518   6.576   1.622   1.869 -0.2704  0.2987  0.7527
 6324SOL    HW220519   6.451   1.537   1.860 -0.4949  0.3862  2.6138
 6325SOL     OW20520   0.741   4.036   5.094  0.0556  0.1852 -0.2412
 6325SOL    HW120521   0.693   4.026   5.176  2.1259  0.8430  1.1283
 6325SOL    HW220522   0.774   3.949   5.074  0.9918  0.3405  0.5828
 6326SOL     OW20523   1.204   2.209   2.982  0.0211  0.2693  0.0186
 6326SOL    HW120524   1.282   2.264   2.977 -1.8343  2.9235 -1.7389
 6326SOL    HW220525   1.150   2.250   3.050 -0.9377  0.0040 -0.5672
 6327SOL     OW20526   2.290   3.801   3.688 -0.0938 -0.5241 -0.3767
 6327SOL    HW120527   2.326   3.864   3.751  0.5799  0.3164 -1.5586
 6327SOL    HW220528   2.196   3.819   3.689 -0.1742 -0.9338  0.8090
 6328SOL     OW20529   6.753   6.573   2.761 -0.2481 -0.4818  0.2917
 6328SOL    HW120530   6.660   6.588   2.778  0.2544  1.0601  1.9801
 6328SOL    HW220531   6.791   6.660   2.753  1.2161 -1.0519  0.6487
 6329SOL     OW20532   0.998   4.149   4.992 -0.5738 -0.0399 -0.3339
 6329SOL    HW120533   0.915   4.107   5.013 -0.3335  0.1890  1.1715
 6329SOL    HW220534   1.017   4.121   4.902 -2.1339 -0.2994 -0.6188
 6330SOL     OW20535   1.325   5.752   5.076 -0.2064  0.7007  0.4468
 6330SOL    HW120536   1.231   5.755   5.062 -0.0155  1.0004 -0.9571
 6330SOL    HW220537   1.356   5.841   5.056  0.4062  0.5440  0.6549
 6331SOL     OW20538   3.158   2.118   2.486  0.5477 -0.2688  0.2428
 6331SOL    HW120539   3.231   2.176   2.468  0.8472  0.8468  4.1066
 6331SOL    HW220540   3.081   2.175   2.487 -0.0829 -1.0113 -1.3516
 6332SOL     OW20541   5.524   3.070   0.885  0.3828 -0.0042 -0.4499
 6332SOL    HW120542   5.465   3.111   0.822 -0.3731 -0.0289  0.2144
 6332SOL    HW220543   5.583   3.017   0.832  0.4003  0.7493 -1.2050
 6333SOL     OW20544   2.751   4.604   5.151 -0.0632  0.2423  0.0696
 6333SOL    HW120545   2.658   4.610   5.132  0.4203 -0.5734 -3.2079
 6333SOL    HW220546   2.775   4.514   5.126  1.4879  0.1632  1.6086
 6334SOL     OW20547   1.169   0.566   6.371 -0.1233  0.3628  0.5220
 6334SOL    HW120548   1.234   0.514   6.419 -0.7106  0.1320  1.0878
 6334SOL    HW220549   1.208   0.653   6.364  0.5378  0.0524  0.2502
 6335SOL     OW20550   1.730   6.450   3.665  0.8899 -0.4772  0.2892
 6335SOL    HW120551   1.725   6.473   3.758  1.0361 -0.7348  0.3623
 6335SOL    HW220552   1.644   6.414   3.644 -0.4422  2.8079 -0.5701
 6336SOL     OW20553   5.956   6.279   4.391  0.2530  0.1172 -0.3593
 6336SOL    HW120554   6.051   6.270   4.387  0.2922  0.3632 -0.0260
 6336SOL    HW220555   5.930   6.302   4.302  0.7439  2.1869 -0.0229
 6337SOL     OW20556   4.371   4.746   5.211 -0.5462  0.2602 -0.1377
 6337SOL    HW120557   4.427   4.689   5.264  0.9877  0.4613 -1.4512
 6337SOL    HW220558   4.295   4.692   5.189 -0.5519 -0.2688  1.1064
 6338SOL     OW20559   2.772   2.341   5.952  0.2390 -0.7388  0.0270
 6338SOL    HW120560   2.783   2.429   5.916 -0.6768 -0.0291  1.3562
 6338SOL    HW220561   2.691   2.309   5.913 -0.0692 -0.4826  0.4350
 6339SOL     OW20562   5.131   4.595   6.656 -0.2022  0.3001  0.1143
 6339SOL    HW120563   5.049   4.574   6.700  0.3336  0.9356  1.4681
 6339SOL    HW220564   5.143   4.689   6.670  0.7705  0.2124 -0.0101
 6340SOL     OW20565   6.798   6.036   2.042  0.4863  0.3666  0.2197
 6340SOL    HW120566   6.734   6.035   1.970  2.6467  0.5397 -1.8389
 6340SOL    HW220567   6.745   6.038   2.121 -2.0486 -0.2599 -1.3369
 6341SOL     OW20568   1.227   3.517   1.177 -0.2072 -0.2787  0.0543
 6341SOL    HW120569   1.214   3.588   1.240 -0.7432  2.4376 -2.8437
 6341SOL    HW220570   1.218   3.437   1.229 -2.3447  1.6954  3.0872
 6342SOL     OW20571   1.586   5.777   1.865  0.5339  0.3846 -0.7465
 6342SOL    HW120572   1.652   5.748   1.928  2.2073 -1.3231 -3.0982
 6342SOL    HW220573   1.525   5.831   1.916  3.0251  0.9960  1.8103
 6343SOL     OW20574   4.357   1.276   5.102  0.1884  0.0603  0.3646
 6343SOL    HW120575   4.365   1.295   5.008 -1.0987  2.3871  0.6475
 6343SOL    HW220576   4.318   1.189   5.106 -1.4970  0.6654 -1.3514
 6344SOL     OW20577   3.366   3.572   5.500 -0.1205  0.3987 -0.2042
 6344SOL    HW120578   3.347   3.527   5.418 -0.0350 -0.5350  0.2767
 6344SOL    HW220579   3.330   3.660   5.488 -3.1352 -0.7141 -0.0195
 6345SOL     OW20580   6.015   2.792   0.293  0.5632  0.1012  0.3769
 6345SOL    HW120581   5.968   2.756   0.218 -1.6315  2.6924  0.3563
 6345SOL    HW220582   6.004   2.726   0.361 -1.3226 -0.3527 -0.2875
 6346SOL     OW20583   6.786   6.083   6.100  0.1105  0.7852  0.1351
 6346SOL    HW120584   6.810   6.173   6.118  1.3450  0.8207 -1.5117
 6346SOL    HW220585   6.857   6.031   6.137  0.0877  0.5718 -0.1180
 6347SOL     OW20586   1.510   5.345   6.794  0.3982 -0.3985 -0.5934
 6347SOL    HW120587   1.490   5.279   6.728  2.6630 -0.3833 -1.3638
 6347SOL    HW220588   1.483   5.428   6.755  0.5259 -0.5286 -0.9552
 6348SOL     OW20589   6.098   4.607   1.064  0.5318 -0.5016  0.0316
 6348SOL    HW120590   6.059   4.684   1.021  0.9448 -0.3959 -0.1648
 6348SOL    HW220591   6.146   4.643   1.139 -0.9502 -0.7786  1.1456
 6349SOL     OW20592   5.661   4.255   1.695 -0.0659  0.3743 -0.0926
 6349SOL    HW120593   5.672   4.306   1.775 -2.2762 -0.6109  0.9344
 6349SOL    HW220594   5.710   4.174   1.711 -1.4629 -0.3294  0.8184
 6350SOL     OW20595   6.659   2.940   4.938  0.6545 -0.3799 -0.1405
 6350SOL    HW120596   6.691   2.851   4.920 -0.2240 -0.5418 -0.9717
 6350SOL    HW220597   6.582   2.950   4.881 -0.0367  0.4444  0.9086
 6351SOL     OW20598   0.349   4.157   3.262  0.2945 -0.0960  0.8910
 6351SOL    HW120599   0.322   4.234   3.212  0.2301  0.6870  2.0862
 6351SOL    HW220600   0.322   4.083   3.208  0.4725  0.7126 -0.3482
 6352SOL     OW20601   6.334   2.094   2.538 -0.2361 -0.5542  0.1279
 6352SOL    HW120602   6.274   2.103   2.612  0.1873 -0.8643  0.5106
 6352SOL    HW220603   6.282   2.052   2.470 -0.6790 -0.1008  0.1801
 6353SOL     OW20604   3.357   4.122   5.037 -0.3619  0.2759 -0.0903
 6353SOL    HW120605   3.359   4.026   5.030  2.1793  0.2473  0.1472
 6353SOL    HW220606   3.376   4.153   4.948 -2.6798  0.6595 -0.5209
 6354SOL     OW20607   1.505   2.596   6.645 -0.3079 -0.0975  0.2735
 6354SOL    HW120608   1.454   2.565   6.720 -0.7128 -3.5260 -1.2566
 6354SOL    HW220609   1.596   2.580   6.669 -0.3672 -0.1713  0.4474
 6355SOL     OW20610   6.144   5.887   2.356  0.1267 -0.4842 -0.6589
 6355SOL    HW120611   6.070   5.847   2.310  0.3575 -1.4249 -0.2478
 6355SOL    HW220612   6.121   5.882   2.449  0.4466 -0.2613 -0.5657
 6356SOL     OW20613   4.492   2.897   1.783  0.1484 -0.2553  0.0435
 6356SOL    HW120614   4.586   2.886   1.773 -0.1108 -1.4242 -1.5010
 6356SOL    HW220615   4.478   2.992   1.779  1.1441 -0.1323 -1.0210
 6357SOL     OW20616   2.059   3.701   1.557  0.3432 -0.6401  0.1793
 6357SOL    HW120617   2.124   3.771   1.557  0.9366 -1.1740 -0.4950
 6357SOL    HW220618   2.026   3.699   1.467 -0.6148 -0.3833  0.5110
 6358SOL     OW20619   0.523   0.159   6.684 -0.2071  0.3481  0.2110
 6358SOL    HW120620   0.487   0.119   6.763 -1.5389  0.2528 -0.4130
 6358SOL    HW220621   0.446   0.177   6.630  0.7467 -0.3578 -1.4261
 6359SOL     OW20622   4.673   2.613   5.385 -0.6571 -0.2359  0.2985
 6359SOL    HW120623   4.749   2.626   5.328 -0.8799  0.0769  0.0688
 6359SOL    HW220624   4.679   2.522   5.414 -1.4058 -0.8870 -1.4918
 6360SOL     OW20625   5.401   0.185   3.635  0.3864  0.3726 -0.2616
 6360SOL    HW120626   5.351   0.165   3.556 -0.3159 -0.0500  0.2756
 6360SOL    HW220627   5.473   0.240   3.604  0.0654  0.3035 -1.1776
 6361SOL     OW20628   5.116   2.621   6.531 -0.1689  0.2467 -0.5600
 6361SOL    HW120629   5.053   2.549   6.524 -0.6796  0.5591  0.5882
 6361SOL    HW220630   5.070   2.698   6.499 -0.0569  0.3071 -0.5781
 6362SOL     OW20631   0.946   6.318   6.619 -0.7876  0.0586  0.3264
 6362SOL    HW120632   0.934   6.412   6.633 -1.6202  0.1232 -0.7167
 6362SOL    HW220633   0.983   6.286   6.701  1.7191  1.6754 -0.0505
 6363SOL     OW20634   2.591   6.681   2.027  0.3560  0.3433  0.0173
 6363SOL    HW120635   2.594   6.692   2.122 -0.2942  1.3632 -0.0750
 6363SOL    HW220636   2.499   6.668   2.006  0.5626 -0.5542 -0.4201
 6364SOL     OW20637   2.940   3.232   5.896  0.3395 -0.1229 -0.4562
 6364SOL    HW120638   2.983   3.246   5.981 -0.5422  0.2200 -0.0549
 6364SOL    HW220639   3.013   3.226   5.834  0.9616  0.7137  0.1646
 6365SOL     OW20640   0.021   5.714   3.546  0.0528 -0.1449 -0.0623
 6365SOL    HW120641  -0.030   5.694   3.624  0.9756  2.0100  1.1829
 6365SOL    HW220642   0.106   5.671   3.561  0.3504  0.5634  0.2893
 6366SOL     OW20643   1.927   5.325   4.371 -0.0150  0.2164  0.1340
 6366SOL    HW120644   1.908   5.391   4.438 -0.4167  3.0562 -2.5891
 6366SOL    HW220645   2.002   5.359   4.323  1.2005 -2.4701 -0.0829
 6367SOL     OW20646   3.010   6.783   6.055 -0.6182 -0.1358  0.1990
 6367SOL    HW120647   3.086   6.805   6.002  0.7299  1.8994  2.7590
 6367SOL    HW220648   3.021   6.690   6.076 -0.7072 -0.7424 -2.1844
 6368SOL     OW20649   0.712   6.797   4.722  0.3861  0.0962 -0.2236
 6368SOL    HW120650   0.751   6.780   4.636  0.7419 -0.8800  0.1163
 6368SOL    HW220651   0.731   6.718   4.773 -0.1881  0.4900  0.6220
 6369SOL     OW20652   6.130   0.663   3.344 -0.0189 -0.2306 -0.0566
 6369SOL    HW120653   6.133   0.700   3.255  0.0183  0.6452  0.2994
 6369SOL    HW220654   6.218   0.675   3.378  0.6041 -2.5903 -0.6674
 6370SOL     OW20655   0.273   2.696   3.074  0.5645  0.3966  0.2011
 6370SOL    HW120656   0.188   2.736   3.093 -0.3728 -1.7681  0.8891
 6370SOL    HW220657   0.301   2.738   2.993 -1.4099  0.8484 -0.3134
 6371SOL     OW20658   1.044   4.355   4.671 -0.2626  0.6646  0.0380
 6371SOL    HW120659   1.046   4.260   4.684 -0.9716  0.6005 -0.2676
 6371SOL    HW220660   0.966   4.384   4.718 -0.4271  1.0009 -0.4298
 6372SOL     OW20661   5.926   5.305   0.644  0.2901 -0.0919 -0.0418
 6372SOL    HW120662   5.935   5.335   0.553 -1.1723 -0.5601 -0.3756
 6372SOL    HW220663   6.013   5.273   0.668  1.1285  1.5905 -0.6903
 6373SOL     OW20664   1.664   0.269   1.063  0.3625 -0.3039 -1.1552
 6373SOL    HW120665   1.752   0.264   1.100 -0.1404 -0.7457  0.0377
 6373SOL    HW220666   1.617   0.328   1.122  0.4141  1.7525 -3.0216
 6374SOL     OW20667   1.340   6.671   2.151  0.7678 -0.5339 -0.4853
 6374SOL    HW120668   1.370   6.684   2.060 -0.1545  1.4200 -0.5533
 6374SOL    HW220669   1.259   6.721   2.157 -0.9033 -3.1764  0.5741
 6375SOL     OW20670   0.663   5.431   0.549  0.0255  0.3830 -0.6811
 6375SOL    HW120671   0.659   5.495   0.478 -1.5809  1.9573  0.7318
 6375SOL    HW220672   0.717   5.472   0.616  0.3536 -0.4810 -0.3978
 6376SOL     OW20673   6.335   3.739   5.744  0.1676 -0.2884 -0.1311
 6376SOL    HW120674   6.422   3.716   5.777 -0.2436 -0.9552  0.5233
 6376SOL    HW220675   6.276   3.676   5.785 -1.0338  1.8820  1.7013
 6377SOL     OW20676   6.632   6.475   4.518 -0.0560  0.1458  0.6643
 6377SOL    HW120677   6.549   6.489   4.473  1.3879  3.0171 -1.5009
 6377SOL    HW220678   6.644   6.554   4.571 -0.1593 -1.7142  3.7110
 6378SOL     OW20679   4.905   2.845   4.941 -0.7252 -0.0517  0.8848
 6378SOL    HW120680   4.972   2.902   4.902 -1.0873  1.1914  1.9860
 6378SOL    HW220681   4.842   2.831   4.871 -0.6766  1.0228  0.6004
 6379SOL     OW20682   3.580   4.375   0.305 -0.2828  0.1499 -0.4678
 6379SOL    HW120683   3.626   4.437   0.361  1.2307 -2.1707  1.0163
 6379SOL    HW220684   3.582   4.416   0.218 -0.0760  2.4905  0.5592
 6380SOL     OW20685   3.294   1.241   2.287  0.0219  0.0608 -0.2685
 6380SOL    HW120686   3.285   1.313   2.225  1.0311  0.5101  0.0832
 6380SOL    HW220687   3.265   1.277   2.371 -0.6392 -0.3219 -0.3283
 6381SOL     OW20688   0.642   4.542   1.023 -0.3817  0.5703  0.0632
 6381SOL    HW120689   0.638   4.635   1.045  1.7964  1.0716 -1.2834
 6381SOL    HW220690   0.675   4.500   1.102  1.2067  1.3968 -0.1071
 6382SOL     OW20691   3.340   3.489   3.755  0.7305  0.4997  0.0532
 6382SOL    HW120692   3.328   3.406   3.709 -2.1612 -0.6232  2.4611
 6382SOL    HW220693   3.400   3.469   3.827 -1.7520 -0.3584  2.0717
 6383SOL     OW20694   0.156   5.968   3.557 -0.3482  0.6352 -0.5082
 6383SOL    HW120695   0.126   5.999   3.472  0.9512  0.0256 -1.2225
 6383SOL    HW220696   0.129   5.876   3.560  0.4844  0.3705 -0.7201
 6384SOL     OW20697   0.485   3.638   3.509 -0.0549  0.2023  0.5514
 6384SOL    HW120698   0.497   3.550   3.547  2.3357  0.8604  1.5218
 6384SOL    HW220699   0.502   3.697   3.582  0.4938  1.4832 -0.5807
 6385SOL     OW20700   4.757   4.021   0.373  0.0620  0.4663 -0.5419
 6385SOL    HW120701   4.709   4.000   0.293 -1.1953  1.7351 -0.1513
 6385SOL    HW220702   4.755   4.116   0.379 -1.9180  0.3661  2.1477
 6386SOL     OW20703   1.156   5.292   5.406 -0.0102 -0.3150  0.1364
 6386SOL    HW120704   1.099   5.319   5.478  0.1673 -1.5462  0.7665
 6386SOL    HW220705   1.223   5.360   5.402 -0.9595  0.6362  0.0208
 6387SOL     OW20706   4.222   5.536   3.542 -0.2157  0.4442  0.2766
 6387SOL    HW120707   4.220   5.442   3.525  2.3823  0.3798 -0.0466
 6387SOL    HW220708   4.162   5.573   3.477 -1.6507 -0.9811  0.7196
 6388SOL     OW20709   4.579   2.848   4.909  0.2546 -0.2685 -0.6004
 6388SOL    HW120710   4.585   2.856   5.004 -1.9495 -0.8920 -0.3393
 6388SOL    HW220711   4.628   2.923   4.875 -1.3805  1.7047  1.1213
 6389SOL     OW20712   1.708   1.241   3.707 -0.1857 -0.0277 -0.2982
 6389SOL    HW120713   1.672   1.326   3.680  0.6627  0.5541  0.3250
 6389SOL    HW220714   1.803   1.251   3.696 -0.0274 -0.6645  0.4164
 6390SOL     OW20715   5.618   0.796   4.324 -0.5730 -1.1237  0.3167
 6390SOL    HW120716   5.690   0.848   4.360 -2.0268  0.0655  1.6534
 6390SOL    HW220717   5.641   0.784   4.232  1.3721 -0.8878  0.7332
 6391SOL     OW20718   3.279   3.942   3.457 -0.3173  0.6328  0.2240
 6391SOL    HW120719   3.279   3.942   3.553  0.9354  1.4785  0.2499
 6391SOL    HW220720   3.295   3.851   3.433 -0.9890  0.3549  0.8102
 6392SOL     OW20721   5.475   6.133   1.975 -0.3434 -0.1136  0.0791
 6392SOL    HW120722   5.504   6.049   2.011 -0.2343 -0.8107 -1.5349
 6392SOL    HW220723   5.552   6.190   1.982 -0.0550 -0.5038  0.1197
 6393SOL     OW20724   0.799   4.085   4.525 -0.0849  0.5338 -0.0278
 6393SOL    HW120725   0.884   4.108   4.563  0.0833  1.1550 -0.7504
 6393SOL    HW220726   0.761   4.169   4.500 -1.7598  0.4653  1.9681
 6394SOL     OW20727   3.265   1.262   6.577 -0.7276  0.9510 -0.3696
 6394SOL    HW120728   3.304   1.178   6.555 -0.6013  0.7342  0.6721
 6394SOL    HW220729   3.228   1.293   6.494  3.1807  2.0424 -1.9575
 6395SOL     OW20730   3.750   6.108   3.227 -0.5228 -0.2436  0.0049
 6395SOL    HW120731   3.669   6.101   3.277  0.1280 -0.7698  1.0195
 6395SOL    HW220732   3.747   6.196   3.189 -0.5039  0.6309  1.9438
 6396SOL     OW20733   4.367   2.750   3.787 -0.1301  0.1248 -0.3286
 6396SOL    HW120734   4.382   2.725   3.878 -0.6554 -1.4733 -0.6466
 6396SOL    HW220735   4.437   2.706   3.738  0.3307  1.2154 -0.6899
 6397SOL     OW20736   1.338   4.309   0.001  0.2018  0.2493  0.0956
 6397SOL    HW120737   1.352   4.402  -0.016 -0.3148  0.6595  1.7237
 6397SOL    HW220738   1.399   4.288   0.071 -0.5214 -0.3462  0.5560
 6398SOL     OW20739   5.181   6.360   1.114  0.2944  0.5100  0.1396
 6398SOL    HW120740   5.173   6.428   1.047 -0.5097  0.7247  0.4466
 6398SOL    HW220741   5.197   6.409   1.195 -0.3726  0.3387  0.3758
 6399SOL     OW20742   6.674   4.334   2.623 -0.1472 -0.0550  0.1507
 6399SOL    HW120743   6.654   4.261   2.564  0.7882  0.1297 -0.4211
 6399SOL    HW220744   6.769   4.338   2.624 -0.1813  0.8838  0.5179
 6400SOL     OW20745   2.219   0.418   1.490  0.0296  0.5400 -0.0166
 6400SOL    HW120746   2.258   0.334   1.465 -0.3689  0.2798  0.2284
 6400SOL    HW220747   2.125   0.403   1.484 -0.2756 -0.3654  4.1372
 6401SOL     OW20748   0.144   5.757   0.577  0.1672 -0.3652 -0.5865
 6401SOL    HW120749   0.203   5.806   0.634  0.2222  0.8652 -1.6520
 6401SOL    HW220750   0.093   5.824   0.532 -1.9599 -1.3958  0.1647
 6402SOL     OW20751   3.140   5.510   2.242  0.0907 -0.8843  0.1467
 6402SOL    HW120752   3.205   5.580   2.236  1.0655 -1.8129 -0.5449
 6402SOL    HW220753   3.059   5.554   2.268  0.7861  0.4263  0.1593
 6403SOL     OW20754   6.625   5.506   1.124 -0.2874 -0.2649  0.3667
 6403SOL    HW120755   6.678   5.537   1.051 -1.6833  2.1707  0.2601
 6403SOL    HW220756   6.661   5.551   1.200 -0.2860 -0.9975  0.8072
 6404SOL     OW20757   4.342   2.699   1.690  0.0041 -0.3051 -0.1109
 6404SOL    HW120758   4.369   2.634   1.626  1.0647 -0.5823  0.6054
 6404SOL    HW220759   4.405   2.770   1.680 -1.3626  0.8352 -1.1554
 6405SOL     OW20760   0.395   1.850   0.140  0.0803  0.5244 -0.0799
 6405SOL    HW120761   0.340   1.820   0.211  1.3705  0.8134  1.0908
 6405SOL    HW220762   0.425   1.770   0.096 -0.6301  0.3433 -0.2412
 6406SOL     OW20763   5.431   6.765   0.347 -0.3039 -0.3835  0.1802
 6406SOL    HW120764   5.348   6.721   0.330 -0.7937  0.5422  0.1149
 6406SOL    HW220765   5.411   6.858   0.338  0.4841 -0.0917  1.2810
 6407SOL     OW20766   5.004   6.152   3.406  1.1529 -0.4316 -0.0230
 6407SOL    HW120767   5.091   6.117   3.391  1.7801  0.9743  0.1569
 6407SOL    HW220768   4.964   6.154   3.319  1.4146 -0.7966 -0.1538
 6408SOL     OW20769   4.609   4.681   1.122  0.0734 -0.1127 -0.2843
 6408SOL    HW120770   4.591   4.713   1.034  0.1808 -0.2012 -0.3388
 6408SOL    HW220771   4.545   4.611   1.136 -0.2501  0.2199 -0.1127
 6409SOL     OW20772   3.336   6.011   4.461  0.1058  0.0502  0.3945
 6409SOL    HW120773   3.415   6.020   4.408 -0.7749 -0.0224 -0.9709
 6409SOL    HW220774   3.367   5.974   4.544  1.2581 -1.8970 -0.8407
 6410SOL     OW20775   3.819   5.117   6.475  0.6185 -0.0300  0.0383
 6410SOL    HW120776   3.800   5.130   6.568 -0.0984  0.8358 -0.2139
 6410SOL    HW220777   3.746   5.065   6.442 -0.0399  1.1298 -0.3906
 6411SOL     OW20778   2.755   2.765   6.788  0.1578 -0.0530  0.0138
 6411SOL    HW120779   2.805   2.693   6.750  1.3943  0.9470 -0.3169
 6411SOL    HW220780   2.699   2.723   6.853 -1.9051 -1.8264 -2.6463
 6412SOL     OW20781   5.695   2.942   6.120 -0.5047  0.1586  0.0232
 6412SOL    HW120782   5.602   2.949   6.142 -0.7756  3.0192 -1.5219
 6412SOL    HW220783   5.698   2.876   6.050 -0.9911 -1.5682  1.5571
 6413SOL     OW20784   4.927   3.752   5.563 -0.4998  0.2490 -0.2466
 6413SOL    HW120785   4.955   3.674   5.610 -1.9005 -0.4612 -0.5181
 6413SOL    HW220786   4.982   3.755   5.486  0.3794  0.2192  0.3708
 6414SOL     OW20787   0.426   1.349   3.155 -0.0778 -0.6502  0.5438
 6414SOL    HW120788   0.375   1.395   3.088  0.9298 -1.7740 -1.0784
 6414SOL    HW220789   0.449   1.265   3.115  2.3964 -0.5023  1.4360
 6415SOL     OW20790   0.800   1.327   0.202  0.5849 -0.1426  0.1295
 6415SOL    HW120791   0.879   1.372   0.231  0.2894 -0.7879  2.1148
 6415SOL    HW220792   0.760   1.387   0.140  2.1845  0.5740 -0.2693
 6416SOL     OW20793   3.529   1.677   5.755  0.0896  0.2052  0.1050
 6416SOL    HW120794   3.440   1.651   5.732  0.2330  0.7701 -1.1614
 6416SOL    HW220795   3.532   1.771   5.738  0.6390  0.3954  1.1429
 6417SOL     OW20796   3.097   5.304   4.650  0.3853 -0.1028  0.4333
 6417SOL    HW120797   3.094   5.210   4.665 -0.6586 -0.0933  0.3726
 6417SOL    HW220798   3.101   5.342   4.738 -0.1623 -0.1883  0.5007
 6418SOL     OW20799   1.136   1.408   5.020 -0.0570  0.0328 -0.8723
 6418SOL    HW120800   1.056   1.429   5.068  0.6065  1.8059 -0.4450
 6418SOL    HW220801   1.135   1.468   4.946  0.4808 -0.5033 -1.3221
 6419SOL     OW20802   0.435   2.560   4.202  0.1049 -0.2301 -0.1968
 6419SOL    HW120803   0.343   2.583   4.215  0.2761  0.3927 -0.0702
 6419SOL    HW220804   0.433   2.468   4.176 -0.2969 -1.4497  3.6404
 6420SOL     OW20805   5.996   5.692   5.306  0.0884  0.8268 -0.0637
 6420SOL    HW120806   6.011   5.768   5.250  0.1485  1.6126  0.9907
 6420SOL    HW220807   6.077   5.640   5.299 -0.6324 -0.1277 -2.2131
 6421SOL     OW20808   6.197   0.645   6.431 -0.0103  0.7239 -0.1309
 6421SOL    HW120809   6.135   0.719   6.436 -1.1231 -0.2153  0.4678
 6421SOL    HW220810   6.158   0.586   6.368 -1.7266 -1.5901  2.8342
 6422SOL     OW20811   2.498   0.408   6.319 -0.0776  0.1471 -0.0186
 6422SOL    HW120812   2.469   0.373   6.235 -1.1529  1.2815 -0.1412
 6422SOL    HW220813   2.508   0.502   6.304 -0.6568  0.4238  1.2115
 6423SOL     OW20814   3.986   1.074   6.439  0.2057 -0.6470  0.2975
 6423SOL    HW120815   3.979   1.125   6.359 -1.5468  0.0551  0.8460
 6423SOL    HW220816   4.067   1.105   6.480 -0.0762  0.6569 -0.0892
 6424SOL     OW20817   6.634   4.008   2.225 -0.3330  0.2152  0.1951
 6424SOL    HW120818   6.697   4.009   2.297 -0.0738  0.5637 -0.0303
 6424SOL    HW220819   6.632   4.099   2.194 -0.5163  0.0906 -0.1687
 6425SOL     OW20820   2.673   0.832   1.755  0.3747  0.2407 -0.3821
 6425SOL    HW120821   2.614   0.799   1.823  0.4517 -1.6812 -1.1881
 6425SOL    HW220822   2.749   0.774   1.759 -0.1264 -0.7053 -2.8748
 6426SOL     OW20823   3.806   5.641   2.501  0.2392 -0.4790  0.6685
 6426SOL    HW120824   3.745   5.715   2.491 -0.1121 -0.8973 -0.3929
 6426SOL    HW220825   3.893   5.681   2.501  0.0382 -0.0329  0.4940
 6427SOL     OW20826   6.648   0.813   4.109  0.2850  0.4917  0.2455
 6427SOL    HW120827   6.678   0.903   4.112 -0.1106  0.6192  0.4885
 6427SOL    HW220828   6.633   0.790   4.201 -2.2631  1.0892  0.0363
 6428SOL     OW20829   1.056   6.347   6.342  0.6138 -0.5056 -0.0599
 6428SOL    HW120830   1.000   6.353   6.419  0.3051 -0.4876 -0.2825
 6428SOL    HW220831   1.031   6.264   6.301  0.6515 -0.4320 -0.2341
 6429SOL     OW20832   2.652   5.626   0.871  0.0743  0.2086 -0.4350
 6429SOL    HW120833   2.603   5.544   0.867  0.5788 -0.0783 -0.7545
 6429SOL    HW220834   2.682   5.633   0.961  1.1049 -0.5932 -0.6978
 6430SOL     OW20835   3.906   1.821   4.889  0.0688 -0.1486  0.4146
 6430SOL    HW120836   3.923   1.747   4.830  1.8734 -1.2560  2.2153
 6430SOL    HW220837   3.927   1.898   4.837 -0.7135 -0.9181 -1.1363
 6431SOL     OW20838   0.134   5.577   4.405  0.3421 -0.3135  0.1580
 6431SOL    HW120839   0.193   5.553   4.476 -0.5650  2.2336  1.9418
 6431SOL    HW220840   0.049   5.541   4.431 -0.1618  1.2698  0.8522
 6432SOL     OW20841   3.253   1.943   4.066 -0.3738 -0.3346 -0.5071
 6432SOL    HW120842   3.261   1.879   3.996  0.5456  0.5951 -1.2825
 6432SOL    HW220843   3.243   2.027   4.022 -3.0598 -0.0432  0.4796
 6433SOL     OW20844   2.098   0.377   2.938 -1.1708 -0.0706 -0.3802
 6433SOL    HW120845   2.139   0.414   3.016 -0.9863  1.5658 -1.2071
 6433SOL    HW220846   2.004   0.377   2.958 -1.1912  1.0617 -0.4307
 6434SOL     OW20847   1.175   4.142   6.421  0.0755  0.0331 -0.5981
 6434SOL    HW120848   1.133   4.132   6.336  1.3742  1.6320 -1.4897
 6434SOL    HW220849   1.255   4.091   6.415  0.0288 -0.0920 -0.2141
 6435SOL     OW20850   5.369   4.239   1.453 -0.1381 -0.1016 -0.7534
 6435SOL    HW120851   5.400   4.156   1.488  0.6058  1.0405  1.5050
 6435SOL    HW220852   5.420   4.252   1.373  2.4543 -0.1918  0.7460
 6436SOL     OW20853   5.444   3.078   0.328  0.0302 -0.1770 -0.3745
 6436SOL    HW120854   5.432   3.133   0.250 -0.0773  0.9810  0.4228
 6436SOL    HW220855   5.356   3.063   0.361  0.1775  1.4882  0.9179
 6437SOL     OW20856   5.105   3.236   3.793 -0.2718  0.0458  0.2628
 6437SOL    HW120857   5.134   3.266   3.707  0.6485  0.0525  0.5681
 6437SOL    HW220858   5.153   3.154   3.807 -1.1156 -0.4419  0.3742
 6438SOL     OW20859   1.756   1.344   1.018 -0.3659 -0.5374  0.1789
 6438SOL    HW120860   1.812   1.297   0.957  0.7776 -1.1237  1.5982
 6438SOL    HW220861   1.802   1.336   1.102 -1.5039  0.8467  0.9648
 6439SOL     OW20862   2.318   1.463   4.184 -0.2018 -0.3746  0.8399
 6439SOL    HW120863   2.295   1.516   4.108  2.3171 -0.5664 -0.1710
 6439SOL    HW220864   2.321   1.525   4.257  0.5619  0.4962  0.1034
 6440SOL     OW20865   6.280   0.847   3.760  0.3351 -0.1871 -0.1285
 6440SOL    HW120866   6.332   0.912   3.807  2.0429  0.4112 -2.6332
 6440SOL    HW220867   6.201   0.836   3.813  0.7266  2.7062  1.2383
 6441SOL     OW20868   2.283   1.882   5.602 -0.1614 -0.2109  0.0340
 6441SOL    HW120869   2.368   1.882   5.647 -0.4536 -0.7191  0.6056
 6441SOL    HW220870   2.265   1.975   5.586 -0.0254 -0.0133  0.9306
 6442SOL     OW20871   2.630   3.831   3.323 -0.9576 -0.5645  0.0195
 6442SOL    HW120872   2.664   3.787   3.401  0.2020  0.8791  0.3827
 6442SOL    HW220873   2.707   3.871   3.282 -1.4834 -1.5408 -2.0726
 6443SOL     OW20874   4.155   5.390   2.755  0.1143  0.3682  0.2426
 6443SOL    HW120875   4.244   5.422   2.739  0.4757 -0.5839  0.3069
 6443SOL    HW220876   4.110   5.399   2.670 -0.0320  1.7403  0.4394
 6444SOL     OW20877   1.636   3.011   5.356 -0.8564  0.1170 -0.3851
 6444SOL    HW120878   1.710   3.068   5.375  0.0628 -0.8365 -1.0242
 6444SOL    HW220879   1.632   2.951   5.431 -0.6383 -0.1773 -0.6080
 6445SOL     OW20880   4.459   3.438   1.938  0.6572 -0.2521  0.5160
 6445SOL    HW120881   4.473   3.494   2.014  0.9921 -0.1607  0.3887
 6445SOL    HW220882   4.519   3.472   1.872 -0.4077  0.3536 -0.1612
 6446SOL     OW20883   3.199   6.144   3.657 -0.2352  0.2960 -0.6558
 6446SOL    HW120884   3.252   6.123   3.580  1.3156  1.7469 -0.0455
 6446SOL    HW220885   3.209   6.069   3.715 -1.0560 -0.6126 -1.6566
 6447SOL     OW20886   4.643   1.707   0.733  0.6389  1.4504 -0.0369
 6447SOL    HW120887   4.653   1.647   0.807 -0.3709  1.5597  0.2002
 6447SOL    HW220888   4.690   1.664   0.661 -0.8984 -0.1599 -0.1553
 6448SOL     OW20889   0.298   5.185   1.433  0.1780  0.1643 -0.3050
 6448SOL    HW120890   0.212   5.184   1.390 -0.2826 -0.6064  0.6116
 6448SOL    HW220891   0.287   5.243   1.508  0.7809  0.9367 -0.7929
 6449SOL     OW20892   0.616   3.384   6.501 -0.5723 -0.1777  0.0141
 6449SOL    HW120893   0.650   3.366   6.414 -0.1920 -1.5545  0.4121
 6449SOL    HW220894   0.570   3.303   6.526 -2.5963  0.9746  0.2277
 6450SOL     OW20895   4.327   1.139   5.428  0.2484  0.4031  0.1200
 6450SOL    HW120896   4.416   1.105   5.417  0.4720  1.0447 -0.0832
 6450SOL    HW220897   4.334   1.231   5.405 -0.7043  0.2257 -0.9425
 6451SOL     OW20898   6.772   2.516   0.108 -0.0564  0.1914  0.0912
 6451SOL    HW120899   6.768   2.499   0.014  0.1740  3.6231 -0.6741
 6451SOL    HW220900   6.690   2.479   0.142 -0.2030 -1.0081 -1.4461
 6452SOL     OW20901   5.524   3.083   0.607 -0.0303 -0.1549 -0.8017
 6452SOL    HW120902   5.518   3.079   0.511 -2.0247  2.5476 -0.9079
 6452SOL    HW220903   5.437   3.055   0.637  0.8082 -1.6907  0.3097
 6453SOL     OW20904   1.535   4.599   6.080  0.3491  0.4346 -0.6315
 6453SOL    HW120905   1.601   4.626   6.143  0.2895  1.6908 -1.0778
 6453SOL    HW220906   1.584   4.551   6.013  0.8116  1.2836 -0.9156
 6454SOL     OW20907   6.795   3.059   1.821  0.0941 -0.0633 -0.0878
 6454SOL    HW120908   6.726   3.023   1.765 -0.0230 -0.1028  0.0808
 6454SOL    HW220909   6.768   3.037   1.910 -0.0060  0.4922  0.0199
 6455SOL     OW20910   1.116   6.674   0.953 -0.1962 -0.2210  0.0124
 6455SOL    HW120911   1.196   6.722   0.977 -0.0273 -0.7751  0.5845
 6455SOL    HW220912   1.069   6.664   1.036 -1.3520  0.9565 -0.4707
 6456SOL     OW20913   3.976   6.531   4.716  0.0943 -0.0743 -0.2160
 6456SOL    HW120914   4.032   6.506   4.643 -1.0176 -1.1356 -0.7403
 6456SOL    HW220915   4.035   6.574   4.778  1.3455 -0.5353 -1.0478
 6457SOL     OW20916   3.286   5.925   6.269 -0.4096 -0.0183  0.1140
 6457SOL    HW120917   3.310   5.901   6.359  0.3608  0.9722  0.1941
 6457SOL    HW220918   3.292   6.020   6.267 -1.6459  0.0659 -0.6683
 6458SOL     OW20919   6.113   2.860   1.405 -0.0803  0.1020 -0.1991
 6458SOL    HW120920   6.089   2.804   1.331  1.0242  0.7348 -1.0636
 6458SOL    HW220921   6.051   2.933   1.400  0.5654  0.6133 -1.0905
 6459SOL     OW20922   5.349   1.301   2.616  0.1456  0.2838 -0.4296
 6459SOL    HW120923   5.424   1.243   2.625  0.4995  0.0517 -3.5290
 6459SOL    HW220924   5.344   1.319   2.522 -2.5173  1.8678 -0.1031
 6460SOL     OW20925   3.654   1.090   0.773  0.3939  0.6039  0.4158
 6460SOL    HW120926   3.608   1.068   0.853 -0.1399 -0.1734 -0.0872
 6460SOL    HW220927   3.695   1.008   0.745  0.3050  0.7822 -0.2735
 6461SOL     OW20928   5.385   0.965   0.650  0.4640  0.2159  0.0355
 6461SOL    HW120929   5.381   0.991   0.742 -0.1597  0.2048  0.0160
 6461SOL    HW220930   5.309   1.007   0.610 -1.2350 -2.4539  0.2065
 6462SOL     OW20931   4.458   2.882   6.002  0.3546  0.4468  0.0908
 6462SOL    HW120932   4.542   2.871   6.047  0.5716 -0.2348 -0.4504
 6462SOL    HW220933   4.442   2.796   5.962 -0.4716  0.6552 -0.0281
 6463SOL     OW20934   2.374   3.538   3.230 -0.1730  0.1326  0.3008
 6463SOL    HW120935   2.361   3.615   3.285 -1.2715 -1.4249  2.3557
 6463SOL    HW220936   2.454   3.498   3.264  0.2613  0.2030 -0.6039
 6464SOL     OW20937   6.285   1.880   0.276 -0.3245 -0.1337  0.4208
 6464SOL    HW120938   6.310   1.971   0.294 -1.2150 -0.0235  1.1344
 6464SOL    HW220939   6.303   1.869   0.182  0.4670  0.5505  0.4828
 6465SOL     OW20940   4.149   4.175   2.728 -0.1998  0.0619 -0.2881
 6465SOL    HW120941   4.209   4.100   2.724 -0.4193 -0.1647  0.5770
 6465SOL    HW220942   4.206   4.251   2.739  0.0781  0.1311 -1.9574
 6466SOL     OW20943   3.527   4.494   5.065 -0.0840 -0.4817 -0.1879
 6466SOL    HW120944   3.525   4.410   5.112 -0.3493 -0.4716 -0.1817
 6466SOL    HW220945   3.569   4.473   4.982 -0.2571 -0.6450 -0.2345
 6467SOL     OW20946   4.992   5.261   4.301 -0.2747 -0.5909  0.0847
 6467SOL    HW120947   5.031   5.345   4.325 -0.4190  0.6387 -3.4371
 6467SOL    HW220948   4.924   5.247   4.368 -0.0045  1.8881  1.0012
 6468SOL     OW20949   5.132   4.032   2.043  0.1592  0.6240  0.6567
 6468SOL    HW120950   5.187   4.097   2.000 -0.4411  0.8396  0.1981
 6468SOL    HW220951   5.177   3.949   2.030 -0.4756  0.5388 -1.2148
 6469SOL     OW20952   0.373   0.437   5.579 -0.1211 -0.2976  0.2212
 6469SOL    HW120953   0.349   0.427   5.671  2.5217  0.3078  1.0541
 6469SOL    HW220954   0.415   0.354   5.556  0.4131  0.0416 -0.0329
 6470SOL     OW20955   4.185   0.372   5.748  0.0657  0.4847 -0.2961
 6470SOL    HW120956   4.231   0.361   5.831  1.6066  1.7814 -0.9293
 6470SOL    HW220957   4.096   0.342   5.767  0.7525 -0.6789  1.3894
 6471SOL     OW20958   3.136   6.341   1.458 -0.5232  0.2421  0.5663
 6471SOL    HW120959   3.146   6.246   1.448 -1.7386  0.2033 -0.4097
 6471SOL    HW220960   3.226   6.373   1.464 -0.0904 -1.1100  2.4546
 6472SOL     OW20961   5.772   0.783   2.332 -0.0392 -0.1308 -0.2098
 6472SOL    HW120962   5.820   0.782   2.250  0.2963  0.6517 -0.0374
 6472SOL    HW220963   5.729   0.869   2.333  0.0640 -0.0801  0.4805
 6473SOL     OW20964   5.580   3.952   1.311 -0.7027 -0.0511 -0.3277
 6473SOL    HW120965   5.560   4.012   1.383 -0.8982  0.2816 -0.6540
 6473SOL    HW220966   5.635   4.003   1.252 -0.6407 -0.2834 -0.4703
 6474SOL     OW20967   2.195   0.245   1.059 -0.4160  0.1234 -0.3946
 6474SOL    HW120968   2.242   0.213   1.137 -1.8225  0.4969  0.6467
 6474SOL    HW220969   2.179   0.167   1.006 -0.2570 -0.2825  0.1465
 6475SOL     OW20970   0.134   3.930   6.059 -0.4763  0.1206 -0.0411
 6475SOL    HW120971   0.069   3.995   6.085  0.2808  0.9504 -0.1961
 6475SOL    HW220972   0.218   3.977   6.061  0.1701 -1.0115  0.4823
 6476SOL     OW20973   3.694   2.124   2.247 -0.8120 -0.0056  0.0225
 6476SOL    HW120974   3.653   2.086   2.170 -0.2396  0.5773 -0.5762
 6476SOL    HW220975   3.788   2.121   2.229 -0.5488 -1.4471  1.4294
 6477SOL     OW20976   2.221   5.850   4.908  0.6087  0.3985  0.2240
 6477SOL    HW120977   2.286   5.832   4.976 -0.7380 -1.0718  1.1822
 6477SOL    HW220978   2.242   5.789   4.838  0.8876  0.6541  0.0817
 6478SOL     OW20979   0.349   2.682   0.504 -0.2961 -0.0832 -0.1851
 6478SOL    HW120980   0.287   2.663   0.575  1.2093 -3.9616  0.3147
 6478SOL    HW220981   0.294   2.712   0.432 -2.5854 -1.6095  0.8129
 6479SOL     OW20982   5.189   0.489   0.867  0.4118 -0.0521 -0.0852
 6479SOL    HW120983   5.170   0.572   0.821  1.1777 -0.3951 -1.0686
 6479SOL    HW220984   5.225   0.433   0.799  0.4292 -1.0127  0.7064
 6480SOL     OW20985   2.398   5.890   1.356  0.0065 -0.4777  0.1723
 6480SOL    HW120986   2.433   5.954   1.294  1.1284 -2.1989 -1.0500
 6480SOL    HW220987   2.459   5.892   1.430  0.9841 -1.2732 -0.5911
 6481SOL     OW20988   4.276   2.701   3.502 -0.0241 -0.2818  0.6303
 6481SOL    HW120989   4.341   2.685   3.571 -0.2863  0.0135  0.9506
 6481SOL    HW220990   4.282   2.795   3.485  1.3975 -0.6421 -1.1275
 6482SOL     OW20991   2.590   1.483   3.379 -0.4942 -0.2827  0.0179
 6482SOL    HW120992   2.585   1.569   3.338  1.6096 -0.4885 -0.7928
 6482SOL    HW220993   2.640   1.430   3.317 -1.2985 -1.9637  0.7412
 6483SOL     OW20994   0.091   1.379   0.651 -0.3135  0.1705 -0.6479
 6483SOL    HW120995   0.055   1.326   0.722  1.0576 -0.7191 -0.5810
 6483SOL    HW220996   0.100   1.466   0.689 -0.4996 -0.0678 -0.0447
 6484SOL     OW20997   1.931   0.266   5.498 -0.1527 -0.1095  0.3877
 6484SOL    HW120998   1.868   0.263   5.426  0.1142  0.0596  0.1444
 6484SOL    HW220999   1.987   0.189   5.484  1.3641  1.1563 -0.9482
 6485SOL     OW21000   3.748   0.335   0.179  0.1067  0.1872 -0.2366
 6485SOL    HW121001   3.777   0.320   0.268 -1.0072  0.1964  0.1398
 6485SOL    HW221002   3.688   0.409   0.185 -1.2115 -0.8041 -0.7344
 6486SOL     OW21003   4.940   1.022   1.118 -0.2154  0.1865 -0.0833
 6486SOL    HW121004   5.001   1.011   1.190 -1.6501  0.3964  1.2186
 6486SOL    HW221005   4.899   0.936   1.108 -0.5569  0.3518 -0.1355
 6487SOL     OW21006   3.182   3.523   6.570  0.0936  0.3845 -0.0226
 6487SOL    HW121007   3.112   3.466   6.600  1.4482 -0.2601  2.1512
 6487SOL    HW221008   3.263   3.479   6.597  1.3998  1.1106 -2.4014
 6488SOL     OW21009   3.031   3.329   2.552  0.3071  0.0022  0.9853
 6488SOL    HW121010   3.009   3.246   2.509 -1.8156 -0.1300  2.2134
 6488SOL    HW221011   3.122   3.317   2.582  0.3727 -1.4882  0.3017
 6489SOL     OW21012   3.475   3.618   0.745 -0.0777 -0.5034 -0.3168
 6489SOL    HW121013   3.441   3.563   0.674  2.0746 -0.6581 -1.3231
 6489SOL    HW221014   3.551   3.662   0.706  0.3444  0.4777  1.5128
 6490SOL     OW21015   6.376   3.196   2.957 -0.8149  0.0000 -0.0427
 6490SOL    HW121016   6.327   3.121   2.992  0.3532 -0.6826  0.1857
 6490SOL    HW221017   6.332   3.216   2.874 -0.9330 -1.1720 -0.2852
 6491SOL     OW21018   4.442   1.711   1.023 -0.3508 -0.0943 -0.8730
 6491SOL    HW121019   4.405   1.668   1.101  0.2303  1.0303  0.0623
 6491SOL    HW221020   4.533   1.682   1.021  0.3482  1.7672  0.3666
 6492SOL     OW21021   2.897   1.343   5.069  0.4723  0.4529  0.9517
 6492SOL    HW121022   2.883   1.413   5.133 -2.2806  1.3214 -0.4430
 6492SOL    HW221023   2.897   1.387   4.984 -1.0016 -1.1662  0.0452
 6493SOL     OW21024   2.278   5.181   4.268  0.0081  0.3741  0.3687
 6493SOL    HW121025   2.296   5.172   4.362  0.0373 -0.6224  0.2824
 6493SOL    HW221026   2.222   5.258   4.261 -0.0018  0.4529  1.2074
 6494SOL     OW21027   5.614   6.300   3.736 -0.0271 -0.4148 -0.2762
 6494SOL    HW121028   5.567   6.373   3.776 -1.5070 -1.3468 -0.2520
 6494SOL    HW221029   5.547   6.252   3.687  1.1638 -1.0340 -1.3575
 6495SOL     OW21030   0.288   2.175   3.943  0.3273  0.5569  0.5565
 6495SOL    HW121031   0.331   2.209   4.021 -1.5311  1.1478  1.3959
 6495SOL    HW221032   0.235   2.248   3.911  0.5524  0.1198 -0.8898
 6496SOL     OW21033   0.347   6.284   2.654  0.3995  0.0044  0.0549
 6496SOL    HW121034   0.343   6.317   2.564  0.2048  1.3002  0.5132
 6496SOL    HW221035   0.382   6.357   2.704 -0.9380 -0.1461  1.2751
 6497SOL     OW21036   4.495   5.071   3.924  0.4262  0.5484  0.6080
 6497SOL    HW121037   4.402   5.071   3.901  0.3425 -1.7154  0.6954
 6497SOL    HW221038   4.541   5.060   3.841  0.4756 -0.5667  0.7667
 6498SOL     OW21039   3.150   1.787   5.519  0.5667  0.3123  0.7293
 6498SOL    HW121040   3.115   1.821   5.602  1.4032  1.0656  0.7869
 6498SOL    HW221041   3.193   1.862   5.479 -1.0923  0.3345 -1.1085
 6499SOL     OW21042   2.270   3.716   0.324  0.1142 -0.6194  0.4937
 6499SOL    HW121043   2.268   3.788   0.262 -1.1028 -0.2092  0.9764
 6499SOL    HW221044   2.180   3.685   0.328  0.6750 -2.4144  0.0275
 6500SOL     OW21045   4.535   1.487   3.532  0.1271 -0.4541 -0.2969
 6500SOL    HW121046   4.610   1.434   3.557  0.2914  0.0194  0.2156
 6500SOL    HW221047   4.560   1.526   3.448  0.1712 -0.8469 -0.4687
 6501SOL     OW21048   1.439   5.607   2.468 -0.2113  0.0752  0.2935
 6501SOL    HW121049   1.524   5.651   2.462 -0.1758  0.0929  0.8229
 6501SOL    HW221050   1.405   5.609   2.379 -0.1558  1.0770  0.2796
 6502SOL     OW21051   5.171   2.641   1.759 -0.0843 -0.3919 -1.1105
 6502SOL    HW121052   5.121   2.604   1.831  1.6111 -0.5190  0.0654
 6502SOL    HW221053   5.158   2.736   1.767 -0.8569 -0.4720 -1.3835
 6503SOL     OW21054   4.541   3.586   5.481  0.1407 -0.0887 -0.0039
 6503SOL    HW121055   4.522   3.493   5.466 -1.3323  0.2519 -0.3647
 6503SOL    HW221056   4.457   3.625   5.502  0.6294  1.2998 -0.4997
 6504SOL     OW21057   2.549   0.621   5.445  0.1019  0.0102  0.0034
 6504SOL    HW121058   2.463   0.660   5.430 -0.5754 -1.4902 -0.2277
 6504SOL    HW221059   2.552   0.603   5.539 -0.1491 -0.5960 -0.0984
 6505SOL     OW21060   4.969   5.811   4.127 -0.3577  0.1211 -0.1091
 6505SOL    HW121061   4.879   5.811   4.092 -0.5568 -1.8350  0.2940
 6505SOL    HW221062   4.959   5.784   4.218  0.7767 -2.0508 -0.5795
 6506SOL     OW21063   3.351   1.894   4.446  0.5820  0.5411  0.0463
 6506SOL    HW121064   3.277   1.868   4.391  0.1389  1.2774  0.2847
 6506SOL    HW221065   3.388   1.971   4.402 -0.0299  1.3899  0.9858
 6507SOL     OW21066   2.932   2.064   0.758 -0.2582 -0.9839 -0.1763
 6507SOL    HW121067   2.910   2.003   0.687 -0.7880 -1.2376  0.2048
 6507SOL    HW221068   2.891   2.027   0.836  0.1079 -0.5696  0.2201
 6508SOL     OW21069   4.170   6.791   6.510 -0.0086  0.5603  0.4080
 6508SOL    HW121070   4.115   6.869   6.502 -0.2081  0.3980  0.1805
 6508SOL    HW221071   4.159   6.763   6.601  0.3183  0.9845  0.5796
 6509SOL     OW21072   3.561   4.946   4.837 -0.3568 -0.1393 -0.2402
 6509SOL    HW121073   3.511   4.870   4.808 -1.8891  0.5388  0.4871
 6509SOL    HW221074   3.583   4.927   4.928 -0.0067 -0.0671 -0.3071
 6510SOL     OW21075   0.676   3.922   6.020  0.5131  0.1072  0.1443
 6510SOL    HW121076   0.650   3.948   6.108 -1.1148  0.5529 -0.4272
 6510SOL    HW221077   0.697   3.829   6.027 -1.0923 -0.2333  0.7248
 6511SOL     OW21078   6.656   1.885   4.425 -0.0749 -0.2370 -0.0621
 6511SOL    HW121079   6.623   1.974   4.420  1.0651  0.3073  1.4435
 6511SOL    HW221080   6.752   1.894   4.427  0.0579 -1.3073  1.9965
 6512SOL     OW21081   3.532   6.629   0.233 -0.1824 -0.2010 -1.0855
 6512SOL    HW121082   3.596   6.579   0.284  1.7610  1.9450 -1.2564
 6512SOL    HW221083   3.491   6.687   0.297 -0.2396  0.0946 -1.3895
 6513SOL     OW21084   1.506   2.472   0.908 -0.1257  0.2656 -0.3115
 6513SOL    HW121085   1.590   2.484   0.865 -0.2100  0.2866 -0.4717
 6513SOL    HW221086   1.485   2.380   0.896 -0.2013  0.2955 -0.4129
 6514SOL     OW21087   6.246   6.351   4.677 -0.8822 -0.9323  0.0393
 6514SOL    HW121088   6.230   6.342   4.583 -2.8931 -2.1803  0.4416
 6514SOL    HW221089   6.289   6.270   4.703 -0.5351 -0.6889  0.2337
 6515SOL     OW21090   1.468   5.212   3.028 -0.4677  0.1026 -0.2779
 6515SOL    HW121091   1.513   5.275   3.084  1.8294 -0.4908 -1.3714
 6515SOL    HW221092   1.497   5.232   2.939 -0.4081 -1.8741 -0.7565
 6516SOL     OW21093   3.713   0.281   6.291 -0.3651  0.0985  0.6630
 6516SOL    HW121094   3.627   0.244   6.274  0.3620 -1.3275 -0.1422
 6516SOL    HW221095   3.699   0.376   6.290 -1.7575 -0.0804 -0.4026
 6517SOL     OW21096   2.487   1.111   5.985 -0.1583  0.0827  0.3433
 6517SOL    HW121097   2.395   1.085   5.989  0.0556 -0.7980 -0.2705
 6517SOL    HW221098   2.484   1.207   5.989 -1.1725  0.1216 -0.8484
 6518SOL     OW21099   4.420   6.101   5.915  0.1580  0.1851 -0.3083
 6518SOL    HW121100   4.508   6.111   5.878  0.6045 -0.5445  0.5198
 6518SOL    HW221101   4.434   6.056   5.998 -0.6124  3.0421  1.5438
 6519SOL     OW21102   5.918   6.133   0.895  0.1573 -0.4528 -0.9400
 6519SOL    HW121103   5.931   6.199   0.963 -0.9022 -2.1154  1.0064
 6519SOL    HW221104   5.984   6.066   0.914 -0.0399 -0.8654 -1.6611
 6520SOL     OW21105   2.041   3.207   0.667  0.6856  0.5615  0.3664
 6520SOL    HW121106   2.089   3.201   0.749 -0.8398  1.1336  1.3429
 6520SOL    HW221107   1.957   3.247   0.691  0.1866  0.7005 -1.4605
 6521SOL     OW21108   4.062   5.408   0.468 -0.6713  0.2871  0.8024
 6521SOL    HW121109   4.116   5.343   0.422 -2.2121 -1.2086  0.9748
 6521SOL    HW221110   4.088   5.492   0.430  2.2529 -0.2362  1.4072
 6522SOL     OW21111   4.161   5.599   0.275 -0.2619  0.2834 -0.5490
 6522SOL    HW121112   4.214   5.678   0.291 -0.9506  1.1016 -2.0909
 6522SOL    HW221113   4.218   5.543   0.221  1.3750 -1.6853  2.8980
 6523SOL     OW21114   4.864   2.960   1.077  0.7524  0.0362 -0.1070
 6523SOL    HW121115   4.884   2.872   1.044  0.3845 -0.8388  1.8565
 6523SOL    HW221116   4.935   2.981   1.137  0.4309  0.7391  0.0433
 6524SOL     OW21117   2.056   3.750   2.192 -0.8899  0.3756 -0.4234
 6524SOL    HW121118   2.076   3.800   2.271  1.0420 -0.6112 -0.2259
 6524SOL    HW221119   2.140   3.738   2.149 -1.8749  0.7191 -2.5678
 6525SOL     OW21120   2.529   2.953   0.239 -0.1374 -0.4168 -0.0062
 6525SOL    HW121121   2.490   2.964   0.326  0.1866  1.8580 -0.0703
 6525SOL    HW221122   2.456   2.926   0.183 -1.6582  2.9786  0.0400
 6526SOL     OW21123   3.393   5.320   4.589  0.5682 -0.2070  0.2835
 6526SOL    HW121124   3.336   5.244   4.595 -0.7061  0.5393 -1.5298
 6526SOL    HW221125   3.370   5.374   4.665  0.3524 -0.8821  0.7047
 6527SOL     OW21126   1.234   4.303   2.260 -0.2925 -0.1279 -0.0113
 6527SOL    HW121127   1.225   4.344   2.346  0.4676  2.0865 -0.9169
 6527SOL    HW221128   1.295   4.359   2.213 -0.2141 -1.6267 -1.8150
 6528SOL     OW21129   2.120   2.896   3.592 -0.2881 -0.3286  0.5943
 6528SOL    HW121130   2.058   2.859   3.655 -0.4692  1.3526  1.4410
 6528SOL    HW221131   2.180   2.823   3.572 -0.2969 -0.9482  2.6258
 6529SOL     OW21132   2.631   5.717   5.328  0.2962  0.2816  0.6881
 6529SOL    HW121133   2.683   5.787   5.289  0.8050  0.4361  1.6088
 6529SOL    HW221134   2.608   5.749   5.415  0.5487 -0.6862  1.1275
 6530SOL     OW21135   1.454   5.592   3.578  0.4200 -0.0249  0.7261
 6530SOL    HW121136   1.398   5.562   3.506  0.2257 -0.3510  1.0133
 6530SOL    HW221137   1.422   5.680   3.598  0.9979  0.3913 -0.1237
 6531SOL     OW21138   2.083   4.905   6.591  0.4119 -0.1096 -0.0515
 6531SOL    HW121139   2.056   4.953   6.668 -0.1670  1.8684 -1.4115
 6531SOL    HW221140   2.005   4.858   6.563  0.2929  0.1074 -0.0856
 6532SOL     OW21141   5.574   0.416   2.111  0.2067  0.2155 -0.1693
 6532SOL    HW121142   5.483   0.390   2.093  0.2123 -0.3777  0.5603
 6532SOL    HW221143   5.626   0.353   2.061  0.2148 -0.8894  1.1543
 6533SOL     OW21144   3.402   5.923   3.514  0.1233 -0.4649  0.1591
 6533SOL    HW121145   3.321   5.874   3.526 -0.6326  0.1963 -1.7689
 6533SOL    HW221146   3.468   5.874   3.563 -1.2290 -1.6046  0.8974
 6534SOL     OW21147   2.436   2.539   0.010 -0.1926 -0.0136  0.0025
 6534SOL    HW121148   2.369   2.549   0.078  2.0832  2.2786  2.0824
 6534SOL    HW221149   2.517   2.523   0.058  0.9569 -2.3412 -2.4175
 6535SOL     OW21150   3.490   3.968   5.862 -0.1034  0.4109  0.4956
 6535SOL    HW121151   3.462   3.999   5.776 -1.4904  2.2110  1.5351
 6535SOL    HW221152   3.514   3.877   5.847 -1.3053  0.3602 -1.5951
 6536SOL     OW21153   5.767   4.804   0.244  0.3591 -0.3696  0.4284
 6536SOL    HW121154   5.855   4.787   0.212  0.4766 -0.4536  0.8023
 6536SOL    HW221155   5.712   4.800   0.165  0.5547 -1.2211  0.3344
 6537SOL     OW21156   3.187   3.037   3.565 -0.8017  1.0453 -0.8213
 6537SOL    HW121157   3.257   3.027   3.630 -2.0016 -0.8676  0.2593
 6537SOL    HW221158   3.128   3.102   3.604 -0.1213  2.0096 -1.3409
 6538SOL     OW21159   3.880   0.208   1.290 -0.4680 -0.3923  0.0130
 6538SOL    HW121160   3.961   0.210   1.240 -0.0626 -0.4165  0.6600
 6538SOL    HW221161   3.837   0.291   1.270  1.0289  0.8916  1.8034
 6539SOL     OW21162   2.203   2.282   2.545  0.0406 -0.5447 -0.6692
 6539SOL    HW121163   2.203   2.253   2.636 -1.3788  0.2287 -0.3999
 6539SOL    HW221164   2.296   2.285   2.521  0.5663  0.8804  1.2887
 6540SOL     OW21165   6.085   5.263   5.178  0.2089 -0.3465  0.2299
 6540SOL    HW121166   6.094   5.195   5.111  1.9714 -1.0101  1.0961
 6540SOL    HW221167   6.009   5.314   5.149 -0.9186 -2.4052 -0.6749
 6541SOL     OW21168   3.770   2.226   4.170 -0.0086 -0.1144  0.4225
 6541SOL    HW121169   3.773   2.166   4.245 -0.2069 -1.6467 -0.7546
 6541SOL    HW221170   3.677   2.246   4.160 -0.2715 -1.6956 -0.7273
 6542SOL     OW21171   2.608   1.341   0.169 -0.2618 -0.0076 -0.2646
 6542SOL    HW121172   2.555   1.421   0.163  0.3363  0.2988 -2.3624
 6542SOL    HW221173   2.551   1.278   0.213 -1.7833  0.7948 -1.0075
 6543SOL     OW21174   6.317   6.584   6.456 -0.2442  0.0314 -1.0153
 6543SOL    HW121175   6.244   6.552   6.403 -0.5492 -0.0578 -0.5410
 6543SOL    HW221176   6.345   6.664   6.412 -0.5451  0.0013 -1.2670
 6544SOL     OW21177   4.863   0.648   2.790 -0.3541  0.0728  1.0321
 6544SOL    HW121178   4.776   0.632   2.828 -0.5379 -2.6100 -0.3317
 6544SOL    HW221179   4.915   0.572   2.815  1.7408  1.7070  1.9604
 6545SOL     OW21180   2.318   4.897   6.011  0.1949 -0.0166  0.5434
 6545SOL    HW121181   2.231   4.923   6.042  0.2825 -0.5019  1.2262
 6545SOL    HW221182   2.378   4.958   6.054  0.2766 -0.3871  0.9677
 6546SOL     OW21183   5.986   3.766   0.166  0.8644 -0.0432 -0.0277
 6546SOL    HW121184   5.965   3.704   0.097  1.6086 -0.6439  0.2792
 6546SOL    HW221185   6.066   3.732   0.206  1.1672  0.9871  0.2873
 6547SOL     OW21186   0.612   0.011   6.280  0.0098  0.0643  0.0980
 6547SOL    HW121187   0.652   0.092   6.250  0.3054 -0.3269 -0.5839
 6547SOL    HW221188   0.633   0.007   6.373  0.6299  0.4039 -0.0213
 6548SOL     OW21189   6.300   4.769   5.122 -0.5357 -0.1960  0.2353
 6548SOL    HW121190   6.287   4.703   5.054 -0.8345  0.7424 -0.6500
 6548SOL    HW221191   6.393   4.763   5.144 -0.6460 -1.1841  0.4731
 6549SOL     OW21192   3.550   1.105   4.003 -0.5374 -0.2682 -0.4827
 6549SOL    HW121193   3.543   1.099   4.098  1.0753  1.1636 -0.2296
 6549SOL    HW221194   3.642   1.085   3.984 -0.4871  0.8850 -1.5787
 6550SOL     OW21195   4.373   1.446   2.666  0.2488 -0.3058 -0.7993
 6550SOL    HW121196   4.449   1.485   2.709  0.6187 -0.6365 -1.1382
 6550SOL    HW221197   4.357   1.365   2.713  0.2724 -0.3644 -0.8905
 6551SOL     OW21198   1.237   5.673   4.154  0.1602 -0.0523  0.1247
 6551SOL    HW121199   1.197   5.739   4.210 -0.7490 -1.0226  0.6488
 6551SOL    HW221200   1.266   5.722   4.077 -1.8874  0.7374 -0.2089
 6552SOL     OW21201   2.871   3.561   1.032  0.6035 -0.1739  0.3855
 6552SOL    HW121202   2.934   3.512   0.979 -1.3571 -1.3365 -1.0251
 6552SOL    HW221203   2.788   3.551   0.985 -0.5289  1.8276  1.8076
 6553SOL     OW21204   5.000   4.703   0.832 -0.0581  0.6412 -0.0115
 6553SOL    HW121205   4.941   4.648   0.778 -0.3140 -0.1417  1.0343
 6553SOL    HW221206   4.954   4.786   0.839 -0.6075  0.3444  0.0131
 6554SOL     OW21207   4.797   2.704   6.572 -0.2768 -0.3021  0.2996
 6554SOL    HW121208   4.794   2.623   6.522 -2.4732  0.6871 -1.3729
 6554SOL    HW221209   4.738   2.690   6.646 -1.3808  0.0181 -0.4939
 6555SOL     OW21210   0.192   1.120   1.805 -0.5599 -0.3481  0.6741
 6555SOL    HW121211   0.119   1.129   1.867 -0.3528  1.2819  0.7248
 6555SOL    HW221212   0.270   1.145   1.855 -0.4347  1.3980 -0.2791
 6556SOL     OW21213   2.036   0.932   5.656  0.2207  0.5877 -0.4375
 6556SOL    HW121214   2.007   0.891   5.738 -2.0921  1.3242 -0.8151
 6556SOL    HW221215   1.994   0.881   5.587 -0.5585  1.9391 -1.0081
 6557SOL     OW21216   4.723   6.576   1.154 -0.0895 -0.9325  0.1509
 6557SOL    HW121217   4.728   6.613   1.066  0.1989 -0.9736  0.1488
 6557SOL    HW221218   4.756   6.645   1.211 -1.7682 -0.3020  0.4079
 6558SOL     OW21219   1.937   4.922   3.186 -0.0583 -0.4895 -0.0195
 6558SOL    HW121220   1.920   4.988   3.254  1.7311  1.5306 -1.4196
 6558SOL    HW221221   2.013   4.873   3.219 -0.9594 -1.4716  0.6938
 6559SOL     OW21222   2.387   3.087   6.638 -0.0739  0.8049 -0.4678
 6559SOL    HW121223   2.473   3.047   6.625 -0.2103  0.7163 -1.1394
 6559SOL    HW221224   2.398   3.145   6.713  0.8554  1.6098 -1.2082
 6560SOL     OW21225   1.333   0.848   3.565  0.7108  0.0940 -0.1254
 6560SOL    HW121226   1.281   0.769   3.583 -0.3637  0.5596 -1.0711
 6560SOL    HW221227   1.373   0.831   3.480 -0.5093  1.0278 -0.9236
 6561SOL     OW21228   5.152   5.164   2.489 -0.6361 -0.0549 -0.3843
 6561SOL    HW121229   5.070   5.206   2.462 -0.8765 -0.2862 -0.0260
 6561SOL    HW221230   5.205   5.161   2.409 -2.0177 -2.3477 -1.3079
 6562SOL     OW21231   0.294   3.407   5.566 -0.0740  0.0096  0.0198
 6562SOL    HW121232   0.284   3.312   5.576  0.9242  0.1498  5.1569
 6562SOL    HW221233   0.212   3.435   5.526 -1.2127 -2.8305  0.1107
 6563SOL     OW21234   2.557   2.152   3.686  0.1618  0.3665 -0.2125
 6563SOL    HW121235   2.550   2.162   3.781  1.5122  0.7488 -0.1346
 6563SOL    HW221236   2.647   2.179   3.666 -0.0782  0.1868 -1.5864
 6564SOL     OW21237   4.477   2.092   3.367  0.7562 -0.0833  0.6807
 6564SOL    HW121238   4.483   2.055   3.279 -0.6721 -0.3837  0.6761
 6564SOL    HW221239   4.516   2.179   3.360 -1.5613  0.9228 -0.9042
 6565SOL     OW21240   4.202   0.856   1.828 -0.2293  0.0047  0.2511
 6565SOL    HW121241   4.119   0.812   1.810  0.8231 -2.7683  1.6709
 6565SOL    HW221242   4.260   0.827   1.758  0.8916 -2.2380  2.0054
 6566SOL     OW21243   6.750   5.627   3.130 -0.1326 -0.0262 -0.4159
 6566SOL    HW121244   6.724   5.641   3.221 -0.2590 -0.0786 -0.4427
 6566SOL    HW221245   6.789   5.539   3.130  0.2370  0.1357 -0.3364
 6567SOL     OW21246   5.443   4.702   1.425  0.3605  0.3406 -0.7552
 6567SOL    HW121247   5.420   4.719   1.334 -0.4353  0.8654 -0.4668
 6567SOL    HW221248   5.519   4.758   1.441 -0.3265  1.2890 -0.7183
 6568SOL     OW21249   1.854   1.691   0.920  0.0476  0.1075  0.1323
 6568SOL    HW121250   1.929   1.632   0.925  1.5528  1.9343  0.3089
 6568SOL    HW221251   1.845   1.712   0.827  1.3684  1.7796  0.3391
 6569SOL     OW21252   0.620   0.154   0.532  0.1526  0.4865 -0.0847
 6569SOL    HW121253   0.639   0.242   0.499  0.5915  0.9323  1.2977
 6569SOL    HW221254   0.636   0.160   0.626 -2.3501 -0.3917  0.4565
 6570SOL     OW21255   1.048   6.623   0.071  0.1969  0.4159 -0.4935
 6570SOL    HW121256   0.973   6.616   0.013 -2.1622 -0.0551  2.3505
 6570SOL    HW221257   1.061   6.534   0.104 -1.3919  1.2187  2.7752
 6571SOL     OW21258   0.869   1.201   3.529 -0.5086 -0.3466 -0.4536
 6571SOL    HW121259   0.918   1.122   3.550  1.9247  0.0951 -3.6641
 6571SOL    HW221260   0.811   1.175   3.458  0.8561  0.8063 -2.0655
 6572SOL     OW21261   0.306   0.791   0.579 -0.2227  0.0408 -0.0451
 6572SOL    HW121262   0.283   0.735   0.654  1.0478  1.5847  1.5845
 6572SOL    HW221263   0.255   0.871   0.593  2.7432  1.8412  1.3221
 6573SOL     OW21264   3.680   0.953   4.963  0.4670  0.0810  0.2341
 6573SOL    HW121265   3.686   1.048   4.954  2.9966 -0.2225 -3.8054
 6573SOL    HW221266   3.759   0.928   5.010 -0.1676 -0.0853  1.2400
 6574SOL     OW21267   0.125   3.208   2.935 -0.2933  0.5840  0.2772
 6574SOL    HW121268   0.051   3.153   2.959  0.4232 -0.2923  0.5241
 6574SOL    HW221269   0.097   3.297   2.957 -0.9292  0.1708  1.2006
 6575SOL     OW21270   2.171   0.458   5.549  0.0059 -0.0228 -0.4502
 6575SOL    HW121271   2.228   0.511   5.603 -0.7361  0.8634 -0.5119
 6575SOL    HW221272   2.114   0.412   5.611 -0.6117  0.7235 -0.4540
 6576SOL     OW21273   2.274   4.398   0.791  0.1605 -0.1631  0.3186
 6576SOL    HW121274   2.283   4.320   0.737 -0.7926 -1.0251  1.3506
 6576SOL    HW221275   2.340   4.387   0.860 -0.7620 -0.6511  1.1358
 6577SOL     OW21276   6.568   2.040   5.864 -0.0164 -0.3365 -0.3279
 6577SOL    HW121277   6.563   2.014   5.957  0.2342 -1.0609 -0.5075
 6577SOL    HW221278   6.643   2.098   5.860 -0.8664  0.8475  0.1712
 6578SOL     OW21279   0.906   3.244   2.734 -0.1875 -0.0796 -0.0385
 6578SOL    HW121280   0.881   3.304   2.804 -0.9839 -0.2182 -0.1934
 6578SOL    HW221281   0.895   3.295   2.654 -0.6468 -0.3573 -0.1549
 6579SOL     OW21282   2.167   4.276   2.529 -0.4421 -0.0547  0.3080
 6579SOL    HW121283   2.139   4.322   2.450 -0.7152  0.1627  0.5296
 6579SOL    HW221284   2.210   4.344   2.582 -1.5481  0.1371  0.9871
 6580SOL     OW21285   3.391   1.096   6.074  0.7797  0.1580 -0.0629
 6580SOL    HW121286   3.379   1.015   6.023 -0.1841  1.8693 -2.8057
 6580SOL    HW221287   3.311   1.103   6.126  0.6649 -0.4145 -0.1545
 6581SOL     OW21288   0.524   0.265   1.188 -0.2636 -0.1174 -0.6187
 6581SOL    HW121289   0.537   0.302   1.101  1.7269 -0.6817 -0.6094
 6581SOL    HW221290   0.536   0.170   1.175  0.4865 -0.1622  0.3256
 6582SOL     OW21291   5.174   3.143   0.342  0.2559 -0.0697  0.2843
 6582SOL    HW121292   5.139   3.054   0.345  0.1154 -0.0468 -0.4611
 6582SOL    HW221293   5.136   3.182   0.263  2.1925 -0.1591 -0.7547
 6583SOL     OW21294   3.596   5.496   3.361  0.0286  0.4643  0.2453
 6583SOL    HW121295   3.628   5.431   3.424  0.2224 -0.1740 -0.4985
 6583SOL    HW221296   3.593   5.578   3.411 -0.5416 -0.1732  1.2842
 6584SOL     OW21297   5.983   0.994   1.166 -0.0270 -0.1291 -0.4660
 6584SOL    HW121298   5.978   0.912   1.117 -0.6015 -0.3631 -0.0233
 6584SOL    HW221299   6.076   1.013   1.171  0.0923 -0.5681 -0.8750
 6585SOL     OW21300   3.638   4.458   4.834 -0.2043 -0.7234 -0.3325
 6585SOL    HW121301   3.640   4.516   4.758 -1.7864  0.3146  0.3475
 6585SOL    HW221302   3.725   4.418   4.837  0.2029 -0.0580 -2.1043
 6586SOL     OW21303   5.146   5.112   0.557  0.3331  0.2016  0.2355
 6586SOL    HW121304   5.133   5.091   0.650  1.6679 -0.9963  0.1810
 6586SOL    HW221305   5.113   5.036   0.510  2.8178 -0.7731 -0.0833
 6587SOL     OW21306   4.783   6.026   6.621 -0.1716  0.6647 -0.2858
 6587SOL    HW121307   4.697   5.990   6.642  0.5919 -0.3765  1.1933
 6587SOL    HW221308   4.781   6.115   6.656  0.5912 -0.5612  3.3084
 6588SOL     OW21309   2.863   1.383   2.370 -0.4000  0.7864 -0.1864
 6588SOL    HW121310   2.952   1.360   2.395 -0.4178  0.7294 -0.1758
 6588SOL    HW221311   2.809   1.313   2.406 -0.5870  1.4983  0.9527
 6589SOL     OW21312   0.880   2.718   2.281  0.1917  0.2714  0.0200
 6589SOL    HW121313   0.895   2.721   2.187  1.6354  0.1891  0.2193
 6589SOL    HW221314   0.963   2.748   2.319 -0.5266  0.7541  1.2544
 6590SOL     OW21315   1.537   1.253   0.443  0.4677 -0.2567 -0.2172
 6590SOL    HW121316   1.463   1.212   0.397 -0.6877  0.1780  1.1604
 6590SOL    HW221317   1.508   1.258   0.534  2.3749 -0.4092  0.4452
 6591SOL     OW21318   0.593   0.429   3.013 -0.1882 -0.0073 -0.4348
 6591SOL    HW121319   0.634   0.404   2.930 -0.2307  1.5617 -0.9729
 6591SOL    HW221320   0.569   0.521   3.000 -3.3040 -0.6435  0.0865
 6592SOL     OW21321   3.105   1.419   6.396 -0.1372 -0.3286 -0.7823
 6592SOL    HW121322   3.036   1.353   6.391  1.0223 -1.6866  0.1821
 6592SOL    HW221323   3.062   1.501   6.375 -2.1329 -1.0706  0.2014
 6593SOL     OW21324   4.372   0.264   4.545 -0.3610  0.2949 -0.2436
 6593SOL    HW121325   4.412   0.190   4.500 -2.3394  0.0319 -1.6737
 6593SOL    HW221326   4.344   0.228   4.630  0.0004 -0.1993 -0.3295
 6594SOL     OW21327   4.429   5.686   4.786 -0.2213  0.0500 -0.9674
 6594SOL    HW121328   4.359   5.750   4.794 -0.3940 -0.3289  1.5428
 6594SOL    HW221329   4.387   5.609   4.747 -0.7342  0.4763 -1.2644
 6595SOL     OW21330   6.601   0.394   3.116  0.3695 -0.3124  0.1373
 6595SOL    HW121331   6.603   0.489   3.103  2.2616 -0.2749  0.4267
 6595SOL    HW221332   6.510   0.370   3.101 -0.0098  1.4458 -0.6702
 6596SOL     OW21333   5.165   0.721   5.157 -0.0033  0.4841  0.0279
 6596SOL    HW121334   5.160   0.796   5.217  0.8509  0.0495  0.6625
 6596SOL    HW221335   5.103   0.658   5.193 -0.4805  0.7465 -0.3204
 6597SOL     OW21336   4.705   4.725   2.564 -0.3932  0.0161  0.0852
 6597SOL    HW121337   4.711   4.686   2.477  2.6334 -0.8962  0.5814
 6597SOL    HW221338   4.642   4.669   2.611 -1.9751  0.4562 -1.4106
 6598SOL     OW21339   4.097   2.958   1.940 -0.3914  0.2881 -0.6943
 6598SOL    HW121340   4.042   2.991   2.012  0.9038 -0.1976  0.5754
 6598SOL    HW221341   4.186   2.956   1.977  0.1791 -0.8276 -2.0323
 6599SOL     OW21342   3.463   3.617   1.529  0.0426  0.0795 -0.3596
 6599SOL    HW121343   3.462   3.544   1.590 -1.4058  0.0847 -0.3583
 6599SOL    HW221344   3.446   3.577   1.443  0.4928  0.2688 -0.5421
 6600SOL     OW21345   2.023   5.681   6.088 -0.2703 -0.4540 -0.1908
 6600SOL    HW121346   1.983   5.599   6.059 -1.3122 -0.3753  0.9651
 6600SOL    HW221347   1.964   5.714   6.155 -0.4838  1.8558 -1.4241
 6601SOL     OW21348   6.046   6.349   0.435 -0.0565 -0.1228 -0.3687
 6601SOL    HW121349   6.116   6.286   0.416 -0.3719 -0.9878  1.1373
 6601SOL    HW221350   5.997   6.308   0.506 -0.6526  1.5607  0.2193
 6602SOL     OW21351   4.284   4.397   2.789  0.3466 -0.7543  0.1576
 6602SOL    HW121352   4.275   4.423   2.697  0.3655 -1.3149 -0.0048
 6602SOL    HW221353   4.369   4.432   2.815 -0.0314  0.1390  0.2123
 6603SOL     OW21354   6.676   0.751   4.370  0.2763 -0.5622 -0.3624
 6603SOL    HW121355   6.588   0.750   4.407  0.3931 -0.3761 -0.0687
 6603SOL    HW221356   6.731   0.783   4.442  0.5721 -0.6152 -0.5639
 6604SOL     OW21357   4.307   0.409   1.549 -0.3718  0.1345  0.0686
 6604SOL    HW121358   4.269   0.483   1.503 -1.5978  0.5933  1.7099
 6604SOL    HW221359   4.262   0.332   1.513  0.3689  0.2331 -1.1078
 6605SOL     OW21360   0.269   3.256   4.258 -0.5884  0.3890 -0.5171
 6605SOL    HW121361   0.236   3.234   4.346  1.1590 -0.0950  0.0683
 6605SOL    HW221362   0.334   3.188   4.240  0.7016  1.7548 -1.2128
 6606SOL     OW21363   0.816   1.392   4.276 -0.4392  0.0490 -0.4711
 6606SOL    HW121364   0.734   1.431   4.306  0.8242  4.2445 -1.7038
 6606SOL    HW221365   0.801   1.373   4.183 -0.4276 -0.4486 -0.3706
 6607SOL     OW21366   1.993   5.634   3.313  0.2093 -0.5908 -0.1617
 6607SOL    HW121367   2.044   5.572   3.364 -1.2323 -1.0493  0.7703
 6607SOL    HW221368   2.021   5.720   3.345 -0.3699 -0.8609  1.1628
 6608SOL     OW21369   0.495   1.997   5.362  0.2174  0.9066  0.6373
 6608SOL    HW121370   0.572   2.051   5.378  1.5708 -0.8245  0.2642
 6608SOL    HW221371   0.488   1.942   5.440  1.9492 -1.8406 -0.9606
 6609SOL     OW21372   6.748   4.469   3.592  0.0223  0.3034  0.3568
 6609SOL    HW121373   6.683   4.421   3.643 -1.2099  1.0723 -0.4466
 6609SOL    HW221374   6.824   4.474   3.650 -0.9914  0.3176  1.7402
 6610SOL     OW21375   1.533   0.920   1.021  0.2597  0.1965 -0.1919
 6610SOL    HW121376   1.462   0.891   1.077  0.4093 -0.2606 -0.2403
 6610SOL    HW221377   1.536   1.015   1.033 -0.6186  0.2688 -0.5017
 6611SOL     OW21378   6.545   3.641   3.003 -0.3185 -0.4371 -0.7062
 6611SOL    HW121379   6.589   3.666   3.084 -0.7528  0.9998 -0.8742
 6611SOL    HW221380   6.561   3.548   2.994  1.6864 -0.1945 -0.1538
 6612SOL     OW21381   0.606   3.301   0.129 -0.0203  0.6229  0.4692
 6612SOL    HW121382   0.629   3.310   0.222  0.5355 -1.4291  0.5891
 6612SOL    HW221383   0.663   3.230   0.098 -0.0859  1.3777 -1.4944
 6613SOL     OW21384   4.155   4.708   6.773  0.1909 -0.1051 -0.0898
 6613SOL    HW121385   4.130   4.615   6.773 -0.7930  0.1473 -1.0075
 6613SOL    HW221386   4.217   4.716   6.701 -0.9302  0.2454 -1.0368
 6614SOL     OW21387   1.264   6.156   4.081 -0.1406 -0.5483 -0.2041
 6614SOL    HW121388   1.252   6.136   3.988  1.9344 -3.5148  0.0377
 6614SOL    HW221389   1.175   6.169   4.114 -0.9083  1.1567 -2.6337
 6615SOL     OW21390   5.384   5.111   1.055  0.2756  0.5751 -0.1252
 6615SOL    HW121391   5.363   5.036   1.000 -1.7017  0.5745  0.5595
 6615SOL    HW221392   5.406   5.180   0.993 -0.7640  0.2492 -0.8885
 6616SOL     OW21393   3.655   3.497   5.501 -0.2051 -0.1193 -0.2174
 6616SOL    HW121394   3.651   3.436   5.427 -0.9295  0.3355 -0.5693
 6616SOL    HW221395   3.571   3.487   5.545 -0.7453  1.3092 -0.8549
 6617SOL     OW21396   6.071   3.020   1.118 -0.5133  0.3854  0.3869
 6617SOL    HW121397   6.077   2.956   1.047  1.4751 -0.1325  0.9502
 6617SOL    HW221398   6.123   3.094   1.088  0.3216  0.1713  1.2489
 6618SOL     OW21399   0.947   6.615   4.775 -0.5137  0.4558  0.1102
 6618SOL    HW121400   1.017   6.671   4.741 -0.5134  0.7370  0.5647
 6618SOL    HW221401   0.972   6.598   4.865 -0.9751  0.4658  0.2417
 6619SOL     OW21402   3.048   5.983   5.502 -0.2767 -0.2581 -0.0320
 6619SOL    HW121403   3.057   5.895   5.466 -0.5401 -0.7718  1.1133
 6619SOL    HW221404   2.955   5.992   5.523 -0.3006  0.4011 -0.3932
 6620SOL     OW21405   4.121   4.609   4.456  0.3052 -0.1553 -0.0216
 6620SOL    HW121406   4.173   4.589   4.379  1.2207  1.3037  0.1870
 6620SOL    HW221407   4.100   4.523   4.494  1.4031 -0.8169 -0.8538
 6621SOL     OW21408   0.780   2.121   6.564  0.0927  0.3961  0.0400
 6621SOL    HW121409   0.741   2.120   6.652  0.4953 -0.3863  0.2160
 6621SOL    HW221410   0.874   2.121   6.581  0.1903  1.4248 -0.3916
 6622SOL     OW21411   5.715   5.458   5.115  0.3694  0.3531  0.2767
 6622SOL    HW121412   5.669   5.525   5.165  0.6790  1.0712 -0.3757
 6622SOL    HW221413   5.724   5.385   5.176  1.7995  1.6274  1.6996
 6623SOL     OW21414   3.887   4.826   3.682  0.8267  0.3846 -0.6717
 6623SOL    HW121415   3.954   4.759   3.669 -1.4537 -2.0029 -0.9032
 6623SOL    HW221416   3.878   4.868   3.597 -0.0364 -1.4225 -1.5421
 6624SOL     OW21417   4.899   0.824   4.178  0.1081  0.1568  0.0199
 6624SOL    HW121418   4.901   0.913   4.214 -1.9935  1.1667 -2.0817
 6624SOL    HW221419   4.819   0.786   4.212  0.2224 -0.3724 -0.2946
 6625SOL     OW21420   0.537   2.762   0.874  0.6510  0.6036  0.9579
 6625SOL    HW121421   0.622   2.741   0.913  0.0338  0.0900  2.0873
 6625SOL    HW221422   0.513   2.682   0.826  0.1391  0.1715  1.8994
 6626SOL     OW21423   4.171   5.274   3.066  0.0718  0.2442  0.9646
 6626SOL    HW121424   4.259   5.242   3.088  0.6430  1.8107  1.0348
 6626SOL    HW221425   4.141   5.318   3.145 -1.1421 -0.9767  1.2232
 6627SOL     OW21426   4.415   1.481   5.299 -0.4382  0.0796  0.2774
 6627SOL    HW121427   4.382   1.413   5.240 -1.7167 -0.1114  1.1670
 6627SOL    HW221428   4.494   1.443   5.338  1.1299  0.6575 -2.1152
 6628SOL     OW21429   0.414   6.470   1.506 -0.4491 -0.2748 -0.2062
 6628SOL    HW121430   0.502   6.440   1.529 -0.8932 -1.4513  0.0240
 6628SOL    HW221431   0.355   6.411   1.553 -1.3677  0.1141 -0.8359
 6629SOL     OW21432   6.014   6.058   6.285 -0.2004  0.1617  0.1268
 6629SOL    HW121433   6.001   6.029   6.376  0.5790  2.9340  1.2122
 6629SOL    HW221434   6.107   6.044   6.268 -0.1844  0.3738  0.0378
 6630SOL     OW21435   2.598   2.288   4.216 -0.7123  0.2943  0.0241
 6630SOL    HW121436   2.676   2.238   4.191 -0.5470 -0.0048  1.1214
 6630SOL    HW221437   2.632   2.374   4.241 -1.0511  1.2298 -2.4488
 6631SOL     OW21438   5.376   3.232   6.163 -0.0557 -0.0666 -0.4261
 6631SOL    HW121439   5.398   3.171   6.092 -0.4184 -4.2874  2.6805
 6631SOL    HW221440   5.460   3.251   6.204  0.0665  1.7868 -1.4318
 6632SOL     OW21441   0.029   0.837   4.569  0.3847 -0.0949  0.6387
 6632SOL    HW121442  -0.041   0.828   4.633  0.3919 -0.8941  0.5522
 6632SOL    HW221443   0.103   0.789   4.607  0.6802  0.1963  0.4412
 6633SOL     OW21444   4.839   5.043   3.922 -0.1028  0.2884  0.3884
 6633SOL    HW121445   4.823   5.087   4.005 -0.0954 -0.8589  1.0064
 6633SOL    HW221446   4.803   5.103   3.856 -0.1484  1.1827  1.2058
 6634SOL     OW21447   1.257   0.311   5.171  0.6594  0.5094 -0.3059
 6634SOL    HW121448   1.176   0.347   5.208  1.2749  1.6312  0.0047
 6634SOL    HW221449   1.230   0.230   5.128 -0.6316  0.8785 -0.2331
 6635SOL     OW21450   1.133   4.146   4.097 -0.2346  0.4062  0.2590
 6635SOL    HW121451   1.209   4.204   4.088 -1.3525  1.9602  0.4343
 6635SOL    HW221452   1.127   4.129   4.191  1.4121 -1.9248  0.0362
 6636SOL     OW21453   5.082   1.420   2.858  0.5103 -0.7340 -0.1558
 6636SOL    HW121454   5.052   1.507   2.884 -0.4989 -1.3275  0.7466
 6636SOL    HW221455   5.162   1.406   2.909  0.5785 -0.4084 -0.1702
 6637SOL     OW21456   6.019   1.728   6.403 -0.8027 -0.1667 -0.2251
 6637SOL    HW121457   6.067   1.698   6.480  1.2814  1.1091 -0.9512
 6637SOL    HW221458   5.995   1.648   6.357 -0.2977 -0.8785  0.7005
 6638SOL     OW21459   1.112   5.789   2.853 -0.3786 -0.5339  0.7029
 6638SOL    HW121460   1.094   5.874   2.893 -2.4759  0.4872 -2.1203
 6638SOL    HW221461   1.027   5.756   2.825  0.3946 -3.5213  1.4171
 6639SOL     OW21462   4.197   2.519   4.489  0.1816  0.2216 -0.0707
 6639SOL    HW121463   4.217   2.458   4.560 -0.8736 -0.3559 -0.2531
 6639SOL    HW221464   4.207   2.467   4.409 -1.0179  0.1852 -0.2133
 6640SOL     OW21465   1.569   0.015   5.966  0.2558  0.1490  0.1614
 6640SOL    HW121466   1.580   0.078   5.894 -1.7525  0.5571  0.1650
 6640SOL    HW221467   1.475   0.001   5.972  0.6023 -2.5297  0.4898
 6641SOL     OW21468   6.488   4.693   0.277 -0.4551 -0.2186 -0.1240
 6641SOL    HW121469   6.571   4.653   0.302 -0.7261 -1.1101 -0.6167
 6641SOL    HW221470   6.511   4.782   0.250  0.0555  0.2399  1.7078
 6642SOL     OW21471   0.224   6.800   1.910 -0.7126 -0.2662  0.0385
 6642SOL    HW121472   0.170   6.810   1.988  0.2994  0.4918  0.6618
 6642SOL    HW221473   0.210   6.881   1.860 -0.2181 -0.0822  0.1829
 6643SOL     OW21474   6.479   5.322   4.812 -0.5539 -0.5182 -0.2240
 6643SOL    HW121475   6.509   5.316   4.903 -0.9241 -0.3738 -0.0911
 6643SOL    HW221476   6.454   5.414   4.801 -0.0246 -0.4210 -0.6264
 6644SOL     OW21477   3.978   0.697   1.492 -1.0114 -0.3974  0.4927
 6644SOL    HW121478   3.976   0.790   1.517  0.1378 -0.7127  1.8721
 6644SOL    HW221479   4.045   0.692   1.424  0.5690 -0.5220  1.9872
 6645SOL     OW21480   3.988   6.043   1.858  0.1689 -0.0859  0.4481
 6645SOL    HW121481   4.050   6.111   1.886  0.3812 -0.7601  1.6813
 6645SOL    HW221482   4.013   6.025   1.768  0.6016  0.9271  0.3439
 6646SOL     OW21483   4.602   2.949   3.508  0.1706  0.4086  0.3507
 6646SOL    HW121484   4.610   2.965   3.414  1.9614  3.0590  0.8460
 6646SOL    HW221485   4.512   2.971   3.530 -0.1039  0.2901 -0.6347
 6647SOL     OW21486   1.089   0.578   4.181  0.0167  0.5441 -0.4541
 6647SOL    HW121487   1.033   0.595   4.256  0.6774  0.8418 -0.0170
 6647SOL    HW221488   1.049   0.626   4.109  1.2800  3.2369  0.5113
 6648SOL     OW21489   6.537   5.246   2.182  0.2235  0.2442  0.4580
 6648SOL    HW121490   6.568   5.328   2.221 -0.9674  0.1159  1.7752
 6648SOL    HW221491   6.569   5.178   2.241 -0.0891 -0.1112  0.2178
 6649SOL     OW21492   5.587   0.756   1.445 -0.4039 -0.2432  0.3623
 6649SOL    HW121493   5.537   0.838   1.452 -0.5742 -0.1650 -1.3623
 6649SOL    HW221494   5.604   0.731   1.535 -0.8921  1.3705  0.9440
 6650SOL     OW21495   0.301   4.026   2.157  0.1417  0.2390  0.2131
 6650SOL    HW121496   0.241   4.027   2.232 -1.2022  2.9458 -0.7921
 6650SOL    HW221497   0.388   4.041   2.195 -0.0027 -1.7718  1.4893
 6651SOL     OW21498   5.838   0.049   2.825 -0.1604 -0.3793 -0.1519
 6651SOL    HW121499   5.928   0.019   2.812 -0.1171 -0.3271  0.0360
 6651SOL    HW221500   5.794   0.029   2.742  0.3115  0.6391 -0.6703
 6652SOL     OW21501   5.394   3.550   3.110  0.3553 -0.0815 -0.8651
 6652SOL    HW121502   5.326   3.523   3.173  0.9604 -0.3977 -0.3386
 6652SOL    HW221503   5.439   3.469   3.088  0.7705  0.1784 -0.9724
 6653SOL     OW21504   3.878   0.706   3.305 -0.0310  0.4086 -0.0696
 6653SOL    HW121505   3.831   0.726   3.386  0.2772  0.8604  0.0044
 6653SOL    HW221506   3.810   0.702   3.238 -0.3357 -0.3890  0.2835
 6654SOL     OW21507   0.365   3.193   6.344  0.0073 -0.1440  0.2259
 6654SOL    HW121508   0.339   3.261   6.281  2.7941 -0.7230 -1.7212
 6654SOL    HW221509   0.352   3.111   6.297  0.7836 -0.6939  0.9562
 6655SOL     OW21510   2.013   0.884   5.068  0.6348  0.3906  0.2025
 6655SOL    HW121511   1.992   0.807   5.015  1.7377  0.0349  0.2435
 6655SOL    HW221512   2.037   0.951   5.004  1.1226  0.2310  0.2148
 6656SOL     OW21513   2.758   0.113   0.727 -0.3935 -0.5088 -0.4076
 6656SOL    HW121514   2.817   0.174   0.769  0.0562 -1.9497  1.1354
 6656SOL    HW221515   2.684   0.167   0.698 -0.2130  0.7031  1.2665
 6657SOL     OW21516   2.518   6.096   3.599 -0.2519 -0.4634 -0.4584
 6657SOL    HW121517   2.610   6.118   3.584 -0.3352 -0.7089 -1.4480
 6657SOL    HW221518   2.513   6.075   3.692  0.5612  0.1634 -0.2590
 6658SOL     OW21519   6.285   1.570   3.879 -0.2097  0.3229 -0.3155
 6658SOL    HW121520   6.326   1.496   3.923  0.6414  0.6515 -0.5392
 6658SOL    HW221521   6.323   1.647   3.920 -0.6609  0.6364 -0.4789
 6659SOL     OW21522   0.974   6.773   5.218 -0.2161  0.1529  0.2448
 6659SOL    HW121523   0.914   6.699   5.207 -0.7155  0.6058 -0.1660
 6659SOL    HW221524   0.973   6.791   5.312 -0.8737  0.2626  0.2239
 6660SOL     OW21525   5.324   2.609   3.350 -0.9892  0.8540  0.3728
 6660SOL    HW121526   5.341   2.536   3.409  2.2717  1.4002  0.2993
 6660SOL    HW221527   5.306   2.683   3.409 -0.4876  0.8015  0.5985
 6661SOL     OW21528   2.266   4.120   3.440 -0.0255  0.1604 -0.0927
 6661SOL    HW121529   2.348   4.087   3.477 -0.3524  1.4259  1.9155
 6661SOL    HW221530   2.280   4.120   3.346  1.6736 -1.1946  0.1210
 6662SOL     OW21531   5.719   3.115   1.246 -0.3689  0.0311 -0.5438
 6662SOL    HW121532   5.694   3.185   1.186 -2.9856 -0.3303  0.0214
 6662SOL    HW221533   5.716   3.035   1.194 -1.3479 -0.1245 -0.2614
 6663SOL     OW21534   5.354   6.027   2.445  0.6556 -0.1192  0.2906
 6663SOL    HW121535   5.394   6.110   2.470 -0.8902  0.8779 -0.4065
 6663SOL    HW221536   5.344   5.980   2.528 -0.3720  1.2783  1.0014
 6664SOL     OW21537   5.002   3.982   5.166  0.0674 -0.3601  0.6549
 6664SOL    HW121538   5.089   3.986   5.127  0.3225  1.9261  1.3406
 6664SOL    HW221539   5.002   3.901   5.218  0.5976 -2.1221 -1.8804
 6665SOL     OW21540   2.863   1.772   5.940  0.6231 -0.1654 -0.5039
 6665SOL    HW121541   2.827   1.832   6.005 -0.0183  0.5225 -1.4655
 6665SOL    HW221542   2.919   1.713   5.990  1.5205  1.4045  0.4562
 6666SOL     OW21543   5.546   6.649   4.134  0.1231 -0.1519 -0.9111
 6666SOL    HW121544   5.508   6.600   4.207 -4.4071 -1.7233 -3.9085
 6666SOL    HW221545   5.540   6.740   4.161 -1.3196 -0.6704  0.7289
 6667SOL     OW21546   5.593   6.708   5.417  0.1358  0.6358  0.1052
 6667SOL    HW121547   5.514   6.748   5.380  0.7244  0.2514 -1.6771
 6667SOL    HW221548   5.665   6.752   5.372  0.9680  0.9119  1.6356
 6668SOL     OW21549   0.483   5.917   6.131  0.4230  0.3960 -0.0211
 6668SOL    HW121550   0.552   5.982   6.135  0.2041  0.7070 -0.8944
 6668SOL    HW221551   0.410   5.962   6.089  0.0353 -0.2161 -0.0265
 6669SOL     OW21552   6.699   2.523   0.791 -0.2420  0.2696 -0.1944
 6669SOL    HW121553   6.674   2.603   0.838 -2.4549 -0.4302 -0.0974
 6669SOL    HW221554   6.769   2.485   0.845 -0.5444  1.1053  0.8188
 6670SOL     OW21555   3.878   2.403   0.776  0.0442  0.1376  0.0171
 6670SOL    HW121556   3.852   2.376   0.689  0.0426  1.4742 -0.4253
 6670SOL    HW221557   3.801   2.388   0.831  0.1205 -0.9196 -0.1516
 6671SOL     OW21558   6.282   5.132   2.438  0.1463 -0.2855 -0.3104
 6671SOL    HW121559   6.345   5.141   2.509 -0.6651  1.1682  0.2627
 6671SOL    HW221560   6.216   5.072   2.472  0.4459 -0.6517 -0.3614
 6672SOL     OW21561   0.304   1.197   0.615 -0.2925 -0.2058 -0.0202
 6672SOL    HW121562   0.223   1.248   0.611 -0.3530 -0.2815  0.2101
 6672SOL    HW221563   0.321   1.172   0.524 -1.0507 -1.0040  0.0354
 6673SOL     OW21564   1.879   5.491   0.835 -0.3031 -0.0329 -0.0562
 6673SOL    HW121565   1.930   5.424   0.880 -0.1935  0.5239  0.6767
 6673SOL    HW221566   1.810   5.515   0.898  0.4730  1.4994  0.2784
 6674SOL     OW21567   0.425   4.991   2.041  0.5790  0.4983 -0.2775
 6674SOL    HW121568   0.495   5.028   1.987  2.4565 -0.8468  1.1036
 6674SOL    HW221569   0.424   4.898   2.017 -1.8108  0.7315 -1.3403
 6675SOL     OW21570   2.518   1.671   1.556 -0.2520 -0.4440  0.2227
 6675SOL    HW121571   2.426   1.674   1.529  0.5115  0.2742 -2.5800
 6675SOL    HW221572   2.534   1.755   1.599 -0.6362 -0.0956 -0.3083
 6676SOL     OW21573   4.933   1.706   1.873 -0.4441 -0.3552  0.2312
 6676SOL    HW121574   4.859   1.740   1.923 -0.9412  1.1279 -1.3858
 6676SOL    HW221575   4.898   1.632   1.824 -0.6956 -0.0730 -0.0198
 6677SOL     OW21576   5.882   1.232   6.507  0.8116 -0.0251  0.0309
 6677SOL    HW121577   5.950   1.193   6.452  1.6434 -0.4183  1.2938
 6677SOL    HW221578   5.804   1.179   6.491  1.2647 -0.6527 -0.1378
 6678SOL     OW21579   3.003   3.202   3.664  0.0069 -0.1227 -0.4413
 6678SOL    HW121580   3.023   3.224   3.755  1.4528  3.8119 -1.5194
 6678SOL    HW221581   2.910   3.221   3.654 -0.2445 -0.9197  0.2539
 6679SOL     OW21582   6.544   3.215   3.657  0.5007 -0.2671 -0.4581
 6679SOL    HW121583   6.601   3.152   3.700  0.2189 -0.6256 -0.6032
 6679SOL    HW221584   6.590   3.239   3.577  1.7867  1.6162  0.7667
 6680SOL     OW21585   2.546   1.091   1.276  0.1259 -0.0104  1.0717
 6680SOL    HW121586   2.612   1.068   1.211 -0.3282 -1.3504  1.0543
 6680SOL    HW221587   2.581   1.059   1.359  0.7054  1.6997  1.5236
 6681SOL     OW21588   5.189   0.196   3.947  0.2043  0.3124  0.6412
 6681SOL    HW121589   5.211   0.159   4.032 -1.9808  0.4897  1.3609
 6681SOL    HW221590   5.114   0.144   3.917 -0.2883  1.4970 -0.2569
 6682SOL     OW21591   0.003   6.494   0.813 -0.6376 -0.4611  0.0643
 6682SOL    HW121592   0.061   6.479   0.888  1.0687 -0.4972 -1.1752
 6682SOL    HW221593  -0.020   6.406   0.783  1.0249 -0.5419 -1.1110
 6683SOL     OW21594   6.153   3.692   1.683 -0.0132  0.0109 -0.3964
 6683SOL    HW121595   6.193   3.765   1.636  0.0326  0.1519 -0.1385
 6683SOL    HW221596   6.197   3.615   1.648 -1.8349 -0.1626 -2.5786
 6684SOL     OW21597   0.025   6.396   4.368 -0.1971 -0.5425  0.2552
 6684SOL    HW121598  -0.048   6.429   4.421 -0.7256  1.4946 -1.5642
 6684SOL    HW221599   0.102   6.407   4.424 -1.1899 -2.8527  2.2647
 6685SOL     OW21600   2.081   4.097   6.228 -0.5476  0.0688 -0.1684
 6685SOL    HW121601   2.046   4.016   6.265 -1.1920 -0.1293 -1.1751
 6685SOL    HW221602   2.074   4.085   6.134  0.5197  0.7976 -0.3550
 6686SOL     OW21603   0.153   1.641   0.744 -0.1580  0.0854  0.3531
 6686SOL    HW121604   0.182   1.630   0.834 -1.1275 -1.3671  0.5328
 6686SOL    HW221605   0.112   1.727   0.742  1.5494  0.9439  0.7924
 6687SOL     OW21606   4.838   0.655   0.697  0.5296  0.3555  0.3251
 6687SOL    HW121607   4.789   0.734   0.677  1.5986  1.0428  0.3046
 6687SOL    HW221608   4.926   0.673   0.663  0.2866 -1.6792 -1.6346
 6688SOL     OW21609   2.299   0.420   1.758 -0.2866  0.0092 -0.5198
 6688SOL    HW121610   2.263   0.410   1.669 -0.5410  0.2248 -0.4411
 6688SOL    HW221611   2.351   0.341   1.771  0.4103  0.3350 -1.1690
 6689SOL     OW21612   2.443   4.915   3.551  0.2973  0.5464 -0.0592
 6689SOL    HW121613   2.416   5.007   3.555  1.1890  0.7855  1.3464
 6689SOL    HW221614   2.538   4.918   3.550  0.3410 -0.3666  0.5348
 6690SOL     OW21615   1.042   0.062   6.008  0.1991 -0.2769  0.0993
 6690SOL    HW121616   0.998   0.029   6.086  0.6738 -1.1510  0.0187
 6690SOL    HW221617   0.972   0.093   5.952 -0.1748  0.0082  0.7094
 6691SOL     OW21618   3.570   4.528   4.571  0.5003  0.6619 -0.0429
 6691SOL    HW121619   3.594   4.576   4.492 -1.8988 -1.5887 -2.3585
 6691SOL    HW221620   3.542   4.442   4.539 -2.1098  0.1460  3.0776
 6692SOL     OW21621   4.316   0.513   5.567  0.0129 -0.2150  0.3905
 6692SOL    HW121622   4.386   0.541   5.626  0.8395 -1.5131  0.0779
 6692SOL    HW221623   4.266   0.449   5.618 -0.1377 -0.2745  0.1709
 6693SOL     OW21624   1.752   4.696   6.466  0.6037 -0.0152 -0.0275
 6693SOL    HW121625   1.728   4.605   6.448  0.2276  0.1962 -0.5909
 6693SOL    HW221626   1.844   4.692   6.491  0.6488 -0.5221 -0.2742
 6694SOL     OW21627   6.242   5.504   3.059 -0.3125 -0.2992  0.2240
 6694SOL    HW121628   6.326   5.504   3.104 -0.9551  2.7219  1.6794
 6694SOL    HW221629   6.205   5.417   3.079  1.9580 -1.3071  0.4099
 6695SOL     OW21630   0.789   5.341   4.385  0.4360 -0.6822  0.3131
 6695SOL    HW121631   0.783   5.264   4.328 -0.3283 -0.7136  0.4243
 6695SOL    HW221632   0.699   5.356   4.414  0.2417  1.2500 -1.0477
 6696SOL     OW21633   0.761   5.805   1.174  0.1481  0.0039 -0.3870
 6696SOL    HW121634   0.760   5.852   1.258 -0.8400 -1.6253  0.5590
 6696SOL    HW221635   0.848   5.824   1.138  0.6771  0.5750  1.0966
 6697SOL     OW21636   2.284   0.831   5.175 -0.5159 -0.8603 -0.4240
 6697SOL    HW121637   2.213   0.889   5.149 -0.2070  0.2004  0.9888
 6697SOL    HW221638   2.355   0.850   5.113 -1.7055 -2.6426 -2.4849
 6698SOL     OW21639   0.231   5.013   1.110  0.9148 -0.3003 -0.1726
 6698SOL    HW121640   0.175   5.034   1.185 -0.4665  1.5008 -1.6150
 6698SOL    HW221641   0.254   5.098   1.072  1.4870 -1.1457 -1.8430
 6699SOL     OW21642   2.719   0.065   6.064  0.0463 -0.2271 -0.2393
 6699SOL    HW121643   2.704   0.157   6.087 -0.9538 -0.2544 -0.7181
 6699SOL    HW221644   2.814   0.055   6.066  0.2411  1.1088 -1.2634
 6700SOL     OW21645   5.778   3.744   3.551  0.1984 -1.1170 -0.1291
 6700SOL    HW121646   5.854   3.746   3.492  0.2284  0.8551 -0.1063
 6700SOL    HW221647   5.722   3.816   3.521 -0.2634 -0.6934  1.5979
 6701SOL     OW21648   0.564   6.169   5.090 -0.2509  0.1262 -0.9313
 6701SOL    HW121649   0.482   6.126   5.065 -0.1539 -0.4574 -0.2849
 6701SOL    HW221650   0.538   6.234   5.155 -0.1444 -0.4351 -0.3179
 6702SOL     OW21651   0.458   3.781   0.033 -0.6815 -0.0570  0.3385
 6702SOL    HW121652   0.507   3.699   0.043 -0.4660 -0.2291 -1.8193
 6702SOL    HW221653   0.507   3.831  -0.032  0.0453  2.5074  2.6664
 6703SOL     OW21654   5.631   1.319   6.735  0.4123  0.1454  0.5085
 6703SOL    HW121655   5.593   1.388   6.681 -2.3379 -1.8613 -0.3326
 6703SOL    HW221656   5.625   1.352   6.825  0.0726  1.3872  0.0402
 6704SOL     OW21657   4.115   3.597   0.479  0.1228 -0.1626 -0.3515
 6704SOL    HW121658   4.030   3.590   0.521 -1.1394 -1.2765 -2.8285
 6704SOL    HW221659   4.127   3.690   0.462 -0.7618 -0.0255 -0.2415
 6705SOL     OW21660   1.116   5.065   2.419 -0.3762  0.6895  0.5257
 6705SOL    HW121661   1.157   5.040   2.502 -0.5922 -0.1568  0.3877
 6705SOL    HW221662   1.026   5.087   2.442 -1.1482 -1.8565  0.2265
 6706SOL     OW21663   2.523   3.405   6.359 -0.2227 -0.1644 -0.2917
 6706SOL    HW121664   2.548   3.316   6.335 -0.6246 -0.3569 -0.0071
 6706SOL    HW221665   2.537   3.410   6.454  0.3349  0.2577 -0.3859
 6707SOL     OW21666   6.746   3.468   2.785 -0.2400 -0.0218  0.5745
 6707SOL    HW121667   6.835   3.502   2.773 -0.3119  0.2815  0.8751
 6707SOL    HW221668   6.696   3.505   2.712  0.1590 -1.2297 -0.3426
 6708SOL     OW21669   6.292   2.745   1.015 -0.5246  0.6194 -0.0780
 6708SOL    HW121670   6.355   2.787   1.074  1.7757 -1.9060 -0.5178
 6708SOL    HW221671   6.330   2.758   0.927 -0.3546 -1.2325 -0.3184
 6709SOL     OW21672   1.966   1.590   2.959 -0.1214 -0.6953 -0.5363
 6709SOL    HW121673   1.946   1.617   3.048  1.4830  0.6911 -0.5457
 6709SOL    HW221674   1.905   1.518   2.941 -1.5985  0.0895  1.0630
 6710SOL     OW21675   5.766   5.746   0.663 -0.6578 -0.2059  0.0235
 6710SOL    HW121676   5.828   5.682   0.698  0.2757  0.5195 -0.2696
 6710SOL    HW221677   5.762   5.815   0.729 -0.2850  0.2828 -0.4483
 6711SOL     OW21678   3.554   6.098   4.643 -0.3458 -0.1917  0.2117
 6711SOL    HW121679   3.563   6.180   4.692  0.9242 -0.3086  0.2142
 6711SOL    HW221680   3.636   6.091   4.594 -0.2870 -1.6562  0.4909
 6712SOL     OW21681   6.098   5.671   4.306 -0.5886 -0.1443 -0.1080
 6712SOL    HW121682   6.145   5.742   4.348  0.6895 -1.4562  0.7589
 6712SOL    HW221683   6.043   5.714   4.241  0.1961  1.6166  0.3429
 6713SOL     OW21684   3.936   1.080   3.355  0.4800  0.2679  0.2316
 6713SOL    HW121685   3.955   1.071   3.449  0.2380  0.4355  0.2972
 6713SOL    HW221686   3.853   1.127   3.352 -0.0801 -0.7262 -0.0502
 6714SOL     OW21687   3.006   5.128   0.903  0.4540  0.0598  0.4239
 6714SOL    HW121688   3.000   5.057   0.967  2.0819  0.7772  1.4228
 6714SOL    HW221689   3.053   5.198   0.948 -0.0142  1.3142 -0.9513
 6715SOL     OW21690   3.848   1.379   6.701  0.0423  0.3966  0.1109
 6715SOL    HW121691   3.795   1.361   6.778 -1.0507 -0.2300 -0.7693
 6715SOL    HW221692   3.820   1.315   6.636  0.7660  1.0681 -0.9020
 6716SOL     OW21693   4.174   4.245   4.332  0.1015  0.0108  0.2036
 6716SOL    HW121694   4.106   4.205   4.278  0.7672  0.3071 -0.8876
 6716SOL    HW221695   4.132   4.256   4.418 -1.1630  0.0208 -0.3811
 6717SOL     OW21696   3.787   3.540   0.811 -0.3934 -0.0210  0.2245
 6717SOL    HW121697   3.808   3.594   0.735  0.9369 -0.9258 -0.1025
 6717SOL    HW221698   3.750   3.601   0.875  0.8090  1.2384 -0.2201
 6718SOL     OW21699   0.007   5.117   6.269  0.3337  0.0461  0.2106
 6718SOL    HW121700  -0.002   5.210   6.292 -1.2105 -0.1084  0.3073
 6718SOL    HW221701   0.100   5.107   6.250  0.9586  1.1310  2.2940
 6719SOL     OW21702   0.412   4.218   0.704 -0.7357  0.4105  0.0405
 6719SOL    HW121703   0.386   4.131   0.675 -4.7313  0.7340  2.1008
 6719SOL    HW221704   0.420   4.211   0.799  2.5701  1.5681 -0.0086
 6720SOL     OW21705   3.472   2.910   3.110  0.5397 -0.6690  0.5885
 6720SOL    HW121706   3.458   2.992   3.064 -0.8323 -0.5092  1.2466
 6720SOL    HW221707   3.516   2.853   3.046  1.8316  0.6572  0.2425
 6721SOL     OW21708   2.535   2.166   1.294 -0.7582 -0.6297 -0.9320
 6721SOL    HW121709   2.606   2.220   1.258  0.3616 -2.2697 -1.2810
 6721SOL    HW221710   2.473   2.158   1.221 -0.4917 -0.5655 -1.1687
 6722SOL     OW21711   1.443   3.431   0.881 -0.2430 -0.2063 -0.3886
 6722SOL    HW121712   1.523   3.387   0.852  0.0175 -1.1371  1.5608
 6722SOL    HW221713   1.374   3.366   0.870 -0.4988  0.1125 -0.7285
 6723SOL     OW21714   3.010   5.885   0.119 -0.0645  0.2003 -0.4476
 6723SOL    HW121715   2.990   5.822   0.189 -0.2316  0.6077 -0.1202
 6723SOL    HW221716   3.084   5.846   0.072  1.5267  0.9336  1.3238
 6724SOL     OW21717   5.870   2.296   3.274  0.4529 -0.0488 -0.4797
 6724SOL    HW121718   5.814   2.221   3.253 -0.1495  0.6809 -1.5631
 6724SOL    HW221719   5.865   2.353   3.197  0.9523  1.0742  0.2816
 6725SOL     OW21720   5.092   3.269   6.171 -0.0632 -0.1619  0.0833
 6725SOL    HW121721   5.186   3.253   6.166 -0.2445 -1.0919 -0.8511
 6725SOL    HW221722   5.078   3.347   6.118  0.2793  0.4755  0.9217
 6726SOL     OW21723   4.502   2.384   0.407  0.1256 -0.3397  0.1215
 6726SOL    HW121724   4.582   2.347   0.444 -0.3949 -1.4920  0.1436
 6726SOL    HW221725   4.437   2.314   0.415 -1.2068  0.9382  1.1539
 6727SOL     OW21726   4.334   6.396   0.353  0.1187 -0.2086  0.7189
 6727SOL    HW121727   4.368   6.397   0.443 -0.8060  0.1154  1.0884
 6727SOL    HW221728   4.409   6.376   0.298  1.0478  1.1508  1.4257
 6728SOL     OW21729   5.371   4.907   3.972 -0.2935 -0.4017  0.3867
 6728SOL    HW121730   5.278   4.899   3.991 -0.1848 -0.3678  0.9431
 6728SOL    HW221731   5.415   4.875   4.051  0.1665 -0.4677  0.1089
 6729SOL     OW21732   2.603   4.057   4.535 -0.1499  0.5253  0.3823
 6729SOL    HW121733   2.619   3.988   4.471 -0.2643  0.6935  0.1716
 6729SOL    HW221734   2.644   4.135   4.497 -1.4928  0.9793 -0.1903
 6730SOL     OW21735   1.037   0.435   5.211  0.0463  0.0191 -0.1771
 6730SOL    HW121736   1.061   0.527   5.224 -0.1879  0.1585 -0.7149
 6730SOL    HW221737   0.982   0.435   5.133 -0.1903 -0.5442 -0.0145
 6731SOL     OW21738   3.971   3.771   5.141 -0.2376  0.1146 -0.2125
 6731SOL    HW121739   3.995   3.759   5.233  0.8493 -0.2609 -0.5306
 6731SOL    HW221740   4.053   3.796   5.098 -0.2328 -1.9382 -1.4881
 6732SOL     OW21741   0.981   1.691   5.893 -0.6104  1.0297 -0.4213
 6732SOL    HW121742   0.999   1.678   5.986  0.3634 -0.1293 -0.7499
 6732SOL    HW221743   1.060   1.661   5.848 -1.4187  0.6540 -1.6736
 6733SOL     OW21744   6.654   3.414   0.966 -0.1427  0.3386  0.1304
 6733SOL    HW121745   6.583   3.457   1.014  0.5829  1.3829  0.3128
 6733SOL    HW221746   6.725   3.478   0.968  2.0144 -1.8957  2.8129
 6734SOL     OW21747   5.454   4.869   4.247 -0.3688  0.4038 -0.0074
 6734SOL    HW121748   5.397   4.935   4.286 -1.5932 -1.0057  0.7103
 6734SOL    HW221749   5.480   4.813   4.320  0.3303 -0.1231 -0.6479
 6735SOL     OW21750   3.965   3.437   1.809  0.1752 -0.1971 -0.3455
 6735SOL    HW121751   3.912   3.386   1.870  1.2236 -0.3366  0.4898
 6735SOL    HW221752   3.933   3.527   1.817 -0.3899 -0.3917 -0.3825
 6736SOL     OW21753   5.702   1.041   3.041 -0.3542 -0.0588 -0.4312
 6736SOL    HW121754   5.639   0.974   3.067 -0.8014 -0.2450 -1.8897
 6736SOL    HW221755   5.787   1.006   3.068 -0.6762 -0.8046 -0.3631
 6737SOL     OW21756   6.554   2.388   3.571  0.0956 -0.3670  0.2801
 6737SOL    HW121757   6.473   2.399   3.522  0.3725 -0.0419 -0.1141
 6737SOL    HW221758   6.623   2.407   3.507  0.4742 -0.4740  0.6548
 6738SOL     OW21759   2.352   2.553   0.596  0.0233 -0.5547 -0.0906
 6738SOL    HW121760   2.409   2.527   0.523 -2.2388 -1.4662 -1.6708
 6738SOL    HW221761   2.303   2.628   0.562 -0.2600 -0.2516  0.9571
 6739SOL     OW21762   5.115   4.394   3.032  0.0598 -0.0454  0.0839
 6739SOL    HW121763   5.064   4.328   3.078  0.3017  0.2014  0.7257
 6739SOL    HW221764   5.069   4.476   3.050 -0.4486 -0.0758 -1.0137
 6740SOL     OW21765   4.291   3.620   1.455  0.2400 -0.5574 -0.5473
 6740SOL    HW121766   4.255   3.640   1.368 -0.8851 -0.9369 -0.1864
 6740SOL    HW221767   4.228   3.658   1.516  0.2298 -1.6039  0.1159
 6741SOL     OW21768   3.385   4.630   0.937  0.1824 -0.2508  0.4919
 6741SOL    HW121769   3.358   4.721   0.952 -1.0395 -0.5254  0.0860
 6741SOL    HW221770   3.348   4.582   1.011 -0.7284 -0.6821 -0.2231
 6742SOL     OW21771   5.358   4.247   5.918  0.3091  0.1278 -0.4879
 6742SOL    HW121772   5.364   4.237   5.823  0.5698  0.4248 -0.5034
 6742SOL    HW221773   5.273   4.289   5.932  0.9029  1.4743 -0.7083
 6743SOL     OW21774   2.600   6.499   2.353 -0.0967 -0.2578 -0.5140
 6743SOL    HW121775   2.616   6.534   2.441 -0.0765  2.5433 -1.5332
 6743SOL    HW221776   2.688   6.482   2.318 -0.0959 -1.0998 -0.1371
 6744SOL     OW21777   5.340   6.288   0.786  0.6619  0.3501 -0.6455
 6744SOL    HW121778   5.406   6.342   0.830  1.4617 -1.1165  0.0537
 6744SOL    HW221779   5.385   6.205   0.769 -0.6898 -0.3088 -1.1383
 6745SOL     OW21780   4.523   1.624   3.766  0.2115 -0.7893  0.1931
 6745SOL    HW121781   4.519   1.582   3.680  0.2772  1.1714 -0.8127
 6745SOL    HW221782   4.462   1.698   3.760  0.5292 -0.3616  1.7042
 6746SOL     OW21783   0.846   1.226   3.041 -0.2643 -0.4530 -0.0213
 6746SOL    HW121784   0.813   1.170   3.111 -0.2426 -1.2034 -0.5916
 6746SOL    HW221785   0.812   1.313   3.061 -0.3258 -0.6755  0.8677
 6747SOL     OW21786   6.313   4.122   3.428  0.6248  0.2709  0.4213
 6747SOL    HW121787   6.307   4.150   3.336 -1.9618  3.0934  1.2933
 6747SOL    HW221788   6.381   4.177   3.465  0.6924  0.1253  0.5135
 6748SOL     OW21789   4.879   2.147   2.624  0.3049 -0.2589  0.3677
 6748SOL    HW121790   4.840   2.134   2.711  1.6989 -0.1067  1.0418
 6748SOL    HW221791   4.826   2.092   2.566 -0.8442 -0.1236  1.2501
 6749SOL     OW21792   6.573   3.921   0.371  0.5150  0.1193 -0.4297
 6749SOL    HW121793   6.598   3.833   0.341 -2.8019 -0.2762 -2.5301
 6749SOL    HW221794   6.509   3.905   0.440  1.6876  0.9947  0.9119
 6750SOL     OW21795   0.698   6.662   0.165 -0.9308 -0.4149 -0.1129
 6750SOL    HW121796   0.619   6.661   0.110 -0.0718  0.7039 -1.4521
 6750SOL    HW221797   0.723   6.754   0.168  0.5338 -0.7873 -0.0499
 6751SOL     OW21798   5.577   6.332   6.647  0.3750  0.2792 -0.2377
 6751SOL    HW121799   5.597   6.358   6.737 -0.4641  0.2609 -0.0412
 6751SOL    HW221800   5.495   6.284   6.653  1.6178 -2.0632 -0.6591
 6752SOL     OW21801   2.092   0.776   2.832  0.3799 -0.3519 -0.4192
 6752SOL    HW121802   2.035   0.711   2.873  1.2312 -1.0403 -0.2831
 6752SOL    HW221803   2.092   0.752   2.739 -1.2793  1.0000 -0.8181
 6753SOL     OW21804   5.779   2.648   2.846  0.1633  0.0134 -0.0222
 6753SOL    HW121805   5.799   2.713   2.913  1.2562 -1.9408  1.6570
 6753SOL    HW221806   5.833   2.672   2.771  0.3608  1.1467  0.4691
 6754SOL     OW21807   2.614   0.292   0.961  0.2803  0.6711 -0.0638
 6754SOL    HW121808   2.631   0.279   0.868  0.3488 -0.5618  0.1037
 6754SOL    HW221809   2.698   0.321   0.997  0.6737 -0.3210 -0.1408
 6755SOL     OW21810   2.265   5.841   4.016 -0.0018 -0.0669  0.3192
 6755SOL    HW121811   2.322   5.879   3.949 -0.0265  0.7353  0.7494
 6755SOL    HW221812   2.324   5.787   4.070  0.5307  1.3952  1.2527
 6756SOL     OW21813   1.626   1.760   4.485 -0.3221  0.4752  0.1102
 6756SOL    HW121814   1.536   1.729   4.487  0.0503 -0.6235  1.4725
 6756SOL    HW221815   1.651   1.759   4.393 -1.1809 -0.7984 -0.1213
 6757SOL     OW21816   3.591   4.086   2.025  0.0652 -0.0275  0.4901
 6757SOL    HW121817   3.512   4.047   2.063  0.7936  0.5066  2.7127
 6757SOL    HW221818   3.601   4.169   2.072  2.1526 -0.2739  0.5751
 6758SOL     OW21819   3.663   0.538   4.224 -0.6894  0.5412 -0.0136
 6758SOL    HW121820   3.622   0.495   4.149  0.0971 -1.1328  0.4709
 6758SOL    HW221821   3.692   0.466   4.280  1.3338  1.6842  0.5054
 6759SOL     OW21822   4.698   4.386   5.072 -0.2402 -0.9152  0.6311
 6759SOL    HW121823   4.719   4.469   5.030 -1.2145 -0.8704  0.2143
 6759SOL    HW221824   4.774   4.368   5.128  1.1337 -1.0332 -1.1930
 6760SOL     OW21825   2.609   4.738   1.513  0.0026  0.0280  0.2458
 6760SOL    HW121826   2.581   4.823   1.480 -1.2424 -0.6564 -0.5046
 6760SOL    HW221827   2.663   4.760   1.590 -2.0458  1.4246  1.3800
 6761SOL     OW21828   1.985   1.002   1.128  0.0870  0.0354  0.4475
 6761SOL    HW121829   2.032   0.932   1.082 -0.7889  0.0171 -0.4490
 6761SOL    HW221830   1.906   0.960   1.162  0.5966  0.1109  1.7755
 6762SOL     OW21831   5.139   1.870   1.779 -0.5572  0.1259  0.3072
 6762SOL    HW121832   5.077   1.842   1.713 -0.6535 -0.4518  0.6299
 6762SOL    HW221833   5.092   1.861   1.862 -0.0207 -0.4195  0.5648
 6763SOL     OW21834   4.190   1.175   6.599 -0.3629  0.1888  1.1141
 6763SOL    HW121835   4.195   1.268   6.575 -0.1148  0.1692  1.0827
 6763SOL    HW221836   4.262   1.134   6.551 -2.1339 -0.5419 -1.1149
 6764SOL     OW21837   4.312   6.591   5.774  0.0036  0.2022 -0.8862
 6764SOL    HW121838   4.370   6.526   5.735 -1.6360 -2.1142  0.3033
 6764SOL    HW221839   4.249   6.612   5.705  0.0143 -0.1534 -1.0040
 6765SOL     OW21840   4.992   5.753   5.238 -0.0781 -0.4121  0.1078
 6765SOL    HW121841   4.934   5.811   5.189  0.4273 -0.0324 -0.0438
 6765SOL    HW221842   4.933   5.702   5.294 -0.6265 -0.5608 -0.5912
 6766SOL     OW21843   4.719   4.568   0.176 -0.0296  0.1091 -0.1287
 6766SOL    HW121844   4.722   4.641   0.238  1.2959  0.7761 -0.9257
 6766SOL    HW221845   4.729   4.490   0.230  1.0257  0.6759  0.5389
 6767SOL     OW21846   1.139   3.563   3.524  0.0882  0.2485 -0.0038
 6767SOL    HW121847   1.044   3.563   3.518 -0.0302  0.8111  1.4269
 6767SOL    HW221848   1.157   3.584   3.616  1.5808 -0.4250 -0.1086
 6768SOL     OW21849   2.512   3.595   1.274 -0.3908 -0.1277 -0.4143
 6768SOL    HW121850   2.452   3.561   1.340 -1.1377 -0.2634 -1.1510
 6768SOL    HW221851   2.588   3.626   1.324 -1.2675  0.4821  0.5653
 6769SOL     OW21852   6.509   0.905   0.649  0.0435 -0.4752 -0.5480
 6769SOL    HW121853   6.439   0.913   0.714  0.2346  1.0342 -0.4755
 6769SOL    HW221854   6.583   0.870   0.698 -0.3001 -0.9336 -0.3475
 6770SOL     OW21855   5.418   2.221   3.066 -0.4630  0.3910  0.7459
 6770SOL    HW121856   5.382   2.177   3.143  0.5621 -0.0673  0.9816
 6770SOL    HW221857   5.354   2.289   3.045 -1.5856 -0.5547  0.9856
 6771SOL     OW21858   4.064   0.934   5.320 -0.1825  0.5757 -0.6260
 6771SOL    HW121859   4.150   0.972   5.337 -0.7119  1.3503  0.4388
 6771SOL    HW221860   4.016   0.946   5.402 -0.3036 -2.7172 -0.0780
 6772SOL     OW21861   4.542   0.444   0.206 -0.1575  0.2817 -0.1049
 6772SOL    HW121862   4.538   0.504   0.131 -2.8282 -0.7790 -0.9424
 6772SOL    HW221863   4.605   0.377   0.181 -0.1058  0.6060 -0.8506
 6773SOL     OW21864   0.980   0.792   4.044  0.2986 -0.3958 -0.0927
 6773SOL    HW121865   0.895   0.815   4.006  0.8163  0.1303 -0.9690
 6773SOL    HW221866   0.982   0.837   4.128  0.2736  0.7296 -0.6803
 6774SOL     OW21867   2.012   6.284   4.559 -0.1201 -0.1256  0.0760
 6774SOL    HW121868   2.028   6.334   4.479 -0.5819  0.2616  0.2204
 6774SOL    HW221869   2.008   6.192   4.530  0.3581 -0.0453 -0.2448
 6775SOL     OW21870   4.011   2.443   2.070  0.3411  0.8352  0.1289
 6775SOL    HW121871   3.961   2.443   1.988  3.1870  0.9232 -1.7587
 6775SOL    HW221872   3.997   2.531   2.106  0.8621  1.6578 -1.5420
 6776SOL     OW21873   3.515   1.531   2.446 -0.2232  0.0047  0.1910
 6776SOL    HW121874   3.574   1.490   2.508  0.7446  0.1285 -0.6213
 6776SOL    HW221875   3.439   1.557   2.498 -0.7541 -2.4785  0.8137
 6777SOL     OW21876   0.986   4.936   0.263  0.2772  0.3738  0.6114
 6777SOL    HW121877   0.892   4.937   0.244  0.3490 -0.5079  0.1601
 6777SOL    HW221878   0.992   4.947   0.357 -0.2446  1.2306  0.5566
 6778SOL     OW21879   4.524   6.359   6.644 -0.3388  0.1036  0.8812
 6778SOL    HW121880   4.562   6.335   6.560  0.7476  0.6386  1.2003
 6778SOL    HW221881   4.448   6.413   6.621  0.4485  0.9825  0.2300
 6779SOL     OW21882   6.644   4.733   4.461 -0.2062 -0.5192  0.3882
 6779SOL    HW121883   6.578   4.709   4.396  0.2094 -0.4532 -0.0626
 6779SOL    HW221884   6.595   4.745   4.542 -0.4844 -2.6199  0.5925
 6780SOL     OW21885   3.390   3.696   4.880 -0.0899 -0.1108 -0.2788
 6780SOL    HW121886   3.452   3.754   4.835  1.7440 -1.3834  0.4677
 6780SOL    HW221887   3.319   3.682   4.817  1.1564  0.1742 -1.7985
 6781SOL     OW21888   2.712   2.905   3.106  0.4658  0.1391  0.1252
 6781SOL    HW121889   2.647   2.836   3.095  1.6993 -0.9056 -0.7995
 6781SOL    HW221890   2.710   2.954   3.024  1.9755 -0.9317 -0.6006
 6782SOL     OW21891   2.596   3.472   5.329  0.1346  0.0425 -0.0671
 6782SOL    HW121892   2.582   3.418   5.252 -0.0915  0.0515 -0.0320
 6782SOL    HW221893   2.541   3.433   5.397 -0.9673  1.0243 -0.3686
 6783SOL     OW21894   3.074   0.046   0.083 -0.1529 -0.1540 -0.0967
 6783SOL    HW121895   3.062   0.135   0.117 -2.1373 -0.1798 -0.6168
 6783SOL    HW221896   3.021  -0.009   0.140 -2.1602 -0.4197 -2.0914
 6784SOL     OW21897   5.207   6.541   5.470 -0.3909 -0.4884  0.0001
 6784SOL    HW121898   5.176   6.481   5.538  3.1505 -1.8463  0.6502
 6784SOL    HW221899   5.287   6.500   5.437  0.0055  1.9620 -2.4132
 6785SOL     OW21900   0.357   1.804   5.204 -0.4627  0.2816  0.1143
 6785SOL    HW121901   0.409   1.829   5.279  2.9064 -0.8549 -1.6230
 6785SOL    HW221902   0.375   1.871   5.138 -1.2157 -0.1413 -0.5465
 6786SOL     OW21903   3.393   3.363   4.241 -0.0421  0.2080 -0.3642
 6786SOL    HW121904   3.354   3.328   4.161  0.3034  0.6669 -0.7420
 6786SOL    HW221905   3.407   3.286   4.296  0.0807 -0.1639 -0.9044
 6787SOL     OW21906   3.082   4.517   6.504 -0.4981 -0.0690  0.5960
 6787SOL    HW121907   3.025   4.459   6.454  1.5936 -1.7310 -0.0005
 6787SOL    HW221908   3.114   4.463   6.576 -0.3684  1.1020  1.4461
 6788SOL     OW21909   0.927   4.016   6.231 -0.0437 -0.5328 -0.6139
 6788SOL    HW121910   0.936   3.966   6.151  1.3450 -2.8190  0.8596
 6788SOL    HW221911   0.844   3.987   6.269 -0.0294 -0.4843 -0.5440
 6789SOL     OW21912   6.267   4.583   4.249  0.3420  0.1178 -0.8471
 6789SOL    HW121913   6.243   4.650   4.313 -0.4650 -0.7774 -0.1878
 6789SOL    HW221914   6.219   4.607   4.170 -1.3784 -0.6475 -0.0765
 6790SOL     OW21915   4.548   1.927   5.154 -0.3279 -0.1160 -0.5205
 6790SOL    HW121916   4.469   1.894   5.195 -0.0984  0.0420  0.0492
 6790SOL    HW221917   4.614   1.859   5.167 -0.8177 -1.0611 -2.5563
 6791SOL     OW21918   2.168   1.947   2.174  0.5886 -0.5372 -0.2217
 6791SOL    HW121919   2.152   2.040   2.158  1.1836  0.3315  3.3528
 6791SOL    HW221920   2.089   1.917   2.219 -0.2658 -2.2760 -2.6682
 6792SOL     OW21921   2.797   4.660   0.049  0.6427  0.1557  0.2262
 6792SOL    HW121922   2.774   4.568   0.038  1.0522  0.0866 -0.0753
 6792SOL    HW221923   2.722   4.699   0.095  0.0338 -0.1121 -0.5324
 6793SOL     OW21924   4.431   0.047   6.391  0.2530 -0.2739 -0.0656
 6793SOL    HW121925   4.471  -0.040   6.394  0.6029 -0.0906  1.8580
 6793SOL    HW221926   4.344   0.035   6.430 -0.0571  0.0822 -0.6276
 6794SOL     OW21927   1.202   5.349   1.965  0.7772  0.0119  0.0357
 6794SOL    HW121928   1.200   5.445   1.961 -0.1751  0.0357  0.9426
 6794SOL    HW221929   1.228   5.329   2.055 -0.9805 -0.5769  0.4412
 6795SOL     OW21930   5.834   6.149   2.596 -0.2263  0.2428  0.1618
 6795SOL    HW121931   5.782   6.143   2.676 -0.9822  0.0152 -0.3300
 6795SOL    HW221932   5.838   6.059   2.563 -0.3784  0.4112 -0.3318
 6796SOL     OW21933   3.857   0.366   4.329 -0.0319  0.1723 -0.1250
 6796SOL    HW121934   3.904   0.449   4.336  0.4929 -0.0329 -1.0816
 6796SOL    HW221935   3.902   0.319   4.259  0.2165 -1.2892  0.9768
 6797SOL     OW21936   1.547   4.999   0.064  0.2540 -0.3813 -0.4665
 6797SOL    HW121937   1.462   4.980   0.025  0.2947  0.6178 -1.0830
 6797SOL    HW221938   1.592   4.915   0.066 -0.3354 -0.7199 -1.1556
 6798SOL     OW21939   4.172   4.153   2.380  0.1262  0.3430  0.3043
 6798SOL    HW121940   4.163   4.246   2.359  0.2530  0.9095  2.5010
 6798SOL    HW221941   4.105   4.137   2.447 -0.6706 -1.4605 -0.8450
 6799SOL     OW21942   2.007   1.022   6.777  0.0188 -0.1942 -0.3397
 6799SOL    HW121943   1.927   0.970   6.766 -0.7252  1.2083 -2.0470
 6799SOL    HW221944   2.073   0.975   6.727  0.4344 -1.5830  1.4125
 6800SOL     OW21945   0.947   1.431   2.217 -0.1204 -0.1696  0.1461
 6800SOL    HW121946   0.883   1.375   2.173  2.0122 -0.2031 -3.3036
 6800SOL    HW221947   0.919   1.520   2.197 -0.1406 -0.1340  0.3285
 6801SOL     OW21948   3.685   2.195   1.776 -0.1718  0.5536 -0.4559
 6801SOL    HW121949   3.683   2.101   1.756 -0.4460  0.1269  1.3375
 6801SOL    HW221950   3.756   2.229   1.723 -0.0431 -0.6891 -1.1200
 6802SOL     OW21951   0.956   4.283   0.138 -0.6341  0.0518  0.3953
 6802SOL    HW121952   1.038   4.305   0.183 -0.4881  0.7368 -0.1784
 6802SOL    HW221953   0.920   4.210   0.188 -0.1877  0.4104  1.2780
 6803SOL     OW21954   0.888   1.429   4.010 -0.1643 -0.2277 -0.0746
 6803SOL    HW121955   0.879   1.523   4.025 -0.8134 -0.1019 -1.1352
 6803SOL    HW221956   0.850   1.415   3.923 -0.0979 -1.4759  0.0796
 6804SOL     OW21957   5.606   5.716   4.791  0.1762  0.8128  0.9374
 6804SOL    HW121958   5.630   5.701   4.700  0.3570 -0.4979  1.1754
 6804SOL    HW221959   5.545   5.646   4.812 -0.4926  1.5727  1.6007
 6805SOL     OW21960   0.252   5.226   4.038  0.0488  0.0593  0.4686
 6805SOL    HW121961   0.179   5.224   4.100 -1.5945  1.1463 -1.3221
 6805SOL    HW221962   0.330   5.227   4.093 -1.2810 -0.7019  2.4682
 6806SOL     OW21963   1.717   1.443   2.964  0.7125  0.0885 -0.6140
 6806SOL    HW121964   1.657   1.473   2.895  1.4577 -0.2552 -1.4299
 6806SOL    HW221965   1.685   1.486   3.043  0.1100  0.8556 -1.2510
 6807SOL     OW21966   4.192   0.233   1.251  0.0714  0.5931 -0.0170
 6807SOL    HW121967   4.279   0.194   1.243 -1.2062 -2.4949 -0.2846
 6807SOL    HW221968   4.172   0.228   1.344 -0.2068  0.3670 -0.0879
 6808SOL     OW21969   5.908   3.047   4.770 -0.4073 -0.4521 -0.3838
 6808SOL    HW121970   5.903   3.038   4.865 -0.6882  1.6467 -0.1649
 6808SOL    HW221971   5.948   2.965   4.741 -1.0042 -1.4693  1.4482
 6809SOL     OW21972   0.968   3.802   0.216  0.3533 -0.7337  0.0848
 6809SOL    HW121973   0.873   3.802   0.233  0.4579  1.5678  1.0451
 6809SOL    HW221974   1.005   3.850   0.290  2.4210 -2.4037  0.2178
 6810SOL     OW21975   5.743   5.394   6.271  0.3724  0.3835 -0.2731
 6810SOL    HW121976   5.806   5.402   6.342 -0.0421  1.5369 -0.0090
 6810SOL    HW221977   5.751   5.476   6.223 -0.1121  0.0594 -0.9193
 6811SOL     OW21978   6.744   6.779   1.576  0.0295 -0.4276 -0.8213
 6811SOL    HW121979   6.836   6.806   1.574  1.0292 -3.2529  1.3005
 6811SOL    HW221980   6.704   6.828   1.504  3.4382 -0.0802 -2.7108
 6812SOL     OW21981   1.815   0.057   3.225  0.4980  0.1120 -0.1600
 6812SOL    HW121982   1.721   0.058   3.209  0.4220  0.1771  0.2884
 6812SOL    HW221983   1.845  -0.026   3.188 -0.2078 -1.3741  2.4103
 6813SOL     OW21984   4.283   5.205   4.480  0.6049  0.4512 -0.1093
 6813SOL    HW121985   4.319   5.294   4.482  4.9546 -1.0531  0.4275
 6813SOL    HW221986   4.296   5.178   4.389  2.3252 -0.5741  0.3953
 6814SOL     OW21987   6.139   2.644   1.967  0.4022  0.3993  0.2344
 6814SOL    HW121988   6.184   2.595   2.036 -0.8761 -0.0456  0.7777
 6814SOL    HW221989   6.209   2.673   1.909  1.1665 -3.6267 -1.1389
 6815SOL     OW21990   0.514   0.161   4.698  0.1992 -0.0993 -0.1367
 6815SOL    HW121991   0.510   0.160   4.603  2.3059  1.0943 -0.3102
 6815SOL    HW221992   0.581   0.097   4.720 -0.8158 -0.9364  0.6311
 6816SOL     OW21993   1.717   2.154   1.682  0.7228  0.2742  0.5755
 6816SOL    HW121994   1.742   2.104   1.604  1.7108  0.2472  0.8993
 6816SOL    HW221995   1.623   2.138   1.691  0.6207  0.1533 -0.5155
 6817SOL     OW21996   0.360   2.037   0.944 -0.4467  0.6204  0.0846
 6817SOL    HW121997   0.303   2.099   0.898 -1.9640 -0.9530 -0.2477
 6817SOL    HW221998   0.422   2.007   0.877 -0.2504  1.1090  0.0388
 6818SOL     OW21999   0.489   2.270   0.453 -0.0953  0.0724 -0.0541
 6818SOL    HW122000   0.444   2.229   0.527 -0.3513  0.4535  0.0041
 6818SOL    HW222001   0.452   2.226   0.376  1.5982 -1.7401  0.0965
 6819SOL     OW22002   1.661   4.059   0.817  0.2114 -0.5353  0.1140
 6819SOL    HW122003   1.708   3.978   0.839 -1.1350 -0.9387  1.7294
 6819SOL    HW222004   1.672   4.114   0.894 -0.0452  0.2794 -0.4227
 6820SOL     OW22005   4.962   0.754   4.931  0.0666 -0.3335  0.0503
 6820SOL    HW122006   4.956   0.708   5.015 -0.2308  0.0703  0.2509
 6820SOL    HW222007   4.882   0.806   4.926  0.7622  0.7841  0.1985
 6821SOL     OW22008   4.137   5.907   6.355  0.4573  0.4110  0.1534
 6821SOL    HW122009   4.170   5.896   6.444 -0.1266  1.0457  0.4501
 6821SOL    HW222010   4.121   6.001   6.346  1.5488  0.5041 -0.9948
 6822SOL     OW22011   0.013   4.402   6.210  0.0760  0.3130 -0.5317
 6822SOL    HW122012  -0.071   4.435   6.177  0.1912  1.8647  0.6069
 6822SOL    HW222013  -0.003   4.309   6.227 -1.3000  0.4954 -0.7200
 6823SOL     OW22014   2.913   1.621   4.394  0.4617 -0.0601 -0.4980
 6823SOL    HW122015   3.001   1.656   4.408 -0.3291  0.9981  2.4365
 6823SOL    HW222016   2.874   1.680   4.330  1.0815  0.9725  0.0530
 6824SOL     OW22017   1.636   1.847   2.890  0.0388  0.2004  0.2182
 6824SOL    HW122018   1.617   1.778   2.954  0.0214  1.3608  1.4865
 6824SOL    HW222019   1.642   1.800   2.806 -0.9473 -1.2081  0.8974
 6825SOL     OW22020   5.505   4.652   2.866 -0.1148 -0.1490 -0.0010
 6825SOL    HW122021   5.499   4.587   2.795  0.4509  0.5320 -0.6841
 6825SOL    HW222022   5.414   4.664   2.894 -0.3502 -0.3986 -0.6383
 6826SOL     OW22023   4.653   0.977   4.380 -0.1924  0.1757  0.5598
 6826SOL    HW122024   4.615   0.889   4.387  2.6467 -1.1393  0.8878
 6826SOL    HW222025   4.657   1.008   4.471  0.5109 -0.1668  0.6510
 6827SOL     OW22026   2.958   5.293   0.637  0.0332  0.2247  0.2632
 6827SOL    HW122027   3.026   5.306   0.571  0.1240 -0.0361  0.3042
 6827SOL    HW222028   3.004   5.258   0.713 -0.3291 -1.2941 -0.1829
 6828SOL     OW22029   5.602   0.378   6.319 -0.1999 -0.5372  0.5366
 6828SOL    HW122030   5.553   0.451   6.357  0.2654  0.1302 -0.1294
 6828SOL    HW222031   5.597   0.393   6.225 -0.9800 -1.9386  0.3290
 6829SOL     OW22032   0.006   6.701   2.476 -0.0028  0.0470 -0.3752
 6829SOL    HW122033   0.025   6.609   2.491 -1.4732 -0.2227 -0.0079
 6829SOL    HW222034  -0.024   6.734   2.561  1.8449  1.2478 -0.1335
 6830SOL     OW22035   2.453   4.927   3.175 -0.8616 -0.1127 -0.1664
 6830SOL    HW122036   2.411   5.011   3.159 -1.0165 -0.1544  0.0148
 6830SOL    HW222037   2.385   4.862   3.158 -1.2356 -0.1294  1.2791
 6831SOL     OW22038   3.493   1.021   4.245  0.4172 -0.1234  0.0797
 6831SOL    HW122039   3.489   0.926   4.254  2.0605 -0.2958 -0.5744
 6831SOL    HW222040   3.472   1.055   4.332  2.8337 -1.2107  1.1806
 6832SOL     OW22041   0.284   1.296   1.020 -0.2927  0.3160  0.0023
 6832SOL    HW122042   0.283   1.279   1.115 -0.2836 -2.3990 -0.4176
 6832SOL    HW222043   0.300   1.390   1.013  0.3100  0.4940  2.6861
 6833SOL     OW22044   0.555   2.722   1.192 -0.1262 -0.1945 -0.0333
 6833SOL    HW122045   0.601   2.666   1.129  0.0453  0.0947 -0.1652
 6833SOL    HW222046   0.514   2.660   1.252  1.5389 -0.4706  0.8965
 6834SOL     OW22047   6.387   6.522   3.004 -0.1496  0.6333 -0.0238
 6834SOL    HW122048   6.407   6.452   2.941 -2.2613  0.6050 -0.7273
 6834SOL    HW222049   6.399   6.481   3.090 -1.6852 -0.7681 -0.4154
 6835SOL     OW22050   3.150   0.004   1.197 -0.5509  0.2358 -0.1745
 6835SOL    HW122051   3.241  -0.024   1.190 -0.5859 -1.3366  3.5163
 6835SOL    HW222052   3.101  -0.062   1.148  0.1222 -0.4882  0.1057
 6836SOL     OW22053   5.939   1.958   5.327  0.5070  0.3259 -0.2922
 6836SOL    HW122054   5.953   1.889   5.392 -0.3142 -0.9986 -1.4679
 6836SOL    HW222055   5.859   2.003   5.357  0.8849  0.6005  0.3253
 6837SOL     OW22056   6.014   0.674   3.638 -0.2239  0.4440  0.2612
 6837SOL    HW122057   6.107   0.691   3.653 -0.3202  1.6946 -0.4415
 6837SOL    HW222058   6.008   0.657   3.544 -0.5550 -0.8203  0.4898
 6838SOL     OW22059   1.664   4.408   0.491 -0.1053  0.3419  0.8384
 6838SOL    HW122060   1.712   4.379   0.414 -0.5441  2.3264 -0.2528
 6838SOL    HW222061   1.728   4.405   0.562  0.9944  0.7193 -0.1128
 6839SOL     OW22062   2.852   1.441   3.851  0.3456  0.2879  0.1792
 6839SOL    HW122063   2.830   1.479   3.766 -2.2827 -1.2227  0.0696
 6839SOL    HW222064   2.937   1.399   3.838 -0.1463 -0.1837 -1.8425
 6840SOL     OW22065   2.268   0.950   1.922 -0.0034  0.2555  0.2624
 6840SOL    HW122066   2.294   0.938   2.013 -2.2124  0.8844  1.0642
 6840SOL    HW222067   2.279   0.864   1.881 -0.6393 -0.5066  1.6286
 6841SOL     OW22068   1.048   2.640   6.240 -0.0302  0.0623  0.0879
 6841SOL    HW122069   0.997   2.563   6.216 -0.3477  0.0279  0.8570
 6841SOL    HW222070   1.073   2.679   6.156 -1.1456 -0.0300 -0.3001
 6842SOL     OW22071   3.098   6.273   0.522  0.1103  0.7530 -0.2323
 6842SOL    HW122072   3.022   6.240   0.474  0.6417  0.6388 -0.9985
 6842SOL    HW222073   3.093   6.368   0.512 -1.1333  0.9255  1.5478
 6843SOL     OW22074   4.899   5.300   2.407 -0.3148 -0.2406 -0.6796
 6843SOL    HW122075   4.880   5.239   2.335 -2.1820 -0.2821 -0.2045
 6843SOL    HW222076   4.900   5.386   2.365 -2.5208 -0.1444 -0.6437
 6844SOL     OW22077   2.823   1.043   3.063 -0.7101  0.1991 -0.0540
 6844SOL    HW122078   2.761   0.986   3.109 -0.7013  0.5406  0.3880
 6844SOL    HW222079   2.801   1.131   3.093  1.1230  0.1821  1.4721
 6845SOL     OW22080   0.409   2.736   5.041  0.2887 -0.3522 -0.1695
 6845SOL    HW122081   0.354   2.801   4.998  0.1297  0.3340  1.0215
 6845SOL    HW222082   0.481   2.786   5.079  1.0252 -1.0790 -0.5870
 6846SOL     OW22083   1.467   1.524   1.609  0.4635  0.6540 -0.2602
 6846SOL    HW122084   1.395   1.461   1.609  0.2453  0.8172 -2.7903
 6846SOL    HW222085   1.468   1.559   1.520  3.8441  0.4875 -0.3887
 6847SOL     OW22086   2.908   4.211   1.325  0.1455 -0.1019  0.4092
 6847SOL    HW122087   2.890   4.280   1.389  0.1002 -1.1618  1.5738
 6847SOL    HW222088   2.978   4.247   1.270 -0.4519  1.1857  0.4582
 6848SOL     OW22089   4.007   2.979   1.345 -0.5206 -0.3765  0.4144
 6848SOL    HW122090   4.002   2.913   1.276 -1.0948 -0.5354  0.6012
 6848SOL    HW222091   4.100   2.991   1.360 -0.3865 -0.4312 -0.3016
 6849SOL     OW22092   4.281   0.692   1.372  0.9865 -0.6528  0.3516
 6849SOL    HW122093   4.290   0.748   1.449 -3.1711  0.4718  0.2542
 6849SOL    HW222094   4.333   0.735   1.305  1.0594  0.9088  1.3466
 6850SOL     OW22095   0.098   2.996   6.456  0.2964  0.1727 -0.6502
 6850SOL    HW122096   0.096   3.077   6.507 -0.4367 -0.8940  1.0839
 6850SOL    HW222097   0.082   3.025   6.366 -0.2984  1.9250 -0.0304
 6851SOL     OW22098   1.449   3.285   3.038  0.1730 -0.3006  0.0732
 6851SOL    HW122099   1.500   3.229   3.096 -1.5323 -1.0157  0.9396
 6851SOL    HW222100   1.382   3.324   3.094 -0.3124  0.5363 -1.0419
 6852SOL     OW22101   6.523   2.692   5.003  0.0090 -0.1658 -0.2351
 6852SOL    HW122102   6.440   2.694   4.956  0.6032  1.9648 -1.3296
 6852SOL    HW222103   6.589   2.685   4.934  0.7948 -1.1053  0.5723
 6853SOL     OW22104   4.983   6.191   5.533  0.4105 -0.5025 -0.2215
 6853SOL    HW122105   4.943   6.110   5.565  2.9412 -1.2226  1.4742
 6853SOL    HW222106   5.069   6.164   5.500 -0.0613  1.0363 -3.0268
 6854SOL     OW22107   0.050   1.993   3.976 -0.5228 -0.5261 -0.7518
 6854SOL    HW122108   0.144   2.005   3.963 -0.3272 -2.8957 -1.9214
 6854SOL    HW222109   0.024   2.068   4.030  2.2931 -0.5436  0.8104
 6855SOL     OW22110   3.568   6.279   4.317 -0.0735  0.3872  0.1474
 6855SOL    HW122111   3.592   6.190   4.293  0.1243  0.3086  0.6179
 6855SOL    HW222112   3.652   6.322   4.337 -0.2315  0.4284  0.7446
 6856SOL     OW22113   5.877   5.210   4.270  0.0103 -0.3675 -0.0390
 6856SOL    HW122114   5.965   5.245   4.285  0.3712 -0.5046 -1.6258
 6856SOL    HW222115   5.859   5.156   4.346 -0.0533  2.2143  1.9385
 6857SOL     OW22116   1.484   2.867   1.506 -0.3761  0.4532  0.2158
 6857SOL    HW122117   1.392   2.872   1.482 -0.0771  2.2722 -0.7991
 6857SOL    HW222118   1.530   2.900   1.429  1.1853 -1.0426  0.4538
 6858SOL     OW22119   4.710   6.544   2.266 -0.8888 -0.9251 -0.2681
 6858SOL    HW122120   4.736   6.458   2.299  3.1900 -0.2102 -1.0162
 6858SOL    HW222121   4.702   6.599   2.344  1.6835 -0.8979  0.0792
 6859SOL     OW22122   0.405   2.730   3.818  0.0501 -0.0809  0.1018
 6859SOL    HW122123   0.311   2.749   3.807  0.2087  0.3109 -0.6031
 6859SOL    HW222124   0.445   2.756   3.735  0.8649  0.2586  0.5882
 6860SOL     OW22125   2.718   2.224   6.343  0.2074 -0.0976 -0.0587
 6860SOL    HW122126   2.652   2.162   6.376 -0.5004  0.8314  0.3044
 6860SOL    HW222127   2.732   2.284   6.416  0.4121  0.5499 -0.6283
 6861SOL     OW22128   0.274   6.077   2.159 -0.4753 -0.2079  0.3223
 6861SOL    HW122129   0.198   6.067   2.102 -0.6201  2.5559 -0.1026
 6861SOL    HW222130   0.332   6.136   2.112  0.5753  0.1021  1.9226
 6862SOL     OW22131   5.369   0.499   3.986  0.6154 -0.3200 -0.2024
 6862SOL    HW122132   5.351   0.453   4.068  1.6417 -2.1264 -0.9303
 6862SOL    HW222133   5.285   0.504   3.941  0.0249  0.7603  0.9480
 6863SOL     OW22134   2.925   5.560   1.836  0.1808  0.2133  0.2742
 6863SOL    HW122135   2.914   5.652   1.859 -1.4820 -0.2879  1.7508
 6863SOL    HW222136   3.018   5.551   1.816  0.3030  2.2810 -0.3127
 6864SOL     OW22137   4.176   4.452   5.885 -0.5933  0.0407  0.0910
 6864SOL    HW122138   4.108   4.386   5.870 -1.7001  1.2201 -0.2653
 6864SOL    HW222139   4.177   4.464   5.980 -0.9203  0.0335  0.0968
 6865SOL     OW22140   5.099   4.411   3.383 -0.3024 -0.3113  0.3450
 6865SOL    HW122141   5.161   4.440   3.317 -0.2099  0.6638  0.8450
 6865SOL    HW222142   5.013   4.428   3.345 -0.2589 -0.5929  0.1173
 6866SOL     OW22143   4.531   3.902   4.524 -0.1315 -0.2467  0.0315
 6866SOL    HW122144   4.518   3.995   4.509  1.5193  0.3359  1.8391
 6866SOL    HW222145   4.542   3.865   4.436 -0.5375  1.2768 -0.6972
 6867SOL     OW22146   2.517   6.476   4.351 -0.3931 -0.4551 -0.1357
 6867SOL    HW122147   2.528   6.554   4.406  0.9355 -0.1342 -0.8146
 6867SOL    HW222148   2.493   6.510   4.265 -1.8918 -0.9262  0.0701
 6868SOL     OW22149   6.630   4.338   0.351  0.2232  0.3318  0.2748
 6868SOL    HW122150   6.665   4.389   0.424 -1.5376 -1.5232  2.5482
 6868SOL    HW222151   6.541   4.315   0.377 -0.1718 -1.1875 -2.0826
 6869SOL     OW22152   5.221   2.051   2.885  0.2752 -0.1669 -0.8428
 6869SOL    HW122153   5.278   1.978   2.908  2.3994  1.7845  0.6487
 6869SOL    HW222154   5.196   2.088   2.970 -1.7889  0.1185 -1.5324
 6870SOL     OW22155   1.617   1.214   6.128  0.2211 -0.9373 -0.1597
 6870SOL    HW122156   1.693   1.187   6.077  0.1078 -0.9776 -0.3080
 6870SOL    HW222157   1.545   1.161   6.093  0.3695 -1.8514  0.8439
 6871SOL     OW22158   6.095   5.842   2.619 -0.2262  0.3175  0.7619
 6871SOL    HW122159   6.077   5.809   2.707 -0.5302 -0.1584  0.5281
 6871SOL    HW222160   6.008   5.853   2.581 -0.1031  0.7983  0.6208
 6872SOL     OW22161   4.185   3.708   3.266 -0.3439 -0.7878 -0.7448
 6872SOL    HW122162   4.116   3.775   3.272  1.5422  1.1961 -0.0013
 6872SOL    HW222163   4.194   3.691   3.172 -0.4834  0.4318 -0.9962
 6873SOL     OW22164   2.395   2.416   1.411  0.0950 -0.5989 -0.2844
 6873SOL    HW122165   2.395   2.373   1.325  1.2063  0.6626 -0.9628
 6873SOL    HW222166   2.459   2.366   1.463 -0.3205 -1.1506 -0.2945
 6874SOL     OW22167   5.764   4.642   6.135 -0.1608  0.0331  0.3476
 6874SOL    HW122168   5.826   4.585   6.179  1.3049  0.6174 -0.8535
 6874SOL    HW222169   5.810   4.671   6.056 -1.8274  0.8000 -0.4020
 6875SOL     OW22170   5.661   5.320   6.642 -0.1059 -0.3614  0.1889
 6875SOL    HW122171   5.633   5.409   6.624  0.2620 -0.2800 -0.0085
 6875SOL    HW222172   5.674   5.317   6.737 -0.0566 -0.1869  0.1876
 6876SOL     OW22173   1.998   5.244   0.582 -0.3274 -0.0861  0.5860
 6876SOL    HW122174   1.945   5.175   0.543 -0.2519  0.7863 -1.1179
 6876SOL    HW222175   2.088   5.224   0.555 -0.1742  0.1149  0.9395
 6877SOL     OW22176   4.356   6.527   5.165 -0.3648 -0.1217 -0.2003
 6877SOL    HW122177   4.385   6.611   5.201 -0.9149  0.3275 -0.7838
 6877SOL    HW222178   4.401   6.519   5.081 -0.8873 -0.0442 -0.4957
 6878SOL     OW22179   2.392   5.399   2.342  0.5852  0.0968 -0.2523
 6878SOL    HW122180   2.328   5.445   2.396 -0.2016 -1.1601 -0.0625
 6878SOL    HW222181   2.358   5.404   2.253 -0.4591 -1.5964  0.0084
 6879SOL     OW22182   6.404   2.588   5.543 -0.4002 -0.2591 -0.0892
 6879SOL    HW122183   6.491   2.577   5.504  0.1763 -3.9520  1.7890
 6879SOL    HW222184   6.343   2.560   5.474  0.0902 -0.2384 -0.5369
 6880SOL     OW22185   6.530   5.737   2.168  0.0676  0.3195 -0.3666
 6880SOL    HW122186   6.615   5.710   2.202 -0.7588 -2.6709 -0.3919
 6880SOL    HW222187   6.533   5.833   2.170  2.8531  0.3156  0.9754
 6881SOL     OW22188   0.995   5.802   3.312  0.1441 -0.1631 -0.1494
 6881SOL    HW122189   1.070   5.860   3.325  0.7680 -0.5130 -1.8985
 6881SOL    HW222190   0.956   5.832   3.230 -0.7078 -0.9822 -0.0569
 6882SOL     OW22191   4.762   4.824   6.164 -0.1697 -0.0173 -0.0812
 6882SOL    HW122192   4.704   4.829   6.089  2.5315  0.0102 -2.3256
 6882SOL    HW222193   4.708   4.787   6.234 -3.0378  0.7436 -1.7220
 6883SOL     OW22194   1.908   1.578   3.447 -0.8512  0.6359  0.3907
 6883SOL    HW122195   1.933   1.519   3.519 -0.0190  0.6198  0.1018
 6883SOL    HW222196   1.814   1.592   3.459 -1.0814 -0.7855  0.4502
 6884SOL     OW22197   1.161   5.000   3.950  0.4419  0.4179  0.3414
 6884SOL    HW122198   1.198   4.990   3.862 -1.7297  0.6646 -0.6514
 6884SOL    HW222199   1.098   4.928   3.957 -1.5811  2.1293  0.4850
 6885SOL     OW22200   6.423   4.883   5.546 -0.5337 -0.1324  0.1130
 6885SOL    HW122201   6.373   4.896   5.627 -1.8177 -0.0881 -0.6683
 6885SOL    HW222202   6.419   4.968   5.502  0.7376  0.0419  0.2987
 6886SOL     OW22203   5.938   6.283   3.429 -0.6305  0.0073  0.0273
 6886SOL    HW122204   5.898   6.227   3.496  0.0213  0.0154  0.4393
 6886SOL    HW222205   5.884   6.362   3.427 -0.6753 -0.0053  0.5366
 6887SOL     OW22206   5.212   1.910   0.249  0.2324 -0.1794 -0.2724
 6887SOL    HW122207   5.246   1.970   0.316 -0.6374 -1.0200  0.9756
 6887SOL    HW222208   5.287   1.855   0.226  0.1553 -1.0001  1.3054
 6888SOL     OW22209   6.208   4.088   6.604  0.2259 -0.5765 -0.3419
 6888SOL    HW122210   6.290   4.131   6.629  0.3464  0.4657 -2.3564
 6888SOL    HW222211   6.168   4.063   6.688  1.4253  1.0745  0.7854
 6889SOL     OW22212   2.652   4.234   2.553  0.1972 -0.2866  0.3648
 6889SOL    HW122213   2.582   4.290   2.519  1.4958 -0.1802 -2.3870
 6889SOL    HW222214   2.732   4.286   2.541  1.2149 -1.9515 -0.4275
 6890SOL     OW22215   3.669   4.081   0.231 -0.1462  0.4023  0.3917
 6890SOL    HW122216   3.736   4.148   0.230 -0.4044  0.6608 -0.1751
 6890SOL    HW222217   3.669   4.045   0.143  0.8093 -1.1854  0.9992
 6891SOL     OW22218   1.455   1.420   4.467  0.6845 -0.2574  0.0030
 6891SOL    HW122219   1.445   1.514   4.455 -3.0736 -0.7888 -2.9788
 6891SOL    HW222220   1.524   1.395   4.405  2.0149  0.4984  1.1241
 6892SOL     OW22221   3.623   5.436   1.699  0.1514 -0.2794  0.1752
 6892SOL    HW122222   3.709   5.404   1.671 -0.2958 -1.4081  0.0279
 6892SOL    HW222223   3.642   5.509   1.758  1.1759  0.3078 -0.8501
 6893SOL     OW22224   6.487   6.300   6.606 -0.0518 -0.3078  0.6106
 6893SOL    HW122225   6.532   6.241   6.546 -0.3086 -1.7420  1.7618
 6893SOL    HW222226   6.553   6.363   6.633 -0.5073  2.0357 -3.0523
 6894SOL     OW22227   0.190   2.476   6.365 -0.0610 -0.2281 -0.0318
 6894SOL    HW122228   0.232   2.521   6.438 -1.2817  0.0462  0.5294
 6894SOL    HW222229   0.251   2.488   6.291  1.5147 -1.0814  1.0662
 6895SOL     OW22230   3.041   1.845   1.201  0.5325 -0.5852 -0.0879
 6895SOL    HW122231   3.025   1.838   1.295  0.9650 -2.0177 -0.0978
 6895SOL    HW222232   2.959   1.818   1.161 -0.3945  2.0383 -0.1842
 6896SOL     OW22233   4.250   1.787   2.679 -0.0244 -0.1148 -0.2423
 6896SOL    HW122234   4.263   1.755   2.768  2.4808 -1.4411 -0.9892
 6896SOL    HW222235   4.198   1.718   2.637 -3.5348  1.6984  0.7432
 6897SOL     OW22236   2.640   6.275   1.364  0.0316  0.2732  0.3186
 6897SOL    HW122237   2.643   6.324   1.446  1.2022  1.2435 -0.2672
 6897SOL    HW222238   2.724   6.229   1.361 -1.3178 -2.4445  1.2045
 6898SOL     OW22239   2.347   4.673   0.841  0.3931  0.3514 -0.1889
 6898SOL    HW122240   2.347   4.582   0.810 -0.0962  0.6808 -1.2089
 6898SOL    HW222241   2.298   4.670   0.923  3.3566 -0.8730  1.7075
 6899SOL     OW22242   6.657   1.544   5.541  0.2726 -0.2937 -0.2324
 6899SOL    HW122243   6.631   1.491   5.617 -0.0693  0.1338 -0.0441
 6899SOL    HW222244   6.629   1.633   5.564 -0.1413 -0.2185 -1.0081
 6900SOL     OW22245   6.446   3.030   1.937  0.0290  0.0205  0.1019
 6900SOL    HW122246   6.369   3.005   1.886 -0.5543 -1.0367  1.4113
 6900SOL    HW222247   6.473   2.949   1.980  0.1807  0.9346  1.8140
 6901SOL     OW22248   0.286   1.426   2.480  0.4176 -0.4700  0.0430
 6901SOL    HW122249   0.345   1.447   2.552 -1.1860 -0.2808  1.3598
 6901SOL    HW222250   0.208   1.389   2.522 -0.5549 -0.4008 -1.5939
 6902SOL     OW22251   1.285   4.996   5.128  0.3178 -0.2105 -0.0118
 6902SOL    HW122252   1.339   5.060   5.174  2.6905 -0.6625 -1.9158
 6902SOL    HW222253   1.231   4.957   5.195  1.2903  1.3730  1.7907
 6903SOL     OW22254   0.875   0.570   1.030 -0.0910 -0.1673  0.0575
 6903SOL    HW122255   0.848   0.604   0.944 -3.5165 -0.7807  0.7269
 6903SOL    HW222256   0.925   0.491   1.009 -0.2893  0.0607 -1.3877
 6904SOL     OW22257   5.970   0.506   6.022 -0.2959 -0.2303  0.3181
 6904SOL    HW122258   5.997   0.476   6.109 -1.6352  0.4211  0.9852
 6904SOL    HW222259   5.984   0.429   5.966 -1.2957 -1.3325  1.5000
 6905SOL     OW22260   0.678   1.605   3.582  0.3187 -0.0465  0.0148
 6905SOL    HW122261   0.615   1.653   3.529 -0.5433  1.6926  2.4799
 6905SOL    HW222262   0.711   1.537   3.523 -0.2573  1.9718 -2.8627
 6906SOL     OW22263   4.269   3.641   5.536 -0.1556 -0.1489  0.0953
 6906SOL    HW122264   4.175   3.625   5.526 -0.5490  1.1664  1.3609
 6906SOL    HW222265   4.287   3.616   5.627  0.8664 -0.9602 -0.3089
 6907SOL     OW22266   2.601   3.913   6.551  0.8507  0.2017 -0.2707
 6907SOL    HW122267   2.569   3.898   6.462  0.0993  0.4320 -0.0525
 6907SOL    HW222268   2.683   3.962   6.539  1.3827 -0.8019 -0.8582
 6908SOL     OW22269   3.238   2.989   4.223 -0.0600  0.2209 -0.7996
 6908SOL    HW122270   3.294   3.032   4.287  0.7176 -1.2629 -0.4289
 6908SOL    HW222271   3.149   3.001   4.257 -0.0401  2.7499 -1.4898
 6909SOL     OW22272   6.326   1.595   0.381  0.3048  0.0559 -0.0739
 6909SOL    HW122273   6.340   1.684   0.349  0.5612  0.1418  0.2708
 6909SOL    HW222274   6.290   1.548   0.307  1.3842  0.1138 -0.6574
 6910SOL     OW22275   0.048   0.253   0.388  0.0851  0.0804 -0.2423
 6910SOL    HW122276   0.048   0.255   0.292  0.4201 -0.5796 -0.2643
 6910SOL    HW222277  -0.040   0.226   0.412  0.5443 -1.7315 -0.4423
 6911SOL     OW22278   3.657   1.363   0.081  0.3312 -0.1977 -0.2008
 6911SOL    HW122279   3.674   1.365   0.175  3.5686 -1.0795 -0.6498
 6911SOL    HW222280   3.584   1.302   0.071  1.2463 -1.6743  1.6002
 6912SOL     OW22281   0.608   4.491   5.155  0.5813  0.0719  0.2817
 6912SOL    HW122282   0.622   4.533   5.240 -0.4849  1.2152 -0.0847
 6912SOL    HW222283   0.513   4.487   5.145  0.6849  0.6006 -1.1502
 6913SOL     OW22284   1.032   2.834   4.179 -0.2472 -0.2747  0.4581
 6913SOL    HW122285   1.059   2.764   4.238  0.8491 -0.5947 -0.3839
 6913SOL    HW222286   1.113   2.880   4.158 -0.8178  0.6495  0.2338
 6914SOL     OW22287   1.169   2.452   5.059  0.1779  0.0826  0.1992
 6914SOL    HW122288   1.090   2.415   5.021  1.4036 -0.6831 -1.7682
 6914SOL    HW222289   1.186   2.531   5.007  0.0323  0.9438  1.4321
 6915SOL     OW22290   5.086   3.777   0.468  0.6919 -0.1677  0.6592
 6915SOL    HW122291   5.086   3.686   0.498 -2.3972 -1.2037 -1.8944
 6915SOL    HW222292   5.006   3.814   0.505 -1.3047 -0.4428 -2.9177
 6916SOL     OW22293   2.942   5.053   1.828  0.6068  0.1407 -0.7543
 6916SOL    HW122294   2.986   5.135   1.849  0.2128 -0.4052  2.9134
 6916SOL    HW222295   2.867   5.051   1.887 -0.8929 -1.7245 -2.5844
 6917SOL     OW22296   1.077   4.880   5.319  0.0483  0.1387  0.7531
 6917SOL    HW122297   1.043   4.874   5.408  0.1339  0.0088  0.7777
 6917SOL    HW222298   1.045   4.964   5.286  0.7412  0.5991  1.2158
 6918SOL     OW22299   4.103   2.570   3.711 -0.3209 -0.7302  0.5550
 6918SOL    HW122300   4.169   2.626   3.669 -1.6635 -0.4265 -1.2949
 6918SOL    HW222301   4.112   2.485   3.666 -0.6466 -0.9291  0.8654
 6919SOL     OW22302   5.677   0.206   1.957  0.8964  0.6542 -0.6287
 6919SOL    HW122303   5.630   0.122   1.958 -1.5825  1.8757 -2.4203
 6919SOL    HW222304   5.722   0.207   1.873  0.8501  1.1381 -0.6508
 6920SOL     OW22305   1.982   4.586   6.570 -0.7131  0.8735  0.2900
 6920SOL    HW122306   1.991   4.499   6.530 -0.3284  1.1778 -0.3055
 6920SOL    HW222307   2.003   4.573   6.662 -2.2020  0.0295  0.5598
 6921SOL     OW22308   5.210   2.233   4.323  0.4329  0.1338 -0.1548
 6921SOL    HW122309   5.266   2.218   4.399 -0.8356  1.5245  1.1212
 6921SOL    HW222310   5.192   2.327   4.324 -2.5376 -0.3427  0.0195
 6922SOL     OW22311   2.891   4.691   4.424 -0.2315  0.9152  0.7192
 6922SOL    HW122312   2.874   4.609   4.470 -0.1205  1.1426  1.1698
 6922SOL    HW222313   2.926   4.664   4.339 -0.4137  0.4924  0.7775
 6923SOL     OW22314   5.520   5.667   5.163  0.1165  0.2442 -0.3572
 6923SOL    HW122315   5.443   5.688   5.216 -0.4921  0.1646 -1.1941
 6923SOL    HW222316   5.496   5.693   5.074  1.4559  1.1819 -0.4669
 6924SOL     OW22317   5.260   6.335   3.253 -0.1395 -0.0078 -0.6028
 6924SOL    HW122318   5.262   6.244   3.281  1.2791 -0.2166 -1.2917
 6924SOL    HW222319   5.216   6.334   3.168 -1.9303  0.2489  0.2844
 6925SOL     OW22320   6.315   4.631   4.896  0.2084 -0.2662  0.2269
 6925SOL    HW122321   6.227   4.596   4.882  0.0651 -0.5995  1.8395
 6925SOL    HW222322   6.309   4.722   4.868  0.2157 -1.0571 -2.6734
 6926SOL     OW22323   1.249   4.471   2.476  0.2526 -0.2880 -0.4130
 6926SOL    HW122324   1.334   4.438   2.506 -0.5469 -0.8890  1.3617
 6926SOL    HW222325   1.267   4.560   2.445  1.1817  0.6038  2.3407
 6927SOL     OW22326   3.020   2.560   0.709  0.0401 -0.2224 -0.1110
 6927SOL    HW122327   3.003   2.521   0.624 -0.6789 -0.3622  0.0890
 6927SOL    HW222328   2.978   2.500   0.772 -0.0633  0.2523  0.2806
 6928SOL     OW22329   6.125   0.072   3.154 -0.5122  0.2154  0.3200
 6928SOL    HW122330   6.148  -0.001   3.097  0.4069  1.0529 -0.4105
 6928SOL    HW222331   6.050   0.040   3.205 -1.7068 -0.3837 -1.6955
 6929SOL     OW22332   0.723   4.183   1.031  0.4486 -0.4820  0.3828
 6929SOL    HW122333   0.812   4.180   0.998  0.1351 -2.0989 -0.4125
 6929SOL    HW222334   0.716   4.268   1.075  2.4498 -0.4687  0.7270
 6930SOL     OW22335   2.853   2.417   2.373  0.0544 -0.1667  0.4607
 6930SOL    HW122336   2.919   2.412   2.304  0.6985 -0.0865  1.0509
 6930SOL    HW222337   2.856   2.331   2.415 -0.9451 -0.5080 -0.1469
 6931SOL     OW22338   5.952   1.539   4.293  0.2106  0.3971  0.2155
 6931SOL    HW122339   5.996   1.578   4.218 -0.4830  0.3625 -0.2214
 6931SOL    HW222340   6.014   1.475   4.327 -0.5945 -1.8365 -2.1931
 6932SOL     OW22341   5.960   4.518   3.081  0.2351  0.5308 -0.7697
 6932SOL    HW122342   5.969   4.457   3.154  0.6341 -0.6560 -1.7838
 6932SOL    HW222343   5.881   4.490   3.035  1.7543 -0.8821 -2.6898
 6933SOL     OW22344   0.256   2.706   2.169  0.1572  0.8349  0.8543
 6933SOL    HW122345   0.191   2.663   2.226 -0.0868 -0.4223 -0.3176
 6933SOL    HW222346   0.204   2.744   2.098  0.6321  0.2674  0.1849
 6934SOL     OW22347   6.012   4.095   3.782  0.0440 -0.5976 -0.5398
 6934SOL    HW122348   5.957   4.102   3.860  1.6303  1.5181  0.5126
 6934SOL    HW222349   6.004   4.004   3.754 -0.5523 -1.4450  2.1406
 6935SOL     OW22350   2.401   3.997   0.435 -0.8095 -0.3200 -0.1056
 6935SOL    HW122351   2.484   3.990   0.387 -0.4485  1.6953  0.1362
 6935SOL    HW222352   2.364   4.081   0.407 -1.5621 -0.0172  1.6452
 6936SOL     OW22353   5.609   4.096   4.350 -0.1200 -0.3452  0.9418
 6936SOL    HW122354   5.569   4.154   4.415 -0.8611  2.3436 -1.6485
 6936SOL    HW222355   5.693   4.137   4.329 -0.1066 -0.8685 -0.1070
 6937SOL     OW22356   3.417   4.649   0.269 -0.2690 -0.1278 -0.0305
 6937SOL    HW122357   3.390   4.688   0.352 -0.3570  2.4756 -1.1874
 6937SOL    HW222358   3.477   4.579   0.294 -0.0287  0.7951  2.2315
 6938SOL     OW22359   6.125   0.899   4.952  0.4290  0.0989  0.1904
 6938SOL    HW122360   6.071   0.858   4.885  0.6671  0.2001 -0.0676
 6938SOL    HW222361   6.215   0.876   4.927  0.5035 -0.0771  0.6190
 6939SOL     OW22362   3.306   4.161   1.430 -0.9034  0.0786 -0.2940
 6939SOL    HW122363   3.385   4.162   1.376 -0.9812  0.9959 -0.3974
 6939SOL    HW222364   3.276   4.070   1.425  0.4667 -0.4317  0.2442
 6940SOL     OW22365   3.363   2.306   0.654  0.2867 -0.3979 -0.2773
 6940SOL    HW122366   3.284   2.295   0.602 -1.0770  0.1527  1.5894
 6940SOL    HW222367   3.344   2.263   0.737  1.0018  1.7648  1.0908
 6941SOL     OW22368   0.741   1.015   5.948 -0.2996 -0.3601 -0.8048
 6941SOL    HW122369   0.815   1.075   5.939 -1.7716  1.8705  0.8422
 6941SOL    HW222370   0.665   1.068   5.925 -1.6803 -1.5869  0.7640
 6942SOL     OW22371   3.769   0.967   4.125  0.1110 -0.0509  0.0747
 6942SOL    HW122372   3.861   0.977   4.150  0.2468  0.0910 -0.4690
 6942SOL    HW222373   3.720   0.989   4.204  0.4708  2.3013 -0.2713
 6943SOL     OW22374   2.602   2.476   0.761  0.4074  0.9732  0.9925
 6943SOL    HW122375   2.685   2.465   0.715 -0.4669  1.3528 -0.7565
 6943SOL    HW222376   2.540   2.504   0.694 -1.2381  0.3582  2.1655
 6944SOL     OW22377   4.943   5.437   2.804  0.5079 -0.0304  0.1905
 6944SOL    HW122378   4.894   5.396   2.876 -0.4406  2.6603  1.2098
 6944SOL    HW222379   5.030   5.452   2.841  0.3187  0.4470  0.4575
 6945SOL     OW22380   5.476   3.905   5.836  0.0087  0.5170 -0.0810
 6945SOL    HW122381   5.455   3.927   5.927  1.1055 -0.1604  0.3598
 6945SOL    HW222382   5.407   3.843   5.810 -0.5785  1.0709  0.1218
 6946SOL     OW22383   2.612   6.223   4.321 -0.3101  0.0118 -0.5972
 6946SOL    HW122384   2.561   6.304   4.314 -0.0940  0.0779 -1.5578
 6946SOL    HW222385   2.680   6.243   4.386  0.9185  1.2752 -2.1668
 6947SOL     OW22386   4.679   3.200   3.078 -0.3150 -0.5493  0.3018
 6947SOL    HW122387   4.749   3.140   3.053 -0.3387 -0.2984 -0.3831
 6947SOL    HW222388   4.695   3.278   3.025 -0.0850  0.1884  1.4165
 6948SOL     OW22389   5.310   1.817   4.133  0.2237  0.2102  0.0234
 6948SOL    HW122390   5.277   1.729   4.152  0.0175  0.7477  2.5341
 6948SOL    HW222391   5.396   1.802   4.093 -0.0281 -1.1362 -0.0634
 6949SOL     OW22392   5.306   6.629   1.143 -0.1893 -0.0502 -0.5102
 6949SOL    HW122393   5.249   6.612   1.218 -0.2457 -2.0453 -0.9468
 6949SOL    HW222394   5.246   6.634   1.069  0.0426 -0.3367 -0.7190
 6950SOL     OW22395   4.166   4.751   3.348  0.5548 -0.0085 -0.1445
 6950SOL    HW122396   4.119   4.688   3.293 -0.7646 -0.8297  1.7924
 6950SOL    HW222397   4.245   4.772   3.299  1.0773 -3.2059 -0.8996
 6951SOL     OW22398   4.341   2.354   2.592 -0.4886  0.1035 -0.2458
 6951SOL    HW122399   4.415   2.382   2.645 -1.4083  0.5799  0.8516
 6951SOL    HW222400   4.304   2.280   2.640 -2.1890  1.4353  0.6241
 6952SOL     OW22401   1.672   2.160   5.862 -0.3904 -0.1226  0.0941
 6952SOL    HW122402   1.667   2.228   5.929 -2.9043 -0.0551 -0.0571
 6952SOL    HW222403   1.691   2.080   5.910  0.0596  0.2761  0.5884
 6953SOL     OW22404   0.952   4.700   3.071 -0.3618  0.1424 -0.0220
 6953SOL    HW122405   0.978   4.646   2.995 -0.7981 -2.1817  1.3644
 6953SOL    HW222406   0.923   4.782   3.033  2.4013  0.3152 -2.1435
 6954SOL     OW22407   2.943   0.565   3.128  0.1157 -0.0828 -0.4287
 6954SOL    HW122408   2.894   0.613   3.062  0.3296  0.3779 -0.2525
 6954SOL    HW222409   2.964   0.629   3.196  0.0419 -0.5105  0.0107
 6955SOL     OW22410   3.265   3.321   1.764  0.0377 -0.0929 -0.1688
 6955SOL    HW122411   3.206   3.321   1.688 -1.3802  0.2508  0.8807
 6955SOL    HW222412   3.212   3.359   1.835  1.3973 -0.1871  0.9317
 6956SOL     OW22413   5.871   2.932   6.695 -0.0587  0.1111  0.5936
 6956SOL    HW122414   5.791   2.956   6.650 -1.3285 -2.3680  1.3675
 6956SOL    HW222415   5.912   3.016   6.718 -0.6158  1.4453 -2.8021
 6957SOL     OW22416   5.747   4.038   2.712 -0.0853  0.1816  0.0102
 6957SOL    HW122417   5.675   4.053   2.773  0.9530  1.8676  0.9144
 6957SOL    HW222418   5.826   4.052   2.765  0.9551 -1.9694 -0.8587
 6958SOL     OW22419   6.726   5.439   3.983 -0.3546  0.0885 -1.1027
 6958SOL    HW122420   6.770   5.379   4.043  0.9965  1.1681 -0.9668
 6958SOL    HW222421   6.775   5.433   3.902  0.3649  1.6184 -0.8260
 6959SOL     OW22422   6.324   2.722   6.272 -0.4148 -0.3155 -0.7107
 6959SOL    HW122423   6.379   2.789   6.312 -2.0406  1.4446 -1.2626
 6959SOL    HW222424   6.384   2.673   6.215  1.2470 -0.7476  1.2855
 6960SOL     OW22425   6.711   4.387   5.157 -0.8400 -0.2002  0.6414
 6960SOL    HW122426   6.643   4.320   5.166 -0.5166 -0.6837 -0.2884
 6960SOL    HW222427   6.789   4.347   5.196  0.0841 -1.5620 -2.2510
 6961SOL     OW22428   0.398   4.808   6.334  0.6841 -0.5007  0.2914
 6961SOL    HW122429   0.489   4.785   6.349  0.4133 -0.9931  1.2291
 6961SOL    HW222430   0.348   4.746   6.387 -0.1040  1.7881  2.4670
 6962SOL     OW22431   5.166   3.367   1.644 -0.5802 -0.2529 -0.3349
 6962SOL    HW122432   5.189   3.422   1.719 -0.0361 -0.9101  0.0010
 6962SOL    HW222433   5.123   3.426   1.582  1.6518  0.9824 -0.8180
 6963SOL     OW22434   2.046   2.044   2.704 -0.2574 -0.3592 -1.0782
 6963SOL    HW122435   2.098   2.037   2.623 -1.4972 -1.8874 -1.7925
 6963SOL    HW222436   2.080   1.975   2.761  1.1260  1.1936  0.0742
 6964SOL     OW22437   4.193   0.376   0.470  0.1191 -0.3224 -0.7085
 6964SOL    HW122438   4.276   0.424   0.463  0.2137 -0.5768 -1.4373
 6964SOL    HW222439   4.219   0.284   0.474 -0.0499 -0.3231  0.9330
 6965SOL     OW22440   0.377   2.830   5.826  0.2105  0.3773 -0.4804
 6965SOL    HW122441   0.288   2.845   5.794  0.1368  0.5374 -0.2050
 6965SOL    HW222442   0.365   2.802   5.916  0.2869 -2.1505 -1.1859
 6966SOL     OW22443   4.772   6.504   4.741 -0.4687 -0.3001  0.0397
 6966SOL    HW122444   4.836   6.560   4.697 -0.7161 -0.2914 -0.3132
 6966SOL    HW222445   4.719   6.467   4.670  1.2677 -3.0233  0.0100
 6967SOL     OW22446   6.652   4.733   5.578 -0.1612 -0.0379 -0.0308
 6967SOL    HW122447   6.566   4.774   5.583  0.6514  1.6093  1.0663
 6967SOL    HW222448   6.646   4.673   5.503 -2.0811  0.4295 -0.2787
 6968SOL     OW22449   1.380   1.767   2.500  0.2052  0.6198  0.2365
 6968SOL    HW122450   1.326   1.711   2.445  0.5780  0.4222  0.0704
 6968SOL    HW222451   1.356   1.856   2.474  0.8527  0.5299 -0.7278
 6969SOL     OW22452   6.693   5.376   0.781  0.0828  0.0868 -0.2274
 6969SOL    HW122453   6.606   5.401   0.750  0.6114  1.4313 -0.6829
 6969SOL    HW222454   6.749   5.449   0.756  1.3208 -0.6943  0.2023
 6970SOL     OW22455   6.470   5.102   2.637 -0.0995  0.1237 -0.7075
 6970SOL    HW122456   6.547   5.047   2.625  0.2191  0.4134 -0.0918
 6970SOL    HW222457   6.506   5.191   2.647 -0.5468  0.3285 -0.8891
 6971SOL     OW22458   1.203   1.890   4.149  0.2550  0.0363 -0.3728
 6971SOL    HW122459   1.209   1.908   4.243 -0.4990  1.1977 -0.5252
 6971SOL    HW222460   1.195   1.977   4.109 -0.5583 -0.5065 -1.4171
 6972SOL     OW22461   4.509   4.474   3.580 -0.7931 -0.1931  0.3263
 6972SOL    HW122462   4.598   4.464   3.616 -0.4423 -1.0205 -0.7237
 6972SOL    HW222463   4.522   4.488   3.486 -1.7913 -0.9660  0.0537
 6973SOL     OW22464   6.457   5.690   5.915 -0.5400 -0.2882  0.2910
 6973SOL    HW122465   6.376   5.646   5.943 -1.2826  2.0997  2.2954
 6973SOL    HW222466   6.515   5.618   5.889 -2.4358 -2.2725  1.1473
 6974SOL     OW22467   3.970   2.529   0.526 -0.3367  0.0327  0.7071
 6974SOL    HW122468   3.895   2.502   0.472 -1.6625  2.7053  1.0501
 6974SOL    HW222469   3.936   2.530   0.616 -0.5319  2.9382  0.6967
 6975SOL     OW22470   3.141   2.403   1.937  0.5267  0.1564  0.3491
 6975SOL    HW122471   3.058   2.439   1.906  2.0633  2.4648 -1.4987
 6975SOL    HW222472   3.188   2.379   1.857  1.7310 -0.9691  1.3349
 6976SOL     OW22473   3.322   5.723   1.220  0.0870 -0.3487  0.0117
 6976SOL    HW122474   3.385   5.655   1.246  0.3134  0.3737  1.4308
 6976SOL    HW222475   3.237   5.687   1.243 -0.1247 -1.4553 -2.1836
 6977SOL     OW22476   1.078   0.777   6.655  0.4699  0.5200  0.3040
 6977SOL    HW122477   1.108   0.779   6.564 -0.8728 -2.8742 -0.3461
 6977SOL    HW222478   0.989   0.810   6.652 -0.5423 -2.0114 -0.1994
 6978SOL     OW22479   4.027   5.902   1.273  0.1297  0.4628  1.0526
 6978SOL    HW122480   3.964   5.962   1.311 -0.6857  1.1194 -1.2202
 6978SOL    HW222481   4.108   5.953   1.267 -0.4338  1.2064 -0.4355
 6979SOL     OW22482   4.736   2.972   0.619 -0.3443  0.5765 -0.3489
 6979SOL    HW122483   4.696   2.942   0.700  0.1098  2.0034  0.4488
 6979SOL    HW222484   4.700   2.915   0.551 -0.3946 -0.9248  0.8994
 6980SOL     OW22485   0.347   2.137   0.666 -0.3620  0.1391  0.7116
 6980SOL    HW122486   0.252   2.152   0.670 -0.2174  0.9982  1.0799
 6980SOL    HW222487   0.355   2.043   0.648 -1.3094  0.4275 -1.6279
 6981SOL     OW22488   4.165   5.133   2.569 -0.1942  0.7327 -0.4979
 6981SOL    HW122489   4.183   5.122   2.662 -0.9575 -0.8910 -0.5104
 6981SOL    HW222490   4.233   5.193   2.538  1.1145 -0.0453  0.7684
 6982SOL     OW22491   6.127   1.750   3.788  0.1769  0.0610 -0.0225
 6982SOL    HW122492   6.059   1.715   3.731  0.1040  0.8750 -0.4467
 6982SOL    HW222493   6.176   1.673   3.818 -0.1657 -0.4192 -0.6935
 6983SOL     OW22494   3.581   6.522   0.728 -0.1628  0.1373 -0.3990
 6983SOL    HW122495   3.510   6.482   0.779  0.8155 -0.0275  0.8902
 6983SOL    HW222496   3.660   6.501   0.778  0.8913 -0.3264 -2.1932
 6984SOL     OW22497   2.054   4.374   0.326 -0.2599  0.2887 -0.1435
 6984SOL    HW122498   2.025   4.291   0.288  1.1096  0.8575 -2.6660
 6984SOL    HW222499   2.093   4.350   0.409 -1.4522 -1.3487  0.0018
 6985SOL     OW22500   1.576   3.377   0.602 -0.2771 -0.0674  0.0099
 6985SOL    HW122501   1.490   3.416   0.584  0.2318  0.6864 -0.8522
 6985SOL    HW222502   1.620   3.375   0.517  1.3632  1.5326  0.7591
 6986SOL     OW22503   1.061   1.896   3.828 -0.0150  0.7267 -0.8903
 6986SOL    HW122504   1.034   1.883   3.919 -0.4003  0.3900 -1.0485
 6986SOL    HW222505   1.115   1.820   3.808  0.0633  0.7968 -0.9466
 6987SOL     OW22506   1.033   3.368   0.610 -0.7200 -0.5360 -0.3150
 6987SOL    HW122507   0.987   3.286   0.630 -0.2803 -1.1166 -1.5626
 6987SOL    HW222508   0.976   3.436   0.646 -2.8687 -1.1786 -2.2094
 6988SOL     OW22509   6.207   0.035   5.824 -0.0438 -0.2153 -0.1429
 6988SOL    HW122510   6.297   0.063   5.836  0.5218 -1.4172 -1.3374
 6988SOL    HW222511   6.213  -0.047   5.775 -1.7125 -1.2667  1.2734
 6989SOL     OW22512   6.087   0.301   0.081 -0.5513 -0.1686 -0.6806
 6989SOL    HW122513   6.067   0.208   0.068  0.5627 -0.3033 -1.5796
 6989SOL    HW222514   6.018   0.347   0.033 -1.4741 -0.5080  0.2984
 6990SOL     OW22515   0.435   5.829   4.404 -0.4069  0.0183 -0.6635
 6990SOL    HW122516   0.528   5.828   4.382 -0.2379  0.6211 -0.0031
 6990SOL    HW222517   0.394   5.770   4.340  0.3023  0.4078 -1.4915
 6991SOL     OW22518   6.326   3.764   1.906  0.6628  0.2974 -0.4584
 6991SOL    HW122519   6.279   3.723   1.834  0.7813 -1.7068  0.5196
 6991SOL    HW222520   6.397   3.702   1.927  1.5420  1.5360  0.4104
 6992SOL     OW22521   2.147   2.887   6.605  0.2063  0.2848  0.8733
 6992SOL    HW122522   2.210   2.817   6.586 -0.7266 -0.3891  0.1544
 6992SOL    HW222523   2.192   2.967   6.581  0.6441 -0.2264 -0.0726
 6993SOL     OW22524   0.708   1.446   3.124 -0.0537  0.4409  0.8864
 6993SOL    HW122525   0.613   1.454   3.112 -0.0059  1.2043  0.9457
 6993SOL    HW222526   0.719   1.412   3.212 -0.3178 -1.8164  0.1245
 6994SOL     OW22527   4.205   2.039   2.635 -0.4280  0.0535  0.0375
 6994SOL    HW122528   4.255   1.958   2.641  0.3293  0.6184  2.0564
 6994SOL    HW222529   4.159   2.045   2.719 -2.5137  0.4600 -1.0550
 6995SOL     OW22530   4.345   4.826   4.814  0.0138  0.7095 -0.0315
 6995SOL    HW122531   4.260   4.840   4.855 -0.8432 -0.4227 -1.3365
 6995SOL    HW222532   4.361   4.733   4.824  0.6747  0.7562 -0.6073
 6996SOL     OW22533   3.535   6.118   1.559 -0.2568 -0.6250  0.4192
 6996SOL    HW122534   3.478   6.046   1.583  1.8579 -2.8141 -0.7101
 6996SOL    HW222535   3.582   6.140   1.640  1.6551 -3.0582  0.0837
 6997SOL     OW22536   2.072   3.485   0.058  0.1489  0.8966 -0.3869
 6997SOL    HW122537   2.165   3.503   0.068  0.3392 -0.3645  0.2979
 6997SOL    HW222538   2.035   3.566   0.022  1.6511  1.0737 -1.5910
 6998SOL     OW22539   2.085   1.520   0.937 -0.0519 -0.4778 -0.3035
 6998SOL    HW122540   2.079   1.531   1.032 -1.3281 -1.5814 -0.2266
 6998SOL    HW222541   2.173   1.486   0.922  0.3970  0.3218  0.3935
 6999SOL     OW22542   0.321   4.477   5.194 -0.0506  0.3702  0.5039
 6999SOL    HW122543   0.324   4.467   5.289  1.8146  0.7105  0.5303
 6999SOL    HW222544   0.273   4.559   5.180 -0.8440  0.0162  1.1211
 7000SOL     OW22545   2.800   2.391   6.542  0.4801  0.2130 -0.0923
 7000SOL    HW122546   2.822   2.481   6.567  2.0624 -0.5435  1.4965
 7000SOL    HW222547   2.729   2.367   6.601 -0.2251  0.5398 -0.7981
 7001SOL     OW22548   0.582   2.761   5.664  0.0308  0.0014 -0.0401
 7001SOL    HW122549   0.499   2.788   5.702  0.2067  1.1707 -0.4359
 7001SOL    HW222550   0.612   2.837   5.614  0.9837 -0.6489 -0.5108
 7002SOL     OW22551   0.609   6.736   1.565 -0.2323  0.0887 -0.6208
 7002SOL    HW122552   0.592   6.752   1.658  0.5021  0.3535 -0.5244
 7002SOL    HW222553   0.524   6.708   1.529 -1.1748  2.4389 -0.4026
 7003SOL     OW22554   2.126   6.244   3.798 -0.0216 -0.4818 -0.1509
 7003SOL    HW122555   2.110   6.153   3.823 -0.7517  0.2068  2.1010
 7003SOL    HW222556   2.203   6.270   3.848 -0.1109  0.2766 -0.3984
 7004SOL     OW22557   6.430   6.734   5.320 -0.7369 -0.6360  0.0242
 7004SOL    HW122558   6.362   6.740   5.253 -2.9363  0.0850  2.1729
 7004SOL    HW222559   6.471   6.821   5.320 -1.1969 -0.4151  0.0425
 7005SOL     OW22560   1.261   5.537   1.594 -0.1340 -0.1874 -0.1846
 7005SOL    HW122561   1.261   5.632   1.604  0.3527 -0.3606  1.8888
 7005SOL    HW222562   1.168   5.513   1.602  0.0044 -0.1321  3.2258
 7006SOL     OW22563   3.454   2.117   4.347  0.0750 -0.2107  0.2951
 7006SOL    HW122564   3.524   2.130   4.412 -1.8039 -1.5048  2.7557
 7006SOL    HW222565   3.416   2.204   4.336  0.1474 -0.0251  1.3236
 7007SOL     OW22566   5.486   0.858   5.974  0.1154  0.7869  0.1855
 7007SOL    HW122567   5.416   0.809   5.930 -1.0521  1.7988  0.8343
 7007SOL    HW222568   5.551   0.874   5.906 -0.3685 -0.0420 -0.4862
 7008SOL     OW22569   0.610   3.973   5.333  0.3543  0.1554  0.5857
 7008SOL    HW122570   0.521   4.001   5.352  0.1142 -0.6806  0.7663
 7008SOL    HW222571   0.666   4.030   5.385 -0.0342  1.1115 -0.0269
 7009SOL     OW22572   3.184   2.544   5.646 -1.0550  0.3006  0.4681
 7009SOL    HW122573   3.114   2.540   5.581 -2.6778 -0.2090  2.1688
 7009SOL    HW222574   3.242   2.472   5.623 -0.6953  1.1107 -1.3418
 7010SOL     OW22575   0.833   4.217   5.957 -0.9374  0.0886 -1.1199
 7010SOL    HW122576   0.880   4.203   6.039 -0.9223 -1.6657 -1.3853
 7010SOL    HW222577   0.744   4.240   5.983 -0.3471  1.9172 -0.6266
 7011SOL     OW22578   6.472   1.375   1.117 -0.0709  0.0732 -0.5345
 7011SOL    HW122579   6.472   1.467   1.140  0.2235  0.2276 -1.1299
 7011SOL    HW222580   6.380   1.356   1.095 -0.0606  0.3216 -0.7928
 7012SOL     OW22581   4.626   0.347   6.224  0.0605 -0.0493  0.2434
 7012SOL    HW122582   4.652   0.256   6.211 -0.2233 -0.1634  0.4665
 7012SOL    HW222583   4.667   0.394   6.151  0.0394 -0.3834  0.0124
 7013SOL     OW22584   0.815   0.161   1.701 -0.2493  0.3750 -0.5633
 7013SOL    HW122585   0.798   0.249   1.665 -0.6812  0.4416 -0.2020
 7013SOL    HW222586   0.839   0.109   1.625 -1.7617  0.3589 -1.0776
 7014SOL     OW22587   4.470   1.593   6.022  0.0263 -0.4200 -0.6063
 7014SOL    HW122588   4.424   1.558   6.099 -1.0207  1.7226 -0.1856
 7014SOL    HW222589   4.440   1.683   6.015  2.4435  0.3850 -1.7406
 7015SOL     OW22590   1.794   3.523   3.752  0.4010 -0.4130  0.5382
 7015SOL    HW122591   1.844   3.456   3.705  0.8661 -0.2060  0.7392
 7015SOL    HW222592   1.831   3.523   3.840 -0.2241 -0.5434  0.8061
 7016SOL     OW22593   3.446   0.192   2.348  0.3007 -0.1571 -0.8583
 7016SOL    HW122594   3.443   0.286   2.329 -0.1151  0.2028  0.7709
 7016SOL    HW222595   3.511   0.184   2.418 -1.6218 -0.6549  0.9683
 7017SOL     OW22596   3.930   2.539   4.968 -0.4724  0.0369  0.0692
 7017SOL    HW122597   3.960   2.494   4.890  0.1162 -1.2750  1.0175
 7017SOL    HW222598   3.979   2.621   4.969 -1.0931  0.4573 -1.3412
 7018SOL     OW22599   0.511   0.244   1.752 -0.5699  0.5837 -0.3156
 7018SOL    HW122600   0.541   0.317   1.807 -3.7079  2.4127 -0.8054
 7018SOL    HW222601   0.542   0.266   1.664 -2.6452  2.1653 -0.7186
 7019SOL     OW22602   0.677   0.396   6.669 -0.7656  0.6674  0.4324
 7019SOL    HW122603   0.767   0.371   6.688 -0.1408  1.6001 -1.1195
 7019SOL    HW222604   0.629   0.313   6.665  0.6440 -0.1316 -1.6826
 7020SOL     OW22605   2.730   2.620   5.885 -0.0768 -0.0192  0.0605
 7020SOL    HW122606   2.647   2.666   5.873 -0.2863 -0.4967 -0.3157
 7020SOL    HW222607   2.791   2.665   5.827  0.0207  0.5523  0.5899
 7021SOL     OW22608   0.432   5.610   1.326  0.2364 -0.1956  0.1860
 7021SOL    HW122609   0.472   5.524   1.334  1.9346  0.6514  1.6618
 7021SOL    HW222610   0.402   5.631   1.414 -1.1032  0.3306 -0.3606
 7022SOL     OW22611   0.836   0.264   0.032  0.1670  0.0943  0.2576
 7022SOL    HW122612   0.886   0.337   0.069  0.0786 -0.2800  1.1420
 7022SOL    HW222613   0.791   0.225   0.107 -0.0402 -0.6775 -0.2541
 7023SOL     OW22614   6.105   2.509   3.248  0.1461 -0.4038  0.2828
 7023SOL    HW122615   6.062   2.498   3.163  0.9177 -1.4928 -0.0005
 7023SOL    HW222616   6.047   2.465   3.310 -0.1298 -0.1198  0.2276
 7024SOL     OW22617   6.432   6.071   5.419 -0.2668 -0.0391 -0.3895
 7024SOL    HW122618   6.352   6.111   5.453  0.3980 -1.2112  2.8938
 7024SOL    HW222619   6.420   5.977   5.431  0.6069 -0.4587 -2.3483
 7025SOL     OW22620   1.551   0.674   1.638 -0.3438 -0.1193 -0.2220
 7025SOL    HW122621   1.599   0.755   1.652 -0.4553  0.0134 -0.6198
 7025SOL    HW222622   1.525   0.647   1.726 -0.2989  0.2708 -0.0870
 7026SOL     OW22623   3.473   2.164   0.262  0.2731  0.2742  0.4587
 7026SOL    HW122624   3.557   2.118   0.259 -0.6075 -1.3744  0.0235
 7026SOL    HW222625   3.419   2.114   0.323 -0.4804  1.1882  0.5709
 7027SOL     OW22626   1.328   1.566   5.607 -0.5382 -0.7580  0.3161
 7027SOL    HW122627   1.313   1.566   5.702 -1.9588  1.7853  0.1590
 7027SOL    HW222628   1.357   1.655   5.587 -0.8743 -1.0712 -1.7285
 7028SOL     OW22629   1.759   1.806   4.185  0.1726 -0.3195  0.2827
 7028SOL    HW122630   1.822   1.817   4.114 -0.0779 -1.0801 -0.0689
 7028SOL    HW222631   1.707   1.730   4.159  0.1544 -0.6783  1.3334
 7029SOL     OW22632   5.272   0.106   3.309 -0.6038 -0.3107 -0.0543
 7029SOL    HW122633   5.225   0.023   3.318 -3.8635  1.4787  1.1156
 7029SOL    HW222634   5.254   0.134   3.219 -0.2318 -0.4698 -0.1786
 7030SOL     OW22635   1.346   1.382   3.533 -1.0497 -0.0729  0.3906
 7030SOL    HW122636   1.340   1.287   3.525 -1.5142  0.0852 -1.6725
 7030SOL    HW222637   1.315   1.416   3.449  1.7271  1.8016 -0.0352
 7031SOL     OW22638   2.651   1.618   2.546 -0.2993  0.3552  0.0061
 7031SOL    HW122639   2.603   1.607   2.464  0.8237  0.3858 -0.6883
 7031SOL    HW222640   2.716   1.686   2.526  0.9153 -0.6366  0.4809
 7032SOL     OW22641   4.014   0.255   6.530  0.2093 -0.5354  0.0923
 7032SOL    HW122642   4.083   0.313   6.561 -0.1717 -1.3700  2.7854
 7032SOL    HW222643   3.936   0.282   6.579 -0.5124 -1.8452 -0.2875
 7033SOL     OW22644   5.295   3.196   2.160  0.7411 -0.1082  0.1973
 7033SOL    HW122645   5.275   3.103   2.162  1.4510 -0.2960 -1.0725
 7033SOL    HW222646   5.240   3.233   2.230  0.6580 -1.4936  0.9041
 7034SOL     OW22647   2.785   2.571   3.120 -0.4306  0.0035  0.3048
 7034SOL    HW122648   2.708   2.626   3.106  0.0281  0.4531 -0.5843
 7034SOL    HW222649   2.855   2.616   3.072  0.1313 -0.9692  0.1921
 7035SOL     OW22650   6.448   5.394   0.636 -0.1909  0.1617  0.2642
 7035SOL    HW122651   6.443   5.397   0.540 -1.2079 -0.1115  0.3052
 7035SOL    HW222652   6.365   5.356   0.664 -1.2931  3.1408  1.4341
 7036SOL     OW22653   4.650   4.116   6.723  0.2356  0.5768 -0.0009
 7036SOL    HW122654   4.646   4.050   6.653  0.1143  0.8544 -0.2595
 7036SOL    HW222655   4.740   4.114   6.754  0.5864  1.2597 -0.9511
 7037SOL     OW22656   0.190   3.770   3.466  0.7324  0.3896  0.4479
 7037SOL    HW122657   0.283   3.749   3.460  0.3338 -1.2635 -0.6647
 7037SOL    HW222658   0.150   3.693   3.507 -0.1809  0.9180  0.5742
 7038SOL     OW22659   1.516   3.458   0.080 -0.2229 -0.4904  0.2187
 7038SOL    HW122660   1.449   3.507   0.127 -0.3511  0.1267 -0.5840
 7038SOL    HW222661   1.580   3.525   0.053 -0.4470 -0.7377 -0.9646
 7039SOL     OW22662   1.156   2.746   0.122  0.2834  0.6782 -0.2546
 7039SOL    HW122663   1.078   2.719   0.170 -0.3594  1.1123 -1.0215
 7039SOL    HW222664   1.149   2.842   0.118  1.1677  0.7660  0.1834
 7040SOL     OW22665   5.008   5.957   1.693  0.4159 -0.1123 -0.3774
 7040SOL    HW122666   5.006   6.050   1.715  0.1634 -0.3324  0.5990
 7040SOL    HW222667   5.076   5.949   1.627 -0.3738  0.9469 -1.3546
 7041SOL     OW22668   5.179   1.524   5.172  0.1420  0.0093  0.1116
 7041SOL    HW122669   5.245   1.543   5.106  0.4980  1.9235  0.9603
 7041SOL    HW222670   5.138   1.442   5.143  0.8582  0.3561 -1.9837
 7042SOL     OW22671   4.071   0.697   0.893  0.0268 -0.7733  0.7386
 7042SOL    HW122672   4.157   0.707   0.934  0.4653  0.2126 -0.3811
 7042SOL    HW222673   4.083   0.628   0.828  0.1498 -0.1996  0.1434
 7043SOL     OW22674   1.338   0.640   5.898  0.2590  0.0082  0.1202
 7043SOL    HW122675   1.255   0.609   5.934  0.0163  0.5115 -0.0045
 7043SOL    HW222676   1.350   0.727   5.936  0.4602  0.1601 -0.2845
 7044SOL     OW22677   6.581   1.287   2.048  0.1470 -0.2889  0.0559
 7044SOL    HW122678   6.516   1.244   2.103 -0.8039 -1.1139 -1.6420
 7044SOL    HW222679   6.530   1.336   1.984  1.1305 -1.5067 -1.7570
 7045SOL     OW22680   0.072   6.780   4.409  0.0620 -0.4611 -0.0626
 7045SOL    HW122681   0.107   6.735   4.486  0.7389 -0.1928 -0.2016
 7045SOL    HW222682  -0.002   6.727   4.381  0.1810 -0.8879  0.4191
 7046SOL     OW22683   5.043   5.345   6.758 -0.2717 -0.0356  0.3636
 7046SOL    HW122684   5.060   5.278   6.824  0.2074  1.0087  1.3235
 7046SOL    HW222685   4.952   5.332   6.733 -0.0293 -1.3868  0.1245
 7047SOL     OW22686   0.445   1.168   0.834  0.2516  0.0816 -0.3364
 7047SOL    HW122687   0.404   1.228   0.896  0.6449  1.4712 -1.3726
 7047SOL    HW222688   0.385   1.164   0.760  1.3469  1.1390 -1.3188
 7048SOL     OW22689   0.575   2.818   0.459  0.2718  0.4555  0.3701
 7048SOL    HW122690   0.631   2.824   0.536  0.2017 -0.1964  0.4772
 7048SOL    HW222691   0.496   2.773   0.491 -0.4606  1.6701  0.3103
 7049SOL     OW22692   3.100   3.752   5.794  0.1670 -0.2410 -0.2655
 7049SOL    HW122693   3.107   3.657   5.787  2.0137 -0.1075 -0.5800
 7049SOL    HW222694   3.135   3.785   5.711  0.2440  0.7321  0.1460
 7050SOL     OW22695   4.669   1.661   5.171  0.4107  0.1726  0.8975
 7050SOL    HW122696   4.597   1.641   5.230 -0.6011 -2.9805 -1.1059
 7050SOL    HW222697   4.748   1.645   5.223 -0.3418  1.1203  2.3832
 7051SOL     OW22698   6.787   4.075   4.111 -0.2619 -0.1231  0.6728
 7051SOL    HW122699   6.866   4.021   4.103  0.0793  0.5987 -1.6999
 7051SOL    HW222700   6.720   4.024   4.065  0.0642  1.3412 -1.6075
 7052SOL     OW22701   0.024   3.355   1.463  0.3272  0.4802 -0.0037
 7052SOL    HW122702   0.107   3.357   1.511  1.6035  1.5650 -2.1054
 7052SOL    HW222703  -0.041   3.330   1.529  2.2447 -0.0619  1.8009
 7053SOL     OW22704   6.275   0.830   4.099 -0.3145  0.1230 -0.3927
 7053SOL    HW122705   6.351   0.882   4.127  0.7352 -0.2281 -2.3482
 7053SOL    HW222706   6.234   0.801   4.180  0.9952  1.2572  0.7320
 7054SOL     OW22707   0.557   5.380   4.536  0.5487 -0.6261  0.1604
 7054SOL    HW122708   0.523   5.440   4.602  1.3879  0.0027  0.0393
 7054SOL    HW222709   0.576   5.300   4.583 -1.9056 -1.3415  0.0884
 7055SOL     OW22710   6.256   2.280   0.050 -0.5283  0.1182  0.0167
 7055SOL    HW122711   6.267   2.312  -0.039 -0.5481 -1.0546 -0.4166
 7055SOL    HW222712   6.195   2.206   0.043  0.0393 -0.4604  0.8905
 7056SOL     OW22713   2.190   4.306   1.628 -0.5640  0.5830 -0.3229
 7056SOL    HW122714   2.210   4.399   1.619 -0.7211  0.6987  0.4998
 7056SOL    HW222715   2.226   4.267   1.548  0.0668  1.2557 -0.3830
 7057SOL     OW22716   0.344   2.173   5.988 -0.3406  0.9751  0.0597
 7057SOL    HW122717   0.312   2.180   5.898 -1.0217 -1.0231  0.1054
 7057SOL    HW222718   0.393   2.254   6.002 -2.3950  2.5122 -1.2099
 7058SOL     OW22719   5.176   2.743   0.537 -0.1094  0.6227 -0.2385
 7058SOL    HW122720   5.233   2.686   0.486 -1.1655  0.2834 -1.0711
 7058SOL    HW222721   5.133   2.685   0.599  0.2370  0.8421  0.2223
 7059SOL     OW22722   3.319   6.463   0.158 -0.1791  0.4247 -0.2778
 7059SOL    HW122723   3.379   6.534   0.182 -0.0157  0.5106 -0.9180
 7059SOL    HW222724   3.372   6.384   0.164 -0.0769  0.4708 -0.5849
 7060SOL     OW22725   3.368   5.121   5.334  0.2906 -0.0561  0.5485
 7060SOL    HW122726   3.286   5.091   5.373  1.1646 -0.6504  2.0351
 7060SOL    HW222727   3.378   5.211   5.365 -0.3431  0.3994 -0.5583
 7061SOL     OW22728   0.621   4.267   2.607  0.4523 -0.7361 -0.3350
 7061SOL    HW122729   0.560   4.339   2.624  0.3167 -0.6011 -1.3337
 7061SOL    HW222730   0.566   4.189   2.602  0.1000 -0.4308 -2.6808
 7062SOL     OW22731   3.894   3.865   5.971  0.6430  0.1344  0.5759
 7062SOL    HW122732   3.809   3.854   6.014 -0.5323  1.8124 -1.1213
 7062SOL    HW222733   3.872   3.880   5.879  2.9125 -1.0919 -0.2298
 7063SOL     OW22734   4.081   5.306   1.336  0.4240  0.6842 -0.2715
 7063SOL    HW122735   4.113   5.255   1.410  0.9311 -1.1029 -1.6323
 7063SOL    HW222736   4.148   5.293   1.268 -0.5403  1.3751 -1.3831
 7064SOL     OW22737   3.812   1.975   3.875 -0.3262 -0.5383  0.0368
 7064SOL    HW122738   3.740   2.036   3.861 -0.1536 -0.4916 -0.7360
 7064SOL    HW222739   3.891   2.030   3.877 -0.3232 -0.5754  1.0117
 7065SOL     OW22740   2.298   1.672   0.264 -0.2267  0.1308 -0.4548
 7065SOL    HW122741   2.384   1.692   0.299 -0.1875  1.7342 -1.3902
 7065SOL    HW222742   2.259   1.614   0.329  1.4210 -0.3676  0.1376
 7066SOL     OW22743   4.201   1.584   2.004  0.9667  0.4803 -0.0616
 7066SOL    HW122744   4.206   1.614   1.913  0.0158 -3.8116 -1.8011
 7066SOL    HW222745   4.107   1.580   2.023  1.1242  0.4873  0.7765
 7067SOL     OW22746   0.738   2.421   6.581  0.1856  0.5734 -0.2577
 7067SOL    HW122747   0.763   2.328   6.575 -1.1532  0.2161 -0.6382
 7067SOL    HW222748   0.821   2.468   6.590  0.8389 -0.7978  1.7439
 7068SOL     OW22749   1.988   2.516   5.517  0.3110 -1.0425  0.2184
 7068SOL    HW122750   1.953   2.520   5.606  1.0039  1.6382  0.4694
 7068SOL    HW222751   2.071   2.564   5.522 -0.3862  0.5920 -2.1748
 7069SOL     OW22752   2.721   5.849   6.046 -0.1869 -0.1580  0.4733
 7069SOL    HW122753   2.790   5.805   6.095  0.3450 -1.0760 -1.0393
 7069SOL    HW222754   2.642   5.799   6.067  0.0377 -0.5609  0.3791
 7070SOL     OW22755   0.305   6.434   0.101  0.1691  0.2993 -0.4665
 7070SOL    HW122756   0.307   6.498   0.171 -0.2449 -1.0821  0.8560
 7070SOL    HW222757   0.252   6.475   0.032 -1.2537  0.8479  0.9014
 7071SOL     OW22758   1.456   4.172   6.158  1.1309 -0.1214  0.2576
 7071SOL    HW122759   1.473   4.100   6.218  0.4627  0.1375  0.7713
 7071SOL    HW222760   1.380   4.145   6.107 -0.3412  0.9637  1.7613
 7072SOL     OW22761   3.220   0.498   5.791  0.3218  0.0275  0.3374
 7072SOL    HW122762   3.268   0.425   5.828  0.1492 -0.4882 -0.4440
 7072SOL    HW222763   3.182   0.543   5.867 -1.0566 -1.7253  0.7439
 7073SOL     OW22764   0.003   4.520   4.928 -0.2579 -0.3206  0.7037
 7073SOL    HW122765  -0.083   4.494   4.895  0.4802 -2.2725  0.1332
 7073SOL    HW222766   0.019   4.461   5.002  1.3199 -1.2696 -0.3403
 7074SOL     OW22767   1.953   3.928   0.363 -0.5453 -0.5956  0.6126
 7074SOL    HW122768   1.982   3.848   0.320 -0.1560 -1.4582  2.3595
 7074SOL    HW222769   1.974   3.914   0.456 -0.4393  1.5529  0.9652
 7075SOL     OW22770   3.107   6.661   6.499 -0.4036 -0.3850 -0.5094
 7075SOL    HW122771   3.086   6.730   6.562  2.4907  0.6585 -0.5067
 7075SOL    HW222772   3.177   6.610   6.541  0.7030 -0.4562 -2.2964
 7076SOL     OW22773   1.945   3.373   1.273 -0.3633 -0.4514  0.7566
 7076SOL    HW122774   1.863   3.413   1.243 -0.7235 -0.8378  1.2160
 7076SOL    HW222775   1.970   3.313   1.203 -0.1064  0.1683  0.3070
 7077SOL     OW22776   4.434   4.679   4.507  0.1403  0.1385 -0.3539
 7077SOL    HW122777   4.396   4.716   4.587  1.8950 -0.6008  0.8883
 7077SOL    HW222778   4.406   4.588   4.506 -3.3769  1.0272 -2.9104
 7078SOL     OW22779   5.124   3.903   6.268 -0.2791  0.9267  0.0715
 7078SOL    HW122780   5.155   3.911   6.358 -1.2774 -0.9966  0.6307
 7078SOL    HW222781   5.166   3.824   6.234 -0.2055  1.4213 -1.0390
 7079SOL     OW22782   6.387   3.308   1.860 -0.0272  0.8480 -0.4703
 7079SOL    HW122783   6.406   3.225   1.903 -0.7165  1.1139  0.3871
 7079SOL    HW222784   6.368   3.285   1.770  0.9986  0.2202 -0.5377
 7080SOL     OW22785   0.258   6.042   5.694  0.0926 -0.1182  0.2073
 7080SOL    HW122786   0.260   6.095   5.773 -0.4379 -0.8251  0.7058
 7080SOL    HW222787   0.168   6.008   5.689  0.2361 -0.4298 -0.4576
 7081SOL     OW22788   5.045   3.962   3.935 -0.1111  0.4114 -0.2201
 7081SOL    HW122789   4.979   4.028   3.917 -0.5239  0.3761  1.0746
 7081SOL    HW222790   5.001   3.899   3.992  1.0957  0.5212  0.8855
 7082SOL     OW22791   4.030   6.134   3.273 -0.3259  0.3082  0.4200
 7082SOL    HW122792   4.039   6.207   3.334 -0.6746 -0.6494  1.6499
 7082SOL    HW222793   3.938   6.137   3.246  0.2627  2.0071 -1.7888
 7083SOL     OW22794   1.611   0.203   0.099 -0.2229  0.0210 -1.0521
 7083SOL    HW122795   1.647   0.116   0.082 -0.2938  0.1842 -2.1161
 7083SOL    HW222796   1.611   0.211   0.195  1.6393 -0.3606 -0.9772
 7084SOL     OW22797   3.708   1.265   1.729  0.8277 -0.0080 -0.6652
 7084SOL    HW122798   3.751   1.186   1.693 -0.7396 -0.6035 -1.3049
 7084SOL    HW222799   3.615   1.249   1.716  0.3544  1.0379  1.1450
 7085SOL     OW22800   2.995   3.874   4.470  0.2670  0.0064 -0.0477
 7085SOL    HW122801   2.949   3.921   4.401  0.0563  1.6724  1.1465
 7085SOL    HW222802   3.044   3.943   4.516  1.3872 -1.2452  0.6824
 7086SOL     OW22803   1.335   5.550   2.204 -0.1493 -0.4207  0.1314
 7086SOL    HW122804   1.260   5.491   2.207 -0.7957  0.3739 -0.0989
 7086SOL    HW222805   1.343   5.575   2.111 -1.0103  1.2482  0.4658
 7087SOL     OW22806   1.813   5.548   0.180  0.4760  0.1455  0.2078
 7087SOL    HW122807   1.852   5.611   0.241  1.3470  2.3828 -2.4568
 7087SOL    HW222808   1.887   5.500   0.144 -0.1412 -2.1748  1.8139
 7088SOL     OW22809   3.294   4.005   2.980 -0.2142 -0.3075  0.1911
 7088SOL    HW122810   3.241   3.944   3.032 -0.7822  1.1804  1.4421
 7088SOL    HW222811   3.240   4.022   2.902 -0.0166 -1.4168 -0.2106
 7089SOL     OW22812   1.588   4.844   6.329  0.4550  0.1808  0.3477
 7089SOL    HW122813   1.636   4.786   6.388  1.2596  2.5300  2.1635
 7089SOL    HW222814   1.498   4.841   6.361  0.7315  0.8014  1.2395
 7090SOL     OW22815   3.360   4.064   4.015  0.1076  0.5262  0.3406
 7090SOL    HW122816   3.353   3.968   4.008  0.2192  0.3442  2.1453
 7090SOL    HW222817   3.454   4.082   4.008 -0.0281  0.6927 -1.5288
 7091SOL     OW22818   1.001   6.502   5.375 -0.8134  0.6777  0.1957
 7091SOL    HW122819   0.979   6.412   5.397  2.0094  0.1748  1.3515
 7091SOL    HW222820   0.972   6.552   5.452 -2.7925  0.9015 -0.6338
 7092SOL     OW22821   0.706   5.620   0.327  0.0723 -0.2398  0.2706
 7092SOL    HW122822   0.644   5.576   0.269  0.4432 -0.8072  0.3002
 7092SOL    HW222823   0.767   5.666   0.268 -0.3063  0.2346  0.2403
 7093SOL     OW22824   3.432   3.383   6.576  0.0388 -0.5634 -0.5772
 7093SOL    HW122825   3.517   3.358   6.540  0.7164 -0.3799  0.8405
 7093SOL    HW222826   3.402   3.306   6.624 -0.6671 -0.6639 -1.1520
 7094SOL     OW22827   4.858   6.479   1.907  0.1105  0.4917 -0.2306
 7094SOL    HW122828   4.778   6.505   1.861  1.2507  1.6328 -1.6438
 7094SOL    HW222829   4.869   6.544   1.975 -0.5559 -0.1127  0.4737
 7095SOL     OW22830   3.906   4.716   4.837  0.6686 -0.0061  0.5385
 7095SOL    HW122831   3.904   4.774   4.913 -0.0712  0.6280  0.0417
 7095SOL    HW222832   3.890   4.629   4.874  0.4226  0.2819  1.1251
 7096SOL     OW22833   0.687   4.615   2.015 -0.3897 -0.5542  0.0443
 7096SOL    HW122834   0.768   4.665   2.010 -1.4422  1.0906 -1.1969
 7096SOL    HW222835   0.710   4.529   1.979  1.0280 -0.4580  0.6550
 7097SOL     OW22836   3.201   3.784   6.306  0.6306 -0.1972 -0.0880
 7097SOL    HW122837   3.229   3.860   6.357 -1.5286 -0.4801  1.6954
 7097SOL    HW222838   3.168   3.821   6.224  1.0701  0.6326  0.1006
 7098SOL     OW22839   2.694   3.550   3.978 -0.0038 -0.3896 -0.4362
 7098SOL    HW122840   2.656   3.637   3.967 -0.3343 -0.7327 -2.6279
 7098SOL    HW222841   2.732   3.550   4.065 -0.6961  1.6684 -0.0899
 7099SOL     OW22842   5.008   2.940   4.231  0.4225 -0.0152 -0.0894
 7099SOL    HW122843   5.025   2.920   4.323  2.2828  0.5605 -0.2772
 7099SOL    HW222844   4.945   3.013   4.234 -1.8231 -1.8588  0.6321
 7100SOL     OW22845   5.232   4.575   4.997  0.3853 -0.1737 -0.2055
 7100SOL    HW122846   5.293   4.552   5.067 -0.3355 -0.8700  0.1993
 7100SOL    HW222847   5.285   4.625   4.935  0.9714  0.7585  0.9868
 7101SOL     OW22848   0.010   1.626   2.873 -0.1399 -0.4660 -0.0591
 7101SOL    HW122849   0.037   1.632   2.964 -1.0287  1.0140  0.1271
 7101SOL    HW222850  -0.085   1.636   2.875  0.0490  3.1013 -1.3573
 7102SOL     OW22851   6.109   3.017   5.208  0.5769 -0.2421  0.5312
 7102SOL    HW122852   6.080   3.091   5.262  1.5062  0.8690 -0.4425
 7102SOL    HW222853   6.167   2.967   5.266  1.6532  0.9925  0.5628
 7103SOL     OW22854   3.590   3.716   5.830  0.5142  0.2554 -0.0365
 7103SOL    HW122855   3.564   3.640   5.881 -1.8937 -0.5477 -2.2169
 7103SOL    HW222856   3.631   3.678   5.751  0.3578  1.2515 -0.6107
 7104SOL     OW22857   0.869   1.973   2.075  0.2695  0.0515 -0.0796
 7104SOL    HW122858   0.922   2.041   2.117  0.3740 -0.4984  0.6865
 7104SOL    HW222859   0.779   1.993   2.102  0.1825  0.4139 -0.6022
 7105SOL     OW22860   3.002   1.964   2.156 -0.0659 -0.2415 -0.5514
 7105SOL    HW122861   3.080   1.990   2.205 -1.1385  0.7538  0.6983
 7105SOL    HW222862   2.997   2.026   2.083 -1.2068  1.6056  0.9873
 7106SOL     OW22863   0.513   1.647   0.017  0.3646 -0.5165 -0.0283
 7106SOL    HW122864   0.520   1.558  -0.015  1.5110 -0.8610  1.0781
 7106SOL    HW222865   0.601   1.667   0.051 -0.0654  0.7696  0.3766
 7107SOL     OW22866   3.603   3.622   6.119  0.3121  0.4643  0.2693
 7107SOL    HW122867   3.547   3.600   6.194 -2.8101 -0.2460 -2.0870
 7107SOL    HW222868   3.614   3.716   6.125 -0.6412  0.5435  1.1335
 7108SOL     OW22869   1.777   4.962   5.386 -0.5332 -0.2587 -0.2164
 7108SOL    HW122870   1.799   4.913   5.465  0.8531  1.2852  0.4050
 7108SOL    HW222871   1.730   5.039   5.418  1.4842  1.2361 -0.6819
 7109SOL     OW22872   1.038   6.481   2.859 -0.3238 -0.3848 -0.4122
 7109SOL    HW122873   1.063   6.559   2.908 -0.2898 -1.1279  0.7914
 7109SOL    HW222874   0.943   6.484   2.855 -0.3001 -0.0636 -0.7401
 7110SOL     OW22875   6.511   2.993   5.294 -0.4922 -0.2109 -0.6293
 7110SOL    HW122876   6.553   3.054   5.355  0.9709 -1.7656 -0.0049
 7110SOL    HW222877   6.491   3.045   5.217  0.2203  1.1648  0.0852
 7111SOL     OW22878   5.875   0.630   3.894 -0.4048 -0.5231 -0.1557
 7111SOL    HW122879   5.885   0.621   3.800  0.2013  1.9752 -0.4075
 7111SOL    HW222880   5.931   0.561   3.931 -0.9227 -1.7644 -1.5769
 7112SOL     OW22881   0.103   4.685   3.838  0.2523  0.1167 -0.2051
 7112SOL    HW122882   0.018   4.702   3.797  0.4709  1.3939 -0.1735
 7112SOL    HW222883   0.110   4.589   3.841 -0.5075 -0.0006 -1.5924
 7113SOL     OW22884   0.533   2.638   5.952 -0.3379 -0.3740 -0.4958
 7113SOL    HW122885   0.599   2.696   5.989  0.1261 -0.3575 -1.3144
 7113SOL    HW222886   0.501   2.684   5.874 -1.1679 -0.4754 -0.2290
 7114SOL     OW22887   1.124   4.626   6.328  0.5651  0.1676  0.3615
 7114SOL    HW122888   1.065   4.573   6.381  0.7440  1.6377  2.1354
 7114SOL    HW222889   1.067   4.676   6.270  0.3207 -0.9362 -0.3741
 7115SOL     OW22890   4.186   1.764   5.901 -0.2088  0.4776 -0.3569
 7115SOL    HW122891   4.108   1.769   5.956  0.0722  0.1874  0.0702
 7115SOL    HW222892   4.214   1.855   5.890  0.9358  0.4461  1.7219
 7116SOL     OW22893   2.827   1.290   1.295  0.3231  0.1035  0.1136
 7116SOL    HW122894   2.832   1.322   1.386 -0.0649  1.1892 -0.2299
 7116SOL    HW222895   2.908   1.241   1.282  0.1740 -0.4695  1.1893
 7117SOL     OW22896   1.093   6.284   0.945 -0.2201  0.5673  0.6226
 7117SOL    HW122897   1.158   6.232   0.992  0.4564  1.5043  0.7604
 7117SOL    HW222898   1.010   6.264   0.989 -0.6310 -2.8599 -1.3490
 7118SOL     OW22899   0.274   5.101   6.226  0.2224  0.3360 -0.6291
 7118SOL    HW122900   0.258   5.172   6.288  1.8912  0.1770  0.0348
 7118SOL    HW222901   0.352   5.128   6.177  1.3886 -1.3623  0.1912
 7119SOL     OW22902   4.701   3.434   2.930  0.2213 -0.6150  0.6460
 7119SOL    HW122903   4.654   3.517   2.939  0.6852 -0.3834  0.9671
 7119SOL    HW222904   4.683   3.405   2.841  2.9092  1.6180 -0.7858
 7120SOL     OW22905   1.289   1.633   0.463  0.8323  0.1004  0.1460
 7120SOL    HW122906   1.362   1.593   0.510  0.5110  0.2439  0.7692
 7120SOL    HW222907   1.227   1.659   0.531  0.0285 -0.3536 -0.3954
 7121SOL     OW22908   2.462   1.560   3.099 -0.1587  0.1060 -0.3948
 7121SOL    HW122909   2.393   1.507   3.139 -0.4353  0.0922 -0.8820
 7121SOL    HW222910   2.449   1.550   3.005 -2.4405  3.7249 -0.6718
 7122SOL     OW22911   2.050   2.933   0.621  0.3720 -0.6666  0.3115
 7122SOL    HW122912   2.101   3.013   0.621 -0.5811 -0.0256 -0.3172
 7122SOL    HW222913   1.959   2.962   0.612 -0.1266 -1.7574  1.4479
 7123SOL     OW22914   5.561   4.883   2.302 -0.5862  0.0337  0.7061
 7123SOL    HW122915   5.545   4.850   2.213 -0.6037  1.0952  0.3062
 7123SOL    HW222916   5.491   4.846   2.355 -1.3346  0.4465  0.0143
 7124SOL     OW22917   5.403   0.568   2.856 -0.2596  0.2804 -0.6473
 7124SOL    HW122918   5.460   0.547   2.781  0.2204  0.7769 -0.4245
 7124SOL    HW222919   5.328   0.612   2.816  0.4989  1.5411 -0.7588
 7125SOL     OW22920   3.107   4.139   6.008  0.5563  0.6262 -0.0234
 7125SOL    HW122921   3.030   4.091   5.977  1.6081  0.0641 -1.9022
 7125SOL    HW222922   3.173   4.071   6.024  1.2053  1.2335 -0.0920
 7126SOL     OW22923   1.122   6.668   5.750 -0.6237 -0.0363  0.7051
 7126SOL    HW122924   1.031   6.668   5.781 -0.5225 -2.0930  1.1635
 7126SOL    HW222925   1.134   6.581   5.712  1.2259  0.1103  0.8478
 7127SOL     OW22926   1.152   3.595   3.776 -0.0686 -0.0575  0.1622
 7127SOL    HW122927   1.143   3.678   3.823  0.1585  0.3258 -0.4600
 7127SOL    HW222928   1.113   3.530   3.835 -0.7338  0.5658  0.4327
 7128SOL     OW22929   0.447   5.557   5.578 -0.5804  0.2141 -0.7397
 7128SOL    HW122930   0.439   5.613   5.655 -0.5090  0.7255 -1.0949
 7128SOL    HW222931   0.359   5.521   5.565 -0.7652  0.6893 -0.8352
 7129SOL     OW22932   3.243   1.627   0.816 -0.1225 -0.0021 -0.0453
 7129SOL    HW122933   3.286   1.684   0.752 -3.1464  0.6165 -1.7038
 7129SOL    HW222934   3.180   1.684   0.860 -2.3679 -1.6812 -0.8894
 7130SOL     OW22935   5.956   2.226   0.823  0.4152 -0.2169 -0.4109
 7130SOL    HW122936   5.874   2.231   0.871  1.3013 -0.1418  1.1589
 7130SOL    HW222937   6.023   2.254   0.885  1.9710 -2.8629 -0.7426
 7131SOL     OW22938   6.365   5.543   1.090 -0.0231  0.2942 -0.6154
 7131SOL    HW122939   6.455   5.538   1.121  0.3406  0.1300 -1.6809
 7131SOL    HW222940   6.312   5.520   1.167  0.8551 -0.2357 -0.1568
 7132SOL     OW22941   2.589   4.131   4.090 -0.1010  0.5305 -0.2574
 7132SOL    HW122942   2.656   4.064   4.078 -0.1179  0.6390 -1.0366
 7132SOL    HW222943   2.509   4.094   4.052  0.3346  1.6846 -2.5184
 7133SOL     OW22944   2.619   5.955   6.444 -0.6126 -0.2125  0.5729
 7133SOL    HW122945   2.700   5.980   6.399 -1.8452  0.7305 -1.2879
 7133SOL    HW222946   2.594   6.032   6.495 -1.8019  0.6463 -1.1937
 7134SOL     OW22947   3.585   2.031   0.821 -0.2344 -0.5799  0.1998
 7134SOL    HW122948   3.656   2.065   0.876  1.4098 -2.8975 -0.3630
 7134SOL    HW222949   3.506   2.043   0.874  0.7338  0.8323  1.4059
 7135SOL     OW22950   4.655   0.126   5.396 -0.0924  0.4298  0.2021
 7135SOL    HW122951   4.589   0.192   5.377 -1.1053 -1.1221 -2.0926
 7135SOL    HW222952   4.735   0.159   5.354 -0.3002  0.6786  0.0012
 7136SOL     OW22953   5.531   6.792   2.013  0.1787 -0.2963 -0.1370
 7136SOL    HW122954   5.559   6.701   2.002 -0.3866 -0.4398 -0.4514
 7136SOL    HW222955   5.477   6.791   2.092  0.6482 -0.1194  0.1878
 7137SOL     OW22956   3.588   2.962   1.366 -0.3955 -0.1082 -0.0638
 7137SOL    HW122957   3.590   2.871   1.396 -0.5151 -0.2172 -0.3804
 7137SOL    HW222958   3.603   2.956   1.271 -0.6452  0.1836 -0.1219
 7138SOL     OW22959   1.070   2.174   0.359  0.4848 -0.4221  0.4206
 7138SOL    HW122960   1.008   2.185   0.287 -0.0211 -1.1457  0.7378
 7138SOL    HW222961   1.102   2.263   0.377  0.0919 -0.1442 -0.2255
 7139SOL     OW22962   6.515   4.523   1.740 -0.5251  0.3210  0.2444
 7139SOL    HW122963   6.550   4.511   1.829 -3.1289 -1.2523  1.1956
 7139SOL    HW222964   6.502   4.617   1.731  0.5520  0.5811  1.2102
 7140SOL     OW22965   3.358   1.899   1.802 -0.0186 -0.2251 -0.1336
 7140SOL    HW122966   3.404   1.877   1.721 -0.4769  1.4855 -0.9102
 7140SOL    HW222967   3.321   1.815   1.832 -1.8764 -0.5968 -3.0020
 7141SOL     OW22968   3.310   3.620   1.804 -0.1412  0.2207  0.1438
 7141SOL    HW122969   3.268   3.578   1.730  0.7590  0.2582 -0.3980
 7141SOL    HW222970   3.404   3.610   1.788  0.0941 -0.7022  1.7957
 7142SOL     OW22971   3.301   5.594   4.680 -0.5700  0.7384  0.2725
 7142SOL    HW122972   3.348   5.630   4.755 -0.3397  2.4709 -0.6537
 7142SOL    HW222973   3.211   5.582   4.712 -0.5433  1.7172  0.7504
 7143SOL     OW22974   4.359   1.502   0.079  0.6091  0.6924  0.0331
 7143SOL    HW122975   4.362   1.500  -0.017 -0.3020 -2.2421 -0.0138
 7143SOL    HW222976   4.268   1.524   0.099  0.2157 -0.9748  0.1610
 7144SOL     OW22977   0.994   2.480   0.041 -0.2358  0.1788  0.1478
 7144SOL    HW122978   0.977   2.552   0.102 -0.3344  0.1371  0.1695
 7144SOL    HW222979   0.966   2.514  -0.044  0.4233  0.4414  0.0276
 7145SOL     OW22980   2.274   4.435   2.710  0.0350 -0.0807  0.2702
 7145SOL    HW122981   2.206   4.399   2.767  0.4651  1.8338  2.0612
 7145SOL    HW222982   2.282   4.527   2.735 -0.1117  1.0586 -3.2407
 7146SOL     OW22983   6.029   5.739   0.146  0.2223  0.6836 -0.1515
 7146SOL    HW122984   6.113   5.732   0.191  1.0670  0.9117 -1.6260
 7146SOL    HW222985   6.049   5.784   0.064 -1.2303  0.1813 -0.8232
 7147SOL     OW22986   2.446   0.800   5.843  0.1495 -0.3153  0.6629
 7147SOL    HW122987   2.421   0.864   5.777  1.2327 -0.5229  0.0330
 7147SOL    HW222988   2.537   0.822   5.865  0.1897 -0.9896  1.2088
 7148SOL     OW22989   4.385   0.954   3.440 -0.0366 -0.3139  0.4187
 7148SOL    HW122990   4.302   0.950   3.487  0.3586  1.1571  1.3047
 7148SOL    HW222991   4.447   0.990   3.503  1.1289 -0.7555 -0.4357
 7149SOL     OW22992   4.801   3.663   1.599  0.5419  0.0483 -0.1885
 7149SOL    HW122993   4.807   3.721   1.675 -0.4091 -0.5988  0.4132
 7149SOL    HW222994   4.733   3.701   1.544 -1.0901 -1.1383  0.8696
 7150SOL     OW22995   2.778   1.753   4.205 -0.2577 -0.4657  0.1818
 7150SOL    HW122996   2.753   1.690   4.138  0.7711 -0.4238 -0.2564
 7150SOL    HW222997   2.782   1.837   4.159  3.6469 -0.8874 -0.5745
 7151SOL     OW22998   4.911   5.942   2.917  0.7700 -0.5052 -0.2423
 7151SOL    HW122999   4.902   5.883   2.842  0.8141 -1.7383  0.6912
 7151SOL    HW223000   4.910   6.029   2.878 -2.4081 -0.9139 -1.4257
 7152SOL     OW23001   3.516   0.156   3.641 -0.9192 -0.0511  0.3732
 7152SOL    HW123002   3.568   0.117   3.711 -2.1616  1.7250  2.4253
 7152SOL    HW223003   3.468   0.082   3.604  1.6564 -1.4364 -0.4132
 7153SOL     OW23004   0.856   0.403   3.121  0.1797  0.9220 -0.5744
 7153SOL    HW123005   0.900   0.318   3.122  1.2883  1.3835  2.7501
 7153SOL    HW223006   0.774   0.387   3.075  0.3573 -1.9586 -0.0941
 7154SOL     OW23007   3.220   5.411   2.920 -0.3775 -0.2276 -0.1693
 7154SOL    HW123008   3.312   5.396   2.901 -0.0431 -0.5832  1.5808
 7154SOL    HW223009   3.190   5.331   2.962 -2.2363 -1.1908 -3.0203
 7155SOL     OW23010   2.799   3.357   0.566 -0.0868  0.1268 -0.1968
 7155SOL    HW123011   2.866   3.426   0.559 -0.2594  0.1175 -2.4406
 7155SOL    HW223012   2.838   3.292   0.624  1.6973  0.3110 -1.1279
 7156SOL     OW23013   6.535   6.208   0.900  0.5420  0.7198 -0.2814
 7156SOL    HW123014   6.622   6.187   0.865  0.7288  2.7413 -1.1597
 7156SOL    HW223015   6.518   6.297   0.870 -0.7146  1.3560  2.0714
 7157SOL     OW23016   1.741   2.375   2.399  0.0888  0.3497  0.0269
 7157SOL    HW123017   1.783   2.369   2.313  0.4417  1.4621  0.1085
 7157SOL    HW223018   1.709   2.465   2.404 -0.6812  0.0505  0.7208
 7158SOL     OW23019   4.513   6.389   2.767  0.0732  0.1964  0.8750
 7158SOL    HW123020   4.428   6.345   2.764  1.5489 -2.9107 -0.7187
 7158SOL    HW223021   4.499   6.466   2.822 -3.2424 -1.2856  2.3621
 7159SOL     OW23022   3.551   1.320   5.543  0.2961 -0.0598 -0.0130
 7159SOL    HW123023   3.645   1.331   5.528  0.1909  0.3319 -0.3913
 7159SOL    HW223024   3.538   1.352   5.632  0.4009  0.5825 -0.2243
 7160SOL     OW23025   5.877   1.539   5.007 -0.1566 -0.2479  0.7163
 7160SOL    HW123026   5.828   1.608   5.051 -0.3787  0.3343 -0.4017
 7160SOL    HW223027   5.951   1.583   4.965 -0.5030 -0.6001 -0.3176
 7161SOL     OW23028   2.749   3.350   1.899 -0.5970 -0.1537 -0.2916
 7161SOL    HW123029   2.785   3.307   1.822  0.9633 -0.5291  0.5970
 7161SOL    HW223030   2.747   3.281   1.966 -2.3021  0.0556 -0.0713
 7162SOL     OW23031   1.172   0.572   1.094  0.3415  0.0155  0.0876
 7162SOL    HW123032   1.219   0.490   1.078 -0.6036 -0.1279 -2.5838
 7162SOL    HW223033   1.157   0.607   1.006 -1.4101  1.8289  1.0465
 7163SOL     OW23034   2.613   3.112   4.344  0.0208  0.4456 -0.0966
 7163SOL    HW123035   2.616   3.058   4.423 -0.8143  0.3613 -0.1156
 7163SOL    HW223036   2.583   3.198   4.375 -1.3579  0.1174 -0.4592
 7164SOL     OW23037   1.036   2.220   2.769  0.2209 -0.2730 -0.9029
 7164SOL    HW123038   1.087   2.227   2.850 -1.2774 -0.5480  0.1032
 7164SOL    HW223039   1.086   2.271   2.704  0.8172  1.0306  0.5150
 7165SOL     OW23040   5.403   3.282   3.714  0.2968  0.2317  0.2446
 7165SOL    HW123041   5.395   3.377   3.706  1.0787  0.5617  2.5739
 7165SOL    HW223042   5.370   3.248   3.631 -1.7764  2.4459  0.0537
 7166SOL     OW23043   1.218   4.971   0.793  0.1544  0.0997 -0.0602
 7166SOL    HW123044   1.202   4.892   0.844  0.2067  0.6007  0.7496
 7166SOL    HW223045   1.183   5.042   0.846 -0.7084  0.5465 -1.1839
 7167SOL     OW23046   0.808   3.948   3.155  0.0376 -0.1915  0.0172
 7167SOL    HW123047   0.900   3.963   3.135 -0.3625  1.2146 -0.8700
 7167SOL    HW223048   0.806   3.935   3.250  1.1350 -0.2184  0.0503
 7168SOL     OW23049   5.282   4.848   0.180  0.3136  0.1655 -0.6143
 7168SOL    HW123050   5.314   4.840   0.091  0.9204 -2.4692 -0.2692
 7168SOL    HW223051   5.283   4.758   0.214 -1.3583  0.8562  1.5461
 7169SOL     OW23052   6.433   0.935   5.821  0.2837 -1.1256 -0.8237
 7169SOL    HW123053   6.510   0.955   5.874  0.0264  0.3573 -0.9570
 7169SOL    HW223054   6.419   0.841   5.834  0.7009 -0.9779  1.1053
 7170SOL     OW23055   2.660   1.338   2.565 -0.6562 -0.3767 -0.1315
 7170SOL    HW123056   2.696   1.426   2.575 -0.5235 -0.2552 -1.4826
 7170SOL    HW223057   2.615   1.340   2.481 -1.8981 -1.1949  0.4885
 7171SOL     OW23058   2.287   1.365   3.190 -0.1022  0.2127 -0.1805
 7171SOL    HW123059   2.299   1.317   3.272  0.6593  0.2097 -0.2863
 7171SOL    HW223060   2.230   1.310   3.138  0.7009 -0.5488 -0.2695
 7172SOL     OW23061   1.587   0.558   5.223 -0.1246  0.5965 -0.0491
 7172SOL    HW123062   1.574   0.489   5.158  0.1969  0.2269  0.2736
 7172SOL    HW223063   1.572   0.515   5.307 -0.8740  1.1523  0.1102
 7173SOL     OW23064   6.297   0.369   4.312 -0.3019 -0.2933 -0.3767
 7173SOL    HW123065   6.226   0.343   4.254 -0.2077  0.8752 -1.0477
 7173SOL    HW223066   6.257   0.373   4.399 -1.0332  0.2348 -0.7271
 7174SOL     OW23067   6.309   4.068   1.864 -0.6064 -0.3147 -0.1573
 7174SOL    HW123068   6.220   4.033   1.856 -0.9559  0.7225 -0.9331
 7174SOL    HW223069   6.366   3.993   1.846 -1.3293 -0.6268 -1.2040
 7175SOL     OW23070   1.882   1.593   2.399  0.0597 -0.0151  0.2463
 7175SOL    HW123071   1.976   1.578   2.397  0.0683  0.0963 -0.5509
 7175SOL    HW223072   1.857   1.576   2.489  0.4443 -2.4642 -0.0465
 7176SOL     OW23073   6.298   6.741   3.359  0.3118 -0.2102  0.6461
 7176SOL    HW123074   6.231   6.776   3.300  1.6008 -0.1095 -0.8265
 7176SOL    HW223075   6.310   6.651   3.330  0.9799 -0.1511  0.7314
 7177SOL     OW23076   6.770   4.126   4.835  0.2032 -0.0580 -0.3215
 7177SOL    HW123077   6.715   4.174   4.773 -0.2181  2.2603  1.7158
 7177SOL    HW223078   6.714   4.110   4.911  1.1872 -1.3139  0.1760
 7178SOL     OW23079   2.813   1.956   3.906 -0.5045 -0.1176 -0.0916
 7178SOL    HW123080   2.851   1.869   3.912  0.1134  0.2246  1.3310
 7178SOL    HW223081   2.872   2.004   3.849  2.3259  0.8722  3.2976
 7179SOL     OW23082   0.199   2.879   4.280 -0.0171  0.0368  0.0714
 7179SOL    HW123083   0.216   2.929   4.361 -0.4768 -0.2870  0.3691
 7179SOL    HW223084   0.274   2.900   4.224 -0.1834  1.0440  0.1970
 7180SOL     OW23085   4.316   4.718   2.401  0.1529  0.3749  0.6808
 7180SOL    HW123086   4.260   4.795   2.389 -2.5934 -1.7667 -1.3010
 7180SOL    HW223087   4.383   4.726   2.334 -0.3164  0.8838  0.2635
 7181SOL     OW23088   1.709   6.485   1.441  0.3663  0.2726  0.0235
 7181SOL    HW123089   1.680   6.524   1.358  1.7029 -1.4012 -1.3056
 7181SOL    HW223090   1.804   6.476   1.431  0.3822 -1.1589  1.2099
 7182SOL     OW23091   6.098   3.690   4.904  0.2001 -0.6875 -0.2632
 7182SOL    HW123092   6.076   3.672   4.996  1.6609  0.2543  0.3095
 7182SOL    HW223093   6.118   3.783   4.903 -0.7470 -0.4775 -1.7714
 7183SOL     OW23094   2.359   3.858   1.937 -0.0490 -0.4160  0.2667
 7183SOL    HW123095   2.396   3.846   2.025 -1.5019  0.0532  0.9783
 7183SOL    HW223096   2.353   3.953   1.927 -1.2554 -0.4710  0.2896
 7184SOL     OW23097   3.261   6.111   5.565  0.0450  0.1142 -0.0493
 7184SOL    HW123098   3.270   6.093   5.658  2.5917  1.7094  0.1328
 7184SOL    HW223099   3.182   6.065   5.538 -1.6510  0.8660  3.2077
 7185SOL     OW23100   5.158   6.354   3.617 -0.8389  0.2676  0.1858
 7185SOL    HW123101   5.200   6.367   3.702  0.3184 -0.9114 -0.1734
 7185SOL    HW223102   5.228   6.323   3.560 -1.8493 -0.0953 -0.8968
 7186SOL     OW23103   2.700   5.044   1.040  0.2064 -0.4479 -0.0812
 7186SOL    HW123104   2.693   4.957   1.000 -0.7066 -0.4377  0.0432
 7186SOL    HW223105   2.766   5.033   1.109  0.5666 -0.8807 -0.4880
 7187SOL     OW23106   4.974   0.046   5.712  0.0915  0.1569 -0.0472
 7187SOL    HW123107   4.887   0.071   5.741  0.2311  1.5066 -0.7020
 7187SOL    HW223108   4.960   0.001   5.629  0.0560  0.9911 -0.4996
 7188SOL     OW23109   6.561   1.962   2.874  0.0153  0.0430 -0.1891
 7188SOL    HW123110   6.609   2.045   2.880 -1.3245  0.8622 -0.3771
 7188SOL    HW223111   6.586   1.926   2.789  1.8555 -0.5943  0.5542
 7189SOL     OW23112   4.993   1.845   1.563  0.1700 -0.0846  0.2616
 7189SOL    HW123113   4.942   1.821   1.486  0.0715 -0.4141  0.4242
 7189SOL    HW223114   5.015   1.937   1.550  0.1245 -0.1290 -0.1405
 7190SOL     OW23115   0.820   0.594   4.319 -0.1024  0.2833 -0.5242
 7190SOL    HW123116   0.835   0.672   4.372 -1.2007  1.4233 -1.8260
 7190SOL    HW223117   0.774   0.626   4.241 -1.3326 -1.7697 -0.7037
 7191SOL     OW23118   5.657   3.204   3.773 -0.1695 -0.3258 -0.0691
 7191SOL    HW123119   5.568   3.197   3.739 -0.1043  0.1543 -0.3418
 7191SOL    HW223120   5.662   3.292   3.809 -0.0867 -0.6569  0.7708
 7192SOL     OW23121   2.838   2.856   1.922  0.2113  0.4494  0.4351
 7192SOL    HW123122   2.873   2.783   1.972 -1.9504 -0.5445  0.6041
 7192SOL    HW223123   2.871   2.842   1.833  0.4276 -0.3147  0.6272
 7193SOL     OW23124   5.142   6.585   1.358 -0.1760  0.0784 -0.1799
 7193SOL    HW123125   5.091   6.665   1.373  0.6545  0.5823  0.0121
 7193SOL    HW223126   5.105   6.522   1.420  0.3244  0.8423  0.9319
 7194SOL     OW23127   3.607   1.796   6.520  0.1853  0.2890  0.3500
 7194SOL    HW123128   3.550   1.729   6.482 -0.1083 -0.1251  1.5045
 7194SOL    HW223129   3.644   1.841   6.444 -1.0027 -0.0021 -0.4216
 7195SOL     OW23130   2.167   5.548   4.579 -0.6368  0.2890  0.6693
 7195SOL    HW123131   2.094   5.601   4.545 -0.4986  0.0394 -0.0408
 7195SOL    HW223132   2.131   5.506   4.657 -1.4898 -0.3338 -0.0198
 7196SOL     OW23133   1.130   3.744   4.189  0.4347  0.1932 -0.2637
 7196SOL    HW123134   1.035   3.732   4.194  0.4242  0.2012 -0.4401
 7196SOL    HW223135   1.150   3.806   4.259  0.3531 -0.0642 -0.0090
 7197SOL     OW23136   2.665   4.282   4.343  0.2483 -0.4398  0.1022
 7197SOL    HW123137   2.644   4.256   4.253  1.6082 -0.1760 -0.3084
 7197SOL    HW223138   2.584   4.320   4.376 -0.0980  0.0213 -1.2251
 7198SOL     OW23139   5.325   6.785   4.431  0.4503 -0.2258 -0.3370
 7198SOL    HW123140   5.243   6.822   4.465 -0.1348 -1.0281 -0.8360
 7198SOL    HW223141   5.391   6.850   4.453 -0.4477  0.8279 -0.6308
 7199SOL     OW23142   3.232   4.049   3.732 -0.3876 -0.3143  0.0746
 7199SOL    HW123143   3.289   3.977   3.761  0.1311 -0.4551 -1.2173
 7199SOL    HW223144   3.146   4.028   3.769 -0.4166 -2.0049 -0.8272
 7200SOL     OW23145   5.978   3.835   0.480 -0.8272 -0.0188 -0.2505
 7200SOL    HW123146   5.894   3.876   0.458 -1.2175 -1.0124 -0.6739
 7200SOL    HW223147   5.979   3.753   0.429  0.8889  0.4996 -1.1449
 7201SOL     OW23148   2.023   3.630   2.592  0.5908 -0.4982  0.5097
 7201SOL    HW123149   2.007   3.698   2.527 -0.5746  0.7129  1.9663
 7201SOL    HW223150   2.104   3.656   2.635  0.7836 -0.6972  0.2675
 7202SOL     OW23151   4.918   4.126   1.889 -0.2581 -0.3801 -0.1845
 7202SOL    HW123152   4.962   4.211   1.887 -2.3818  0.7595 -1.6205
 7202SOL    HW223153   4.965   4.077   1.956  0.8652  2.0167  0.9034
 7203SOL     OW23154   6.281   1.589   4.372  0.1469  0.6191  0.2075
 7203SOL    HW123155   6.305   1.679   4.351  0.2743  0.5055 -0.1341
 7203SOL    HW223156   6.277   1.544   4.288 -5.1760  1.5084 -0.4117
 7204SOL     OW23157   5.365   3.009   5.951  0.5841 -0.1516  0.6546
 7204SOL    HW123158   5.285   3.045   5.913  0.0404  0.2002  2.0460
 7204SOL    HW223159   5.430   3.015   5.882 -0.3660  0.4005 -0.2129
 7205SOL     OW23160   0.964   1.136   6.044  0.2419  0.5317 -0.3649
 7205SOL    HW123161   0.958   1.192   6.122  0.7610 -0.0023  0.0593
 7205SOL    HW223162   1.026   1.067   6.068 -1.6015 -1.1921 -0.2915
 7206SOL     OW23163   4.696   6.112   5.849  0.6051  0.3985 -0.1565
 7206SOL    HW123164   4.729   6.202   5.854  1.3677  0.0630  1.2751
 7206SOL    HW223165   4.734   6.068   5.925  1.9788 -1.6995 -1.9419
 7207SOL     OW23166   2.768   2.704   4.338 -0.2767 -0.3619  0.0777
 7207SOL    HW123167   2.767   2.635   4.404 -1.1920 -0.6361 -0.2078
 7207SOL    HW223168   2.829   2.672   4.271 -1.0043 -1.0903 -0.2477
 7208SOL     OW23169   4.128   3.424   1.015 -0.2032  0.6438  0.2189
 7208SOL    HW123170   4.052   3.384   0.973  0.1823 -1.6733  1.5871
 7208SOL    HW223171   4.194   3.430   0.945 -1.1756  1.5351 -0.6678
 7209SOL     OW23172   0.013   5.902   6.480 -0.3968 -0.0143 -0.3374
 7209SOL    HW123173   0.064   5.956   6.420 -0.1877 -0.4769 -0.5837
 7209SOL    HW223174   0.078   5.848   6.524 -0.3973  1.1990  1.2553
 7210SOL     OW23175   5.964   5.229   6.125 -0.6191 -0.0961  0.2980
 7210SOL    HW123176   6.022   5.236   6.200  0.2539 -0.4397 -0.3214
 7210SOL    HW223177   5.955   5.319   6.093 -1.5226  0.1463  1.1780
 7211SOL     OW23178   3.638   6.267   2.698 -0.1768 -0.0700  0.1373
 7211SOL    HW123179   3.691   6.233   2.770 -1.3932 -1.4330  0.4270
 7211SOL    HW223180   3.557   6.216   2.700  0.2387 -1.1084 -3.0111
 7212SOL     OW23181   1.637   5.525   2.675  0.3629 -0.1548  0.5349
 7212SOL    HW123182   1.560   5.512   2.620  0.0004  0.8369  0.7848
 7212SOL    HW223183   1.691   5.588   2.627  0.7426 -0.3964  0.6373
 7213SOL     OW23184   0.825   5.117   2.463  0.1432  0.0041 -0.5677
 7213SOL    HW123185   0.814   5.204   2.502 -0.3040 -0.4091  0.2486
 7213SOL    HW223186   0.797   5.128   2.372  2.4941  1.3082 -1.2202
 7214SOL     OW23187   2.445   2.751   4.160  0.1700  0.8367 -0.8009
 7214SOL    HW123188   2.490   2.671   4.134  1.3857  1.1003  0.3603
 7214SOL    HW223189   2.456   2.810   4.086  0.1343  0.2780 -1.2602
 7215SOL     OW23190   2.865   3.740   6.224  0.6923 -0.0663 -0.0148
 7215SOL    HW123191   2.783   3.695   6.244  0.6650 -0.4174 -0.8766
 7215SOL    HW223192   2.931   3.670   6.221  1.0705  0.2366  0.8676
 7216SOL     OW23193   1.317   2.356   0.274  0.5050 -0.1228  0.4942
 7216SOL    HW123194   1.340   2.264   0.258  0.7990  0.0135  0.1135
 7216SOL    HW223195   1.294   2.360   0.367  0.8939 -0.4954  0.6057
 7217SOL     OW23196   4.084   5.355   1.922 -0.1601  0.0620  0.0680
 7217SOL    HW123197   4.105   5.371   1.830 -1.0313  0.3690 -0.0926
 7217SOL    HW223198   4.128   5.273   1.943  0.8172  0.4637 -0.3514
 7218SOL     OW23199   6.381   0.929   0.419 -0.0369 -0.0335 -0.0970
 7218SOL    HW123200   6.436   0.920   0.497  0.4965  0.6459 -0.3808
 7218SOL    HW223201   6.438   0.971   0.354 -1.1942  1.7032 -0.0611
 7219SOL     OW23202   0.284   3.189   1.189 -0.0323 -0.6363  0.4440
 7219SOL    HW123203   0.341   3.219   1.260 -0.8646  1.1149  0.4167
 7219SOL    HW223204   0.297   3.094   1.186  1.5971 -0.4815  1.5357
 7220SOL     OW23205   0.588   0.838   0.588  0.5016 -0.0488  0.5773
 7220SOL    HW123206   0.498   0.869   0.598  0.5845 -0.1132  1.6220
 7220SOL    HW223207   0.642   0.911   0.620  1.0087  1.2127 -2.7086
 7221SOL     OW23208   6.715   4.603   2.452 -0.3508 -0.3466  0.2148
 7221SOL    HW123209   6.758   4.517   2.452 -0.1815 -0.3110  2.1632
 7221SOL    HW223210   6.785   4.664   2.475 -0.7989  0.1088  0.3802
 7222SOL     OW23211   5.441   5.005   4.825  0.0961  0.0714 -0.2222
 7222SOL    HW123212   5.452   5.034   4.735  0.0808 -1.4780 -0.7516
 7222SOL    HW223213   5.357   4.959   4.825 -0.3715  0.8985  0.8210
 7223SOL     OW23214   2.478   0.533   1.453  0.3943  0.5749  0.0503
 7223SOL    HW123215   2.386   0.508   1.463 -0.2519  2.3866 -0.9636
 7223SOL    HW223216   2.517   0.461   1.403 -0.6346  0.1427 -0.1599
 7224SOL     OW23217   0.982   3.074   3.630  0.2852  0.3969  0.1008
 7224SOL    HW123218   1.030   3.156   3.637 -0.2774  0.6642  0.9357
 7224SOL    HW223219   1.015   3.034   3.549 -0.3002  1.9958 -0.9891
 7225SOL     OW23220   0.885   0.381   6.021 -0.1781 -0.0206 -0.0267
 7225SOL    HW123221   0.827   0.445   6.062 -0.5136 -0.0822 -0.3942
 7225SOL    HW223222   0.832   0.302   6.014  0.4188 -0.5289  0.9548
 7226SOL     OW23223   3.975   2.396   5.421 -0.1114  0.0833  0.2934
 7226SOL    HW123224   3.991   2.443   5.503 -0.1473  0.3123  0.1686
 7226SOL    HW223225   4.010   2.308   5.437 -0.6917 -0.0629  0.7757
 7227SOL     OW23226   5.256   2.535   6.296  0.7609  0.0528 -0.3228
 7227SOL    HW123227   5.210   2.551   6.378  0.1768  1.1157 -0.8479
 7227SOL    HW223228   5.332   2.482   6.322 -1.1371 -2.5012  0.4450
 7228SOL     OW23229   3.905   2.113   6.377 -0.2853 -0.7134  0.0762
 7228SOL    HW123230   3.898   2.026   6.336  0.1689  0.4214 -2.6585
 7228SOL    HW223231   3.865   2.172   6.313  2.8491  1.5472 -0.0371
 7229SOL     OW23232   4.998   1.595   4.517  0.1614 -0.6814 -0.1887
 7229SOL    HW123233   4.919   1.541   4.524 -0.1042 -0.2593  0.0631
 7229SOL    HW223234   5.071   1.533   4.531 -0.1225 -1.0557 -0.3476
 7230SOL     OW23235   2.827   0.793   2.356  0.5153  0.2913  0.4644
 7230SOL    HW123236   2.901   0.743   2.321 -0.9780 -0.6661 -1.5065
 7230SOL    HW223237   2.865   0.876   2.384  2.1150  0.5282 -2.1033
 7231SOL     OW23238   2.759   3.396   1.521 -0.4221 -0.5054 -0.0395
 7231SOL    HW123239   2.804   3.320   1.559 -0.6050 -0.4357  0.3283
 7231SOL    HW223240   2.781   3.393   1.428 -0.0035 -0.7139  0.0604
 7232SOL     OW23241   4.484   5.263   0.799 -0.0558  0.4242  0.9563
 7232SOL    HW123242   4.498   5.291   0.889 -0.9718  1.3909  0.8073
 7232SOL    HW223243   4.399   5.219   0.800 -0.3551  0.9719  0.4594
 7233SOL     OW23244   2.331   2.882   0.056 -0.1128 -0.2334  0.2787
 7233SOL    HW123245   2.331   2.931  -0.026 -0.9509 -0.0418  0.3885
 7233SOL    HW223246   2.287   2.800   0.035 -0.6774 -0.0266  0.6209
 7234SOL     OW23247   0.397   0.692   4.979  0.4830 -0.9013  0.4405
 7234SOL    HW123248   0.471   0.725   4.928  0.3098 -0.7488  0.2818
 7234SOL    HW223249   0.322   0.744   4.948  0.4024 -0.7099  0.9584
 7235SOL     OW23250   6.060   5.047   5.372  0.3591 -0.6548 -0.2595
 7235SOL    HW123251   6.063   5.079   5.282  1.6457 -0.1447 -0.0509
 7235SOL    HW223252   5.978   5.083   5.408  0.3332 -0.0407 -0.9173
 7236SOL     OW23253   3.618   4.757   3.841 -0.0704  0.4945 -0.1039
 7236SOL    HW123254   3.702   4.771   3.797  0.5746 -0.9966  0.5806
 7236SOL    HW223255   3.569   4.701   3.781 -0.0226  0.1959  0.1387
 7237SOL     OW23256   6.057   3.216   6.688  0.2816  0.5833  0.0485
 7237SOL    HW123257   6.096   3.225   6.602  0.8126  1.0903  0.3367
 7237SOL    HW223258   6.122   3.168   6.740 -0.5801 -0.9073 -0.1763
 7238SOL     OW23259   5.076   3.787   2.744 -0.1069 -0.2413  0.0110
 7238SOL    HW123260   5.084   3.741   2.660 -0.5138 -0.1066 -0.1043
 7238SOL    HW223261   5.000   3.843   2.733  0.8114  1.0325 -0.1172
 7239SOL     OW23262   2.273   4.547   4.199 -0.1418  0.3829  0.0758
 7239SOL    HW123263   2.314   4.575   4.118  0.2745  0.2171  0.2262
 7239SOL    HW223264   2.298   4.455   4.209 -1.2801  0.0127 -0.2768
 7240SOL     OW23265   5.419   2.247   5.491 -0.0172 -0.2655 -0.0242
 7240SOL    HW123266   5.463   2.228   5.574 -0.8112  0.8946  0.6919
 7240SOL    HW223267   5.382   2.163   5.464  0.1714 -0.6407  0.8450
 7241SOL     OW23268   4.020   0.049   5.124 -0.4161 -0.0466  0.2528
 7241SOL    HW123269   4.017   0.117   5.191  2.5473  0.8767 -0.3667
 7241SOL    HW223270   3.997   0.094   5.043 -0.3679 -0.2306  0.1367
 7242SOL     OW23271   2.553   5.850   3.461  0.3917  0.2022  0.3396
 7242SOL    HW123272   2.476   5.799   3.485 -1.0433  0.9623 -2.2251
 7242SOL    HW223273   2.561   5.917   3.530 -1.6366  0.4751  0.3677
 7243SOL     OW23274   4.116   0.971   1.052  0.6288 -0.2452  0.3979
 7243SOL    HW123275   4.032   1.017   1.051  0.7115 -0.0613  1.0799
 7243SOL    HW223276   4.177   1.032   1.010  0.6535  0.1125  0.9380
 7244SOL     OW23277   3.197   0.785   6.166  0.1889  0.0623 -0.1927
 7244SOL    HW123278   3.179   0.726   6.239  2.0649  0.2083  0.4326
 7244SOL    HW223279   3.185   0.872   6.202 -0.2530  0.1262 -0.4748
 7245SOL     OW23280   6.462   4.940   1.359 -0.0940 -0.3389 -0.8095
 7245SOL    HW123281   6.396   4.890   1.407  1.0399 -0.1705  1.0559
 7245SOL    HW223282   6.545   4.903   1.388  0.6850  0.8898 -1.4098
 7246SOL     OW23283   3.772   1.919   5.367  0.0549  0.2569 -0.6760
 7246SOL    HW123284   3.764   1.892   5.275  1.3930  1.1896 -1.0963
 7246SOL    HW223285   3.800   2.011   5.362  1.2748 -0.0210  0.6525
 7247SOL     OW23286   1.377   2.018   2.401  0.2322  0.5599 -0.0378
 7247SOL    HW123287   1.390   2.007   2.307 -0.8446  1.7603 -0.3552
 7247SOL    HW223288   1.361   2.112   2.412  1.2978  0.6039  1.4748
 7248SOL     OW23289   2.816   2.214   3.760 -0.2163 -0.2302  0.0630
 7248SOL    HW123290   2.847   2.304   3.751  0.8984 -0.6188 -0.0606
 7248SOL    HW223291   2.891   2.160   3.735 -0.2570 -1.2307  1.9734
 7249SOL     OW23292   3.799   5.014   0.294  0.1852 -0.1842 -0.1445
 7249SOL    HW123293   3.703   5.017   0.292  0.1333 -0.0808  1.3053
 7249SOL    HW223294   3.821   5.020   0.387  1.6003 -0.3744 -0.4459
 7250SOL     OW23295   5.756   5.844   5.011 -0.0642 -0.1717 -0.5553
 7250SOL    HW123296   5.721   5.785   4.945 -2.1775  1.3798 -0.9164
 7250SOL    HW223297   5.812   5.904   4.962  1.8131 -1.5624 -0.2353
 7251SOL     OW23298   6.379   5.265   5.243  0.5414  0.2061 -0.0315
 7251SOL    HW123299   6.290   5.263   5.279 -0.0466  2.2319 -1.1943
 7251SOL    HW223300   6.433   5.222   5.309 -0.8045  1.7785  2.2185
 7252SOL     OW23301   3.483   0.774   5.190 -1.5346 -0.7086 -0.6606
 7252SOL    HW123302   3.434   0.725   5.257 -2.4641  2.3580  1.1427
 7252SOL    HW223303   3.550   0.821   5.240  0.0704 -1.0344 -2.4429
 7253SOL     OW23304   0.825   2.875   3.694 -0.4601  0.2016  0.0824
 7253SOL    HW123305   0.749   2.894   3.750 -0.0294 -1.1957  1.1946
 7253SOL    HW223306   0.868   2.960   3.683 -1.7724  0.8919  0.0121
 7254SOL     OW23307   3.751   1.850   5.103 -0.1111 -0.0834 -0.2115
 7254SOL    HW123308   3.810   1.845   5.028 -1.2963  3.0852 -1.5212
 7254SOL    HW223309   3.694   1.774   5.093  0.6897 -0.5360 -1.6842
 7255SOL     OW23310   6.412   5.889   4.848  0.4001  0.0640 -0.1812
 7255SOL    HW123311   6.468   5.965   4.844  0.2890  0.3033  1.7111
 7255SOL    HW223312   6.325   5.922   4.826  0.5160  0.2760 -0.3221
 7256SOL     OW23313   5.080   4.040   0.996 -0.3226  0.0187 -0.3259
 7256SOL    HW123314   5.146   4.045   1.065  0.5045  0.9449 -1.1507
 7256SOL    HW223315   5.130   4.035   0.915 -1.2804 -1.3016 -0.8661
 7257SOL     OW23316   0.116   4.231   5.246  1.0300 -0.4029 -0.0953
 7257SOL    HW123317   0.186   4.293   5.264  2.3505 -1.7104 -0.4484
 7257SOL    HW223318   0.107   4.181   5.327 -0.2092  0.3885  0.2784
 7258SOL     OW23319   6.177   4.788   1.251  0.6267 -0.3300  0.1711
 7258SOL    HW123320   6.210   4.868   1.210  0.6666 -1.6479 -2.6347
 7258SOL    HW223321   6.231   4.776   1.329  2.4948  0.9233 -0.8570
 7259SOL     OW23322   1.278   5.780   1.179 -0.0070  0.2812  0.1314
 7259SOL    HW123323   1.262   5.836   1.103 -0.4128 -0.4358 -0.3251
 7259SOL    HW223324   1.190   5.756   1.210  0.1558 -0.2729  0.1823
 7260SOL     OW23325   1.401   4.801   0.561 -0.1993  0.1957 -0.2415
 7260SOL    HW123326   1.448   4.835   0.637  0.5137  0.8260 -0.9535
 7260SOL    HW223327   1.319   4.767   0.598  0.6984 -0.7423  0.9890
 7261SOL     OW23328   0.231   1.291   2.847 -0.0603  0.3512  0.0026
 7261SOL    HW123329   0.161   1.285   2.912 -1.2054  1.1126 -1.1051
 7261SOL    HW223330   0.273   1.375   2.864 -0.9142  0.9419 -0.7600
 7262SOL     OW23331   1.071   3.659   0.007 -0.4718 -0.4003  0.0387
 7262SOL    HW123332   1.033   3.697   0.086 -0.3272 -0.0929 -0.0380
 7262SOL    HW223333   1.022   3.578  -0.007 -1.0009 -0.0807  0.0195
 7263SOL     OW23334   2.511   5.024   1.811 -0.3814  0.1660  0.5425
 7263SOL    HW123335   2.426   5.066   1.829 -1.1762 -1.4324  0.7381
 7263SOL    HW223336   2.569   5.057   1.880 -1.1278  0.4900  1.0311
 7264SOL     OW23337   3.362   3.244   5.056 -0.0072  0.1484  0.3643
 7264SOL    HW123338   3.383   3.287   5.139  2.7548 -0.7682  0.2400
 7264SOL    HW223339   3.342   3.153   5.080 -0.7770  0.2496  0.1453
 7265SOL     OW23340   2.262   5.579   0.598 -0.4421  0.0703  0.1796
 7265SOL    HW123341   2.306   5.549   0.678  0.2778 -1.5599 -0.7789
 7265SOL    HW223342   2.216   5.502   0.566 -1.6210  1.0018 -0.4207
 7266SOL     OW23343   4.506   1.915   5.882 -0.2524  0.2304 -0.4713
 7266SOL    HW123344   4.532   1.931   5.792 -0.0049 -0.9096 -0.6166
 7266SOL    HW223345   4.432   1.973   5.896 -1.3693 -0.7391 -1.9586
 7267SOL     OW23346   3.974   6.393   4.993 -0.5246 -0.0980  0.2746
 7267SOL    HW123347   3.960   6.376   4.900 -0.4654 -1.9565  0.5641
 7267SOL    HW223348   3.929   6.476   5.010 -1.6681 -0.4055 -1.1180
 7268SOL     OW23349   2.108   5.395   3.463  0.5751 -0.1056  0.4963
 7268SOL    HW123350   2.047   5.339   3.415 -1.0574  0.6398  1.6075
 7268SOL    HW223351   2.176   5.335   3.494 -0.4251 -1.2599  0.5368
 7269SOL     OW23352   6.590   4.747   5.873 -0.1328 -0.9510  0.1615
 7269SOL    HW123353   6.530   4.708   5.938 -0.5510  0.0732  0.4061
 7269SOL    HW223354   6.591   4.840   5.895  1.0346 -0.8505 -0.2703
 7270SOL     OW23355   1.470   5.787   4.739  0.2970 -0.7418  0.3261
 7270SOL    HW123356   1.423   5.818   4.661 -1.2699 -2.8016  0.3567
 7270SOL    HW223357   1.435   5.839   4.811  1.4122  0.8491 -0.2117
 7271SOL     OW23358   5.338   0.901   1.279  0.0757 -0.1353  0.0218
 7271SOL    HW123359   5.247   0.882   1.300  0.8847 -2.8714  1.5794
 7271SOL    HW223360   5.380   0.911   1.365  1.2964  0.9070 -0.6643
 7272SOL     OW23361   3.420   0.223   6.778 -0.1678  0.1974 -0.4676
 7272SOL    HW123362   3.499   0.222   6.723 -1.1245 -1.2874 -1.9140
 7272SOL    HW223363   3.378   0.139   6.760 -2.5837  1.3300 -0.4641
 7273SOL     OW23364   2.028   4.028   4.599  0.2747 -0.5501  0.3487
 7273SOL    HW123365   2.052   3.936   4.610 -0.0099 -0.4926  1.5128
 7273SOL    HW223366   1.958   4.026   4.533 -0.5046 -1.2865  1.1729
 7274SOL     OW23367   3.645   4.417   0.039 -0.0296 -0.5662 -0.2332
 7274SOL    HW123368   3.637   4.483  -0.030 -1.9282 -0.3411  0.1536
 7274SOL    HW223369   3.634   4.334  -0.007  0.5367 -0.5269 -0.4522
 7275SOL     OW23370   3.512   1.862   3.915  0.4540 -0.7111  0.5480
 7275SOL    HW123371   3.537   1.904   3.832  0.1027 -1.1240  0.2318
 7275SOL    HW223372   3.502   1.935   3.976 -0.2170 -0.3211 -0.0168
 7276SOL     OW23373   3.741   4.840   4.598 -0.2785  0.3495  0.3944
 7276SOL    HW123374   3.799   4.816   4.670 -0.9483 -1.4426  0.3631
 7276SOL    HW223375   3.695   4.760   4.575 -2.5369  1.6250  0.1705
 7277SOL     OW23376   1.414   3.694   5.307  0.4543 -0.0926 -0.3780
 7277SOL    HW123377   1.447   3.688   5.396  0.7712  1.7248 -0.3264
 7277SOL    HW223378   1.490   3.672   5.252  0.9684  1.1300 -0.2047
 7278SOL     OW23379   2.468   4.886   4.047 -0.7776 -0.1375  0.2088
 7278SOL    HW123380   2.382   4.919   4.071 -0.9262 -1.2684  1.3285
 7278SOL    HW223381   2.456   4.792   4.035  0.1725 -0.2165 -0.2699
 7279SOL     OW23382   4.658   4.469   5.673  0.6390 -0.4551  0.2874
 7279SOL    HW123383   4.739   4.466   5.725  1.1001  0.5091 -0.3592
 7279SOL    HW223384   4.647   4.378   5.643  0.6300 -0.9293  1.6315
 7280SOL     OW23385   0.741   3.928   1.184  0.1353  0.0762  0.4377
 7280SOL    HW123386   0.703   3.986   1.118  0.9462 -1.0332 -1.0450
 7280SOL    HW223387   0.828   3.906   1.151 -0.1144 -1.9263  0.9827
 7281SOL     OW23388   4.307   4.652   1.812 -0.1071 -0.2755 -0.4260
 7281SOL    HW123389   4.262   4.676   1.893  0.6761  1.7956 -0.5515
 7281SOL    HW223390   4.365   4.580   1.838 -0.8247 -0.5279  0.5475
 7282SOL     OW23391   2.814   0.386   1.117 -0.0811  0.9262  0.2545
 7282SOL    HW123392   2.787   0.302   1.153  0.4086  0.8809  0.5190
 7282SOL    HW223393   2.807   0.447   1.190 -2.8587  1.6734 -0.5116
 7283SOL     OW23394   4.613   3.090   6.546  0.0803  0.0227 -0.2281
 7283SOL    HW123395   4.648   3.027   6.609 -0.4871 -0.7322 -0.6506
 7283SOL    HW223396   4.674   3.086   6.472 -1.2720 -1.8779 -1.3006
 7284SOL     OW23397   1.558   1.298   3.207 -0.0825  0.0032  0.1264
 7284SOL    HW123398   1.587   1.244   3.280 -1.2275 -1.0149 -0.1334
 7284SOL    HW223399   1.619   1.279   3.136  1.1256  1.1085  0.8176
 7285SOL     OW23400   3.959   3.551   4.983  0.3626 -0.3655  0.0093
 7285SOL    HW123401   3.963   3.604   5.062 -1.2487 -0.6577  0.3257
 7285SOL    HW223402   3.896   3.483   5.003  2.1351 -2.2595 -0.5072
 7286SOL     OW23403   5.305   3.734   6.129  0.3623 -0.1585 -0.0110
 7286SOL    HW123404   5.245   3.720   6.055  0.6933 -0.5162 -0.2193
 7286SOL    HW223405   5.341   3.647   6.146  2.2807  0.3461 -1.1543
 7287SOL     OW23406   2.055   5.406   4.793 -0.2786 -0.3736 -0.8250
 7287SOL    HW123407   2.055   5.461   4.871  0.4448 -0.6634 -0.6090
 7287SOL    HW223408   2.129   5.346   4.807 -0.4883 -0.7861 -1.4769
 7288SOL     OW23409   3.663   5.203   4.132 -0.3428  0.4500 -0.2756
 7288SOL    HW123410   3.750   5.168   4.147 -0.3952 -0.2653 -1.5543
 7288SOL    HW223411   3.661   5.284   4.183  1.3117  0.8585 -0.8006
 7289SOL     OW23412   5.961   2.906   3.274 -0.4005 -0.0891  0.0665
 7289SOL    HW123413   6.008   2.962   3.336  0.3430  1.3285 -1.7174
 7289SOL    HW223414   5.869   2.928   3.287 -0.3780 -0.7031  1.4790
 7290SOL     OW23415   6.763   2.557   3.057 -0.9223  0.4954 -0.6201
 7290SOL    HW123416   6.695   2.548   2.991 -0.7571  3.2802 -1.2789
 7290SOL    HW223417   6.757   2.649   3.086 -0.1107 -0.2466  2.2810
 7291SOL     OW23418   0.085   1.289   1.631  0.2546  0.0837  0.0947
 7291SOL    HW123419   0.123   1.222   1.689 -1.7426  0.0845  1.5158
 7291SOL    HW223420   0.046   1.239   1.560 -1.3736 -0.3511  1.2351
 7292SOL     OW23421   3.674   1.053   1.138  0.1222 -0.4963 -0.1631
 7292SOL    HW123422   3.603   1.033   1.077 -0.7951  1.9097 -0.0256
 7292SOL    HW223423   3.635   1.113   1.202  2.0462  0.2335  0.4293
 7293SOL     OW23424   5.931   6.264   1.977  0.6813  0.1493  0.2948
 7293SOL    HW123425   5.962   6.288   1.889  1.8868  0.7302  0.8625
 7293SOL    HW223426   6.011   6.253   2.029 -0.0268  0.3260  1.4582
 7294SOL     OW23427   4.422   6.446   3.546  0.4296 -0.5667 -0.0885
 7294SOL    HW123428   4.393   6.537   3.537  0.8164 -0.2967  1.0953
 7294SOL    HW223429   4.512   6.447   3.514  0.0981 -0.7778 -1.0632
 7295SOL     OW23430   2.315   4.430   1.298  0.4223  0.5941 -0.7225
 7295SOL    HW123431   2.292   4.514   1.338 -0.2704  0.2058 -0.2889
 7295SOL    HW223432   2.366   4.454   1.220  2.0575  1.3419  0.5233
 7296SOL     OW23433   4.293   3.385   5.675 -0.0879  0.2144  0.0123
 7296SOL    HW123434   4.330   3.319   5.735  0.0330 -0.6419 -0.9767
 7296SOL    HW223435   4.249   3.334   5.607  0.7272  1.1256 -1.2476
 7297SOL     OW23436   3.148   0.868   4.088 -0.1648  0.3465 -0.3222
 7297SOL    HW123437   3.156   0.960   4.114  0.2466 -0.0312  0.9435
 7297SOL    HW223438   3.081   0.869   4.020  0.0613  1.6229 -0.5560
 7298SOL     OW23439   5.256   6.414   6.424 -0.4657 -0.7825 -0.0416
 7298SOL    HW123440   5.243   6.322   6.401  0.2224 -0.9183  0.0963
 7298SOL    HW223441   5.299   6.451   6.347 -0.0251 -0.7636  0.2109
 7299SOL     OW23442   4.380   5.466   3.294 -0.6708  0.0956 -1.1969
 7299SOL    HW123443   4.298   5.436   3.334 -0.3997 -0.8071 -1.3115
 7299SOL    HW223444   4.371   5.562   3.291 -1.1561  0.1059  0.0091
 7300SOL     OW23445   2.294   5.673   6.389 -0.0415 -0.0218 -0.2168
 7300SOL    HW123446   2.308   5.578   6.396  0.6552  0.0074 -1.0052
 7300SOL    HW223447   2.206   5.687   6.424 -1.6560 -1.4496 -3.2353
 7301SOL     OW23448   0.356   1.777   3.097  0.3850 -0.0182  0.3384
 7301SOL    HW123449   0.390   1.747   3.181  0.4359 -0.8077  0.0448
 7301SOL    HW223450   0.414   1.849   3.072 -0.4326  1.1184  1.5959
 7302SOL     OW23451   3.092   2.392   1.018  0.4505 -0.8926 -0.2387
 7302SOL    HW123452   3.094   2.301   1.046  0.2123 -0.8261  0.0095
 7302SOL    HW223453   3.013   2.399   0.964  0.9477 -1.0353 -0.9858
 7303SOL     OW23454   4.047   3.606   2.116  0.4934 -0.7693  0.0186
 7303SOL    HW123455   4.120   3.664   2.138  0.1996 -0.4810  0.2371
 7303SOL    HW223456   3.975   3.665   2.094 -0.0612 -1.0296  1.0697
 7304SOL     OW23457   5.625   5.803   1.324 -0.1263 -0.3036  0.3725
 7304SOL    HW123458   5.636   5.789   1.418  0.1928  0.4459  0.4567
 7304SOL    HW223459   5.648   5.720   1.284 -1.7550 -1.1217  1.0423
 7305SOL     OW23460   5.743   0.447   4.279 -0.5020 -0.6087  0.3816
 7305SOL    HW123461   5.689   0.488   4.347  0.1437  1.9053 -0.5092
 7305SOL    HW223462   5.711   0.486   4.197  1.3756 -0.5136 -0.3490
 7306SOL     OW23463   6.228   2.720   1.617 -0.1759  0.8565 -0.1386
 7306SOL    HW123464   6.199   2.759   1.534 -0.8416 -0.4167 -0.5373
 7306SOL    HW223465   6.149   2.678   1.652  0.1646  1.1545  1.0184
 7307SOL     OW23466   3.718   1.464   6.037  0.4536 -0.1982  0.0919
 7307SOL    HW123467   3.688   1.551   6.012  0.4737  0.2264  1.4790
 7307SOL    HW223468   3.804   1.478   6.076  1.0398 -1.0149 -0.8365
 7308SOL     OW23469   2.575   2.065   0.019  0.0681  0.0520  0.4003
 7308SOL    HW123470   2.514   2.042   0.089  0.4380  1.6658  1.2978
 7308SOL    HW223471   2.660   2.034   0.051  0.2243  0.7143  0.6365
 7309SOL     OW23472   3.739   2.917   6.181  0.0341  0.0857  0.1025
 7309SOL    HW123473   3.829   2.950   6.187 -0.3208  0.7362  2.7111
 7309SOL    HW223474   3.684   2.996   6.181 -0.6082 -0.3328 -0.8134
 7310SOL     OW23475   1.759   6.711   1.807 -0.1563 -0.3177  0.2456
 7310SOL    HW123476   1.741   6.618   1.815 -0.5581 -0.5321 -2.2805
 7310SOL    HW223477   1.854   6.718   1.811 -0.0322 -1.0573 -1.0987
 7311SOL     OW23478   5.910   4.706   1.327 -0.0777 -0.1962 -0.0152
 7311SOL    HW123479   5.993   4.721   1.281 -0.4464  1.3056 -0.2439
 7311SOL    HW223480   5.935   4.695   1.419  0.4203 -0.1217 -0.1381
 7312SOL     OW23481   4.041   5.911   1.591 -0.2516  0.0394  0.1645
 7312SOL    HW123482   3.989   5.969   1.536  3.6873  0.7322 -3.2978
 7312SOL    HW223483   4.071   5.842   1.532  3.1762  0.0480  1.6733
 7313SOL     OW23484   3.457   5.517   1.518 -0.2528 -0.0460 -0.3014
 7313SOL    HW123485   3.499   5.476   1.442  1.4487  2.6309 -0.9409
 7313SOL    HW223486   3.502   5.478   1.593  1.9291  1.1161 -0.9130
 7314SOL     OW23487   2.162   1.469   1.682  0.3845  0.0818  0.5520
 7314SOL    HW123488   2.188   1.388   1.725 -0.9923 -1.2148 -0.9798
 7314SOL    HW223489   2.109   1.515   1.747 -0.1438 -0.9868  0.8905
 7315SOL     OW23490   5.898   6.303   0.168  0.1656 -0.0360  0.0817
 7315SOL    HW123491   5.947   6.223   0.187 -1.9329 -1.5146 -0.3923
 7315SOL    HW223492   5.929   6.365   0.234  1.8901 -1.1860  0.4474
 7316SOL     OW23493   0.534   0.541   1.866  0.3881 -0.4690 -0.5253
 7316SOL    HW123494   0.547   0.635   1.865 -0.4756 -0.3376 -0.1024
 7316SOL    HW223495   0.453   0.527   1.816 -0.4337 -0.8109  0.8298
 7317SOL     OW23496   6.474   5.780   0.361 -0.2416 -0.0746 -0.0087
 7317SOL    HW123497   6.386   5.759   0.328 -0.6361 -0.4494  1.1981
 7317SOL    HW223498   6.458   5.841   0.433  0.5114  0.0623  0.0449
 7318SOL     OW23499   4.260   6.196   2.587  0.2144 -0.0599 -0.2614
 7318SOL    HW123500   4.194   6.239   2.532 -1.1867 -2.0197 -0.1955
 7318SOL    HW223501   4.317   6.150   2.524 -0.2851 -0.8040 -0.1732
 7319SOL     OW23502   5.555   2.647   4.531  0.4131  0.0008 -0.5015
 7319SOL    HW123503   5.512   2.601   4.459  1.2049  0.0388 -1.0181
 7319SOL    HW223504   5.602   2.719   4.489 -0.5030  1.0786  0.2609
 7320SOL     OW23505   2.034   5.706   6.473  0.3114 -0.2911  0.6147
 7320SOL    HW123506   1.976   5.732   6.401 -0.1921 -3.9282 -0.4881
 7320SOL    HW223507   1.997   5.750   6.549 -2.3371 -0.3317 -0.5065
 7321SOL     OW23508   4.480   4.524   0.446  0.6976  0.0195  0.6430
 7321SOL    HW123509   4.552   4.464   0.424  1.3313  1.1083 -0.3774
 7321SOL    HW223510   4.428   4.528   0.366  0.4366  0.5192  0.8360
 7322SOL     OW23511   5.638   4.872   1.430  0.5040  0.0561 -0.0875
 7322SOL    HW123512   5.727   4.899   1.407  1.3062 -0.3669  2.2012
 7322SOL    HW223513   5.641   4.862   1.525 -1.8842 -0.4384 -0.0178
 7323SOL     OW23514   3.556   4.890   3.350 -0.1170  0.2246  0.0161
 7323SOL    HW123515   3.487   4.897   3.416  0.3629  1.2243  0.4345
 7323SOL    HW223516   3.601   4.808   3.371  1.7392  1.7847  2.6728
 7324SOL     OW23517   3.075   5.360   3.197 -0.0553  0.0578 -0.3006
 7324SOL    HW123518   3.055   5.321   3.112 -0.4527 -1.2324  0.3500
 7324SOL    HW223519   3.028   5.443   3.197  1.1699  0.8126 -1.9129
 7325SOL     OW23520   4.709   1.354   3.095 -0.2220 -0.7633  0.2265
 7325SOL    HW123521   4.615   1.363   3.080  0.0565  1.0645 -0.7237
 7325SOL    HW223522   4.733   1.272   3.051 -1.0238 -0.1517 -1.4045
 7326SOL     OW23523   5.298   6.570   3.377 -0.3695  0.3235 -0.2985
 7326SOL    HW123524   5.246   6.496   3.348 -0.6886 -0.6122  2.4011
 7326SOL    HW223525   5.369   6.576   3.313 -0.6248 -1.9982 -0.8837
 7327SOL     OW23526   2.608   6.698   6.262  0.5729 -0.5574 -0.0097
 7327SOL    HW123527   2.641   6.767   6.205 -1.4072  1.0573  0.6710
 7327SOL    HW223528   2.686   6.655   6.297  1.8372 -0.2993 -2.3289
 7328SOL     OW23529   6.757   2.383   6.655  0.6772 -0.5521  0.1372
 7328SOL    HW123530   6.785   2.341   6.574  2.0085  0.7402 -0.1240
 7328SOL    HW223531   6.686   2.441   6.629  1.2623  0.0396 -0.1762
 7329SOL     OW23532   2.774   3.650   1.365  0.4074 -0.0782 -0.1529
 7329SOL    HW123533   2.804   3.566   1.329 -1.1189 -0.3843 -0.7915
 7329SOL    HW223534   2.790   3.643   1.459 -0.0039 -1.2144 -0.1535
 7330SOL     OW23535   1.021   4.819   1.805  0.6440 -0.0101  0.3295
 7330SOL    HW123536   1.051   4.777   1.724 -1.7897  0.1002 -0.7198
 7330SOL    HW223537   1.046   4.911   1.795 -2.9159  0.8795 -2.2195
 7331SOL     OW23538   5.772   5.282   0.080 -0.1576 -0.4753  0.4292
 7331SOL    HW123539   5.863   5.309   0.077 -0.1839 -0.4435 -0.3466
 7331SOL    HW223540   5.731   5.342   0.142 -0.0936  0.9440 -0.8374
 7332SOL     OW23541   2.889   3.855   0.077 -0.1602 -0.4328  0.1173
 7332SOL    HW123542   2.801   3.821   0.094 -1.9291  2.6259 -1.9444
 7332SOL    HW223543   2.917   3.810  -0.003 -0.9958  0.4045 -0.6644
 7333SOL     OW23544   2.697   5.138   1.993 -0.1646  0.3481 -0.9110
 7333SOL    HW123545   2.695   5.109   2.084 -0.5998  2.2443 -0.2571
 7333SOL    HW223546   2.704   5.234   1.999  0.8764  0.4438 -2.8820
 7334SOL     OW23547   2.072   3.573   6.466 -0.1581 -0.1588 -0.1605
 7334SOL    HW123548   2.029   3.491   6.445  0.2303 -1.0546  2.2527
 7334SOL    HW223549   2.147   3.576   6.406  0.5229 -2.2136  0.4930
 7335SOL     OW23550   4.206   3.366   1.878 -0.4979  0.4539 -0.2608
 7335SOL    HW123551   4.280   3.426   1.878 -0.7565  0.8222  1.3269
 7335SOL    HW223552   4.142   3.407   1.820  0.7273 -0.1743 -2.1517
 7336SOL     OW23553   3.924   1.645   1.531  0.1252  0.0033  0.1574
 7336SOL    HW123554   3.890   1.577   1.589 -1.0790  0.4240 -0.0232
 7336SOL    HW223555   3.966   1.597   1.460 -1.0323 -0.5749 -0.1546
 7337SOL     OW23556   6.458   4.508   2.057  0.0056  0.1028  0.2960
 7337SOL    HW123557   6.465   4.504   2.152 -0.5747  0.7099  0.3750
 7337SOL    HW223558   6.379   4.560   2.041  0.0864 -0.0061 -0.5169
 7338SOL     OW23559   1.618   2.998   4.671 -0.2029 -0.2324  0.0836
 7338SOL    HW123560   1.559   3.071   4.687 -0.8260 -1.0223  1.6738
 7338SOL    HW223561   1.655   2.977   4.757  0.6083 -1.2500 -0.4733
 7339SOL     OW23562   4.519   5.890   0.085  0.2606 -0.1005 -0.2892
 7339SOL    HW123563   4.472   5.954   0.032  0.6383 -0.4915 -1.1186
 7339SOL    HW223564   4.508   5.920   0.175 -0.1987  0.7081 -0.6080
 7340SOL     OW23565   4.425   4.238   0.942 -0.3498  0.4885  0.4019
 7340SOL    HW123566   4.376   4.171   0.990 -0.5839  0.1599 -0.2773
 7340SOL    HW223567   4.412   4.215   0.850  2.2265 -0.4706  0.1969
 7341SOL     OW23568   4.918   6.388   0.885 -0.1639 -0.1805  0.2371
 7341SOL    HW123569   4.899   6.326   0.956 -1.2023 -0.9004 -0.6409
 7341SOL    HW223570   4.841   6.385   0.829 -0.5399  2.4409  0.5002
 7342SOL     OW23571   4.228   5.968   3.273 -0.7296  0.1170  0.3303
 7342SOL    HW123572   4.271   5.989   3.190  0.4875 -1.4949  0.4848
 7342SOL    HW223573   4.155   6.029   3.279 -1.2901 -0.1866 -2.2622
 7343SOL     OW23574   2.576   1.281   2.269  0.3285  0.0345 -0.2947
 7343SOL    HW123575   2.597   1.288   2.176  0.1599 -1.8017 -0.5088
 7343SOL    HW223576   2.573   1.187   2.286 -0.4023  0.3267  1.4074
 7344SOL     OW23577   0.024   2.461   3.841  0.1739  0.7811 -0.2061
 7344SOL    HW123578  -0.009   2.541   3.800 -0.9697  0.6234  0.3698
 7344SOL    HW223579  -0.030   2.391   3.805  0.6990  0.3548 -0.1739
 7345SOL     OW23580   3.839   6.364   2.242 -0.1416 -0.4604 -0.2992
 7345SOL    HW123581   3.750   6.328   2.246 -0.3968 -0.0185 -1.4778
 7345SOL    HW223582   3.830   6.443   2.189  0.8250  0.0427  0.2597
 7346SOL     OW23583   1.509   3.374   5.438 -0.0504 -0.4399  0.4128
 7346SOL    HW123584   1.528   3.455   5.391  1.5950 -1.0267 -0.0113
 7346SOL    HW223585   1.560   3.381   5.519 -1.9446  0.0490  1.6312
 7347SOL     OW23586   6.177   5.016   5.091 -0.6565  0.5479 -0.3252
 7347SOL    HW123587   6.212   4.933   5.121 -2.1365  0.1029  0.2520
 7347SOL    HW223588   6.253   5.064   5.058  0.4506 -0.3975  0.7778
 7348SOL     OW23589   2.752   1.675   5.044 -0.7220  0.2234  0.2021
 7348SOL    HW123590   2.675   1.669   4.989 -0.8850  1.3044  0.2860
 7348SOL    HW223591   2.803   1.748   5.008 -0.2375  0.1726  0.7484
 7349SOL     OW23592   6.079   0.447   5.598  0.6087 -0.2774  0.2789
 7349SOL    HW123593   6.104   0.533   5.631  0.6549  0.2135 -0.9920
 7349SOL    HW223594   6.134   0.434   5.521 -0.9129 -0.4883 -0.8044
 7350SOL     OW23595   1.762   4.986   2.209  0.2045  0.4577  0.0285
 7350SOL    HW123596   1.767   4.954   2.299  0.0145  0.0193 -0.1140
 7350SOL    HW223597   1.853   4.995   2.182  0.4153  3.9574  1.4115
 7351SOL     OW23598   2.805   1.873   6.370  0.0309 -0.2201  0.0195
 7351SOL    HW123599   2.725   1.907   6.411  0.8692  0.8312  0.8133
 7351SOL    HW223600   2.851   1.951   6.340  1.0506 -0.7808  0.1146
 7352SOL     OW23601   0.686   6.780   6.565  0.2534  0.0208  0.3745
 7352SOL    HW123602   0.613   6.827   6.605  0.9769  0.2753  1.4292
 7352SOL    HW223603   0.764   6.827   6.595  0.8679 -0.2477 -0.7264
 7353SOL     OW23604   6.763   3.080   4.631  0.5220 -0.6259  0.1219
 7353SOL    HW123605   6.752   3.091   4.537  1.7161  0.1162  0.0504
 7353SOL    HW223606   6.686   3.121   4.670 -0.6378 -2.0745 -0.5540
 7354SOL     OW23607   0.409   4.519   6.412  0.2302 -0.0924  0.1018
 7354SOL    HW123608   0.367   4.512   6.326 -1.4370  0.2876  0.8490
 7354SOL    HW223609   0.392   4.434   6.453  0.2460  0.0483  0.3968
 7355SOL     OW23610   4.224   1.687   4.960 -0.2341  0.0171  0.3373
 7355SOL    HW123611   4.293   1.693   4.894 -0.5660 -0.8292 -0.1099
 7355SOL    HW223612   4.149   1.650   4.913 -0.2733 -1.2340  1.3113
 7356SOL     OW23613   0.078   5.583   0.240 -0.2423 -0.2107 -0.0626
 7356SOL    HW123614   0.097   5.637   0.316 -1.2045 -1.1363  0.8703
 7356SOL    HW223615   0.159   5.536   0.223 -0.1164 -0.2477  0.6090
 7357SOL     OW23616   2.609   0.549   5.707 -1.0542 -0.1378  0.4458
 7357SOL    HW123617   2.688   0.583   5.750 -0.3460 -1.0133 -0.1115
 7357SOL    HW223618   2.556   0.514   5.778 -1.2980  1.1135  0.9086
 7358SOL     OW23619   0.752   4.916   4.803  0.3886  0.4842 -0.3265
 7358SOL    HW123620   0.786   4.827   4.795 -1.4118 -0.2939  0.1169
 7358SOL    HW223621   0.809   4.958   4.867  1.8554 -0.0005 -1.2523
 7359SOL     OW23622   6.389   2.113   4.733 -0.2758  0.1818 -0.1266
 7359SOL    HW123623   6.345   2.157   4.806  2.3015  0.4870  1.3756
 7359SOL    HW223624   6.321   2.060   4.692 -1.8927  0.1355  2.4030
 7360SOL     OW23625   1.540   0.084   3.228 -0.1924  0.2508 -0.2738
 7360SOL    HW123626   1.472   0.089   3.295  1.3324 -1.0677  1.4794
 7360SOL    HW223627   1.514   0.011   3.172 -0.7429  0.4262 -0.2489
 7361SOL     OW23628   5.857   2.896   5.339  0.1410  0.3036  0.1220
 7361SOL    HW123629   5.864   2.952   5.416 -2.0665  0.7107  0.0759
 7361SOL    HW223630   5.916   2.936   5.275  3.1325 -0.8387  1.9448
 7362SOL     OW23631   3.917   3.513   4.348  0.1564 -0.2411  0.0283
 7362SOL    HW123632   3.891   3.523   4.257  0.9965 -2.1985 -0.4789
 7362SOL    HW223633   3.837   3.530   4.398 -0.4460  0.3115 -1.0889
 7363SOL     OW23634   3.885   5.321   3.878 -0.3277  0.0483 -0.5572
 7363SOL    HW123635   3.909   5.298   3.789 -1.5165 -0.6313 -0.7206
 7363SOL    HW223636   3.789   5.324   3.878 -0.3266  1.9890  0.2183
 7364SOL     OW23637   3.079   2.726   4.571  0.0902  0.0551 -0.0218
 7364SOL    HW123638   3.163   2.712   4.528 -0.6056 -0.7022 -1.1910
 7364SOL    HW223639   3.053   2.640   4.603 -0.1715  0.3085  0.4595
 7365SOL     OW23640   4.932   3.088   5.600  0.0941 -0.1046 -0.3049
 7365SOL    HW123641   4.906   2.998   5.616  1.5550 -0.6449 -0.8057
 7365SOL    HW223642   4.852   3.139   5.614 -0.2902 -1.2246  1.9548
 7366SOL     OW23643   0.837   4.698   6.746 -0.1009  0.6897 -0.1906
 7366SOL    HW123644   0.916   4.669   6.791 -0.3323 -0.9951 -0.8078
 7366SOL    HW223645   0.767   4.687   6.811 -0.0191  1.0139 -0.0441
 7367SOL     OW23646   5.423   1.739   0.288 -0.3286  0.1044 -0.2998
 7367SOL    HW123647   5.382   1.653   0.284  0.7960 -0.4492 -0.3798
 7367SOL    HW223648   5.407   1.770   0.377  1.1435 -1.1786  0.4587
 7368SOL     OW23649   6.221   3.670   0.262 -0.4744 -0.1289  0.2549
 7368SOL    HW123650   6.220   3.585   0.218  0.7609 -0.8441  1.5220
 7368SOL    HW223651   6.206   3.649   0.354  1.8074  0.7801  0.8987
 7369SOL     OW23652   3.121   5.772   2.408  0.1813  0.3852  0.4980
 7369SOL    HW123653   3.147   5.682   2.426 -0.2850  0.5020  1.9120
 7369SOL    HW223654   3.167   5.795   2.328 -1.0804 -1.7124 -0.9501
 7370SOL     OW23655   3.140   5.215   3.572  0.2131  0.4940  0.6528
 7370SOL    HW123656   3.057   5.247   3.536  0.1929  0.2136  0.4534
 7370SOL    HW223657   3.186   5.176   3.498 -2.0276 -4.9315  1.6497
 7371SOL     OW23658   4.239   6.579   0.142  0.0727  0.0932  0.4191
 7371SOL    HW123659   4.255   6.531   0.223 -0.4510  0.5088  0.7775
 7371SOL    HW223660   4.181   6.521   0.092 -0.0944  0.0984  0.6038
 7372SOL     OW23661   6.179   5.871   1.443  0.3974  0.2109 -0.6010
 7372SOL    HW123662   6.247   5.818   1.485  0.9755  0.9259 -0.6236
 7372SOL    HW223663   6.227   5.929   1.384 -0.3909 -0.8148 -2.3396
 7373SOL     OW23664   1.584   0.057   1.338 -1.2050  0.5003 -0.0171
 7373SOL    HW123665   1.490   0.050   1.355 -0.8710  0.9770  2.3422
 7373SOL    HW223666   1.625   0.008   1.409  0.3642 -0.4982 -1.5155
 7374SOL     OW23667   4.171   2.309   2.230 -0.4420  0.2221 -0.0435
 7374SOL    HW123668   4.109   2.320   2.158 -1.6447 -0.2821  0.8710
 7374SOL    HW223669   4.133   2.239   2.283  0.0287  1.0889  1.4785
 7375SOL     OW23670   4.779   1.823   1.392  0.1741 -0.6405  0.5740
 7375SOL    HW123671   4.802   1.759   1.324 -0.2251  0.9121 -1.1073
 7375SOL    HW223672   4.690   1.851   1.369  0.2092  0.2488  1.4627
 7376SOL     OW23673   2.727   4.899   3.276 -0.6666  0.0591  0.0452
 7376SOL    HW123674   2.633   4.908   3.259 -1.3161  0.9524  3.3937
 7376SOL    HW223675   2.750   4.813   3.241 -2.3744  0.3879 -2.0717
 7377SOL     OW23676   0.111   4.629   1.187  0.0324  0.4471 -0.3649
 7377SOL    HW123677   0.034   4.595   1.141 -0.0325  0.5302 -0.3197
 7377SOL    HW223678   0.185   4.607   1.131  0.1965 -1.2972  0.4681
 7378SOL     OW23679   3.312   1.757   1.118 -0.3439  0.0904 -0.1565
 7378SOL    HW123680   3.350   1.754   1.206  1.4550 -0.3424 -0.8872
 7378SOL    HW223681   3.220   1.777   1.131 -0.1229 -0.0482  1.8267
 7379SOL     OW23682   1.759   2.649   2.405  0.4839  0.5880 -0.5971
 7379SOL    HW123683   1.804   2.624   2.325  0.0017  1.3302 -1.1041
 7379SOL    HW223684   1.814   2.716   2.444  0.9201 -0.0490 -0.0925
 7380SOL     OW23685   3.663   6.005   2.107 -0.7689  0.0700  0.2329
 7380SOL    HW123686   3.689   5.915   2.128 -0.7624  0.1585  0.5985
 7380SOL    HW223687   3.603   5.995   2.032 -1.7304 -0.3427  1.0321
 7381SOL     OW23688   4.366   2.631   5.946  0.3649  0.7902  0.3925
 7381SOL    HW123689   4.305   2.559   5.962  0.2668  0.6198 -0.6725
 7381SOL    HW223690   4.453   2.592   5.957  0.3314  0.2980 -0.9015
 7382SOL     OW23691   2.418   0.681   1.790  0.3315 -1.0057 -0.2706
 7382SOL    HW123692   2.383   0.631   1.717  0.8844 -2.6324  0.5381
 7382SOL    HW223693   2.503   0.641   1.809  0.4282 -0.3077  0.9441
 7383SOL     OW23694   4.108   4.155   5.164 -0.0783 -0.2699  0.0743
 7383SOL    HW123695   4.117   4.180   5.072 -0.5823  0.9411  0.3341
 7383SOL    HW223696   4.022   4.112   5.169 -1.0266  1.5472  0.3309
 7384SOL     OW23697   5.727   0.935   5.822  0.0187  0.0436 -0.4208
 7384SOL    HW123698   5.797   0.870   5.833  0.9917  1.1231 -0.0691
 7384SOL    HW223699   5.739   0.969   5.733 -0.0934  0.1981 -0.3771
 7385SOL     OW23700   3.347   5.994   2.996  0.2375  0.1145 -0.4265
 7385SOL    HW123701   3.366   6.074   3.043 -0.0774 -0.3012  0.4311
 7385SOL    HW223702   3.420   5.935   3.017  0.1628 -0.0295 -0.5643
 7386SOL     OW23703   6.161   3.451   0.117 -0.2091 -0.1410 -0.1304
 7386SOL    HW123704   6.227   3.382   0.124 -0.7132 -1.2224 -4.0847
 7386SOL    HW223705   6.078   3.405   0.106 -1.2777  1.2087  1.7106
 7387SOL     OW23706   5.414   2.929   6.191  0.4315 -0.1422  0.6882
 7387SOL    HW123707   5.402   2.947   6.097  0.5992 -1.1817  0.4606
 7387SOL    HW223708   5.339   2.971   6.233  0.5793  0.6963  0.1342
 7388SOL     OW23709   1.859   1.684   3.198  0.1683  0.5357 -0.9720
 7388SOL    HW123710   1.892   1.626   3.267 -1.9494  0.2532 -0.1261
 7388SOL    HW223711   1.782   1.726   3.236 -0.1997  1.4914 -2.6712
 7389SOL     OW23712   2.035   4.424   4.787 -0.7204  0.4317 -0.2512
 7389SOL    HW123713   1.989   4.454   4.708  1.2152  1.2264 -1.1438
 7389SOL    HW223714   2.038   4.501   4.843 -0.5396  0.3748 -0.1814
 7390SOL     OW23715   1.287   5.523   2.691  0.0303 -0.1819 -0.7864
 7390SOL    HW123716   1.337   5.532   2.610  1.0217 -1.7346 -0.3895
 7390SOL    HW223717   1.337   5.572   2.756  1.0754 -1.7056 -0.3977
 7391SOL     OW23718   2.382   4.461   5.567 -0.0505  0.3676  0.0637
 7391SOL    HW123719   2.456   4.448   5.627 -0.1707  1.6027  0.5034
 7391SOL    HW223720   2.395   4.548   5.531  0.8623 -0.8739 -2.9632
 7392SOL     OW23721   0.484   0.379   0.862  0.6752 -0.0863  0.6202
 7392SOL    HW123722   0.404   0.367   0.810  0.2789 -1.1983  1.4558
 7392SOL    HW223723   0.525   0.457   0.824  0.2453 -0.6828 -1.1573
 7393SOL     OW23724   1.920   2.275   1.344 -0.2052  0.2487 -1.0975
 7393SOL    HW123725   1.842   2.315   1.307 -1.1796 -1.2488 -0.7901
 7393SOL    HW223726   1.934   2.321   1.426 -1.2245  0.0636 -0.8034
 7394SOL     OW23727   5.131   4.396   4.821 -0.1172  0.1257 -0.7617
 7394SOL    HW123728   5.157   4.430   4.906 -0.2350 -0.4734 -0.4779
 7394SOL    HW223729   5.204   4.340   4.794 -1.0942 -1.6827  0.1076
 7395SOL     OW23730   6.399   4.289   6.638  0.2786 -0.5645 -0.1915
 7395SOL    HW123731   6.474   4.301   6.581 -0.1852  1.9944 -0.3602
 7395SOL    HW223732   6.437   4.274   6.725  0.9807 -0.1746 -0.4267
 7396SOL     OW23733   0.429   3.787   4.175 -0.6435  0.5084 -0.4117
 7396SOL    HW123734   0.356   3.845   4.152 -2.0130 -0.8882  0.2564
 7396SOL    HW223735   0.391   3.700   4.177  1.3106 -0.4379 -1.1369
 7397SOL     OW23736   3.102   4.022   5.071  0.3834 -0.4662  0.3403
 7397SOL    HW123737   3.157   4.073   5.012 -0.3423  0.3740  0.3662
 7397SOL    HW223738   3.041   3.977   5.012  0.3001 -0.4134  0.3860
 7398SOL     OW23739   5.757   2.160   2.365  0.2341  0.7981 -0.0417
 7398SOL    HW123740   5.671   2.177   2.328  0.2194 -0.3076 -0.5589
 7398SOL    HW223741   5.817   2.166   2.291  0.4845  0.6659  0.1472
 7399SOL     OW23742   5.725   6.343   5.349 -0.5854 -0.7301 -0.5100
 7399SOL    HW123743   5.718   6.421   5.294 -1.4957  0.1953  0.8612
 7399SOL    HW223744   5.643   6.296   5.335 -1.4211  0.1966  1.0011
 7400SOL     OW23745   4.273   1.127   0.238 -0.0412 -0.0131  0.4469
 7400SOL    HW123746   4.221   1.180   0.177 -0.0379 -0.0182  0.4396
 7400SOL    HW223747   4.208   1.076   0.286 -0.0847  0.4844  0.9185
 7401SOL     OW23748   2.488   5.456   0.292 -0.0644  0.2256  0.4193
 7401SOL    HW123749   2.575   5.448   0.332  0.0679  0.4197  0.1744
 7401SOL    HW223750   2.433   5.397   0.343  0.7683 -1.9035 -1.0363
 7402SOL     OW23751   1.812   1.268   0.493  0.3612 -0.5568  0.2752
 7402SOL    HW123752   1.759   1.288   0.416  1.7558  0.2792 -0.5123
 7402SOL    HW223753   1.749   1.260   0.564 -1.0252 -1.8901 -1.0215
 7403SOL     OW23754   2.038   6.426   4.344  0.2920 -0.1146 -0.0272
 7403SOL    HW123755   2.105   6.383   4.292  0.7025 -0.1324  0.5011
 7403SOL    HW223756   2.019   6.507   4.297 -0.1706 -0.6610 -0.7934
 7404SOL     OW23757   5.318   3.735   0.332  0.4445  0.1364 -0.0489
 7404SOL    HW123758   5.322   3.645   0.365 -0.1233  0.1532  0.0730
 7404SOL    HW223759   5.247   3.775   0.381 -0.1867  0.2655 -1.0449
 7405SOL     OW23760   5.236   4.608   6.018 -0.2674 -0.1555  0.1865
 7405SOL    HW123761   5.326   4.614   5.987 -0.5276 -0.7550 -0.7161
 7405SOL    HW223762   5.188   4.568   5.945 -1.0813 -0.7145  1.0063
 7406SOL     OW23763   6.005   6.270   2.918  0.0626 -0.0007  0.0976
 7406SOL    HW123764   6.036   6.291   3.006  0.1012 -0.5871  0.2297
 7406SOL    HW223765   6.045   6.185   2.899 -2.0787 -1.1667  0.5705
 7407SOL     OW23766   4.790   5.971   4.553  0.2892  0.7199  0.1212
 7407SOL    HW123767   4.714   5.925   4.518  0.9966 -3.5914  3.3622
 7407SOL    HW223768   4.755   6.051   4.591 -2.4665 -0.5074  0.4065
 7408SOL     OW23769   6.618   1.450   1.376  0.2043  0.4782  0.4740
 7408SOL    HW123770   6.586   1.421   1.290  1.7068 -0.2775  0.1314
 7408SOL    HW223771   6.586   1.384   1.437 -0.0142  0.4639  0.3479
 7409SOL     OW23772   5.197   4.579   3.643  0.3049 -0.1000  0.0629
 7409SOL    HW123773   5.151   4.550   3.565  1.1207 -0.6896 -0.2172
 7409SOL    HW223774   5.279   4.617   3.611 -0.7533  2.6951  0.4200
 7410SOL     OW23775   4.802   5.857   1.174 -0.2887 -0.1254  0.5423
 7410SOL    HW123776   4.845   5.891   1.096 -0.8102 -1.3902 -0.3167
 7410SOL    HW223777   4.714   5.834   1.144 -0.6424 -0.2098  1.6152
 7411SOL     OW23778   2.944   3.956   5.861 -0.2948 -0.3651  0.0293
 7411SOL    HW123779   2.854   3.924   5.859 -0.9699  1.3496  1.0425
 7411SOL    HW223780   2.998   3.877   5.852 -1.8839 -1.3973 -0.7480
 7412SOL     OW23781   0.885   4.337   4.346 -0.0849 -0.1497 -0.8534
 7412SOL    HW123782   0.811   4.285   4.313 -0.5979  0.4218 -0.6103
 7412SOL    HW223783   0.955   4.273   4.357 -0.7676 -0.8342 -0.3692
 7413SOL     OW23784   5.261   1.507   0.282  0.4838 -0.1460  0.4855
 7413SOL    HW123785   5.229   1.492   0.371  1.1028  0.3645  0.8029
 7413SOL    HW223786   5.188   1.482   0.226  0.6845 -2.1516  1.0559
 7414SOL     OW23787   4.843   6.667   0.682 -0.5081 -0.1632 -0.5517
 7414SOL    HW123788   4.817   6.622   0.602  0.4506 -1.4179 -0.1825
 7414SOL    HW223789   4.937   6.683   0.672 -0.2235 -0.9549  0.5841
 7415SOL     OW23790   5.057   4.360   1.872 -0.1436  0.0029  0.0717
 7415SOL    HW123791   5.072   4.454   1.878  1.0495 -0.2433  1.8888
 7415SOL    HW223792   5.109   4.331   1.797 -0.4476  0.7561 -0.4368
 7416SOL     OW23793   3.067   2.693   5.928 -0.2546  0.5917 -0.0877
 7416SOL    HW123794   3.015   2.665   5.853  0.0059 -0.4071  0.0861
 7416SOL    HW223795   3.104   2.777   5.902  1.4466 -0.6188 -1.8820
 7417SOL     OW23796   4.711   6.542   0.435  0.0282  0.2508  0.6162
 7417SOL    HW123797   4.651   6.542   0.361  0.3078 -1.0060  0.3749
 7417SOL    HW223798   4.774   6.473   0.415  0.4842  0.3270  1.7341
 7418SOL     OW23799   4.370   1.374   4.779 -0.5905 -0.1512  0.3380
 7418SOL    HW123800   4.432   1.354   4.708  0.8975  1.6487  1.0391
 7418SOL    HW223801   4.284   1.373   4.737 -0.2570 -3.4270 -0.5277
 7419SOL     OW23802   0.759   3.460   1.056  0.6827 -0.4160  0.7022
 7419SOL    HW123803   0.791   3.502   1.136 -0.1448 -1.6919  1.7360
 7419SOL    HW223804   0.764   3.367   1.074  2.9775 -0.8958 -1.7309
 7420SOL     OW23805   3.977   3.943   6.667 -0.5021 -0.4250 -0.5059
 7420SOL    HW123806   4.043   4.007   6.645  1.1707 -1.8319  0.1853
 7420SOL    HW223807   4.026   3.866   6.695 -2.4269 -1.7296 -0.4944
 7421SOL     OW23808   0.776   5.344   5.394 -0.0629 -0.0252 -0.0821
 7421SOL    HW123809   0.708   5.301   5.446  0.4316 -1.0312 -0.2414
 7421SOL    HW223810   0.764   5.437   5.411 -2.6042 -0.0169 -1.4712
 7422SOL     OW23811   1.494   3.431   6.163  0.3238  0.1942 -0.8150
 7422SOL    HW123812   1.426   3.497   6.157 -1.6340 -1.3682  1.8994
 7422SOL    HW223813   1.562   3.470   6.218  0.0544  0.5908 -0.7668
 7423SOL     OW23814   1.044   1.136   1.949  0.5155  0.2161  0.0298
 7423SOL    HW123815   1.027   1.041   1.953 -0.6374  0.2044 -2.8815
 7423SOL    HW223816   0.966   1.175   1.988 -0.0508 -0.0357 -0.8218
 7424SOL     OW23817   2.922   2.345   1.597 -0.4982  0.6326  0.1289
 7424SOL    HW123818   2.878   2.278   1.650  0.9421  0.9936  1.8599
 7424SOL    HW223819   3.011   2.348   1.631 -0.1305  2.4283 -0.8739
 7425SOL     OW23820   0.685   3.769   0.245 -0.4183  0.7592 -0.5029
 7425SOL    HW123821   0.660   3.694   0.192 -1.5747  0.0025  1.0218
 7425SOL    HW223822   0.602   3.805   0.276  0.1731 -0.2146  2.5699
 7426SOL     OW23823   4.096   6.787   6.770  0.1583 -0.0217 -0.0180
 7426SOL    HW123824   4.178   6.781   6.818  0.0197  0.1109  0.2386
 7426SOL    HW223825   4.039   6.839   6.826  0.2422  0.7902 -0.6726
 7427SOL     OW23826   6.008   5.229   3.137  0.3840 -0.0688  0.1875
 7427SOL    HW123827   6.096   5.209   3.105 -0.3346 -0.8286 -1.4147
 7427SOL    HW223828   6.020   5.249   3.230  2.4446  1.3448 -0.3273
 7428SOL     OW23829   6.604   3.545   3.727  0.0249  0.6241  0.2202
 7428SOL    HW123830   6.537   3.541   3.658  0.3647  0.7290 -0.1183
 7428SOL    HW223831   6.575   3.480   3.792 -0.2557  0.4670 -0.0579
 7429SOL     OW23832   2.028   5.051   1.923 -0.1722 -0.2683  0.3336
 7429SOL    HW123833   2.014   5.145   1.939 -2.2971  0.0768 -2.6328
 7429SOL    HW223834   2.027   5.012   2.010 -0.6465  2.3001  1.5903
 7430SOL     OW23835   4.063   4.869   0.530 -0.3632  0.2025  0.6817
 7430SOL    HW123836   3.980   4.916   0.538 -0.8181 -0.0856 -1.4926
 7430SOL    HW223837   4.060   4.804   0.600 -2.6786 -0.7463 -0.1865
 7431SOL     OW23838   5.713   4.866   5.658  0.0723  0.5464  0.2052
 7431SOL    HW123839   5.735   4.959   5.653  1.8021  0.1430 -0.6100
 7431SOL    HW223840   5.797   4.821   5.651 -0.7239 -1.0895  0.5791
 7432SOL     OW23841   0.482   0.087   2.401  0.5324  0.0424 -0.2304
 7432SOL    HW123842   0.416   0.018   2.409 -1.1540  1.6902  0.5408
 7432SOL    HW223843   0.518   0.075   2.312  0.1891 -1.6953 -0.1762
 7433SOL     OW23844   2.032   6.220   3.538  0.3099  0.9683  0.4643
 7433SOL    HW123845   2.049   6.131   3.508 -0.7722  0.9766 -0.2230
 7433SOL    HW223846   2.050   6.217   3.632  0.0045 -0.0542  0.5077
 7434SOL     OW23847   1.952   1.006   1.492 -1.1522 -0.1826 -0.1905
 7434SOL    HW123848   1.873   1.045   1.454 -1.0309  0.2218 -0.0302
 7434SOL    HW223849   2.017   1.012   1.422 -0.6523  1.4299  0.3711
 7435SOL     OW23850   6.296   5.760   6.795 -0.5068  0.2695 -0.0666
 7435SOL    HW123851   6.351   5.830   6.829 -0.5076  0.4331 -0.4016
 7435SOL    HW223852   6.331   5.742   6.708  0.6805 -1.4081  0.6939
 7436SOL     OW23853   2.832   1.912   5.531  0.2690 -0.3900 -0.9026
 7436SOL    HW123854   2.839   2.004   5.505  1.5944 -0.3010 -0.3133
 7436SOL    HW223855   2.898   1.901   5.600 -0.7237 -1.4835 -0.0818
 7437SOL     OW23856   5.877   4.491   5.641 -0.3037  0.0307 -0.3651
 7437SOL    HW123857   5.822   4.539   5.704 -1.9477 -1.1511 -0.8357
 7437SOL    HW223858   5.899   4.409   5.686 -0.1268 -0.1274 -0.7354
 7438SOL     OW23859   4.261   4.693   1.143  0.1993  0.2034 -0.1064
 7438SOL    HW123860   4.187   4.723   1.090  0.2930  1.8125  0.6343
 7438SOL    HW223861   4.287   4.610   1.102  0.1142  1.2462 -2.4130
 7439SOL     OW23862   2.792   3.669   5.466 -0.1374  0.4232  0.2276
 7439SOL    HW123863   2.763   3.581   5.488  0.5354 -0.4244 -1.9891
 7439SOL    HW223864   2.752   3.726   5.532 -1.0151 -1.4669  1.3783
 7440SOL     OW23865   2.031   5.761   4.412  0.2754 -0.0752 -0.6104
 7440SOL    HW123866   1.941   5.776   4.441  0.3383 -0.2567 -0.3124
 7440SOL    HW223867   2.022   5.712   4.331  0.1095 -0.2984 -0.4577
 7441SOL     OW23868   0.878   1.451   5.132 -0.3182  0.1559 -0.2613
 7441SOL    HW123869   0.819   1.510   5.085 -1.0955 -0.7559 -0.4508
 7441SOL    HW223870   0.862   1.469   5.224 -0.2436  0.5229 -0.3143
 7442SOL     OW23871   2.596   4.781   1.854 -0.3926  0.7758  0.0769
 7442SOL    HW123872   2.568   4.869   1.828  1.0653  1.4914  0.7824
 7442SOL    HW223873   2.689   4.777   1.829 -0.7173 -1.0210 -1.0397
 7443SOL     OW23874   0.481   0.432   5.022 -0.7031 -0.0882  0.4908
 7443SOL    HW123875   0.443   0.518   5.000  0.8932  0.1856 -1.4026
 7443SOL    HW223876   0.406   0.380   5.051 -2.6081  0.4287 -3.0158
 7444SOL     OW23877   4.516   4.806   5.665 -0.1057  0.3063 -0.1257
 7444SOL    HW123878   4.611   4.800   5.673 -0.1115  0.2215 -0.1271
 7444SOL    HW223879   4.484   4.721   5.694 -0.0823 -0.2608 -1.6792
 7445SOL     OW23880   0.272   4.342   1.020  0.2320  0.5555  0.2919
 7445SOL    HW123881   0.327   4.280   0.971 -1.8956  0.2210 -1.8447
 7445SOL    HW223882   0.306   4.428   0.996  0.4063  0.3323 -0.2925
 7446SOL     OW23883   6.552   6.328   1.163  0.0449  0.1439 -0.1065
 7446SOL    HW123884   6.581   6.295   1.077  2.6749  1.1005  0.3271
 7446SOL    HW223885   6.577   6.259   1.224 -0.7814 -0.0356  0.0336
 7447SOL     OW23886   4.128   6.211   4.317  0.3168  0.1746 -0.6715
 7447SOL    HW123887   4.131   6.242   4.227 -1.6289  1.9071 -0.2168
 7447SOL    HW223888   4.132   6.116   4.310  0.4736  0.2827 -2.5495
 7448SOL     OW23889   1.170   3.282   3.608 -0.0813 -0.1700 -0.1382
 7448SOL    HW123890   1.259   3.289   3.643  0.9642  0.8411 -2.7065
 7448SOL    HW223891   1.158   3.364   3.560 -1.3880 -1.3622 -1.9684
 7449SOL     OW23892   4.882   0.114   2.586  0.5060  0.0808  0.3717
 7449SOL    HW123893   4.833   0.111   2.669 -2.2696  1.3479 -1.0848
 7449SOL    HW223894   4.918   0.026   2.576 -1.4693 -0.9447  1.6101
 7450SOL     OW23895   6.020   0.146   1.611 -0.1616  0.5160  0.3881
 7450SOL    HW123896   6.018   0.229   1.563 -1.4988  0.2007 -0.1639
 7450SOL    HW223897   5.930   0.136   1.644 -0.9285 -2.0688 -2.0467
 7451SOL     OW23898   5.953   4.159   2.345 -0.6309  0.0294 -0.6987
 7451SOL    HW123899   6.040   4.119   2.343 -0.0237  1.2024  0.9028
 7451SOL    HW223900   5.899   4.094   2.390 -0.0024  0.3492  0.5343
 7452SOL     OW23901   3.545   4.616   6.103 -0.7907 -0.2222 -0.9901
 7452SOL    HW123902   3.521   4.547   6.041 -1.1879 -1.2471  0.2766
 7452SOL    HW223903   3.628   4.586   6.141 -1.2336 -0.2679 -0.0460
 7453SOL     OW23904   3.648   0.789   1.538  0.4925 -0.7073 -0.2179
 7453SOL    HW123905   3.699   0.739   1.602  1.8243  2.5559  1.5753
 7453SOL    HW223906   3.696   0.780   1.456  2.2064 -0.3259  0.6924
 7454SOL     OW23907   3.685   1.183   3.343 -0.0887 -0.1886  0.3918
 7454SOL    HW123908   3.630   1.172   3.420  0.2308 -0.3767  0.5946
 7454SOL    HW223909   3.685   1.277   3.326  0.8834  0.0101  1.3937
 7455SOL     OW23910   3.922   4.698   4.281 -0.1659 -0.5574 -0.6487
 7455SOL    HW123911   3.991   4.679   4.218 -0.1401  0.0812 -0.8253
 7455SOL    HW223912   3.966   4.699   4.366  0.4182  1.5094 -0.9094
 7456SOL     OW23913   0.285   5.512   4.612 -0.7219 -0.2535 -0.2011
 7456SOL    HW123914   0.272   5.422   4.639 -2.8785 -0.1346 -0.6214
 7456SOL    HW223915   0.333   5.553   4.684 -1.9282 -1.1383  1.1485
 7457SOL     OW23916   2.120   6.729   1.253 -0.2582  0.0309 -0.1417
 7457SOL    HW123917   2.166   6.784   1.316  3.5987  0.9682 -3.3488
 7457SOL    HW223918   2.062   6.790   1.206 -0.7589 -0.0314  0.3776
 7458SOL     OW23919   3.013   1.801   0.882  0.4134  0.0204  0.0522
 7458SOL    HW123920   2.930   1.778   0.924 -0.2250  0.0830 -1.1203
 7458SOL    HW223921   2.992   1.805   0.788  1.6014  0.6658 -0.2091
 7459SOL     OW23922   3.388   5.373   5.463  0.1349 -0.2751  1.2479
 7459SOL    HW123923   3.353   5.381   5.552  0.7019 -0.6499  1.5105
 7459SOL    HW223924   3.482   5.362   5.475  0.1910 -0.5285  0.6151
 7460SOL     OW23925   5.446   6.631   1.507  0.5911 -0.0281  0.6281
 7460SOL    HW123926   5.366   6.664   1.467  0.9948  0.3454  0.1123
 7460SOL    HW223927   5.504   6.611   1.433  0.6637 -1.1142  0.9631
 7461SOL     OW23928   6.784   4.662   5.172  0.1526 -0.3048 -0.2962
 7461SOL    HW123929   6.819   4.676   5.084  0.7067 -1.0953 -0.2100
 7461SOL    HW223930   6.757   4.570   5.173  0.6541 -0.4564  0.5200
 7462SOL     OW23931   0.422   1.803   1.970  0.1883 -0.3629  0.4586
 7462SOL    HW123932   0.362   1.824   1.898 -0.5023 -0.7040  0.9143
 7462SOL    HW223933   0.462   1.720   1.945  0.3539 -0.2121  0.2231
 7463SOL     OW23934   4.184   1.432   3.914  0.2204 -0.2174  0.3031
 7463SOL    HW123935   4.209   1.519   3.946 -2.0495  1.5185 -2.1452
 7463SOL    HW223936   4.089   1.430   3.921  0.1236 -1.9923 -0.8668
 7464SOL     OW23937   5.785   2.694   3.474 -0.3051  0.4665  0.1029
 7464SOL    HW123938   5.755   2.680   3.384  0.1214  0.1839  0.0006
 7464SOL    HW223939   5.858   2.756   3.465  1.5299 -1.5813 -0.0615
 7465SOL     OW23940   3.974   0.179   6.261  0.0613  0.0583  0.7543
 7465SOL    HW123941   3.991   0.180   6.356  0.3418 -0.8133  0.7193
 7465SOL    HW223942   3.885   0.212   6.252  0.2491  0.7311  1.2730
 7466SOL     OW23943   6.719   6.745   0.475  0.1087  0.2879  0.2430
 7466SOL    HW123944   6.659   6.773   0.406  0.2145 -0.7034 -0.2637
 7466SOL    HW223945   6.665   6.742   0.554 -0.1593  0.8045  0.0867
 7467SOL     OW23946   3.076   0.809   4.559  0.3624  0.2612  0.2820
 7467SOL    HW123947   2.986   0.777   4.566  0.3965  0.4149  1.6560
 7467SOL    HW223948   3.068   0.893   4.513 -0.1533  0.1143  0.0950
 7468SOL     OW23949   5.751   4.599   3.607  0.0709 -0.6677  0.3955
 7468SOL    HW123950   5.775   4.684   3.572  0.6429 -0.0970  2.0431
 7468SOL    HW223951   5.834   4.551   3.613 -0.2752 -1.4654 -0.7478
 7469SOL     OW23952   4.589   5.423   5.792  0.0971  0.0598 -0.2329
 7469SOL    HW123953   4.502   5.407   5.827 -1.4137  3.8499 -1.7084
 7469SOL    HW223954   4.636   5.466   5.864 -0.1361  0.3048 -0.2269
 7470SOL     OW23955   5.862   5.472   5.771 -0.0479 -0.5901 -0.0591
 7470SOL    HW123956   5.779   5.435   5.800  1.1495 -3.2304  0.2902
 7470SOL    HW223957   5.855   5.566   5.790 -2.7302 -0.8060  0.3820
 7471SOL     OW23958   3.031   2.148   4.281 -0.2990  0.4955  0.9504
 7471SOL    HW123959   3.077   2.219   4.236 -0.9056 -0.7252 -1.8200
 7471SOL    HW223960   2.957   2.127   4.224 -0.8071 -1.5785  2.2560
 7472SOL     OW23961   3.780   2.170   3.143  0.2369 -0.3736  0.4953
 7472SOL    HW123962   3.856   2.114   3.128  1.0147  1.1273 -1.6842
 7472SOL    HW223963   3.809   2.234   3.207  1.4285  1.1261 -1.4366
 7473SOL     OW23964   0.998   1.869   2.764 -0.2214 -0.4198 -0.2146
 7473SOL    HW123965   1.059   1.937   2.793 -1.1027  0.4298 -0.2925
 7473SOL    HW223966   1.038   1.834   2.684 -1.0140  1.9312 -1.7836
 7474SOL     OW23967   5.381   2.881   2.923  0.0555 -0.3138  0.4658
 7474SOL    HW123968   5.423   2.842   2.846  0.0790 -0.1130  0.3761
 7474SOL    HW223969   5.377   2.810   2.987 -2.0226 -1.1507 -0.5077
 7475SOL     OW23970   1.949   4.274   1.781  0.2438  0.5918  0.3388
 7475SOL    HW123971   2.008   4.276   1.706  0.1135  0.5587  0.2330
 7475SOL    HW223972   1.940   4.366   1.807 -0.1001  0.6593 -0.0007
 7476SOL     OW23973   0.994   0.188   0.936 -0.0461 -0.8392 -0.2779
 7476SOL    HW123974   0.934   0.243   0.885 -1.8094 -1.9237  0.5328
 7476SOL    HW223975   0.968   0.202   1.027  1.5534 -0.6795  0.1956
 7477SOL     OW23976   1.210   3.928   2.903  0.3310  0.3839  0.6320
 7477SOL    HW123977   1.125   3.950   2.865  0.3872  0.6303  0.6529
 7477SOL    HW223978   1.228   3.840   2.870 -1.0665 -0.7079  2.5524
 7478SOL     OW23979   5.654   3.453   3.875 -0.5032 -0.3671 -0.6101
 7478SOL    HW123980   5.592   3.416   3.938  1.8063 -1.8847  0.9195
 7478SOL    HW223981   5.645   3.548   3.886 -1.5006 -0.5689  0.6193
 7479SOL     OW23982   0.770   4.782   2.778 -0.4594  0.2442  0.1009
 7479SOL    HW123983   0.746   4.834   2.701  0.2479 -0.3523 -0.5247
 7479SOL    HW223984   0.697   4.721   2.790 -1.5000  1.6154  1.0896
 7480SOL     OW23985   1.722   5.476   6.271  0.1659 -0.2745 -0.9241
 7480SOL    HW123986   1.740   5.393   6.227  3.5875  0.0418 -0.4271
 7480SOL    HW223987   1.704   5.452   6.362  1.3665 -0.5190 -0.7317
 7481SOL     OW23988   4.024   5.329   5.748 -0.2797  0.3515  0.1701
 7481SOL    HW123989   4.059   5.264   5.809 -0.8076 -0.2868 -0.1954
 7481SOL    HW223990   4.094   5.394   5.740  0.8377 -0.8909 -0.5555
 7482SOL     OW23991   5.903   0.385   1.768 -0.3676  0.5343 -0.3204
 7482SOL    HW123992   5.940   0.386   1.680 -0.6254 -0.1634 -0.4433
 7482SOL    HW223993   5.978   0.388   1.827 -0.2243  3.1498 -0.5215
 7483SOL     OW23994   6.425   3.481   2.605  0.3412  0.0174  0.5253
 7483SOL    HW123995   6.344   3.532   2.606 -0.2872 -0.9616  1.2262
 7483SOL    HW223996   6.443   3.467   2.512 -1.4607 -1.5244  0.3373
 7484SOL     OW23997   5.107   3.884   3.661 -0.5219  0.2313  0.4451
 7484SOL    HW123998   5.063   3.910   3.742 -0.8892 -1.1088  0.7040
 7484SOL    HW223999   5.174   3.822   3.688 -0.9537 -0.5966 -0.2928
 7485SOL     OW24000   1.063   0.832   0.246 -0.0153  0.2571 -0.6263
 7485SOL    HW124001   0.985   0.885   0.230 -0.6885 -0.7015 -0.6434
 7485SOL    HW224002   1.099   0.864   0.328 -0.5778  0.5379 -0.4907
 7486SOL     OW24003   2.334   0.438   4.503 -0.8807 -0.3886 -0.2757
 7486SOL    HW124004   2.315   0.525   4.539  0.3441  0.2549 -1.1012
 7486SOL    HW224005   2.360   0.455   4.413  2.2723 -1.2332  0.3335
 7487SOL     OW24006   5.523   1.118   0.154 -0.0075 -0.5894 -0.3895
 7487SOL    HW124007   5.569   1.054   0.207  0.4244  0.6684  0.8053
 7487SOL    HW224008   5.432   1.087   0.153 -0.0591 -0.5809  1.2302
 7488SOL     OW24009   2.284   3.352   2.470 -0.5378  0.4378 -0.4826
 7488SOL    HW124010   2.322   3.313   2.391  0.3770  2.2107 -0.9685
 7488SOL    HW224011   2.328   3.307   2.542 -1.1865 -1.0157 -0.9677
 7489SOL     OW24012   4.071   3.750   0.784  0.1194  0.5082  0.5130
 7489SOL    HW124013   4.098   3.736   0.694  1.3327  0.0355  0.9222
 7489SOL    HW224014   4.119   3.828   0.812  0.3263  0.2288  0.9562
 7490SOL     OW24015   4.802   0.929   2.715  0.1544 -0.0823  0.4884
 7490SOL    HW124016   4.891   0.905   2.739  0.1388 -2.6326 -1.5827
 7490SOL    HW224017   4.811   0.979   2.634 -0.2832 -0.4001  0.2356
 7491SOL     OW24018   2.517   4.639   4.963 -0.0944  0.1355  0.1920
 7491SOL    HW124019   2.608   4.625   4.937 -0.0828 -0.6330  0.6258
 7491SOL    HW224020   2.509   4.735   4.972  0.9221  0.1674  1.0166
 7492SOL     OW24021   5.491   2.911   5.161  0.5972 -0.0880 -0.5881
 7492SOL    HW124022   5.525   2.971   5.094  1.7614  2.1149  1.8215
 7492SOL    HW224023   5.568   2.860   5.189 -0.1510 -1.9848 -1.7758
 7493SOL     OW24024   5.123   3.572   6.769  0.5508 -0.2692 -0.4470
 7493SOL    HW124025   5.029   3.580   6.754  0.3207 -0.5871  0.7363
 7493SOL    HW224026   5.154   3.662   6.778  0.1755 -0.1920  0.1557
 7494SOL     OW24027   2.788   6.196   4.969 -0.0310  0.8508 -0.2861
 7494SOL    HW124028   2.820   6.277   4.929  0.2632  1.2663  0.7616
 7494SOL    HW224029   2.865   6.157   5.009 -0.4467  0.8347  0.5229
 7495SOL     OW24030   2.434   3.103   1.734  0.0676  0.2161 -0.9806
 7495SOL    HW124031   2.417   3.028   1.677 -1.6028  0.3065 -0.6328
 7495SOL    HW224032   2.467   3.065   1.815 -0.0784 -0.0817 -1.0621
 7496SOL     OW24033   6.073   4.556   4.850  0.2348 -0.0227  0.4758
 7496SOL    HW124034   6.018   4.525   4.778 -1.2313 -0.4158  1.7054
 7496SOL    HW224035   6.030   4.636   4.880  1.6718  0.9587 -0.0119
 7497SOL     OW24036   1.903   4.591   0.411  0.3638 -0.7639  0.5475
 7497SOL    HW124037   1.957   4.539   0.351  1.6310 -0.0592  1.0535
 7497SOL    HW224038   1.926   4.560   0.498  1.5876  0.9749  0.9102
 7498SOL     OW24039   4.936   1.741   5.492  0.0698 -0.1620 -0.0913
 7498SOL    HW124040   5.016   1.763   5.445 -0.1944 -0.4064 -0.6595
 7498SOL    HW224041   4.965   1.693   5.569  0.5111  0.3113  0.0396
 7499SOL     OW24042   6.133   1.335   4.386 -0.4908 -0.2099  0.2631
 7499SOL    HW124043   6.192   1.410   4.384  0.8847 -1.2743 -1.7293
 7499SOL    HW224044   6.145   1.297   4.473  0.5397  0.5194  0.4558
 7500SOL     OW24045   4.520   4.576   5.389  0.5699  0.1496 -0.3817
 7500SOL    HW124046   4.591   4.640   5.397  1.0889 -0.4660  0.0306
 7500SOL    HW224047   4.476   4.579   5.474  0.1146  0.5071 -0.6260
 7501SOL     OW24048   4.144   6.482   1.355  0.1356 -0.6012 -0.7030
 7501SOL    HW124049   4.122   6.457   1.445 -0.8175  1.9249 -0.1496
 7501SOL    HW224050   4.060   6.504   1.315  0.6672 -0.6525 -1.8803
 7502SOL     OW24051   3.873   3.244   2.832 -0.1073 -0.1641 -0.1759
 7502SOL    HW124052   3.921   3.326   2.821 -1.9085  0.9014 -0.4273
 7502SOL    HW224053   3.918   3.200   2.904  0.0790  1.6901  0.9060
 7503SOL     OW24054   3.417   3.144   2.988  0.1674 -0.9551  0.1861
 7503SOL    HW124055   3.485   3.174   2.928 -0.9966 -1.7370 -1.5950
 7503SOL    HW224056   3.398   3.221   3.043  0.1733  0.3014 -1.5007
 7504SOL     OW24057   1.250   2.529   3.615 -0.2707  0.1451  0.2511
 7504SOL    HW124058   1.306   2.453   3.602 -0.8928  0.0485 -2.3947
 7504SOL    HW224059   1.186   2.501   3.680  0.2796 -1.1589  0.2537
 7505SOL     OW24060   1.257   2.362   6.800  0.0774 -0.4798  0.7039
 7505SOL    HW124061   1.176   2.405   6.772  1.6924  2.2933 -0.0744
 7505SOL    HW224062   1.265   2.383   6.892  1.1438  1.5245  0.2011
 7506SOL     OW24063   0.952   3.017   2.405 -0.3582 -0.4333  0.4422
 7506SOL    HW124064   1.004   3.096   2.390 -1.7218  0.3115 -0.6492
 7506SOL    HW224065   1.001   2.947   2.361  0.3786 -0.0106  0.5842
 7507SOL     OW24066   2.857   2.710   5.051  0.4671  0.3244  0.5538
 7507SOL    HW124067   2.903   2.769   4.991 -0.2598 -1.2506 -1.6927
 7507SOL    HW224068   2.912   2.632   5.055 -0.2174 -0.1572  0.7550
 7508SOL     OW24069   5.927   2.350   3.911  0.2936 -0.5821 -0.5335
 7508SOL    HW124070   5.849   2.406   3.906 -0.4905 -1.6294 -0.2516
 7508SOL    HW224071   5.909   2.279   3.849  0.7466 -1.1668  0.0023
 7509SOL     OW24072   1.857   2.219   4.646 -0.3936 -0.7522  0.2254
 7509SOL    HW124073   1.849   2.259   4.560 -1.6295 -1.2103  0.0961
 7509SOL    HW224074   1.923   2.150   4.635  1.1692  0.6814  0.2633
 7510SOL     OW24075   1.325   2.518   5.642 -0.8495  0.2135 -0.5550
 7510SOL    HW124076   1.294   2.428   5.637 -1.9240  0.5597 -0.3731
 7510SOL    HW224077   1.272   2.566   5.579 -0.6651  0.8245 -0.2582
 7511SOL     OW24078   5.142   5.102   6.380  0.2972  0.2638 -0.2218
 7511SOL    HW124079   5.116   5.193   6.362  1.6336  0.4566 -1.3225
 7511SOL    HW224080   5.132   5.093   6.475  2.2188  2.2709  0.2523
 7512SOL     OW24081   1.771   5.187   1.077  0.4216  0.1831  0.2129
 7512SOL    HW124082   1.836   5.257   1.086 -0.7910  1.3770 -0.0194
 7512SOL    HW224083   1.787   5.151   0.990 -0.3348  1.6861 -0.5920
 7513SOL     OW24084   2.714   1.036   0.106  0.1527 -0.5615 -0.2364
 7513SOL    HW124085   2.768   1.113   0.089  0.9273 -1.5066 -2.3855
 7513SOL    HW224086   2.762   0.987   0.173  0.1610  0.2870  0.4010
 7514SOL     OW24087   6.612   5.803   1.240  0.6636  0.0431  0.2247
 7514SOL    HW124088   6.704   5.777   1.232  1.3937  2.4147  0.0133
 7514SOL    HW224089   6.588   5.831   1.151 -0.1826 -0.2465  0.3531
 7515SOL     OW24090   6.123   2.659   1.202 -0.0364  0.1986 -0.1360
 7515SOL    HW124091   6.170   2.692   1.126 -0.8026  1.0004 -0.2746
 7515SOL    HW224092   6.179   2.589   1.236  0.8672  0.5997 -0.7536
 7516SOL     OW24093   3.868   5.310   3.591 -0.2195 -0.1381 -0.3703
 7516SOL    HW124094   3.890   5.327   3.499 -0.0780  1.7018 -0.0288
 7516SOL    HW224095   3.773   5.295   3.590 -0.2639  0.1364 -0.7855
 7517SOL     OW24096   1.945   0.831   4.653  0.6059 -0.5859 -0.0019
 7517SOL    HW124097   1.925   0.763   4.717  1.4631 -0.9874 -0.1370
 7517SOL    HW224098   1.975   0.905   4.705  1.7565 -1.0742  0.0644
 7518SOL     OW24099   2.406   1.334   4.635 -0.1124 -0.4260  0.1146
 7518SOL    HW124100   2.368   1.249   4.656 -1.4453  0.1959  0.2642
 7518SOL    HW224101   2.427   1.329   4.542 -3.4263  0.2401 -0.7816
 7519SOL     OW24102   6.205   3.849   3.675  0.2698  0.7498  0.1073
 7519SOL    HW124103   6.125   3.823   3.721  0.2511 -0.9893 -0.8225
 7519SOL    HW224104   6.274   3.842   3.740 -0.3166  2.4544  0.9740
 7520SOL     OW24105   4.866   2.395   3.208  0.3618  0.1998  0.3276
 7520SOL    HW124106   4.839   2.465   3.149  1.4927  2.1555  2.0137
 7520SOL    HW224107   4.961   2.398   3.206  0.4444 -1.6183  0.1373
 7521SOL     OW24108   4.095   5.101   5.363  0.2374 -0.0712 -0.2182
 7521SOL    HW124109   4.055   5.182   5.330  1.6912  1.0549  0.6619
 7521SOL    HW224110   4.021   5.044   5.382 -0.8169  0.9260 -1.1679
 7522SOL     OW24111   0.110   4.051   1.085  0.1828  0.7483  0.0840
 7522SOL    HW124112   0.168   4.124   1.062  0.6113  0.7791  1.2334
 7522SOL    HW224113   0.071   4.024   1.001  1.7585  0.7998 -0.6903
 7523SOL     OW24114   2.953   3.028   0.483  0.5324 -0.1339 -0.1649
 7523SOL    HW124115   2.906   2.972   0.545  0.3829  0.6528  0.4500
 7523SOL    HW224116   2.900   3.026   0.404  0.1911 -0.3571  0.0655
 7524SOL     OW24117   6.603   3.791   1.011 -0.2751  0.3828  0.6880
 7524SOL    HW124118   6.516   3.827   0.995 -0.6935 -1.1970 -0.8253
 7524SOL    HW224119   6.655   3.820   0.936 -0.0299 -0.3363  0.5777
 7525SOL     OW24120   0.008   1.192   6.113  0.0105  0.7382 -0.2886
 7525SOL    HW124121   0.012   1.200   6.208 -2.7810 -1.7487  0.1876
 7525SOL    HW224122   0.060   1.113   6.094 -1.9319 -0.6166 -0.3311
 7526SOL     OW24123   4.059   6.323   0.897  0.6036  0.4817  0.2990
 7526SOL    HW124124   3.970   6.339   0.929  0.4758  2.5040 -0.9183
 7526SOL    HW224125   4.047   6.263   0.823 -0.1099  2.6193 -1.4331
 7527SOL     OW24126   2.076   0.050   6.786 -0.2237 -0.0626 -0.3309
 7527SOL    HW124127   2.054   0.047   6.879 -2.7838  0.7955 -0.8260
 7527SOL    HW224128   2.076  -0.042   6.759 -3.0800 -0.2334 -0.1303
 7528SOL     OW24129   3.813   5.210   1.230  0.2228 -0.0398  0.5088
 7528SOL    HW124130   3.811   5.197   1.324  0.2527 -0.3974  0.4602
 7528SOL    HW224131   3.899   5.179   1.203  0.7486  1.3114  0.5428
 7529SOL     OW24132   5.556   2.731   1.247 -0.2993 -0.8144 -0.0254
 7529SOL    HW124133   5.534   2.820   1.276  0.8994 -1.0683  1.8700
 7529SOL    HW224134   5.636   2.741   1.196  0.3261 -0.8542  0.9123
 7530SOL     OW24135   4.840   1.402   6.385 -0.6894  0.3101  0.6253
 7530SOL    HW124136   4.924   1.444   6.407 -0.6717  1.5526 -1.5639
 7530SOL    HW224137   4.799   1.462   6.322 -2.3170 -1.2645  0.1115
 7531SOL     OW24138   1.939   1.992   1.044 -0.0253  0.1877 -1.0160
 7531SOL    HW124139   1.968   1.902   1.033  0.2985 -0.0910  1.4596
 7531SOL    HW224140   2.021   2.042   1.056 -0.2838  0.2192  0.9534
 7532SOL     OW24141   2.502   2.192   2.754  0.3605  0.6998 -0.0046
 7532SOL    HW124142   2.489   2.228   2.666  0.4301 -1.2498 -0.8582
 7532SOL    HW224143   2.414   2.182   2.789 -0.0107 -2.1918 -1.4657
 7533SOL     OW24144   3.428   1.805   0.682 -0.3921  0.5747 -0.1447
 7533SOL    HW124145   3.465   1.803   0.594 -0.2492 -0.4800 -0.0731
 7533SOL    HW224146   3.480   1.871   0.728  0.0685  0.5493 -0.6195
 7534SOL     OW24147   6.038   3.408   1.052 -0.3328 -0.0713 -0.2403
 7534SOL    HW124148   6.055   3.445   0.965 -0.9065  1.0695  0.1180
 7534SOL    HW224149   6.121   3.417   1.098 -0.5065  0.8999 -0.1139
 7535SOL     OW24150   5.855   5.956   3.083 -0.0338  0.3692  0.0626
 7535SOL    HW124151   5.935   5.944   3.133  1.0130 -0.3102 -1.6772
 7535SOL    HW224152   5.815   5.868   3.081  0.0483  0.3411 -0.4638
 7536SOL     OW24153   5.760   1.070   6.084 -0.0221 -0.1026 -0.2935
 7536SOL    HW124154   5.732   1.026   6.004  0.8639  0.9900 -1.2386
 7536SOL    HW224155   5.781   1.159   6.057  0.5683  0.2214  1.1066
 7537SOL     OW24156   5.956   2.127   0.578  0.0188 -0.3577 -0.0507
 7537SOL    HW124157   5.974   2.174   0.659 -2.2848 -1.0206  0.9177
 7537SOL    HW224158   5.934   2.038   0.605 -1.6784 -0.3705 -1.2889
 7538SOL     OW24159   4.908   3.559   6.465 -0.2297 -0.0030  0.5778
 7538SOL    HW124160   4.903   3.581   6.372  0.8894 -0.0473  0.4980
 7538SOL    HW224161   4.933   3.467   6.467 -1.2005 -0.2753  0.9348
 7539SOL     OW24162   2.155   1.804   6.055  0.2775  0.4127  0.0722
 7539SOL    HW124163   2.148   1.897   6.031 -0.4639  0.3792  0.1274
 7539SOL    HW224164   2.087   1.761   6.004  0.7011 -0.1225 -0.0427
 7540SOL     OW24165   5.791   0.658   6.635  0.6623  0.1512  0.0232
 7540SOL    HW124166   5.701   0.689   6.648 -0.0729 -1.6748 -0.5246
 7540SOL    HW224167   5.829   0.722   6.575  0.1965  1.7039  1.2927
 7541SOL     OW24168   0.474   4.775   3.307 -0.3637  0.4417  0.1941
 7541SOL    HW124169   0.562   4.740   3.322 -0.1872  0.4989 -0.6927
 7541SOL    HW224170   0.477   4.863   3.344  0.1063  0.6280 -0.2752
 7542SOL     OW24171   2.883   5.584   4.453 -0.0192  0.4733 -0.5833
 7542SOL    HW124172   2.839   5.502   4.475  0.2798  0.3756 -0.3413
 7542SOL    HW224173   2.972   5.558   4.430 -0.0370  0.6880 -0.8922
 7543SOL     OW24174   6.730   4.610   0.416  0.1764  0.0513  0.8190
 7543SOL    HW124175   6.816   4.575   0.393 -0.4689  0.6601 -3.2981
 7543SOL    HW224176   6.747   4.700   0.443  0.8269  0.3443 -0.5079
 7544SOL     OW24177   5.506   6.477   0.891  0.4785  0.4478  0.4236
 7544SOL    HW124178   5.518   6.462   0.985  3.1959  0.2608  0.1209
 7544SOL    HW224179   5.594   6.494   0.858 -0.6253  2.3325 -1.8136
 7545SOL     OW24180   4.684   4.328   5.414 -0.3817  0.1366 -0.4145
 7545SOL    HW124181   4.638   4.387   5.355  0.5906 -0.9052 -2.3094
 7545SOL    HW224182   4.755   4.381   5.451 -2.7876  1.7015  2.3865
 7546SOL     OW24183   1.465   2.271   5.455  0.0752  0.3123  0.4115
 7546SOL    HW124184   1.393   2.333   5.439 -0.5901 -0.2546  1.1732
 7546SOL    HW224185   1.531   2.295   5.390 -0.6098  1.1380 -0.0049
 7547SOL     OW24186   0.708   4.765   4.127  0.2347 -0.2211 -0.2184
 7547SOL    HW124187   0.745   4.756   4.215  0.3004 -0.9842 -0.3200
 7547SOL    HW224188   0.625   4.811   4.141  1.1293  1.4039  0.0248
 7548SOL     OW24189   4.402   1.727   4.764  0.4434  0.6715 -0.0590
 7548SOL    HW124190   4.411   1.684   4.679  1.2735  4.0118 -1.8274
 7548SOL    HW224191   4.480   1.701   4.812 -0.3320 -1.7557  0.0197
 7549SOL     OW24192   1.079   3.295   6.403  0.1002 -0.4612 -0.1055
 7549SOL    HW124193   1.048   3.385   6.394 -0.6953 -0.8294 -1.3170
 7549SOL    HW224194   1.175   3.303   6.404  0.0335  0.4601  0.8231
 7550SOL     OW24195   4.667   4.330   1.634  0.4471  0.4612 -0.1148
 7550SOL    HW124196   4.625   4.314   1.550  0.8279 -0.1316 -0.1969
 7550SOL    HW224197   4.758   4.347   1.612  0.9805 -1.6280  0.3059
 7551SOL     OW24198   6.683   3.107   4.377  0.1798  0.4582 -0.0987
 7551SOL    HW124199   6.736   3.107   4.298  0.4924  1.0695  0.1021
 7551SOL    HW224200   6.606   3.055   4.355  1.3394 -1.3324 -0.0669
 7552SOL     OW24201   4.382   4.940   1.114  0.7016  0.2558 -0.0573
 7552SOL    HW124202   4.427   4.922   1.031  0.5245 -0.1258 -0.0705
 7552SOL    HW224203   4.346   4.856   1.140 -0.4909  0.6623 -0.3290
 7553SOL     OW24204   2.920   1.033   2.408 -0.2165 -0.1351  0.2516
 7553SOL    HW124205   2.997   1.023   2.464 -0.0877 -2.9125 -0.2701
 7553SOL    HW224206   2.955   1.061   2.324  0.5270 -2.7214 -0.4047
 7554SOL     OW24207   4.864   4.801   1.679 -0.5187  0.0363  0.0951
 7554SOL    HW124208   4.836   4.892   1.663  1.4400  0.7401  0.4790
 7554SOL    HW224209   4.890   4.769   1.593 -1.6603 -0.3551 -0.1248
 7555SOL     OW24210   2.696   4.105   3.201  0.1017 -1.0967  0.2149
 7555SOL    HW124211   2.717   4.073   3.114 -0.2807  0.6821 -0.5669
 7555SOL    HW224212   2.622   4.164   3.188  2.6174  2.5579  1.0308
 7556SOL     OW24213   4.080   5.052   1.988  0.5799  0.0390  0.3835
 7556SOL    HW124214   4.092   4.997   2.065  0.8589 -0.1284  0.2216
 7556SOL    HW224215   4.104   4.996   1.914 -0.2638  0.0070  0.1211
 7557SOL     OW24216   5.788   3.474   1.114 -0.2899 -0.2844 -0.1320
 7557SOL    HW124217   5.729   3.399   1.126 -0.5095  0.0856  1.2206
 7557SOL    HW224218   5.875   3.435   1.103 -0.5304 -0.7602 -0.3738
 7558SOL     OW24219   5.531   2.611   1.489 -0.0041  0.0444  0.3035
 7558SOL    HW124220   5.533   2.643   1.398 -5.1381  0.3157 -0.0144
 7558SOL    HW224221   5.545   2.690   1.542 -0.3327  0.5225 -0.3066
 7559SOL     OW24222   1.730   0.859   1.234 -0.2800 -0.2334  0.2525
 7559SOL    HW124223   1.684   0.859   1.150 -0.9772 -1.3427  0.6078
 7559SOL    HW224224   1.740   0.766   1.255 -1.5133  0.0011  2.1134
 7560SOL     OW24225   5.315   2.092   1.809  0.2221  0.0173  0.0948
 7560SOL    HW124226   5.263   2.013   1.821 -0.9232  0.6950 -0.1805
 7560SOL    HW224227   5.316   2.134   1.895 -2.9006  1.8532 -0.5954
 7561SOL     OW24228   5.854   3.916   0.974 -0.2996  0.2602  0.3884
 7561SOL    HW124229   5.788   3.979   0.946  1.3282  1.7864 -0.1487
 7561SOL    HW224230   5.911   3.964   1.033  0.7445 -0.8225  0.3157
 7562SOL     OW24231   4.266   4.831   0.781 -0.5268 -0.5783 -0.0392
 7562SOL    HW124232   4.304   4.773   0.715 -0.7119  0.4025 -1.0389
 7562SOL    HW224233   4.335   4.841   0.847  0.8494  0.8273 -1.6093
 7563SOL     OW24234   1.528   2.216   0.604  0.6211 -0.4884 -0.1321
 7563SOL    HW124235   1.557   2.302   0.574 -0.3239  0.2115  0.8945
 7563SOL    HW224236   1.576   2.154   0.549  3.4633  0.6008  0.9118
 7564SOL     OW24237   5.013   3.485   6.042  0.1523  0.0623  0.3626
 7564SOL    HW124238   5.035   3.578   6.043  0.0726  0.1148 -1.2485
 7564SOL    HW224239   4.926   3.480   6.003 -0.1242 -0.6509  1.0323
 7565SOL     OW24240   2.642   3.852   4.362  0.0205  0.2271 -0.1057
 7565SOL    HW124241   2.555   3.834   4.326  0.6216  0.0075 -1.5322
 7565SOL    HW224242   2.689   3.895   4.290  0.9381  0.7944  0.8063
 7566SOL     OW24243   4.553   6.060   4.276 -0.1001  0.1968  0.3955
 7566SOL    HW124244   4.492   6.133   4.290 -0.6561 -0.2090  0.1248
 7566SOL    HW224245   4.629   6.100   4.235 -1.1274  0.3607 -1.4251
 7567SOL     OW24246   2.843   4.478   1.561  0.0765  0.1764  0.6348
 7567SOL    HW124247   2.771   4.416   1.551 -0.9600  1.1625  1.7039
 7567SOL    HW224248   2.906   4.432   1.618  1.4126 -1.5521 -2.0385
 7568SOL     OW24249   1.909   4.854   4.314 -0.0651  0.4529  0.3132
 7568SOL    HW124250   1.956   4.934   4.291  1.4714 -0.7144 -0.7711
 7568SOL    HW224251   1.977   4.789   4.328 -1.1417 -2.1796 -4.3966
 7569SOL     OW24252   1.270   3.724   1.539  0.1045 -0.0398  0.1775
 7569SOL    HW124253   1.278   3.638   1.582  1.3506 -0.0726 -0.0661
 7569SOL    HW224254   1.331   3.780   1.587  0.6893  0.2117 -0.8343
 7570SOL     OW24255   0.518   0.204   5.520  0.3554 -0.0684 -0.1480
 7570SOL    HW124256   0.450   0.140   5.499  0.1749  0.2895 -0.6672
 7570SOL    HW224257   0.557   0.227   5.436  0.2372  0.7066 -0.0013
 7571SOL     OW24258   0.510   2.644   2.102 -0.0820 -0.0764 -0.6565
 7571SOL    HW124259   0.420   2.660   2.131 -0.2915  0.3234 -1.4836
 7571SOL    HW224260   0.501   2.607   2.014  0.5656  0.1211 -0.8131
 7572SOL     OW24261   1.769   2.577   6.737 -0.1565  0.1356 -0.2010
 7572SOL    HW124262   1.794   2.585   6.829 -0.7319  1.2364 -0.1217
 7572SOL    HW224263   1.823   2.642   6.692 -1.3228  1.0634 -0.3245
 7573SOL     OW24264   3.465   3.046   3.335  0.4670 -0.2782 -0.3889
 7573SOL    HW124265   3.477   3.001   3.251 -1.4729  1.5483 -1.7658
 7573SOL    HW224266   3.548   3.092   3.350  1.3118 -1.6837 -0.5872
 7574SOL     OW24267   5.255   0.389   0.548 -0.1166  0.1996  0.3535
 7574SOL    HW124268   5.225   0.300   0.528 -0.5794  0.8660 -2.3259
 7574SOL    HW224269   5.349   0.380   0.562 -0.0619 -0.6601 -0.4473
 7575SOL     OW24270   4.499   3.586   1.209  0.0614 -0.4482 -0.3490
 7575SOL    HW124271   4.532   3.499   1.232 -1.3878 -0.6244  1.2836
 7575SOL    HW224272   4.508   3.637   1.290  2.8371  1.6500 -1.8015
 7576SOL     OW24273   3.895   5.488   1.352  0.0784  0.1354  0.5080
 7576SOL    HW124274   3.905   5.542   1.274 -4.4280 -0.3407 -0.7025
 7576SOL    HW224275   3.953   5.414   1.337 -0.4134  0.1981 -2.3576
 7577SOL     OW24276   5.707   5.507   3.984  0.0434 -0.1475  0.3182
 7577SOL    HW124277   5.779   5.476   3.929  0.9824  0.5153  1.1317
 7577SOL    HW224278   5.673   5.428   4.025  0.0708 -0.5080 -0.3392
 7578SOL     OW24279   5.076   2.530   2.018 -0.6058  1.0941 -0.1378
 7578SOL    HW124280   5.107   2.517   2.107 -0.1050  0.1707 -0.4373
 7578SOL    HW224281   5.049   2.443   1.989  1.4953  0.8903 -1.7151
 7579SOL     OW24282   1.029   0.606   4.891  0.3010 -0.2560  0.2430
 7579SOL    HW124283   0.950   0.622   4.943 -0.1172 -1.0762 -0.1129
 7579SOL    HW224284   1.050   0.514   4.907  0.0335 -0.5940 -1.1986
 7580SOL     OW24285   3.201   1.929   5.147  0.5226  0.2287  0.4051
 7580SOL    HW124286   3.205   1.915   5.052  0.3975  3.7684 -0.2675
 7580SOL    HW224287   3.112   1.962   5.162  0.2874 -1.0082  1.9117
 7581SOL     OW24288   3.043   6.176   6.115 -0.4166  0.1027  0.7564
 7581SOL    HW124289   2.999   6.113   6.172 -0.5441 -0.3626  0.1519
 7581SOL    HW224290   3.128   6.191   6.157  0.6554 -2.3850 -0.3370
 7582SOL     OW24291   0.805   5.729   2.897 -0.5098  0.6953  0.1812
 7582SOL    HW124292   0.713   5.722   2.922 -0.2727  0.3959  0.9985
 7582SOL    HW224293   0.805   5.783   2.818 -1.3674  0.8503  0.2830
 7583SOL     OW24294   2.754   1.082   1.787  0.1519 -0.6504  0.5411
 7583SOL    HW124295   2.678   1.132   1.816 -0.0415  0.0332 -1.0465
 7583SOL    HW224296   2.720   0.996   1.767 -0.5172  0.0144 -1.4059
 7584SOL     OW24297   2.291   6.505   1.046 -0.2087 -1.0816 -0.0396
 7584SOL    HW124298   2.250   6.534   0.965  1.9049 -0.4401 -0.9433
 7584SOL    HW224299   2.360   6.445   1.018 -0.4687 -2.1110  1.4153
 7585SOL     OW24300   3.577   0.180   0.616  1.1903  0.3206 -0.1337
 7585SOL    HW124301   3.579   0.198   0.522  0.0408  0.8939 -0.0710
 7585SOL    HW224302   3.562   0.265   0.657  0.5816 -0.0704  0.4850
 7586SOL     OW24303   6.268   0.047   3.620  0.2458 -0.2561  0.0985
 7586SOL    HW124304   6.307  -0.006   3.690  0.4071  1.3956  1.3295
 7586SOL    HW224305   6.285  -0.003   3.540  0.6040 -1.9165  1.1463
 7587SOL     OW24306   6.284   3.325   2.320  0.1148 -0.3875 -0.2249
 7587SOL    HW124307   6.358   3.384   2.305 -0.1832 -0.3026 -1.4821
 7587SOL    HW224308   6.321   3.237   2.312  0.4690 -0.3905  1.2025
 7588SOL     OW24309   0.657   5.422   6.538  0.2096  0.0383 -0.1749
 7588SOL    HW124310   0.583   5.408   6.479  0.4576  0.6599 -0.6473
 7588SOL    HW224311   0.695   5.505   6.509  0.4556  0.2566  0.7322
 7589SOL     OW24312   6.767   6.346   0.425  0.3873 -0.3263 -0.1236
 7589SOL    HW124313   6.835   6.291   0.386 -0.9067 -0.9996 -1.5100
 7589SOL    HW224314   6.776   6.430   0.379  0.6317 -0.2385  0.0834
 7590SOL     OW24315   0.003   3.541   3.338  0.6830  0.1385 -0.0922
 7590SOL    HW124316   0.053   3.517   3.415  0.8195  1.3560  0.2273
 7590SOL    HW224317  -0.061   3.605   3.370  0.8397  0.7799 -1.0092
 7591SOL     OW24318   3.686   2.199   6.651 -0.0775 -0.2161  0.4388
 7591SOL    HW124319   3.738   2.129   6.612 -1.5492 -0.3171 -1.5166
 7591SOL    HW224320   3.603   2.157   6.674 -0.0357  0.3495  1.7198
 7592SOL     OW24321   3.770   2.837   2.531 -0.7222 -0.3357  0.0794
 7592SOL    HW124322   3.865   2.828   2.518 -0.3350  0.8842  1.6934
 7592SOL    HW224323   3.734   2.752   2.506  1.0024 -1.3901  0.9806
 7593SOL     OW24324   2.676   5.968   2.503  0.6050  0.1222 -0.0872
 7593SOL    HW124325   2.682   6.064   2.509 -1.8936  0.4333 -0.9237
 7593SOL    HW224326   2.638   5.941   2.587  0.7462 -0.0562 -0.0810
 7594SOL     OW24327   2.668   4.500   1.949 -0.4674 -0.2363  0.2041
 7594SOL    HW124328   2.644   4.578   1.899 -0.3751 -0.7033 -0.5789
 7594SOL    HW224329   2.742   4.528   2.003  1.3592 -0.4634 -2.0598
 7595SOL     OW24330   5.547   2.600   5.431 -0.4960  0.4739  0.2071
 7595SOL    HW124331   5.459   2.575   5.403 -1.1379  0.3018  2.1933
 7595SOL    HW224332   5.535   2.683   5.478  0.1454 -0.2637  1.7409
 7596SOL     OW24333   5.885   3.790   1.248 -0.1389  0.5472 -0.0626
 7596SOL    HW124334   5.920   3.867   1.204 -0.6644  1.1090  0.4772
 7596SOL    HW224335   5.825   3.752   1.183 -0.7778  1.2695  0.0871
 7597SOL     OW24336   0.162   6.504   6.626  0.1615 -0.1072  0.2627
 7597SOL    HW124337   0.189   6.413   6.616 -0.2694 -0.2822  0.6818
 7597SOL    HW224338   0.078   6.500   6.671  0.1402  0.4993  0.2915
 7598SOL     OW24339   6.600   2.488   4.412  0.2160 -0.4696  0.1219
 7598SOL    HW124340   6.609   2.486   4.507  0.6086 -0.0910  0.0972
 7598SOL    HW224341   6.525   2.432   4.394 -0.5080  0.2849  0.7307
 7599SOL     OW24342   1.198   1.989   5.644  0.0001  0.3851 -0.0089
 7599SOL    HW124343   1.119   1.936   5.654 -0.7227  1.7669  2.4201
 7599SOL    HW224344   1.268   1.925   5.633 -1.1029 -1.0058  0.6837
 7600SOL     OW24345   5.452   5.466   3.400 -0.1004  0.4679  0.6028
 7600SOL    HW124346   5.486   5.536   3.457  0.2397  2.4465 -1.8389
 7600SOL    HW224347   5.530   5.420   3.370  0.1299  1.8614 -1.1244
 7601SOL     OW24348   4.194   0.092   4.381  0.0799  0.1967  0.1875
 7601SOL    HW124349   4.250   0.018   4.358  0.6277  0.4850  0.5668
 7601SOL    HW224350   4.215   0.111   4.472 -3.0588 -1.8093  1.5065
 7602SOL     OW24351   4.732   5.159   0.961  0.4860 -0.2321  0.3321
 7602SOL    HW124352   4.789   5.194   0.892 -1.9929  0.6462 -1.4416
 7602SOL    HW224353   4.790   5.107   1.016  2.8612  0.1169 -1.6506
 7603SOL     OW24354   1.750   3.360   5.169  0.2049 -0.4243  0.4675
 7603SOL    HW124355   1.682   3.295   5.151  1.3498 -1.8811  1.1888
 7603SOL    HW224356   1.786   3.335   5.254  0.5490  1.3143  0.8844
 7604SOL     OW24357   5.608   0.812   3.202  0.0913 -0.8584  0.1540
 7604SOL    HW124358   5.671   0.742   3.187 -0.1131 -1.1823  0.7834
 7604SOL    HW224359   5.526   0.767   3.220 -0.4843 -0.4332 -1.3002
 7605SOL     OW24360   2.386   1.062   2.447 -0.7500 -0.5599 -0.6454
 7605SOL    HW124361   2.339   1.055   2.529 -0.1341 -1.4656 -0.3600
 7605SOL    HW224362   2.478   1.053   2.471 -0.2662  2.2228 -1.0345
 7606SOL     OW24363   6.010   2.304   2.812 -0.0028  0.3862 -0.4518
 7606SOL    HW124364   6.045   2.215   2.819 -0.1544  0.2892 -0.8900
 7606SOL    HW224365   5.935   2.296   2.754  1.2976  1.1464 -2.3399
 7607SOL     OW24366   2.240   6.658   4.589  0.1472  1.0345  0.2829
 7607SOL    HW124367   2.250   6.707   4.507  1.9850  0.1571 -0.0799
 7607SOL    HW224368   2.250   6.566   4.563 -0.5619  0.6375  1.3305
 7608SOL     OW24369   4.669   1.015   4.085 -0.3926 -0.6052  0.2132
 7608SOL    HW124370   4.757   1.034   4.054 -0.9146 -0.8503 -1.5712
 7608SOL    HW224371   4.675   1.018   4.180  2.0727 -2.8883  0.2424
 7609SOL     OW24372   4.905   6.662   2.109  0.1659 -0.3809 -0.2295
 7609SOL    HW124373   4.962   6.733   2.138 -0.0402  0.2455 -1.2883
 7609SOL    HW224374   4.861   6.632   2.188  1.2121 -0.2012  0.4434
 7610SOL     OW24375   1.433   0.576   2.962  0.0234 -0.4026 -0.0422
 7610SOL    HW124376   1.356   0.519   2.970  0.5651 -1.0509  0.8434
 7610SOL    HW224377   1.467   0.558   2.875 -0.0455 -1.1628  0.0749
 7611SOL     OW24378   2.672   5.790   4.661  0.2290  0.4140 -0.0045
 7611SOL    HW124379   2.757   5.755   4.687  0.4556  0.6061 -0.4867
 7611SOL    HW224380   2.652   5.855   4.729  0.8524  0.9633 -0.3432
 7612SOL     OW24381   1.699   5.638   4.724 -0.1583  0.0280  0.6189
 7612SOL    HW124382   1.727   5.642   4.815 -1.7492 -1.3190  1.2186
 7612SOL    HW224383   1.609   5.671   4.725 -0.0569  0.3989 -0.5519
 7613SOL     OW24384   6.366   1.117   1.461 -0.3229  0.3198  0.1330
 7613SOL    HW124385   6.406   1.040   1.501 -1.0788 -0.3522 -0.3844
 7613SOL    HW224386   6.424   1.189   1.486  0.8494 -0.5227 -0.0350
 7614SOL     OW24387   0.938   5.627   0.010  0.3361  0.6495  0.2931
 7614SOL    HW124388   0.895   5.560  -0.043  1.1512  1.2918 -1.2556
 7614SOL    HW224389   0.964   5.582   0.090  0.5640 -0.8081 -0.5667
 7615SOL     OW24390   5.783   5.633   4.266 -0.2137 -0.1305 -0.1785
 7615SOL    HW124391   5.751   5.638   4.176 -0.6569 -0.1609 -0.0263
 7615SOL    HW224392   5.838   5.555   4.268 -1.8252 -1.2986  0.0749
 7616SOL     OW24393   0.776   2.263   3.119  0.2590  0.6135  0.0362
 7616SOL    HW124394   0.702   2.238   3.174 -0.1123 -1.2722 -1.2290
 7616SOL    HW224395   0.789   2.188   3.060 -0.3110  3.0421 -3.4558
 7617SOL     OW24396   0.402   3.066   0.485  0.1875 -0.2829 -0.4957
 7617SOL    HW124397   0.372   3.028   0.567  0.0131 -0.5357 -0.6771
 7617SOL    HW224398   0.472   3.008   0.455 -2.3271 -2.5006 -2.5257
 7618SOL     OW24399   1.964   1.223   0.901 -0.4810  0.5845  0.7752
 7618SOL    HW124400   2.005   1.185   0.979  0.2122  1.5007  0.8776
 7618SOL    HW224401   2.034   1.224   0.836 -0.6338  1.1877  0.6137
 7619SOL     OW24402   4.431   2.630   4.034  0.3839  0.0287 -0.4301
 7619SOL    HW124403   4.477   2.640   4.117 -0.6599 -0.1179  0.1775
 7619SOL    HW224404   4.447   2.539   4.008 -0.8338 -0.4943  0.5708
 7620SOL     OW24405   4.812   5.069   0.545 -0.4688  0.4402 -0.1840
 7620SOL    HW124406   4.852   5.012   0.479  1.0078  0.5253  0.5849
 7620SOL    HW224407   4.830   5.158   0.513  2.6126  0.5841  1.4865
 7621SOL     OW24408   4.730   0.165   3.542 -0.1722  0.3314  0.3370
 7621SOL    HW124409   4.635   0.169   3.535 -0.1936 -0.2623  0.1713
 7621SOL    HW224410   4.749   0.072   3.552  0.4567  0.3139 -0.8040
 7622SOL     OW24411   1.038   1.465   1.722 -0.0502  0.0604 -0.3597
 7622SOL    HW124412   1.091   1.398   1.764  0.2840  0.5231 -0.0389
 7622SOL    HW224413   1.033   1.438   1.630 -0.4058 -0.7098 -0.1258
 7623SOL     OW24414   5.311   0.829   1.563  0.0656 -0.6855  0.3277
 7623SOL    HW124415   5.324   0.923   1.553 -0.7013 -0.6207 -0.2063
 7623SOL    HW224416   5.318   0.813   1.658  1.6934 -0.3501  0.2838
 7624SOL     OW24417   4.966   4.805   5.112  0.0556 -0.4790 -0.2646
 7624SOL    HW124418   4.958   4.894   5.145 -0.0910 -0.7511  0.4373
 7624SOL    HW224419   4.934   4.810   5.022 -0.8137 -0.0069  0.0601
 7625SOL     OW24420   5.856   0.348   5.458 -0.7094  0.0856 -0.0886
 7625SOL    HW124421   5.929   0.366   5.518 -0.6854 -1.8104  0.5249
 7625SOL    HW224422   5.812   0.432   5.448  2.0712  1.5524 -1.2453
 7626SOL     OW24423   1.141   3.815   1.891  0.3662  0.3240  0.1880
 7626SOL    HW124424   1.218   3.784   1.844  0.6334  0.6222  0.4237
 7626SOL    HW224425   1.173   3.887   1.946 -0.3009  1.2581 -0.6066
 7627SOL     OW24426   1.235   2.315   1.018 -0.2839 -0.5215 -0.0795
 7627SOL    HW124427   1.287   2.336   1.096  0.6962  0.6458 -1.0067
 7627SOL    HW224428   1.300   2.294   0.951 -0.9665  0.9159 -1.2583
 7628SOL     OW24429   2.460   2.275   2.515 -0.4312  0.2247  0.3491
 7628SOL    HW124430   2.497   2.360   2.493 -2.2364  0.8732 -0.4114
 7628SOL    HW224431   2.507   2.213   2.460 -0.2381  0.9699 -0.3424
 7629SOL     OW24432   1.670   5.680   3.964 -0.4112 -0.6891 -0.4014
 7629SOL    HW124433   1.701   5.749   4.023 -0.0926  0.0411 -1.4075
 7629SOL    HW224434   1.580   5.704   3.943 -0.3768 -0.7004 -0.5656
 7630SOL     OW24435   2.723   1.939   2.179 -0.2588  0.2597 -0.0541
 7630SOL    HW124436   2.670   1.861   2.163 -0.5757  0.1368  1.4612
 7630SOL    HW224437   2.812   1.912   2.156 -0.8641  0.6982 -3.3665
 7631SOL     OW24438   3.560   0.623   0.639 -0.0973  0.4161  0.9643
 7631SOL    HW124439   3.530   0.621   0.730 -2.0940  0.4596  0.3536
 7631SOL    HW224440   3.495   0.676   0.594  0.2282 -0.5403 -0.7053
 7632SOL     OW24441   6.261   1.310   3.305 -1.1364 -0.3995  0.5785
 7632SOL    HW124442   6.193   1.376   3.292  0.9972  1.6040 -1.5970
 7632SOL    HW224443   6.335   1.360   3.342  1.3804 -0.8150 -3.3093
 7633SOL     OW24444   2.640   4.169   6.302 -0.0778  0.2958 -0.0332
 7633SOL    HW124445   2.565   4.176   6.243  0.8856  0.1662 -1.3240
 7633SOL    HW224446   2.697   4.104   6.261  0.1831 -0.5421  1.5739
 7634SOL     OW24447   2.820   4.752   5.794  0.2573 -0.4228  0.0172
 7634SOL    HW124448   2.893   4.699   5.826 -0.4280 -0.7324  1.1221
 7634SOL    HW224449   2.742   4.699   5.810 -0.2662  0.0872 -0.7296
 7635SOL     OW24450   5.468   3.492   6.519  0.4189 -0.7474 -0.2044
 7635SOL    HW124451   5.482   3.398   6.505 -0.6484 -0.8989 -0.3412
 7635SOL    HW224452   5.439   3.499   6.610 -0.2312 -0.6396 -0.4153
 7636SOL     OW24453   3.306   4.603   0.667 -0.2692  0.8457  0.5521
 7636SOL    HW124454   3.319   4.517   0.626  0.5249  0.9522  0.5604
 7636SOL    HW224455   3.366   4.602   0.741  0.8806  1.9896 -0.3317
 7637SOL     OW24456   2.171   3.494   5.507  0.2952 -0.4459  0.2539
 7637SOL    HW124457   2.233   3.546   5.559  0.9320 -2.3470  1.4931
 7637SOL    HW224458   2.196   3.510   5.416  2.4168 -0.8977  0.7093
 7638SOL     OW24459   5.609   1.522   2.728 -0.3768 -0.1621 -0.3519
 7638SOL    HW124460   5.610   1.458   2.799  2.4233 -0.6574 -0.7155
 7638SOL    HW224461   5.516   1.532   2.706 -1.0985 -2.1934  1.3938
 7639SOL     OW24462   6.721   5.082   6.528  0.2721 -0.7912 -1.0796
 7639SOL    HW124463   6.657   5.044   6.588  1.4114 -0.3954  0.4878
 7639SOL    HW224464   6.680   5.079   6.442 -1.1046 -2.1659 -0.4102
 7640SOL     OW24465   0.325   2.472   5.047  0.2815  0.7573 -0.4359
 7640SOL    HW124466   0.365   2.559   5.040  0.5135  0.6051 -1.1385
 7640SOL    HW224467   0.268   2.466   4.970 -0.0571  0.4461 -0.1670
 7641SOL     OW24468   6.402   4.577   3.924  0.1899 -0.0192  0.3435
 7641SOL    HW124469   6.391   4.608   3.834 -0.0771  0.5285  0.5616
 7641SOL    HW224470   6.415   4.656   3.975  1.3957 -0.4033  0.6498
 7642SOL     OW24471   4.350   5.967   4.014  0.2912  0.1739 -0.5333
 7642SOL    HW124472   4.443   5.981   4.032 -0.1520  0.9212  1.4633
 7642SOL    HW224473   4.326   5.892   4.069 -0.6760  1.1713  0.4532
 7643SOL     OW24474   3.787   3.282   4.205  0.5049  0.2866 -0.7292
 7643SOL    HW124475   3.761   3.243   4.289 -1.7914  0.0461 -1.5012
 7643SOL    HW224476   3.865   3.335   4.227  0.6974 -0.7204  1.2926
 7644SOL     OW24477   4.706   5.960   1.596 -0.3846 -0.2321  0.1528
 7644SOL    HW124478   4.696   5.883   1.540 -1.2912 -1.7717  2.2806
 7644SOL    HW224479   4.793   5.952   1.634 -0.2852  0.0876  0.0017
 7645SOL     OW24480   5.734   6.461   3.447  0.0583 -0.1841  0.3795
 7645SOL    HW124481   5.695   6.545   3.471  0.7909  0.0983  0.5941
 7645SOL    HW224482   5.659   6.405   3.428 -0.4273  0.5946 -0.0374
 7646SOL     OW24483   6.007   2.280   5.090  0.0141 -0.5848 -0.2114
 7646SOL    HW124484   6.017   2.374   5.108 -0.4802 -0.7362  0.9867
 7646SOL    HW224485   6.084   2.256   5.039 -0.0809  0.5661 -0.9301
 7647SOL     OW24486   5.623   2.634   2.522 -0.5705 -0.2690 -0.1421
 7647SOL    HW124487   5.559   2.629   2.451  1.1803  0.8815 -1.8905
 7647SOL    HW224488   5.693   2.575   2.496  0.2510  0.4005  0.4743
 7648SOL     OW24489   2.989   0.743   0.509  0.9646  0.5723  1.0754
 7648SOL    HW124490   3.019   0.708   0.593 -0.2030 -0.8215  0.9636
 7648SOL    HW224491   2.991   0.667   0.450 -1.8290  0.5451  0.8534
 7649SOL     OW24492   6.305   4.785   1.967 -0.8536  0.1809  0.1975
 7649SOL    HW124493   6.214   4.785   1.940 -0.8108 -1.0127  0.0279
 7649SOL    HW224494   6.303   4.763   2.060 -0.6434 -2.1132 -0.2820
 7650SOL     OW24495   0.960   0.315   2.401 -0.3221  0.0392  0.7080
 7650SOL    HW124496   0.906   0.341   2.326 -1.4919 -0.6266  1.3040
 7650SOL    HW224497   0.962   0.393   2.457  0.4133  0.4818  0.0918
 7651SOL     OW24498   1.901   2.788   6.607 -0.8803  0.3120 -0.2293
 7651SOL    HW124499   1.907   2.755   6.518 -2.3320  2.8678 -1.3776
 7651SOL    HW224500   1.986   2.829   6.623 -0.2159 -1.1045  0.0349
 7652SOL     OW24501   4.340   5.410   2.135 -0.3254 -0.9136 -0.2942
 7652SOL    HW124502   4.260   5.405   2.083 -0.8610 -0.2427  0.4408
 7652SOL    HW224503   4.382   5.492   2.106 -2.3750  1.4224  2.6588
 7653SOL     OW24504   1.360   1.824   0.743 -0.8023 -0.4513  0.0585
 7653SOL    HW124505   1.399   1.856   0.824  0.0427 -0.5075 -0.3172
 7653SOL    HW224506   1.421   1.851   0.674 -0.5228 -2.0837 -0.3652
 7654SOL     OW24507   0.198   4.690   2.727  0.3204  0.2384 -0.1142
 7654SOL    HW124508   0.253   4.612   2.720 -1.8058 -1.3049 -0.3996
 7654SOL    HW224509   0.194   4.725   2.638  2.4743  1.6245  0.2561
 7655SOL     OW24510   4.506   0.559   2.529  0.1516  0.2347  1.0722
 7655SOL    HW124511   4.499   0.482   2.584  0.1542  0.1513  0.9570
 7655SOL    HW224512   4.593   0.595   2.548 -0.6330  1.3819  2.6495
 7656SOL     OW24513   1.425   0.373   3.289 -0.0434 -0.0602 -0.2466
 7656SOL    HW124514   1.355   0.370   3.354 -0.3875 -1.4393 -0.6424
 7656SOL    HW224515   1.501   0.335   3.334  0.0820  0.1933 -0.2422
 7657SOL     OW24516   6.713   4.745   2.765 -0.2969 -0.2544  0.2177
 7657SOL    HW124517   6.701   4.659   2.804  1.6673 -0.4151  0.5580
 7657SOL    HW224518   6.804   4.745   2.733 -0.8715  0.9753 -1.5870
 7658SOL     OW24519   1.336   1.302   0.652  0.6931  0.2888  0.5116
 7658SOL    HW124520   1.293   1.342   0.728  0.2936  1.8082 -0.4620
 7658SOL    HW224521   1.369   1.218   0.684 -1.7098 -0.2845  1.7014
 7659SOL     OW24522   2.821   1.160   5.900 -0.1802 -0.4882  0.4573
 7659SOL    HW124523   2.807   1.080   5.951 -2.3819  0.3557  1.2770
 7659SOL    HW224524   2.875   1.216   5.957  0.1226 -0.8114  0.4894
 7660SOL     OW24525   1.391   0.855   1.230 -0.4661 -0.3025  0.4085
 7660SOL    HW124526   1.392   0.897   1.315  0.2153 -2.0834  1.3286
 7660SOL    HW224527   1.413   0.764   1.248 -1.9292 -1.0901 -1.4766
 7661SOL     OW24528   2.922   3.006   0.850  0.0739  0.8333  0.2155
 7661SOL    HW124529   2.832   3.036   0.840  0.2635  2.1991  2.1144
 7661SOL    HW224530   2.973   3.085   0.864  1.6307  0.0960 -0.9958
 7662SOL     OW24531   2.888   1.661   0.191 -0.6561  0.3595 -0.4422
 7662SOL    HW124532   2.962   1.651   0.131 -1.2868  1.2713 -1.4202
 7662SOL    HW224533   2.899   1.748   0.228 -0.3184 -0.1672  0.7359
 7663SOL     OW24534   5.295   6.189   4.745 -0.0513  0.2004 -0.1530
 7663SOL    HW124535   5.340   6.105   4.755  1.5282  1.1014  0.8593
 7663SOL    HW224536   5.214   6.179   4.794  1.1794 -0.0478  1.9581
 7664SOL     OW24537   5.988   3.521   5.449  0.5365 -0.4251 -0.0928
 7664SOL    HW124538   5.980   3.499   5.542 -0.7069  2.0196  0.4596
 7664SOL    HW224539   6.082   3.528   5.433  0.7642 -0.9579  0.9557
 7665SOL     OW24540   5.194   0.257   0.012  0.1145 -0.2522 -0.5437
 7665SOL    HW124541   5.116   0.267  -0.043 -1.0927 -1.0457  0.9465
 7665SOL    HW224542   5.169   0.296   0.096  1.1531 -0.9410  0.1132
 7666SOL     OW24543   5.868   5.186   2.404 -0.5414  0.1900 -0.0497
 7666SOL    HW124544   5.904   5.126   2.468  0.0938  0.1839 -0.4039
 7666SOL    HW224545   5.777   5.198   2.430 -0.3461  0.0172  0.7161
 7667SOL     OW24546   4.712   6.340   0.694  0.5722 -0.7409  0.3227
 7667SOL    HW124547   4.686   6.261   0.740  1.3580 -1.5548 -0.5919
 7667SOL    HW224548   4.729   6.312   0.604  0.6386  0.5077 -0.0824
 7668SOL     OW24549   3.333   3.990   1.776 -0.1266  0.3532 -0.1433
 7668SOL    HW124550   3.327   4.085   1.776 -3.2158  0.4120 -3.7301
 7668SOL    HW224551   3.242   3.960   1.784  0.6747 -2.2590  0.2008
 7669SOL     OW24552   2.130   2.253   0.002  0.7884  0.3267 -0.4803
 7669SOL    HW124553   2.069   2.254   0.075 -0.1813  0.7868 -1.2587
 7669SOL    HW224554   2.205   2.203   0.033  0.3279  0.3709  0.7554
 7670SOL     OW24555   0.275   6.104   5.058 -0.8561  0.3878  0.9937
 7670SOL    HW124556   0.282   6.046   5.133  1.5087 -1.3980 -0.4569
 7670SOL    HW224557   0.257   6.190   5.095 -0.0969 -0.4896  3.5634
 7671SOL     OW24558   2.029   0.084   0.682 -0.1337 -0.5319  0.6202
 7671SOL    HW124559   2.049   0.177   0.684  1.4918 -0.8626  0.8349
 7671SOL    HW224560   1.999   0.068   0.592 -1.5960  0.3805  0.9008
 7672SOL     OW24561   4.087   3.737   1.615 -0.2031 -0.1470 -0.1843
 7672SOL    HW124562   4.037   3.688   1.549 -2.1124  0.9080  0.3852
 7672SOL    HW224563   4.074   3.829   1.591  0.1910  0.2018  0.8774
 7673SOL     OW24564   1.514   3.738   0.302 -0.1696  0.3583  0.1071
 7673SOL    HW124565   1.425   3.717   0.331  0.6585  0.5936  3.1426
 7673SOL    HW224566   1.503   3.813   0.244 -1.9596  0.3007  0.3174
 7674SOL     OW24567   5.058   3.215   3.329  0.4633 -0.4978 -0.3368
 7674SOL    HW124568   4.964   3.199   3.336  0.3465  0.5379  0.7329
 7674SOL    HW224569   5.094   3.133   3.296 -0.8898 -0.6962 -1.4307
 7675SOL     OW24570   1.545   6.472   4.100 -0.0665  0.1917 -0.0802
 7675SOL    HW124571   1.522   6.439   4.013  0.3282  0.5014 -0.3094
 7675SOL    HW224572   1.637   6.498   4.091 -0.3417  1.2521  0.1201
 7676SOL     OW24573   1.600   3.337   0.319  0.0516 -0.1946 -0.5944
 7676SOL    HW124574   1.551   3.382   0.249 -0.3406 -0.8231 -0.7269
 7676SOL    HW224575   1.645   3.266   0.274  1.8983  0.9341 -0.6578
 7677SOL     OW24576   3.894   1.230   4.313  0.1935 -0.4628  0.4707
 7677SOL    HW124577   3.974   1.216   4.261  0.2980  0.0838  0.4851
 7677SOL    HW224578   3.863   1.141   4.333  0.0140 -0.6957 -0.7377
 7678SOL     OW24579   2.325   3.297   0.261 -0.0220  0.1478  0.3199
 7678SOL    HW124580   2.392   3.288   0.329  0.5518  1.2444 -0.0736
 7678SOL    HW224581   2.246   3.260   0.299  0.4940  0.0179  1.2852
 7679SOL     OW24582   1.237   1.985   4.423 -0.0697  0.3472 -0.5878
 7679SOL    HW124583   1.246   2.077   4.399  0.1745  0.8876  1.3813
 7679SOL    HW224584   1.220   1.987   4.517  1.0784 -1.6712 -0.2841
 7680SOL     OW24585   3.883   4.979   5.449 -0.1349 -0.7508  0.3686
 7680SOL    HW124586   3.790   4.996   5.435 -0.0406 -2.4138 -3.6244
 7680SOL    HW224587   3.891   4.884   5.441  1.8857 -0.6681  0.9085
 7681SOL     OW24588   2.266   2.643   6.600  0.1120  0.4313 -0.3954
 7681SOL    HW124589   2.343   2.635   6.656  0.3319  2.0558 -0.4012
 7681SOL    HW224590   2.266   2.564   6.546  0.4817 -0.6788  1.1514
 7682SOL     OW24591   5.845   6.496   1.468 -0.5417  0.0507 -0.0672
 7682SOL    HW124592   5.841   6.583   1.428 -0.8385 -0.2390 -0.6724
 7682SOL    HW224593   5.866   6.514   1.560 -2.8130  0.9027  0.3442
 7683SOL     OW24594   6.331   2.608   2.619  0.4369  0.1315  0.3128
 7683SOL    HW124595   6.369   2.520   2.623 -1.3625 -0.7134 -0.1987
 7683SOL    HW224596   6.343   2.635   2.528  0.4748  0.1678  0.3289
 7684SOL     OW24597   2.357   2.168   4.237 -0.3535  0.3602  0.1047
 7684SOL    HW124598   2.376   2.083   4.276  0.4820 -0.2203 -1.4874
 7684SOL    HW224599   2.443   2.205   4.217 -0.7227  1.4087  0.3839
 7685SOL     OW24600   3.323   2.673   4.494 -0.2471  0.1122 -0.5246
 7685SOL    HW124601   3.396   2.625   4.532  1.3382  0.7639 -2.5514
 7685SOL    HW224602   3.344   2.679   4.401 -1.9356  2.0180 -0.8646
 7686SOL     OW24603   0.299   1.212   3.375 -0.1471 -0.3565 -0.7876
 7686SOL    HW124604   0.334   1.258   3.299  0.5734 -3.0768 -2.2188
 7686SOL    HW224605   0.233   1.153   3.339 -0.1614 -1.3422  0.7613
 7687SOL     OW24606   1.237   1.273   1.286  0.3601  0.1068 -0.5729
 7687SOL    HW124607   1.171   1.222   1.239  1.4144 -0.4015 -1.5533
 7687SOL    HW224608   1.263   1.341   1.224  1.2532 -0.1373 -0.4810
 7688SOL     OW24609   0.385   0.106   0.272  0.8288 -0.1951 -0.0062
 7688SOL    HW124610   0.361   0.016   0.295 -0.6946  0.4910  1.2609
 7688SOL    HW224611   0.346   0.119   0.185  0.0900 -0.4141  0.2851
 7689SOL     OW24612   3.817   3.908   4.176  0.0041  0.1023 -0.1040
 7689SOL    HW124613   3.845   3.914   4.267  2.4604 -0.0165 -0.7854
 7689SOL    HW224614   3.887   3.950   4.126 -0.8375 -0.6225 -2.0105
 7690SOL     OW24615   1.921   0.282   6.720  0.0580  0.5616  0.4945
 7690SOL    HW124616   1.964   0.197   6.723  0.4646  0.7853  1.7627
 7690SOL    HW224617   1.830   0.263   6.697  0.6058 -0.0050 -1.3192
 7691SOL     OW24618   1.208   4.809   4.373  0.3191  0.4458 -0.1618
 7691SOL    HW124619   1.252   4.868   4.312 -0.7535  0.2889 -1.1236
 7691SOL    HW224620   1.220   4.722   4.336 -0.3179  0.3442 -0.1375
 7692SOL     OW24621   6.278   6.543   0.599 -0.3029 -0.7162  0.4571
 7692SOL    HW124622   6.195   6.589   0.613 -1.5411 -2.2162 -1.3016
 7692SOL    HW224623   6.314   6.581   0.519  0.9112  0.1434  1.3829
 7693SOL     OW24624   4.461   2.065   6.247 -0.2252  0.1088 -0.0929
 7693SOL    HW124625   4.494   2.086   6.160 -2.1618  0.0208 -0.8998
 7693SOL    HW224626   4.439   2.150   6.286 -1.0923  0.0463 -0.4318
 7694SOL     OW24627   3.332   5.756   4.189 -0.3684 -0.0899  0.2287
 7694SOL    HW124628   3.333   5.708   4.272 -0.3448  0.2257  0.4138
 7694SOL    HW224629   3.245   5.796   4.186 -0.6040 -0.6337 -0.2100
 7695SOL     OW24630   1.680   5.620   2.952  0.3977  0.0807 -0.3505
 7695SOL    HW124631   1.649   5.577   2.872  0.0173  1.3230 -0.8925
 7695SOL    HW224632   1.741   5.687   2.921 -2.1058  2.7437  0.0586
 7696SOL     OW24633   1.203   2.701   4.937  0.0078  0.4790  0.8659
 7696SOL    HW124634   1.159   2.729   4.857  0.8577  1.8853  0.8438
 7696SOL    HW224635   1.296   2.714   4.919  0.3272 -0.7463  1.5192
 7697SOL     OW24636   3.130   3.117   2.304  0.1246 -0.8495 -0.0417
 7697SOL    HW124637   3.217   3.152   2.321  0.1169 -1.0001  0.3215
 7697SOL    HW224638   3.141   3.058   2.230  0.0349  0.3541 -1.0497
 7698SOL     OW24639   3.005   0.565   2.347  0.3423 -0.0941  0.3286
 7698SOL    HW124640   3.085   0.586   2.299  0.5786 -3.0867 -0.8279
 7698SOL    HW224641   3.035   0.529   2.430 -0.0012  2.5565  1.6831
 7699SOL     OW24642   5.784   5.726   3.346  0.3273 -0.3783 -0.8623
 7699SOL    HW124643   5.788   5.821   3.360 -0.1873 -0.6139  1.2425
 7699SOL    HW224644   5.732   5.715   3.266 -1.3844  1.0781 -0.0154
 7700SOL     OW24645   1.473   2.084   1.754 -0.2578 -0.5491 -0.7924
 7700SOL    HW124646   1.392   2.042   1.782 -1.2191  0.6955 -1.6320
 7700SOL    HW224647   1.445   2.159   1.702  1.3729  1.0700  0.5029
 7701SOL     OW24648   1.788   2.532   5.220 -0.3476 -1.2524 -0.1904
 7701SOL    HW124649   1.804   2.620   5.253 -2.6242 -0.8286 -0.0219
 7701SOL    HW224650   1.849   2.476   5.267  1.4534  0.2647 -0.6242
 7702SOL     OW24651   5.155   1.742   6.262  0.2630 -0.4938 -0.3330
 7702SOL    HW124652   5.184   1.825   6.300  2.0909 -1.4521  0.4758
 7702SOL    HW224653   5.059   1.744   6.270  0.4002  0.6732  1.4542
 7703SOL     OW24654   2.943   1.061   4.190 -0.5349 -0.5458 -0.1871
 7703SOL    HW124655   2.973   1.152   4.192 -2.7586  0.2310  0.7517
 7703SOL    HW224656   2.933   1.041   4.097 -0.9190  0.5017 -0.3763
 7704SOL     OW24657   0.078   2.949   1.449  0.0623 -0.0189 -0.0502
 7704SOL    HW124658  -0.012   2.958   1.482 -0.0334 -1.1634  0.0230
 7704SOL    HW224659   0.132   2.986   1.519 -0.3576  0.9835 -0.2365
 7705SOL     OW24660   4.633   6.083   0.789  0.1402  0.2500  0.6179
 7705SOL    HW124661   4.625   6.018   0.719  0.5430  0.2392  0.5784
 7705SOL    HW224662   4.704   6.050   0.844 -0.8565 -0.2852  1.6315
 7706SOL     OW24663   6.228   0.737   0.060  0.0057 -0.0954  0.0293
 7706SOL    HW124664   6.240   0.667   0.124 -0.3512 -0.4515 -0.2907
 7706SOL    HW224665   6.140   0.723   0.025 -0.4814  1.1391  0.7111
 7707SOL     OW24666   5.613   5.929   2.106  0.5746 -0.0361  0.1735
 7707SOL    HW124667   5.588   5.893   2.191  1.0529  2.0807  1.2643
 7707SOL    HW224668   5.704   5.904   2.095 -0.0525 -2.1696 -0.7957
 7708SOL     OW24669   2.936   2.459   0.418  0.0740  0.6134  0.4771
 7708SOL    HW124670   2.885   2.411   0.352  0.6379  1.5242 -0.6556
 7708SOL    HW224671   2.892   2.544   0.425  1.5258  1.5038 -0.7006
 7709SOL     OW24672   0.052   1.628   0.418  0.4952 -0.2800  0.1206
 7709SOL    HW124673   0.024   1.711   0.456  0.6527  0.9183 -2.1755
 7709SOL    HW224674  -0.016   1.565   0.444  0.0135  0.7123  1.3388
 7710SOL     OW24675   5.952   3.795   3.770  0.0777  0.3185 -0.2732
 7710SOL    HW124676   5.888   3.794   3.698 -0.1158  1.4859 -0.1329
 7710SOL    HW224677   5.908   3.752   3.843  0.0046 -0.1979 -0.6109
 7711SOL     OW24678   3.402   4.780   0.507  0.0121  0.6936  0.6384
 7711SOL    HW124679   3.388   4.858   0.560  1.5622  0.4100  1.5373
 7711SOL    HW224680   3.357   4.710   0.555 -0.0355  0.7472  0.6718
 7712SOL     OW24681   0.241   3.427   1.825  0.4658 -0.0580  0.4397
 7712SOL    HW124682   0.295   3.483   1.882  1.4745 -0.4410 -0.1153
 7712SOL    HW224683   0.261   3.457   1.736 -0.2065 -0.2539  0.2174
 7713SOL     OW24684   2.808   0.712   2.968  0.2181 -0.2526 -0.0259
 7713SOL    HW124685   2.772   0.706   2.880  0.6074  1.0534 -0.2906
 7713SOL    HW224686   2.830   0.804   2.979  2.4977 -0.8033  0.5281
 7714SOL     OW24687   0.945   3.331   5.407 -0.1998  0.3663  0.0580
 7714SOL    HW124688   0.911   3.321   5.318 -0.3562 -1.9056  0.3097
 7714SOL    HW224689   0.890   3.273   5.460  0.4727  0.9892  1.4811
 7715SOL     OW24690   3.530   3.889   4.189  0.4372  0.1298  0.5259
 7715SOL    HW124691   3.622   3.890   4.162  0.7169 -1.1063  1.3598
 7715SOL    HW224692   3.484   3.844   4.118  0.8795 -1.4405  1.1948
 7716SOL     OW24693   4.268   0.501   5.181 -0.3465  0.3549 -0.1142
 7716SOL    HW124694   4.277   0.574   5.242  0.2048 -0.9124  1.3991
 7716SOL    HW224695   4.175   0.480   5.182 -0.3117  0.1909  0.5193
 7717SOL     OW24696   6.023   5.511   3.613 -0.2744  0.1128  0.4194
 7717SOL    HW124697   5.984   5.596   3.630 -0.8141 -0.1979  0.7704
 7717SOL    HW224698   5.995   5.489   3.524  2.0450  1.4634 -0.7406
 7718SOL     OW24699   6.357   1.669   1.393  0.0065 -0.3583 -0.1143
 7718SOL    HW124700   6.441   1.656   1.437  0.0951 -1.4825 -0.5823
 7718SOL    HW224701   6.374   1.645   1.302 -0.8553 -0.7379 -0.1785
 7719SOL     OW24702   5.291   5.273   6.116  0.2588  0.3175 -0.7123
 7719SOL    HW124703   5.385   5.284   6.130  0.2272 -1.0122  0.9556
 7719SOL    HW224704   5.252   5.352   6.153  0.5769 -0.6021  1.7854
 7720SOL     OW24705   2.762   1.911   4.564 -0.3683 -0.0143  0.6281
 7720SOL    HW124706   2.733   1.831   4.521  0.9956 -1.1052  1.6653
 7720SOL    HW224707   2.711   1.980   4.522  2.0881 -0.6841 -4.1292
 7721SOL     OW24708   3.381   2.310   2.498  0.1398 -0.0048 -0.2019
 7721SOL    HW124709   3.388   2.262   2.580 -0.3303 -0.8660 -0.6528
 7721SOL    HW224710   3.420   2.395   2.516  0.1603 -0.2368  0.8740
 7722SOL     OW24711   0.859   0.387   2.168 -0.0910 -0.0516 -0.0804
 7722SOL    HW124712   0.872   0.434   2.086  0.3614 -3.0990 -1.8958
 7722SOL    HW224713   0.765   0.392   2.184 -0.2821  0.0172 -1.1638
 7723SOL     OW24714   5.544   3.417   0.808  0.0096  1.1093 -0.1123
 7723SOL    HW124715   5.465   3.447   0.765 -2.2633 -2.7633  0.8508
 7723SOL    HW224716   5.557   3.477   0.882 -3.2597  0.8181  0.8382
 7724SOL     OW24717   3.328   6.559   0.989  0.0648 -0.2798  0.3885
 7724SOL    HW124718   3.374   6.632   1.029 -0.0424  1.4067 -2.3152
 7724SOL    HW224719   3.240   6.563   1.026  0.8926 -1.0541  2.5944
 7725SOL     OW24720   4.513   6.733   3.721  0.0157  0.0571 -0.1897
 7725SOL    HW124721   4.605   6.731   3.692 -0.0694 -1.2388 -0.4026
 7725SOL    HW224722   4.469   6.788   3.656 -0.0139 -2.1375 -2.1569
 7726SOL     OW24723   2.402   3.505   0.904  0.1182 -0.0119 -0.1838
 7726SOL    HW124724   2.410   3.584   0.958 -0.2629  0.1746 -0.3898
 7726SOL    HW224725   2.309   3.501   0.882  0.1493 -0.4753 -0.2450
 7727SOL     OW24726   4.226   0.090   0.349 -0.0355 -0.2758 -0.3058
 7727SOL    HW124727   4.278   0.035   0.408 -1.1734 -0.5961  0.4352
 7727SOL    HW224728   4.273   0.087   0.266  2.1202  0.9448  0.7800
 7728SOL     OW24729   3.670   5.141   3.293 -0.6410  0.3891 -0.6511
 7728SOL    HW124730   3.612   5.067   3.312  0.3414 -0.2187  0.1266
 7728SOL    HW224731   3.748   5.101   3.256 -0.4844  1.1480 -1.1678
 7729SOL     OW24732   0.888   3.676   0.562 -0.2316 -0.2390  0.1384
 7729SOL    HW124733   0.892   3.646   0.652 -1.3303  3.8825  1.7687
 7729SOL    HW224734   0.794   3.679   0.542 -0.0967  0.7419 -0.4181
 7730SOL     OW24735   5.299   1.220   6.109  0.0385  0.2758  0.0626
 7730SOL    HW124736   5.215   1.203   6.066  0.7431 -0.0892 -1.2420
 7730SOL    HW224737   5.285   1.196   6.200 -0.8903 -1.1354 -0.4154
 7731SOL     OW24738   0.386   3.914   5.917 -0.2898  0.1860 -0.5523
 7731SOL    HW124739   0.469   3.889   5.959 -1.5245 -1.9730  0.7497
 7731SOL    HW224740   0.378   3.856   5.842 -1.8502 -1.5562  0.8832
 7732SOL     OW24741   3.364   5.905   4.715 -0.1082  0.1995 -0.2556
 7732SOL    HW124742   3.372   5.836   4.781 -0.3399  0.0005 -0.4321
 7732SOL    HW224743   3.438   5.963   4.732 -0.6529  0.6364  0.7413
 7733SOL     OW24744   2.589   4.316   3.457  0.3921  0.3614 -0.5684
 7733SOL    HW124745   2.582   4.317   3.362  1.6550 -1.3970 -0.7274
 7733SOL    HW224746   2.506   4.282   3.488 -0.1293  1.2027 -0.9955
 7734SOL     OW24747   6.191   0.667   1.761 -0.4173  0.1429 -0.4989
 7734SOL    HW124748   6.106   0.623   1.760 -0.4227  0.1430 -2.3118
 7734SOL    HW224749   6.250   0.603   1.800 -1.0832 -0.1386  0.0848
 7735SOL     OW24750   1.640   2.246   3.407 -0.0873  0.1504  0.5081
 7735SOL    HW124751   1.657   2.323   3.461  0.3080  2.2561 -2.3705
 7735SOL    HW224752   1.545   2.238   3.406 -0.2567  1.6899 -0.4105
 7736SOL     OW24753   0.064   5.380   3.078  0.0574  0.7510  0.0250
 7736SOL    HW124754   0.068   5.315   3.008 -0.4564 -0.4868  1.1156
 7736SOL    HW224755   0.096   5.334   3.155 -0.7691  1.6527  0.9262
 7737SOL     OW24756   0.864   1.005   0.217 -0.4240  0.1389  0.3378
 7737SOL    HW124757   0.787   0.979   0.166 -1.5581  0.3031  1.8912
 7737SOL    HW224758   0.831   1.072   0.276  1.0229  0.4801  0.7833
 7738SOL     OW24759   2.505   2.409   1.831 -0.0526  0.0204  0.3868
 7738SOL    HW124760   2.579   2.434   1.885 -1.0518  3.6822  0.3587
 7738SOL    HW224761   2.432   2.400   1.892 -0.1861 -0.7609  0.1250
 7739SOL     OW24762   6.641   1.738   5.817  0.4231 -0.3646 -0.1619
 7739SOL    HW124763   6.600   1.761   5.900  0.3478 -3.3691  0.7439
 7739SOL    HW224764   6.632   1.817   5.763 -2.7850  0.5119  1.4246
 7740SOL     OW24765   3.896   4.238   3.345 -0.0664  0.6920 -0.6023
 7740SOL    HW124766   3.917   4.189   3.266  0.7741  1.8326 -1.1043
 7740SOL    HW224767   3.809   4.275   3.329 -0.4570 -0.1411 -0.4509
 7741SOL     OW24768   4.310   4.473   2.529  0.2021  0.1316 -0.0760
 7741SOL    HW124769   4.271   4.413   2.466 -0.0724  0.3452 -0.1127
 7741SOL    HW224770   4.315   4.557   2.483  0.2541  0.2225  0.0922
 7742SOL     OW24771   5.008   6.303   4.636  0.3433 -0.2213 -0.2434
 7742SOL    HW124772   5.054   6.387   4.637 -0.1693  0.0683 -0.5054
 7742SOL    HW224773   4.955   6.305   4.557 -0.0634 -0.5751  0.0113
 7743SOL     OW24774   5.605   1.347   3.952  0.4961  0.5127 -0.1257
 7743SOL    HW124775   5.540   1.372   3.886 -0.3420 -0.2260  0.3914
 7743SOL    HW224776   5.648   1.270   3.916  0.4316  0.4465 -0.0620
 7744SOL     OW24777   2.243   6.141   2.899  0.0641  0.4518 -0.6288
 7744SOL    HW124778   2.325   6.180   2.868 -0.5739  1.7901 -0.6966
 7744SOL    HW224779   2.262   6.114   2.989  0.4450  1.1709 -0.4886
 7745SOL     OW24780   1.538   3.065   2.239 -0.4612 -0.5351  0.1990
 7745SOL    HW124781   1.555   2.984   2.191  0.7786 -1.3038  1.8333
 7745SOL    HW224782   1.624   3.092   2.271 -1.0729  0.6207  0.9332
 7746SOL     OW24783   3.652   1.715   0.433 -0.7318  0.6401  0.1892
 7746SOL    HW124784   3.642   1.788   0.494 -2.2238  0.9799 -0.4316
 7746SOL    HW224785   3.583   1.727   0.368  0.8595  0.3598 -1.6738
 7747SOL     OW24786   4.223   3.910   2.771  0.0869  0.3568 -0.1234
 7747SOL    HW124787   4.283   3.848   2.728  1.0657  0.8222  0.5450
 7747SOL    HW224788   4.156   3.854   2.811 -0.1909 -0.1486 -1.2379
 7748SOL     OW24789   5.520   4.279   1.243  0.0195 -0.2234  0.0919
 7748SOL    HW124790   5.603   4.232   1.232  0.3211  0.2311  0.3877
 7748SOL    HW224791   5.518   4.341   1.171 -1.1792 -1.8060 -1.3157
 7749SOL     OW24792   3.766   6.489   2.584 -0.1588 -0.2046  0.1913
 7749SOL    HW124793   3.706   6.504   2.511  0.7016 -2.2956 -1.0251
 7749SOL    HW224794   3.742   6.402   2.617  2.0730 -1.0704 -0.2826
 7750SOL     OW24795   5.203   6.629   0.295 -0.1059  0.3728  0.2449
 7750SOL    HW124796   5.242   6.588   0.219  0.5132  0.6590  0.4043
 7750SOL    HW224797   5.206   6.562   0.364 -0.3902  0.2171  0.1081
 7751SOL     OW24798   0.387   0.495   1.498  0.0264  0.7278 -0.0122
 7751SOL    HW124799   0.315   0.460   1.551 -0.4788  0.8854 -0.5976
 7751SOL    HW224800   0.415   0.421   1.444 -0.3359  0.9268 -0.4787
 7752SOL     OW24801   2.482   2.662   5.047  0.0600  0.2983  0.2553
 7752SOL    HW124802   2.408   2.679   4.989 -0.2284 -1.9622 -0.1207
 7752SOL    HW224803   2.443   2.623   5.125  0.6736  1.2301  1.0601
 7753SOL     OW24804   2.648   6.562   5.341 -0.7355 -0.1596 -0.5222
 7753SOL    HW124805   2.590   6.595   5.409  1.8008 -1.2758  2.4409
 7753SOL    HW224806   2.670   6.473   5.369 -0.2008 -0.9957 -3.2965
 7754SOL     OW24807   1.950   2.697   3.414  0.2489  0.2339  0.1426
 7754SOL    HW124808   1.993   2.777   3.383  0.7367  0.5815  1.6386
 7754SOL    HW224809   1.902   2.665   3.338  1.3952  1.0319 -0.9651
 7755SOL     OW24810   0.153   5.058   6.630 -0.1240 -0.4880 -0.4177
 7755SOL    HW124811   0.086   5.069   6.562 -0.6406  0.5322  0.2303
 7755SOL    HW224812   0.153   5.141   6.677 -0.8802 -1.6813  1.8025
 7756SOL     OW24813   1.936   5.148   3.712 -0.0032  0.0244  0.6633
 7756SOL    HW124814   1.871   5.086   3.744  0.1702 -0.7588 -0.4185
 7756SOL    HW224815   1.938   5.133   3.617  0.3796  1.3705  0.4371
 7757SOL     OW24816   0.296   2.666   6.532  0.0448  0.4849  0.3435
 7757SOL    HW124817   0.368   2.706   6.581  0.3281  0.2388  0.1248
 7757SOL    HW224818   0.297   2.711   6.448  0.8429 -0.4988 -0.1873
 7758SOL     OW24819   3.135   2.298   0.510 -0.4883 -0.1205 -0.8781
 7758SOL    HW124820   3.131   2.213   0.555  1.2694 -0.1051 -0.6406
 7758SOL    HW224821   3.045   2.312   0.480 -1.1954 -1.2785  0.5051
 7759SOL     OW24822   4.884   4.495   4.710  0.1487  0.0057  0.4945
 7759SOL    HW124823   4.971   4.533   4.703 -0.5824  1.5549 -0.9517
 7759SOL    HW224824   4.899   4.408   4.745  2.3400 -0.0002 -0.2802
 7760SOL     OW24825   3.937   6.168   1.332 -0.0435  0.8836 -0.5804
 7760SOL    HW124826   3.919   6.139   1.243 -2.3047  2.1594 -0.6144
 7760SOL    HW224827   3.879   6.242   1.345  0.3995  0.8749  1.8955
 7761SOL     OW24828   6.694   1.394   3.888  0.0646  0.3514  0.5417
 7761SOL    HW124829   6.750   1.317   3.894 -2.4762 -1.5902  1.3762
 7761SOL    HW224830   6.742   1.455   3.832  1.1506 -2.8227 -2.3024
 7762SOL     OW24831   3.055   5.636   3.220 -0.3458  0.3566  0.0759
 7762SOL    HW124832   3.055   5.662   3.128  1.3674  1.3319  0.3122
 7762SOL    HW224833   3.139   5.593   3.233 -0.3338  0.6984  1.3095
 7763SOL     OW24834   5.738   3.841   6.397 -0.4706 -0.2655  0.1075
 7763SOL    HW124835   5.813   3.891   6.430  0.0618  0.6091 -2.2388
 7763SOL    HW224836   5.662   3.882   6.438  0.1637  0.5330  0.5185
 7764SOL     OW24837   5.140   1.859   5.064 -0.0815  0.7614 -0.4655
 7764SOL    HW124838   5.235   1.865   5.067  0.3243 -3.3176 -0.3368
 7764SOL    HW224839   5.112   1.856   5.156 -0.2892  1.0540 -0.5139
 7765SOL     OW24840   5.846   1.209   1.060  0.0373 -0.1454 -0.2531
 7765SOL    HW124841   5.853   1.196   0.965  0.3529  0.4089 -0.3078
 7765SOL    HW224842   5.891   1.133   1.098  1.4655  0.5218 -0.5671
 7766SOL     OW24843   2.195   4.553   3.689 -0.4646  0.4012 -0.0972
 7766SOL    HW124844   2.105   4.529   3.665 -0.8860  1.0489  0.7684
 7766SOL    HW224845   2.196   4.649   3.684  0.2869  0.3813 -0.4376
 7767SOL     OW24846   2.647   4.146   5.626  0.4926  0.3673 -0.0187
 7767SOL    HW124847   2.686   4.071   5.582 -0.1279  1.2112 -2.1642
 7767SOL    HW224848   2.561   4.116   5.653  0.6407  0.0090  0.0585
 7768SOL     OW24849   0.746   0.606   6.125 -0.2298 -0.1296 -0.0778
 7768SOL    HW124850   0.753   0.687   6.176  1.8554  0.5168 -1.2980
 7768SOL    HW224851   0.695   0.631   6.048 -1.4288 -0.5604  0.5369
 7769SOL     OW24852   5.078   5.507   4.359  0.0300  0.6333 -0.5314
 7769SOL    HW124853   5.142   5.513   4.430 -0.4844 -1.8175  0.2451
 7769SOL    HW224854   5.003   5.558   4.389  0.0086  0.0325  0.4994
 7770SOL     OW24855   1.775   6.376   2.579 -0.1479  0.1449 -0.1653
 7770SOL    HW124856   1.829   6.321   2.522  1.6895  0.7962  0.8574
 7770SOL    HW224857   1.820   6.373   2.663  0.5859  3.8510 -0.2643
 7771SOL     OW24858   6.764   5.141   1.742  0.1699  0.0271 -0.2399
 7771SOL    HW124859   6.827   5.212   1.735  3.0869 -2.3947 -0.6973
 7771SOL    HW224860   6.714   5.144   1.661  1.3899  0.5559 -0.9924
 7772SOL     OW24861   5.785   4.222   4.688 -0.5270 -0.7232  0.8145
 7772SOL    HW124862   5.822   4.268   4.613  1.7396 -3.0920  0.3668
 7772SOL    HW224863   5.694   4.206   4.663  0.3252 -2.0322 -1.7987
 7773SOL     OW24864   4.247   6.461   6.253 -0.3913  0.4863  0.3032
 7773SOL    HW124865   4.283   6.461   6.164 -2.3355 -1.0178 -0.5712
 7773SOL    HW224866   4.173   6.521   6.249  0.3192  1.4667  1.3212
 7774SOL     OW24867   3.309   0.256   2.683 -0.6838  0.5417 -0.0665
 7774SOL    HW124868   3.355   0.197   2.622  0.2053  1.1271  0.0151
 7774SOL    HW224869   3.337   0.226   2.769  1.1770  2.1235 -0.0497
 7775SOL     OW24870   3.698   3.409   5.989 -0.0466 -0.0067 -0.2148
 7775SOL    HW124871   3.631   3.381   5.926  0.7490  1.2090 -1.6787
 7775SOL    HW224872   3.655   3.476   6.041 -0.3046 -0.0202 -0.4046
 7776SOL     OW24873   0.742   3.178   4.930 -0.2661 -0.8341  0.2282
 7776SOL    HW124874   0.649   3.196   4.941 -0.4592 -0.8630 -1.2283
 7776SOL    HW224875   0.784   3.264   4.936 -0.5246 -0.6627 -0.3414
 7777SOL     OW24876   0.906   5.377   6.334  0.4389 -0.3308  0.4206
 7777SOL    HW124877   0.854   5.305   6.369 -0.6718 -0.7626 -1.9257
 7777SOL    HW224878   0.848   5.453   6.340 -0.0428 -0.5491 -0.9949
 7778SOL     OW24879   2.935   1.471   4.821  0.1433  0.3726  0.1923
 7778SOL    HW124880   2.889   1.491   4.740 -1.9624  0.3653  1.3080
 7778SOL    HW224881   2.986   1.549   4.841  1.5753 -0.0252 -1.6430
 7779SOL     OW24882   6.370   5.934   0.579 -0.0334 -0.0308  0.7414
 7779SOL    HW124883   6.438   5.930   0.647 -0.4957 -0.9368  1.1660
 7779SOL    HW224884   6.288   5.923   0.627 -0.4369  0.4267  0.1550
 7780SOL     OW24885   0.497   5.462   6.008 -0.2368  0.4305  0.0095
 7780SOL    HW124886   0.457   5.386   6.052  0.0993  0.5874  0.6011
 7780SOL    HW224887   0.582   5.430   5.977 -0.9889 -0.0427 -1.6818
 7781SOL     OW24888   0.001   2.080   4.905 -0.2655 -0.2826 -0.1515
 7781SOL    HW124889  -0.005   2.163   4.858 -0.6210  0.5730  1.3703
 7781SOL    HW224890  -0.081   2.034   4.883  0.0213 -0.3351 -1.1524
 7782SOL     OW24891   3.751   3.882   0.795  0.0570  0.0446 -0.2811
 7782SOL    HW124892   3.797   3.966   0.800 -1.5800  0.9247  1.0880
 7782SOL    HW224893   3.687   3.886   0.866 -0.9650 -1.8123 -1.0387
 7783SOL     OW24894   3.190   2.059   0.701  0.8900  0.1470  0.4161
 7783SOL    HW124895   3.224   2.004   0.771  0.7527 -2.8654 -1.7041
 7783SOL    HW224896   3.096   2.063   0.717  1.1201  1.4645  1.6348
 7784SOL     OW24897   3.249   0.452   4.192 -0.1794 -0.1788 -0.3172
 7784SOL    HW124898   3.230   0.475   4.101 -0.0406 -2.0825 -0.8562
 7784SOL    HW224899   3.207   0.522   4.243  0.4985  1.4199 -1.8408
 7785SOL     OW24900   0.792   0.112   3.298  0.4049  0.6030 -0.3059
 7785SOL    HW124901   0.848   0.101   3.375  1.1451 -1.5752 -1.0568
 7785SOL    HW224902   0.854   0.110   3.224 -0.3805  1.6158 -1.0083
 7786SOL     OW24903   5.015   3.540   1.493  0.1464 -0.6397 -0.6560
 7786SOL    HW124904   4.977   3.548   1.406  0.5249  0.9881 -0.7020
 7786SOL    HW224905   4.956   3.589   1.550  2.0807  1.9900 -0.7317
 7787SOL     OW24906   5.121   0.081   0.360  0.1832 -0.0021 -0.4210
 7787SOL    HW124907   5.105   0.075   0.455  1.1961  0.3064 -0.2149
 7787SOL    HW224908   5.128  -0.010   0.331  1.1889 -0.0997  0.0592
 7788SOL     OW24909   4.331   2.590   1.942 -0.3480  0.0132 -0.0267
 7788SOL    HW124910   4.323   2.632   1.856 -2.3979  0.2940  0.2385
 7788SOL    HW224911   4.278   2.510   1.935 -0.7379  0.1572  1.0180
 7789SOL     OW24912   6.148   4.264   4.303  0.5865 -0.7111  0.2216
 7789SOL    HW124913   6.146   4.314   4.221  0.3635 -1.0314  0.0323
 7789SOL    HW224914   6.166   4.174   4.277  1.4038 -0.6671  0.5984
 7790SOL     OW24915   4.600   0.974   5.087  0.1401 -0.1711  0.7883
 7790SOL    HW124916   4.591   0.890   5.133 -1.2873  0.1168  1.0812
 7790SOL    HW224917   4.541   1.033   5.134  1.7256  1.2311  1.0832
 7791SOL     OW24918   1.803   0.070   6.125 -0.4956 -0.6752  0.0611
 7791SOL    HW124919   1.801   0.162   6.150 -0.9856 -1.1555  1.9079
 7791SOL    HW224920   1.734   0.062   6.058  0.0852  0.4239 -0.7027
 7792SOL     OW24921   0.339   4.841   6.641  0.5030 -0.2590 -0.4068
 7792SOL    HW124922   0.431   4.862   6.625  0.7069 -1.0356 -0.3102
 7792SOL    HW224923   0.291   4.921   6.619  1.2969  0.5052  0.5674
 7793SOL     OW24924   1.752   2.868   0.034  0.0726  0.2028 -0.4514
 7793SOL    HW124925   1.785   2.790   0.078 -1.0884 -0.6887 -1.1355
 7793SOL    HW224926   1.816   2.885  -0.035  1.3011  0.9602  0.7908
 7794SOL     OW24927   5.578   3.338   2.465 -0.1414  0.5474 -0.0419
 7794SOL    HW124928   5.612   3.252   2.490  1.6629  1.4644  0.8410
 7794SOL    HW224929   5.643   3.400   2.498 -0.9104  2.2099 -1.4980
 7795SOL     OW24930   3.524   1.680   6.017 -0.2371 -0.0085  0.1433
 7795SOL    HW124931   3.538   1.773   6.034  1.3100 -0.1800 -0.0012
 7795SOL    HW224932   3.523   1.673   5.921  0.5267 -0.2379  0.1459
 7796SOL     OW24933   6.363   1.964   3.678 -0.0260  0.3473 -0.1141
 7796SOL    HW124934   6.302   1.894   3.655 -0.1133  0.1568  0.6663
 7796SOL    HW224935   6.404   1.988   3.595 -1.3325  0.6573 -0.6975
 7797SOL     OW24936   3.872   2.315   1.625 -0.1288  0.5025  0.3015
 7797SOL    HW124937   3.965   2.312   1.648  0.2252 -2.2532 -1.0244
 7797SOL    HW224938   3.869   2.372   1.547  0.3427  1.0562  0.6801
 7798SOL     OW24939   3.533   0.215   1.351 -0.2940 -0.0546  0.2391
 7798SOL    HW124940   3.601   0.177   1.295 -1.3597 -0.5105 -0.7738
 7798SOL    HW224941   3.474   0.142   1.370 -0.8930  0.4922  0.5129
 7799SOL     OW24942   5.861   0.580   2.481 -0.5559 -0.3241 -0.0930
 7799SOL    HW124943   5.824   0.635   2.412 -2.5095 -0.6141  0.6606
 7799SOL    HW224944   5.843   0.490   2.454  2.1612 -0.6733 -1.0588
 7800SOL     OW24945   4.712   3.200   4.023  0.4494  0.0761  0.0921
 7800SOL    HW124946   4.738   3.292   4.017  0.8987  0.1651  2.5157
 7800SOL    HW224947   4.742   3.162   3.940 -0.0696  2.1538 -1.1277
 7801SOL     OW24948   1.628   1.614   4.032 -0.2638 -0.7696  0.0547
 7801SOL    HW124949   1.587   1.677   3.972 -0.2977  1.1695  1.9948
 7801SOL    HW224950   1.567   1.540   4.035 -0.9063 -0.3204 -1.2500
 7802SOL     OW24951   0.532   4.836   2.371  0.6126 -0.1497 -0.3096
 7802SOL    HW124952   0.461   4.806   2.314  0.9835 -1.3017 -0.1969
 7802SOL    HW224953   0.553   4.924   2.339 -0.8004  0.1811 -0.3841
 7803SOL     OW24954   4.072   2.005   0.527  0.6630  0.3095 -0.3019
 7803SOL    HW124955   4.031   1.932   0.482  0.5097 -0.2682  0.7317
 7803SOL    HW224956   4.122   2.051   0.460  1.4331 -1.2237 -0.8167
 7804SOL     OW24957   0.421   1.445   0.432  0.6162 -0.0500  0.4869
 7804SOL    HW124958   0.407   1.467   0.524  0.2921 -2.1503  0.9945
 7804SOL    HW224959   0.511   1.414   0.428  1.0791  1.2921 -0.2143
 7805SOL     OW24960   1.339   5.965   2.670  0.0184 -0.3286 -0.4361
 7805SOL    HW124961   1.402   5.949   2.741  0.3386  0.8647 -0.4280
 7805SOL    HW224962   1.255   5.977   2.714  0.2943  0.8473 -0.2061
 7806SOL     OW24963   1.044   5.842   3.963 -0.1955  0.3665 -0.2623
 7806SOL    HW124964   0.980   5.819   4.030  0.2215  0.8592  0.3068
 7806SOL    HW224965   1.053   5.937   3.969 -0.6262  0.5030 -1.4427
 7807SOL     OW24966   0.186   3.800   0.120 -0.1789 -0.5444  0.2679
 7807SOL    HW124967   0.170   3.892   0.143  0.5296 -1.1126  3.5085
 7807SOL    HW224968   0.281   3.795   0.107 -0.1509 -0.9102  0.5958
 7808SOL     OW24969   4.136   4.926   5.151 -0.4355  0.3588 -0.4046
 7808SOL    HW124970   4.121   4.990   5.221 -1.1794  0.4641 -0.6442
 7808SOL    HW224971   4.230   4.909   5.153 -0.2279  1.4625 -0.3341
 7809SOL     OW24972   2.638   0.562   3.195  0.5953 -0.0020 -0.2886
 7809SOL    HW124973   2.675   0.476   3.214 -0.9486 -0.8376 -0.8617
 7809SOL    HW224974   2.663   0.580   3.104 -0.9582 -0.9228 -0.9416
 7810SOL     OW24975   4.912   3.270   6.470  0.3182 -0.0626  0.8151
 7810SOL    HW124976   4.898   3.207   6.399  0.2307  1.9077 -0.9947
 7810SOL    HW224977   4.823   3.291   6.500  0.3841 -1.7959  2.4420
 7811SOL     OW24978   6.341   3.564   1.288 -0.0422  0.2880  0.0807
 7811SOL    HW124979   6.395   3.566   1.366 -0.5667  0.0544  0.4603
 7811SOL    HW224980   6.273   3.630   1.304 -1.5754 -1.3988  0.9041
 7812SOL     OW24981   2.230   6.183   5.561  0.2404 -0.3274  0.3379
 7812SOL    HW124982   2.156   6.244   5.560  1.6615  1.5406  1.6371
 7812SOL    HW224983   2.307   6.239   5.553  1.6353 -1.9311  1.7783
 7813SOL     OW24984   4.007   6.064   2.652  0.3226  0.3580  0.3066
 7813SOL    HW124985   4.089   6.110   2.635  1.2824 -0.8214  1.5382
 7813SOL    HW224986   4.010   6.043   2.745 -0.8775 -0.6532  0.1378
 7814SOL     OW24987   2.970   2.828   2.646  0.3850  0.0116 -0.0502
 7814SOL    HW124988   2.920   2.746   2.651  0.3407  0.0668  0.4678
 7814SOL    HW224989   2.931   2.876   2.573  0.2788 -0.3426 -0.2272
 7815SOL     OW24990   5.987   0.768   1.016  0.1421 -0.4488 -0.2917
 7815SOL    HW124991   5.993   0.823   0.938 -0.0808 -1.6515 -1.1862
 7815SOL    HW224992   5.936   0.692   0.988 -1.0437 -0.3218  1.3669
 7816SOL     OW24993   1.943   1.409   6.496  0.2610 -0.4034 -0.1920
 7816SOL    HW124994   1.922   1.320   6.524 -1.3812  0.0355  0.0574
 7816SOL    HW224995   1.986   1.448   6.572  1.4532 -1.1128 -0.4745
 7817SOL     OW24996   5.914   3.629   2.994  0.1803  0.0795 -0.5297
 7817SOL    HW124997   5.863   3.552   2.966  1.4474 -0.2179 -2.1661
 7817SOL    HW224998   5.908   3.689   2.919  0.4705  0.9398  0.1312
 7818SOL     OW24999   2.709   1.232   4.600 -0.4410  0.5847 -0.3564
 7818SOL    HW125000   2.663   1.199   4.522 -0.9190 -0.3697  0.3119
 7818SOL    HW225001   2.712   1.327   4.588 -1.0355  0.5024 -1.2560
 7819SOL     OW25002   6.579   4.869   2.174 -0.1584  0.1852  0.2356
 7819SOL    HW125003   6.612   4.932   2.238 -1.1588  0.3679  0.5904
 7819SOL    HW225004   6.503   4.830   2.216  0.9251 -1.9105  0.3681
 7820SOL     OW25005   1.885   2.579   0.443 -0.3285  0.1323  0.2465
 7820SOL    HW125006   1.895   2.488   0.471  0.4543  0.2190  0.2761
 7820SOL    HW225007   1.792   2.597   0.451 -0.5346 -0.7728 -0.0864
 7821SOL     OW25008   0.436   2.220   4.177  0.2758 -0.3701 -0.1586
 7821SOL    HW125009   0.440   2.176   4.262 -0.8903 -0.0880  0.0557
 7821SOL    HW225010   0.528   2.228   4.150  0.6976 -0.0570  1.2847
 7822SOL     OW25011   3.400   6.696   2.740 -0.7620  0.0315  0.2438
 7822SOL    HW125012   3.326   6.729   2.791 -0.1935  0.3844  0.8558
 7822SOL    HW225013   3.378   6.605   2.723 -1.9507  0.4796 -0.7321
 7823SOL     OW25014   6.133   0.981   1.613  0.0524  0.2197  0.3089
 7823SOL    HW125015   6.212   0.968   1.666  0.1267 -0.7128 -0.0038
 7823SOL    HW225016   6.137   1.073   1.587  0.2772  0.5693  1.4918
 7824SOL     OW25017   2.272   3.510   5.252 -0.0101  0.4593 -0.0476
 7824SOL    HW125018   2.217   3.528   5.175  0.7301  0.5310 -0.5746
 7824SOL    HW225019   2.358   3.544   5.227  0.0844  1.0586  1.0687
 7825SOL     OW25020   1.026   0.089   4.335 -0.1932  0.2392  0.1289
 7825SOL    HW125021   0.993   0.169   4.294  1.0790 -1.0325 -3.8192
 7825SOL    HW225022   1.104   0.117   4.382  0.7102  1.3055 -1.8871
 7826SOL     OW25023   5.395   1.537   3.988  0.6108  0.3262  0.7946
 7826SOL    HW125024   5.446   1.617   3.975 -0.2436  0.5371 -1.9033
 7826SOL    HW225025   5.449   1.482   4.044  2.8342  1.3759 -0.2110
 7827SOL     OW25026   6.773   3.610   5.689 -0.2195 -0.0213  0.4205
 7827SOL    HW125027   6.727   3.526   5.695 -0.8147  0.2319 -0.3929
 7827SOL    HW225028   6.814   3.609   5.603 -1.0550  0.9219 -0.0090
 7828SOL     OW25029   5.162   0.286   2.683  0.8868  0.1398  0.0210
 7828SOL    HW125030   5.238   0.249   2.730  0.8581 -0.4282 -0.3748
 7828SOL    HW225031   5.184   0.275   2.591 -0.5152 -1.8280 -0.1327
 7829SOL     OW25032   6.734   0.333   0.849  0.5590 -0.3332 -0.5738
 7829SOL    HW125033   6.707   0.246   0.879 -1.3892 -0.5822 -2.8098
 7829SOL    HW225034   6.718   0.389   0.925 -0.6515 -1.4989  0.0877
 7830SOL     OW25035   2.684   5.391   0.595  0.7451 -0.4487 -0.2174
 7830SOL    HW125036   2.772   5.354   0.586  0.2376 -1.5014 -1.1959
 7830SOL    HW225037   2.641   5.335   0.659  0.6860 -0.1354  0.0153
 7831SOL     OW25038   1.897   2.324   0.507  0.3054 -0.0401 -0.2480
 7831SOL    HW125039   1.974   2.329   0.564  0.6698 -1.1252 -0.6138
 7831SOL    HW225040   1.867   2.233   0.515  0.0694 -0.0788 -1.3985
 7832SOL     OW25041   0.457   4.143   0.965  0.4911 -0.0822 -1.0744
 7832SOL    HW125042   0.540   4.187   0.948  0.0770  0.1095 -2.8555
 7832SOL    HW225043   0.482   4.054   0.991  1.2692  0.4968  0.2751
 7833SOL     OW25044   3.440   5.170   6.427  0.1988 -0.0158  0.2831
 7833SOL    HW125045   3.403   5.211   6.505 -0.8959  0.6355 -0.5579
 7833SOL    HW225046   3.478   5.088   6.459  0.8810  0.8175  1.7006
 7834SOL     OW25047   3.381   5.326   6.228 -0.8825 -0.1492  0.0548
 7834SOL    HW125048   3.411   5.267   6.298 -0.7318  0.8142  0.8130
 7834SOL    HW225049   3.346   5.402   6.274 -0.1410  0.8156 -0.9303
 7835SOL     OW25050   6.645   4.905   2.548  0.6838 -0.0231 -0.3093
 7835SOL    HW125051   6.581   4.855   2.498  0.9002 -0.3952 -0.2185
 7835SOL    HW225052   6.668   4.848   2.622 -0.8692  1.1814  1.1670
 7836SOL     OW25053   3.510   4.956   0.314 -0.3374 -0.8683 -0.1742
 7836SOL    HW125054   3.486   4.898   0.386 -0.1696 -0.2293  0.3991
 7836SOL    HW225055   3.478   4.911   0.235 -1.9205 -0.8351  0.4138
 7837SOL     OW25056   4.080   0.440   2.248  0.2903 -0.2649 -0.1501
 7837SOL    HW125057   4.051   0.525   2.217 -0.3794 -0.3465  0.2292
 7837SOL    HW225058   4.172   0.452   2.269 -0.1082  0.7204  1.1416
 7838SOL     OW25059   6.676   4.503   2.890  0.0593  0.1004 -0.6099
 7838SOL    HW125060   6.767   4.493   2.917 -0.2617  0.8401  0.8473
 7838SOL    HW225061   6.639   4.415   2.894  0.8680 -0.3364 -1.9555
 7839SOL     OW25062   4.279   5.369   1.654 -0.1232  1.2939 -0.4344
 7839SOL    HW125063   4.275   5.457   1.615  0.4187  1.1890 -0.7327
 7839SOL    HW225064   4.352   5.326   1.609  0.4630  1.1395  0.6287
 7840SOL     OW25065   6.534   3.075   6.685  0.0070 -0.2806 -0.0640
 7840SOL    HW125066   6.602   3.129   6.644  0.7110 -0.6365  0.6180
 7840SOL    HW225067   6.491   3.031   6.611  0.0648  0.4610 -0.5503
 7841SOL     OW25068   6.724   6.029   5.221 -0.5703  0.3136 -0.0303
 7841SOL    HW125069   6.654   5.965   5.238  0.6638 -0.9236  0.6126
 7841SOL    HW225070   6.743   6.019   5.127 -2.2342  1.7433 -0.5768
 7842SOL     OW25071   4.169   2.129   0.317  0.3225  0.0053  0.7607
 7842SOL    HW125072   4.262   2.107   0.326  0.2589 -0.5353  0.1691
 7842SOL    HW225073   4.169   2.216   0.277  0.6035 -0.8518 -1.2368
 7843SOL     OW25074   5.982   2.441   4.471  0.4765  0.4551 -0.6284
 7843SOL    HW125075   5.911   2.398   4.422  0.3550  0.5523 -0.5390
 7843SOL    HW225076   5.999   2.521   4.422 -0.6227  1.2563  0.2713
 7844SOL     OW25077   2.068   2.140   6.441 -0.1592 -0.5762  0.6489
 7844SOL    HW125078   2.027   2.054   6.438 -1.6758  0.1184 -1.4515
 7844SOL    HW225079   2.116   2.147   6.358 -0.9157  0.9295  0.2952
 7845SOL     OW25080   5.306   2.413   0.026  0.3210  0.4153  1.2362
 7845SOL    HW125081   5.222   2.456   0.041  0.9142  1.4234  1.7747
 7845SOL    HW225082   5.283   2.325  -0.003 -0.9719  1.5155 -1.4054
 7846SOL     OW25083   2.862   5.913   1.409 -0.2182  0.4067  0.2179
 7846SOL    HW125084   2.831   5.925   1.499  1.1478 -1.5607  1.0200
 7846SOL    HW225085   2.951   5.879   1.419  0.1148  0.5344 -1.9080
 7847SOL     OW25086   4.718   2.517   2.859 -0.4323  0.2559 -0.5866
 7847SOL    HW125087   4.626   2.499   2.879 -0.2582  0.5400  0.5038
 7847SOL    HW225088   4.720   2.610   2.836 -0.5306  0.0712 -1.3898
 7848SOL     OW25089   0.092   2.252   0.112  0.2308 -0.5161 -0.2738
 7848SOL    HW125090   0.167   2.279   0.059  0.0005 -2.1240 -1.4752
 7848SOL    HW225091   0.029   2.323   0.103  1.9145  1.3428  1.5457
 7849SOL     OW25092   4.317   6.005   2.243 -0.1850 -0.7211  0.5057
 7849SOL    HW125093   4.226   5.974   2.248 -0.9624  1.3091 -0.0232
 7849SOL    HW225094   4.324   6.046   2.157  0.9830 -0.1417  0.8564
 7850SOL     OW25095   2.953   5.551   0.964 -0.3577 -0.2636 -0.2996
 7850SOL    HW125096   3.006   5.498   1.024 -1.8571 -1.9242 -0.3291
 7850SOL    HW225097   2.889   5.594   1.020  1.2719  2.2288 -0.1852
 7851SOL     OW25098   3.097   4.042   0.400 -0.0179 -0.1916 -0.3071
 7851SOL    HW125099   3.181   4.056   0.445 -0.0781 -0.2373 -0.1822
 7851SOL    HW225100   3.098   4.107   0.329  0.2003 -0.3102 -0.4153
 7852SOL     OW25101   4.565   4.800   3.438  0.0206  0.2721  0.1415
 7852SOL    HW125102   4.486   4.747   3.447 -0.5335  1.2141  1.2694
 7852SOL    HW225103   4.592   4.817   3.529  0.5255  1.3658 -0.1951
 7853SOL     OW25104   3.474   6.554   4.934 -0.6314  0.0808 -0.9340
 7853SOL    HW125105   3.555   6.593   4.900  0.5002 -2.1880 -0.9716
 7853SOL    HW225106   3.485   6.555   5.029 -0.9518  0.4988 -0.8941
 7854SOL     OW25107   3.603   2.007   2.002  0.1724 -0.4907 -0.5304
 7854SOL    HW125108   3.589   1.913   2.007 -0.0604 -0.4136  0.7002
 7854SOL    HW225109   3.648   2.021   1.919  0.3586 -1.7042 -0.6473
 7855SOL     OW25110   6.511   5.976   1.423  0.3689 -0.1032  0.1938
 7855SOL    HW125111   6.577   6.045   1.411 -0.1615  0.3876  0.0322
 7855SOL    HW225112   6.548   5.900   1.378  1.3880 -0.2135  1.1607
 7856SOL     OW25113   4.360   4.776   2.808  0.0543  0.2616 -0.1795
 7856SOL    HW125114   4.372   4.726   2.889  0.8989 -0.1952 -0.5663
 7856SOL    HW225115   4.444   4.820   2.795 -0.0339  0.2408 -0.8549
 7857SOL     OW25116   5.549   5.487   2.264  0.1888 -0.4025  0.2850
 7857SOL    HW125117   5.535   5.424   2.335  1.6361  1.2433  2.1609
 7857SOL    HW225118   5.463   5.524   2.247  0.0569  0.5842  2.6798
 7858SOL     OW25119   6.675   2.084   2.396 -0.0057  0.7110  0.2883
 7858SOL    HW125120   6.647   2.169   2.428 -1.5550  1.1078 -1.8990
 7858SOL    HW225121   6.643   2.080   2.306 -1.1339 -2.6854  0.6780
 7859SOL     OW25122   4.402   0.547   3.716 -0.0316  0.2430  0.6804
 7859SOL    HW125123   4.400   0.620   3.655 -0.5856 -1.4857 -1.4898
 7859SOL    HW225124   4.332   0.488   3.687  1.6017 -2.0650  1.0915
 7860SOL     OW25125   3.763   0.132   4.764  0.3694 -0.0397  0.2270
 7860SOL    HW125126   3.736   0.206   4.818  1.1804 -1.4570  2.7764
 7860SOL    HW225127   3.844   0.160   4.723  0.1329  0.8387  0.3505
 7861SOL     OW25128   3.837   4.509   5.562  0.2122  0.2542 -0.1830
 7861SOL    HW125129   3.828   4.465   5.647  0.3047 -0.6389 -0.6223
 7861SOL    HW225130   3.829   4.438   5.498  0.8744  0.8100 -0.8958
 7862SOL     OW25131   4.396   1.615   2.203 -0.5473 -0.0936  0.4131
 7862SOL    HW125132   4.482   1.592   2.169 -0.1392  0.3724  1.0987
 7862SOL    HW225133   4.336   1.600   2.130  0.2507  0.4865 -0.3860
 7863SOL     OW25134   4.177   6.342   3.877  0.5136  0.1632  0.2969
 7863SOL    HW125135   4.254   6.398   3.883  0.4949  0.2470 -0.2162
 7863SOL    HW225136   4.200   6.275   3.813  0.5759 -0.4879  0.9840
 7864SOL     OW25137   5.072   2.821   4.556 -0.2932 -0.6897  0.0127
 7864SOL    HW125138   5.126   2.745   4.580 -0.8594 -1.3274 -0.6955
 7864SOL    HW225139   5.124   2.896   4.584  0.2610 -1.3280  0.7703
 7865SOL     OW25140   2.404   2.883   1.567 -0.0279  0.3200 -0.1022
 7865SOL    HW125141   2.380   2.883   1.474  0.8144  0.2078 -0.3372
 7865SOL    HW225142   2.379   2.796   1.598  1.7427 -0.5130 -0.8246
 7866SOL     OW25143   1.986   5.908   1.981 -0.8311  0.0952 -0.7138
 7866SOL    HW125144   2.008   5.999   2.000  0.1124 -0.2233 -0.1868
 7866SOL    HW225145   1.980   5.904   1.885 -3.4478  1.2467 -0.6667
 7867SOL     OW25146   6.614   4.453   5.758 -0.4440 -0.2412 -0.0663
 7867SOL    HW125147   6.550   4.409   5.702  0.3283 -2.3298  0.6151
 7867SOL    HW225148   6.603   4.412   5.844 -0.1428  1.4101  0.7923
 7868SOL     OW25149   2.049   4.542   3.130 -0.0885  0.4201  0.3441
 7868SOL    HW125150   1.962   4.531   3.169 -0.7001  3.2590  0.0318
 7868SOL    HW225151   2.110   4.523   3.201 -1.0289  0.3356  1.1480
 7869SOL     OW25152   0.511   5.923   5.709  0.0920 -0.3930  0.3314
 7869SOL    HW125153   0.418   5.946   5.710  0.5128  1.4797 -0.0690
 7869SOL    HW225154   0.544   5.953   5.794  0.8225  1.3243 -0.5161
 7870SOL     OW25155   5.461   3.010   1.318 -0.7586  0.2553 -0.2102
 7870SOL    HW125156   5.408   3.076   1.363 -0.6924 -0.1858  0.5301
 7870SOL    HW225157   5.535   3.059   1.283 -1.7797  0.9281 -1.5071
 7871SOL     OW25158   2.603   0.771   0.277  0.1268 -0.4851 -0.2835
 7871SOL    HW125159   2.538   0.772   0.206  1.1965 -0.0832 -1.2962
 7871SOL    HW225160   2.567   0.829   0.344  0.1611  1.0467 -1.5290
 7872SOL     OW25161   1.913   0.314   5.749 -0.7115 -0.1244 -0.8016
 7872SOL    HW125162   1.931   0.225   5.779  0.0071  0.0240 -0.7627
 7872SOL    HW225163   1.920   0.309   5.653  0.0256  0.0283 -0.7616
 7873SOL     OW25164   3.566   3.054   5.734 -0.1345  0.1254 -0.4112
 7873SOL    HW125165   3.535   3.076   5.821 -2.3198  0.5823 -1.2333
 7873SOL    HW225166   3.519   2.974   5.711  0.8914 -0.3449 -0.9440
 7874SOL     OW25167   0.549   4.744   5.848  0.1110 -0.4107  0.6575
 7874SOL    HW125168   0.640   4.763   5.872  0.5809 -2.7078  0.9541
 7874SOL    HW225169   0.555   4.664   5.795 -1.6882 -0.2022  0.0829
 7875SOL     OW25170   2.000   2.392   6.313  0.6903 -0.1852  0.0718
 7875SOL    HW125171   2.021   2.329   6.381 -1.0836 -0.1195  0.7388
 7875SOL    HW225172   1.990   2.475   6.360 -0.9578 -0.2151 -0.1481
 7876SOL     OW25173   2.838   2.767   1.452 -0.1672 -0.1890 -0.0050
 7876SOL    HW125174   2.864   2.767   1.360  0.6941 -1.3937  0.2196
 7876SOL    HW225175   2.782   2.690   1.462 -0.4953  0.0947  0.4317
 7877SOL     OW25176   3.321   2.841   0.056 -0.1589 -0.1590  0.1723
 7877SOL    HW125177   3.380   2.850  -0.019 -1.2809  0.5117 -0.6712
 7877SOL    HW225178   3.315   2.746   0.070 -0.4418 -0.3458 -1.0393
 7878SOL     OW25179   3.616   6.520   3.800  0.0950  0.0143  0.8162
 7878SOL    HW125180   3.657   6.491   3.882  1.8036  2.2949  0.8682
 7878SOL    HW225181   3.655   6.463   3.733  0.1334 -0.6257  1.3732
 7879SOL     OW25182   4.059   4.487   6.336  0.3420  0.3060 -0.4028
 7879SOL    HW125183   4.024   4.559   6.390  0.3533  0.6549 -0.8584
 7879SOL    HW225184   4.137   4.457   6.384  1.5840  2.0047 -1.2687
 7880SOL     OW25185   3.457   3.252   1.227  0.1593 -0.2300 -0.3736
 7880SOL    HW125186   3.389   3.303   1.183  0.4915  0.1904 -0.4019
 7880SOL    HW225187   3.444   3.162   1.195 -1.4334 -0.4905  0.8625
 7881SOL     OW25188   3.327   0.515   4.983  0.4214  0.0933 -0.1373
 7881SOL    HW125189   3.266   0.516   5.057  0.2920 -2.6024 -0.1283
 7881SOL    HW225190   3.356   0.606   4.975 -1.1477  0.8466  1.8826
 7882SOL     OW25191   4.525   2.605   4.295 -0.6239  0.5280  0.1110
 7882SOL    HW125192   4.577   2.620   4.373 -0.9270  0.8969  0.2453
 7882SOL    HW225193   4.521   2.510   4.286  0.4236  0.4976 -0.1427
 7883SOL     OW25194   3.298   2.745   1.974  0.1967 -0.3942  0.1962
 7883SOL    HW125195   3.391   2.745   1.999  0.4289  0.1617 -0.6335
 7883SOL    HW225196   3.299   2.737   1.879 -0.6354 -1.0723  0.2380
 7884SOL     OW25197   6.593   1.312   6.275  0.0891 -0.0776 -0.2804
 7884SOL    HW125198   6.612   1.344   6.363 -0.8755 -2.3272  0.8093
 7884SOL    HW225199   6.549   1.228   6.288 -2.5640  0.7491 -2.8422
 7885SOL     OW25200   3.376   0.815   0.136  0.1349  0.3953 -0.1141
 7885SOL    HW125201   3.343   0.838   0.049 -0.1742 -1.1528 -0.4207
 7885SOL    HW225202   3.318   0.746   0.167  1.3986 -0.4188  0.5137
 7886SOL     OW25203   5.342   0.603   4.453 -0.3870 -0.1573 -0.3048
 7886SOL    HW125204   5.423   0.635   4.412 -0.3692 -0.5123 -0.5595
 7886SOL    HW225205   5.337   0.649   4.536  0.4001 -0.5719 -0.0075
 7887SOL     OW25206   3.619   5.569   4.514  0.2212 -0.3053 -0.3079
 7887SOL    HW125207   3.525   5.566   4.534  0.5743 -1.5882  1.4471
 7887SOL    HW225208   3.652   5.483   4.541  1.7252 -0.3312 -2.0139
 7888SOL     OW25209   4.823   3.799   3.668  0.6426  0.4239 -0.0476
 7888SOL    HW125210   4.904   3.841   3.639  1.0527  0.1608  0.6791
 7888SOL    HW225211   4.763   3.807   3.594  0.9409  1.6737 -0.1677
 7889SOL     OW25212   3.353   1.543   6.575 -0.0061  0.5393  0.2121
 7889SOL    HW125213   3.349   1.451   6.550 -0.2873  0.4451  0.5877
 7889SOL    HW225214   3.360   1.591   6.492  0.6140  0.1589  0.0434
 7890SOL     OW25215   6.731   6.133   3.408 -0.1026  0.5599 -0.2591
 7890SOL    HW125216   6.721   6.210   3.353  0.3235  1.5855  1.0212
 7890SOL    HW225217   6.652   6.131   3.463 -0.1189  0.0771 -0.2920
 7891SOL     OW25218   0.584   2.353   6.012  0.1963 -0.0749 -0.0343
 7891SOL    HW125219   0.645   2.353   5.938 -0.5733  0.9103 -0.6828
 7891SOL    HW225220   0.576   2.445   6.037  0.4105 -0.3781  1.2654
 7892SOL     OW25221   4.771   5.856   3.168  0.0747  0.9492  0.4791
 7892SOL    HW125222   4.754   5.946   3.197  1.1966  1.4252 -0.2641
 7892SOL    HW225223   4.797   5.865   3.076  0.9665 -0.0382  0.6149
 7893SOL     OW25224   2.518   1.583   2.309 -0.1787 -1.0685  0.1292
 7893SOL    HW125225   2.533   1.519   2.239  0.0463 -1.4924  0.5606
 7893SOL    HW225226   2.528   1.668   2.266  1.2813 -1.3200 -0.0870
 7894SOL     OW25227   1.060   6.250   1.718 -0.4407 -0.2306 -0.2751
 7894SOL    HW125228   1.150   6.219   1.729 -0.4556 -0.2477 -0.2044
 7894SOL    HW225229   1.059   6.286   1.629  0.0866  1.2868  0.2975
 7895SOL     OW25230   4.570   5.853   1.375 -0.2060  0.3026  0.6192
 7895SOL    HW125231   4.596   5.847   1.283 -1.2208  1.0436  0.2641
 7895SOL    HW225232   4.558   5.947   1.391 -1.2163  0.0949  1.1572
 7896SOL     OW25233   2.683   2.931   6.170  0.4732 -0.0522 -0.1946
 7896SOL    HW125234   2.615   2.894   6.114  0.5501 -0.1429 -0.2277
 7896SOL    HW225235   2.752   2.956   6.109  0.3993  0.1968 -0.1793
 7897SOL     OW25236   1.402   5.734   3.945 -0.1932 -0.5028  0.2755
 7897SOL    HW125237   1.431   5.814   3.989  1.3920 -0.8689 -0.0072
 7897SOL    HW225238   1.382   5.761   3.856  1.9066 -0.6319 -0.2922
 7898SOL     OW25239   3.825   4.019   1.902  0.3628  0.2571 -0.2209
 7898SOL    HW125240   3.791   3.999   1.815  1.3705  0.6995 -0.7342
 7898SOL    HW225241   3.748   4.047   1.952  0.1171  2.4129 -1.6793
 7899SOL     OW25242   0.418   3.397   0.812  0.6054  0.3631 -0.6066
 7899SOL    HW125243   0.460   3.337   0.751  0.8158  0.7771 -0.8809
 7899SOL    HW225244   0.325   3.374   0.809  0.0691  2.2615 -3.3864
 7900SOL     OW25245   4.890   2.154   6.735 -0.6370 -0.4615  0.6653
 7900SOL    HW125246   4.932   2.216   6.675 -1.3911 -1.0583 -0.5084
 7900SOL    HW225247   4.933   2.170   6.819  0.3825  0.4585  0.0006
 7901SOL     OW25248   0.994   0.909   4.293 -0.4355 -0.1674  0.5526
 7901SOL    HW125249   1.039   0.993   4.302 -0.7643  0.4548 -2.5347
 7901SOL    HW225250   0.915   0.918   4.347 -0.6470  1.6777  0.0070
 7902SOL     OW25251   5.009   5.563   1.884 -0.0411 -0.0292 -1.0871
 7902SOL    HW125252   5.053   5.601   1.961 -1.4672  0.5104 -0.5019
 7902SOL    HW225253   5.057   5.600   1.809 -1.1676  2.8396 -0.5453
 7903SOL     OW25254   2.914   1.525   1.472 -0.0440  0.2214 -0.1598
 7903SOL    HW125255   2.900   1.562   1.385  0.7783 -1.1317 -0.9033
 7903SOL    HW225256   2.984   1.578   1.510  0.2898  0.1893 -0.7255
 7904SOL     OW25257   1.037   2.401   5.530  0.0777  0.0097 -0.1178
 7904SOL    HW125258   0.949   2.428   5.555 -0.9666 -2.5270 -0.7159
 7904SOL    HW225259   1.042   2.418   5.436  1.1193  2.2212  0.2730
 7905SOL     OW25260   1.425   1.992   2.127 -0.0865  0.4538  0.0496
 7905SOL    HW125261   1.447   1.912   2.078 -0.9931 -0.0512  0.4330
 7905SOL    HW225262   1.459   2.063   2.074 -1.2819 -0.0547 -1.4906
 7906SOL     OW25263   1.087   2.363   3.796 -0.0699  0.3446 -0.1416
 7906SOL    HW125264   1.057   2.366   3.887  0.7238  1.0402  0.1067
 7906SOL    HW225265   1.070   2.272   3.769 -0.6915  0.2381  0.5600
 7907SOL     OW25266   5.391   1.297   1.674  0.0341  0.0157 -0.0349
 7907SOL    HW125267   5.412   1.386   1.701  0.1581 -0.5815  2.0384
 7907SOL    HW225268   5.469   1.246   1.698  0.4198 -0.5134 -2.2174
 7908SOL     OW25269   1.626   3.191   6.140  0.2313 -0.2858  0.7275
 7908SOL    HW125270   1.615   3.177   6.234  0.0297  1.3039  0.9692
 7908SOL    HW225271   1.576   3.270   6.121 -0.6798 -1.2171 -0.9549
 7909SOL     OW25272   0.833   1.699   3.979 -0.2722  0.1402 -0.1704
 7909SOL    HW125273   0.806   1.749   3.901  1.5078 -0.1608 -1.0300
 7909SOL    HW225274   0.863   1.766   4.041  0.4671  0.2671 -0.6482
 7910SOL     OW25275   3.085   6.125   3.255 -0.5701  0.1521 -0.5173
 7910SOL    HW125276   3.076   6.139   3.161 -0.8073 -0.1668 -0.5418
 7910SOL    HW225277   3.154   6.186   3.282 -1.9201  1.7538 -0.5414
 7911SOL     OW25278   5.738   1.030   5.574  0.4873 -0.0167 -0.3266
 7911SOL    HW125279   5.724   0.978   5.495  0.4588 -1.0382  0.3199
 7911SOL    HW225280   5.681   1.106   5.563 -0.3305 -0.6788 -0.8177
 7912SOL     OW25281   5.600   5.817   4.080 -0.4762  0.3397 -0.0431
 7912SOL    HW125282   5.541   5.759   4.129  0.8778  1.0093  2.5635
 7912SOL    HW225283   5.542   5.867   4.023 -1.9707 -1.6722 -0.4142
 7913SOL     OW25284   6.486   3.608   1.698  0.5968  0.0926  0.2014
 7913SOL    HW125285   6.478   3.564   1.782 -1.7294  2.0979  1.1316
 7913SOL    HW225286   6.482   3.537   1.633 -0.1148 -1.2847  1.6873
 7914SOL     OW25287   5.445   4.326   4.164  0.6803 -0.3812 -0.4174
 7914SOL    HW125288   5.369   4.284   4.205  0.2723  0.6536 -0.0917
 7914SOL    HW225289   5.496   4.253   4.129 -0.3892 -1.1064 -0.5184
 7915SOL     OW25290   1.067   1.382   3.725  0.3826  0.2641 -0.4699
 7915SOL    HW125291   1.135   1.362   3.660  0.0885 -0.7373 -0.4871
 7915SOL    HW225292   0.988   1.339   3.691  0.3095 -0.5749  0.6997
 7916SOL     OW25293   0.745   2.432   3.961  0.7211 -0.2348  0.5206
 7916SOL    HW125294   0.772   2.521   3.936  0.4370  0.2990  2.0250
 7916SOL    HW225295   0.665   2.416   3.910  0.6289  0.4819  0.4301
 7917SOL     OW25296   0.060   1.406   2.639 -0.3561 -0.2476  0.0392
 7917SOL    HW125297  -0.030   1.437   2.631 -0.3190 -0.0295  0.4526
 7917SOL    HW225298   0.062   1.357   2.721 -0.0635 -0.1302  0.1062
 7918SOL     OW25299   2.905   4.342   2.497 -0.5993 -0.0382  0.1342
 7918SOL    HW125300   2.955   4.273   2.454  0.6578  0.9388 -0.0288
 7918SOL    HW225301   2.948   4.355   2.581 -0.8821  0.4621  0.2106
 7919SOL     OW25302   0.537   1.540   5.537 -0.2642  0.3441  0.0729
 7919SOL    HW125303   0.443   1.548   5.558 -0.5044 -0.8055 -0.4993
 7919SOL    HW225304   0.542   1.551   5.442  0.2608  0.9322  0.1611
 7920SOL     OW25305   0.383   1.049   6.100 -0.2231 -0.1948 -0.3105
 7920SOL    HW125306   0.325   1.121   6.074  1.1958  0.7450 -1.0124
 7920SOL    HW225307   0.399   1.062   6.193 -0.9467 -0.3284 -0.1642
 7921SOL     OW25308   4.058   2.464   2.641  0.2480 -0.0885 -0.8088
 7921SOL    HW125309   4.138   2.411   2.650  0.6262  0.3060 -1.7972
 7921SOL    HW225310   3.987   2.400   2.651  0.6772 -0.4670 -0.0635
 7922SOL     OW25311   0.478   6.256   0.837  0.1009 -0.5371 -0.2474
 7922SOL    HW125312   0.535   6.282   0.764  0.3735 -0.8665 -0.1571
 7922SOL    HW225313   0.427   6.183   0.802 -2.4215  1.6053 -1.3037
 7923SOL     OW25314   2.389   5.423   6.784  0.1879 -1.0803  0.5364
 7923SOL    HW125315   2.372   5.406   6.877  1.3431 -2.5586  0.5048
 7923SOL    HW225316   2.318   5.379   6.738 -1.4850  1.2364  0.7233
 7924SOL     OW25317   5.118   1.655   6.757 -0.4427 -0.1358  0.2593
 7924SOL    HW125318   5.053   1.720   6.782 -0.5513 -0.3948  0.6398
 7924SOL    HW225319   5.097   1.577   6.808 -0.6888 -0.6819 -0.6495
 7925SOL     OW25320   6.279   1.182   3.725  0.6911 -0.4551  0.4221
 7925SOL    HW125321   6.358   1.202   3.673  1.0918 -0.3953  1.0478
 7925SOL    HW225322   6.296   1.221   3.811  0.1888 -0.8793  0.7186
 7926SOL     OW25323   1.126   2.449   0.499  0.1603  0.4600  0.2712
 7926SOL    HW125324   1.117   2.423   0.591 -1.0387  0.0126  0.0503
 7926SOL    HW225325   1.152   2.541   0.502 -0.8446  0.7344  1.0593
 7927SOL     OW25326   1.402   3.804   2.541  0.0446 -0.0345  0.6160
 7927SOL    HW125327   1.397   3.710   2.555 -2.0482 -0.0284  0.3527
 7927SOL    HW225328   1.383   3.843   2.627  2.8429  0.2293  1.1972
 7928SOL     OW25329   2.556   2.332   6.698  0.0048  0.7279  0.3011
 7928SOL    HW125330   2.490   2.369   6.756 -0.3390 -0.5101  0.7287
 7928SOL    HW225331   2.585   2.252   6.742 -0.5190 -0.4442 -1.3698
 7929SOL     OW25332   0.976   1.346   1.471 -0.0202 -0.0489  0.3699
 7929SOL    HW125333   0.976   1.257   1.506  0.4140  0.0441  0.6098
 7929SOL    HW225334   1.031   1.341   1.393  0.9224  0.2423  0.9987
 7930SOL     OW25335   2.260   2.515   0.266  0.3081  0.0056 -0.0277
 7930SOL    HW125336   2.216   2.544   0.346  2.2030  3.3107  0.0034
 7930SOL    HW225337   2.194   2.524   0.197  0.2057  2.8270  0.3274
 7931SOL     OW25338   0.425   2.965   2.299  0.1192 -0.3471 -0.8342
 7931SOL    HW125339   0.367   2.890   2.288  0.6539 -1.0757  0.8432
 7931SOL    HW225340   0.499   2.930   2.350  2.0112  0.5459 -2.8047
 7932SOL     OW25341   4.957   5.102   5.742 -0.1029  0.4985  0.5066
 7932SOL    HW125342   4.962   5.134   5.652 -1.2943 -0.8728 -0.0776
 7932SOL    HW225343   5.034   5.140   5.785 -0.8902  3.3607 -0.3526
 7933SOL     OW25344   2.445   1.906   2.272 -0.0220  0.0852  0.9995
 7933SOL    HW125345   2.355   1.888   2.247 -0.5798  1.8513  1.6099
 7933SOL    HW225346   2.479   1.961   2.201  0.1924  0.4097  1.3506
 7934SOL     OW25347   2.325   5.857   2.250  0.1824 -0.4839 -0.5619
 7934SOL    HW125348   2.299   5.949   2.255  1.6914 -0.0376 -0.1759
 7934SOL    HW225349   2.283   5.816   2.325  2.0286  0.6198  1.1908
 7935SOL     OW25350   4.078   0.138   2.211 -0.2648 -0.0040 -0.5127
 7935SOL    HW125351   4.004   0.102   2.260  0.3552 -0.6855 -0.0561
 7935SOL    HW225352   4.069   0.233   2.221 -1.4654 -0.0435 -1.0612
 7936SOL     OW25353   2.058   3.255   4.152  0.2805 -0.1839 -0.0446
 7936SOL    HW125354   1.975   3.263   4.200  0.0587  1.7039 -0.6531
 7936SOL    HW225355   2.032   3.224   4.065  0.3759 -0.9040  0.1786
 7937SOL     OW25356   1.942   4.779   0.689 -0.2239  0.0935 -0.0687
 7937SOL    HW125357   1.847   4.772   0.675 -0.1963  0.2651 -0.3439
 7937SOL    HW225358   1.954   4.866   0.728 -0.2298 -0.1233  0.4312
 7938SOL     OW25359   5.457   2.448   1.136  0.0912  0.5308  0.8559
 7938SOL    HW125360   5.491   2.485   1.218 -1.7660  2.4086  0.8717
 7938SOL    HW225361   5.362   2.443   1.150 -0.0860 -0.6572 -0.6055
 7939SOL     OW25362   4.088   6.467   1.621  0.3747 -0.4567  0.2417
 7939SOL    HW125363   4.088   6.542   1.681 -1.4997  0.3152 -0.6210
 7939SOL    HW225364   3.998   6.434   1.624  1.2733 -3.0737  0.9981
 7940SOL     OW25365   6.159   2.743   3.614  0.5156  0.2220  0.5559
 7940SOL    HW125366   6.105   2.822   3.624 -1.9985 -1.0853 -1.4790
 7940SOL    HW225367   6.104   2.672   3.647  1.0561 -1.1415 -1.3322
 7941SOL     OW25368   6.699   3.000   3.724 -0.2498  0.4911 -0.4849
 7941SOL    HW125369   6.780   2.983   3.772  0.2396 -1.7675 -1.9554
 7941SOL    HW225370   6.645   2.922   3.739 -1.0803  0.8322 -1.5774
 7942SOL     OW25371   1.335   2.459   3.939  0.0429 -0.0767 -0.5130
 7942SOL    HW125372   1.253   2.474   3.892  0.6784 -0.6356 -1.8646
 7942SOL    HW225373   1.389   2.535   3.916  0.3902 -0.3993 -0.7802
 7943SOL     OW25374   1.940   1.848   2.261 -0.6635 -0.1570  0.3583
 7943SOL    HW125375   1.916   1.863   2.353  1.0249 -1.1859  1.0190
 7943SOL    HW225376   1.915   1.757   2.245  0.8704 -0.6050  0.4362
 7944SOL     OW25377   2.933   0.281   5.026 -0.1941 -0.1370 -0.1455
 7944SOL    HW125378   2.967   0.202   4.984  1.2782  0.7635 -0.7153
 7944SOL    HW225379   2.984   0.290   5.106  0.7384  1.0320 -0.8314
 7945SOL     OW25380   1.538   0.335   1.316  0.3680  0.0818  0.2644
 7945SOL    HW125381   1.476   0.351   1.387  0.5025  2.2707 -0.0333
 7945SOL    HW225382   1.575   0.249   1.334 -1.8865 -0.7650  1.0871
 7946SOL     OW25383   6.108   5.102   1.135  0.1808  0.2851  0.1362
 7946SOL    HW125384   6.120   5.041   1.063  0.0458 -0.1621  0.4886
 7946SOL    HW225385   6.195   5.141   1.148  0.2733  0.1510 -0.0757
 7947SOL     OW25386   5.672   0.923   0.962 -0.2705 -0.3315 -0.5461
 7947SOL    HW125387   5.654   0.851   1.022 -0.0064 -0.1486 -0.2396
 7947SOL    HW225388   5.618   0.995   0.995  1.5308  0.4700  0.8614
 7948SOL     OW25389   6.464   0.165   3.938  0.2759  0.1650 -0.1634
 7948SOL    HW125390   6.372   0.140   3.932  0.5725 -0.7474 -1.1594
 7948SOL    HW225391   6.486   0.151   4.031 -0.5318  0.1958  0.0378
 7949SOL     OW25392   5.981   5.483   2.294  0.6199  0.7954  0.9610
 7949SOL    HW125393   6.069   5.449   2.309  0.8210  0.9949  0.2959
 7949SOL    HW225394   5.939   5.418   2.236  0.4385  0.8539  1.0253
 7950SOL     OW25395   1.896   4.594   2.782 -0.3470 -0.0441  0.0015
 7950SOL    HW125396   1.967   4.539   2.815  0.1997  0.0520 -0.9849
 7950SOL    HW225397   1.826   4.584   2.847  0.4297 -0.4204  0.8044
 7951SOL     OW25398   3.165   3.962   6.722  0.5462 -0.1826  0.0480
 7951SOL    HW125399   3.239   3.915   6.763  1.5672  0.5443 -0.9049
 7951SOL    HW225400   3.110   3.892   6.685  1.6372 -0.6924 -0.6786
 7952SOL     OW25401   6.320   0.184   1.812  0.1009  0.1490  0.5756
 7952SOL    HW125402   6.307   0.230   1.729  1.8479  0.4597  0.4353
 7952SOL    HW225403   6.279   0.098   1.798 -1.4635  0.9249  0.1623
 7953SOL     OW25404   3.117   6.757   4.269 -0.4909 -0.1776 -0.7210
 7953SOL    HW125405   3.138   6.686   4.330 -0.5970  1.5867  1.4556
 7953SOL    HW225406   3.023   6.747   4.252 -0.0926 -1.8703 -2.2795
 7954SOL     OW25407   6.644   4.388   6.474 -0.1876  0.2577  0.5612
 7954SOL    HW125408   6.696   4.325   6.424 -0.9866 -1.4607  1.7941
 7954SOL    HW225409   6.698   4.466   6.478  1.5776 -0.9058  0.4028
 7955SOL     OW25410   1.663   3.506   5.935  0.2278 -0.7527  0.6646
 7955SOL    HW125411   1.640   3.555   6.014  0.3311 -0.7373  0.6859
 7955SOL    HW225412   1.736   3.450   5.962  0.7461 -0.2187  0.3964
 7956SOL     OW25413   2.867   5.672   2.184 -0.0151 -0.2226 -0.2268
 7956SOL    HW125414   2.806   5.717   2.242  0.1286 -0.9821  0.5336
 7956SOL    HW225415   2.908   5.743   2.133  0.2158  0.5015  0.9386
 7957SOL     OW25416   3.308   4.510   1.177 -0.3900  0.6817 -0.3869
 7957SOL    HW125417   3.314   4.587   1.233  2.0294  0.5506 -0.3618
 7957SOL    HW225418   3.399   4.488   1.157 -0.9515 -2.5467  0.1067
 7958SOL     OW25419   5.700   3.266   0.365  0.1441 -0.1985  0.4881
 7958SOL    HW125420   5.719   3.183   0.407  1.5539  0.7003  1.7259
 7958SOL    HW225421   5.697   3.246   0.271  0.5693 -1.6079  0.7537
 7959SOL     OW25422   0.768   3.079   2.216  0.5179 -0.4854 -0.0035
 7959SOL    HW125423   0.761   3.145   2.284 -1.7002 -1.2128  0.5650
 7959SOL    HW225424   0.823   3.011   2.254 -0.1372 -0.5692  0.8382
 7960SOL     OW25425   0.222   2.352   3.544 -0.9554 -0.3017  0.6323
 7960SOL    HW125426   0.161   2.386   3.609 -0.0789  2.3037  0.1918
 7960SOL    HW225427   0.277   2.426   3.520  0.4204 -1.7935 -1.2370
 7961SOL     OW25428   0.131   0.117   5.781  0.1538  0.0595  0.1147
 7961SOL    HW125429   0.137   0.065   5.861  0.1597 -1.4199 -0.8121
 7961SOL    HW225430   0.222   0.139   5.760  0.1365  0.6557  0.6171
 7962SOL     OW25431   5.650   5.225   5.267 -0.7673  0.2013  0.3817
 7962SOL    HW125432   5.561   5.246   5.295 -1.3039 -1.2713 -0.0949
 7962SOL    HW225433   5.639   5.153   5.204  0.8009 -0.6538  1.0176
 7963SOL     OW25434   0.234   3.924   4.080 -0.3378  0.4644  0.8067
 7963SOL    HW125435   0.179   3.849   4.060  1.1866 -1.0078  1.7827
 7963SOL    HW225436   0.279   3.945   3.998 -3.2407  2.6058 -0.3948
 7964SOL     OW25437   5.967   4.222   5.717 -0.0375  0.0792 -0.2361
 7964SOL    HW125438   6.062   4.213   5.707  0.3154  0.8288  2.0395
 7964SOL    HW225439   5.946   4.177   5.798 -1.6627 -0.1062 -0.7195
 7965SOL     OW25440   4.432   3.989   2.436  0.6748 -0.1562  0.3809
 7965SOL    HW125441   4.345   4.028   2.444 -0.0541 -1.2924 -1.4810
 7965SOL    HW225442   4.492   4.059   2.462 -0.7342  0.9677  0.7462
 7966SOL     OW25443   3.012   2.497   5.122  0.5565  0.4959  0.2605
 7966SOL    HW125444   3.005   2.424   5.183  0.8707 -0.0203 -0.3224
 7966SOL    HW225445   3.057   2.566   5.172  0.2105  0.3215  0.8243
 7967SOL     OW25446   0.464   3.459   3.868 -0.3135  0.3211 -0.5329
 7967SOL    HW125447   0.379   3.434   3.904  0.1753 -0.4478  0.1097
 7967SOL    HW225448   0.515   3.488   3.944  1.1363 -2.4462 -0.3255
 7968SOL     OW25449   4.478   0.895   5.552  0.3414  0.1407  0.0456
 7968SOL    HW125450   4.516   0.970   5.505  0.9536  0.6319  1.2807
 7968SOL    HW225451   4.551   0.833   5.560 -0.4878 -1.2212 -2.1348
 7969SOL     OW25452   5.098   1.694   0.605 -0.1535 -0.6898  0.0767
 7969SOL    HW125453   5.103   1.704   0.700 -0.0246  1.5308 -0.0976
 7969SOL    HW225454   5.030   1.757   0.578  0.7525 -0.2794 -1.3963
 7970SOL     OW25455   6.685   0.253   6.715  0.3278 -0.0432  0.2571
 7970SOL    HW125456   6.714   0.302   6.791  1.5796 -0.9816  0.4012
 7970SOL    HW225457   6.603   0.211   6.743  0.0642  0.6990  0.6248
 7971SOL     OW25458   0.624   2.303   3.542 -0.2058  0.0569  0.1272
 7971SOL    HW125459   0.577   2.354   3.608  0.3780 -0.8593  1.2717
 7971SOL    HW225460   0.707   2.349   3.531 -0.2226  0.1005  0.1808
 7972SOL     OW25461   1.981   4.356   4.022 -0.2744  0.3770  0.3431
 7972SOL    HW125462   2.023   4.282   3.978 -1.2293  0.7065 -1.1718
 7972SOL    HW225463   2.041   4.429   4.007  0.8085 -0.0806  2.0743
 7973SOL     OW25464   4.988   0.862   6.690  0.0953  0.2180  0.0261
 7973SOL    HW125465   5.010   0.844   6.599  0.4458 -0.6622  0.2764
 7973SOL    HW225466   4.929   0.937   6.686 -2.7954 -1.9258 -1.2508
 7974SOL     OW25467   6.603   0.913   1.608  0.1391 -0.0315  0.4451
 7974SOL    HW125468   6.639   0.866   1.533 -0.1356  1.4559 -0.6471
 7974SOL    HW225469   6.642   0.869   1.684 -1.4034 -3.1382 -0.3728
 7975SOL     OW25470   1.496   6.750   0.798  0.5965  0.1957  0.0903
 7975SOL    HW125471   1.481   6.719   0.888 -0.0089 -0.9510 -0.3904
 7975SOL    HW225472   1.560   6.820   0.808 -0.7081  1.2379  1.6042
 7976SOL     OW25473   5.976   3.495   6.522  0.1611  0.2182 -0.1025
 7976SOL    HW125474   5.906   3.494   6.456  2.5814 -0.3710 -2.8169
 7976SOL    HW225475   5.949   3.428   6.586 -1.4840 -0.3800 -1.3455
 7977SOL     OW25476   3.616   3.652   2.091 -0.8732 -0.2071  0.4282
 7977SOL    HW125477   3.596   3.658   1.998 -1.7219  1.4799  0.6871
 7977SOL    HW225478   3.568   3.574   2.121  0.5621 -1.6236 -0.7778
 7978SOL     OW25479   5.265   1.569   4.756  0.3504 -0.4160  0.4913
 7978SOL    HW125480   5.216   1.640   4.716  0.5922 -0.5221  0.0003
 7978SOL    HW225481   5.279   1.597   4.847  0.6114  0.2472  0.2463
 7979SOL     OW25482   2.859   3.620   4.207 -0.0368 -0.1826 -0.0802
 7979SOL    HW125483   2.947   3.596   4.177 -0.7608 -2.1085 -0.8289
 7979SOL    HW225484   2.844   3.708   4.171  0.9933 -0.4660 -1.2822
 7980SOL     OW25485   1.505   3.692   1.309  0.3945 -0.0349 -0.1302
 7980SOL    HW125486   1.426   3.640   1.312 -0.4856  1.2122 -0.6281
 7980SOL    HW225487   1.545   3.682   1.395  0.1098 -1.2663 -0.1221
 7981SOL     OW25488   6.467   2.064   3.443  0.6884 -0.8040 -0.1692
 7981SOL    HW125489   6.404   2.094   3.378  1.0563  3.4952  1.1436
 7981SOL    HW225490   6.553   2.081   3.404  0.9051  0.9597  0.9346
 7982SOL     OW25491   6.597   6.012   2.226 -0.5102  0.1267  0.3216
 7982SOL    HW125492   6.512   6.021   2.182 -0.1039  0.2192 -0.4553
 7982SOL    HW225493   6.582   6.048   2.313 -0.8975  1.5411 -0.2870
 7983SOL     OW25494   1.424   2.300   2.414  0.4218  0.0668 -0.2122
 7983SOL    HW125495   1.343   2.342   2.388  0.2722  0.1366  0.3570
 7983SOL    HW225496   1.474   2.368   2.458  0.7965  0.0262 -0.5633
 7984SOL     OW25497   4.766   1.825   4.130  0.0921  0.2604  0.3013
 7984SOL    HW125498   4.713   1.871   4.195  1.1197 -0.0377  1.3891
 7984SOL    HW225499   4.838   1.786   4.180 -0.0838 -1.5354 -0.7408
 7985SOL     OW25500   3.230   3.490   3.253  0.0019  0.1461 -0.0875
 7985SOL    HW125501   3.224   3.411   3.306  0.5058 -0.1855 -0.5104
 7985SOL    HW225502   3.177   3.470   3.175 -0.4264  0.4844  0.1156
 7986SOL     OW25503   6.448   1.090   6.461 -0.4293 -0.4546 -0.5484
 7986SOL    HW125504   6.523   1.039   6.430  1.2672  0.8933  1.1387
 7986SOL    HW225505   6.425   1.051   6.545  1.3379  1.8051  1.1179
 7987SOL     OW25506   3.079   1.429   0.745  0.6559 -0.2274  0.1892
 7987SOL    HW125507   3.125   1.346   0.744  0.0382 -0.5777 -0.7140
 7987SOL    HW225508   3.147   1.494   0.765  1.6443 -0.6786 -1.4840
 7988SOL     OW25509   2.750   4.375   0.093 -0.2376  0.2753 -0.3812
 7988SOL    HW125510   2.682   4.330   0.143  0.5151  0.0115  0.4258
 7988SOL    HW225511   2.780   4.310   0.029  0.1867 -0.0766  0.1603
 7989SOL     OW25512   6.024   5.890   0.525 -0.1674 -0.1433  0.6103
 7989SOL    HW125513   5.965   5.840   0.582 -0.6593  0.7765  0.9326
 7989SOL    HW225514   6.065   5.954   0.583  1.7227 -1.2253  0.5392
 7990SOL     OW25515   1.416   5.614   1.360 -0.1651  0.1718 -0.0545
 7990SOL    HW125516   1.342   5.599   1.419 -1.8848  0.1181 -2.1129
 7990SOL    HW225517   1.386   5.684   1.302 -0.3191 -2.5146 -3.5342
 7991SOL     OW25518   1.317   3.747   6.744  0.1712  0.0832 -0.0086
 7991SOL    HW125519   1.229   3.722   6.771 -0.3123  1.4498 -0.2233
 7991SOL    HW225520   1.362   3.768   6.826  0.4393 -0.9599  0.1329
 7992SOL     OW25521   5.269   5.730   3.699 -0.1234 -0.0410 -0.4491
 7992SOL    HW125522   5.201   5.689   3.752  0.7341  0.8147  1.4000
 7992SOL    HW225523   5.222   5.794   3.646 -0.7870  0.6014  0.8679
 7993SOL     OW25524   4.517   2.671   1.271 -0.2522 -0.1285 -0.4793
 7993SOL    HW125525   4.572   2.739   1.309  1.3993 -0.7817 -1.5829
 7993SOL    HW225526   4.506   2.607   1.342  2.3467 -1.0750 -0.8169
 7994SOL     OW25527   3.526   1.365   1.161 -0.6897 -0.4117  0.1326
 7994SOL    HW125528   3.459   1.349   1.227 -1.8450 -0.3581 -0.9978
 7994SOL    HW225529   3.477   1.385   1.081  0.6763  0.4498 -0.5244
 7995SOL     OW25530   1.457   1.659   3.140 -0.0055 -0.3610 -0.5077
 7995SOL    HW125531   1.400   1.734   3.124 -1.4004 -1.2992 -0.0974
 7995SOL    HW225532   1.397   1.587   3.163  1.3933 -1.1555  0.8499
 7996SOL     OW25533   5.842   5.144   2.724 -0.5070  0.2400 -0.8553
 7996SOL    HW125534   5.932   5.123   2.746 -0.4765  0.5107 -0.7121
 7996SOL    HW225535   5.834   5.238   2.743 -1.0093  0.0784 -0.2194
 7997SOL     OW25536   3.692   5.301   5.351 -0.4916 -0.3996 -0.2931
 7997SOL    HW125537   3.740   5.372   5.394 -0.5240 -1.6628  1.9803
 7997SOL    HW225538   3.730   5.296   5.264  0.8715  1.1164  0.1646
 7998SOL     OW25539   0.218   0.753   5.780 -0.5098  0.4470 -0.7986
 7998SOL    HW125540   0.166   0.678   5.751  1.6800 -0.4561 -2.6937
 7998SOL    HW225541   0.181   0.827   5.733 -0.5053 -0.0801 -1.6639
 7999SOL     OW25542   3.929   6.489   5.803  0.5839 -0.1033  0.3335
 7999SOL    HW125543   3.953   6.505   5.712 -1.4420 -0.3280 -0.3067
 7999SOL    HW225544   3.989   6.421   5.833  1.0585 -0.2751 -0.9620
 8000SOL     OW25545   6.364   4.122   5.092  0.2621 -0.2313 -0.2092
 8000SOL    HW125546   6.268   4.123   5.098  0.1510 -1.9474 -1.1283
 8000SOL    HW225547   6.384   4.191   5.028 -0.0468  2.5383  2.4644
 8001SOL     OW25548   2.388   5.269   3.751 -0.0436 -0.6359 -0.1268
 8001SOL    HW125549   2.309   5.215   3.757 -0.2689 -0.2443  0.4730
 8001SOL    HW225550   2.404   5.300   3.840 -1.7608  2.8649 -0.8605
 8002SOL     OW25551   1.870   4.588   0.893 -0.3059  0.4486 -0.6144
 8002SOL    HW125552   1.885   4.645   0.818 -0.1883  0.6649 -0.4291
 8002SOL    HW225553   1.775   4.573   0.893 -0.4889  1.4716 -0.0833
 8003SOL     OW25554   4.087   2.977   4.232  0.4458  0.1233 -0.5076
 8003SOL    HW125555   4.090   3.058   4.283  0.6494 -0.2534  0.0836
 8003SOL    HW225556   4.138   2.914   4.284  1.6086  0.0324 -1.6897
 8004SOL     OW25557   4.486   2.248   6.018 -0.2249 -0.1010  0.2802
 8004SOL    HW125558   4.511   2.331   5.978 -0.2963  0.9793  2.3129
 8004SOL    HW225559   4.397   2.232   5.987  0.2705 -0.1274 -1.1725
 8005SOL     OW25560   0.258   3.577   6.310 -0.6872 -0.2300 -0.0264
 8005SOL    HW125561   0.305   3.607   6.388 -0.7353 -2.9741  1.1861
 8005SOL    HW225562   0.319   3.593   6.238 -0.2510  1.4822  0.6683
 8006SOL     OW25563   6.798   6.736   5.097  1.0292 -0.1188  0.2401
 8006SOL    HW125564   6.810   6.746   5.191  0.4633  0.8193  0.2209
 8006SOL    HW225565   6.882   6.762   5.059  0.9351  0.4661  0.4338
 8007SOL     OW25566   0.349   0.348   6.066 -0.2111  0.1496 -0.0333
 8007SOL    HW125567   0.270   0.334   6.119  1.0217  1.2041  2.2239
 8007SOL    HW225568   0.330   0.427   6.015 -0.8649 -0.0004 -0.0350
 8008SOL     OW25569   0.300   5.191   0.603 -0.4778 -0.3597 -0.7270
 8008SOL    HW125570   0.268   5.266   0.553  1.7004  0.1041 -1.5817
 8008SOL    HW225571   0.299   5.220   0.694 -1.0313  0.1729 -0.8976
 8009SOL     OW25572   4.943   2.451   6.344 -0.1147  0.1819 -0.1526
 8009SOL    HW125573   4.849   2.436   6.350 -0.0287 -1.5471 -2.0526
 8009SOL    HW225574   4.960   2.458   6.250  1.8583 -1.0707  0.0653
 8010SOL     OW25575   0.198   2.531   3.285 -0.0308  0.0861 -0.1301
 8010SOL    HW125576   0.225   2.586   3.212 -1.4400  0.7162 -0.1972
 8010SOL    HW225577   0.183   2.593   3.357 -0.8968 -0.2829  0.0150
 8011SOL     OW25578   2.148   4.673   6.146  0.2121 -0.2458 -0.2200
 8011SOL    HW125579   2.096   4.598   6.177  1.0549 -0.9088 -0.3795
 8011SOL    HW225580   2.083   4.732   6.107 -0.4379 -1.0164 -0.3421
 8012SOL     OW25581   5.683   0.999   2.734 -0.3966  0.2701  0.3328
 8012SOL    HW125582   5.748   0.930   2.717  0.7883  1.6947 -1.3571
 8012SOL    HW225583   5.716   1.044   2.812  0.9012  1.1741 -0.6844
 8013SOL     OW25584   3.236   5.458   3.702  0.6641  0.2442  0.1653
 8013SOL    HW125585   3.207   5.385   3.647  0.3892  0.5507 -0.1063
 8013SOL    HW225586   3.230   5.534   3.644  0.6330  0.5307  0.5453
 8014SOL     OW25587   4.576   6.363   5.397  0.3200 -0.4955  0.1970
 8014SOL    HW125588   4.525   6.364   5.316 -1.0959 -1.0628  1.0378
 8014SOL    HW225589   4.643   6.296   5.382  0.8023  0.2177 -0.9112
 8015SOL     OW25590   6.604   6.611   6.442  0.2383 -0.6724  0.0127
 8015SOL    HW125591   6.513   6.580   6.437  0.4405 -1.2252 -0.3812
 8015SOL    HW225592   6.636   6.576   6.525 -0.5395  1.3216  1.2200
 8016SOL     OW25593   3.783   0.877   0.700  0.1721  0.5160 -0.1248
 8016SOL    HW125594   3.765   0.827   0.621 -3.5201  0.4752  0.5386
 8016SOL    HW225595   3.878   0.890   0.700  0.5325 -1.0722 -3.5240
 8017SOL     OW25596   3.437   0.798   6.050  0.1610 -0.7461 -0.2270
 8017SOL    HW125597   3.353   0.773   6.089  0.6008 -1.6004  0.1802
 8017SOL    HW225598   3.427   0.778   5.957 -0.6119  0.5715 -0.4666
 8018SOL     OW25599   3.140   5.077   4.411 -0.1721 -0.3563 -0.4187
 8018SOL    HW125600   3.198   5.107   4.481 -1.2724  3.2080 -0.8198
 8018SOL    HW225601   3.053   5.080   4.449 -0.9270  2.7186 -2.0561
 8019SOL     OW25602   4.634   4.637   1.557  0.4122  0.1203  0.2349
 8019SOL    HW125603   4.601   4.615   1.643 -0.9460 -0.3893 -0.3969
 8019SOL    HW225604   4.627   4.732   1.552 -0.8055  0.0316  0.1767
 8020SOL     OW25605   5.653   0.918   5.343  0.2885  0.5083 -0.7362
 8020SOL    HW125606   5.563   0.901   5.315 -0.8050  1.6451  1.8030
 8020SOL    HW225607   5.692   0.832   5.354 -0.7202 -0.0174 -1.1286
 8021SOL     OW25608   0.664   1.322   0.462  0.1518 -0.6398  0.1996
 8021SOL    HW125609   0.702   1.240   0.493  2.1345 -0.0191 -0.4378
 8021SOL    HW225610   0.707   1.339   0.378 -0.7305  0.6824 -0.0163
 8022SOL     OW25611   0.344   4.362   3.075 -0.2963 -0.1593 -0.5034
 8022SOL    HW125612   0.388   4.439   3.108 -0.5411 -0.2285 -0.0095
 8022SOL    HW225613   0.405   4.325   3.011  0.5425 -0.4883  0.4664
 8023SOL     OW25614   0.981   2.503   2.860  0.4009 -0.0878  0.1119
 8023SOL    HW125615   0.960   2.519   2.768 -0.4738 -0.1655  0.2825
 8023SOL    HW225616   0.920   2.434   2.886 -1.2234  1.7004  1.4143
 8024SOL     OW25617   5.968   4.395   1.432 -0.2931  0.0510 -0.5133
 8024SOL    HW125618   5.877   4.423   1.425 -0.0001  0.7561 -1.8029
 8024SOL    HW225619   5.989   4.402   1.525 -0.9366  1.8913 -0.4746
 8025SOL     OW25620   3.840   3.778   2.056  0.2741  0.2946 -0.1066
 8025SOL    HW125621   3.757   3.729   2.059 -0.8682  2.1286 -0.3257
 8025SOL    HW225622   3.821   3.853   2.000  1.9759  0.9849  0.2001
 8026SOL     OW25623   5.830   3.010   0.871  0.8236 -0.4230 -0.4507
 8026SOL    HW125624   5.767   2.942   0.846 -0.6180  0.4087  0.7433
 8026SOL    HW225625   5.814   3.081   0.810  0.6010 -0.2067 -0.1407
 8027SOL     OW25626   0.783   1.952   4.381 -0.0075 -0.6185  0.6108
 8027SOL    HW125627   0.698   1.948   4.337 -0.0031  0.2359  0.4959
 8027SOL    HW225628   0.847   1.938   4.311  0.0141  1.0984  0.2199
 8028SOL     OW25629   6.054   2.655   6.223  0.3008 -0.0514  0.1571
 8028SOL    HW125630   6.017   2.735   6.261  0.8767  0.2719  0.0463
 8028SOL    HW225631   6.148   2.665   6.233  0.4040 -0.4767 -0.3475
 8029SOL     OW25632   5.640   6.421   3.059 -0.1743  0.6570 -0.8485
 8029SOL    HW125633   5.579   6.380   2.998 -0.5895 -0.7963  0.4687
 8029SOL    HW225634   5.702   6.351   3.081 -0.0350  1.1280  0.3579
 8030SOL     OW25635   1.505   5.167   6.587 -0.6206 -0.3566 -0.5986
 8030SOL    HW125636   1.512   5.124   6.502  3.5830 -2.2111  0.4403
 8030SOL    HW225637   1.442   5.114   6.636  0.2752 -2.0284 -1.1793
 8031SOL     OW25638   2.503   4.104   0.946 -0.6515 -0.1982  0.3513
 8031SOL    HW125639   2.533   4.028   0.896 -0.1349  0.4234 -0.3010
 8031SOL    HW225640   2.466   4.067   1.026 -0.4970 -1.1423 -0.0043
 8032SOL     OW25641   1.042   4.314   2.600  0.1794 -0.2962  0.1500
 8032SOL    HW125642   1.108   4.383   2.595  1.4995 -1.4417  1.0876
 8032SOL    HW225643   1.084   4.238   2.559  0.5321 -1.8008  3.0499
 8033SOL     OW25644   1.909   0.133   1.263 -0.3387 -0.1232 -0.2362
 8033SOL    HW125645   1.897   0.142   1.358  2.1736  0.8044  0.0913
 8033SOL    HW225646   1.843   0.069   1.236 -2.3950  0.9958  1.7805
 8034SOL     OW25647   5.140   3.619   2.977  0.1182 -0.0932 -0.5998
 8034SOL    HW125648   5.131   3.684   2.907  1.0235  0.6710 -0.0388
 8034SOL    HW225649   5.233   3.619   2.998 -0.2342  0.3188  1.1754
 8035SOL     OW25650   0.310   5.614   2.157 -0.2079  1.0257  0.3927
 8035SOL    HW125651   0.313   5.528   2.199  1.4148  0.0242 -1.6357
 8035SOL    HW225652   0.395   5.623   2.114 -1.4179  2.3653 -1.9056
 8036SOL     OW25653   1.835   5.428   4.018 -0.0869 -0.0429 -0.4447
 8036SOL    HW125654   1.750   5.458   3.984 -0.0026 -0.3654 -0.9524
 8036SOL    HW225655   1.889   5.417   3.940  0.9071  1.5961 -0.0325
 8037SOL     OW25656   1.256   4.540   6.088 -0.3156 -0.3599  0.1774
 8037SOL    HW125657   1.348   4.566   6.089 -0.5822  0.9556 -2.1052
 8037SOL    HW225658   1.219   4.581   6.167  0.8918 -0.3223  0.7514
 8038SOL     OW25659   4.429   5.266   5.203 -0.0548 -0.1185 -0.6552
 8038SOL    HW125660   4.482   5.299   5.275  1.3505 -0.2886 -1.5685
 8038SOL    HW225661   4.409   5.176   5.227 -1.5904  0.4969  0.5707
 8039SOL     OW25662   6.509   4.801   4.695 -0.0896 -0.0812 -0.0435
 8039SOL    HW125663   6.420   4.822   4.723  0.2204  1.2279  0.0298
 8039SOL    HW225664   6.565   4.835   4.765  0.5451  0.6519 -0.8822
 8040SOL     OW25665   0.765   0.005   4.109  0.3403  0.4284  0.4522
 8040SOL    HW125666   0.845   0.016   4.057  0.6526 -0.3372  0.7602
 8040SOL    HW225667   0.771   0.074   4.175  1.9157 -1.0175  1.9138
 8041SOL     OW25668   4.289   4.901   3.711 -0.7412  0.1410 -0.0440
 8041SOL    HW125669   4.370   4.850   3.711 -1.0165 -0.5624 -3.5371
 8041SOL    HW225670   4.270   4.917   3.803  2.0836 -1.7009  0.9747
 8042SOL     OW25671   2.852   3.822   5.238  0.0485  0.1848 -0.0698
 8042SOL    HW125672   2.832   3.756   5.305 -0.4925 -0.5854 -0.9595
 8042SOL    HW225673   2.870   3.770   5.159  0.2013  1.0892 -0.6378
 8043SOL     OW25674   2.426   6.330   2.749 -0.1601 -0.3246  0.9129
 8043SOL    HW125675   2.347   6.381   2.768 -0.0929 -0.6105  2.0397
 8043SOL    HW225676   2.419   6.309   2.656 -1.2506 -0.0650  0.9197
 8044SOL     OW25677   4.866   5.091   6.138 -0.0457  0.5621  0.4041
 8044SOL    HW125678   4.962   5.082   6.143  0.0524  0.1559 -1.6741
 8044SOL    HW225679   4.834   5.001   6.141 -0.3774  0.6928  0.9284
 8045SOL     OW25680   5.014   2.075   6.404 -0.3332 -0.1177  0.5584
 8045SOL    HW125681   5.100   2.035   6.415 -0.0711  0.1739 -0.3294
 8045SOL    HW225682   5.005   2.136   6.477 -0.5176 -1.3887  1.6389
 8046SOL     OW25683   0.518   5.698   2.653 -0.7013  0.5101 -0.2578
 8046SOL    HW125684   0.500   5.709   2.560  1.7556  0.8800 -0.7631
 8046SOL    HW225685   0.434   5.675   2.692 -1.8216  0.5669 -2.5246
 8047SOL     OW25686   0.799   6.497   3.222  0.8802  0.2456 -0.4509
 8047SOL    HW125687   0.856   6.421   3.216  0.1379 -0.7760  3.1379
 8047SOL    HW225688   0.716   6.467   3.186  0.1735 -1.2699  2.1693
 8048SOL     OW25689   5.819   2.175   3.751  0.1082  0.2222  0.3077
 8048SOL    HW125690   5.879   2.116   3.798 -0.9076 -0.4662  0.7666
 8048SOL    HW225691   5.735   2.164   3.795 -0.6223  0.3793 -1.0011
 8049SOL     OW25692   5.665   5.019   3.729  0.0782  0.6366  0.2011
 8049SOL    HW125693   5.573   5.048   3.729 -0.0433  0.2708 -0.3530
 8049SOL    HW225694   5.660   4.926   3.753 -0.0867 -0.4667 -3.5248
 8050SOL     OW25695   4.166   0.513   1.920  0.1550  0.0721 -0.0776
 8050SOL    HW125696   4.078   0.552   1.920  0.1729  0.1322  0.6901
 8050SOL    HW225697   4.150   0.420   1.940  0.2236 -0.0229 -0.4702
 8051SOL     OW25698   2.153   1.967   3.639 -0.6165  0.0010 -0.3129
 8051SOL    HW125699   2.194   2.046   3.605  0.1636 -0.6662 -0.9727
 8051SOL    HW225700   2.200   1.895   3.596 -1.5708 -0.8150 -0.0401
 8052SOL     OW25701   6.733   5.241   5.106  0.2208  0.0769 -0.4836
 8052SOL    HW125702   6.656   5.191   5.077  1.6542 -1.4980 -1.8382
 8052SOL    HW225703   6.713   5.332   5.085 -1.1328 -0.3539 -1.1338
 8053SOL     OW25704   6.107   5.090   3.971 -0.0617  0.3587 -0.0286
 8053SOL    HW125705   6.126   5.052   3.886  0.7395 -1.5242  0.9194
 8053SOL    HW225706   6.011   5.093   3.976 -0.1303  1.6830 -1.4348
 8054SOL     OW25707   4.800   0.892   5.354  0.5759 -0.8500  0.0007
 8054SOL    HW125708   4.849   0.921   5.431  0.9587  0.3113 -0.6562
 8054SOL    HW225709   4.865   0.893   5.283 -0.4099  0.9449 -0.9331
 8055SOL     OW25710   0.759   6.338   0.102 -0.1607 -0.7686 -0.3668
 8055SOL    HW125711   0.832   6.282   0.073  2.4879  1.5416  1.3674
 8055SOL    HW225712   0.777   6.355   0.194 -1.8169  1.4924 -0.3834
 8056SOL     OW25713   5.110   6.350   6.107  0.3788  0.2680  0.2515
 8056SOL    HW125714   5.077   6.425   6.056  1.1094 -0.1042 -0.8109
 8056SOL    HW225715   5.190   6.382   6.148 -0.0713  0.4872  0.9869
 8057SOL     OW25716   3.891   1.485   4.437 -0.5522  0.2778 -0.0824
 8057SOL    HW125717   3.942   1.406   4.418 -0.3251  0.5520 -0.6114
 8057SOL    HW225718   3.808   1.452   4.473 -1.8801 -0.3924 -3.3735
 8058SOL     OW25719   5.092   6.281   5.197  0.0289 -0.0228 -0.3682
 8058SOL    HW125720   5.160   6.329   5.150 -0.0122  0.4385  0.0355
 8058SOL    HW225721   5.082   6.200   5.148  2.2683 -1.0003  0.6640
 8059SOL     OW25722   0.864   2.766   5.434  0.4330  0.3547  0.3726
 8059SOL    HW125723   0.830   2.815   5.509  1.3406  0.2526  0.8653
 8059SOL    HW225724   0.938   2.817   5.403 -1.6578  2.0030 -2.3755
 8060SOL     OW25725   1.796   5.729   2.023  0.0546 -0.1368 -0.0592
 8060SOL    HW125726   1.871   5.787   2.014 -0.8127  0.9242 -0.8357
 8060SOL    HW225727   1.815   5.677   2.100  0.2777  2.1504  1.5403
 8061SOL     OW25728   4.174   4.295   4.939 -0.0136 -0.9498  0.2310
 8061SOL    HW125729   4.247   4.351   4.967 -0.7773  0.2425 -0.1015
 8061SOL    HW225730   4.212   4.238   4.872  0.9767 -1.4365  1.1598
 8062SOL     OW25731   3.006   0.384   5.988 -0.1912 -0.0979 -0.3442
 8062SOL    HW125732   3.067   0.348   6.052 -1.8446 -1.5250  0.4976
 8062SOL    HW225733   3.005   0.320   5.917 -1.5617 -0.6935  0.1899
 8063SOL     OW25734   4.955   0.209   5.490 -0.3669  0.0598  0.2017
 8063SOL    HW125735   4.984   0.121   5.465 -0.4615 -0.7506  2.6185
 8063SOL    HW225736   4.979   0.216   5.583 -2.3466  1.7098  0.6546
 8064SOL     OW25737   1.745   3.765   3.558  0.1900  0.0572  0.2116
 8064SOL    HW125738   1.673   3.747   3.617  2.2081 -0.8130  2.5674
 8064SOL    HW225739   1.767   3.680   3.520 -0.5709  0.4761 -1.2586
 8065SOL     OW25740   6.167   5.573   4.997 -0.3075  0.2153  0.2402
 8065SOL    HW125741   6.073   5.583   4.979 -0.2351  0.9476  0.2575
 8065SOL    HW225742   6.171   5.553   5.091 -0.4489  0.0775  0.2187
 8066SOL     OW25743   4.104   6.002   0.896 -0.0904 -0.5620 -0.1892
 8066SOL    HW125744   4.199   5.992   0.896  0.0847  0.6888  1.5985
 8066SOL    HW225745   4.087   6.074   0.836  0.3644  0.8331  1.2728
 8067SOL     OW25746   5.038   2.310   0.136  0.4582  0.3176  0.5003
 8067SOL    HW125747   5.025   2.305   0.230  2.3269 -0.6645  0.7469
 8067SOL    HW225748   5.015   2.400   0.113 -0.4700  0.4303  1.7974
 8068SOL     OW25749   3.915   2.380   1.052 -0.5827 -0.1341 -0.3089
 8068SOL    HW125750   3.984   2.393   0.986  0.8495 -1.7199  0.7812
 8068SOL    HW225751   3.957   2.326   1.119 -2.4591  0.1554  1.1648
 8069SOL     OW25752   4.479   6.403   5.647 -0.3568  0.2929 -0.1704
 8069SOL    HW125753   4.388   6.374   5.647 -0.4014  0.3647  0.9845
 8069SOL    HW225754   4.510   6.387   5.558 -0.8651 -1.7410 -0.0398
 8070SOL     OW25755   2.389   2.178   4.831  0.2810 -0.0767 -0.0902
 8070SOL    HW125756   2.483   2.173   4.845  0.2380 -0.1378  0.1926
 8070SOL    HW225757   2.355   2.219   4.911  0.1481  0.6145 -0.4948
 8071SOL     OW25758   3.351   0.721   0.488 -0.3585 -0.1354  0.5985
 8071SOL    HW125759   3.285   0.788   0.504 -0.7848 -0.2762 -0.4434
 8071SOL    HW225760   3.311   0.664   0.421  0.7399 -0.3189  0.0749
 8072SOL     OW25761   3.852   4.414   5.181 -0.1954  0.3336 -0.0836
 8072SOL    HW125762   3.902   4.384   5.257  0.1577  2.2388  0.4726
 8072SOL    HW225763   3.769   4.367   5.187  1.1989 -2.4234 -0.6698
 8073SOL     OW25764   1.971   5.566   1.494 -0.0769  0.1969 -0.3731
 8073SOL    HW125765   1.984   5.473   1.510 -1.9779 -0.2581 -1.1724
 8073SOL    HW225766   1.904   5.592   1.558  0.6055  1.0910  0.0056
 8074SOL     OW25767   4.644   2.859   0.883  0.1848 -0.1098  0.1798
 8074SOL    HW125768   4.584   2.922   0.923 -0.0356  0.1051 -0.4775
 8074SOL    HW225769   4.595   2.778   0.879  1.1139 -0.9150  2.8355
 8075SOL     OW25770   3.987   1.603   4.673  0.1456  0.1326  0.2898
 8075SOL    HW125771   3.944   1.592   4.588  2.2107  4.7361 -1.6507
 8075SOL    HW225772   4.076   1.571   4.659  0.3185  0.2970  0.9792
 8076SOL     OW25773   6.544   6.714   5.013  0.4228 -0.1878 -0.4392
 8076SOL    HW125774   6.636   6.717   5.037 -0.1659  0.1564  2.0836
 8076SOL    HW225775   6.518   6.806   5.005  0.2428 -0.2784 -0.9589
 8077SOL     OW25776   1.156   0.739   0.845  0.2037  0.0087  0.4120
 8077SOL    HW125777   1.185   0.818   0.891  1.7070  1.6593 -2.9868
 8077SOL    HW225778   1.235   0.686   0.836 -0.2069 -0.6076  0.3748
 8078SOL     OW25779   5.273   1.193   4.175 -0.1632 -0.4061  0.4733
 8078SOL    HW125780   5.356   1.159   4.207 -0.7828  0.5091  3.2995
 8078SOL    HW225781   5.277   1.181   4.080  3.0934 -0.5428  0.5367
 8079SOL     OW25782   3.760   1.056   2.405  0.0301  0.5780  0.0844
 8079SOL    HW125783   3.805   1.066   2.321  0.8050 -0.2008  0.3809
 8079SOL    HW225784   3.829   1.067   2.471 -0.7680  2.2479  0.6729
 8080SOL     OW25785   3.667   6.368   0.263 -0.1980 -0.0434  0.0559
 8080SOL    HW125786   3.739   6.306   0.251 -1.1413 -1.2164  0.2154
 8080SOL    HW225787   3.591   6.323   0.226 -0.9041  1.0694  0.1114
 8081SOL     OW25788   3.499   5.766   5.492  0.4529 -0.1712 -0.6620
 8081SOL    HW125789   3.546   5.692   5.454  0.9740  0.4862 -1.3324
 8081SOL    HW225790   3.558   5.802   5.558 -0.3039 -1.0869  0.5654
 8082SOL     OW25791   4.141   2.491   5.628 -0.9944  0.0062 -0.0804
 8082SOL    HW125792   4.169   2.435   5.701 -1.1410 -1.6661 -1.2504
 8082SOL    HW225793   4.183   2.575   5.646 -1.2047 -0.2761  2.0308
 8083SOL     OW25794   3.507   4.380   5.496 -0.3155 -0.0940  0.3736
 8083SOL    HW125795   3.449   4.357   5.423  0.3920  0.9986 -0.5624
 8083SOL    HW225796   3.593   4.346   5.470  0.1376  1.1072  0.2637
 8084SOL     OW25797   5.724   2.816   3.711 -0.4029  0.3810  0.1062
 8084SOL    HW125798   5.662   2.866   3.658 -1.3022 -1.2259 -0.4133
 8084SOL    HW225799   5.770   2.760   3.648 -1.2289 -1.2895  0.9502
 8085SOL     OW25800   2.627   3.218   0.401 -0.2039  0.1980 -0.1082
 8085SOL    HW125801   2.682   3.142   0.380  0.1327 -0.1278  1.8181
 8085SOL    HW225802   2.680   3.270   0.461 -0.8313  1.4581 -0.6169
 8086SOL     OW25803   3.185   1.875   4.897 -0.4429  0.0196  0.1732
 8086SOL    HW125804   3.272   1.838   4.883 -0.0267  1.1705 -0.4792
 8086SOL    HW225805   3.182   1.950   4.836 -2.1109 -0.3700 -0.2541
 8087SOL     OW25806   4.994   1.590   5.705  0.0959  0.2751  0.2027
 8087SOL    HW125807   5.034   1.606   5.790 -1.0450  0.4264  0.7161
 8087SOL    HW225808   5.004   1.496   5.691 -1.2859 -0.0667  1.3237
 8088SOL     OW25809   2.086   4.688   1.048 -0.2365 -0.3887 -0.3654
 8088SOL    HW125810   2.031   4.765   1.036 -0.8425 -0.9706 -1.5046
 8088SOL    HW225811   2.025   4.616   1.063  0.2210 -0.9677 -1.1786
 8089SOL     OW25812   6.471   0.828   2.567 -0.1863 -0.5447 -0.3359
 8089SOL    HW125813   6.566   0.841   2.575 -0.2729 -0.6951  1.2881
 8089SOL    HW225814   6.460   0.734   2.578 -0.6695 -0.2998  1.5164
 8090SOL     OW25815   4.040   4.512   3.246 -0.9452 -0.0810 -0.3073
 8090SOL    HW125816   4.020   4.421   3.267  0.1200 -0.3266 -0.3448
 8090SOL    HW225817   4.090   4.508   3.165  2.2882  0.1992  1.4980
 8091SOL     OW25818   4.664   3.861   5.631 -0.3181 -0.1780  0.0127
 8091SOL    HW125819   4.642   3.930   5.569 -0.4841  0.2568  0.5444
 8091SOL    HW225820   4.755   3.838   5.611 -0.2658  0.1835 -0.1719
 8092SOL     OW25821   3.826   1.377   6.333  0.0436  0.0304  0.3284
 8092SOL    HW125822   3.751   1.346   6.282 -1.5232  0.6363  2.1577
 8092SOL    HW225823   3.902   1.356   6.278 -1.4642 -0.1408 -1.8245
 8093SOL     OW25824   5.098   5.302   1.074 -0.2241  0.6933 -0.1891
 8093SOL    HW125825   5.047   5.336   1.147 -1.4166  2.1009 -1.5972
 8093SOL    HW225826   5.117   5.378   1.019  0.2851 -0.3593 -1.5621
 8094SOL     OW25827   5.278   6.406   3.891 -0.2012 -0.3400 -0.4813
 8094SOL    HW125828   5.360   6.453   3.876  0.2038 -0.7027  0.5088
 8094SOL    HW225829   5.305   6.325   3.936 -0.9073 -1.4257 -1.9502
 8095SOL     OW25830   6.365   2.348   4.415 -0.0254  0.1351  0.1818
 8095SOL    HW125831   6.307   2.299   4.473 -1.7224  0.6152 -1.0117
 8095SOL    HW225832   6.346   2.440   4.435  0.9343  0.3061  0.3333
 8096SOL     OW25833   4.337   0.837   3.161  0.3638  0.4481  0.2570
 8096SOL    HW125834   4.391   0.866   3.234  2.1998 -0.1408 -0.7764
 8096SOL    HW225835   4.359   0.896   3.090  0.7474 -0.6598 -0.5826
 8097SOL     OW25836   3.836   2.412   5.204 -0.1813  0.2160  0.3083
 8097SOL    HW125837   3.913   2.418   5.261  0.0489 -1.0526  0.1625
 8097SOL    HW225838   3.861   2.462   5.126  1.1350 -1.4330 -0.3865
 8098SOL     OW25839   6.518   1.435   3.393  0.0990 -0.1280  0.1380
 8098SOL    HW125840   6.530   1.515   3.445 -0.8714  1.6373 -2.2034
 8098SOL    HW225841   6.598   1.429   3.341  0.0743 -0.5596  0.1540
 8099SOL     OW25842   5.841   6.491   6.169  0.4442 -0.1634 -0.0277
 8099SOL    HW125843   5.807   6.437   6.097  0.0685 -2.5304  1.7896
 8099SOL    HW225844   5.892   6.430   6.222  1.6467  1.7618  1.1511
 8100SOL     OW25845   5.881   3.660   0.821 -0.5832 -0.0739 -0.8570
 8100SOL    HW125846   5.888   3.731   0.884 -1.8201 -0.3458 -0.3980
 8100SOL    HW225847   5.787   3.644   0.812 -0.3521 -1.2477 -1.4119
 8101SOL     OW25848   1.568   3.199   1.187 -0.1127 -0.2837  0.5157
 8101SOL    HW125849   1.627   3.190   1.113 -0.6571  0.2080  0.0161
 8101SOL    HW225850   1.484   3.165   1.156  0.2943 -2.7034  1.7863
 8102SOL     OW25851   4.444   0.432   6.012 -0.0820  0.0517 -0.0461
 8102SOL    HW125852   4.471   0.438   6.103  0.7817  0.5167 -0.3142
 8102SOL    HW225853   4.388   0.355   6.008  0.0949 -0.1323  0.8196
 8103SOL     OW25854   0.803   1.225   2.112 -0.3068 -0.0579  0.1663
 8103SOL    HW125855   0.739   1.216   2.182 -1.4331 -1.4691 -0.9832
 8103SOL    HW225856   0.761   1.186   2.035  1.8691 -0.9235 -0.6786
 8104SOL     OW25857   3.596   1.225   2.809 -0.4259  0.1346  0.5620
 8104SOL    HW125858   3.547   1.144   2.795 -2.2656  0.8690  2.2650
 8104SOL    HW225859   3.626   1.251   2.722  0.1928 -2.3165 -0.0300
 8105SOL     OW25860   3.828   6.751   2.619 -0.0847 -0.3600  0.0820
 8105SOL    HW125861   3.813   6.657   2.621  0.7338 -0.5232 -0.7345
 8105SOL    HW225862   3.895   6.766   2.684  0.6254 -0.5186 -0.6004
 8106SOL     OW25863   1.236   1.635   0.191  0.1393 -0.5800  0.3027
 8106SOL    HW125864   1.257   1.648   0.284  1.2246 -0.8734  0.1069
 8106SOL    HW225865   1.196   1.718   0.165  0.1622 -0.3593  0.9382
 8107SOL     OW25866   4.619   4.535   4.025  0.0443 -0.3894  0.0554
 8107SOL    HW125867   4.572   4.614   4.053 -0.5807 -0.4075 -0.8947
 8107SOL    HW225868   4.671   4.563   3.950  0.0402 -0.8162 -0.1104
 8108SOL     OW25869   0.551   6.537   6.524  0.1784 -0.3796 -0.0213
 8108SOL    HW125870   0.572   6.627   6.546  0.7951 -0.3909 -0.5137
 8108SOL    HW225871   0.543   6.492   6.608 -0.1491  0.1285  0.2264
 8109SOL     OW25872   6.065   4.018   4.105  0.4386 -0.4700 -0.2244
 8109SOL    HW125873   6.021   3.933   4.110 -1.4581  0.4183 -0.8193
 8109SOL    HW225874   5.994   4.080   4.087  2.0543  0.9307 -2.1890
 8110SOL     OW25875   0.754   0.976   1.487  0.4160 -0.3416  0.2425
 8110SOL    HW125876   0.740   1.047   1.550 -0.1261  0.0422 -0.3014
 8110SOL    HW225877   0.805   0.911   1.536  1.2767  0.5883  0.6275
 8111SOL     OW25878   4.294   5.988   1.205  0.1841  0.1263  0.4164
 8111SOL    HW125879   4.318   6.023   1.119  0.8990 -0.7885  0.2294
 8111SOL    HW225880   4.349   6.037   1.267 -0.6895  1.1381  0.4213
 8112SOL     OW25881   0.912   6.182   3.022  0.0374  0.3439 -0.4492
 8112SOL    HW125882   0.860   6.247   2.974 -2.3705  0.1412  1.6875
 8112SOL    HW225883   0.955   6.233   3.091  2.1092  0.3577 -1.6654
 8113SOL     OW25884   3.615   3.306   1.438 -0.2402 -0.3687 -0.2059
 8113SOL    HW125885   3.655   3.391   1.419 -0.5595  0.6254  2.8914
 8113SOL    HW225886   3.557   3.289   1.365  0.6840  1.5224 -1.4459
 8114SOL     OW25887   5.292   4.200   0.079 -0.2210 -0.5086 -0.1979
 8114SOL    HW125888   5.232   4.217   0.152 -0.3654 -2.0308  0.0594
 8114SOL    HW225889   5.326   4.287   0.055 -0.9995  0.1335  0.9580
 8115SOL     OW25890   5.855   2.918   1.617  0.3241 -0.1032  0.0425
 8115SOL    HW125891   5.928   2.981   1.618  0.6163 -0.4276 -0.5546
 8115SOL    HW225892   5.873   2.860   1.690  0.0034  0.5587  0.6608
 8116SOL     OW25893   1.250   5.915   2.124  0.1982 -0.0601 -0.2274
 8116SOL    HW125894   1.189   5.863   2.176  0.3032 -0.6514 -0.6907
 8116SOL    HW225895   1.336   5.879   2.145  0.1737 -0.8499 -1.4237
 8117SOL     OW25896   4.730   5.281   1.359  0.3793  0.1416 -0.5127
 8117SOL    HW125897   4.824   5.268   1.356  0.3251 -0.6587  0.4486
 8117SOL    HW225898   4.693   5.207   1.311  0.2333  0.3042 -0.6538
 8118SOL     OW25899   6.484   2.301   3.849 -0.0114 -0.0264  0.3024
 8118SOL    HW125900   6.423   2.361   3.808  1.1187  1.1101  0.2226
 8118SOL    HW225901   6.560   2.301   3.790  1.1087  0.6150  1.6942
 8119SOL     OW25902   5.665   3.829   4.322 -0.7131  0.2445  0.0438
 8119SOL    HW125903   5.666   3.925   4.317 -0.9556  0.3455  1.4112
 8119SOL    HW225904   5.581   3.809   4.363  0.6240 -0.3360  2.7021
 8120SOL     OW25905   5.993   0.553   1.292 -0.2015  0.4797 -0.0235
 8120SOL    HW125906   6.065   0.539   1.230 -0.5390 -1.8115  0.0433
 8120SOL    HW225907   5.975   0.647   1.285  1.6521  0.8104 -1.2819
 8121SOL     OW25908   6.314   2.179   3.207  0.1327  0.0424  0.6169
 8121SOL    HW125909   6.350   2.137   3.129 -0.4406 -1.2364  1.0155
 8121SOL    HW225910   6.361   2.262   3.214  2.1978 -1.0452  0.4783
 8122SOL     OW25911   1.715   4.688   2.616  0.4505 -0.2611  0.3686
 8122SOL    HW125912   1.782   4.644   2.668  0.8733  1.7372  1.5951
 8122SOL    HW225913   1.635   4.678   2.668  0.0574 -1.3977 -0.4055
 8123SOL     OW25914   4.410   4.064   5.056 -0.0275  0.0608  0.4721
 8123SOL    HW125915   4.445   3.981   5.025 -0.6182  0.3725 -1.1017
 8123SOL    HW225916   4.466   4.131   5.017 -1.3471  0.4932 -0.7724
 8124SOL     OW25917   0.333   1.145   6.488  0.8557  0.1537  0.6241
 8124SOL    HW125918   0.332   1.235   6.454 -0.2900 -0.1503 -0.1853
 8124SOL    HW225919   0.423   1.116   6.475  0.8476  0.6256 -0.6275
 8125SOL     OW25920   3.713   3.160   3.408 -0.0772 -0.2067  0.3977
 8125SOL    HW125921   3.785   3.165   3.471  0.6909 -0.8445 -0.4087
 8125SOL    HW225922   3.752   3.181   3.324 -0.6830 -1.1598 -0.1523
 8126SOL     OW25923   6.684   6.506   1.480 -0.1563  0.3755 -0.1393
 8126SOL    HW125924   6.640   6.447   1.542 -1.4751 -0.2325 -1.5834
 8126SOL    HW225925   6.704   6.584   1.531  0.4506 -0.8017  1.5025
 8127SOL     OW25926   0.982   2.634   3.253 -0.2001  0.3393 -0.1997
 8127SOL    HW125927   0.903   2.654   3.303  0.5613  0.1953  1.0917
 8127SOL    HW225928   0.972   2.683   3.171 -1.2981  0.8784  0.2478
 8128SOL     OW25929   6.307   2.551   4.739  0.0969 -0.0759  0.4198
 8128SOL    HW125930   6.255   2.566   4.818 -0.1045  0.7780  0.1311
 8128SOL    HW225931   6.268   2.607   4.673  0.8913 -0.0251 -0.0211
 8129SOL     OW25932   6.378   2.706   3.476 -0.2177  0.4182  0.0404
 8129SOL    HW125933   6.387   2.621   3.432 -0.9613  0.3516 -0.0030
 8129SOL    HW225934   6.303   2.695   3.535  0.1547  0.8148  0.5993
 8130SOL     OW25935   2.386   6.649   4.169 -0.3698  0.5233  0.0763
 8130SOL    HW125936   2.330   6.641   4.092 -1.7351  2.5480  0.7788
 8130SOL    HW225937   2.327   6.675   4.240  0.8828 -1.0603  1.8096
 8131SOL     OW25938   1.573   3.275   1.438  0.3352 -0.3430  0.0278
 8131SOL    HW125939   1.561   3.258   1.344 -1.2302  0.1672  0.0995
 8131SOL    HW225940   1.506   3.220   1.480 -0.5629  1.1730  0.6601
 8132SOL     OW25941   4.732   2.204   1.501 -0.4705  0.4800 -0.5659
 8132SOL    HW125942   4.685   2.193   1.419 -0.6517  0.8810 -0.5172
 8132SOL    HW225943   4.680   2.157   1.566 -0.3484  0.1982 -0.6702
 8133SOL     OW25944   3.789   0.727   4.378 -0.1397 -0.4217  0.6769
 8133SOL    HW125945   3.727   0.678   4.326 -0.0261 -1.1508  1.2154
 8133SOL    HW225946   3.869   0.673   4.378  0.3165  0.2339  0.4531
 8134SOL     OW25947   1.560   3.894   1.122 -0.1465  0.6364 -0.1080
 8134SOL    HW125948   1.561   3.831   1.050 -0.7247  0.7050 -0.1844
 8134SOL    HW225949   1.562   3.840   1.201 -0.3813  0.5251 -0.1755
 8135SOL     OW25950   0.865   5.545   4.775 -0.0738 -0.0342  0.1582
 8135SOL    HW125951   0.859   5.450   4.784 -1.9281  0.2283  2.4597
 8135SOL    HW225952   0.825   5.563   4.689 -0.5240 -1.2605  0.0879
 8136SOL     OW25953   5.669   0.641   2.026  0.5716 -0.1950 -0.1942
 8136SOL    HW125954   5.646   0.561   2.074  0.3438  1.2531  2.2190
 8136SOL    HW225955   5.724   0.691   2.086  1.8380  0.9097 -2.1604
 8137SOL     OW25956   4.732   2.000   1.077 -0.0737  0.0434 -0.7292
 8137SOL    HW125957   4.763   1.915   1.044  0.5918  0.5181 -1.3565
 8137SOL    HW225958   4.801   2.029   1.137 -0.6149 -0.1575  0.0075
 8138SOL     OW25959   1.900   3.006   1.427  0.3859 -0.1053  0.4343
 8138SOL    HW125960   1.987   3.043   1.413  0.5427 -0.7766 -0.4482
 8138SOL    HW225961   1.915   2.932   1.486  0.6168 -0.9571 -0.6458
 8139SOL     OW25962   2.667   0.901   1.490  0.4238 -0.2487 -0.1088
 8139SOL    HW125963   2.759   0.907   1.466  0.4687 -1.1728 -0.2034
 8139SOL    HW225964   2.667   0.869   1.580  0.2045  0.5301  0.1750
 8140SOL     OW25965   6.426   5.397   6.582  0.2007 -0.2578 -0.2127
 8140SOL    HW125966   6.494   5.342   6.621 -1.3412 -1.2001  1.3034
 8140SOL    HW225967   6.351   5.386   6.640 -1.6726 -0.2612 -2.5032
 8141SOL     OW25968   5.697   0.089   2.557 -0.7880  0.0824 -0.0628
 8141SOL    HW125969   5.628   0.026   2.537 -0.1437 -0.4908 -0.5463
 8141SOL    HW225970   5.778   0.043   2.536 -0.3356  1.4967 -1.7464
 8142SOL     OW25971   6.475   0.442   3.798 -0.0710 -0.1193  0.3079
 8142SOL    HW125972   6.487   0.518   3.855  2.6915  0.3446 -0.7102
 8142SOL    HW225973   6.443   0.373   3.856 -1.3778  1.4364  1.5098
 8143SOL     OW25974   2.080   0.032   2.586  0.8387 -0.8338 -0.0294
 8143SOL    HW125975   2.029   0.059   2.662  3.1460 -0.4047  1.4450
 8143SOL    HW225976   2.059  -0.061   2.576 -1.6427 -0.2829 -0.6993
 8144SOL     OW25977   1.458   2.192   6.718  0.4575 -0.0992 -0.3232
 8144SOL    HW125978   1.404   2.265   6.747  1.9957  0.8817  0.2318
 8144SOL    HW225979   1.421   2.115   6.762 -1.0911  0.3583 -0.7987
 8145SOL     OW25980   5.661   4.833   6.777  0.3583 -0.5977 -0.2177
 8145SOL    HW125981   5.572   4.803   6.762  0.8271 -2.2884  0.2198
 8145SOL    HW225982   5.692   4.860   6.690 -0.2641 -0.8854 -0.5315
 8146SOL     OW25983   4.562   3.545   6.236  0.0367 -0.0324 -0.7199
 8146SOL    HW125984   4.540   3.559   6.328  2.3376  0.3761 -0.1780
 8146SOL    HW225985   4.514   3.614   6.189 -0.3286  0.4073  0.2683
 8147SOL     OW25986   3.927   1.805   5.567  0.3483  0.4779  0.6961
 8147SOL    HW125987   3.943   1.897   5.586 -0.3583  0.8539 -0.4067
 8147SOL    HW225988   3.867   1.806   5.491  1.9198 -0.8888 -0.6470
 8148SOL     OW25989   4.084   4.286   0.406 -0.4457  0.4536  0.5781
 8148SOL    HW125990   4.062   4.376   0.386 -1.9318 -0.2592 -1.3251
 8148SOL    HW225991   4.158   4.266   0.349  0.6619  0.7847  1.8620
 8149SOL     OW25992   2.919   2.985   6.018  1.0804  0.0593 -0.3828
 8149SOL    HW125993   2.894   3.060   5.965  0.8163  0.4144  0.2280
 8149SOL    HW225994   3.004   2.958   5.984  1.2573  0.7428 -0.4926
 8150SOL     OW25995   2.968   5.890   6.221 -0.0894 -0.5566 -0.1095
 8150SOL    HW125996   3.059   5.863   6.226 -0.8065 -3.4781 -1.1321
 8150SOL    HW225997   2.934   5.879   6.310  0.3318 -0.2578  0.0894
 8151SOL     OW25998   3.997   4.202   1.821  0.0848  0.0146 -0.3888
 8151SOL    HW125999   3.962   4.114   1.834 -0.0604  0.0343 -0.6471
 8151SOL    HW226000   4.072   4.207   1.881 -0.3149 -0.0505  0.1258
 8152SOL     OW26001   4.404   6.563   2.266 -0.0647 -0.0219  0.3394
 8152SOL    HW126002   4.384   6.656   2.271  0.3187  0.0829 -0.0210
 8152SOL    HW226003   4.490   6.554   2.306  0.5823  0.0181 -0.9970
 8153SOL     OW26004   5.926   3.190   2.267  0.1263 -0.1638 -0.3466
 8153SOL    HW126005   5.959   3.249   2.335  0.5079 -0.6523 -0.1029
 8153SOL    HW226006   5.874   3.246   2.210  1.9155  0.7703 -1.1272
 8154SOL     OW26007   6.490   1.477   2.735  0.5330 -0.1417 -0.1052
 8154SOL    HW126008   6.489   1.553   2.793  0.6112  0.1504 -0.4882
 8154SOL    HW226009   6.403   1.476   2.694  0.8440  0.2697 -0.7844
 8155SOL     OW26010   3.072   0.207   5.803 -0.5052  0.1005  0.2996
 8155SOL    HW126011   3.138   0.143   5.828 -0.0238 -0.0900 -1.3284
 8155SOL    HW226012   3.085   0.219   5.709 -2.1568  0.8069  0.1345
 8156SOL     OW26013   6.236   1.121   1.917 -0.2942 -0.6434  0.1883
 8156SOL    HW126014   6.249   1.106   2.011 -0.3907  1.5944  0.6122
 8156SOL    HW226015   6.278   1.046   1.875 -0.1458 -1.6381  1.9987
 8157SOL     OW26016   0.292   4.637   0.973  0.2774  0.1616  0.3668
 8157SOL    HW126017   0.351   4.606   0.904  0.8630  0.5427  0.6865
 8157SOL    HW226018   0.224   4.686   0.927 -0.5555 -1.3762 -0.1317
 8158SOL     OW26019   0.796   2.094   2.904 -0.3212  0.3951 -0.0913
 8158SOL    HW126020   0.784   2.001   2.921 -0.1649  0.5252  0.8199
 8158SOL    HW226021   0.877   2.100   2.854 -0.0479  0.0803  0.3113
 8159SOL     OW26022   2.287   2.188   0.788 -0.1917 -0.4039  0.1471
 8159SOL    HW126023   2.230   2.262   0.765  1.0325  0.3288 -0.6280
 8159SOL    HW226024   2.299   2.140   0.706  0.0386 -0.7429  0.3770
 8160SOL     OW26025   3.392   1.496   6.167 -0.6128  0.0780 -0.2998
 8160SOL    HW126026   3.432   1.493   6.254  0.8302 -1.7777 -0.9601
 8160SOL    HW226027   3.454   1.545   6.114 -0.4584 -0.5785 -0.7397
 8161SOL     OW26028   2.773   4.004   3.673 -0.9699  0.0908  0.1530
 8161SOL    HW126029   2.827   3.932   3.639  0.7259  1.2483  0.2611
 8161SOL    HW226030   2.820   4.033   3.751 -1.7912  1.1112  0.2820
 8162SOL     OW26031   3.502   1.113   2.466 -0.6327  0.4306  0.1091
 8162SOL    HW126032   3.477   1.184   2.407  1.4091  0.8171 -0.3769
 8162SOL    HW226033   3.596   1.101   2.450 -0.4047 -0.6676  2.0052
 8163SOL     OW26034   5.737   5.734   5.370  0.1041  0.6339 -0.2557
 8163SOL    HW126035   5.680   5.701   5.300  0.4032  0.5634 -0.4652
 8163SOL    HW226036   5.826   5.714   5.340  0.1972 -0.3139  0.6042
 8164SOL     OW26037   2.799   5.672   2.847  0.7231 -0.0335 -0.3824
 8164SOL    HW126038   2.810   5.703   2.757 -2.5138  1.2523 -0.4750
 8164SOL    HW226039   2.777   5.751   2.896  0.4094 -1.0145  1.1177
 8165SOL     OW26040   0.704   4.883   0.183 -0.1095  0.1407 -0.8096
 8165SOL    HW126041   0.697   4.862   0.277 -0.6037  0.2236 -0.8261
 8165SOL    HW226042   0.672   4.804   0.139 -3.4895  1.4076 -0.8623
 8166SOL     OW26043   0.750   2.777   6.025 -0.3430  0.4775  0.4499
 8166SOL    HW126044   0.787   2.690   6.041 -0.8650 -0.0525 -1.0860
 8166SOL    HW226045   0.814   2.821   5.968 -1.2995  0.1050 -0.9635
 8167SOL     OW26046   1.345   5.823   6.286 -0.4138  0.6451 -0.2471
 8167SOL    HW126047   1.275   5.765   6.316 -0.1409  0.6095  0.3310
 8167SOL    HW226048   1.369   5.788   6.200 -0.6160  0.2231 -0.1367
 8168SOL     OW26049   0.556   2.609   6.713  0.2226  0.5018  0.2614
 8168SOL    HW126050   0.618   2.555   6.663 -0.0619  1.2746 -0.9618
 8168SOL    HW226051   0.605   2.688   6.736  0.0734  0.5545  0.4031
 8169SOL     OW26052   1.756   5.881   1.363 -0.1294  0.2994 -0.1233
 8169SOL    HW126053   1.731   5.792   1.338 -0.4825  0.5608 -0.7094
 8169SOL    HW226054   1.839   5.870   1.409  1.3182 -0.0507 -2.6530
 8170SOL     OW26055   3.658   3.698   1.817 -0.1134  0.1886 -0.0796
 8170SOL    HW126056   3.638   3.631   1.751  2.0743  0.2723 -0.8893
 8170SOL    HW226057   3.671   3.778   1.767  2.5988  0.0438  0.2759
 8171SOL     OW26058   5.170   1.112   4.820 -0.0756  0.9576  0.1997
 8171SOL    HW126059   5.133   1.047   4.760 -2.8020  1.5605  1.0885
 8171SOL    HW226060   5.213   1.175   4.763 -1.0971  0.5967 -1.0307
 8172SOL     OW26061   4.302   5.017   6.620  0.5304  0.4274 -0.3438
 8172SOL    HW126062   4.208   5.031   6.624  0.6169  0.9574  0.0037
 8172SOL    HW226063   4.340   5.104   6.637  1.0773  0.1550 -0.1295
 8173SOL     OW26064   5.098   1.259   6.650 -0.6180 -0.2937 -0.3806
 8173SOL    HW126065   5.052   1.296   6.726 -1.2249 -0.7829 -0.5029
 8173SOL    HW226066   5.028   1.226   6.593 -0.2034  0.7150 -1.5063
 8174SOL     OW26067   2.227   1.232   6.301 -0.1539 -0.0041 -0.3232
 8174SOL    HW126068   2.173   1.157   6.277  1.0276 -0.6873 -0.9183
 8174SOL    HW226069   2.212   1.243   6.395 -1.3709 -0.1204 -0.4852
 8175SOL     OW26070   5.214   1.665   1.104  0.6605  0.1711 -0.0539
 8175SOL    HW126071   5.182   1.740   1.153  0.7942  0.3175 -0.1890
 8175SOL    HW226072   5.230   1.598   1.170  2.9158  1.0715  0.4018
 8176SOL     OW26073   1.534   4.295   2.917  0.1538  0.5709  0.2336
 8176SOL    HW126074   1.627   4.314   2.909  0.4467  0.2019  2.2876
 8176SOL    HW226075   1.529   4.200   2.923 -0.1619  0.6657  1.8860
 8177SOL     OW26076   3.040   6.512   0.092  0.1505 -0.3125  0.3930
 8177SOL    HW126077   3.131   6.487   0.106  0.7059  0.1751 -1.8860
 8177SOL    HW226078   3.018   6.568   0.166  1.5771 -0.7267  1.1648
 8178SOL     OW26079   6.756   3.752   2.162 -0.2559  0.3755  0.2003
 8178SOL    HW126080   6.718   3.839   2.152 -1.4229 -0.0520  0.7155
 8178SOL    HW226081   6.788   3.750   2.252  1.4159  0.8653 -0.3376
 8179SOL     OW26082   4.547   5.217   0.117  0.3517  0.0398  0.0334
 8179SOL    HW126083   4.596   5.284   0.071  0.3904 -0.7636 -1.1552
 8179SOL    HW226084   4.487   5.181   0.050 -0.5988 -0.2023  0.9788
 8180SOL     OW26085   0.028   3.400   3.107  0.1353 -0.1384  0.2240
 8180SOL    HW126086   0.020   3.450   3.188  0.6129  0.6783 -0.2256
 8180SOL    HW226087  -0.061   3.399   3.071 -0.1518 -0.8040  0.9191
 8181SOL     OW26088   3.566   3.372   5.263  0.3629  0.3208 -0.4417
 8181SOL    HW126089   3.481   3.410   5.287  0.4860 -1.1875  2.8656
 8181SOL    HW226090   3.556   3.278   5.279  2.0656 -0.1848 -2.0302
 8182SOL     OW26091   5.382   4.118   5.663  0.2346  0.0522 -0.0081
 8182SOL    HW126092   5.423   4.042   5.704 -1.1878 -1.8341 -1.9552
 8182SOL    HW226093   5.456   4.174   5.638  1.4336 -1.5655 -0.2217
 8183SOL     OW26094   1.764   1.035   5.696 -0.3191  0.1484 -0.1684
 8183SOL    HW126095   1.677   0.998   5.680  0.3517 -0.8514 -1.7389
 8183SOL    HW226096   1.774   1.030   5.791 -1.6894 -0.3986 -0.0247
 8184SOL     OW26097   5.881   6.195   0.624  0.0462  0.0104 -0.3122
 8184SOL    HW126098   5.898   6.169   0.714  1.7513 -0.7755 -0.8096
 8184SOL    HW226099   5.801   6.248   0.628  1.4886  2.2619  2.0503
 8185SOL     OW26100   5.192   3.446   0.966  0.3062  0.3404 -0.0285
 8185SOL    HW126101   5.226   3.432   1.055  1.1224 -0.1687 -0.4189
 8185SOL    HW226102   5.189   3.358   0.928  1.6569  0.7399 -1.1151
 8186SOL     OW26103   1.501   5.669   0.081  0.4178 -0.5879 -0.0681
 8186SOL    HW126104   1.590   5.645   0.055  1.1207  0.9441  0.7943
 8186SOL    HW226105   1.512   5.718   0.162 -1.3662 -1.6898  0.9116
 8187SOL     OW26106   1.969   0.572   3.366 -0.5534  0.3457  1.3504
 8187SOL    HW126107   1.927   0.631   3.429  1.3714  1.0140  2.0845
 8187SOL    HW226108   2.018   0.630   3.308 -0.8594 -0.3907  0.3129
 8188SOL     OW26109   4.260   1.966   4.677 -0.0973 -0.2968  0.5092
 8188SOL    HW126110   4.284   1.873   4.674 -0.4500 -0.4122  1.0639
 8188SOL    HW226111   4.336   2.011   4.640  0.1197 -0.7991  0.3299
 8189SOL     OW26112   3.497   2.991   2.262 -0.4265  0.4393 -0.4208
 8189SOL    HW126113   3.524   2.986   2.170 -0.1746 -1.2375 -0.2939
 8189SOL    HW226114   3.543   3.068   2.296  0.7285  0.1894 -1.3219
 8190SOL     OW26115   5.070   0.491   5.563  0.1414 -0.2812  0.8573
 8190SOL    HW126116   4.993   0.446   5.530  0.8834 -2.2166  1.5969
 8190SOL    HW226117   5.091   0.447   5.646  2.9002 -0.9146 -0.0546
 8191SOL     OW26118   5.940   2.050   1.875 -0.3653  0.0693  0.1275
 8191SOL    HW126119   6.035   2.046   1.886 -0.3255 -1.1571 -0.4095
 8191SOL    HW226120   5.928   2.074   1.783 -0.5346 -1.0548 -0.1642
 8192SOL     OW26121   4.110   2.913   3.785 -0.5824 -0.2269 -0.2139
 8192SOL    HW126122   4.079   2.900   3.696  1.2267 -0.1986 -0.9055
 8192SOL    HW226123   4.187   2.857   3.791 -0.6257 -0.1512  1.3063
 8193SOL     OW26124   5.759   4.907   5.258 -0.3740  0.0199  0.8315
 8193SOL    HW126125   5.784   4.819   5.288  0.0974  0.1826  0.9360
 8193SOL    HW226126   5.677   4.926   5.303 -1.1863 -0.9022 -0.2137
 8194SOL     OW26127   0.839   5.159   6.501 -0.2397  0.4659 -0.5373
 8194SOL    HW126128   0.878   5.097   6.438 -1.2287 -1.1705  0.3818
 8194SOL    HW226129   0.881   5.136   6.585 -0.6348  1.0445 -0.1790
 8195SOL     OW26130   0.718   4.914   5.369  0.3445  0.0574 -0.6401
 8195SOL    HW126131   0.747   4.910   5.460  0.1055 -1.7078 -0.6160
 8195SOL    HW226132   0.742   4.830   5.332 -1.3643 -0.0355 -1.6509
 8196SOL     OW26133   0.042   2.395   4.349  0.2757 -0.0937  0.4039
 8196SOL    HW126134  -0.029   2.451   4.379  0.1114  0.6732 -1.3364
 8196SOL    HW226135   0.099   2.452   4.299  1.6176 -0.9114  0.9460
 8197SOL     OW26136   3.028   1.868   4.541 -0.0044  0.4206  0.1373
 8197SOL    HW126137   2.937   1.897   4.532 -0.0597  0.5566  1.0810
 8197SOL    HW226138   3.069   1.893   4.458 -0.8856  0.1239 -0.4058
 8198SOL     OW26139   6.686   0.382   3.652 -0.1401 -0.3608 -0.1800
 8198SOL    HW126140   6.738   0.460   3.635 -1.9935  1.3223  1.4291
 8198SOL    HW226141   6.613   0.413   3.705 -0.8942 -3.2234  0.6096
 8199SOL     OW26142   2.867   3.016   0.034  0.4972 -0.2835 -0.0694
 8199SOL    HW126143   2.830   2.933   0.003 -0.6661 -0.0140  0.5564
 8199SOL    HW226144   2.956   3.017  -0.002  0.3923 -1.6089 -0.4245
 8200SOL     OW26145   5.284   1.902   1.556 -0.1190 -0.9503  0.8930
 8200SOL    HW126146   5.325   1.988   1.543  0.8366 -1.3410  1.2001
 8200SOL    HW226147   5.243   1.908   1.642 -1.7310 -0.1809  0.1144
 8201SOL     OW26148   4.439   1.366   3.029 -0.1518  0.4556  0.9490
 8201SOL    HW126149   4.420   1.306   3.101 -1.4355 -0.6961 -0.2914
 8201SOL    HW226150   4.399   1.325   2.953  2.2403  1.0113 -0.7030
 8202SOL     OW26151   2.739   5.088   5.444  0.1995  0.3536 -0.1388
 8202SOL    HW126152   2.657   5.103   5.492 -1.4231 -3.6532 -1.2596
 8202SOL    HW226153   2.804   5.076   5.512 -1.1210 -0.7664  0.9927
 8203SOL     OW26154   4.008   0.541   2.989  0.1301  0.2825  0.1904
 8203SOL    HW126155   4.097   0.552   3.021  0.6998 -2.0061 -0.4173
 8203SOL    HW226156   3.954   0.545   3.068  0.8453  0.8091  0.6726
 8204SOL     OW26157   6.497   5.004   5.936 -0.8430  0.7234  0.3074
 8204SOL    HW126158   6.449   5.024   6.016 -1.2533  1.6031 -0.1510
 8204SOL    HW226159   6.431   4.968   5.876 -0.1794 -1.9242  1.0288
 8205SOL     OW26160   0.103   1.679   3.136 -0.3675  0.3690 -0.2441
 8205SOL    HW126161   0.196   1.663   3.152 -0.5886  0.1768  0.8961
 8205SOL    HW226162   0.091   1.772   3.157 -0.8539 -0.1082  1.7943
 8206SOL     OW26163   5.375   0.900   5.682  0.0874 -0.1155 -0.0770
 8206SOL    HW126164   5.302   0.855   5.640  0.2144 -1.3994  1.0020
 8206SOL    HW226165   5.453   0.865   5.640  0.1373  1.4998 -1.4654
 8207SOL     OW26166   6.596   4.756   4.015  0.3933  0.3727 -0.6371
 8207SOL    HW126167   6.663   4.712   4.069  0.7601  0.9399 -0.6270
 8207SOL    HW226168   6.544   4.806   4.078  0.2901  0.3589 -0.7110
 8208SOL     OW26169   5.005   5.548   0.809 -0.2049  0.3845  0.5774
 8208SOL    HW126170   5.044   5.579   0.891  0.4898 -0.6033  0.6319
 8208SOL    HW226171   5.052   5.596   0.740  0.8155 -0.4583  0.6649
 8209SOL     OW26172   3.395   4.962   5.903 -0.0051 -0.0409 -0.0225
 8209SOL    HW126173   3.340   4.883   5.908  1.8583 -1.3661  0.7620
 8209SOL    HW226174   3.484   4.928   5.893  0.9718  1.9351  1.3856
 8210SOL     OW26175   4.953   2.276   2.954 -0.5315  0.4267 -0.2522
 8210SOL    HW126176   4.871   2.323   2.966  0.5475  2.4750 -0.3996
 8210SOL    HW226177   4.985   2.260   3.043 -0.0995  1.5324 -0.1911
 8211SOL     OW26178   3.862   3.043   2.057  0.0071  0.0387  0.1608
 8211SOL    HW126179   3.772   3.011   2.050  0.0299 -0.4465  1.5927
 8211SOL    HW226180   3.855   3.136   2.037 -0.7669 -0.0533 -0.0607
 8212SOL     OW26181   5.593   3.349   4.807 -0.2302 -0.3775  0.3129
 8212SOL    HW126182   5.532   3.275   4.800 -1.9291  0.7764  2.0103
 8212SOL    HW226183   5.553   3.418   4.754 -1.3115  0.8760  2.5874
 8213SOL     OW26184   3.652   2.700   0.338  0.2946  0.0110 -0.3168
 8213SOL    HW126185   3.723   2.753   0.300  0.6758 -0.0032  0.3664
 8213SOL    HW226186   3.574   2.755   0.330  0.9777  1.4275  1.9463
 8214SOL     OW26187   1.362   6.253   3.373 -0.1720  0.5136 -0.0286
 8214SOL    HW126188   1.273   6.286   3.359 -0.2027  0.2165 -0.5500
 8214SOL    HW226189   1.411   6.281   3.297 -0.6680 -2.2486 -1.5026
 8215SOL     OW26190   6.765   0.455   2.521  0.1517  0.0149  0.1756
 8215SOL    HW126191   6.787   0.468   2.613 -1.0384  2.0220  0.2237
 8215SOL    HW226192   6.672   0.431   2.522  0.2193 -0.3108 -0.4930
 8216SOL     OW26193   4.522   5.475   3.000 -0.2395  0.1469 -0.0843
 8216SOL    HW126194   4.510   5.445   3.090 -0.1412  0.3726  0.0039
 8216SOL    HW226195   4.581   5.550   3.007 -0.7644  0.5844 -0.2668
 8217SOL     OW26196   0.518   5.367   1.409  0.1424 -0.1178  0.6584
 8217SOL    HW126197   0.449   5.301   1.402 -0.8322  0.8227  1.1324
 8217SOL    HW226198   0.594   5.327   1.366 -0.5465 -1.3700  0.5660
 8218SOL     OW26199   6.516   1.179   4.463  0.8589  0.5049 -0.4728
 8218SOL    HW126200   6.609   1.186   4.484  0.9089  1.5763 -0.9937
 8218SOL    HW226201   6.473   1.242   4.521  0.7616  1.9062 -1.9925
 8219SOL     OW26202   5.641   0.710   6.187  0.0727 -0.4072 -0.0705
 8219SOL    HW126203   5.629   0.783   6.127 -0.1650 -0.2965  0.1083
 8219SOL    HW226204   5.649   0.750   6.273 -1.5277 -0.6509  0.2239
 8220SOL     OW26205   2.441   3.559   0.176  0.2872  0.7568 -0.0165
 8220SOL    HW126206   2.383   3.483   0.178  1.5958 -0.2732  1.2709
 8220SOL    HW226207   2.396   3.624   0.231 -2.0997  2.0069 -3.1757
 8221SOL     OW26208   2.090   4.835   2.521 -0.9576  0.2282  0.2970
 8221SOL    HW126209   2.117   4.748   2.493 -1.7421  0.0988 -0.0690
 8221SOL    HW226210   2.099   4.833   2.617 -0.9365 -0.2394  0.2873
 8222SOL     OW26211   2.319   2.590   4.663 -0.2245 -0.3727 -0.6673
 8222SOL    HW126212   2.316   2.582   4.567  1.8225 -0.4981 -0.7483
 8222SOL    HW226213   2.256   2.524   4.694 -1.8591  0.5147 -1.9168
 8223SOL     OW26214   5.968   3.951   1.469 -0.0419  0.1055 -0.1908
 8223SOL    HW126215   6.011   4.033   1.445  0.5462 -0.4580 -1.0988
 8223SOL    HW226216   5.886   3.951   1.421  0.5808 -0.4597 -1.2733
 8224SOL     OW26217   4.363   5.780   0.573 -0.4735 -0.2092 -0.0280
 8224SOL    HW126218   4.282   5.821   0.543 -0.6471  0.2383  0.9990
 8224SOL    HW226219   4.346   5.757   0.664  0.5227 -0.2019  0.1757
 8225SOL     OW26220   0.607   5.514   4.214 -0.2620 -0.3603 -0.2932
 8225SOL    HW126221   0.659   5.594   4.205 -0.1768 -0.2891  0.6724
 8225SOL    HW226222   0.520   5.538   4.183  0.3971 -0.6512 -2.5324
 8226SOL     OW26223   2.918   1.104   2.095 -0.4820 -0.4436 -0.0938
 8226SOL    HW126224   2.960   1.019   2.105 -1.4062 -1.1856 -2.0120
 8226SOL    HW226225   2.920   1.121   2.001 -0.6576  1.4901  0.2204
 8227SOL     OW26226   1.402   3.366   3.718 -0.2620  0.1458 -0.0447
 8227SOL    HW126227   1.425   3.455   3.745  0.8890 -0.3960  0.8777
 8227SOL    HW226228   1.474   3.312   3.752 -0.6084 -1.0542 -1.1362
 8228SOL     OW26229   1.606   6.467   1.879  0.4362 -0.4047  0.2876
 8228SOL    HW126230   1.567   6.392   1.834 -0.5301 -0.4655  1.1803
 8228SOL    HW226231   1.604   6.443   1.972 -0.6863  1.0579  0.6785
 8229SOL     OW26232   3.959   4.213   4.181 -0.5581  0.2215 -0.0989
 8229SOL    HW126233   3.875   4.259   4.180 -1.4440 -1.3411 -0.2941
 8229SOL    HW226234   3.961   4.167   4.097 -0.0289 -0.6640  0.3963
 8230SOL     OW26235   0.805   0.845   6.563  0.2658  0.1798 -0.1947
 8230SOL    HW126236   0.774   0.765   6.520 -2.2231  1.4434 -0.9817
 8230SOL    HW226237   0.759   0.915   6.517  0.0009  1.8421  2.4234
 8231SOL     OW26238   1.724   2.219   6.435  0.1778  0.3481  0.4505
 8231SOL    HW126239   1.650   2.176   6.392 -0.2412  0.7058  0.8161
 8231SOL    HW226240   1.754   2.156   6.500 -0.4137  0.5884  0.9606
 8232SOL     OW26241   3.766   5.974   5.346  0.5573  0.9307 -0.0892
 8232SOL    HW126242   3.813   6.018   5.275  0.2867  0.0268 -0.8565
 8232SOL    HW226243   3.682   6.018   5.351 -0.3282 -0.4249 -1.9000
 8233SOL     OW26244   3.610   2.975   2.023  0.3140 -0.2894 -0.2887
 8233SOL    HW126245   3.588   3.007   1.936 -2.4190  0.4284  0.5497
 8233SOL    HW226246   3.607   2.879   2.015 -2.5211 -0.2827 -0.5606
 8234SOL     OW26247   1.964   5.701   3.016 -0.2357  0.1365 -0.2422
 8234SOL    HW126248   1.876   5.716   3.050 -0.6223  1.5702 -1.7699
 8234SOL    HW226249   2.020   5.756   3.071 -0.5159  0.4928 -0.3110
 8235SOL     OW26250   5.249   4.723   2.920 -0.0514  0.8463 -0.4589
 8235SOL    HW126251   5.202   4.690   2.996  1.1182  0.4012  0.0851
 8235SOL    HW226252   5.239   4.818   2.924 -2.2884  0.6989 -1.2851
 8236SOL     OW26253   0.984   6.091   6.269 -0.0392 -0.5251  0.0800
 8236SOL    HW126254   0.891   6.112   6.260 -0.0869 -0.3888  0.8508
 8236SOL    HW226255   0.996   6.073   6.362  0.8889  0.3264  0.1401
 8237SOL     OW26256   0.630   4.479   6.246 -0.0979  0.1575  0.1899
 8237SOL    HW126257   0.644   4.570   6.220  2.8271 -0.0088  0.7886
 8237SOL    HW226258   0.563   4.483   6.314  0.7412  2.0194  0.9708
 8238SOL     OW26259   6.097   1.602   6.110 -0.3234  0.1627  0.6802
 8238SOL    HW126260   6.099   1.512   6.143  1.2293 -0.1411 -0.1325
 8238SOL    HW226261   6.057   1.595   6.023 -0.5243  0.3179  0.7586
 8239SOL     OW26262   2.448   0.062   1.174 -0.0477  0.1414 -0.4101
 8239SOL    HW126263   2.494  -0.021   1.170  0.0887  0.2678 -3.3459
 8239SOL    HW226264   2.457   0.100   1.086 -1.9901  2.2250  0.1742
 8240SOL     OW26265   5.099   0.741   6.184  0.4425 -0.1987  0.2432
 8240SOL    HW126266   5.052   0.804   6.238  1.1700  0.7246 -0.1687
 8240SOL    HW226267   5.173   0.791   6.148  2.7834 -1.9646  2.2333
 8241SOL     OW26268   2.990   3.729   0.796 -0.1106 -0.0009  0.3521
 8241SOL    HW126269   2.921   3.663   0.797  0.1276 -0.2593  1.5328
 8241SOL    HW226270   3.005   3.747   0.703 -0.0131 -1.7888 -0.0122
 8242SOL     OW26271   5.135   5.302   2.092  0.1669  0.1875  0.9003
 8242SOL    HW126272   5.058   5.261   2.131  0.0304 -0.0585  0.3745
 8242SOL    HW226273   5.127   5.283   1.998  1.3507 -0.6304  0.9543
 8243SOL     OW26274   0.425   5.159   5.816  0.8804  0.3248  0.1740
 8243SOL    HW126275   0.471   5.195   5.739  0.4167 -1.7170 -1.1419
 8243SOL    HW226276   0.493   5.112   5.864  0.5485 -1.3310 -0.9057
 8244SOL     OW26277   0.661   4.614   0.135 -0.0866  0.1259 -0.1146
 8244SOL    HW126278   0.668   4.525   0.170 -0.4651  0.3255  0.4855
 8244SOL    HW226279   0.571   4.620   0.103 -0.0630  0.2970 -0.1480
 8245SOL     OW26280   5.206   4.182   4.174  0.0185 -0.7793  0.1132
 8245SOL    HW126281   5.179   4.197   4.083 -2.2504 -1.0742  0.6764
 8245SOL    HW226282   5.180   4.261   4.220 -0.3506 -1.2752  0.7775
 8246SOL     OW26283   6.580   2.253   6.127 -0.1974  0.0938  0.0962
 8246SOL    HW126284   6.669   2.287   6.120  0.6071 -1.8088  0.4281
 8246SOL    HW226285   6.549   2.284   6.212 -0.1022  1.2437 -0.2643
 8247SOL     OW26286   4.109   3.522   4.603  0.1766  0.0468  0.4598
 8247SOL    HW126287   4.024   3.493   4.570  0.0011  0.8326  0.2134
 8247SOL    HW226288   4.168   3.450   4.581 -0.2529 -0.1369 -0.1353
 8248SOL     OW26289   5.360   4.914   0.564  0.7333 -0.2089 -0.1184
 8248SOL    HW126290   5.305   4.990   0.550  0.0992 -0.7648 -0.7007
 8248SOL    HW226291   5.443   4.935   0.521  1.2287  0.8767  1.2752
 8249SOL     OW26292   5.564   2.421   0.445  0.3903 -0.4758 -0.6226
 8249SOL    HW126293   5.625   2.481   0.402 -0.0576 -0.0931 -0.7185
 8249SOL    HW226294   5.621   2.358   0.490  0.8716 -1.0173 -1.9432
 8250SOL     OW26295   0.998   6.770   5.503  0.0123  0.4287 -0.2204
 8250SOL    HW126296   1.026   6.859   5.482 -0.9410  0.8534  0.2316
 8250SOL    HW226297   1.069   6.734   5.555  0.0648  1.2097  0.2594
 8251SOL     OW26298   4.639   2.571   2.400 -0.3740  0.4421 -0.1783
 8251SOL    HW126299   4.662   2.487   2.439 -0.7285  0.3043 -0.2630
 8251SOL    HW226300   4.582   2.548   2.327  1.0267  0.6221 -1.3741
 8252SOL     OW26301   6.612   5.558   2.533 -0.2422 -0.3158  0.2845
 8252SOL    HW126302   6.668   5.611   2.590  0.5017 -1.4022  0.5823
 8252SOL    HW226303   6.541   5.617   2.509  0.8444  0.9982  0.1662
 8253SOL     OW26304   4.802   1.004   2.448  0.2317  0.4437  0.5441
 8253SOL    HW126305   4.825   1.000   2.355 -0.6901  1.4070  0.2561
 8253SOL    HW226306   4.741   1.077   2.455 -1.4270 -0.9287  1.5314
 8254SOL     OW26307   1.410   2.315   1.608  0.1821  0.1454  0.1154
 8254SOL    HW126308   1.343   2.382   1.593 -1.5136 -1.4718  0.1940
 8254SOL    HW226309   1.457   2.310   1.524  0.2786  1.3264  0.0739
 8255SOL     OW26310   0.227   0.103   1.034  0.6782 -0.2411  0.0596
 8255SOL    HW126311   0.209   0.096   0.941  0.4824 -0.8077  0.1319
 8255SOL    HW226312   0.233   0.012   1.064 -0.9077 -0.1141  0.8956
 8256SOL     OW26313   3.305   4.655   4.917  0.0162  0.6027 -0.0553
 8256SOL    HW126314   3.368   4.618   4.979 -0.9515 -2.1714 -0.5947
 8256SOL    HW226315   3.358   4.694   4.848  1.0921  1.8083  1.3906
 8257SOL     OW26316   0.977   6.503   1.552  0.1282 -0.1975 -0.2624
 8257SOL    HW126317   1.013   6.442   1.487 -1.4966  0.3510 -1.7715
 8257SOL    HW226318   1.053   6.530   1.604  1.2046 -1.9893 -0.8128
 8258SOL     OW26319   3.949   2.498   5.942 -0.9779  0.1125  0.8081
 8258SOL    HW126320   3.881   2.553   5.981 -1.1985  0.4743 -0.0615
 8258SOL    HW226321   3.902   2.420   5.911 -0.7666 -0.2830  1.4754
 8259SOL     OW26322   4.108   4.679   3.633 -0.1596 -0.0106  0.2649
 8259SOL    HW126323   4.151   4.594   3.628 -1.3123 -0.5717 -0.4663
 8259SOL    HW226324   4.171   4.741   3.596 -0.0089 -0.8223 -0.8622
 8260SOL     OW26325   4.936   0.584   4.422  0.1159 -0.5183  0.5333
 8260SOL    HW126326   4.915   0.650   4.488 -0.4873 -0.1416 -0.0172
 8260SOL    HW226327   4.856   0.577   4.370  0.5091 -0.9700 -0.0161
 8261SOL     OW26328   1.711   5.729   3.482  0.4662  0.0723 -0.1579
 8261SOL    HW126329   1.717   5.736   3.387  2.2858 -0.5225 -0.1252
 8261SOL    HW226330   1.732   5.817   3.514  1.3280 -0.0769 -0.2880
 8262SOL     OW26331   6.487   2.117   5.154 -0.5056  0.3128 -0.0056
 8262SOL    HW126332   6.427   2.091   5.224 -1.5203 -0.4711 -1.1218
 8262SOL    HW226333   6.478   2.212   5.148 -0.9313  0.3024  0.4590
 8263SOL     OW26334   5.562   5.244   0.527  0.2638  0.2533  0.1000
 8263SOL    HW126335   5.473   5.273   0.549 -0.0464  0.0041 -0.7609
 8263SOL    HW226336   5.612   5.254   0.608 -0.5022  0.5877  0.5405
 8264SOL     OW26337   6.275   6.683   5.091  0.1895  0.2292  0.5523
 8264SOL    HW126338   6.357   6.662   5.046  0.1760 -1.1336  1.0982
 8264SOL    HW226339   6.229   6.742   5.032  0.6687 -0.6205 -0.7006
 8265SOL     OW26340   0.948   1.750   1.220  0.3436 -0.1119 -0.5297
 8265SOL    HW126341   0.958   1.744   1.315  0.1509 -0.6588 -0.5398
 8265SOL    HW226342   0.921   1.662   1.193 -3.5537  0.9328 -0.6354
 8266SOL     OW26343   0.148   6.559   3.009  0.7637 -0.0059  0.3837
 8266SOL    HW126344   0.082   6.545   2.942 -1.2071  2.7181  1.5950
 8266SOL    HW226345   0.230   6.533   2.967 -0.7430 -1.3758 -1.9482
 8267SOL     OW26346   1.921   2.203   0.773  0.0252 -0.2864 -0.1065
 8267SOL    HW126347   1.964   2.129   0.731 -0.1878 -0.3977 -0.1286
 8267SOL    HW226348   1.993   2.259   0.803  0.1813 -0.3488 -0.3647
 8268SOL     OW26349   0.392   5.961   2.948 -0.3543  0.3405  0.2485
 8268SOL    HW126350   0.373   5.974   2.855  2.3128 -0.2927 -0.4531
 8268SOL    HW226351   0.354   5.876   2.969  0.4484 -0.2684 -0.7155
 8269SOL     OW26352   1.327   6.226   6.046  0.1029 -0.1914  0.0649
 8269SOL    HW126353   1.362   6.221   5.956  0.1474 -1.3854  0.1275
 8269SOL    HW226354   1.235   6.204   6.037 -0.1783  0.8782  0.1771
 8270SOL     OW26355   2.820   3.994   6.151 -0.1734  0.3637  0.1442
 8270SOL    HW126356   2.838   3.905   6.180  1.3085  0.9844  1.2674
 8270SOL    HW226357   2.822   3.989   6.055  0.2152 -0.7422  0.1984
 8271SOL     OW26358   2.147   0.032   0.928  0.2015  0.2780 -0.2256
 8271SOL    HW126359   2.130  -0.062   0.943 -3.3025  0.6900 -0.6514
 8271SOL    HW226360   2.097   0.053   0.849  0.5225  2.6004  0.1216
 8272SOL     OW26361   2.293   5.318   6.154 -0.2212  0.9466  0.8475
 8272SOL    HW126362   2.278   5.236   6.201 -2.9090 -0.2809 -1.8075
 8272SOL    HW226363   2.376   5.350   6.188  0.4826 -2.3647  2.7183
 8273SOL     OW26364   1.385   6.263   1.824 -0.0208  0.2962  0.4086
 8273SOL    HW126365   1.351   6.242   1.737 -1.0669 -1.3076  1.1538
 8273SOL    HW226366   1.324   6.328   1.859 -1.3934 -1.2472  1.0413
 8274SOL     OW26367   4.590   3.326   1.268  0.2312  0.8619 -0.0288
 8274SOL    HW126368   4.612   3.263   1.337  1.5571 -0.2976 -1.4213
 8274SOL    HW226369   4.605   3.278   1.186 -2.5748  1.7487 -1.1831
 8275SOL     OW26370   0.951   3.833   5.005 -0.0491  0.6099 -0.6981
 8275SOL    HW126371   0.875   3.822   4.949 -0.5751 -0.1782  0.1483
 8275SOL    HW226372   1.021   3.862   4.946 -0.6963  0.2241 -1.6659
 8276SOL     OW26373   5.225   1.642   3.282  0.2366 -0.1412 -0.1299
 8276SOL    HW126374   5.320   1.640   3.278  0.3324 -0.9059  1.7558
 8276SOL    HW226375   5.205   1.666   3.373 -1.3378 -2.6191  0.2679
 8277SOL     OW26376   3.731   6.376   1.340  0.0348  0.3411 -0.2520
 8277SOL    HW126377   3.811   6.424   1.318  0.3508 -0.4781 -0.9387
 8277SOL    HW226378   3.669   6.402   1.272  0.0056  0.2603 -0.2558
 8278SOL     OW26379   5.302   2.282   2.004  0.0991  0.0758 -0.2516
 8278SOL    HW126380   5.208   2.265   1.996 -0.1556  0.6549  1.1894
 8278SOL    HW226381   5.307   2.360   2.060  1.4157  0.5804 -1.0299
 8279SOL     OW26382   5.210   4.508   1.388 -0.1230  0.2503  0.1846
 8279SOL    HW126383   5.208   4.567   1.463 -0.4429 -1.1354  1.3217
 8279SOL    HW226384   5.266   4.435   1.416  0.5630  0.1586 -1.2978
 8280SOL     OW26385   0.714   5.089   2.191  0.2436 -0.2304 -0.1907
 8280SOL    HW126386   0.740   5.064   2.102  1.7392 -0.0141  0.1551
 8280SOL    HW226387   0.620   5.102   2.185  0.4248  0.6095 -1.9530
 8281SOL     OW26388   3.817   3.390   5.130 -0.0017  0.2029  0.5154
 8281SOL    HW126389   3.860   3.322   5.181  0.1882  0.2041  0.3608
 8281SOL    HW226390   3.730   3.397   5.167 -0.5548 -1.1926 -0.4338
 8282SOL     OW26391   4.868   4.564   4.448  0.4530  0.1075 -0.9590
 8282SOL    HW126392   4.793   4.618   4.424 -0.9187 -1.6262 -0.7741
 8282SOL    HW226393   4.845   4.527   4.533  1.9205  0.2151 -0.4826
 8283SOL     OW26394   3.678   3.386   1.112 -0.2191 -0.4559  0.6866
 8283SOL    HW126395   3.602   3.346   1.153  1.0180 -2.4657  1.1617
 8283SOL    HW226396   3.753   3.346   1.156  1.1386  1.0636 -0.1266
 8284SOL     OW26397   5.352   2.640   5.744  0.4199  0.6779 -0.2240
 8284SOL    HW126398   5.294   2.706   5.708 -0.9651 -0.3991 -0.0405
 8284SOL    HW226399   5.309   2.612   5.825  1.3154  0.0185  0.0389
 8285SOL     OW26400   3.566   4.905   4.215  0.2814 -0.4682 -0.3222
 8285SOL    HW126401   3.487   4.913   4.162  1.0580  1.5551 -1.3156
 8285SOL    HW226402   3.633   4.952   4.164  2.0689 -1.9066  0.5861
 8286SOL     OW26403   5.117   0.558   6.669  0.1197  0.0855 -0.5608
 8286SOL    HW126404   5.065   0.548   6.589  0.6234  2.5941 -1.3151
 8286SOL    HW226405   5.058   0.533   6.740 -1.5692  1.1835 -1.5052
 8287SOL     OW26406   0.379   2.435   2.648  0.0406 -0.3261 -0.0920
 8287SOL    HW126407   0.343   2.454   2.734 -0.1473 -0.7561 -0.0730
 8287SOL    HW226408   0.473   2.453   2.656 -0.2154  1.3381 -0.2902
 8288SOL     OW26409   5.863   0.862   0.419  0.3369 -0.0012 -0.4383
 8288SOL    HW126410   5.948   0.819   0.418  0.5497  0.3970  0.1204
 8288SOL    HW226411   5.844   0.876   0.512 -1.3380 -2.0582 -0.3804
 8289SOL     OW26412   6.302   5.911   3.562 -0.2235  0.2492  0.1824
 8289SOL    HW126413   6.210   5.904   3.538 -0.1223  1.8820 -0.8007
 8289SOL    HW226414   6.317   5.838   3.622 -1.8267 -0.7890 -0.6345
 8290SOL     OW26415   5.977   1.908   1.358  0.6815 -0.4396  0.5785
 8290SOL    HW126416   5.959   1.816   1.336  1.7097 -0.7178  0.8878
 8290SOL    HW226417   6.058   1.929   1.312 -0.9646  1.1928 -1.8636
 8291SOL     OW26418   5.552   2.853   2.150 -0.0438 -0.0982 -0.1398
 8291SOL    HW126419   5.618   2.896   2.205 -0.7091  1.2222 -0.3238
 8291SOL    HW226420   5.469   2.882   2.186 -0.5662 -2.0923  0.3552
 8292SOL     OW26421   2.711   1.486   1.687  0.3669  0.1859  0.2057
 8292SOL    HW126422   2.634   1.519   1.641 -0.4642 -1.5977  0.2227
 8292SOL    HW226423   2.784   1.506   1.628 -0.3902 -0.0399 -0.8528
 8293SOL     OW26424   0.508   5.541   0.133 -0.3983 -0.7460  0.1076
 8293SOL    HW126425   0.429   5.576   0.093  0.3706  0.1845 -0.6236
 8293SOL    HW226426   0.580   5.578   0.082  0.4886 -2.4083  0.0909
 8294SOL     OW26427   5.995   1.428   2.871  0.6005 -0.4760 -0.2213
 8294SOL    HW126428   6.000   1.333   2.885  0.5088 -0.4828 -0.2350
 8294SOL    HW226429   6.085   1.453   2.849  0.8075 -0.4140  0.6860
 8295SOL     OW26430   4.864   1.797   0.962 -0.8467 -0.3982 -0.0944
 8295SOL    HW126431   4.829   1.797   0.873 -1.4626 -1.2295  0.1343
 8295SOL    HW226432   4.944   1.849   0.956 -1.9429  1.2922 -0.6927
 8296SOL     OW26433   2.812   0.178   1.520  0.2273  0.2421  0.1102
 8296SOL    HW126434   2.718   0.188   1.532  0.0060 -1.2630 -0.2046
 8296SOL    HW226435   2.846   0.161   1.607  0.1267  0.1902  0.1395
 8297SOL     OW26436   5.293   3.720   1.726  0.3567 -0.3600 -0.0303
 8297SOL    HW126437   5.275   3.690   1.636 -1.0683  0.4264 -0.0285
 8297SOL    HW226438   5.377   3.679   1.748  0.3825 -1.1443 -1.4574
 8298SOL     OW26439   0.375   6.714   1.394  0.0949  0.4748 -0.2816
 8298SOL    HW126440   0.459   6.724   1.350  0.3653  2.7275  0.6283
 8298SOL    HW226441   0.364   6.619   1.403  3.0261  0.1022  0.4795
 8299SOL     OW26442   3.004   1.063   1.025 -0.4598  0.0931  0.4195
 8299SOL    HW126443   3.083   1.115   1.039  0.0622 -0.5424 -0.1249
 8299SOL    HW226444   3.021   1.013   0.946 -0.8343 -1.1159  1.0714
 8300SOL     OW26445   0.207   4.309   0.126 -0.7910 -0.0899  0.0580
 8300SOL    HW126446   0.127   4.292   0.077  0.1646 -0.4393 -1.4510
 8300SOL    HW226447   0.270   4.341   0.061 -0.7548  3.9816  1.7351
 8301SOL     OW26448   0.033   0.445   2.803  0.7502  0.1743 -0.5094
 8301SOL    HW126449   0.125   0.428   2.823  0.7661  0.5680 -0.2320
 8301SOL    HW226450   0.027   0.541   2.798  0.0575  0.2256  0.9402
 8302SOL     OW26451   2.862   5.327   3.477  0.3022 -0.5175 -0.2521
 8302SOL    HW126452   2.925   5.399   3.472  0.1174 -0.4061 -1.0435
 8302SOL    HW226453   2.893   5.264   3.412  0.3304 -1.0491  0.2731
 8303SOL     OW26454   5.887   6.456   2.266  0.7100 -0.0418 -0.9626
 8303SOL    HW126455   5.982   6.458   2.277  0.4900  2.0382  1.6894
 8303SOL    HW226456   5.865   6.542   2.229 -0.1701 -0.2451 -0.9335
 8304SOL     OW26457   4.484   2.984   5.770  0.2898 -0.2768  0.3749
 8304SOL    HW126458   4.483   2.949   5.859 -0.1517 -0.4904  0.2841
 8304SOL    HW226459   4.559   2.940   5.728  0.4245 -0.2651  0.6001
 8305SOL     OW26460   2.238   3.094   3.173  0.0666 -0.0769  0.7730
 8305SOL    HW126461   2.327   3.089   3.208  0.0847  0.4989  0.8262
 8305SOL    HW226462   2.248   3.073   3.080  0.6387  2.1769  0.2427
 8306SOL     OW26463   0.341   4.097   5.666 -0.2492  0.5974  0.2783
 8306SOL    HW126464   0.380   4.093   5.753  2.3038  1.6054 -0.7128
 8306SOL    HW226465   0.345   4.007   5.633  1.8313  0.7260  0.0359
 8307SOL     OW26466   0.081   6.293   2.747  0.2217 -0.3299  0.3723
 8307SOL    HW126467   0.052   6.382   2.770 -0.2781 -0.2648 -0.4586
 8307SOL    HW226468   0.177   6.298   2.751  0.2130  0.3585 -0.0324
 8308SOL     OW26469   1.871   5.701   0.389  0.4940  0.2355 -0.5030
 8308SOL    HW126470   1.792   5.732   0.431 -0.5087 -1.0272 -1.3770
 8308SOL    HW226471   1.905   5.633   0.447 -0.0341 -0.4284 -0.9608
 8309SOL     OW26472   6.205   1.547   3.035 -0.7460  0.4805 -0.5460
 8309SOL    HW126473   6.148   1.481   3.074  2.0250 -1.7294  0.1086
 8309SOL    HW226474   6.259   1.579   3.108  0.5234  0.6498 -1.5182
 8310SOL     OW26475   4.804   4.980   1.964 -0.0799  0.0433  0.3197
 8310SOL    HW126476   4.775   5.013   1.878  0.0191  2.3720  1.0918
 8310SOL    HW226477   4.723   4.969   2.014 -0.0384  0.3145  0.4482
 8311SOL     OW26478   3.124   2.891   4.006  0.2239  0.4470  0.7317
 8311SOL    HW126479   3.167   2.904   3.921  0.4964  0.5174  0.8791
 8311SOL    HW226480   3.189   2.918   4.070  0.7687 -1.4460  1.0505
 8312SOL     OW26481   3.633   0.142   4.328 -0.4602 -0.2013  0.0467
 8312SOL    HW126482   3.540   0.158   4.312 -0.1556  1.1660 -0.5076
 8312SOL    HW226483   3.639   0.127   4.423 -1.4956 -2.4133 -0.1850
 8313SOL     OW26484   6.789   2.937   2.108  0.6643 -0.5088 -0.1255
 8313SOL    HW126485   6.821   3.005   2.166 -0.2057 -0.3971  0.2417
 8313SOL    HW226486   6.865   2.912   2.055  0.9109  1.0128 -0.5377
 8314SOL     OW26487   0.352   4.013   3.551  0.1228 -0.3031 -0.0877
 8314SOL    HW126488   0.282   3.962   3.509 -0.7718  0.5443  0.3271
 8314SOL    HW226489   0.393   4.061   3.479 -1.0579  0.7383 -0.1062
 8315SOL     OW26490   1.468   6.785   2.735 -0.3329 -0.1460  0.5048
 8315SOL    HW126491   1.500   6.875   2.740  0.7073 -0.3002 -1.9218
 8315SOL    HW226492   1.466   6.766   2.641  1.5956 -3.3892  1.0026
 8316SOL     OW26493   4.484   2.800   5.515  0.2343  0.0178  0.4714
 8316SOL    HW126494   4.413   2.773   5.573  0.3593  1.3217  1.2870
 8316SOL    HW226495   4.504   2.723   5.463 -0.0990 -1.1172  1.9567
 8317SOL     OW26496   4.728   5.455   6.401  0.2754 -0.3484  0.2539
 8317SOL    HW126497   4.743   5.360   6.398  0.9950 -0.2724  1.0293
 8317SOL    HW226498   4.648   5.465   6.452 -2.0021 -0.7019 -2.9524
 8318SOL     OW26499   0.845   4.770   5.902  0.0316 -0.7631  0.9145
 8318SOL    HW126500   0.894   4.852   5.910  0.8473 -1.1758  0.2930
 8318SOL    HW226501   0.892   4.720   5.835 -2.7548 -0.0405 -1.8534
 8319SOL     OW26502   5.426   2.469   2.675  0.0651  0.4579 -0.4792
 8319SOL    HW126503   5.516   2.494   2.656  0.6371  0.3334  1.8544
 8319SOL    HW226504   5.432   2.379   2.707 -1.1189 -0.1619 -1.8858
 8320SOL     OW26505   1.436   0.323   6.293  0.3879  0.0387  0.3123
 8320SOL    HW126506   1.519   0.337   6.247  1.3230  2.7522  2.5367
 8320SOL    HW226507   1.370   0.318   6.223  2.0110  1.4556 -1.4321
 8321SOL     OW26508   2.212   0.634   3.572  0.1015 -0.4585 -0.2866
 8321SOL    HW126509   2.175   0.684   3.645  1.4081 -0.3249  0.3024
 8321SOL    HW226510   2.165   0.667   3.495 -1.1090 -0.4134  0.4367
 8322SOL     OW26511   2.495   0.987   2.862  0.2202  0.4039  0.5473
 8322SOL    HW126512   2.565   1.037   2.819 -0.6620  1.2892  0.0888
 8322SOL    HW226513   2.509   0.897   2.833  0.6182  0.7243 -0.3100
 8323SOL     OW26514   0.398   4.734   0.146 -0.1867 -0.0406 -0.3051
 8323SOL    HW126515   0.321   4.726   0.089  1.2322 -2.0483 -2.1449
 8323SOL    HW226516   0.418   4.828   0.147 -1.5121  0.2847 -1.4376
 8324SOL     OW26517   4.222   5.498   5.760 -0.2887 -0.2028 -0.2290
 8324SOL    HW126518   4.262   5.511   5.674 -0.7992  0.5334 -0.3653
 8324SOL    HW226519   4.274   5.428   5.800  1.5345  1.1235 -0.1452
 8325SOL     OW26520   1.924   6.398   2.814 -0.2836  0.2481 -0.3630
 8325SOL    HW126521   1.946   6.368   2.902 -1.2717  0.2706 -0.0949
 8325SOL    HW226522   1.984   6.350   2.756 -1.9844 -2.5691  0.0146
 8326SOL     OW26523   1.709   0.908   4.362  0.0894  0.0535  0.2197
 8326SOL    HW126524   1.679   0.870   4.444 -0.6568 -3.0511 -1.3202
 8326SOL    HW226525   1.694   1.002   4.371 -2.0128 -0.4365  2.7724
 8327SOL     OW26526   6.601   6.097   6.464 -0.2714 -0.3483  0.6823
 8327SOL    HW126527   6.522   6.046   6.482  0.5896 -2.9385 -2.1235
 8327SOL    HW226528   6.669   6.055   6.515  0.3165 -1.7713 -1.1662
 8328SOL     OW26529   3.013   3.733   2.121  0.3191 -0.3144 -0.2920
 8328SOL    HW126530   2.936   3.680   2.101 -1.2071  1.9115 -0.6016
 8328SOL    HW226531   3.037   3.773   2.037 -0.2129  1.5284  0.3837
 8329SOL     OW26532   2.618   5.962   4.880 -0.7044  0.1902 -0.6044
 8329SOL    HW126533   2.534   5.918   4.868 -0.2248 -0.4153 -1.8780
 8329SOL    HW226534   2.595   6.052   4.905 -1.8756  0.9592 -3.8837
 8330SOL     OW26535   6.502   2.268   4.114 -0.2266  0.3718 -0.1498
 8330SOL    HW126536   6.488   2.282   4.021  0.3534  0.1145 -0.2814
 8330SOL    HW226537   6.424   2.220   4.143 -0.6143  0.8361 -0.4054
 8331SOL     OW26538   5.146   5.826   1.469  0.3747 -0.0371 -0.0992
 8331SOL    HW126539   5.199   5.900   1.440  3.2532 -1.5872  0.8148
 8331SOL    HW226540   5.156   5.761   1.400 -0.8006 -0.2206 -0.1233
 8332SOL     OW26541   2.173   1.607   2.341  0.4645  0.4376  0.1685
 8332SOL    HW126542   2.200   1.533   2.287  1.1136  0.0751  0.9862
 8332SOL    HW226543   2.253   1.635   2.386 -0.1536  0.4844  1.2577
 8333SOL     OW26544   5.072   3.176   5.383  0.2300 -0.5569  0.2897
 8333SOL    HW126545   5.152   3.218   5.414 -0.6440 -0.5895  2.8265
 8333SOL    HW226546   5.026   3.150   5.463 -2.3949 -0.4115 -1.0586
 8334SOL     OW26547   4.961   1.109   5.176  0.3803 -0.0613  0.1398
 8334SOL    HW126548   4.991   1.047   5.243 -1.8938 -0.5672  0.7898
 8334SOL    HW226549   4.925   1.182   5.226 -0.5919 -0.0674 -0.5227
 8335SOL     OW26550   3.025   4.969   3.591 -0.4165 -0.0590  0.0810
 8335SOL    HW126551   3.067   5.053   3.611 -2.1296  0.8172  0.1119
 8335SOL    HW226552   3.043   4.914   3.668  2.3235 -0.4332 -0.7083
 8336SOL     OW26553   5.137   4.425   4.334  0.0789 -0.3967 -0.1800
 8336SOL    HW126554   5.053   4.414   4.379 -0.5597 -1.3611 -1.5359
 8336SOL    HW226555   5.160   4.517   4.348  0.4214 -0.8550  2.8983
 8337SOL     OW26556   3.529   1.681   5.038  0.4076  0.2152 -0.5671
 8337SOL    HW126557   3.478   1.655   4.961 -0.5901  0.4102  0.0104
 8337SOL    HW226558   3.465   1.724   5.096  0.8399 -1.0591  0.9296
 8338SOL     OW26559   1.399   0.943   1.747  0.0984 -0.3848 -0.1220
 8338SOL    HW126560   1.375   0.904   1.831  1.8607 -0.5674  0.3288
 8338SOL    HW226561   1.494   0.930   1.741  0.5395  2.5278 -0.6371
 8339SOL     OW26562   5.596   6.582   0.237 -0.6292 -0.0959 -0.0715
 8339SOL    HW126563   5.552   6.665   0.251 -1.2364 -0.5605  0.8368
 8339SOL    HW226564   5.688   6.600   0.259 -0.6760  0.4339 -0.2911
 8340SOL     OW26565   3.353   1.641   1.364 -0.0303 -0.1949  0.2276
 8340SOL    HW126566   3.349   1.602   1.452  1.2816 -0.0929  0.3534
 8340SOL    HW226567   3.271   1.617   1.323  0.3903 -2.4180  0.5961
 8341SOL     OW26568   1.948   6.627   4.583 -0.4273 -0.0036 -0.9185
 8341SOL    HW126569   1.925   6.632   4.490  0.4412 -1.3336 -1.2191
 8341SOL    HW226570   2.042   6.641   4.586 -0.2598 -1.1544 -0.3680
 8342SOL     OW26571   3.446   5.019   3.701 -0.5790  0.1235 -0.0416
 8342SOL    HW126572   3.495   4.957   3.755 -1.5109 -0.2146  0.4275
 8342SOL    HW226573   3.407   5.080   3.764  0.6892  1.4848 -0.5084
 8343SOL     OW26574   0.570   2.075   2.443  0.1014 -0.1391 -0.1352
 8343SOL    HW126575   0.498   2.120   2.488  1.3983 -0.5234  2.5063
 8343SOL    HW226576   0.629   2.145   2.416 -0.6241  0.0874 -1.1794
 8344SOL     OW26577   5.384   1.641   2.475 -0.4526  0.5914  0.7976
 8344SOL    HW126578   5.347   1.647   2.563 -0.6105  0.0842  0.7646
 8344SOL    HW226579   5.367   1.551   2.447 -0.6063  0.8147  0.1588
 8345SOL     OW26580   0.451   4.843   1.061 -0.4810  0.5422  0.8664
 8345SOL    HW126581   0.376   4.895   1.088 -1.6722 -1.2358  1.1251
 8345SOL    HW226582   0.414   4.759   1.032  1.4351 -0.7157  1.8116
 8346SOL     OW26583   5.191   3.850   6.792 -0.2196 -0.3739 -0.5368
 8346SOL    HW126584   5.275   3.870   6.834 -0.0965 -0.4696 -0.7368
 8346SOL    HW226585   5.134   3.922   6.819 -0.4992 -1.0765  0.7979
 8347SOL     OW26586   1.985   5.429   3.761 -0.3281  0.0318 -0.0739
 8347SOL    HW126587   1.978   5.337   3.736 -1.1773 -0.4220  1.7341
 8347SOL    HW226588   1.922   5.474   3.704 -0.8119 -0.6802 -0.1134
 8348SOL     OW26589   4.221   3.725   3.704  0.1225 -0.0245 -0.3555
 8348SOL    HW126590   4.212   3.708   3.798  0.0728 -2.8766 -0.8175
 8348SOL    HW226591   4.178   3.810   3.692  0.2143  0.4672  2.1934
 8349SOL     OW26592   4.125   2.910   5.999 -0.8797  0.8217 -0.8107
 8349SOL    HW126593   4.166   2.824   6.004 -1.5597  0.5642  0.4630
 8349SOL    HW226594   4.133   2.934   5.906  1.4446  0.4569 -0.7686
 8350SOL     OW26595   2.566   0.541   4.327  0.3202  0.4695 -0.0606
 8350SOL    HW126596   2.568   0.590   4.409  0.4180  1.1426 -0.4571
 8350SOL    HW226597   2.595   0.604   4.260  0.0616 -0.0102 -0.6377
 8351SOL     OW26598   1.811   0.607   6.715 -0.5769  0.4212 -0.3463
 8351SOL    HW126599   1.808   0.672   6.785 -0.5556  0.4259 -0.3496
 8351SOL    HW226600   1.720   0.589   6.693 -0.5985  0.0380  0.0385
 8352SOL     OW26601   2.976   1.027   3.267 -0.2362  0.3744 -0.3552
 8352SOL    HW126602   3.023   1.108   3.250  0.6556  0.2291  1.1767
 8352SOL    HW226603   2.923   1.012   3.189  0.6971  1.6498 -1.2621
 8353SOL     OW26604   3.916   6.767   1.027  0.2837 -0.7702  0.0076
 8353SOL    HW126605   3.879   6.849   0.994 -0.6873 -1.3726 -0.4364
 8353SOL    HW226606   4.011   6.778   1.016  0.1263 -0.0056 -0.7345
 8354SOL     OW26607   5.831   0.044   3.207 -0.5363 -0.4636 -0.2122
 8354SOL    HW126608   5.737   0.049   3.224 -0.3636 -0.1880  0.6725
 8354SOL    HW226609   5.841  -0.035   3.153 -1.2586 -0.5395 -0.2482
 8355SOL     OW26610   2.553   1.757   3.322  0.0941 -0.1344  0.0083
 8355SOL    HW126611   2.477   1.758   3.263  2.1659  0.6277 -2.8667
 8355SOL    HW226612   2.528   1.815   3.394 -2.3699 -0.6775 -0.3039
 8356SOL     OW26613   6.286   2.248   1.257  0.1426  0.0328 -0.0637
 8356SOL    HW126614   6.280   2.153   1.246 -0.8369  0.0344  0.3622
 8356SOL    HW226615   6.338   2.278   1.183  0.4075 -0.8317 -0.2322
 8357SOL     OW26616   5.031   5.060   1.532 -0.1394 -0.0674 -0.6578
 8357SOL    HW126617   5.068   5.026   1.451  1.2626 -0.2268  0.0198
 8357SOL    HW226618   5.081   5.018   1.602 -1.7839 -0.4756  0.3358
 8358SOL     OW26619   0.287   5.940   6.796 -0.1539  0.3191 -0.3104
 8358SOL    HW126620   0.315   6.031   6.792  0.2790  0.2027 -0.0959
 8358SOL    HW226621   0.192   5.943   6.793 -0.1629  0.8179  0.3969
 8359SOL     OW26622   1.099   4.771   2.379 -0.2180  0.5952 -0.2330
 8359SOL    HW126623   1.097   4.866   2.393 -0.3942  0.3830  1.3883
 8359SOL    HW226624   1.047   4.735   2.451  1.2221 -0.8242  0.1448
 8360SOL     OW26625   3.485   0.263   3.178 -0.3979 -0.0357 -0.3417
 8360SOL    HW126626   3.560   0.271   3.119 -1.1635  2.8093 -1.0864
 8360SOL    HW226627   3.520   0.287   3.264  0.3854 -2.7975  0.2274
 8361SOL     OW26628   0.152   5.313   6.419 -0.0955  0.0526 -0.0087
 8361SOL    HW126629   0.103   5.257   6.480  0.3807 -0.3857 -0.0189
 8361SOL    HW226630   0.100   5.393   6.413  0.0318  0.2517  1.2531
 8362SOL     OW26631   3.735   3.933   1.682 -0.1153 -0.0322  0.6022
 8362SOL    HW126632   3.672   4.004   1.693  0.5523  1.1980 -2.4146
 8362SOL    HW226633   3.737   3.917   1.587  0.5583 -3.4040  1.0476
 8363SOL     OW26634   3.120   6.557   1.781  0.3495  0.0822  0.3451
 8363SOL    HW126635   3.138   6.464   1.797 -0.0400  0.0571  0.6613
 8363SOL    HW226636   3.072   6.559   1.698  0.3617  0.0015  0.3364
 8364SOL     OW26637   1.771   3.155   3.307 -0.0122 -0.5353  0.9105
 8364SOL    HW126638   1.841   3.152   3.371  0.0987 -0.1871  0.8093
 8364SOL    HW226639   1.793   3.229   3.250  0.1652 -1.1535  0.1561
 8365SOL     OW26640   5.995   1.212   1.862 -0.0251 -0.3625  0.1800
 8365SOL    HW126641   5.992   1.222   1.766 -0.6402  0.6166  0.2908
 8365SOL    HW226642   6.075   1.163   1.878 -0.3511 -1.3131 -0.9022
 8366SOL     OW26643   6.066   6.280   5.786  0.5039  0.1129  0.8816
 8366SOL    HW126644   6.011   6.204   5.767 -0.8674  0.9173  1.4344
 8366SOL    HW226645   6.107   6.260   5.870  1.4763 -0.7113  0.2240
 8367SOL     OW26646   0.243   1.054   5.808 -0.2049  0.1172  0.0426
 8367SOL    HW126647   0.201   0.999   5.874 -1.2177  0.8447  0.0268
 8367SOL    HW226648   0.235   1.143   5.842  1.6302  0.2694  0.1825
 8368SOL     OW26649   4.231   6.285   3.442  0.6776  0.5602  0.4002
 8368SOL    HW126650   4.244   6.193   3.463 -1.2318  0.4863  1.5360
 8368SOL    HW226651   4.300   6.331   3.490  1.6803 -0.2561 -0.2226
 8369SOL     OW26652   1.486   2.629   5.261 -0.2808  0.1206  0.2271
 8369SOL    HW126653   1.548   2.645   5.190 -0.7984 -0.9456 -0.4976
 8369SOL    HW226654   1.540   2.614   5.339  0.4270 -1.3996 -0.5081
 8370SOL     OW26655   5.869   3.267   1.765 -0.2641 -0.0688 -0.5054
 8370SOL    HW126656   5.880   3.361   1.774  2.2105 -0.4580  1.5213
 8370SOL    HW226657   5.827   3.239   1.847 -0.5225 -0.8032 -0.8733
 8371SOL     OW26658   2.478   5.350   0.815 -0.2236  0.1736  0.3895
 8371SOL    HW126659   2.422   5.308   0.750  0.3961 -0.7529  0.4473
 8371SOL    HW226660   2.554   5.292   0.823 -0.1962  0.3766  1.7855
 8372SOL     OW26661   6.331   0.522   6.105  0.7136  0.2173  0.1896
 8372SOL    HW126662   6.336   0.432   6.139 -0.7130 -0.9583 -2.3805
 8372SOL    HW226663   6.254   0.559   6.146  0.1831 -0.4576 -0.1684
 8373SOL     OW26664   4.411   3.593   2.257  0.6483 -0.3836  0.4282
 8373SOL    HW126665   4.328   3.574   2.212  0.4498 -1.5028  1.1961
 8373SOL    HW226666   4.432   3.683   2.232 -0.3219 -0.3905 -0.5176
 8374SOL     OW26667   5.532   4.467   2.657  0.5017  0.0550 -0.0543
 8374SOL    HW126668   5.494   4.379   2.664  2.3980 -0.6729  2.1622
 8374SOL    HW226669   5.487   4.506   2.582  1.3777 -3.7385 -2.9206
 8375SOL     OW26670   6.597   1.689   1.520  0.1174 -0.3527  1.0424
 8375SOL    HW126671   6.659   1.705   1.591 -0.1129 -0.2232  1.2137
 8375SOL    HW226672   6.631   1.611   1.476  0.0560 -0.6580  1.5237
 8376SOL     OW26673   5.595   6.107   4.241 -0.1429  0.1557  0.8005
 8376SOL    HW126674   5.510   6.151   4.229 -0.8430 -0.8031  1.9528
 8376SOL    HW226675   5.642   6.122   4.159 -1.3193  0.9478  0.2408
 8377SOL     OW26676   2.784   0.705   6.248  0.0552  0.2596 -0.0994
 8377SOL    HW126677   2.814   0.622   6.285  0.0674 -0.1460 -0.9871
 8377SOL    HW226678   2.690   0.692   6.233  0.0761  0.3673 -0.3308
 8378SOL     OW26679   3.473   2.856   4.909 -0.7083  0.8616 -0.1621
 8378SOL    HW126680   3.543   2.791   4.905 -0.7219  0.6724  1.9629
 8378SOL    HW226681   3.450   2.870   4.817  0.5090 -0.7914 -0.7853
 8379SOL     OW26682   2.913   1.550   5.228  0.1496  0.3838  0.6389
 8379SOL    HW126683   2.885   1.607   5.156  1.5051 -0.4981 -0.6411
 8379SOL    HW226684   3.004   1.573   5.243  0.3759 -0.6497  0.9077
 8380SOL     OW26685   4.323   3.813   3.017  0.4382 -0.0811  0.2114
 8380SOL    HW126686   4.408   3.853   3.036  0.6032 -0.5505  0.4811
 8380SOL    HW226687   4.290   3.861   2.942  0.1434  1.2880  1.1741
 8381SOL     OW26688   4.110   1.508   0.178  0.8637 -0.0636 -0.0218
 8381SOL    HW126689   4.027   1.516   0.225  2.4012 -2.4874  3.5695
 8381SOL    HW226690   4.096   1.436   0.117  0.7883 -1.9069  2.0549
 8382SOL     OW26691   6.069   1.029   5.371  0.4821 -0.1148  0.2291
 8382SOL    HW126692   6.018   1.081   5.433  1.8534 -0.7286  1.9605
 8382SOL    HW226693   6.100   1.093   5.307 -0.5551  0.6295  0.4409
 8383SOL     OW26694   0.783   2.796   4.080 -1.1794 -0.0075 -0.2681
 8383SOL    HW126695   0.821   2.738   4.015  1.5827  0.6391  0.6277
 8383SOL    HW226696   0.858   2.828   4.130 -2.9417  1.5497  1.5487
 8384SOL     OW26697   4.422   5.003   5.230  0.3125  0.0558 -0.5370
 8384SOL    HW126698   4.450   5.013   5.321  0.1769  1.4812 -0.6306
 8384SOL    HW226699   4.403   4.909   5.221 -0.1428 -0.0401  1.0441
 8385SOL     OW26700   3.128   5.017   5.439 -0.1473  0.3863 -0.4757
 8385SOL    HW126701   3.035   5.038   5.443  0.0486  1.1831  0.0555
 8385SOL    HW226702   3.151   4.989   5.528  0.6614  2.6587  0.1136
 8386SOL     OW26703   6.340   3.949   2.810 -0.1825 -0.0083 -0.0553
 8386SOL    HW126704   6.261   3.941   2.756  0.6555 -0.1745 -1.3113
 8386SOL    HW226705   6.353   3.862   2.847  1.1993 -0.9449 -2.5068
 8387SOL     OW26706   3.934   6.645   0.643  0.3102  0.4665  0.1622
 8387SOL    HW126707   4.029   6.654   0.648  0.5768 -0.9817 -1.3217
 8387SOL    HW226708   3.902   6.733   0.623  1.1464  1.3291  2.4001
 8388SOL     OW26709   5.497   5.810   1.755 -0.2051  0.3339 -0.2272
 8388SOL    HW126710   5.587   5.829   1.726 -0.5839  2.9505  0.0997
 8388SOL    HW226711   5.503   5.805   1.850 -0.8365  3.8825  0.1155
 8389SOL     OW26712   6.734   3.215   6.512 -0.1910 -1.2278  0.2945
 8389SOL    HW126713   6.700   3.248   6.428  0.9855 -2.9988 -0.9444
 8389SOL    HW226714   6.811   3.269   6.529 -0.3805 -0.9210  0.1920
 8390SOL     OW26715   4.559   3.248   3.576  0.4392 -0.0952  0.1212
 8390SOL    HW126716   4.539   3.312   3.644 -0.1929 -0.8212  0.6301
 8390SOL    HW226717   4.507   3.171   3.599 -2.2568  0.6095 -2.7846
 8391SOL     OW26718   3.340   1.241   3.848 -0.1705 -0.4117 -0.3230
 8391SOL    HW126719   3.370   1.151   3.854 -0.7108 -0.5126  1.7221
 8391SOL    HW226720   3.419   1.293   3.863 -0.0697 -0.5695 -0.3069
 8392SOL     OW26721   2.877   4.993   5.677 -0.8456 -0.2016 -0.2157
 8392SOL    HW126722   2.834   4.916   5.715  0.0282 -1.1324 -1.0699
 8392SOL    HW226723   2.956   5.004   5.729 -0.1572 -0.8683 -1.0949
 8393SOL     OW26724   2.581   0.255   4.858  0.1947  0.5902  0.0749
 8393SOL    HW126725   2.589   0.276   4.951 -0.4230 -2.3282  0.8688
 8393SOL    HW226726   2.491   0.277   4.835  0.2024  0.8420  0.2845
 8394SOL     OW26727   2.657   1.728   2.803 -0.2644  0.6326  0.0235
 8394SOL    HW126728   2.650   1.683   2.718 -1.0553 -1.2336  1.0151
 8394SOL    HW226729   2.587   1.793   2.802 -0.5409  0.3363 -0.6051
 8395SOL     OW26730   2.938   5.306   5.254 -0.4994 -0.2549 -0.4606
 8395SOL    HW126731   2.979   5.276   5.335 -0.3211 -2.7888 -1.4081
 8395SOL    HW226732   2.865   5.246   5.240 -1.7509  1.3761 -1.1859
 8396SOL     OW26733   2.259   5.125   6.363 -0.3785 -0.8284  0.2889
 8396SOL    HW126734   2.264   5.034   6.333 -1.6387 -1.4630  1.8604
 8396SOL    HW226735   2.166   5.140   6.381 -0.0913  0.5114  0.7837
 8397SOL     OW26736   3.101   6.767   3.505  0.0817 -0.7423 -0.5390
 8397SOL    HW126737   3.085   6.857   3.532 -2.6069 -1.0659 -0.6943
 8397SOL    HW226738   3.184   6.769   3.458 -0.8368  2.0464 -2.2447
 8398SOL     OW26739   6.038   2.680   6.544  0.8783  0.6708  0.0571
 8398SOL    HW126740   5.991   2.704   6.624 -0.0181 -0.1287 -0.1994
 8398SOL    HW226741   6.006   2.741   6.478  0.3094  0.2316 -0.0794
 8399SOL     OW26742   6.671   1.552   1.006  0.2978 -0.4783 -0.1469
 8399SOL    HW126743   6.624   1.509   0.934  0.2294 -0.5167 -0.0797
 8399SOL    HW226744   6.750   1.499   1.018 -0.4566 -1.4035  0.8607
 8400SOL     OW26745   4.825   5.908   0.232 -0.3745 -0.6526 -0.9346
 8400SOL    HW126746   4.758   5.909   0.301 -0.5139 -0.2186 -1.0777
 8400SOL    HW226747   4.836   5.999   0.207  1.3823 -0.5090  0.1561
 8401SOL     OW26748   5.368   3.158   2.603  0.1820  0.3002  0.1485
 8401SOL    HW126749   5.429   3.084   2.600  0.9568  0.9138  0.3423
 8401SOL    HW226750   5.408   3.224   2.545 -0.4102  0.6346  0.1096
 8402SOL     OW26751   5.680   0.344   3.094  0.0696 -0.4010  0.1881
 8402SOL    HW126752   5.751   0.299   3.139 -0.6077 -1.5215  0.1577
 8402SOL    HW226753   5.689   0.317   3.002  0.9788  1.2722 -0.2738
 8403SOL     OW26754   0.975   2.561   5.292 -0.0970 -0.2088 -0.1434
 8403SOL    HW126755   1.065   2.588   5.276 -0.2420 -0.1325 -0.8331
 8403SOL    HW226756   0.932   2.641   5.323  0.2886 -0.4616  1.1150
 8404SOL     OW26757   0.839   3.008   0.376 -0.7233 -0.0213 -0.2941
 8404SOL    HW126758   0.790   2.942   0.327 -0.8561  0.7674 -1.2613
 8404SOL    HW226759   0.785   3.087   0.370 -0.9062  0.0067  1.4456
 8405SOL     OW26760   4.901   2.992   3.571  0.1917  0.1575 -0.9493
 8405SOL    HW126761   4.898   3.087   3.578 -0.5138  0.0818 -0.0602
 8405SOL    HW226762   4.810   2.964   3.583  0.6035 -0.7227  0.2923
 8406SOL     OW26763   4.687   3.059   4.824 -0.4881 -0.0984 -0.2006
 8406SOL    HW126764   4.669   3.109   4.745 -0.9069  2.0655  1.1690
 8406SOL    HW226765   4.730   3.121   4.883  0.5448 -1.8457  1.0084
 8407SOL     OW26766   5.316   6.037   1.705 -0.1518 -0.5438  0.3012
 8407SOL    HW126767   5.368   6.086   1.768 -0.6664  0.0899  0.2410
 8407SOL    HW226768   5.354   5.949   1.705  1.0244 -0.0434  0.1163
 8408SOL     OW26769   3.175   0.438   3.067  0.1284 -0.4393  0.4149
 8408SOL    HW126770   3.208   0.375   3.132  0.9873  0.9207  1.3572
 8408SOL    HW226771   3.095   0.473   3.106 -0.3156 -0.8856 -0.0817
 8409SOL     OW26772   6.603   4.592   1.297 -0.0725  0.1951 -0.6485
 8409SOL    HW126773   6.611   4.686   1.279  1.3965  0.3226  0.5503
 8409SOL    HW226774   6.643   4.550   1.221  2.1927  0.6407  0.2242
 8410SOL     OW26775   1.909   2.565   1.845  0.2212  1.1026 -0.4876
 8410SOL    HW126776   1.829   2.530   1.807  0.7420  2.1575 -2.7989
 8410SOL    HW226777   1.886   2.654   1.873  0.4095  1.1747 -0.5560
 8411SOL     OW26778   3.355   0.247   4.353 -0.4399  0.2123  0.2290
 8411SOL    HW126779   3.267   0.225   4.385 -0.2203  2.4543  2.7757
 8411SOL    HW226780   3.342   0.325   4.299 -0.1005  0.0311 -0.1192
 8412SOL     OW26781   3.211   1.197   0.704 -0.3599 -0.2846 -0.0475
 8412SOL    HW126782   3.159   1.131   0.750  2.7216 -1.2564  2.4389
 8412SOL    HW226783   3.290   1.150   0.677  0.3245  1.5984 -1.5775
 8413SOL     OW26784   4.797   4.347   6.152  0.1583 -0.2173  0.1941
 8413SOL    HW126785   4.732   4.280   6.131  0.8976 -1.1139  0.6863
 8413SOL    HW226786   4.881   4.302   6.143  0.7283  0.9744 -0.6118
 8414SOL     OW26787   4.219   6.100   3.777  0.9571 -0.0626 -0.0385
 8414SOL    HW126788   4.248   6.066   3.693 -0.3632 -0.0426 -0.5145
 8414SOL    HW226789   4.231   6.027   3.838 -1.1272 -1.1731 -0.8948
 8415SOL     OW26790   4.823   4.421   4.210 -0.6987 -0.6830 -0.2936
 8415SOL    HW126791   4.761   4.473   4.160 -0.5094 -0.5605 -0.3979
 8415SOL    HW226792   4.840   4.473   4.289 -0.8192 -0.7715 -0.2088
 8416SOL     OW26793   3.301   5.004   0.686  0.1866  0.5665  0.0477
 8416SOL    HW126794   3.208   5.004   0.660  0.3089 -0.8510 -0.4578
 8416SOL    HW226795   3.302   4.964   0.773  0.1834  1.9918  0.7366
 8417SOL     OW26796   1.627   3.875   2.715  0.2180  0.2811  0.1279
 8417SOL    HW126797   1.626   3.805   2.649 -0.0803  1.4288 -1.1316
 8417SOL    HW226798   1.720   3.887   2.735  0.2892 -0.3017  0.1655
 8418SOL     OW26799   2.567   2.521   2.480 -0.1162 -0.5664 -0.5270
 8418SOL    HW126800   2.561   2.617   2.477 -1.5572 -0.5485  1.2783
 8418SOL    HW226801   2.626   2.503   2.553  1.3785 -1.0761 -1.8199
 8419SOL     OW26802   6.223   5.796   2.999  0.3839 -0.3852  0.0625
 8419SOL    HW126803   6.182   5.818   3.083 -2.6273 -0.3418 -1.2742
 8419SOL    HW226804   6.242   5.702   3.006  0.7804 -0.2438  1.0104
 8420SOL     OW26805   2.100   1.271   6.034 -0.0393  0.0079 -0.0542
 8420SOL    HW126806   2.052   1.350   6.059  0.5735  0.6892 -0.9486
 8420SOL    HW226807   2.178   1.271   6.089 -0.8502 -0.9099  1.1484
 8421SOL     OW26808   1.769   4.238   3.314 -0.7703 -0.4214 -0.1008
 8421SOL    HW126809   1.720   4.156   3.323 -0.6917 -0.3592  1.0395
 8421SOL    HW226810   1.860   4.214   3.333 -0.4351 -0.4147 -1.5862
 8422SOL     OW26811   3.525   5.296   0.319 -0.6853  0.2332 -0.5672
 8422SOL    HW126812   3.476   5.214   0.314 -0.7422  0.2090  0.2733
 8422SOL    HW226813   3.529   5.316   0.412 -0.1084  0.8522 -0.7164
 8423SOL     OW26814   1.383   5.366   6.300 -0.4047  0.7734  0.6967
 8423SOL    HW126815   1.339   5.402   6.377  0.5594  1.2750  1.0311
 8423SOL    HW226816   1.443   5.300   6.334 -0.9813 -0.0128  0.2311
 8424SOL     OW26817   0.158   3.458   0.684 -0.2231 -0.4368 -0.0090
 8424SOL    HW126818   0.117   3.480   0.767 -0.4894  0.0981 -0.2812
 8424SOL    HW226819   0.090   3.412   0.634 -0.3536  0.0473 -0.2822
 8425SOL     OW26820   3.252   2.646   4.879  0.7825 -0.0261 -0.6125
 8425SOL    HW126821   3.177   2.614   4.829 -0.1858  0.4451  0.4921
 8425SOL    HW226822   3.300   2.703   4.818 -0.0914  0.1393 -1.1553
 8426SOL     OW26823   4.677   2.489   2.025  0.2767  0.2431 -0.2857
 8426SOL    HW126824   4.671   2.417   2.088  1.0992 -0.5127 -1.0547
 8426SOL    HW226825   4.739   2.459   1.959 -1.7949  0.3176 -2.4094
 8427SOL     OW26826   3.549   1.348   4.724 -0.0940 -0.2603 -0.7711
 8427SOL    HW126827   3.457   1.368   4.707  0.2412  2.4140  0.0603
 8427SOL    HW226828   3.594   1.368   4.642  0.0195  0.7967 -0.4629
 8428SOL     OW26829   6.365   3.666   3.964  0.5025  0.3788 -0.3295
 8428SOL    HW126830   6.282   3.697   4.001  0.3367  1.0274 -1.2129
 8428SOL    HW226831   6.355   3.571   3.962 -0.1831  0.4400 -0.3129
 8429SOL     OW26832   1.735   2.179   1.018  0.2439  0.6135 -1.0108
 8429SOL    HW126833   1.799   2.118   1.056 -0.1401  0.1750 -1.0584
 8429SOL    HW226834   1.705   2.135   0.938  0.4933  1.1934 -1.4273
 8430SOL     OW26835   2.046   1.857   6.379  0.1408  0.4153 -0.2078
 8430SOL    HW126836   2.057   1.800   6.302  1.8398 -0.8134  0.8883
 8430SOL    HW226837   1.974   1.817   6.428  0.7378 -0.2874  0.1077
 8431SOL     OW26838   5.782   3.442   2.839  0.3318 -0.3653  0.1395
 8431SOL    HW126839   5.809   3.434   2.747 -0.3355 -0.1368 -0.0872
 8431SOL    HW226840   5.693   3.476   2.834  0.7450  0.9081  0.8995
 8432SOL     OW26841   1.244   1.981   2.846 -0.7349  0.1971  0.6260
 8432SOL    HW126842   1.335   1.980   2.816 -1.2721 -0.0983 -1.0916
 8432SOL    HW226843   1.229   2.071   2.873 -1.0383  1.3303 -2.8597
 8433SOL     OW26844   2.997   5.521   5.101  0.5494 -0.2093 -0.1733
 8433SOL    HW126845   2.975   5.434   5.135 -4.4907 -0.1087 -2.2434
 8433SOL    HW226846   3.064   5.504   5.034  2.0757 -1.9148  1.6583
 8434SOL     OW26847   2.727   1.436   6.210  0.7075  0.5834 -0.0355
 8434SOL    HW126848   2.727   1.532   6.209  0.2614  0.6014 -2.3380
 8434SOL    HW226849   2.634   1.412   6.213  0.7396  0.2589 -1.2744
 8435SOL     OW26850   6.259   1.350   5.578  0.1851 -0.1865  0.5501
 8435SOL    HW126851   6.223   1.267   5.608  0.2894 -0.9541 -1.3128
 8435SOL    HW226852   6.287   1.395   5.658  0.8973 -2.2914  1.5457
 8436SOL     OW26853   2.247   0.868   3.948 -0.2918 -0.6891 -0.0834
 8436SOL    HW126854   2.288   0.787   3.917  1.2618  0.2577 -0.6580
 8436SOL    HW226855   2.263   0.868   4.043 -0.0053 -0.9208 -0.1285
 8437SOL     OW26856   6.142   3.394   3.551  0.0399 -0.1792  0.5714
 8437SOL    HW126857   6.163   3.441   3.470  0.9602 -1.3014  0.1426
 8437SOL    HW226858   6.047   3.406   3.561  0.0045  0.4420 -0.3562
 8438SOL     OW26859   0.555   1.491   0.672  0.0988 -0.5065  0.0492
 8438SOL    HW126860   0.589   1.462   0.756  0.3193 -0.2681  0.0425
 8438SOL    HW226861   0.598   1.435   0.608 -0.0441 -0.6657  0.0904
 8439SOL     OW26862   4.791   5.135   0.239  0.5465 -0.0704  0.3565
 8439SOL    HW126863   4.706   5.151   0.198 -0.2257  0.3385  1.9983
 8439SOL    HW226864   4.781   5.170   0.328  1.5014 -2.4594  1.4973
 8440SOL     OW26865   6.370   5.669   2.474 -0.0879 -0.1347  0.3284
 8440SOL    HW126866   6.302   5.729   2.445  0.2688  0.9993  1.6997
 8440SOL    HW226867   6.339   5.583   2.448 -0.3024  0.6583 -2.3073
 8441SOL     OW26868   5.445   4.972   6.480  0.1237 -0.5620 -0.4280
 8441SOL    HW126869   5.354   5.003   6.470 -0.4906 -2.2656 -0.4986
 8441SOL    HW226870   5.497   5.038   6.434 -0.9448  1.0540  0.5626
 8442SOL     OW26871   6.164   0.266   2.186 -0.3316  0.2322  0.2459
 8442SOL    HW126872   6.101   0.212   2.235  1.1073 -1.4745  0.3306
 8442SOL    HW226873   6.161   0.231   2.097 -1.1407  1.6800 -0.3198
 8443SOL     OW26874   2.618   6.105   2.844  0.8225 -0.4858 -0.2441
 8443SOL    HW126875   2.605   6.188   2.798  0.6744  0.4572  1.4228
 8443SOL    HW226876   2.547   6.049   2.815 -0.4943  0.8054  0.3713
 8444SOL     OW26877   2.139   3.542   4.405  0.2754  0.3622 -0.1647
 8444SOL    HW126878   2.157   3.628   4.444  1.2760  0.1104 -0.0459
 8444SOL    HW226879   2.152   3.480   4.476  0.9710 -0.0028 -0.5939
 8445SOL     OW26880   4.708   0.191   0.458 -0.3023  0.5239 -0.3497
 8445SOL    HW126881   4.685   0.275   0.499 -0.4090  0.6483 -0.6566
 8445SOL    HW226882   4.669   0.125   0.515  3.0614  0.4428  2.1267
 8446SOL     OW26883   6.049   0.409   6.256  0.1279  0.0919 -0.1784
 8446SOL    HW126884   5.993   0.346   6.303 -1.4504  1.3140 -0.3209
 8446SOL    HW226885   6.127   0.359   6.232 -0.2032 -1.2737  1.4070
 8447SOL     OW26886   6.291   1.043   4.589 -0.2987  0.4205 -0.3254
 8447SOL    HW126887   6.305   1.054   4.683 -1.5732 -2.9594  0.3855
 8447SOL    HW226888   6.371   1.078   4.550  0.7875  0.8742  2.0745
 8448SOL     OW26889   0.977   2.657   1.993 -0.0127 -0.3091  0.1763
 8448SOL    HW126890   0.936   2.648   1.907  0.0132 -2.1214  0.3247
 8448SOL    HW226891   1.011   2.570   2.013  0.9566  0.3390  1.5510
 8449SOL     OW26892   5.696   2.704   5.241  0.3234 -0.1721  0.5210
 8449SOL    HW126893   5.681   2.653   5.320 -0.8729  0.4238  0.7133
 8449SOL    HW226894   5.746   2.780   5.270  1.2608 -0.7312  0.4066
 8450SOL     OW26895   0.673   2.222   4.795  0.3470 -0.4133 -0.2501
 8450SOL    HW126896   0.588   2.228   4.839  0.5822 -0.1084  0.1709
 8450SOL    HW226897   0.666   2.143   4.742 -0.6100  0.2182 -1.1060
 8451SOL     OW26898   0.215   3.931   1.718 -0.0556  0.7006  0.3274
 8451SOL    HW126899   0.224   3.880   1.798  0.5799 -0.4086 -0.4365
 8451SOL    HW226900   0.143   3.992   1.737 -0.2281  0.1480  1.5599
 8452SOL     OW26901   4.679   0.239   0.040 -0.1949 -0.6061  0.2846
 8452SOL    HW126902   4.751   0.187   0.074  0.1704 -0.9575 -0.9714
 8452SOL    HW226903   4.637   0.183  -0.025  0.3532  0.7219 -1.2745
 8453SOL     OW26904   3.650   6.523   1.795  0.9388  0.3033  0.3676
 8453SOL    HW126905   3.717   6.484   1.852  1.9755  0.0294 -0.9754
 8453SOL    HW226906   3.700   6.571   1.729 -0.2132  0.5024 -0.3831
 8454SOL     OW26907   4.161   4.941   0.111 -0.0922  0.0248  0.2479
 8454SOL    HW126908   4.142   4.857   0.068 -0.6093  0.7765 -1.0604
 8454SOL    HW226909   4.085   4.995   0.090 -1.2359 -0.0796  3.6399
 8455SOL     OW26910   1.729   3.470   3.443 -0.5851  0.1685 -0.3440
 8455SOL    HW126911   1.824   3.475   3.430 -0.5294 -0.8065 -0.3905
 8455SOL    HW226912   1.719   3.439   3.533 -0.8891  1.5234  0.1029
 8456SOL     OW26913   3.108   5.510   2.559  0.3552  0.6574 -0.0724
 8456SOL    HW126914   3.136   5.455   2.486  0.4443  0.8557 -0.1881
 8456SOL    HW226915   3.056   5.451   2.614 -0.6472  0.7800 -0.8555
 8457SOL     OW26916   0.410   2.013   2.119 -0.3054 -0.3330  0.1208
 8457SOL    HW126917   0.486   2.068   2.098  0.5487 -1.0078  1.3556
 8457SOL    HW226918   0.419   1.937   2.061 -1.8366  1.0230 -2.0602
 8458SOL     OW26919   6.097   0.019   2.722 -0.1222 -0.0261 -0.0132
 8458SOL    HW126920   6.127  -0.018   2.639 -0.5348  0.6792 -0.4858
 8458SOL    HW226921   6.144  -0.031   2.788 -0.2581 -1.0189 -0.6477
 8459SOL     OW26922   0.608   2.141   3.298 -0.0844 -0.1068 -0.1490
 8459SOL    HW126923   0.666   2.066   3.315 -1.4223 -0.9650  0.8833
 8459SOL    HW226924   0.601   2.185   3.383 -1.9845 -0.8220  0.1181
 8460SOL     OW26925   1.134   0.091   5.040 -0.5431 -0.1431  0.0313
 8460SOL    HW126926   1.062   0.049   5.088 -1.9981  1.5677 -0.5710
 8460SOL    HW226927   1.150   0.033   4.966 -0.7299 -0.9594  0.6149
 8461SOL     OW26928   2.656   0.856   3.230 -0.0598  0.4949 -0.8354
 8461SOL    HW126929   2.647   0.843   3.324 -1.4438  0.6070 -0.9362
 8461SOL    HW226930   2.676   0.769   3.195 -2.7202 -0.2213 -0.7656
 8462SOL     OW26931   2.881   6.459   2.611  0.1843 -0.3182  0.6889
 8462SOL    HW126932   2.881   6.443   2.705 -1.5598 -1.5485  0.5181
 8462SOL    HW226933   2.971   6.440   2.584  0.9892  1.0640  2.2179
 8463SOL     OW26934   5.944   1.791   3.533 -0.6822 -0.0368  0.4246
 8463SOL    HW126935   5.869   1.836   3.494  1.1922  3.3257  0.2876
 8463SOL    HW226936   6.019   1.822   3.482  1.0822 -1.2219  2.1668
 8464SOL     OW26937   3.731   2.842   4.761 -0.4534  0.3554 -0.0546
 8464SOL    HW126938   3.771   2.853   4.847 -0.2894 -0.4477 -0.0211
 8464SOL    HW226939   3.716   2.748   4.753  1.3233  0.1622 -1.6947
 8465SOL     OW26940   3.166   4.015   4.688 -0.7182  0.4426  0.4796
 8465SOL    HW126941   3.227   4.008   4.615  1.9920  0.3813  2.5868
 8465SOL    HW226942   3.156   4.110   4.702 -1.8539  0.4779 -0.3508
 8466SOL     OW26943   0.738   0.840   0.036  0.0800 -0.0207 -0.1990
 8466SOL    HW126944   0.648   0.810   0.046 -0.3450  0.4239 -2.2602
 8466SOL    HW226945   0.752   0.844  -0.058  2.2724 -0.0592  0.0687
 8467SOL     OW26946   3.280   5.138   1.358 -0.0417 -0.4002 -0.0552
 8467SOL    HW126947   3.261   5.045   1.369 -0.8361 -0.1232  1.1599
 8467SOL    HW226948   3.365   5.140   1.313  1.0331 -1.7299  1.7480
 8468SOL     OW26949   5.267   2.517   4.989 -0.1467 -0.1041  0.1214
 8468SOL    HW126950   5.349   2.477   4.961 -0.6303  0.0478 -1.6439
 8468SOL    HW226951   5.199   2.457   4.960 -0.7943  1.1434 -1.0510
 8469SOL     OW26952   0.489   5.169   2.642 -0.2578 -0.0407 -0.2911
 8469SOL    HW126953   0.452   5.145   2.727 -2.0610  1.1247 -0.6917
 8469SOL    HW226954   0.575   5.204   2.663  0.1050 -1.5129  0.8439
 8470SOL     OW26955   0.379   3.144   3.039 -0.1410 -0.2565  0.8292
 8470SOL    HW126956   0.364   3.098   3.122 -0.6400  2.7986  2.5751
 8470SOL    HW226957   0.293   3.153   3.000  0.0312 -1.2408  0.1822
 8471SOL     OW26958   1.730   2.394   1.194  0.3031  0.1461 -0.9189
 8471SOL    HW126959   1.768   2.460   1.135 -1.1471 -1.0623 -3.3184
 8471SOL    HW226960   1.729   2.314   1.143 -1.3645 -0.8937  0.6569
 8472SOL     OW26961   0.348   5.338   3.241 -0.0598 -0.4945  0.1870
 8472SOL    HW126962   0.292   5.275   3.287 -0.1349 -0.4166  0.2008
 8472SOL    HW226963   0.309   5.423   3.259  0.3396 -0.3908  0.6070
 8473SOL     OW26964   6.340   2.358   6.583  0.4188 -0.4494  0.1238
 8473SOL    HW126965   6.339   2.454   6.577  3.0436 -0.4214 -0.7696
 8473SOL    HW226966   6.304   2.329   6.499 -0.0861 -0.2758  0.2715
 8474SOL     OW26967   0.644   4.178   6.483  0.3473 -0.6547  0.0395
 8474SOL    HW126968   0.613   4.098   6.526  1.4552 -2.4846 -2.3464
 8474SOL    HW226969   0.731   4.194   6.521 -0.3489  0.1722  1.3681
 8475SOL     OW26970   2.898   0.524   4.859 -0.1487  0.1075 -0.0109
 8475SOL    HW126971   2.888   0.436   4.895  2.3994  0.1587  1.0794
 8475SOL    HW226972   2.989   0.527   4.829 -1.1299  1.3327 -3.1741
 8476SOL     OW26973   1.191   0.095   2.629  0.3077  0.5483  0.0154
 8476SOL    HW126974   1.190   0.053   2.544  0.7981 -0.6635  0.5889
 8476SOL    HW226975   1.231   0.031   2.688 -3.2951 -0.2127  1.9555
 8477SOL     OW26976   0.874   5.036   1.174  0.1941  0.0674  0.2132
 8477SOL    HW126977   0.790   4.995   1.193  0.7052 -0.7860  0.6660
 8477SOL    HW226978   0.867   5.064   1.083  0.0745 -1.6091 -0.3135
 8478SOL     OW26979   5.146   3.322   0.138  0.6916  0.0491  0.0306
 8478SOL    HW126980   5.071   3.277   0.100 -0.9873  1.3201  1.6211
 8478SOL    HW226981   5.163   3.396   0.080 -0.8599  1.1053  0.8644
 8479SOL     OW26982   4.448   2.748   2.476 -0.2383  0.6892 -0.0504
 8479SOL    HW126983   4.537   2.711   2.480 -0.5002  0.1059  0.8218
 8479SOL    HW226984   4.427   2.749   2.383  0.3067 -0.1034 -0.1975
 8480SOL     OW26985   3.035   6.077   5.858 -0.2494  0.1872  0.3287
 8480SOL    HW126986   3.023   6.084   5.953 -3.3732 -1.3991  0.1999
 8480SOL    HW226987   2.966   6.133   5.821 -0.2519 -0.6328 -0.9825
 8481SOL     OW26988   5.534   1.059   3.970 -0.6592  0.2142  0.1823
 8481SOL    HW126989   5.615   1.075   3.920 -0.6941 -1.6799 -0.5728
 8481SOL    HW226990   5.552   1.096   4.056  0.5007  1.0295 -0.3680
 8482SOL     OW26991   2.233   1.736   2.029 -0.1088  0.5573 -0.5695
 8482SOL    HW126992   2.210   1.813   2.081  0.0997  0.7793 -0.8018
 8482SOL    HW226993   2.149   1.695   2.010 -0.1826  0.4711 -0.0536
 8483SOL     OW26994   0.044   5.319   4.239 -0.3751 -0.3665  0.2383
 8483SOL    HW126995   0.019   5.371   4.316 -2.5493  0.4474 -0.9283
 8483SOL    HW226996   0.026   5.229   4.263 -1.7558 -0.0484  0.4646
 8484SOL     OW26997   6.261   4.009   3.912 -0.3165 -0.4321 -0.0472
 8484SOL    HW126998   6.199   4.049   3.852 -1.0620  0.8562  1.4938
 8484SOL    HW226999   6.212   4.000   3.994  1.0919 -0.7646  0.7850
 8485SOL     OW27000   4.902   4.845   4.840 -0.1560 -0.2586  0.9753
 8485SOL    HW127001   4.944   4.783   4.781  2.6330  3.6394 -1.6244
 8485SOL    HW227002   4.811   4.847   4.812 -0.6561 -3.7012  1.8808
 8486SOL     OW27003   4.975   0.462   1.828 -0.0689  0.9459  0.0040
 8486SOL    HW127004   4.971   0.519   1.751 -1.2898  2.5498  1.2040
 8486SOL    HW227005   5.030   0.509   1.890  1.2173 -0.5144  0.0239
 8487SOL     OW27006   3.779   3.171   0.032  0.4207  0.0724 -0.2585
 8487SOL    HW127007   3.829   3.249   0.010  0.2773 -0.2115 -1.7085
 8487SOL    HW227008   3.828   3.099  -0.007  0.2135 -0.4978  0.5060
 8488SOL     OW27009   4.104   0.337   3.966  0.4214  0.3235  0.1755
 8488SOL    HW127010   4.079   0.299   4.049  2.7786 -0.3815  0.6414
 8488SOL    HW227011   4.178   0.394   3.987  0.1129  1.3103 -1.2410
 8489SOL     OW27012   1.979   4.482   6.264 -0.0522  0.1444 -0.0184
 8489SOL    HW127013   1.888   4.496   6.288  0.1370  1.2171  0.1040
 8489SOL    HW227014   2.009   4.415   6.325 -0.7302 -0.1494  0.0024
 8490SOL     OW27015   0.576   1.255   4.150 -0.2641  0.2603  0.4515
 8490SOL    HW127016   0.484   1.276   4.133 -0.2262 -1.3608 -2.2423
 8490SOL    HW227017   0.626   1.319   4.100 -0.0273 -0.9736 -0.9466
 8491SOL     OW27018   1.065   5.793   3.699  0.1513 -0.1732 -0.5346
 8491SOL    HW127019   1.067   5.806   3.793  0.3038  0.5975 -0.6330
 8491SOL    HW227020   1.149   5.828   3.669  0.6662 -1.5883 -0.8233
 8492SOL     OW27021   6.524   5.235   4.015  0.5731  0.0920  0.5937
 8492SOL    HW127022   6.589   5.302   3.996  0.1933  0.3837  0.3158
 8492SOL    HW227023   6.550   5.160   3.961  1.1526 -0.0830  1.1102
 8493SOL     OW27024   6.413   2.948   1.148  0.0661 -0.1842 -0.6879
 8493SOL    HW127025   6.328   2.987   1.127 -1.2691 -2.3428  0.4364
 8493SOL    HW227026   6.475   2.993   1.090 -1.5767  2.4104 -0.5862
 8494SOL     OW27027   0.964   5.034   5.908 -0.5145  0.1854  0.2710
 8494SOL    HW127028   1.050   5.037   5.865 -0.0965 -0.6363  1.0178
 8494SOL    HW227029   0.966   5.107   5.969  0.2270 -0.6623  1.2985
 8495SOL     OW27030   5.623   2.834   4.796  0.2129  0.2517  0.3320
 8495SOL    HW127031   5.609   2.803   4.706  1.3383 -0.8382  0.4999
 8495SOL    HW227032   5.539   2.818   4.840 -0.4939  1.1964 -0.5997
 8496SOL     OW27033   0.777   3.113   0.063 -0.2007 -0.1701 -0.1894
 8496SOL    HW127034   0.827   3.133  -0.016 -0.1974  0.2413 -0.0839
 8496SOL    HW227035   0.841   3.071   0.121  0.3936  1.5718  0.4766
 8497SOL     OW27036   5.023   6.229   1.786 -0.0373  0.6076 -0.3963
 8497SOL    HW127037   5.112   6.248   1.815 -0.3080  1.2721  0.0198
 8497SOL    HW227038   4.988   6.314   1.760 -1.0531  0.6029  0.8512
 8498SOL     OW27039   5.046   1.173   2.896 -0.4453  0.4841  0.0235
 8498SOL    HW127040   5.119   1.196   2.954 -0.1316 -0.7610  0.1625
 8498SOL    HW227041   5.032   1.251   2.843  0.5354  0.9890  0.4674
 8499SOL     OW27042   0.587   3.951   6.626 -0.7248 -0.1292  0.1021
 8499SOL    HW127043   0.507   3.938   6.575  0.4075 -0.2676 -1.7072
 8499SOL    HW227044   0.653   3.897   6.583  0.3946  0.0568  1.4937
 8500SOL     OW27045   5.649   6.729   0.511  0.4230 -0.4607 -0.1090
 8500SOL    HW127046   5.706   6.716   0.436  0.5429 -0.3034 -0.0460
 8500SOL    HW227047   5.569   6.766   0.474 -0.2610 -2.1482 -0.4002
 8501SOL     OW27048   4.006   2.746   1.199  0.1519  0.0709  0.2116
 8501SOL    HW127049   4.096   2.713   1.195 -0.2987 -1.0573 -1.6067
 8501SOL    HW227050   3.977   2.748   1.108 -1.1713  1.8931  0.6088
 8502SOL     OW27051   4.398   6.016   0.937  0.0602  0.4726 -0.4037
 8502SOL    HW127052   4.465   6.051   0.879  0.4632 -0.8995 -0.8137
 8502SOL    HW227053   4.446   5.993   1.017 -0.5615  2.7697  0.7283
 8503SOL     OW27054   0.375   4.828   5.625 -0.0357  0.2675  0.1489
 8503SOL    HW127055   0.321   4.749   5.628  3.0298 -2.0113 -0.1869
 8503SOL    HW227056   0.404   4.841   5.715 -0.5877  1.0955  0.2172
 8504SOL     OW27057   1.810   4.285   0.667 -0.1440  0.2063 -0.4961
 8504SOL    HW127058   1.877   4.301   0.734 -0.9300  3.1466 -0.2659
 8504SOL    HW227059   1.760   4.211   0.700  0.0739  0.9829  1.7401
 8505SOL     OW27060   1.543   4.610   4.287 -0.3490  0.0593  0.3056
 8505SOL    HW127061   1.529   4.653   4.202  0.2295  0.4034  0.3822
 8505SOL    HW227062   1.560   4.518   4.264 -2.1896 -0.2839  0.1772
 8506SOL     OW27063   4.931   4.971   3.420 -0.3566  0.4100 -0.2665
 8506SOL    HW127064   4.881   5.050   3.437 -0.4866  0.1450  0.6635
 8506SOL    HW227065   4.987   4.992   3.346 -1.1476  1.0251 -0.6961
 8507SOL     OW27066   3.535   5.724   3.035 -0.0137 -0.6294 -0.2467
 8507SOL    HW127067   3.618   5.760   3.068  0.4511 -3.4976  2.1352
 8507SOL    HW227068   3.561   5.666   2.964 -0.0332 -1.0765  0.1090
 8508SOL     OW27069   5.789   3.461   2.573 -0.4309 -0.5858  0.1022
 8508SOL    HW127070   5.817   3.552   2.558  0.2556 -0.6754  0.7641
 8508SOL    HW227071   5.859   3.409   2.534 -0.5183 -0.8276  0.2706
 8509SOL     OW27072   3.592   4.942   2.415  0.3322 -0.5301 -0.0469
 8509SOL    HW127073   3.536   5.011   2.379  1.0767 -0.5915 -1.3850
 8509SOL    HW227074   3.670   4.945   2.360  0.8833 -1.6336  0.6662
 8510SOL     OW27075   4.147   6.605   2.898  0.2018 -0.6311 -0.4768
 8510SOL    HW127076   4.187   6.653   2.826 -0.1055  1.4362  0.6313
 8510SOL    HW227077   4.099   6.533   2.857  1.9175 -0.9082 -2.1082
 8511SOL     OW27078   5.210   3.718   5.847  0.1736  0.0983 -0.2208
 8511SOL    HW127079   5.176   3.681   5.766 -0.0195 -0.0830 -0.0573
 8511SOL    HW227080   5.143   3.781   5.874  0.5476  0.6462 -0.5521
 8512SOL     OW27081   3.120   2.116   1.955  0.3056  0.3804 -0.7931
 8512SOL    HW127082   3.203   2.096   1.998  0.6930  1.3272 -1.0754
 8512SOL    HW227083   3.124   2.210   1.937  0.0088  0.0719 -2.5944
 8513SOL     OW27084   1.160   0.572   0.349  0.2440  0.3590 -0.1604
 8513SOL    HW127085   1.168   0.659   0.309 -1.4449 -0.1625 -1.7543
 8513SOL    HW227086   1.094   0.583   0.417  0.3443  0.4047 -0.0694
 8514SOL     OW27087   2.935   1.842   1.455 -0.9052 -0.0879  0.1173
 8514SOL    HW127088   2.840   1.834   1.447 -1.0661  0.1630  1.5143
 8514SOL    HW227089   2.956   1.802   1.539  0.0737  0.9298  0.3912
 8515SOL     OW27090   0.523   4.573   3.120 -0.4027  0.1732 -0.9048
 8515SOL    HW127091   0.498   4.644   3.179  0.3133 -0.4555  0.1955
 8515SOL    HW227092   0.554   4.503   3.178 -0.0238 -0.6142 -2.0134
 8516SOL     OW27093   1.824   4.256   3.023  1.2769  1.1278 -0.1037
 8516SOL    HW127094   1.808   4.220   3.111  1.1990 -2.2778 -1.3761
 8516SOL    HW227095   1.892   4.200   2.986  3.3895  4.2432 -1.3138
 8517SOL     OW27096   2.889   2.112   3.238  0.0802 -0.3909 -0.3104
 8517SOL    HW127097   2.898   2.197   3.194 -0.1133 -0.1576  0.0971
 8517SOL    HW227098   2.912   2.048   3.171 -1.3490 -0.0979 -1.1019
 8518SOL     OW27099   3.303   3.700   0.397 -0.1150 -0.2567  0.8296
 8518SOL    HW127100   3.318   3.623   0.452 -0.3752  0.8472  2.5282
 8518SOL    HW227101   3.264   3.764   0.456 -1.7249  0.5408 -1.0040
 8519SOL     OW27102   2.464   2.042   5.341  0.5324  0.3606 -0.2290
 8519SOL    HW127103   2.413   1.993   5.277 -1.0340 -1.6378  2.3194
 8519SOL    HW227104   2.552   2.006   5.334  0.5397  0.5862 -1.5741
 8520SOL     OW27105   4.122   6.442   4.499 -0.6921  0.2055 -0.2080
 8520SOL    HW127106   4.083   6.474   4.418  1.5991 -0.3707 -1.6229
 8520SOL    HW227107   4.129   6.347   4.486  0.5757  0.2222  0.2427
 8521SOL     OW27108   4.639   1.118   5.965  0.3250 -0.6598  0.5340
 8521SOL    HW127109   4.679   1.145   6.047  2.4226 -3.0735  0.4322
 8521SOL    HW227110   4.584   1.043   5.988  0.6496 -1.1364 -0.1818
 8522SOL     OW27111   0.072   5.612   1.975  0.2883 -0.7762 -0.2428
 8522SOL    HW127112   0.054   5.519   1.989 -0.9483 -0.3525  1.2785
 8522SOL    HW227113   0.128   5.637   2.049 -1.2631  0.1560  0.6785
 8523SOL     OW27114   0.008   6.560   0.256 -0.3383  0.2673 -0.3251
 8523SOL    HW127115  -0.042   6.641   0.266  0.3241  0.4952  1.6355
 8523SOL    HW227116  -0.022   6.523   0.173 -2.9094  0.9387  0.2266
 8524SOL     OW27117   4.722   5.519   1.520  0.2895 -0.1956  0.3642
 8524SOL    HW127118   4.792   5.571   1.480  1.4509 -2.0808 -0.1782
 8524SOL    HW227119   4.717   5.440   1.466 -2.3486 -0.0970  0.3558
 8525SOL     OW27120   2.336   2.019   4.482 -0.2966 -0.0413  0.4757
 8525SOL    HW127121   2.422   2.051   4.509 -0.1102 -1.1875  1.3060
 8525SOL    HW227122   2.354   1.945   4.425 -0.7271  1.2260 -1.3765
 8526SOL     OW27123   0.367   5.937   5.260  0.1670  1.0386  0.2055
 8526SOL    HW127124   0.444   5.931   5.316 -0.4703 -0.4765  0.9376
 8526SOL    HW227125   0.292   5.935   5.319 -0.6076 -2.5319 -0.6618
 8527SOL     OW27126   0.584   1.619   2.249 -0.1534 -0.3009  0.2766
 8527SOL    HW127127   0.494   1.625   2.281 -0.4336 -2.4074  0.0034
 8527SOL    HW227128   0.577   1.573   2.165  1.1121  0.1439 -0.0885
 8528SOL     OW27129   0.997   1.139   6.505 -0.0153  0.5812 -0.5685
 8528SOL    HW127130   0.996   1.125   6.600  3.6676  1.3920 -0.2711
 8528SOL    HW227131   1.012   1.052   6.469 -0.4122  0.4184 -0.3505
 8529SOL     OW27132   6.503   1.111   5.316 -0.7282  0.1639  0.3896
 8529SOL    HW127133   6.570   1.177   5.297 -0.7262  0.0601  0.0273
 8529SOL    HW227134   6.509   1.097   5.410  0.2949 -0.4233  0.2436
 8530SOL     OW27135   4.439   5.136   2.186 -0.2110 -0.2534 -0.0341
 8530SOL    HW127136   4.430   5.231   2.190 -2.1931 -0.3853 -0.3941
 8530SOL    HW227137   4.456   5.117   2.094  0.2220 -0.2621  0.0435
 8531SOL     OW27138   0.358   0.925   2.992 -0.3287  0.3797 -0.3873
 8531SOL    HW127139   0.315   0.932   2.907  0.6795 -0.9080 -1.0470
 8531SOL    HW227140   0.304   0.863   3.042 -0.6632  0.7770 -0.2518
 8532SOL     OW27141   1.078   0.004   2.039 -0.1080  0.6676 -0.4703
 8532SOL    HW127142   1.062   0.092   2.003 -1.4238  0.5321 -0.2493
 8532SOL    HW227143   1.011  -0.051   1.998  0.5155 -0.1826 -0.3681
 8533SOL     OW27144   6.352   2.045   1.034 -0.3507  0.1465 -0.4102
 8533SOL    HW127145   6.305   2.003   0.962 -1.8901 -0.1920  0.7321
 8533SOL    HW227146   6.341   1.985   1.108  0.5900  0.8102  0.2866
 8534SOL     OW27147   5.088   6.348   3.060  0.0043 -0.9531  0.0009
 8534SOL    HW127148   5.061   6.279   2.999 -1.8231  0.4040 -0.7956
 8534SOL    HW227149   5.120   6.418   3.004  2.1924 -1.2278  0.8191
 8535SOL     OW27150   5.387   3.160   3.429 -0.7743 -0.2408 -0.2815
 8535SOL    HW127151   5.317   3.188   3.370 -0.6562 -2.6875 -1.7120
 8535SOL    HW227152   5.463   3.211   3.401 -1.3010  0.3712 -0.6377
 8536SOL     OW27153   2.109   6.542   4.071 -0.1714 -0.2357  0.5042
 8536SOL    HW127154   2.150   6.456   4.074 -1.2047 -0.9151 -2.0272
 8536SOL    HW227155   2.021   6.525   4.038 -1.6177  1.4749  3.1756
 8537SOL     OW27156   0.015   1.141   0.220 -0.3798  0.0100  0.4103
 8537SOL    HW127157   0.020   1.226   0.263 -1.1185  1.5058 -2.2684
 8537SOL    HW227158   0.105   1.108   0.220  0.1768  1.4738  0.2253
 8538SOL     OW27159   4.790   1.087   3.725 -0.1278  0.1625  0.2559
 8538SOL    HW127160   4.800   1.098   3.631  0.5403 -0.1124  0.2895
 8538SOL    HW227161   4.858   1.143   3.763 -0.0213 -0.1630  0.5529
 8539SOL     OW27162   4.786   3.114   6.287  0.4429 -0.2218 -0.0527
 8539SOL    HW127163   4.725   3.163   6.232  0.7956  0.3190  0.0321
 8539SOL    HW227164   4.834   3.059   6.226 -0.6275 -1.2037 -0.0431
 8540SOL     OW27165   5.313   4.268   2.639  0.0682 -0.7042  0.1366
 8540SOL    HW127166   5.226   4.280   2.677  0.5931  2.7294  0.5027
 8540SOL    HW227167   5.298   4.274   2.544 -0.1321 -0.5284  0.1793
 8541SOL     OW27168   4.203   2.158   3.406 -0.2698  0.3233 -0.5185
 8541SOL    HW127169   4.297   2.141   3.401  0.1640  2.0975  0.6228
 8541SOL    HW227170   4.192   2.247   3.374 -1.0321  1.3982  2.3396
 8542SOL     OW27171   5.386   0.123   1.335 -0.0026 -0.1362 -0.2549
 8542SOL    HW127172   5.354   0.099   1.421 -0.3283 -0.2659 -0.4127
 8542SOL    HW227173   5.438   0.202   1.350  0.2614 -0.3766  0.1149
 8543SOL     OW27174   0.102   5.791   1.491 -0.1192  0.4956 -0.1034
 8543SOL    HW127175   0.035   5.831   1.547  1.0235  0.9857  0.9592
 8543SOL    HW227176   0.177   5.780   1.548  1.8258  2.8973 -1.9775
 8544SOL     OW27177   2.023   3.891   3.668  0.1026  0.0806  0.0995
 8544SOL    HW127178   1.977   3.864   3.588  3.0861 -1.6778 -1.2242
 8544SOL    HW227179   1.966   3.863   3.739 -1.5095 -0.6643 -1.3893
 8545SOL     OW27180   0.199   0.360   0.784 -0.1566 -0.0079 -0.2029
 8545SOL    HW127181   0.212   0.303   0.708 -2.1501 -1.2502  0.2989
 8545SOL    HW227182   0.108   0.344   0.810  0.0979  1.3311  1.6875
 8546SOL     OW27183   4.123   5.600   2.265 -0.7470 -0.1694 -0.8683
 8546SOL    HW127184   4.145   5.666   2.199 -0.8483  1.4719  0.6787
 8546SOL    HW227185   4.030   5.582   2.250 -0.5164 -0.6528 -1.8490
 8547SOL     OW27186   4.741   6.690   0.923 -0.2797  0.1673 -0.5164
 8547SOL    HW127187   4.785   6.657   0.844  0.2772  0.5864 -0.3918
 8547SOL    HW227188   4.746   6.785   0.915  0.4824  0.2264  0.3875
 8548SOL     OW27189   1.090   5.863   1.895 -0.7489 -0.0087 -0.5556
 8548SOL    HW127190   1.122   5.936   1.947  0.9013 -0.8626 -0.3132
 8548SOL    HW227191   0.998   5.885   1.877 -0.4005  1.9252 -0.1908
 8549SOL     OW27192   0.896   2.046   6.031  0.1844 -0.2201 -0.6997
 8549SOL    HW127193   0.923   1.955   6.026  0.6438 -0.0389 -1.9555
 8549SOL    HW227194   0.818   2.052   5.976  0.3435  0.1957 -0.8904
 8550SOL     OW27195   3.483   3.195   0.475 -0.0144 -0.5029  0.0162
 8550SOL    HW127196   3.464   3.121   0.417  1.3902 -0.4968 -0.4908
 8550SOL    HW227197   3.578   3.196   0.483  0.0526  1.5725 -0.3994
 8551SOL     OW27198   3.332   4.068   0.529  0.2055  0.7300  0.2159
 8551SOL    HW127199   3.413   4.118   0.525  0.7770 -0.1799  0.1960
 8551SOL    HW227200   3.324   4.042   0.621 -0.3962  1.3437  0.3443
 8552SOL     OW27201   1.226   2.719   5.499  0.3701 -0.4123 -0.2661
 8552SOL    HW127202   1.261   2.808   5.505  0.6870 -0.5698  0.4304
 8552SOL    HW227203   1.201   2.709   5.408 -0.7268  0.7808 -0.1250
 8553SOL     OW27204   3.002   4.032   3.887  0.1920 -0.2338  0.6080
 8553SOL    HW127205   3.017   4.111   3.938  2.9098 -0.8663  0.9511
 8553SOL    HW227206   2.940   3.981   3.938  0.5114  0.4867  1.7451
 8554SOL     OW27207   2.728   2.027   2.655  0.1435 -0.8590 -0.2691
 8554SOL    HW127208   2.785   2.026   2.732 -1.0399 -1.6850  0.6331
 8554SOL    HW227209   2.657   2.086   2.678 -1.9357 -3.5292  0.6574
 8555SOL     OW27210   4.960   2.798   1.987 -0.2228  0.0066 -0.2955
 8555SOL    HW127211   4.872   2.793   2.025 -0.3794 -0.5755 -0.7223
 8555SOL    HW227212   4.991   2.707   1.987 -0.2486 -0.0216 -1.6134
 8556SOL     OW27213   5.746   4.443   5.887  0.0229 -0.7197 -0.7586
 8556SOL    HW127214   5.704   4.360   5.910  1.5212 -1.7744 -1.6984
 8556SOL    HW227215   5.824   4.447   5.942 -0.1633  0.2198 -0.5377
 8557SOL     OW27216   6.243   2.455   5.355  0.0553  0.1956 -0.4027
 8557SOL    HW127217   6.207   2.367   5.365  0.7256 -0.0262  0.1286
 8557SOL    HW227218   6.167   2.512   5.356 -0.4552 -0.4319 -1.5252
 8558SOL     OW27219   2.812   4.295   6.459  0.1468 -0.3461 -0.4137
 8558SOL    HW127220   2.743   4.262   6.401 -0.2642  1.2879 -0.8976
 8558SOL    HW227221   2.890   4.246   6.433 -0.5318 -1.2623 -0.7820
 8559SOL     OW27222   6.129   6.284   3.175  0.3394  0.3783  0.5088
 8559SOL    HW127223   6.207   6.229   3.191  0.7053  1.0153  0.9460
 8559SOL    HW227224   6.063   6.249   3.236  0.7151  0.7109  1.1158
 8560SOL     OW27225   4.649   1.518   0.985  0.1009  0.2416 -0.1914
 8560SOL    HW127226   4.723   1.514   1.046 -0.5914 -0.4200  0.6327
 8560SOL    HW227227   4.640   1.428   0.953  0.6811  0.6526 -1.5688
 8561SOL     OW27228   3.053   1.360   2.062 -0.4100 -0.1305 -0.0933
 8561SOL    HW127229   3.000   1.363   1.982 -0.8826  0.8297  0.2388
 8561SOL    HW227230   3.021   1.282   2.108 -0.0734 -0.7470 -0.8658
 8562SOL     OW27231   5.960   5.587   1.452  0.7903  0.2017 -0.1578
 8562SOL    HW127232   5.995   5.587   1.364 -0.4255  0.4367 -0.6700
 8562SOL    HW227233   6.005   5.516   1.497 -0.5709 -1.7962 -1.8141
 8563SOL     OW27234   5.977   3.207   5.357  0.3061  0.2699 -0.1026
 8563SOL    HW127235   5.981   3.279   5.295 -2.4348 -1.4888 -2.6166
 8563SOL    HW227236   5.903   3.228   5.414  0.1648 -0.0538 -0.1633
 8564SOL     OW27237   5.594   6.691   3.519 -0.0132 -0.2590  0.0385
 8564SOL    HW127238   5.506   6.681   3.555 -0.5550  1.2991 -0.7596
 8564SOL    HW227239   5.589   6.771   3.467  1.9256 -0.0522  0.1187
 8565SOL     OW27240   5.691   3.003   2.815 -1.5473  0.1111  0.2028
 8565SOL    HW127241   5.645   2.925   2.786 -1.2396 -0.5254  1.3877
 8565SOL    HW227242   5.747   2.974   2.887  0.4941  0.9099 -0.9598
 8566SOL     OW27243   5.422   0.914   2.698  0.3018 -0.1953 -0.0066
 8566SOL    HW127244   5.425   0.878   2.609  1.2941  0.5065 -0.2788
 8566SOL    HW227245   5.514   0.928   2.721  0.0264  0.1048  0.9282
 8567SOL     OW27246   0.981   4.197   0.925  0.2194 -0.1701 -0.0942
 8567SOL    HW127247   1.005   4.289   0.922  1.1232 -0.4050 -0.4644
 8567SOL    HW227248   1.064   4.151   0.940 -0.1711 -0.9449 -0.2458
 8568SOL     OW27249   5.743   3.473   6.149 -0.2242  0.4575 -0.6831
 8568SOL    HW127250   5.766   3.565   6.132  1.8495  0.8466  3.0332
 8568SOL    HW227251   5.688   3.477   6.228  1.8450 -1.4780  0.9978
 8569SOL     OW27252   6.223   4.505   6.673 -0.1916  0.0358  0.0074
 8569SOL    HW127253   6.221   4.534   6.765  0.3976 -1.0219  0.3656
 8569SOL    HW227254   6.300   4.449   6.667 -0.4866 -0.2781 -1.0329
 8570SOL     OW27255   6.284   2.123   4.181  0.6123 -0.7117 -0.1313
 8570SOL    HW127256   6.195   2.155   4.195  0.2896 -1.8204  0.4492
 8570SOL    HW227257   6.284   2.092   4.090  0.4661 -0.5189 -0.1971
 8571SOL     OW27258   4.763   1.462   5.903 -0.2312  0.3930 -0.5799
 8571SOL    HW127259   4.796   1.538   5.951  1.6386 -0.8539  0.2373
 8571SOL    HW227260   4.696   1.497   5.845  1.0369  2.7676 -0.7076
 8572SOL     OW27261   6.413   1.834   1.689  0.3822 -0.4095  0.3795
 8572SOL    HW127262   6.439   1.813   1.599  1.1844 -0.5363  0.6251
 8572SOL    HW227263   6.454   1.765   1.742 -0.0140 -0.2904  0.8478
 8573SOL     OW27264   5.555   5.368   3.653  0.1238  0.2215 -0.0798
 8573SOL    HW127265   5.500   5.359   3.575 -0.9332 -0.2804  0.6824
 8573SOL    HW227266   5.574   5.461   3.658 -2.1621  0.7338  0.5584
 8574SOL     OW27267   5.202   5.536   0.528  0.0030  0.4045 -0.2611
 8574SOL    HW127268   5.178   5.526   0.435 -1.1350  3.6620 -0.4543
 8574SOL    HW227269   5.254   5.617   0.530  1.3550 -0.4428  1.7972
 8575SOL     OW27270   2.099   4.483   1.922  0.1618 -0.3451 -0.4180
 8575SOL    HW127271   2.166   4.489   1.853 -0.6275 -0.4662 -1.2114
 8575SOL    HW227272   2.126   4.408   1.975  0.7582 -0.2733 -0.6118
 8576SOL     OW27273   2.401   5.048   1.462 -0.0485 -0.2338  0.1837
 8576SOL    HW127274   2.399   5.024   1.369  0.8711  1.2755 -0.2587
 8576SOL    HW227275   2.309   5.043   1.490 -0.5656  0.7544 -1.2088
 8577SOL     OW27276   2.430   3.441   4.659 -0.1954  0.1413 -0.3211
 8577SOL    HW127277   2.448   3.349   4.681 -0.2681 -0.1127 -1.2773
 8577SOL    HW227278   2.415   3.483   4.744  1.3145 -0.4003  0.2662
 8578SOL     OW27279   5.115   2.892   0.319  0.5054  0.1107 -0.0354
 8578SOL    HW127280   5.074   2.831   0.257 -0.8164  1.1359 -0.1919
 8578SOL    HW227281   5.156   2.835   0.384 -0.4955 -0.9571 -0.3054
 8579SOL     OW27282   2.371   4.810   1.675 -0.2634 -0.3419 -0.0999
 8579SOL    HW127283   2.412   4.845   1.754  1.7134 -1.8697 -0.3867
 8579SOL    HW227284   2.370   4.884   1.614  0.4293  0.2124  0.5371
 8580SOL     OW27285   2.132   4.502   3.377 -0.5997 -0.1077 -0.5453
 8580SOL    HW127286   2.117   4.407   3.380 -1.4764  0.0403  0.6799
 8580SOL    HW227287   2.146   4.527   3.468 -1.4280  1.0923 -0.7232
 8581SOL     OW27288   0.238   5.369   0.223  0.7049 -0.2503 -0.5835
 8581SOL    HW127289   0.331   5.346   0.229  0.2651 -2.1997 -0.3391
 8581SOL    HW227290   0.204   5.353   0.311 -0.3664 -2.2748 -1.2986
 8582SOL     OW27291   3.612   6.174   2.314  0.1434 -0.2376  0.2817
 8582SOL    HW127292   3.635   6.110   2.247  0.8999  0.1972  0.1121
 8582SOL    HW227293   3.673   6.158   2.386 -0.0201 -0.0590  0.4646
 8583SOL     OW27294   3.635   0.807   2.498 -0.1542  0.2686 -0.1010
 8583SOL    HW127295   3.656   0.874   2.433  0.7238 -0.9961 -1.1742
 8583SOL    HW227296   3.689   0.829   2.573  0.5479  0.4709 -0.6504
 8584SOL     OW27297   4.486   4.252   1.409 -0.2190  0.0574  0.2975
 8584SOL    HW127298   4.539   4.184   1.367  1.2860  1.4848 -0.1912
 8584SOL    HW227299   4.512   4.333   1.366 -0.6569  1.2090  2.0981
 8585SOL     OW27300   6.185   0.377   3.368  0.1832  0.5508 -0.3323
 8585SOL    HW127301   6.196   0.472   3.368  2.7443  0.4229  2.3501
 8585SOL    HW227302   6.129   0.359   3.444  0.7459 -0.0883 -0.0492
 8586SOL     OW27303   6.055   6.655   6.330  0.4199  0.0432 -0.2312
 8586SOL    HW127304   6.024   6.650   6.420 -0.1959  0.3940 -0.4174
 8586SOL    HW227305   5.989   6.607   6.279  0.8189 -0.2471 -0.4846
 8587SOL     OW27306   1.746   3.808   6.146  0.1265 -0.3210 -0.3270
 8587SOL    HW127307   1.815   3.838   6.086  0.0671 -0.1645 -0.3173
 8587SOL    HW227308   1.753   3.867   6.221  1.4544 -1.6670  0.6884
 8588SOL     OW27309   5.937   0.001   5.692  0.0955  0.0864  0.1915
 8588SOL    HW127310   5.985  -0.018   5.611 -0.5838 -0.0112 -0.2020
 8588SOL    HW227311   5.964  -0.068   5.753 -0.5797 -0.7799 -0.4683
 8589SOL     OW27312   3.370   0.853   6.619 -0.1046 -0.0921  0.4719
 8589SOL    HW127313   3.402   0.781   6.566  0.7075  0.2326  0.4932
 8589SOL    HW227314   3.439   0.920   6.613  0.0101 -0.0385  1.8976
 8590SOL     OW27315   3.813   4.858   4.085  0.2689 -0.0369 -0.5410
 8590SOL    HW127316   3.849   4.818   4.164  0.0735  1.4334  0.3377
 8590SOL    HW227317   3.734   4.807   4.065 -0.1401  0.0803  0.7147
 8591SOL     OW27318   0.866   1.243   2.751 -0.3124 -0.0676 -0.8851
 8591SOL    HW127319   0.908   1.269   2.669  0.7422 -2.2085 -1.0947
 8591SOL    HW227320   0.912   1.293   2.818 -2.1068  2.7706 -1.5997
 8592SOL     OW27321   5.767   5.331   3.068  0.2153 -0.1269  0.4366
 8592SOL    HW127322   5.767   5.332   2.972 -0.8454 -1.1277  0.4007
 8592SOL    HW227323   5.851   5.293   3.092  0.5927  0.3600 -0.0847
 8593SOL     OW27324   3.458   5.720   3.942 -0.0373 -0.2680 -0.0219
 8593SOL    HW127325   3.424   5.743   4.029 -0.1960 -0.6912  0.0310
 8593SOL    HW227326   3.406   5.773   3.881 -0.1192 -0.1818  0.1218
 8594SOL     OW27327   0.553   3.945   2.993 -0.3604  0.6872 -0.1571
 8594SOL    HW127328   0.553   4.034   2.958  1.2183  0.0563 -1.9180
 8594SOL    HW227329   0.622   3.946   3.059 -1.8175  1.2703  1.4668
 8595SOL     OW27330   4.633   1.635   5.733  0.5237 -0.4272 -0.0172
 8595SOL    HW127331   4.645   1.705   5.797  0.1726 -2.3587  2.3014
 8595SOL    HW227332   4.543   1.606   5.745  0.7863 -1.5624 -0.6110
 8596SOL     OW27333   6.666   5.780   1.929 -0.5909 -0.1873 -0.2348
 8596SOL    HW127334   6.578   5.763   1.961 -0.2594 -1.3465  0.1172
 8596SOL    HW227335   6.718   5.707   1.963  0.1797 -0.3895 -1.7778
 8597SOL     OW27336   4.829   6.768   5.206  0.2601  0.6544 -0.7751
 8597SOL    HW127337   4.784   6.745   5.287  0.6226 -0.3521 -0.8474
 8597SOL    HW227338   4.760   6.763   5.139 -0.1245  1.8556 -0.4968
 8598SOL     OW27339   1.219   6.349   2.657  0.7061 -0.0095  0.4153
 8598SOL    HW127340   1.189   6.260   2.640  0.4488  0.1166  0.2020
 8598SOL    HW227341   1.142   6.394   2.692  0.3407  0.5949 -1.0839
 8599SOL     OW27342   2.551   0.669   6.134 -0.0406  0.2145  0.0340
 8599SOL    HW127343   2.583   0.641   6.049 -1.1953 -0.9071 -0.0717
 8599SOL    HW227344   2.474   0.722   6.114 -2.3588 -2.7525  0.3430
 8600SOL     OW27345   4.156   3.373   0.611  0.6019  0.5119 -0.2351
 8600SOL    HW127346   4.145   3.446   0.550  0.3592  0.2060 -0.5638
 8600SOL    HW227347   4.209   3.309   0.562  2.5720  1.3010  0.7627
 8601SOL     OW27348   2.039   1.151   2.425 -0.1223 -0.2522  0.0735
 8601SOL    HW127349   1.946   1.129   2.413 -0.2335  0.2625 -0.0733
 8601SOL    HW227350   2.086   1.074   2.394 -0.5075 -0.6309  0.4138
 8602SOL     OW27351   3.564   0.655   0.920  0.0133  0.0519  0.7374
 8602SOL    HW127352   3.540   0.748   0.911 -1.1689 -0.3392 -0.4007
 8602SOL    HW227353   3.526   0.629   1.003 -0.8320  0.2573  0.4278
 8603SOL     OW27354   3.094   3.811   1.883  0.5236 -0.5476 -0.4165
 8603SOL    HW127355   3.161   3.751   1.848  2.1459  1.5665 -1.1622
 8603SOL    HW227356   3.032   3.821   1.811 -0.0724 -1.7103 -0.0922
 8604SOL     OW27357   0.354   2.816   2.841  1.0609  0.0376  0.1280
 8604SOL    HW127358   0.402   2.897   2.830  2.9746 -0.8138  1.6460
 8604SOL    HW227359   0.330   2.790   2.752 -0.7497  2.8324 -0.3250
 8605SOL     OW27360   6.117   3.995   4.532 -0.1280  0.1027 -0.3732
 8605SOL    HW127361   6.141   3.999   4.440 -1.4030  1.7345 -0.6638
 8605SOL    HW227362   6.064   3.916   4.540  1.5842 -1.1298 -0.5972
 8606SOL     OW27363   5.758   3.285   2.040 -0.0323  0.2742 -0.1785
 8606SOL    HW127364   5.682   3.306   2.095  0.6516 -1.5364  1.5443
 8606SOL    HW227365   5.739   3.197   2.006  0.2296  0.7788 -1.7383
 8607SOL     OW27366   0.240   4.430   0.573 -0.0935  0.0554  0.0070
 8607SOL    HW127367   0.319   4.378   0.562 -0.5499 -0.8073  0.7221
 8607SOL    HW227368   0.214   4.454   0.484  1.0590  0.5043 -0.2294
 8608SOL     OW27369   2.080   6.211   2.697 -0.0023  0.1614 -0.0057
 8608SOL    HW127370   2.121   6.167   2.771 -0.2882  1.5755  1.0293
 8608SOL    HW227371   2.131   6.183   2.621  1.1613 -0.2380  0.9020
 8609SOL     OW27372   0.053   1.825   1.247 -0.1000 -0.0766 -0.1315
 8609SOL    HW127373   0.074   1.737   1.281 -1.4763 -1.0526 -1.6543
 8609SOL    HW227374   0.137   1.861   1.221  0.6084 -0.5473  1.3469
 8610SOL     OW27375   6.257   3.921   1.571 -0.0359  0.2888 -0.1644
 8610SOL    HW127376   6.346   3.899   1.597  1.2576  1.5639 -3.0127
 8610SOL    HW227377   6.261   4.014   1.550 -1.9101  0.2489 -0.8439
 8611SOL     OW27378   3.161   1.668   5.247  0.2896  0.3258  0.0371
 8611SOL    HW127379   3.172   1.760   5.220  2.4809  0.1936  0.3063
 8611SOL    HW227380   3.167   1.670   5.342 -0.5019 -0.0143  0.0988
 8612SOL     OW27381   5.277   5.733   5.261 -0.6032  0.1201  0.9442
 8612SOL    HW127382   5.296   5.827   5.261  1.3145 -0.1337 -2.1685
 8612SOL    HW227383   5.186   5.727   5.234  0.1181  1.1569 -2.1776
 8613SOL     OW27384   3.626   6.765   5.180  0.1168  0.7008 -0.3867
 8613SOL    HW127385   3.606   6.798   5.267 -2.7045  1.0642 -1.0716
 8613SOL    HW227386   3.593   6.832   5.120  0.2119 -0.4131 -1.7462
 8614SOL     OW27387   4.340   0.906   6.333  0.4206  0.0108  0.0344
 8614SOL    HW127388   4.329   0.821   6.376  1.3324 -0.4228 -0.5666
 8614SOL    HW227389   4.396   0.889   6.258 -0.2017  0.9735 -0.6841
 8615SOL     OW27390   2.445   2.312   0.230  0.1502 -0.2248  0.7561
 8615SOL    HW127391   2.352   2.320   0.252 -0.8709 -0.5818 -2.7577
 8615SOL    HW227392   2.462   2.218   0.232  1.1817 -0.0829  3.5495
 8616SOL     OW27393   6.492   0.376   4.650  0.0163  0.3258  0.4528
 8616SOL    HW127394   6.576   0.358   4.694  0.1439 -2.0911 -0.6096
 8616SOL    HW227395   6.428   0.330   4.704 -0.1006 -0.8802 -0.6710
 8617SOL     OW27396   2.284   2.132   6.214  0.3659  0.6296  0.7397
 8617SOL    HW127397   2.350   2.200   6.201  0.6849  0.6179  2.1929
 8617SOL    HW227398   2.328   2.065   6.267 -0.1364 -0.4301 -0.1369
 8618SOL     OW27399   2.748   4.025   1.758  0.3008 -0.1361  0.0583
 8618SOL    HW127400   2.711   4.108   1.789 -0.4670 -0.3512 -0.2660
 8618SOL    HW227401   2.843   4.037   1.766  0.1706  0.3178  1.1874
 8619SOL     OW27402   1.931   6.668   4.298 -0.0934 -0.2810  0.1128
 8619SOL    HW127403   1.914   6.760   4.319 -0.4251 -0.4244  0.4858
 8619SOL    HW227404   1.890   6.655   4.213  2.0221  0.5388 -1.1164
 8620SOL     OW27405   2.757   2.312   0.248 -0.8231  0.3680  0.1545
 8620SOL    HW127406   2.719   2.258   0.317  0.1078 -0.7378 -0.1642
 8620SOL    HW227407   2.707   2.290   0.170  0.2805 -0.9518 -0.2256
 8621SOL     OW27408   0.949   0.507   3.380 -0.1248  0.3751 -0.6044
 8621SOL    HW127409   0.922   0.473   3.295 -0.3005  1.5216 -1.0216
 8621SOL    HW227410   1.015   0.445   3.411 -0.9972 -0.7606 -0.9717
 8622SOL     OW27411   2.127   4.070   4.274 -0.2041 -0.3096  0.3573
 8622SOL    HW127412   2.129   3.981   4.307 -1.6972 -0.9876 -1.2460
 8622SOL    HW227413   2.072   4.118   4.336 -1.2320 -1.0541  0.0343
 8623SOL     OW27414   1.132   0.617   5.488 -0.0995 -0.2936 -0.2278
 8623SOL    HW127415   1.068   0.563   5.534 -0.6006  0.2381 -0.2959
 8623SOL    HW227416   1.209   0.560   5.479  0.0772 -0.3820  1.3860
 8624SOL     OW27417   6.392   0.294   2.371 -0.5029 -0.8153  0.1421
 8624SOL    HW127418   6.470   0.239   2.360 -0.9158 -1.4206  0.2171
 8624SOL    HW227419   6.339   0.277   2.294  0.0679  0.6757 -0.6285
 8625SOL     OW27420   5.747   3.012   0.441  0.0174  0.3195  0.7213
 8625SOL    HW127421   5.710   2.956   0.372 -1.2022  0.8490  0.9048
 8625SOL    HW227422   5.711   2.976   0.522  1.2224 -0.1294  1.0754
 8626SOL     OW27423   0.373   6.280   6.100 -0.4229  0.1564 -0.3891
 8626SOL    HW127424   0.359   6.231   6.019  1.0569 -0.1744 -0.4644
 8626SOL    HW227425   0.294   6.333   6.109 -0.4335  0.5251 -2.2760
 8627SOL     OW27426   3.248   1.861   3.279 -0.3823  0.0146 -0.7204
 8627SOL    HW127427   3.294   1.934   3.321  2.3238 -2.4207  0.9906
 8627SOL    HW227428   3.264   1.873   3.186  1.6245  0.6781 -0.3467
 8628SOL     OW27429   3.368   6.575   0.560  0.2775  0.0908  0.0748
 8628SOL    HW127430   3.378   6.664   0.527 -0.4625  1.2828  2.8673
 8628SOL    HW227431   3.449   6.558   0.608 -1.2599  1.0085  3.2189
 8629SOL     OW27432   0.852   5.303   1.702  0.3551  0.3122 -0.6815
 8629SOL    HW127433   0.945   5.305   1.680  0.1636 -3.3895 -2.7360
 8629SOL    HW227434   0.842   5.222   1.751 -1.8029  0.6028 -0.5752
 8630SOL     OW27435   3.467   3.253   5.556 -0.4521 -0.0715  0.5427
 8630SOL    HW127436   3.462   3.213   5.469 -0.9758  0.0979  0.4879
 8630SOL    HW227437   3.503   3.185   5.612 -4.4152 -1.9385  1.1712
 8631SOL     OW27438   0.869   4.438   0.420  0.3924  0.0117 -0.3415
 8631SOL    HW127439   0.912   4.390   0.491  0.2812  0.5159  0.0762
 8631SOL    HW227440   0.877   4.381   0.344  0.1058 -0.7517  0.1844
 8632SOL     OW27441   2.745   6.147   6.729 -0.1376  0.0980 -0.2669
 8632SOL    HW127442   2.791   6.231   6.739 -2.3133  1.4595 -0.8928
 8632SOL    HW227443   2.729   6.119   6.819  0.7369  0.2503 -0.0441
 8633SOL     OW27444   6.510   3.949   6.644 -0.4154 -0.5676  0.1054
 8633SOL    HW127445   6.580   3.884   6.647 -0.8527 -1.1177 -0.9350
 8633SOL    HW227446   6.547   4.026   6.687  0.7023 -0.9588 -0.1053
 8634SOL     OW27447   3.697   4.190   3.625 -0.2818 -0.1480  0.2534
 8634SOL    HW127448   3.710   4.101   3.658 -1.7391 -0.3863  0.2291
 8634SOL    HW227449   3.671   4.178   3.533  0.8308  0.3841 -0.1564
 8635SOL     OW27450   6.250   5.631   0.609 -0.1795 -0.2926  0.5614
 8635SOL    HW127451   6.335   5.602   0.576 -0.4151 -0.4559  0.0863
 8635SOL    HW227452   6.265   5.652   0.701  0.0703 -1.6647  0.8563
 8636SOL     OW27453   1.729   0.517   2.308  0.3859 -0.4361  0.2960
 8636SOL    HW127454   1.672   0.473   2.371 -0.9069  0.4604 -0.2154
 8636SOL    HW227455   1.735   0.607   2.340  0.1812 -0.1146 -0.5395
 8637SOL     OW27456   1.891   3.099   4.525  0.1085 -0.2617  0.2572
 8637SOL    HW127457   1.895   3.067   4.615 -0.9204  0.2382  0.4948
 8637SOL    HW227458   1.849   3.185   4.532 -0.0671 -0.2556 -0.7130
 8638SOL     OW27459   6.339   2.279   2.266  0.6075  0.2321 -0.3330
 8638SOL    HW127460   6.248   2.248   2.268  0.0734  1.6515  2.1037
 8638SOL    HW227461   6.391   2.199   2.260 -0.7853 -0.7464 -0.0535
 8639SOL     OW27462   2.681   6.330   1.645 -0.0882 -0.6335  0.0445
 8639SOL    HW127463   2.677   6.348   1.739  0.9646  0.4925 -0.1077
 8639SOL    HW227464   2.739   6.254   1.638 -0.8565 -1.2744  0.3388
 8640SOL     OW27465   0.978   3.928   5.934  0.2585  0.9138  0.3793
 8640SOL    HW127466   0.898   3.963   5.895  0.8689  2.4595  0.4347
 8640SOL    HW227467   0.975   3.834   5.916 -1.9187  0.8097  1.0166
 8641SOL     OW27468   4.500   1.308   0.168  0.3280  0.8352  0.4652
 8641SOL    HW127469   4.582   1.341   0.131  0.0640  0.8324 -0.1339
 8641SOL    HW227470   4.442   1.384   0.170  0.3099  0.8151  0.7997
 8642SOL     OW27471   5.356   6.050   4.440 -0.2137 -0.0619  0.0231
 8642SOL    HW127472   5.297   5.991   4.488 -0.3553  1.5675  1.9862
 8642SOL    HW227473   5.422   5.991   4.402 -2.0700 -1.7596 -0.7838
 8643SOL     OW27474   5.739   0.595   3.182  0.1499  0.5596 -0.1682
 8643SOL    HW127475   5.692   0.512   3.173  0.1175  0.5392  0.1667
 8643SOL    HW227476   5.800   0.581   3.254 -0.9900  1.3209  1.0023
 8644SOL     OW27477   4.363   3.067   1.305  0.0892 -0.4221  0.0896
 8644SOL    HW127478   4.439   3.010   1.316 -0.8681 -1.7737 -0.1264
 8644SOL    HW227479   4.331   3.083   1.394  0.9857  0.7176  0.2432
 8645SOL     OW27480   3.228   5.219   1.703 -0.2077  0.7487  0.2786
 8645SOL    HW127481   3.181   5.249   1.780  0.8242  0.0547  1.2222
 8645SOL    HW227482   3.192   5.269   1.630 -2.4023  0.2134  0.9403
 8646SOL     OW27483   3.643   3.537   4.397 -0.0555 -0.4351  0.1946
 8646SOL    HW127484   3.628   3.501   4.484  0.5682  0.2925  0.6038
 8646SOL    HW227485   3.559   3.525   4.352 -0.1980 -1.3794  0.6784
 8647SOL     OW27486   4.247   6.156   0.042 -0.4309 -0.4909 -0.0996
 8647SOL    HW127487   4.337   6.186   0.031 -0.4879  0.5297  1.7898
 8647SOL    HW227488   4.194   6.235   0.036 -1.3139 -1.1701 -1.9163
 8648SOL     OW27489   0.984   4.577   3.971  0.0490  0.3054 -1.2929
 8648SOL    HW127490   1.040   4.575   3.893  0.7913 -0.0473 -0.7583
 8648SOL    HW227491   0.937   4.494   3.968  1.4558 -0.5640 -0.3901
 8649SOL     OW27492   4.817   4.732   3.333 -0.0571 -0.4822 -0.5151
 8649SOL    HW127493   4.856   4.807   3.376  0.8300 -2.2264  1.9699
 8649SOL    HW227494   4.723   4.741   3.349  0.1549 -0.5005  0.8685
 8650SOL     OW27495   3.027   2.374   2.831  0.7234  0.2463  0.3909
 8650SOL    HW127496   3.107   2.415   2.864  1.2481 -1.0739  0.8121
 8650SOL    HW227497   3.007   2.423   2.751  0.3988  2.3813  1.6765
 8651SOL     OW27498   4.123   1.721   2.325 -0.1411 -0.2409  0.0728
 8651SOL    HW127499   4.152   1.671   2.401  0.3633  0.4841  0.3647
 8651SOL    HW227500   4.192   1.785   2.310 -0.7397  0.3267 -0.3421
 8652SOL     OW27501   6.222   3.100   6.423  0.3071  0.2425  0.0056
 8652SOL    HW127502   6.213   3.184   6.379  1.2526 -0.9298 -2.6722
 8652SOL    HW227503   6.141   3.053   6.403 -0.0268  0.3504  1.0922
 8653SOL     OW27504   4.876   3.573   2.310 -0.0781 -0.1501  0.1352
 8653SOL    HW127505   4.894   3.532   2.395 -0.1980  0.3578  0.4045
 8653SOL    HW227506   4.954   3.553   2.258 -0.5685 -1.6202 -0.0845
 8654SOL     OW27507   5.195   5.875   0.409 -0.0854  0.4047 -0.0563
 8654SOL    HW127508   5.125   5.834   0.357  0.1387 -0.6655  0.4826
 8654SOL    HW227509   5.268   5.885   0.347  0.3988 -1.4372  0.1763
 8655SOL     OW27510   5.692   6.449   5.629 -0.1878 -0.2891  0.4180
 8655SOL    HW127511   5.605   6.463   5.666 -0.0542  0.6653  0.3907
 8655SOL    HW227512   5.713   6.530   5.584 -0.2910 -1.3596 -1.7027
 8656SOL     OW27513   5.896   3.150   3.937  0.1214  0.7324  0.1037
 8656SOL    HW127514   5.841   3.142   3.859  1.3176 -0.0430 -0.7060
 8656SOL    HW227515   5.851   3.099   4.004 -0.1709  0.1590 -0.5183
 8657SOL     OW27516   0.222   6.357   4.577 -0.6007 -0.3636  0.0436
 8657SOL    HW127517   0.200   6.275   4.533  1.0912  0.2256 -2.0904
 8657SOL    HW227518   0.236   6.333   4.668 -1.0075 -2.2627 -0.3540
 8658SOL     OW27519   2.127   5.270   6.714 -0.0428 -0.5030  0.2923
 8658SOL    HW127520   2.058   5.335   6.698 -0.4747 -0.4545  2.1123
 8658SOL    HW227521   2.088   5.208   6.776  1.2338 -1.0151  0.6248
 8659SOL     OW27522   0.472   0.174   3.581 -0.2296  0.7679 -0.5432
 8659SOL    HW127523   0.482   0.263   3.547 -1.0206  1.5352  1.1280
 8659SOL    HW227524   0.451   0.121   3.504  3.2564  1.3751 -2.1470
 8660SOL     OW27525   1.848   5.123   5.151  0.2862 -0.2113  0.3569
 8660SOL    HW127526   1.841   5.097   5.243  1.5945  0.6236  0.7062
 8660SOL    HW227527   1.940   5.145   5.138 -0.0339  0.5099 -0.9402
 8661SOL     OW27528   2.100   5.058   1.491 -0.4248 -0.2007 -0.7808
 8661SOL    HW127529   2.082   4.973   1.530 -0.5364  0.3726  0.5020
 8661SOL    HW227530   2.017   5.105   1.498 -0.7528 -0.4193 -2.7273
 8662SOL     OW27531   2.621   2.054   5.078 -0.5431  0.0744  0.0364
 8662SOL    HW127532   2.674   1.997   5.134  0.0083  0.3239 -0.2140
 8662SOL    HW227533   2.659   2.043   4.990 -2.4973 -1.6625 -0.6718
 8663SOL     OW27534   3.945   4.091   0.789 -0.3901  0.6818 -0.6183
 8663SOL    HW127535   3.966   4.141   0.867 -3.2035  1.3350 -0.1570
 8663SOL    HW227536   4.026   4.047   0.765  0.9453  1.7169  1.7278
 8664SOL     OW27537   2.942   3.945   4.822 -0.1677 -0.0206  0.3853
 8664SOL    HW127538   2.874   3.980   4.765 -0.0247 -0.0956  0.1706
 8664SOL    HW227539   3.020   3.939   4.767 -0.0579 -0.1952  0.5560
 8665SOL     OW27540   1.197   4.827   2.017 -0.4313 -0.0827  0.2294
 8665SOL    HW127541   1.170   4.906   2.065  0.2053  1.4079 -1.7418
 8665SOL    HW227542   1.292   4.835   2.011 -0.4176 -0.7425 -0.4611
 8666SOL     OW27543   2.784   3.130   4.006 -0.3960  0.2841  0.4020
 8666SOL    HW127544   2.728   3.207   3.999 -2.2397 -0.8765  1.4857
 8666SOL    HW227545   2.732   3.067   4.057  0.9132 -1.7830 -0.6725
 8667SOL     OW27546   5.536   1.419   0.709  0.1880 -0.0597 -0.3663
 8667SOL    HW127547   5.517   1.442   0.618 -0.2365 -0.5589 -0.4073
 8667SOL    HW227548   5.456   1.441   0.756  0.3356  0.0047 -0.1443
 8668SOL     OW27549   5.392   6.721   4.910 -0.2863 -0.2099 -0.2869
 8668SOL    HW127550   5.475   6.681   4.885 -0.1162 -0.5305  0.7401
 8668SOL    HW227551   5.399   6.732   5.005  1.4717  6.0117 -0.6889
 8669SOL     OW27552   3.497   6.111   3.794 -0.2637  0.3147  0.0190
 8669SOL    HW127553   3.425   6.074   3.845  0.2013  0.9804  1.2215
 8669SOL    HW227554   3.506   6.200   3.827  1.3250  0.1395  0.1478
 8670SOL     OW27555   2.526   4.385   0.918 -0.4775  0.3422  0.0494
 8670SOL    HW127556   2.601   4.405   0.862  3.0889  1.0796  4.4119
 8670SOL    HW227557   2.534   4.291   0.935 -1.2523  0.2025 -0.3624
 8671SOL     OW27558   4.073   1.706   3.703  0.1891 -0.2020  0.3483
 8671SOL    HW127559   3.980   1.683   3.711 -0.2508  0.4892 -2.0054
 8671SOL    HW227560   4.118   1.622   3.698 -0.7166 -0.6154 -1.8584
 8672SOL     OW27561   4.164   1.434   1.062 -0.0254 -0.3095  0.2130
 8672SOL    HW127562   4.069   1.429   1.049  0.0277 -2.9943  0.2932
 8672SOL    HW227563   4.201   1.415   0.975  0.3123 -5.7149  1.2115
 8673SOL     OW27564   4.057   0.091   2.743 -0.7792 -0.1069 -0.4064
 8673SOL    HW127565   4.047   0.083   2.838 -1.1021  2.0095 -0.2183
 8673SOL    HW227566   4.058   0.185   2.727  1.0916 -0.3780 -2.3300
 8674SOL     OW27567   6.788   1.500   4.738  0.3378  0.0615  0.5859
 8674SOL    HW127568   6.741   1.580   4.715  1.5293  0.5007 -0.4448
 8674SOL    HW227569   6.762   1.483   4.829  0.9673  2.3364  1.2882
 8675SOL     OW27570   2.143   5.341   0.194  0.1639 -0.0871 -0.0697
 8675SOL    HW127571   2.207   5.295   0.249  0.7573 -2.0644 -2.2534
 8675SOL    HW227572   2.059   5.306   0.222 -0.2476  2.8674  3.1464
 8676SOL     OW27573   6.710   1.145   4.145  0.1375  0.2116 -0.0372
 8676SOL    HW127574   6.751   1.140   4.232 -0.0352  0.2892  0.0476
 8676SOL    HW227575   6.779   1.179   4.089  0.8516 -1.5624 -0.3114
 8677SOL     OW27576   2.945   4.303   3.967  0.1870 -0.2728  0.3436
 8677SOL    HW127577   2.913   4.294   3.878  0.5484 -0.2681  0.2122
 8677SOL    HW227578   3.016   4.366   3.961 -0.3996  0.4503  0.7876
 8678SOL     OW27579   2.759   0.998   3.682 -0.0734 -0.2058 -0.1875
 8678SOL    HW127580   2.839   1.015   3.633  0.3993 -0.0881  0.6138
 8678SOL    HW227581   2.729   1.085   3.709 -0.8009 -0.1949 -0.9731
 8679SOL     OW27582   1.308   4.952   3.720 -0.1363  0.2064 -0.3331
 8679SOL    HW127583   1.325   4.865   3.685 -0.0618 -0.0501  0.3368
 8679SOL    HW227584   1.318   5.010   3.644 -0.1490 -0.3573 -0.7748
 8680SOL     OW27585   5.318   5.763   3.205 -0.0119 -0.1995  0.2607
 8680SOL    HW127586   5.317   5.832   3.271 -0.7558  0.2544 -0.2018
 8680SOL    HW227587   5.234   5.718   3.217 -0.0110 -0.3176 -0.1637
 8681SOL     OW27588   6.677   2.859   0.022  0.6062  0.1016  0.2445
 8681SOL    HW127589   6.689   2.815  -0.062  0.6209 -0.0823  0.3432
 8681SOL    HW227590   6.634   2.942  -0.000  0.4846 -0.0075  0.0701
 8682SOL     OW27591   4.464   4.153   4.426  0.1991 -0.1643  0.4736
 8682SOL    HW127592   4.528   4.141   4.357  0.8751  0.3811  0.9986
 8682SOL    HW227593   4.393   4.092   4.404 -0.0793  0.7503 -1.2606
 8683SOL     OW27594   6.391   0.118   2.608  0.2847 -0.0111 -0.0397
 8683SOL    HW127595   6.376   0.127   2.702  1.3697  0.1183  0.1294
 8683SOL    HW227596   6.363   0.202   2.571 -2.3367 -0.8370 -0.1595
 8684SOL     OW27597   1.237   1.940   1.787 -0.2466 -0.2594 -0.6869
 8684SOL    HW127598   1.179   1.996   1.839 -0.1525 -0.4495 -0.3790
 8684SOL    HW227599   1.198   1.853   1.794  0.4892 -0.5297  0.1321
 8685SOL     OW27600   0.915   3.116   4.154  0.1302  0.4608  0.0379
 8685SOL    HW127601   0.948   3.033   4.188 -0.4230  0.4635  0.5883
 8685SOL    HW227602   0.965   3.130   4.073 -0.2325 -0.7264 -0.4045
 8686SOL     OW27603   1.010   5.050   4.241  0.3832  0.1365 -0.0578
 8686SOL    HW127604   0.998   4.968   4.193  0.2115  0.1749 -0.0809
 8686SOL    HW227605   0.921   5.078   4.263  0.4123  0.5734 -0.4759
 8687SOL     OW27606   3.650   5.888   1.217 -0.2116  0.0744  0.1313
 8687SOL    HW127607   3.559   5.918   1.208 -0.1058  0.7324  1.0816
 8687SOL    HW227608   3.643   5.805   1.264 -0.3950 -0.6191 -1.0617
 8688SOL     OW27609   2.016   2.949   2.071 -0.0806  0.0462 -0.2818
 8688SOL    HW127610   2.048   3.016   2.010 -0.2559 -0.0242 -0.4479
 8688SOL    HW227611   1.967   2.887   2.017 -0.9326  0.4196  0.0435
 8689SOL     OW27612   1.412   2.767   3.274  0.1787 -0.1022 -0.1220
 8689SOL    HW127613   1.437   2.674   3.267  1.4023  0.3320 -3.0061
 8689SOL    HW227614   1.494   2.813   3.291 -0.3903  0.4947  1.0875
 8690SOL     OW27615   5.973   0.975   6.230  0.2133 -0.3974  0.2956
 8690SOL    HW127616   5.896   1.008   6.184  0.4673 -0.2129 -0.0006
 8690SOL    HW227617   6.006   0.904   6.175  0.1681 -0.5721  0.4949
 8691SOL     OW27618   5.431   3.911   2.603 -0.2811  0.2035 -0.4888
 8691SOL    HW127619   5.460   3.828   2.567  1.2558  0.8260 -0.7590
 8691SOL    HW227620   5.441   3.901   2.698  0.5277  0.2839 -0.5578
 8692SOL     OW27621   5.113   5.778   2.597  0.4709  0.4649  0.0792
 8692SOL    HW127622   5.112   5.684   2.581  0.6753  0.7311 -1.6314
 8692SOL    HW227623   5.196   5.794   2.641 -0.7350 -0.4807  2.9964
 8693SOL     OW27624   0.242   6.297   1.640 -0.1411  0.1689 -0.0217
 8693SOL    HW127625   0.198   6.374   1.675 -0.0136 -0.1478  0.8412
 8693SOL    HW227626   0.221   6.226   1.701  2.0178  0.1250  0.7417
 8694SOL     OW27627   0.044   1.919   0.818 -0.4477  0.0123  0.2169
 8694SOL    HW127628   0.069   2.008   0.844 -0.2362  0.3532 -1.0828
 8694SOL    HW227629  -0.010   1.888   0.891  0.7051  0.6289  1.3819
 8695SOL     OW27630   0.767   2.645   3.438  0.1719  0.1746  0.1571
 8695SOL    HW127631   0.750   2.571   3.380 -1.7345  0.2506  0.5289
 8695SOL    HW227632   0.835   2.614   3.498 -0.8329 -1.4426  0.5245
 8696SOL     OW27633   3.456   3.427   5.788  0.1078  0.2627  0.1114
 8696SOL    HW127634   3.458   3.421   5.692  0.4219 -0.0685  0.1382
 8696SOL    HW227635   3.367   3.404   5.812 -0.0668  0.6783 -0.1229
 8697SOL     OW27636   3.261   6.256   4.318 -0.1347  0.4548 -0.5656
 8697SOL    HW127637   3.284   6.190   4.383 -1.9254 -1.3701 -1.6749
 8697SOL    HW227638   3.222   6.327   4.368  0.9827  0.3075  0.5665
 8698SOL     OW27639   3.044   6.580   6.260  0.5941 -0.1590 -0.0153
 8698SOL    HW127640   3.096   6.597   6.338  0.4749 -1.1374  0.2989
 8698SOL    HW227641   2.963   6.629   6.273  1.3076  1.1439 -0.3754
 8699SOL     OW27642   3.736   1.927   0.615  0.5820 -0.3240  0.6628
 8699SOL    HW127643   3.666   1.967   0.667 -0.1997 -2.3451  1.2679
 8699SOL    HW227644   3.814   1.935   0.669  0.3811  0.1110  0.8903
 8700SOL     OW27645   6.625   4.132   5.102  0.1614 -0.1591  0.5651
 8700SOL    HW127646   6.532   4.118   5.121  0.2199  0.5145  1.4363
 8700SOL    HW227647   6.670   4.078   5.167  0.3704  0.3880  0.8815
 8701SOL     OW27648   4.614   3.136   2.430  0.0030 -0.4915 -0.4498
 8701SOL    HW127649   4.530   3.117   2.474  1.9997  0.6753  4.6009
 8701SOL    HW227650   4.615   3.232   2.421  0.6129 -0.5410 -0.9685
 8702SOL     OW27651   4.753   1.200   0.292 -0.1233  0.3329  0.3271
 8702SOL    HW127652   4.779   1.203   0.384 -0.7446 -1.5303  0.6096
 8702SOL    HW227653   4.834   1.177   0.246  0.3559  2.0012  0.2962
 8703SOL     OW27654   3.963   6.236   3.698 -0.9112 -0.0615  0.5878
 8703SOL    HW127655   4.004   6.296   3.761 -1.2254  1.4866 -0.6396
 8703SOL    HW227656   4.023   6.161   3.694  0.6311  1.1348  0.5471
 8704SOL     OW27657   6.658   3.288   3.413 -0.0780  0.3511 -0.0293
 8704SOL    HW127658   6.752   3.284   3.430 -0.0933  0.4670  0.0820
 8704SOL    HW227659   6.636   3.201   3.380  0.4223  0.9026 -1.9114
 8705SOL     OW27660   6.058   2.077   6.729 -0.0540  0.4537  0.2411
 8705SOL    HW127661   5.974   2.060   6.772 -0.6424 -0.0469 -1.0357
 8705SOL    HW227662   6.035   2.128   6.651  0.7380 -0.2479 -0.4693
 8706SOL     OW27663   4.447   6.298   1.111 -0.1980 -0.2583  0.3608
 8706SOL    HW127664   4.363   6.344   1.120 -0.4373 -0.8140  1.0538
 8706SOL    HW227665   4.460   6.255   1.195  0.5216 -0.6290  0.0699
 8707SOL     OW27666   2.447   6.701   6.749 -0.0022 -0.3296 -0.0137
 8707SOL    HW127667   2.418   6.613   6.724 -3.2354  1.1268 -1.9919
 8707SOL    HW227668   2.487   6.736   6.669  0.1757  0.4262  0.3990
 8708SOL     OW27669   0.806   4.402   5.397  0.1825 -0.1303 -0.1914
 8708SOL    HW127670   0.754   4.413   5.317 -0.3181 -1.4284 -0.0784
 8708SOL    HW227671   0.812   4.489   5.434 -3.1371 -0.0761  0.5216
 8709SOL     OW27672   0.495   2.044   1.568 -0.2285  0.0091  0.0711
 8709SOL    HW127673   0.573   2.098   1.584 -0.8248  0.9173  0.0209
 8709SOL    HW227674   0.524   1.976   1.508 -0.0441  1.8533 -2.0534
 8710SOL     OW27675   6.026   4.715   2.892 -0.4556 -0.5531  0.2564
 8710SOL    HW127676   5.954   4.774   2.911 -0.3603 -1.1462  2.9032
 8710SOL    HW227677   6.012   4.641   2.951  2.8022 -0.2418  1.6181
 8711SOL     OW27678   5.756   4.132   1.187  0.2201 -0.5786 -0.1392
 8711SOL    HW127679   5.725   4.104   1.101  1.3177 -1.6997 -0.1979
 8711SOL    HW227680   5.833   4.186   1.168 -1.3948  1.9394  0.0149
 8712SOL     OW27681   4.695   1.343   4.116 -0.3162  0.0749 -0.2797
 8712SOL    HW127682   4.659   1.405   4.053 -1.1147 -0.2279 -0.1239
 8712SOL    HW227683   4.746   1.282   4.062 -0.5413  0.1398 -0.5699
 8713SOL     OW27684   0.986   3.851   2.434  0.0011 -0.3280  0.2636
 8713SOL    HW127685   0.938   3.874   2.355  1.0163  0.9441 -0.0193
 8713SOL    HW227686   1.043   3.779   2.407 -0.6820 -0.8568  0.2194
 8714SOL     OW27687   2.488   4.664   3.693 -0.0277  0.0191  0.1640
 8714SOL    HW127688   2.444   4.743   3.661 -0.4786  0.4291  1.6900
 8714SOL    HW227689   2.435   4.592   3.660  0.0635  0.3678 -0.7727
 8715SOL     OW27690   1.981   1.993   1.758 -0.0344 -0.9003 -0.4996
 8715SOL    HW127691   2.038   2.039   1.820  0.3657  1.2121 -2.3191
 8715SOL    HW227692   1.917   2.059   1.732 -1.4033 -2.3367 -0.8653
 8716SOL     OW27693   3.319   4.966   3.148 -0.4281 -0.3463  0.1686
 8716SOL    HW127694   3.406   4.927   3.159 -1.6702 -2.7403  2.7495
 8716SOL    HW227695   3.314   5.032   3.217 -0.7403 -0.3754  0.1732
 8717SOL     OW27696   3.264   5.160   2.413 -0.3304  0.3176  0.6994
 8717SOL    HW127697   3.350   5.152   2.371  0.1263 -0.0544  1.6871
 8717SOL    HW227698   3.283   5.178   2.505 -1.3095 -0.1428  1.0117
 8718SOL     OW27699   0.247   5.067   2.569 -0.9016  0.6201 -0.2545
 8718SOL    HW127700   0.302   5.134   2.609 -0.3051  0.2263 -0.4054
 8718SOL    HW227701   0.308   4.999   2.541 -1.2125  1.0936 -2.2724
 8719SOL     OW27702   3.209   4.577   1.758  0.3384 -0.2364  0.8384
 8719SOL    HW127703   3.181   4.579   1.849  0.7581 -2.3754  1.0613
 8719SOL    HW227704   3.304   4.565   1.762  0.5440  0.9246  0.0916
 8720SOL     OW27705   0.089   5.241   1.244 -0.6593 -0.1247  0.0271
 8720SOL    HW127706   0.142   5.317   1.222 -1.9970  0.8225 -0.0167
 8720SOL    HW227707   0.010   5.249   1.190 -1.3293 -0.9206  0.8454
 8721SOL     OW27708   5.019   2.300   6.571 -0.0669  0.6324  0.1995
 8721SOL    HW127709   4.991   2.338   6.488  1.3393  0.5256 -0.3470
 8721SOL    HW227710   5.114   2.291   6.563  0.0017 -0.1046  1.5200
 8722SOL     OW27711   4.455   1.829   6.476 -0.1541 -0.2852 -0.2328
 8722SOL    HW127712   4.437   1.899   6.413  0.9332  1.0599  0.8939
 8722SOL    HW227713   4.477   1.875   6.558  0.4763 -1.9398  0.5735
 8723SOL     OW27714   2.229   3.709   4.006 -0.0103  0.2070  0.2175
 8723SOL    HW127715   2.273   3.663   4.078 -0.6793  0.6914  0.9498
 8723SOL    HW227716   2.287   3.782   3.985  0.7835 -0.6346 -0.5728
 8724SOL     OW27717   5.299   4.154   4.700 -0.0956  0.5011 -0.0177
 8724SOL    HW127718   5.323   4.084   4.761  0.7265  0.0823 -0.7750
 8724SOL    HW227719   5.220   4.122   4.656  0.1995  0.0921 -0.2632
 8725SOL     OW27720   2.238   5.845   0.918  0.2585  0.6752 -0.7676
 8725SOL    HW127721   2.290   5.771   0.886  2.3924  1.3380  0.9073
 8725SOL    HW227722   2.262   5.918   0.861  2.0323  1.2213  0.6023
 8726SOL     OW27723   0.227   6.715   5.637  0.1787  0.0870 -0.6085
 8726SOL    HW127724   0.161   6.767   5.682  1.2545  0.2879  0.8096
 8726SOL    HW227725   0.241   6.760   5.554  0.5909  1.7235  0.2972
 8727SOL     OW27726   6.629   2.822   6.228 -0.0852 -0.3409 -1.2348
 8727SOL    HW127727   6.720   2.835   6.200  0.8697 -0.8770  1.3402
 8727SOL    HW227728   6.614   2.728   6.216  0.6760 -0.7737  0.7645
 8728SOL     OW27729   2.080   4.969   2.170 -0.3087 -0.0365 -0.6855
 8728SOL    HW127730   2.146   4.902   2.151 -0.6248 -0.2361 -1.0980
 8728SOL    HW227731   2.098   4.996   2.260 -1.7187 -2.4637  0.4187
 8729SOL     OW27732   2.778   0.552   1.319  0.1077 -0.1947  0.2038
 8729SOL    HW127733   2.720   0.621   1.287  2.2188  1.4178 -0.4816
 8729SOL    HW227734   2.735   0.517   1.397 -2.1900  0.1946 -0.8308
 8730SOL     OW27735   1.513   4.479   1.873 -0.1555  0.2203 -0.5707
 8730SOL    HW127736   1.605   4.473   1.896 -0.0669  1.0419 -0.7100
 8730SOL    HW227737   1.507   4.442   1.785  0.1066  0.5593 -0.7299
 8731SOL     OW27738   2.288   3.765   5.615  0.1098  0.0052  0.1069
 8731SOL    HW127739   2.221   3.734   5.676  0.1126 -0.0103  0.1019
 8731SOL    HW227740   2.308   3.854   5.645 -1.7363  1.0137 -1.3714
 8732SOL     OW27741   5.129   0.485   3.477  0.2564 -0.4573 -0.0343
 8732SOL    HW127742   5.179   0.566   3.463  2.5443 -2.0725 -2.0122
 8732SOL    HW227743   5.164   0.449   3.559  1.3103 -0.8358 -0.6379
 8733SOL     OW27744   5.406   1.914   5.034  0.2743  0.0585  0.2549
 8733SOL    HW127745   5.437   1.958   4.955 -1.9860  1.1561 -0.0939
 8733SOL    HW227746   5.461   1.950   5.104  1.5423 -0.0822 -0.6300
 8734SOL     OW27747   2.493   4.074   3.648  0.2114  0.5074  0.9381
 8734SOL    HW127748   2.587   4.055   3.655 -0.1838 -1.9841  0.5878
 8734SOL    HW227749   2.462   4.073   3.739  0.6286  2.3596  1.1492
 8735SOL     OW27750   5.154   2.608   2.776  0.3013  0.1756 -0.1460
 8735SOL    HW127751   5.207   2.664   2.721 -2.5512  0.8357 -2.4822
 8735SOL    HW227752   5.119   2.541   2.716 -0.3489 -1.0773  1.5398
 8736SOL     OW27753   2.769   5.202   4.927 -0.5501  0.1589  0.4802
 8736SOL    HW127754   2.858   5.195   4.890  0.3660  1.9439  2.1501
 8736SOL    HW227755   2.781   5.185   5.020 -2.5261 -2.5084  0.3750
 8737SOL     OW27756   2.135   5.014   0.433  0.6923 -0.1925 -0.1727
 8737SOL    HW127757   2.173   4.949   0.492 -0.0251 -0.0557  0.4546
 8737SOL    HW227758   2.131   4.969   0.348  1.0839 -0.6362  0.0398
 8738SOL     OW27759   4.721   1.583   6.193 -0.2563  0.0385 -0.0106
 8738SOL    HW127760   4.662   1.588   6.118 -0.4605  0.0304  0.1446
 8738SOL    HW227761   4.755   1.672   6.204 -0.9980  0.2755  0.4876
 8739SOL     OW27762   2.933   5.597   5.376  0.3051  0.1967  0.0598
 8739SOL    HW127763   2.958   5.587   5.284 -0.4195  0.5193 -0.1847
 8739SOL    HW227764   2.885   5.516   5.396  0.8303 -0.0633  0.2859
 8740SOL     OW27765   0.369   1.722   3.414  0.3208  0.1199  0.6523
 8740SOL    HW127766   0.283   1.762   3.430 -0.0820 -0.0792 -0.9244
 8740SOL    HW227767   0.378   1.657   3.484 -1.2568 -0.5561  0.2643
 8741SOL     OW27768   1.086   0.386   5.818  0.5638  0.0343  0.0980
 8741SOL    HW127769   1.010   0.361   5.871  0.6249  3.4811  2.1265
 8741SOL    HW227770   1.158   0.332   5.851  0.1373  0.6803  2.2237
 8742SOL     OW27771   2.718   2.772   4.685  0.0266  0.4396  0.0613
 8742SOL    HW127772   2.791   2.730   4.639  0.7168  1.1606  0.4609
 8742SOL    HW227773   2.725   2.740   4.775  0.5186  1.3277  0.3549
 8743SOL     OW27774   2.479   4.702   6.585  0.2406 -0.1009  0.3175
 8743SOL    HW127775   2.536   4.625   6.583 -1.0649 -1.1113 -1.2466
 8743SOL    HW227776   2.425   4.690   6.663  0.2758 -0.6276  0.2694
 8744SOL     OW27777   5.546   3.337   5.699 -0.2922  0.2042 -0.1615
 8744SOL    HW127778   5.481   3.395   5.740 -1.7347 -1.2045 -0.3411
 8744SOL    HW227779   5.527   3.251   5.735  3.1579  0.0535  1.7426
 8745SOL     OW27780   3.737   4.517   0.466  0.4521  0.2047  0.5440
 8745SOL    HW127781   3.806   4.557   0.413  0.9820 -0.6066  0.6135
 8745SOL    HW227782   3.726   4.577   0.541  1.6492 -0.0811  0.9568
 8746SOL     OW27783   0.507   5.248   4.168  0.1113  0.6902 -0.3889
 8746SOL    HW127784   0.466   5.229   4.253  0.3102  0.1861 -0.4062
 8746SOL    HW227785   0.551   5.332   4.181 -0.1298  0.7733 -0.0890
 8747SOL     OW27786   2.350   3.570   1.519 -0.0357  0.0671  0.5034
 8747SOL    HW127787   2.395   3.495   1.560 -0.5449  0.2177  1.3661
 8747SOL    HW227788   2.258   3.544   1.517 -0.1173  0.3836  0.1451
 8748SOL     OW27789   4.122   4.013   4.741  0.0751 -0.0883  0.1244
 8748SOL    HW127790   4.201   4.067   4.730  2.2498 -2.0162  4.1140
 8748SOL    HW227791   4.140   3.934   4.690  1.1421 -0.8249  1.5836
 8749SOL     OW27792   5.609   6.539   1.932 -0.0173 -0.1043 -0.1419
 8749SOL    HW127793   5.540   6.523   1.868 -0.6931  0.1502  0.5170
 8749SOL    HW227794   5.618   6.456   1.979 -0.2378  0.0139  0.1136
 8750SOL     OW27795   0.079   4.562   2.134  0.0551 -0.4333  0.0338
 8750SOL    HW127796   0.017   4.602   2.072 -0.9649 -1.5940  0.2730
 8750SOL    HW227797   0.080   4.624   2.208  2.8358  2.0413 -1.8533
 8751SOL     OW27798   5.828   1.902   2.920  0.3804 -0.4917 -0.0421
 8751SOL    HW127799   5.825   1.864   2.832  4.3583  3.2677 -2.1879
 8751SOL    HW227800   5.784   1.986   2.912  2.0448  0.5542  1.0541
 8752SOL     OW27801   6.572   6.578   1.243  0.5781  0.3516  0.3889
 8752SOL    HW127802   6.561   6.487   1.214  0.4050  0.2934  0.6372
 8752SOL    HW227803   6.609   6.570   1.331  0.1802  0.5145  0.5745
 8753SOL     OW27804   6.779   3.650   1.592 -0.0778  0.4218  0.7129
 8753SOL    HW127805   6.781   3.746   1.587 -0.1665  0.3877 -0.1865
 8753SOL    HW227806   6.710   3.624   1.531  0.4364 -0.2437  0.3996
 8754SOL     OW27807   1.434   2.683   1.021 -0.3017  0.0612  0.3584
 8754SOL    HW127808   1.445   2.589   1.007 -0.4261 -0.2858  2.2811
 8754SOL    HW227809   1.514   2.710   1.067 -0.4858  0.7970  0.2615
 8755SOL     OW27810   2.776   0.289   4.676  0.0139  0.2427 -0.0601
 8755SOL    HW127811   2.724   0.302   4.755  0.5047 -0.4699  0.3919
 8755SOL    HW227812   2.862   0.260   4.707  0.4080  0.5461 -0.8312
 8756SOL     OW27813   0.450   6.692   0.041 -0.2165 -0.1454  0.0426
 8756SOL    HW127814   0.395   6.720  -0.032 -1.0634 -0.4886  0.5299
 8756SOL    HW227815   0.388   6.666   0.109  0.4600  2.3927  1.8027
 8757SOL     OW27816   6.238   0.244   4.733 -0.4434  0.1474  0.2481
 8757SOL    HW127817   6.266   0.199   4.813 -0.4571  0.8634  0.6587
 8757SOL    HW227818   6.199   0.174   4.679 -2.1077 -0.0564  1.6121
 8758SOL     OW27819   3.555   6.456   2.137 -0.0628 -0.8939  0.3393
 8758SOL    HW127820   3.540   6.362   2.152 -1.3493 -0.5218  1.6810
 8758SOL    HW227821   3.472   6.497   2.162  0.0924  0.5224 -1.3202
 8759SOL     OW27822   1.155   2.333   4.632 -0.3339  0.1024 -0.5377
 8759SOL    HW127823   1.187   2.422   4.652 -0.1675  0.2178 -1.2999
 8759SOL    HW227824   1.060   2.338   4.649 -0.3019  0.3822 -0.4263
 8760SOL     OW27825   4.239   0.586   3.145 -0.2482  0.9351 -0.2147
 8760SOL    HW127826   4.189   0.556   3.222 -2.4459 -0.5302 -2.0528
 8760SOL    HW227827   4.263   0.676   3.165 -1.4913  0.8709  1.8635
 8761SOL     OW27828   2.479   1.482   6.694 -0.3218 -0.7189 -0.1822
 8761SOL    HW127829   2.421   1.510   6.623  0.1278 -1.3114 -0.7952
 8761SOL    HW227830   2.493   1.561   6.745 -0.7321 -0.3002 -0.6959
 8762SOL     OW27831   5.255   6.519   0.038  0.2200  0.1704  0.0845
 8762SOL    HW127832   5.306   6.547  -0.038 -0.3630 -1.6564 -1.0570
 8762SOL    HW227833   5.168   6.558   0.024  0.1496 -0.0604 -0.1421
 8763SOL     OW27834   2.651   4.588   4.227  0.3873  0.3599 -0.1089
 8763SOL    HW127835   2.677   4.503   4.262  1.9988  0.8632 -0.0103
 8763SOL    HW227836   2.588   4.568   4.158  0.3428 -0.8718  0.2728
 8764SOL     OW27837   1.690   2.395   3.674 -0.2623 -0.2424  0.5996
 8764SOL    HW127838   1.730   2.479   3.697 -0.4075 -0.2519  0.8993
 8764SOL    HW227839   1.728   2.332   3.736 -0.9765 -0.1915  1.1054
 8765SOL     OW27840   6.168   6.109   3.921  0.0031 -0.8046 -0.5429
 8765SOL    HW127841   6.152   6.171   3.850 -1.2900 -1.5063 -0.8954
 8765SOL    HW227842   6.083   6.099   3.964  1.0206  0.6731  2.0385
 8766SOL     OW27843   0.697   2.841   0.218  0.1666 -0.1021  0.0806
 8766SOL    HW127844   0.631   2.886   0.165  0.7493  0.2196 -0.3792
 8766SOL    HW227845   0.650   2.817   0.298 -0.9013 -1.1153 -0.7971
 8767SOL     OW27846   2.293   1.018   5.657 -0.4445 -0.3664 -0.5370
 8767SOL    HW127847   2.303   1.088   5.722  1.6284 -3.5775  3.0725
 8767SOL    HW227848   2.207   0.981   5.674  0.1813 -1.3435  0.7115
 8768SOL     OW27849   5.525   2.385   4.916 -0.6318 -0.3594  0.6349
 8768SOL    HW127850   5.576   2.465   4.905 -1.3093  0.2815  1.9547
 8768SOL    HW227851   5.573   2.334   4.981  0.2988 -1.5002 -0.8691
 8769SOL     OW27852   3.447   6.485   4.511 -0.4705  0.6291 -0.0289
 8769SOL    HW127853   3.489   6.420   4.455 -0.6288  0.2425  0.3030
 8769SOL    HW227854   3.356   6.486   4.482 -0.2805  1.3682 -0.6538
 8770SOL     OW27855   1.038   2.276   3.200  0.0265 -0.3795 -0.1655
 8770SOL    HW127856   1.058   2.364   3.233  0.4549  0.3059 -2.1420
 8770SOL    HW227857   0.948   2.281   3.169  0.7626  0.0713 -2.3678
 8771SOL     OW27858   4.415   3.230   4.011 -0.1543  0.0506  0.4177
 8771SOL    HW127859   4.399   3.165   3.943  0.3861  1.5713 -1.2478
 8771SOL    HW227860   4.502   3.207   4.046 -0.5629 -0.9118  0.8327
 8772SOL     OW27861   0.425   3.497   2.305 -0.2976 -0.7183 -0.1929
 8772SOL    HW127862   0.429   3.528   2.215  2.3109 -0.4248 -0.0539
 8772SOL    HW227863   0.478   3.418   2.306 -1.1558 -1.3216  0.9109
 8773SOL     OW27864   1.088   5.628   6.448  0.4850 -0.1927  0.1854
 8773SOL    HW127865   1.110   5.542   6.483  0.0215 -0.4791 -0.2112
 8773SOL    HW227866   1.111   5.689   6.518 -0.9692 -0.8021  1.2402
 8774SOL     OW27867   4.737   5.142   4.947 -0.5636 -0.4639 -0.3620
 8774SOL    HW127868   4.696   5.057   4.960 -2.6676  0.7086  1.2637
 8774SOL    HW227869   4.705   5.171   4.861 -3.1848  0.3433  0.7850
 8775SOL     OW27870   4.030   5.999   2.211 -0.3516  0.1101  0.7504
 8775SOL    HW127871   3.986   5.923   2.248  1.4068 -3.3781 -3.3961
 8775SOL    HW227872   3.976   6.022   2.135  0.9340  0.7003 -0.0166
 8776SOL     OW27873   3.082   6.535   0.517 -0.3083 -0.6853 -0.1169
 8776SOL    HW127874   3.167   6.544   0.559 -1.0235 -1.5320  1.5922
 8776SOL    HW227875   3.019   6.564   0.583 -1.3483  0.7164 -1.6206
 8777SOL     OW27876   1.647   1.323   4.283  0.4110  1.0081  0.0361
 8777SOL    HW127877   1.583   1.332   4.213 -0.1376 -1.6354  0.0992
 8777SOL    HW227878   1.732   1.340   4.241  0.0787 -0.3220 -1.2642
 8778SOL     OW27879   6.050   3.538   6.083 -0.1869  0.3234 -0.0352
 8778SOL    HW127880   6.034   3.622   6.039 -0.1971  0.3725  0.0612
 8778SOL    HW227881   5.972   3.525   6.137  0.2299  0.7201  0.6817
 8779SOL     OW27882   4.361   2.062   2.955  0.1800  0.0113 -0.2271
 8779SOL    HW127883   4.272   2.046   2.924 -0.2983 -1.5423  1.7639
 8779SOL    HW227884   4.383   2.149   2.920 -2.0852  0.4201 -0.8186
 8780SOL     OW27885   3.265   0.251   6.051  0.3442  0.4792 -0.4990
 8780SOL    HW127886   3.293   0.275   5.962 -0.7404 -2.3589 -1.7251
 8780SOL    HW227887   3.275   0.156   6.055  0.3145  0.5065  2.4459
 8781SOL     OW27888   0.806   4.519   2.627 -0.3685 -0.2004 -0.4308
 8781SOL    HW127889   0.873   4.451   2.637  0.6086  0.8489  0.3446
 8781SOL    HW227890   0.808   4.568   2.708  1.4800  2.9743 -2.2101
 8782SOL     OW27891   4.556   5.359   5.419  0.2421 -0.6179 -0.3178
 8782SOL    HW127892   4.609   5.307   5.478  0.6922 -0.0073 -0.1733
 8782SOL    HW227893   4.567   5.449   5.450  0.2792 -0.3215 -1.1630
 8783SOL     OW27894   5.068   6.167   4.870 -0.2937 -0.0789  0.3696
 8783SOL    HW127895   5.027   6.207   4.793 -0.2849 -0.2934  0.2548
 8783SOL    HW227896   5.008   6.097   4.895  0.0448 -0.4430  0.1561
 8784SOL     OW27897   1.981   5.817   5.020 -0.0923  0.1818  0.3506
 8784SOL    HW127898   2.045   5.845   4.955 -2.2342 -0.6064 -2.3048
 8784SOL    HW227899   1.962   5.896   5.070  0.7467  1.1702 -0.8278
 8785SOL     OW27900   5.688   2.168   0.493  0.5079 -0.0581 -0.1452
 8785SOL    HW127901   5.778   2.162   0.463  0.8092  1.4689  0.3841
 8785SOL    HW227902   5.635   2.153   0.414  1.2275 -0.3831 -0.5696
 8786SOL     OW27903   5.794   1.974   3.332 -0.5330 -0.0661  0.0543
 8786SOL    HW127904   5.738   2.018   3.268 -0.9621 -1.1100 -0.3061
 8786SOL    HW227905   5.854   1.920   3.280 -0.9022 -0.9515  0.5136
 8787SOL     OW27906   4.965   6.527   4.206  0.6629 -0.1669  0.3035
 8787SOL    HW127907   4.900   6.588   4.242  0.2778  0.1822 -0.9333
 8787SOL    HW227908   5.033   6.584   4.170  1.2909 -0.5186  0.9131
 8788SOL     OW27909   5.273   3.680   1.439 -0.1651 -0.0619  0.2278
 8788SOL    HW127910   5.347   3.657   1.383  0.2969  0.4986  0.5905
 8788SOL    HW227911   5.195   3.656   1.388  0.2307  0.8771 -0.8672
 8789SOL     OW27912   6.424   4.453   1.152  0.0072 -0.0901  0.0122
 8789SOL    HW127913   6.495   4.493   1.201 -0.3880 -1.3702  1.7017
 8789SOL    HW227914   6.348   4.455   1.210 -0.5336 -1.4873 -0.5725
 8790SOL     OW27915   4.367   5.659   5.084  0.5899 -0.2936 -0.0813
 8790SOL    HW127916   4.316   5.578   5.077  1.6969 -1.0124 -0.1159
 8790SOL    HW227917   4.380   5.686   4.993 -2.9431  2.0571 -0.0888
 8791SOL     OW27918   5.853   3.963   5.809  0.0870  0.2227  0.0463
 8791SOL    HW127919   5.877   3.941   5.719 -0.3097  0.6196 -0.1600
 8791SOL    HW227920   5.770   4.010   5.801 -0.9182 -1.3385  0.7528
 8792SOL     OW27921   0.987   5.130   1.495 -0.1732 -0.2967 -0.0386
 8792SOL    HW127922   0.918   5.068   1.517 -0.0840 -0.2985  0.2382
 8792SOL    HW227923   1.031   5.148   1.578 -0.6206  0.6476  0.0121
 8793SOL     OW27924   1.627   3.038   4.370 -0.2992  0.3168  0.0856
 8793SOL    HW127925   1.663   3.026   4.458 -0.4335  2.2909  0.4508
 8793SOL    HW227926   1.704   3.049   4.314 -0.2144  1.9477  0.4596
 8794SOL     OW27927   5.473   4.906   5.272  0.4744  0.0479 -0.2955
 8794SOL    HW127928   5.382   4.881   5.287  0.5402  0.3695  0.7035
 8794SOL    HW227929   5.472   4.953   5.189 -0.1792 -0.3933 -0.5439
 8795SOL     OW27930   1.584   0.210   5.759 -0.2390  0.1463 -0.2713
 8795SOL    HW127931   1.560   0.301   5.771 -0.2222  0.2506 -1.0000
 8795SOL    HW227932   1.519   0.175   5.697 -1.1758 -0.7432  1.1585
 8796SOL     OW27933   0.058   2.608   6.101 -0.1756  0.3115 -0.1220
 8796SOL    HW127934   0.135   2.565   6.064 -1.1648 -0.9966 -0.7271
 8796SOL    HW227935   0.021   2.543   6.160  0.2825  1.6639  1.7737
 8797SOL     OW27936   0.099   3.535   6.014 -0.2195  0.4619 -0.1046
 8797SOL    HW127937   0.124   3.473   5.946  0.0578  1.3309 -0.8258
 8797SOL    HW227938   0.051   3.483   6.078 -1.5910 -0.1686 -1.5775
 8798SOL     OW27939   3.456   4.608   3.684  0.3127 -0.4311 -0.7387
 8798SOL    HW127940   3.415   4.592   3.599 -1.4748  0.3768 -0.0823
 8798SOL    HW227941   3.513   4.532   3.698 -0.2097 -1.1188 -2.1462
 8799SOL     OW27942   0.720   0.374   5.110 -0.3433  0.1131 -0.0256
 8799SOL    HW127943   0.750   0.306   5.050 -0.6752 -1.4353  1.5010
 8799SOL    HW227944   0.630   0.392   5.084 -0.3726 -0.2932 -0.2028
 8800SOL     OW27945   5.293   0.015   6.228 -0.3175  0.2330 -0.1523
 8800SOL    HW127946   5.228   0.006   6.298 -1.1464 -0.0365 -0.9394
 8800SOL    HW227947   5.250   0.067   6.161  0.2579 -0.0081 -0.7238
 8801SOL     OW27948   6.018   4.986   0.604 -0.3014 -0.1978 -0.1376
 8801SOL    HW127949   6.107   5.013   0.626 -0.2266  0.2215 -0.9089
 8801SOL    HW227950   6.007   5.012   0.512 -2.3150  2.7303  0.7555
 8802SOL     OW27951   0.063   4.178   1.750  0.2732 -0.7365  0.2215
 8802SOL    HW127952   0.141   4.182   1.805  0.6306  1.0846 -0.3464
 8802SOL    HW227953   0.097   4.180   1.660 -0.3820  3.2939 -0.0975
 8803SOL     OW27954   3.447   3.851   2.609  0.3000  0.1296  0.5379
 8803SOL    HW127955   3.477   3.795   2.680 -0.9987  0.5313  1.4487
 8803SOL    HW227956   3.490   3.817   2.531  2.4606  0.2102  1.6235
 8804SOL     OW27957   0.482   6.049   3.195  0.1331  0.1140 -0.4460
 8804SOL    HW127958   0.454   6.025   3.106 -0.5281 -0.2177 -0.1526
 8804SOL    HW227959   0.405   6.092   3.234  1.1120  2.2979 -0.7742
 8805SOL     OW27960   5.542   1.589   5.202 -0.0389  0.0763  0.1701
 8805SOL    HW127961   5.613   1.654   5.203  0.2910 -0.2612  2.0895
 8805SOL    HW227962   5.586   1.505   5.216 -0.7246 -0.2537  0.3788
 8806SOL     OW27963   3.083   0.921   0.779  0.6150 -0.8010 -0.0887
 8806SOL    HW127964   3.084   0.826   0.769  3.0753 -0.7371 -1.3694
 8806SOL    HW227965   3.021   0.951   0.713 -0.4322 -1.5145  0.5460
 8807SOL     OW27966   4.714   1.502   4.618 -0.1994 -0.2924  0.5800
 8807SOL    HW127967   4.738   1.432   4.557  1.4673  0.1930  0.6135
 8807SOL    HW227968   4.700   1.458   4.701  0.2760 -0.6588  0.4711
 8808SOL     OW27969   4.316   3.537   2.594  0.1123  0.3843 -0.1673
 8808SOL    HW127970   4.352   3.619   2.628  1.8074 -0.7759  1.0020
 8808SOL    HW227971   4.301   3.554   2.501  0.5236  1.9789  0.0337
 8809SOL     OW27972   3.457   6.681   3.646 -0.0924 -0.2286 -0.0557
 8809SOL    HW127973   3.500   6.616   3.701  1.3632 -0.5663 -1.5113
 8809SOL    HW227974   3.427   6.633   3.569  0.4166  0.6609 -0.8484
 8810SOL     OW27975   1.218   0.226   6.158 -0.2292  0.0692  0.1575
 8810SOL    HW127976   1.138   0.194   6.114 -0.5449  1.3382 -0.2468
 8810SOL    HW227977   1.239   0.158   6.222 -3.0548  0.7738  2.0138
 8811SOL     OW27978   2.606   3.857   1.573  0.2486  0.6657  0.2270
 8811SOL    HW127979   2.650   3.921   1.629  1.7045 -0.0905 -0.0074
 8811SOL    HW227980   2.664   3.781   1.574 -1.2017 -0.4676  0.0999
 8812SOL     OW27981   5.584   3.768   3.170 -0.0751  0.0356  0.5632
 8812SOL    HW127982   5.623   3.753   3.256  1.3316 -1.6529 -0.3108
 8812SOL    HW227983   5.528   3.692   3.155 -2.9707  1.8551  1.2825
 8813SOL     OW27984   0.065   2.879   6.071  0.4885  0.4275  0.2591
 8813SOL    HW127985   0.069   2.785   6.091 -2.0543  0.6798  2.5353
 8813SOL    HW227986   0.153   2.911   6.089  1.0502 -1.3004  0.7614
 8814SOL     OW27987   2.548   2.401   0.451  0.4124  0.2829 -0.3878
 8814SOL    HW127988   2.600   2.324   0.473  0.2951  0.1035 -0.7424
 8814SOL    HW227989   2.502   2.377   0.371  1.1327  1.0778 -1.0594
 8815SOL     OW27990   0.961   5.842   0.444  0.0662 -0.3860  0.1523
 8815SOL    HW127991   0.935   5.847   0.352 -2.0702 -0.3959  0.7099
 8815SOL    HW227992   0.901   5.779   0.483  1.2882 -0.7907  1.4689
 8816SOL     OW27993   2.149   1.203   3.038 -0.2070 -0.5798  0.0554
 8816SOL    HW127994   2.066   1.214   2.992 -0.2493  0.5966  0.3801
 8816SOL    HW227995   2.170   1.110   3.028 -2.6727 -1.4144  1.8449
 8817SOL     OW27996   2.718   3.431   2.506 -0.5955  0.0588 -0.0334
 8817SOL    HW127997   2.806   3.393   2.515  0.8222  3.0528 -0.2712
 8817SOL    HW227998   2.692   3.453   2.596 -0.4592  0.5174 -0.1056
 8818SOL     OW27999   4.182   2.401   3.278 -0.0620  0.0660 -0.1968
 8818SOL    HW128000   4.276   2.408   3.267 -0.2230  1.9521 -0.5424
 8818SOL    HW228001   4.152   2.490   3.295 -1.9292 -0.3111 -1.2189
 8819SOL     OW28002   6.296   1.962   6.727  0.9132 -0.6718 -0.7004
 8819SOL    HW128003   6.203   1.979   6.742  0.9179 -2.1019  1.3604
 8819SOL    HW228004   6.304   1.953   6.632 -0.8062  0.6833 -1.0189
 8820SOL     OW28005   4.272   5.664   4.384  0.4271  0.1834  0.1560
 8820SOL    HW128006   4.208   5.592   4.389  0.0097  0.4972 -0.5248
 8820SOL    HW228007   4.231   5.736   4.433  0.4284  0.2583  0.0480
 8821SOL     OW28008   3.537   6.351   4.732 -0.0617 -0.1987 -0.0848
 8821SOL    HW128009   3.508   6.383   4.647  0.2087 -0.2242 -0.1879
 8821SOL    HW228010   3.515   6.421   4.793 -0.1385 -0.1257 -0.1956
 8822SOL     OW28011   5.589   0.902   0.336 -0.5592  0.2530  0.0687
 8822SOL    HW128012   5.678   0.899   0.372 -0.3655 -0.4999 -0.4582
 8822SOL    HW228013   5.537   0.850   0.397 -0.0847 -1.6607 -1.1037
 8823SOL     OW28014   6.214   4.895   3.153  0.1663  0.0090  0.2943
 8823SOL    HW128015   6.171   4.973   3.119  1.0594  0.1130 -0.6104
 8823SOL    HW228016   6.275   4.869   3.085 -0.8060 -2.0661  0.1409
 8824SOL     OW28017   5.330   4.611   6.316 -0.0052  0.1900 -0.2345
 8824SOL    HW128018   5.384   4.582   6.390 -1.2370  1.0676  1.0689
 8824SOL    HW228019   5.380   4.682   6.276 -0.2254  1.1170  1.0671
 8825SOL     OW28020   2.350   0.764   1.074 -0.3804  0.0893  0.1838
 8825SOL    HW128021   2.370   0.769   1.167  0.2408 -0.0461  0.0628
 8825SOL    HW228022   2.402   0.690   1.042 -1.0656 -0.2619 -0.1517
 8826SOL     OW28023   1.677   4.409   6.404 -0.1671 -0.1171 -0.9801
 8826SOL    HW128024   1.706   4.321   6.430  0.8833 -0.0188 -1.7526
 8826SOL    HW228025   1.585   4.399   6.382 -1.4745 -0.0739  3.4826
 8827SOL     OW28026   0.643   4.242   1.993 -0.3638 -0.1256  0.2534
 8827SOL    HW128027   0.704   4.222   2.064  0.7011  0.6930 -0.3928
 8827SOL    HW228028   0.567   4.280   2.037 -0.2039 -0.6813  1.0355
 8828SOL     OW28029   0.449   4.174   4.012  0.0489 -0.1119  0.0252
 8828SOL    HW128030   0.362   4.209   4.034 -1.3711 -2.2680 -1.6797
 8828SOL    HW228031   0.433   4.115   3.938  2.8904 -1.1306  0.0924
 8829SOL     OW28032   4.511   1.301   4.559  0.0743 -0.0839 -0.1580
 8829SOL    HW128033   4.592   1.322   4.513  0.5094  0.3342  0.7745
 8829SOL    HW228034   4.455   1.260   4.493  0.9470 -0.1362 -0.8712
 8830SOL     OW28035   1.887   6.443   0.189  0.3714  0.5047  0.4750
 8830SOL    HW128036   1.828   6.384   0.237 -1.5306  0.1799 -2.0491
 8830SOL    HW228037   1.949   6.385   0.146 -0.7434  0.3839 -1.0272
 8831SOL     OW28038   0.651   2.129   0.026 -0.6238 -0.0133  0.4986
 8831SOL    HW128039   0.565   2.122  -0.015 -0.9327  0.9901  0.9369
 8831SOL    HW228040   0.636   2.182   0.104 -0.0367 -1.8440  1.9158
 8832SOL     OW28041   2.028   3.700   6.719 -0.2652 -0.3042 -0.1929
 8832SOL    HW128042   2.072   3.677   6.636  0.2530  0.4911 -0.1554
 8832SOL    HW228043   2.015   3.795   6.713  0.9330 -0.0192  1.1675
 8833SOL     OW28044   0.128   4.676   4.727  0.1223  0.1206  0.3419
 8833SOL    HW128045   0.125   4.604   4.789 -0.6339  0.4952  0.7419
 8833SOL    HW228046   0.131   4.755   4.781  0.6274  0.4067 -0.0927
 8834SOL     OW28047   5.327   5.091   0.297  0.5323 -0.1419 -0.2525
 8834SOL    HW128048   5.421   5.080   0.314  0.6812 -0.1477 -1.0132
 8834SOL    HW228049   5.297   5.004   0.271  0.2834 -0.1723  0.1405
 8835SOL     OW28050   2.294   5.098   5.798 -0.5131  0.1955 -0.0879
 8835SOL    HW128051   2.218   5.151   5.824 -0.7781  0.0454 -0.5424
 8835SOL    HW228052   2.304   5.035   5.870 -0.7064  0.3344  0.0629
 8836SOL     OW28053   5.239   2.574   4.542 -0.9354  0.0516  0.1094
 8836SOL    HW128054   5.310   2.577   4.479  1.6058  2.4326  2.8003
 8836SOL    HW228055   5.257   2.496   4.595  0.3223  1.1060  1.3242
 8837SOL     OW28056   0.719   5.906   6.417 -0.2919  0.2065  0.0335
 8837SOL    HW128057   0.794   5.943   6.463  0.4802  0.4015 -1.3246
 8837SOL    HW228058   0.694   5.973   6.353  0.0783 -0.9202 -1.3439
 8838SOL     OW28059   3.345   3.110   1.913  0.0350  0.0443 -0.1534
 8838SOL    HW128060   3.414   3.088   1.850  1.3921  2.5518  0.3284
 8838SOL    HW228061   3.293   3.176   1.869  0.2692  0.9366  0.8757
 8839SOL     OW28062   0.227   3.132   5.520  0.6109 -0.2739 -0.1107
 8839SOL    HW128063   0.181   3.090   5.447 -0.4758  2.1195 -0.9260
 8839SOL    HW228064   0.162   3.137   5.590  0.3203  0.9683 -0.4295
 8840SOL     OW28065   5.081   2.235   0.626 -0.2167  0.2788 -0.3522
 8840SOL    HW128066   5.145   2.293   0.667  0.7528 -0.1197 -1.2357
 8840SOL    HW228067   5.012   2.225   0.691  0.2809  1.2883  0.3541
 8841SOL     OW28068   0.820   5.389   6.755 -0.3109 -0.5476 -0.2393
 8841SOL    HW128069   0.770   5.386   6.674 -3.8939 -0.9393  1.7815
 8841SOL    HW228070   0.776   5.326   6.813  0.9366  0.9664  2.5909
 8842SOL     OW28071   4.348   0.046   2.344 -0.2478  0.3010 -0.0235
 8842SOL    HW128072   4.282   0.081   2.284 -1.2585 -3.6105 -1.5224
 8842SOL    HW228073   4.301   0.035   2.427 -1.5032 -1.9720 -0.9377
 8843SOL     OW28074   6.120   4.210   6.360 -0.5038 -0.4114 -0.0611
 8843SOL    HW128075   6.187   4.204   6.292 -1.4028  0.6381 -1.0989
 8843SOL    HW228076   6.144   4.143   6.424  1.7056  0.1687 -0.2125
 8844SOL     OW28077   4.099   4.627   5.232 -0.8878 -0.0371 -0.1385
 8844SOL    HW128078   4.058   4.541   5.242 -0.1289 -0.3892  0.0418
 8844SOL    HW228079   4.049   4.684   5.290 -0.2785 -0.7679  1.1541
 8845SOL     OW28080   3.396   0.703   5.811 -0.3697  0.5482 -0.2566
 8845SOL    HW128081   3.477   0.692   5.760 -0.8479 -1.0034 -0.7548
 8845SOL    HW228082   3.340   0.632   5.781 -2.3291  2.1759 -0.6275
 8846SOL     OW28083   5.964   2.469   3.023  0.5276  0.4033  0.0206
 8846SOL    HW128084   5.884   2.478   2.972  0.5813 -0.6396 -0.2773
 8846SOL    HW228085   6.023   2.419   2.967  0.6864 -0.5502  1.0036
 8847SOL     OW28086   2.489   1.751   3.769  0.5293 -0.3580 -0.0928
 8847SOL    HW128087   2.534   1.804   3.703 -0.1616  0.7487  0.3064
 8847SOL    HW228088   2.450   1.680   3.719 -1.5089  1.4221 -1.1941
 8848SOL     OW28089   0.086   3.540   3.624  0.7786  0.0995 -0.4577
 8848SOL    HW128090   0.007   3.538   3.677  0.5238 -1.3115 -0.8487
 8848SOL    HW228091   0.150   3.490   3.674  0.3020 -1.9454 -1.7557
 8849SOL     OW28092   0.317   2.980   6.686  0.1714  0.5452  0.0762
 8849SOL    HW128093   0.222   2.989   6.680  0.1509  1.7128  1.5086
 8849SOL    HW228094   0.331   2.927   6.765  0.7104  1.7201  0.8006
 8850SOL     OW28095   4.256   6.172   5.702  0.4269  0.3364 -0.1171
 8850SOL    HW128096   4.289   6.126   5.625  1.0480  1.1487 -0.3470
 8850SOL    HW228097   4.300   6.130   5.776  0.3515  0.0101 -0.2547
 8851SOL     OW28098   5.991   3.010   6.026  0.1766  0.2605  0.5038
 8851SOL    HW128099   5.930   2.999   6.099  1.9246 -0.3420  1.9520
 8851SOL    HW228100   5.998   3.104   6.015 -1.5369  0.3419 -0.1923
 8852SOL     OW28101   5.657   1.788   1.595  0.0472 -0.2283 -0.3132
 8852SOL    HW128102   5.636   1.700   1.563  3.6837 -0.6705 -1.9913
 8852SOL    HW228103   5.731   1.776   1.654 -0.7266  1.5889  1.1555
 8853SOL     OW28104   3.054   3.408   0.932 -0.1111  0.4621  0.5579
 8853SOL    HW128105   2.984   3.342   0.935 -1.8534  2.1555 -0.6192
 8853SOL    HW228106   3.095   3.395   0.847 -0.1865  0.6438  0.4944
 8854SOL     OW28107   5.611   0.725   0.124  0.6407 -0.0938  0.2389
 8854SOL    HW128108   5.573   0.761   0.204 -0.3668 -3.1196  1.2439
 8854SOL    HW228109   5.701   0.701   0.149  0.4244 -0.7547  0.4099
 8855SOL     OW28110   6.029   6.293   3.736 -0.3486  0.3676  0.4977
 8855SOL    HW128111   5.979   6.373   3.750  0.9862  1.5359 -0.9969
 8855SOL    HW228112   5.967   6.232   3.696 -1.5038  0.4519  2.0791
 8856SOL     OW28113   2.874   4.053   3.400 -0.3612  0.5951 -0.2070
 8856SOL    HW128114   2.825   4.033   3.480  0.0126 -0.7301 -0.2826
 8856SOL    HW228115   2.809   4.088   3.340 -0.9722  0.0656  0.1332
 8857SOL     OW28116   5.582   5.751   3.138 -0.0989 -0.3990 -0.6854
 8857SOL    HW128117   5.497   5.726   3.176  0.3439  0.4501  0.9507
 8857SOL    HW228118   5.568   5.840   3.106  0.1852 -0.2240 -0.3315
 8858SOL     OW28119   1.097   2.862   3.453 -0.3065 -0.5633  0.7172
 8858SOL    HW128120   1.131   2.886   3.367  0.9226  0.5631  1.4831
 8858SOL    HW228121   1.005   2.840   3.438 -0.2366  0.0915 -0.7960
 8859SOL     OW28122   2.515   3.241   0.045  0.2844  0.4246 -0.0170
 8859SOL    HW128123   2.596   3.204   0.079  1.6745  1.2405 -2.2034
 8859SOL    HW228124   2.453   3.236   0.118  1.8000 -1.6986  1.2325
 8860SOL     OW28125   5.503   1.417   6.073 -0.1971 -0.4316 -0.2392
 8860SOL    HW128126   5.426   1.360   6.078 -0.7433  0.3582  0.5766
 8860SOL    HW228127   5.545   1.408   6.158  0.5795 -0.7910 -0.6490
 8861SOL     OW28128   5.478   3.470   1.816 -0.3310 -0.4931  0.5399
 8861SOL    HW128129   5.505   3.422   1.737  0.3235 -0.2740  0.6194
 8861SOL    HW228130   5.559   3.510   1.848 -0.5244 -0.8373  1.5070
 8862SOL     OW28131   0.156   6.791   2.711  0.4607 -0.1315 -0.2372
 8862SOL    HW128132   0.251   6.798   2.720  0.3787 -0.8587  1.4772
 8862SOL    HW228133   0.122   6.861   2.766 -0.0146 -0.0246 -0.6615
 8863SOL     OW28134   3.662   4.207   5.154 -0.3811  0.2740 -0.6521
 8863SOL    HW128135   3.745   4.160   5.140  0.1074  0.7768  0.4060
 8863SOL    HW228136   3.596   4.138   5.159  0.4496 -0.4425  1.8077
 8864SOL     OW28137   2.830   4.064   5.353 -0.0919 -0.1771 -0.0290
 8864SOL    HW128138   2.876   4.040   5.433  1.0469 -0.0523 -0.6216
 8864SOL    HW228139   2.837   3.986   5.298 -0.7369 -0.2112 -0.0648
 8865SOL     OW28140   2.920   4.391   3.418 -0.2202 -0.0753 -0.0413
 8865SOL    HW128141   2.968   4.313   3.389  0.4692  0.4338 -0.2991
 8865SOL    HW228142   2.839   4.357   3.455  0.0311 -0.9103 -0.2392
 8866SOL     OW28143   1.517   0.848   6.333 -0.0777 -0.3566  0.2335
 8866SOL    HW128144   1.515   0.855   6.238 -3.6940 -0.9892  0.1101
 8866SOL    HW228145   1.544   0.758   6.350  2.4980  0.2798  0.0063
 8867SOL     OW28146   3.243   3.930   5.297 -0.3556  0.1350  0.6172
 8867SOL    HW128147   3.184   3.983   5.243 -1.1276 -1.1483  0.1481
 8867SOL    HW228148   3.318   3.911   5.240 -1.0017 -0.9125  0.0759
 8868SOL     OW28149   6.791   5.658   0.968  0.2390  0.3063  0.0414
 8868SOL    HW128150   6.725   5.660   0.899 -1.2847 -0.5818  1.4231
 8868SOL    HW228151   6.834   5.744   0.962 -0.4334  0.5728 -1.4311
 8869SOL     OW28152   2.222   3.021   4.765 -0.3978 -0.2404  0.1104
 8869SOL    HW128153   2.217   2.928   4.747 -2.4360 -0.4924  1.7204
 8869SOL    HW228154   2.141   3.057   4.731 -0.7824  0.5008  1.7138
 8870SOL     OW28155   0.995   2.903   5.027 -0.3942  0.7203  0.5745
 8870SOL    HW128156   1.057   2.950   4.971 -0.9465  1.0619  0.2409
 8870SOL    HW228157   1.031   2.815   5.033  0.7124  1.1964  1.2940
 8871SOL     OW28158   1.524   6.077   3.492  0.0615  0.5676  0.2044
 8871SOL    HW128159   1.446   6.129   3.470 -1.3743 -1.2470  0.6821
 8871SOL    HW228160   1.489   6.005   3.546  1.7304 -1.5497 -1.3810
 8872SOL     OW28161   0.438   3.164   5.687  0.0722 -0.2248  0.1584
 8872SOL    HW128162   0.465   3.074   5.704 -0.0174 -0.2144  0.3591
 8872SOL    HW228163   0.359   3.156   5.634  0.4048 -0.2567 -0.3319
 8873SOL     OW28164   5.594   1.834   6.327 -0.3236  0.2137 -0.3398
 8873SOL    HW128165   5.548   1.751   6.338  0.2718  0.1514  2.5365
 8873SOL    HW228166   5.543   1.897   6.377  1.0707  0.8036  0.3862
 8874SOL     OW28167   0.172   5.770   1.758 -0.0427 -0.7214  0.0164
 8874SOL    HW128168   0.141   5.698   1.814 -1.4844 -0.8541 -0.8979
 8874SOL    HW228169   0.109   5.840   1.774  1.5261  0.4954  1.1299
 8875SOL     OW28170   3.184   1.409   2.478  0.8519 -0.0667  0.3144
 8875SOL    HW128171   3.152   1.447   2.560  0.4273 -1.6572  0.9411
 8875SOL    HW228172   3.206   1.484   2.423 -1.6404  1.1305  0.7769
 8876SOL     OW28173   0.710   5.533   1.035 -0.6188  0.2654  0.8785
 8876SOL    HW128174   0.618   5.506   1.023 -0.2746 -0.1919 -1.0465
 8876SOL    HW228175   0.707   5.628   1.035 -1.0689  0.2553  0.6922
 8877SOL     OW28176   3.157   2.025   1.474 -0.3228  0.1749  0.3543
 8877SOL    HW128177   3.078   1.972   1.458 -0.5253  0.0133  1.7136
 8877SOL    HW228178   3.224   1.961   1.498 -0.8046  0.5192  2.8976
 8878SOL     OW28179   1.745   6.184   0.141 -0.2584 -0.2888 -0.1621
 8878SOL    HW128180   1.657   6.187   0.177 -0.7907 -1.1731 -1.3359
 8878SOL    HW228181   1.802   6.186   0.218 -1.2115  1.8872  0.5908
 8879SOL     OW28182   0.219   4.825   2.995  0.1846 -0.1652  0.7430
 8879SOL    HW128183   0.158   4.891   2.961 -1.8890 -0.7233  3.0897
 8879SOL    HW228184   0.224   4.760   2.924 -0.0533  1.0459 -0.4371
 8880SOL     OW28185   3.760   6.210   4.812  0.3267  0.3699 -0.0063
 8880SOL    HW128186   3.738   6.198   4.905  2.1457  1.3538  0.5925
 8880SOL    HW228187   3.710   6.288   4.786  0.5957  0.7016  0.4470
 8881SOL     OW28188   5.748   5.284   5.932 -0.3745  0.2965  0.4007
 8881SOL    HW128189   5.794   5.239   6.003  0.2505  0.3557  0.0414
 8881SOL    HW228190   5.670   5.321   5.973  0.1054  0.5464  1.1082
 8882SOL     OW28191   0.270   4.176   1.919 -0.1181 -0.1269  0.1791
 8882SOL    HW128192   0.249   4.164   2.012 -0.1447 -0.2356  0.1589
 8882SOL    HW228193   0.336   4.109   1.900 -0.4020 -0.3629  0.0213
 8883SOL     OW28194   1.603   1.812   0.078  0.0748  0.1249 -0.2781
 8883SOL    HW128195   1.591   1.732   0.027 -2.0862  0.6409 -0.6914
 8883SOL    HW228196   1.561   1.794   0.162  0.4727  0.4921  0.0047
 8884SOL     OW28197   0.057   4.661   0.071 -0.2025  0.7656  0.2591
 8884SOL    HW128198   0.119   4.637   0.002 -2.1068 -2.1434 -0.6257
 8884SOL    HW228199   0.055   4.757   0.069  1.2198  0.8413 -2.4342
 8885SOL     OW28200   1.793   6.159   2.118  0.0328 -0.2828  0.3146
 8885SOL    HW128201   1.860   6.188   2.057 -0.4605  0.4447  0.1029
 8885SOL    HW228202   1.722   6.127   2.062  0.2376 -1.1502  0.5378
 8886SOL     OW28203   6.043   2.070   2.640  0.2296 -0.0387 -0.1259
 8886SOL    HW128204   5.951   2.091   2.627  0.8067  2.0156 -1.4666
 8886SOL    HW228205   6.046   1.975   2.638 -1.9255 -0.1706  0.5875
 8887SOL     OW28206   4.185   5.918   4.481  0.0273  0.2279  0.1613
 8887SOL    HW128207   4.148   5.931   4.394  0.7986 -0.1393 -0.2315
 8887SOL    HW228208   4.275   5.948   4.474 -0.3682  1.8294  1.3120
 8888SOL     OW28209   5.382   5.914   0.236  0.4054  0.3418 -0.7855
 8888SOL    HW128210   5.459   5.867   0.269 -0.4641 -0.5441  0.0455
 8888SOL    HW228211   5.414   6.001   0.216  1.0220  1.0133  2.5480
 8889SOL     OW28212   0.526   4.783   4.982 -0.0817  0.5526 -0.2043
 8889SOL    HW128213   0.481   4.861   5.015 -0.0433  0.8251 -0.7848
 8889SOL    HW228214   0.573   4.813   4.904 -0.1863 -0.0819 -0.5228
 8890SOL     OW28215   4.668   0.670   1.886 -0.0301  0.0635 -0.2434
 8890SOL    HW128216   4.755   0.676   1.847 -0.5160 -0.4576 -1.4598
 8890SOL    HW228217   4.635   0.760   1.884 -1.0580 -0.2381 -3.5713
 8891SOL     OW28218   2.709   3.444   5.616 -0.2869 -0.5465  0.2062
 8891SOL    HW128219   2.627   3.403   5.588 -0.5767  0.3316 -0.2648
 8891SOL    HW228220   2.767   3.371   5.637 -1.1683 -1.1825  0.4893
 8892SOL     OW28221   5.631   6.537   5.170  0.9042 -0.5547  0.4952
 8892SOL    HW128222   5.683   6.612   5.201  0.3719 -0.8205  2.1171
 8892SOL    HW228223   5.541   6.571   5.165  0.7222 -0.9856  0.8638
 8893SOL     OW28224   6.551   2.908   5.914 -0.6456  0.2398 -0.0274
 8893SOL    HW128225   6.520   2.900   5.824  0.1453  0.1315 -0.3001
 8893SOL    HW228226   6.592   2.823   5.933 -1.2150  0.1008  0.5934
 8894SOL     OW28227   2.787   4.447   5.499 -0.2643 -0.2036 -0.2409
 8894SOL    HW128228   2.880   4.429   5.491 -0.3253 -0.3763 -0.5892
 8894SOL    HW228229   2.747   4.398   5.427 -0.6453 -0.3071  0.0376
 8895SOL     OW28230   4.591   5.915   3.758  0.0236 -0.1724 -0.2315
 8895SOL    HW128231   4.514   5.883   3.806  1.1575 -0.0990  1.7464
 8895SOL    HW228232   4.653   5.842   3.762  0.9057  0.5887  0.2310
 8896SOL     OW28233   1.594   5.463   0.321  0.1667 -0.0740  0.4252
 8896SOL    HW128234   1.579   5.371   0.341 -2.3174  0.0210 -0.5591
 8896SOL    HW228235   1.671   5.464   0.264  0.1836 -1.5478  0.4006
 8897SOL     OW28236   3.697   6.481   6.234  0.4259  0.6648  0.7477
 8897SOL    HW128237   3.740   6.532   6.165 -1.8803  0.7481 -0.7530
 8897SOL    HW228238   3.681   6.544   6.305  0.0987  1.3785  0.0572
 8898SOL     OW28239   6.728   5.426   4.468 -0.3641  0.3778 -0.6517
 8898SOL    HW128240   6.757   5.367   4.538  0.1584 -0.6634 -1.7156
 8898SOL    HW228241   6.640   5.397   4.446  0.2852 -0.7757 -1.9159
 8899SOL     OW28242   1.130   2.112   1.940  0.0252 -0.1003  0.0760
 8899SOL    HW128243   1.175   2.195   1.928 -1.7799  0.9675  0.3381
 8899SOL    HW228244   1.102   2.113   2.032 -2.1729  0.1918 -0.5378
 8900SOL     OW28245   1.031   3.913   0.469 -0.0569 -0.1667  0.5008
 8900SOL    HW128246   0.987   3.838   0.509  0.7133 -1.2561 -0.6217
 8900SOL    HW228247   1.041   3.976   0.540  0.6892 -1.7744  1.8872
 8901SOL     OW28248   3.158   4.604   2.013 -0.4896  0.3986  0.1966
 8901SOL    HW128249   3.151   4.543   2.087 -1.0922 -3.3043 -2.6055
 8901SOL    HW228250   3.071   4.642   2.006 -1.0955 -0.9235  0.1396
 8902SOL     OW28251   1.806   5.117   4.471  0.3568 -0.5654 -0.3820
 8902SOL    HW128252   1.737   5.120   4.405  1.3864  1.2416 -1.4540
 8902SOL    HW228253   1.855   5.198   4.459  0.9144 -0.4000  2.2824
 8903SOL     OW28254   5.814   5.976   0.130  0.6923 -0.4077  0.0980
 8903SOL    HW128255   5.835   5.890   0.095  0.6870 -0.7026  0.8011
 8903SOL    HW228256   5.749   5.960   0.198 -0.3493  0.3052 -0.7123
 8904SOL     OW28257   2.822   6.286   0.468 -0.4567 -0.0714 -0.9154
 8904SOL    HW128258   2.784   6.369   0.496 -0.8663  0.0605 -1.8117
 8904SOL    HW228259   2.795   6.277   0.376 -1.4811 -1.7736 -0.5080
 8905SOL     OW28260   5.460   1.205   2.153  0.6829  0.2370 -0.0233
 8905SOL    HW128261   5.377   1.170   2.120 -0.8913  3.2648  0.4364
 8905SOL    HW228262   5.502   1.244   2.076  1.1544 -0.2445 -0.0211
 8906SOL     OW28263   2.881   2.974   3.417 -0.0791  0.4239 -0.0445
 8906SOL    HW128264   2.960   2.969   3.364 -0.4089  0.7085 -0.5675
 8906SOL    HW228265   2.911   2.960   3.507  0.6459  1.1461 -0.1697
 8907SOL     OW28266   2.864   2.804   3.962  0.2373  0.3902  0.0701
 8907SOL    HW128267   2.951   2.840   3.981  0.6842 -1.0348  0.8531
 8907SOL    HW228268   2.806   2.846   4.026  0.7753 -0.3420  1.0684
 8908SOL     OW28269   4.930   1.151   6.469  0.0489 -0.3270  0.2282
 8908SOL    HW128270   4.872   1.220   6.436 -0.3925 -0.7296  0.1482
 8908SOL    HW228271   4.889   1.122   6.550  2.2098  2.0839  2.3277
 8909SOL     OW28272   3.011   2.354   4.470 -0.2355  0.6343  0.6530
 8909SOL    HW128273   3.102   2.357   4.500  0.0829 -1.3654  0.0240
 8909SOL    HW228274   3.004   2.271   4.423 -2.9661 -0.3336  2.5734
 8910SOL     OW28275   4.784   3.463   1.143  0.8671 -0.0342 -0.5459
 8910SOL    HW128276   4.803   3.547   1.185 -0.6284  0.2885 -0.4704
 8910SOL    HW228277   4.716   3.424   1.197 -1.4025  0.5729 -2.8038
 8911SOL     OW28278   3.601   0.665   3.704 -0.2674 -0.0021  0.3925
 8911SOL    HW128279   3.669   0.691   3.643  0.1761 -0.6510  0.5970
 8911SOL    HW228280   3.621   0.712   3.785 -1.2819  1.4367 -0.1606
 8912SOL     OW28281   2.823   4.638   3.203  0.1132 -0.4581 -0.4403
 8912SOL    HW128282   2.902   4.650   3.150  0.4410  1.2941  0.3694
 8912SOL    HW228283   2.852   4.589   3.279  0.8531  1.6145  0.6824
 8913SOL     OW28284   3.896   4.456   4.919 -0.1118 -0.4272  0.0101
 8913SOL    HW128285   3.969   4.394   4.914  1.5026  1.4074 -0.2682
 8913SOL    HW228286   3.875   4.460   5.013  0.8748 -0.2150  0.2416
 8914SOL     OW28287   2.348   5.760   4.641 -0.0455  0.7305  0.2141
 8914SOL    HW128288   2.429   5.741   4.593  0.1155  1.9297 -0.0096
 8914SOL    HW228289   2.294   5.682   4.628  1.9960 -1.2024  2.4641
 8915SOL     OW28290   2.423   1.906   2.816  0.3559 -0.2599  0.2206
 8915SOL    HW128291   2.427   1.956   2.735  0.2063 -0.1201  0.2990
 8915SOL    HW228292   2.330   1.892   2.832  0.3901 -0.4105  0.2917
 8916SOL     OW28293   2.866   0.708   4.081  0.7988 -0.3256  0.3715
 8916SOL    HW128294   2.776   0.719   4.051  0.9835  1.9980  0.4429
 8916SOL    HW228295   2.858   0.691   4.175  0.4116 -1.7646  0.0951
 8917SOL     OW28296   5.417   3.984   3.168  0.2170  0.1672  0.2188
 8917SOL    HW128297   5.467   3.903   3.168  0.6002  0.3954 -0.3843
 8917SOL    HW228298   5.333   3.960   3.206  0.7837 -0.2175  1.2603
 8918SOL     OW28299   5.039   2.868   3.764 -0.0397  0.3228  0.1244
 8918SOL    HW128300   5.113   2.907   3.810  2.5191 -1.5779 -2.0555
 8918SOL    HW228301   5.015   2.933   3.698  2.1572 -0.3839 -1.4763
 8919SOL     OW28302   5.243   1.321   4.593  0.5600 -0.2750  0.3417
 8919SOL    HW128303   5.338   1.310   4.593  0.6787  0.6118 -0.7619
 8919SOL    HW228304   5.228   1.411   4.621  0.0334 -0.4441  0.6289
 8920SOL     OW28305   0.514   2.531   1.846  0.0567  1.1675 -0.1653
 8920SOL    HW128306   0.510   2.436   1.859  0.9776  0.8738 -1.7611
 8920SOL    HW228307   0.607   2.548   1.828  0.0056  2.4732  0.6636
 8921SOL     OW28308   6.499   5.005   1.934  0.1680 -0.0649 -0.4743
 8921SOL    HW128309   6.484   5.091   1.974 -0.4173  0.2809 -1.3955
 8921SOL    HW228310   6.481   4.943   2.004  1.2207  0.5768  0.3840
 8922SOL     OW28311   6.235   6.366   4.963  0.2089 -0.3624 -0.1661
 8922SOL    HW128312   6.218   6.379   4.869  0.7357 -3.1985 -0.7472
 8922SOL    HW228313   6.319   6.408   4.978  0.3891 -0.3650 -1.1072
 8923SOL     OW28314   0.260   0.567   1.779 -0.4421  0.3039  0.2096
 8923SOL    HW128315   0.252   0.657   1.749  0.5787  0.3900  0.1589
 8923SOL    HW228316   0.170   0.540   1.797 -0.6940  1.6509  1.1478
 8924SOL     OW28317   3.292   0.720   3.456  0.1974  0.0076  0.3412
 8924SOL    HW128318   3.203   0.748   3.434  0.2411 -0.5951 -0.6755
 8924SOL    HW228319   3.328   0.686   3.374  0.7276 -1.4446  1.1215
 8925SOL     OW28320   4.087   2.951   0.700 -0.7506 -0.7113 -0.0265
 8925SOL    HW128321   4.057   2.878   0.646 -0.1435  0.4668 -2.0579
 8925SOL    HW228322   4.068   3.029   0.648  1.2144  0.3939  0.8000
 8926SOL     OW28323   6.263   0.090   1.444 -0.2424  0.1028 -0.3225
 8926SOL    HW128324   6.200   0.072   1.514 -0.7384  0.8046 -0.5697
 8926SOL    HW228325   6.297   0.177   1.465  1.6100 -0.7605  0.5006
 8927SOL     OW28326   6.020   6.539   2.823  0.1595 -0.1988  0.2101
 8927SOL    HW128327   5.998   6.446   2.827 -0.8486 -0.0315 -0.9260
 8927SOL    HW228328   6.007   6.563   2.732  2.9032  0.4878 -0.0803
 8928SOL     OW28329   0.247   1.585   4.904 -0.6842 -0.5862 -0.2463
 8928SOL    HW128330   0.205   1.595   4.990  1.3861  2.1086  0.5771
 8928SOL    HW228331   0.173   1.579   4.843 -2.4600  3.1950  1.1782
 8929SOL     OW28332   0.659   3.077   6.393 -0.0724 -0.2373 -0.1976
 8929SOL    HW128333   0.601   3.140   6.436  2.1061  0.5181  1.8721
 8929SOL    HW228334   0.738   3.127   6.372 -0.4432 -0.9586 -3.9238
 8930SOL     OW28335   5.737   3.958   0.438  0.0289 -0.1162  0.3478
 8930SOL    HW128336   5.717   4.024   0.503 -1.0991 -0.0296 -0.0503
 8930SOL    HW228337   5.677   3.886   0.458  0.0749 -0.3228 -0.2227
 8931SOL     OW28338   0.254   2.279   2.253  0.3037  0.0235 -0.1444
 8931SOL    HW128339   0.337   2.319   2.278  0.8387 -0.1436 -1.5632
 8931SOL    HW228340   0.279   2.199   2.206 -0.6888 -0.5658  0.2809
 8932SOL     OW28341   2.903   3.749   3.639 -0.4864 -0.3567  0.0225
 8932SOL    HW128342   2.976   3.717   3.586  1.4230  2.7682  0.4410
 8932SOL    HW228343   2.914   3.707   3.724 -0.0556 -1.0459 -0.3698
 8933SOL     OW28344   1.000   4.604   2.144 -0.7247 -0.0386  0.1211
 8933SOL    HW128345   0.944   4.542   2.191  1.2842 -1.1493  1.1274
 8933SOL    HW228346   1.039   4.658   2.212 -0.4965  0.6800 -0.5684
 8934SOL     OW28347   4.103   2.037   1.502  0.0879  0.4662 -0.1884
 8934SOL    HW128348   4.021   1.993   1.481  0.1824  0.4495 -0.5274
 8934SOL    HW228349   4.077   2.124   1.533 -0.1756 -0.2014  1.5927
 8935SOL     OW28350   2.445   5.328   3.185  0.3401 -0.2716  0.1225
 8935SOL    HW128351   2.381   5.396   3.161  1.5750  0.3577 -1.6235
 8935SOL    HW228352   2.489   5.362   3.263 -0.4024 -0.0042  0.4358
 8936SOL     OW28353   0.893   3.926   2.147  0.0773 -0.0962  0.1138
 8936SOL    HW128354   0.959   3.873   2.103 -0.0199  0.3121 -0.5508
 8936SOL    HW228355   0.918   4.016   2.128 -0.7866  0.0629 -0.3500
 8937SOL     OW28356   2.645   4.468   6.575 -0.3724 -0.1672 -0.2070
 8937SOL    HW128357   2.563   4.422   6.592  0.7083 -1.6099  1.4536
 8937SOL    HW228358   2.700   4.404   6.528 -0.2203  0.8359 -1.4616
 8938SOL     OW28359   4.747   3.043   5.080  0.2966  0.6354 -0.0209
 8938SOL    HW128360   4.787   2.989   5.011 -0.5062  0.2952 -0.2291
 8938SOL    HW228361   4.812   3.042   5.151  0.4257 -0.3906 -0.1271
 8939SOL     OW28362   3.286   3.818   1.580 -0.3679  0.3450 -0.3634
 8939SOL    HW128363   3.319   3.881   1.645 -3.0741 -0.0426  1.5538
 8939SOL    HW228364   3.362   3.764   1.560  0.7659  0.8630  2.0579
 8940SOL     OW28365   4.414   4.591   5.776  0.2116  0.2766 -0.0238
 8940SOL    HW128366   4.471   4.515   5.764 -0.4427 -0.1110 -0.8396
 8940SOL    HW228367   4.330   4.553   5.805 -0.5165  0.5371 -1.6656
 8941SOL     OW28368   4.189   5.634   1.525 -0.0495  0.2485  0.1523
 8941SOL    HW128369   4.276   5.672   1.539  0.0186  0.5295 -0.9389
 8941SOL    HW228370   4.203   5.566   1.458 -0.4558 -0.5989  0.9030
 8942SOL     OW28371   1.185   5.792   1.640  0.1004  0.0387  0.0762
 8942SOL    HW128372   1.179   5.815   1.733 -1.6665 -1.9151  0.5198
 8942SOL    HW228373   1.097   5.805   1.606  0.6108  0.2368 -1.2164
 8943SOL     OW28374   1.074   3.326   6.727 -0.4466 -0.4546  0.5127
 8943SOL    HW128375   1.018   3.259   6.688 -0.0513  0.0934 -1.0441
 8943SOL    HW228376   1.163   3.297   6.710 -0.2306  1.1838 -1.6350
 8944SOL     OW28377   6.691   0.299   1.174 -0.4188  0.4226 -0.1078
 8944SOL    HW128378   6.667   0.388   1.201  0.1172  1.2621 -2.1961
 8944SOL    HW228379   6.785   0.294   1.191 -0.9165 -0.9666  3.0093
 8945SOL     OW28380   2.780   3.318   4.647  0.0165 -0.1048  0.5044
 8945SOL    HW128381   2.715   3.249   4.633  1.2585 -1.5152  1.3756
 8945SOL    HW228382   2.780   3.368   4.565 -2.3345  0.1378  0.5830
 8946SOL     OW28383   6.170   3.317   4.702 -0.0098 -0.3877  0.3320
 8946SOL    HW128384   6.141   3.267   4.625  1.9781  0.1899 -0.8752
 8946SOL    HW228385   6.134   3.404   4.688  0.3989 -0.2669 -0.0036
 8947SOL     OW28386   4.741   6.210   1.997  0.4926  0.0709  0.4923
 8947SOL    HW128387   4.799   6.262   1.942  0.1138  1.3446  1.2558
 8947SOL    HW228388   4.671   6.270   2.023 -0.5716 -1.1210  0.5087
 8948SOL     OW28389   1.329   1.706   2.781 -0.2229  0.5055 -0.1798
 8948SOL    HW128390   1.268   1.768   2.821 -0.8915 -0.3370  0.1394
 8948SOL    HW228391   1.324   1.726   2.687 -1.6030 -0.0512 -0.2584
 8949SOL     OW28392   6.016   1.384   6.730  0.0553 -0.2546 -0.0364
 8949SOL    HW128393   5.996   1.322   6.661 -1.2780 -0.0936  0.1901
 8949SOL    HW228394   5.962   1.357   6.804  2.6842 -1.4761  1.5972
 8950SOL     OW28395   0.711   2.339   5.772 -0.3933 -0.5457 -0.8699
 8950SOL    HW128396   0.650   2.398   5.727  0.2409  0.1820 -0.7839
 8950SOL    HW228397   0.796   2.380   5.762 -0.1152 -0.8345  0.2413
 8951SOL     OW28398   3.763   4.513   6.238 -0.3986  0.0160 -0.6404
 8951SOL    HW128399   3.764   4.508   6.333 -0.2885  1.9402 -0.4959
 8951SOL    HW228400   3.848   4.479   6.210 -1.0059 -1.9926 -0.1890
 8952SOL     OW28401   2.010   4.437   2.387 -0.7170  0.0039 -0.4249
 8952SOL    HW128402   1.960   4.514   2.357 -1.1868  0.1178  0.5970
 8952SOL    HW228403   1.957   4.401   2.458  1.0228  0.6124  1.2891
 8953SOL     OW28404   3.767   4.371   1.818  0.1395  0.6056 -0.0605
 8953SOL    HW128405   3.825   4.297   1.802  1.2807  1.8949 -2.2253
 8953SOL    HW228406   3.679   4.335   1.807  0.6170 -0.6501  0.0392
 8954SOL     OW28407   1.617   5.928   5.615 -0.3341 -0.8145  0.2204
 8954SOL    HW128408   1.571   5.849   5.584 -0.3844 -0.4965 -0.5512
 8954SOL    HW228409   1.549   5.980   5.657 -0.3059 -1.1710  0.7149
 8955SOL     OW28410   1.788   3.233   2.641 -0.0040 -0.3934 -0.0166
 8955SOL    HW128411   1.826   3.281   2.568 -0.8893  0.2338 -0.0819
 8955SOL    HW228412   1.786   3.296   2.713  1.1960 -1.1094  0.6744
 8956SOL     OW28413   2.716   5.369   4.607 -0.1576  0.1147  0.0261
 8956SOL    HW128414   2.700   5.294   4.664 -0.6224  0.5042  0.4117
 8956SOL    HW228415   2.672   5.442   4.650  2.4197  1.1881  0.9870
 8957SOL     OW28416   3.086   4.161   2.436  0.4447  0.1361 -0.1045
 8957SOL    HW128417   3.109   4.097   2.503 -0.8982 -1.8267 -1.3841
 8957SOL    HW228418   3.147   4.144   2.364  0.6481  0.8982 -0.1140
 8958SOL     OW28419   5.395   0.858   1.821  0.4440 -0.0142  0.6844
 8958SOL    HW128420   5.387   0.929   1.884  1.3345  1.2921 -0.6107
 8958SOL    HW228421   5.482   0.870   1.783 -0.3204 -0.3386 -1.2501
 8959SOL     OW28422   3.036   5.215   6.572  0.9576 -0.0407  0.2297
 8959SOL    HW128423   3.029   5.124   6.545 -0.3866  0.5396 -1.5502
 8959SOL    HW228424   3.099   5.214   6.644  0.0566 -2.5345  1.0786
 8960SOL     OW28425   4.781   4.086   2.937  0.5585 -0.2211  0.0695
 8960SOL    HW128426   4.829   4.146   2.993  2.0059  0.2772 -1.6106
 8960SOL    HW228427   4.740   4.142   2.871 -0.4638 -0.8530  0.1385
 8961SOL     OW28428   5.570   1.575   4.783 -1.0119  0.7278  0.6799
 8961SOL    HW128429   5.603   1.662   4.804 -1.6626  1.2931 -0.5238
 8961SOL    HW228430   5.516   1.550   4.858 -0.0731  0.9536  1.4409
 8962SOL     OW28431   5.550   6.030   0.620 -0.2667 -0.1547  0.5765
 8962SOL    HW128432   5.490   6.015   0.547 -2.1735  1.6610  1.6463
 8962SOL    HW228433   5.518   5.973   0.690 -1.2811  1.3372  1.3850
 8963SOL     OW28434   1.482   0.552   3.605 -0.7060  0.1233  0.3066
 8963SOL    HW128435   1.523   0.599   3.531 -1.6751 -0.0588 -0.3736
 8963SOL    HW228436   1.513   0.462   3.597 -0.5325  0.1815  0.3280
 8964SOL     OW28437   5.650   4.841   2.738  0.0572 -0.0580 -0.0889
 8964SOL    HW128438   5.611   4.759   2.769 -0.1223  0.3170  0.6765
 8964SOL    HW228439   5.627   4.906   2.804  0.3392  0.5833 -0.6093
 8965SOL     OW28440   0.294   1.880   1.722 -0.2123  0.3832  0.2170
 8965SOL    HW128441   0.218   1.842   1.677  1.4263 -2.5778 -0.3078
 8965SOL    HW228442   0.345   1.921   1.653  0.4615 -0.9092 -0.0825
 8966SOL     OW28443   3.961   3.834   2.365  0.3956  0.0009 -0.3224
 8966SOL    HW128444   4.016   3.811   2.290  3.1550  1.0146  1.2326
 8966SOL    HW228445   3.976   3.763   2.428 -0.9295 -0.2332 -0.2610
 8967SOL     OW28446   2.236   1.303   2.801  0.3140  0.3563 -0.2446
 8967SOL    HW128447   2.228   1.235   2.735  2.7706 -0.1142 -0.1445
 8967SOL    HW228448   2.236   1.256   2.884 -0.4340  0.7287 -0.0263
 8968SOL     OW28449   3.103   4.257   0.712 -0.8031  0.3329  0.8704
 8968SOL    HW128450   3.138   4.169   0.698  0.1312  0.6012  1.4367
 8968SOL    HW228451   3.119   4.302   0.630 -0.0202  0.3728  1.0330
 8969SOL     OW28452   0.790   1.439   3.416 -0.5912  0.1372 -0.2777
 8969SOL    HW128453   0.827   1.359   3.454 -0.7510 -0.9994 -2.3568
 8969SOL    HW228454   0.862   1.477   3.366 -0.4957  1.3939  0.7475
 8970SOL     OW28455   0.656   4.415   4.479 -0.1129  0.1894 -0.1918
 8970SOL    HW128456   0.740   4.426   4.434 -0.9731  1.5182 -1.5691
 8970SOL    HW228457   0.608   4.496   4.461 -1.7252 -0.5656  0.5004
 8971SOL     OW28458   6.105   6.239   1.449  0.0486  0.0776  0.0531
 8971SOL    HW128459   6.161   6.311   1.479  0.2405 -0.4686  1.0536
 8971SOL    HW228460   6.162   6.185   1.395 -0.4139  1.3064 -1.7381
 8972SOL     OW28461   2.941   2.873   2.910 -0.2034  0.1615 -0.6471
 8972SOL    HW128462   2.851   2.903   2.897  0.1932  1.1166 -1.2723
 8972SOL    HW228463   2.974   2.855   2.822  0.6256  1.0842 -0.5496
 8973SOL     OW28464   4.516   2.399   5.711  0.2298 -0.2761  0.2109
 8973SOL    HW128465   4.494   2.306   5.703 -0.3800 -0.3274  2.0582
 8973SOL    HW228466   4.454   2.444   5.654  1.0304 -1.0242 -1.3153
 8974SOL     OW28467   1.317   3.869   4.724 -0.0218  0.1832 -0.5224
 8974SOL    HW128468   1.266   3.950   4.713  0.3478  0.4890 -0.0286
 8974SOL    HW228469   1.267   3.819   4.789 -0.4676 -0.1740 -1.1288
 8975SOL     OW28470   6.775   3.208   1.231 -0.3466  0.1798 -0.2707
 8975SOL    HW128471   6.827   3.128   1.224  1.6051  1.4039 -0.3974
 8975SOL    HW228472   6.806   3.249   1.312 -2.9046 -0.2083  1.0213
 8976SOL     OW28473   1.536   2.112   6.174  0.0143 -0.4667 -0.5962
 8976SOL    HW128474   1.514   2.122   6.267 -0.3785  2.7278 -0.9184
 8976SOL    HW228475   1.551   2.019   6.163 -2.4468 -1.3391  2.1231
 8977SOL     OW28476   0.904   6.385   4.635  0.0421 -0.1087  0.1183
 8977SOL    HW128477   0.932   6.437   4.560 -1.6247  1.7951  0.7383
 8977SOL    HW228478   0.932   6.436   4.711  2.1296 -2.2310  0.9113
 8978SOL     OW28479   5.502   1.089   1.143  0.1421  0.0118  0.4620
 8978SOL    HW128480   5.446   1.021   1.180 -1.4102  0.7039 -0.5298
 8978SOL    HW228481   5.443   1.162   1.125  1.3970  0.8496 -0.4430
 8979SOL     OW28482   4.653   2.779   0.404 -0.2657  0.3079  0.2581
 8979SOL    HW128483   4.701   2.696   0.409 -1.7221 -0.5018  1.3847
 8979SOL    HW228484   4.562   2.755   0.420 -0.6097  2.2313  1.4335
 8980SOL     OW28485   0.946   4.837   4.042 -0.3437 -0.9511 -0.6296
 8980SOL    HW128486   0.987   4.750   4.044 -0.7803 -1.1992 -1.8605
 8980SOL    HW228487   0.853   4.820   4.057 -0.1223 -0.4175  1.8289
 8981SOL     OW28488   0.323   4.920   3.526  0.4479 -0.1599 -0.6309
 8981SOL    HW128489   0.247   4.943   3.473 -0.4853  0.6479  0.9742
 8981SOL    HW228490   0.319   4.980   3.601  2.4546 -0.3686 -0.3060
 8982SOL     OW28491   6.284   3.657   0.690  0.5913  0.3648  0.7603
 8982SOL    HW128492   6.287   3.564   0.713  1.0533  0.1400 -0.1823
 8982SOL    HW228493   6.317   3.702   0.768 -1.3046 -0.1206  1.9210
 8983SOL     OW28494   1.355   3.067   4.326 -0.0709 -0.5381 -0.7760
 8983SOL    HW128495   1.327   3.132   4.390 -1.8543 -0.8092 -1.2329
 8983SOL    HW228496   1.447   3.052   4.346 -0.0464  0.9169  0.3722
 8984SOL     OW28497   1.485   0.392   6.745 -0.0322 -0.1942  0.0295
 8984SOL    HW128498   1.443   0.451   6.808 -0.4414  0.4654 -0.8475
 8984SOL    HW228499   1.533   0.330   6.800 -0.2116  0.4880  0.9902
 8985SOL     OW28500   4.081   3.066   2.229  0.2598 -1.3191 -0.4116
 8985SOL    HW128501   4.080   3.155   2.196 -0.0986 -0.8976  0.6735
 8985SOL    HW228502   3.993   3.033   2.212 -0.0253 -0.9920  0.3601
 8986SOL     OW28503   5.036   4.174   6.295 -0.0344  0.1033 -0.0028
 8986SOL    HW128504   5.022   4.085   6.261 -1.4519 -0.0355  0.8317
 8986SOL    HW228505   4.966   4.185   6.359 -1.0323  2.5216 -1.4083
 8987SOL     OW28506   4.012   6.443   3.341 -0.2223 -0.6106  0.1457
 8987SOL    HW128507   4.008   6.523   3.394  0.8988 -0.4276 -0.0202
 8987SOL    HW228508   4.081   6.391   3.382 -1.0961 -1.6257  0.3981
 8988SOL     OW28509   2.555   1.074   4.785 -0.3880  0.2798  0.8985
 8988SOL    HW128510   2.480   1.055   4.729 -0.1407  0.1529  0.6037
 8988SOL    HW228511   2.598   1.148   4.743 -0.2036  0.1878  0.9234
 8989SOL     OW28512   2.293   2.743   4.880 -0.2626 -0.5006  0.2061
 8989SOL    HW128513   2.206   2.724   4.913  0.6088  0.5217  3.4793
 8989SOL    HW228514   2.301   2.691   4.800 -3.6087 -1.0428  0.1170
 8990SOL     OW28515   5.174   5.953   2.246  0.3044 -0.2635  0.1614
 8990SOL    HW128516   5.193   5.953   2.152 -0.1724 -1.7951  0.0378
 8990SOL    HW228517   5.260   5.948   2.287  0.4974  0.0012 -0.1977
 8991SOL     OW28518   2.504   6.003   4.425 -0.0673  0.0462  0.0002
 8991SOL    HW128519   2.435   5.989   4.360 -0.3493  0.8091  0.1312
 8991SOL    HW228520   2.576   6.042   4.376  0.0334 -0.1554 -0.0133
 8992SOL     OW28521   0.714   5.370   2.048 -0.2431 -0.5490 -0.1128
 8992SOL    HW128522   0.703   5.278   2.023  1.5138 -1.3884  1.9609
 8992SOL    HW228523   0.808   5.385   2.043 -0.4564  1.0180  0.0778
 8993SOL     OW28524   0.393   3.527   0.536  0.2292 -0.0509  0.0041
 8993SOL    HW128525   0.321   3.516   0.598 -0.6182 -0.7686 -1.0847
 8993SOL    HW228526   0.351   3.549   0.453  1.1671 -1.7126 -0.9540
 8994SOL     OW28527   3.740   6.394   3.202  0.5504 -0.3759  0.2816
 8994SOL    HW128528   3.825   6.438   3.196  0.2790  0.0504 -0.7300
 8994SOL    HW228529   3.677   6.462   3.178  0.1664 -1.4425 -1.9740
 8995SOL     OW28530   1.283   2.661   2.523  0.4149  0.5073 -0.0746
 8995SOL    HW128531   1.263   2.589   2.464  0.6484  0.2429  0.1670
 8995SOL    HW228532   1.276   2.623   2.611  0.7066  0.7348  0.0501
 8996SOL     OW28533   0.329   3.295   5.078 -0.2992  0.2994  0.0326
 8996SOL    HW128534   0.337   3.211   5.033 -1.1339 -0.2136  0.8046
 8996SOL    HW228535   0.415   3.309   5.118 -0.5159 -0.8029  0.9235
 8997SOL     OW28536   5.362   2.262   0.863  0.0593 -0.3293  0.4001
 8997SOL    HW128537   5.425   2.211   0.810  0.3660  1.2717 -0.8606
 8997SOL    HW228538   5.402   2.348   0.870 -1.0908  0.1459  1.3013
 8998SOL     OW28539   6.011   1.398   1.180 -0.0604 -0.0930  0.5774
 8998SOL    HW128540   6.078   1.360   1.123  0.6319  0.8014  0.7690
 8998SOL    HW228541   5.929   1.358   1.150  0.4113 -0.3754 -0.3932
 8999SOL     OW28542   4.983   0.561   1.076 -0.4689  0.2064  0.0916
 8999SOL    HW128543   5.047   0.513   1.024 -1.7415 -0.6835 -0.7194
 8999SOL    HW228544   5.034   0.626   1.124  0.8684  0.5287 -1.6677
 9000SOL     OW28545   3.122   1.563   1.248 -0.3980 -0.0273  0.1777
 9000SOL    HW128546   3.099   1.470   1.249  0.6339 -0.3039 -0.1320
 9000SOL    HW228547   3.089   1.595   1.164 -2.4692  0.3662  1.1032
 9001SOL     OW28548   4.112   2.144   5.421 -0.3145  0.3274 -0.1315
 9001SOL    HW128549   4.158   2.062   5.441 -1.4393  0.1147  1.9216
 9001SOL    HW228550   4.131   2.160   5.329  2.7713 -0.4061  0.2421
 9002SOL     OW28551   6.349   3.340   4.403 -0.9814 -0.4750  0.7910
 9002SOL    HW128552   6.397   3.279   4.459  0.9631  0.1019 -0.1667
 9002SOL    HW228553   6.357   3.424   4.447  0.7590  0.0284 -0.4042
 9003SOL     OW28554   2.658   0.790   6.713 -0.0347  0.3742 -0.5664
 9003SOL    HW128555   2.643   0.791   6.619 -0.2875 -0.7798 -0.5595
 9003SOL    HW228556   2.613   0.868   6.746 -0.3853  0.5057 -1.3379
 9004SOL     OW28557   4.713   1.313   4.397 -0.3359 -0.6806  0.2540
 9004SOL    HW128558   4.784   1.253   4.423  0.0135 -0.2819  0.2375
 9004SOL    HW228559   4.714   1.310   4.301 -0.4655 -0.8211  0.2578
 9005SOL     OW28560   1.867   6.697   2.123 -0.2197  0.1764  0.2442
 9005SOL    HW128561   1.902   6.720   2.208  1.3807 -1.7904  0.1896
 9005SOL    HW228562   1.900   6.765   2.064  2.0786 -0.6293  0.5228
 9006SOL     OW28563   2.886   2.706   5.675 -0.3718 -0.1818 -0.0091
 9006SOL    HW128564   2.948   2.656   5.621 -0.1932  0.1697 -0.1289
 9006SOL    HW228565   2.902   2.797   5.652 -0.6352 -0.0617  0.2799
 9007SOL     OW28566   1.850   2.858   5.094  0.4039  0.1468 -0.1689
 9007SOL    HW128567   1.826   2.837   5.184 -0.1186  0.0482 -0.3316
 9007SOL    HW228568   1.921   2.796   5.074  1.7619  1.3235  0.7542
 9008SOL     OW28569   5.556   3.752   0.448 -0.8374 -0.4946 -0.2437
 9008SOL    HW128570   5.477   3.774   0.399  0.7486 -0.5703 -3.0079
 9008SOL    HW228571   5.570   3.659   0.431  0.6333 -0.1582 -1.0540
 9009SOL     OW28572   0.327   4.576   2.458  0.7204 -0.2386 -0.4518
 9009SOL    HW128573   0.406   4.573   2.404  0.2978  1.2076 -1.2125
 9009SOL    HW228574   0.349   4.525   2.536  2.7398  0.8846 -0.2132
 9010SOL     OW28575   4.755   1.583   0.068  0.2839  0.0625  0.4961
 9010SOL    HW128576   4.752   1.545  -0.020  1.9261  0.6583  0.1505
 9010SOL    HW228577   4.806   1.520   0.120  0.5402  0.3962  0.6528
 9011SOL     OW28578   1.010   6.206   4.133  0.3275  0.5493  0.5899
 9011SOL    HW128579   0.946   6.138   4.112  0.1467  1.1130 -0.7705
 9011SOL    HW228580   0.969   6.257   4.203 -0.7868  0.9930 -0.3621
 9012SOL     OW28581   1.294   2.351   1.921  0.4041  0.3379 -0.0696
 9012SOL    HW128582   1.381   2.370   1.958  0.0836 -1.4522  1.7814
 9012SOL    HW228583   1.305   2.361   1.827  2.6794 -0.0767  0.1035
 9013SOL     OW28584   5.028   3.361   5.160 -0.0513  0.1783  0.0744
 9013SOL    HW128585   5.071   3.300   5.221 -2.1745 -0.1576  1.3266
 9013SOL    HW228586   4.938   3.368   5.192 -0.9375  0.9401 -2.3625
 9014SOL     OW28587   0.133   6.787   6.013 -0.9169  0.3195  0.8564
 9014SOL    HW128588   0.207   6.820   6.064  0.1593 -3.3322  1.9263
 9014SOL    HW228589   0.078   6.742   6.077 -2.8120  0.8288 -0.3290
 9015SOL     OW28590   0.958   0.223   1.921  0.0528  0.0035  0.2129
 9015SOL    HW128591   0.967   0.316   1.904  1.0633 -0.3276 -1.2694
 9015SOL    HW228592   0.930   0.185   1.838 -0.1833 -1.0430  0.7413
 9016SOL     OW28593   0.612   6.786   1.218 -0.3783 -0.5602  0.3073
 9016SOL    HW128594   0.685   6.736   1.255 -1.0921 -2.5696 -0.8325
 9016SOL    HW228595   0.615   6.767   1.124 -1.6797  0.2480  0.0769
 9017SOL     OW28596   5.102   6.596   6.553 -0.6788  0.0903 -0.2864
 9017SOL    HW128597   5.148   6.518   6.520  1.0857  1.0241 -0.1653
 9017SOL    HW228598   5.168   6.665   6.549 -1.1839  0.8733  2.6892
 9018SOL     OW28599   4.210   4.227   2.016 -0.1210 -0.1258 -0.2637
 9018SOL    HW128600   4.269   4.301   2.026 -0.2469 -0.0341 -0.1934
 9018SOL    HW228601   4.232   4.168   2.089  1.4339 -1.1733 -1.5082
 9019SOL     OW28602   2.045   3.816   4.333  0.4283  0.1681  0.1822
 9019SOL    HW128603   2.007   3.797   4.419  2.6029 -0.0137  1.1693
 9019SOL    HW228604   1.974   3.799   4.271 -1.1661  0.1967  1.9163
 9020SOL     OW28605   3.473   1.703   3.588  0.3569  0.4297  0.3022
 9020SOL    HW128606   3.513   1.684   3.503 -0.8462  3.2576 -1.0158
 9020SOL    HW228607   3.489   1.796   3.602 -1.3465  0.5139  2.1641
 9021SOL     OW28608   2.671   3.940   5.041 -0.6039 -0.6130 -0.1667
 9021SOL    HW128609   2.699   3.875   4.976 -1.8322 -0.2390 -1.0998
 9021SOL    HW228610   2.710   3.910   5.123 -0.3654 -2.0024 -0.7640
 9022SOL     OW28611   6.163   3.533   3.308 -0.4273  0.6765  0.3304
 9022SOL    HW128612   6.243   3.582   3.328  0.0893 -0.0448  0.0676
 9022SOL    HW228613   6.180   3.492   3.223 -1.3927  1.1645 -0.1212
 9023SOL     OW28614   0.332   1.950   2.398  0.3280 -0.3081  0.4163
 9023SOL    HW128615   0.368   1.987   2.317 -1.3229 -0.2528 -0.3334
 9023SOL    HW228616   0.357   2.013   2.466  1.2324 -0.0512 -0.1253
 9024SOL     OW28617   3.502   6.259   3.572 -0.2243 -0.2780 -0.0808
 9024SOL    HW128618   3.583   6.295   3.606  0.0593 -0.7065 -0.2926
 9024SOL    HW228619   3.482   6.184   3.628 -0.0185 -0.6856 -0.5394
 9025SOL     OW28620   4.700   5.743   4.759  0.2852 -0.5778  0.4372
 9025SOL    HW128621   4.705   5.710   4.849 -0.7143 -0.4344  0.5621
 9025SOL    HW228622   4.609   5.728   4.733  0.3277  0.2299 -0.2275
 9026SOL     OW28623   4.705   2.657   0.034  0.4854 -0.7319  0.1933
 9026SOL    HW128624   4.719   2.747   0.063  0.5148 -1.2311  1.8551
 9026SOL    HW228625   4.610   2.644   0.039  0.2826 -0.2909 -1.7445
 9027SOL     OW28626   6.496   0.691   5.705 -0.2407 -0.3513 -0.0108
 9027SOL    HW128627   6.465   0.679   5.615  0.4584  0.9913 -0.4497
 9027SOL    HW228628   6.471   0.610   5.749 -0.5964 -1.0404 -1.4082
 9028SOL     OW28629   5.432   1.187   6.587  0.5831 -0.1674  0.2701
 9028SOL    HW128630   5.371   1.257   6.610 -0.4529 -1.2844  1.0662
 9028SOL    HW228631   5.507   1.200   6.645  0.8380  0.8354 -0.2633
 9029SOL     OW28632   4.792   2.933   2.671  0.2366  0.3185 -0.2410
 9029SOL    HW128633   4.860   2.995   2.696 -1.3311  1.3714  1.7027
 9029SOL    HW228634   4.751   2.971   2.593  0.5112  0.7311 -0.1847
 9030SOL     OW28635   4.292   1.593   1.237 -0.0485  0.2292  0.6084
 9030SOL    HW128636   4.349   1.528   1.279  2.2651  0.3610 -2.0271
 9030SOL    HW228637   4.241   1.542   1.174  1.2982  0.7925 -1.0017
 9031SOL     OW28638   6.228   4.060   2.220  0.5166  0.2711  0.6354
 9031SOL    HW128639   6.256   4.088   2.133 -0.0571  1.7815  0.9141
 9031SOL    HW228640   6.200   3.969   2.207  1.0717  0.2487 -0.6083
 9032SOL     OW28641   3.619   5.452   0.077  0.3426  0.2568  0.1086
 9032SOL    HW128642   3.581   5.397   0.146  0.7844  0.9982  0.9699
 9032SOL    HW228643   3.709   5.467   0.106  0.1943  1.5331 -0.0217
 9033SOL     OW28644   3.905   3.756   4.814  0.1670  0.4170 -0.3901
 9033SOL    HW128645   3.985   3.781   4.769 -0.4331 -0.3906 -1.9748
 9033SOL    HW228646   3.931   3.683   4.871  0.9712  1.5723  0.7804
 9034SOL     OW28647   0.419   5.054   4.995 -0.0537 -0.3370  0.0506
 9034SOL    HW128648   0.388   5.092   4.913  0.1555  0.1010  0.1668
 9034SOL    HW228649   0.342   5.054   5.052  0.1269  0.6687  0.3108
 9035SOL     OW28650   2.570   2.317   5.191  0.2038 -0.7737  0.2823
 9035SOL    HW128651   2.563   2.229   5.156 -1.6103  0.1618 -2.0392
 9035SOL    HW228652   2.499   2.324   5.255 -0.0348 -0.8250  0.0229
 9036SOL     OW28653   1.290   4.211   1.441 -0.3824  0.0896 -0.1238
 9036SOL    HW128654   1.331   4.154   1.507  0.0705  0.6116  0.0471
 9036SOL    HW228655   1.245   4.150   1.382 -1.3144 -0.3606  1.0029
 9037SOL     OW28656   5.129   0.714   4.701 -0.0199  0.0166  0.3038
 9037SOL    HW128657   5.201   0.771   4.673 -0.2693 -0.0358 -0.4682
 9037SOL    HW228658   5.116   0.736   4.793 -0.0157  1.1137  0.0623
 9038SOL     OW28659   0.801   5.467   0.794 -0.0990  0.1713  0.7044
 9038SOL    HW128660   0.773   5.482   0.884 -0.4906  1.2801  0.4014
 9038SOL    HW228661   0.884   5.514   0.787 -1.2579  2.1972 -0.1984
 9039SOL     OW28662   4.999   4.655   2.668 -0.2790 -1.1525  0.0554
 9039SOL    HW128663   4.940   4.712   2.717 -0.2709 -0.5947 -0.5709
 9039SOL    HW228664   5.081   4.659   2.717 -0.1091 -0.1694 -0.2719
 9040SOL     OW28665   1.127   3.441   0.905 -0.0517 -0.1943 -0.2968
 9040SOL    HW128666   1.188   3.397   0.846  1.0324  1.6594 -0.6451
 9040SOL    HW228667   1.182   3.475   0.975 -1.1379 -1.1630  1.0897
 9041SOL     OW28668   5.614   1.711   0.527  0.0520  0.4692 -0.5721
 9041SOL    HW128669   5.546   1.777   0.542 -0.7050 -0.6855  1.4498
 9041SOL    HW228670   5.660   1.703   0.610 -0.2654 -1.9295 -0.5406
 9042SOL     OW28671   4.503   5.078   1.939 -0.1080 -0.7116 -0.8018
 9042SOL    HW128672   4.544   5.116   1.862  1.5034 -2.1469 -0.7214
 9042SOL    HW228673   4.475   4.991   1.911  1.4309 -1.6638  0.4295
 9043SOL     OW28674   1.624   3.655   3.272  0.3069  0.1299 -0.0430
 9043SOL    HW128675   1.677   3.592   3.320 -1.2757  1.8815  4.6918
 9043SOL    HW228676   1.534   3.623   3.282 -0.2128  1.3220 -0.6794
 9044SOL     OW28677   0.395   3.808   5.639  0.5823  0.2547  0.3807
 9044SOL    HW128678   0.309   3.794   5.602  0.7362  0.8771 -0.2308
 9044SOL    HW228679   0.447   3.733   5.611 -0.2633 -1.1877  2.4215
 9045SOL     OW28680   1.112   0.744   2.161 -0.2688  0.2559  0.0011
 9045SOL    HW128681   1.189   0.787   2.199 -0.0763  0.9441 -1.1355
 9045SOL    HW228682   1.130   0.650   2.171  0.2156  0.4165  0.7169
 9046SOL     OW28683   3.414   2.816   3.524 -0.2576  0.1498  0.2792
 9046SOL    HW128684   3.431   2.898   3.480 -0.9714  0.4040  0.4535
 9046SOL    HW228685   3.369   2.762   3.459 -0.0192 -0.0053  0.2436
 9047SOL     OW28686   5.780   1.128   2.029 -0.0958 -0.1721  0.6356
 9047SOL    HW128687   5.863   1.147   1.984  0.3932  0.6890  1.8568
 9047SOL    HW228688   5.738   1.213   2.039 -0.6082 -0.4667  1.0147
 9048SOL     OW28689   6.559   1.082   5.600  0.1407  0.0243  0.5190
 9048SOL    HW128690   6.625   1.146   5.626 -0.1447 -0.1518  1.7441
 9048SOL    HW228691   6.531   1.042   5.682 -0.3844 -0.9884 -0.1372
 9049SOL     OW28692   4.016   5.690   3.380 -0.3601 -0.4228  0.1223
 9049SOL    HW128693   4.062   5.768   3.351 -0.3374 -0.6531 -0.4852
 9049SOL    HW228694   3.948   5.722   3.440  0.0879 -0.0088  0.4122
 9050SOL     OW28695   4.721   3.140   4.281 -0.0143  0.0600 -0.1407
 9050SOL    HW128696   4.697   3.146   4.189  1.6298 -0.4949 -0.6504
 9050SOL    HW228697   4.786   3.210   4.293  1.6947 -1.4399 -0.1165
 9051SOL     OW28698   1.596   2.760   4.379  0.4712  0.1494 -0.1047
 9051SOL    HW128699   1.619   2.701   4.307  0.5832  0.5578 -0.4106
 9051SOL    HW228700   1.654   2.835   4.367 -1.7270  1.7619 -1.6116
 9052SOL     OW28701   5.800   4.435   2.564 -0.0805 -0.3004  0.1119
 9052SOL    HW128702   5.830   4.355   2.521 -1.4314 -1.9772  2.0950
 9052SOL    HW228703   5.705   4.436   2.550 -0.1097  0.8678  0.2763
 9053SOL     OW28704   0.163   0.271   1.242 -0.0657  0.2160  0.1083
 9053SOL    HW128705   0.245   0.263   1.290 -0.4431  0.1630  0.7593
 9053SOL    HW228706   0.173   0.213   1.166  1.0654  1.3603 -0.6440
 9054SOL     OW28707   3.443   6.234   0.162  0.9167  0.1792  0.3030
 9054SOL    HW128708   3.371   6.182   0.198 -1.1148  1.6750 -1.3373
 9054SOL    HW228709   3.493   6.172   0.110  0.9027 -0.9198  1.5400
 9055SOL     OW28710   3.099   4.564   3.554  0.2813 -0.1999  0.4284
 9055SOL    HW128711   3.021   4.611   3.584  1.0795  1.0120  0.6310
 9055SOL    HW228712   3.064   4.486   3.510 -1.0848  0.8490 -0.3983
 9056SOL     OW28713   6.160   1.509   4.889  0.3135 -0.6855 -0.2681
 9056SOL    HW128714   6.185   1.436   4.946 -0.5955 -2.5383 -2.0962
 9056SOL    HW228715   6.223   1.578   4.910  0.3100 -1.4162  2.5785
 9057SOL     OW28716   2.805   4.081   0.486 -0.2893  0.4221  0.1224
 9057SOL    HW128717   2.889   4.099   0.445  0.5574 -0.0162  1.5831
 9057SOL    HW228718   2.762   4.166   0.492  1.7274  1.4034  2.8397
 9058SOL     OW28719   5.579   2.896   1.557 -0.4260 -0.0368 -0.2423
 9058SOL    HW128720   5.675   2.901   1.554 -0.0047 -4.3289 -1.6553
 9058SOL    HW228721   5.551   2.934   1.474  0.1557  0.0442 -0.4100
 9059SOL     OW28722   4.683   2.766   2.023  0.3665 -0.5435  0.2678
 9059SOL    HW128723   4.671   2.795   2.114  2.2692 -0.5908  0.5833
 9059SOL    HW228724   4.668   2.671   2.026 -1.9667 -0.2307  0.0155
 9060SOL     OW28725   1.463   5.957   2.919  0.9558 -0.1802  0.5401
 9060SOL    HW128726   1.556   5.960   2.939  0.9040  1.3468  0.7287
 9060SOL    HW228727   1.420   5.960   3.005  0.7613  2.0523  0.4400
 9061SOL     OW28728   4.679   3.819   0.987  0.3409  0.0146 -0.6955
 9061SOL    HW128729   4.764   3.776   0.982 -0.8060 -2.3293 -3.3613
 9061SOL    HW228730   4.643   3.792   1.071  1.0593 -1.4340 -0.8287
 9062SOL     OW28731   0.213   3.368   5.835 -0.6844  0.2507 -0.7256
 9062SOL    HW128732   0.291   3.390   5.784  0.6042  1.5049  1.5986
 9062SOL    HW228733   0.158   3.318   5.775  1.3212  0.4361 -2.8576
 9063SOL     OW28734   4.693   2.139   5.247  0.1283 -0.2378  0.1621
 9063SOL    HW128735   4.641   2.065   5.214 -0.5047 -0.0451  0.6925
 9063SOL    HW228736   4.721   2.186   5.169 -1.9634  0.6401 -0.1284
 9064SOL     OW28737   6.203   3.293   2.740 -0.1208  0.3158  0.2269
 9064SOL    HW128738   6.165   3.380   2.741 -0.9270  0.0579 -2.1047
 9064SOL    HW228739   6.128   3.234   2.745  0.3080 -0.2387  0.2202
 9065SOL     OW28740   1.997   3.327   6.417 -0.6012  0.8749  0.1814
 9065SOL    HW128741   2.059   3.258   6.442  0.1514  1.1994 -0.7413
 9065SOL    HW228742   1.931   3.325   6.486 -0.9436 -1.1820 -0.1309
 9066SOL     OW28743   3.782   4.931   1.100 -0.0404 -0.3453  0.1607
 9066SOL    HW128744   3.744   4.948   1.013  0.5498 -1.0804 -0.2578
 9066SOL    HW228745   3.852   4.996   1.108 -0.3162 -0.0563  0.2297
 9067SOL     OW28746   5.729   3.246   0.700  0.0970 -0.0353 -0.8877
 9067SOL    HW128747   5.680   3.193   0.638 -1.0801  0.3718 -0.3270
 9067SOL    HW228748   5.673   3.322   0.717  0.3578 -0.1665  0.7127
 9068SOL     OW28749   3.331   4.894   0.970 -0.2457  0.1742 -0.2008
 9068SOL    HW128750   3.237   4.891   0.986 -0.3240 -0.6499 -0.7438
 9068SOL    HW228751   3.363   4.963   1.028 -1.1132  0.1482  0.3317
 9069SOL     OW28752   2.358   6.501   2.024 -0.4076 -0.2194  0.6768
 9069SOL    HW128753   2.280   6.460   1.986 -1.2303  1.5501  0.3629
 9069SOL    HW228754   2.328   6.587   2.053  1.5953  0.8025 -0.1191
 9070SOL     OW28755   6.745   3.874   3.540  0.5757  0.4429  0.0559
 9070SOL    HW128756   6.831   3.863   3.499  0.4255 -1.7396  0.2369
 9070SOL    HW228757   6.688   3.812   3.494  0.2781 -1.7807  3.1359
 9071SOL     OW28758   5.709   2.078   0.231  0.0051  0.6987 -0.6898
 9071SOL    HW128759   5.767   2.002   0.234 -0.7236  0.1413 -0.2822
 9071SOL    HW228760   5.764   2.151   0.260  0.7012  0.3234 -1.0294
 9072SOL     OW28761   3.051   1.653   2.654 -0.1472 -0.1652  0.0883
 9072SOL    HW128762   3.003   1.644   2.736 -0.4332 -1.2178 -0.1771
 9072SOL    HW228763   2.986   1.687   2.592 -0.4221 -1.1083 -0.1465
 9073SOL     OW28764   0.978   3.805   5.482  0.3969  0.5381 -0.4824
 9073SOL    HW128765   0.903   3.776   5.430  1.3136 -0.9302 -1.0414
 9073SOL    HW228766   0.949   3.887   5.522 -1.5017 -0.0085 -0.6603
 9074SOL     OW28767   6.716   6.311   5.177  0.0320  0.3959 -0.1900
 9074SOL    HW128768   6.727   6.233   5.232  1.4298  0.0827 -0.8551
 9074SOL    HW228769   6.674   6.375   5.234  0.3077 -0.3262  0.8604
 9075SOL     OW28770   1.730   3.523   1.206  0.2421 -0.5199  0.0836
 9075SOL    HW128771   1.697   3.613   1.199 -0.3861 -0.8475 -1.8910
 9075SOL    HW228772   1.662   3.477   1.255  0.9385  0.2173  1.8053
 9076SOL     OW28773   0.420   2.640   6.283  0.6008 -0.2873  0.3238
 9076SOL    HW128774   0.477   2.706   6.323  1.7606 -0.1995 -1.3661
 9076SOL    HW228775   0.473   2.560   6.282  0.2319 -0.5310 -0.1362
 9077SOL     OW28776   4.827   5.327   0.458  0.1126 -0.1102 -0.0600
 9077SOL    HW128777   4.787   5.398   0.408 -1.2925  0.4587  1.7384
 9077SOL    HW228778   4.920   5.347   0.458 -0.2298  1.6206  0.1929
 9078SOL     OW28779   6.458   4.734   2.924 -0.2210  0.0255 -0.5068
 9078SOL    HW128780   6.405   4.660   2.893  2.2409 -1.8591 -0.4886
 9078SOL    HW228781   6.539   4.728   2.875  1.5602  0.4132  2.1734
 9079SOL     OW28782   3.974   4.971   3.895 -0.2562  0.6796 -0.1961
 9079SOL    HW128783   3.919   4.917   3.952 -1.0874  1.4665 -0.2462
 9079SOL    HW228784   3.970   4.928   3.810  1.4115 -0.8087  0.3978
 9080SOL     OW28785   2.781   6.308   0.194  0.0226 -0.5310 -0.2187
 9080SOL    HW128786   2.822   6.341   0.114  0.0685 -1.7038 -0.7058
 9080SOL    HW228787   2.687   6.306   0.174 -0.3864  2.4160  0.9932
 9081SOL     OW28788   1.924   1.184   3.286  0.6184 -0.0617 -0.5460
 9081SOL    HW128789   1.944   1.229   3.204  0.8481 -1.7778 -1.4849
 9081SOL    HW228790   2.003   1.195   3.339 -0.0446  2.2521  0.0644
 9082SOL     OW28791   6.675   5.683   6.769 -0.0703  0.1382  0.0976
 9082SOL    HW128792   6.669   5.599   6.814  1.1272  0.1527  0.3159
 9082SOL    HW228793   6.664   5.748   6.838  0.5214  0.1543  0.1855
 9083SOL     OW28794   4.052   1.213   1.280  0.1155 -0.0058  0.4540
 9083SOL    HW128795   3.991   1.201   1.207 -1.8692  2.1613  1.6361
 9083SOL    HW228796   4.067   1.307   1.285  0.5093 -0.1179  2.5688
 9084SOL     OW28797   2.629   6.006   3.259  0.1086 -0.0597 -0.1638
 9084SOL    HW128798   2.601   5.963   3.340  0.8144  0.7599  0.5363
 9084SOL    HW228799   2.705   5.956   3.230 -0.7391 -0.9621 -0.8817
 9085SOL     OW28800   0.940   0.507   2.653  0.2733 -0.4134 -0.4463
 9085SOL    HW128801   0.914   0.556   2.731  0.1819 -2.3706  0.8323
 9085SOL    HW228802   1.027   0.472   2.674  0.4562 -0.5730 -1.4149
 9086SOL     OW28803   3.833   1.002   4.744  0.4469 -0.4620 -0.4003
 9086SOL    HW128804   3.844   0.913   4.710 -2.8152 -1.2205  0.2196
 9086SOL    HW228805   3.778   0.992   4.822  2.2500  1.8791  1.3481
 9087SOL     OW28806   0.222   1.447   6.549  0.2319  0.2088  0.2134
 9087SOL    HW128807   0.163   1.397   6.604 -0.9329  0.2337 -0.9777
 9087SOL    HW228808   0.170   1.470   6.472  0.8610  2.8343  0.4807
 9088SOL     OW28809   0.863   3.015   4.768  0.4020 -0.0677  0.1223
 9088SOL    HW128810   0.820   3.017   4.683  0.9383  0.6522 -0.1371
 9088SOL    HW228811   0.822   3.087   4.817  1.1821  0.5223 -0.0735
 9089SOL     OW28812   5.397   5.320   5.104 -0.0806 -0.5010 -0.4088
 9089SOL    HW128813   5.324   5.308   5.044  0.4560 -1.4522 -0.8938
 9089SOL    HW228814   5.377   5.401   5.151 -0.8321 -0.1053 -1.3936
 9090SOL     OW28815   5.381   3.565   3.537 -0.8623 -0.2361  0.0572
 9090SOL    HW128816   5.473   3.550   3.560 -0.4102  0.6340 -1.1105
 9090SOL    HW228817   5.361   3.651   3.574 -0.8182  0.1440 -0.7969
 9091SOL     OW28818   5.007   2.393   5.237  0.0092 -0.0419  0.0382
 9091SOL    HW128819   5.020   2.346   5.320 -2.0309  1.2931  1.2092
 9091SOL    HW228820   4.990   2.483   5.264  1.6366  0.9535 -2.0168
 9092SOL     OW28821   3.726   1.054   3.073 -0.4105  0.2852 -0.0478
 9092SOL    HW128822   3.729   1.069   3.168  0.2888  2.1953 -0.3228
 9092SOL    HW228823   3.779   1.124   3.036 -0.1989 -0.7532 -1.8483
 9093SOL     OW28824   6.533   6.108   1.939 -0.1055  0.0103  0.2847
 9093SOL    HW128825   6.499   6.077   1.855  1.7290 -0.5196 -0.2980
 9093SOL    HW228826   6.502   6.198   1.946 -0.2593  0.0702 -0.9701
 9094SOL     OW28827   6.365   2.968   0.360  0.1612  0.2926  0.6329
 9094SOL    HW128828   6.458   2.956   0.341  0.3029  0.4911  1.1844
 9094SOL    HW228829   6.358   2.956   0.455 -0.6462 -1.4614  0.3845
 9095SOL     OW28830   1.883   6.562   5.779 -0.2757  0.1313  0.1751
 9095SOL    HW128831   1.788   6.564   5.763 -0.2067  1.8540 -0.2546
 9095SOL    HW228832   1.910   6.653   5.769  1.0263  0.1064  2.7768
 9096SOL     OW28833   5.685   2.053   1.973 -0.2193  0.4995  0.2189
 9096SOL    HW128834   5.773   2.085   1.955  0.0449  0.1298  0.8503
 9096SOL    HW228835   5.650   2.029   1.887 -0.0863  1.6013 -0.1568
 9097SOL     OW28836   3.076   1.697   3.400 -0.3772 -0.0854  0.0119
 9097SOL    HW128837   3.134   1.769   3.374 -1.0712  0.7842  0.8257
 9097SOL    HW228838   2.988   1.734   3.396 -0.7286 -0.8188  0.6731
 9098SOL     OW28839   2.695   2.159   3.423  0.1502 -0.1757  0.0251
 9098SOL    HW128840   2.688   2.101   3.499  0.9071 -1.0710 -0.5660
 9098SOL    HW228841   2.745   2.108   3.359 -2.0022 -0.1594 -1.7816
 9099SOL     OW28842   0.717   3.631   4.884 -0.1565  0.3219  0.0046
 9099SOL    HW128843   0.649   3.642   4.951 -1.8272 -0.6202 -1.4380
 9099SOL    HW228844   0.726   3.718   4.845 -0.4753  0.4735  0.2651
 9100SOL     OW28845   2.591   5.799   3.044  0.2142 -0.4617 -0.4460
 9100SOL    HW128846   2.614   5.886   3.076 -0.7898 -0.5990  0.7132
 9100SOL    HW228847   2.660   5.742   3.077 -0.4639 -0.4939  1.0109
 9101SOL     OW28848   5.071   0.932   1.348 -0.6922  0.3843  0.0167
 9101SOL    HW128849   5.072   0.998   1.417 -2.1628  0.7356 -0.2464
 9101SOL    HW228850   5.012   0.864   1.381  1.4212 -1.2552  0.6300
 9102SOL     OW28851   0.073   4.584   0.730 -0.2139  0.3485  1.0377
 9102SOL    HW128852   0.083   4.661   0.785  0.2671  1.8240 -0.9806
 9102SOL    HW228853   0.157   4.575   0.685  0.1135 -2.0339  1.9705
 9103SOL     OW28854   5.045   4.671   3.120 -0.6688  0.3194 -0.0445
 9103SOL    HW128855   5.096   4.696   3.197 -0.2050 -2.8384  0.8249
 9103SOL    HW228856   4.955   4.664   3.152 -0.6708  0.1417 -0.0901
 9104SOL     OW28857   3.724   5.704   4.200 -0.0775  0.0913 -0.1324
 9104SOL    HW128858   3.709   5.624   4.151  0.1086  1.0722 -1.8572
 9104SOL    HW228859   3.819   5.710   4.208  0.0990  1.4932 -2.4646
 9105SOL     OW28860   3.327   4.285   6.494  0.3305  0.2928  0.1676
 9105SOL    HW128861   3.340   4.365   6.545  1.6780  0.3150 -0.1752
 9105SOL    HW228862   3.389   4.293   6.422  0.3933 -1.0133  0.0660
 9106SOL     OW28863   5.640   4.491   2.310  0.0584  0.4909 -0.3874
 9106SOL    HW128864   5.555   4.522   2.342  0.1607  0.1897  0.1851
 9106SOL    HW228865   5.630   4.490   2.215 -0.7363  0.0262 -0.3089
 9107SOL     OW28866   5.963   6.418   1.089  0.2367  0.1448  0.1135
 9107SOL    HW128867   5.921   6.391   1.171 -1.1214  1.0619 -0.2478
 9107SOL    HW228868   6.056   6.413   1.107 -0.0355  1.1259  2.0047
 9108SOL     OW28869   6.102   1.161   4.877 -0.3771 -0.2788 -0.3244
 9108SOL    HW128870   6.144   1.079   4.905  0.7133  0.3641  0.0036
 9108SOL    HW228871   6.029   1.173   4.937  1.3639  0.6023  1.7696
 9109SOL     OW28872   6.002   2.557   5.066 -0.1157 -0.0979  0.3297
 9109SOL    HW128873   6.038   2.585   4.981 -1.4944  0.8150  0.0048
 9109SOL    HW228874   5.908   2.546   5.049 -0.4391  0.2615  1.7687
 9110SOL     OW28875   3.340   0.574   3.677  0.1520  0.1147 -0.5700
 9110SOL    HW128876   3.430   0.593   3.706  0.3580 -0.9672 -0.4667
 9110SOL    HW228877   3.331   0.622   3.595  1.2426 -0.7084 -1.1919
 9111SOL     OW28878   3.164   1.633   2.331  0.5880 -0.6007 -0.0082
 9111SOL    HW128879   3.192   1.706   2.386 -0.2899 -0.7281  0.6281
 9111SOL    HW228880   3.082   1.662   2.292  1.4746 -0.2929 -1.7232
 9112SOL     OW28881   4.293   4.288   0.238 -0.0065 -0.4832  0.0411
 9112SOL    HW128882   4.320   4.220   0.177 -0.1090 -0.3852 -0.1131
 9112SOL    HW228883   4.310   4.371   0.192 -0.6395 -0.4223 -0.0917
 9113SOL     OW28884   3.418   4.317   3.029  0.1619  0.2842  0.4905
 9113SOL    HW128885   3.328   4.285   3.030 -0.1560  0.9690 -1.5582
 9113SOL    HW228886   3.416   4.397   3.082  0.0607 -0.8481  2.2265
 9114SOL     OW28887   1.336   3.102   3.877  0.0503 -0.2617 -0.1655
 9114SOL    HW128888   1.376   3.188   3.864  0.1781 -0.2987 -0.0223
 9114SOL    HW228889   1.342   3.059   3.791 -0.1115 -0.0868 -0.2642
 9115SOL     OW28890   1.331   2.822   6.553 -0.0103  0.1447  0.4727
 9115SOL    HW128891   1.263   2.756   6.543  0.4093 -0.3678  0.9042
 9115SOL    HW228892   1.390   2.786   6.619  0.2360  0.9471  0.7093
 9116SOL     OW28893   2.142   3.222   5.722  0.1196  0.7817 -0.1367
 9116SOL    HW128894   2.200   3.160   5.678  0.3180 -0.7434  2.1003
 9116SOL    HW228895   2.059   3.175   5.731 -0.3292  1.5651 -0.0529
 9117SOL     OW28896   6.404   0.281   0.929  0.6055 -0.0989 -0.4323
 9117SOL    HW128897   6.404   0.375   0.946 -1.1288 -0.2095  0.3877
 9117SOL    HW228898   6.359   0.243   1.005 -0.2212 -1.4300 -1.5353
 9118SOL     OW28899   4.693   6.217   1.569 -0.4169 -0.1743  0.3298
 9118SOL    HW128900   4.700   6.123   1.583 -0.0443 -0.2818 -0.5200
 9118SOL    HW228901   4.637   6.248   1.640 -1.0843 -1.1374  0.2365
 9119SOL     OW28902   4.913   1.933   0.588 -0.1054  0.5554  0.4001
 9119SOL    HW128903   4.905   1.985   0.668  0.4586 -1.0920  1.5700
 9119SOL    HW228904   4.823   1.925   0.557 -0.1653  2.7066 -0.1873
 9120SOL     OW28905   3.067   2.535   3.287 -0.0615  0.0292 -0.2535
 9120SOL    HW128906   3.018   2.457   3.263  0.9814 -0.2827 -1.5323
 9120SOL    HW228907   3.040   2.601   3.223 -0.5396  0.5735  0.4910
 9121SOL     OW28908   6.050   4.801   6.718  0.2619  0.6726 -0.0974
 9121SOL    HW128909   5.971   4.849   6.692 -1.1523 -1.5156 -0.1029
 9121SOL    HW228910   6.084   4.765   6.636 -0.9408 -1.4860  0.2733
 9122SOL     OW28911   0.140   0.911   6.026  0.2215 -0.0876  0.3123
 9122SOL    HW128912   0.154   0.819   6.005 -0.5428 -0.0382 -0.4492
 9122SOL    HW228913   0.209   0.931   6.090  0.7103 -1.0439  0.1133
 9123SOL     OW28914   4.387   4.419   5.079  0.1768 -0.7260  0.4482
 9123SOL    HW128915   4.466   4.438   5.129  0.2231 -2.7747  1.2244
 9123SOL    HW228916   4.339   4.355   5.131 -2.2072  0.7071  0.1643
 9124SOL     OW28917   2.348   0.576   3.277 -0.0063 -0.4249 -0.6802
 9124SOL    HW128918   2.312   0.664   3.290 -0.1763 -0.4134 -1.2100
 9124SOL    HW228919   2.442   0.590   3.266 -0.1056 -0.2453 -1.3511
 9125SOL     OW28920   2.017   2.997   3.954 -0.3415 -0.2765  0.1075
 9125SOL    HW128921   2.003   2.934   3.883  1.5303  1.0720 -1.5696
 9125SOL    HW228922   1.960   3.071   3.931 -1.3119 -0.6522  1.1993
 9126SOL     OW28923   4.249   1.913   5.503 -0.2831  0.3686  0.4498
 9126SOL    HW128924   4.333   1.893   5.543  0.6416  0.2333 -1.4763
 9126SOL    HW228925   4.202   1.830   5.502  0.3392  0.0204 -0.2099
 9127SOL     OW28926   6.124   3.118   3.417  0.7178  0.4025 -0.3343
 9127SOL    HW128927   6.140   3.175   3.492 -0.0515 -1.9796  1.7838
 9127SOL    HW228928   6.192   3.050   3.423  1.3094  0.7189 -2.4866
 9128SOL     OW28929   3.396   5.444   4.035 -0.1227  0.8123 -0.5191
 9128SOL    HW128930   3.479   5.471   4.075  1.5826 -0.6715 -2.7714
 9128SOL    HW228931   3.355   5.526   4.006  0.6274  1.5596  0.4732
 9129SOL     OW28932   6.680   2.634   3.657 -0.6267 -0.4703  0.1099
 9129SOL    HW128933   6.614   2.677   3.712  0.7034  0.8046  0.7974
 9129SOL    HW228934   6.652   2.543   3.651 -3.7638  0.4625 -1.6572
 9130SOL     OW28935   2.201   6.281   4.167  0.5622  0.7738  0.5025
 9130SOL    HW128936   2.263   6.215   4.197  1.1371  1.8654  1.8570
 9130SOL    HW228937   2.128   6.231   4.131  1.1531 -0.5750  1.1004
 9131SOL     OW28938   2.246   2.136   1.539  0.0301  0.1881 -0.1180
 9131SOL    HW128939   2.196   2.093   1.470  1.5260 -3.0584  0.6222
 9131SOL    HW228940   2.321   2.174   1.493 -1.5458  2.6773 -0.8477
 9132SOL     OW28941   5.316   4.400   6.588 -0.1536 -0.3564 -0.0487
 9132SOL    HW128942   5.235   4.450   6.601  0.3201 -0.1834  2.7958
 9132SOL    HW228943   5.288   4.308   6.594 -0.1660 -0.2970  0.9092
 9133SOL     OW28944   1.845   4.773   1.511 -0.5073 -0.1375  0.5499
 9133SOL    HW128945   1.849   4.823   1.429  0.7526 -0.5754  0.3208
 9133SOL    HW228946   1.903   4.820   1.570  0.3740 -1.0755  0.4604
 9134SOL     OW28947   1.431   5.948   6.024  0.3065  0.0215 -0.0272
 9134SOL    HW128948   1.378   5.899   5.962  1.5904  1.2684 -2.2314
 9134SOL    HW228949   1.384   6.030   6.037  0.9361  0.5254 -0.8442
 9135SOL     OW28950   5.787   6.762   5.130  0.1593  0.2680 -0.0451
 9135SOL    HW128951   5.788   6.832   5.195  2.0829  1.5905 -1.3743
 9135SOL    HW228952   5.866   6.711   5.149 -0.1658 -0.3568 -0.3285
 9136SOL     OW28953   2.981   2.529   1.228  0.3170 -0.3991  0.1722
 9136SOL    HW128954   2.901   2.478   1.212 -1.1844  1.1881  2.1522
 9136SOL    HW228955   3.034   2.515   1.149 -3.7196  1.9189 -3.4044
 9137SOL     OW28956   6.690   5.183   6.028 -0.6549  0.1574  0.6989
 9137SOL    HW128957   6.635   5.108   6.005 -0.8241  0.2150  0.9132
 9137SOL    HW228958   6.737   5.155   6.107 -0.0470 -0.0543  0.2698
 9138SOL     OW28959   0.015   5.286   4.698  0.2414 -0.3815 -0.1023
 9138SOL    HW128960   0.003   5.352   4.766 -0.0363  0.5560 -1.0332
 9138SOL    HW228961   0.106   5.258   4.709 -0.0356 -0.8458  1.1606
 9139SOL     OW28962   4.350   0.885   4.661  0.1514 -0.1717  0.2572
 9139SOL    HW128963   4.395   0.964   4.691 -2.2631  2.6481 -2.7334
 9139SOL    HW228964   4.258   0.901   4.681 -0.6534 -1.2318 -2.1495
 9140SOL     OW28965   3.242   5.204   6.742  0.0530  0.2278 -0.0207
 9140SOL    HW128966   3.257   5.204   6.837  2.1436 -1.3863 -0.2902
 9140SOL    HW228967   3.313   5.151   6.706 -1.4653 -0.3519 -2.3948
 9141SOL     OW28968   2.204   0.214   4.460  0.2730  0.1447  0.4702
 9141SOL    HW128969   2.253   0.297   4.466 -0.7427  0.8660 -0.7949
 9141SOL    HW228970   2.138   0.221   4.529  1.1571 -0.3181  1.3972
 9142SOL     OW28971   4.134   5.055   3.551 -0.3709 -0.3255  0.1526
 9142SOL    HW128972   4.184   4.987   3.596 -0.9566  0.5451  2.2837
 9142SOL    HW228973   4.054   5.011   3.522  0.1787 -0.9924 -0.3604
 9143SOL     OW28974   2.849   5.059   3.105 -0.4398 -0.1925 -0.1333
 9143SOL    HW128975   2.813   5.005   3.175 -1.1944  0.8215  0.2973
 9143SOL    HW228976   2.786   5.131   3.096 -0.3725 -0.3125 -1.8738
 9144SOL     OW28977   6.499   0.211   5.171  0.1649 -0.2389 -0.5552
 9144SOL    HW128978   6.586   0.248   5.184 -0.2162  0.9747 -1.2422
 9144SOL    HW228979   6.445   0.253   5.238  0.3496 -1.9668  0.7220
 9145SOL     OW28980   1.895   5.463   1.865  0.5720  0.6899  0.5113
 9145SOL    HW128981   1.860   5.467   1.954  0.3037  0.2174  0.4339
 9145SOL    HW228982   1.858   5.540   1.821 -0.1958  0.3241  0.4991
 9146SOL     OW28983   2.290   1.901   4.814 -0.8861 -0.5686  0.1730
 9146SOL    HW128984   2.327   1.989   4.814  0.5159 -1.1319  0.4606
 9146SOL    HW228985   2.209   1.909   4.764 -0.6512  0.8231 -0.0284
 9147SOL     OW28986   4.553   3.339   5.367  0.1478 -0.2863  0.3299
 9147SOL    HW128987   4.628   3.370   5.316  0.6389 -0.6248  0.8219
 9147SOL    HW228988   4.539   3.249   5.338  0.0430 -0.2804  0.3621
 9148SOL     OW28989   6.096   3.403   2.497  0.6550  0.3269  0.2146
 9148SOL    HW128990   6.087   3.492   2.464  0.6997  0.0522 -0.5620
 9148SOL    HW228991   6.168   3.365   2.446  0.9196 -0.0243  0.8286
 9149SOL     OW28992   3.278   1.336   5.972  0.3984  0.3986  0.3330
 9149SOL    HW128993   3.313   1.380   6.049  0.8194  0.5523  0.0589
 9149SOL    HW228994   3.295   1.243   5.987 -0.4424  0.3252  0.8875
 9150SOL     OW28995   0.962   4.018   0.712 -0.3143  0.0133 -0.6016
 9150SOL    HW128996   0.967   4.057   0.799  3.1541 -0.6359 -0.3627
 9150SOL    HW228997   0.870   3.992   0.702 -1.0121  0.9321  2.4626
 9151SOL     OW28998   5.451   3.799   0.733 -0.2459  0.1645 -0.5375
 9151SOL    HW128999   5.516   3.757   0.678  0.1795  0.3637 -0.1902
 9151SOL    HW229000   5.390   3.729   0.757  0.1880 -0.1554 -0.3525
 9152SOL     OW29001   2.605   5.489   2.857 -0.3051  0.5246  0.7795
 9152SOL    HW129002   2.696   5.517   2.852  0.5230 -1.9320  0.4904
 9152SOL    HW229003   2.554   5.567   2.835  1.7502  1.7175 -0.0377
 9153SOL     OW29004   4.338   5.730   3.235 -0.3258  0.4033  0.8089
 9153SOL    HW129005   4.320   5.824   3.243  3.5474  1.5764 -1.2007
 9153SOL    HW229006   4.328   5.712   3.141  2.7765 -0.0444  0.4465
 9154SOL     OW29007   5.050   2.007   3.441 -0.5432  0.3760  0.1078
 9154SOL    HW129008   4.980   1.994   3.505  0.7542 -4.3089  0.9352
 9154SOL    HW229009   5.013   1.977   3.358  0.3132 -2.2050  0.5647
 9155SOL     OW29010   1.383   1.432   2.437  0.3995  0.1583  0.1826
 9155SOL    HW129011   1.289   1.415   2.432 -0.3545  3.3041  1.4538
 9155SOL    HW229012   1.397   1.504   2.375  2.2884 -1.0826 -0.9411
 9156SOL     OW29013   3.917   4.927   5.741  0.1009  0.6183 -0.5790
 9156SOL    HW129014   3.920   4.936   5.645 -0.2151  1.1482 -0.5480
 9156SOL    HW229015   3.976   4.855   5.761  1.3375  1.4599 -1.0510
 9157SOL     OW29016   2.802   0.332   3.162 -0.6875 -0.3086  0.1628
 9157SOL    HW129017   2.848   0.303   3.083 -1.7998  0.8926 -0.9695
 9157SOL    HW229018   2.839   0.418   3.181 -0.4336 -0.5868  0.9631
 9158SOL     OW29019   6.482   6.261   5.847 -0.4466 -0.0867  0.2527
 9158SOL    HW129020   6.471   6.167   5.830 -0.7821 -0.1923  1.0134
 9158SOL    HW229021   6.419   6.281   5.916  1.7339  0.0078  2.3930
 9159SOL     OW29022   3.477   5.089   5.099  0.0068 -0.0775  0.0173
 9159SOL    HW129023   3.443   5.095   5.188 -1.1651 -1.4305 -0.2846
 9159SOL    HW229024   3.515   5.001   5.094  0.2235  0.0543 -0.7627
 9160SOL     OW29025   1.970   3.646   0.316 -0.1653 -0.1040  0.2048
 9160SOL    HW129026   2.005   3.601   0.239 -0.7425 -0.5217  0.1855
 9160SOL    HW229027   1.880   3.616   0.323 -1.0136  2.0500 -0.5979
 9161SOL     OW29028   2.344   3.261   2.719  0.0882 -0.0728  0.0023
 9161SOL    HW129029   2.260   3.274   2.764  0.0416  3.7893 -0.8150
 9161SOL    HW229030   2.408   3.259   2.790 -0.3740  1.3606  0.5036
 9162SOL     OW29031   4.813   4.431   1.164  0.5416  0.3712  0.0496
 9162SOL    HW129032   4.823   4.367   1.093 -0.7707  0.2470 -0.0546
 9162SOL    HW229033   4.899   4.471   1.172  0.4197  1.4178 -2.6303
 9163SOL     OW29034   4.477   6.127   1.377  0.2095  0.0620 -0.2826
 9163SOL    HW129035   4.426   6.201   1.410  0.6572  0.3589 -0.2563
 9163SOL    HW229036   4.561   6.132   1.423 -0.1361 -1.0874  0.5118
 9164SOL     OW29037   1.015   4.782   2.663  0.3049  0.1599 -0.3728
 9164SOL    HW129038   1.035   4.701   2.708  0.2015  0.3539  0.0286
 9164SOL    HW229039   0.920   4.788   2.664  0.3516  0.9172  0.7453
 9165SOL     OW29040   2.446   3.167   4.648 -0.1942 -0.1952  0.1105
 9165SOL    HW129041   2.386   3.121   4.706  0.0164  0.5254  0.9355
 9165SOL    HW229042   2.523   3.111   4.643  0.2167  0.2040  1.4123
 9166SOL     OW29043   3.129   2.608   3.956  0.1089  0.6789  0.0208
 9166SOL    HW129044   3.123   2.703   3.941  0.4799  0.3376 -2.7031
 9166SOL    HW229045   3.216   2.584   3.925 -0.0322 -0.6005  0.5624
 9167SOL     OW29046   2.586   2.771   3.355  0.4588  0.0068 -0.2104
 9167SOL    HW129047   2.585   2.678   3.333  1.4275 -0.0314 -0.1302
 9167SOL    HW229048   2.546   2.775   3.442  0.5103 -0.3528 -0.1662
 9168SOL     OW29049   6.378   5.157   3.693 -0.5293 -0.1855  0.3200
 9168SOL    HW129050   6.432   5.133   3.618 -1.6403 -2.3890  0.1256
 9168SOL    HW229051   6.438   5.156   3.767  0.6447  2.3060 -0.5025
 9169SOL     OW29052   4.737   0.075   3.944 -0.3284  0.4618  0.1619
 9169SOL    HW129053   4.705  -0.015   3.952 -0.6648  0.3965 -1.4686
 9169SOL    HW229054   4.678   0.127   3.999 -0.1786 -0.2895  1.0474
 9170SOL     OW29055   4.364   0.487   4.002  0.7244  0.1644 -0.8627
 9170SOL    HW129056   4.403   0.473   3.915  1.0432  0.2980 -0.7444
 9170SOL    HW229057   4.381   0.580   4.020 -1.8810  0.9296 -1.9114
 9171SOL     OW29058   5.757   1.504   0.133  0.1308 -0.2765 -0.1587
 9171SOL    HW129059   5.767   1.574   0.069  3.6961 -0.5992 -0.1514
 9171SOL    HW229060   5.664   1.506   0.157 -0.2388  3.3833 -1.2953
 9172SOL     OW29061   3.450   0.172   6.319 -0.1678 -0.0835 -0.1740
 9172SOL    HW129062   3.458   0.092   6.267 -0.8300  0.3992 -1.0394
 9172SOL    HW229063   3.356   0.178   6.339 -0.2484  0.8957 -0.8111
 9173SOL     OW29064   5.324   5.530   6.362  0.7937 -0.2567 -0.6984
 9173SOL    HW129065   5.309   5.488   6.447  1.3008 -0.5064 -0.7283
 9173SOL    HW229066   5.374   5.608   6.382 -0.3175  0.4572 -0.6228
 9174SOL     OW29067   4.659   5.901   2.326 -0.2810  0.1504  0.4016
 9174SOL    HW129068   4.654   5.917   2.232  1.1253  1.7816  0.5664
 9174SOL    HW229069   4.749   5.873   2.342 -0.6856 -0.7846  1.2010
 9175SOL     OW29070   5.301   2.184   3.337 -0.3495 -0.1392 -0.2993
 9175SOL    HW129071   5.230   2.168   3.399 -1.1465  1.3350 -0.7894
 9175SOL    HW229072   5.380   2.181   3.390 -0.7014 -2.1983  0.1973
 9176SOL     OW29073   4.143   0.181   1.534  0.1726 -0.4813  0.3004
 9176SOL    HW129074   4.070   0.190   1.596  0.5873  2.7545  0.5113
 9176SOL    HW229075   4.198   0.113   1.571 -0.3930  0.2795  2.7258
 9177SOL     OW29076   6.055   5.188   5.722  0.0185 -0.0569  0.2338
 9177SOL    HW129077   6.033   5.149   5.807  0.6851 -1.7099 -0.3058
 9177SOL    HW229078   5.973   5.188   5.673  0.3822 -2.9679 -0.5441
 9178SOL     OW29079   1.205   2.883   3.156  0.5310 -0.1498 -0.5532
 9178SOL    HW129080   1.243   2.929   3.081  1.6967 -0.4945 -0.1929
 9178SOL    HW229081   1.280   2.850   3.205 -0.2274 -0.4128  0.4723
 9179SOL     OW29082   5.556   0.023   3.824  0.6355  0.1443 -0.4930
 9179SOL    HW129083   5.550   0.090   3.892  1.5727  1.1379 -1.3566
 9179SOL    HW229084   5.494   0.050   3.757  1.2403  0.3436 -0.9895
 9180SOL     OW29085   0.651   1.920   2.241 -0.1384  0.0587 -0.0765
 9180SOL    HW129086   0.584   1.866   2.199  1.3139 -1.5518 -0.4305
 9180SOL    HW229087   0.604   1.972   2.306 -1.8109 -0.5170 -0.7894
 9181SOL     OW29088   3.913   4.165   1.566  0.4013  0.0049 -0.2344
 9181SOL    HW129089   3.949   4.190   1.651  0.5166 -0.1812 -0.2273
 9181SOL    HW229090   3.908   4.069   1.570  1.1697 -0.0666 -0.7436
 9182SOL     OW29091   5.602   3.576   5.567 -0.1395 -0.2099  0.3670
 9182SOL    HW129092   5.622   3.494   5.612  2.4826  0.3988  0.4799
 9182SOL    HW229093   5.609   3.554   5.474  0.3739 -0.1626  0.3932
 9183SOL     OW29094   5.149   4.962   4.898  0.3017 -0.2510  0.3829
 9183SOL    HW129095   5.177   4.914   4.976  2.2475  0.4135  0.1552
 9183SOL    HW229096   5.061   4.929   4.880  0.1376 -1.0411  2.3430
 9184SOL     OW29097   5.402   5.097   2.020  0.3256 -0.0486  0.0909
 9184SOL    HW129098   5.352   5.033   2.071  0.0749  1.7465  2.2331
 9184SOL    HW229099   5.336   5.143   1.968 -0.2760  1.7453  2.2867
 9185SOL     OW29100   3.319   1.212   3.334  0.2265 -0.2654  0.0996
 9185SOL    HW129101   3.242   1.228   3.280  0.4496  0.9054  0.0925
 9185SOL    HW229102   3.372   1.151   3.282 -0.1509 -0.1500 -0.4279
 9186SOL     OW29103   6.331   1.657   6.560  0.2092 -0.1235  0.3724
 9186SOL    HW129104   6.286   1.735   6.526 -0.0550 -0.3616  0.1742
 9186SOL    HW229105   6.390   1.630   6.490  1.9922  1.2062  1.2544
 9187SOL     OW29106   0.314   0.000   4.261  0.3107 -0.0603  0.6565
 9187SOL    HW129107   0.238  -0.031   4.311  0.7102 -2.1622  0.0745
 9187SOL    HW229108   0.282   0.076   4.212 -2.1848 -2.1928 -1.3426
 9188SOL     OW29109   4.786   6.380   3.945 -0.1278  0.1804 -0.2042
 9188SOL    HW129110   4.752   6.295   3.918  0.0031 -0.2489  0.9286
 9188SOL    HW229111   4.710   6.426   3.982  0.0198  0.1569  0.1281
 9189SOL     OW29112   2.717   2.067   4.806 -0.0576 -0.0584 -0.1266
 9189SOL    HW129113   2.723   2.062   4.711 -2.5304 -1.4553 -0.2912
 9189SOL    HW229114   2.778   2.000   4.837  0.3177 -0.0035 -0.7273
 9190SOL     OW29115   0.600   2.092   6.371 -0.6849 -0.0811 -0.3813
 9190SOL    HW129116   0.674   2.106   6.431 -1.7303  1.4425  0.6127
 9190SOL    HW229117   0.633   2.028   6.307  1.7755  1.1218 -0.4473
 9191SOL     OW29118   1.882   2.022   3.600  0.2079 -0.4976  0.1745
 9191SOL    HW129119   1.970   1.988   3.614  0.1551 -1.6357 -1.8846
 9191SOL    HW229120   1.891   2.084   3.529 -0.7314 -1.0990 -0.4904
 9192SOL     OW29121   4.303   2.173   0.008  0.3551  0.3439  0.1187
 9192SOL    HW129122   4.346   2.251   0.044 -0.2475  1.6879 -1.9202
 9192SOL    HW229123   4.270   2.201  -0.077 -0.1757 -2.0750 -0.5381
 9193SOL     OW29124   1.652   1.474   1.790  0.1639 -0.0659  0.7745
 9193SOL    HW129125   1.600   1.480   1.710 -0.0060  0.4734  0.9262
 9193SOL    HW229126   1.711   1.549   1.788  1.5010 -1.0797  0.2230
 9194SOL     OW29127   3.511   6.294   6.108  0.3675 -0.0843 -0.4188
 9194SOL    HW129128   3.560   6.270   6.030 -0.5269 -0.7114 -0.8029
 9194SOL    HW229129   3.564   6.361   6.151  1.1223 -0.1277 -1.2769
 9195SOL     OW29130   5.552   5.135   2.813  0.2823 -0.2165 -0.2836
 9195SOL    HW129131   5.629   5.178   2.776  3.3948 -2.0385  3.3471
 9195SOL    HW229132   5.542   5.175   2.900 -2.1736 -0.8960 -0.1939
 9196SOL     OW29133   3.277   4.767   4.208  0.0025 -0.4100  0.0710
 9196SOL    HW129134   3.232   4.844   4.173 -2.6468 -1.8604  0.0532
 9196SOL    HW229135   3.338   4.742   4.138 -0.2511  0.7042 -0.5819
 9197SOL     OW29136   5.580   0.924   4.650  0.9819  0.0739 -0.4782
 9197SOL    HW129137   5.642   0.904   4.581  2.3846  1.5377  0.2944
 9197SOL    HW229138   5.628   0.980   4.711 -0.7835  0.4122  0.6994
 9198SOL     OW29139   0.259   0.941   6.742  0.7435 -0.4484 -0.2864
 9198SOL    HW129140   0.314   1.003   6.790  1.4700 -0.0898 -1.5388
 9198SOL    HW229141   0.291   0.945   6.652 -1.1860 -0.3800 -1.0336
 9199SOL     OW29142   3.917   0.326   5.823 -0.5450  0.1444  0.0134
 9199SOL    HW129143   3.920   0.233   5.843 -0.6882 -0.1009 -1.0287
 9199SOL    HW229144   3.915   0.369   5.908  1.8747 -0.6964  0.5919
 9200SOL     OW29145   2.143   6.350   0.424  0.6661  0.0132 -0.6150
 9200SOL    HW129146   2.161   6.444   0.428  0.9227  0.0421 -2.0171
 9200SOL    HW229147   2.077   6.341   0.356 -1.1209 -0.6104  1.0881
 9201SOL     OW29148   5.320   2.131   6.781  0.2386 -0.0864 -0.2572
 9201SOL    HW129149   5.243   2.074   6.784 -1.0442  1.6160  1.6603
 9201SOL    HW229150   5.383   2.088   6.841  0.4296 -0.9549 -1.0557
 9202SOL     OW29151   5.892   1.628   0.508 -0.2559  0.4501  0.3684
 9202SOL    HW129152   5.970   1.674   0.477  0.3298 -1.6476 -1.5681
 9202SOL    HW229153   5.819   1.670   0.462 -0.1118  1.3496  0.9359
 9203SOL     OW29154   0.469   4.967   1.478 -0.2615 -0.2363  0.4739
 9203SOL    HW129155   0.396   5.023   1.451  1.4006  1.8760  0.0478
 9203SOL    HW229156   0.520   4.953   1.398  1.2786  0.7509  1.2185
 9204SOL     OW29157   3.844   4.015   5.051  0.2410  0.5552 -0.8057
 9204SOL    HW129158   3.823   4.067   4.973  1.4529 -0.5915 -1.9607
 9204SOL    HW229159   3.864   3.928   5.016 -0.9082 -0.4745  0.9865
 9205SOL     OW29160   5.066   1.902   2.067  0.1060  0.1545  0.1158
 9205SOL    HW129161   5.156   1.870   2.074 -0.0019 -0.3541 -0.7078
 9205SOL    HW229162   5.022   1.868   2.145  0.9222  1.4302  1.1547
 9206SOL     OW29163   2.956   4.005   5.590 -0.1271  0.4932 -0.1011
 9206SOL    HW129164   3.007   3.931   5.556  1.2221  1.1670  0.3973
 9206SOL    HW229165   2.974   4.006   5.684 -0.5154  1.1820 -0.0279
 9207SOL     OW29166   2.980   2.362   4.051 -0.0357  0.4134  0.6772
 9207SOL    HW129167   3.000   2.440   3.998 -0.8141  1.2094  1.5120
 9207SOL    HW229168   2.984   2.393   4.141  1.1763 -0.9023  1.1218
 9208SOL     OW29169   5.121   1.542   2.002  0.5221  0.2940  0.4642
 9208SOL    HW129170   5.190   1.530   1.937  0.6766  0.3958  0.6093
 9208SOL    HW229171   5.056   1.597   1.958 -1.9758 -3.8314 -1.5781
 9209SOL     OW29172   0.157   3.894   6.599  0.0721 -0.1852 -0.1987
 9209SOL    HW129173   0.078   3.850   6.629 -0.4251  0.6832 -0.2066
 9209SOL    HW229174   0.127   3.978   6.565  1.0908  0.5255  0.5941
 9210SOL     OW29175   5.767   1.521   3.508 -1.0044 -0.0163 -0.3669
 9210SOL    HW129176   5.835   1.455   3.520 -2.1795 -1.0931  0.7143
 9210SOL    HW229177   5.810   1.604   3.528 -0.4637 -0.8567  2.3647
 9211SOL     OW29178   6.315   6.398   1.572 -0.4693  0.4378 -0.3312
 9211SOL    HW129179   6.387   6.346   1.607 -2.1415  0.4006  3.5214
 9211SOL    HW229180   6.357   6.476   1.536  1.5624  0.7049  2.3270
 9212SOL     OW29181   2.711   1.874   5.276  0.7906 -0.1722 -0.3629
 9212SOL    HW129182   2.721   1.795   5.223 -0.1843  0.4755 -1.5637
 9212SOL    HW229183   2.756   1.854   5.358  0.9873 -1.7813 -0.8334
 9213SOL     OW29184   0.115   5.223   2.344  0.1878  0.3937  0.3614
 9213SOL    HW129185   0.162   5.192   2.422  0.8389  2.9391  1.0795
 9213SOL    HW229186   0.185   5.250   2.284 -0.3372 -0.2875 -0.5800
 9214SOL     OW29187   5.170   0.656   2.751 -0.2412  0.1609  0.4604
 9214SOL    HW129188   5.111   0.582   2.743 -1.1608  1.0791 -3.0848
 9214SOL    HW229189   5.124   0.729   2.709  2.3042  1.6039 -0.0711
 9215SOL     OW29190   4.029   4.587   2.517 -0.1874  0.5508  0.2002
 9215SOL    HW129191   4.115   4.546   2.524  0.0342  1.0597  0.4962
 9215SOL    HW229192   4.010   4.588   2.423 -0.7522 -1.3532  0.2409
 9216SOL     OW29193   3.842   4.698   2.303 -0.3850  0.3227  0.1591
 9216SOL    HW129194   3.831   4.641   2.379  0.2672 -0.3977 -0.2743
 9216SOL    HW229195   3.756   4.697   2.260  0.1271 -2.1167 -1.0316
 9217SOL     OW29196   6.252   4.688   2.232 -0.3742 -0.7394  0.2822
 9217SOL    HW129197   6.247   4.594   2.244  0.4810 -0.8929 -0.4747
 9217SOL    HW229198   6.161   4.716   2.220 -0.5103 -1.7331 -1.3098
 9218SOL     OW29199   4.233   5.683   2.927  0.2508 -0.2031  0.3393
 9218SOL    HW129200   4.270   5.745   2.864 -2.5942  0.4015 -0.9004
 9218SOL    HW229201   4.231   5.599   2.881 -2.1470  0.3096 -0.6465
 9219SOL     OW29202   1.667   0.121   0.434 -0.0048  0.2737  0.3684
 9219SOL    HW129203   1.750   0.075   0.420  0.5514  1.5160 -0.5466
 9219SOL    HW229204   1.690   0.199   0.484 -0.7686  0.1713  0.9027
 9220SOL     OW29205   2.173   4.232   0.544 -0.1544 -0.0943 -0.1297
 9220SOL    HW129206   2.112   4.250   0.616 -0.0351 -0.7934  0.1585
 9220SOL    HW229207   2.247   4.188   0.585 -0.4458 -1.2499 -0.7687
 9221SOL     OW29208   5.746   3.961   2.417  0.1986  0.1904  0.3097
 9221SOL    HW129209   5.743   3.999   2.505  0.4266 -1.2858  0.9819
 9221SOL    HW229210   5.658   3.973   2.383 -0.5543 -1.2286  1.6498
 9222SOL     OW29211   0.456   4.707   1.920  0.0188 -0.3954 -0.0767
 9222SOL    HW129212   0.458   4.714   1.825  0.9534  1.9822  0.0552
 9222SOL    HW229213   0.548   4.697   1.945 -0.0777  0.4032  0.6338
 9223SOL     OW29214   4.109   3.874   4.232 -0.5603  0.2307 -0.1683
 9223SOL    HW129215   4.120   3.780   4.246 -0.3694  0.2026 -0.5046
 9223SOL    HW229216   4.148   3.890   4.147 -0.5471  0.6258 -0.0883
 9224SOL     OW29217   1.002   3.062   1.489  0.4372 -0.4232 -0.3476
 9224SOL    HW129218   0.979   3.089   1.578  0.1965 -0.0086 -0.5344
 9224SOL    HW229219   0.971   3.133   1.433 -0.2985 -1.1279 -0.8575
 9225SOL     OW29220   6.700   2.473   6.302  0.1670  0.2712  0.2503
 9225SOL    HW129221   6.790   2.465   6.335  0.7349 -0.6460 -1.3793
 9225SOL    HW229222   6.646   2.485   6.380  1.7358  1.2132  1.2321
 9226SOL     OW29223   4.845   1.623   3.423 -0.6055  0.1977 -0.2438
 9226SOL    HW129224   4.860   1.697   3.481 -1.5431 -0.0732  0.3779
 9226SOL    HW229225   4.909   1.633   3.353 -0.5459  1.4337 -0.0236
 9227SOL     OW29226   4.094   6.215   6.327  0.1120 -0.6046  0.1859
 9227SOL    HW129227   4.133   6.291   6.285 -0.4347 -0.7268 -0.5495
 9227SOL    HW229228   4.041   6.251   6.398  0.9457 -0.3930  0.7164
 9228SOL     OW29229   2.145   2.901   1.162 -0.0076 -0.3878  0.2698
 9228SOL    HW129230   2.109   2.820   1.199  0.5761 -0.4922  0.6259
 9228SOL    HW229231   2.226   2.874   1.120  0.3166  0.0501  0.6040
 9229SOL     OW29232   4.346   4.066   1.816 -0.3904 -0.2126 -0.7448
 9229SOL    HW129233   4.251   4.057   1.829 -0.5544 -0.0876 -1.7911
 9229SOL    HW229234   4.381   4.077   1.904 -1.3446 -0.3147 -0.3402
 9230SOL     OW29235   1.933   4.682   3.660  0.7654 -0.0916  0.0393
 9230SOL    HW129236   1.880   4.708   3.585  2.5925  0.0006 -1.2678
 9230SOL    HW229237   1.924   4.587   3.664 -0.3895  0.0184  0.5665
 9231SOL     OW29238   1.763   0.008   5.636  0.4074 -0.1543  0.4437
 9231SOL    HW129239   1.707   0.076   5.673 -1.2532 -1.8179  1.1716
 9231SOL    HW229240   1.850   0.026   5.672 -0.3079  0.6828  1.8411
 9232SOL     OW29241   2.174   4.954   4.053  0.8119  0.1801  0.5699
 9232SOL    HW129242   2.129   5.012   4.115  0.8109 -0.3767  1.0999
 9232SOL    HW229243   2.105   4.898   4.018  0.3333  2.1542 -1.9090
 9233SOL     OW29244   4.658   0.439   2.119 -0.0722  0.0611 -0.8652
 9233SOL    HW129245   4.745   0.468   2.146 -0.5544  0.8131 -0.0831
 9233SOL    HW229246   4.648   0.352   2.160 -0.3949  0.7581  0.6163
 9234SOL     OW29247   0.508   1.984   4.680  0.0949  0.5851  0.1071
 9234SOL    HW129248   0.500   1.900   4.634  2.2837 -1.5372  3.2052
 9234SOL    HW229249   0.420   2.002   4.713 -1.0194  1.0413 -2.7905
 9235SOL     OW29250   2.340   5.036   2.664 -0.0132 -0.3308  0.7180
 9235SOL    HW129251   2.267   4.997   2.712 -1.5379  2.2032  0.6290
 9235SOL    HW229252   2.379   5.098   2.725  1.3095 -0.7674  0.3437
 9236SOL     OW29253   6.468   6.441   4.038 -0.2913 -0.4543  0.4284
 9236SOL    HW129254   6.496   6.421   3.948 -0.8642 -0.7310  0.3014
 9236SOL    HW229255   6.536   6.403   4.093 -1.0903 -2.4012  0.1713
 9237SOL     OW29256   4.038   4.573   0.292  0.3035 -0.1683  0.1987
 9237SOL    HW129257   4.071   4.620   0.369  0.3185 -0.3743  0.3188
 9237SOL    HW229258   3.955   4.617   0.271 -0.1605 -0.6866  0.8884
 9238SOL     OW29259   0.004   1.011   0.480 -0.1195  0.0786  0.1479
 9238SOL    HW129260   0.051   1.075   0.428  1.3910 -0.5548  0.6666
 9238SOL    HW229261  -0.021   0.942   0.418 -3.6944  2.0411 -0.8717
 9239SOL     OW29262   1.506   2.866   0.567  0.4168 -0.4502  0.4939
 9239SOL    HW129263   1.482   2.787   0.615 -0.8709 -0.1882  0.3278
 9239SOL    HW229264   1.477   2.849   0.477  1.6858 -0.4499  0.0626
 9240SOL     OW29265   5.844   0.334   5.010 -0.7268 -0.2626 -0.3115
 9240SOL    HW129266   5.834   0.403   5.076 -0.1139 -1.3048  0.9408
 9240SOL    HW229267   5.756   0.299   4.999 -0.6310 -1.0739  1.1445
 9241SOL     OW29268   6.733   1.139   5.131 -0.5963 -0.8548 -0.1043
 9241SOL    HW129269   6.798   1.123   5.200 -1.3553  2.3559  1.5282
 9241SOL    HW229270   6.667   1.071   5.145 -0.3619 -0.7400  1.8816
 9242SOL     OW29271   3.405   1.870   1.527 -0.3924 -0.2070 -0.0750
 9242SOL    HW129272   3.484   1.922   1.513 -0.1886 -0.5652 -0.2757
 9242SOL    HW229273   3.393   1.823   1.445 -1.5564  0.8257 -0.5197
 9243SOL     OW29274   0.127   1.742   5.352 -0.0167 -0.5924 -0.2022
 9243SOL    HW129275   0.091   1.674   5.296 -1.2138  0.9747 -1.4549
 9243SOL    HW229276   0.193   1.785   5.298  1.2174 -1.1429  0.8135
 9244SOL     OW29277   2.170   2.516   1.804  0.4107 -0.3146 -0.2955
 9244SOL    HW129278   2.076   2.526   1.820  0.3671 -1.0675 -0.0350
 9244SOL    HW229279   2.197   2.600   1.766 -0.5750 -0.4611 -1.3886
 9245SOL     OW29280   3.066   1.648   4.980 -0.3357 -0.2423  0.3545
 9245SOL    HW129281   3.114   1.601   5.048 -0.5214 -1.1600 -0.1266
 9245SOL    HW229282   3.120   1.724   4.961  0.0515 -0.3316  1.0498
 9246SOL     OW29283   4.378   0.139   0.790 -0.6283  0.2984  0.6284
 9246SOL    HW129284   4.449   0.078   0.768 -0.5999  0.3744  0.5064
 9246SOL    HW229285   4.421   0.210   0.838 -0.6244  0.3343  0.5725
 9247SOL     OW29286   6.402   3.771   0.017 -0.0107 -0.1581  0.0548
 9247SOL    HW129287   6.395   3.836  -0.053  0.3298  0.7586  0.8477
 9247SOL    HW229288   6.312   3.741   0.031 -0.7627  2.4773  1.7953
 9248SOL     OW29289   4.433   3.780   2.616  0.6385  0.2706  0.1798
 9248SOL    HW129290   4.433   3.829   2.534  0.4814 -0.1729 -0.0907
 9248SOL    HW229291   4.511   3.810   2.662  1.9931 -1.0802 -1.1135
 9249SOL     OW29292   1.497   1.781   3.851 -0.0362 -0.0780 -0.4279
 9249SOL    HW129293   1.456   1.704   3.812  0.9079  0.5746 -2.9128
 9249SOL    HW229294   1.460   1.855   3.802 -1.0459  1.1554  1.9851
 9250SOL     OW29295   5.229   0.702   5.549  0.5051  0.1654 -0.0809
 9250SOL    HW129296   5.173   0.626   5.535  1.2652 -0.1866 -1.4127
 9250SOL    HW229297   5.315   0.676   5.516  1.0297  1.2647  0.3482
 9251SOL     OW29298   5.149   1.845   5.367  0.2543  0.0371 -0.6732
 9251SOL    HW129299   5.169   1.934   5.397 -0.3607  0.0674 -0.3467
 9251SOL    HW229300   5.235   1.806   5.350  0.6950 -0.3380  2.0789
 9252SOL     OW29301   0.476   1.418   5.014  0.1466  0.6139 -0.1895
 9252SOL    HW129302   0.431   1.466   4.944  2.2769  1.2212 -1.2193
 9252SOL    HW229303   0.496   1.485   5.079 -1.2040  0.1707  0.7314
 9253SOL     OW29304   3.773   5.829   3.105 -0.6054  0.2037 -0.1309
 9253SOL    HW129305   3.868   5.829   3.087 -0.7862 -1.0174 -1.2702
 9253SOL    HW229306   3.752   5.921   3.120  0.8549  0.4386  0.6897
 9254SOL     OW29307   4.454   2.852   2.870 -0.4175 -0.8345  0.2755
 9254SOL    HW129308   4.387   2.881   2.932 -0.4691  0.9333 -0.5204
 9254SOL    HW229309   4.408   2.791   2.812 -0.9969 -0.6814  0.5603
 9255SOL     OW29310   1.891   1.774   4.553  0.4391 -0.5199 -0.1922
 9255SOL    HW129311   1.900   1.680   4.538 -0.6362 -0.2688 -2.9435
 9255SOL    HW229312   1.797   1.789   4.559  0.5702  0.4303 -0.3054
 9256SOL     OW29313   1.573   2.557   3.225  0.6050  0.0335  0.5386
 9256SOL    HW129314   1.586   2.545   3.319 -0.9429  0.1105  0.7899
 9256SOL    HW229315   1.661   2.565   3.190  1.2181 -0.0180  1.9784
 9257SOL     OW29316   2.663   1.598   1.324  0.3657  0.0251 -0.0571
 9257SOL    HW129317   2.616   1.604   1.407  0.0180 -1.5869 -0.1074
 9257SOL    HW229318   2.598   1.568   1.261  0.7894  0.5575 -0.7705
 9258SOL     OW29319   4.773   5.180   2.623 -0.0504 -0.0152 -0.1345
 9258SOL    HW129320   4.706   5.235   2.663  0.8405  0.6097  0.5407
 9258SOL    HW229321   4.799   5.227   2.544 -1.5473 -1.0685 -1.3120
 9259SOL     OW29322   5.123   3.093   5.830  0.2228 -0.2562  0.0368
 9259SOL    HW129323   5.047   3.059   5.783 -0.0476 -0.7797  0.8382
 9259SOL    HW229324   5.143   3.176   5.785 -0.3898 -0.4465 -0.6116
 9260SOL     OW29325   0.274   2.462   3.926  0.0668  0.5452  0.0076
 9260SOL    HW129326   0.278   2.556   3.911 -1.3066  1.4698  4.2960
 9260SOL    HW229327   0.181   2.441   3.924  0.3225 -0.6725 -0.3110
 9261SOL     OW29328   3.664   5.231   0.991  0.0016 -0.3785  0.2916
 9261SOL    HW129329   3.710   5.204   1.071 -0.0384  1.9795  1.1733
 9261SOL    HW229330   3.701   5.316   0.970 -0.2642 -0.7854 -2.0359
 9262SOL     OW29331   2.795   3.281   0.862 -0.3681 -0.7871 -0.2182
 9262SOL    HW129332   2.733   3.216   0.898  0.0990 -1.5124 -0.6915
 9262SOL    HW229333   2.747   3.364   0.866 -0.6563 -0.9823  1.2610
 9263SOL     OW29334   1.249   3.043   2.611  0.0016  0.6141 -0.3519
 9263SOL    HW129335   1.205   3.088   2.539  0.1642  0.5213 -0.5095
 9263SOL    HW229336   1.335   3.085   2.617  0.1252  0.3731 -0.4509
 9264SOL     OW29337   6.799   2.167   5.814  0.3532  0.3372  0.3608
 9264SOL    HW129338   6.761   2.218   5.743 -0.9777  0.2358  0.9644
 9264SOL    HW229339   6.892   2.162   5.794  0.5153  2.8865  0.2315
 9265SOL     OW29340   5.358   0.917   6.653 -0.5231 -0.2848  0.4321
 9265SOL    HW129341   5.377   1.008   6.631 -1.4935 -0.0372  0.6089
 9265SOL    HW229342   5.267   0.903   6.625 -1.5223 -0.2426  3.3607
 9266SOL     OW29343   5.468   4.822   5.780  0.0634 -0.2852  0.1712
 9266SOL    HW129344   5.549   4.838   5.733  0.5225 -0.3399  0.9311
 9266SOL    HW229345   5.491   4.760   5.848 -1.1707 -2.4399 -1.2397
 9267SOL     OW29346   4.945   1.776   4.317 -0.5761 -0.2995  0.2109
 9267SOL    HW129347   5.008   1.847   4.315  1.0105 -1.6565 -0.1334
 9267SOL    HW229348   4.991   1.703   4.359 -0.7614 -2.3363 -2.7729
 9268SOL     OW29349   5.753   3.430   4.209  0.0424  0.0059 -0.5492
 9268SOL    HW129350   5.748   3.464   4.298 -1.6448 -3.7062  0.9532
 9268SOL    HW229351   5.661   3.421   4.181  0.5111  1.6153 -3.0158
 9269SOL     OW29352   0.374   2.942   0.756 -0.0501  0.0627 -0.2304
 9269SOL    HW129353   0.419   2.864   0.789 -3.3526 -1.2485  1.6699
 9269SOL    HW229354   0.396   3.011   0.818 -1.3795 -0.8592  1.3673
 9270SOL     OW29355   6.314   4.933   0.354 -0.3721  0.5555 -0.5070
 9270SOL    HW129356   6.324   4.959   0.445 -2.6335  0.3461 -0.1369
 9270SOL    HW229357   6.264   4.852   0.358  0.0165  0.2248 -1.9247
 9271SOL     OW29358   6.459   5.580   1.733  0.2428 -0.0150 -0.2645
 9271SOL    HW129359   6.418   5.497   1.711 -1.8038  0.5845  1.0033
 9271SOL    HW229360   6.482   5.572   1.826  1.2798  0.3700 -0.4702
 9272SOL     OW29361   4.774   0.459   0.896 -0.0445 -0.9021 -0.1898
 9272SOL    HW129362   4.826   0.479   0.974 -0.6628 -0.0491  0.0132
 9272SOL    HW229363   4.811   0.514   0.827 -1.3026  0.4952  0.2020
 9273SOL     OW29364   5.553   5.085   1.269  0.1169  0.4122  0.0762
 9273SOL    HW129365   5.501   5.059   1.193  1.9079 -0.5451 -0.8814
 9273SOL    HW229366   5.570   5.003   1.316 -0.5450  0.9279  1.2638
 9274SOL     OW29367   3.070   0.957   6.633 -0.1147 -0.0407  0.5275
 9274SOL    HW129368   3.154   0.919   6.662 -1.1187 -0.2588  3.4866
 9274SOL    HW229369   3.006   0.924   6.696 -2.3697  0.5918 -1.3025
 9275SOL     OW29370   1.411   2.377   3.060  0.1942 -0.4131  0.2039
 9275SOL    HW129371   1.462   2.439   3.112  0.4613 -0.9854  0.6471
 9275SOL    HW229372   1.475   2.334   3.004  0.0968 -0.6405  0.2625
 9276SOL     OW29373   2.892   5.753   2.565 -0.1596 -0.4594 -0.0197
 9276SOL    HW129374   2.881   5.848   2.563  1.2522 -0.2646  0.1805
 9276SOL    HW229375   2.986   5.739   2.548  0.1760 -1.6558  2.3244
 9277SOL     OW29376   3.685   5.686   1.404  0.2998 -0.1537 -0.2913
 9277SOL    HW129377   3.624   5.626   1.447  0.2334 -0.9349 -1.4257
 9277SOL    HW229378   3.765   5.633   1.393  1.0997  0.7569  0.9043
 9278SOL     OW29379   0.992   2.963   6.764  0.2282 -0.2453 -0.2227
 9278SOL    HW129380   1.078   2.984   6.800 -0.0256 -1.8379  1.4612
 9278SOL    HW229381   0.984   2.868   6.774 -1.0766 -0.3561 -1.8716
 9279SOL     OW29382   4.292   6.748   1.648 -0.9397 -0.2358  0.3867
 9279SOL    HW129383   4.350   6.729   1.574 -0.8960 -1.1136  0.6354
 9279SOL    HW229384   4.261   6.662   1.677 -0.3024  0.0221  1.9263
 9280SOL     OW29385   2.903   0.051   6.343 -0.7404  0.8571 -0.4029
 9280SOL    HW129386   2.933   0.094   6.423 -2.0194  1.1237 -0.0484
 9280SOL    HW229387   2.952   0.095   6.273  0.5679  0.4531  0.2264
 9281SOL     OW29388   4.313   5.402   0.161 -0.7751 -0.2226  0.2037
 9281SOL    HW129389   4.370   5.463   0.114  0.4464 -0.3856  1.3868
 9281SOL    HW229390   4.374   5.340   0.202 -1.6246  0.6656  3.0546
 9282SOL     OW29391   5.773   6.218   3.199 -0.0041  0.2272  0.1649
 9282SOL    HW129392   5.793   6.206   3.292  1.7773  0.1874 -0.1699
 9282SOL    HW229393   5.822   6.148   3.156 -0.5006  0.4836 -0.8289
 9283SOL     OW29394   6.034   0.271   3.893  0.1201  0.7863 -0.6207
 9283SOL    HW129395   6.046   0.351   3.944 -1.0743  0.5644  0.0517
 9283SOL    HW229396   5.946   0.241   3.916  0.9818 -1.3947  0.0907
 9284SOL     OW29397   6.487   4.117   4.007 -0.1759  0.7820 -0.1152
 9284SOL    HW129398   6.461   4.203   3.975  0.0066  1.2188  0.8748
 9284SOL    HW229399   6.421   4.057   3.972 -0.3554  1.3330 -0.7331
 9285SOL     OW29400   5.760   0.130   5.333  0.0319  0.6882 -0.0116
 9285SOL    HW129401   5.717   0.199   5.283  1.4271  1.1858 -0.5626
 9285SOL    HW229402   5.835   0.172   5.374  1.8999 -0.7713 -1.6936
 9286SOL     OW29403   5.605   4.104   1.976  0.3600 -0.1123  0.2099
 9286SOL    HW129404   5.684   4.138   1.934 -0.6447  2.1309 -0.0256
 9286SOL    HW229405   5.603   4.011   1.953  2.2336  0.0666 -0.8517
 9287SOL     OW29406   3.908   6.562   1.256 -0.2769  0.4879 -0.3523
 9287SOL    HW129407   3.917   6.598   1.167  0.6817  0.5397 -0.2464
 9287SOL    HW229408   3.897   6.639   1.312 -1.0685  0.4455 -0.4385
 9288SOL     OW29409   4.712   2.891   4.406  0.3171 -0.4680  0.6924
 9288SOL    HW129410   4.724   2.955   4.335  0.4617  0.4017  1.4749
 9288SOL    HW229411   4.765   2.816   4.379  0.8481  0.0807  0.1466
 9289SOL     OW29412   5.390   5.336   4.477  0.0257 -0.5934  0.1037
 9289SOL    HW129413   5.404   5.277   4.551  0.1170 -0.0179  0.5529
 9289SOL    HW229414   5.344   5.412   4.514 -1.5171 -1.0584 -0.7610
 9290SOL     OW29415   2.530   5.570   4.793 -0.2900  0.1546 -0.4070
 9290SOL    HW129416   2.540   5.591   4.886 -2.9299 -0.6085  0.1490
 9290SOL    HW229417   2.582   5.637   4.748  2.2683 -0.3334  1.5878
 9291SOL     OW29418   0.578   1.331   6.226  0.1298 -0.1053  0.1460
 9291SOL    HW129419   0.566   1.245   6.267 -1.3093  0.3494  0.7215
 9291SOL    HW229420   0.506   1.339   6.164  0.4377  0.5651 -0.1354
 9292SOL     OW29421   2.606   3.060   0.794 -0.1755 -0.4018  0.0384
 9292SOL    HW129422   2.543   3.070   0.865 -0.5291 -1.2050 -0.1494
 9292SOL    HW229423   2.575   3.120   0.726  0.6561  1.0302  0.8688
 9293SOL     OW29424   5.483   4.640   3.544 -0.4602 -0.2046  0.0241
 9293SOL    HW129425   5.578   4.634   3.553 -0.4138  1.0416  0.5623
 9293SOL    HW229426   5.467   4.633   3.450  0.4817  2.7993 -0.4685
 9294SOL     OW29427   1.088   0.757   2.437 -0.0335 -0.3791  0.3452
 9294SOL    HW129428   1.075   0.769   2.343 -0.9673 -1.3511  0.3258
 9294SOL    HW229429   1.000   0.735   2.470 -0.2194  2.2271  1.8330
 9295SOL     OW29430   3.639   5.857   2.500 -0.2800 -0.0780 -0.4299
 9295SOL    HW129431   3.552   5.894   2.485 -0.7289 -0.5414  0.8732
 9295SOL    HW229432   3.697   5.934   2.504 -0.9008  0.3587  0.3624
 9296SOL     OW29433   4.096   3.059   0.300  0.8120  1.1039  0.0857
 9296SOL    HW129434   4.037   2.984   0.305 -0.2903  1.9216 -0.1486
 9296SOL    HW229435   4.182   3.021   0.286  0.4480 -0.1637  1.0568
 9297SOL     OW29436   5.274   0.094   1.567  0.1498  0.0529 -0.2495
 9297SOL    HW129437   5.273   0.046   1.650 -1.2218 -0.0629 -0.3153
 9297SOL    HW229438   5.267   0.186   1.593  1.0592  0.1212 -0.1995
 9298SOL     OW29439   3.653   1.926   5.849 -0.3547  0.3550 -0.1653
 9298SOL    HW129440   3.653   1.940   5.754  1.0100  1.0729 -0.0759
 9298SOL    HW229441   3.736   1.962   5.879 -1.3056  1.3176  1.4880
 9299SOL     OW29442   6.406   4.386   2.686  0.0373  0.2080 -0.4269
 9299SOL    HW129443   6.495   4.369   2.657  0.4339 -0.9652  1.3477
 9299SOL    HW229444   6.403   4.481   2.697  0.6212  0.4094 -1.7644
 9300SOL     OW29445   6.069   4.625   5.481  0.2776  0.4293  0.1981
 9300SOL    HW129446   6.105   4.689   5.543  1.8269 -1.3558  1.2808
 9300SOL    HW229447   6.008   4.572   5.534  1.9438 -1.3930  0.4361
 9301SOL     OW29448   0.826   6.014   0.728  0.9438 -0.1167  0.1736
 9301SOL    HW129449   0.795   6.083   0.787  0.3497 -0.4531  0.2711
 9301SOL    HW229450   0.781   6.032   0.646  2.3473  0.7928 -0.4223
 9302SOL     OW29451   6.125   4.085   3.178  0.2804  0.1013 -0.0230
 9302SOL    HW129452   6.214   4.054   3.166  1.3794  2.0388  2.2906
 9302SOL    HW229453   6.074   4.005   3.195  2.0191 -0.8746  0.8629
 9303SOL     OW29454   6.745   4.114   5.811 -0.1975 -0.1005  0.0608
 9303SOL    HW129455   6.800   4.035   5.813  1.3788  0.9606  1.3119
 9303SOL    HW229456   6.806   4.186   5.828 -1.8827  1.2121  0.8389
 9304SOL     OW29457   5.630   3.196   5.226  0.1467 -0.1510 -0.3230
 9304SOL    HW129458   5.652   3.146   5.148  0.6230 -0.0075 -0.2822
 9304SOL    HW229459   5.707   3.251   5.242  0.1420 -0.3431  0.3748
 9305SOL     OW29460   0.677   1.658   5.066 -1.2624 -0.1552 -0.0823
 9305SOL    HW129461   0.632   1.663   4.981  0.0288  0.6138 -0.7541
 9305SOL    HW229462   0.681   1.749   5.096 -0.1695 -0.1987 -0.0482
 9306SOL     OW29463   4.077   2.384   6.757 -0.1233 -0.6810 -0.1229
 9306SOL    HW129464   4.103   2.434   6.680 -1.1928  0.0359 -0.0441
 9306SOL    HW229465   3.982   2.379   6.751 -0.1429 -1.4111  0.6689
 9307SOL     OW29466   0.595   2.987   3.151  0.0067 -0.1363 -0.3342
 9307SOL    HW129467   0.554   3.032   3.077 -0.9205 -1.5249 -0.7003
 9307SOL    HW229468   0.529   2.988   3.219  1.0877  1.7237  0.7881
 9308SOL     OW29469   0.039   0.552   6.505  0.4049  1.0807 -0.2470
 9308SOL    HW129470  -0.033   0.551   6.568  1.6030 -0.9558  1.1867
 9308SOL    HW229471  -0.003   0.535   6.421 -0.8052 -0.2290  0.5807
 9309SOL     OW29472   5.583   0.201   0.853 -0.1202  0.0756  0.0674
 9309SOL    HW129473   5.546   0.114   0.868 -0.1443  0.1021  0.1639
 9309SOL    HW229474   5.540   0.257   0.918 -0.5834  0.2895 -0.4177
 9310SOL     OW29475   0.726   3.895   2.753 -0.2565  0.5810 -0.0491
 9310SOL    HW129476   0.672   3.915   2.830  0.3621  0.2258  0.4818
 9310SOL    HW229477   0.693   3.955   2.686 -1.7512 -0.0580  0.0588
 9311SOL     OW29478   4.898   3.396   3.931 -0.0799  0.0038 -0.1000
 9311SOL    HW129479   4.967   3.347   3.888  0.1942 -1.6629  2.0935
 9311SOL    HW229480   4.935   3.423   4.015 -1.5499  0.5111  0.4341
 9312SOL     OW29481   3.692   0.884   2.029  0.4639 -0.6733 -0.1271
 9312SOL    HW129482   3.621   0.843   2.078  1.9654 -1.8415  1.1906
 9312SOL    HW229483   3.653   0.906   1.944 -1.9764  0.5791  1.2180
 9313SOL     OW29484   3.128   6.416   6.031  0.2659 -0.2781 -0.0211
 9313SOL    HW129485   3.083   6.332   6.041  2.1484 -1.2783  0.6323
 9313SOL    HW229486   3.111   6.462   6.113 -0.7661 -0.0090 -0.3771
 9314SOL     OW29487   3.099   3.178   1.268  0.0636  0.5298  0.3364
 9314SOL    HW129488   3.096   3.088   1.237 -2.3205  0.6000  0.1494
 9314SOL    HW229489   3.082   3.172   1.362 -0.6457  0.8107  0.2298
 9315SOL     OW29490   3.618   3.210   2.836  0.2481 -0.0976  0.7778
 9315SOL    HW129491   3.612   3.147   2.764 -1.1095 -0.4998  1.2225
 9315SOL    HW229492   3.708   3.242   2.832  0.3267 -0.4414 -0.8173
 9316SOL     OW29493   4.928   0.842   2.978 -0.1763  0.0624  0.2449
 9316SOL    HW129494   4.900   0.775   2.915  0.1179  0.8145 -0.7129
 9316SOL    HW229495   5.019   0.821   2.996  0.0891  0.5261 -0.5051
 9317SOL     OW29496   1.924   5.461   5.970 -0.2265 -0.3672  0.1894
 9317SOL    HW129497   1.989   5.396   5.946 -1.7340 -1.2444 -1.7931
 9317SOL    HW229498   1.855   5.411   6.015  0.7484  0.6706  3.0809
 9318SOL     OW29499   2.562   2.696   0.927  0.5767  0.3747  0.1836
 9318SOL    HW129500   2.566   2.609   0.887  0.3366  0.4727 -0.0633
 9318SOL    HW229501   2.637   2.700   0.985  0.2808 -0.2040  0.6136
 9319SOL     OW29502   5.679   5.002   4.262 -0.0924 -0.2153  0.2746
 9319SOL    HW129503   5.614   4.946   4.219 -0.3003 -0.1186  0.4634
 9319SOL    HW229504   5.649   5.091   4.245 -0.7366 -0.1894  1.4853
 9320SOL     OW29505   5.645   4.307   3.481  0.1369 -0.3059  0.2249
 9320SOL    HW129506   5.710   4.373   3.454  0.5319 -0.8423 -0.1612
 9320SOL    HW229507   5.654   4.237   3.416 -0.7018 -0.4724  0.2838
 9321SOL     OW29508   4.261   5.698   1.242  0.2392  0.0927  0.5605
 9321SOL    HW129509   4.251   5.793   1.244  2.0953  0.3067  1.8451
 9321SOL    HW229510   4.173   5.665   1.263 -0.0937  1.5666  1.6702
 9322SOL     OW29511   3.529   1.946   5.577  0.1671  0.1323  0.4621
 9322SOL    HW129512   3.588   1.961   5.502  1.3939 -0.2438  1.3196
 9322SOL    HW229513   3.458   2.009   5.564 -0.4462 -0.8931 -1.7900
 9323SOL     OW29514   5.911   5.666   6.581 -0.2595 -0.0921 -0.4388
 9323SOL    HW129515   5.824   5.665   6.622 -0.6130 -2.1546 -1.1125
 9323SOL    HW229516   5.958   5.736   6.626 -1.1394 -1.1852  2.4006
 9324SOL     OW29517   4.226   1.587   5.488  0.2889  0.1487 -0.4474
 9324SOL    HW129518   4.270   1.531   5.424 -0.4990 -0.1687 -0.7145
 9324SOL    HW229519   4.148   1.619   5.442 -0.4467 -0.3227  0.4528
 9325SOL     OW29520   6.184   4.569   3.261 -0.0946  0.3676 -0.2936
 9325SOL    HW129521   6.157   4.496   3.317  2.1659  0.3313  0.8698
 9325SOL    HW229522   6.149   4.547   3.175 -0.5575 -1.4327  0.3067
 9326SOL     OW29523   2.746   1.505   4.579 -0.0917 -0.0610  1.0718
 9326SOL    HW129524   2.818   1.540   4.526 -1.8448  0.2195 -1.3035
 9326SOL    HW229525   2.671   1.561   4.557 -1.8549 -2.4055  0.7928
 9327SOL     OW29526   2.037   4.065   1.940  0.0420 -0.0362  0.2576
 9327SOL    HW129527   2.029   3.983   1.891 -0.9115 -0.6891  1.4471
 9327SOL    HW229528   1.977   4.126   1.897  1.5198  0.4089 -1.2793
 9328SOL     OW29529   2.976   4.829   2.814  0.8665  0.2669 -0.4348
 9328SOL    HW129530   3.070   4.832   2.827  0.9503  1.5048 -1.1994
 9328SOL    HW229531   2.939   4.862   2.896  1.0184 -1.2817  0.3079
 9329SOL     OW29532   5.327   5.884   6.233  0.4207  0.0997 -0.1636
 9329SOL    HW129533   5.251   5.851   6.283  1.1358 -1.1771  0.1239
 9329SOL    HW229534   5.349   5.812   6.174  2.6824 -0.4223  1.2004
 9330SOL     OW29535   5.917   0.556   0.244 -0.3132  0.3238  0.4069
 9330SOL    HW129536   5.856   0.494   0.285  0.3573 -0.1920  0.6472
 9330SOL    HW229537   5.999   0.545   0.292  0.3417  0.0770 -0.7208
 9331SOL     OW29538   2.527   0.729   2.740  0.1651 -0.5889 -0.7209
 9331SOL    HW129539   2.456   0.666   2.728 -0.3090 -0.0579 -0.7717
 9331SOL    HW229540   2.589   0.709   2.670 -1.3999  0.8857 -2.6575
 9332SOL     OW29541   2.087   3.175   5.048 -0.2819  0.5547 -0.2515
 9332SOL    HW129542   2.010   3.134   5.087  0.9190 -0.0491  1.6583
 9332SOL    HW229543   2.115   3.113   4.980 -0.6071  0.0195  0.0928
 9333SOL     OW29544   3.695   1.413   3.708 -0.1507 -0.0387  0.4973
 9333SOL    HW129545   3.613   1.417   3.659 -0.4851 -1.3738  0.9169
 9333SOL    HW229546   3.763   1.426   3.641 -0.6620  0.1458  0.0069
 9334SOL     OW29547   2.995   0.793   2.764 -0.4562 -0.1127  0.4531
 9334SOL    HW129548   3.032   0.855   2.826  2.2107 -1.0113 -0.1197
 9334SOL    HW229549   3.049   0.803   2.685 -0.6929 -2.3060 -0.0528
 9335SOL     OW29550   2.884   5.461   3.815 -0.3309 -0.0043 -1.0721
 9335SOL    HW129551   2.912   5.370   3.804 -1.0506 -0.8210  2.5786
 9335SOL    HW229552   2.961   5.507   3.847 -0.6230  0.0632 -0.4592
 9336SOL     OW29553   3.667   3.702   5.164  0.0240 -0.4501 -0.1028
 9336SOL    HW129554   3.642   3.621   5.120  1.5905 -0.9801 -0.0603
 9336SOL    HW229555   3.758   3.717   5.138  0.4624  0.1006  1.6385
 9337SOL     OW29556   2.815   5.733   5.592 -0.3101  0.2944  1.1352
 9337SOL    HW129557   2.724   5.763   5.582 -0.0464  0.7446 -0.0968
 9337SOL    HW229558   2.847   5.723   5.502  0.4091 -1.2841  1.5242
 9338SOL     OW29559   4.005   0.469   5.230  0.7426  0.3261  0.0386
 9338SOL    HW129560   3.946   0.504   5.297  1.0855  0.1092  0.4621
 9338SOL    HW229561   3.952   0.468   5.150  0.6621  1.6083  0.0532
 9339SOL     OW29562   4.977   1.788   0.215 -0.4941 -0.2112 -0.8146
 9339SOL    HW129563   5.053   1.843   0.234  0.8515 -2.1393 -0.3181
 9339SOL    HW229564   4.976   1.723   0.285 -2.0876 -0.7791 -1.3201
 9340SOL     OW29565   3.895   1.201   3.897  0.0800  0.1384  0.2039
 9340SOL    HW129566   3.914   1.282   3.944  1.4907 -0.0589 -0.0052
 9340SOL    HW229567   3.930   1.131   3.952 -0.5216 -0.2979  0.0545
 9341SOL     OW29568   0.851   5.840   0.174 -0.1578  0.3920  0.5088
 9341SOL    HW129569   0.896   5.774   0.121  0.3290 -0.7780  2.2789
 9341SOL    HW229570   0.826   5.907   0.111  1.7604 -0.1494 -0.9659
 9342SOL     OW29571   0.484   2.445   5.322  0.5300 -0.2844  0.0705
 9342SOL    HW129572   0.573   2.463   5.290  0.3522  0.2879 -0.1203
 9342SOL    HW229573   0.430   2.445   5.243  0.4373 -1.1599  0.1285
 9343SOL     OW29574   1.380   1.405   6.540  0.0283 -0.0172 -0.2246
 9343SOL    HW129575   1.370   1.364   6.626 -1.7355 -0.8402 -0.7797
 9343SOL    HW229576   1.409   1.333   6.482 -1.1450 -0.0628 -0.7888
 9344SOL     OW29577   4.835   1.066   0.817 -0.3462  0.2689  0.6872
 9344SOL    HW129578   4.832   1.002   0.889  0.7898 -0.1444  0.3783
 9344SOL    HW229579   4.817   1.014   0.739  1.4507  0.1441  0.3324
 9345SOL     OW29580   6.791   0.377   0.131  0.2981 -0.0464 -0.1881
 9345SOL    HW129581   6.880   0.412   0.126  0.4196 -0.2595  0.3725
 9345SOL    HW229582   6.735   0.454   0.123  0.5088  0.0238 -1.1608
 9346SOL     OW29583   1.633   5.652   0.503  0.1258  0.0389  0.4142
 9346SOL    HW129584   1.615   5.595   0.429 -1.6213  2.5511 -1.2778
 9346SOL    HW229585   1.563   5.633   0.566 -0.0936 -0.0982  0.1295
 9347SOL     OW29586   3.999   3.573   3.898  0.4444 -0.4327  0.8950
 9347SOL    HW129587   4.011   3.496   3.952 -1.2339 -1.0644  0.4261
 9347SOL    HW229588   4.008   3.542   3.808  0.2534  0.0181  0.7133
 9348SOL     OW29589   4.911   3.582   3.414 -0.3566 -0.2841 -0.8838
 9348SOL    HW129590   4.867   3.615   3.492 -0.4807  2.1980 -1.9188
 9348SOL    HW229591   4.842   3.536   3.366 -1.3756  1.7420 -1.4643
 9349SOL     OW29592   3.716   6.094   0.278  0.0554 -0.4271 -0.4721
 9349SOL    HW129593   3.671   6.059   0.355 -0.0705 -1.3425 -0.9447
 9349SOL    HW229594   3.654   6.080   0.206  0.1793  0.3974 -0.7485
 9350SOL     OW29595   2.809   0.677   5.851 -0.0759  0.8439 -0.3037
 9350SOL    HW129596   2.770   0.765   5.854 -1.4311  0.2743  3.0753
 9350SOL    HW229597   2.891   0.686   5.901 -0.4231  0.1312  0.4106
 9351SOL     OW29598   5.862   0.665   5.814 -0.5518  0.6782 -0.0360
 9351SOL    HW129599   5.922   0.619   5.872  0.8576  1.3558 -0.9195
 9351SOL    HW229600   5.793   0.601   5.795 -1.1755  0.5091  2.5014
 9352SOL     OW29601   5.041   2.544   4.201  0.1403 -0.1970 -0.5171
 9352SOL    HW129602   5.005   2.620   4.248 -1.0611 -1.0331 -0.0312
 9352SOL    HW229603   4.972   2.478   4.206  1.1561 -1.3317 -0.9380
 9353SOL     OW29604   4.876   6.122   1.225  0.3926 -0.0405 -0.2330
 9353SOL    HW129605   4.826   6.041   1.217 -0.3699  0.2141  1.4246
 9353SOL    HW229606   4.831   6.183   1.165 -1.2622  0.1344  1.1009
 9354SOL     OW29607   2.547   0.810   2.359  0.4455  0.0391  0.1784
 9354SOL    HW129608   2.455   0.819   2.386  0.2513 -2.3510  0.4915
 9354SOL    HW229609   2.587   0.893   2.387 -1.3630  0.7158  1.0092
 9355SOL     OW29610   1.112   4.301   6.648 -0.3323  0.8344 -0.1532
 9355SOL    HW129611   1.142   4.268   6.563  0.2010  0.9348 -0.0042
 9355SOL    HW229612   1.189   4.296   6.704 -0.7419  0.5589  0.3882
 9356SOL     OW29613   4.873   1.245   4.671  0.0099  0.5733 -0.3423
 9356SOL    HW129614   4.883   1.262   4.765  1.8573  1.0591 -0.5933
 9356SOL    HW229615   4.933   1.173   4.653 -1.2902 -0.3963 -0.9392
 9357SOL     OW29616   2.772   2.345   1.149  0.3383 -0.1615  0.6814
 9357SOL    HW129617   2.817   2.274   1.196  3.1368  0.8867 -0.1839
 9357SOL    HW229618   2.731   2.301   1.075 -0.4755 -1.2361  1.7205
 9358SOL     OW29619   3.097   5.911   3.415  0.3610  0.2428 -0.5770
 9358SOL    HW129620   3.143   5.846   3.361 -1.4767 -0.7572 -1.0375
 9358SOL    HW229621   3.079   5.983   3.354  1.5324  0.7663 -0.3209
 9359SOL     OW29622   6.344   4.318   3.910 -0.6203 -0.0148  0.1562
 9359SOL    HW129623   6.257   4.302   3.947 -0.7500 -0.2647 -0.2328
 9359SOL    HW229624   6.357   4.412   3.917 -2.7693  0.7914 -3.6030
 9360SOL     OW29625   1.472   3.664   2.938 -0.2067 -0.8532 -0.0878
 9360SOL    HW129626   1.506   3.732   2.880  0.3403 -1.2288 -0.2236
 9360SOL    HW229627   1.546   3.644   2.996  0.2017 -2.4448 -1.0755
 9361SOL     OW29628   4.122   6.270   1.896 -0.1378  0.2312 -0.2772
 9361SOL    HW129629   4.125   6.300   1.805  1.6432  1.3946  0.1112
 9361SOL    HW229630   4.172   6.335   1.944  1.1445 -1.6931  1.1374
 9362SOL     OW29631   5.111   3.774   5.353  0.2803 -0.1964 -0.4120
 9362SOL    HW129632   5.167   3.741   5.282  1.7213  1.5247 -0.1478
 9362SOL    HW229633   5.173   3.803   5.420 -1.0399 -0.7080  1.0672
 9363SOL     OW29634   4.841   0.070   1.602 -0.4105  0.1560 -1.2616
 9363SOL    HW129635   4.761   0.030   1.568 -0.4024 -1.0835  0.0358
 9363SOL    HW229636   4.850   0.032   1.690  2.2930 -0.8028 -1.8478
 9364SOL     OW29637   2.251   3.171   6.183 -0.9656  1.1760 -0.4270
 9364SOL    HW129638   2.209   3.091   6.151  0.1987 -0.1339  1.1477
 9364SOL    HW229639   2.255   3.228   6.107  0.7106 -1.3296 -2.3829
 9365SOL     OW29640   5.918   5.920   1.355  0.2311  0.1426 -0.4726
 9365SOL    HW129641   5.847   5.857   1.361  0.4451 -0.1885 -1.2310
 9365SOL    HW229642   5.994   5.873   1.392  0.8277 -0.7649 -2.6900
 9366SOL     OW29643   4.500   0.166   4.963 -0.0892  0.0041 -0.5332
 9366SOL    HW129644   4.497   0.168   5.058 -0.6418 -1.6986 -0.4876
 9366SOL    HW229645   4.558   0.092   4.942  0.8844  1.0046 -1.5361
 9367SOL     OW29646   0.011   3.121   5.060 -0.8328  0.5171  0.0058
 9367SOL    HW129647  -0.019   3.058   4.995 -1.1083  2.3125 -1.7167
 9367SOL    HW229648   0.105   3.130   5.044 -0.8882  0.9172 -0.1136
 9368SOL     OW29649   4.553   1.859   3.543  0.2576  0.0628  0.2497
 9368SOL    HW129650   4.462   1.862   3.574  0.6901  0.5425  1.5396
 9368SOL    HW229651   4.559   1.929   3.478  0.1540  1.2849  1.5052
 9369SOL     OW29652   2.155   6.310   4.791  0.4139 -0.1267 -0.0744
 9369SOL    HW129653   2.080   6.321   4.732  0.1585  1.3651  0.4866
 9369SOL    HW229654   2.232   6.326   4.736  0.1800  1.2132 -0.0500
 9370SOL     OW29655   5.525   2.807   1.804  0.0498  0.4653 -0.1734
 9370SOL    HW129656   5.430   2.812   1.816 -0.6399 -2.4537 -3.0155
 9370SOL    HW229657   5.543   2.867   1.732 -0.4587 -1.9403 -2.4453
 9371SOL     OW29658   4.018   1.285   6.180 -0.6838 -0.3511  0.1708
 9371SOL    HW129659   4.090   1.346   6.166 -0.5162 -0.2523  1.3437
 9371SOL    HW229660   4.045   1.205   6.135 -0.3643  0.0502 -0.3634
 9372SOL     OW29661   3.268   3.276   4.029 -0.4098 -0.3540  0.0534
 9372SOL    HW129662   3.257   3.236   3.943  0.0202 -1.8956  0.6990
 9372SOL    HW229663   3.185   3.320   4.045 -0.3741  0.2865 -1.2830
 9373SOL     OW29664   0.758   0.309   2.851 -0.6550 -0.3032  0.2338
 9373SOL    HW129665   0.762   0.371   2.778 -0.9385  1.0259  1.3087
 9373SOL    HW229666   0.833   0.251   2.837  0.1475  0.8297 -0.3249
 9374SOL     OW29667   0.508   3.590   5.284 -0.3214 -0.0728 -0.1126
 9374SOL    HW129668   0.503   3.501   5.249 -2.3043 -0.6929  1.4936
 9374SOL    HW229669   0.420   3.625   5.270 -0.6005  0.3544  2.2650
 9375SOL     OW29670   2.174   4.035   5.958  0.9369  0.6463 -0.0559
 9375SOL    HW129671   2.227   4.039   5.878  3.1309 -0.5905  1.2524
 9375SOL    HW229672   2.205   3.956   6.003  0.2666  1.6974  2.3639
 9376SOL     OW29673   2.125   0.347   2.430  0.0980 -0.2402 -0.4823
 9376SOL    HW129674   2.192   0.316   2.492 -0.8140  1.3882  1.4219
 9376SOL    HW229675   2.061   0.391   2.485 -1.0326  0.8398 -2.5816
 9377SOL     OW29676   0.942   5.302   2.191  0.5007 -0.8815 -0.0850
 9377SOL    HW129677   0.910   5.358   2.262  0.5427  2.2130 -2.3137
 9377SOL    HW229678   1.031   5.333   2.175  1.6776 -3.6811  0.4811
 9378SOL     OW29679   1.163   4.290   0.342 -0.0561  0.0187 -0.3375
 9378SOL    HW129680   1.239   4.326   0.388  0.0905 -0.3624 -0.2797
 9378SOL    HW229681   1.095   4.285   0.408 -0.0288  0.0404 -0.3076
 9379SOL     OW29682   0.753   5.283   2.659 -0.5973  0.2297  0.1567
 9379SOL    HW129683   0.828   5.251   2.710  0.2132 -0.2842 -1.2799
 9379SOL    HW229684   0.720   5.358   2.709  0.4363  0.0370  1.1815
 9380SOL     OW29685   6.204   1.264   1.059 -0.1270 -0.3752 -0.1207
 9380SOL    HW129686   6.207   1.216   0.976  2.0186 -0.1616 -0.2115
 9380SOL    HW229687   6.211   1.195   1.125  0.7439 -0.3871 -0.2058
 9381SOL     OW29688   4.975   3.254   6.736 -0.0446 -0.7293 -0.4453
 9381SOL    HW129689   4.976   3.252   6.640 -0.5437  0.1462 -0.4793
 9381SOL    HW229690   4.893   3.299   6.758  0.3376 -0.4269  0.3769
 9382SOL     OW29691   6.139   0.779   0.471  0.7248 -0.0260  0.2920
 9382SOL    HW129692   6.201   0.833   0.422 -0.4581 -0.5913 -1.9882
 9382SOL    HW229693   6.189   0.701   0.494  1.2051  0.0307 -0.5014
 9383SOL     OW29694   5.226   0.482   6.295  0.0333 -0.3735  0.3003
 9383SOL    HW129695   5.317   0.494   6.323  0.3840 -0.6181 -0.6909
 9383SOL    HW229696   5.199   0.569   6.266  0.0250 -0.3504  0.3762
 9384SOL     OW29697   3.566   2.406   1.943  0.3566  0.0992 -0.1147
 9384SOL    HW129698   3.537   2.458   1.868  0.5389  1.2604  0.5939
 9384SOL    HW229699   3.601   2.325   1.904 -2.8627 -0.9906 -1.0735
 9385SOL     OW29700   5.310   1.711   6.588 -0.2347 -0.2329 -0.6056
 9385SOL    HW129701   5.399   1.717   6.624  0.2682 -0.7898 -1.7141
 9385SOL    HW229702   5.255   1.696   6.664  0.7600 -1.0441 -0.0129
 9386SOL     OW29703   1.225   2.463   2.359  0.7218  0.7158 -0.3216
 9386SOL    HW129704   1.151   2.435   2.413  1.0375  2.1033  0.9002
 9386SOL    HW229705   1.187   2.481   2.273 -0.6117  2.4043  0.5550
 9387SOL     OW29706   0.861   0.592   0.149  0.2431 -0.4098 -0.2677
 9387SOL    HW129707   0.946   0.561   0.182  1.2054  0.1211 -2.1166
 9387SOL    HW229708   0.880   0.678   0.111 -0.9158 -0.7184 -1.6062
 9388SOL     OW29709   4.084   1.384   5.207 -0.5016 -0.6116 -0.6199
 9388SOL    HW129710   4.029   1.432   5.144 -0.2551 -0.5728 -0.8071
 9388SOL    HW229711   4.163   1.362   5.158 -0.4982 -0.9755 -0.4535
 9389SOL     OW29712   5.223   4.676   4.305 -0.1800  0.3693  0.0605
 9389SOL    HW129713   5.301   4.694   4.357 -0.2642  2.2317 -0.3777
 9389SOL    HW229714   5.215   4.751   4.246 -0.9028 -0.9681 -1.6630
 9390SOL     OW29715   5.026   3.868   4.549  0.4370  0.0601 -0.1443
 9390SOL    HW129716   4.940   3.828   4.533  1.3936 -1.5463 -1.6092
 9390SOL    HW229717   5.078   3.843   4.473  2.8313 -0.8192  1.6627
 9391SOL     OW29718   4.214   3.026   5.761 -0.0984 -0.0276 -0.2403
 9391SOL    HW129719   4.309   3.024   5.748 -0.0946 -1.2595 -0.0844
 9391SOL    HW229720   4.181   3.069   5.682  0.7756  3.6188  1.1292
 9392SOL     OW29721   2.729   3.198   5.710 -0.1584 -0.1590  0.2282
 9392SOL    HW129722   2.801   3.210   5.771 -1.3080 -2.8077  2.3113
 9392SOL    HW229723   2.703   3.106   5.721 -2.7547  0.2302 -1.6749
 9393SOL     OW29724   3.799   5.580   2.222  0.6983  0.0089 -0.0573
 9393SOL    HW129725   3.796   5.583   2.317  0.0877  0.5173 -0.0805
 9393SOL    HW229726   3.724   5.634   2.194  0.7959 -0.2355 -0.8188
 9394SOL     OW29727   5.836   0.231   5.974  0.3654  0.7724 -0.1108
 9394SOL    HW129728   5.803   0.206   6.060 -0.2940 -2.0894 -1.0760
 9394SOL    HW229729   5.915   0.179   5.962 -0.0109  0.4807 -1.5270
 9395SOL     OW29730   4.522   1.259   5.732 -0.1716  0.2125 -0.5825
 9395SOL    HW129731   4.431   1.287   5.741 -0.6739 -1.0178 -1.5815
 9395SOL    HW229732   4.540   1.213   5.814  0.5257  2.8829  0.8899
 9396SOL     OW29733   3.747   5.183   5.719 -0.0735  0.6008 -0.6589
 9396SOL    HW129734   3.836   5.167   5.750 -0.8230  0.1737  1.4483
 9396SOL    HW229735   3.740   5.133   5.637  1.0852 -0.7612  0.0354
 9397SOL     OW29736   2.514   2.876   3.607  0.4253  0.1590 -0.4647
 9397SOL    HW129737   2.494   2.938   3.537 -0.3264  0.2957 -0.1400
 9397SOL    HW229738   2.562   2.928   3.672  0.6763  0.1545 -0.6463
 9398SOL     OW29739   5.182   1.726   3.560 -0.5681  0.4599  0.6930
 9398SOL    HW129740   5.140   1.697   3.641 -1.0426  0.1975  0.3566
 9398SOL    HW229741   5.146   1.813   3.544 -1.5874 -0.0667 -0.0003
 9399SOL     OW29742   0.356   6.278   5.808  0.3812 -0.6701  0.0657
 9399SOL    HW129743   0.448   6.306   5.815  0.5153 -0.8848 -0.6839
 9399SOL    HW229744   0.307   6.360   5.803  0.5016 -0.5517  0.8158
 9400SOL     OW29745   2.268   1.136   5.015 -0.5278  0.0995  0.3484
 9400SOL    HW129746   2.332   1.066   5.004 -1.0237 -0.4866  1.0604
 9400SOL    HW229747   2.197   1.113   4.954 -0.5027  0.2016  0.2816
 9401SOL     OW29748   0.547   2.511   3.703  0.2155 -0.0865 -0.2330
 9401SOL    HW129749   0.480   2.532   3.768 -1.0216 -0.9100 -1.1884
 9401SOL    HW229750   0.571   2.595   3.664 -0.7202  0.1681 -0.2819
 9402SOL     OW29751   6.103   0.492   0.873  0.4657 -0.0537 -0.8688
 9402SOL    HW129752   6.076   0.405   0.845 -1.6241  0.6095 -1.0639
 9402SOL    HW229753   6.148   0.529   0.797 -1.9792  0.3935 -2.2101
 9403SOL     OW29754   3.814   2.619   6.438  0.4645 -0.5332 -0.6704
 9403SOL    HW129755   3.726   2.611   6.473  0.4242  1.2313 -0.2516
 9403SOL    HW229756   3.863   2.547   6.478 -0.4005 -0.5433  0.4094
 9404SOL     OW29757   0.154   2.209   2.858  0.0632 -0.7549 -0.0723
 9404SOL    HW129758   0.209   2.185   2.932  0.9841  0.2489 -0.4011
 9404SOL    HW229759   0.148   2.129   2.805  1.6305 -0.7689 -0.2783
 9405SOL     OW29760   0.212   2.848   4.910  0.4130  0.0563 -0.3347
 9405SOL    HW129761   0.127   2.808   4.896 -0.3065  0.8214  1.5210
 9405SOL    HW229762   0.248   2.859   4.822 -1.3222 -0.4437 -1.1507
 9406SOL     OW29763   1.986   4.117   0.177  0.2657 -0.3316  0.3231
 9406SOL    HW129764   1.983   4.051   0.247  0.9948  0.2644  0.9382
 9406SOL    HW229765   2.018   4.069   0.101  0.1247 -0.8417  0.5764
 9407SOL     OW29766   3.245   4.282   3.584 -0.2355  0.2482  0.0619
 9407SOL    HW129767   3.235   4.196   3.625  0.6128 -1.0170 -2.1807
 9407SOL    HW229768   3.185   4.280   3.509 -0.6122  1.8587  0.2826
 9408SOL     OW29769   4.965   5.959   5.736 -0.3311  0.8227  0.1184
 9408SOL    HW129770   5.058   5.937   5.733 -0.5531 -0.3902  1.1484
 9408SOL    HW229771   4.951   5.995   5.824 -0.9382  0.3978  0.2065
 9409SOL     OW29772   2.850   5.715   0.314 -0.0606  0.2463 -0.6972
 9409SOL    HW129773   2.792   5.724   0.390 -0.5179 -1.2845 -0.8459
 9409SOL    HW229774   2.937   5.701   0.351 -0.3288 -0.7907 -0.4443
 9410SOL     OW29775   5.030   5.712   3.213  0.0454 -0.7236 -0.0870
 9410SOL    HW129776   4.937   5.734   3.206  0.4558  1.0573 -0.3827
 9410SOL    HW229777   5.050   5.723   3.306  0.5841  1.8981 -0.4223
 9411SOL     OW29778   3.844   0.628   0.145 -0.4402 -0.1725 -0.0837
 9411SOL    HW129779   3.809   0.708   0.107  0.0918  1.3013  2.3029
 9411SOL    HW229780   3.774   0.596   0.202 -0.6286 -1.4057 -0.9793
 9412SOL     OW29781   3.603   0.007   5.843 -0.1575  0.6587  0.3547
 9412SOL    HW129782   3.659  -0.019   5.769 -1.1177  1.0076 -0.5153
 9412SOL    HW229783   3.515   0.013   5.806 -0.4563  2.1466  1.2062
 9413SOL     OW29784   5.836   4.039   4.897  0.3016  0.1634 -0.5566
 9413SOL    HW129785   5.826   3.965   4.837 -3.9142  0.0066  0.0913
 9413SOL    HW229786   5.826   4.117   4.841  0.9691  0.1621 -0.6858
 9414SOL     OW29787   1.318   2.911   0.923 -0.4435 -0.2469 -0.0097
 9414SOL    HW129788   1.383   2.845   0.947  0.2601 -0.5757 -2.4579
 9414SOL    HW229789   1.243   2.861   0.892 -0.9281  0.1202  0.5660
 9415SOL     OW29790   3.885   0.615   2.441 -0.4286 -0.4232  0.1787
 9415SOL    HW129791   3.874   0.584   2.531 -2.4027  0.5059  0.3155
 9415SOL    HW229792   3.802   0.594   2.398 -0.6030  1.6619 -0.6041
 9416SOL     OW29793   3.667   2.696   0.830 -0.1623  0.4314 -0.3535
 9416SOL    HW129794   3.601   2.760   0.858  0.1796  0.8305 -0.4491
 9416SOL    HW229795   3.617   2.629   0.782 -0.2910  1.5880 -1.8933
 9417SOL     OW29796   2.174   4.006   2.749 -0.3325 -0.1608 -0.2197
 9417SOL    HW129797   2.197   3.915   2.731  1.2632  0.1143  0.2432
 9417SOL    HW229798   2.240   4.057   2.702 -1.1036  0.7636 -0.3352
 9418SOL     OW29799   0.749   1.193   1.701  0.0803 -0.5217 -0.1773
 9418SOL    HW129800   0.845   1.197   1.696  0.0101  1.2236 -0.9110
 9418SOL    HW229801   0.720   1.282   1.680 -1.7256 -1.0852 -0.2702
 9419SOL     OW29802   6.128   3.169   4.452 -0.1455 -0.8684  0.5232
 9419SOL    HW129803   6.201   3.227   4.432 -0.9028  0.2560  0.9218
 9419SOL    HW229804   6.063   3.187   4.384 -0.4384 -1.1570  0.7237
 9420SOL     OW29805   2.263   0.238   5.396  0.2352 -0.2135 -0.2126
 9420SOL    HW129806   2.199   0.177   5.434 -2.9458  1.2648 -2.7279
 9420SOL    HW229807   2.264   0.312   5.456 -1.7373  0.4203 -0.8803
 9421SOL     OW29808   6.197   4.361   2.534  0.2839  0.2935 -0.1935
 9421SOL    HW129809   6.280   4.366   2.582  0.0164 -0.2267  0.3289
 9421SOL    HW229810   6.144   4.432   2.569 -0.1823 -0.5278  0.8214
 9422SOL     OW29811   2.270   1.337   2.018 -0.7652 -0.3316 -0.5808
 9422SOL    HW129812   2.197   1.399   2.012 -0.1943  0.4923  0.6529
 9422SOL    HW229813   2.276   1.316   2.111  1.9456  1.3416 -0.2798
 9423SOL     OW29814   2.620   6.663   1.322 -0.0098  0.0959  0.0316
 9423SOL    HW129815   2.542   6.699   1.363  0.1981  0.0549  0.4641
 9423SOL    HW229816   2.674   6.631   1.394  1.4290  2.1154 -0.0468
 9424SOL     OW29817   3.223   4.859   2.912 -1.0258  0.7226  0.0198
 9424SOL    HW129818   3.276   4.856   2.832 -1.0829  1.2183 -0.0385
 9424SOL    HW229819   3.277   4.906   2.975 -1.6852  1.9365 -0.2740
 9425SOL     OW29820   3.137   4.916   5.172  0.2263  0.3478  0.4981
 9425SOL    HW129821   3.067   4.855   5.194 -1.7869  1.9686 -0.9821
 9425SOL    HW229822   3.131   4.984   5.240  1.7767 -0.5329  1.5532
 9426SOL     OW29823   4.321   6.016   3.024  0.1266  0.1127  0.0939
 9426SOL    HW129824   4.262   6.034   2.950  0.5219 -0.5344 -0.3855
 9426SOL    HW229825   4.408   6.017   2.986  0.2333 -1.8094  0.2197
 9427SOL     OW29826   1.173   3.803   6.312 -0.1041 -0.1982  0.2284
 9427SOL    HW129827   1.153   3.868   6.245 -0.1206  1.9881  2.2033
 9427SOL    HW229828   1.248   3.841   6.359 -0.9610 -0.9334  2.2838
 9428SOL     OW29829   5.504   0.651   5.605  0.0412  0.3499 -0.0992
 9428SOL    HW129830   5.525   0.588   5.675 -0.3030 -0.1350 -0.4225
 9428SOL    HW229831   5.584   0.656   5.554 -0.0354 -0.0995 -0.2722
 9429SOL     OW29832   0.852   3.713   4.175 -0.5918 -0.0265 -0.2140
 9429SOL    HW129833   0.839   3.792   4.122  0.9102  0.1016 -0.4468
 9429SOL    HW229834   0.834   3.741   4.265 -1.0256  0.3210 -0.4073
 9430SOL     OW29835   5.437   5.708   0.540  0.2083 -0.1162 -0.2685
 9430SOL    HW129836   5.483   5.733   0.620 -0.6233 -1.1822  0.5827
 9430SOL    HW229837   5.500   5.725   0.469  0.1556  3.0635  0.3147
 9431SOL     OW29838   3.532   3.899   2.987  0.4490 -0.0475  0.6906
 9431SOL    HW129839   3.581   3.953   2.926  0.5504 -0.6296  0.2520
 9431SOL    HW229840   3.450   3.947   3.001  0.5680  0.2522  0.3601
 9432SOL     OW29841   2.552   1.744   2.061 -0.2649 -0.0630 -0.3417
 9432SOL    HW129842   2.607   1.672   2.030  0.9776 -1.0185  3.5217
 9432SOL    HW229843   2.463   1.709   2.056  0.1716 -1.2916 -0.0594
 9433SOL     OW29844   5.007   6.291   4.088 -0.2857  0.1351  0.0888
 9433SOL    HW129845   4.960   6.374   4.093  0.2341  0.4779 -0.5640
 9433SOL    HW229846   5.071   6.295   4.159 -1.6687 -0.6338  1.4439
 9434SOL     OW29847   2.632   6.719   4.115 -0.2571  0.0861 -0.0853
 9434SOL    HW129848   2.540   6.696   4.130  0.0608 -0.7024  0.8421
 9434SOL    HW229849   2.680   6.638   4.134  0.8140  1.0748  1.8446
 9435SOL     OW29850   1.687   2.721   4.720  0.2939  0.3229 -0.7724
 9435SOL    HW129851   1.644   2.650   4.671 -0.0694 -0.2329  0.3315
 9435SOL    HW229852   1.656   2.801   4.677 -1.0129 -0.1103 -0.6789
 9436SOL     OW29853   3.563   3.377   4.628  0.2992  0.1750  0.7013
 9436SOL    HW129854   3.474   3.404   4.603  0.4566  0.0684  0.0081
 9436SOL    HW229855   3.550   3.318   4.702 -0.2678 -0.4653  0.1104
 9437SOL     OW29856   1.155   1.118   3.838  0.8156 -0.3800 -0.6559
 9437SOL    HW129857   1.210   1.132   3.916 -1.7812 -0.5600  1.3623
 9437SOL    HW229858   1.177   1.030   3.809  2.2565 -0.0963 -0.5200
 9438SOL     OW29859   4.959   1.910   3.215 -0.1364  0.1674 -0.2910
 9438SOL    HW129860   4.890   1.964   3.178 -0.4270 -0.0411 -0.0602
 9438SOL    HW229861   4.927   1.820   3.205 -0.3561  0.1175  0.7248
 9439SOL     OW29862   5.285   4.079   1.183 -0.8405  0.0144  0.1358
 9439SOL    HW129863   5.363   4.026   1.167 -1.2697 -0.5390 -0.1530
 9439SOL    HW229864   5.265   4.066   1.275 -1.8011 -1.5283 -0.2559
 9440SOL     OW29865   4.707   3.872   4.288 -0.1614 -1.1656 -0.1400
 9440SOL    HW129866   4.775   3.839   4.230 -0.6112 -0.6895 -0.9489
 9440SOL    HW229867   4.737   3.960   4.313  0.4923 -1.7245  1.1233
 9441SOL     OW29868   1.929   6.283   4.034 -0.5437 -0.2732 -0.3625
 9441SOL    HW129869   1.893   6.370   4.016  0.1145 -0.1873 -1.3820
 9441SOL    HW229870   1.950   6.249   3.947  2.3126 -0.0968  0.1808
 9442SOL     OW29871   0.326   2.042   6.229  0.7828  0.1124  0.0002
 9442SOL    HW129872   0.317   2.081   6.142 -1.5356  0.8181  0.4953
 9442SOL    HW229873   0.392   2.096   6.272 -0.0561  1.5368 -0.4193
 9443SOL     OW29874   3.279   5.691   2.652 -0.7511  0.4994 -0.0587
 9443SOL    HW129875   3.222   5.620   2.622 -0.2864  0.2730 -0.4259
 9443SOL    HW229876   3.264   5.695   2.746 -0.2945 -0.5433  0.0798
 9444SOL     OW29877   2.983   4.947   0.690  0.1233  0.2766 -0.1142
 9444SOL    HW129878   2.996   5.010   0.760 -1.5272  0.0443  0.4381
 9444SOL    HW229879   2.970   4.863   0.736 -1.9196  0.2786 -0.6007
 9445SOL     OW29880   4.019   6.632   6.218  0.0109  0.2577  0.1963
 9445SOL    HW129881   3.947   6.617   6.156  0.5613 -0.6325 -0.2487
 9445SOL    HW229882   3.979   6.680   6.290 -1.5623 -2.0399  0.9664
 9446SOL     OW29883   6.654   0.083   2.633 -0.1397 -0.8475 -0.0869
 9446SOL    HW129884   6.669   0.118   2.721  1.1690  0.3059 -0.7275
 9446SOL    HW229885   6.559   0.089   2.620 -0.2816 -0.5580  1.0452
 9447SOL     OW29886   1.028   6.184   1.996 -0.0907 -0.0034 -0.1223
 9447SOL    HW129887   1.014   6.222   1.909 -1.4134 -0.6316 -0.2097
 9447SOL    HW229888   1.046   6.260   2.053  0.2205  0.4638 -0.8310
 9448SOL     OW29889   3.412   3.787   3.935  0.1619 -0.1484 -0.8384
 9448SOL    HW129890   3.422   3.706   3.985  1.4798  0.7945  0.5618
 9448SOL    HW229891   3.318   3.794   3.918 -0.0494 -1.6207 -0.4132
 9449SOL     OW29892   4.632   3.474   3.448 -0.4654 -0.2070 -0.6305
 9449SOL    HW129893   4.608   3.454   3.357 -0.5323 -1.0533 -0.4347
 9449SOL    HW229894   4.589   3.406   3.500 -1.2036  0.8116  0.1413
 9450SOL     OW29895   6.272   6.063   1.310  0.1632 -0.2398  0.5643
 9450SOL    HW129896   6.259   6.032   1.220  1.3924  0.1703  0.2229
 9450SOL    HW229897   6.364   6.043   1.329  0.6722  2.0172  0.7716
 9451SOL     OW29898   6.145   1.219   2.565 -0.0542 -0.0038 -0.4624
 9451SOL    HW129899   6.057   1.231   2.530 -0.3411  0.1463  0.3000
 9451SOL    HW229900   6.168   1.129   2.543 -0.8543 -0.4058  0.3483
 9452SOL     OW29901   5.021   2.560   0.673  0.6040  0.1534  0.3175
 9452SOL    HW129902   4.968   2.636   0.698 -0.4683  0.0088 -1.3048
 9452SOL    HW229903   4.989   2.490   0.729  0.2130  0.4489  0.4743
 9453SOL     OW29904   5.257   2.820   2.626  0.3977 -0.2918 -0.0002
 9453SOL    HW129905   5.199   2.874   2.679  1.8177  0.2173  1.0916
 9453SOL    HW229906   5.226   2.833   2.536  0.1548  1.6800  0.3222
 9454SOL     OW29907   2.871   1.299   0.072 -0.0920  0.1820  0.1718
 9454SOL    HW129908   2.784   1.317   0.106  1.1891  3.2573  2.2678
 9454SOL    HW229909   2.900   1.382   0.034  1.0180 -1.4552 -3.0063
 9455SOL     OW29910   3.237   0.728   0.950  0.5409  1.1670 -0.2385
 9455SOL    HW129911   3.319   0.678   0.943 -0.2124 -0.0957 -0.3150
 9455SOL    HW229912   3.265   0.817   0.970  1.8629  0.2652  2.4110
 9456SOL     OW29913   0.715   6.024   6.783  0.0574  0.3414 -0.0424
 9456SOL    HW129914   0.800   6.068   6.795  0.0244  0.8328 -1.3880
 9456SOL    HW229915   0.664   6.086   6.730 -0.3703 -0.8590 -1.0835
 9457SOL     OW29916   1.006   1.121   1.628  0.2569  0.0546  0.1028
 9457SOL    HW129917   1.025   1.043   1.575 -0.7895 -1.3512  1.6925
 9457SOL    HW229918   1.060   1.110   1.707 -0.3599  0.6106  0.6123
 9458SOL     OW29919   6.055   5.678   1.202  0.0997 -0.2790  0.4575
 9458SOL    HW129920   5.993   5.656   1.133 -2.1669 -1.4125  2.6650
 9458SOL    HW229921   6.094   5.760   1.174  0.3573 -1.3793 -2.7619
 9459SOL     OW29922   5.953   6.368   5.522  0.1125 -0.7268  0.7929
 9459SOL    HW129923   5.864   6.372   5.488  0.3354  2.4797  0.2954
 9459SOL    HW229924   5.947   6.405   5.610  1.2852  2.5934 -0.3705
 9460SOL     OW29925   0.643   6.566   2.396 -0.3520 -0.1595 -0.3110
 9460SOL    HW129926   0.724   6.603   2.432 -0.8578 -0.0649  0.7944
 9460SOL    HW229927   0.664   6.543   2.306  0.3244  1.7891 -0.7062
 9461SOL     OW29928   1.761   3.659   2.377 -0.2044 -0.5972 -0.0313
 9461SOL    HW129929   1.855   3.641   2.368 -0.3294 -1.0239 -0.5084
 9461SOL    HW229930   1.745   3.655   2.471 -0.2639 -3.2415 -0.0932
 9462SOL     OW29931   2.825   6.641   3.486 -0.2260  0.3018  0.0257
 9462SOL    HW129932   2.785   6.578   3.426 -1.4721  0.7481  0.3457
 9462SOL    HW229933   2.913   6.655   3.451 -0.6417 -0.0630 -1.2375
 9463SOL     OW29934   0.552   3.210   2.814  0.1817 -0.2890 -0.2289
 9463SOL    HW129935   0.526   3.208   2.906  0.0850 -0.6881 -0.2628
 9463SOL    HW229936   0.509   3.134   2.775 -1.0805  0.7677 -0.9607
 9464SOL     OW29937   5.382   4.336   2.963  0.2311  0.3366 -0.4181
 9464SOL    HW129938   5.305   4.353   3.017  0.9858  0.5560  0.6311
 9464SOL    HW229939   5.347   4.323   2.875 -1.2129 -1.7363  0.3968
 9465SOL     OW29940   3.739   1.917   1.764 -0.6310  0.1498  0.2842
 9465SOL    HW129941   3.780   1.942   1.681  0.4278  0.1295  0.7868
 9465SOL    HW229942   3.798   1.852   1.802 -1.2625 -0.0748  0.9103
 9466SOL     OW29943   0.766   2.472   1.411  0.5199 -0.0416 -0.6214
 9466SOL    HW129944   0.726   2.549   1.452  0.9951  0.5843 -1.3049
 9466SOL    HW229945   0.835   2.507   1.356  2.0203 -1.0942  0.5070
 9467SOL     OW29946   1.466   5.039   0.746  0.0135 -0.5389 -0.9758
 9467SOL    HW129947   1.380   4.996   0.749 -0.4479  0.3326 -1.5193
 9467SOL    HW229948   1.468   5.093   0.825  0.3775 -1.1372 -0.5696
 9468SOL     OW29949   5.235   3.991   2.839  0.0698 -0.3205 -0.2743
 9468SOL    HW129950   5.183   4.068   2.816  0.9215  0.7400  1.1999
 9468SOL    HW229951   5.190   3.918   2.796  0.0213  1.1322 -2.9359
 9469SOL     OW29952   5.820   4.084   3.971  0.1267 -0.1272 -0.1180
 9469SOL    HW129953   5.786   3.998   3.995 -0.5932  0.0232 -0.5453
 9469SOL    HW229954   5.754   4.145   4.003  0.9676  0.3202  0.7950
 9470SOL     OW29955   5.426   4.604   2.459 -0.4591 -0.7171  0.6246
 9470SOL    HW129956   5.371   4.680   2.479 -0.0707  0.7318 -3.0348
 9470SOL    HW229957   5.369   4.544   2.413  0.1978 -0.7649 -0.1456
 9471SOL     OW29958   1.262   5.188   6.753  0.5190  1.0328 -0.0086
 9471SOL    HW129959   1.256   5.209   6.846 -3.7906  2.2040 -0.3367
 9471SOL    HW229960   1.260   5.092   6.750 -0.8384  1.0009  1.1190
 9472SOL     OW29961   5.856   3.809   4.073  1.0310  0.2137  0.2192
 9472SOL    HW129962   5.881   3.716   4.069 -0.3001 -0.1249 -2.6597
 9472SOL    HW229963   5.801   3.814   4.152  2.1233 -1.1213  1.1318
 9473SOL     OW29964   0.652   5.861   2.180 -0.2531 -0.2905  0.1470
 9473SOL    HW129965   0.587   5.903   2.237  0.3077 -0.9648  1.3263
 9473SOL    HW229966   0.728   5.920   2.184 -0.1086 -0.4895  0.3356
 9474SOL     OW29967   4.054   1.867   0.783  0.0990 -0.4011  0.1842
 9474SOL    HW129968   4.101   1.898   0.861 -1.5006 -2.3405  2.0423
 9474SOL    HW229969   4.091   1.918   0.711  2.9339  0.2526  1.9255
 9475SOL     OW29970   0.019   1.556   3.709 -0.5337 -0.4404 -0.1843
 9475SOL    HW129971  -0.048   1.606   3.662 -1.7394 -2.1229 -0.3620
 9475SOL    HW229972   0.060   1.501   3.641  1.4949  0.9548 -0.1968
 9476SOL     OW29973   3.357   2.048   2.113 -0.4204  0.1812  0.1019
 9476SOL    HW129974   3.443   2.027   2.075 -0.3716 -1.1033  0.8636
 9476SOL    HW229975   3.376   2.119   2.175  0.0804 -0.0202  0.1891
 9477SOL     OW29976   6.399   1.313   3.948  0.4357  0.2048  0.1665
 9477SOL    HW129977   6.379   1.273   4.032  0.2920 -1.6381 -0.6886
 9477SOL    HW229978   6.490   1.340   3.955  0.1132  1.0854  1.2610
 9478SOL     OW29979   3.108   4.333   1.160  0.0483 -0.1313  0.3445
 9478SOL    HW129980   3.167   4.407   1.157 -0.2935  0.1390  0.2252
 9478SOL    HW229981   3.163   4.257   1.138  0.5151  0.0052  1.0057
 9479SOL     OW29982   6.743   2.301   2.122 -0.4942  0.2031 -0.0486
 9479SOL    HW129983   6.826   2.257   2.141 -0.6785  0.5127  1.5539
 9479SOL    HW229984   6.686   2.231   2.089 -0.7836 -0.8313  2.4447
 9480SOL     OW29985   1.275   2.598   1.563  0.4145  0.1320  0.7114
 9480SOL    HW129986   1.246   2.627   1.649 -0.7212 -0.6527  0.6154
 9480SOL    HW229987   1.301   2.678   1.518  1.7455  0.4775  2.0232
 9481SOL     OW29988   6.203   3.516   5.282  0.1305  0.3235 -0.6294
 9481SOL    HW129989   6.271   3.451   5.298 -0.7706 -0.3871  0.4224
 9481SOL    HW229990   6.157   3.485   5.204  0.7804  0.6343 -1.1491
 9482SOL     OW29991   5.464   5.966   5.469 -0.6567  0.4032 -0.1582
 9482SOL    HW129992   5.511   5.951   5.551 -0.6369  1.7078  0.0903
 9482SOL    HW229993   5.532   5.967   5.402 -0.4186  1.4346  0.0909
 9483SOL     OW29994   1.760   6.613   2.890  0.4714  0.5182  0.0350
 9483SOL    HW129995   1.767   6.609   2.985 -1.5950 -0.0594  0.2110
 9483SOL    HW229996   1.819   6.545   2.858 -0.6854 -1.0147  1.0461
 9484SOL     OW29997   4.246   0.842   3.778  0.5435 -0.1108  0.2963
 9484SOL    HW129998   4.294   0.911   3.825  0.4725  0.2583 -0.1562
 9484SOL    HW229999   4.271   0.761   3.822  0.4358  0.2295  0.9971
 9485SOL     OW30000   1.986   5.246   2.391 -0.5356 -0.6350 -0.5848
 9485SOL    HW130001   2.071   5.204   2.374 -0.8189 -1.6786  0.4260
 9485SOL    HW230002   1.993   5.331   2.349  1.5068 -0.1590  0.5540
 9486SOL     OW30003   1.258   4.693   1.247  0.5349  0.6273 -0.5987
 9486SOL    HW130004   1.166   4.672   1.264  0.1421  0.6501 -2.4908
 9486SOL    HW230005   1.270   4.780   1.285 -0.3030  0.7659 -0.6281
 9487SOL     OW30006   2.497   2.752   5.755 -0.2221  0.1847 -0.2734
 9487SOL    HW130007   2.416   2.722   5.795 -0.2190  1.3976  0.7098
 9487SOL    HW230008   2.491   2.723   5.664 -0.5018 -2.1216  0.4096
 9488SOL     OW30009   3.690   0.668   5.999  0.0568  0.3293 -0.2437
 9488SOL    HW130010   3.641   0.592   5.968 -0.5271  0.4981  0.2346
 9488SOL    HW230011   3.623   0.728   6.031  0.5978  0.3210  0.9775
 9489SOL     OW30012   1.346   3.132   1.546  0.1020 -0.6088  0.1075
 9489SOL    HW130013   1.324   3.115   1.638  0.6599 -0.3100  0.3041
 9489SOL    HW230014   1.320   3.052   1.500 -0.9226 -0.4549  0.3922
 9490SOL     OW30015   1.434   5.597   6.144 -0.0163  0.1450  0.9069
 9490SOL    HW130016   1.463   5.569   6.057 -0.6113  0.7664  0.5062
 9490SOL    HW230017   1.487   5.544   6.204 -1.1362 -1.9028  0.1913
 9491SOL     OW30018   3.557   2.205   5.801  0.1032 -0.2668  0.1479
 9491SOL    HW130019   3.549   2.221   5.707  0.3242 -1.8528 -0.1549
 9491SOL    HW230020   3.483   2.254   5.840  0.3034  0.8125 -0.7742
 9492SOL     OW30021   0.616   1.799   5.805 -0.0871 -0.0498 -0.8097
 9492SOL    HW130022   0.532   1.825   5.844  1.0033  0.1906  1.5456
 9492SOL    HW230023   0.671   1.877   5.813 -0.0083  0.2975 -3.7196
 9493SOL     OW30024   0.607   3.096   1.804 -0.1624 -0.5094 -0.0355
 9493SOL    HW130025   0.554   3.050   1.869 -0.8612  0.2570 -0.0490
 9493SOL    HW230026   0.687   3.044   1.797 -0.6322 -1.3209  0.4695
 9494SOL     OW30027   3.350   3.097   6.621 -0.2028 -0.0740 -0.2626
 9494SOL    HW130028   3.325   3.097   6.528  1.7120 -1.5462 -0.8463
 9494SOL    HW230029   3.365   3.005   6.642 -1.5739  0.1147  1.8389
 9495SOL     OW30030   3.578   5.920   4.340 -0.1753  0.1909 -0.4736
 9495SOL    HW130031   3.502   5.886   4.293 -0.7084 -0.9080  1.0977
 9495SOL    HW230032   3.648   5.857   4.322 -0.3793 -0.2297  0.1694
 9496SOL     OW30033   6.211   2.697   2.335  0.0873 -0.0368 -0.1466
 9496SOL    HW130034   6.304   2.679   2.350 -0.0480  0.4785  1.5265
 9496SOL    HW230035   6.199   2.787   2.364 -0.6840  0.3610 -1.6272
 9497SOL     OW30036   1.899   2.618   1.505 -0.3384 -0.1963 -0.1504
 9497SOL    HW130037   1.918   2.544   1.561 -0.9754  1.5264  2.5190
 9497SOL    HW230038   1.804   2.631   1.511 -0.3640  0.3371 -1.2637
 9498SOL     OW30039   0.056   6.331   6.122  0.9007  0.3557  0.2891
 9498SOL    HW130040  -0.008   6.361   6.057  0.6702  0.4005  0.5339
 9498SOL    HW230041   0.031   6.376   6.202  0.7427 -0.2498  0.5849
 9499SOL     OW30042   3.883   3.991   5.352  0.1014 -0.3781  0.8019
 9499SOL    HW130043   3.877   3.983   5.257  0.0478 -1.0911  0.8597
 9499SOL    HW230044   3.816   3.931   5.385  0.1493 -0.1660  1.2885
 9500SOL     OW30045   1.810   0.851   3.253  0.1393 -0.8852 -0.4139
 9500SOL    HW130046   1.743   0.788   3.228 -1.5741  0.9200 -0.6332
 9500SOL    HW230047   1.842   0.887   3.170 -0.9098  0.4812 -0.2652
 9501SOL     OW30048   0.300   1.062   0.358  0.1918 -0.2423  0.1411
 9501SOL    HW130049   0.325   0.970   0.367  1.6296  0.2670  1.8506
 9501SOL    HW230050   0.361   1.096   0.293  0.7736 -0.1248  0.7404
 9502SOL     OW30051   4.090   5.943   4.233  0.5955  0.3413 -0.3788
 9502SOL    HW130052   4.103   5.855   4.198 -1.1158 -0.0858 -0.0503
 9502SOL    HW230053   4.003   5.969   4.202  0.6580  1.5198  0.3374
 9503SOL     OW30054   1.501   0.928   0.214  0.7587 -0.0232 -0.0107
 9503SOL    HW130055   1.503   0.928   0.119 -0.1985  0.9306 -0.0580
 9503SOL    HW230056   1.442   1.000   0.236  1.7479  0.4085  1.3249
 9504SOL     OW30057   5.338   1.165   0.877  0.2537 -0.3234 -0.2394
 9504SOL    HW130058   5.398   1.240   0.873 -0.9459  0.6317 -2.0166
 9504SOL    HW230059   5.253   1.204   0.895 -0.0499 -1.5359  1.0634
 9505SOL     OW30060   0.626   1.389   6.750 -0.2130  0.0234 -0.5897
 9505SOL    HW130061   0.585   1.428   6.673 -2.2539 -1.3398 -0.2614
 9505SOL    HW230062   0.644   1.299   6.724  0.6865  0.0297 -0.0272
 9506SOL     OW30063   2.543   5.197   2.460 -0.1740  0.5735 -0.4129
 9506SOL    HW130064   2.491   5.246   2.397  1.7058 -1.1714 -3.5856
 9506SOL    HW230065   2.480   5.139   2.503 -1.4117  1.2054 -1.3061
 9507SOL     OW30066   0.497   3.840   0.966  0.5195  0.1659  0.0043
 9507SOL    HW130067   0.457   3.847   1.053  1.1642  2.5155  0.1868
 9507SOL    HW230068   0.527   3.749   0.961 -1.8720 -0.7993  1.1307
 9508SOL     OW30069   4.593   4.218   4.901  0.0288  0.6327 -0.2514
 9508SOL    HW130070   4.663   4.158   4.877  0.6529  1.4604 -0.5442
 9508SOL    HW230071   4.631   4.276   4.966 -1.2532 -0.7107  1.8075
 9509SOL     OW30072   0.913   3.509   5.614 -0.3914  0.5425 -0.2077
 9509SOL    HW130073   0.972   3.436   5.637  0.9343  1.5295 -0.3687
 9509SOL    HW230074   0.906   3.505   5.519  0.0755  0.9185 -0.2582
 9510SOL     OW30075   0.458   6.556   5.606 -0.3266 -0.3879 -0.7450
 9510SOL    HW130076   0.385   6.616   5.621 -0.0323 -0.0044 -0.8508
 9510SOL    HW230077   0.470   6.512   5.690 -0.1758  0.1052 -0.5071
 9511SOL     OW30078   2.440   1.225   0.351 -0.8782 -0.3888 -0.3639
 9511SOL    HW130079   2.477   1.239   0.439  1.5150  1.1396 -1.5204
 9511SOL    HW230080   2.349   1.202   0.368 -0.2396 -1.2514  2.5671
 9512SOL     OW30081   1.864   3.896   2.848  0.1317  0.4736 -0.0782
 9512SOL    HW130082   1.928   3.966   2.855 -2.7373  3.3541 -0.3324
 9512SOL    HW230083   1.839   3.877   2.939  0.4108  0.2792 -0.0417
 9513SOL     OW30084   1.322   6.799   1.435 -0.3208  0.6608  0.1000
 9513SOL    HW130085   1.334   6.812   1.529  0.5967  2.7048 -0.2553
 9513SOL    HW230086   1.291   6.708   1.427 -1.4602  0.7839  2.4376
 9514SOL     OW30087   0.390   1.535   3.616  0.0553 -0.0989  0.4021
 9514SOL    HW130088   0.322   1.480   3.577  0.8160 -0.6570 -0.1604
 9514SOL    HW230089   0.440   1.475   3.672 -1.1022  0.7124  2.4043
 9515SOL     OW30090   5.937   4.426   6.275 -0.2572  0.2321 -0.0690
 9515SOL    HW130091   5.925   4.331   6.282 -1.8126  0.2468 -1.6411
 9515SOL    HW230092   5.982   4.451   6.355  1.1247 -1.9736 -0.0847
 9516SOL     OW30093   3.629   6.138   6.582  0.3081 -0.1014 -0.1778
 9516SOL    HW130094   3.534   6.146   6.569  0.0019 -1.0592  1.1727
 9516SOL    HW230095   3.646   6.044   6.574  1.2650  0.1324 -1.0616
 9517SOL     OW30096   4.592   4.484   1.340  0.1501  0.1028  0.3095
 9517SOL    HW130097   4.675   4.479   1.292 -0.5345  1.7805 -1.1697
 9517SOL    HW230098   4.609   4.548   1.410  0.1126  0.4700 -0.0122
 9518SOL     OW30099   4.802   0.782   6.019 -0.5643  0.2963 -1.0458
 9518SOL    HW130100   4.816   0.843   6.091 -0.8028 -0.6216 -0.1887
 9518SOL    HW230101   4.882   0.729   6.018 -1.2256 -0.7516 -0.3640
 9519SOL     OW30102   3.004   4.419   0.894  0.1428 -0.9390 -0.6900
 9519SOL    HW130103   3.026   4.390   0.983 -2.7008 -0.5404  0.2603
 9519SOL    HW230104   3.043   4.354   0.837  1.9552 -1.2826  0.8342
 9520SOL     OW30105   1.883   2.185   5.441  0.2710 -0.5087 -0.2781
 9520SOL    HW130106   1.823   2.227   5.501  1.8422  0.7779  0.4666
 9520SOL    HW230107   1.871   2.091   5.456 -1.8084 -0.3121 -0.4741
 9521SOL     OW30108   0.776   2.310   0.898 -0.0957  0.5889 -0.7786
 9521SOL    HW130109   0.849   2.296   0.958  0.3774  1.2171 -1.1887
 9521SOL    HW230110   0.700   2.274   0.943  0.1807  1.3723  0.3632
 9522SOL     OW30111   5.222   3.987   0.765 -0.4760  0.5097  0.1337
 9522SOL    HW130112   5.197   3.959   0.677 -0.1993 -1.6540  0.6964
 9522SOL    HW230113   5.302   3.938   0.785  0.9970  2.8950  0.6466
 9523SOL     OW30114   0.025   5.396   3.613  0.2875  0.1358 -0.1318
 9523SOL    HW130115   0.096   5.395   3.548  1.5798  1.0409  1.2064
 9523SOL    HW230116   0.001   5.304   3.624 -0.2652 -0.0233 -2.1664
 9524SOL     OW30117   3.887   3.612   3.483  0.1375  0.3370 -0.7452
 9524SOL    HW130118   3.894   3.532   3.431 -0.7435 -1.0928  1.2375
 9524SOL    HW230119   3.920   3.681   3.425 -0.5020 -1.1989 -3.0711
 9525SOL     OW30120   3.324   5.053   4.615  0.5226  0.3174 -0.3715
 9525SOL    HW130121   3.355   5.053   4.706  0.8332  1.1226 -0.4701
 9525SOL    HW230122   3.392   5.006   4.567  0.2912 -0.2312 -0.1717
 9526SOL     OW30123   1.736   4.154   6.556 -0.9690  0.5910 -0.1650
 9526SOL    HW130124   1.780   4.220   6.608 -2.2330  0.1809  1.5320
 9526SOL    HW230125   1.660   4.128   6.609 -0.9772 -1.6124 -1.1154
 9527SOL     OW30126   3.270   6.070   0.556  0.3716 -0.1495 -0.4033
 9527SOL    HW130127   3.205   6.139   0.539 -1.9550 -2.0403  0.2340
 9527SOL    HW230128   3.338   6.113   0.608 -0.9288  1.6834 -0.1200
 9528SOL     OW30129   1.153   0.306   1.637 -0.2380 -0.0018 -0.0370
 9528SOL    HW130130   1.079   0.367   1.645  0.1117  0.2155  2.9685
 9528SOL    HW230131   1.112   0.221   1.624 -1.0527  0.1942  1.0117
 9529SOL     OW30132   2.749   5.976   0.168  0.1083 -0.5008 -0.2242
 9529SOL    HW130133   2.679   5.927   0.125  0.2380 -0.7909 -0.1088
 9529SOL    HW230134   2.819   5.912   0.179 -0.0881 -0.5558  0.8295
 9530SOL     OW30135   4.935   2.527   6.802  0.1505  0.0211  0.5374
 9530SOL    HW130136   4.927   2.513   6.707  0.7643 -1.3093  0.6596
 9530SOL    HW230137   4.853   2.569   6.827 -0.2433 -0.0925 -0.5051
 9531SOL     OW30138   2.002   4.115   3.368 -0.2889  0.2550  0.2773
 9531SOL    HW130139   2.087   4.105   3.411 -0.9509  0.2540  1.6581
 9531SOL    HW230140   1.991   4.034   3.319 -0.7185 -1.0721  2.4203
 9532SOL     OW30141   6.337   0.033   6.333 -0.0968  0.1624  0.3495
 9532SOL    HW130142   6.380   0.073   6.257  0.9591 -2.2389 -0.4334
 9532SOL    HW230143   6.326   0.105   6.395  2.8914  1.4279 -0.3832
 9533SOL     OW30144   4.807   4.812   2.796 -0.5197  0.2239 -0.2330
 9533SOL    HW130145   4.763   4.767   2.869  0.2880  1.8303  1.3312
 9533SOL    HW230146   4.766   4.775   2.718  0.5604 -3.7257  0.8206
 9534SOL     OW30147   5.826   1.339   0.341  0.1904  0.2057 -1.0011
 9534SOL    HW130148   5.821   1.394   0.263 -0.8822  0.7604 -0.5551
 9534SOL    HW230149   5.855   1.399   0.410 -1.5252  0.3770 -0.3881
 9535SOL     OW30150   6.778   3.313   0.324  0.1861 -0.3032  0.0853
 9535SOL    HW130151   6.763   3.304   0.418  0.5583 -2.0777  0.0171
 9535SOL    HW230152   6.869   3.283   0.311  0.7188  1.4826 -0.6492
 9536SOL     OW30153   6.682   6.001   3.929 -0.3876 -0.1412 -0.5051
 9536SOL    HW130154   6.676   5.986   4.023 -0.3243 -0.2042 -0.5112
 9536SOL    HW230155   6.595   6.033   3.903 -0.7721 -1.2853 -0.6449
 9537SOL     OW30156   4.035   5.319   4.117 -0.1536 -0.4009 -0.0057
 9537SOL    HW130157   4.009   5.330   4.025 -1.3111  1.7181  0.5262
 9537SOL    HW230158   4.010   5.229   4.137 -0.5534 -0.6781 -1.5630
 9538SOL     OW30159   4.054   5.166   1.636  0.1740 -0.7256  0.1384
 9538SOL    HW130160   4.072   5.075   1.659  0.0869 -0.1536  2.7550
 9538SOL    HW230161   4.138   5.211   1.650  0.4923 -0.5197 -2.1101
 9539SOL     OW30162   2.717   3.473   2.881  0.8954  0.2202 -0.4927
 9539SOL    HW130163   2.644   3.529   2.908  0.3773 -0.7565  0.2315
 9539SOL    HW230164   2.795   3.527   2.896  0.3541  1.1750 -0.9973
 9540SOL     OW30165   3.970   5.634   4.178 -0.1566  0.0009  0.0379
 9540SOL    HW130166   4.000   5.555   4.223  0.3726  0.8863  1.3202
 9540SOL    HW230167   3.987   5.618   4.086 -0.6682 -1.6333  0.1945
 9541SOL     OW30168   2.473   0.089   5.793  0.4064  0.1158 -0.1284
 9541SOL    HW130169   2.449   0.027   5.862  1.8388  0.4875  0.7370
 9541SOL    HW230170   2.430   0.054   5.714 -1.8553  0.0539  1.0298
 9542SOL     OW30171   3.167   4.724   3.347 -0.2559 -0.1144  0.1102
 9542SOL    HW130172   3.216   4.783   3.405 -0.5561  0.9599 -0.6975
 9542SOL    HW230173   3.131   4.657   3.405  0.7948  0.0088  0.9375
 9543SOL     OW30174   2.313   0.375   3.571  0.7299  0.6551 -0.2399
 9543SOL    HW130175   2.381   0.416   3.517 -0.6223 -0.0159 -2.5747
 9543SOL    HW230176   2.258   0.448   3.599  0.8225  0.9123 -0.7096
 9544SOL     OW30177   1.477   1.667   1.388  0.0196 -0.3104  0.6279
 9544SOL    HW130178   1.569   1.665   1.364  0.3077  0.0317  1.6258
 9544SOL    HW230179   1.431   1.693   1.309  0.6109 -2.0048 -0.3218
 9545SOL     OW30180   6.639   5.440   0.175 -0.3782  0.6734  0.1979
 9545SOL    HW130181   6.570   5.485   0.225  0.1384  0.4777  1.1074
 9545SOL    HW230182   6.719   5.488   0.197 -0.0380  0.1497  0.1048
 9546SOL     OW30183   4.465   6.789   4.472  0.0116 -0.2818  0.1039
 9546SOL    HW130184   4.438   6.703   4.506  0.6692 -0.6679 -0.3122
 9546SOL    HW230185   4.548   6.807   4.517  0.0455 -0.0288 -0.0619
 9547SOL     OW30186   1.513   3.112   3.223 -0.0473 -0.0153  0.6362
 9547SOL    HW130187   1.587   3.124   3.282 -0.5186 -0.0985  1.2480
 9547SOL    HW230188   1.533   3.030   3.176  0.3758  0.1087  0.6006
 9548SOL     OW30189   6.128   3.210   5.587  0.1803 -0.0329  0.3121
 9548SOL    HW130190   6.071   3.210   5.664 -0.7876 -0.0462 -0.3844
 9548SOL    HW230191   6.068   3.213   5.513  1.1142  1.4196 -0.4355
 9549SOL     OW30192   6.377   4.682   0.952  0.9842 -0.2471  0.2401
 9549SOL    HW130193   6.403   4.598   0.991  1.6324 -0.4886 -0.6709
 9549SOL    HW230194   6.453   4.708   0.899  0.4180  0.4257 -0.2564
 9550SOL     OW30195   3.243   0.398   6.283 -0.4217  0.5428  0.1772
 9550SOL    HW130196   3.256   0.368   6.193  2.1195  2.4969 -0.2323
 9550SOL    HW230197   3.222   0.319   6.332 -3.8820 -0.3557 -2.3387
 9551SOL     OW30198   3.437   3.420   3.104 -0.4097 -0.1730 -0.3083
 9551SOL    HW130199   3.365   3.454   3.157  0.9116  2.1107  0.1735
 9551SOL    HW230200   3.502   3.490   3.104  1.2325 -1.5798 -1.8947
 9552SOL     OW30201   0.553   1.217   5.873 -0.5121  0.1369  0.0839
 9552SOL    HW130202   0.615   1.287   5.894  1.6144 -0.9791 -1.8776
 9552SOL    HW230203   0.473   1.241   5.918 -0.0177  3.9925 -0.7222
 9553SOL     OW30204   5.209   1.893   1.280  0.1860 -0.0981  0.2761
 9553SOL    HW130205   5.196   1.897   1.374 -1.1540 -0.9849  0.1471
 9553SOL    HW230206   5.258   1.973   1.259  0.3887  0.1683  1.6919
 9554SOL     OW30207   4.844   3.333   0.691 -0.3916 -0.6015 -0.3174
 9554SOL    HW130208   4.870   3.251   0.732  0.0441 -0.3408 -0.0615
 9554SOL    HW230209   4.836   3.395   0.763  0.5753 -0.0915 -0.6239
 9555SOL     OW30210   1.336   0.058   1.702 -0.5967  0.9116 -0.2105
 9555SOL    HW130211   1.343   0.153   1.715  1.0400  0.6437  1.3960
 9555SOL    HW230212   1.385   0.021   1.776 -1.9087 -1.2135 -0.3366
 9556SOL     OW30213   2.246   1.649   4.002  0.1051  0.5583  0.3714
 9556SOL    HW130214   2.326   1.700   3.989  0.3708 -0.2400 -1.3973
 9556SOL    HW230215   2.189   1.677   3.931 -0.0374 -1.0337 -0.1762
 9557SOL     OW30216   2.232   2.628   5.576 -0.4172  0.3649 -0.7834
 9557SOL    HW130217   2.212   2.656   5.666  1.1809 -0.5871 -0.0759
 9557SOL    HW230218   2.294   2.693   5.544 -1.0202  0.7270 -1.2215
 9558SOL     OW30219   0.558   4.632   5.394  0.0365 -0.0055 -0.3754
 9558SOL    HW130220   0.560   4.682   5.475  0.9288  0.8412 -0.8896
 9558SOL    HW230221   0.516   4.550   5.417  1.2656 -0.2400  1.2120
 9559SOL     OW30222   2.307   0.042   4.785  0.3536 -0.1653  0.4794
 9559SOL    HW130223   2.304   0.134   4.761 -1.0839  0.1843  1.8587
 9559SOL    HW230224   2.232   0.003   4.739  0.0240 -0.3200  1.1443
 9560SOL     OW30225   6.073   3.081   2.563 -0.0737  0.2179  0.3458
 9560SOL    HW130226   6.113   3.161   2.597  2.1237 -0.5534 -0.2455
 9560SOL    HW230227   6.115   3.068   2.478 -0.1408 -1.7075  0.5588
 9561SOL     OW30228   5.129   5.404   3.142  0.3655  0.2541  0.1561
 9561SOL    HW130229   5.038   5.430   3.131 -0.8626 -2.4856  2.5487
 9561SOL    HW230230   5.139   5.325   3.089  1.0597 -0.0180  0.6661
 9562SOL     OW30231   3.404   6.362   1.476  0.2105 -0.0620 -0.6366
 9562SOL    HW130232   3.448   6.316   1.547 -0.2908 -0.9465 -0.8923
 9562SOL    HW230233   3.434   6.453   1.484 -0.2500 -0.0238  1.0373
 9563SOL     OW30234   5.212   0.632   0.381 -0.0240 -0.2552  0.0216
 9563SOL    HW130235   5.219   0.545   0.422  1.3771 -0.1628  0.0349
 9563SOL    HW230236   5.297   0.672   0.398  0.6218 -0.1888 -2.9462
 9564SOL     OW30237   6.624   0.110   0.968 -0.4023 -0.4779  0.1635
 9564SOL    HW130238   6.534   0.134   0.948 -0.7130 -1.9336 -0.3083
 9564SOL    HW230239   6.644   0.156   1.050 -1.8183 -0.7349  0.6745
 9565SOL     OW30240   4.610   4.179   2.486 -0.2661 -0.1805  0.2819
 9565SOL    HW130241   4.615   4.216   2.573  2.3045  0.4230 -0.0577
 9565SOL    HW230242   4.700   4.181   2.453 -0.9855 -1.3503 -1.9847
 9566SOL     OW30243   5.742   2.431   1.271  0.0384 -0.9893 -0.9079
 9566SOL    HW130244   5.723   2.394   1.357 -0.1318 -1.1384 -1.0102
 9566SOL    HW230245   5.722   2.361   1.209  1.8656 -1.5038 -0.9648
 9567SOL     OW30246   2.577   1.369   4.919  0.5081 -0.2625 -0.1396
 9567SOL    HW130247   2.491   1.393   4.883  0.2824 -2.1995 -1.0487
 9567SOL    HW230248   2.640   1.398   4.853  0.3960 -0.3606 -0.2916
 9568SOL     OW30249   6.101   0.122   5.034  0.1762  0.7836  0.3864
 9568SOL    HW130250   6.087   0.118   5.129  1.5083 -2.2257  0.5742
 9568SOL    HW230251   6.012   0.123   4.997 -0.3591  1.2765  1.6289
 9569SOL     OW30252   2.887   0.391   4.469  0.3888 -0.3452 -0.4773
 9569SOL    HW130253   2.884   0.481   4.502 -0.4091  0.9060 -3.6593
 9569SOL    HW230254   2.857   0.338   4.543  0.4503  2.0211  1.3620
 9570SOL     OW30255   0.177   6.350   5.151  0.2126  0.4917  0.1055
 9570SOL    HW130256   0.083   6.345   5.169 -0.0428 -1.1381 -1.4590
 9570SOL    HW230257   0.212   6.400   5.225 -1.2359 -2.7019  3.2819
 9571SOL     OW30258   0.093   2.270   2.469  0.1595 -0.4302 -0.4609
 9571SOL    HW130259   0.150   2.293   2.396  1.8862 -1.7181  0.4184
 9571SOL    HW230260   0.022   2.220   2.429 -0.1901  0.8535 -1.5229
 9572SOL     OW30261   2.891   1.860   4.838 -0.1719 -0.3254 -0.6021
 9572SOL    HW130262   2.976   1.861   4.882 -0.5012 -1.7672  0.1427
 9572SOL    HW230263   2.905   1.806   4.760  0.2360  1.6609 -1.9549
 9573SOL     OW30264   2.466   1.367   6.209 -0.7582  0.0429  0.2664
 9573SOL    HW130265   2.400   1.304   6.238 -1.8746  1.4826  0.9892
 9573SOL    HW230266   2.415   1.444   6.184  0.4947  0.3249 -1.5904
 9574SOL     OW30267   5.844   3.526   0.317  0.1735  0.3575  0.0103
 9574SOL    HW130268   5.763   3.513   0.367  0.0924 -0.3911 -0.3043
 9574SOL    HW230269   5.865   3.439   0.282  0.8255  0.6535 -0.3503
 9575SOL     OW30270   0.222   4.479   1.883 -0.3812 -0.1603  0.3073
 9575SOL    HW130271   0.224   4.518   1.970  0.8852 -0.7709  0.5858
 9575SOL    HW230272   0.209   4.385   1.899 -1.4134 -0.1210 -0.2377
 9576SOL     OW30273   3.731   2.271   3.557  0.4834 -0.7102 -0.5984
 9576SOL    HW130274   3.636   2.282   3.553  0.5600  0.1694 -0.0804
 9576SOL    HW230275   3.743   2.176   3.558 -0.4293 -0.8379  0.0608
 9577SOL     OW30276   6.231   4.222   2.835 -0.0722  0.1698  0.8227
 9577SOL    HW130277   6.262   4.271   2.759  0.2575 -1.9854 -0.5165
 9577SOL    HW230278   6.285   4.143   2.837 -2.3305 -1.4961  1.1847
 9578SOL     OW30279   5.541   1.911   4.808  0.1200 -0.0610  0.1326
 9578SOL    HW130280   5.482   1.873   4.743  0.2210 -1.5149  0.8517
 9578SOL    HW230281   5.628   1.902   4.770  0.2663 -1.6488  0.7522
 9579SOL     OW30282   1.255   1.289   4.234  0.3901  0.4248  0.3849
 9579SOL    HW130283   1.239   1.312   4.142  1.2204 -0.5898 -0.0277
 9579SOL    HW230284   1.318   1.355   4.264  3.5020 -1.6820 -1.0687
 9580SOL     OW30285   5.024   1.577   1.549 -0.1305 -0.7119 -0.6387
 9580SOL    HW130286   4.965   1.547   1.618 -0.6130 -1.2753 -1.2761
 9580SOL    HW230287   5.024   1.672   1.555 -1.0387 -0.7130 -0.5698
 9581SOL     OW30288   1.432   2.225   0.858 -0.2673 -0.1090 -0.1167
 9581SOL    HW130289   1.461   2.221   0.767 -0.0303 -0.5085 -0.0278
 9581SOL    HW230290   1.459   2.141   0.895  2.3977  1.1764  1.1388
 9582SOL     OW30291   6.374   3.049   1.468  0.1418 -0.1974 -1.3331
 9582SOL    HW130292   6.387   3.034   1.375  2.8149 -0.2040 -1.0314
 9582SOL    HW230293   6.280   3.037   1.481 -0.1461 -1.2859 -3.8112
 9583SOL     OW30294   6.696   2.528   1.757  0.1735 -0.0805  0.3587
 9583SOL    HW130295   6.757   2.501   1.688 -0.5716  1.0427 -0.7871
 9583SOL    HW230296   6.610   2.502   1.724 -0.1234 -0.3024  1.2786
 9584SOL     OW30297   5.033   0.266   4.265 -0.0031 -0.4275  0.5102
 9584SOL    HW130298   5.089   0.192   4.244 -0.2852 -0.4242 -0.2749
 9584SOL    HW230299   5.093   0.341   4.266  0.2522 -0.6316  1.1393
 9585SOL     OW30300   5.674   0.877   0.672  0.5350 -0.2333  0.4186
 9585SOL    HW130301   5.598   0.929   0.645  0.9008 -0.0412 -0.2530
 9585SOL    HW230302   5.685   0.897   0.765  0.5872  0.7732  0.1991
 9586SOL     OW30303   6.760   1.641   5.072  0.1773 -0.3247  0.2888
 9586SOL    HW130304   6.719   1.724   5.095  0.3220 -0.5039  1.2097
 9586SOL    HW230305   6.691   1.591   5.028 -0.0170  0.1251  0.0724
 9587SOL     OW30306   0.188   4.999   5.812 -0.3864  0.3511  0.5518
 9587SOL    HW130307   0.225   4.916   5.842 -0.1772 -0.6585 -2.2265
 9587SOL    HW230308   0.263   5.059   5.811 -0.0186 -0.1053  0.3441
 9588SOL     OW30309   6.690   1.784   3.322 -0.3049 -0.0177  0.3661
 9588SOL    HW130310   6.667   1.707   3.270  0.4664  0.8743 -1.3782
 9588SOL    HW230311   6.669   1.858   3.265 -0.2153  1.0399  1.6676
 9589SOL     OW30312   3.226   1.911   2.342 -0.3463 -0.7767  0.2705
 9589SOL    HW130313   3.198   1.984   2.397  0.5317  0.2668 -0.5973
 9589SOL    HW230314   3.321   1.908   2.353 -0.2864 -1.2796 -0.3061
 9590SOL     OW30315   5.938   5.796   2.869 -0.0851 -0.1695  0.5661
 9590SOL    HW130316   5.921   5.882   2.908  0.2454 -0.4537  1.3472
 9590SOL    HW230317   5.970   5.742   2.941  0.0659 -0.8499  0.0058
 9591SOL     OW30318   3.381   6.277   0.722  0.2869  0.7374  0.0886
 9591SOL    HW130319   3.457   6.219   0.723 -0.4182 -0.2216 -0.4727
 9591SOL    HW230320   3.405   6.347   0.662  0.3073 -0.1607 -0.9742
 9592SOL     OW30321   3.258   1.505   1.597 -0.1961  0.1451  0.3968
 9592SOL    HW130322   3.239   1.574   1.660  0.2468  0.3230  0.3381
 9592SOL    HW230323   3.206   1.430   1.627 -1.6163  0.8523 -0.2249
 9593SOL     OW30324   4.472   5.498   1.329 -0.5518  0.0450 -0.5642
 9593SOL    HW130325   4.546   5.551   1.361  1.2380 -2.0601 -1.0100
 9593SOL    HW230326   4.419   5.560   1.279  1.4102  1.4613 -1.0288
 9594SOL     OW30327   4.577   0.530   5.124  0.5329  0.5230  0.5287
 9594SOL    HW130328   4.594   0.620   5.151  0.1605  1.0537 -0.8885
 9594SOL    HW230329   4.484   0.529   5.103  0.8787  0.2793 -1.0971
 9595SOL     OW30330   1.431   4.095   3.666  0.1389 -0.4100  0.1362
 9595SOL    HW130331   1.421   4.030   3.597 -2.3657 -0.1565  0.1491
 9595SOL    HW230332   1.448   4.045   3.745  1.6536 -0.7844 -0.3901
 9596SOL     OW30333   5.092   5.633   5.996  0.3234 -0.3670  0.0586
 9596SOL    HW130334   5.046   5.701   6.045  1.2116  0.6502 -0.4652
 9596SOL    HW230335   5.038   5.555   6.005 -1.8565  0.9303 -1.0751
 9597SOL     OW30336   4.674   0.876   4.842 -0.0316  0.3701 -0.0244
 9597SOL    HW130337   4.643   0.913   4.924 -1.1886  1.4793 -0.9117
 9597SOL    HW230338   4.651   0.942   4.776  0.8908 -0.4703 -1.2364
 9598SOL     OW30339   3.927   2.053   5.619 -0.1419 -0.3133 -0.4819
 9598SOL    HW130340   4.003   2.100   5.586 -0.5357 -0.7122 -2.0174
 9598SOL    HW230341   3.853   2.088   5.570 -0.5221 -2.0920 -1.2752
 9599SOL     OW30342   1.834   3.451   6.175 -0.5079 -0.2601  0.4443
 9599SOL    HW130343   1.886   3.401   6.238 -1.3555 -0.2887  1.1435
 9599SOL    HW230344   1.761   3.486   6.227 -1.6477 -0.8986 -0.6547
 9600SOL     OW30345   6.237   5.337   6.770  0.1259  0.0923  0.4489
 9600SOL    HW130346   6.151   5.377   6.783  0.6487  1.4825 -0.1088
 9600SOL    HW230347   6.232   5.253   6.815 -1.6596 -0.0517  0.0492
 9601SOL     OW30348   0.449   6.123   6.403  0.2441 -0.0345 -0.2561
 9601SOL    HW130349   0.444   6.036   6.444 -0.1689  0.3752  0.5980
 9601SOL    HW230350   0.531   6.121   6.353 -0.9185 -1.7159 -2.2055
 9602SOL     OW30351   6.797   1.492   3.286  0.6585 -0.1983 -0.3136
 9602SOL    HW130352   6.842   1.565   3.243  0.2934 -0.1518 -0.6123
 9602SOL    HW230353   6.792   1.424   3.219 -0.6039  0.1540 -0.5944
 9603SOL     OW30354   5.025   4.373   2.199 -0.1021  0.0770  0.0349
 9603SOL    HW130355   5.090   4.368   2.129 -1.6804 -1.2866 -1.4214
 9603SOL    HW230356   4.978   4.454   2.183  1.4908  1.3485  1.4123
 9604SOL     OW30357   2.342   0.981   2.179 -0.0396 -0.1211  0.3221
 9604SOL    HW130358   2.364   1.015   2.265  0.3515  0.0807  0.1413
 9604SOL    HW230359   2.424   0.984   2.130 -0.4481  0.6360 -0.3446
 9605SOL     OW30360   5.174   6.339   2.205  0.0879  0.6086 -0.3660
 9605SOL    HW130361   5.193   6.425   2.167  0.7418 -0.1941 -1.9249
 9605SOL    HW230362   5.160   6.282   2.130  1.5578 -1.0852  0.5836
 9606SOL     OW30363   3.756   4.674   0.708 -0.2709 -1.0440  0.6473
 9606SOL    HW130364   3.693   4.746   0.714 -0.2095 -0.9420  0.0551
 9606SOL    HW230365   3.735   4.619   0.784 -0.3176 -0.4104  1.1035
 9607SOL     OW30366   5.138   2.956   3.129 -0.2679 -0.5256  0.6758
 9607SOL    HW130367   5.222   2.911   3.134 -0.6529 -1.3581 -0.1932
 9607SOL    HW230368   5.159   3.043   3.095  0.2925 -0.5675  0.9081
 9608SOL     OW30369   6.640   2.564   0.485  0.3097  0.4738 -0.6815
 9608SOL    HW130370   6.642   2.615   0.566 -0.3186  2.1264 -1.6439
 9608SOL    HW230371   6.711   2.600   0.432  1.1047 -1.0018 -0.6712
 9609SOL     OW30372   6.558   3.442   5.093 -0.4699  0.4986 -0.6905
 9609SOL    HW130373   6.507   3.494   5.032  0.0269  1.5794 -0.2204
 9609SOL    HW230374   6.644   3.485   5.094  0.5679 -1.4512 -1.7049
 9610SOL     OW30375   2.763   6.047   5.524 -0.0882  0.0652 -0.2171
 9610SOL    HW130376   2.693   5.982   5.534 -0.0433 -0.0212 -0.4486
 9610SOL    HW230377   2.736   6.099   5.448  0.6200 -0.6415 -0.9723
 9611SOL     OW30378   1.472   4.116   6.677  0.4844  0.6578 -0.2610
 9611SOL    HW130379   1.453   4.065   6.599 -0.4373 -0.7927  0.8530
 9611SOL    HW230380   1.396   4.174   6.686 -0.0181 -0.0639  0.2330
 9612SOL     OW30381   6.498   6.045   2.914  0.1216  0.0696  0.4421
 9612SOL    HW130382   6.441   5.973   2.885 -0.1702  0.2461  0.5802
 9612SOL    HW230383   6.553   6.063   2.838 -2.5058  2.4565 -1.1165
 9613SOL     OW30384   0.712   4.775   1.722 -0.2947 -0.0764 -0.6053
 9613SOL    HW130385   0.793   4.745   1.682  0.4971 -0.7375  1.4112
 9613SOL    HW230386   0.738   4.845   1.782 -1.3066  0.1664 -0.4170
 9614SOL     OW30387   3.664   4.688   4.353 -0.7918 -0.4309  0.3916
 9614SOL    HW130388   3.758   4.690   4.335 -0.2295  1.7507  2.9871
 9614SOL    HW230389   3.628   4.761   4.302 -0.9946 -0.8588 -0.0878
 9615SOL     OW30390   3.315   6.134   5.902  0.2107  0.1899 -0.2208
 9615SOL    HW130391   3.231   6.096   5.877  0.9732 -0.7895 -1.3910
 9615SOL    HW230392   3.308   6.149   5.997 -0.9651 -0.6447 -0.1642
 9616SOL     OW30393   5.559   6.291   4.763 -0.3186 -0.4504 -0.0364
 9616SOL    HW130394   5.571   6.300   4.668 -1.1459 -0.4322 -0.1455
 9616SOL    HW230395   5.479   6.239   4.772 -0.9931  0.6667  0.6491
 9617SOL     OW30396   0.360   5.969   1.215 -0.0819 -0.5439 -0.2354
 9617SOL    HW130397   0.388   5.904   1.151  0.2411  0.7684 -1.4815
 9617SOL    HW230398   0.394   6.052   1.181 -2.6214  0.6549 -0.0573
 9618SOL     OW30399   5.368   1.818   0.551  0.3237  0.0354  0.4417
 9618SOL    HW130400   5.285   1.785   0.583  1.5020 -0.6629  3.0738
 9618SOL    HW230401   5.355   1.913   0.545 -0.4350  0.0229  1.6096
 9619SOL     OW30402   3.145   1.688   6.642 -0.2204  0.4684  0.1211
 9619SOL    HW130403   3.141   1.776   6.606  1.5779 -0.1550 -1.8425
 9619SOL    HW230404   3.229   1.654   6.612 -0.8878 -1.9428  0.7530
 9620SOL     OW30405   6.764   4.108   0.387 -0.0411  0.5420  0.1932
 9620SOL    HW130406   6.706   4.032   0.375  2.0434 -1.0836 -0.1484
 9620SOL    HW230407   6.716   4.181   0.348 -1.7098 -0.7707 -0.3587
 9621SOL     OW30408   6.079   2.171   3.392 -0.0239 -1.0992 -0.5789
 9621SOL    HW130409   5.994   2.202   3.362 -1.3462 -3.7216  0.1967
 9621SOL    HW230410   6.136   2.178   3.315 -0.1007  3.0212 -0.4960
 9622SOL     OW30411   1.846   0.677   2.946  0.4730 -0.2846 -0.1996
 9622SOL    HW130412   1.849   0.772   2.958 -0.9239 -0.2994  0.5248
 9622SOL    HW230413   1.837   0.665   2.851 -1.8039  0.4448 -0.1349
 9623SOL     OW30414   0.495   3.741   1.669 -0.6079  0.1837 -0.3197
 9623SOL    HW130415   0.548   3.698   1.736 -1.0538 -0.3552 -0.3103
 9623SOL    HW230416   0.500   3.834   1.690  0.6989  0.1944 -0.5758
 9624SOL     OW30417   6.607   4.046   2.583  0.0261  0.6261  0.0211
 9624SOL    HW130418   6.537   4.007   2.634 -0.8422  1.2981 -0.6169
 9624SOL    HW230419   6.687   4.006   2.617 -0.7223 -0.8506  0.1476
 9625SOL     OW30420   5.064   1.695   2.854  0.2998 -0.6734 -0.9784
 9625SOL    HW130421   5.015   1.726   2.778  0.8179 -0.2184 -1.1327
 9625SOL    HW230422   5.152   1.729   2.841  0.4329 -0.7259 -0.2488
 9626SOL     OW30423   3.204   2.232   3.687 -0.4693  0.3327 -0.0742
 9626SOL    HW130424   3.159   2.268   3.610 -1.5600  0.1932  0.4836
 9626SOL    HW230425   3.134   2.201   3.744  0.3843 -1.6608 -0.0176
 9627SOL     OW30426   1.998   5.599   1.217  0.0536  0.1190  0.1256
 9627SOL    HW130427   2.032   5.688   1.208 -0.2715  0.4664  2.0341
 9627SOL    HW230428   2.008   5.578   1.310 -0.5748 -1.5576 -0.1436
 9628SOL     OW30429   1.546   6.184   2.709 -0.0060  0.3329  0.1374
 9628SOL    HW130430   1.475   6.121   2.725 -1.1751  1.4693 -0.4663
 9628SOL    HW230431   1.613   6.133   2.664  0.1260 -1.0725  1.8140
 9629SOL     OW30432   1.641   0.476   5.488 -0.1886 -0.4739  0.1935
 9629SOL    HW130433   1.665   0.389   5.456 -3.0185 -1.3886  0.2324
 9629SOL    HW230434   1.670   0.478   5.579 -1.4100 -2.0199  0.6513
 9630SOL     OW30435   0.504   0.101   4.447 -0.2859 -0.8109  0.5289
 9630SOL    HW130436   0.581   0.133   4.400 -0.2178 -1.8784 -0.1066
 9630SOL    HW230437   0.445   0.070   4.379 -0.1265 -2.5306  1.1294
 9631SOL     OW30438   3.949   2.365   4.311 -0.0629  0.2967  0.3645
 9631SOL    HW130439   3.897   2.329   4.239  0.4693  0.7517 -0.2613
 9631SOL    HW230440   4.039   2.365   4.278 -0.0792  2.6337  0.1216
 9632SOL     OW30441   1.246   3.137   1.800 -0.4335 -0.1860  0.6722
 9632SOL    HW130442   1.151   3.128   1.808 -0.5057  1.2443  1.8239
 9632SOL    HW230443   1.264   3.226   1.829  1.1920 -0.1496 -0.3138
 9633SOL     OW30444   6.528   0.854   3.598 -0.4424  0.6280 -0.1141
 9633SOL    HW130445   6.460   0.884   3.658 -1.0341  0.5126 -0.7103
 9633SOL    HW230446   6.588   0.928   3.592 -0.3360  0.6129  0.6687
 9634SOL     OW30447   1.090   5.814   6.637  0.1134 -0.0150  0.1990
 9634SOL    HW130448   1.031   5.754   6.683 -1.1265  0.9445 -0.1081
 9634SOL    HW230449   1.175   5.800   6.679 -0.5801 -0.5320  1.4952
 9635SOL     OW30450   6.134   0.295   2.526 -0.3719 -0.4273  0.2154
 9635SOL    HW130451   6.042   0.303   2.501 -0.9033 -2.6462  1.2031
 9635SOL    HW230452   6.154   0.202   2.516  1.3770 -0.2240  1.2783
 9636SOL     OW30453   1.268   6.754   5.969 -0.3091  0.0906 -0.5355
 9636SOL    HW130454   1.190   6.805   5.989  1.5145  2.4878  0.8848
 9636SOL    HW230455   1.241   6.697   5.897 -3.0627  1.5362 -0.7653
 9637SOL     OW30456   3.173   4.625   5.190 -0.5491  0.1230  0.0928
 9637SOL    HW130457   3.204   4.670   5.111 -3.1344  2.7662  0.4194
 9637SOL    HW230458   3.204   4.681   5.262  0.1083 -1.1963  0.8630
 9638SOL     OW30459   3.028   5.050   2.287  0.5410 -0.3913 -0.3385
 9638SOL    HW130460   3.097   5.019   2.345 -0.6430 -0.8442  0.9039
 9638SOL    HW230461   3.056   5.138   2.261  1.1622 -0.2099  0.8611
 9639SOL     OW30462   4.790   6.124   4.138  0.7173  0.1962 -0.4110
 9639SOL    HW130463   4.855   6.194   4.132 -0.4840  1.3836 -0.0793
 9639SOL    HW230464   4.756   6.116   4.049  1.0047 -0.1294 -0.4944
 9640SOL     OW30465   4.013   0.566   4.377  0.4722  0.5562  0.5191
 9640SOL    HW130466   4.067   0.598   4.304  1.2437 -2.1901 -0.2365
 9640SOL    HW230467   4.071   0.566   4.452  0.9380 -0.4030  0.1784
 9641SOL     OW30468   0.871   5.566   6.073  0.3127 -0.2073 -0.7120
 9641SOL    HW130469   0.843   5.501   6.009 -3.0763 -2.4808  2.6711
 9641SOL    HW230470   0.824   5.645   6.049  1.1953 -0.1459 -2.4398
 9642SOL     OW30471   1.063   2.356   0.745  0.1899 -0.5977  1.1141
 9642SOL    HW130472   0.971   2.347   0.720  0.8043 -0.8441 -1.3045
 9642SOL    HW230473   1.070   2.307   0.827 -1.5459 -1.7805  0.6219
 9643SOL     OW30474   6.738   0.509   0.421  0.0310  0.1451  0.1447
 9643SOL    HW130475   6.686   0.430   0.432  0.0826 -0.4320 -2.9674
 9643SOL    HW230476   6.810   0.483   0.364  0.2348  2.3458 -0.7065
 9644SOL     OW30477   6.420   6.677   1.039 -0.2773 -0.1388  0.1338
 9644SOL    HW130478   6.384   6.765   1.056  0.0242  0.2957 -1.3420
 9644SOL    HW230479   6.480   6.662   1.112 -1.5007  0.2082  1.2577
 9645SOL     OW30480   4.023   4.969   6.360  0.3572  0.3985 -0.0527
 9645SOL    HW130481   3.964   5.027   6.409  1.1341  2.1015 -1.0286
 9645SOL    HW230482   4.084   4.937   6.425 -1.6360 -1.5109  1.0162
 9646SOL     OW30483   2.879   4.052   4.302 -0.2027  0.1257  0.1585
 9646SOL    HW130484   2.848   4.015   4.219 -3.0446  2.3281  0.1175
 9646SOL    HW230485   2.954   4.106   4.277  0.3481 -0.9564 -0.6183
 9647SOL     OW30486   2.488   3.781   2.707 -0.2630  0.2369  0.0287
 9647SOL    HW130487   2.496   3.854   2.769  0.7967  0.2265 -0.0804
 9647SOL    HW230488   2.578   3.761   2.682 -0.6433 -0.1565 -1.0640
 9648SOL     OW30489   6.529   6.439   4.969  0.5972  0.6696  0.3504
 9648SOL    HW130490   6.558   6.525   4.939  0.6792  1.6900  3.0319
 9648SOL    HW230491   6.599   6.408   5.026  0.8897 -1.5691 -1.0923
 9649SOL     OW30492   4.145   0.388   2.721  0.3162 -0.1531 -0.3946
 9649SOL    HW130493   4.186   0.393   2.808 -3.7461  1.3370  1.7255
 9649SOL    HW230494   4.140   0.479   2.693 -1.5708 -0.2245 -0.4183
 9650SOL     OW30495   5.216   6.182   4.263  0.3926  0.4378  0.1531
 9650SOL    HW130496   5.268   6.168   4.343 -0.5580  2.4330  1.2102
 9650SOL    HW230497   5.135   6.134   4.278  0.5272  0.1753  0.0421
 9651SOL     OW30498   4.832   1.745   5.900 -0.0619 -0.0940  0.2290
 9651SOL    HW130499   4.857   1.827   5.857  0.6401 -1.0397 -1.2917
 9651SOL    HW230500   4.825   1.682   5.828  1.2293 -1.8038  1.4967
 9652SOL     OW30501   5.012   0.426   2.848 -0.1121  0.0469  0.1412
 9652SOL    HW130502   5.064   0.367   2.793  0.9888  0.1596  1.0145
 9652SOL    HW230503   4.970   0.368   2.912 -1.9146 -0.1567 -1.1779
 9653SOL     OW30504   4.350   1.742   5.208 -0.2011  0.5999  0.0258
 9653SOL    HW130505   4.303   1.737   5.125 -0.2439  2.7531 -0.1233
 9653SOL    HW230506   4.356   1.651   5.238 -1.4401 -0.0591 -1.6163
 9654SOL     OW30507   0.849   5.621   2.011 -0.3367  0.3936 -0.3206
 9654SOL    HW130508   0.894   5.684   2.068 -1.2713  1.5981 -0.8808
 9654SOL    HW230509   0.784   5.580   2.068 -0.9599  1.2689 -0.3699
 9655SOL     OW30510   0.189   2.446   2.003  0.3402 -0.4578 -0.3934
 9655SOL    HW130511   0.118   2.509   2.013 -0.2960 -0.7760 -2.5348
 9655SOL    HW230512   0.177   2.386   2.076 -1.7958 -0.6667 -0.8502
 9656SOL     OW30513   1.491   4.561   4.568 -0.5063 -0.0196 -0.6037
 9656SOL    HW130514   1.522   4.590   4.482  0.5718 -2.8854 -1.3057
 9656SOL    HW230515   1.424   4.495   4.548 -0.8761 -0.0816  0.7654
 9657SOL     OW30516   5.255   2.933   2.181 -0.3999 -0.0509 -0.1318
 9657SOL    HW130517   5.194   2.925   2.254 -0.4948  2.1612  0.0993
 9657SOL    HW230518   5.203   2.910   2.104 -0.8405 -0.5285  0.3027
 9658SOL     OW30519   3.789   0.451   3.163 -0.7605  0.4632  0.4881
 9658SOL    HW130520   3.764   0.367   3.125 -1.2423  0.9001 -0.1919
 9658SOL    HW230521   3.813   0.431   3.253  0.0317 -0.5417  0.0633
 9659SOL     OW30522   3.216   6.190   4.715 -0.0800  0.7081 -0.0116
 9659SOL    HW130523   3.238   6.097   4.705 -1.3986  0.3097  0.5930
 9659SOL    HW230524   3.297   6.230   4.748  0.6403 -0.1313 -0.6899
 9660SOL     OW30525   3.294   4.758   5.388  0.0498 -0.2764  0.3349
 9660SOL    HW130526   3.340   4.758   5.472  1.1511 -0.4257 -0.2456
 9660SOL    HW230527   3.223   4.822   5.400 -0.0819 -0.6160  1.5075
 9661SOL     OW30528   0.623   0.395   2.445 -0.4499  0.0121  1.0799
 9661SOL    HW130529   0.641   0.467   2.505  1.2318  1.5855 -1.1606
 9661SOL    HW230530   0.547   0.424   2.395  0.9682  0.8508 -0.6610
 9662SOL     OW30531   2.134   2.133   5.177  0.4319 -0.5691 -0.3959
 9662SOL    HW130532   2.170   2.050   5.147 -0.9730 -1.2278 -0.3204
 9662SOL    HW230533   2.134   2.125   5.273 -0.2493 -0.7210 -0.4083
 9663SOL     OW30534   6.608   3.773   5.820  0.5114  0.7890  0.4982
 9663SOL    HW130535   6.623   3.762   5.914  1.1952 -0.1212  0.2991
 9663SOL    HW230536   6.670   3.713   5.779  0.4357  1.4087 -0.5483
 9664SOL     OW30537   3.721   1.331   0.353 -0.6167  0.4880 -0.2307
 9664SOL    HW130538   3.646   1.377   0.392  0.2041  1.5673  0.1134
 9664SOL    HW230539   3.773   1.303   0.428 -0.4572  0.1097 -0.4842
 9665SOL     OW30540   0.674   2.459   4.344 -0.4425  0.2003  0.5102
 9665SOL    HW130541   0.754   2.416   4.375 -1.7726 -1.5731  1.6432
 9665SOL    HW230542   0.693   2.479   4.252  1.6575  0.7730  1.0081
 9666SOL     OW30543   0.128   1.993   2.626 -0.5970 -0.1062  0.5326
 9666SOL    HW130544   0.176   1.985   2.543  0.8281  2.3803  1.0059
 9666SOL    HW230545   0.040   1.961   2.606  0.5693 -2.6350 -1.0208
 9667SOL     OW30546   3.591   0.717   5.632  0.2873 -0.1827 -0.3730
 9667SOL    HW130547   3.669   0.661   5.639 -0.3744 -1.0519  0.2669
 9667SOL    HW230548   3.624   0.806   5.643  1.2364 -0.5212 -0.4114
 9668SOL     OW30549   2.826   2.192   5.536  0.4260  0.4261 -0.2273
 9668SOL    HW130550   2.891   2.224   5.474  0.4827  1.2095  0.2179
 9668SOL    HW230551   2.785   2.271   5.571 -1.0276 -0.0592 -0.7525
 9669SOL     OW30552   4.517   2.640   6.322  0.3202 -0.4155 -0.8450
 9669SOL    HW130553   4.455   2.628   6.394 -0.8536 -0.1337 -1.7821
 9669SOL    HW230554   4.504   2.564   6.266  0.8107 -0.3378 -1.0690
 9670SOL     OW30555   3.540   4.032   4.705  0.1097 -0.3458 -0.4473
 9670SOL    HW130556   3.608   4.032   4.638 -0.7894 -0.1194 -1.3850
 9670SOL    HW230557   3.561   3.957   4.761  1.3864  0.0029 -0.4324
 9671SOL     OW30558   6.687   5.078   2.326  0.3781  0.6383 -0.3572
 9671SOL    HW130559   6.775   5.115   2.321  0.4531  0.3286 -1.7206
 9671SOL    HW230560   6.685   5.032   2.410  1.3653  0.9924 -0.1233
 9672SOL     OW30561   6.326   0.073   5.540  0.9738 -0.0854  0.2076
 9672SOL    HW130562   6.352  -0.002   5.486  1.8966  0.0213  0.4855
 9672SOL    HW230563   6.341   0.149   5.484 -0.3011 -0.1165 -0.2004
 9673SOL     OW30564   3.443   1.295   1.605  0.1284  0.0619 -0.2784
 9673SOL    HW130565   3.369   1.251   1.647  0.0512 -0.2336 -0.7206
 9673SOL    HW230566   3.412   1.384   1.590 -0.9473 -0.5956 -2.4014
 9674SOL     OW30567   3.202   6.316   1.833  0.1834  0.1919  0.0408
 9674SOL    HW130568   3.153   6.234   1.831 -0.6955  0.5872  2.5273
 9674SOL    HW230569   3.292   6.289   1.853  0.5316 -0.3208 -1.9642
 9675SOL     OW30570   6.571   3.474   5.383 -0.5200  0.2811 -0.1321
 9675SOL    HW130571   6.499   3.435   5.431  0.1911 -0.2292  0.5400
 9675SOL    HW230572   6.549   3.461   5.291 -1.3663  0.2939  0.0666
 9676SOL     OW30573   0.014   4.783   3.562  0.0053 -0.0197 -0.1583
 9676SOL    HW130574  -0.056   4.761   3.623 -0.4696  2.0135  0.1024
 9676SOL    HW230575   0.026   4.878   3.571  1.6899 -0.0559 -1.3716
 9677SOL     OW30576   1.842   0.639   2.687  0.8236  0.0008  0.3344
 9677SOL    HW130577   1.906   0.688   2.636  0.2393 -0.5189 -0.9338
 9677SOL    HW230578   1.867   0.547   2.675 -1.3168 -0.3846 -1.8974
 9678SOL     OW30579   3.721   6.081   0.737  0.2263 -0.9372 -0.2778
 9678SOL    HW130580   3.662   6.122   0.673 -1.2163 -0.8045  1.0673
 9678SOL    HW230581   3.744   6.151   0.797 -0.9903 -1.7037  1.1360
 9679SOL     OW30582   3.774   2.123   1.021  0.6468  0.2254  0.1882
 9679SOL    HW130583   3.770   2.217   1.007  0.2024  0.0215 -1.2195
 9679SOL    HW230584   3.760   2.112   1.115  0.3829  1.5412  0.3193
 9680SOL     OW30585   0.463   3.041   4.961  0.0901  0.1120  0.0997
 9680SOL    HW130586   0.558   3.042   4.951 -0.0943 -0.4674 -2.4814
 9680SOL    HW230587   0.431   2.999   4.881 -2.3520  0.3476  0.8653
 9681SOL     OW30588   1.009   0.874   1.913 -0.1986  0.3861  0.0246
 9681SOL    HW130589   1.002   0.817   1.837  0.5484  0.6433 -0.2439
 9681SOL    HW230590   1.040   0.817   1.983 -0.0491  0.3295 -0.0863
 9682SOL     OW30591   3.406   2.811   1.726  0.2949  0.1149 -0.2120
 9682SOL    HW130592   3.335   2.841   1.670 -0.3187  0.9740  0.9696
 9682SOL    HW230593   3.468   2.885   1.726  1.1805 -0.5972 -1.1756
 9683SOL     OW30594   6.363   0.626   3.560  0.5485 -0.0404  0.5388
 9683SOL    HW130595   6.391   0.704   3.608  3.0094 -1.3609  1.4136
 9683SOL    HW230596   6.394   0.553   3.613 -1.3060 -1.6608 -0.4686
 9684SOL     OW30597   6.290   5.428   4.126  0.2383 -0.5411 -0.5775
 9684SOL    HW130598   6.341   5.351   4.100 -0.6259 -0.4845 -2.6042
 9684SOL    HW230599   6.355   5.498   4.130  0.9424 -1.2148  0.7836
 9685SOL     OW30600   3.988   2.406   3.922  0.2084 -0.2446 -0.0463
 9685SOL    HW130601   3.956   2.468   3.988  0.4977  0.5784 -0.6486
 9685SOL    HW230602   4.023   2.462   3.853  0.7224 -1.0983 -0.4943
 9686SOL     OW30603   6.420   6.377   5.614  0.8454 -0.1123  0.2288
 9686SOL    HW130604   6.436   6.360   5.707  2.3423  1.3990  0.2972
 9686SOL    HW230605   6.350   6.317   5.590  1.8721 -2.0271  1.7933
 9687SOL     OW30606   3.746   5.160   4.843  0.3058  0.3208 -0.1112
 9687SOL    HW130607   3.804   5.129   4.774  0.8976 -1.6131  1.1362
 9687SOL    HW230608   3.667   5.106   4.834  0.2325  0.3217  0.4600
 9688SOL     OW30609   2.040   1.420   1.432 -0.3651 -0.0700 -0.1105
 9688SOL    HW130610   2.122   1.378   1.457 -0.7582 -1.3005 -0.7801
 9688SOL    HW230611   1.981   1.404   1.506 -0.8033 -1.6092 -0.7485
 9689SOL     OW30612   0.951   5.253   6.068  0.0773 -0.4923 -0.1761
 9689SOL    HW130613   0.892   5.296   6.006  0.5762  1.7512  0.7826
 9689SOL    HW230614   0.936   5.300   6.151  0.1413 -2.7195  1.1652
 9690SOL     OW30615   5.806   1.518   3.069  0.5454 -0.7164  0.3990
 9690SOL    HW130616   5.862   1.483   3.000  0.6715 -2.5478  1.3641
 9690SOL    HW230617   5.753   1.443   3.097 -1.4282  0.6240  0.4678
 9691SOL     OW30618   3.866   0.088   0.109 -0.4560 -0.0061 -0.3694
 9691SOL    HW130619   3.819   0.169   0.127 -1.2153 -0.3893 -0.5504
 9691SOL    HW230620   3.899   0.060   0.194 -0.1134  0.5344 -0.3222
 9692SOL     OW30621   6.258   5.186   5.516 -0.1232  0.0336  0.6074
 9692SOL    HW130622   6.196   5.197   5.588  1.2101  0.0064  1.8092
 9692SOL    HW230623   6.207   5.145   5.446 -1.8023  1.3662  1.0022
 9693SOL     OW30624   0.239   0.797   5.316  0.4886  0.1330  0.0328
 9693SOL    HW130625   0.230   0.702   5.317 -0.6649  0.1895  2.4969
 9693SOL    HW230626   0.299   0.816   5.388  0.6060  1.2926 -0.3465
 9694SOL     OW30627   2.832   3.175   1.693 -0.4035 -0.2312  0.5540
 9694SOL    HW130628   2.767   3.130   1.638  0.7692  0.3345 -1.3877
 9694SOL    HW230629   2.855   3.111   1.760 -2.8123 -0.5068  1.2209
 9695SOL     OW30630   6.651   2.406   2.382 -0.0829  0.3652 -0.6650
 9695SOL    HW130631   6.715   2.450   2.438  0.2241  0.6575 -1.2346
 9695SOL    HW230632   6.701   2.381   2.304 -0.8212  1.2271 -1.4250
 9696SOL     OW30633   5.788   3.292   5.531 -0.2787  0.5407  0.1284
 9696SOL    HW130634   5.695   3.305   5.549 -0.1684  0.3500  0.8499
 9696SOL    HW230635   5.830   3.298   5.617  0.5958  2.4317 -0.3690
 9697SOL     OW30636   6.044   5.494   1.954 -0.1394  0.4871  0.0795
 9697SOL    HW130637   6.107   5.498   2.026 -0.6559  0.5087  0.5371
 9697SOL    HW230638   6.090   5.448   1.884  0.5324  0.8900  0.2504
 9698SOL     OW30639   4.070   0.845   4.017 -0.2241  0.3440  0.5065
 9698SOL    HW130640   4.150   0.879   3.975 -0.7177  1.9876  0.7970
 9698SOL    HW230641   4.005   0.845   3.946  0.0617 -1.1634  0.2269
 9699SOL     OW30642   0.909   2.681   0.228 -0.2572  0.7554 -0.1324
 9699SOL    HW130643   0.830   2.728   0.200 -0.1066  0.3464 -1.2926
 9699SOL    HW230644   0.879   2.625   0.299 -1.2163 -0.0045 -1.0951
 9700SOL     OW30645   1.248   5.047   0.493 -0.1405  0.0304 -0.0075
 9700SOL    HW130646   1.303   4.971   0.515 -0.5153  0.0806  1.1980
 9700SOL    HW230647   1.178   5.045   0.558  1.2155  2.8235  1.7368
 9701SOL     OW30648   5.948   1.256   5.495 -0.6114 -0.2757  0.7417
 9701SOL    HW130649   5.977   1.250   5.586 -0.1892  0.4558  0.6665
 9701SOL    HW230650   5.995   1.332   5.460 -0.2053 -0.9963 -0.3006
 9702SOL     OW30651   4.062   3.333   2.102  0.0974 -0.0259  0.1807
 9702SOL    HW130652   4.030   3.423   2.099 -2.1277 -0.7164  1.0985
 9702SOL    HW230653   4.119   3.325   2.026 -0.3342  1.9003 -0.4020
 9703SOL     OW30654   3.067   1.009   2.917  0.3192 -0.1152 -0.4161
 9703SOL    HW130655   3.138   0.972   2.969 -0.1676 -0.6104 -0.0928
 9703SOL    HW230656   2.993   1.013   2.977  0.0526  0.3308 -0.7699
 9704SOL     OW30657   6.648   2.190   1.718  0.2690 -0.1385  0.1422
 9704SOL    HW130658   6.735   2.224   1.740  0.2743  0.6292 -0.9622
 9704SOL    HW230659   6.659   2.152   1.630 -0.3249 -0.7949  0.3411
 9705SOL     OW30660   5.802   4.922   6.543 -0.0850 -0.0852 -0.3651
 9705SOL    HW130661   5.796   5.017   6.548 -1.1068 -0.1945  2.3053
 9705SOL    HW230662   5.784   4.901   6.451 -2.4949  2.1568 -0.5191
 9706SOL     OW30663   0.457   4.897   6.079  0.0899  0.5464  0.1402
 9706SOL    HW130664   0.414   4.881   6.163 -1.6607  2.2152 -0.3764
 9706SOL    HW230665   0.459   4.992   6.071  0.4580  0.4166 -1.6084
 9707SOL     OW30666   4.455   5.625   0.073  0.2696 -0.1599 -0.2557
 9707SOL    HW130667   4.470   5.627  -0.022 -1.4284  1.9916 -0.5709
 9707SOL    HW230668   4.479   5.713   0.102 -1.3963 -0.0401  0.8864
 9708SOL     OW30669   4.090   1.306   3.225 -0.0319  0.2092 -0.3128
 9708SOL    HW130670   4.051   1.254   3.295  0.9560 -0.1199  0.0135
 9708SOL    HW230671   4.153   1.247   3.184  0.2522  0.7811 -0.7136
 9709SOL     OW30672   2.862   1.325   3.491  0.0711  0.2687 -0.0553
 9709SOL    HW130673   2.853   1.319   3.396 -2.7361 -1.6201  0.2180
 9709SOL    HW230674   2.891   1.239   3.519 -2.8287 -0.5107  0.9851
 9710SOL     OW30675   2.790   6.590   1.121 -0.4127  0.3535 -0.0719
 9710SOL    HW130676   2.741   6.619   1.198  0.4068  2.1081 -0.1518
 9710SOL    HW230677   2.745   6.631   1.047  0.2857  0.7738 -0.2749
 9711SOL     OW30678   5.389   1.793   4.553 -0.1349 -0.4888 -0.0929
 9711SOL    HW130679   5.392   1.715   4.498 -1.0968 -0.8588  0.3536
 9711SOL    HW230680   5.321   1.774   4.618 -0.6687  0.8689 -0.2106
 9712SOL     OW30681   2.109   1.788   5.300 -0.1638  0.2346  0.2296
 9712SOL    HW130682   2.131   1.775   5.393 -0.2232 -1.5032  0.0295
 9712SOL    HW230683   2.154   1.718   5.255  0.7129  1.6724 -1.2289
 9713SOL     OW30684   6.027   5.158   4.606 -0.6874 -0.8739 -0.0802
 9713SOL    HW130685   5.950   5.102   4.611 -1.0446 -0.2930  1.3573
 9713SOL    HW230686   6.058   5.164   4.696 -0.5950  1.1332 -0.2088
 9714SOL     OW30687   1.617   2.883   5.630  0.5651  0.0528 -0.5739
 9714SOL    HW130688   1.573   2.965   5.654  0.9901  0.5839 -1.5464
 9714SOL    HW230689   1.709   2.909   5.618  1.0447 -0.9092  0.7901
 9715SOL     OW30690   2.723   5.493   1.139  0.2762  0.5354  0.7415
 9715SOL    HW130691   2.737   5.496   1.234  1.3384  0.2883  0.6016
 9715SOL    HW230692   2.688   5.405   1.123  0.4979  0.4251  0.8554
 9716SOL     OW30693   5.572   0.307   5.242 -0.2840  0.0828  0.0920
 9716SOL    HW130694   5.519   0.324   5.320 -0.9454  1.6816 -0.6530
 9716SOL    HW230695   5.607   0.393   5.219 -0.0890 -0.3677 -1.3469
 9717SOL     OW30696   6.111   2.421   0.689 -0.5420 -0.3978  0.4506
 9717SOL    HW130697   6.176   2.457   0.749 -1.0745  1.1287  0.1722
 9717SOL    HW230698   6.030   2.421   0.739 -1.1070  1.4128 -0.3954
 9718SOL     OW30699   4.763   4.435   1.928 -0.4410  0.4981 -0.6416
 9718SOL    HW130700   4.830   4.397   1.872 -1.0691 -1.2458 -0.2762
 9718SOL    HW230701   4.730   4.510   1.879 -1.0524 -1.0336 -2.7075
 9719SOL     OW30702   6.244   2.715   4.538 -0.8749  0.4309  0.0379
 9719SOL    HW130703   6.338   2.714   4.516 -0.2180  1.7977  2.4642
 9719SOL    HW230704   6.203   2.759   4.464  0.1759 -1.2353 -1.6379
 9720SOL     OW30705   1.718   0.155   2.216 -0.3426  0.4617  0.0544
 9720SOL    HW130706   1.765   0.135   2.136 -1.6070 -3.3026  0.0886
 9720SOL    HW230707   1.770   0.115   2.286 -0.7034  1.2403  0.7898
 9721SOL     OW30708   5.935   4.894   4.196 -0.4720 -0.0567 -0.4714
 9721SOL    HW130709   5.967   4.983   4.184  0.2347 -0.4029 -1.2724
 9721SOL    HW230710   5.844   4.904   4.225 -0.0831  0.9265  0.4327
 9722SOL     OW30711   5.006   2.943   5.241 -0.1241 -0.6483  0.0485
 9722SOL    HW130712   5.066   2.955   5.167  0.1856 -1.0178  0.2373
 9722SOL    HW230713   5.033   3.010   5.304 -0.4622 -0.2558 -0.2126
 9723SOL     OW30714   3.225   4.139   2.183  0.3937 -0.1764  0.6648
 9723SOL    HW130715   3.282   4.063   2.195  1.1046  0.2393  0.0290
 9723SOL    HW230716   3.269   4.191   2.116 -0.3918  0.5002  0.6623
 9724SOL     OW30717   3.859   3.132   3.195 -0.3120  0.7463  0.2603
 9724SOL    HW130718   3.945   3.171   3.177 -0.9440  1.6813 -0.8195
 9724SOL    HW230719   3.796   3.190   3.152 -1.4078 -0.5594  0.0315
 9725SOL     OW30720   2.947   0.236   2.943  0.4284 -0.1264  0.1534
 9725SOL    HW130721   2.933   0.171   2.874  1.7834 -0.5329  0.2356
 9725SOL    HW230722   3.018   0.200   2.996 -1.5921 -0.6100  2.7539
 9726SOL     OW30723   5.086   1.224   0.772 -0.0218  0.0478  0.1287
 9726SOL    HW130724   5.062   1.313   0.747  0.5846  0.3724  0.6790
 9726SOL    HW230725   5.003   1.181   0.791 -0.3500  0.3672 -0.5351
 9727SOL     OW30726   4.544   6.402   2.037  0.0328  0.3013 -0.6955
 9727SOL    HW130727   4.564   6.458   2.113  1.2903 -0.3215 -0.5412
 9727SOL    HW230728   4.455   6.425   2.014 -0.4237  0.4431  1.0451
 9728SOL     OW30729   2.568   4.866   0.785  0.1858 -0.4813 -0.3435
 9728SOL    HW130730   2.647   4.826   0.820  0.4102  0.4063  0.2038
 9728SOL    HW230731   2.497   4.806   0.808  0.6898 -1.2716 -0.8205
 9729SOL     OW30732   4.935   4.699   1.438 -0.3132  0.4942  0.1791
 9729SOL    HW130733   5.029   4.680   1.432 -0.0147  1.5713  1.1233
 9729SOL    HW230734   4.906   4.706   1.347  0.1111 -1.6683 -0.1761
 9730SOL     OW30735   6.402   6.669   1.971 -0.0163 -0.5117 -0.3066
 9730SOL    HW130736   6.433   6.694   1.884 -0.5823 -0.6218 -0.5473
 9730SOL    HW230737   6.306   6.668   1.963 -0.0607 -0.9591  0.1923
 9731SOL     OW30738   0.131   3.333   5.251 -0.9900  0.2813  0.2489
 9731SOL    HW130739   0.215   3.320   5.206  0.1632 -3.3657  2.9614
 9731SOL    HW230740   0.071   3.273   5.207 -1.6643  1.3834 -0.3749
 9732SOL     OW30741   1.680   5.451   6.533  1.1429  0.2262 -0.6395
 9732SOL    HW130742   1.605   5.397   6.555  2.2340 -0.9708  0.2830
 9732SOL    HW230743   1.683   5.517   6.603  1.4878 -0.3107 -0.1367
 9733SOL     OW30744   4.708   1.818   4.457 -0.5866  0.2735  0.1471
 9733SOL    HW130745   4.801   1.808   4.435 -0.0855 -1.2776  2.5789
 9733SOL    HW230746   4.708   1.880   4.531 -1.5118  0.4032  0.0450
 9734SOL     OW30747   6.245   0.949   2.463  0.0961 -0.3748 -0.1531
 9734SOL    HW130748   6.173   0.886   2.469  0.3071 -0.4846  2.1225
 9734SOL    HW230749   6.316   0.909   2.514  1.4871  0.1361 -1.6189
 9735SOL     OW30750   6.066   3.650   2.329  0.6629 -0.5395  0.5505
 9735SOL    HW130751   6.118   3.715   2.282 -0.4056  0.8562  1.2152
 9735SOL    HW230752   6.019   3.602   2.260 -0.0654  0.7563  0.1108
 9736SOL     OW30753   5.707   3.896   4.675  0.1302 -0.1109  0.0011
 9736SOL    HW130754   5.658   3.937   4.605  2.1120  0.1925 -1.2813
 9736SOL    HW230755   5.783   3.857   4.632  0.3854 -1.6721  1.7220
 9737SOL     OW30756   2.737   3.071   2.893 -0.0099  1.2483  0.0253
 9737SOL    HW130757   2.814   3.121   2.866 -0.9504  2.0455 -1.2846
 9737SOL    HW230758   2.668   3.137   2.905 -1.0789  0.3830 -1.0335
 9738SOL     OW30759   5.120   3.837   3.341 -0.2625 -0.2181 -0.2701
 9738SOL    HW130760   5.112   3.744   3.324  0.3508 -0.1481 -1.0290
 9738SOL    HW230761   5.106   3.846   3.435  4.5289 -1.7643  0.8867
 9739SOL     OW30762   4.408   4.607   0.679  0.3830  0.8533  0.4701
 9739SOL    HW130763   4.500   4.633   0.679  1.4943 -2.4713  1.6737
 9739SOL    HW230764   4.395   4.568   0.592  0.7727 -0.4004  0.9402
 9740SOL     OW30765   0.467   1.511   2.672  0.2928 -0.0014  0.2350
 9740SOL    HW130766   0.514   1.437   2.712 -0.7782  0.5825  2.7162
 9740SOL    HW230767   0.492   1.586   2.725 -1.3768  0.7829 -0.0494
 9741SOL     OW30768   1.752   3.017   0.531 -0.2823  0.4049 -0.3199
 9741SOL    HW130769   1.689   2.949   0.553 -1.5406  1.5202 -0.3952
 9741SOL    HW230770   1.758   3.014   0.436 -1.0246  0.9736 -0.3949
 9742SOL     OW30771   1.476   1.222   6.371 -0.3108  0.3511 -0.3588
 9742SOL    HW130772   1.493   1.149   6.431  1.6581  1.6772  0.8209
 9742SOL    HW230773   1.546   1.215   6.306 -0.3018  0.9996 -0.4210
 9743SOL     OW30774   3.704   0.016   1.217 -0.1722  0.0171 -0.6263
 9743SOL    HW130775   3.733  -0.024   1.135  0.2063  1.1217 -1.0446
 9743SOL    HW230776   3.785   0.043   1.260 -0.4399  0.7118 -0.5542
 9744SOL     OW30777   1.835   2.315   2.984 -0.2326 -0.1308  0.1648
 9744SOL    HW130778   1.832   2.241   2.925 -2.4980  1.1297 -1.4238
 9744SOL    HW230779   1.804   2.389   2.932  0.1739  1.5689  2.2007
 9745SOL     OW30780   3.573   4.148   1.736 -0.8253 -0.2662  0.1224
 9745SOL    HW130781   3.553   4.120   1.825  1.5636 -0.2029  0.7314
 9745SOL    HW230782   3.506   4.213   1.716 -1.4697 -0.3528  1.8125
 9746SOL     OW30783   1.713   0.566   0.892  0.2916 -0.0848  0.3571
 9746SOL    HW130784   1.739   0.596   0.979  1.1462 -1.2808  0.5335
 9746SOL    HW230785   1.701   0.647   0.841 -0.0779  0.6204  1.5263
 9747SOL     OW30786   6.251   6.642   6.702 -0.6171  0.1921 -0.3703
 9747SOL    HW130787   6.282   6.614   6.616  4.1031 -0.5351  1.2589
 9747SOL    HW230788   6.279   6.572   6.761 -2.9021  1.0815  1.9541
 9748SOL     OW30789   0.762   6.080   1.022 -0.0524  0.7752 -0.2621
 9748SOL    HW130790   0.800   6.166   1.005  0.8488  0.1521 -1.5874
 9748SOL    HW230791   0.838   6.020   1.021 -0.8492 -0.2584 -1.1388
 9749SOL     OW30792   5.225   6.447   2.837  0.1473  0.2690  0.4962
 9749SOL    HW130793   5.317   6.445   2.861  0.1808  1.4024  0.5256
 9749SOL    HW230794   5.219   6.393   2.758  1.1087  1.3711 -0.3471
 9750SOL     OW30795   4.460   4.399   1.809 -0.1844  0.0178  0.3824
 9750SOL    HW130796   4.546   4.399   1.768 -1.2232  2.2177 -2.1276
 9750SOL    HW230797   4.406   4.344   1.751 -1.0494  0.8638  0.3580
 9751SOL     OW30798   1.283   4.705   3.027  0.5153 -0.1387  0.3935
 9751SOL    HW130799   1.270   4.696   3.121  0.5933 -0.8658  0.3408
 9751SOL    HW230800   1.336   4.784   3.018 -0.5227  0.6315  0.8667
 9752SOL     OW30801   5.117   2.705   1.399  0.3203 -0.3783  0.8202
 9752SOL    HW130802   5.069   2.786   1.383  0.1538 -0.6313 -0.0033
 9752SOL    HW230803   5.175   2.726   1.472  0.3261  0.5085  0.5803
 9753SOL     OW30804   1.826   5.827   4.583  0.2938  0.1495  0.2847
 9753SOL    HW130805   1.863   5.896   4.638  0.8510 -1.5088  2.0667
 9753SOL    HW230806   1.800   5.758   4.644  1.0280 -1.8231 -1.5180
 9754SOL     OW30807   6.723   2.550   2.033 -0.1542 -0.4580 -0.4310
 9754SOL    HW130808   6.742   2.462   2.066  2.0388 -0.0117 -0.3551
 9754SOL    HW230809   6.716   2.540   1.938 -2.1756 -1.0416 -0.2579
 9755SOL     OW30810   4.311   6.558   6.506  0.4768  0.1809 -0.2711
 9755SOL    HW130811   4.311   6.518   6.419  2.1864  1.0627 -0.7333
 9755SOL    HW230812   4.271   6.644   6.493  2.3221  1.0554 -0.6461
 9756SOL     OW30813   4.710   5.255   4.415 -0.0883  0.1089  0.0281
 9756SOL    HW130814   4.633   5.278   4.363 -0.0048  1.0476  0.3079
 9756SOL    HW230815   4.745   5.176   4.373  0.4184  1.2620 -1.8148
 9757SOL     OW30816   6.703   6.305   4.741  0.0175 -0.1901 -0.1085
 9757SOL    HW130817   6.710   6.384   4.794 -2.8313 -0.4444  0.7821
 9757SOL    HW230818   6.758   6.322   4.665  0.1905  2.2452  0.4974
 9758SOL     OW30819   6.441   4.809   2.396  0.1364  0.0972 -0.0211
 9758SOL    HW130820   6.419   4.724   2.360  0.4990  0.2665 -0.6662
 9758SOL    HW230821   6.383   4.871   2.351  0.3376  0.2667 -0.0540
 9759SOL     OW30822   1.664   0.584   6.340 -0.2037  0.1456  0.5069
 9759SOL    HW130823   1.750   0.619   6.315 -0.6819  1.3650  0.4977
 9759SOL    HW230824   1.609   0.599   6.264 -0.7671  0.6231  0.9978
 9760SOL     OW30825   6.055   4.436   4.496  0.6243  0.4343  0.0316
 9760SOL    HW130826   6.086   4.374   4.431 -0.7780 -0.7922  0.4921
 9760SOL    HW230827   6.038   4.516   4.447 -3.6400 -1.3741 -1.9151
 9761SOL     OW30828   6.255   6.299   4.392  0.0900  0.1463  0.7400
 9761SOL    HW130829   6.279   6.212   4.423 -0.1186  0.0464  0.6205
 9761SOL    HW230830   6.256   6.292   4.297 -0.0064  0.2531  0.7305
 9762SOL     OW30831   6.145   2.286   0.456  0.0886 -0.5565  0.1386
 9762SOL    HW130832   6.156   2.311   0.548  0.0494 -1.2350  0.3317
 9762SOL    HW230833   6.094   2.205   0.459 -2.4657  0.9247 -0.6057
 9763SOL     OW30834   0.324   2.303   6.778  0.1665  0.1739  1.1392
 9763SOL    HW130835   0.347   2.396   6.769 -0.1685  0.1289 -0.3016
 9763SOL    HW230836   0.326   2.269   6.689  0.4101 -1.2438  1.6698
 9764SOL     OW30837   5.253   3.953   1.456 -0.0425  0.4452 -0.0020
 9764SOL    HW130838   5.250   3.857   1.455  0.0743  0.4127  1.3662
 9764SOL    HW230839   5.298   3.975   1.537  0.1096  1.6703 -0.3936
 9765SOL     OW30840   4.298   1.461   3.643  0.6838 -0.2418  0.4783
 9765SOL    HW130841   4.306   1.481   3.737  0.5836 -1.9544  0.8699
 9765SOL    HW230842   4.387   1.467   3.610  0.8234 -0.3272  0.8336
 9766SOL     OW30843   1.287   0.807   6.445 -0.0898 -0.5056  0.3783
 9766SOL    HW130844   1.377   0.837   6.434 -0.1661 -0.2330  0.4996
 9766SOL    HW230845   1.237   0.855   6.379 -0.4715  0.7906  1.5448
 9767SOL     OW30846   4.808   5.187   6.394 -0.1649  0.3539 -0.0771
 9767SOL    HW130847   4.891   5.171   6.349 -0.8585  0.6213 -1.5156
 9767SOL    HW230848   4.830   5.183   6.487  1.1550 -1.1858 -0.3969
 9768SOL     OW30849   2.206   0.986   1.367 -0.2713  0.1084 -0.0149
 9768SOL    HW130850   2.210   1.039   1.287 -1.4999 -0.7498 -0.6729
 9768SOL    HW230851   2.285   0.932   1.364  0.0627  0.5988 -0.2642
 9769SOL     OW30852   3.403   5.581   2.410  0.0411  0.0635  0.1435
 9769SOL    HW130853   3.378   5.636   2.335 -0.7627  0.0082  0.3656
 9769SOL    HW230854   3.397   5.640   2.485  3.1064  0.7826 -0.0633
 9770SOL     OW30855   2.931   2.530   1.779 -0.7125 -0.1857  0.1640
 9770SOL    HW130856   2.906   2.455   1.725  0.2052  0.3361 -1.0365
 9770SOL    HW230857   2.920   2.606   1.721  0.4304  0.3814  0.6686
 9771SOL     OW30858   4.496   6.069   2.461 -0.0819  0.2812 -0.0321
 9771SOL    HW130859   4.460   6.075   2.372 -0.6316 -0.5641  0.1198
 9771SOL    HW230860   4.553   5.992   2.458  0.9351  1.0191  0.0060
 9772SOL     OW30861   1.889   1.949   4.343  0.1849 -0.0326 -0.0171
 9772SOL    HW130862   1.828   1.899   4.289  1.4551 -0.8244 -0.7761
 9772SOL    HW230863   1.913   1.890   4.414  1.6460 -0.5207 -0.8831
 9773SOL     OW30864   5.430   6.439   1.723 -0.3459  0.7163  0.6794
 9773SOL    HW130865   5.468   6.510   1.671  1.7285 -0.3636  0.6043
 9773SOL    HW230866   5.470   6.359   1.688  0.1917 -0.1627  3.1044
 9774SOL     OW30867   0.515   3.245   2.209  0.0670 -0.5700 -0.1161
 9774SOL    HW130868   0.461   3.179   2.252 -0.4297  0.3951  0.7769
 9774SOL    HW230869   0.603   3.207   2.209  0.1871 -0.4151  2.2136
 9775SOL     OW30870   3.415   3.847   5.108  0.0887  0.3213 -0.3599
 9775SOL    HW130871   3.503   3.814   5.127 -0.2873 -0.0176  0.8431
 9775SOL    HW230872   3.387   3.797   5.031  1.3912  1.2773 -1.5168
 9776SOL     OW30873   0.494   3.149   3.830 -0.6862 -0.0740  0.0408
 9776SOL    HW130874   0.536   3.071   3.867  0.9429  0.2662 -1.0020
 9776SOL    HW230875   0.529   3.222   3.881  0.1894  0.2344 -0.9675
 9777SOL     OW30876   0.344   3.663   6.066  0.0632  0.3194  0.1618
 9777SOL    HW130877   0.303   3.750   6.061 -1.1206 -0.1643  0.9619
 9777SOL    HW230878   0.287   3.607   6.014  1.8178  0.3237 -1.8904
 9778SOL     OW30879   4.002   4.071   3.935  0.3007  0.0260 -0.1324
 9778SOL    HW130880   4.093   4.090   3.914  0.6003 -2.4044 -1.4297
 9778SOL    HW230881   3.979   3.997   3.877 -2.1702 -0.0964  0.8764
 9779SOL     OW30882   4.281   2.838   4.841 -0.6984  0.4746  0.0693
 9779SOL    HW130883   4.370   2.858   4.871 -1.0473  0.4654  1.1589
 9779SOL    HW230884   4.275   2.742   4.845 -0.5529  0.4308 -0.6344
 9780SOL     OW30885   4.911   2.643   3.698  0.8254  0.4260 -0.1905
 9780SOL    HW130886   4.976   2.580   3.730  1.0754  0.9358  0.3393
 9780SOL    HW230887   4.953   2.728   3.709  1.1911  0.6074 -2.5609
 9781SOL     OW30888   5.296   5.602   5.804  0.0656 -0.1344  0.2320
 9781SOL    HW130889   5.221   5.569   5.753  0.6651 -0.2082 -0.6163
 9781SOL    HW230890   5.258   5.625   5.889 -0.7202 -1.2473  0.2116
 9782SOL     OW30891   4.980   2.288   0.901 -0.0233  0.0160  0.1579
 9782SOL    HW130892   4.909   2.307   0.963 -0.1440 -1.3689  0.4798
 9782SOL    HW230893   5.005   2.198   0.920  1.6770  0.3973 -0.1202
 9783SOL     OW30894   0.456   4.613   0.408  0.3057  0.2387 -0.4470
 9783SOL    HW130895   0.448   4.523   0.377  0.9933  0.2734 -0.7359
 9783SOL    HW230896   0.422   4.666   0.336  0.6345  0.2490 -0.5953
 9784SOL     OW30897   0.770   5.648   2.275 -0.1043  0.5921 -0.0570
 9784SOL    HW130898   0.836   5.704   2.315 -0.3194  1.3768 -0.7687
 9784SOL    HW230899   0.706   5.709   2.239 -0.4078 -0.1188 -0.7383
 9785SOL     OW30900   2.674   6.132   6.189  0.7970  0.0047  0.0908
 9785SOL    HW130901   2.720   6.103   6.111  2.2788  1.0435  0.5384
 9785SOL    HW230902   2.737   6.118   6.260  0.4178  1.3948  0.7350
 9786SOL     OW30903   6.283   6.052   4.477  0.3770 -0.1753  0.3616
 9786SOL    HW130904   6.292   6.014   4.390 -1.1944  1.1633 -0.4460
 9786SOL    HW230905   6.214   6.000   4.518 -1.0437  1.0549 -0.3657
 9787SOL     OW30906   4.080   0.533   0.686  0.2892  0.2422  0.2627
 9787SOL    HW130907   4.121   0.499   0.607  1.1123  0.1886  0.7009
 9787SOL    HW230908   3.993   0.561   0.658  0.8893  1.0750 -0.8574
 9788SOL     OW30909   2.291   1.141   3.913 -0.1234  0.3356  0.6103
 9788SOL    HW130910   2.216   1.187   3.953 -1.0602 -0.5087 -0.1268
 9788SOL    HW230911   2.274   1.049   3.929 -0.1175  0.0204 -1.0108
 9789SOL     OW30912   0.648   1.375   1.232 -0.1950  0.1966  0.0320
 9789SOL    HW130913   0.658   1.280   1.230  0.6423  0.2698  0.3806
 9789SOL    HW230914   0.725   1.408   1.185 -0.2850  0.7135  0.2451
 9790SOL     OW30915   2.735   2.473   1.997  0.0073  0.2939 -0.2819
 9790SOL    HW130916   2.765   2.387   2.025 -0.2484 -0.6453 -2.6662
 9790SOL    HW230917   2.814   2.519   1.970  0.0155  0.4283 -0.0417
 9791SOL     OW30918   6.014   5.114   0.036 -0.0280 -0.1015  0.2435
 9791SOL    HW130919   5.973   5.170  -0.030 -1.6616 -1.6141 -0.1068
 9791SOL    HW230920   6.060   5.048  -0.014  1.3187  0.4919  0.6567
 9792SOL     OW30921   1.161   6.110   3.821 -0.6208  0.3688  0.5909
 9792SOL    HW130922   1.129   6.144   3.737 -1.2330  0.4590  0.8501
 9792SOL    HW230923   1.231   6.050   3.798 -0.2267  1.0097  0.0609
 9793SOL     OW30924   5.669   5.675   6.714 -0.0338 -0.3774  0.5973
 9793SOL    HW130925   5.590   5.719   6.744 -1.5343 -3.0292  0.9072
 9793SOL    HW230926   5.709   5.640   6.794  0.4527 -0.5666  0.2767
 9794SOL     OW30927   3.324   4.523   4.329 -0.0974 -0.0243 -0.4924
 9794SOL    HW130928   3.267   4.592   4.297  0.4419  1.1600  0.9613
 9794SOL    HW230929   3.389   4.568   4.382  0.6787 -1.5892 -0.0406
 9795SOL     OW30930   1.607   4.682   0.068  0.2068 -0.2568  0.2027
 9795SOL    HW130931   1.573   4.602   0.027  1.2596  0.0265 -1.2801
 9795SOL    HW230932   1.553   4.693   0.146 -0.9155 -1.6208 -0.3371
 9796SOL     OW30933   1.011   6.568   4.432 -0.4822  0.6241  0.1712
 9796SOL    HW130934   1.061   6.636   4.478  1.3961  0.0532 -0.9104
 9796SOL    HW230935   1.075   6.500   4.413 -2.1996 -1.2420  0.7321
 9797SOL     OW30936   0.368   6.387   2.407 -0.2125 -0.4947  0.3190
 9797SOL    HW130937   0.293   6.418   2.357 -0.5869  0.7957  1.5848
 9797SOL    HW230938   0.440   6.444   2.380 -0.3689  0.0758  1.0799
 9798SOL     OW30939   4.576   2.345   4.280 -0.2476 -0.1457 -0.2108
 9798SOL    HW130940   4.504   2.286   4.259 -0.5214  0.2758 -0.4813
 9798SOL    HW230941   4.622   2.303   4.353 -0.3258 -0.7779 -0.5210
 9799SOL     OW30942   4.220   0.833   5.631 -0.1332  0.8739 -0.0037
 9799SOL    HW130943   4.237   0.760   5.691 -0.2289  0.1857 -0.7957
 9799SOL    HW230944   4.307   0.864   5.606 -0.0878  0.7320 -0.0226
 9800SOL     OW30945   5.155   3.926   5.596  0.3725  0.0653  0.1545
 9800SOL    HW130946   5.078   3.975   5.569  0.4408  0.4489  0.6307
 9800SOL    HW230947   5.226   3.991   5.597  0.7380 -0.3145 -0.4346
 9801SOL     OW30948   5.710   3.475   6.794  0.2037 -0.1490 -0.2142
 9801SOL    HW130949   5.742   3.560   6.763  1.2240 -0.3128  0.3667
 9801SOL    HW230950   5.775   3.446   6.857 -1.4936 -0.1306  1.6371
 9802SOL     OW30951   3.228   0.317   5.546  0.5926 -0.4117  0.1787
 9802SOL    HW130952   3.211   0.375   5.620 -0.9207  0.5817 -0.8834
 9802SOL    HW230953   3.323   0.312   5.540  0.7466 -0.1852  1.9206
 9803SOL     OW30954   5.187   5.844   4.948  0.2496  0.2231  0.1768
 9803SOL    HW130955   5.230   5.759   4.955  0.2288  0.3344  1.9495
 9803SOL    HW230956   5.094   5.823   4.937  0.2936  0.0254  0.1742
 9804SOL     OW30957   3.759   6.399   6.616  0.3091 -0.0454 -0.2373
 9804SOL    HW130958   3.764   6.448   6.698 -3.6273  1.7090 -0.7907
 9804SOL    HW230959   3.717   6.316   6.639  3.1835 -1.5301  0.0528
 9805SOL     OW30960   5.626   4.832   4.979 -0.1698  0.0011 -0.1732
 9805SOL    HW130961   5.621   4.861   5.070 -0.1572 -0.2447 -0.0919
 9805SOL    HW230962   5.557   4.881   4.934  0.4310  0.8137 -0.2282
 9806SOL     OW30963   0.552   2.187   3.814  0.0302  0.0412  0.3651
 9806SOL    HW130964   0.463   2.178   3.849  0.2520  2.3592  1.7512
 9806SOL    HW230965   0.539   2.201   3.720 -1.0531  0.1237  0.5144
 9807SOL     OW30966   4.639   2.510   4.545  0.0424  0.8417  0.0219
 9807SOL    HW130967   4.652   2.418   4.521 -0.4251  1.0325 -1.0299
 9807SOL    HW230968   4.605   2.507   4.634  1.3352  0.0663  0.5224
 9808SOL     OW30969   5.313   5.316   1.260  0.2054 -0.1267  0.0187
 9808SOL    HW130970   5.303   5.367   1.180 -0.6352  0.8351  0.7120
 9808SOL    HW230971   5.349   5.232   1.231 -1.7542 -0.4691 -1.5813
 9809SOL     OW30972   0.463   1.970   5.008 -0.0938  0.2791  0.3426
 9809SOL    HW130973   0.449   2.054   4.966 -0.3025  0.6472  1.1301
 9809SOL    HW230974   0.558   1.961   5.012 -0.0458  1.1050  1.4531
 9810SOL     OW30975   3.327   4.298   5.294  0.2931 -0.7543 -0.4154
 9810SOL    HW130976   3.252   4.357   5.292  0.6687 -0.1319  1.6679
 9810SOL    HW230977   3.318   4.245   5.215 -2.5599 -0.9995 -0.0226
 9811SOL     OW30978   2.592   2.143   4.522 -0.1512 -0.3701 -0.2615
 9811SOL    HW130979   2.549   2.192   4.592 -1.1037 -0.7677 -0.5475
 9811SOL    HW230980   2.595   2.204   4.448  4.0829  1.3685  1.0443
 9812SOL     OW30981   2.927   1.833   0.600 -0.0489  0.2717 -0.3144
 9812SOL    HW130982   2.981   1.767   0.558  1.6582  0.7872  0.9425
 9812SOL    HW230983   2.841   1.791   0.610  0.9816 -1.7928  0.4933
 9813SOL     OW30984   4.442   2.478   6.578 -0.5783  0.1226 -0.8593
 9813SOL    HW130985   4.379   2.437   6.518 -0.7413  0.7050 -1.0938
 9813SOL    HW230986   4.394   2.487   6.661 -0.5448 -0.1531 -0.8110
 9814SOL     OW30987   2.107   2.794   1.572  0.1058 -0.3407 -0.2205
 9814SOL    HW130988   2.037   2.730   1.567 -1.3245  1.2585 -2.7800
 9814SOL    HW230989   2.185   2.746   1.542 -0.6231 -1.2569 -0.7132
 9815SOL     OW30990   0.282   4.439   6.193 -0.0203  0.0885  0.0944
 9815SOL    HW130991   0.294   4.488   6.111 -0.0799  0.6257  0.4038
 9815SOL    HW230992   0.187   4.442   6.209 -0.1404 -0.9422 -0.3809
 9816SOL     OW30993   1.137   3.015   4.540 -0.6933  0.1888 -0.4643
 9816SOL    HW130994   1.192   2.964   4.480  0.8408  0.9567  0.2219
 9816SOL    HW230995   1.174   2.998   4.627 -1.4894  0.8211  0.0132
 9817SOL     OW30996   5.954   2.191   6.485  0.0524  0.5182 -0.2870
 9817SOL    HW130997   5.939   2.256   6.416 -0.5072 -1.0120 -1.6835
 9817SOL    HW230998   5.934   2.107   6.443  1.7129 -0.6701  1.1328
 9818SOL     OW30999   0.263   3.323   3.244  0.0110 -0.2619 -0.1077
 9818SOL    HW131000   0.206   3.259   3.289 -1.0871 -1.6654 -3.1977
 9818SOL    HW231001   0.205   3.365   3.180  1.7676  0.5326 -1.2442
 9819SOL     OW31002   2.893   4.797   5.272 -0.3563 -0.0998  0.0795
 9819SOL    HW131003   2.859   4.718   5.231  0.1704  0.7282 -2.0640
 9819SOL    HW231004   2.848   4.801   5.357 -1.7182 -1.7261 -0.5092
 9820SOL     OW31005   1.723   1.669   3.706 -0.3576  0.5332 -0.0667
 9820SOL    HW131006   1.647   1.709   3.747 -0.4320 -0.7080  1.0701
 9820SOL    HW231007   1.687   1.599   3.651 -0.0201 -1.6009  2.2379
 9821SOL     OW31008   3.955   0.191   4.532  0.9799 -0.0016  0.0379
 9821SOL    HW131009   3.996   0.161   4.451  0.1557  1.4587 -0.9433
 9821SOL    HW231010   3.899   0.264   4.506  0.4619  0.3078  1.8791
 9822SOL     OW31011   3.430   5.030   6.155 -0.0382  0.0405  0.7095
 9822SOL    HW131012   3.411   4.981   6.075 -1.0740  0.7565  0.4889
 9822SOL    HW231013   3.460   4.964   6.217  1.1184 -0.4727 -0.3685
 9823SOL     OW31014   2.127   2.708   0.493  0.5199  0.1716 -0.4215
 9823SOL    HW131015   2.038   2.673   0.500  0.9911 -0.8721  0.6367
 9823SOL    HW231016   2.126   2.786   0.549  0.1320  0.4686 -0.8380
 9824SOL     OW31017   2.446   5.152   1.058 -0.4702  0.2711 -0.2537
 9824SOL    HW131018   2.538   5.125   1.059 -0.2709  0.6808 -2.5151
 9824SOL    HW231019   2.450   5.248   1.067 -0.7752  0.1909  0.8849
 9825SOL     OW31020   0.580   3.414   3.631  0.3460  0.0535 -1.0906
 9825SOL    HW131021   0.524   3.407   3.709 -1.0126  0.4210 -2.0040
 9825SOL    HW231022   0.668   3.426   3.666 -0.0694 -0.9234  0.3987
 9826SOL     OW31023   3.146   5.362   0.423 -1.0645  0.5263  0.3070
 9826SOL    HW131024   3.136   5.391   0.333  1.5702 -3.3444 -1.5287
 9826SOL    HW231025   3.206   5.425   0.462 -0.9492  1.3731 -1.1659
 9827SOL     OW31026   5.520   6.374   3.326  0.0143 -0.0308  0.3183
 9827SOL    HW131027   5.426   6.393   3.320  0.0063 -0.1373  0.1143
 9827SOL    HW231028   5.550   6.374   3.235  0.0093 -1.0150  0.3057
 9828SOL     OW31029   4.266   4.046   6.554 -0.1969 -0.3495  0.1013
 9828SOL    HW131030   4.344   3.997   6.529 -0.0962  0.1456 -0.5748
 9828SOL    HW231031   4.269   4.049   6.650 -0.1356 -1.5375  0.1413
 9829SOL     OW31032   1.096   6.574   5.031 -0.3199 -0.2923 -0.0440
 9829SOL    HW131033   1.135   6.553   5.116  0.6885  1.7678  0.0576
 9829SOL    HW231034   1.171   6.595   4.975 -1.1096  0.8831 -0.6905
 9830SOL     OW31035   2.533   4.910   2.488  0.0645  0.5259 -0.7636
 9830SOL    HW131036   2.582   4.829   2.500  1.9342  1.3445 -2.2989
 9830SOL    HW231037   2.470   4.911   2.560  0.2924 -2.0412 -0.4448
 9831SOL     OW31038   4.506   2.287   3.632  0.2102  0.1739  0.5673
 9831SOL    HW131039   4.577   2.225   3.619  0.2207  0.4986 -1.2178
 9831SOL    HW231040   4.427   2.233   3.634  0.2626  0.0320 -0.4865
 9832SOL     OW31041   6.001   6.633   5.227  0.7921  0.5461  0.1522
 9832SOL    HW131042   6.084   6.644   5.182  1.2103 -0.0921  0.7424
 9832SOL    HW231043   6.025   6.618   5.319  0.0680 -0.2436  0.2334
 9833SOL     OW31044   3.933   1.940   5.896  0.2289 -0.1900  0.0791
 9833SOL    HW131045   3.995   2.013   5.900  1.3796 -1.0591 -1.0393
 9833SOL    HW231046   3.978   1.874   5.842 -2.2021 -0.3510 -1.8993
 9834SOL     OW31047   3.385   4.550   3.213 -0.0066 -0.6388  0.0748
 9834SOL    HW131048   3.408   4.518   3.300  2.0086  1.2201  0.3200
 9834SOL    HW231049   3.295   4.581   3.220  0.5482  0.6844  1.9004
 9835SOL     OW31050   4.046   5.056   1.167 -0.0296  0.8868  0.3101
 9835SOL    HW131051   4.077   4.970   1.139 -1.1255 -0.2180  2.2196
 9835SOL    HW231052   4.125   5.111   1.171  0.6865 -0.0138 -0.9318
 9836SOL     OW31053   4.297   6.049   1.964  0.4876  0.4970  0.0671
 9836SOL    HW131054   4.222   6.108   1.956 -1.5486 -1.8262  0.7140
 9836SOL    HW231055   4.333   6.043   1.876  0.3922  2.2014 -0.1118
 9837SOL     OW31056   1.907   1.338   4.258 -0.2971  0.3177  0.0540
 9837SOL    HW131057   1.934   1.429   4.243  0.2339  0.3463  1.0681
 9837SOL    HW231058   1.980   1.300   4.307 -0.7598 -0.4950  0.1172
 9838SOL     OW31059   5.044   4.094   0.421 -0.6111 -0.1808  0.2351
 9838SOL    HW131060   4.956   4.060   0.439 -0.0136 -1.6559  0.5655
 9838SOL    HW231061   5.100   4.016   0.422  0.2032  0.1751 -3.5551
 9839SOL     OW31062   0.699   0.682   1.358  0.5766 -0.2862  0.1956
 9839SOL    HW131063   0.767   0.748   1.364  0.0132  0.2836  0.4696
 9839SOL    HW231064   0.692   0.645   1.446 -1.2577  1.5155  0.8907
 9840SOL     OW31065   0.229   6.524   5.358  0.4417  0.5240 -0.3108
 9840SOL    HW131066   0.287   6.512   5.433  1.3742  0.3077 -1.0415
 9840SOL    HW231067   0.243   6.614   5.331  1.4321  0.1070 -1.2674
 9841SOL     OW31068   4.235   0.253   6.017 -0.0057  0.4023 -0.1621
 9841SOL    HW131069   4.154   0.275   6.064  0.2709  2.9739 -0.7468
 9841SOL    HW231070   4.257   0.165   6.048 -3.1781 -0.5398 -0.2507
 9842SOL     OW31071   4.156   6.328   5.199 -0.8180  0.4113 -0.0013
 9842SOL    HW131072   4.229   6.389   5.186 -0.9759  0.6542  0.2447
 9842SOL    HW231073   4.091   6.354   5.134 -0.5138 -0.0837 -0.5179
 9843SOL     OW31074   6.057   0.230   3.600 -0.2600 -0.2666  0.3868
 9843SOL    HW131075   6.037   0.216   3.693 -1.1621 -1.0211  0.0951
 9843SOL    HW231076   6.134   0.175   3.584 -0.6243 -0.8106  0.4907
 9844SOL     OW31077   0.916   1.177   5.286 -0.7833 -0.6714 -0.6399
 9844SOL    HW131078   0.990   1.116   5.276  1.7515  1.8175  1.2103
 9844SOL    HW231079   0.859   1.134   5.350  1.1621 -1.0119  0.9854
 9845SOL     OW31080   4.975   3.091   1.926 -0.0698  0.0408 -0.2389
 9845SOL    HW131081   4.960   2.998   1.944 -0.4412 -0.1624 -1.4428
 9845SOL    HW231082   5.026   3.092   1.845 -1.1595  0.8773 -0.9593
 9846SOL     OW31083   1.787   1.723   0.589  0.3478 -0.0582  0.1953
 9846SOL    HW131084   1.854   1.669   0.630 -0.1666  0.4726  1.7939
 9846SOL    HW231085   1.834   1.772   0.522  0.7741 -2.7173 -1.6308
 9847SOL     OW31086   3.987   0.088   3.281  0.1255  0.0666  0.8930
 9847SOL    HW131087   3.907   0.045   3.250  0.0712 -0.3917  1.6329
 9847SOL    HW231088   4.057   0.045   3.233 -0.0417  0.1852  0.5409
 9848SOL     OW31089   3.922   6.207   4.580 -0.5024  0.1530  0.3098
 9848SOL    HW131090   3.885   6.220   4.668  1.3135 -0.9584  1.3020
 9848SOL    HW231091   3.983   6.134   4.591 -2.6607 -2.3458 -2.6068
 9849SOL     OW31092   1.000   3.898   1.129 -0.0163 -0.5861 -0.5940
 9849SOL    HW131093   1.062   3.865   1.065 -0.5471 -0.5181 -1.1481
 9849SOL    HW231094   1.026   3.856   1.211  1.1663 -0.0461 -0.6743
 9850SOL     OW31095   4.557   6.753   2.010 -0.8509 -0.6458 -0.0186
 9850SOL    HW131096   4.593   6.682   2.064 -0.7419 -2.4253 -2.2678
 9850SOL    HW231097   4.613   6.828   2.029 -1.0266 -1.0616  2.5207
 9851SOL     OW31098   5.390   4.587   5.225 -0.0596 -0.0207 -0.1359
 9851SOL    HW131099   5.366   4.588   5.318  1.3116  1.5355  0.2445
 9851SOL    HW231100   5.475   4.629   5.222 -0.3415  0.4986 -2.1843
 9852SOL     OW31101   4.836   3.891   1.755  0.5751  0.4360  0.7019
 9852SOL    HW131102   4.744   3.916   1.753  0.4895  0.1691  1.2967
 9852SOL    HW231103   4.879   3.962   1.804  0.3980 -0.3327  2.0178
 9853SOL     OW31104   2.754   4.507   0.830  0.0654  0.0346 -0.1626
 9853SOL    HW131105   2.849   4.510   0.838  0.3520  0.5014 -2.8293
 9853SOL    HW231106   2.725   4.594   0.859  0.7735  0.9285 -1.9558
 9854SOL     OW31107   6.295   2.357   2.815 -0.8976  0.6244  0.1389
 9854SOL    HW131108   6.319   2.361   2.722 -1.7460 -0.7310 -0.1598
 9854SOL    HW231109   6.200   2.362   2.816 -0.8769  1.1076  0.9852
 9855SOL     OW31110   2.881   0.439   3.657  0.1283  0.2121 -0.2728
 9855SOL    HW131111   2.931   0.478   3.728  0.5464  1.0775 -1.0270
 9855SOL    HW231112   2.793   0.473   3.668  0.1988  0.3704 -0.1937
 9856SOL     OW31113   2.300   5.175   0.681 -0.2757 -0.4305  0.5523
 9856SOL    HW131114   2.275   5.139   0.766  1.5712 -0.2811  1.1986
 9856SOL    HW231115   2.339   5.100   0.634  1.5911  0.1543  1.0783
 9857SOL     OW31116   3.128   5.711   0.366 -0.0791  0.3046 -0.3104
 9857SOL    HW131117   3.191   5.759   0.312  0.7418 -0.8744 -0.4309
 9857SOL    HW231118   3.164   5.715   0.454 -1.0446  1.5973  0.0547
 9858SOL     OW31119   3.875   6.442   1.931 -0.4740 -0.2211 -0.0330
 9858SOL    HW131120   3.944   6.505   1.950 -1.5272  0.8918  0.2295
 9858SOL    HW231121   3.921   6.359   1.917  0.9895  0.7105 -0.9786
 9859SOL     OW31122   1.323   2.238   3.298 -0.0358  0.7085 -0.1953
 9859SOL    HW131123   1.352   2.283   3.218  1.9549  1.0055  0.6301
 9859SOL    HW231124   1.280   2.307   3.349 -0.0905  0.8525 -0.4337
 9860SOL     OW31125   3.734   2.656   6.744  0.3082 -0.2160  0.6738
 9860SOL    HW131126   3.677   2.647   6.668  1.0207  0.7661 -0.0069
 9860SOL    HW231127   3.737   2.568   6.782 -0.7211 -0.5372  0.0570
 9861SOL     OW31128   6.714   0.226   3.389  0.4104  0.1104  0.7048
 9861SOL    HW131129   6.619   0.230   3.372  0.7297  0.5983 -1.3119
 9861SOL    HW231130   6.735   0.311   3.429  0.0713  0.2298  0.6336
 9862SOL     OW31131   3.593   5.112   0.649 -0.2711  0.2699  0.0357
 9862SOL    HW131132   3.560   5.202   0.659 -0.1697  0.3384 -0.2313
 9862SOL    HW231133   3.515   5.059   0.638 -0.4534  0.0849  1.8345
 9863SOL     OW31134   1.322   4.761   4.638 -0.3961 -0.1001 -0.0003
 9863SOL    HW131135   1.282   4.755   4.551  0.8651  1.0980 -0.7074
 9863SOL    HW231136   1.395   4.699   4.635  1.1110  1.6035 -0.6952
 9864SOL     OW31137   1.177   3.213   0.420  0.5468  0.5740 -0.0949
 9864SOL    HW131138   1.263   3.211   0.462  0.5628  2.2160  0.0151
 9864SOL    HW231139   1.121   3.260   0.482 -0.8836 -1.8075  0.5596
 9865SOL     OW31140   2.333   0.175   6.734 -0.3083 -0.7172 -0.0850
 9865SOL    HW131141   2.248   0.167   6.776 -0.6893 -0.9008 -0.8653
 9865SOL    HW231142   2.384   0.101   6.767 -0.0547  0.0266  1.2502
 9866SOL     OW31143   3.197   0.986   2.311 -0.0861  0.1949  0.0884
 9866SOL    HW131144   3.178   0.952   2.224 -0.4159 -0.5752  0.4566
 9866SOL    HW231145   3.246   1.067   2.295 -0.7928  0.4501 -0.8157
 9867SOL     OW31146   4.992   2.947   1.441  0.3469  0.0553  0.3180
 9867SOL    HW131147   4.909   2.976   1.479  0.0813  0.2900 -0.4267
 9867SOL    HW231148   5.004   3.003   1.365  0.5029 -0.9004 -0.3738
 9868SOL     OW31149   4.147   2.268   0.932 -0.2100 -0.1786 -1.0089
 9868SOL    HW131150   4.169   2.267   0.839 -0.0419 -1.5145 -0.9673
 9868SOL    HW231151   4.093   2.190   0.945  0.2606 -0.3257  0.1340
 9869SOL     OW31152   1.592   6.170   5.173 -0.1756 -0.2735  0.2230
 9869SOL    HW131153   1.542   6.163   5.091 -1.3535 -0.7644  0.9490
 9869SOL    HW231154   1.527   6.154   5.241  0.4715  1.6261  1.3376
 9870SOL     OW31155   2.286   3.743   4.810  0.3459 -0.3248 -0.2757
 9870SOL    HW131156   2.326   3.659   4.833  2.4612  0.3320 -1.3382
 9870SOL    HW231157   2.263   3.781   4.895  5.2847  0.7722  0.9145
 9871SOL     OW31158   4.894   4.180   0.713 -0.2096 -0.1785 -0.4243
 9871SOL    HW131159   4.867   4.222   0.632 -0.3191 -2.2893 -1.5535
 9871SOL    HW231160   4.956   4.113   0.686 -1.3124 -1.8962  1.0366
 9872SOL     OW31161   5.851   1.679   0.817  0.5179 -0.1823 -0.1790
 9872SOL    HW131162   5.879   1.701   0.728 -0.4266  2.2180  0.0192
 9872SOL    HW231163   5.932   1.673   0.867  1.0210 -0.8117 -1.0552
 9873SOL     OW31164   5.778   1.775   4.158 -0.3410  0.4965  0.1665
 9873SOL    HW131165   5.871   1.757   4.142  0.3608  1.6763  2.3868
 9873SOL    HW231166   5.739   1.688   4.172  0.8637  0.0612  1.0712
 9874SOL     OW31167   6.166   5.346   1.761 -0.0662  0.2189  0.3637
 9874SOL    HW131168   6.224   5.271   1.768  0.8466  0.8098 -0.5855
 9874SOL    HW231169   6.106   5.323   1.690  0.3617  0.4700 -0.0854
 9875SOL     OW31170   6.515   3.840   1.259  0.3848  0.6205  0.6587
 9875SOL    HW131171   6.570   3.795   1.194 -0.9717  1.0282 -0.8413
 9875SOL    HW231172   6.525   3.787   1.339  0.3097 -1.2790 -0.5124
 9876SOL     OW31173   4.707   3.431   5.669 -0.6230  0.0899 -0.2092
 9876SOL    HW131174   4.662   3.483   5.602 -0.0989 -0.6042 -1.1112
 9876SOL    HW231175   4.653   3.352   5.678 -0.0161 -0.4038 -0.7597
 9877SOL     OW31176   0.121   6.438   3.565 -0.2882  0.0980 -0.6957
 9877SOL    HW131177   0.196   6.482   3.604  0.3216 -2.2075  0.9609
 9877SOL    HW231178   0.144   6.427   3.473 -0.1007  2.3154 -0.9774
 9878SOL     OW31179   6.012   0.881   3.936 -0.3118  0.0027 -0.3666
 9878SOL    HW131180   5.922   0.849   3.946 -0.5101  0.9555  1.4044
 9878SOL    HW231181   6.058   0.843   4.011  0.4797  0.4421 -0.6247
 9879SOL     OW31182   0.284   2.657   4.577  0.1042  0.2731 -0.4771
 9879SOL    HW131183   0.328   2.735   4.611  1.5168 -0.5003 -0.4814
 9879SOL    HW231184   0.353   2.591   4.569 -0.8094 -0.5889 -1.7071
 9880SOL     OW31185   6.573   6.333   1.654 -0.0068 -0.1277  0.0804
 9880SOL    HW131186   6.565   6.357   1.746  0.4381  1.4217 -0.2501
 9880SOL    HW231187   6.638   6.263   1.653  1.6274  1.3093  0.7755
 9881SOL     OW31188   6.383   3.095   2.186 -0.2047  0.4111  0.0537
 9881SOL    HW131189   6.466   3.110   2.233  0.2813 -2.4382  0.2600
 9881SOL    HW231190   6.409   3.077   2.096 -0.6749  0.3936 -0.0803
 9882SOL     OW31191   6.223   3.204   0.380 -0.3190 -0.1118 -1.0302
 9882SOL    HW131192   6.137   3.167   0.361 -0.7293  1.5563 -2.6770
 9882SOL    HW231193   6.284   3.132   0.364 -1.3601 -1.3932  0.3842
 9883SOL     OW31194   1.347   1.312   2.143 -0.1325 -0.2772  0.0098
 9883SOL    HW131195   1.431   1.348   2.112 -1.0956 -0.3268 -2.9352
 9883SOL    HW231196   1.312   1.381   2.199  0.7649  0.8525 -0.7388
 9884SOL     OW31197   0.329   0.395   4.617  0.0863 -0.4358 -0.4717
 9884SOL    HW131198   0.268   0.323   4.631 -0.5601 -0.0026 -0.9863
 9884SOL    HW231199   0.407   0.371   4.666 -0.0590 -1.5656 -0.7746
 9885SOL     OW31200   2.581   0.934   5.476 -0.4855 -0.2236 -0.1071
 9885SOL    HW131201   2.500   0.883   5.475  0.0579 -1.1796  1.4036
 9885SOL    HW231202   2.565   1.005   5.539 -1.0078  1.1604 -1.7148
 9886SOL     OW31203   6.475   0.575   1.006 -0.0908 -0.1208 -0.2365
 9886SOL    HW131204   6.567   0.601   1.015 -0.5235  0.7287  2.5638
 9886SOL    HW231205   6.436   0.643   0.952  0.4219  0.8882  0.6361
 9887SOL     OW31206   1.118   5.124   5.711 -0.2265 -0.7816 -0.3276
 9887SOL    HW131207   1.212   5.144   5.706 -0.0133 -1.2581  1.0670
 9887SOL    HW231208   1.075   5.204   5.684  0.6032  0.8839  2.7362
 9888SOL     OW31209   4.079   5.539   0.936  0.4102 -0.4405 -0.2067
 9888SOL    HW131210   4.175   5.542   0.934  0.4235  2.4645  0.4684
 9888SOL    HW231211   4.056   5.581   1.019 -1.4572  0.9786 -1.3552
 9889SOL     OW31212   2.997   6.015   4.479  0.5043  0.0322 -0.6013
 9889SOL    HW131213   3.090   6.026   4.461  0.9485  1.6083  2.0546
 9889SOL    HW231214   2.956   6.094   4.444  0.3288 -0.1831 -0.8796
 9890SOL     OW31215   0.572   3.201   1.275 -0.6016 -0.1940 -0.2807
 9890SOL    HW131216   0.512   3.270   1.247 -0.2697 -0.0696 -0.6998
 9890SOL    HW231217   0.611   3.233   1.356 -1.7157 -0.6370  0.4392
 9891SOL     OW31218   5.283   6.364   5.055  0.4354  0.1352 -0.4137
 9891SOL    HW131219   5.258   6.323   4.972  0.4552  0.5098 -0.6105
 9891SOL    HW231220   5.379   6.372   5.049  0.4896 -0.2722 -0.1466
 9892SOL     OW31221   1.360   3.596   3.260 -0.1354 -0.2114  0.8709
 9892SOL    HW131222   1.319   3.554   3.335  0.6455 -0.3247  1.2415
 9892SOL    HW231223   1.308   3.675   3.245 -0.3016 -0.1927  1.5303
 9893SOL     OW31224   2.219   4.865   6.342  0.4350 -0.4947  0.4675
 9893SOL    HW131225   2.194   4.792   6.286  0.4698 -0.1104 -0.0648
 9893SOL    HW231226   2.149   4.872   6.406 -1.4655  1.2415 -1.6309
 9894SOL     OW31227   0.422   0.526   2.308  0.2003 -0.4463 -0.1408
 9894SOL    HW131228   0.435   0.602   2.365 -0.0091 -1.0808  0.7838
 9894SOL    HW231229   0.351   0.478   2.350  2.9855 -3.3439  1.6968
 9895SOL     OW31230   6.605   2.272   0.729  0.8311  0.3416  0.2730
 9895SOL    HW131231   6.616   2.363   0.758  1.5680 -0.5361  2.9668
 9895SOL    HW231232   6.650   2.220   0.795  0.3722 -2.0283 -1.1791
 9896SOL     OW31233   0.594   4.312   6.032 -0.2339 -0.1940 -0.1927
 9896SOL    HW131234   0.518   4.346   5.984  0.0168  0.4337 -0.1613
 9896SOL    HW231235   0.615   4.382   6.094 -0.0001 -0.6209  0.2139
 9897SOL     OW31236   4.665   3.976   0.758  0.6788 -0.2410  0.4867
 9897SOL    HW131237   4.664   3.932   0.843 -0.2752  0.2420  0.7483
 9897SOL    HW231238   4.729   4.047   0.769  2.4965 -1.7262 -0.0570
 9898SOL     OW31239   1.063   3.212   1.065  0.1942  0.9830 -0.3565
 9898SOL    HW131240   1.094   3.275   1.000  1.9958 -0.3410 -0.8856
 9898SOL    HW231241   1.012   3.148   1.015  0.4239  0.7157 -0.2571
 9899SOL     OW31242   5.532   0.069   3.319  0.1195 -0.3243  0.8623
 9899SOL    HW131243   5.528  -0.018   3.277  0.3776 -0.3626  0.9139
 9899SOL    HW231244   5.441   0.094   3.330  0.0337 -0.8157  1.3178
 9900SOL     OW31245   3.295   0.092   4.618  0.4816  0.1607 -0.3715
 9900SOL    HW131246   3.224   0.040   4.579 -0.4506 -0.7164  2.3132
 9900SOL    HW231247   3.374   0.040   4.600  0.0923 -0.2253 -1.0320
 9901SOL     OW31248   2.514   3.888   0.813  0.2456  0.3062 -0.1062
 9901SOL    HW131249   2.598   3.869   0.771  0.9004  0.1561  1.2099
 9901SOL    HW231250   2.452   3.828   0.771 -0.1072  2.8341 -3.7035
 9902SOL     OW31251   3.016   0.761   3.393  0.1203 -0.7219  0.2179
 9902SOL    HW131252   2.978   0.848   3.379  0.6680 -0.5843 -0.4718
 9902SOL    HW231253   2.948   0.713   3.438 -0.6625 -0.2999 -0.4744
 9903SOL     OW31254   4.018   5.589   4.779  0.4762 -0.8415 -0.0324
 9903SOL    HW131255   4.015   5.671   4.730 -0.2989 -0.7559  0.1490
 9903SOL    HW231256   4.008   5.521   4.712  0.0806 -0.7490 -0.0671
 9904SOL     OW31257   5.328   0.964   2.996 -0.1448 -0.4321 -0.2769
 9904SOL    HW131258   5.312   0.869   3.000 -1.2635 -0.3049 -1.2408
 9904SOL    HW231259   5.356   0.979   2.906 -0.1277  0.1780 -0.1700
 9905SOL     OW31260   5.462   0.598   6.432 -0.1763 -0.4125  0.8781
 9905SOL    HW131261   5.497   0.624   6.517  1.4522  0.6202 -0.0674
 9905SOL    HW231262   5.473   0.675   6.377  0.4571 -1.6359 -0.7597
 9906SOL     OW31263   0.366   5.438   6.674 -0.6609  0.2136 -0.1584
 9906SOL    HW131264   0.424   5.401   6.608  0.5639  0.8067  0.5611
 9906SOL    HW231265   0.373   5.532   6.663 -1.0067  0.3022  0.3388
 9907SOL     OW31266   4.652   6.022   5.573 -0.2956 -0.0752  0.3113
 9907SOL    HW131267   4.675   6.061   5.657 -0.9698  0.1873  0.3829
 9907SOL    HW231268   4.678   5.930   5.581 -1.4099 -0.3409  1.2546
 9908SOL     OW31269   0.517   4.018   1.886  0.8153  0.0691 -0.0365
 9908SOL    HW131270   0.518   3.961   1.963  0.1251  0.9596  0.6606
 9908SOL    HW231271   0.556   4.100   1.917  2.4112 -0.2016 -1.1987
 9909SOL     OW31272   4.917   5.832   3.758 -0.4069 -0.2431  0.1473
 9909SOL    HW131273   4.940   5.923   3.779  1.0411 -0.2350 -1.2835
 9909SOL    HW231274   4.960   5.780   3.826 -0.1379  0.0685  0.2175
 9910SOL     OW31275   5.926   2.840   1.902 -0.6438 -0.2398  0.4728
 9910SOL    HW131276   6.004   2.784   1.904 -0.0697  0.5008 -0.2705
 9910SOL    HW231277   5.858   2.788   1.944 -0.2155 -1.6254 -0.4912
 9911SOL     OW31278   2.645   3.591   6.225 -0.2130  0.3445  0.0873
 9911SOL    HW131279   2.715   3.526   6.216 -1.2438 -0.7672 -0.1524
 9911SOL    HW231280   2.576   3.545   6.272 -1.6838  0.6593 -1.6566
 9912SOL     OW31281   0.138   3.682   2.843 -0.4985 -0.3821 -0.4182
 9912SOL    HW131282   0.140   3.688   2.939 -0.2528 -1.1127 -0.3703
 9912SOL    HW231283   0.220   3.722   2.814  0.4349 -2.0244 -0.1911
 9913SOL     OW31284   6.489   3.567   1.979  0.0936 -0.2017  0.1006
 9913SOL    HW131285   6.409   3.516   1.994  0.2318 -0.7878 -1.0320
 9913SOL    HW231286   6.555   3.526   2.034  0.2027 -1.2906 -0.7979
 9914SOL     OW31287   6.158   1.914   6.058  0.1641 -0.0488  0.5757
 9914SOL    HW131288   6.098   1.840   6.052  0.2661 -0.2305  1.6896
 9914SOL    HW231289   6.179   1.934   5.967  0.6483 -1.8121  0.2529
 9915SOL     OW31290   3.298   3.060   0.913  0.2756  0.3171  0.0390
 9915SOL    HW131291   3.232   3.082   0.847 -0.1242  0.3193  0.4289
 9915SOL    HW231292   3.362   3.130   0.908 -0.4116  0.9992  0.5193
 9916SOL     OW31293   1.896   6.409   2.101 -0.1828 -0.3009  0.0091
 9916SOL    HW131294   1.873   6.500   2.120  1.1405  0.1871 -0.5898
 9916SOL    HW231295   1.812   6.364   2.090 -0.8517  0.8237  0.4261
 9917SOL     OW31296   2.350   5.371   4.873  0.4107 -0.3545 -0.3609
 9917SOL    HW131297   2.339   5.407   4.961  2.3162  0.3484 -0.3684
 9917SOL    HW231298   2.423   5.419   4.836  1.0192 -2.0920 -1.5514
 9918SOL     OW31299   1.522   4.739   1.013 -0.2608 -0.4226  0.2486
 9918SOL    HW131300   1.464   4.663   1.009 -0.1813 -0.4345 -2.6619
 9918SOL    HW231301   1.464   4.813   1.033 -0.9420 -0.7572 -0.4404
 9919SOL     OW31302   4.006   5.441   2.523 -0.1077  0.1708  0.2291
 9919SOL    HW131303   3.981   5.412   2.436 -0.4626 -0.1961  0.4448
 9919SOL    HW231304   3.934   5.498   2.551  0.6025  1.2976 -0.2028
 9920SOL     OW31305   3.063   6.054   5.000 -0.2335 -0.1678 -0.2928
 9920SOL    HW131306   3.094   5.976   5.047 -1.1332 -0.7579 -0.6482
 9920SOL    HW231307   3.073   6.032   4.908 -1.1761 -0.1574 -0.4062
 9921SOL     OW31308   0.315   4.760   5.276  0.2872 -0.0307 -0.2035
 9921SOL    HW131309   0.318   4.854   5.294  1.2940  0.3825 -2.2884
 9921SOL    HW231310   0.391   4.725   5.324 -1.0680 -0.1357  2.0256
 9922SOL     OW31311   2.730   2.526   1.519 -0.7484 -0.2773  0.8904
 9922SOL    HW131312   2.665   2.458   1.537 -0.7896 -0.7550 -0.8635
 9922SOL    HW231313   2.814   2.480   1.519 -0.6271 -0.0568  1.1069
 9923SOL     OW31314   4.221   5.244   6.741  0.1620 -0.7623 -0.2451
 9923SOL    HW131315   4.250   5.301   6.813 -2.0515 -1.1157  1.0054
 9923SOL    HW231316   4.201   5.304   6.669 -1.3925  0.0314  0.7907
 9924SOL     OW31317   3.332   0.405   0.982 -0.4035  0.7742 -0.0594
 9924SOL    HW131318   3.343   0.455   1.063 -0.2357  0.0830  0.3463
 9924SOL    HW231319   3.268   0.338   1.003  0.5903 -0.2173 -0.1198
 9925SOL     OW31320   0.817   3.833   4.432  0.0187  0.2545  0.0425
 9925SOL    HW131321   0.791   3.920   4.462 -0.3662  0.4225 -0.7468
 9925SOL    HW231322   0.744   3.777   4.456  0.2607  0.1487  0.5387
 9926SOL     OW31323   3.055   3.761   6.546 -0.1124 -0.4795 -0.0964
 9926SOL    HW131324   3.074   3.751   6.453 -0.2792 -1.2804 -0.0560
 9926SOL    HW231325   3.109   3.694   6.589  1.0205  0.7771  0.5297
 9927SOL     OW31326   1.128   2.054   4.682  0.3608  0.1470 -0.4607
 9927SOL    HW131327   1.033   2.060   4.681  0.4485  2.1786 -0.8848
 9927SOL    HW231328   1.158   2.142   4.659  2.3504 -1.2538 -3.9098
 9928SOL     OW31329   2.441   3.361   5.541 -0.3779  0.0405 -1.1024
 9928SOL    HW131330   2.375   3.388   5.605 -1.0511 -0.6808 -1.4768
 9928SOL    HW231331   2.427   3.267   5.530 -0.2147  0.1386 -2.2468
 9929SOL     OW31332   1.467   5.163   2.327 -0.5185  0.1962 -0.1203
 9929SOL    HW131333   1.543   5.221   2.316 -1.4524  1.3907 -0.5609
 9929SOL    HW231334   1.480   5.121   2.412  0.3021  0.9076  0.1178
 9930SOL     OW31335   0.123   5.558   3.807 -0.7751 -0.3992  0.0699
 9930SOL    HW131336   0.111   5.508   3.726 -0.5499  0.8680 -0.7713
 9930SOL    HW231337   0.037   5.595   3.825 -1.3003 -2.1137  1.4538
 9931SOL     OW31338   3.744   1.454   2.635  0.3232 -0.4302 -0.1309
 9931SOL    HW131339   3.825   1.407   2.614 -0.6472 -2.4497  0.4237
 9931SOL    HW231340   3.769   1.514   2.705  1.2396 -1.4501  0.4526
 9932SOL     OW31341   0.478   5.175   2.369  0.1547 -0.7548  0.0760
 9932SOL    HW131342   0.469   5.160   2.463  0.1841  0.5641  0.3083
 9932SOL    HW231343   0.536   5.250   2.362 -0.2778 -0.5022 -0.9791
 9933SOL     OW31344   4.241   3.356   4.179  0.1152 -0.4116 -0.4817
 9933SOL    HW131345   4.324   3.345   4.131  0.5692  1.3915 -0.1954
 9933SOL    HW231346   4.225   3.271   4.219  1.6118 -0.9244 -0.9008
 9934SOL     OW31347   2.899   4.633   2.078  0.3255  0.4884 -0.4208
 9934SOL    HW131348   2.892   4.591   2.164  2.2508 -0.5910 -0.7383
 9934SOL    HW231349   2.900   4.727   2.096  1.5341  0.2526  0.8192
 9935SOL     OW31350   3.099   0.209   4.410 -0.3648  0.2812  0.8665
 9935SOL    HW131351   3.023   0.266   4.424 -1.7692 -0.4543 -2.7799
 9935SOL    HW231352   3.073   0.124   4.444 -0.3747  0.5034  1.4215
 9936NA      NA31353   3.655   3.107   1.517  0.7525 -0.0773 -0.1381
 9937NA      NA31354   3.647   5.109   1.901  0.5337 -0.0653 -0.1536
 9938NA      NA31355   1.962   0.476   6.637 -0.7070 -0.2579  0.2981
 9939NA      NA31356   0.923   4.187   6.738 -0.0974  0.0246 -0.0748
 9940NA      NA31357   5.446   0.720   3.540 -0.2631  0.0411 -0.5870
 9941NA      NA31358   4.538   1.139   0.292  0.3464  0.4284 -0.5608
 9942NA      NA31359   2.174   3.297   2.008  0.0402 -0.1658 -0.3339
 9943NA      NA31360   0.803   2.921   3.124 -0.2823 -0.0239  0.3025
 9944NA      NA31361   6.137   5.445   4.298 -0.2171  0.1840  0.6597
 9945NA      NA31362   6.504   3.920   6.190 -0.1591  0.1463  0.6266
 9946NA      NA31363   5.145   4.555   6.215  0.2922 -0.3768  0.0859
 9947NA      NA31364   2.697   2.954   3.325 -0.2109 -0.1735 -0.0132
 9948NA      NA31365   6.730   4.637   5.748  0.5030 -0.0012 -0.4565
 9949NA      NA31366   4.787   1.790   0.140  0.5461 -0.3230  0.0003
 9950NA      NA31367   6.213   0.870   5.414  0.0429  0.3314 -0.2181
 9951NA      NA31368   0.057   3.556   6.338 -0.6670 -0.4872 -0.5074
 9952NA      NA31369   0.993   5.596   6.251 -0.5630  0.2584 -0.7239
 9953NA      NA31370   1.534   6.618   2.844  0.0846 -0.2531 -0.3755
 9954NA      NA31371   1.316   5.208   0.370  0.0047  0.1975 -0.0034
 9955NA      NA31372   1.059   4.655   1.941 -0.1153  0.1687 -0.4736
 9956NA      NA31373   1.683   5.544   3.560  0.1464 -0.2588  0.1357
 9957NA      NA31374   0.566   6.356   6.131 -0.2816 -0.1314  0.0678
 9958NA      NA31375   0.079   1.893   6.644  0.0297 -0.2413  0.1994
 9959NA      NA31376   5.691   2.466   1.961  0.7375  0.6620  0.3652
 9960NA      NA31377   2.221   3.102   4.216 -0.1891  0.0303  0.4156
 9961NA      NA31378   4.026   5.283   2.904  0.0951 -0.3881  0.0002
 9962NA      NA31379   4.544   0.492   1.950 -0.0274 -0.3388  0.0011
 9963NA      NA31380   0.685   0.538   0.252  0.3207 -0.2327  0.0762
 9964NA      NA31381   2.485   5.341   3.591  0.2623  0.1589 -0.4992
 9965CL      CL31382   1.962   0.074   0.360  0.7807 -0.0937 -0.1559
 9966CL      CL31383   3.171   5.990   1.801 -0.1197  0.1996  0.3448
 9967CL      CL31384   0.364   4.401   2.711  0.0410  0.1102  0.0538
 9968CL      CL31385   2.038   0.032   5.795  0.4039  0.0097 -0.0258
 9969CL      CL31386   1.905   4.935   5.679 -0.4627  0.1873 -0.1941
 9970CL      CL31387   1.195   0.332   3.511  0.3217  0.2467  0.2661
 9971CL      CL31388   2.033   1.067   4.822  0.0998 -0.0120 -0.0665
 9972CL      CL31389   2.188   6.154   2.381  0.1555  0.0996 -0.0077
 9973CL      CL31390   5.071   3.514   4.161 -0.1710 -0.0331 -0.2057
 9974CL      CL31391   5.056   0.110   2.250  0.3932  0.2824 -0.1409
 9975CL      CL31392   0.397   2.919   4.687  0.4811 -0.5259 -0.8299
 9976CL      CL31393   0.694   6.154   6.203 -0.2496  0.1081 -0.1755
 9977CL      CL31394   4.394   2.135   4.186  0.1049  0.1632 -0.2541
 9978CL      CL31395   4.435   0.157   3.498 -0.1241  0.1491 -0.2055
 9979CL      CL31396   1.559   3.523   4.039  0.2577 -0.5320  0.0512
 9980CL      CL31397   6.705   4.106   6.195  0.0891  0.1805  0.1553
 9981CL      CL31398   0.614   6.437   5.904 -0.4988 -0.2009 -0.1083
 9982CL      CL31399   4.435   4.590   3.034 -0.3428  0.0107  0.2283
 9983CL      CL31400   5.516   4.698   4.490 -0.2326  0.1177  0.0074
 9984CL      CL31401   2.059   6.705   1.783  0.5696 -0.3370 -0.4601
 9985CL      CL31402   0.754   0.415   0.436  0.2918  0.2606  0.1249
 9986CL      CL31403   3.070   5.706   6.491 -0.0919 -0.3739  0.0469
 9987CL      CL31404   3.299   5.761   2.171 -0.3220  0.3382  0.1087
 9988CL      CL31405   2.370   6.683   5.503  0.3491 -0.1853  0.0515
 9989CL      CL31406   5.776   0.643   5.457 -0.0648  0.3432  0.7262
 9990CL      CL31407   0.323   5.196   4.707 -0.3275 -0.1305 -0.2946
 9991CL      CL31408   6.695   3.426   6.218 -0.0084  0.0447  0.1009
 9992CL      CL31409   4.495   1.057   0.519  0.1372 -0.3053 -0.3106
 9993CL      CL31410   2.077   5.913   3.412  0.1372 -0.3020  0.0377
 9994CL      CL31411   0.168   4.609   5.731 -0.1340 -0.2534  0.1458
 9995CL      CL31412   6.694   6.520   6.759  0.4316  0.0455  0.0991
 9996CL      CL31413   1.082   4.058   4.688 -0.3171 -0.4044 -0.3155
 9997CL      CL31414   1.275   4.891   6.731  0.0305  0.4047 -0.2255
 9998CL      CL31415   2.565   1.809   0.335  0.2870 -0.0497  0.4288
 9999CL      CL31416   3.575   4.625   6.620  0.0417  0.0199  0.3812
10000CL      CL31417   2.543   5.839   5.595 -0.0653  0.1345  0.1729
10001CL      CL31418   1.346   6.677   4.837  0.2230  0.2837  0.3495
10002CL      CL31419   0.857   0.736   1.671 -0.1391  0.1729  0.3523
10003CL      CL31420   1.743   5.229   6.092 -0.3752  0.1669 -0.0783
10004CL      CL31421   6.307   0.369   5.387 -0.3844 -0.2078  0.2203
10005CL      CL31422   0.734   2.332   2.440 -0.5811 -0.1808  0.2210
10006CL      CL31423   2.352   4.015   3.930 -0.2475  0.1938  0.1542
10007CL      CL31424   0.211   0.819   3.712  0.3038  0.3504 -0.3687
10008CL      CL31425   1.018   6.192   3.547  0.0764  0.2752  0.0435
10009CL      CL31426   3.449   0.969   0.977  0.3508 -0.2029 -0.4486
10010CL      CL31427   0.400   6.518   2.856 -0.1213 -0.4500  0.1899
10011CL      CL31428   1.425   6.650   3.060 -0.0943 -0.2677 -0.3245
10012CL      CL31429   0.252   0.068   5.377 -0.1459 -0.3635  0.0008
10013CL      CL31430   2.317   5.453   5.163 -0.2033  0.2524  0.0813
10014CL      CL31431   1.649   0.509   4.752 -0.2588 -0.0574 -0.1026
10015CL      CL31432   5.277   6.011   3.368  0.1568 -0.1957  0.1398
10016CL      CL31433   0.705   5.056   1.874  0.1090  0.2447  0.0072
10017CL      CL31434   1.012   6.137   0.058 -0.3139 -0.2800 -0.6936
10018CL      CL31435   2.788   3.875   4.060  0.1138  0.0882  0.2869
10019CL      CL31436   3.591   3.061   1.746  0.0686  0.3530  0.1281
10020CL      CL31437   1.380   6.178   5.731  0.1463  0.1466  0.1526
10021CL      CL31438   3.586   0.356   5.498 -0.1931 -0.0234  0.2881
10022CL      CL31439   3.063   2.272   5.321 -0.0050  0.1281 -0.2607
10023CL      CL31440   6.394   0.364   1.508  0.3093  0.3673  0.0121
10024CL      CL31441   1.804   6.550   3.981  0.2018 -0.0272  0.6170
10025CL      CL31442   0.824   5.765   4.232 -0.0238  0.1713  0.0697
10026CL      CL31443   3.334   0.011   5.633 -0.2458 -0.0754  0.2617
10027CL      CL31444   6.326   5.771   5.445  0.1623 -0.2220  0.0995
10028CL      CL31445   2.100   0.537   4.766  0.1413  0.2382  0.4863
10029CL      CL31446   2.556   0.702   4.018  0.5590 -0.4942 -0.5758
10030CL      CL31447   1.399   6.007   4.965  0.0578  0.0062 -0.0422
10031CL      CL31448   2.530   3.102   3.401  0.1933 -0.1114 -0.1088
10032CL      CL31449   1.436   3.975   6.410  0.1332 -0.0715  0.4728
10033CL      CL31450   2.540   2.673   2.951 -0.4228  0.3920 -0.3283
10034CL      CL31451   0.733   5.405   5.839 -0.3310  0.0874 -0.0363
10035CL      CL31452   3.132   6.511   4.462 -0.0197 -0.2254  0.0909
10036CL      CL31453   2.389   4.039   5.743 -0.2347  0.4061 -0.0062
10037CL      CL31454   4.218   2.087   5.936  0.3360  0.4022 -0.4994
10038CL      CL31455   1.893   1.573   6.037 -0.2618  0.1238  0.0479
10039CL      CL31456   4.736   4.333   0.435  0.3325 -0.2209 -0.0788
10040CL      CL31457   0.622   1.066   6.429 -0.2945  0.3648 -0.3295
10041CL      CL31458   1.468   0.906   6.027 -0.1920  0.0703 -0.2325
10042CL      CL31459   1.904   5.175   3.374  0.2192 -0.0362  0.5431
10043CL      CL31460   1.362   5.883   3.671  0.1992 -0.0888  0.5915
10044CL      CL31461   0.972   2.573   1.181  0.2185 -0.3270 -0.0467
10045CL      CL31462   4.512   5.661   6.549  0.3281  0.2637 -0.0910
10046CL      CL31463   0.026   5.098   3.619  0.1101  0.1634  0.0910
10047CL      CL31464   3.220   2.990   5.929  0.0762  0.0266 -0.1630
10048CL      CL31465   3.224   5.928   3.853 -0.3380 -0.3790 -0.0018
10049CL      CL31466   1.965   0.838   6.035  0.3795 -0.2314 -0.1383
10050CL      CL31467   1.927   2.939   5.573 -0.4601  0.3027 -0.0169
10051CL      CL31468   6.174   5.943   1.028 -0.5357 -0.1235  0.2112
10052CL      CL31469   2.366   6.408   6.674 -0.2342 -0.1046 -0.0931
10053CL      CL31470   3.253   6.720   3.153  0.2929 -0.2884 -0.0061
10054CL      CL31471   4.784   1.488   1.753 -0.5580  0.2504 -0.5475
10055CL      CL31472   4.998   1.401   0.120 -0.3527 -0.0041 -0.0809
   6.80323   6.80323   6.80323
