;
;   File g4dpncore_petim.itp  was generated
;   By user: sairam (1000)
;   On host: sairam
;   At date: Tue. January  2 15:31:30 2025
;
;   This is a standalone topology file
;
;   Created by:
;   ParmEd:       amb2gro_top_gro.py, VERSION 3.4.1
;   Executable:   amb2gro_top_gro.py
;   Library dir:  /usr/local/gromacs/share/gromacs/top
;   Command line:
;     ./amb2gro_top_gro.py -p g4dpncore_petim.prmtop -c g4dpncore_petim.inpcrd -t g4dpncore_petim.itp -g g4dpncore_petim.gro -b g4dpncore_petim.pdb
;

;[ defaults ]
;; nbfunc        comb-rule       gen-pairs       fudgeLJ fudgeQQ
;1               2               yes             0.5          0.83333333  
;
;[ atomtypes ]
;; name    at.num    mass    charge ptype  sigma      epsilon
;n4             7  14.010000  0.00000000  A     0.32499985        0.71128
;c3             6  12.010000  0.00000000  A     0.33996695      0.4577296
;hx             1   1.008000  0.00000000  A     0.19599772      0.0656888
;hc             1   1.008000  0.00000000  A     0.26495328      0.0656888
;h1             1   1.008000  0.00000000  A      0.2471353      0.0656888
;hn             1   1.008000  0.00000000  A     0.10690785      0.0656888
;os             8  16.000000  0.00000000  A     0.30000123        0.71128


[ moleculetype ]
; Name            nrexcl
g4dpncore_petim          3

[ atoms ]
;   nr       type  resnr residue  atom   cgnr    charge       mass  typeB    chargeB      massB
; residue    1 aaa rtp aaa q 1.0
    1         n4      1    aaa     N1      1 -0.24795800  14.010000   ; qtot -0.247958
    2         c3      1    aaa     C1      2 0.15727100  12.010000   ; qtot -0.090687
    3         hx      1    aaa     H1      3 0.05072400   1.008000   ; qtot -0.039963
    4         hx      1    aaa     H2      4 0.05072400   1.008000   ; qtot 0.010761
    5         c3      1    aaa     C2      5 0.15727100  12.010000   ; qtot 0.168032
    6         hx      1    aaa     H3      6 0.05072400   1.008000   ; qtot 0.218756
    7         hx      1    aaa     H4      7 0.05072400   1.008000   ; qtot 0.269480
    8         c3      1    aaa     C3      8 0.15727100  12.010000   ; qtot 0.426751
    9         hx      1    aaa     H5      9 0.05072400   1.008000   ; qtot 0.477475
   10         hx      1    aaa     H6     10 0.05072400   1.008000   ; qtot 0.528199
   11         c3      1    aaa     C4     11 0.05437700  12.010000   ; qtot 0.582576
   12         hc      1    aaa     H7     12 0.07708700   1.008000   ; qtot 0.659663
   13         hc      1    aaa     H8     13 0.07708700   1.008000   ; qtot 0.736750
   14         c3      1    aaa     C5     14 0.05437700  12.010000   ; qtot 0.791127
   15         hc      1    aaa     H9     15 0.07708700   1.008000   ; qtot 0.868214
   16         hc      1    aaa    H10     16 0.07708700   1.008000   ; qtot 0.945301
   17         c3      1    aaa     C6     17 0.05437700  12.010000   ; qtot 0.999678
   18         hc      1    aaa    H11     18 0.07708700   1.008000   ; qtot 1.076765
   19         hc      1    aaa    H12     19 0.07708700   1.008000   ; qtot 1.153852
   20         c3      1    aaa     C7     20 -0.74569400  12.010000   ; qtot 0.408158
   21         h1      1    aaa    H13     21 0.30837900   1.008000   ; qtot 0.716537
   22         h1      1    aaa    H14     22 0.30837900   1.008000   ; qtot 1.024916
   23         c3      1    aaa     C8     23 -0.74569400  12.010000   ; qtot 0.279222
   24         h1      1    aaa    H15     24 0.30837900   1.008000   ; qtot 0.587601
   25         h1      1    aaa    H16     25 0.30837900   1.008000   ; qtot 0.895980
   26         c3      1    aaa     C9     26 -0.74569400  12.010000   ; qtot 0.150286
   27         h1      1    aaa    H17     27 0.30837900   1.008000   ; qtot 0.458665
   28         h1      1    aaa    H18     28 0.30837900   1.008000   ; qtot 0.767044
   29         hn      1    aaa    H19     29 0.23295100   1.008000   ; qtot 0.999995
; residue    2 bbb rtp bbb q 1.0
   30         n4      2    bbb     N1     30 0.03726400  14.010000   ; qtot 1.037259
   31         c3      2    bbb     C1     31 -0.07020100  12.010000   ; qtot 0.967058
   32         hx      2    bbb     H1     32 0.12219000   1.008000   ; qtot 1.089248
   33         hx      2    bbb     H2     33 0.12219000   1.008000   ; qtot 1.211438
   34         c3      2    bbb     C2     34 -0.07020100  12.010000   ; qtot 1.141237
   35         hx      2    bbb     H3     35 0.12219000   1.008000   ; qtot 1.263427
   36         hx      2    bbb     H4     36 0.12219000   1.008000   ; qtot 1.385617
   37         c3      2    bbb     C3     37 -0.39007700  12.010000   ; qtot 0.995540
   38         hx      2    bbb     H5     38 0.14940300   1.008000   ; qtot 1.144943
   39         hx      2    bbb     H6     39 0.14940300   1.008000   ; qtot 1.294346
   40         c3      2    bbb     C4     40 0.18057300  12.010000   ; qtot 1.474919
   41         hc      2    bbb     H7     41 0.01788900   1.008000   ; qtot 1.492808
   42         hc      2    bbb     H8     42 0.01788900   1.008000   ; qtot 1.510697
   43         c3      2    bbb     C5     43 -0.11337700  12.010000   ; qtot 1.397320
   44         hc      2    bbb     H9     44 0.09515400   1.008000   ; qtot 1.492474
   45         hc      2    bbb    H10     45 0.09515400   1.008000   ; qtot 1.587628
   46         c3      2    bbb     C6     46 -0.11337700  12.010000   ; qtot 1.474251
   47         hc      2    bbb    H11     47 0.09515400   1.008000   ; qtot 1.569405
   48         hc      2    bbb    H12     48 0.09515400   1.008000   ; qtot 1.664559
   49         c3      2    bbb     C7     49 0.21842400  12.010000   ; qtot 1.882983
   50         h1      2    bbb    H13     50 0.04500300   1.008000   ; qtot 1.927986
   51         h1      2    bbb    H14     51 0.04500300   1.008000   ; qtot 1.972989
   52         c3      2    bbb     C8     52 -0.06455200  12.010000   ; qtot 1.908437
   53         h1      2    bbb    H15     53 0.13554100   1.008000   ; qtot 2.043978
   54         h1      2    bbb    H16     54 0.13554100   1.008000   ; qtot 2.179519
   55         c3      2    bbb     C9     55 -0.06455200  12.010000   ; qtot 2.114967
   56         h1      2    bbb    H17     56 0.13554100   1.008000   ; qtot 2.250508
   57         h1      2    bbb    H18     57 0.13554100   1.008000   ; qtot 2.386049
   58         os      2    bbb     O1     58 -0.62587700  16.000000   ; qtot 1.760172
   59         hn      2    bbb    H19     59 0.23982500   1.008000   ; qtot 1.999997
; residue    3 bbb rtp bbb q 1.0
   60         n4      3    bbb     N1     60 0.03726400  14.010000   ; qtot 2.037261
   61         c3      3    bbb     C1     61 -0.07020100  12.010000   ; qtot 1.967060
   62         hx      3    bbb     H1     62 0.12219000   1.008000   ; qtot 2.089250
   63         hx      3    bbb     H2     63 0.12219000   1.008000   ; qtot 2.211440
   64         c3      3    bbb     C2     64 -0.07020100  12.010000   ; qtot 2.141239
   65         hx      3    bbb     H3     65 0.12219000   1.008000   ; qtot 2.263429
   66         hx      3    bbb     H4     66 0.12219000   1.008000   ; qtot 2.385619
   67         c3      3    bbb     C3     67 -0.39007700  12.010000   ; qtot 1.995542
   68         hx      3    bbb     H5     68 0.14940300   1.008000   ; qtot 2.144945
   69         hx      3    bbb     H6     69 0.14940300   1.008000   ; qtot 2.294348
   70         c3      3    bbb     C4     70 0.18057300  12.010000   ; qtot 2.474921
   71         hc      3    bbb     H7     71 0.01788900   1.008000   ; qtot 2.492810
   72         hc      3    bbb     H8     72 0.01788900   1.008000   ; qtot 2.510699
   73         c3      3    bbb     C5     73 -0.11337700  12.010000   ; qtot 2.397322
   74         hc      3    bbb     H9     74 0.09515400   1.008000   ; qtot 2.492476
   75         hc      3    bbb    H10     75 0.09515400   1.008000   ; qtot 2.587630
   76         c3      3    bbb     C6     76 -0.11337700  12.010000   ; qtot 2.474253
   77         hc      3    bbb    H11     77 0.09515400   1.008000   ; qtot 2.569407
   78         hc      3    bbb    H12     78 0.09515400   1.008000   ; qtot 2.664561
   79         c3      3    bbb     C7     79 0.21842400  12.010000   ; qtot 2.882985
   80         h1      3    bbb    H13     80 0.04500300   1.008000   ; qtot 2.927988
   81         h1      3    bbb    H14     81 0.04500300   1.008000   ; qtot 2.972991
   82         c3      3    bbb     C8     82 -0.06455200  12.010000   ; qtot 2.908439
   83         h1      3    bbb    H15     83 0.13554100   1.008000   ; qtot 3.043980
   84         h1      3    bbb    H16     84 0.13554100   1.008000   ; qtot 3.179521
   85         c3      3    bbb     C9     85 -0.06455200  12.010000   ; qtot 3.114969
   86         h1      3    bbb    H17     86 0.13554100   1.008000   ; qtot 3.250510
   87         h1      3    bbb    H18     87 0.13554100   1.008000   ; qtot 3.386051
   88         os      3    bbb     O1     88 -0.62587700  16.000000   ; qtot 2.760174
   89         hn      3    bbb    H19     89 0.23982500   1.008000   ; qtot 2.999999
; residue    4 bbb rtp bbb q 1.0
   90         n4      4    bbb     N1     90 0.03726400  14.010000   ; qtot 3.037263
   91         c3      4    bbb     C1     91 -0.07020100  12.010000   ; qtot 2.967062
   92         hx      4    bbb     H1     92 0.12219000   1.008000   ; qtot 3.089252
   93         hx      4    bbb     H2     93 0.12219000   1.008000   ; qtot 3.211442
   94         c3      4    bbb     C2     94 -0.07020100  12.010000   ; qtot 3.141241
   95         hx      4    bbb     H3     95 0.12219000   1.008000   ; qtot 3.263431
   96         hx      4    bbb     H4     96 0.12219000   1.008000   ; qtot 3.385621
   97         c3      4    bbb     C3     97 -0.39007700  12.010000   ; qtot 2.995544
   98         hx      4    bbb     H5     98 0.14940300   1.008000   ; qtot 3.144947
   99         hx      4    bbb     H6     99 0.14940300   1.008000   ; qtot 3.294350
  100         c3      4    bbb     C4    100 0.18057300  12.010000   ; qtot 3.474923
  101         hc      4    bbb     H7    101 0.01788900   1.008000   ; qtot 3.492812
  102         hc      4    bbb     H8    102 0.01788900   1.008000   ; qtot 3.510701
  103         c3      4    bbb     C5    103 -0.11337700  12.010000   ; qtot 3.397324
  104         hc      4    bbb     H9    104 0.09515400   1.008000   ; qtot 3.492478
  105         hc      4    bbb    H10    105 0.09515400   1.008000   ; qtot 3.587632
  106         c3      4    bbb     C6    106 -0.11337700  12.010000   ; qtot 3.474255
  107         hc      4    bbb    H11    107 0.09515400   1.008000   ; qtot 3.569409
  108         hc      4    bbb    H12    108 0.09515400   1.008000   ; qtot 3.664563
  109         c3      4    bbb     C7    109 0.21842400  12.010000   ; qtot 3.882987
  110         h1      4    bbb    H13    110 0.04500300   1.008000   ; qtot 3.927990
  111         h1      4    bbb    H14    111 0.04500300   1.008000   ; qtot 3.972993
  112         c3      4    bbb     C8    112 -0.06455200  12.010000   ; qtot 3.908441
  113         h1      4    bbb    H15    113 0.13554100   1.008000   ; qtot 4.043982
  114         h1      4    bbb    H16    114 0.13554100   1.008000   ; qtot 4.179523
  115         c3      4    bbb     C9    115 -0.06455200  12.010000   ; qtot 4.114971
  116         h1      4    bbb    H17    116 0.13554100   1.008000   ; qtot 4.250512
  117         h1      4    bbb    H18    117 0.13554100   1.008000   ; qtot 4.386053
  118         os      4    bbb     O1    118 -0.62587700  16.000000   ; qtot 3.760176
  119         hn      4    bbb    H19    119 0.23982500   1.008000   ; qtot 4.000001
; residue    5 bbb rtp bbb q 1.0
  120         n4      5    bbb     N1    120 0.03726400  14.010000   ; qtot 4.037265
  121         c3      5    bbb     C1    121 -0.07020100  12.010000   ; qtot 3.967064
  122         hx      5    bbb     H1    122 0.12219000   1.008000   ; qtot 4.089254
  123         hx      5    bbb     H2    123 0.12219000   1.008000   ; qtot 4.211444
  124         c3      5    bbb     C2    124 -0.07020100  12.010000   ; qtot 4.141243
  125         hx      5    bbb     H3    125 0.12219000   1.008000   ; qtot 4.263433
  126         hx      5    bbb     H4    126 0.12219000   1.008000   ; qtot 4.385623
  127         c3      5    bbb     C3    127 -0.39007700  12.010000   ; qtot 3.995546
  128         hx      5    bbb     H5    128 0.14940300   1.008000   ; qtot 4.144949
  129         hx      5    bbb     H6    129 0.14940300   1.008000   ; qtot 4.294352
  130         c3      5    bbb     C4    130 0.18057300  12.010000   ; qtot 4.474925
  131         hc      5    bbb     H7    131 0.01788900   1.008000   ; qtot 4.492814
  132         hc      5    bbb     H8    132 0.01788900   1.008000   ; qtot 4.510703
  133         c3      5    bbb     C5    133 -0.11337700  12.010000   ; qtot 4.397326
  134         hc      5    bbb     H9    134 0.09515400   1.008000   ; qtot 4.492480
  135         hc      5    bbb    H10    135 0.09515400   1.008000   ; qtot 4.587634
  136         c3      5    bbb     C6    136 -0.11337700  12.010000   ; qtot 4.474257
  137         hc      5    bbb    H11    137 0.09515400   1.008000   ; qtot 4.569411
  138         hc      5    bbb    H12    138 0.09515400   1.008000   ; qtot 4.664565
  139         c3      5    bbb     C7    139 0.21842400  12.010000   ; qtot 4.882989
  140         h1      5    bbb    H13    140 0.04500300   1.008000   ; qtot 4.927992
  141         h1      5    bbb    H14    141 0.04500300   1.008000   ; qtot 4.972995
  142         c3      5    bbb     C8    142 -0.06455200  12.010000   ; qtot 4.908443
  143         h1      5    bbb    H15    143 0.13554100   1.008000   ; qtot 5.043984
  144         h1      5    bbb    H16    144 0.13554100   1.008000   ; qtot 5.179525
  145         c3      5    bbb     C9    145 -0.06455200  12.010000   ; qtot 5.114973
  146         h1      5    bbb    H17    146 0.13554100   1.008000   ; qtot 5.250514
  147         h1      5    bbb    H18    147 0.13554100   1.008000   ; qtot 5.386055
  148         os      5    bbb     O1    148 -0.62587700  16.000000   ; qtot 4.760178
  149         hn      5    bbb    H19    149 0.23982500   1.008000   ; qtot 5.000003
; residue    6 bbb rtp bbb q 1.0
  150         n4      6    bbb     N1    150 0.03726400  14.010000   ; qtot 5.037267
  151         c3      6    bbb     C1    151 -0.07020100  12.010000   ; qtot 4.967066
  152         hx      6    bbb     H1    152 0.12219000   1.008000   ; qtot 5.089256
  153         hx      6    bbb     H2    153 0.12219000   1.008000   ; qtot 5.211446
  154         c3      6    bbb     C2    154 -0.07020100  12.010000   ; qtot 5.141245
  155         hx      6    bbb     H3    155 0.12219000   1.008000   ; qtot 5.263435
  156         hx      6    bbb     H4    156 0.12219000   1.008000   ; qtot 5.385625
  157         c3      6    bbb     C3    157 -0.39007700  12.010000   ; qtot 4.995548
  158         hx      6    bbb     H5    158 0.14940300   1.008000   ; qtot 5.144951
  159         hx      6    bbb     H6    159 0.14940300   1.008000   ; qtot 5.294354
  160         c3      6    bbb     C4    160 0.18057300  12.010000   ; qtot 5.474927
  161         hc      6    bbb     H7    161 0.01788900   1.008000   ; qtot 5.492816
  162         hc      6    bbb     H8    162 0.01788900   1.008000   ; qtot 5.510705
  163         c3      6    bbb     C5    163 -0.11337700  12.010000   ; qtot 5.397328
  164         hc      6    bbb     H9    164 0.09515400   1.008000   ; qtot 5.492482
  165         hc      6    bbb    H10    165 0.09515400   1.008000   ; qtot 5.587636
  166         c3      6    bbb     C6    166 -0.11337700  12.010000   ; qtot 5.474259
  167         hc      6    bbb    H11    167 0.09515400   1.008000   ; qtot 5.569413
  168         hc      6    bbb    H12    168 0.09515400   1.008000   ; qtot 5.664567
  169         c3      6    bbb     C7    169 0.21842400  12.010000   ; qtot 5.882991
  170         h1      6    bbb    H13    170 0.04500300   1.008000   ; qtot 5.927994
  171         h1      6    bbb    H14    171 0.04500300   1.008000   ; qtot 5.972997
  172         c3      6    bbb     C8    172 -0.06455200  12.010000   ; qtot 5.908445
  173         h1      6    bbb    H15    173 0.13554100   1.008000   ; qtot 6.043986
  174         h1      6    bbb    H16    174 0.13554100   1.008000   ; qtot 6.179527
  175         c3      6    bbb     C9    175 -0.06455200  12.010000   ; qtot 6.114975
  176         h1      6    bbb    H17    176 0.13554100   1.008000   ; qtot 6.250516
  177         h1      6    bbb    H18    177 0.13554100   1.008000   ; qtot 6.386057
  178         os      6    bbb     O1    178 -0.62587700  16.000000   ; qtot 5.760180
  179         hn      6    bbb    H19    179 0.23982500   1.008000   ; qtot 6.000005
; residue    7 bbb rtp bbb q 1.0
  180         n4      7    bbb     N1    180 0.03726400  14.010000   ; qtot 6.037269
  181         c3      7    bbb     C1    181 -0.07020100  12.010000   ; qtot 5.967068
  182         hx      7    bbb     H1    182 0.12219000   1.008000   ; qtot 6.089258
  183         hx      7    bbb     H2    183 0.12219000   1.008000   ; qtot 6.211448
  184         c3      7    bbb     C2    184 -0.07020100  12.010000   ; qtot 6.141247
  185         hx      7    bbb     H3    185 0.12219000   1.008000   ; qtot 6.263437
  186         hx      7    bbb     H4    186 0.12219000   1.008000   ; qtot 6.385627
  187         c3      7    bbb     C3    187 -0.39007700  12.010000   ; qtot 5.995550
  188         hx      7    bbb     H5    188 0.14940300   1.008000   ; qtot 6.144953
  189         hx      7    bbb     H6    189 0.14940300   1.008000   ; qtot 6.294356
  190         c3      7    bbb     C4    190 0.18057300  12.010000   ; qtot 6.474929
  191         hc      7    bbb     H7    191 0.01788900   1.008000   ; qtot 6.492818
  192         hc      7    bbb     H8    192 0.01788900   1.008000   ; qtot 6.510707
  193         c3      7    bbb     C5    193 -0.11337700  12.010000   ; qtot 6.397330
  194         hc      7    bbb     H9    194 0.09515400   1.008000   ; qtot 6.492484
  195         hc      7    bbb    H10    195 0.09515400   1.008000   ; qtot 6.587638
  196         c3      7    bbb     C6    196 -0.11337700  12.010000   ; qtot 6.474261
  197         hc      7    bbb    H11    197 0.09515400   1.008000   ; qtot 6.569415
  198         hc      7    bbb    H12    198 0.09515400   1.008000   ; qtot 6.664569
  199         c3      7    bbb     C7    199 0.21842400  12.010000   ; qtot 6.882993
  200         h1      7    bbb    H13    200 0.04500300   1.008000   ; qtot 6.927996
  201         h1      7    bbb    H14    201 0.04500300   1.008000   ; qtot 6.972999
  202         c3      7    bbb     C8    202 -0.06455200  12.010000   ; qtot 6.908447
  203         h1      7    bbb    H15    203 0.13554100   1.008000   ; qtot 7.043988
  204         h1      7    bbb    H16    204 0.13554100   1.008000   ; qtot 7.179529
  205         c3      7    bbb     C9    205 -0.06455200  12.010000   ; qtot 7.114977
  206         h1      7    bbb    H17    206 0.13554100   1.008000   ; qtot 7.250518
  207         h1      7    bbb    H18    207 0.13554100   1.008000   ; qtot 7.386059
  208         os      7    bbb     O1    208 -0.62587700  16.000000   ; qtot 6.760182
  209         hn      7    bbb    H19    209 0.23982500   1.008000   ; qtot 7.000007
; residue    8 bbb rtp bbb q 1.0
  210         n4      8    bbb     N1    210 0.03726400  14.010000   ; qtot 7.037271
  211         c3      8    bbb     C1    211 -0.07020100  12.010000   ; qtot 6.967070
  212         hx      8    bbb     H1    212 0.12219000   1.008000   ; qtot 7.089260
  213         hx      8    bbb     H2    213 0.12219000   1.008000   ; qtot 7.211450
  214         c3      8    bbb     C2    214 -0.07020100  12.010000   ; qtot 7.141249
  215         hx      8    bbb     H3    215 0.12219000   1.008000   ; qtot 7.263439
  216         hx      8    bbb     H4    216 0.12219000   1.008000   ; qtot 7.385629
  217         c3      8    bbb     C3    217 -0.39007700  12.010000   ; qtot 6.995552
  218         hx      8    bbb     H5    218 0.14940300   1.008000   ; qtot 7.144955
  219         hx      8    bbb     H6    219 0.14940300   1.008000   ; qtot 7.294358
  220         c3      8    bbb     C4    220 0.18057300  12.010000   ; qtot 7.474931
  221         hc      8    bbb     H7    221 0.01788900   1.008000   ; qtot 7.492820
  222         hc      8    bbb     H8    222 0.01788900   1.008000   ; qtot 7.510709
  223         c3      8    bbb     C5    223 -0.11337700  12.010000   ; qtot 7.397332
  224         hc      8    bbb     H9    224 0.09515400   1.008000   ; qtot 7.492486
  225         hc      8    bbb    H10    225 0.09515400   1.008000   ; qtot 7.587640
  226         c3      8    bbb     C6    226 -0.11337700  12.010000   ; qtot 7.474263
  227         hc      8    bbb    H11    227 0.09515400   1.008000   ; qtot 7.569417
  228         hc      8    bbb    H12    228 0.09515400   1.008000   ; qtot 7.664571
  229         c3      8    bbb     C7    229 0.21842400  12.010000   ; qtot 7.882995
  230         h1      8    bbb    H13    230 0.04500300   1.008000   ; qtot 7.927998
  231         h1      8    bbb    H14    231 0.04500300   1.008000   ; qtot 7.973001
  232         c3      8    bbb     C8    232 -0.06455200  12.010000   ; qtot 7.908449
  233         h1      8    bbb    H15    233 0.13554100   1.008000   ; qtot 8.043990
  234         h1      8    bbb    H16    234 0.13554100   1.008000   ; qtot 8.179531
  235         c3      8    bbb     C9    235 -0.06455200  12.010000   ; qtot 8.114979
  236         h1      8    bbb    H17    236 0.13554100   1.008000   ; qtot 8.250520
  237         h1      8    bbb    H18    237 0.13554100   1.008000   ; qtot 8.386061
  238         os      8    bbb     O1    238 -0.62587700  16.000000   ; qtot 7.760184
  239         hn      8    bbb    H19    239 0.23982500   1.008000   ; qtot 8.000009
; residue    9 bbb rtp bbb q 1.0
  240         n4      9    bbb     N1    240 0.03726400  14.010000   ; qtot 8.037273
  241         c3      9    bbb     C1    241 -0.07020100  12.010000   ; qtot 7.967072
  242         hx      9    bbb     H1    242 0.12219000   1.008000   ; qtot 8.089262
  243         hx      9    bbb     H2    243 0.12219000   1.008000   ; qtot 8.211452
  244         c3      9    bbb     C2    244 -0.07020100  12.010000   ; qtot 8.141251
  245         hx      9    bbb     H3    245 0.12219000   1.008000   ; qtot 8.263441
  246         hx      9    bbb     H4    246 0.12219000   1.008000   ; qtot 8.385631
  247         c3      9    bbb     C3    247 -0.39007700  12.010000   ; qtot 7.995554
  248         hx      9    bbb     H5    248 0.14940300   1.008000   ; qtot 8.144957
  249         hx      9    bbb     H6    249 0.14940300   1.008000   ; qtot 8.294360
  250         c3      9    bbb     C4    250 0.18057300  12.010000   ; qtot 8.474933
  251         hc      9    bbb     H7    251 0.01788900   1.008000   ; qtot 8.492822
  252         hc      9    bbb     H8    252 0.01788900   1.008000   ; qtot 8.510711
  253         c3      9    bbb     C5    253 -0.11337700  12.010000   ; qtot 8.397334
  254         hc      9    bbb     H9    254 0.09515400   1.008000   ; qtot 8.492488
  255         hc      9    bbb    H10    255 0.09515400   1.008000   ; qtot 8.587642
  256         c3      9    bbb     C6    256 -0.11337700  12.010000   ; qtot 8.474265
  257         hc      9    bbb    H11    257 0.09515400   1.008000   ; qtot 8.569419
  258         hc      9    bbb    H12    258 0.09515400   1.008000   ; qtot 8.664573
  259         c3      9    bbb     C7    259 0.21842400  12.010000   ; qtot 8.882997
  260         h1      9    bbb    H13    260 0.04500300   1.008000   ; qtot 8.928000
  261         h1      9    bbb    H14    261 0.04500300   1.008000   ; qtot 8.973003
  262         c3      9    bbb     C8    262 -0.06455200  12.010000   ; qtot 8.908451
  263         h1      9    bbb    H15    263 0.13554100   1.008000   ; qtot 9.043992
  264         h1      9    bbb    H16    264 0.13554100   1.008000   ; qtot 9.179533
  265         c3      9    bbb     C9    265 -0.06455200  12.010000   ; qtot 9.114981
  266         h1      9    bbb    H17    266 0.13554100   1.008000   ; qtot 9.250522
  267         h1      9    bbb    H18    267 0.13554100   1.008000   ; qtot 9.386063
  268         os      9    bbb     O1    268 -0.62587700  16.000000   ; qtot 8.760186
  269         hn      9    bbb    H19    269 0.23982500   1.008000   ; qtot 9.000011
; residue   10 bbb rtp bbb q 1.0
  270         n4     10    bbb     N1    270 0.03726400  14.010000   ; qtot 9.037275
  271         c3     10    bbb     C1    271 -0.07020100  12.010000   ; qtot 8.967074
  272         hx     10    bbb     H1    272 0.12219000   1.008000   ; qtot 9.089264
  273         hx     10    bbb     H2    273 0.12219000   1.008000   ; qtot 9.211454
  274         c3     10    bbb     C2    274 -0.07020100  12.010000   ; qtot 9.141253
  275         hx     10    bbb     H3    275 0.12219000   1.008000   ; qtot 9.263443
  276         hx     10    bbb     H4    276 0.12219000   1.008000   ; qtot 9.385633
  277         c3     10    bbb     C3    277 -0.39007700  12.010000   ; qtot 8.995556
  278         hx     10    bbb     H5    278 0.14940300   1.008000   ; qtot 9.144959
  279         hx     10    bbb     H6    279 0.14940300   1.008000   ; qtot 9.294362
  280         c3     10    bbb     C4    280 0.18057300  12.010000   ; qtot 9.474935
  281         hc     10    bbb     H7    281 0.01788900   1.008000   ; qtot 9.492824
  282         hc     10    bbb     H8    282 0.01788900   1.008000   ; qtot 9.510713
  283         c3     10    bbb     C5    283 -0.11337700  12.010000   ; qtot 9.397336
  284         hc     10    bbb     H9    284 0.09515400   1.008000   ; qtot 9.492490
  285         hc     10    bbb    H10    285 0.09515400   1.008000   ; qtot 9.587644
  286         c3     10    bbb     C6    286 -0.11337700  12.010000   ; qtot 9.474267
  287         hc     10    bbb    H11    287 0.09515400   1.008000   ; qtot 9.569421
  288         hc     10    bbb    H12    288 0.09515400   1.008000   ; qtot 9.664575
  289         c3     10    bbb     C7    289 0.21842400  12.010000   ; qtot 9.882999
  290         h1     10    bbb    H13    290 0.04500300   1.008000   ; qtot 9.928002
  291         h1     10    bbb    H14    291 0.04500300   1.008000   ; qtot 9.973005
  292         c3     10    bbb     C8    292 -0.06455200  12.010000   ; qtot 9.908453
  293         h1     10    bbb    H15    293 0.13554100   1.008000   ; qtot 10.043994
  294         h1     10    bbb    H16    294 0.13554100   1.008000   ; qtot 10.179535
  295         c3     10    bbb     C9    295 -0.06455200  12.010000   ; qtot 10.114983
  296         h1     10    bbb    H17    296 0.13554100   1.008000   ; qtot 10.250524
  297         h1     10    bbb    H18    297 0.13554100   1.008000   ; qtot 10.386065
  298         os     10    bbb     O1    298 -0.62587700  16.000000   ; qtot 9.760188
  299         hn     10    bbb    H19    299 0.23982500   1.008000   ; qtot 10.000013
; residue   11 bbb rtp bbb q 1.0
  300         n4     11    bbb     N1    300 0.03726400  14.010000   ; qtot 10.037277
  301         c3     11    bbb     C1    301 -0.07020100  12.010000   ; qtot 9.967076
  302         hx     11    bbb     H1    302 0.12219000   1.008000   ; qtot 10.089266
  303         hx     11    bbb     H2    303 0.12219000   1.008000   ; qtot 10.211456
  304         c3     11    bbb     C2    304 -0.07020100  12.010000   ; qtot 10.141255
  305         hx     11    bbb     H3    305 0.12219000   1.008000   ; qtot 10.263445
  306         hx     11    bbb     H4    306 0.12219000   1.008000   ; qtot 10.385635
  307         c3     11    bbb     C3    307 -0.39007700  12.010000   ; qtot 9.995558
  308         hx     11    bbb     H5    308 0.14940300   1.008000   ; qtot 10.144961
  309         hx     11    bbb     H6    309 0.14940300   1.008000   ; qtot 10.294364
  310         c3     11    bbb     C4    310 0.18057300  12.010000   ; qtot 10.474937
  311         hc     11    bbb     H7    311 0.01788900   1.008000   ; qtot 10.492826
  312         hc     11    bbb     H8    312 0.01788900   1.008000   ; qtot 10.510715
  313         c3     11    bbb     C5    313 -0.11337700  12.010000   ; qtot 10.397338
  314         hc     11    bbb     H9    314 0.09515400   1.008000   ; qtot 10.492492
  315         hc     11    bbb    H10    315 0.09515400   1.008000   ; qtot 10.587646
  316         c3     11    bbb     C6    316 -0.11337700  12.010000   ; qtot 10.474269
  317         hc     11    bbb    H11    317 0.09515400   1.008000   ; qtot 10.569423
  318         hc     11    bbb    H12    318 0.09515400   1.008000   ; qtot 10.664577
  319         c3     11    bbb     C7    319 0.21842400  12.010000   ; qtot 10.883001
  320         h1     11    bbb    H13    320 0.04500300   1.008000   ; qtot 10.928004
  321         h1     11    bbb    H14    321 0.04500300   1.008000   ; qtot 10.973007
  322         c3     11    bbb     C8    322 -0.06455200  12.010000   ; qtot 10.908455
  323         h1     11    bbb    H15    323 0.13554100   1.008000   ; qtot 11.043996
  324         h1     11    bbb    H16    324 0.13554100   1.008000   ; qtot 11.179537
  325         c3     11    bbb     C9    325 -0.06455200  12.010000   ; qtot 11.114985
  326         h1     11    bbb    H17    326 0.13554100   1.008000   ; qtot 11.250526
  327         h1     11    bbb    H18    327 0.13554100   1.008000   ; qtot 11.386067
  328         os     11    bbb     O1    328 -0.62587700  16.000000   ; qtot 10.760190
  329         hn     11    bbb    H19    329 0.23982500   1.008000   ; qtot 11.000015
; residue   12 bbb rtp bbb q 1.0
  330         n4     12    bbb     N1    330 0.03726400  14.010000   ; qtot 11.037279
  331         c3     12    bbb     C1    331 -0.07020100  12.010000   ; qtot 10.967078
  332         hx     12    bbb     H1    332 0.12219000   1.008000   ; qtot 11.089268
  333         hx     12    bbb     H2    333 0.12219000   1.008000   ; qtot 11.211458
  334         c3     12    bbb     C2    334 -0.07020100  12.010000   ; qtot 11.141257
  335         hx     12    bbb     H3    335 0.12219000   1.008000   ; qtot 11.263447
  336         hx     12    bbb     H4    336 0.12219000   1.008000   ; qtot 11.385637
  337         c3     12    bbb     C3    337 -0.39007700  12.010000   ; qtot 10.995560
  338         hx     12    bbb     H5    338 0.14940300   1.008000   ; qtot 11.144963
  339         hx     12    bbb     H6    339 0.14940300   1.008000   ; qtot 11.294366
  340         c3     12    bbb     C4    340 0.18057300  12.010000   ; qtot 11.474939
  341         hc     12    bbb     H7    341 0.01788900   1.008000   ; qtot 11.492828
  342         hc     12    bbb     H8    342 0.01788900   1.008000   ; qtot 11.510717
  343         c3     12    bbb     C5    343 -0.11337700  12.010000   ; qtot 11.397340
  344         hc     12    bbb     H9    344 0.09515400   1.008000   ; qtot 11.492494
  345         hc     12    bbb    H10    345 0.09515400   1.008000   ; qtot 11.587648
  346         c3     12    bbb     C6    346 -0.11337700  12.010000   ; qtot 11.474271
  347         hc     12    bbb    H11    347 0.09515400   1.008000   ; qtot 11.569425
  348         hc     12    bbb    H12    348 0.09515400   1.008000   ; qtot 11.664579
  349         c3     12    bbb     C7    349 0.21842400  12.010000   ; qtot 11.883003
  350         h1     12    bbb    H13    350 0.04500300   1.008000   ; qtot 11.928006
  351         h1     12    bbb    H14    351 0.04500300   1.008000   ; qtot 11.973009
  352         c3     12    bbb     C8    352 -0.06455200  12.010000   ; qtot 11.908457
  353         h1     12    bbb    H15    353 0.13554100   1.008000   ; qtot 12.043998
  354         h1     12    bbb    H16    354 0.13554100   1.008000   ; qtot 12.179539
  355         c3     12    bbb     C9    355 -0.06455200  12.010000   ; qtot 12.114987
  356         h1     12    bbb    H17    356 0.13554100   1.008000   ; qtot 12.250528
  357         h1     12    bbb    H18    357 0.13554100   1.008000   ; qtot 12.386069
  358         os     12    bbb     O1    358 -0.62587700  16.000000   ; qtot 11.760192
  359         hn     12    bbb    H19    359 0.23982500   1.008000   ; qtot 12.000017
; residue   13 bbb rtp bbb q 1.0
  360         n4     13    bbb     N1    360 0.03726400  14.010000   ; qtot 12.037281
  361         c3     13    bbb     C1    361 -0.07020100  12.010000   ; qtot 11.967080
  362         hx     13    bbb     H1    362 0.12219000   1.008000   ; qtot 12.089270
  363         hx     13    bbb     H2    363 0.12219000   1.008000   ; qtot 12.211460
  364         c3     13    bbb     C2    364 -0.07020100  12.010000   ; qtot 12.141259
  365         hx     13    bbb     H3    365 0.12219000   1.008000   ; qtot 12.263449
  366         hx     13    bbb     H4    366 0.12219000   1.008000   ; qtot 12.385639
  367         c3     13    bbb     C3    367 -0.39007700  12.010000   ; qtot 11.995562
  368         hx     13    bbb     H5    368 0.14940300   1.008000   ; qtot 12.144965
  369         hx     13    bbb     H6    369 0.14940300   1.008000   ; qtot 12.294368
  370         c3     13    bbb     C4    370 0.18057300  12.010000   ; qtot 12.474941
  371         hc     13    bbb     H7    371 0.01788900   1.008000   ; qtot 12.492830
  372         hc     13    bbb     H8    372 0.01788900   1.008000   ; qtot 12.510719
  373         c3     13    bbb     C5    373 -0.11337700  12.010000   ; qtot 12.397342
  374         hc     13    bbb     H9    374 0.09515400   1.008000   ; qtot 12.492496
  375         hc     13    bbb    H10    375 0.09515400   1.008000   ; qtot 12.587650
  376         c3     13    bbb     C6    376 -0.11337700  12.010000   ; qtot 12.474273
  377         hc     13    bbb    H11    377 0.09515400   1.008000   ; qtot 12.569427
  378         hc     13    bbb    H12    378 0.09515400   1.008000   ; qtot 12.664581
  379         c3     13    bbb     C7    379 0.21842400  12.010000   ; qtot 12.883005
  380         h1     13    bbb    H13    380 0.04500300   1.008000   ; qtot 12.928008
  381         h1     13    bbb    H14    381 0.04500300   1.008000   ; qtot 12.973011
  382         c3     13    bbb     C8    382 -0.06455200  12.010000   ; qtot 12.908459
  383         h1     13    bbb    H15    383 0.13554100   1.008000   ; qtot 13.044000
  384         h1     13    bbb    H16    384 0.13554100   1.008000   ; qtot 13.179541
  385         c3     13    bbb     C9    385 -0.06455200  12.010000   ; qtot 13.114989
  386         h1     13    bbb    H17    386 0.13554100   1.008000   ; qtot 13.250530
  387         h1     13    bbb    H18    387 0.13554100   1.008000   ; qtot 13.386071
  388         os     13    bbb     O1    388 -0.62587700  16.000000   ; qtot 12.760194
  389         hn     13    bbb    H19    389 0.23982500   1.008000   ; qtot 13.000019
; residue   14 bbb rtp bbb q 1.0
  390         n4     14    bbb     N1    390 0.03726400  14.010000   ; qtot 13.037283
  391         c3     14    bbb     C1    391 -0.07020100  12.010000   ; qtot 12.967082
  392         hx     14    bbb     H1    392 0.12219000   1.008000   ; qtot 13.089272
  393         hx     14    bbb     H2    393 0.12219000   1.008000   ; qtot 13.211462
  394         c3     14    bbb     C2    394 -0.07020100  12.010000   ; qtot 13.141261
  395         hx     14    bbb     H3    395 0.12219000   1.008000   ; qtot 13.263451
  396         hx     14    bbb     H4    396 0.12219000   1.008000   ; qtot 13.385641
  397         c3     14    bbb     C3    397 -0.39007700  12.010000   ; qtot 12.995564
  398         hx     14    bbb     H5    398 0.14940300   1.008000   ; qtot 13.144967
  399         hx     14    bbb     H6    399 0.14940300   1.008000   ; qtot 13.294370
  400         c3     14    bbb     C4    400 0.18057300  12.010000   ; qtot 13.474943
  401         hc     14    bbb     H7    401 0.01788900   1.008000   ; qtot 13.492832
  402         hc     14    bbb     H8    402 0.01788900   1.008000   ; qtot 13.510721
  403         c3     14    bbb     C5    403 -0.11337700  12.010000   ; qtot 13.397344
  404         hc     14    bbb     H9    404 0.09515400   1.008000   ; qtot 13.492498
  405         hc     14    bbb    H10    405 0.09515400   1.008000   ; qtot 13.587652
  406         c3     14    bbb     C6    406 -0.11337700  12.010000   ; qtot 13.474275
  407         hc     14    bbb    H11    407 0.09515400   1.008000   ; qtot 13.569429
  408         hc     14    bbb    H12    408 0.09515400   1.008000   ; qtot 13.664583
  409         c3     14    bbb     C7    409 0.21842400  12.010000   ; qtot 13.883007
  410         h1     14    bbb    H13    410 0.04500300   1.008000   ; qtot 13.928010
  411         h1     14    bbb    H14    411 0.04500300   1.008000   ; qtot 13.973013
  412         c3     14    bbb     C8    412 -0.06455200  12.010000   ; qtot 13.908461
  413         h1     14    bbb    H15    413 0.13554100   1.008000   ; qtot 14.044002
  414         h1     14    bbb    H16    414 0.13554100   1.008000   ; qtot 14.179543
  415         c3     14    bbb     C9    415 -0.06455200  12.010000   ; qtot 14.114991
  416         h1     14    bbb    H17    416 0.13554100   1.008000   ; qtot 14.250532
  417         h1     14    bbb    H18    417 0.13554100   1.008000   ; qtot 14.386073
  418         os     14    bbb     O1    418 -0.62587700  16.000000   ; qtot 13.760196
  419         hn     14    bbb    H19    419 0.23982500   1.008000   ; qtot 14.000021
; residue   15 bbb rtp bbb q 1.0
  420         n4     15    bbb     N1    420 0.03726400  14.010000   ; qtot 14.037285
  421         c3     15    bbb     C1    421 -0.07020100  12.010000   ; qtot 13.967084
  422         hx     15    bbb     H1    422 0.12219000   1.008000   ; qtot 14.089274
  423         hx     15    bbb     H2    423 0.12219000   1.008000   ; qtot 14.211464
  424         c3     15    bbb     C2    424 -0.07020100  12.010000   ; qtot 14.141263
  425         hx     15    bbb     H3    425 0.12219000   1.008000   ; qtot 14.263453
  426         hx     15    bbb     H4    426 0.12219000   1.008000   ; qtot 14.385643
  427         c3     15    bbb     C3    427 -0.39007700  12.010000   ; qtot 13.995566
  428         hx     15    bbb     H5    428 0.14940300   1.008000   ; qtot 14.144969
  429         hx     15    bbb     H6    429 0.14940300   1.008000   ; qtot 14.294372
  430         c3     15    bbb     C4    430 0.18057300  12.010000   ; qtot 14.474945
  431         hc     15    bbb     H7    431 0.01788900   1.008000   ; qtot 14.492834
  432         hc     15    bbb     H8    432 0.01788900   1.008000   ; qtot 14.510723
  433         c3     15    bbb     C5    433 -0.11337700  12.010000   ; qtot 14.397346
  434         hc     15    bbb     H9    434 0.09515400   1.008000   ; qtot 14.492500
  435         hc     15    bbb    H10    435 0.09515400   1.008000   ; qtot 14.587654
  436         c3     15    bbb     C6    436 -0.11337700  12.010000   ; qtot 14.474277
  437         hc     15    bbb    H11    437 0.09515400   1.008000   ; qtot 14.569431
  438         hc     15    bbb    H12    438 0.09515400   1.008000   ; qtot 14.664585
  439         c3     15    bbb     C7    439 0.21842400  12.010000   ; qtot 14.883009
  440         h1     15    bbb    H13    440 0.04500300   1.008000   ; qtot 14.928012
  441         h1     15    bbb    H14    441 0.04500300   1.008000   ; qtot 14.973015
  442         c3     15    bbb     C8    442 -0.06455200  12.010000   ; qtot 14.908463
  443         h1     15    bbb    H15    443 0.13554100   1.008000   ; qtot 15.044004
  444         h1     15    bbb    H16    444 0.13554100   1.008000   ; qtot 15.179545
  445         c3     15    bbb     C9    445 -0.06455200  12.010000   ; qtot 15.114993
  446         h1     15    bbb    H17    446 0.13554100   1.008000   ; qtot 15.250534
  447         h1     15    bbb    H18    447 0.13554100   1.008000   ; qtot 15.386075
  448         os     15    bbb     O1    448 -0.62587700  16.000000   ; qtot 14.760198
  449         hn     15    bbb    H19    449 0.23982500   1.008000   ; qtot 15.000023
; residue   16 bbb rtp bbb q 1.0
  450         n4     16    bbb     N1    450 0.03726400  14.010000   ; qtot 15.037287
  451         c3     16    bbb     C1    451 -0.07020100  12.010000   ; qtot 14.967086
  452         hx     16    bbb     H1    452 0.12219000   1.008000   ; qtot 15.089276
  453         hx     16    bbb     H2    453 0.12219000   1.008000   ; qtot 15.211466
  454         c3     16    bbb     C2    454 -0.07020100  12.010000   ; qtot 15.141265
  455         hx     16    bbb     H3    455 0.12219000   1.008000   ; qtot 15.263455
  456         hx     16    bbb     H4    456 0.12219000   1.008000   ; qtot 15.385645
  457         c3     16    bbb     C3    457 -0.39007700  12.010000   ; qtot 14.995568
  458         hx     16    bbb     H5    458 0.14940300   1.008000   ; qtot 15.144971
  459         hx     16    bbb     H6    459 0.14940300   1.008000   ; qtot 15.294374
  460         c3     16    bbb     C4    460 0.18057300  12.010000   ; qtot 15.474947
  461         hc     16    bbb     H7    461 0.01788900   1.008000   ; qtot 15.492836
  462         hc     16    bbb     H8    462 0.01788900   1.008000   ; qtot 15.510725
  463         c3     16    bbb     C5    463 -0.11337700  12.010000   ; qtot 15.397348
  464         hc     16    bbb     H9    464 0.09515400   1.008000   ; qtot 15.492502
  465         hc     16    bbb    H10    465 0.09515400   1.008000   ; qtot 15.587656
  466         c3     16    bbb     C6    466 -0.11337700  12.010000   ; qtot 15.474279
  467         hc     16    bbb    H11    467 0.09515400   1.008000   ; qtot 15.569433
  468         hc     16    bbb    H12    468 0.09515400   1.008000   ; qtot 15.664587
  469         c3     16    bbb     C7    469 0.21842400  12.010000   ; qtot 15.883011
  470         h1     16    bbb    H13    470 0.04500300   1.008000   ; qtot 15.928014
  471         h1     16    bbb    H14    471 0.04500300   1.008000   ; qtot 15.973017
  472         c3     16    bbb     C8    472 -0.06455200  12.010000   ; qtot 15.908465
  473         h1     16    bbb    H15    473 0.13554100   1.008000   ; qtot 16.044006
  474         h1     16    bbb    H16    474 0.13554100   1.008000   ; qtot 16.179547
  475         c3     16    bbb     C9    475 -0.06455200  12.010000   ; qtot 16.114995
  476         h1     16    bbb    H17    476 0.13554100   1.008000   ; qtot 16.250536
  477         h1     16    bbb    H18    477 0.13554100   1.008000   ; qtot 16.386077
  478         os     16    bbb     O1    478 -0.62587700  16.000000   ; qtot 15.760200
  479         hn     16    bbb    H19    479 0.23982500   1.008000   ; qtot 16.000025
; residue   17 bbb rtp bbb q 1.0
  480         n4     17    bbb     N1    480 0.03726400  14.010000   ; qtot 16.037289
  481         c3     17    bbb     C1    481 -0.07020100  12.010000   ; qtot 15.967088
  482         hx     17    bbb     H1    482 0.12219000   1.008000   ; qtot 16.089278
  483         hx     17    bbb     H2    483 0.12219000   1.008000   ; qtot 16.211468
  484         c3     17    bbb     C2    484 -0.07020100  12.010000   ; qtot 16.141267
  485         hx     17    bbb     H3    485 0.12219000   1.008000   ; qtot 16.263457
  486         hx     17    bbb     H4    486 0.12219000   1.008000   ; qtot 16.385647
  487         c3     17    bbb     C3    487 -0.39007700  12.010000   ; qtot 15.995570
  488         hx     17    bbb     H5    488 0.14940300   1.008000   ; qtot 16.144973
  489         hx     17    bbb     H6    489 0.14940300   1.008000   ; qtot 16.294376
  490         c3     17    bbb     C4    490 0.18057300  12.010000   ; qtot 16.474949
  491         hc     17    bbb     H7    491 0.01788900   1.008000   ; qtot 16.492838
  492         hc     17    bbb     H8    492 0.01788900   1.008000   ; qtot 16.510727
  493         c3     17    bbb     C5    493 -0.11337700  12.010000   ; qtot 16.397350
  494         hc     17    bbb     H9    494 0.09515400   1.008000   ; qtot 16.492504
  495         hc     17    bbb    H10    495 0.09515400   1.008000   ; qtot 16.587658
  496         c3     17    bbb     C6    496 -0.11337700  12.010000   ; qtot 16.474281
  497         hc     17    bbb    H11    497 0.09515400   1.008000   ; qtot 16.569435
  498         hc     17    bbb    H12    498 0.09515400   1.008000   ; qtot 16.664589
  499         c3     17    bbb     C7    499 0.21842400  12.010000   ; qtot 16.883013
  500         h1     17    bbb    H13    500 0.04500300   1.008000   ; qtot 16.928016
  501         h1     17    bbb    H14    501 0.04500300   1.008000   ; qtot 16.973019
  502         c3     17    bbb     C8    502 -0.06455200  12.010000   ; qtot 16.908467
  503         h1     17    bbb    H15    503 0.13554100   1.008000   ; qtot 17.044008
  504         h1     17    bbb    H16    504 0.13554100   1.008000   ; qtot 17.179549
  505         c3     17    bbb     C9    505 -0.06455200  12.010000   ; qtot 17.114997
  506         h1     17    bbb    H17    506 0.13554100   1.008000   ; qtot 17.250538
  507         h1     17    bbb    H18    507 0.13554100   1.008000   ; qtot 17.386079
  508         os     17    bbb     O1    508 -0.62587700  16.000000   ; qtot 16.760202
  509         hn     17    bbb    H19    509 0.23982500   1.008000   ; qtot 17.000027
; residue   18 bbb rtp bbb q 1.0
  510         n4     18    bbb     N1    510 0.03726400  14.010000   ; qtot 17.037291
  511         c3     18    bbb     C1    511 -0.07020100  12.010000   ; qtot 16.967090
  512         hx     18    bbb     H1    512 0.12219000   1.008000   ; qtot 17.089280
  513         hx     18    bbb     H2    513 0.12219000   1.008000   ; qtot 17.211470
  514         c3     18    bbb     C2    514 -0.07020100  12.010000   ; qtot 17.141269
  515         hx     18    bbb     H3    515 0.12219000   1.008000   ; qtot 17.263459
  516         hx     18    bbb     H4    516 0.12219000   1.008000   ; qtot 17.385649
  517         c3     18    bbb     C3    517 -0.39007700  12.010000   ; qtot 16.995572
  518         hx     18    bbb     H5    518 0.14940300   1.008000   ; qtot 17.144975
  519         hx     18    bbb     H6    519 0.14940300   1.008000   ; qtot 17.294378
  520         c3     18    bbb     C4    520 0.18057300  12.010000   ; qtot 17.474951
  521         hc     18    bbb     H7    521 0.01788900   1.008000   ; qtot 17.492840
  522         hc     18    bbb     H8    522 0.01788900   1.008000   ; qtot 17.510729
  523         c3     18    bbb     C5    523 -0.11337700  12.010000   ; qtot 17.397352
  524         hc     18    bbb     H9    524 0.09515400   1.008000   ; qtot 17.492506
  525         hc     18    bbb    H10    525 0.09515400   1.008000   ; qtot 17.587660
  526         c3     18    bbb     C6    526 -0.11337700  12.010000   ; qtot 17.474283
  527         hc     18    bbb    H11    527 0.09515400   1.008000   ; qtot 17.569437
  528         hc     18    bbb    H12    528 0.09515400   1.008000   ; qtot 17.664591
  529         c3     18    bbb     C7    529 0.21842400  12.010000   ; qtot 17.883015
  530         h1     18    bbb    H13    530 0.04500300   1.008000   ; qtot 17.928018
  531         h1     18    bbb    H14    531 0.04500300   1.008000   ; qtot 17.973021
  532         c3     18    bbb     C8    532 -0.06455200  12.010000   ; qtot 17.908469
  533         h1     18    bbb    H15    533 0.13554100   1.008000   ; qtot 18.044010
  534         h1     18    bbb    H16    534 0.13554100   1.008000   ; qtot 18.179551
  535         c3     18    bbb     C9    535 -0.06455200  12.010000   ; qtot 18.114999
  536         h1     18    bbb    H17    536 0.13554100   1.008000   ; qtot 18.250540
  537         h1     18    bbb    H18    537 0.13554100   1.008000   ; qtot 18.386081
  538         os     18    bbb     O1    538 -0.62587700  16.000000   ; qtot 17.760204
  539         hn     18    bbb    H19    539 0.23982500   1.008000   ; qtot 18.000029
; residue   19 bbb rtp bbb q 1.0
  540         n4     19    bbb     N1    540 0.03726400  14.010000   ; qtot 18.037293
  541         c3     19    bbb     C1    541 -0.07020100  12.010000   ; qtot 17.967092
  542         hx     19    bbb     H1    542 0.12219000   1.008000   ; qtot 18.089282
  543         hx     19    bbb     H2    543 0.12219000   1.008000   ; qtot 18.211472
  544         c3     19    bbb     C2    544 -0.07020100  12.010000   ; qtot 18.141271
  545         hx     19    bbb     H3    545 0.12219000   1.008000   ; qtot 18.263461
  546         hx     19    bbb     H4    546 0.12219000   1.008000   ; qtot 18.385651
  547         c3     19    bbb     C3    547 -0.39007700  12.010000   ; qtot 17.995574
  548         hx     19    bbb     H5    548 0.14940300   1.008000   ; qtot 18.144977
  549         hx     19    bbb     H6    549 0.14940300   1.008000   ; qtot 18.294380
  550         c3     19    bbb     C4    550 0.18057300  12.010000   ; qtot 18.474953
  551         hc     19    bbb     H7    551 0.01788900   1.008000   ; qtot 18.492842
  552         hc     19    bbb     H8    552 0.01788900   1.008000   ; qtot 18.510731
  553         c3     19    bbb     C5    553 -0.11337700  12.010000   ; qtot 18.397354
  554         hc     19    bbb     H9    554 0.09515400   1.008000   ; qtot 18.492508
  555         hc     19    bbb    H10    555 0.09515400   1.008000   ; qtot 18.587662
  556         c3     19    bbb     C6    556 -0.11337700  12.010000   ; qtot 18.474285
  557         hc     19    bbb    H11    557 0.09515400   1.008000   ; qtot 18.569439
  558         hc     19    bbb    H12    558 0.09515400   1.008000   ; qtot 18.664593
  559         c3     19    bbb     C7    559 0.21842400  12.010000   ; qtot 18.883017
  560         h1     19    bbb    H13    560 0.04500300   1.008000   ; qtot 18.928020
  561         h1     19    bbb    H14    561 0.04500300   1.008000   ; qtot 18.973023
  562         c3     19    bbb     C8    562 -0.06455200  12.010000   ; qtot 18.908471
  563         h1     19    bbb    H15    563 0.13554100   1.008000   ; qtot 19.044012
  564         h1     19    bbb    H16    564 0.13554100   1.008000   ; qtot 19.179553
  565         c3     19    bbb     C9    565 -0.06455200  12.010000   ; qtot 19.115001
  566         h1     19    bbb    H17    566 0.13554100   1.008000   ; qtot 19.250542
  567         h1     19    bbb    H18    567 0.13554100   1.008000   ; qtot 19.386083
  568         os     19    bbb     O1    568 -0.62587700  16.000000   ; qtot 18.760206
  569         hn     19    bbb    H19    569 0.23982500   1.008000   ; qtot 19.000031
; residue   20 bbb rtp bbb q 1.0
  570         n4     20    bbb     N1    570 0.03726400  14.010000   ; qtot 19.037295
  571         c3     20    bbb     C1    571 -0.07020100  12.010000   ; qtot 18.967094
  572         hx     20    bbb     H1    572 0.12219000   1.008000   ; qtot 19.089284
  573         hx     20    bbb     H2    573 0.12219000   1.008000   ; qtot 19.211474
  574         c3     20    bbb     C2    574 -0.07020100  12.010000   ; qtot 19.141273
  575         hx     20    bbb     H3    575 0.12219000   1.008000   ; qtot 19.263463
  576         hx     20    bbb     H4    576 0.12219000   1.008000   ; qtot 19.385653
  577         c3     20    bbb     C3    577 -0.39007700  12.010000   ; qtot 18.995576
  578         hx     20    bbb     H5    578 0.14940300   1.008000   ; qtot 19.144979
  579         hx     20    bbb     H6    579 0.14940300   1.008000   ; qtot 19.294382
  580         c3     20    bbb     C4    580 0.18057300  12.010000   ; qtot 19.474955
  581         hc     20    bbb     H7    581 0.01788900   1.008000   ; qtot 19.492844
  582         hc     20    bbb     H8    582 0.01788900   1.008000   ; qtot 19.510733
  583         c3     20    bbb     C5    583 -0.11337700  12.010000   ; qtot 19.397356
  584         hc     20    bbb     H9    584 0.09515400   1.008000   ; qtot 19.492510
  585         hc     20    bbb    H10    585 0.09515400   1.008000   ; qtot 19.587664
  586         c3     20    bbb     C6    586 -0.11337700  12.010000   ; qtot 19.474287
  587         hc     20    bbb    H11    587 0.09515400   1.008000   ; qtot 19.569441
  588         hc     20    bbb    H12    588 0.09515400   1.008000   ; qtot 19.664595
  589         c3     20    bbb     C7    589 0.21842400  12.010000   ; qtot 19.883019
  590         h1     20    bbb    H13    590 0.04500300   1.008000   ; qtot 19.928022
  591         h1     20    bbb    H14    591 0.04500300   1.008000   ; qtot 19.973025
  592         c3     20    bbb     C8    592 -0.06455200  12.010000   ; qtot 19.908473
  593         h1     20    bbb    H15    593 0.13554100   1.008000   ; qtot 20.044014
  594         h1     20    bbb    H16    594 0.13554100   1.008000   ; qtot 20.179555
  595         c3     20    bbb     C9    595 -0.06455200  12.010000   ; qtot 20.115003
  596         h1     20    bbb    H17    596 0.13554100   1.008000   ; qtot 20.250544
  597         h1     20    bbb    H18    597 0.13554100   1.008000   ; qtot 20.386085
  598         os     20    bbb     O1    598 -0.62587700  16.000000   ; qtot 19.760208
  599         hn     20    bbb    H19    599 0.23982500   1.008000   ; qtot 20.000033
; residue   21 bbb rtp bbb q 1.0
  600         n4     21    bbb     N1    600 0.03726400  14.010000   ; qtot 20.037297
  601         c3     21    bbb     C1    601 -0.07020100  12.010000   ; qtot 19.967096
  602         hx     21    bbb     H1    602 0.12219000   1.008000   ; qtot 20.089286
  603         hx     21    bbb     H2    603 0.12219000   1.008000   ; qtot 20.211476
  604         c3     21    bbb     C2    604 -0.07020100  12.010000   ; qtot 20.141275
  605         hx     21    bbb     H3    605 0.12219000   1.008000   ; qtot 20.263465
  606         hx     21    bbb     H4    606 0.12219000   1.008000   ; qtot 20.385655
  607         c3     21    bbb     C3    607 -0.39007700  12.010000   ; qtot 19.995578
  608         hx     21    bbb     H5    608 0.14940300   1.008000   ; qtot 20.144981
  609         hx     21    bbb     H6    609 0.14940300   1.008000   ; qtot 20.294384
  610         c3     21    bbb     C4    610 0.18057300  12.010000   ; qtot 20.474957
  611         hc     21    bbb     H7    611 0.01788900   1.008000   ; qtot 20.492846
  612         hc     21    bbb     H8    612 0.01788900   1.008000   ; qtot 20.510735
  613         c3     21    bbb     C5    613 -0.11337700  12.010000   ; qtot 20.397358
  614         hc     21    bbb     H9    614 0.09515400   1.008000   ; qtot 20.492512
  615         hc     21    bbb    H10    615 0.09515400   1.008000   ; qtot 20.587666
  616         c3     21    bbb     C6    616 -0.11337700  12.010000   ; qtot 20.474289
  617         hc     21    bbb    H11    617 0.09515400   1.008000   ; qtot 20.569443
  618         hc     21    bbb    H12    618 0.09515400   1.008000   ; qtot 20.664597
  619         c3     21    bbb     C7    619 0.21842400  12.010000   ; qtot 20.883021
  620         h1     21    bbb    H13    620 0.04500300   1.008000   ; qtot 20.928024
  621         h1     21    bbb    H14    621 0.04500300   1.008000   ; qtot 20.973027
  622         c3     21    bbb     C8    622 -0.06455200  12.010000   ; qtot 20.908475
  623         h1     21    bbb    H15    623 0.13554100   1.008000   ; qtot 21.044016
  624         h1     21    bbb    H16    624 0.13554100   1.008000   ; qtot 21.179557
  625         c3     21    bbb     C9    625 -0.06455200  12.010000   ; qtot 21.115005
  626         h1     21    bbb    H17    626 0.13554100   1.008000   ; qtot 21.250546
  627         h1     21    bbb    H18    627 0.13554100   1.008000   ; qtot 21.386087
  628         os     21    bbb     O1    628 -0.62587700  16.000000   ; qtot 20.760210
  629         hn     21    bbb    H19    629 0.23982500   1.008000   ; qtot 21.000035
; residue   22 bbb rtp bbb q 1.0
  630         n4     22    bbb     N1    630 0.03726400  14.010000   ; qtot 21.037299
  631         c3     22    bbb     C1    631 -0.07020100  12.010000   ; qtot 20.967098
  632         hx     22    bbb     H1    632 0.12219000   1.008000   ; qtot 21.089288
  633         hx     22    bbb     H2    633 0.12219000   1.008000   ; qtot 21.211478
  634         c3     22    bbb     C2    634 -0.07020100  12.010000   ; qtot 21.141277
  635         hx     22    bbb     H3    635 0.12219000   1.008000   ; qtot 21.263467
  636         hx     22    bbb     H4    636 0.12219000   1.008000   ; qtot 21.385657
  637         c3     22    bbb     C3    637 -0.39007700  12.010000   ; qtot 20.995580
  638         hx     22    bbb     H5    638 0.14940300   1.008000   ; qtot 21.144983
  639         hx     22    bbb     H6    639 0.14940300   1.008000   ; qtot 21.294386
  640         c3     22    bbb     C4    640 0.18057300  12.010000   ; qtot 21.474959
  641         hc     22    bbb     H7    641 0.01788900   1.008000   ; qtot 21.492848
  642         hc     22    bbb     H8    642 0.01788900   1.008000   ; qtot 21.510737
  643         c3     22    bbb     C5    643 -0.11337700  12.010000   ; qtot 21.397360
  644         hc     22    bbb     H9    644 0.09515400   1.008000   ; qtot 21.492514
  645         hc     22    bbb    H10    645 0.09515400   1.008000   ; qtot 21.587668
  646         c3     22    bbb     C6    646 -0.11337700  12.010000   ; qtot 21.474291
  647         hc     22    bbb    H11    647 0.09515400   1.008000   ; qtot 21.569445
  648         hc     22    bbb    H12    648 0.09515400   1.008000   ; qtot 21.664599
  649         c3     22    bbb     C7    649 0.21842400  12.010000   ; qtot 21.883023
  650         h1     22    bbb    H13    650 0.04500300   1.008000   ; qtot 21.928026
  651         h1     22    bbb    H14    651 0.04500300   1.008000   ; qtot 21.973029
  652         c3     22    bbb     C8    652 -0.06455200  12.010000   ; qtot 21.908477
  653         h1     22    bbb    H15    653 0.13554100   1.008000   ; qtot 22.044018
  654         h1     22    bbb    H16    654 0.13554100   1.008000   ; qtot 22.179559
  655         c3     22    bbb     C9    655 -0.06455200  12.010000   ; qtot 22.115007
  656         h1     22    bbb    H17    656 0.13554100   1.008000   ; qtot 22.250548
  657         h1     22    bbb    H18    657 0.13554100   1.008000   ; qtot 22.386089
  658         os     22    bbb     O1    658 -0.62587700  16.000000   ; qtot 21.760212
  659         hn     22    bbb    H19    659 0.23982500   1.008000   ; qtot 22.000037
; residue   23 bbb rtp bbb q 1.0
  660         n4     23    bbb     N1    660 0.03726400  14.010000   ; qtot 22.037301
  661         c3     23    bbb     C1    661 -0.07020100  12.010000   ; qtot 21.967100
  662         hx     23    bbb     H1    662 0.12219000   1.008000   ; qtot 22.089290
  663         hx     23    bbb     H2    663 0.12219000   1.008000   ; qtot 22.211480
  664         c3     23    bbb     C2    664 -0.07020100  12.010000   ; qtot 22.141279
  665         hx     23    bbb     H3    665 0.12219000   1.008000   ; qtot 22.263469
  666         hx     23    bbb     H4    666 0.12219000   1.008000   ; qtot 22.385659
  667         c3     23    bbb     C3    667 -0.39007700  12.010000   ; qtot 21.995582
  668         hx     23    bbb     H5    668 0.14940300   1.008000   ; qtot 22.144985
  669         hx     23    bbb     H6    669 0.14940300   1.008000   ; qtot 22.294388
  670         c3     23    bbb     C4    670 0.18057300  12.010000   ; qtot 22.474961
  671         hc     23    bbb     H7    671 0.01788900   1.008000   ; qtot 22.492850
  672         hc     23    bbb     H8    672 0.01788900   1.008000   ; qtot 22.510739
  673         c3     23    bbb     C5    673 -0.11337700  12.010000   ; qtot 22.397362
  674         hc     23    bbb     H9    674 0.09515400   1.008000   ; qtot 22.492516
  675         hc     23    bbb    H10    675 0.09515400   1.008000   ; qtot 22.587670
  676         c3     23    bbb     C6    676 -0.11337700  12.010000   ; qtot 22.474293
  677         hc     23    bbb    H11    677 0.09515400   1.008000   ; qtot 22.569447
  678         hc     23    bbb    H12    678 0.09515400   1.008000   ; qtot 22.664601
  679         c3     23    bbb     C7    679 0.21842400  12.010000   ; qtot 22.883025
  680         h1     23    bbb    H13    680 0.04500300   1.008000   ; qtot 22.928028
  681         h1     23    bbb    H14    681 0.04500300   1.008000   ; qtot 22.973031
  682         c3     23    bbb     C8    682 -0.06455200  12.010000   ; qtot 22.908479
  683         h1     23    bbb    H15    683 0.13554100   1.008000   ; qtot 23.044020
  684         h1     23    bbb    H16    684 0.13554100   1.008000   ; qtot 23.179561
  685         c3     23    bbb     C9    685 -0.06455200  12.010000   ; qtot 23.115009
  686         h1     23    bbb    H17    686 0.13554100   1.008000   ; qtot 23.250550
  687         h1     23    bbb    H18    687 0.13554100   1.008000   ; qtot 23.386091
  688         os     23    bbb     O1    688 -0.62587700  16.000000   ; qtot 22.760214
  689         hn     23    bbb    H19    689 0.23982500   1.008000   ; qtot 23.000039
; residue   24 bbb rtp bbb q 1.0
  690         n4     24    bbb     N1    690 0.03726400  14.010000   ; qtot 23.037303
  691         c3     24    bbb     C1    691 -0.07020100  12.010000   ; qtot 22.967102
  692         hx     24    bbb     H1    692 0.12219000   1.008000   ; qtot 23.089292
  693         hx     24    bbb     H2    693 0.12219000   1.008000   ; qtot 23.211482
  694         c3     24    bbb     C2    694 -0.07020100  12.010000   ; qtot 23.141281
  695         hx     24    bbb     H3    695 0.12219000   1.008000   ; qtot 23.263471
  696         hx     24    bbb     H4    696 0.12219000   1.008000   ; qtot 23.385661
  697         c3     24    bbb     C3    697 -0.39007700  12.010000   ; qtot 22.995584
  698         hx     24    bbb     H5    698 0.14940300   1.008000   ; qtot 23.144987
  699         hx     24    bbb     H6    699 0.14940300   1.008000   ; qtot 23.294390
  700         c3     24    bbb     C4    700 0.18057300  12.010000   ; qtot 23.474963
  701         hc     24    bbb     H7    701 0.01788900   1.008000   ; qtot 23.492852
  702         hc     24    bbb     H8    702 0.01788900   1.008000   ; qtot 23.510741
  703         c3     24    bbb     C5    703 -0.11337700  12.010000   ; qtot 23.397364
  704         hc     24    bbb     H9    704 0.09515400   1.008000   ; qtot 23.492518
  705         hc     24    bbb    H10    705 0.09515400   1.008000   ; qtot 23.587672
  706         c3     24    bbb     C6    706 -0.11337700  12.010000   ; qtot 23.474295
  707         hc     24    bbb    H11    707 0.09515400   1.008000   ; qtot 23.569449
  708         hc     24    bbb    H12    708 0.09515400   1.008000   ; qtot 23.664603
  709         c3     24    bbb     C7    709 0.21842400  12.010000   ; qtot 23.883027
  710         h1     24    bbb    H13    710 0.04500300   1.008000   ; qtot 23.928030
  711         h1     24    bbb    H14    711 0.04500300   1.008000   ; qtot 23.973033
  712         c3     24    bbb     C8    712 -0.06455200  12.010000   ; qtot 23.908481
  713         h1     24    bbb    H15    713 0.13554100   1.008000   ; qtot 24.044022
  714         h1     24    bbb    H16    714 0.13554100   1.008000   ; qtot 24.179563
  715         c3     24    bbb     C9    715 -0.06455200  12.010000   ; qtot 24.115011
  716         h1     24    bbb    H17    716 0.13554100   1.008000   ; qtot 24.250552
  717         h1     24    bbb    H18    717 0.13554100   1.008000   ; qtot 24.386093
  718         os     24    bbb     O1    718 -0.62587700  16.000000   ; qtot 23.760216
  719         hn     24    bbb    H19    719 0.23982500   1.008000   ; qtot 24.000041
; residue   25 bbb rtp bbb q 1.0
  720         n4     25    bbb     N1    720 0.03726400  14.010000   ; qtot 24.037305
  721         c3     25    bbb     C1    721 -0.07020100  12.010000   ; qtot 23.967104
  722         hx     25    bbb     H1    722 0.12219000   1.008000   ; qtot 24.089294
  723         hx     25    bbb     H2    723 0.12219000   1.008000   ; qtot 24.211484
  724         c3     25    bbb     C2    724 -0.07020100  12.010000   ; qtot 24.141283
  725         hx     25    bbb     H3    725 0.12219000   1.008000   ; qtot 24.263473
  726         hx     25    bbb     H4    726 0.12219000   1.008000   ; qtot 24.385663
  727         c3     25    bbb     C3    727 -0.39007700  12.010000   ; qtot 23.995586
  728         hx     25    bbb     H5    728 0.14940300   1.008000   ; qtot 24.144989
  729         hx     25    bbb     H6    729 0.14940300   1.008000   ; qtot 24.294392
  730         c3     25    bbb     C4    730 0.18057300  12.010000   ; qtot 24.474965
  731         hc     25    bbb     H7    731 0.01788900   1.008000   ; qtot 24.492854
  732         hc     25    bbb     H8    732 0.01788900   1.008000   ; qtot 24.510743
  733         c3     25    bbb     C5    733 -0.11337700  12.010000   ; qtot 24.397366
  734         hc     25    bbb     H9    734 0.09515400   1.008000   ; qtot 24.492520
  735         hc     25    bbb    H10    735 0.09515400   1.008000   ; qtot 24.587674
  736         c3     25    bbb     C6    736 -0.11337700  12.010000   ; qtot 24.474297
  737         hc     25    bbb    H11    737 0.09515400   1.008000   ; qtot 24.569451
  738         hc     25    bbb    H12    738 0.09515400   1.008000   ; qtot 24.664605
  739         c3     25    bbb     C7    739 0.21842400  12.010000   ; qtot 24.883029
  740         h1     25    bbb    H13    740 0.04500300   1.008000   ; qtot 24.928032
  741         h1     25    bbb    H14    741 0.04500300   1.008000   ; qtot 24.973035
  742         c3     25    bbb     C8    742 -0.06455200  12.010000   ; qtot 24.908483
  743         h1     25    bbb    H15    743 0.13554100   1.008000   ; qtot 25.044024
  744         h1     25    bbb    H16    744 0.13554100   1.008000   ; qtot 25.179565
  745         c3     25    bbb     C9    745 -0.06455200  12.010000   ; qtot 25.115013
  746         h1     25    bbb    H17    746 0.13554100   1.008000   ; qtot 25.250554
  747         h1     25    bbb    H18    747 0.13554100   1.008000   ; qtot 25.386095
  748         os     25    bbb     O1    748 -0.62587700  16.000000   ; qtot 24.760218
  749         hn     25    bbb    H19    749 0.23982500   1.008000   ; qtot 25.000043
; residue   26 bbb rtp bbb q 1.0
  750         n4     26    bbb     N1    750 0.03726400  14.010000   ; qtot 25.037307
  751         c3     26    bbb     C1    751 -0.07020100  12.010000   ; qtot 24.967106
  752         hx     26    bbb     H1    752 0.12219000   1.008000   ; qtot 25.089296
  753         hx     26    bbb     H2    753 0.12219000   1.008000   ; qtot 25.211486
  754         c3     26    bbb     C2    754 -0.07020100  12.010000   ; qtot 25.141285
  755         hx     26    bbb     H3    755 0.12219000   1.008000   ; qtot 25.263475
  756         hx     26    bbb     H4    756 0.12219000   1.008000   ; qtot 25.385665
  757         c3     26    bbb     C3    757 -0.39007700  12.010000   ; qtot 24.995588
  758         hx     26    bbb     H5    758 0.14940300   1.008000   ; qtot 25.144991
  759         hx     26    bbb     H6    759 0.14940300   1.008000   ; qtot 25.294394
  760         c3     26    bbb     C4    760 0.18057300  12.010000   ; qtot 25.474967
  761         hc     26    bbb     H7    761 0.01788900   1.008000   ; qtot 25.492856
  762         hc     26    bbb     H8    762 0.01788900   1.008000   ; qtot 25.510745
  763         c3     26    bbb     C5    763 -0.11337700  12.010000   ; qtot 25.397368
  764         hc     26    bbb     H9    764 0.09515400   1.008000   ; qtot 25.492522
  765         hc     26    bbb    H10    765 0.09515400   1.008000   ; qtot 25.587676
  766         c3     26    bbb     C6    766 -0.11337700  12.010000   ; qtot 25.474299
  767         hc     26    bbb    H11    767 0.09515400   1.008000   ; qtot 25.569453
  768         hc     26    bbb    H12    768 0.09515400   1.008000   ; qtot 25.664607
  769         c3     26    bbb     C7    769 0.21842400  12.010000   ; qtot 25.883031
  770         h1     26    bbb    H13    770 0.04500300   1.008000   ; qtot 25.928034
  771         h1     26    bbb    H14    771 0.04500300   1.008000   ; qtot 25.973037
  772         c3     26    bbb     C8    772 -0.06455200  12.010000   ; qtot 25.908485
  773         h1     26    bbb    H15    773 0.13554100   1.008000   ; qtot 26.044026
  774         h1     26    bbb    H16    774 0.13554100   1.008000   ; qtot 26.179567
  775         c3     26    bbb     C9    775 -0.06455200  12.010000   ; qtot 26.115015
  776         h1     26    bbb    H17    776 0.13554100   1.008000   ; qtot 26.250556
  777         h1     26    bbb    H18    777 0.13554100   1.008000   ; qtot 26.386097
  778         os     26    bbb     O1    778 -0.62587700  16.000000   ; qtot 25.760220
  779         hn     26    bbb    H19    779 0.23982500   1.008000   ; qtot 26.000045
; residue   27 bbb rtp bbb q 1.0
  780         n4     27    bbb     N1    780 0.03726400  14.010000   ; qtot 26.037309
  781         c3     27    bbb     C1    781 -0.07020100  12.010000   ; qtot 25.967108
  782         hx     27    bbb     H1    782 0.12219000   1.008000   ; qtot 26.089298
  783         hx     27    bbb     H2    783 0.12219000   1.008000   ; qtot 26.211488
  784         c3     27    bbb     C2    784 -0.07020100  12.010000   ; qtot 26.141287
  785         hx     27    bbb     H3    785 0.12219000   1.008000   ; qtot 26.263477
  786         hx     27    bbb     H4    786 0.12219000   1.008000   ; qtot 26.385667
  787         c3     27    bbb     C3    787 -0.39007700  12.010000   ; qtot 25.995590
  788         hx     27    bbb     H5    788 0.14940300   1.008000   ; qtot 26.144993
  789         hx     27    bbb     H6    789 0.14940300   1.008000   ; qtot 26.294396
  790         c3     27    bbb     C4    790 0.18057300  12.010000   ; qtot 26.474969
  791         hc     27    bbb     H7    791 0.01788900   1.008000   ; qtot 26.492858
  792         hc     27    bbb     H8    792 0.01788900   1.008000   ; qtot 26.510747
  793         c3     27    bbb     C5    793 -0.11337700  12.010000   ; qtot 26.397370
  794         hc     27    bbb     H9    794 0.09515400   1.008000   ; qtot 26.492524
  795         hc     27    bbb    H10    795 0.09515400   1.008000   ; qtot 26.587678
  796         c3     27    bbb     C6    796 -0.11337700  12.010000   ; qtot 26.474301
  797         hc     27    bbb    H11    797 0.09515400   1.008000   ; qtot 26.569455
  798         hc     27    bbb    H12    798 0.09515400   1.008000   ; qtot 26.664609
  799         c3     27    bbb     C7    799 0.21842400  12.010000   ; qtot 26.883033
  800         h1     27    bbb    H13    800 0.04500300   1.008000   ; qtot 26.928036
  801         h1     27    bbb    H14    801 0.04500300   1.008000   ; qtot 26.973039
  802         c3     27    bbb     C8    802 -0.06455200  12.010000   ; qtot 26.908487
  803         h1     27    bbb    H15    803 0.13554100   1.008000   ; qtot 27.044028
  804         h1     27    bbb    H16    804 0.13554100   1.008000   ; qtot 27.179569
  805         c3     27    bbb     C9    805 -0.06455200  12.010000   ; qtot 27.115017
  806         h1     27    bbb    H17    806 0.13554100   1.008000   ; qtot 27.250558
  807         h1     27    bbb    H18    807 0.13554100   1.008000   ; qtot 27.386099
  808         os     27    bbb     O1    808 -0.62587700  16.000000   ; qtot 26.760222
  809         hn     27    bbb    H19    809 0.23982500   1.008000   ; qtot 27.000047
; residue   28 bbb rtp bbb q 1.0
  810         n4     28    bbb     N1    810 0.03726400  14.010000   ; qtot 27.037311
  811         c3     28    bbb     C1    811 -0.07020100  12.010000   ; qtot 26.967110
  812         hx     28    bbb     H1    812 0.12219000   1.008000   ; qtot 27.089300
  813         hx     28    bbb     H2    813 0.12219000   1.008000   ; qtot 27.211490
  814         c3     28    bbb     C2    814 -0.07020100  12.010000   ; qtot 27.141289
  815         hx     28    bbb     H3    815 0.12219000   1.008000   ; qtot 27.263479
  816         hx     28    bbb     H4    816 0.12219000   1.008000   ; qtot 27.385669
  817         c3     28    bbb     C3    817 -0.39007700  12.010000   ; qtot 26.995592
  818         hx     28    bbb     H5    818 0.14940300   1.008000   ; qtot 27.144995
  819         hx     28    bbb     H6    819 0.14940300   1.008000   ; qtot 27.294398
  820         c3     28    bbb     C4    820 0.18057300  12.010000   ; qtot 27.474971
  821         hc     28    bbb     H7    821 0.01788900   1.008000   ; qtot 27.492860
  822         hc     28    bbb     H8    822 0.01788900   1.008000   ; qtot 27.510749
  823         c3     28    bbb     C5    823 -0.11337700  12.010000   ; qtot 27.397372
  824         hc     28    bbb     H9    824 0.09515400   1.008000   ; qtot 27.492526
  825         hc     28    bbb    H10    825 0.09515400   1.008000   ; qtot 27.587680
  826         c3     28    bbb     C6    826 -0.11337700  12.010000   ; qtot 27.474303
  827         hc     28    bbb    H11    827 0.09515400   1.008000   ; qtot 27.569457
  828         hc     28    bbb    H12    828 0.09515400   1.008000   ; qtot 27.664611
  829         c3     28    bbb     C7    829 0.21842400  12.010000   ; qtot 27.883035
  830         h1     28    bbb    H13    830 0.04500300   1.008000   ; qtot 27.928038
  831         h1     28    bbb    H14    831 0.04500300   1.008000   ; qtot 27.973041
  832         c3     28    bbb     C8    832 -0.06455200  12.010000   ; qtot 27.908489
  833         h1     28    bbb    H15    833 0.13554100   1.008000   ; qtot 28.044030
  834         h1     28    bbb    H16    834 0.13554100   1.008000   ; qtot 28.179571
  835         c3     28    bbb     C9    835 -0.06455200  12.010000   ; qtot 28.115019
  836         h1     28    bbb    H17    836 0.13554100   1.008000   ; qtot 28.250560
  837         h1     28    bbb    H18    837 0.13554100   1.008000   ; qtot 28.386101
  838         os     28    bbb     O1    838 -0.62587700  16.000000   ; qtot 27.760224
  839         hn     28    bbb    H19    839 0.23982500   1.008000   ; qtot 28.000049
; residue   29 bbb rtp bbb q 1.0
  840         n4     29    bbb     N1    840 0.03726400  14.010000   ; qtot 28.037313
  841         c3     29    bbb     C1    841 -0.07020100  12.010000   ; qtot 27.967112
  842         hx     29    bbb     H1    842 0.12219000   1.008000   ; qtot 28.089302
  843         hx     29    bbb     H2    843 0.12219000   1.008000   ; qtot 28.211492
  844         c3     29    bbb     C2    844 -0.07020100  12.010000   ; qtot 28.141291
  845         hx     29    bbb     H3    845 0.12219000   1.008000   ; qtot 28.263481
  846         hx     29    bbb     H4    846 0.12219000   1.008000   ; qtot 28.385671
  847         c3     29    bbb     C3    847 -0.39007700  12.010000   ; qtot 27.995594
  848         hx     29    bbb     H5    848 0.14940300   1.008000   ; qtot 28.144997
  849         hx     29    bbb     H6    849 0.14940300   1.008000   ; qtot 28.294400
  850         c3     29    bbb     C4    850 0.18057300  12.010000   ; qtot 28.474973
  851         hc     29    bbb     H7    851 0.01788900   1.008000   ; qtot 28.492862
  852         hc     29    bbb     H8    852 0.01788900   1.008000   ; qtot 28.510751
  853         c3     29    bbb     C5    853 -0.11337700  12.010000   ; qtot 28.397374
  854         hc     29    bbb     H9    854 0.09515400   1.008000   ; qtot 28.492528
  855         hc     29    bbb    H10    855 0.09515400   1.008000   ; qtot 28.587682
  856         c3     29    bbb     C6    856 -0.11337700  12.010000   ; qtot 28.474305
  857         hc     29    bbb    H11    857 0.09515400   1.008000   ; qtot 28.569459
  858         hc     29    bbb    H12    858 0.09515400   1.008000   ; qtot 28.664613
  859         c3     29    bbb     C7    859 0.21842400  12.010000   ; qtot 28.883037
  860         h1     29    bbb    H13    860 0.04500300   1.008000   ; qtot 28.928040
  861         h1     29    bbb    H14    861 0.04500300   1.008000   ; qtot 28.973043
  862         c3     29    bbb     C8    862 -0.06455200  12.010000   ; qtot 28.908491
  863         h1     29    bbb    H15    863 0.13554100   1.008000   ; qtot 29.044032
  864         h1     29    bbb    H16    864 0.13554100   1.008000   ; qtot 29.179573
  865         c3     29    bbb     C9    865 -0.06455200  12.010000   ; qtot 29.115021
  866         h1     29    bbb    H17    866 0.13554100   1.008000   ; qtot 29.250562
  867         h1     29    bbb    H18    867 0.13554100   1.008000   ; qtot 29.386103
  868         os     29    bbb     O1    868 -0.62587700  16.000000   ; qtot 28.760226
  869         hn     29    bbb    H19    869 0.23982500   1.008000   ; qtot 29.000051
; residue   30 bbb rtp bbb q 1.0
  870         n4     30    bbb     N1    870 0.03726400  14.010000   ; qtot 29.037315
  871         c3     30    bbb     C1    871 -0.07020100  12.010000   ; qtot 28.967114
  872         hx     30    bbb     H1    872 0.12219000   1.008000   ; qtot 29.089304
  873         hx     30    bbb     H2    873 0.12219000   1.008000   ; qtot 29.211494
  874         c3     30    bbb     C2    874 -0.07020100  12.010000   ; qtot 29.141293
  875         hx     30    bbb     H3    875 0.12219000   1.008000   ; qtot 29.263483
  876         hx     30    bbb     H4    876 0.12219000   1.008000   ; qtot 29.385673
  877         c3     30    bbb     C3    877 -0.39007700  12.010000   ; qtot 28.995596
  878         hx     30    bbb     H5    878 0.14940300   1.008000   ; qtot 29.144999
  879         hx     30    bbb     H6    879 0.14940300   1.008000   ; qtot 29.294402
  880         c3     30    bbb     C4    880 0.18057300  12.010000   ; qtot 29.474975
  881         hc     30    bbb     H7    881 0.01788900   1.008000   ; qtot 29.492864
  882         hc     30    bbb     H8    882 0.01788900   1.008000   ; qtot 29.510753
  883         c3     30    bbb     C5    883 -0.11337700  12.010000   ; qtot 29.397376
  884         hc     30    bbb     H9    884 0.09515400   1.008000   ; qtot 29.492530
  885         hc     30    bbb    H10    885 0.09515400   1.008000   ; qtot 29.587684
  886         c3     30    bbb     C6    886 -0.11337700  12.010000   ; qtot 29.474307
  887         hc     30    bbb    H11    887 0.09515400   1.008000   ; qtot 29.569461
  888         hc     30    bbb    H12    888 0.09515400   1.008000   ; qtot 29.664615
  889         c3     30    bbb     C7    889 0.21842400  12.010000   ; qtot 29.883039
  890         h1     30    bbb    H13    890 0.04500300   1.008000   ; qtot 29.928042
  891         h1     30    bbb    H14    891 0.04500300   1.008000   ; qtot 29.973045
  892         c3     30    bbb     C8    892 -0.06455200  12.010000   ; qtot 29.908493
  893         h1     30    bbb    H15    893 0.13554100   1.008000   ; qtot 30.044034
  894         h1     30    bbb    H16    894 0.13554100   1.008000   ; qtot 30.179575
  895         c3     30    bbb     C9    895 -0.06455200  12.010000   ; qtot 30.115023
  896         h1     30    bbb    H17    896 0.13554100   1.008000   ; qtot 30.250564
  897         h1     30    bbb    H18    897 0.13554100   1.008000   ; qtot 30.386105
  898         os     30    bbb     O1    898 -0.62587700  16.000000   ; qtot 29.760228
  899         hn     30    bbb    H19    899 0.23982500   1.008000   ; qtot 30.000053
; residue   31 bbb rtp bbb q 1.0
  900         n4     31    bbb     N1    900 0.03726400  14.010000   ; qtot 30.037317
  901         c3     31    bbb     C1    901 -0.07020100  12.010000   ; qtot 29.967116
  902         hx     31    bbb     H1    902 0.12219000   1.008000   ; qtot 30.089306
  903         hx     31    bbb     H2    903 0.12219000   1.008000   ; qtot 30.211496
  904         c3     31    bbb     C2    904 -0.07020100  12.010000   ; qtot 30.141295
  905         hx     31    bbb     H3    905 0.12219000   1.008000   ; qtot 30.263485
  906         hx     31    bbb     H4    906 0.12219000   1.008000   ; qtot 30.385675
  907         c3     31    bbb     C3    907 -0.39007700  12.010000   ; qtot 29.995598
  908         hx     31    bbb     H5    908 0.14940300   1.008000   ; qtot 30.145001
  909         hx     31    bbb     H6    909 0.14940300   1.008000   ; qtot 30.294404
  910         c3     31    bbb     C4    910 0.18057300  12.010000   ; qtot 30.474977
  911         hc     31    bbb     H7    911 0.01788900   1.008000   ; qtot 30.492866
  912         hc     31    bbb     H8    912 0.01788900   1.008000   ; qtot 30.510755
  913         c3     31    bbb     C5    913 -0.11337700  12.010000   ; qtot 30.397378
  914         hc     31    bbb     H9    914 0.09515400   1.008000   ; qtot 30.492532
  915         hc     31    bbb    H10    915 0.09515400   1.008000   ; qtot 30.587686
  916         c3     31    bbb     C6    916 -0.11337700  12.010000   ; qtot 30.474309
  917         hc     31    bbb    H11    917 0.09515400   1.008000   ; qtot 30.569463
  918         hc     31    bbb    H12    918 0.09515400   1.008000   ; qtot 30.664617
  919         c3     31    bbb     C7    919 0.21842400  12.010000   ; qtot 30.883041
  920         h1     31    bbb    H13    920 0.04500300   1.008000   ; qtot 30.928044
  921         h1     31    bbb    H14    921 0.04500300   1.008000   ; qtot 30.973047
  922         c3     31    bbb     C8    922 -0.06455200  12.010000   ; qtot 30.908495
  923         h1     31    bbb    H15    923 0.13554100   1.008000   ; qtot 31.044036
  924         h1     31    bbb    H16    924 0.13554100   1.008000   ; qtot 31.179577
  925         c3     31    bbb     C9    925 -0.06455200  12.010000   ; qtot 31.115025
  926         h1     31    bbb    H17    926 0.13554100   1.008000   ; qtot 31.250566
  927         h1     31    bbb    H18    927 0.13554100   1.008000   ; qtot 31.386107
  928         os     31    bbb     O1    928 -0.62587700  16.000000   ; qtot 30.760230
  929         hn     31    bbb    H19    929 0.23982500   1.008000   ; qtot 31.000055
; residue   32 bbb rtp bbb q 1.0
  930         n4     32    bbb     N1    930 0.03726400  14.010000   ; qtot 31.037319
  931         c3     32    bbb     C1    931 -0.07020100  12.010000   ; qtot 30.967118
  932         hx     32    bbb     H1    932 0.12219000   1.008000   ; qtot 31.089308
  933         hx     32    bbb     H2    933 0.12219000   1.008000   ; qtot 31.211498
  934         c3     32    bbb     C2    934 -0.07020100  12.010000   ; qtot 31.141297
  935         hx     32    bbb     H3    935 0.12219000   1.008000   ; qtot 31.263487
  936         hx     32    bbb     H4    936 0.12219000   1.008000   ; qtot 31.385677
  937         c3     32    bbb     C3    937 -0.39007700  12.010000   ; qtot 30.995600
  938         hx     32    bbb     H5    938 0.14940300   1.008000   ; qtot 31.145003
  939         hx     32    bbb     H6    939 0.14940300   1.008000   ; qtot 31.294406
  940         c3     32    bbb     C4    940 0.18057300  12.010000   ; qtot 31.474979
  941         hc     32    bbb     H7    941 0.01788900   1.008000   ; qtot 31.492868
  942         hc     32    bbb     H8    942 0.01788900   1.008000   ; qtot 31.510757
  943         c3     32    bbb     C5    943 -0.11337700  12.010000   ; qtot 31.397380
  944         hc     32    bbb     H9    944 0.09515400   1.008000   ; qtot 31.492534
  945         hc     32    bbb    H10    945 0.09515400   1.008000   ; qtot 31.587688
  946         c3     32    bbb     C6    946 -0.11337700  12.010000   ; qtot 31.474311
  947         hc     32    bbb    H11    947 0.09515400   1.008000   ; qtot 31.569465
  948         hc     32    bbb    H12    948 0.09515400   1.008000   ; qtot 31.664619
  949         c3     32    bbb     C7    949 0.21842400  12.010000   ; qtot 31.883043
  950         h1     32    bbb    H13    950 0.04500300   1.008000   ; qtot 31.928046
  951         h1     32    bbb    H14    951 0.04500300   1.008000   ; qtot 31.973049
  952         c3     32    bbb     C8    952 -0.06455200  12.010000   ; qtot 31.908497
  953         h1     32    bbb    H15    953 0.13554100   1.008000   ; qtot 32.044038
  954         h1     32    bbb    H16    954 0.13554100   1.008000   ; qtot 32.179579
  955         c3     32    bbb     C9    955 -0.06455200  12.010000   ; qtot 32.115027
  956         h1     32    bbb    H17    956 0.13554100   1.008000   ; qtot 32.250568
  957         h1     32    bbb    H18    957 0.13554100   1.008000   ; qtot 32.386109
  958         os     32    bbb     O1    958 -0.62587700  16.000000   ; qtot 31.760232
  959         hn     32    bbb    H19    959 0.23982500   1.008000   ; qtot 32.000057
; residue   33 bbb rtp bbb q 1.0
  960         n4     33    bbb     N1    960 0.03726400  14.010000   ; qtot 32.037321
  961         c3     33    bbb     C1    961 -0.07020100  12.010000   ; qtot 31.967120
  962         hx     33    bbb     H1    962 0.12219000   1.008000   ; qtot 32.089310
  963         hx     33    bbb     H2    963 0.12219000   1.008000   ; qtot 32.211500
  964         c3     33    bbb     C2    964 -0.07020100  12.010000   ; qtot 32.141299
  965         hx     33    bbb     H3    965 0.12219000   1.008000   ; qtot 32.263489
  966         hx     33    bbb     H4    966 0.12219000   1.008000   ; qtot 32.385679
  967         c3     33    bbb     C3    967 -0.39007700  12.010000   ; qtot 31.995602
  968         hx     33    bbb     H5    968 0.14940300   1.008000   ; qtot 32.145005
  969         hx     33    bbb     H6    969 0.14940300   1.008000   ; qtot 32.294408
  970         c3     33    bbb     C4    970 0.18057300  12.010000   ; qtot 32.474981
  971         hc     33    bbb     H7    971 0.01788900   1.008000   ; qtot 32.492870
  972         hc     33    bbb     H8    972 0.01788900   1.008000   ; qtot 32.510759
  973         c3     33    bbb     C5    973 -0.11337700  12.010000   ; qtot 32.397382
  974         hc     33    bbb     H9    974 0.09515400   1.008000   ; qtot 32.492536
  975         hc     33    bbb    H10    975 0.09515400   1.008000   ; qtot 32.587690
  976         c3     33    bbb     C6    976 -0.11337700  12.010000   ; qtot 32.474313
  977         hc     33    bbb    H11    977 0.09515400   1.008000   ; qtot 32.569467
  978         hc     33    bbb    H12    978 0.09515400   1.008000   ; qtot 32.664621
  979         c3     33    bbb     C7    979 0.21842400  12.010000   ; qtot 32.883045
  980         h1     33    bbb    H13    980 0.04500300   1.008000   ; qtot 32.928048
  981         h1     33    bbb    H14    981 0.04500300   1.008000   ; qtot 32.973051
  982         c3     33    bbb     C8    982 -0.06455200  12.010000   ; qtot 32.908499
  983         h1     33    bbb    H15    983 0.13554100   1.008000   ; qtot 33.044040
  984         h1     33    bbb    H16    984 0.13554100   1.008000   ; qtot 33.179581
  985         c3     33    bbb     C9    985 -0.06455200  12.010000   ; qtot 33.115029
  986         h1     33    bbb    H17    986 0.13554100   1.008000   ; qtot 33.250570
  987         h1     33    bbb    H18    987 0.13554100   1.008000   ; qtot 33.386111
  988         os     33    bbb     O1    988 -0.62587700  16.000000   ; qtot 32.760234
  989         hn     33    bbb    H19    989 0.23982500   1.008000   ; qtot 33.000059
; residue   34 bbb rtp bbb q 1.0
  990         n4     34    bbb     N1    990 0.03726400  14.010000   ; qtot 33.037323
  991         c3     34    bbb     C1    991 -0.07020100  12.010000   ; qtot 32.967122
  992         hx     34    bbb     H1    992 0.12219000   1.008000   ; qtot 33.089312
  993         hx     34    bbb     H2    993 0.12219000   1.008000   ; qtot 33.211502
  994         c3     34    bbb     C2    994 -0.07020100  12.010000   ; qtot 33.141301
  995         hx     34    bbb     H3    995 0.12219000   1.008000   ; qtot 33.263491
  996         hx     34    bbb     H4    996 0.12219000   1.008000   ; qtot 33.385681
  997         c3     34    bbb     C3    997 -0.39007700  12.010000   ; qtot 32.995604
  998         hx     34    bbb     H5    998 0.14940300   1.008000   ; qtot 33.145007
  999         hx     34    bbb     H6    999 0.14940300   1.008000   ; qtot 33.294410
 1000         c3     34    bbb     C4   1000 0.18057300  12.010000   ; qtot 33.474983
 1001         hc     34    bbb     H7   1001 0.01788900   1.008000   ; qtot 33.492872
 1002         hc     34    bbb     H8   1002 0.01788900   1.008000   ; qtot 33.510761
 1003         c3     34    bbb     C5   1003 -0.11337700  12.010000   ; qtot 33.397384
 1004         hc     34    bbb     H9   1004 0.09515400   1.008000   ; qtot 33.492538
 1005         hc     34    bbb    H10   1005 0.09515400   1.008000   ; qtot 33.587692
 1006         c3     34    bbb     C6   1006 -0.11337700  12.010000   ; qtot 33.474315
 1007         hc     34    bbb    H11   1007 0.09515400   1.008000   ; qtot 33.569469
 1008         hc     34    bbb    H12   1008 0.09515400   1.008000   ; qtot 33.664623
 1009         c3     34    bbb     C7   1009 0.21842400  12.010000   ; qtot 33.883047
 1010         h1     34    bbb    H13   1010 0.04500300   1.008000   ; qtot 33.928050
 1011         h1     34    bbb    H14   1011 0.04500300   1.008000   ; qtot 33.973053
 1012         c3     34    bbb     C8   1012 -0.06455200  12.010000   ; qtot 33.908501
 1013         h1     34    bbb    H15   1013 0.13554100   1.008000   ; qtot 34.044042
 1014         h1     34    bbb    H16   1014 0.13554100   1.008000   ; qtot 34.179583
 1015         c3     34    bbb     C9   1015 -0.06455200  12.010000   ; qtot 34.115031
 1016         h1     34    bbb    H17   1016 0.13554100   1.008000   ; qtot 34.250572
 1017         h1     34    bbb    H18   1017 0.13554100   1.008000   ; qtot 34.386113
 1018         os     34    bbb     O1   1018 -0.62587700  16.000000   ; qtot 33.760236
 1019         hn     34    bbb    H19   1019 0.23982500   1.008000   ; qtot 34.000061
; residue   35 bbb rtp bbb q 1.0
 1020         n4     35    bbb     N1   1020 0.03726400  14.010000   ; qtot 34.037325
 1021         c3     35    bbb     C1   1021 -0.07020100  12.010000   ; qtot 33.967124
 1022         hx     35    bbb     H1   1022 0.12219000   1.008000   ; qtot 34.089314
 1023         hx     35    bbb     H2   1023 0.12219000   1.008000   ; qtot 34.211504
 1024         c3     35    bbb     C2   1024 -0.07020100  12.010000   ; qtot 34.141303
 1025         hx     35    bbb     H3   1025 0.12219000   1.008000   ; qtot 34.263493
 1026         hx     35    bbb     H4   1026 0.12219000   1.008000   ; qtot 34.385683
 1027         c3     35    bbb     C3   1027 -0.39007700  12.010000   ; qtot 33.995606
 1028         hx     35    bbb     H5   1028 0.14940300   1.008000   ; qtot 34.145009
 1029         hx     35    bbb     H6   1029 0.14940300   1.008000   ; qtot 34.294412
 1030         c3     35    bbb     C4   1030 0.18057300  12.010000   ; qtot 34.474985
 1031         hc     35    bbb     H7   1031 0.01788900   1.008000   ; qtot 34.492874
 1032         hc     35    bbb     H8   1032 0.01788900   1.008000   ; qtot 34.510763
 1033         c3     35    bbb     C5   1033 -0.11337700  12.010000   ; qtot 34.397386
 1034         hc     35    bbb     H9   1034 0.09515400   1.008000   ; qtot 34.492540
 1035         hc     35    bbb    H10   1035 0.09515400   1.008000   ; qtot 34.587694
 1036         c3     35    bbb     C6   1036 -0.11337700  12.010000   ; qtot 34.474317
 1037         hc     35    bbb    H11   1037 0.09515400   1.008000   ; qtot 34.569471
 1038         hc     35    bbb    H12   1038 0.09515400   1.008000   ; qtot 34.664625
 1039         c3     35    bbb     C7   1039 0.21842400  12.010000   ; qtot 34.883049
 1040         h1     35    bbb    H13   1040 0.04500300   1.008000   ; qtot 34.928052
 1041         h1     35    bbb    H14   1041 0.04500300   1.008000   ; qtot 34.973055
 1042         c3     35    bbb     C8   1042 -0.06455200  12.010000   ; qtot 34.908503
 1043         h1     35    bbb    H15   1043 0.13554100   1.008000   ; qtot 35.044044
 1044         h1     35    bbb    H16   1044 0.13554100   1.008000   ; qtot 35.179585
 1045         c3     35    bbb     C9   1045 -0.06455200  12.010000   ; qtot 35.115033
 1046         h1     35    bbb    H17   1046 0.13554100   1.008000   ; qtot 35.250574
 1047         h1     35    bbb    H18   1047 0.13554100   1.008000   ; qtot 35.386115
 1048         os     35    bbb     O1   1048 -0.62587700  16.000000   ; qtot 34.760238
 1049         hn     35    bbb    H19   1049 0.23982500   1.008000   ; qtot 35.000063
; residue   36 bbb rtp bbb q 1.0
 1050         n4     36    bbb     N1   1050 0.03726400  14.010000   ; qtot 35.037327
 1051         c3     36    bbb     C1   1051 -0.07020100  12.010000   ; qtot 34.967126
 1052         hx     36    bbb     H1   1052 0.12219000   1.008000   ; qtot 35.089316
 1053         hx     36    bbb     H2   1053 0.12219000   1.008000   ; qtot 35.211506
 1054         c3     36    bbb     C2   1054 -0.07020100  12.010000   ; qtot 35.141305
 1055         hx     36    bbb     H3   1055 0.12219000   1.008000   ; qtot 35.263495
 1056         hx     36    bbb     H4   1056 0.12219000   1.008000   ; qtot 35.385685
 1057         c3     36    bbb     C3   1057 -0.39007700  12.010000   ; qtot 34.995608
 1058         hx     36    bbb     H5   1058 0.14940300   1.008000   ; qtot 35.145011
 1059         hx     36    bbb     H6   1059 0.14940300   1.008000   ; qtot 35.294414
 1060         c3     36    bbb     C4   1060 0.18057300  12.010000   ; qtot 35.474987
 1061         hc     36    bbb     H7   1061 0.01788900   1.008000   ; qtot 35.492876
 1062         hc     36    bbb     H8   1062 0.01788900   1.008000   ; qtot 35.510765
 1063         c3     36    bbb     C5   1063 -0.11337700  12.010000   ; qtot 35.397388
 1064         hc     36    bbb     H9   1064 0.09515400   1.008000   ; qtot 35.492542
 1065         hc     36    bbb    H10   1065 0.09515400   1.008000   ; qtot 35.587696
 1066         c3     36    bbb     C6   1066 -0.11337700  12.010000   ; qtot 35.474319
 1067         hc     36    bbb    H11   1067 0.09515400   1.008000   ; qtot 35.569473
 1068         hc     36    bbb    H12   1068 0.09515400   1.008000   ; qtot 35.664627
 1069         c3     36    bbb     C7   1069 0.21842400  12.010000   ; qtot 35.883051
 1070         h1     36    bbb    H13   1070 0.04500300   1.008000   ; qtot 35.928054
 1071         h1     36    bbb    H14   1071 0.04500300   1.008000   ; qtot 35.973057
 1072         c3     36    bbb     C8   1072 -0.06455200  12.010000   ; qtot 35.908505
 1073         h1     36    bbb    H15   1073 0.13554100   1.008000   ; qtot 36.044046
 1074         h1     36    bbb    H16   1074 0.13554100   1.008000   ; qtot 36.179587
 1075         c3     36    bbb     C9   1075 -0.06455200  12.010000   ; qtot 36.115035
 1076         h1     36    bbb    H17   1076 0.13554100   1.008000   ; qtot 36.250576
 1077         h1     36    bbb    H18   1077 0.13554100   1.008000   ; qtot 36.386117
 1078         os     36    bbb     O1   1078 -0.62587700  16.000000   ; qtot 35.760240
 1079         hn     36    bbb    H19   1079 0.23982500   1.008000   ; qtot 36.000065
; residue   37 bbb rtp bbb q 1.0
 1080         n4     37    bbb     N1   1080 0.03726400  14.010000   ; qtot 36.037329
 1081         c3     37    bbb     C1   1081 -0.07020100  12.010000   ; qtot 35.967128
 1082         hx     37    bbb     H1   1082 0.12219000   1.008000   ; qtot 36.089318
 1083         hx     37    bbb     H2   1083 0.12219000   1.008000   ; qtot 36.211508
 1084         c3     37    bbb     C2   1084 -0.07020100  12.010000   ; qtot 36.141307
 1085         hx     37    bbb     H3   1085 0.12219000   1.008000   ; qtot 36.263497
 1086         hx     37    bbb     H4   1086 0.12219000   1.008000   ; qtot 36.385687
 1087         c3     37    bbb     C3   1087 -0.39007700  12.010000   ; qtot 35.995610
 1088         hx     37    bbb     H5   1088 0.14940300   1.008000   ; qtot 36.145013
 1089         hx     37    bbb     H6   1089 0.14940300   1.008000   ; qtot 36.294416
 1090         c3     37    bbb     C4   1090 0.18057300  12.010000   ; qtot 36.474989
 1091         hc     37    bbb     H7   1091 0.01788900   1.008000   ; qtot 36.492878
 1092         hc     37    bbb     H8   1092 0.01788900   1.008000   ; qtot 36.510767
 1093         c3     37    bbb     C5   1093 -0.11337700  12.010000   ; qtot 36.397390
 1094         hc     37    bbb     H9   1094 0.09515400   1.008000   ; qtot 36.492544
 1095         hc     37    bbb    H10   1095 0.09515400   1.008000   ; qtot 36.587698
 1096         c3     37    bbb     C6   1096 -0.11337700  12.010000   ; qtot 36.474321
 1097         hc     37    bbb    H11   1097 0.09515400   1.008000   ; qtot 36.569475
 1098         hc     37    bbb    H12   1098 0.09515400   1.008000   ; qtot 36.664629
 1099         c3     37    bbb     C7   1099 0.21842400  12.010000   ; qtot 36.883053
 1100         h1     37    bbb    H13   1100 0.04500300   1.008000   ; qtot 36.928056
 1101         h1     37    bbb    H14   1101 0.04500300   1.008000   ; qtot 36.973059
 1102         c3     37    bbb     C8   1102 -0.06455200  12.010000   ; qtot 36.908507
 1103         h1     37    bbb    H15   1103 0.13554100   1.008000   ; qtot 37.044048
 1104         h1     37    bbb    H16   1104 0.13554100   1.008000   ; qtot 37.179589
 1105         c3     37    bbb     C9   1105 -0.06455200  12.010000   ; qtot 37.115037
 1106         h1     37    bbb    H17   1106 0.13554100   1.008000   ; qtot 37.250578
 1107         h1     37    bbb    H18   1107 0.13554100   1.008000   ; qtot 37.386119
 1108         os     37    bbb     O1   1108 -0.62587700  16.000000   ; qtot 36.760242
 1109         hn     37    bbb    H19   1109 0.23982500   1.008000   ; qtot 37.000067
; residue   38 bbb rtp bbb q 1.0
 1110         n4     38    bbb     N1   1110 0.03726400  14.010000   ; qtot 37.037331
 1111         c3     38    bbb     C1   1111 -0.07020100  12.010000   ; qtot 36.967130
 1112         hx     38    bbb     H1   1112 0.12219000   1.008000   ; qtot 37.089320
 1113         hx     38    bbb     H2   1113 0.12219000   1.008000   ; qtot 37.211510
 1114         c3     38    bbb     C2   1114 -0.07020100  12.010000   ; qtot 37.141309
 1115         hx     38    bbb     H3   1115 0.12219000   1.008000   ; qtot 37.263499
 1116         hx     38    bbb     H4   1116 0.12219000   1.008000   ; qtot 37.385689
 1117         c3     38    bbb     C3   1117 -0.39007700  12.010000   ; qtot 36.995612
 1118         hx     38    bbb     H5   1118 0.14940300   1.008000   ; qtot 37.145015
 1119         hx     38    bbb     H6   1119 0.14940300   1.008000   ; qtot 37.294418
 1120         c3     38    bbb     C4   1120 0.18057300  12.010000   ; qtot 37.474991
 1121         hc     38    bbb     H7   1121 0.01788900   1.008000   ; qtot 37.492880
 1122         hc     38    bbb     H8   1122 0.01788900   1.008000   ; qtot 37.510769
 1123         c3     38    bbb     C5   1123 -0.11337700  12.010000   ; qtot 37.397392
 1124         hc     38    bbb     H9   1124 0.09515400   1.008000   ; qtot 37.492546
 1125         hc     38    bbb    H10   1125 0.09515400   1.008000   ; qtot 37.587700
 1126         c3     38    bbb     C6   1126 -0.11337700  12.010000   ; qtot 37.474323
 1127         hc     38    bbb    H11   1127 0.09515400   1.008000   ; qtot 37.569477
 1128         hc     38    bbb    H12   1128 0.09515400   1.008000   ; qtot 37.664631
 1129         c3     38    bbb     C7   1129 0.21842400  12.010000   ; qtot 37.883055
 1130         h1     38    bbb    H13   1130 0.04500300   1.008000   ; qtot 37.928058
 1131         h1     38    bbb    H14   1131 0.04500300   1.008000   ; qtot 37.973061
 1132         c3     38    bbb     C8   1132 -0.06455200  12.010000   ; qtot 37.908509
 1133         h1     38    bbb    H15   1133 0.13554100   1.008000   ; qtot 38.044050
 1134         h1     38    bbb    H16   1134 0.13554100   1.008000   ; qtot 38.179591
 1135         c3     38    bbb     C9   1135 -0.06455200  12.010000   ; qtot 38.115039
 1136         h1     38    bbb    H17   1136 0.13554100   1.008000   ; qtot 38.250580
 1137         h1     38    bbb    H18   1137 0.13554100   1.008000   ; qtot 38.386121
 1138         os     38    bbb     O1   1138 -0.62587700  16.000000   ; qtot 37.760244
 1139         hn     38    bbb    H19   1139 0.23982500   1.008000   ; qtot 38.000069
; residue   39 bbb rtp bbb q 1.0
 1140         n4     39    bbb     N1   1140 0.03726400  14.010000   ; qtot 38.037333
 1141         c3     39    bbb     C1   1141 -0.07020100  12.010000   ; qtot 37.967132
 1142         hx     39    bbb     H1   1142 0.12219000   1.008000   ; qtot 38.089322
 1143         hx     39    bbb     H2   1143 0.12219000   1.008000   ; qtot 38.211512
 1144         c3     39    bbb     C2   1144 -0.07020100  12.010000   ; qtot 38.141311
 1145         hx     39    bbb     H3   1145 0.12219000   1.008000   ; qtot 38.263501
 1146         hx     39    bbb     H4   1146 0.12219000   1.008000   ; qtot 38.385691
 1147         c3     39    bbb     C3   1147 -0.39007700  12.010000   ; qtot 37.995614
 1148         hx     39    bbb     H5   1148 0.14940300   1.008000   ; qtot 38.145017
 1149         hx     39    bbb     H6   1149 0.14940300   1.008000   ; qtot 38.294420
 1150         c3     39    bbb     C4   1150 0.18057300  12.010000   ; qtot 38.474993
 1151         hc     39    bbb     H7   1151 0.01788900   1.008000   ; qtot 38.492882
 1152         hc     39    bbb     H8   1152 0.01788900   1.008000   ; qtot 38.510771
 1153         c3     39    bbb     C5   1153 -0.11337700  12.010000   ; qtot 38.397394
 1154         hc     39    bbb     H9   1154 0.09515400   1.008000   ; qtot 38.492548
 1155         hc     39    bbb    H10   1155 0.09515400   1.008000   ; qtot 38.587702
 1156         c3     39    bbb     C6   1156 -0.11337700  12.010000   ; qtot 38.474325
 1157         hc     39    bbb    H11   1157 0.09515400   1.008000   ; qtot 38.569479
 1158         hc     39    bbb    H12   1158 0.09515400   1.008000   ; qtot 38.664633
 1159         c3     39    bbb     C7   1159 0.21842400  12.010000   ; qtot 38.883057
 1160         h1     39    bbb    H13   1160 0.04500300   1.008000   ; qtot 38.928060
 1161         h1     39    bbb    H14   1161 0.04500300   1.008000   ; qtot 38.973063
 1162         c3     39    bbb     C8   1162 -0.06455200  12.010000   ; qtot 38.908511
 1163         h1     39    bbb    H15   1163 0.13554100   1.008000   ; qtot 39.044052
 1164         h1     39    bbb    H16   1164 0.13554100   1.008000   ; qtot 39.179593
 1165         c3     39    bbb     C9   1165 -0.06455200  12.010000   ; qtot 39.115041
 1166         h1     39    bbb    H17   1166 0.13554100   1.008000   ; qtot 39.250582
 1167         h1     39    bbb    H18   1167 0.13554100   1.008000   ; qtot 39.386123
 1168         os     39    bbb     O1   1168 -0.62587700  16.000000   ; qtot 38.760246
 1169         hn     39    bbb    H19   1169 0.23982500   1.008000   ; qtot 39.000071
; residue   40 bbb rtp bbb q 1.0
 1170         n4     40    bbb     N1   1170 0.03726400  14.010000   ; qtot 39.037335
 1171         c3     40    bbb     C1   1171 -0.07020100  12.010000   ; qtot 38.967134
 1172         hx     40    bbb     H1   1172 0.12219000   1.008000   ; qtot 39.089324
 1173         hx     40    bbb     H2   1173 0.12219000   1.008000   ; qtot 39.211514
 1174         c3     40    bbb     C2   1174 -0.07020100  12.010000   ; qtot 39.141313
 1175         hx     40    bbb     H3   1175 0.12219000   1.008000   ; qtot 39.263503
 1176         hx     40    bbb     H4   1176 0.12219000   1.008000   ; qtot 39.385693
 1177         c3     40    bbb     C3   1177 -0.39007700  12.010000   ; qtot 38.995616
 1178         hx     40    bbb     H5   1178 0.14940300   1.008000   ; qtot 39.145019
 1179         hx     40    bbb     H6   1179 0.14940300   1.008000   ; qtot 39.294422
 1180         c3     40    bbb     C4   1180 0.18057300  12.010000   ; qtot 39.474995
 1181         hc     40    bbb     H7   1181 0.01788900   1.008000   ; qtot 39.492884
 1182         hc     40    bbb     H8   1182 0.01788900   1.008000   ; qtot 39.510773
 1183         c3     40    bbb     C5   1183 -0.11337700  12.010000   ; qtot 39.397396
 1184         hc     40    bbb     H9   1184 0.09515400   1.008000   ; qtot 39.492550
 1185         hc     40    bbb    H10   1185 0.09515400   1.008000   ; qtot 39.587704
 1186         c3     40    bbb     C6   1186 -0.11337700  12.010000   ; qtot 39.474327
 1187         hc     40    bbb    H11   1187 0.09515400   1.008000   ; qtot 39.569481
 1188         hc     40    bbb    H12   1188 0.09515400   1.008000   ; qtot 39.664635
 1189         c3     40    bbb     C7   1189 0.21842400  12.010000   ; qtot 39.883059
 1190         h1     40    bbb    H13   1190 0.04500300   1.008000   ; qtot 39.928062
 1191         h1     40    bbb    H14   1191 0.04500300   1.008000   ; qtot 39.973065
 1192         c3     40    bbb     C8   1192 -0.06455200  12.010000   ; qtot 39.908513
 1193         h1     40    bbb    H15   1193 0.13554100   1.008000   ; qtot 40.044054
 1194         h1     40    bbb    H16   1194 0.13554100   1.008000   ; qtot 40.179595
 1195         c3     40    bbb     C9   1195 -0.06455200  12.010000   ; qtot 40.115043
 1196         h1     40    bbb    H17   1196 0.13554100   1.008000   ; qtot 40.250584
 1197         h1     40    bbb    H18   1197 0.13554100   1.008000   ; qtot 40.386125
 1198         os     40    bbb     O1   1198 -0.62587700  16.000000   ; qtot 39.760248
 1199         hn     40    bbb    H19   1199 0.23982500   1.008000   ; qtot 40.000073
; residue   41 bbb rtp bbb q 1.0
 1200         n4     41    bbb     N1   1200 0.03726400  14.010000   ; qtot 40.037337
 1201         c3     41    bbb     C1   1201 -0.07020100  12.010000   ; qtot 39.967136
 1202         hx     41    bbb     H1   1202 0.12219000   1.008000   ; qtot 40.089326
 1203         hx     41    bbb     H2   1203 0.12219000   1.008000   ; qtot 40.211516
 1204         c3     41    bbb     C2   1204 -0.07020100  12.010000   ; qtot 40.141315
 1205         hx     41    bbb     H3   1205 0.12219000   1.008000   ; qtot 40.263505
 1206         hx     41    bbb     H4   1206 0.12219000   1.008000   ; qtot 40.385695
 1207         c3     41    bbb     C3   1207 -0.39007700  12.010000   ; qtot 39.995618
 1208         hx     41    bbb     H5   1208 0.14940300   1.008000   ; qtot 40.145021
 1209         hx     41    bbb     H6   1209 0.14940300   1.008000   ; qtot 40.294424
 1210         c3     41    bbb     C4   1210 0.18057300  12.010000   ; qtot 40.474997
 1211         hc     41    bbb     H7   1211 0.01788900   1.008000   ; qtot 40.492886
 1212         hc     41    bbb     H8   1212 0.01788900   1.008000   ; qtot 40.510775
 1213         c3     41    bbb     C5   1213 -0.11337700  12.010000   ; qtot 40.397398
 1214         hc     41    bbb     H9   1214 0.09515400   1.008000   ; qtot 40.492552
 1215         hc     41    bbb    H10   1215 0.09515400   1.008000   ; qtot 40.587706
 1216         c3     41    bbb     C6   1216 -0.11337700  12.010000   ; qtot 40.474329
 1217         hc     41    bbb    H11   1217 0.09515400   1.008000   ; qtot 40.569483
 1218         hc     41    bbb    H12   1218 0.09515400   1.008000   ; qtot 40.664637
 1219         c3     41    bbb     C7   1219 0.21842400  12.010000   ; qtot 40.883061
 1220         h1     41    bbb    H13   1220 0.04500300   1.008000   ; qtot 40.928064
 1221         h1     41    bbb    H14   1221 0.04500300   1.008000   ; qtot 40.973067
 1222         c3     41    bbb     C8   1222 -0.06455200  12.010000   ; qtot 40.908515
 1223         h1     41    bbb    H15   1223 0.13554100   1.008000   ; qtot 41.044056
 1224         h1     41    bbb    H16   1224 0.13554100   1.008000   ; qtot 41.179597
 1225         c3     41    bbb     C9   1225 -0.06455200  12.010000   ; qtot 41.115045
 1226         h1     41    bbb    H17   1226 0.13554100   1.008000   ; qtot 41.250586
 1227         h1     41    bbb    H18   1227 0.13554100   1.008000   ; qtot 41.386127
 1228         os     41    bbb     O1   1228 -0.62587700  16.000000   ; qtot 40.760250
 1229         hn     41    bbb    H19   1229 0.23982500   1.008000   ; qtot 41.000075
; residue   42 bbb rtp bbb q 1.0
 1230         n4     42    bbb     N1   1230 0.03726400  14.010000   ; qtot 41.037339
 1231         c3     42    bbb     C1   1231 -0.07020100  12.010000   ; qtot 40.967138
 1232         hx     42    bbb     H1   1232 0.12219000   1.008000   ; qtot 41.089328
 1233         hx     42    bbb     H2   1233 0.12219000   1.008000   ; qtot 41.211518
 1234         c3     42    bbb     C2   1234 -0.07020100  12.010000   ; qtot 41.141317
 1235         hx     42    bbb     H3   1235 0.12219000   1.008000   ; qtot 41.263507
 1236         hx     42    bbb     H4   1236 0.12219000   1.008000   ; qtot 41.385697
 1237         c3     42    bbb     C3   1237 -0.39007700  12.010000   ; qtot 40.995620
 1238         hx     42    bbb     H5   1238 0.14940300   1.008000   ; qtot 41.145023
 1239         hx     42    bbb     H6   1239 0.14940300   1.008000   ; qtot 41.294426
 1240         c3     42    bbb     C4   1240 0.18057300  12.010000   ; qtot 41.474999
 1241         hc     42    bbb     H7   1241 0.01788900   1.008000   ; qtot 41.492888
 1242         hc     42    bbb     H8   1242 0.01788900   1.008000   ; qtot 41.510777
 1243         c3     42    bbb     C5   1243 -0.11337700  12.010000   ; qtot 41.397400
 1244         hc     42    bbb     H9   1244 0.09515400   1.008000   ; qtot 41.492554
 1245         hc     42    bbb    H10   1245 0.09515400   1.008000   ; qtot 41.587708
 1246         c3     42    bbb     C6   1246 -0.11337700  12.010000   ; qtot 41.474331
 1247         hc     42    bbb    H11   1247 0.09515400   1.008000   ; qtot 41.569485
 1248         hc     42    bbb    H12   1248 0.09515400   1.008000   ; qtot 41.664639
 1249         c3     42    bbb     C7   1249 0.21842400  12.010000   ; qtot 41.883063
 1250         h1     42    bbb    H13   1250 0.04500300   1.008000   ; qtot 41.928066
 1251         h1     42    bbb    H14   1251 0.04500300   1.008000   ; qtot 41.973069
 1252         c3     42    bbb     C8   1252 -0.06455200  12.010000   ; qtot 41.908517
 1253         h1     42    bbb    H15   1253 0.13554100   1.008000   ; qtot 42.044058
 1254         h1     42    bbb    H16   1254 0.13554100   1.008000   ; qtot 42.179599
 1255         c3     42    bbb     C9   1255 -0.06455200  12.010000   ; qtot 42.115047
 1256         h1     42    bbb    H17   1256 0.13554100   1.008000   ; qtot 42.250588
 1257         h1     42    bbb    H18   1257 0.13554100   1.008000   ; qtot 42.386129
 1258         os     42    bbb     O1   1258 -0.62587700  16.000000   ; qtot 41.760252
 1259         hn     42    bbb    H19   1259 0.23982500   1.008000   ; qtot 42.000077
; residue   43 bbb rtp bbb q 1.0
 1260         n4     43    bbb     N1   1260 0.03726400  14.010000   ; qtot 42.037341
 1261         c3     43    bbb     C1   1261 -0.07020100  12.010000   ; qtot 41.967140
 1262         hx     43    bbb     H1   1262 0.12219000   1.008000   ; qtot 42.089330
 1263         hx     43    bbb     H2   1263 0.12219000   1.008000   ; qtot 42.211520
 1264         c3     43    bbb     C2   1264 -0.07020100  12.010000   ; qtot 42.141319
 1265         hx     43    bbb     H3   1265 0.12219000   1.008000   ; qtot 42.263509
 1266         hx     43    bbb     H4   1266 0.12219000   1.008000   ; qtot 42.385699
 1267         c3     43    bbb     C3   1267 -0.39007700  12.010000   ; qtot 41.995622
 1268         hx     43    bbb     H5   1268 0.14940300   1.008000   ; qtot 42.145025
 1269         hx     43    bbb     H6   1269 0.14940300   1.008000   ; qtot 42.294428
 1270         c3     43    bbb     C4   1270 0.18057300  12.010000   ; qtot 42.475001
 1271         hc     43    bbb     H7   1271 0.01788900   1.008000   ; qtot 42.492890
 1272         hc     43    bbb     H8   1272 0.01788900   1.008000   ; qtot 42.510779
 1273         c3     43    bbb     C5   1273 -0.11337700  12.010000   ; qtot 42.397402
 1274         hc     43    bbb     H9   1274 0.09515400   1.008000   ; qtot 42.492556
 1275         hc     43    bbb    H10   1275 0.09515400   1.008000   ; qtot 42.587710
 1276         c3     43    bbb     C6   1276 -0.11337700  12.010000   ; qtot 42.474333
 1277         hc     43    bbb    H11   1277 0.09515400   1.008000   ; qtot 42.569487
 1278         hc     43    bbb    H12   1278 0.09515400   1.008000   ; qtot 42.664641
 1279         c3     43    bbb     C7   1279 0.21842400  12.010000   ; qtot 42.883065
 1280         h1     43    bbb    H13   1280 0.04500300   1.008000   ; qtot 42.928068
 1281         h1     43    bbb    H14   1281 0.04500300   1.008000   ; qtot 42.973071
 1282         c3     43    bbb     C8   1282 -0.06455200  12.010000   ; qtot 42.908519
 1283         h1     43    bbb    H15   1283 0.13554100   1.008000   ; qtot 43.044060
 1284         h1     43    bbb    H16   1284 0.13554100   1.008000   ; qtot 43.179601
 1285         c3     43    bbb     C9   1285 -0.06455200  12.010000   ; qtot 43.115049
 1286         h1     43    bbb    H17   1286 0.13554100   1.008000   ; qtot 43.250590
 1287         h1     43    bbb    H18   1287 0.13554100   1.008000   ; qtot 43.386131
 1288         os     43    bbb     O1   1288 -0.62587700  16.000000   ; qtot 42.760254
 1289         hn     43    bbb    H19   1289 0.23982500   1.008000   ; qtot 43.000079
; residue   44 bbb rtp bbb q 1.0
 1290         n4     44    bbb     N1   1290 0.03726400  14.010000   ; qtot 43.037343
 1291         c3     44    bbb     C1   1291 -0.07020100  12.010000   ; qtot 42.967142
 1292         hx     44    bbb     H1   1292 0.12219000   1.008000   ; qtot 43.089332
 1293         hx     44    bbb     H2   1293 0.12219000   1.008000   ; qtot 43.211522
 1294         c3     44    bbb     C2   1294 -0.07020100  12.010000   ; qtot 43.141321
 1295         hx     44    bbb     H3   1295 0.12219000   1.008000   ; qtot 43.263511
 1296         hx     44    bbb     H4   1296 0.12219000   1.008000   ; qtot 43.385701
 1297         c3     44    bbb     C3   1297 -0.39007700  12.010000   ; qtot 42.995624
 1298         hx     44    bbb     H5   1298 0.14940300   1.008000   ; qtot 43.145027
 1299         hx     44    bbb     H6   1299 0.14940300   1.008000   ; qtot 43.294430
 1300         c3     44    bbb     C4   1300 0.18057300  12.010000   ; qtot 43.475003
 1301         hc     44    bbb     H7   1301 0.01788900   1.008000   ; qtot 43.492892
 1302         hc     44    bbb     H8   1302 0.01788900   1.008000   ; qtot 43.510781
 1303         c3     44    bbb     C5   1303 -0.11337700  12.010000   ; qtot 43.397404
 1304         hc     44    bbb     H9   1304 0.09515400   1.008000   ; qtot 43.492558
 1305         hc     44    bbb    H10   1305 0.09515400   1.008000   ; qtot 43.587712
 1306         c3     44    bbb     C6   1306 -0.11337700  12.010000   ; qtot 43.474335
 1307         hc     44    bbb    H11   1307 0.09515400   1.008000   ; qtot 43.569489
 1308         hc     44    bbb    H12   1308 0.09515400   1.008000   ; qtot 43.664643
 1309         c3     44    bbb     C7   1309 0.21842400  12.010000   ; qtot 43.883067
 1310         h1     44    bbb    H13   1310 0.04500300   1.008000   ; qtot 43.928070
 1311         h1     44    bbb    H14   1311 0.04500300   1.008000   ; qtot 43.973073
 1312         c3     44    bbb     C8   1312 -0.06455200  12.010000   ; qtot 43.908521
 1313         h1     44    bbb    H15   1313 0.13554100   1.008000   ; qtot 44.044062
 1314         h1     44    bbb    H16   1314 0.13554100   1.008000   ; qtot 44.179603
 1315         c3     44    bbb     C9   1315 -0.06455200  12.010000   ; qtot 44.115051
 1316         h1     44    bbb    H17   1316 0.13554100   1.008000   ; qtot 44.250592
 1317         h1     44    bbb    H18   1317 0.13554100   1.008000   ; qtot 44.386133
 1318         os     44    bbb     O1   1318 -0.62587700  16.000000   ; qtot 43.760256
 1319         hn     44    bbb    H19   1319 0.23982500   1.008000   ; qtot 44.000081
; residue   45 bbb rtp bbb q 1.0
 1320         n4     45    bbb     N1   1320 0.03726400  14.010000   ; qtot 44.037345
 1321         c3     45    bbb     C1   1321 -0.07020100  12.010000   ; qtot 43.967144
 1322         hx     45    bbb     H1   1322 0.12219000   1.008000   ; qtot 44.089334
 1323         hx     45    bbb     H2   1323 0.12219000   1.008000   ; qtot 44.211524
 1324         c3     45    bbb     C2   1324 -0.07020100  12.010000   ; qtot 44.141323
 1325         hx     45    bbb     H3   1325 0.12219000   1.008000   ; qtot 44.263513
 1326         hx     45    bbb     H4   1326 0.12219000   1.008000   ; qtot 44.385703
 1327         c3     45    bbb     C3   1327 -0.39007700  12.010000   ; qtot 43.995626
 1328         hx     45    bbb     H5   1328 0.14940300   1.008000   ; qtot 44.145029
 1329         hx     45    bbb     H6   1329 0.14940300   1.008000   ; qtot 44.294432
 1330         c3     45    bbb     C4   1330 0.18057300  12.010000   ; qtot 44.475005
 1331         hc     45    bbb     H7   1331 0.01788900   1.008000   ; qtot 44.492894
 1332         hc     45    bbb     H8   1332 0.01788900   1.008000   ; qtot 44.510783
 1333         c3     45    bbb     C5   1333 -0.11337700  12.010000   ; qtot 44.397406
 1334         hc     45    bbb     H9   1334 0.09515400   1.008000   ; qtot 44.492560
 1335         hc     45    bbb    H10   1335 0.09515400   1.008000   ; qtot 44.587714
 1336         c3     45    bbb     C6   1336 -0.11337700  12.010000   ; qtot 44.474337
 1337         hc     45    bbb    H11   1337 0.09515400   1.008000   ; qtot 44.569491
 1338         hc     45    bbb    H12   1338 0.09515400   1.008000   ; qtot 44.664645
 1339         c3     45    bbb     C7   1339 0.21842400  12.010000   ; qtot 44.883069
 1340         h1     45    bbb    H13   1340 0.04500300   1.008000   ; qtot 44.928072
 1341         h1     45    bbb    H14   1341 0.04500300   1.008000   ; qtot 44.973075
 1342         c3     45    bbb     C8   1342 -0.06455200  12.010000   ; qtot 44.908523
 1343         h1     45    bbb    H15   1343 0.13554100   1.008000   ; qtot 45.044064
 1344         h1     45    bbb    H16   1344 0.13554100   1.008000   ; qtot 45.179605
 1345         c3     45    bbb     C9   1345 -0.06455200  12.010000   ; qtot 45.115053
 1346         h1     45    bbb    H17   1346 0.13554100   1.008000   ; qtot 45.250594
 1347         h1     45    bbb    H18   1347 0.13554100   1.008000   ; qtot 45.386135
 1348         os     45    bbb     O1   1348 -0.62587700  16.000000   ; qtot 44.760258
 1349         hn     45    bbb    H19   1349 0.23982500   1.008000   ; qtot 45.000083
; residue   46 bbb rtp bbb q 1.0
 1350         n4     46    bbb     N1   1350 0.03726400  14.010000   ; qtot 45.037347
 1351         c3     46    bbb     C1   1351 -0.07020100  12.010000   ; qtot 44.967146
 1352         hx     46    bbb     H1   1352 0.12219000   1.008000   ; qtot 45.089336
 1353         hx     46    bbb     H2   1353 0.12219000   1.008000   ; qtot 45.211526
 1354         c3     46    bbb     C2   1354 -0.07020100  12.010000   ; qtot 45.141325
 1355         hx     46    bbb     H3   1355 0.12219000   1.008000   ; qtot 45.263515
 1356         hx     46    bbb     H4   1356 0.12219000   1.008000   ; qtot 45.385705
 1357         c3     46    bbb     C3   1357 -0.39007700  12.010000   ; qtot 44.995628
 1358         hx     46    bbb     H5   1358 0.14940300   1.008000   ; qtot 45.145031
 1359         hx     46    bbb     H6   1359 0.14940300   1.008000   ; qtot 45.294434
 1360         c3     46    bbb     C4   1360 0.18057300  12.010000   ; qtot 45.475007
 1361         hc     46    bbb     H7   1361 0.01788900   1.008000   ; qtot 45.492896
 1362         hc     46    bbb     H8   1362 0.01788900   1.008000   ; qtot 45.510785
 1363         c3     46    bbb     C5   1363 -0.11337700  12.010000   ; qtot 45.397408
 1364         hc     46    bbb     H9   1364 0.09515400   1.008000   ; qtot 45.492562
 1365         hc     46    bbb    H10   1365 0.09515400   1.008000   ; qtot 45.587716
 1366         c3     46    bbb     C6   1366 -0.11337700  12.010000   ; qtot 45.474339
 1367         hc     46    bbb    H11   1367 0.09515400   1.008000   ; qtot 45.569493
 1368         hc     46    bbb    H12   1368 0.09515400   1.008000   ; qtot 45.664647
 1369         c3     46    bbb     C7   1369 0.21842400  12.010000   ; qtot 45.883071
 1370         h1     46    bbb    H13   1370 0.04500300   1.008000   ; qtot 45.928074
 1371         h1     46    bbb    H14   1371 0.04500300   1.008000   ; qtot 45.973077
 1372         c3     46    bbb     C8   1372 -0.06455200  12.010000   ; qtot 45.908525
 1373         h1     46    bbb    H15   1373 0.13554100   1.008000   ; qtot 46.044066
 1374         h1     46    bbb    H16   1374 0.13554100   1.008000   ; qtot 46.179607
 1375         c3     46    bbb     C9   1375 -0.06455200  12.010000   ; qtot 46.115055
 1376         h1     46    bbb    H17   1376 0.13554100   1.008000   ; qtot 46.250596
 1377         h1     46    bbb    H18   1377 0.13554100   1.008000   ; qtot 46.386137
 1378         os     46    bbb     O1   1378 -0.62587700  16.000000   ; qtot 45.760260
 1379         hn     46    bbb    H19   1379 0.23982500   1.008000   ; qtot 46.000085
; residue   47 ccc rtp ccc q 1.0
 1380         c3     47    ccc     C1   1380 0.17060900  12.010000   ; qtot 46.170694
 1381         hx     47    ccc     H1   1381 0.04213200   1.008000   ; qtot 46.212826
 1382         hx     47    ccc     H2   1382 0.04213200   1.008000   ; qtot 46.254958
 1383         c3     47    ccc     C2   1383 -0.04496700  12.010000   ; qtot 46.209991
 1384         hc     47    ccc     H3   1384 0.02647500   1.008000   ; qtot 46.236466
 1385         hc     47    ccc     H4   1385 0.02647500   1.008000   ; qtot 46.262941
 1386         c3     47    ccc     C3   1386 0.04732600  12.010000   ; qtot 46.310267
 1387         h1     47    ccc     H5   1387 0.07030200   1.008000   ; qtot 46.380569
 1388         h1     47    ccc     H6   1388 0.07030200   1.008000   ; qtot 46.450871
 1389         n4     47    ccc     N1   1389 -0.21077700  14.010000   ; qtot 46.240094
 1390         hn     47    ccc     H7   1390 0.28399900   1.008000   ; qtot 46.524093
 1391         hn     47    ccc     H8   1391 0.28399900   1.008000   ; qtot 46.808092
 1392         os     47    ccc     O1   1392 -0.09200600  16.000000   ; qtot 46.716086
 1393         hn     47    ccc    H17   1393 0.28399900   1.008000   ; qtot 47.000085
; residue   48 ccc rtp ccc q 1.0
 1394         c3     48    ccc     C1   1394 0.17060900  12.010000   ; qtot 47.170694
 1395         hx     48    ccc     H1   1395 0.04213200   1.008000   ; qtot 47.212826
 1396         hx     48    ccc     H2   1396 0.04213200   1.008000   ; qtot 47.254958
 1397         c3     48    ccc     C2   1397 -0.04496700  12.010000   ; qtot 47.209991
 1398         hc     48    ccc     H3   1398 0.02647500   1.008000   ; qtot 47.236466
 1399         hc     48    ccc     H4   1399 0.02647500   1.008000   ; qtot 47.262941
 1400         c3     48    ccc     C3   1400 0.04732600  12.010000   ; qtot 47.310267
 1401         h1     48    ccc     H5   1401 0.07030200   1.008000   ; qtot 47.380569
 1402         h1     48    ccc     H6   1402 0.07030200   1.008000   ; qtot 47.450871
 1403         n4     48    ccc     N1   1403 -0.21077700  14.010000   ; qtot 47.240094
 1404         hn     48    ccc     H7   1404 0.28399900   1.008000   ; qtot 47.524093
 1405         hn     48    ccc     H8   1405 0.28399900   1.008000   ; qtot 47.808092
 1406         os     48    ccc     O1   1406 -0.09200600  16.000000   ; qtot 47.716086
 1407         hn     48    ccc    H17   1407 0.28399900   1.008000   ; qtot 48.000085
; residue   49 ccc rtp ccc q 1.0
 1408         c3     49    ccc     C1   1408 0.17060900  12.010000   ; qtot 48.170694
 1409         hx     49    ccc     H1   1409 0.04213200   1.008000   ; qtot 48.212826
 1410         hx     49    ccc     H2   1410 0.04213200   1.008000   ; qtot 48.254958
 1411         c3     49    ccc     C2   1411 -0.04496700  12.010000   ; qtot 48.209991
 1412         hc     49    ccc     H3   1412 0.02647500   1.008000   ; qtot 48.236466
 1413         hc     49    ccc     H4   1413 0.02647500   1.008000   ; qtot 48.262941
 1414         c3     49    ccc     C3   1414 0.04732600  12.010000   ; qtot 48.310267
 1415         h1     49    ccc     H5   1415 0.07030200   1.008000   ; qtot 48.380569
 1416         h1     49    ccc     H6   1416 0.07030200   1.008000   ; qtot 48.450871
 1417         n4     49    ccc     N1   1417 -0.21077700  14.010000   ; qtot 48.240094
 1418         hn     49    ccc     H7   1418 0.28399900   1.008000   ; qtot 48.524093
 1419         hn     49    ccc     H8   1419 0.28399900   1.008000   ; qtot 48.808092
 1420         os     49    ccc     O1   1420 -0.09200600  16.000000   ; qtot 48.716086
 1421         hn     49    ccc    H17   1421 0.28399900   1.008000   ; qtot 49.000085
; residue   50 ccc rtp ccc q 1.0
 1422         c3     50    ccc     C1   1422 0.17060900  12.010000   ; qtot 49.170694
 1423         hx     50    ccc     H1   1423 0.04213200   1.008000   ; qtot 49.212826
 1424         hx     50    ccc     H2   1424 0.04213200   1.008000   ; qtot 49.254958
 1425         c3     50    ccc     C2   1425 -0.04496700  12.010000   ; qtot 49.209991
 1426         hc     50    ccc     H3   1426 0.02647500   1.008000   ; qtot 49.236466
 1427         hc     50    ccc     H4   1427 0.02647500   1.008000   ; qtot 49.262941
 1428         c3     50    ccc     C3   1428 0.04732600  12.010000   ; qtot 49.310267
 1429         h1     50    ccc     H5   1429 0.07030200   1.008000   ; qtot 49.380569
 1430         h1     50    ccc     H6   1430 0.07030200   1.008000   ; qtot 49.450871
 1431         n4     50    ccc     N1   1431 -0.21077700  14.010000   ; qtot 49.240094
 1432         hn     50    ccc     H7   1432 0.28399900   1.008000   ; qtot 49.524093
 1433         hn     50    ccc     H8   1433 0.28399900   1.008000   ; qtot 49.808092
 1434         os     50    ccc     O1   1434 -0.09200600  16.000000   ; qtot 49.716086
 1435         hn     50    ccc    H17   1435 0.28399900   1.008000   ; qtot 50.000085
; residue   51 ccc rtp ccc q 1.0
 1436         c3     51    ccc     C1   1436 0.17060900  12.010000   ; qtot 50.170694
 1437         hx     51    ccc     H1   1437 0.04213200   1.008000   ; qtot 50.212826
 1438         hx     51    ccc     H2   1438 0.04213200   1.008000   ; qtot 50.254958
 1439         c3     51    ccc     C2   1439 -0.04496700  12.010000   ; qtot 50.209991
 1440         hc     51    ccc     H3   1440 0.02647500   1.008000   ; qtot 50.236466
 1441         hc     51    ccc     H4   1441 0.02647500   1.008000   ; qtot 50.262941
 1442         c3     51    ccc     C3   1442 0.04732600  12.010000   ; qtot 50.310267
 1443         h1     51    ccc     H5   1443 0.07030200   1.008000   ; qtot 50.380569
 1444         h1     51    ccc     H6   1444 0.07030200   1.008000   ; qtot 50.450871
 1445         n4     51    ccc     N1   1445 -0.21077700  14.010000   ; qtot 50.240094
 1446         hn     51    ccc     H7   1446 0.28399900   1.008000   ; qtot 50.524093
 1447         hn     51    ccc     H8   1447 0.28399900   1.008000   ; qtot 50.808092
 1448         os     51    ccc     O1   1448 -0.09200600  16.000000   ; qtot 50.716086
 1449         hn     51    ccc    H17   1449 0.28399900   1.008000   ; qtot 51.000085
; residue   52 ccc rtp ccc q 1.0
 1450         c3     52    ccc     C1   1450 0.17060900  12.010000   ; qtot 51.170694
 1451         hx     52    ccc     H1   1451 0.04213200   1.008000   ; qtot 51.212826
 1452         hx     52    ccc     H2   1452 0.04213200   1.008000   ; qtot 51.254958
 1453         c3     52    ccc     C2   1453 -0.04496700  12.010000   ; qtot 51.209991
 1454         hc     52    ccc     H3   1454 0.02647500   1.008000   ; qtot 51.236466
 1455         hc     52    ccc     H4   1455 0.02647500   1.008000   ; qtot 51.262941
 1456         c3     52    ccc     C3   1456 0.04732600  12.010000   ; qtot 51.310267
 1457         h1     52    ccc     H5   1457 0.07030200   1.008000   ; qtot 51.380569
 1458         h1     52    ccc     H6   1458 0.07030200   1.008000   ; qtot 51.450871
 1459         n4     52    ccc     N1   1459 -0.21077700  14.010000   ; qtot 51.240094
 1460         hn     52    ccc     H7   1460 0.28399900   1.008000   ; qtot 51.524093
 1461         hn     52    ccc     H8   1461 0.28399900   1.008000   ; qtot 51.808092
 1462         os     52    ccc     O1   1462 -0.09200600  16.000000   ; qtot 51.716086
 1463         hn     52    ccc    H17   1463 0.28399900   1.008000   ; qtot 52.000085
; residue   53 ccc rtp ccc q 1.0
 1464         c3     53    ccc     C1   1464 0.17060900  12.010000   ; qtot 52.170694
 1465         hx     53    ccc     H1   1465 0.04213200   1.008000   ; qtot 52.212826
 1466         hx     53    ccc     H2   1466 0.04213200   1.008000   ; qtot 52.254958
 1467         c3     53    ccc     C2   1467 -0.04496700  12.010000   ; qtot 52.209991
 1468         hc     53    ccc     H3   1468 0.02647500   1.008000   ; qtot 52.236466
 1469         hc     53    ccc     H4   1469 0.02647500   1.008000   ; qtot 52.262941
 1470         c3     53    ccc     C3   1470 0.04732600  12.010000   ; qtot 52.310267
 1471         h1     53    ccc     H5   1471 0.07030200   1.008000   ; qtot 52.380569
 1472         h1     53    ccc     H6   1472 0.07030200   1.008000   ; qtot 52.450871
 1473         n4     53    ccc     N1   1473 -0.21077700  14.010000   ; qtot 52.240094
 1474         hn     53    ccc     H7   1474 0.28399900   1.008000   ; qtot 52.524093
 1475         hn     53    ccc     H8   1475 0.28399900   1.008000   ; qtot 52.808092
 1476         os     53    ccc     O1   1476 -0.09200600  16.000000   ; qtot 52.716086
 1477         hn     53    ccc    H17   1477 0.28399900   1.008000   ; qtot 53.000085
; residue   54 ccc rtp ccc q 1.0
 1478         c3     54    ccc     C1   1478 0.17060900  12.010000   ; qtot 53.170694
 1479         hx     54    ccc     H1   1479 0.04213200   1.008000   ; qtot 53.212826
 1480         hx     54    ccc     H2   1480 0.04213200   1.008000   ; qtot 53.254958
 1481         c3     54    ccc     C2   1481 -0.04496700  12.010000   ; qtot 53.209991
 1482         hc     54    ccc     H3   1482 0.02647500   1.008000   ; qtot 53.236466
 1483         hc     54    ccc     H4   1483 0.02647500   1.008000   ; qtot 53.262941
 1484         c3     54    ccc     C3   1484 0.04732600  12.010000   ; qtot 53.310267
 1485         h1     54    ccc     H5   1485 0.07030200   1.008000   ; qtot 53.380569
 1486         h1     54    ccc     H6   1486 0.07030200   1.008000   ; qtot 53.450871
 1487         n4     54    ccc     N1   1487 -0.21077700  14.010000   ; qtot 53.240094
 1488         hn     54    ccc     H7   1488 0.28399900   1.008000   ; qtot 53.524093
 1489         hn     54    ccc     H8   1489 0.28399900   1.008000   ; qtot 53.808092
 1490         os     54    ccc     O1   1490 -0.09200600  16.000000   ; qtot 53.716086
 1491         hn     54    ccc    H17   1491 0.28399900   1.008000   ; qtot 54.000085
; residue   55 ccc rtp ccc q 1.0
 1492         c3     55    ccc     C1   1492 0.17060900  12.010000   ; qtot 54.170694
 1493         hx     55    ccc     H1   1493 0.04213200   1.008000   ; qtot 54.212826
 1494         hx     55    ccc     H2   1494 0.04213200   1.008000   ; qtot 54.254958
 1495         c3     55    ccc     C2   1495 -0.04496700  12.010000   ; qtot 54.209991
 1496         hc     55    ccc     H3   1496 0.02647500   1.008000   ; qtot 54.236466
 1497         hc     55    ccc     H4   1497 0.02647500   1.008000   ; qtot 54.262941
 1498         c3     55    ccc     C3   1498 0.04732600  12.010000   ; qtot 54.310267
 1499         h1     55    ccc     H5   1499 0.07030200   1.008000   ; qtot 54.380569
 1500         h1     55    ccc     H6   1500 0.07030200   1.008000   ; qtot 54.450871
 1501         n4     55    ccc     N1   1501 -0.21077700  14.010000   ; qtot 54.240094
 1502         hn     55    ccc     H7   1502 0.28399900   1.008000   ; qtot 54.524093
 1503         hn     55    ccc     H8   1503 0.28399900   1.008000   ; qtot 54.808092
 1504         os     55    ccc     O1   1504 -0.09200600  16.000000   ; qtot 54.716086
 1505         hn     55    ccc    H17   1505 0.28399900   1.008000   ; qtot 55.000085
; residue   56 ccc rtp ccc q 1.0
 1506         c3     56    ccc     C1   1506 0.17060900  12.010000   ; qtot 55.170694
 1507         hx     56    ccc     H1   1507 0.04213200   1.008000   ; qtot 55.212826
 1508         hx     56    ccc     H2   1508 0.04213200   1.008000   ; qtot 55.254958
 1509         c3     56    ccc     C2   1509 -0.04496700  12.010000   ; qtot 55.209991
 1510         hc     56    ccc     H3   1510 0.02647500   1.008000   ; qtot 55.236466
 1511         hc     56    ccc     H4   1511 0.02647500   1.008000   ; qtot 55.262941
 1512         c3     56    ccc     C3   1512 0.04732600  12.010000   ; qtot 55.310267
 1513         h1     56    ccc     H5   1513 0.07030200   1.008000   ; qtot 55.380569
 1514         h1     56    ccc     H6   1514 0.07030200   1.008000   ; qtot 55.450871
 1515         n4     56    ccc     N1   1515 -0.21077700  14.010000   ; qtot 55.240094
 1516         hn     56    ccc     H7   1516 0.28399900   1.008000   ; qtot 55.524093
 1517         hn     56    ccc     H8   1517 0.28399900   1.008000   ; qtot 55.808092
 1518         os     56    ccc     O1   1518 -0.09200600  16.000000   ; qtot 55.716086
 1519         hn     56    ccc    H17   1519 0.28399900   1.008000   ; qtot 56.000085
; residue   57 ccc rtp ccc q 1.0
 1520         c3     57    ccc     C1   1520 0.17060900  12.010000   ; qtot 56.170694
 1521         hx     57    ccc     H1   1521 0.04213200   1.008000   ; qtot 56.212826
 1522         hx     57    ccc     H2   1522 0.04213200   1.008000   ; qtot 56.254958
 1523         c3     57    ccc     C2   1523 -0.04496700  12.010000   ; qtot 56.209991
 1524         hc     57    ccc     H3   1524 0.02647500   1.008000   ; qtot 56.236466
 1525         hc     57    ccc     H4   1525 0.02647500   1.008000   ; qtot 56.262941
 1526         c3     57    ccc     C3   1526 0.04732600  12.010000   ; qtot 56.310267
 1527         h1     57    ccc     H5   1527 0.07030200   1.008000   ; qtot 56.380569
 1528         h1     57    ccc     H6   1528 0.07030200   1.008000   ; qtot 56.450871
 1529         n4     57    ccc     N1   1529 -0.21077700  14.010000   ; qtot 56.240094
 1530         hn     57    ccc     H7   1530 0.28399900   1.008000   ; qtot 56.524093
 1531         hn     57    ccc     H8   1531 0.28399900   1.008000   ; qtot 56.808092
 1532         os     57    ccc     O1   1532 -0.09200600  16.000000   ; qtot 56.716086
 1533         hn     57    ccc    H17   1533 0.28399900   1.008000   ; qtot 57.000085
; residue   58 ccc rtp ccc q 1.0
 1534         c3     58    ccc     C1   1534 0.17060900  12.010000   ; qtot 57.170694
 1535         hx     58    ccc     H1   1535 0.04213200   1.008000   ; qtot 57.212826
 1536         hx     58    ccc     H2   1536 0.04213200   1.008000   ; qtot 57.254958
 1537         c3     58    ccc     C2   1537 -0.04496700  12.010000   ; qtot 57.209991
 1538         hc     58    ccc     H3   1538 0.02647500   1.008000   ; qtot 57.236466
 1539         hc     58    ccc     H4   1539 0.02647500   1.008000   ; qtot 57.262941
 1540         c3     58    ccc     C3   1540 0.04732600  12.010000   ; qtot 57.310267
 1541         h1     58    ccc     H5   1541 0.07030200   1.008000   ; qtot 57.380569
 1542         h1     58    ccc     H6   1542 0.07030200   1.008000   ; qtot 57.450871
 1543         n4     58    ccc     N1   1543 -0.21077700  14.010000   ; qtot 57.240094
 1544         hn     58    ccc     H7   1544 0.28399900   1.008000   ; qtot 57.524093
 1545         hn     58    ccc     H8   1545 0.28399900   1.008000   ; qtot 57.808092
 1546         os     58    ccc     O1   1546 -0.09200600  16.000000   ; qtot 57.716086
 1547         hn     58    ccc    H17   1547 0.28399900   1.008000   ; qtot 58.000085
; residue   59 ccc rtp ccc q 1.0
 1548         c3     59    ccc     C1   1548 0.17060900  12.010000   ; qtot 58.170694
 1549         hx     59    ccc     H1   1549 0.04213200   1.008000   ; qtot 58.212826
 1550         hx     59    ccc     H2   1550 0.04213200   1.008000   ; qtot 58.254958
 1551         c3     59    ccc     C2   1551 -0.04496700  12.010000   ; qtot 58.209991
 1552         hc     59    ccc     H3   1552 0.02647500   1.008000   ; qtot 58.236466
 1553         hc     59    ccc     H4   1553 0.02647500   1.008000   ; qtot 58.262941
 1554         c3     59    ccc     C3   1554 0.04732600  12.010000   ; qtot 58.310267
 1555         h1     59    ccc     H5   1555 0.07030200   1.008000   ; qtot 58.380569
 1556         h1     59    ccc     H6   1556 0.07030200   1.008000   ; qtot 58.450871
 1557         n4     59    ccc     N1   1557 -0.21077700  14.010000   ; qtot 58.240094
 1558         hn     59    ccc     H7   1558 0.28399900   1.008000   ; qtot 58.524093
 1559         hn     59    ccc     H8   1559 0.28399900   1.008000   ; qtot 58.808092
 1560         os     59    ccc     O1   1560 -0.09200600  16.000000   ; qtot 58.716086
 1561         hn     59    ccc    H17   1561 0.28399900   1.008000   ; qtot 59.000085
; residue   60 ccc rtp ccc q 1.0
 1562         c3     60    ccc     C1   1562 0.17060900  12.010000   ; qtot 59.170694
 1563         hx     60    ccc     H1   1563 0.04213200   1.008000   ; qtot 59.212826
 1564         hx     60    ccc     H2   1564 0.04213200   1.008000   ; qtot 59.254958
 1565         c3     60    ccc     C2   1565 -0.04496700  12.010000   ; qtot 59.209991
 1566         hc     60    ccc     H3   1566 0.02647500   1.008000   ; qtot 59.236466
 1567         hc     60    ccc     H4   1567 0.02647500   1.008000   ; qtot 59.262941
 1568         c3     60    ccc     C3   1568 0.04732600  12.010000   ; qtot 59.310267
 1569         h1     60    ccc     H5   1569 0.07030200   1.008000   ; qtot 59.380569
 1570         h1     60    ccc     H6   1570 0.07030200   1.008000   ; qtot 59.450871
 1571         n4     60    ccc     N1   1571 -0.21077700  14.010000   ; qtot 59.240094
 1572         hn     60    ccc     H7   1572 0.28399900   1.008000   ; qtot 59.524093
 1573         hn     60    ccc     H8   1573 0.28399900   1.008000   ; qtot 59.808092
 1574         os     60    ccc     O1   1574 -0.09200600  16.000000   ; qtot 59.716086
 1575         hn     60    ccc    H17   1575 0.28399900   1.008000   ; qtot 60.000085
; residue   61 ccc rtp ccc q 1.0
 1576         c3     61    ccc     C1   1576 0.17060900  12.010000   ; qtot 60.170694
 1577         hx     61    ccc     H1   1577 0.04213200   1.008000   ; qtot 60.212826
 1578         hx     61    ccc     H2   1578 0.04213200   1.008000   ; qtot 60.254958
 1579         c3     61    ccc     C2   1579 -0.04496700  12.010000   ; qtot 60.209991
 1580         hc     61    ccc     H3   1580 0.02647500   1.008000   ; qtot 60.236466
 1581         hc     61    ccc     H4   1581 0.02647500   1.008000   ; qtot 60.262941
 1582         c3     61    ccc     C3   1582 0.04732600  12.010000   ; qtot 60.310267
 1583         h1     61    ccc     H5   1583 0.07030200   1.008000   ; qtot 60.380569
 1584         h1     61    ccc     H6   1584 0.07030200   1.008000   ; qtot 60.450871
 1585         n4     61    ccc     N1   1585 -0.21077700  14.010000   ; qtot 60.240094
 1586         hn     61    ccc     H7   1586 0.28399900   1.008000   ; qtot 60.524093
 1587         hn     61    ccc     H8   1587 0.28399900   1.008000   ; qtot 60.808092
 1588         os     61    ccc     O1   1588 -0.09200600  16.000000   ; qtot 60.716086
 1589         hn     61    ccc    H17   1589 0.28399900   1.008000   ; qtot 61.000085
; residue   62 ccc rtp ccc q 1.0
 1590         c3     62    ccc     C1   1590 0.17060900  12.010000   ; qtot 61.170694
 1591         hx     62    ccc     H1   1591 0.04213200   1.008000   ; qtot 61.212826
 1592         hx     62    ccc     H2   1592 0.04213200   1.008000   ; qtot 61.254958
 1593         c3     62    ccc     C2   1593 -0.04496700  12.010000   ; qtot 61.209991
 1594         hc     62    ccc     H3   1594 0.02647500   1.008000   ; qtot 61.236466
 1595         hc     62    ccc     H4   1595 0.02647500   1.008000   ; qtot 61.262941
 1596         c3     62    ccc     C3   1596 0.04732600  12.010000   ; qtot 61.310267
 1597         h1     62    ccc     H5   1597 0.07030200   1.008000   ; qtot 61.380569
 1598         h1     62    ccc     H6   1598 0.07030200   1.008000   ; qtot 61.450871
 1599         n4     62    ccc     N1   1599 -0.21077700  14.010000   ; qtot 61.240094
 1600         hn     62    ccc     H7   1600 0.28399900   1.008000   ; qtot 61.524093
 1601         hn     62    ccc     H8   1601 0.28399900   1.008000   ; qtot 61.808092
 1602         os     62    ccc     O1   1602 -0.09200600  16.000000   ; qtot 61.716086
 1603         hn     62    ccc    H17   1603 0.28399900   1.008000   ; qtot 62.000085
; residue   63 ccc rtp ccc q 1.0
 1604         c3     63    ccc     C1   1604 0.17060900  12.010000   ; qtot 62.170694
 1605         hx     63    ccc     H1   1605 0.04213200   1.008000   ; qtot 62.212826
 1606         hx     63    ccc     H2   1606 0.04213200   1.008000   ; qtot 62.254958
 1607         c3     63    ccc     C2   1607 -0.04496700  12.010000   ; qtot 62.209991
 1608         hc     63    ccc     H3   1608 0.02647500   1.008000   ; qtot 62.236466
 1609         hc     63    ccc     H4   1609 0.02647500   1.008000   ; qtot 62.262941
 1610         c3     63    ccc     C3   1610 0.04732600  12.010000   ; qtot 62.310267
 1611         h1     63    ccc     H5   1611 0.07030200   1.008000   ; qtot 62.380569
 1612         h1     63    ccc     H6   1612 0.07030200   1.008000   ; qtot 62.450871
 1613         n4     63    ccc     N1   1613 -0.21077700  14.010000   ; qtot 62.240094
 1614         hn     63    ccc     H7   1614 0.28399900   1.008000   ; qtot 62.524093
 1615         hn     63    ccc     H8   1615 0.28399900   1.008000   ; qtot 62.808092
 1616         os     63    ccc     O1   1616 -0.09200600  16.000000   ; qtot 62.716086
 1617         hn     63    ccc    H17   1617 0.28399900   1.008000   ; qtot 63.000085
; residue   64 ccc rtp ccc q 1.0
 1618         c3     64    ccc     C1   1618 0.17060900  12.010000   ; qtot 63.170694
 1619         hx     64    ccc     H1   1619 0.04213200   1.008000   ; qtot 63.212826
 1620         hx     64    ccc     H2   1620 0.04213200   1.008000   ; qtot 63.254958
 1621         c3     64    ccc     C2   1621 -0.04496700  12.010000   ; qtot 63.209991
 1622         hc     64    ccc     H3   1622 0.02647500   1.008000   ; qtot 63.236466
 1623         hc     64    ccc     H4   1623 0.02647500   1.008000   ; qtot 63.262941
 1624         c3     64    ccc     C3   1624 0.04732600  12.010000   ; qtot 63.310267
 1625         h1     64    ccc     H5   1625 0.07030200   1.008000   ; qtot 63.380569
 1626         h1     64    ccc     H6   1626 0.07030200   1.008000   ; qtot 63.450871
 1627         n4     64    ccc     N1   1627 -0.21077700  14.010000   ; qtot 63.240094
 1628         hn     64    ccc     H7   1628 0.28399900   1.008000   ; qtot 63.524093
 1629         hn     64    ccc     H8   1629 0.28399900   1.008000   ; qtot 63.808092
 1630         os     64    ccc     O1   1630 -0.09200600  16.000000   ; qtot 63.716086
 1631         hn     64    ccc    H17   1631 0.28399900   1.008000   ; qtot 64.000085
; residue   65 ccc rtp ccc q 1.0
 1632         c3     65    ccc     C1   1632 0.17060900  12.010000   ; qtot 64.170694
 1633         hx     65    ccc     H1   1633 0.04213200   1.008000   ; qtot 64.212826
 1634         hx     65    ccc     H2   1634 0.04213200   1.008000   ; qtot 64.254958
 1635         c3     65    ccc     C2   1635 -0.04496700  12.010000   ; qtot 64.209991
 1636         hc     65    ccc     H3   1636 0.02647500   1.008000   ; qtot 64.236466
 1637         hc     65    ccc     H4   1637 0.02647500   1.008000   ; qtot 64.262941
 1638         c3     65    ccc     C3   1638 0.04732600  12.010000   ; qtot 64.310267
 1639         h1     65    ccc     H5   1639 0.07030200   1.008000   ; qtot 64.380569
 1640         h1     65    ccc     H6   1640 0.07030200   1.008000   ; qtot 64.450871
 1641         n4     65    ccc     N1   1641 -0.21077700  14.010000   ; qtot 64.240094
 1642         hn     65    ccc     H7   1642 0.28399900   1.008000   ; qtot 64.524093
 1643         hn     65    ccc     H8   1643 0.28399900   1.008000   ; qtot 64.808092
 1644         os     65    ccc     O1   1644 -0.09200600  16.000000   ; qtot 64.716086
 1645         hn     65    ccc    H17   1645 0.28399900   1.008000   ; qtot 65.000085
; residue   66 ccc rtp ccc q 1.0
 1646         c3     66    ccc     C1   1646 0.17060900  12.010000   ; qtot 65.170694
 1647         hx     66    ccc     H1   1647 0.04213200   1.008000   ; qtot 65.212826
 1648         hx     66    ccc     H2   1648 0.04213200   1.008000   ; qtot 65.254958
 1649         c3     66    ccc     C2   1649 -0.04496700  12.010000   ; qtot 65.209991
 1650         hc     66    ccc     H3   1650 0.02647500   1.008000   ; qtot 65.236466
 1651         hc     66    ccc     H4   1651 0.02647500   1.008000   ; qtot 65.262941
 1652         c3     66    ccc     C3   1652 0.04732600  12.010000   ; qtot 65.310267
 1653         h1     66    ccc     H5   1653 0.07030200   1.008000   ; qtot 65.380569
 1654         h1     66    ccc     H6   1654 0.07030200   1.008000   ; qtot 65.450871
 1655         n4     66    ccc     N1   1655 -0.21077700  14.010000   ; qtot 65.240094
 1656         hn     66    ccc     H7   1656 0.28399900   1.008000   ; qtot 65.524093
 1657         hn     66    ccc     H8   1657 0.28399900   1.008000   ; qtot 65.808092
 1658         os     66    ccc     O1   1658 -0.09200600  16.000000   ; qtot 65.716086
 1659         hn     66    ccc    H17   1659 0.28399900   1.008000   ; qtot 66.000085
; residue   67 ccc rtp ccc q 1.0
 1660         c3     67    ccc     C1   1660 0.17060900  12.010000   ; qtot 66.170694
 1661         hx     67    ccc     H1   1661 0.04213200   1.008000   ; qtot 66.212826
 1662         hx     67    ccc     H2   1662 0.04213200   1.008000   ; qtot 66.254958
 1663         c3     67    ccc     C2   1663 -0.04496700  12.010000   ; qtot 66.209991
 1664         hc     67    ccc     H3   1664 0.02647500   1.008000   ; qtot 66.236466
 1665         hc     67    ccc     H4   1665 0.02647500   1.008000   ; qtot 66.262941
 1666         c3     67    ccc     C3   1666 0.04732600  12.010000   ; qtot 66.310267
 1667         h1     67    ccc     H5   1667 0.07030200   1.008000   ; qtot 66.380569
 1668         h1     67    ccc     H6   1668 0.07030200   1.008000   ; qtot 66.450871
 1669         n4     67    ccc     N1   1669 -0.21077700  14.010000   ; qtot 66.240094
 1670         hn     67    ccc     H7   1670 0.28399900   1.008000   ; qtot 66.524093
 1671         hn     67    ccc     H8   1671 0.28399900   1.008000   ; qtot 66.808092
 1672         os     67    ccc     O1   1672 -0.09200600  16.000000   ; qtot 66.716086
 1673         hn     67    ccc    H17   1673 0.28399900   1.008000   ; qtot 67.000085
; residue   68 ccc rtp ccc q 1.0
 1674         c3     68    ccc     C1   1674 0.17060900  12.010000   ; qtot 67.170694
 1675         hx     68    ccc     H1   1675 0.04213200   1.008000   ; qtot 67.212826
 1676         hx     68    ccc     H2   1676 0.04213200   1.008000   ; qtot 67.254958
 1677         c3     68    ccc     C2   1677 -0.04496700  12.010000   ; qtot 67.209991
 1678         hc     68    ccc     H3   1678 0.02647500   1.008000   ; qtot 67.236466
 1679         hc     68    ccc     H4   1679 0.02647500   1.008000   ; qtot 67.262941
 1680         c3     68    ccc     C3   1680 0.04732600  12.010000   ; qtot 67.310267
 1681         h1     68    ccc     H5   1681 0.07030200   1.008000   ; qtot 67.380569
 1682         h1     68    ccc     H6   1682 0.07030200   1.008000   ; qtot 67.450871
 1683         n4     68    ccc     N1   1683 -0.21077700  14.010000   ; qtot 67.240094
 1684         hn     68    ccc     H7   1684 0.28399900   1.008000   ; qtot 67.524093
 1685         hn     68    ccc     H8   1685 0.28399900   1.008000   ; qtot 67.808092
 1686         os     68    ccc     O1   1686 -0.09200600  16.000000   ; qtot 67.716086
 1687         hn     68    ccc    H17   1687 0.28399900   1.008000   ; qtot 68.000085
; residue   69 ccc rtp ccc q 1.0
 1688         c3     69    ccc     C1   1688 0.17060900  12.010000   ; qtot 68.170694
 1689         hx     69    ccc     H1   1689 0.04213200   1.008000   ; qtot 68.212826
 1690         hx     69    ccc     H2   1690 0.04213200   1.008000   ; qtot 68.254958
 1691         c3     69    ccc     C2   1691 -0.04496700  12.010000   ; qtot 68.209991
 1692         hc     69    ccc     H3   1692 0.02647500   1.008000   ; qtot 68.236466
 1693         hc     69    ccc     H4   1693 0.02647500   1.008000   ; qtot 68.262941
 1694         c3     69    ccc     C3   1694 0.04732600  12.010000   ; qtot 68.310267
 1695         h1     69    ccc     H5   1695 0.07030200   1.008000   ; qtot 68.380569
 1696         h1     69    ccc     H6   1696 0.07030200   1.008000   ; qtot 68.450871
 1697         n4     69    ccc     N1   1697 -0.21077700  14.010000   ; qtot 68.240094
 1698         hn     69    ccc     H7   1698 0.28399900   1.008000   ; qtot 68.524093
 1699         hn     69    ccc     H8   1699 0.28399900   1.008000   ; qtot 68.808092
 1700         os     69    ccc     O1   1700 -0.09200600  16.000000   ; qtot 68.716086
 1701         hn     69    ccc    H17   1701 0.28399900   1.008000   ; qtot 69.000085
; residue   70 ccc rtp ccc q 1.0
 1702         c3     70    ccc     C1   1702 0.17060900  12.010000   ; qtot 69.170694
 1703         hx     70    ccc     H1   1703 0.04213200   1.008000   ; qtot 69.212826
 1704         hx     70    ccc     H2   1704 0.04213200   1.008000   ; qtot 69.254958
 1705         c3     70    ccc     C2   1705 -0.04496700  12.010000   ; qtot 69.209991
 1706         hc     70    ccc     H3   1706 0.02647500   1.008000   ; qtot 69.236466
 1707         hc     70    ccc     H4   1707 0.02647500   1.008000   ; qtot 69.262941
 1708         c3     70    ccc     C3   1708 0.04732600  12.010000   ; qtot 69.310267
 1709         h1     70    ccc     H5   1709 0.07030200   1.008000   ; qtot 69.380569
 1710         h1     70    ccc     H6   1710 0.07030200   1.008000   ; qtot 69.450871
 1711         n4     70    ccc     N1   1711 -0.21077700  14.010000   ; qtot 69.240094
 1712         hn     70    ccc     H7   1712 0.28399900   1.008000   ; qtot 69.524093
 1713         hn     70    ccc     H8   1713 0.28399900   1.008000   ; qtot 69.808092
 1714         os     70    ccc     O1   1714 -0.09200600  16.000000   ; qtot 69.716086
 1715         hn     70    ccc    H17   1715 0.28399900   1.008000   ; qtot 70.000085
; residue   71 ccc rtp ccc q 1.0
 1716         c3     71    ccc     C1   1716 0.17060900  12.010000   ; qtot 70.170694
 1717         hx     71    ccc     H1   1717 0.04213200   1.008000   ; qtot 70.212826
 1718         hx     71    ccc     H2   1718 0.04213200   1.008000   ; qtot 70.254958
 1719         c3     71    ccc     C2   1719 -0.04496700  12.010000   ; qtot 70.209991
 1720         hc     71    ccc     H3   1720 0.02647500   1.008000   ; qtot 70.236466
 1721         hc     71    ccc     H4   1721 0.02647500   1.008000   ; qtot 70.262941
 1722         c3     71    ccc     C3   1722 0.04732600  12.010000   ; qtot 70.310267
 1723         h1     71    ccc     H5   1723 0.07030200   1.008000   ; qtot 70.380569
 1724         h1     71    ccc     H6   1724 0.07030200   1.008000   ; qtot 70.450871
 1725         n4     71    ccc     N1   1725 -0.21077700  14.010000   ; qtot 70.240094
 1726         hn     71    ccc     H7   1726 0.28399900   1.008000   ; qtot 70.524093
 1727         hn     71    ccc     H8   1727 0.28399900   1.008000   ; qtot 70.808092
 1728         os     71    ccc     O1   1728 -0.09200600  16.000000   ; qtot 70.716086
 1729         hn     71    ccc    H17   1729 0.28399900   1.008000   ; qtot 71.000085
; residue   72 ccc rtp ccc q 1.0
 1730         c3     72    ccc     C1   1730 0.17060900  12.010000   ; qtot 71.170694
 1731         hx     72    ccc     H1   1731 0.04213200   1.008000   ; qtot 71.212826
 1732         hx     72    ccc     H2   1732 0.04213200   1.008000   ; qtot 71.254958
 1733         c3     72    ccc     C2   1733 -0.04496700  12.010000   ; qtot 71.209991
 1734         hc     72    ccc     H3   1734 0.02647500   1.008000   ; qtot 71.236466
 1735         hc     72    ccc     H4   1735 0.02647500   1.008000   ; qtot 71.262941
 1736         c3     72    ccc     C3   1736 0.04732600  12.010000   ; qtot 71.310267
 1737         h1     72    ccc     H5   1737 0.07030200   1.008000   ; qtot 71.380569
 1738         h1     72    ccc     H6   1738 0.07030200   1.008000   ; qtot 71.450871
 1739         n4     72    ccc     N1   1739 -0.21077700  14.010000   ; qtot 71.240094
 1740         hn     72    ccc     H7   1740 0.28399900   1.008000   ; qtot 71.524093
 1741         hn     72    ccc     H8   1741 0.28399900   1.008000   ; qtot 71.808092
 1742         os     72    ccc     O1   1742 -0.09200600  16.000000   ; qtot 71.716086
 1743         hn     72    ccc    H17   1743 0.28399900   1.008000   ; qtot 72.000085
; residue   73 ccc rtp ccc q 1.0
 1744         c3     73    ccc     C1   1744 0.17060900  12.010000   ; qtot 72.170694
 1745         hx     73    ccc     H1   1745 0.04213200   1.008000   ; qtot 72.212826
 1746         hx     73    ccc     H2   1746 0.04213200   1.008000   ; qtot 72.254958
 1747         c3     73    ccc     C2   1747 -0.04496700  12.010000   ; qtot 72.209991
 1748         hc     73    ccc     H3   1748 0.02647500   1.008000   ; qtot 72.236466
 1749         hc     73    ccc     H4   1749 0.02647500   1.008000   ; qtot 72.262941
 1750         c3     73    ccc     C3   1750 0.04732600  12.010000   ; qtot 72.310267
 1751         h1     73    ccc     H5   1751 0.07030200   1.008000   ; qtot 72.380569
 1752         h1     73    ccc     H6   1752 0.07030200   1.008000   ; qtot 72.450871
 1753         n4     73    ccc     N1   1753 -0.21077700  14.010000   ; qtot 72.240094
 1754         hn     73    ccc     H7   1754 0.28399900   1.008000   ; qtot 72.524093
 1755         hn     73    ccc     H8   1755 0.28399900   1.008000   ; qtot 72.808092
 1756         os     73    ccc     O1   1756 -0.09200600  16.000000   ; qtot 72.716086
 1757         hn     73    ccc    H17   1757 0.28399900   1.008000   ; qtot 73.000085
; residue   74 ccc rtp ccc q 1.0
 1758         c3     74    ccc     C1   1758 0.17060900  12.010000   ; qtot 73.170694
 1759         hx     74    ccc     H1   1759 0.04213200   1.008000   ; qtot 73.212826
 1760         hx     74    ccc     H2   1760 0.04213200   1.008000   ; qtot 73.254958
 1761         c3     74    ccc     C2   1761 -0.04496700  12.010000   ; qtot 73.209991
 1762         hc     74    ccc     H3   1762 0.02647500   1.008000   ; qtot 73.236466
 1763         hc     74    ccc     H4   1763 0.02647500   1.008000   ; qtot 73.262941
 1764         c3     74    ccc     C3   1764 0.04732600  12.010000   ; qtot 73.310267
 1765         h1     74    ccc     H5   1765 0.07030200   1.008000   ; qtot 73.380569
 1766         h1     74    ccc     H6   1766 0.07030200   1.008000   ; qtot 73.450871
 1767         n4     74    ccc     N1   1767 -0.21077700  14.010000   ; qtot 73.240094
 1768         hn     74    ccc     H7   1768 0.28399900   1.008000   ; qtot 73.524093
 1769         hn     74    ccc     H8   1769 0.28399900   1.008000   ; qtot 73.808092
 1770         os     74    ccc     O1   1770 -0.09200600  16.000000   ; qtot 73.716086
 1771         hn     74    ccc    H17   1771 0.28399900   1.008000   ; qtot 74.000085
; residue   75 ccc rtp ccc q 1.0
 1772         c3     75    ccc     C1   1772 0.17060900  12.010000   ; qtot 74.170694
 1773         hx     75    ccc     H1   1773 0.04213200   1.008000   ; qtot 74.212826
 1774         hx     75    ccc     H2   1774 0.04213200   1.008000   ; qtot 74.254958
 1775         c3     75    ccc     C2   1775 -0.04496700  12.010000   ; qtot 74.209991
 1776         hc     75    ccc     H3   1776 0.02647500   1.008000   ; qtot 74.236466
 1777         hc     75    ccc     H4   1777 0.02647500   1.008000   ; qtot 74.262941
 1778         c3     75    ccc     C3   1778 0.04732600  12.010000   ; qtot 74.310267
 1779         h1     75    ccc     H5   1779 0.07030200   1.008000   ; qtot 74.380569
 1780         h1     75    ccc     H6   1780 0.07030200   1.008000   ; qtot 74.450871
 1781         n4     75    ccc     N1   1781 -0.21077700  14.010000   ; qtot 74.240094
 1782         hn     75    ccc     H7   1782 0.28399900   1.008000   ; qtot 74.524093
 1783         hn     75    ccc     H8   1783 0.28399900   1.008000   ; qtot 74.808092
 1784         os     75    ccc     O1   1784 -0.09200600  16.000000   ; qtot 74.716086
 1785         hn     75    ccc    H17   1785 0.28399900   1.008000   ; qtot 75.000085
; residue   76 ccc rtp ccc q 1.0
 1786         c3     76    ccc     C1   1786 0.17060900  12.010000   ; qtot 75.170694
 1787         hx     76    ccc     H1   1787 0.04213200   1.008000   ; qtot 75.212826
 1788         hx     76    ccc     H2   1788 0.04213200   1.008000   ; qtot 75.254958
 1789         c3     76    ccc     C2   1789 -0.04496700  12.010000   ; qtot 75.209991
 1790         hc     76    ccc     H3   1790 0.02647500   1.008000   ; qtot 75.236466
 1791         hc     76    ccc     H4   1791 0.02647500   1.008000   ; qtot 75.262941
 1792         c3     76    ccc     C3   1792 0.04732600  12.010000   ; qtot 75.310267
 1793         h1     76    ccc     H5   1793 0.07030200   1.008000   ; qtot 75.380569
 1794         h1     76    ccc     H6   1794 0.07030200   1.008000   ; qtot 75.450871
 1795         n4     76    ccc     N1   1795 -0.21077700  14.010000   ; qtot 75.240094
 1796         hn     76    ccc     H7   1796 0.28399900   1.008000   ; qtot 75.524093
 1797         hn     76    ccc     H8   1797 0.28399900   1.008000   ; qtot 75.808092
 1798         os     76    ccc     O1   1798 -0.09200600  16.000000   ; qtot 75.716086
 1799         hn     76    ccc    H17   1799 0.28399900   1.008000   ; qtot 76.000085
; residue   77 ccc rtp ccc q 1.0
 1800         c3     77    ccc     C1   1800 0.17060900  12.010000   ; qtot 76.170694
 1801         hx     77    ccc     H1   1801 0.04213200   1.008000   ; qtot 76.212826
 1802         hx     77    ccc     H2   1802 0.04213200   1.008000   ; qtot 76.254958
 1803         c3     77    ccc     C2   1803 -0.04496700  12.010000   ; qtot 76.209991
 1804         hc     77    ccc     H3   1804 0.02647500   1.008000   ; qtot 76.236466
 1805         hc     77    ccc     H4   1805 0.02647500   1.008000   ; qtot 76.262941
 1806         c3     77    ccc     C3   1806 0.04732600  12.010000   ; qtot 76.310267
 1807         h1     77    ccc     H5   1807 0.07030200   1.008000   ; qtot 76.380569
 1808         h1     77    ccc     H6   1808 0.07030200   1.008000   ; qtot 76.450871
 1809         n4     77    ccc     N1   1809 -0.21077700  14.010000   ; qtot 76.240094
 1810         hn     77    ccc     H7   1810 0.28399900   1.008000   ; qtot 76.524093
 1811         hn     77    ccc     H8   1811 0.28399900   1.008000   ; qtot 76.808092
 1812         os     77    ccc     O1   1812 -0.09200600  16.000000   ; qtot 76.716086
 1813         hn     77    ccc    H17   1813 0.28399900   1.008000   ; qtot 77.000085
; residue   78 ccc rtp ccc q 1.0
 1814         c3     78    ccc     C1   1814 0.17060900  12.010000   ; qtot 77.170694
 1815         hx     78    ccc     H1   1815 0.04213200   1.008000   ; qtot 77.212826
 1816         hx     78    ccc     H2   1816 0.04213200   1.008000   ; qtot 77.254958
 1817         c3     78    ccc     C2   1817 -0.04496700  12.010000   ; qtot 77.209991
 1818         hc     78    ccc     H3   1818 0.02647500   1.008000   ; qtot 77.236466
 1819         hc     78    ccc     H4   1819 0.02647500   1.008000   ; qtot 77.262941
 1820         c3     78    ccc     C3   1820 0.04732600  12.010000   ; qtot 77.310267
 1821         h1     78    ccc     H5   1821 0.07030200   1.008000   ; qtot 77.380569
 1822         h1     78    ccc     H6   1822 0.07030200   1.008000   ; qtot 77.450871
 1823         n4     78    ccc     N1   1823 -0.21077700  14.010000   ; qtot 77.240094
 1824         hn     78    ccc     H7   1824 0.28399900   1.008000   ; qtot 77.524093
 1825         hn     78    ccc     H8   1825 0.28399900   1.008000   ; qtot 77.808092
 1826         os     78    ccc     O1   1826 -0.09200600  16.000000   ; qtot 77.716086
 1827         hn     78    ccc    H17   1827 0.28399900   1.008000   ; qtot 78.000085
; residue   79 ccc rtp ccc q 1.0
 1828         c3     79    ccc     C1   1828 0.17060900  12.010000   ; qtot 78.170694
 1829         hx     79    ccc     H1   1829 0.04213200   1.008000   ; qtot 78.212826
 1830         hx     79    ccc     H2   1830 0.04213200   1.008000   ; qtot 78.254958
 1831         c3     79    ccc     C2   1831 -0.04496700  12.010000   ; qtot 78.209991
 1832         hc     79    ccc     H3   1832 0.02647500   1.008000   ; qtot 78.236466
 1833         hc     79    ccc     H4   1833 0.02647500   1.008000   ; qtot 78.262941
 1834         c3     79    ccc     C3   1834 0.04732600  12.010000   ; qtot 78.310267
 1835         h1     79    ccc     H5   1835 0.07030200   1.008000   ; qtot 78.380569
 1836         h1     79    ccc     H6   1836 0.07030200   1.008000   ; qtot 78.450871
 1837         n4     79    ccc     N1   1837 -0.21077700  14.010000   ; qtot 78.240094
 1838         hn     79    ccc     H7   1838 0.28399900   1.008000   ; qtot 78.524093
 1839         hn     79    ccc     H8   1839 0.28399900   1.008000   ; qtot 78.808092
 1840         os     79    ccc     O1   1840 -0.09200600  16.000000   ; qtot 78.716086
 1841         hn     79    ccc    H17   1841 0.28399900   1.008000   ; qtot 79.000085
; residue   80 ccc rtp ccc q 1.0
 1842         c3     80    ccc     C1   1842 0.17060900  12.010000   ; qtot 79.170694
 1843         hx     80    ccc     H1   1843 0.04213200   1.008000   ; qtot 79.212826
 1844         hx     80    ccc     H2   1844 0.04213200   1.008000   ; qtot 79.254958
 1845         c3     80    ccc     C2   1845 -0.04496700  12.010000   ; qtot 79.209991
 1846         hc     80    ccc     H3   1846 0.02647500   1.008000   ; qtot 79.236466
 1847         hc     80    ccc     H4   1847 0.02647500   1.008000   ; qtot 79.262941
 1848         c3     80    ccc     C3   1848 0.04732600  12.010000   ; qtot 79.310267
 1849         h1     80    ccc     H5   1849 0.07030200   1.008000   ; qtot 79.380569
 1850         h1     80    ccc     H6   1850 0.07030200   1.008000   ; qtot 79.450871
 1851         n4     80    ccc     N1   1851 -0.21077700  14.010000   ; qtot 79.240094
 1852         hn     80    ccc     H7   1852 0.28399900   1.008000   ; qtot 79.524093
 1853         hn     80    ccc     H8   1853 0.28399900   1.008000   ; qtot 79.808092
 1854         os     80    ccc     O1   1854 -0.09200600  16.000000   ; qtot 79.716086
 1855         hn     80    ccc    H17   1855 0.28399900   1.008000   ; qtot 80.000085
; residue   81 ccc rtp ccc q 1.0
 1856         c3     81    ccc     C1   1856 0.17060900  12.010000   ; qtot 80.170694
 1857         hx     81    ccc     H1   1857 0.04213200   1.008000   ; qtot 80.212826
 1858         hx     81    ccc     H2   1858 0.04213200   1.008000   ; qtot 80.254958
 1859         c3     81    ccc     C2   1859 -0.04496700  12.010000   ; qtot 80.209991
 1860         hc     81    ccc     H3   1860 0.02647500   1.008000   ; qtot 80.236466
 1861         hc     81    ccc     H4   1861 0.02647500   1.008000   ; qtot 80.262941
 1862         c3     81    ccc     C3   1862 0.04732600  12.010000   ; qtot 80.310267
 1863         h1     81    ccc     H5   1863 0.07030200   1.008000   ; qtot 80.380569
 1864         h1     81    ccc     H6   1864 0.07030200   1.008000   ; qtot 80.450871
 1865         n4     81    ccc     N1   1865 -0.21077700  14.010000   ; qtot 80.240094
 1866         hn     81    ccc     H7   1866 0.28399900   1.008000   ; qtot 80.524093
 1867         hn     81    ccc     H8   1867 0.28399900   1.008000   ; qtot 80.808092
 1868         os     81    ccc     O1   1868 -0.09200600  16.000000   ; qtot 80.716086
 1869         hn     81    ccc    H17   1869 0.28399900   1.008000   ; qtot 81.000085
; residue   82 ccc rtp ccc q 1.0
 1870         c3     82    ccc     C1   1870 0.17060900  12.010000   ; qtot 81.170694
 1871         hx     82    ccc     H1   1871 0.04213200   1.008000   ; qtot 81.212826
 1872         hx     82    ccc     H2   1872 0.04213200   1.008000   ; qtot 81.254958
 1873         c3     82    ccc     C2   1873 -0.04496700  12.010000   ; qtot 81.209991
 1874         hc     82    ccc     H3   1874 0.02647500   1.008000   ; qtot 81.236466
 1875         hc     82    ccc     H4   1875 0.02647500   1.008000   ; qtot 81.262941
 1876         c3     82    ccc     C3   1876 0.04732600  12.010000   ; qtot 81.310267
 1877         h1     82    ccc     H5   1877 0.07030200   1.008000   ; qtot 81.380569
 1878         h1     82    ccc     H6   1878 0.07030200   1.008000   ; qtot 81.450871
 1879         n4     82    ccc     N1   1879 -0.21077700  14.010000   ; qtot 81.240094
 1880         hn     82    ccc     H7   1880 0.28399900   1.008000   ; qtot 81.524093
 1881         hn     82    ccc     H8   1881 0.28399900   1.008000   ; qtot 81.808092
 1882         os     82    ccc     O1   1882 -0.09200600  16.000000   ; qtot 81.716086
 1883         hn     82    ccc    H17   1883 0.28399900   1.008000   ; qtot 82.000085
; residue   83 ccc rtp ccc q 1.0
 1884         c3     83    ccc     C1   1884 0.17060900  12.010000   ; qtot 82.170694
 1885         hx     83    ccc     H1   1885 0.04213200   1.008000   ; qtot 82.212826
 1886         hx     83    ccc     H2   1886 0.04213200   1.008000   ; qtot 82.254958
 1887         c3     83    ccc     C2   1887 -0.04496700  12.010000   ; qtot 82.209991
 1888         hc     83    ccc     H3   1888 0.02647500   1.008000   ; qtot 82.236466
 1889         hc     83    ccc     H4   1889 0.02647500   1.008000   ; qtot 82.262941
 1890         c3     83    ccc     C3   1890 0.04732600  12.010000   ; qtot 82.310267
 1891         h1     83    ccc     H5   1891 0.07030200   1.008000   ; qtot 82.380569
 1892         h1     83    ccc     H6   1892 0.07030200   1.008000   ; qtot 82.450871
 1893         n4     83    ccc     N1   1893 -0.21077700  14.010000   ; qtot 82.240094
 1894         hn     83    ccc     H7   1894 0.28399900   1.008000   ; qtot 82.524093
 1895         hn     83    ccc     H8   1895 0.28399900   1.008000   ; qtot 82.808092
 1896         os     83    ccc     O1   1896 -0.09200600  16.000000   ; qtot 82.716086
 1897         hn     83    ccc    H17   1897 0.28399900   1.008000   ; qtot 83.000085
; residue   84 ccc rtp ccc q 1.0
 1898         c3     84    ccc     C1   1898 0.17060900  12.010000   ; qtot 83.170694
 1899         hx     84    ccc     H1   1899 0.04213200   1.008000   ; qtot 83.212826
 1900         hx     84    ccc     H2   1900 0.04213200   1.008000   ; qtot 83.254958
 1901         c3     84    ccc     C2   1901 -0.04496700  12.010000   ; qtot 83.209991
 1902         hc     84    ccc     H3   1902 0.02647500   1.008000   ; qtot 83.236466
 1903         hc     84    ccc     H4   1903 0.02647500   1.008000   ; qtot 83.262941
 1904         c3     84    ccc     C3   1904 0.04732600  12.010000   ; qtot 83.310267
 1905         h1     84    ccc     H5   1905 0.07030200   1.008000   ; qtot 83.380569
 1906         h1     84    ccc     H6   1906 0.07030200   1.008000   ; qtot 83.450871
 1907         n4     84    ccc     N1   1907 -0.21077700  14.010000   ; qtot 83.240094
 1908         hn     84    ccc     H7   1908 0.28399900   1.008000   ; qtot 83.524093
 1909         hn     84    ccc     H8   1909 0.28399900   1.008000   ; qtot 83.808092
 1910         os     84    ccc     O1   1910 -0.09200600  16.000000   ; qtot 83.716086
 1911         hn     84    ccc    H17   1911 0.28399900   1.008000   ; qtot 84.000085
; residue   85 ccc rtp ccc q 1.0
 1912         c3     85    ccc     C1   1912 0.17060900  12.010000   ; qtot 84.170694
 1913         hx     85    ccc     H1   1913 0.04213200   1.008000   ; qtot 84.212826
 1914         hx     85    ccc     H2   1914 0.04213200   1.008000   ; qtot 84.254958
 1915         c3     85    ccc     C2   1915 -0.04496700  12.010000   ; qtot 84.209991
 1916         hc     85    ccc     H3   1916 0.02647500   1.008000   ; qtot 84.236466
 1917         hc     85    ccc     H4   1917 0.02647500   1.008000   ; qtot 84.262941
 1918         c3     85    ccc     C3   1918 0.04732600  12.010000   ; qtot 84.310267
 1919         h1     85    ccc     H5   1919 0.07030200   1.008000   ; qtot 84.380569
 1920         h1     85    ccc     H6   1920 0.07030200   1.008000   ; qtot 84.450871
 1921         n4     85    ccc     N1   1921 -0.21077700  14.010000   ; qtot 84.240094
 1922         hn     85    ccc     H7   1922 0.28399900   1.008000   ; qtot 84.524093
 1923         hn     85    ccc     H8   1923 0.28399900   1.008000   ; qtot 84.808092
 1924         os     85    ccc     O1   1924 -0.09200600  16.000000   ; qtot 84.716086
 1925         hn     85    ccc    H17   1925 0.28399900   1.008000   ; qtot 85.000085
; residue   86 ccc rtp ccc q 1.0
 1926         c3     86    ccc     C1   1926 0.17060900  12.010000   ; qtot 85.170694
 1927         hx     86    ccc     H1   1927 0.04213200   1.008000   ; qtot 85.212826
 1928         hx     86    ccc     H2   1928 0.04213200   1.008000   ; qtot 85.254958
 1929         c3     86    ccc     C2   1929 -0.04496700  12.010000   ; qtot 85.209991
 1930         hc     86    ccc     H3   1930 0.02647500   1.008000   ; qtot 85.236466
 1931         hc     86    ccc     H4   1931 0.02647500   1.008000   ; qtot 85.262941
 1932         c3     86    ccc     C3   1932 0.04732600  12.010000   ; qtot 85.310267
 1933         h1     86    ccc     H5   1933 0.07030200   1.008000   ; qtot 85.380569
 1934         h1     86    ccc     H6   1934 0.07030200   1.008000   ; qtot 85.450871
 1935         n4     86    ccc     N1   1935 -0.21077700  14.010000   ; qtot 85.240094
 1936         hn     86    ccc     H7   1936 0.28399900   1.008000   ; qtot 85.524093
 1937         hn     86    ccc     H8   1937 0.28399900   1.008000   ; qtot 85.808092
 1938         os     86    ccc     O1   1938 -0.09200600  16.000000   ; qtot 85.716086
 1939         hn     86    ccc    H17   1939 0.28399900   1.008000   ; qtot 86.000085
; residue   87 ccc rtp ccc q 1.0
 1940         c3     87    ccc     C1   1940 0.17060900  12.010000   ; qtot 86.170694
 1941         hx     87    ccc     H1   1941 0.04213200   1.008000   ; qtot 86.212826
 1942         hx     87    ccc     H2   1942 0.04213200   1.008000   ; qtot 86.254958
 1943         c3     87    ccc     C2   1943 -0.04496700  12.010000   ; qtot 86.209991
 1944         hc     87    ccc     H3   1944 0.02647500   1.008000   ; qtot 86.236466
 1945         hc     87    ccc     H4   1945 0.02647500   1.008000   ; qtot 86.262941
 1946         c3     87    ccc     C3   1946 0.04732600  12.010000   ; qtot 86.310267
 1947         h1     87    ccc     H5   1947 0.07030200   1.008000   ; qtot 86.380569
 1948         h1     87    ccc     H6   1948 0.07030200   1.008000   ; qtot 86.450871
 1949         n4     87    ccc     N1   1949 -0.21077700  14.010000   ; qtot 86.240094
 1950         hn     87    ccc     H7   1950 0.28399900   1.008000   ; qtot 86.524093
 1951         hn     87    ccc     H8   1951 0.28399900   1.008000   ; qtot 86.808092
 1952         os     87    ccc     O1   1952 -0.09200600  16.000000   ; qtot 86.716086
 1953         hn     87    ccc    H17   1953 0.28399900   1.008000   ; qtot 87.000085
; residue   88 ccc rtp ccc q 1.0
 1954         c3     88    ccc     C1   1954 0.17060900  12.010000   ; qtot 87.170694
 1955         hx     88    ccc     H1   1955 0.04213200   1.008000   ; qtot 87.212826
 1956         hx     88    ccc     H2   1956 0.04213200   1.008000   ; qtot 87.254958
 1957         c3     88    ccc     C2   1957 -0.04496700  12.010000   ; qtot 87.209991
 1958         hc     88    ccc     H3   1958 0.02647500   1.008000   ; qtot 87.236466
 1959         hc     88    ccc     H4   1959 0.02647500   1.008000   ; qtot 87.262941
 1960         c3     88    ccc     C3   1960 0.04732600  12.010000   ; qtot 87.310267
 1961         h1     88    ccc     H5   1961 0.07030200   1.008000   ; qtot 87.380569
 1962         h1     88    ccc     H6   1962 0.07030200   1.008000   ; qtot 87.450871
 1963         n4     88    ccc     N1   1963 -0.21077700  14.010000   ; qtot 87.240094
 1964         hn     88    ccc     H7   1964 0.28399900   1.008000   ; qtot 87.524093
 1965         hn     88    ccc     H8   1965 0.28399900   1.008000   ; qtot 87.808092
 1966         os     88    ccc     O1   1966 -0.09200600  16.000000   ; qtot 87.716086
 1967         hn     88    ccc    H17   1967 0.28399900   1.008000   ; qtot 88.000085
; residue   89 ccc rtp ccc q 1.0
 1968         c3     89    ccc     C1   1968 0.17060900  12.010000   ; qtot 88.170694
 1969         hx     89    ccc     H1   1969 0.04213200   1.008000   ; qtot 88.212826
 1970         hx     89    ccc     H2   1970 0.04213200   1.008000   ; qtot 88.254958
 1971         c3     89    ccc     C2   1971 -0.04496700  12.010000   ; qtot 88.209991
 1972         hc     89    ccc     H3   1972 0.02647500   1.008000   ; qtot 88.236466
 1973         hc     89    ccc     H4   1973 0.02647500   1.008000   ; qtot 88.262941
 1974         c3     89    ccc     C3   1974 0.04732600  12.010000   ; qtot 88.310267
 1975         h1     89    ccc     H5   1975 0.07030200   1.008000   ; qtot 88.380569
 1976         h1     89    ccc     H6   1976 0.07030200   1.008000   ; qtot 88.450871
 1977         n4     89    ccc     N1   1977 -0.21077700  14.010000   ; qtot 88.240094
 1978         hn     89    ccc     H7   1978 0.28399900   1.008000   ; qtot 88.524093
 1979         hn     89    ccc     H8   1979 0.28399900   1.008000   ; qtot 88.808092
 1980         os     89    ccc     O1   1980 -0.09200600  16.000000   ; qtot 88.716086
 1981         hn     89    ccc    H17   1981 0.28399900   1.008000   ; qtot 89.000085
; residue   90 ccc rtp ccc q 1.0
 1982         c3     90    ccc     C1   1982 0.17060900  12.010000   ; qtot 89.170694
 1983         hx     90    ccc     H1   1983 0.04213200   1.008000   ; qtot 89.212826
 1984         hx     90    ccc     H2   1984 0.04213200   1.008000   ; qtot 89.254958
 1985         c3     90    ccc     C2   1985 -0.04496700  12.010000   ; qtot 89.209991
 1986         hc     90    ccc     H3   1986 0.02647500   1.008000   ; qtot 89.236466
 1987         hc     90    ccc     H4   1987 0.02647500   1.008000   ; qtot 89.262941
 1988         c3     90    ccc     C3   1988 0.04732600  12.010000   ; qtot 89.310267
 1989         h1     90    ccc     H5   1989 0.07030200   1.008000   ; qtot 89.380569
 1990         h1     90    ccc     H6   1990 0.07030200   1.008000   ; qtot 89.450871
 1991         n4     90    ccc     N1   1991 -0.21077700  14.010000   ; qtot 89.240094
 1992         hn     90    ccc     H7   1992 0.28399900   1.008000   ; qtot 89.524093
 1993         hn     90    ccc     H8   1993 0.28399900   1.008000   ; qtot 89.808092
 1994         os     90    ccc     O1   1994 -0.09200600  16.000000   ; qtot 89.716086
 1995         hn     90    ccc    H17   1995 0.28399900   1.008000   ; qtot 90.000085
; residue   91 ccc rtp ccc q 1.0
 1996         c3     91    ccc     C1   1996 0.17060900  12.010000   ; qtot 90.170694
 1997         hx     91    ccc     H1   1997 0.04213200   1.008000   ; qtot 90.212826
 1998         hx     91    ccc     H2   1998 0.04213200   1.008000   ; qtot 90.254958
 1999         c3     91    ccc     C2   1999 -0.04496700  12.010000   ; qtot 90.209991
 2000         hc     91    ccc     H3   2000 0.02647500   1.008000   ; qtot 90.236466
 2001         hc     91    ccc     H4   2001 0.02647500   1.008000   ; qtot 90.262941
 2002         c3     91    ccc     C3   2002 0.04732600  12.010000   ; qtot 90.310267
 2003         h1     91    ccc     H5   2003 0.07030200   1.008000   ; qtot 90.380569
 2004         h1     91    ccc     H6   2004 0.07030200   1.008000   ; qtot 90.450871
 2005         n4     91    ccc     N1   2005 -0.21077700  14.010000   ; qtot 90.240094
 2006         hn     91    ccc     H7   2006 0.28399900   1.008000   ; qtot 90.524093
 2007         hn     91    ccc     H8   2007 0.28399900   1.008000   ; qtot 90.808092
 2008         os     91    ccc     O1   2008 -0.09200600  16.000000   ; qtot 90.716086
 2009         hn     91    ccc    H17   2009 0.28399900   1.008000   ; qtot 91.000085
; residue   92 ccc rtp ccc q 1.0
 2010         c3     92    ccc     C1   2010 0.17060900  12.010000   ; qtot 91.170694
 2011         hx     92    ccc     H1   2011 0.04213200   1.008000   ; qtot 91.212826
 2012         hx     92    ccc     H2   2012 0.04213200   1.008000   ; qtot 91.254958
 2013         c3     92    ccc     C2   2013 -0.04496700  12.010000   ; qtot 91.209991
 2014         hc     92    ccc     H3   2014 0.02647500   1.008000   ; qtot 91.236466
 2015         hc     92    ccc     H4   2015 0.02647500   1.008000   ; qtot 91.262941
 2016         c3     92    ccc     C3   2016 0.04732600  12.010000   ; qtot 91.310267
 2017         h1     92    ccc     H5   2017 0.07030200   1.008000   ; qtot 91.380569
 2018         h1     92    ccc     H6   2018 0.07030200   1.008000   ; qtot 91.450871
 2019         n4     92    ccc     N1   2019 -0.21077700  14.010000   ; qtot 91.240094
 2020         hn     92    ccc     H7   2020 0.28399900   1.008000   ; qtot 91.524093
 2021         hn     92    ccc     H8   2021 0.28399900   1.008000   ; qtot 91.808092
 2022         os     92    ccc     O1   2022 -0.09200600  16.000000   ; qtot 91.716086
 2023         hn     92    ccc    H17   2023 0.28399900   1.008000   ; qtot 92.000085
; residue   93 ccc rtp ccc q 1.0
 2024         c3     93    ccc     C1   2024 0.17060900  12.010000   ; qtot 92.170694
 2025         hx     93    ccc     H1   2025 0.04213200   1.008000   ; qtot 92.212826
 2026         hx     93    ccc     H2   2026 0.04213200   1.008000   ; qtot 92.254958
 2027         c3     93    ccc     C2   2027 -0.04496700  12.010000   ; qtot 92.209991
 2028         hc     93    ccc     H3   2028 0.02647500   1.008000   ; qtot 92.236466
 2029         hc     93    ccc     H4   2029 0.02647500   1.008000   ; qtot 92.262941
 2030         c3     93    ccc     C3   2030 0.04732600  12.010000   ; qtot 92.310267
 2031         h1     93    ccc     H5   2031 0.07030200   1.008000   ; qtot 92.380569
 2032         h1     93    ccc     H6   2032 0.07030200   1.008000   ; qtot 92.450871
 2033         n4     93    ccc     N1   2033 -0.21077700  14.010000   ; qtot 92.240094
 2034         hn     93    ccc     H7   2034 0.28399900   1.008000   ; qtot 92.524093
 2035         hn     93    ccc     H8   2035 0.28399900   1.008000   ; qtot 92.808092
 2036         os     93    ccc     O1   2036 -0.09200600  16.000000   ; qtot 92.716086
 2037         hn     93    ccc    H17   2037 0.28399900   1.008000   ; qtot 93.000085
; residue   94 ccc rtp ccc q 1.0
 2038         c3     94    ccc     C1   2038 0.17060900  12.010000   ; qtot 93.170694
 2039         hx     94    ccc     H1   2039 0.04213200   1.008000   ; qtot 93.212826
 2040         hx     94    ccc     H2   2040 0.04213200   1.008000   ; qtot 93.254958
 2041         c3     94    ccc     C2   2041 -0.04496700  12.010000   ; qtot 93.209991
 2042         hc     94    ccc     H3   2042 0.02647500   1.008000   ; qtot 93.236466
 2043         hc     94    ccc     H4   2043 0.02647500   1.008000   ; qtot 93.262941
 2044         c3     94    ccc     C3   2044 0.04732600  12.010000   ; qtot 93.310267
 2045         h1     94    ccc     H5   2045 0.07030200   1.008000   ; qtot 93.380569
 2046         h1     94    ccc     H6   2046 0.07030200   1.008000   ; qtot 93.450871
 2047         n4     94    ccc     N1   2047 -0.21077700  14.010000   ; qtot 93.240094
 2048         hn     94    ccc     H7   2048 0.28399900   1.008000   ; qtot 93.524093
 2049         hn     94    ccc     H8   2049 0.28399900   1.008000   ; qtot 93.808092
 2050         os     94    ccc     O1   2050 -0.09200600  16.000000   ; qtot 93.716086
 2051         hn     94    ccc    H17   2051 0.28399900   1.008000   ; qtot 94.000085

[ bonds ]
;    ai     aj funct         c0         c1         c2         c3
      1      2     1   0.15110 237065.440000
      1      5     1   0.15110 237065.440000
      1      8     1   0.15110 237065.440000
      2     14     1   0.15375 251793.120000
      5     17     1   0.15375 251793.120000
      8     11     1   0.15375 251793.120000
     11     23     1   0.15375 251793.120000
     14     26     1   0.15375 251793.120000
     17     20     1   0.15375 251793.120000
     20     58     1   0.14316 258236.480000
     23     88     1   0.14316 258236.480000
     26    118     1   0.14316 258236.480000
     30     31     1   0.15110 237065.440000
     30     34     1   0.15110 237065.440000
     30     37     1   0.15110 237065.440000
     31     43     1   0.15375 251793.120000
     34     46     1   0.15375 251793.120000
     37     40     1   0.15375 251793.120000
     40     49     1   0.15375 251793.120000
     43     55     1   0.15375 251793.120000
     46     52     1   0.15375 251793.120000
     49     58     1   0.14316 258236.480000
     52    148     1   0.14316 258236.480000
     55    178     1   0.14316 258236.480000
     60     61     1   0.15110 237065.440000
     60     64     1   0.15110 237065.440000
     60     67     1   0.15110 237065.440000
     61     73     1   0.15375 251793.120000
     64     76     1   0.15375 251793.120000
     67     70     1   0.15375 251793.120000
     70     79     1   0.15375 251793.120000
     73     85     1   0.15375 251793.120000
     76     82     1   0.15375 251793.120000
     79     88     1   0.14316 258236.480000
     82    208     1   0.14316 258236.480000
     85    238     1   0.14316 258236.480000
     90     91     1   0.15110 237065.440000
     90     94     1   0.15110 237065.440000
     90     97     1   0.15110 237065.440000
     91    103     1   0.15375 251793.120000
     94    106     1   0.15375 251793.120000
     97    100     1   0.15375 251793.120000
    100    109     1   0.15375 251793.120000
    103    115     1   0.15375 251793.120000
    106    112     1   0.15375 251793.120000
    109    118     1   0.14316 258236.480000
    112    268     1   0.14316 258236.480000
    115    298     1   0.14316 258236.480000
    120    121     1   0.15110 237065.440000
    120    124     1   0.15110 237065.440000
    120    127     1   0.15110 237065.440000
    121    133     1   0.15375 251793.120000
    124    136     1   0.15375 251793.120000
    127    130     1   0.15375 251793.120000
    130    139     1   0.15375 251793.120000
    133    145     1   0.15375 251793.120000
    136    142     1   0.15375 251793.120000
    139    148     1   0.14316 258236.480000
    142    328     1   0.14316 258236.480000
    145    358     1   0.14316 258236.480000
    150    151     1   0.15110 237065.440000
    150    154     1   0.15110 237065.440000
    150    157     1   0.15110 237065.440000
    151    163     1   0.15375 251793.120000
    154    166     1   0.15375 251793.120000
    157    160     1   0.15375 251793.120000
    160    169     1   0.15375 251793.120000
    163    175     1   0.15375 251793.120000
    166    172     1   0.15375 251793.120000
    169    178     1   0.14316 258236.480000
    172    388     1   0.14316 258236.480000
    175    418     1   0.14316 258236.480000
    180    181     1   0.15110 237065.440000
    180    184     1   0.15110 237065.440000
    180    187     1   0.15110 237065.440000
    181    193     1   0.15375 251793.120000
    184    196     1   0.15375 251793.120000
    187    190     1   0.15375 251793.120000
    190    199     1   0.15375 251793.120000
    193    205     1   0.15375 251793.120000
    196    202     1   0.15375 251793.120000
    199    208     1   0.14316 258236.480000
    202    448     1   0.14316 258236.480000
    205    478     1   0.14316 258236.480000
    210    211     1   0.15110 237065.440000
    210    214     1   0.15110 237065.440000
    210    217     1   0.15110 237065.440000
    211    223     1   0.15375 251793.120000
    214    226     1   0.15375 251793.120000
    217    220     1   0.15375 251793.120000
    220    229     1   0.15375 251793.120000
    223    235     1   0.15375 251793.120000
    226    232     1   0.15375 251793.120000
    229    238     1   0.14316 258236.480000
    232    508     1   0.14316 258236.480000
    235    538     1   0.14316 258236.480000
    240    241     1   0.15110 237065.440000
    240    244     1   0.15110 237065.440000
    240    247     1   0.15110 237065.440000
    241    253     1   0.15375 251793.120000
    244    256     1   0.15375 251793.120000
    247    250     1   0.15375 251793.120000
    250    259     1   0.15375 251793.120000
    253    265     1   0.15375 251793.120000
    256    262     1   0.15375 251793.120000
    259    268     1   0.14316 258236.480000
    262    568     1   0.14316 258236.480000
    265    598     1   0.14316 258236.480000
    270    271     1   0.15110 237065.440000
    270    274     1   0.15110 237065.440000
    270    277     1   0.15110 237065.440000
    271    283     1   0.15375 251793.120000
    274    286     1   0.15375 251793.120000
    277    280     1   0.15375 251793.120000
    280    289     1   0.15375 251793.120000
    283    295     1   0.15375 251793.120000
    286    292     1   0.15375 251793.120000
    289    298     1   0.14316 258236.480000
    292    628     1   0.14316 258236.480000
    295    658     1   0.14316 258236.480000
    300    301     1   0.15110 237065.440000
    300    304     1   0.15110 237065.440000
    300    307     1   0.15110 237065.440000
    301    313     1   0.15375 251793.120000
    304    316     1   0.15375 251793.120000
    307    310     1   0.15375 251793.120000
    310    319     1   0.15375 251793.120000
    313    325     1   0.15375 251793.120000
    316    322     1   0.15375 251793.120000
    319    328     1   0.14316 258236.480000
    322    688     1   0.14316 258236.480000
    325    718     1   0.14316 258236.480000
    330    331     1   0.15110 237065.440000
    330    334     1   0.15110 237065.440000
    330    337     1   0.15110 237065.440000
    331    343     1   0.15375 251793.120000
    334    346     1   0.15375 251793.120000
    337    340     1   0.15375 251793.120000
    340    349     1   0.15375 251793.120000
    343    355     1   0.15375 251793.120000
    346    352     1   0.15375 251793.120000
    349    358     1   0.14316 258236.480000
    352    748     1   0.14316 258236.480000
    355    778     1   0.14316 258236.480000
    360    361     1   0.15110 237065.440000
    360    364     1   0.15110 237065.440000
    360    367     1   0.15110 237065.440000
    361    373     1   0.15375 251793.120000
    364    376     1   0.15375 251793.120000
    367    370     1   0.15375 251793.120000
    370    379     1   0.15375 251793.120000
    373    385     1   0.15375 251793.120000
    376    382     1   0.15375 251793.120000
    379    388     1   0.14316 258236.480000
    382    808     1   0.14316 258236.480000
    385    838     1   0.14316 258236.480000
    390    391     1   0.15110 237065.440000
    390    394     1   0.15110 237065.440000
    390    397     1   0.15110 237065.440000
    391    403     1   0.15375 251793.120000
    394    406     1   0.15375 251793.120000
    397    400     1   0.15375 251793.120000
    400    409     1   0.15375 251793.120000
    403    415     1   0.15375 251793.120000
    406    412     1   0.15375 251793.120000
    409    418     1   0.14316 258236.480000
    412    868     1   0.14316 258236.480000
    415    898     1   0.14316 258236.480000
    420    421     1   0.15110 237065.440000
    420    424     1   0.15110 237065.440000
    420    427     1   0.15110 237065.440000
    421    433     1   0.15375 251793.120000
    424    436     1   0.15375 251793.120000
    427    430     1   0.15375 251793.120000
    430    439     1   0.15375 251793.120000
    433    445     1   0.15375 251793.120000
    436    442     1   0.15375 251793.120000
    439    448     1   0.14316 258236.480000
    442    928     1   0.14316 258236.480000
    445    958     1   0.14316 258236.480000
    450    451     1   0.15110 237065.440000
    450    454     1   0.15110 237065.440000
    450    457     1   0.15110 237065.440000
    451    463     1   0.15375 251793.120000
    454    466     1   0.15375 251793.120000
    457    460     1   0.15375 251793.120000
    460    469     1   0.15375 251793.120000
    463    475     1   0.15375 251793.120000
    466    472     1   0.15375 251793.120000
    469    478     1   0.14316 258236.480000
    472    988     1   0.14316 258236.480000
    475   1018     1   0.14316 258236.480000
    480    481     1   0.15110 237065.440000
    480    484     1   0.15110 237065.440000
    480    487     1   0.15110 237065.440000
    481    493     1   0.15375 251793.120000
    484    496     1   0.15375 251793.120000
    487    490     1   0.15375 251793.120000
    490    499     1   0.15375 251793.120000
    493    505     1   0.15375 251793.120000
    496    502     1   0.15375 251793.120000
    499    508     1   0.14316 258236.480000
    502   1048     1   0.14316 258236.480000
    505   1078     1   0.14316 258236.480000
    510    511     1   0.15110 237065.440000
    510    514     1   0.15110 237065.440000
    510    517     1   0.15110 237065.440000
    511    523     1   0.15375 251793.120000
    514    526     1   0.15375 251793.120000
    517    520     1   0.15375 251793.120000
    520    529     1   0.15375 251793.120000
    523    535     1   0.15375 251793.120000
    526    532     1   0.15375 251793.120000
    529    538     1   0.14316 258236.480000
    532   1108     1   0.14316 258236.480000
    535   1138     1   0.14316 258236.480000
    540    541     1   0.15110 237065.440000
    540    544     1   0.15110 237065.440000
    540    547     1   0.15110 237065.440000
    541    553     1   0.15375 251793.120000
    544    556     1   0.15375 251793.120000
    547    550     1   0.15375 251793.120000
    550    559     1   0.15375 251793.120000
    553    565     1   0.15375 251793.120000
    556    562     1   0.15375 251793.120000
    559    568     1   0.14316 258236.480000
    562   1168     1   0.14316 258236.480000
    565   1198     1   0.14316 258236.480000
    570    571     1   0.15110 237065.440000
    570    574     1   0.15110 237065.440000
    570    577     1   0.15110 237065.440000
    571    583     1   0.15375 251793.120000
    574    586     1   0.15375 251793.120000
    577    580     1   0.15375 251793.120000
    580    589     1   0.15375 251793.120000
    583    595     1   0.15375 251793.120000
    586    592     1   0.15375 251793.120000
    589    598     1   0.14316 258236.480000
    592   1228     1   0.14316 258236.480000
    595   1258     1   0.14316 258236.480000
    600    601     1   0.15110 237065.440000
    600    604     1   0.15110 237065.440000
    600    607     1   0.15110 237065.440000
    601    613     1   0.15375 251793.120000
    604    616     1   0.15375 251793.120000
    607    610     1   0.15375 251793.120000
    610    619     1   0.15375 251793.120000
    613    625     1   0.15375 251793.120000
    616    622     1   0.15375 251793.120000
    619    628     1   0.14316 258236.480000
    622   1288     1   0.14316 258236.480000
    625   1318     1   0.14316 258236.480000
    630    631     1   0.15110 237065.440000
    630    634     1   0.15110 237065.440000
    630    637     1   0.15110 237065.440000
    631    643     1   0.15375 251793.120000
    634    646     1   0.15375 251793.120000
    637    640     1   0.15375 251793.120000
    640    649     1   0.15375 251793.120000
    643    655     1   0.15375 251793.120000
    646    652     1   0.15375 251793.120000
    649    658     1   0.14316 258236.480000
    652   1348     1   0.14316 258236.480000
    655   1378     1   0.14316 258236.480000
    660    661     1   0.15110 237065.440000
    660    664     1   0.15110 237065.440000
    660    667     1   0.15110 237065.440000
    661    673     1   0.15375 251793.120000
    664    676     1   0.15375 251793.120000
    667    670     1   0.15375 251793.120000
    670    679     1   0.15375 251793.120000
    673    685     1   0.15375 251793.120000
    676    682     1   0.15375 251793.120000
    679    688     1   0.14316 258236.480000
    682   1392     1   0.14316 258236.480000
    685   1406     1   0.14316 258236.480000
    690    691     1   0.15110 237065.440000
    690    694     1   0.15110 237065.440000
    690    697     1   0.15110 237065.440000
    691    703     1   0.15375 251793.120000
    694    706     1   0.15375 251793.120000
    697    700     1   0.15375 251793.120000
    700    709     1   0.15375 251793.120000
    703    715     1   0.15375 251793.120000
    706    712     1   0.15375 251793.120000
    709    718     1   0.14316 258236.480000
    712   1420     1   0.14316 258236.480000
    715   1434     1   0.14316 258236.480000
    720    721     1   0.15110 237065.440000
    720    724     1   0.15110 237065.440000
    720    727     1   0.15110 237065.440000
    721    733     1   0.15375 251793.120000
    724    736     1   0.15375 251793.120000
    727    730     1   0.15375 251793.120000
    730    739     1   0.15375 251793.120000
    733    745     1   0.15375 251793.120000
    736    742     1   0.15375 251793.120000
    739    748     1   0.14316 258236.480000
    742   1448     1   0.14316 258236.480000
    745   1462     1   0.14316 258236.480000
    750    751     1   0.15110 237065.440000
    750    754     1   0.15110 237065.440000
    750    757     1   0.15110 237065.440000
    751    763     1   0.15375 251793.120000
    754    766     1   0.15375 251793.120000
    757    760     1   0.15375 251793.120000
    760    769     1   0.15375 251793.120000
    763    775     1   0.15375 251793.120000
    766    772     1   0.15375 251793.120000
    769    778     1   0.14316 258236.480000
    772   1476     1   0.14316 258236.480000
    775   1490     1   0.14316 258236.480000
    780    781     1   0.15110 237065.440000
    780    784     1   0.15110 237065.440000
    780    787     1   0.15110 237065.440000
    781    793     1   0.15375 251793.120000
    784    796     1   0.15375 251793.120000
    787    790     1   0.15375 251793.120000
    790    799     1   0.15375 251793.120000
    793    805     1   0.15375 251793.120000
    796    802     1   0.15375 251793.120000
    799    808     1   0.14316 258236.480000
    802   1504     1   0.14316 258236.480000
    805   1518     1   0.14316 258236.480000
    810    811     1   0.15110 237065.440000
    810    814     1   0.15110 237065.440000
    810    817     1   0.15110 237065.440000
    811    823     1   0.15375 251793.120000
    814    826     1   0.15375 251793.120000
    817    820     1   0.15375 251793.120000
    820    829     1   0.15375 251793.120000
    823    835     1   0.15375 251793.120000
    826    832     1   0.15375 251793.120000
    829    838     1   0.14316 258236.480000
    832   1532     1   0.14316 258236.480000
    835   1546     1   0.14316 258236.480000
    840    841     1   0.15110 237065.440000
    840    844     1   0.15110 237065.440000
    840    847     1   0.15110 237065.440000
    841    853     1   0.15375 251793.120000
    844    856     1   0.15375 251793.120000
    847    850     1   0.15375 251793.120000
    850    859     1   0.15375 251793.120000
    853    865     1   0.15375 251793.120000
    856    862     1   0.15375 251793.120000
    859    868     1   0.14316 258236.480000
    862   1560     1   0.14316 258236.480000
    865   1574     1   0.14316 258236.480000
    870    871     1   0.15110 237065.440000
    870    874     1   0.15110 237065.440000
    870    877     1   0.15110 237065.440000
    871    883     1   0.15375 251793.120000
    874    886     1   0.15375 251793.120000
    877    880     1   0.15375 251793.120000
    880    889     1   0.15375 251793.120000
    883    895     1   0.15375 251793.120000
    886    892     1   0.15375 251793.120000
    889    898     1   0.14316 258236.480000
    892   1588     1   0.14316 258236.480000
    895   1602     1   0.14316 258236.480000
    900    901     1   0.15110 237065.440000
    900    904     1   0.15110 237065.440000
    900    907     1   0.15110 237065.440000
    901    913     1   0.15375 251793.120000
    904    916     1   0.15375 251793.120000
    907    910     1   0.15375 251793.120000
    910    919     1   0.15375 251793.120000
    913    925     1   0.15375 251793.120000
    916    922     1   0.15375 251793.120000
    919    928     1   0.14316 258236.480000
    922   1616     1   0.14316 258236.480000
    925   1630     1   0.14316 258236.480000
    930    931     1   0.15110 237065.440000
    930    934     1   0.15110 237065.440000
    930    937     1   0.15110 237065.440000
    931    943     1   0.15375 251793.120000
    934    946     1   0.15375 251793.120000
    937    940     1   0.15375 251793.120000
    940    949     1   0.15375 251793.120000
    943    955     1   0.15375 251793.120000
    946    952     1   0.15375 251793.120000
    949    958     1   0.14316 258236.480000
    952   1644     1   0.14316 258236.480000
    955   1658     1   0.14316 258236.480000
    960    961     1   0.15110 237065.440000
    960    964     1   0.15110 237065.440000
    960    967     1   0.15110 237065.440000
    961    973     1   0.15375 251793.120000
    964    976     1   0.15375 251793.120000
    967    970     1   0.15375 251793.120000
    970    979     1   0.15375 251793.120000
    973    985     1   0.15375 251793.120000
    976    982     1   0.15375 251793.120000
    979    988     1   0.14316 258236.480000
    982   1672     1   0.14316 258236.480000
    985   1686     1   0.14316 258236.480000
    990    991     1   0.15110 237065.440000
    990    994     1   0.15110 237065.440000
    990    997     1   0.15110 237065.440000
    991   1003     1   0.15375 251793.120000
    994   1006     1   0.15375 251793.120000
    997   1000     1   0.15375 251793.120000
   1000   1009     1   0.15375 251793.120000
   1003   1015     1   0.15375 251793.120000
   1006   1012     1   0.15375 251793.120000
   1009   1018     1   0.14316 258236.480000
   1012   1700     1   0.14316 258236.480000
   1015   1714     1   0.14316 258236.480000
   1020   1021     1   0.15110 237065.440000
   1020   1024     1   0.15110 237065.440000
   1020   1027     1   0.15110 237065.440000
   1021   1033     1   0.15375 251793.120000
   1024   1036     1   0.15375 251793.120000
   1027   1030     1   0.15375 251793.120000
   1030   1039     1   0.15375 251793.120000
   1033   1045     1   0.15375 251793.120000
   1036   1042     1   0.15375 251793.120000
   1039   1048     1   0.14316 258236.480000
   1042   1728     1   0.14316 258236.480000
   1045   1742     1   0.14316 258236.480000
   1050   1051     1   0.15110 237065.440000
   1050   1054     1   0.15110 237065.440000
   1050   1057     1   0.15110 237065.440000
   1051   1063     1   0.15375 251793.120000
   1054   1066     1   0.15375 251793.120000
   1057   1060     1   0.15375 251793.120000
   1060   1069     1   0.15375 251793.120000
   1063   1075     1   0.15375 251793.120000
   1066   1072     1   0.15375 251793.120000
   1069   1078     1   0.14316 258236.480000
   1072   1756     1   0.14316 258236.480000
   1075   1770     1   0.14316 258236.480000
   1080   1081     1   0.15110 237065.440000
   1080   1084     1   0.15110 237065.440000
   1080   1087     1   0.15110 237065.440000
   1081   1093     1   0.15375 251793.120000
   1084   1096     1   0.15375 251793.120000
   1087   1090     1   0.15375 251793.120000
   1090   1099     1   0.15375 251793.120000
   1093   1105     1   0.15375 251793.120000
   1096   1102     1   0.15375 251793.120000
   1099   1108     1   0.14316 258236.480000
   1102   1784     1   0.14316 258236.480000
   1105   1798     1   0.14316 258236.480000
   1110   1111     1   0.15110 237065.440000
   1110   1114     1   0.15110 237065.440000
   1110   1117     1   0.15110 237065.440000
   1111   1123     1   0.15375 251793.120000
   1114   1126     1   0.15375 251793.120000
   1117   1120     1   0.15375 251793.120000
   1120   1129     1   0.15375 251793.120000
   1123   1135     1   0.15375 251793.120000
   1126   1132     1   0.15375 251793.120000
   1129   1138     1   0.14316 258236.480000
   1132   1812     1   0.14316 258236.480000
   1135   1826     1   0.14316 258236.480000
   1140   1141     1   0.15110 237065.440000
   1140   1144     1   0.15110 237065.440000
   1140   1147     1   0.15110 237065.440000
   1141   1153     1   0.15375 251793.120000
   1144   1156     1   0.15375 251793.120000
   1147   1150     1   0.15375 251793.120000
   1150   1159     1   0.15375 251793.120000
   1153   1165     1   0.15375 251793.120000
   1156   1162     1   0.15375 251793.120000
   1159   1168     1   0.14316 258236.480000
   1162   1840     1   0.14316 258236.480000
   1165   1854     1   0.14316 258236.480000
   1170   1171     1   0.15110 237065.440000
   1170   1174     1   0.15110 237065.440000
   1170   1177     1   0.15110 237065.440000
   1171   1183     1   0.15375 251793.120000
   1174   1186     1   0.15375 251793.120000
   1177   1180     1   0.15375 251793.120000
   1180   1189     1   0.15375 251793.120000
   1183   1195     1   0.15375 251793.120000
   1186   1192     1   0.15375 251793.120000
   1189   1198     1   0.14316 258236.480000
   1192   1868     1   0.14316 258236.480000
   1195   1882     1   0.14316 258236.480000
   1200   1201     1   0.15110 237065.440000
   1200   1204     1   0.15110 237065.440000
   1200   1207     1   0.15110 237065.440000
   1201   1213     1   0.15375 251793.120000
   1204   1216     1   0.15375 251793.120000
   1207   1210     1   0.15375 251793.120000
   1210   1219     1   0.15375 251793.120000
   1213   1225     1   0.15375 251793.120000
   1216   1222     1   0.15375 251793.120000
   1219   1228     1   0.14316 258236.480000
   1222   1896     1   0.14316 258236.480000
   1225   1910     1   0.14316 258236.480000
   1230   1231     1   0.15110 237065.440000
   1230   1234     1   0.15110 237065.440000
   1230   1237     1   0.15110 237065.440000
   1231   1243     1   0.15375 251793.120000
   1234   1246     1   0.15375 251793.120000
   1237   1240     1   0.15375 251793.120000
   1240   1249     1   0.15375 251793.120000
   1243   1255     1   0.15375 251793.120000
   1246   1252     1   0.15375 251793.120000
   1249   1258     1   0.14316 258236.480000
   1252   1924     1   0.14316 258236.480000
   1255   1938     1   0.14316 258236.480000
   1260   1261     1   0.15110 237065.440000
   1260   1264     1   0.15110 237065.440000
   1260   1267     1   0.15110 237065.440000
   1261   1273     1   0.15375 251793.120000
   1264   1276     1   0.15375 251793.120000
   1267   1270     1   0.15375 251793.120000
   1270   1279     1   0.15375 251793.120000
   1273   1285     1   0.15375 251793.120000
   1276   1282     1   0.15375 251793.120000
   1279   1288     1   0.14316 258236.480000
   1282   1952     1   0.14316 258236.480000
   1285   1966     1   0.14316 258236.480000
   1290   1291     1   0.15110 237065.440000
   1290   1294     1   0.15110 237065.440000
   1290   1297     1   0.15110 237065.440000
   1291   1303     1   0.15375 251793.120000
   1294   1306     1   0.15375 251793.120000
   1297   1300     1   0.15375 251793.120000
   1300   1309     1   0.15375 251793.120000
   1303   1315     1   0.15375 251793.120000
   1306   1312     1   0.15375 251793.120000
   1309   1318     1   0.14316 258236.480000
   1312   1980     1   0.14316 258236.480000
   1315   1994     1   0.14316 258236.480000
   1320   1321     1   0.15110 237065.440000
   1320   1324     1   0.15110 237065.440000
   1320   1327     1   0.15110 237065.440000
   1321   1333     1   0.15375 251793.120000
   1324   1336     1   0.15375 251793.120000
   1327   1330     1   0.15375 251793.120000
   1330   1339     1   0.15375 251793.120000
   1333   1345     1   0.15375 251793.120000
   1336   1342     1   0.15375 251793.120000
   1339   1348     1   0.14316 258236.480000
   1342   2008     1   0.14316 258236.480000
   1345   2022     1   0.14316 258236.480000
   1350   1351     1   0.15110 237065.440000
   1350   1354     1   0.15110 237065.440000
   1350   1357     1   0.15110 237065.440000
   1351   1363     1   0.15375 251793.120000
   1354   1366     1   0.15375 251793.120000
   1357   1360     1   0.15375 251793.120000
   1360   1369     1   0.15375 251793.120000
   1363   1375     1   0.15375 251793.120000
   1366   1372     1   0.15375 251793.120000
   1369   1378     1   0.14316 258236.480000
   1372   2036     1   0.14316 258236.480000
   1375   2050     1   0.14316 258236.480000
   1380   1383     1   0.15375 251793.120000
   1380   1389     1   0.15110 237065.440000
   1383   1386     1   0.15375 251793.120000
   1386   1392     1   0.14316 258236.480000
   1394   1397     1   0.15375 251793.120000
   1394   1403     1   0.15110 237065.440000
   1397   1400     1   0.15375 251793.120000
   1400   1406     1   0.14316 258236.480000
   1408   1411     1   0.15375 251793.120000
   1408   1417     1   0.15110 237065.440000
   1411   1414     1   0.15375 251793.120000
   1414   1420     1   0.14316 258236.480000
   1422   1425     1   0.15375 251793.120000
   1422   1431     1   0.15110 237065.440000
   1425   1428     1   0.15375 251793.120000
   1428   1434     1   0.14316 258236.480000
   1436   1439     1   0.15375 251793.120000
   1436   1445     1   0.15110 237065.440000
   1439   1442     1   0.15375 251793.120000
   1442   1448     1   0.14316 258236.480000
   1450   1453     1   0.15375 251793.120000
   1450   1459     1   0.15110 237065.440000
   1453   1456     1   0.15375 251793.120000
   1456   1462     1   0.14316 258236.480000
   1464   1467     1   0.15375 251793.120000
   1464   1473     1   0.15110 237065.440000
   1467   1470     1   0.15375 251793.120000
   1470   1476     1   0.14316 258236.480000
   1478   1481     1   0.15375 251793.120000
   1478   1487     1   0.15110 237065.440000
   1481   1484     1   0.15375 251793.120000
   1484   1490     1   0.14316 258236.480000
   1492   1495     1   0.15375 251793.120000
   1492   1501     1   0.15110 237065.440000
   1495   1498     1   0.15375 251793.120000
   1498   1504     1   0.14316 258236.480000
   1506   1509     1   0.15375 251793.120000
   1506   1515     1   0.15110 237065.440000
   1509   1512     1   0.15375 251793.120000
   1512   1518     1   0.14316 258236.480000
   1520   1523     1   0.15375 251793.120000
   1520   1529     1   0.15110 237065.440000
   1523   1526     1   0.15375 251793.120000
   1526   1532     1   0.14316 258236.480000
   1534   1537     1   0.15375 251793.120000
   1534   1543     1   0.15110 237065.440000
   1537   1540     1   0.15375 251793.120000
   1540   1546     1   0.14316 258236.480000
   1548   1551     1   0.15375 251793.120000
   1548   1557     1   0.15110 237065.440000
   1551   1554     1   0.15375 251793.120000
   1554   1560     1   0.14316 258236.480000
   1562   1565     1   0.15375 251793.120000
   1562   1571     1   0.15110 237065.440000
   1565   1568     1   0.15375 251793.120000
   1568   1574     1   0.14316 258236.480000
   1576   1579     1   0.15375 251793.120000
   1576   1585     1   0.15110 237065.440000
   1579   1582     1   0.15375 251793.120000
   1582   1588     1   0.14316 258236.480000
   1590   1593     1   0.15375 251793.120000
   1590   1599     1   0.15110 237065.440000
   1593   1596     1   0.15375 251793.120000
   1596   1602     1   0.14316 258236.480000
   1604   1607     1   0.15375 251793.120000
   1604   1613     1   0.15110 237065.440000
   1607   1610     1   0.15375 251793.120000
   1610   1616     1   0.14316 258236.480000
   1618   1621     1   0.15375 251793.120000
   1618   1627     1   0.15110 237065.440000
   1621   1624     1   0.15375 251793.120000
   1624   1630     1   0.14316 258236.480000
   1632   1635     1   0.15375 251793.120000
   1632   1641     1   0.15110 237065.440000
   1635   1638     1   0.15375 251793.120000
   1638   1644     1   0.14316 258236.480000
   1646   1649     1   0.15375 251793.120000
   1646   1655     1   0.15110 237065.440000
   1649   1652     1   0.15375 251793.120000
   1652   1658     1   0.14316 258236.480000
   1660   1663     1   0.15375 251793.120000
   1660   1669     1   0.15110 237065.440000
   1663   1666     1   0.15375 251793.120000
   1666   1672     1   0.14316 258236.480000
   1674   1677     1   0.15375 251793.120000
   1674   1683     1   0.15110 237065.440000
   1677   1680     1   0.15375 251793.120000
   1680   1686     1   0.14316 258236.480000
   1688   1691     1   0.15375 251793.120000
   1688   1697     1   0.15110 237065.440000
   1691   1694     1   0.15375 251793.120000
   1694   1700     1   0.14316 258236.480000
   1702   1705     1   0.15375 251793.120000
   1702   1711     1   0.15110 237065.440000
   1705   1708     1   0.15375 251793.120000
   1708   1714     1   0.14316 258236.480000
   1716   1719     1   0.15375 251793.120000
   1716   1725     1   0.15110 237065.440000
   1719   1722     1   0.15375 251793.120000
   1722   1728     1   0.14316 258236.480000
   1730   1733     1   0.15375 251793.120000
   1730   1739     1   0.15110 237065.440000
   1733   1736     1   0.15375 251793.120000
   1736   1742     1   0.14316 258236.480000
   1744   1747     1   0.15375 251793.120000
   1744   1753     1   0.15110 237065.440000
   1747   1750     1   0.15375 251793.120000
   1750   1756     1   0.14316 258236.480000
   1758   1761     1   0.15375 251793.120000
   1758   1767     1   0.15110 237065.440000
   1761   1764     1   0.15375 251793.120000
   1764   1770     1   0.14316 258236.480000
   1772   1775     1   0.15375 251793.120000
   1772   1781     1   0.15110 237065.440000
   1775   1778     1   0.15375 251793.120000
   1778   1784     1   0.14316 258236.480000
   1786   1789     1   0.15375 251793.120000
   1786   1795     1   0.15110 237065.440000
   1789   1792     1   0.15375 251793.120000
   1792   1798     1   0.14316 258236.480000
   1800   1803     1   0.15375 251793.120000
   1800   1809     1   0.15110 237065.440000
   1803   1806     1   0.15375 251793.120000
   1806   1812     1   0.14316 258236.480000
   1814   1817     1   0.15375 251793.120000
   1814   1823     1   0.15110 237065.440000
   1817   1820     1   0.15375 251793.120000
   1820   1826     1   0.14316 258236.480000
   1828   1831     1   0.15375 251793.120000
   1828   1837     1   0.15110 237065.440000
   1831   1834     1   0.15375 251793.120000
   1834   1840     1   0.14316 258236.480000
   1842   1845     1   0.15375 251793.120000
   1842   1851     1   0.15110 237065.440000
   1845   1848     1   0.15375 251793.120000
   1848   1854     1   0.14316 258236.480000
   1856   1859     1   0.15375 251793.120000
   1856   1865     1   0.15110 237065.440000
   1859   1862     1   0.15375 251793.120000
   1862   1868     1   0.14316 258236.480000
   1870   1873     1   0.15375 251793.120000
   1870   1879     1   0.15110 237065.440000
   1873   1876     1   0.15375 251793.120000
   1876   1882     1   0.14316 258236.480000
   1884   1887     1   0.15375 251793.120000
   1884   1893     1   0.15110 237065.440000
   1887   1890     1   0.15375 251793.120000
   1890   1896     1   0.14316 258236.480000
   1898   1901     1   0.15375 251793.120000
   1898   1907     1   0.15110 237065.440000
   1901   1904     1   0.15375 251793.120000
   1904   1910     1   0.14316 258236.480000
   1912   1915     1   0.15375 251793.120000
   1912   1921     1   0.15110 237065.440000
   1915   1918     1   0.15375 251793.120000
   1918   1924     1   0.14316 258236.480000
   1926   1929     1   0.15375 251793.120000
   1926   1935     1   0.15110 237065.440000
   1929   1932     1   0.15375 251793.120000
   1932   1938     1   0.14316 258236.480000
   1940   1943     1   0.15375 251793.120000
   1940   1949     1   0.15110 237065.440000
   1943   1946     1   0.15375 251793.120000
   1946   1952     1   0.14316 258236.480000
   1954   1957     1   0.15375 251793.120000
   1954   1963     1   0.15110 237065.440000
   1957   1960     1   0.15375 251793.120000
   1960   1966     1   0.14316 258236.480000
   1968   1971     1   0.15375 251793.120000
   1968   1977     1   0.15110 237065.440000
   1971   1974     1   0.15375 251793.120000
   1974   1980     1   0.14316 258236.480000
   1982   1985     1   0.15375 251793.120000
   1982   1991     1   0.15110 237065.440000
   1985   1988     1   0.15375 251793.120000
   1988   1994     1   0.14316 258236.480000
   1996   1999     1   0.15375 251793.120000
   1996   2005     1   0.15110 237065.440000
   1999   2002     1   0.15375 251793.120000
   2002   2008     1   0.14316 258236.480000
   2010   2013     1   0.15375 251793.120000
   2010   2019     1   0.15110 237065.440000
   2013   2016     1   0.15375 251793.120000
   2016   2022     1   0.14316 258236.480000
   2024   2027     1   0.15375 251793.120000
   2024   2033     1   0.15110 237065.440000
   2027   2030     1   0.15375 251793.120000
   2030   2036     1   0.14316 258236.480000
   2038   2041     1   0.15375 251793.120000
   2038   2047     1   0.15110 237065.440000
   2041   2044     1   0.15375 251793.120000
   2044   2050     1   0.14316 258236.480000
      1     29     1   0.10304 312293.760000
      2      3     1   0.10910 283424.160000
      2      4     1   0.10910 283424.160000
      5      6     1   0.10910 283424.160000
      5      7     1   0.10910 283424.160000
      8      9     1   0.10910 283424.160000
      8     10     1   0.10910 283424.160000
     11     12     1   0.10969 276646.080000
     11     13     1   0.10969 276646.080000
     14     15     1   0.10969 276646.080000
     14     16     1   0.10969 276646.080000
     17     18     1   0.10969 276646.080000
     17     19     1   0.10969 276646.080000
     20     21     1   0.10969 276646.080000
     20     22     1   0.10969 276646.080000
     23     24     1   0.10969 276646.080000
     23     25     1   0.10969 276646.080000
     26     27     1   0.10969 276646.080000
     26     28     1   0.10969 276646.080000
     30     59     1   0.10304 312293.760000
     31     32     1   0.10910 283424.160000
     31     33     1   0.10910 283424.160000
     34     35     1   0.10910 283424.160000
     34     36     1   0.10910 283424.160000
     37     38     1   0.10910 283424.160000
     37     39     1   0.10910 283424.160000
     40     41     1   0.10969 276646.080000
     40     42     1   0.10969 276646.080000
     43     44     1   0.10969 276646.080000
     43     45     1   0.10969 276646.080000
     46     47     1   0.10969 276646.080000
     46     48     1   0.10969 276646.080000
     49     50     1   0.10969 276646.080000
     49     51     1   0.10969 276646.080000
     52     53     1   0.10969 276646.080000
     52     54     1   0.10969 276646.080000
     55     56     1   0.10969 276646.080000
     55     57     1   0.10969 276646.080000
     60     89     1   0.10304 312293.760000
     61     62     1   0.10910 283424.160000
     61     63     1   0.10910 283424.160000
     64     65     1   0.10910 283424.160000
     64     66     1   0.10910 283424.160000
     67     68     1   0.10910 283424.160000
     67     69     1   0.10910 283424.160000
     70     71     1   0.10969 276646.080000
     70     72     1   0.10969 276646.080000
     73     74     1   0.10969 276646.080000
     73     75     1   0.10969 276646.080000
     76     77     1   0.10969 276646.080000
     76     78     1   0.10969 276646.080000
     79     80     1   0.10969 276646.080000
     79     81     1   0.10969 276646.080000
     82     83     1   0.10969 276646.080000
     82     84     1   0.10969 276646.080000
     85     86     1   0.10969 276646.080000
     85     87     1   0.10969 276646.080000
     90    119     1   0.10304 312293.760000
     91     92     1   0.10910 283424.160000
     91     93     1   0.10910 283424.160000
     94     95     1   0.10910 283424.160000
     94     96     1   0.10910 283424.160000
     97     98     1   0.10910 283424.160000
     97     99     1   0.10910 283424.160000
    100    101     1   0.10969 276646.080000
    100    102     1   0.10969 276646.080000
    103    104     1   0.10969 276646.080000
    103    105     1   0.10969 276646.080000
    106    107     1   0.10969 276646.080000
    106    108     1   0.10969 276646.080000
    109    110     1   0.10969 276646.080000
    109    111     1   0.10969 276646.080000
    112    113     1   0.10969 276646.080000
    112    114     1   0.10969 276646.080000
    115    116     1   0.10969 276646.080000
    115    117     1   0.10969 276646.080000
    120    149     1   0.10304 312293.760000
    121    122     1   0.10910 283424.160000
    121    123     1   0.10910 283424.160000
    124    125     1   0.10910 283424.160000
    124    126     1   0.10910 283424.160000
    127    128     1   0.10910 283424.160000
    127    129     1   0.10910 283424.160000
    130    131     1   0.10969 276646.080000
    130    132     1   0.10969 276646.080000
    133    134     1   0.10969 276646.080000
    133    135     1   0.10969 276646.080000
    136    137     1   0.10969 276646.080000
    136    138     1   0.10969 276646.080000
    139    140     1   0.10969 276646.080000
    139    141     1   0.10969 276646.080000
    142    143     1   0.10969 276646.080000
    142    144     1   0.10969 276646.080000
    145    146     1   0.10969 276646.080000
    145    147     1   0.10969 276646.080000
    150    179     1   0.10304 312293.760000
    151    152     1   0.10910 283424.160000
    151    153     1   0.10910 283424.160000
    154    155     1   0.10910 283424.160000
    154    156     1   0.10910 283424.160000
    157    158     1   0.10910 283424.160000
    157    159     1   0.10910 283424.160000
    160    161     1   0.10969 276646.080000
    160    162     1   0.10969 276646.080000
    163    164     1   0.10969 276646.080000
    163    165     1   0.10969 276646.080000
    166    167     1   0.10969 276646.080000
    166    168     1   0.10969 276646.080000
    169    170     1   0.10969 276646.080000
    169    171     1   0.10969 276646.080000
    172    173     1   0.10969 276646.080000
    172    174     1   0.10969 276646.080000
    175    176     1   0.10969 276646.080000
    175    177     1   0.10969 276646.080000
    180    209     1   0.10304 312293.760000
    181    182     1   0.10910 283424.160000
    181    183     1   0.10910 283424.160000
    184    185     1   0.10910 283424.160000
    184    186     1   0.10910 283424.160000
    187    188     1   0.10910 283424.160000
    187    189     1   0.10910 283424.160000
    190    191     1   0.10969 276646.080000
    190    192     1   0.10969 276646.080000
    193    194     1   0.10969 276646.080000
    193    195     1   0.10969 276646.080000
    196    197     1   0.10969 276646.080000
    196    198     1   0.10969 276646.080000
    199    200     1   0.10969 276646.080000
    199    201     1   0.10969 276646.080000
    202    203     1   0.10969 276646.080000
    202    204     1   0.10969 276646.080000
    205    206     1   0.10969 276646.080000
    205    207     1   0.10969 276646.080000
    210    239     1   0.10304 312293.760000
    211    212     1   0.10910 283424.160000
    211    213     1   0.10910 283424.160000
    214    215     1   0.10910 283424.160000
    214    216     1   0.10910 283424.160000
    217    218     1   0.10910 283424.160000
    217    219     1   0.10910 283424.160000
    220    221     1   0.10969 276646.080000
    220    222     1   0.10969 276646.080000
    223    224     1   0.10969 276646.080000
    223    225     1   0.10969 276646.080000
    226    227     1   0.10969 276646.080000
    226    228     1   0.10969 276646.080000
    229    230     1   0.10969 276646.080000
    229    231     1   0.10969 276646.080000
    232    233     1   0.10969 276646.080000
    232    234     1   0.10969 276646.080000
    235    236     1   0.10969 276646.080000
    235    237     1   0.10969 276646.080000
    240    269     1   0.10304 312293.760000
    241    242     1   0.10910 283424.160000
    241    243     1   0.10910 283424.160000
    244    245     1   0.10910 283424.160000
    244    246     1   0.10910 283424.160000
    247    248     1   0.10910 283424.160000
    247    249     1   0.10910 283424.160000
    250    251     1   0.10969 276646.080000
    250    252     1   0.10969 276646.080000
    253    254     1   0.10969 276646.080000
    253    255     1   0.10969 276646.080000
    256    257     1   0.10969 276646.080000
    256    258     1   0.10969 276646.080000
    259    260     1   0.10969 276646.080000
    259    261     1   0.10969 276646.080000
    262    263     1   0.10969 276646.080000
    262    264     1   0.10969 276646.080000
    265    266     1   0.10969 276646.080000
    265    267     1   0.10969 276646.080000
    270    299     1   0.10304 312293.760000
    271    272     1   0.10910 283424.160000
    271    273     1   0.10910 283424.160000
    274    275     1   0.10910 283424.160000
    274    276     1   0.10910 283424.160000
    277    278     1   0.10910 283424.160000
    277    279     1   0.10910 283424.160000
    280    281     1   0.10969 276646.080000
    280    282     1   0.10969 276646.080000
    283    284     1   0.10969 276646.080000
    283    285     1   0.10969 276646.080000
    286    287     1   0.10969 276646.080000
    286    288     1   0.10969 276646.080000
    289    290     1   0.10969 276646.080000
    289    291     1   0.10969 276646.080000
    292    293     1   0.10969 276646.080000
    292    294     1   0.10969 276646.080000
    295    296     1   0.10969 276646.080000
    295    297     1   0.10969 276646.080000
    300    329     1   0.10304 312293.760000
    301    302     1   0.10910 283424.160000
    301    303     1   0.10910 283424.160000
    304    305     1   0.10910 283424.160000
    304    306     1   0.10910 283424.160000
    307    308     1   0.10910 283424.160000
    307    309     1   0.10910 283424.160000
    310    311     1   0.10969 276646.080000
    310    312     1   0.10969 276646.080000
    313    314     1   0.10969 276646.080000
    313    315     1   0.10969 276646.080000
    316    317     1   0.10969 276646.080000
    316    318     1   0.10969 276646.080000
    319    320     1   0.10969 276646.080000
    319    321     1   0.10969 276646.080000
    322    323     1   0.10969 276646.080000
    322    324     1   0.10969 276646.080000
    325    326     1   0.10969 276646.080000
    325    327     1   0.10969 276646.080000
    330    359     1   0.10304 312293.760000
    331    332     1   0.10910 283424.160000
    331    333     1   0.10910 283424.160000
    334    335     1   0.10910 283424.160000
    334    336     1   0.10910 283424.160000
    337    338     1   0.10910 283424.160000
    337    339     1   0.10910 283424.160000
    340    341     1   0.10969 276646.080000
    340    342     1   0.10969 276646.080000
    343    344     1   0.10969 276646.080000
    343    345     1   0.10969 276646.080000
    346    347     1   0.10969 276646.080000
    346    348     1   0.10969 276646.080000
    349    350     1   0.10969 276646.080000
    349    351     1   0.10969 276646.080000
    352    353     1   0.10969 276646.080000
    352    354     1   0.10969 276646.080000
    355    356     1   0.10969 276646.080000
    355    357     1   0.10969 276646.080000
    360    389     1   0.10304 312293.760000
    361    362     1   0.10910 283424.160000
    361    363     1   0.10910 283424.160000
    364    365     1   0.10910 283424.160000
    364    366     1   0.10910 283424.160000
    367    368     1   0.10910 283424.160000
    367    369     1   0.10910 283424.160000
    370    371     1   0.10969 276646.080000
    370    372     1   0.10969 276646.080000
    373    374     1   0.10969 276646.080000
    373    375     1   0.10969 276646.080000
    376    377     1   0.10969 276646.080000
    376    378     1   0.10969 276646.080000
    379    380     1   0.10969 276646.080000
    379    381     1   0.10969 276646.080000
    382    383     1   0.10969 276646.080000
    382    384     1   0.10969 276646.080000
    385    386     1   0.10969 276646.080000
    385    387     1   0.10969 276646.080000
    390    419     1   0.10304 312293.760000
    391    392     1   0.10910 283424.160000
    391    393     1   0.10910 283424.160000
    394    395     1   0.10910 283424.160000
    394    396     1   0.10910 283424.160000
    397    398     1   0.10910 283424.160000
    397    399     1   0.10910 283424.160000
    400    401     1   0.10969 276646.080000
    400    402     1   0.10969 276646.080000
    403    404     1   0.10969 276646.080000
    403    405     1   0.10969 276646.080000
    406    407     1   0.10969 276646.080000
    406    408     1   0.10969 276646.080000
    409    410     1   0.10969 276646.080000
    409    411     1   0.10969 276646.080000
    412    413     1   0.10969 276646.080000
    412    414     1   0.10969 276646.080000
    415    416     1   0.10969 276646.080000
    415    417     1   0.10969 276646.080000
    420    449     1   0.10304 312293.760000
    421    422     1   0.10910 283424.160000
    421    423     1   0.10910 283424.160000
    424    425     1   0.10910 283424.160000
    424    426     1   0.10910 283424.160000
    427    428     1   0.10910 283424.160000
    427    429     1   0.10910 283424.160000
    430    431     1   0.10969 276646.080000
    430    432     1   0.10969 276646.080000
    433    434     1   0.10969 276646.080000
    433    435     1   0.10969 276646.080000
    436    437     1   0.10969 276646.080000
    436    438     1   0.10969 276646.080000
    439    440     1   0.10969 276646.080000
    439    441     1   0.10969 276646.080000
    442    443     1   0.10969 276646.080000
    442    444     1   0.10969 276646.080000
    445    446     1   0.10969 276646.080000
    445    447     1   0.10969 276646.080000
    450    479     1   0.10304 312293.760000
    451    452     1   0.10910 283424.160000
    451    453     1   0.10910 283424.160000
    454    455     1   0.10910 283424.160000
    454    456     1   0.10910 283424.160000
    457    458     1   0.10910 283424.160000
    457    459     1   0.10910 283424.160000
    460    461     1   0.10969 276646.080000
    460    462     1   0.10969 276646.080000
    463    464     1   0.10969 276646.080000
    463    465     1   0.10969 276646.080000
    466    467     1   0.10969 276646.080000
    466    468     1   0.10969 276646.080000
    469    470     1   0.10969 276646.080000
    469    471     1   0.10969 276646.080000
    472    473     1   0.10969 276646.080000
    472    474     1   0.10969 276646.080000
    475    476     1   0.10969 276646.080000
    475    477     1   0.10969 276646.080000
    480    509     1   0.10304 312293.760000
    481    482     1   0.10910 283424.160000
    481    483     1   0.10910 283424.160000
    484    485     1   0.10910 283424.160000
    484    486     1   0.10910 283424.160000
    487    488     1   0.10910 283424.160000
    487    489     1   0.10910 283424.160000
    490    491     1   0.10969 276646.080000
    490    492     1   0.10969 276646.080000
    493    494     1   0.10969 276646.080000
    493    495     1   0.10969 276646.080000
    496    497     1   0.10969 276646.080000
    496    498     1   0.10969 276646.080000
    499    500     1   0.10969 276646.080000
    499    501     1   0.10969 276646.080000
    502    503     1   0.10969 276646.080000
    502    504     1   0.10969 276646.080000
    505    506     1   0.10969 276646.080000
    505    507     1   0.10969 276646.080000
    510    539     1   0.10304 312293.760000
    511    512     1   0.10910 283424.160000
    511    513     1   0.10910 283424.160000
    514    515     1   0.10910 283424.160000
    514    516     1   0.10910 283424.160000
    517    518     1   0.10910 283424.160000
    517    519     1   0.10910 283424.160000
    520    521     1   0.10969 276646.080000
    520    522     1   0.10969 276646.080000
    523    524     1   0.10969 276646.080000
    523    525     1   0.10969 276646.080000
    526    527     1   0.10969 276646.080000
    526    528     1   0.10969 276646.080000
    529    530     1   0.10969 276646.080000
    529    531     1   0.10969 276646.080000
    532    533     1   0.10969 276646.080000
    532    534     1   0.10969 276646.080000
    535    536     1   0.10969 276646.080000
    535    537     1   0.10969 276646.080000
    540    569     1   0.10304 312293.760000
    541    542     1   0.10910 283424.160000
    541    543     1   0.10910 283424.160000
    544    545     1   0.10910 283424.160000
    544    546     1   0.10910 283424.160000
    547    548     1   0.10910 283424.160000
    547    549     1   0.10910 283424.160000
    550    551     1   0.10969 276646.080000
    550    552     1   0.10969 276646.080000
    553    554     1   0.10969 276646.080000
    553    555     1   0.10969 276646.080000
    556    557     1   0.10969 276646.080000
    556    558     1   0.10969 276646.080000
    559    560     1   0.10969 276646.080000
    559    561     1   0.10969 276646.080000
    562    563     1   0.10969 276646.080000
    562    564     1   0.10969 276646.080000
    565    566     1   0.10969 276646.080000
    565    567     1   0.10969 276646.080000
    570    599     1   0.10304 312293.760000
    571    572     1   0.10910 283424.160000
    571    573     1   0.10910 283424.160000
    574    575     1   0.10910 283424.160000
    574    576     1   0.10910 283424.160000
    577    578     1   0.10910 283424.160000
    577    579     1   0.10910 283424.160000
    580    581     1   0.10969 276646.080000
    580    582     1   0.10969 276646.080000
    583    584     1   0.10969 276646.080000
    583    585     1   0.10969 276646.080000
    586    587     1   0.10969 276646.080000
    586    588     1   0.10969 276646.080000
    589    590     1   0.10969 276646.080000
    589    591     1   0.10969 276646.080000
    592    593     1   0.10969 276646.080000
    592    594     1   0.10969 276646.080000
    595    596     1   0.10969 276646.080000
    595    597     1   0.10969 276646.080000
    600    629     1   0.10304 312293.760000
    601    602     1   0.10910 283424.160000
    601    603     1   0.10910 283424.160000
    604    605     1   0.10910 283424.160000
    604    606     1   0.10910 283424.160000
    607    608     1   0.10910 283424.160000
    607    609     1   0.10910 283424.160000
    610    611     1   0.10969 276646.080000
    610    612     1   0.10969 276646.080000
    613    614     1   0.10969 276646.080000
    613    615     1   0.10969 276646.080000
    616    617     1   0.10969 276646.080000
    616    618     1   0.10969 276646.080000
    619    620     1   0.10969 276646.080000
    619    621     1   0.10969 276646.080000
    622    623     1   0.10969 276646.080000
    622    624     1   0.10969 276646.080000
    625    626     1   0.10969 276646.080000
    625    627     1   0.10969 276646.080000
    630    659     1   0.10304 312293.760000
    631    632     1   0.10910 283424.160000
    631    633     1   0.10910 283424.160000
    634    635     1   0.10910 283424.160000
    634    636     1   0.10910 283424.160000
    637    638     1   0.10910 283424.160000
    637    639     1   0.10910 283424.160000
    640    641     1   0.10969 276646.080000
    640    642     1   0.10969 276646.080000
    643    644     1   0.10969 276646.080000
    643    645     1   0.10969 276646.080000
    646    647     1   0.10969 276646.080000
    646    648     1   0.10969 276646.080000
    649    650     1   0.10969 276646.080000
    649    651     1   0.10969 276646.080000
    652    653     1   0.10969 276646.080000
    652    654     1   0.10969 276646.080000
    655    656     1   0.10969 276646.080000
    655    657     1   0.10969 276646.080000
    660    689     1   0.10304 312293.760000
    661    662     1   0.10910 283424.160000
    661    663     1   0.10910 283424.160000
    664    665     1   0.10910 283424.160000
    664    666     1   0.10910 283424.160000
    667    668     1   0.10910 283424.160000
    667    669     1   0.10910 283424.160000
    670    671     1   0.10969 276646.080000
    670    672     1   0.10969 276646.080000
    673    674     1   0.10969 276646.080000
    673    675     1   0.10969 276646.080000
    676    677     1   0.10969 276646.080000
    676    678     1   0.10969 276646.080000
    679    680     1   0.10969 276646.080000
    679    681     1   0.10969 276646.080000
    682    683     1   0.10969 276646.080000
    682    684     1   0.10969 276646.080000
    685    686     1   0.10969 276646.080000
    685    687     1   0.10969 276646.080000
    690    719     1   0.10304 312293.760000
    691    692     1   0.10910 283424.160000
    691    693     1   0.10910 283424.160000
    694    695     1   0.10910 283424.160000
    694    696     1   0.10910 283424.160000
    697    698     1   0.10910 283424.160000
    697    699     1   0.10910 283424.160000
    700    701     1   0.10969 276646.080000
    700    702     1   0.10969 276646.080000
    703    704     1   0.10969 276646.080000
    703    705     1   0.10969 276646.080000
    706    707     1   0.10969 276646.080000
    706    708     1   0.10969 276646.080000
    709    710     1   0.10969 276646.080000
    709    711     1   0.10969 276646.080000
    712    713     1   0.10969 276646.080000
    712    714     1   0.10969 276646.080000
    715    716     1   0.10969 276646.080000
    715    717     1   0.10969 276646.080000
    720    749     1   0.10304 312293.760000
    721    722     1   0.10910 283424.160000
    721    723     1   0.10910 283424.160000
    724    725     1   0.10910 283424.160000
    724    726     1   0.10910 283424.160000
    727    728     1   0.10910 283424.160000
    727    729     1   0.10910 283424.160000
    730    731     1   0.10969 276646.080000
    730    732     1   0.10969 276646.080000
    733    734     1   0.10969 276646.080000
    733    735     1   0.10969 276646.080000
    736    737     1   0.10969 276646.080000
    736    738     1   0.10969 276646.080000
    739    740     1   0.10969 276646.080000
    739    741     1   0.10969 276646.080000
    742    743     1   0.10969 276646.080000
    742    744     1   0.10969 276646.080000
    745    746     1   0.10969 276646.080000
    745    747     1   0.10969 276646.080000
    750    779     1   0.10304 312293.760000
    751    752     1   0.10910 283424.160000
    751    753     1   0.10910 283424.160000
    754    755     1   0.10910 283424.160000
    754    756     1   0.10910 283424.160000
    757    758     1   0.10910 283424.160000
    757    759     1   0.10910 283424.160000
    760    761     1   0.10969 276646.080000
    760    762     1   0.10969 276646.080000
    763    764     1   0.10969 276646.080000
    763    765     1   0.10969 276646.080000
    766    767     1   0.10969 276646.080000
    766    768     1   0.10969 276646.080000
    769    770     1   0.10969 276646.080000
    769    771     1   0.10969 276646.080000
    772    773     1   0.10969 276646.080000
    772    774     1   0.10969 276646.080000
    775    776     1   0.10969 276646.080000
    775    777     1   0.10969 276646.080000
    780    809     1   0.10304 312293.760000
    781    782     1   0.10910 283424.160000
    781    783     1   0.10910 283424.160000
    784    785     1   0.10910 283424.160000
    784    786     1   0.10910 283424.160000
    787    788     1   0.10910 283424.160000
    787    789     1   0.10910 283424.160000
    790    791     1   0.10969 276646.080000
    790    792     1   0.10969 276646.080000
    793    794     1   0.10969 276646.080000
    793    795     1   0.10969 276646.080000
    796    797     1   0.10969 276646.080000
    796    798     1   0.10969 276646.080000
    799    800     1   0.10969 276646.080000
    799    801     1   0.10969 276646.080000
    802    803     1   0.10969 276646.080000
    802    804     1   0.10969 276646.080000
    805    806     1   0.10969 276646.080000
    805    807     1   0.10969 276646.080000
    810    839     1   0.10304 312293.760000
    811    812     1   0.10910 283424.160000
    811    813     1   0.10910 283424.160000
    814    815     1   0.10910 283424.160000
    814    816     1   0.10910 283424.160000
    817    818     1   0.10910 283424.160000
    817    819     1   0.10910 283424.160000
    820    821     1   0.10969 276646.080000
    820    822     1   0.10969 276646.080000
    823    824     1   0.10969 276646.080000
    823    825     1   0.10969 276646.080000
    826    827     1   0.10969 276646.080000
    826    828     1   0.10969 276646.080000
    829    830     1   0.10969 276646.080000
    829    831     1   0.10969 276646.080000
    832    833     1   0.10969 276646.080000
    832    834     1   0.10969 276646.080000
    835    836     1   0.10969 276646.080000
    835    837     1   0.10969 276646.080000
    840    869     1   0.10304 312293.760000
    841    842     1   0.10910 283424.160000
    841    843     1   0.10910 283424.160000
    844    845     1   0.10910 283424.160000
    844    846     1   0.10910 283424.160000
    847    848     1   0.10910 283424.160000
    847    849     1   0.10910 283424.160000
    850    851     1   0.10969 276646.080000
    850    852     1   0.10969 276646.080000
    853    854     1   0.10969 276646.080000
    853    855     1   0.10969 276646.080000
    856    857     1   0.10969 276646.080000
    856    858     1   0.10969 276646.080000
    859    860     1   0.10969 276646.080000
    859    861     1   0.10969 276646.080000
    862    863     1   0.10969 276646.080000
    862    864     1   0.10969 276646.080000
    865    866     1   0.10969 276646.080000
    865    867     1   0.10969 276646.080000
    870    899     1   0.10304 312293.760000
    871    872     1   0.10910 283424.160000
    871    873     1   0.10910 283424.160000
    874    875     1   0.10910 283424.160000
    874    876     1   0.10910 283424.160000
    877    878     1   0.10910 283424.160000
    877    879     1   0.10910 283424.160000
    880    881     1   0.10969 276646.080000
    880    882     1   0.10969 276646.080000
    883    884     1   0.10969 276646.080000
    883    885     1   0.10969 276646.080000
    886    887     1   0.10969 276646.080000
    886    888     1   0.10969 276646.080000
    889    890     1   0.10969 276646.080000
    889    891     1   0.10969 276646.080000
    892    893     1   0.10969 276646.080000
    892    894     1   0.10969 276646.080000
    895    896     1   0.10969 276646.080000
    895    897     1   0.10969 276646.080000
    900    929     1   0.10304 312293.760000
    901    902     1   0.10910 283424.160000
    901    903     1   0.10910 283424.160000
    904    905     1   0.10910 283424.160000
    904    906     1   0.10910 283424.160000
    907    908     1   0.10910 283424.160000
    907    909     1   0.10910 283424.160000
    910    911     1   0.10969 276646.080000
    910    912     1   0.10969 276646.080000
    913    914     1   0.10969 276646.080000
    913    915     1   0.10969 276646.080000
    916    917     1   0.10969 276646.080000
    916    918     1   0.10969 276646.080000
    919    920     1   0.10969 276646.080000
    919    921     1   0.10969 276646.080000
    922    923     1   0.10969 276646.080000
    922    924     1   0.10969 276646.080000
    925    926     1   0.10969 276646.080000
    925    927     1   0.10969 276646.080000
    930    959     1   0.10304 312293.760000
    931    932     1   0.10910 283424.160000
    931    933     1   0.10910 283424.160000
    934    935     1   0.10910 283424.160000
    934    936     1   0.10910 283424.160000
    937    938     1   0.10910 283424.160000
    937    939     1   0.10910 283424.160000
    940    941     1   0.10969 276646.080000
    940    942     1   0.10969 276646.080000
    943    944     1   0.10969 276646.080000
    943    945     1   0.10969 276646.080000
    946    947     1   0.10969 276646.080000
    946    948     1   0.10969 276646.080000
    949    950     1   0.10969 276646.080000
    949    951     1   0.10969 276646.080000
    952    953     1   0.10969 276646.080000
    952    954     1   0.10969 276646.080000
    955    956     1   0.10969 276646.080000
    955    957     1   0.10969 276646.080000
    960    989     1   0.10304 312293.760000
    961    962     1   0.10910 283424.160000
    961    963     1   0.10910 283424.160000
    964    965     1   0.10910 283424.160000
    964    966     1   0.10910 283424.160000
    967    968     1   0.10910 283424.160000
    967    969     1   0.10910 283424.160000
    970    971     1   0.10969 276646.080000
    970    972     1   0.10969 276646.080000
    973    974     1   0.10969 276646.080000
    973    975     1   0.10969 276646.080000
    976    977     1   0.10969 276646.080000
    976    978     1   0.10969 276646.080000
    979    980     1   0.10969 276646.080000
    979    981     1   0.10969 276646.080000
    982    983     1   0.10969 276646.080000
    982    984     1   0.10969 276646.080000
    985    986     1   0.10969 276646.080000
    985    987     1   0.10969 276646.080000
    990   1019     1   0.10304 312293.760000
    991    992     1   0.10910 283424.160000
    991    993     1   0.10910 283424.160000
    994    995     1   0.10910 283424.160000
    994    996     1   0.10910 283424.160000
    997    998     1   0.10910 283424.160000
    997    999     1   0.10910 283424.160000
   1000   1001     1   0.10969 276646.080000
   1000   1002     1   0.10969 276646.080000
   1003   1004     1   0.10969 276646.080000
   1003   1005     1   0.10969 276646.080000
   1006   1007     1   0.10969 276646.080000
   1006   1008     1   0.10969 276646.080000
   1009   1010     1   0.10969 276646.080000
   1009   1011     1   0.10969 276646.080000
   1012   1013     1   0.10969 276646.080000
   1012   1014     1   0.10969 276646.080000
   1015   1016     1   0.10969 276646.080000
   1015   1017     1   0.10969 276646.080000
   1020   1049     1   0.10304 312293.760000
   1021   1022     1   0.10910 283424.160000
   1021   1023     1   0.10910 283424.160000
   1024   1025     1   0.10910 283424.160000
   1024   1026     1   0.10910 283424.160000
   1027   1028     1   0.10910 283424.160000
   1027   1029     1   0.10910 283424.160000
   1030   1031     1   0.10969 276646.080000
   1030   1032     1   0.10969 276646.080000
   1033   1034     1   0.10969 276646.080000
   1033   1035     1   0.10969 276646.080000
   1036   1037     1   0.10969 276646.080000
   1036   1038     1   0.10969 276646.080000
   1039   1040     1   0.10969 276646.080000
   1039   1041     1   0.10969 276646.080000
   1042   1043     1   0.10969 276646.080000
   1042   1044     1   0.10969 276646.080000
   1045   1046     1   0.10969 276646.080000
   1045   1047     1   0.10969 276646.080000
   1050   1079     1   0.10304 312293.760000
   1051   1052     1   0.10910 283424.160000
   1051   1053     1   0.10910 283424.160000
   1054   1055     1   0.10910 283424.160000
   1054   1056     1   0.10910 283424.160000
   1057   1058     1   0.10910 283424.160000
   1057   1059     1   0.10910 283424.160000
   1060   1061     1   0.10969 276646.080000
   1060   1062     1   0.10969 276646.080000
   1063   1064     1   0.10969 276646.080000
   1063   1065     1   0.10969 276646.080000
   1066   1067     1   0.10969 276646.080000
   1066   1068     1   0.10969 276646.080000
   1069   1070     1   0.10969 276646.080000
   1069   1071     1   0.10969 276646.080000
   1072   1073     1   0.10969 276646.080000
   1072   1074     1   0.10969 276646.080000
   1075   1076     1   0.10969 276646.080000
   1075   1077     1   0.10969 276646.080000
   1080   1109     1   0.10304 312293.760000
   1081   1082     1   0.10910 283424.160000
   1081   1083     1   0.10910 283424.160000
   1084   1085     1   0.10910 283424.160000
   1084   1086     1   0.10910 283424.160000
   1087   1088     1   0.10910 283424.160000
   1087   1089     1   0.10910 283424.160000
   1090   1091     1   0.10969 276646.080000
   1090   1092     1   0.10969 276646.080000
   1093   1094     1   0.10969 276646.080000
   1093   1095     1   0.10969 276646.080000
   1096   1097     1   0.10969 276646.080000
   1096   1098     1   0.10969 276646.080000
   1099   1100     1   0.10969 276646.080000
   1099   1101     1   0.10969 276646.080000
   1102   1103     1   0.10969 276646.080000
   1102   1104     1   0.10969 276646.080000
   1105   1106     1   0.10969 276646.080000
   1105   1107     1   0.10969 276646.080000
   1110   1139     1   0.10304 312293.760000
   1111   1112     1   0.10910 283424.160000
   1111   1113     1   0.10910 283424.160000
   1114   1115     1   0.10910 283424.160000
   1114   1116     1   0.10910 283424.160000
   1117   1118     1   0.10910 283424.160000
   1117   1119     1   0.10910 283424.160000
   1120   1121     1   0.10969 276646.080000
   1120   1122     1   0.10969 276646.080000
   1123   1124     1   0.10969 276646.080000
   1123   1125     1   0.10969 276646.080000
   1126   1127     1   0.10969 276646.080000
   1126   1128     1   0.10969 276646.080000
   1129   1130     1   0.10969 276646.080000
   1129   1131     1   0.10969 276646.080000
   1132   1133     1   0.10969 276646.080000
   1132   1134     1   0.10969 276646.080000
   1135   1136     1   0.10969 276646.080000
   1135   1137     1   0.10969 276646.080000
   1140   1169     1   0.10304 312293.760000
   1141   1142     1   0.10910 283424.160000
   1141   1143     1   0.10910 283424.160000
   1144   1145     1   0.10910 283424.160000
   1144   1146     1   0.10910 283424.160000
   1147   1148     1   0.10910 283424.160000
   1147   1149     1   0.10910 283424.160000
   1150   1151     1   0.10969 276646.080000
   1150   1152     1   0.10969 276646.080000
   1153   1154     1   0.10969 276646.080000
   1153   1155     1   0.10969 276646.080000
   1156   1157     1   0.10969 276646.080000
   1156   1158     1   0.10969 276646.080000
   1159   1160     1   0.10969 276646.080000
   1159   1161     1   0.10969 276646.080000
   1162   1163     1   0.10969 276646.080000
   1162   1164     1   0.10969 276646.080000
   1165   1166     1   0.10969 276646.080000
   1165   1167     1   0.10969 276646.080000
   1170   1199     1   0.10304 312293.760000
   1171   1172     1   0.10910 283424.160000
   1171   1173     1   0.10910 283424.160000
   1174   1175     1   0.10910 283424.160000
   1174   1176     1   0.10910 283424.160000
   1177   1178     1   0.10910 283424.160000
   1177   1179     1   0.10910 283424.160000
   1180   1181     1   0.10969 276646.080000
   1180   1182     1   0.10969 276646.080000
   1183   1184     1   0.10969 276646.080000
   1183   1185     1   0.10969 276646.080000
   1186   1187     1   0.10969 276646.080000
   1186   1188     1   0.10969 276646.080000
   1189   1190     1   0.10969 276646.080000
   1189   1191     1   0.10969 276646.080000
   1192   1193     1   0.10969 276646.080000
   1192   1194     1   0.10969 276646.080000
   1195   1196     1   0.10969 276646.080000
   1195   1197     1   0.10969 276646.080000
   1200   1229     1   0.10304 312293.760000
   1201   1202     1   0.10910 283424.160000
   1201   1203     1   0.10910 283424.160000
   1204   1205     1   0.10910 283424.160000
   1204   1206     1   0.10910 283424.160000
   1207   1208     1   0.10910 283424.160000
   1207   1209     1   0.10910 283424.160000
   1210   1211     1   0.10969 276646.080000
   1210   1212     1   0.10969 276646.080000
   1213   1214     1   0.10969 276646.080000
   1213   1215     1   0.10969 276646.080000
   1216   1217     1   0.10969 276646.080000
   1216   1218     1   0.10969 276646.080000
   1219   1220     1   0.10969 276646.080000
   1219   1221     1   0.10969 276646.080000
   1222   1223     1   0.10969 276646.080000
   1222   1224     1   0.10969 276646.080000
   1225   1226     1   0.10969 276646.080000
   1225   1227     1   0.10969 276646.080000
   1230   1259     1   0.10304 312293.760000
   1231   1232     1   0.10910 283424.160000
   1231   1233     1   0.10910 283424.160000
   1234   1235     1   0.10910 283424.160000
   1234   1236     1   0.10910 283424.160000
   1237   1238     1   0.10910 283424.160000
   1237   1239     1   0.10910 283424.160000
   1240   1241     1   0.10969 276646.080000
   1240   1242     1   0.10969 276646.080000
   1243   1244     1   0.10969 276646.080000
   1243   1245     1   0.10969 276646.080000
   1246   1247     1   0.10969 276646.080000
   1246   1248     1   0.10969 276646.080000
   1249   1250     1   0.10969 276646.080000
   1249   1251     1   0.10969 276646.080000
   1252   1253     1   0.10969 276646.080000
   1252   1254     1   0.10969 276646.080000
   1255   1256     1   0.10969 276646.080000
   1255   1257     1   0.10969 276646.080000
   1260   1289     1   0.10304 312293.760000
   1261   1262     1   0.10910 283424.160000
   1261   1263     1   0.10910 283424.160000
   1264   1265     1   0.10910 283424.160000
   1264   1266     1   0.10910 283424.160000
   1267   1268     1   0.10910 283424.160000
   1267   1269     1   0.10910 283424.160000
   1270   1271     1   0.10969 276646.080000
   1270   1272     1   0.10969 276646.080000
   1273   1274     1   0.10969 276646.080000
   1273   1275     1   0.10969 276646.080000
   1276   1277     1   0.10969 276646.080000
   1276   1278     1   0.10969 276646.080000
   1279   1280     1   0.10969 276646.080000
   1279   1281     1   0.10969 276646.080000
   1282   1283     1   0.10969 276646.080000
   1282   1284     1   0.10969 276646.080000
   1285   1286     1   0.10969 276646.080000
   1285   1287     1   0.10969 276646.080000
   1290   1319     1   0.10304 312293.760000
   1291   1292     1   0.10910 283424.160000
   1291   1293     1   0.10910 283424.160000
   1294   1295     1   0.10910 283424.160000
   1294   1296     1   0.10910 283424.160000
   1297   1298     1   0.10910 283424.160000
   1297   1299     1   0.10910 283424.160000
   1300   1301     1   0.10969 276646.080000
   1300   1302     1   0.10969 276646.080000
   1303   1304     1   0.10969 276646.080000
   1303   1305     1   0.10969 276646.080000
   1306   1307     1   0.10969 276646.080000
   1306   1308     1   0.10969 276646.080000
   1309   1310     1   0.10969 276646.080000
   1309   1311     1   0.10969 276646.080000
   1312   1313     1   0.10969 276646.080000
   1312   1314     1   0.10969 276646.080000
   1315   1316     1   0.10969 276646.080000
   1315   1317     1   0.10969 276646.080000
   1320   1349     1   0.10304 312293.760000
   1321   1322     1   0.10910 283424.160000
   1321   1323     1   0.10910 283424.160000
   1324   1325     1   0.10910 283424.160000
   1324   1326     1   0.10910 283424.160000
   1327   1328     1   0.10910 283424.160000
   1327   1329     1   0.10910 283424.160000
   1330   1331     1   0.10969 276646.080000
   1330   1332     1   0.10969 276646.080000
   1333   1334     1   0.10969 276646.080000
   1333   1335     1   0.10969 276646.080000
   1336   1337     1   0.10969 276646.080000
   1336   1338     1   0.10969 276646.080000
   1339   1340     1   0.10969 276646.080000
   1339   1341     1   0.10969 276646.080000
   1342   1343     1   0.10969 276646.080000
   1342   1344     1   0.10969 276646.080000
   1345   1346     1   0.10969 276646.080000
   1345   1347     1   0.10969 276646.080000
   1350   1379     1   0.10304 312293.760000
   1351   1352     1   0.10910 283424.160000
   1351   1353     1   0.10910 283424.160000
   1354   1355     1   0.10910 283424.160000
   1354   1356     1   0.10910 283424.160000
   1357   1358     1   0.10910 283424.160000
   1357   1359     1   0.10910 283424.160000
   1360   1361     1   0.10969 276646.080000
   1360   1362     1   0.10969 276646.080000
   1363   1364     1   0.10969 276646.080000
   1363   1365     1   0.10969 276646.080000
   1366   1367     1   0.10969 276646.080000
   1366   1368     1   0.10969 276646.080000
   1369   1370     1   0.10969 276646.080000
   1369   1371     1   0.10969 276646.080000
   1372   1373     1   0.10969 276646.080000
   1372   1374     1   0.10969 276646.080000
   1375   1376     1   0.10969 276646.080000
   1375   1377     1   0.10969 276646.080000
   1380   1381     1   0.10910 283424.160000
   1380   1382     1   0.10910 283424.160000
   1383   1384     1   0.10969 276646.080000
   1383   1385     1   0.10969 276646.080000
   1386   1387     1   0.10969 276646.080000
   1386   1388     1   0.10969 276646.080000
   1389   1390     1   0.10304 312293.760000
   1389   1391     1   0.10304 312293.760000
   1389   1393     1   0.10304 312293.760000
   1394   1395     1   0.10910 283424.160000
   1394   1396     1   0.10910 283424.160000
   1397   1398     1   0.10969 276646.080000
   1397   1399     1   0.10969 276646.080000
   1400   1401     1   0.10969 276646.080000
   1400   1402     1   0.10969 276646.080000
   1403   1404     1   0.10304 312293.760000
   1403   1405     1   0.10304 312293.760000
   1403   1407     1   0.10304 312293.760000
   1408   1409     1   0.10910 283424.160000
   1408   1410     1   0.10910 283424.160000
   1411   1412     1   0.10969 276646.080000
   1411   1413     1   0.10969 276646.080000
   1414   1415     1   0.10969 276646.080000
   1414   1416     1   0.10969 276646.080000
   1417   1418     1   0.10304 312293.760000
   1417   1419     1   0.10304 312293.760000
   1417   1421     1   0.10304 312293.760000
   1422   1423     1   0.10910 283424.160000
   1422   1424     1   0.10910 283424.160000
   1425   1426     1   0.10969 276646.080000
   1425   1427     1   0.10969 276646.080000
   1428   1429     1   0.10969 276646.080000
   1428   1430     1   0.10969 276646.080000
   1431   1432     1   0.10304 312293.760000
   1431   1433     1   0.10304 312293.760000
   1431   1435     1   0.10304 312293.760000
   1436   1437     1   0.10910 283424.160000
   1436   1438     1   0.10910 283424.160000
   1439   1440     1   0.10969 276646.080000
   1439   1441     1   0.10969 276646.080000
   1442   1443     1   0.10969 276646.080000
   1442   1444     1   0.10969 276646.080000
   1445   1446     1   0.10304 312293.760000
   1445   1447     1   0.10304 312293.760000
   1445   1449     1   0.10304 312293.760000
   1450   1451     1   0.10910 283424.160000
   1450   1452     1   0.10910 283424.160000
   1453   1454     1   0.10969 276646.080000
   1453   1455     1   0.10969 276646.080000
   1456   1457     1   0.10969 276646.080000
   1456   1458     1   0.10969 276646.080000
   1459   1460     1   0.10304 312293.760000
   1459   1461     1   0.10304 312293.760000
   1459   1463     1   0.10304 312293.760000
   1464   1465     1   0.10910 283424.160000
   1464   1466     1   0.10910 283424.160000
   1467   1468     1   0.10969 276646.080000
   1467   1469     1   0.10969 276646.080000
   1470   1471     1   0.10969 276646.080000
   1470   1472     1   0.10969 276646.080000
   1473   1474     1   0.10304 312293.760000
   1473   1475     1   0.10304 312293.760000
   1473   1477     1   0.10304 312293.760000
   1478   1479     1   0.10910 283424.160000
   1478   1480     1   0.10910 283424.160000
   1481   1482     1   0.10969 276646.080000
   1481   1483     1   0.10969 276646.080000
   1484   1485     1   0.10969 276646.080000
   1484   1486     1   0.10969 276646.080000
   1487   1488     1   0.10304 312293.760000
   1487   1489     1   0.10304 312293.760000
   1487   1491     1   0.10304 312293.760000
   1492   1493     1   0.10910 283424.160000
   1492   1494     1   0.10910 283424.160000
   1495   1496     1   0.10969 276646.080000
   1495   1497     1   0.10969 276646.080000
   1498   1499     1   0.10969 276646.080000
   1498   1500     1   0.10969 276646.080000
   1501   1502     1   0.10304 312293.760000
   1501   1503     1   0.10304 312293.760000
   1501   1505     1   0.10304 312293.760000
   1506   1507     1   0.10910 283424.160000
   1506   1508     1   0.10910 283424.160000
   1509   1510     1   0.10969 276646.080000
   1509   1511     1   0.10969 276646.080000
   1512   1513     1   0.10969 276646.080000
   1512   1514     1   0.10969 276646.080000
   1515   1516     1   0.10304 312293.760000
   1515   1517     1   0.10304 312293.760000
   1515   1519     1   0.10304 312293.760000
   1520   1521     1   0.10910 283424.160000
   1520   1522     1   0.10910 283424.160000
   1523   1524     1   0.10969 276646.080000
   1523   1525     1   0.10969 276646.080000
   1526   1527     1   0.10969 276646.080000
   1526   1528     1   0.10969 276646.080000
   1529   1530     1   0.10304 312293.760000
   1529   1531     1   0.10304 312293.760000
   1529   1533     1   0.10304 312293.760000
   1534   1535     1   0.10910 283424.160000
   1534   1536     1   0.10910 283424.160000
   1537   1538     1   0.10969 276646.080000
   1537   1539     1   0.10969 276646.080000
   1540   1541     1   0.10969 276646.080000
   1540   1542     1   0.10969 276646.080000
   1543   1544     1   0.10304 312293.760000
   1543   1545     1   0.10304 312293.760000
   1543   1547     1   0.10304 312293.760000
   1548   1549     1   0.10910 283424.160000
   1548   1550     1   0.10910 283424.160000
   1551   1552     1   0.10969 276646.080000
   1551   1553     1   0.10969 276646.080000
   1554   1555     1   0.10969 276646.080000
   1554   1556     1   0.10969 276646.080000
   1557   1558     1   0.10304 312293.760000
   1557   1559     1   0.10304 312293.760000
   1557   1561     1   0.10304 312293.760000
   1562   1563     1   0.10910 283424.160000
   1562   1564     1   0.10910 283424.160000
   1565   1566     1   0.10969 276646.080000
   1565   1567     1   0.10969 276646.080000
   1568   1569     1   0.10969 276646.080000
   1568   1570     1   0.10969 276646.080000
   1571   1572     1   0.10304 312293.760000
   1571   1573     1   0.10304 312293.760000
   1571   1575     1   0.10304 312293.760000
   1576   1577     1   0.10910 283424.160000
   1576   1578     1   0.10910 283424.160000
   1579   1580     1   0.10969 276646.080000
   1579   1581     1   0.10969 276646.080000
   1582   1583     1   0.10969 276646.080000
   1582   1584     1   0.10969 276646.080000
   1585   1586     1   0.10304 312293.760000
   1585   1587     1   0.10304 312293.760000
   1585   1589     1   0.10304 312293.760000
   1590   1591     1   0.10910 283424.160000
   1590   1592     1   0.10910 283424.160000
   1593   1594     1   0.10969 276646.080000
   1593   1595     1   0.10969 276646.080000
   1596   1597     1   0.10969 276646.080000
   1596   1598     1   0.10969 276646.080000
   1599   1600     1   0.10304 312293.760000
   1599   1601     1   0.10304 312293.760000
   1599   1603     1   0.10304 312293.760000
   1604   1605     1   0.10910 283424.160000
   1604   1606     1   0.10910 283424.160000
   1607   1608     1   0.10969 276646.080000
   1607   1609     1   0.10969 276646.080000
   1610   1611     1   0.10969 276646.080000
   1610   1612     1   0.10969 276646.080000
   1613   1614     1   0.10304 312293.760000
   1613   1615     1   0.10304 312293.760000
   1613   1617     1   0.10304 312293.760000
   1618   1619     1   0.10910 283424.160000
   1618   1620     1   0.10910 283424.160000
   1621   1622     1   0.10969 276646.080000
   1621   1623     1   0.10969 276646.080000
   1624   1625     1   0.10969 276646.080000
   1624   1626     1   0.10969 276646.080000
   1627   1628     1   0.10304 312293.760000
   1627   1629     1   0.10304 312293.760000
   1627   1631     1   0.10304 312293.760000
   1632   1633     1   0.10910 283424.160000
   1632   1634     1   0.10910 283424.160000
   1635   1636     1   0.10969 276646.080000
   1635   1637     1   0.10969 276646.080000
   1638   1639     1   0.10969 276646.080000
   1638   1640     1   0.10969 276646.080000
   1641   1642     1   0.10304 312293.760000
   1641   1643     1   0.10304 312293.760000
   1641   1645     1   0.10304 312293.760000
   1646   1647     1   0.10910 283424.160000
   1646   1648     1   0.10910 283424.160000
   1649   1650     1   0.10969 276646.080000
   1649   1651     1   0.10969 276646.080000
   1652   1653     1   0.10969 276646.080000
   1652   1654     1   0.10969 276646.080000
   1655   1656     1   0.10304 312293.760000
   1655   1657     1   0.10304 312293.760000
   1655   1659     1   0.10304 312293.760000
   1660   1661     1   0.10910 283424.160000
   1660   1662     1   0.10910 283424.160000
   1663   1664     1   0.10969 276646.080000
   1663   1665     1   0.10969 276646.080000
   1666   1667     1   0.10969 276646.080000
   1666   1668     1   0.10969 276646.080000
   1669   1670     1   0.10304 312293.760000
   1669   1671     1   0.10304 312293.760000
   1669   1673     1   0.10304 312293.760000
   1674   1675     1   0.10910 283424.160000
   1674   1676     1   0.10910 283424.160000
   1677   1678     1   0.10969 276646.080000
   1677   1679     1   0.10969 276646.080000
   1680   1681     1   0.10969 276646.080000
   1680   1682     1   0.10969 276646.080000
   1683   1684     1   0.10304 312293.760000
   1683   1685     1   0.10304 312293.760000
   1683   1687     1   0.10304 312293.760000
   1688   1689     1   0.10910 283424.160000
   1688   1690     1   0.10910 283424.160000
   1691   1692     1   0.10969 276646.080000
   1691   1693     1   0.10969 276646.080000
   1694   1695     1   0.10969 276646.080000
   1694   1696     1   0.10969 276646.080000
   1697   1698     1   0.10304 312293.760000
   1697   1699     1   0.10304 312293.760000
   1697   1701     1   0.10304 312293.760000
   1702   1703     1   0.10910 283424.160000
   1702   1704     1   0.10910 283424.160000
   1705   1706     1   0.10969 276646.080000
   1705   1707     1   0.10969 276646.080000
   1708   1709     1   0.10969 276646.080000
   1708   1710     1   0.10969 276646.080000
   1711   1712     1   0.10304 312293.760000
   1711   1713     1   0.10304 312293.760000
   1711   1715     1   0.10304 312293.760000
   1716   1717     1   0.10910 283424.160000
   1716   1718     1   0.10910 283424.160000
   1719   1720     1   0.10969 276646.080000
   1719   1721     1   0.10969 276646.080000
   1722   1723     1   0.10969 276646.080000
   1722   1724     1   0.10969 276646.080000
   1725   1726     1   0.10304 312293.760000
   1725   1727     1   0.10304 312293.760000
   1725   1729     1   0.10304 312293.760000
   1730   1731     1   0.10910 283424.160000
   1730   1732     1   0.10910 283424.160000
   1733   1734     1   0.10969 276646.080000
   1733   1735     1   0.10969 276646.080000
   1736   1737     1   0.10969 276646.080000
   1736   1738     1   0.10969 276646.080000
   1739   1740     1   0.10304 312293.760000
   1739   1741     1   0.10304 312293.760000
   1739   1743     1   0.10304 312293.760000
   1744   1745     1   0.10910 283424.160000
   1744   1746     1   0.10910 283424.160000
   1747   1748     1   0.10969 276646.080000
   1747   1749     1   0.10969 276646.080000
   1750   1751     1   0.10969 276646.080000
   1750   1752     1   0.10969 276646.080000
   1753   1754     1   0.10304 312293.760000
   1753   1755     1   0.10304 312293.760000
   1753   1757     1   0.10304 312293.760000
   1758   1759     1   0.10910 283424.160000
   1758   1760     1   0.10910 283424.160000
   1761   1762     1   0.10969 276646.080000
   1761   1763     1   0.10969 276646.080000
   1764   1765     1   0.10969 276646.080000
   1764   1766     1   0.10969 276646.080000
   1767   1768     1   0.10304 312293.760000
   1767   1769     1   0.10304 312293.760000
   1767   1771     1   0.10304 312293.760000
   1772   1773     1   0.10910 283424.160000
   1772   1774     1   0.10910 283424.160000
   1775   1776     1   0.10969 276646.080000
   1775   1777     1   0.10969 276646.080000
   1778   1779     1   0.10969 276646.080000
   1778   1780     1   0.10969 276646.080000
   1781   1782     1   0.10304 312293.760000
   1781   1783     1   0.10304 312293.760000
   1781   1785     1   0.10304 312293.760000
   1786   1787     1   0.10910 283424.160000
   1786   1788     1   0.10910 283424.160000
   1789   1790     1   0.10969 276646.080000
   1789   1791     1   0.10969 276646.080000
   1792   1793     1   0.10969 276646.080000
   1792   1794     1   0.10969 276646.080000
   1795   1796     1   0.10304 312293.760000
   1795   1797     1   0.10304 312293.760000
   1795   1799     1   0.10304 312293.760000
   1800   1801     1   0.10910 283424.160000
   1800   1802     1   0.10910 283424.160000
   1803   1804     1   0.10969 276646.080000
   1803   1805     1   0.10969 276646.080000
   1806   1807     1   0.10969 276646.080000
   1806   1808     1   0.10969 276646.080000
   1809   1810     1   0.10304 312293.760000
   1809   1811     1   0.10304 312293.760000
   1809   1813     1   0.10304 312293.760000
   1814   1815     1   0.10910 283424.160000
   1814   1816     1   0.10910 283424.160000
   1817   1818     1   0.10969 276646.080000
   1817   1819     1   0.10969 276646.080000
   1820   1821     1   0.10969 276646.080000
   1820   1822     1   0.10969 276646.080000
   1823   1824     1   0.10304 312293.760000
   1823   1825     1   0.10304 312293.760000
   1823   1827     1   0.10304 312293.760000
   1828   1829     1   0.10910 283424.160000
   1828   1830     1   0.10910 283424.160000
   1831   1832     1   0.10969 276646.080000
   1831   1833     1   0.10969 276646.080000
   1834   1835     1   0.10969 276646.080000
   1834   1836     1   0.10969 276646.080000
   1837   1838     1   0.10304 312293.760000
   1837   1839     1   0.10304 312293.760000
   1837   1841     1   0.10304 312293.760000
   1842   1843     1   0.10910 283424.160000
   1842   1844     1   0.10910 283424.160000
   1845   1846     1   0.10969 276646.080000
   1845   1847     1   0.10969 276646.080000
   1848   1849     1   0.10969 276646.080000
   1848   1850     1   0.10969 276646.080000
   1851   1852     1   0.10304 312293.760000
   1851   1853     1   0.10304 312293.760000
   1851   1855     1   0.10304 312293.760000
   1856   1857     1   0.10910 283424.160000
   1856   1858     1   0.10910 283424.160000
   1859   1860     1   0.10969 276646.080000
   1859   1861     1   0.10969 276646.080000
   1862   1863     1   0.10969 276646.080000
   1862   1864     1   0.10969 276646.080000
   1865   1866     1   0.10304 312293.760000
   1865   1867     1   0.10304 312293.760000
   1865   1869     1   0.10304 312293.760000
   1870   1871     1   0.10910 283424.160000
   1870   1872     1   0.10910 283424.160000
   1873   1874     1   0.10969 276646.080000
   1873   1875     1   0.10969 276646.080000
   1876   1877     1   0.10969 276646.080000
   1876   1878     1   0.10969 276646.080000
   1879   1880     1   0.10304 312293.760000
   1879   1881     1   0.10304 312293.760000
   1879   1883     1   0.10304 312293.760000
   1884   1885     1   0.10910 283424.160000
   1884   1886     1   0.10910 283424.160000
   1887   1888     1   0.10969 276646.080000
   1887   1889     1   0.10969 276646.080000
   1890   1891     1   0.10969 276646.080000
   1890   1892     1   0.10969 276646.080000
   1893   1894     1   0.10304 312293.760000
   1893   1895     1   0.10304 312293.760000
   1893   1897     1   0.10304 312293.760000
   1898   1899     1   0.10910 283424.160000
   1898   1900     1   0.10910 283424.160000
   1901   1902     1   0.10969 276646.080000
   1901   1903     1   0.10969 276646.080000
   1904   1905     1   0.10969 276646.080000
   1904   1906     1   0.10969 276646.080000
   1907   1908     1   0.10304 312293.760000
   1907   1909     1   0.10304 312293.760000
   1907   1911     1   0.10304 312293.760000
   1912   1913     1   0.10910 283424.160000
   1912   1914     1   0.10910 283424.160000
   1915   1916     1   0.10969 276646.080000
   1915   1917     1   0.10969 276646.080000
   1918   1919     1   0.10969 276646.080000
   1918   1920     1   0.10969 276646.080000
   1921   1922     1   0.10304 312293.760000
   1921   1923     1   0.10304 312293.760000
   1921   1925     1   0.10304 312293.760000
   1926   1927     1   0.10910 283424.160000
   1926   1928     1   0.10910 283424.160000
   1929   1930     1   0.10969 276646.080000
   1929   1931     1   0.10969 276646.080000
   1932   1933     1   0.10969 276646.080000
   1932   1934     1   0.10969 276646.080000
   1935   1936     1   0.10304 312293.760000
   1935   1937     1   0.10304 312293.760000
   1935   1939     1   0.10304 312293.760000
   1940   1941     1   0.10910 283424.160000
   1940   1942     1   0.10910 283424.160000
   1943   1944     1   0.10969 276646.080000
   1943   1945     1   0.10969 276646.080000
   1946   1947     1   0.10969 276646.080000
   1946   1948     1   0.10969 276646.080000
   1949   1950     1   0.10304 312293.760000
   1949   1951     1   0.10304 312293.760000
   1949   1953     1   0.10304 312293.760000
   1954   1955     1   0.10910 283424.160000
   1954   1956     1   0.10910 283424.160000
   1957   1958     1   0.10969 276646.080000
   1957   1959     1   0.10969 276646.080000
   1960   1961     1   0.10969 276646.080000
   1960   1962     1   0.10969 276646.080000
   1963   1964     1   0.10304 312293.760000
   1963   1965     1   0.10304 312293.760000
   1963   1967     1   0.10304 312293.760000
   1968   1969     1   0.10910 283424.160000
   1968   1970     1   0.10910 283424.160000
   1971   1972     1   0.10969 276646.080000
   1971   1973     1   0.10969 276646.080000
   1974   1975     1   0.10969 276646.080000
   1974   1976     1   0.10969 276646.080000
   1977   1978     1   0.10304 312293.760000
   1977   1979     1   0.10304 312293.760000
   1977   1981     1   0.10304 312293.760000
   1982   1983     1   0.10910 283424.160000
   1982   1984     1   0.10910 283424.160000
   1985   1986     1   0.10969 276646.080000
   1985   1987     1   0.10969 276646.080000
   1988   1989     1   0.10969 276646.080000
   1988   1990     1   0.10969 276646.080000
   1991   1992     1   0.10304 312293.760000
   1991   1993     1   0.10304 312293.760000
   1991   1995     1   0.10304 312293.760000
   1996   1997     1   0.10910 283424.160000
   1996   1998     1   0.10910 283424.160000
   1999   2000     1   0.10969 276646.080000
   1999   2001     1   0.10969 276646.080000
   2002   2003     1   0.10969 276646.080000
   2002   2004     1   0.10969 276646.080000
   2005   2006     1   0.10304 312293.760000
   2005   2007     1   0.10304 312293.760000
   2005   2009     1   0.10304 312293.760000
   2010   2011     1   0.10910 283424.160000
   2010   2012     1   0.10910 283424.160000
   2013   2014     1   0.10969 276646.080000
   2013   2015     1   0.10969 276646.080000
   2016   2017     1   0.10969 276646.080000
   2016   2018     1   0.10969 276646.080000
   2019   2020     1   0.10304 312293.760000
   2019   2021     1   0.10304 312293.760000
   2019   2023     1   0.10304 312293.760000
   2024   2025     1   0.10910 283424.160000
   2024   2026     1   0.10910 283424.160000
   2027   2028     1   0.10969 276646.080000
   2027   2029     1   0.10969 276646.080000
   2030   2031     1   0.10969 276646.080000
   2030   2032     1   0.10969 276646.080000
   2033   2034     1   0.10304 312293.760000
   2033   2035     1   0.10304 312293.760000
   2033   2037     1   0.10304 312293.760000
   2038   2039     1   0.10910 283424.160000
   2038   2040     1   0.10910 283424.160000
   2041   2042     1   0.10969 276646.080000
   2041   2043     1   0.10969 276646.080000
   2044   2045     1   0.10969 276646.080000
   2044   2046     1   0.10969 276646.080000
   2047   2048     1   0.10304 312293.760000
   2047   2049     1   0.10304 312293.760000
   2047   2051     1   0.10304 312293.760000

[ pairs ]
;    ai     aj funct         c0         c1         c2         c3
      1     26     1
      1     20     1
      1     23     1
      2     17     1
      2     11     1
      2    118     1
      5     14     1
      5     11     1
      5     58     1
      8     14     1
      8     17     1
      8     88     1
     11     79     1
     14    109     1
     17     49     1
     20     40     1
     23     70     1
     26    100     1
     30     55     1
     30     52     1
     30     49     1
     31     46     1
     31     40     1
     31    178     1
     34     43     1
     34     40     1
     34    148     1
     37     43     1
     37     46     1
     37     58     1
     43    169     1
     46    139     1
     52    130     1
     55    160     1
     60     85     1
     60     82     1
     60     79     1
     61     76     1
     61     70     1
     61    238     1
     64     73     1
     64     70     1
     64    208     1
     67     73     1
     67     76     1
     67     88     1
     73    229     1
     76    199     1
     82    190     1
     85    220     1
     90    115     1
     90    112     1
     90    109     1
     91    106     1
     91    100     1
     91    298     1
     94    103     1
     94    100     1
     94    268     1
     97    103     1
     97    106     1
     97    118     1
    103    289     1
    106    259     1
    112    250     1
    115    280     1
    120    145     1
    120    142     1
    120    139     1
    121    136     1
    121    130     1
    121    358     1
    124    133     1
    124    130     1
    124    328     1
    127    133     1
    127    136     1
    127    148     1
    133    349     1
    136    319     1
    142    310     1
    145    340     1
    150    175     1
    150    172     1
    150    169     1
    151    166     1
    151    160     1
    151    418     1
    154    163     1
    154    160     1
    154    388     1
    157    163     1
    157    166     1
    157    178     1
    163    409     1
    166    379     1
    172    370     1
    175    400     1
    180    205     1
    180    202     1
    180    199     1
    181    196     1
    181    190     1
    181    478     1
    184    193     1
    184    190     1
    184    448     1
    187    193     1
    187    196     1
    187    208     1
    193    469     1
    196    439     1
    202    430     1
    205    460     1
    210    235     1
    210    232     1
    210    229     1
    211    226     1
    211    220     1
    211    538     1
    214    223     1
    214    220     1
    214    508     1
    217    223     1
    217    226     1
    217    238     1
    223    529     1
    226    499     1
    232    490     1
    235    520     1
    240    265     1
    240    262     1
    240    259     1
    241    256     1
    241    250     1
    241    598     1
    244    253     1
    244    250     1
    244    568     1
    247    253     1
    247    256     1
    247    268     1
    253    589     1
    256    559     1
    262    550     1
    265    580     1
    270    295     1
    270    292     1
    270    289     1
    271    286     1
    271    280     1
    271    658     1
    274    283     1
    274    280     1
    274    628     1
    277    283     1
    277    286     1
    277    298     1
    283    649     1
    286    619     1
    292    610     1
    295    640     1
    300    325     1
    300    322     1
    300    319     1
    301    316     1
    301    310     1
    301    718     1
    304    313     1
    304    310     1
    304    688     1
    307    313     1
    307    316     1
    307    328     1
    313    709     1
    316    679     1
    322    670     1
    325    700     1
    330    355     1
    330    352     1
    330    349     1
    331    346     1
    331    340     1
    331    778     1
    334    343     1
    334    340     1
    334    748     1
    337    343     1
    337    346     1
    337    358     1
    343    769     1
    346    739     1
    352    730     1
    355    760     1
    360    385     1
    360    382     1
    360    379     1
    361    376     1
    361    370     1
    361    838     1
    364    373     1
    364    370     1
    364    808     1
    367    373     1
    367    376     1
    367    388     1
    373    829     1
    376    799     1
    382    790     1
    385    820     1
    390    415     1
    390    412     1
    390    409     1
    391    406     1
    391    400     1
    391    898     1
    394    403     1
    394    400     1
    394    868     1
    397    403     1
    397    406     1
    397    418     1
    403    889     1
    406    859     1
    412    850     1
    415    880     1
    420    445     1
    420    442     1
    420    439     1
    421    436     1
    421    430     1
    421    958     1
    424    433     1
    424    430     1
    424    928     1
    427    433     1
    427    436     1
    427    448     1
    433    949     1
    436    919     1
    442    910     1
    445    940     1
    450    475     1
    450    472     1
    450    469     1
    451    466     1
    451    460     1
    451   1018     1
    454    463     1
    454    460     1
    454    988     1
    457    463     1
    457    466     1
    457    478     1
    463   1009     1
    466    979     1
    472    970     1
    475   1000     1
    480    505     1
    480    502     1
    480    499     1
    481    496     1
    481    490     1
    481   1078     1
    484    493     1
    484    490     1
    484   1048     1
    487    493     1
    487    496     1
    487    508     1
    493   1069     1
    496   1039     1
    502   1030     1
    505   1060     1
    510    535     1
    510    532     1
    510    529     1
    511    526     1
    511    520     1
    511   1138     1
    514    523     1
    514    520     1
    514   1108     1
    517    523     1
    517    526     1
    517    538     1
    523   1129     1
    526   1099     1
    532   1090     1
    535   1120     1
    540    565     1
    540    562     1
    540    559     1
    541    556     1
    541    550     1
    541   1198     1
    544    553     1
    544    550     1
    544   1168     1
    547    553     1
    547    556     1
    547    568     1
    553   1189     1
    556   1159     1
    562   1150     1
    565   1180     1
    570    595     1
    570    592     1
    570    589     1
    571    586     1
    571    580     1
    571   1258     1
    574    583     1
    574    580     1
    574   1228     1
    577    583     1
    577    586     1
    577    598     1
    583   1249     1
    586   1219     1
    592   1210     1
    595   1240     1
    600    625     1
    600    622     1
    600    619     1
    601    616     1
    601    610     1
    601   1318     1
    604    613     1
    604    610     1
    604   1288     1
    607    613     1
    607    616     1
    607    628     1
    613   1309     1
    616   1279     1
    622   1270     1
    625   1300     1
    630    655     1
    630    652     1
    630    649     1
    631    646     1
    631    640     1
    631   1378     1
    634    643     1
    634    640     1
    634   1348     1
    637    643     1
    637    646     1
    637    658     1
    643   1369     1
    646   1339     1
    652   1330     1
    655   1360     1
    660    685     1
    660    682     1
    660    679     1
    661    676     1
    661    670     1
    661   1406     1
    664    673     1
    664    670     1
    664   1392     1
    667    673     1
    667    676     1
    667    688     1
    673   1400     1
    676   1386     1
    682   1383     1
    685   1397     1
    690    715     1
    690    712     1
    690    709     1
    691    706     1
    691    700     1
    691   1434     1
    694    703     1
    694    700     1
    694   1420     1
    697    703     1
    697    706     1
    697    718     1
    703   1428     1
    706   1414     1
    712   1411     1
    715   1425     1
    720    745     1
    720    742     1
    720    739     1
    721    736     1
    721    730     1
    721   1462     1
    724    733     1
    724    730     1
    724   1448     1
    727    733     1
    727    736     1
    727    748     1
    733   1456     1
    736   1442     1
    742   1439     1
    745   1453     1
    750    775     1
    750    772     1
    750    769     1
    751    766     1
    751    760     1
    751   1490     1
    754    763     1
    754    760     1
    754   1476     1
    757    763     1
    757    766     1
    757    778     1
    763   1484     1
    766   1470     1
    772   1467     1
    775   1481     1
    780    805     1
    780    802     1
    780    799     1
    781    796     1
    781    790     1
    781   1518     1
    784    793     1
    784    790     1
    784   1504     1
    787    793     1
    787    796     1
    787    808     1
    793   1512     1
    796   1498     1
    802   1495     1
    805   1509     1
    810    835     1
    810    832     1
    810    829     1
    811    826     1
    811    820     1
    811   1546     1
    814    823     1
    814    820     1
    814   1532     1
    817    823     1
    817    826     1
    817    838     1
    823   1540     1
    826   1526     1
    832   1523     1
    835   1537     1
    840    865     1
    840    862     1
    840    859     1
    841    856     1
    841    850     1
    841   1574     1
    844    853     1
    844    850     1
    844   1560     1
    847    853     1
    847    856     1
    847    868     1
    853   1568     1
    856   1554     1
    862   1551     1
    865   1565     1
    870    895     1
    870    892     1
    870    889     1
    871    886     1
    871    880     1
    871   1602     1
    874    883     1
    874    880     1
    874   1588     1
    877    883     1
    877    886     1
    877    898     1
    883   1596     1
    886   1582     1
    892   1579     1
    895   1593     1
    900    925     1
    900    922     1
    900    919     1
    901    916     1
    901    910     1
    901   1630     1
    904    913     1
    904    910     1
    904   1616     1
    907    913     1
    907    916     1
    907    928     1
    913   1624     1
    916   1610     1
    922   1607     1
    925   1621     1
    930    955     1
    930    952     1
    930    949     1
    931    946     1
    931    940     1
    931   1658     1
    934    943     1
    934    940     1
    934   1644     1
    937    943     1
    937    946     1
    937    958     1
    943   1652     1
    946   1638     1
    952   1635     1
    955   1649     1
    960    985     1
    960    982     1
    960    979     1
    961    976     1
    961    970     1
    961   1686     1
    964    973     1
    964    970     1
    964   1672     1
    967    973     1
    967    976     1
    967    988     1
    973   1680     1
    976   1666     1
    982   1663     1
    985   1677     1
    990   1015     1
    990   1012     1
    990   1009     1
    991   1006     1
    991   1000     1
    991   1714     1
    994   1003     1
    994   1000     1
    994   1700     1
    997   1003     1
    997   1006     1
    997   1018     1
   1003   1708     1
   1006   1694     1
   1012   1691     1
   1015   1705     1
   1020   1045     1
   1020   1042     1
   1020   1039     1
   1021   1036     1
   1021   1030     1
   1021   1742     1
   1024   1033     1
   1024   1030     1
   1024   1728     1
   1027   1033     1
   1027   1036     1
   1027   1048     1
   1033   1736     1
   1036   1722     1
   1042   1719     1
   1045   1733     1
   1050   1075     1
   1050   1072     1
   1050   1069     1
   1051   1066     1
   1051   1060     1
   1051   1770     1
   1054   1063     1
   1054   1060     1
   1054   1756     1
   1057   1063     1
   1057   1066     1
   1057   1078     1
   1063   1764     1
   1066   1750     1
   1072   1747     1
   1075   1761     1
   1080   1105     1
   1080   1102     1
   1080   1099     1
   1081   1096     1
   1081   1090     1
   1081   1798     1
   1084   1093     1
   1084   1090     1
   1084   1784     1
   1087   1093     1
   1087   1096     1
   1087   1108     1
   1093   1792     1
   1096   1778     1
   1102   1775     1
   1105   1789     1
   1110   1135     1
   1110   1132     1
   1110   1129     1
   1111   1126     1
   1111   1120     1
   1111   1826     1
   1114   1123     1
   1114   1120     1
   1114   1812     1
   1117   1123     1
   1117   1126     1
   1117   1138     1
   1123   1820     1
   1126   1806     1
   1132   1803     1
   1135   1817     1
   1140   1165     1
   1140   1162     1
   1140   1159     1
   1141   1156     1
   1141   1150     1
   1141   1854     1
   1144   1153     1
   1144   1150     1
   1144   1840     1
   1147   1153     1
   1147   1156     1
   1147   1168     1
   1153   1848     1
   1156   1834     1
   1162   1831     1
   1165   1845     1
   1170   1195     1
   1170   1192     1
   1170   1189     1
   1171   1186     1
   1171   1180     1
   1171   1882     1
   1174   1183     1
   1174   1180     1
   1174   1868     1
   1177   1183     1
   1177   1186     1
   1177   1198     1
   1183   1876     1
   1186   1862     1
   1192   1859     1
   1195   1873     1
   1200   1225     1
   1200   1222     1
   1200   1219     1
   1201   1216     1
   1201   1210     1
   1201   1910     1
   1204   1213     1
   1204   1210     1
   1204   1896     1
   1207   1213     1
   1207   1216     1
   1207   1228     1
   1213   1904     1
   1216   1890     1
   1222   1887     1
   1225   1901     1
   1230   1255     1
   1230   1252     1
   1230   1249     1
   1231   1246     1
   1231   1240     1
   1231   1938     1
   1234   1243     1
   1234   1240     1
   1234   1924     1
   1237   1243     1
   1237   1246     1
   1237   1258     1
   1243   1932     1
   1246   1918     1
   1252   1915     1
   1255   1929     1
   1260   1285     1
   1260   1282     1
   1260   1279     1
   1261   1276     1
   1261   1270     1
   1261   1966     1
   1264   1273     1
   1264   1270     1
   1264   1952     1
   1267   1273     1
   1267   1276     1
   1267   1288     1
   1273   1960     1
   1276   1946     1
   1282   1943     1
   1285   1957     1
   1290   1315     1
   1290   1312     1
   1290   1309     1
   1291   1306     1
   1291   1300     1
   1291   1994     1
   1294   1303     1
   1294   1300     1
   1294   1980     1
   1297   1303     1
   1297   1306     1
   1297   1318     1
   1303   1988     1
   1306   1974     1
   1312   1971     1
   1315   1985     1
   1320   1345     1
   1320   1342     1
   1320   1339     1
   1321   1336     1
   1321   1330     1
   1321   2022     1
   1324   1333     1
   1324   1330     1
   1324   2008     1
   1327   1333     1
   1327   1336     1
   1327   1348     1
   1333   2016     1
   1336   2002     1
   1342   1999     1
   1345   2013     1
   1350   1375     1
   1350   1372     1
   1350   1369     1
   1351   1366     1
   1351   1360     1
   1351   2050     1
   1354   1363     1
   1354   1360     1
   1354   2036     1
   1357   1363     1
   1357   1366     1
   1357   1378     1
   1363   2044     1
   1366   2030     1
   1372   2027     1
   1375   2041     1
   1380   1392     1
   1386   1389     1
   1394   1406     1
   1400   1403     1
   1408   1420     1
   1414   1417     1
   1422   1434     1
   1428   1431     1
   1436   1448     1
   1442   1445     1
   1450   1462     1
   1456   1459     1
   1464   1476     1
   1470   1473     1
   1478   1490     1
   1484   1487     1
   1492   1504     1
   1498   1501     1
   1506   1518     1
   1512   1515     1
   1520   1532     1
   1526   1529     1
   1534   1546     1
   1540   1543     1
   1548   1560     1
   1554   1557     1
   1562   1574     1
   1568   1571     1
   1576   1588     1
   1582   1585     1
   1590   1602     1
   1596   1599     1
   1604   1616     1
   1610   1613     1
   1618   1630     1
   1624   1627     1
   1632   1644     1
   1638   1641     1
   1646   1658     1
   1652   1655     1
   1660   1672     1
   1666   1669     1
   1674   1686     1
   1680   1683     1
   1688   1700     1
   1694   1697     1
   1702   1714     1
   1708   1711     1
   1716   1728     1
   1722   1725     1
   1730   1742     1
   1736   1739     1
   1744   1756     1
   1750   1753     1
   1758   1770     1
   1764   1767     1
   1772   1784     1
   1778   1781     1
   1786   1798     1
   1792   1795     1
   1800   1812     1
   1806   1809     1
   1814   1826     1
   1820   1823     1
   1828   1840     1
   1834   1837     1
   1842   1854     1
   1848   1851     1
   1856   1868     1
   1862   1865     1
   1870   1882     1
   1876   1879     1
   1884   1896     1
   1890   1893     1
   1898   1910     1
   1904   1907     1
   1912   1924     1
   1918   1921     1
   1926   1938     1
   1932   1935     1
   1940   1952     1
   1946   1949     1
   1954   1966     1
   1960   1963     1
   1968   1980     1
   1974   1977     1
   1982   1994     1
   1988   1991     1
   1996   2008     1
   2002   2005     1
   2010   2022     1
   2016   2019     1
   2024   2036     1
   2030   2033     1
   2038   2050     1
   2044   2047     1
      1     15     1
      1     16     1
      1     18     1
      1     19     1
      1     12     1
      1     13     1
      2      6     1
      2      7     1
      2      9     1
      2     10     1
      2     27     1
      2     28     1
      5      3     1
      8      3     1
     29      3     1
      3     26     1
      3     15     1
      3     16     1
      5      4     1
      8      4     1
     29      4     1
      4     26     1
      4     15     1
      4     16     1
      5      9     1
      5     10     1
      5     21     1
      5     22     1
      8      6     1
     29      6     1
      6     20     1
      6     18     1
      6     19     1
      8      7     1
     29      7     1
      7     20     1
      7     18     1
      7     19     1
      8     24     1
      8     25     1
     29      9     1
      9     23     1
      9     12     1
      9     13     1
     29     10     1
     10     23     1
     10     12     1
     10     13     1
     29     11     1
     12     88     1
     12     24     1
     12     25     1
     13     88     1
     13     24     1
     13     25     1
     29     14     1
     15    118     1
     15     27     1
     15     28     1
     16    118     1
     16     27     1
     16     28     1
     29     17     1
     18     58     1
     18     21     1
     18     22     1
     19     58     1
     19     21     1
     19     22     1
     20     50     1
     20     51     1
     21     49     1
     22     49     1
     23     80     1
     23     81     1
     24     79     1
     25     79     1
     26    110     1
     26    111     1
     27    109     1
     28    109     1
     30     44     1
     30     45     1
     30     47     1
     30     48     1
     30     41     1
     30     42     1
     31     35     1
     31     36     1
     31     38     1
     31     39     1
     31     56     1
     31     57     1
     32     34     1
     32     37     1
     32     59     1
     32     55     1
     32     44     1
     32     45     1
     33     34     1
     33     37     1
     33     59     1
     33     55     1
     33     44     1
     33     45     1
     34     38     1
     34     39     1
     34     53     1
     34     54     1
     35     37     1
     35     59     1
     35     52     1
     35     47     1
     35     48     1
     36     37     1
     36     59     1
     36     52     1
     36     47     1
     36     48     1
     37     50     1
     37     51     1
     38     59     1
     38     49     1
     38     41     1
     38     42     1
     39     59     1
     39     49     1
     39     41     1
     39     42     1
     40     59     1
     41     58     1
     41     50     1
     41     51     1
     42     58     1
     42     50     1
     42     51     1
     43     59     1
     44    178     1
     44     56     1
     44     57     1
     45    178     1
     45     56     1
     45     57     1
     46     59     1
     47    148     1
     47     53     1
     47     54     1
     48    148     1
     48     53     1
     48     54     1
     52    140     1
     52    141     1
     53    139     1
     54    139     1
     55    170     1
     55    171     1
     56    169     1
     57    169     1
     60     74     1
     60     75     1
     60     77     1
     60     78     1
     60     71     1
     60     72     1
     61     65     1
     61     66     1
     61     68     1
     61     69     1
     61     86     1
     61     87     1
     62     64     1
     62     67     1
     62     89     1
     62     85     1
     62     74     1
     62     75     1
     63     64     1
     63     67     1
     63     89     1
     63     85     1
     63     74     1
     63     75     1
     64     68     1
     64     69     1
     64     83     1
     64     84     1
     65     67     1
     65     89     1
     65     82     1
     65     77     1
     65     78     1
     66     67     1
     66     89     1
     66     82     1
     66     77     1
     66     78     1
     67     80     1
     67     81     1
     68     89     1
     68     79     1
     68     71     1
     68     72     1
     69     89     1
     69     79     1
     69     71     1
     69     72     1
     70     89     1
     71     88     1
     71     80     1
     71     81     1
     72     88     1
     72     80     1
     72     81     1
     73     89     1
     74    238     1
     74     86     1
     74     87     1
     75    238     1
     75     86     1
     75     87     1
     76     89     1
     77    208     1
     77     83     1
     77     84     1
     78    208     1
     78     83     1
     78     84     1
     82    200     1
     82    201     1
     83    199     1
     84    199     1
     85    230     1
     85    231     1
     86    229     1
     87    229     1
     90    104     1
     90    105     1
     90    107     1
     90    108     1
     90    101     1
     90    102     1
     91     95     1
     91     96     1
     91     98     1
     91     99     1
     91    116     1
     91    117     1
     92     94     1
     92     97     1
     92    119     1
     92    115     1
     92    104     1
     92    105     1
     93     94     1
     93     97     1
     93    119     1
     93    115     1
     93    104     1
     93    105     1
     94     98     1
     94     99     1
     94    113     1
     94    114     1
     95     97     1
     95    119     1
     95    112     1
     95    107     1
     95    108     1
     96     97     1
     96    119     1
     96    112     1
     96    107     1
     96    108     1
     97    110     1
     97    111     1
     98    119     1
     98    109     1
     98    101     1
     98    102     1
     99    119     1
     99    109     1
     99    101     1
     99    102     1
    100    119     1
    101    118     1
    101    110     1
    101    111     1
    102    118     1
    102    110     1
    102    111     1
    103    119     1
    104    298     1
    104    116     1
    104    117     1
    105    298     1
    105    116     1
    105    117     1
    106    119     1
    107    268     1
    107    113     1
    107    114     1
    108    268     1
    108    113     1
    108    114     1
    112    260     1
    112    261     1
    113    259     1
    114    259     1
    115    290     1
    115    291     1
    116    289     1
    117    289     1
    120    134     1
    120    135     1
    120    137     1
    120    138     1
    120    131     1
    120    132     1
    121    125     1
    121    126     1
    121    128     1
    121    129     1
    121    146     1
    121    147     1
    122    124     1
    122    127     1
    122    149     1
    122    145     1
    122    134     1
    122    135     1
    123    124     1
    123    127     1
    123    149     1
    123    145     1
    123    134     1
    123    135     1
    124    128     1
    124    129     1
    124    143     1
    124    144     1
    125    127     1
    125    149     1
    125    142     1
    125    137     1
    125    138     1
    126    127     1
    126    149     1
    126    142     1
    126    137     1
    126    138     1
    127    140     1
    127    141     1
    128    149     1
    128    139     1
    128    131     1
    128    132     1
    129    149     1
    129    139     1
    129    131     1
    129    132     1
    130    149     1
    131    148     1
    131    140     1
    131    141     1
    132    148     1
    132    140     1
    132    141     1
    133    149     1
    134    358     1
    134    146     1
    134    147     1
    135    358     1
    135    146     1
    135    147     1
    136    149     1
    137    328     1
    137    143     1
    137    144     1
    138    328     1
    138    143     1
    138    144     1
    142    320     1
    142    321     1
    143    319     1
    144    319     1
    145    350     1
    145    351     1
    146    349     1
    147    349     1
    150    164     1
    150    165     1
    150    167     1
    150    168     1
    150    161     1
    150    162     1
    151    155     1
    151    156     1
    151    158     1
    151    159     1
    151    176     1
    151    177     1
    152    154     1
    152    157     1
    152    179     1
    152    175     1
    152    164     1
    152    165     1
    153    154     1
    153    157     1
    153    179     1
    153    175     1
    153    164     1
    153    165     1
    154    158     1
    154    159     1
    154    173     1
    154    174     1
    155    157     1
    155    179     1
    155    172     1
    155    167     1
    155    168     1
    156    157     1
    156    179     1
    156    172     1
    156    167     1
    156    168     1
    157    170     1
    157    171     1
    158    179     1
    158    169     1
    158    161     1
    158    162     1
    159    179     1
    159    169     1
    159    161     1
    159    162     1
    160    179     1
    161    178     1
    161    170     1
    161    171     1
    162    178     1
    162    170     1
    162    171     1
    163    179     1
    164    418     1
    164    176     1
    164    177     1
    165    418     1
    165    176     1
    165    177     1
    166    179     1
    167    388     1
    167    173     1
    167    174     1
    168    388     1
    168    173     1
    168    174     1
    172    380     1
    172    381     1
    173    379     1
    174    379     1
    175    410     1
    175    411     1
    176    409     1
    177    409     1
    180    194     1
    180    195     1
    180    197     1
    180    198     1
    180    191     1
    180    192     1
    181    185     1
    181    186     1
    181    188     1
    181    189     1
    181    206     1
    181    207     1
    182    184     1
    182    187     1
    182    209     1
    182    205     1
    182    194     1
    182    195     1
    183    184     1
    183    187     1
    183    209     1
    183    205     1
    183    194     1
    183    195     1
    184    188     1
    184    189     1
    184    203     1
    184    204     1
    185    187     1
    185    209     1
    185    202     1
    185    197     1
    185    198     1
    186    187     1
    186    209     1
    186    202     1
    186    197     1
    186    198     1
    187    200     1
    187    201     1
    188    209     1
    188    199     1
    188    191     1
    188    192     1
    189    209     1
    189    199     1
    189    191     1
    189    192     1
    190    209     1
    191    208     1
    191    200     1
    191    201     1
    192    208     1
    192    200     1
    192    201     1
    193    209     1
    194    478     1
    194    206     1
    194    207     1
    195    478     1
    195    206     1
    195    207     1
    196    209     1
    197    448     1
    197    203     1
    197    204     1
    198    448     1
    198    203     1
    198    204     1
    202    440     1
    202    441     1
    203    439     1
    204    439     1
    205    470     1
    205    471     1
    206    469     1
    207    469     1
    210    224     1
    210    225     1
    210    227     1
    210    228     1
    210    221     1
    210    222     1
    211    215     1
    211    216     1
    211    218     1
    211    219     1
    211    236     1
    211    237     1
    212    214     1
    212    217     1
    212    239     1
    212    235     1
    212    224     1
    212    225     1
    213    214     1
    213    217     1
    213    239     1
    213    235     1
    213    224     1
    213    225     1
    214    218     1
    214    219     1
    214    233     1
    214    234     1
    215    217     1
    215    239     1
    215    232     1
    215    227     1
    215    228     1
    216    217     1
    216    239     1
    216    232     1
    216    227     1
    216    228     1
    217    230     1
    217    231     1
    218    239     1
    218    229     1
    218    221     1
    218    222     1
    219    239     1
    219    229     1
    219    221     1
    219    222     1
    220    239     1
    221    238     1
    221    230     1
    221    231     1
    222    238     1
    222    230     1
    222    231     1
    223    239     1
    224    538     1
    224    236     1
    224    237     1
    225    538     1
    225    236     1
    225    237     1
    226    239     1
    227    508     1
    227    233     1
    227    234     1
    228    508     1
    228    233     1
    228    234     1
    232    500     1
    232    501     1
    233    499     1
    234    499     1
    235    530     1
    235    531     1
    236    529     1
    237    529     1
    240    254     1
    240    255     1
    240    257     1
    240    258     1
    240    251     1
    240    252     1
    241    245     1
    241    246     1
    241    248     1
    241    249     1
    241    266     1
    241    267     1
    242    244     1
    242    247     1
    242    269     1
    242    265     1
    242    254     1
    242    255     1
    243    244     1
    243    247     1
    243    269     1
    243    265     1
    243    254     1
    243    255     1
    244    248     1
    244    249     1
    244    263     1
    244    264     1
    245    247     1
    245    269     1
    245    262     1
    245    257     1
    245    258     1
    246    247     1
    246    269     1
    246    262     1
    246    257     1
    246    258     1
    247    260     1
    247    261     1
    248    269     1
    248    259     1
    248    251     1
    248    252     1
    249    269     1
    249    259     1
    249    251     1
    249    252     1
    250    269     1
    251    268     1
    251    260     1
    251    261     1
    252    268     1
    252    260     1
    252    261     1
    253    269     1
    254    598     1
    254    266     1
    254    267     1
    255    598     1
    255    266     1
    255    267     1
    256    269     1
    257    568     1
    257    263     1
    257    264     1
    258    568     1
    258    263     1
    258    264     1
    262    560     1
    262    561     1
    263    559     1
    264    559     1
    265    590     1
    265    591     1
    266    589     1
    267    589     1
    270    284     1
    270    285     1
    270    287     1
    270    288     1
    270    281     1
    270    282     1
    271    275     1
    271    276     1
    271    278     1
    271    279     1
    271    296     1
    271    297     1
    272    274     1
    272    277     1
    272    299     1
    272    295     1
    272    284     1
    272    285     1
    273    274     1
    273    277     1
    273    299     1
    273    295     1
    273    284     1
    273    285     1
    274    278     1
    274    279     1
    274    293     1
    274    294     1
    275    277     1
    275    299     1
    275    292     1
    275    287     1
    275    288     1
    276    277     1
    276    299     1
    276    292     1
    276    287     1
    276    288     1
    277    290     1
    277    291     1
    278    299     1
    278    289     1
    278    281     1
    278    282     1
    279    299     1
    279    289     1
    279    281     1
    279    282     1
    280    299     1
    281    298     1
    281    290     1
    281    291     1
    282    298     1
    282    290     1
    282    291     1
    283    299     1
    284    658     1
    284    296     1
    284    297     1
    285    658     1
    285    296     1
    285    297     1
    286    299     1
    287    628     1
    287    293     1
    287    294     1
    288    628     1
    288    293     1
    288    294     1
    292    620     1
    292    621     1
    293    619     1
    294    619     1
    295    650     1
    295    651     1
    296    649     1
    297    649     1
    300    314     1
    300    315     1
    300    317     1
    300    318     1
    300    311     1
    300    312     1
    301    305     1
    301    306     1
    301    308     1
    301    309     1
    301    326     1
    301    327     1
    302    304     1
    302    307     1
    302    329     1
    302    325     1
    302    314     1
    302    315     1
    303    304     1
    303    307     1
    303    329     1
    303    325     1
    303    314     1
    303    315     1
    304    308     1
    304    309     1
    304    323     1
    304    324     1
    305    307     1
    305    329     1
    305    322     1
    305    317     1
    305    318     1
    306    307     1
    306    329     1
    306    322     1
    306    317     1
    306    318     1
    307    320     1
    307    321     1
    308    329     1
    308    319     1
    308    311     1
    308    312     1
    309    329     1
    309    319     1
    309    311     1
    309    312     1
    310    329     1
    311    328     1
    311    320     1
    311    321     1
    312    328     1
    312    320     1
    312    321     1
    313    329     1
    314    718     1
    314    326     1
    314    327     1
    315    718     1
    315    326     1
    315    327     1
    316    329     1
    317    688     1
    317    323     1
    317    324     1
    318    688     1
    318    323     1
    318    324     1
    322    680     1
    322    681     1
    323    679     1
    324    679     1
    325    710     1
    325    711     1
    326    709     1
    327    709     1
    330    344     1
    330    345     1
    330    347     1
    330    348     1
    330    341     1
    330    342     1
    331    335     1
    331    336     1
    331    338     1
    331    339     1
    331    356     1
    331    357     1
    332    334     1
    332    337     1
    332    359     1
    332    355     1
    332    344     1
    332    345     1
    333    334     1
    333    337     1
    333    359     1
    333    355     1
    333    344     1
    333    345     1
    334    338     1
    334    339     1
    334    353     1
    334    354     1
    335    337     1
    335    359     1
    335    352     1
    335    347     1
    335    348     1
    336    337     1
    336    359     1
    336    352     1
    336    347     1
    336    348     1
    337    350     1
    337    351     1
    338    359     1
    338    349     1
    338    341     1
    338    342     1
    339    359     1
    339    349     1
    339    341     1
    339    342     1
    340    359     1
    341    358     1
    341    350     1
    341    351     1
    342    358     1
    342    350     1
    342    351     1
    343    359     1
    344    778     1
    344    356     1
    344    357     1
    345    778     1
    345    356     1
    345    357     1
    346    359     1
    347    748     1
    347    353     1
    347    354     1
    348    748     1
    348    353     1
    348    354     1
    352    740     1
    352    741     1
    353    739     1
    354    739     1
    355    770     1
    355    771     1
    356    769     1
    357    769     1
    360    374     1
    360    375     1
    360    377     1
    360    378     1
    360    371     1
    360    372     1
    361    365     1
    361    366     1
    361    368     1
    361    369     1
    361    386     1
    361    387     1
    362    364     1
    362    367     1
    362    389     1
    362    385     1
    362    374     1
    362    375     1
    363    364     1
    363    367     1
    363    389     1
    363    385     1
    363    374     1
    363    375     1
    364    368     1
    364    369     1
    364    383     1
    364    384     1
    365    367     1
    365    389     1
    365    382     1
    365    377     1
    365    378     1
    366    367     1
    366    389     1
    366    382     1
    366    377     1
    366    378     1
    367    380     1
    367    381     1
    368    389     1
    368    379     1
    368    371     1
    368    372     1
    369    389     1
    369    379     1
    369    371     1
    369    372     1
    370    389     1
    371    388     1
    371    380     1
    371    381     1
    372    388     1
    372    380     1
    372    381     1
    373    389     1
    374    838     1
    374    386     1
    374    387     1
    375    838     1
    375    386     1
    375    387     1
    376    389     1
    377    808     1
    377    383     1
    377    384     1
    378    808     1
    378    383     1
    378    384     1
    382    800     1
    382    801     1
    383    799     1
    384    799     1
    385    830     1
    385    831     1
    386    829     1
    387    829     1
    390    404     1
    390    405     1
    390    407     1
    390    408     1
    390    401     1
    390    402     1
    391    395     1
    391    396     1
    391    398     1
    391    399     1
    391    416     1
    391    417     1
    392    394     1
    392    397     1
    392    419     1
    392    415     1
    392    404     1
    392    405     1
    393    394     1
    393    397     1
    393    419     1
    393    415     1
    393    404     1
    393    405     1
    394    398     1
    394    399     1
    394    413     1
    394    414     1
    395    397     1
    395    419     1
    395    412     1
    395    407     1
    395    408     1
    396    397     1
    396    419     1
    396    412     1
    396    407     1
    396    408     1
    397    410     1
    397    411     1
    398    419     1
    398    409     1
    398    401     1
    398    402     1
    399    419     1
    399    409     1
    399    401     1
    399    402     1
    400    419     1
    401    418     1
    401    410     1
    401    411     1
    402    418     1
    402    410     1
    402    411     1
    403    419     1
    404    898     1
    404    416     1
    404    417     1
    405    898     1
    405    416     1
    405    417     1
    406    419     1
    407    868     1
    407    413     1
    407    414     1
    408    868     1
    408    413     1
    408    414     1
    412    860     1
    412    861     1
    413    859     1
    414    859     1
    415    890     1
    415    891     1
    416    889     1
    417    889     1
    420    434     1
    420    435     1
    420    437     1
    420    438     1
    420    431     1
    420    432     1
    421    425     1
    421    426     1
    421    428     1
    421    429     1
    421    446     1
    421    447     1
    422    424     1
    422    427     1
    422    449     1
    422    445     1
    422    434     1
    422    435     1
    423    424     1
    423    427     1
    423    449     1
    423    445     1
    423    434     1
    423    435     1
    424    428     1
    424    429     1
    424    443     1
    424    444     1
    425    427     1
    425    449     1
    425    442     1
    425    437     1
    425    438     1
    426    427     1
    426    449     1
    426    442     1
    426    437     1
    426    438     1
    427    440     1
    427    441     1
    428    449     1
    428    439     1
    428    431     1
    428    432     1
    429    449     1
    429    439     1
    429    431     1
    429    432     1
    430    449     1
    431    448     1
    431    440     1
    431    441     1
    432    448     1
    432    440     1
    432    441     1
    433    449     1
    434    958     1
    434    446     1
    434    447     1
    435    958     1
    435    446     1
    435    447     1
    436    449     1
    437    928     1
    437    443     1
    437    444     1
    438    928     1
    438    443     1
    438    444     1
    442    920     1
    442    921     1
    443    919     1
    444    919     1
    445    950     1
    445    951     1
    446    949     1
    447    949     1
    450    464     1
    450    465     1
    450    467     1
    450    468     1
    450    461     1
    450    462     1
    451    455     1
    451    456     1
    451    458     1
    451    459     1
    451    476     1
    451    477     1
    452    454     1
    452    457     1
    452    479     1
    452    475     1
    452    464     1
    452    465     1
    453    454     1
    453    457     1
    453    479     1
    453    475     1
    453    464     1
    453    465     1
    454    458     1
    454    459     1
    454    473     1
    454    474     1
    455    457     1
    455    479     1
    455    472     1
    455    467     1
    455    468     1
    456    457     1
    456    479     1
    456    472     1
    456    467     1
    456    468     1
    457    470     1
    457    471     1
    458    479     1
    458    469     1
    458    461     1
    458    462     1
    459    479     1
    459    469     1
    459    461     1
    459    462     1
    460    479     1
    461    478     1
    461    470     1
    461    471     1
    462    478     1
    462    470     1
    462    471     1
    463    479     1
    464   1018     1
    464    476     1
    464    477     1
    465   1018     1
    465    476     1
    465    477     1
    466    479     1
    467    988     1
    467    473     1
    467    474     1
    468    988     1
    468    473     1
    468    474     1
    472    980     1
    472    981     1
    473    979     1
    474    979     1
    475   1010     1
    475   1011     1
    476   1009     1
    477   1009     1
    480    494     1
    480    495     1
    480    497     1
    480    498     1
    480    491     1
    480    492     1
    481    485     1
    481    486     1
    481    488     1
    481    489     1
    481    506     1
    481    507     1
    482    484     1
    482    487     1
    482    509     1
    482    505     1
    482    494     1
    482    495     1
    483    484     1
    483    487     1
    483    509     1
    483    505     1
    483    494     1
    483    495     1
    484    488     1
    484    489     1
    484    503     1
    484    504     1
    485    487     1
    485    509     1
    485    502     1
    485    497     1
    485    498     1
    486    487     1
    486    509     1
    486    502     1
    486    497     1
    486    498     1
    487    500     1
    487    501     1
    488    509     1
    488    499     1
    488    491     1
    488    492     1
    489    509     1
    489    499     1
    489    491     1
    489    492     1
    490    509     1
    491    508     1
    491    500     1
    491    501     1
    492    508     1
    492    500     1
    492    501     1
    493    509     1
    494   1078     1
    494    506     1
    494    507     1
    495   1078     1
    495    506     1
    495    507     1
    496    509     1
    497   1048     1
    497    503     1
    497    504     1
    498   1048     1
    498    503     1
    498    504     1
    502   1040     1
    502   1041     1
    503   1039     1
    504   1039     1
    505   1070     1
    505   1071     1
    506   1069     1
    507   1069     1
    510    524     1
    510    525     1
    510    527     1
    510    528     1
    510    521     1
    510    522     1
    511    515     1
    511    516     1
    511    518     1
    511    519     1
    511    536     1
    511    537     1
    512    514     1
    512    517     1
    512    539     1
    512    535     1
    512    524     1
    512    525     1
    513    514     1
    513    517     1
    513    539     1
    513    535     1
    513    524     1
    513    525     1
    514    518     1
    514    519     1
    514    533     1
    514    534     1
    515    517     1
    515    539     1
    515    532     1
    515    527     1
    515    528     1
    516    517     1
    516    539     1
    516    532     1
    516    527     1
    516    528     1
    517    530     1
    517    531     1
    518    539     1
    518    529     1
    518    521     1
    518    522     1
    519    539     1
    519    529     1
    519    521     1
    519    522     1
    520    539     1
    521    538     1
    521    530     1
    521    531     1
    522    538     1
    522    530     1
    522    531     1
    523    539     1
    524   1138     1
    524    536     1
    524    537     1
    525   1138     1
    525    536     1
    525    537     1
    526    539     1
    527   1108     1
    527    533     1
    527    534     1
    528   1108     1
    528    533     1
    528    534     1
    532   1100     1
    532   1101     1
    533   1099     1
    534   1099     1
    535   1130     1
    535   1131     1
    536   1129     1
    537   1129     1
    540    554     1
    540    555     1
    540    557     1
    540    558     1
    540    551     1
    540    552     1
    541    545     1
    541    546     1
    541    548     1
    541    549     1
    541    566     1
    541    567     1
    542    544     1
    542    547     1
    542    569     1
    542    565     1
    542    554     1
    542    555     1
    543    544     1
    543    547     1
    543    569     1
    543    565     1
    543    554     1
    543    555     1
    544    548     1
    544    549     1
    544    563     1
    544    564     1
    545    547     1
    545    569     1
    545    562     1
    545    557     1
    545    558     1
    546    547     1
    546    569     1
    546    562     1
    546    557     1
    546    558     1
    547    560     1
    547    561     1
    548    569     1
    548    559     1
    548    551     1
    548    552     1
    549    569     1
    549    559     1
    549    551     1
    549    552     1
    550    569     1
    551    568     1
    551    560     1
    551    561     1
    552    568     1
    552    560     1
    552    561     1
    553    569     1
    554   1198     1
    554    566     1
    554    567     1
    555   1198     1
    555    566     1
    555    567     1
    556    569     1
    557   1168     1
    557    563     1
    557    564     1
    558   1168     1
    558    563     1
    558    564     1
    562   1160     1
    562   1161     1
    563   1159     1
    564   1159     1
    565   1190     1
    565   1191     1
    566   1189     1
    567   1189     1
    570    584     1
    570    585     1
    570    587     1
    570    588     1
    570    581     1
    570    582     1
    571    575     1
    571    576     1
    571    578     1
    571    579     1
    571    596     1
    571    597     1
    572    574     1
    572    577     1
    572    599     1
    572    595     1
    572    584     1
    572    585     1
    573    574     1
    573    577     1
    573    599     1
    573    595     1
    573    584     1
    573    585     1
    574    578     1
    574    579     1
    574    593     1
    574    594     1
    575    577     1
    575    599     1
    575    592     1
    575    587     1
    575    588     1
    576    577     1
    576    599     1
    576    592     1
    576    587     1
    576    588     1
    577    590     1
    577    591     1
    578    599     1
    578    589     1
    578    581     1
    578    582     1
    579    599     1
    579    589     1
    579    581     1
    579    582     1
    580    599     1
    581    598     1
    581    590     1
    581    591     1
    582    598     1
    582    590     1
    582    591     1
    583    599     1
    584   1258     1
    584    596     1
    584    597     1
    585   1258     1
    585    596     1
    585    597     1
    586    599     1
    587   1228     1
    587    593     1
    587    594     1
    588   1228     1
    588    593     1
    588    594     1
    592   1220     1
    592   1221     1
    593   1219     1
    594   1219     1
    595   1250     1
    595   1251     1
    596   1249     1
    597   1249     1
    600    614     1
    600    615     1
    600    617     1
    600    618     1
    600    611     1
    600    612     1
    601    605     1
    601    606     1
    601    608     1
    601    609     1
    601    626     1
    601    627     1
    602    604     1
    602    607     1
    602    629     1
    602    625     1
    602    614     1
    602    615     1
    603    604     1
    603    607     1
    603    629     1
    603    625     1
    603    614     1
    603    615     1
    604    608     1
    604    609     1
    604    623     1
    604    624     1
    605    607     1
    605    629     1
    605    622     1
    605    617     1
    605    618     1
    606    607     1
    606    629     1
    606    622     1
    606    617     1
    606    618     1
    607    620     1
    607    621     1
    608    629     1
    608    619     1
    608    611     1
    608    612     1
    609    629     1
    609    619     1
    609    611     1
    609    612     1
    610    629     1
    611    628     1
    611    620     1
    611    621     1
    612    628     1
    612    620     1
    612    621     1
    613    629     1
    614   1318     1
    614    626     1
    614    627     1
    615   1318     1
    615    626     1
    615    627     1
    616    629     1
    617   1288     1
    617    623     1
    617    624     1
    618   1288     1
    618    623     1
    618    624     1
    622   1280     1
    622   1281     1
    623   1279     1
    624   1279     1
    625   1310     1
    625   1311     1
    626   1309     1
    627   1309     1
    630    644     1
    630    645     1
    630    647     1
    630    648     1
    630    641     1
    630    642     1
    631    635     1
    631    636     1
    631    638     1
    631    639     1
    631    656     1
    631    657     1
    632    634     1
    632    637     1
    632    659     1
    632    655     1
    632    644     1
    632    645     1
    633    634     1
    633    637     1
    633    659     1
    633    655     1
    633    644     1
    633    645     1
    634    638     1
    634    639     1
    634    653     1
    634    654     1
    635    637     1
    635    659     1
    635    652     1
    635    647     1
    635    648     1
    636    637     1
    636    659     1
    636    652     1
    636    647     1
    636    648     1
    637    650     1
    637    651     1
    638    659     1
    638    649     1
    638    641     1
    638    642     1
    639    659     1
    639    649     1
    639    641     1
    639    642     1
    640    659     1
    641    658     1
    641    650     1
    641    651     1
    642    658     1
    642    650     1
    642    651     1
    643    659     1
    644   1378     1
    644    656     1
    644    657     1
    645   1378     1
    645    656     1
    645    657     1
    646    659     1
    647   1348     1
    647    653     1
    647    654     1
    648   1348     1
    648    653     1
    648    654     1
    652   1340     1
    652   1341     1
    653   1339     1
    654   1339     1
    655   1370     1
    655   1371     1
    656   1369     1
    657   1369     1
    660    674     1
    660    675     1
    660    677     1
    660    678     1
    660    671     1
    660    672     1
    661    665     1
    661    666     1
    661    668     1
    661    669     1
    661    686     1
    661    687     1
    662    664     1
    662    667     1
    662    689     1
    662    685     1
    662    674     1
    662    675     1
    663    664     1
    663    667     1
    663    689     1
    663    685     1
    663    674     1
    663    675     1
    664    668     1
    664    669     1
    664    683     1
    664    684     1
    665    667     1
    665    689     1
    665    682     1
    665    677     1
    665    678     1
    666    667     1
    666    689     1
    666    682     1
    666    677     1
    666    678     1
    667    680     1
    667    681     1
    668    689     1
    668    679     1
    668    671     1
    668    672     1
    669    689     1
    669    679     1
    669    671     1
    669    672     1
    670    689     1
    671    688     1
    671    680     1
    671    681     1
    672    688     1
    672    680     1
    672    681     1
    673    689     1
    674   1406     1
    674    686     1
    674    687     1
    675   1406     1
    675    686     1
    675    687     1
    676    689     1
    677   1392     1
    677    683     1
    677    684     1
    678   1392     1
    678    683     1
    678    684     1
    682   1387     1
    682   1388     1
    683   1386     1
    684   1386     1
    685   1401     1
    685   1402     1
    686   1400     1
    687   1400     1
    690    704     1
    690    705     1
    690    707     1
    690    708     1
    690    701     1
    690    702     1
    691    695     1
    691    696     1
    691    698     1
    691    699     1
    691    716     1
    691    717     1
    692    694     1
    692    697     1
    692    719     1
    692    715     1
    692    704     1
    692    705     1
    693    694     1
    693    697     1
    693    719     1
    693    715     1
    693    704     1
    693    705     1
    694    698     1
    694    699     1
    694    713     1
    694    714     1
    695    697     1
    695    719     1
    695    712     1
    695    707     1
    695    708     1
    696    697     1
    696    719     1
    696    712     1
    696    707     1
    696    708     1
    697    710     1
    697    711     1
    698    719     1
    698    709     1
    698    701     1
    698    702     1
    699    719     1
    699    709     1
    699    701     1
    699    702     1
    700    719     1
    701    718     1
    701    710     1
    701    711     1
    702    718     1
    702    710     1
    702    711     1
    703    719     1
    704   1434     1
    704    716     1
    704    717     1
    705   1434     1
    705    716     1
    705    717     1
    706    719     1
    707   1420     1
    707    713     1
    707    714     1
    708   1420     1
    708    713     1
    708    714     1
    712   1415     1
    712   1416     1
    713   1414     1
    714   1414     1
    715   1429     1
    715   1430     1
    716   1428     1
    717   1428     1
    720    734     1
    720    735     1
    720    737     1
    720    738     1
    720    731     1
    720    732     1
    721    725     1
    721    726     1
    721    728     1
    721    729     1
    721    746     1
    721    747     1
    722    724     1
    722    727     1
    722    749     1
    722    745     1
    722    734     1
    722    735     1
    723    724     1
    723    727     1
    723    749     1
    723    745     1
    723    734     1
    723    735     1
    724    728     1
    724    729     1
    724    743     1
    724    744     1
    725    727     1
    725    749     1
    725    742     1
    725    737     1
    725    738     1
    726    727     1
    726    749     1
    726    742     1
    726    737     1
    726    738     1
    727    740     1
    727    741     1
    728    749     1
    728    739     1
    728    731     1
    728    732     1
    729    749     1
    729    739     1
    729    731     1
    729    732     1
    730    749     1
    731    748     1
    731    740     1
    731    741     1
    732    748     1
    732    740     1
    732    741     1
    733    749     1
    734   1462     1
    734    746     1
    734    747     1
    735   1462     1
    735    746     1
    735    747     1
    736    749     1
    737   1448     1
    737    743     1
    737    744     1
    738   1448     1
    738    743     1
    738    744     1
    742   1443     1
    742   1444     1
    743   1442     1
    744   1442     1
    745   1457     1
    745   1458     1
    746   1456     1
    747   1456     1
    750    764     1
    750    765     1
    750    767     1
    750    768     1
    750    761     1
    750    762     1
    751    755     1
    751    756     1
    751    758     1
    751    759     1
    751    776     1
    751    777     1
    752    754     1
    752    757     1
    752    779     1
    752    775     1
    752    764     1
    752    765     1
    753    754     1
    753    757     1
    753    779     1
    753    775     1
    753    764     1
    753    765     1
    754    758     1
    754    759     1
    754    773     1
    754    774     1
    755    757     1
    755    779     1
    755    772     1
    755    767     1
    755    768     1
    756    757     1
    756    779     1
    756    772     1
    756    767     1
    756    768     1
    757    770     1
    757    771     1
    758    779     1
    758    769     1
    758    761     1
    758    762     1
    759    779     1
    759    769     1
    759    761     1
    759    762     1
    760    779     1
    761    778     1
    761    770     1
    761    771     1
    762    778     1
    762    770     1
    762    771     1
    763    779     1
    764   1490     1
    764    776     1
    764    777     1
    765   1490     1
    765    776     1
    765    777     1
    766    779     1
    767   1476     1
    767    773     1
    767    774     1
    768   1476     1
    768    773     1
    768    774     1
    772   1471     1
    772   1472     1
    773   1470     1
    774   1470     1
    775   1485     1
    775   1486     1
    776   1484     1
    777   1484     1
    780    794     1
    780    795     1
    780    797     1
    780    798     1
    780    791     1
    780    792     1
    781    785     1
    781    786     1
    781    788     1
    781    789     1
    781    806     1
    781    807     1
    782    784     1
    782    787     1
    782    809     1
    782    805     1
    782    794     1
    782    795     1
    783    784     1
    783    787     1
    783    809     1
    783    805     1
    783    794     1
    783    795     1
    784    788     1
    784    789     1
    784    803     1
    784    804     1
    785    787     1
    785    809     1
    785    802     1
    785    797     1
    785    798     1
    786    787     1
    786    809     1
    786    802     1
    786    797     1
    786    798     1
    787    800     1
    787    801     1
    788    809     1
    788    799     1
    788    791     1
    788    792     1
    789    809     1
    789    799     1
    789    791     1
    789    792     1
    790    809     1
    791    808     1
    791    800     1
    791    801     1
    792    808     1
    792    800     1
    792    801     1
    793    809     1
    794   1518     1
    794    806     1
    794    807     1
    795   1518     1
    795    806     1
    795    807     1
    796    809     1
    797   1504     1
    797    803     1
    797    804     1
    798   1504     1
    798    803     1
    798    804     1
    802   1499     1
    802   1500     1
    803   1498     1
    804   1498     1
    805   1513     1
    805   1514     1
    806   1512     1
    807   1512     1
    810    824     1
    810    825     1
    810    827     1
    810    828     1
    810    821     1
    810    822     1
    811    815     1
    811    816     1
    811    818     1
    811    819     1
    811    836     1
    811    837     1
    812    814     1
    812    817     1
    812    839     1
    812    835     1
    812    824     1
    812    825     1
    813    814     1
    813    817     1
    813    839     1
    813    835     1
    813    824     1
    813    825     1
    814    818     1
    814    819     1
    814    833     1
    814    834     1
    815    817     1
    815    839     1
    815    832     1
    815    827     1
    815    828     1
    816    817     1
    816    839     1
    816    832     1
    816    827     1
    816    828     1
    817    830     1
    817    831     1
    818    839     1
    818    829     1
    818    821     1
    818    822     1
    819    839     1
    819    829     1
    819    821     1
    819    822     1
    820    839     1
    821    838     1
    821    830     1
    821    831     1
    822    838     1
    822    830     1
    822    831     1
    823    839     1
    824   1546     1
    824    836     1
    824    837     1
    825   1546     1
    825    836     1
    825    837     1
    826    839     1
    827   1532     1
    827    833     1
    827    834     1
    828   1532     1
    828    833     1
    828    834     1
    832   1527     1
    832   1528     1
    833   1526     1
    834   1526     1
    835   1541     1
    835   1542     1
    836   1540     1
    837   1540     1
    840    854     1
    840    855     1
    840    857     1
    840    858     1
    840    851     1
    840    852     1
    841    845     1
    841    846     1
    841    848     1
    841    849     1
    841    866     1
    841    867     1
    842    844     1
    842    847     1
    842    869     1
    842    865     1
    842    854     1
    842    855     1
    843    844     1
    843    847     1
    843    869     1
    843    865     1
    843    854     1
    843    855     1
    844    848     1
    844    849     1
    844    863     1
    844    864     1
    845    847     1
    845    869     1
    845    862     1
    845    857     1
    845    858     1
    846    847     1
    846    869     1
    846    862     1
    846    857     1
    846    858     1
    847    860     1
    847    861     1
    848    869     1
    848    859     1
    848    851     1
    848    852     1
    849    869     1
    849    859     1
    849    851     1
    849    852     1
    850    869     1
    851    868     1
    851    860     1
    851    861     1
    852    868     1
    852    860     1
    852    861     1
    853    869     1
    854   1574     1
    854    866     1
    854    867     1
    855   1574     1
    855    866     1
    855    867     1
    856    869     1
    857   1560     1
    857    863     1
    857    864     1
    858   1560     1
    858    863     1
    858    864     1
    862   1555     1
    862   1556     1
    863   1554     1
    864   1554     1
    865   1569     1
    865   1570     1
    866   1568     1
    867   1568     1
    870    884     1
    870    885     1
    870    887     1
    870    888     1
    870    881     1
    870    882     1
    871    875     1
    871    876     1
    871    878     1
    871    879     1
    871    896     1
    871    897     1
    872    874     1
    872    877     1
    872    899     1
    872    895     1
    872    884     1
    872    885     1
    873    874     1
    873    877     1
    873    899     1
    873    895     1
    873    884     1
    873    885     1
    874    878     1
    874    879     1
    874    893     1
    874    894     1
    875    877     1
    875    899     1
    875    892     1
    875    887     1
    875    888     1
    876    877     1
    876    899     1
    876    892     1
    876    887     1
    876    888     1
    877    890     1
    877    891     1
    878    899     1
    878    889     1
    878    881     1
    878    882     1
    879    899     1
    879    889     1
    879    881     1
    879    882     1
    880    899     1
    881    898     1
    881    890     1
    881    891     1
    882    898     1
    882    890     1
    882    891     1
    883    899     1
    884   1602     1
    884    896     1
    884    897     1
    885   1602     1
    885    896     1
    885    897     1
    886    899     1
    887   1588     1
    887    893     1
    887    894     1
    888   1588     1
    888    893     1
    888    894     1
    892   1583     1
    892   1584     1
    893   1582     1
    894   1582     1
    895   1597     1
    895   1598     1
    896   1596     1
    897   1596     1
    900    914     1
    900    915     1
    900    917     1
    900    918     1
    900    911     1
    900    912     1
    901    905     1
    901    906     1
    901    908     1
    901    909     1
    901    926     1
    901    927     1
    902    904     1
    902    907     1
    902    929     1
    902    925     1
    902    914     1
    902    915     1
    903    904     1
    903    907     1
    903    929     1
    903    925     1
    903    914     1
    903    915     1
    904    908     1
    904    909     1
    904    923     1
    904    924     1
    905    907     1
    905    929     1
    905    922     1
    905    917     1
    905    918     1
    906    907     1
    906    929     1
    906    922     1
    906    917     1
    906    918     1
    907    920     1
    907    921     1
    908    929     1
    908    919     1
    908    911     1
    908    912     1
    909    929     1
    909    919     1
    909    911     1
    909    912     1
    910    929     1
    911    928     1
    911    920     1
    911    921     1
    912    928     1
    912    920     1
    912    921     1
    913    929     1
    914   1630     1
    914    926     1
    914    927     1
    915   1630     1
    915    926     1
    915    927     1
    916    929     1
    917   1616     1
    917    923     1
    917    924     1
    918   1616     1
    918    923     1
    918    924     1
    922   1611     1
    922   1612     1
    923   1610     1
    924   1610     1
    925   1625     1
    925   1626     1
    926   1624     1
    927   1624     1
    930    944     1
    930    945     1
    930    947     1
    930    948     1
    930    941     1
    930    942     1
    931    935     1
    931    936     1
    931    938     1
    931    939     1
    931    956     1
    931    957     1
    932    934     1
    932    937     1
    932    959     1
    932    955     1
    932    944     1
    932    945     1
    933    934     1
    933    937     1
    933    959     1
    933    955     1
    933    944     1
    933    945     1
    934    938     1
    934    939     1
    934    953     1
    934    954     1
    935    937     1
    935    959     1
    935    952     1
    935    947     1
    935    948     1
    936    937     1
    936    959     1
    936    952     1
    936    947     1
    936    948     1
    937    950     1
    937    951     1
    938    959     1
    938    949     1
    938    941     1
    938    942     1
    939    959     1
    939    949     1
    939    941     1
    939    942     1
    940    959     1
    941    958     1
    941    950     1
    941    951     1
    942    958     1
    942    950     1
    942    951     1
    943    959     1
    944   1658     1
    944    956     1
    944    957     1
    945   1658     1
    945    956     1
    945    957     1
    946    959     1
    947   1644     1
    947    953     1
    947    954     1
    948   1644     1
    948    953     1
    948    954     1
    952   1639     1
    952   1640     1
    953   1638     1
    954   1638     1
    955   1653     1
    955   1654     1
    956   1652     1
    957   1652     1
    960    974     1
    960    975     1
    960    977     1
    960    978     1
    960    971     1
    960    972     1
    961    965     1
    961    966     1
    961    968     1
    961    969     1
    961    986     1
    961    987     1
    962    964     1
    962    967     1
    962    989     1
    962    985     1
    962    974     1
    962    975     1
    963    964     1
    963    967     1
    963    989     1
    963    985     1
    963    974     1
    963    975     1
    964    968     1
    964    969     1
    964    983     1
    964    984     1
    965    967     1
    965    989     1
    965    982     1
    965    977     1
    965    978     1
    966    967     1
    966    989     1
    966    982     1
    966    977     1
    966    978     1
    967    980     1
    967    981     1
    968    989     1
    968    979     1
    968    971     1
    968    972     1
    969    989     1
    969    979     1
    969    971     1
    969    972     1
    970    989     1
    971    988     1
    971    980     1
    971    981     1
    972    988     1
    972    980     1
    972    981     1
    973    989     1
    974   1686     1
    974    986     1
    974    987     1
    975   1686     1
    975    986     1
    975    987     1
    976    989     1
    977   1672     1
    977    983     1
    977    984     1
    978   1672     1
    978    983     1
    978    984     1
    982   1667     1
    982   1668     1
    983   1666     1
    984   1666     1
    985   1681     1
    985   1682     1
    986   1680     1
    987   1680     1
    990   1004     1
    990   1005     1
    990   1007     1
    990   1008     1
    990   1001     1
    990   1002     1
    991    995     1
    991    996     1
    991    998     1
    991    999     1
    991   1016     1
    991   1017     1
    992    994     1
    992    997     1
    992   1019     1
    992   1015     1
    992   1004     1
    992   1005     1
    993    994     1
    993    997     1
    993   1019     1
    993   1015     1
    993   1004     1
    993   1005     1
    994    998     1
    994    999     1
    994   1013     1
    994   1014     1
    995    997     1
    995   1019     1
    995   1012     1
    995   1007     1
    995   1008     1
    996    997     1
    996   1019     1
    996   1012     1
    996   1007     1
    996   1008     1
    997   1010     1
    997   1011     1
    998   1019     1
    998   1009     1
    998   1001     1
    998   1002     1
    999   1019     1
    999   1009     1
    999   1001     1
    999   1002     1
   1000   1019     1
   1001   1018     1
   1001   1010     1
   1001   1011     1
   1002   1018     1
   1002   1010     1
   1002   1011     1
   1003   1019     1
   1004   1714     1
   1004   1016     1
   1004   1017     1
   1005   1714     1
   1005   1016     1
   1005   1017     1
   1006   1019     1
   1007   1700     1
   1007   1013     1
   1007   1014     1
   1008   1700     1
   1008   1013     1
   1008   1014     1
   1012   1695     1
   1012   1696     1
   1013   1694     1
   1014   1694     1
   1015   1709     1
   1015   1710     1
   1016   1708     1
   1017   1708     1
   1020   1034     1
   1020   1035     1
   1020   1037     1
   1020   1038     1
   1020   1031     1
   1020   1032     1
   1021   1025     1
   1021   1026     1
   1021   1028     1
   1021   1029     1
   1021   1046     1
   1021   1047     1
   1022   1024     1
   1022   1027     1
   1022   1049     1
   1022   1045     1
   1022   1034     1
   1022   1035     1
   1023   1024     1
   1023   1027     1
   1023   1049     1
   1023   1045     1
   1023   1034     1
   1023   1035     1
   1024   1028     1
   1024   1029     1
   1024   1043     1
   1024   1044     1
   1025   1027     1
   1025   1049     1
   1025   1042     1
   1025   1037     1
   1025   1038     1
   1026   1027     1
   1026   1049     1
   1026   1042     1
   1026   1037     1
   1026   1038     1
   1027   1040     1
   1027   1041     1
   1028   1049     1
   1028   1039     1
   1028   1031     1
   1028   1032     1
   1029   1049     1
   1029   1039     1
   1029   1031     1
   1029   1032     1
   1030   1049     1
   1031   1048     1
   1031   1040     1
   1031   1041     1
   1032   1048     1
   1032   1040     1
   1032   1041     1
   1033   1049     1
   1034   1742     1
   1034   1046     1
   1034   1047     1
   1035   1742     1
   1035   1046     1
   1035   1047     1
   1036   1049     1
   1037   1728     1
   1037   1043     1
   1037   1044     1
   1038   1728     1
   1038   1043     1
   1038   1044     1
   1042   1723     1
   1042   1724     1
   1043   1722     1
   1044   1722     1
   1045   1737     1
   1045   1738     1
   1046   1736     1
   1047   1736     1
   1050   1064     1
   1050   1065     1
   1050   1067     1
   1050   1068     1
   1050   1061     1
   1050   1062     1
   1051   1055     1
   1051   1056     1
   1051   1058     1
   1051   1059     1
   1051   1076     1
   1051   1077     1
   1052   1054     1
   1052   1057     1
   1052   1079     1
   1052   1075     1
   1052   1064     1
   1052   1065     1
   1053   1054     1
   1053   1057     1
   1053   1079     1
   1053   1075     1
   1053   1064     1
   1053   1065     1
   1054   1058     1
   1054   1059     1
   1054   1073     1
   1054   1074     1
   1055   1057     1
   1055   1079     1
   1055   1072     1
   1055   1067     1
   1055   1068     1
   1056   1057     1
   1056   1079     1
   1056   1072     1
   1056   1067     1
   1056   1068     1
   1057   1070     1
   1057   1071     1
   1058   1079     1
   1058   1069     1
   1058   1061     1
   1058   1062     1
   1059   1079     1
   1059   1069     1
   1059   1061     1
   1059   1062     1
   1060   1079     1
   1061   1078     1
   1061   1070     1
   1061   1071     1
   1062   1078     1
   1062   1070     1
   1062   1071     1
   1063   1079     1
   1064   1770     1
   1064   1076     1
   1064   1077     1
   1065   1770     1
   1065   1076     1
   1065   1077     1
   1066   1079     1
   1067   1756     1
   1067   1073     1
   1067   1074     1
   1068   1756     1
   1068   1073     1
   1068   1074     1
   1072   1751     1
   1072   1752     1
   1073   1750     1
   1074   1750     1
   1075   1765     1
   1075   1766     1
   1076   1764     1
   1077   1764     1
   1080   1094     1
   1080   1095     1
   1080   1097     1
   1080   1098     1
   1080   1091     1
   1080   1092     1
   1081   1085     1
   1081   1086     1
   1081   1088     1
   1081   1089     1
   1081   1106     1
   1081   1107     1
   1082   1084     1
   1082   1087     1
   1082   1109     1
   1082   1105     1
   1082   1094     1
   1082   1095     1
   1083   1084     1
   1083   1087     1
   1083   1109     1
   1083   1105     1
   1083   1094     1
   1083   1095     1
   1084   1088     1
   1084   1089     1
   1084   1103     1
   1084   1104     1
   1085   1087     1
   1085   1109     1
   1085   1102     1
   1085   1097     1
   1085   1098     1
   1086   1087     1
   1086   1109     1
   1086   1102     1
   1086   1097     1
   1086   1098     1
   1087   1100     1
   1087   1101     1
   1088   1109     1
   1088   1099     1
   1088   1091     1
   1088   1092     1
   1089   1109     1
   1089   1099     1
   1089   1091     1
   1089   1092     1
   1090   1109     1
   1091   1108     1
   1091   1100     1
   1091   1101     1
   1092   1108     1
   1092   1100     1
   1092   1101     1
   1093   1109     1
   1094   1798     1
   1094   1106     1
   1094   1107     1
   1095   1798     1
   1095   1106     1
   1095   1107     1
   1096   1109     1
   1097   1784     1
   1097   1103     1
   1097   1104     1
   1098   1784     1
   1098   1103     1
   1098   1104     1
   1102   1779     1
   1102   1780     1
   1103   1778     1
   1104   1778     1
   1105   1793     1
   1105   1794     1
   1106   1792     1
   1107   1792     1
   1110   1124     1
   1110   1125     1
   1110   1127     1
   1110   1128     1
   1110   1121     1
   1110   1122     1
   1111   1115     1
   1111   1116     1
   1111   1118     1
   1111   1119     1
   1111   1136     1
   1111   1137     1
   1112   1114     1
   1112   1117     1
   1112   1139     1
   1112   1135     1
   1112   1124     1
   1112   1125     1
   1113   1114     1
   1113   1117     1
   1113   1139     1
   1113   1135     1
   1113   1124     1
   1113   1125     1
   1114   1118     1
   1114   1119     1
   1114   1133     1
   1114   1134     1
   1115   1117     1
   1115   1139     1
   1115   1132     1
   1115   1127     1
   1115   1128     1
   1116   1117     1
   1116   1139     1
   1116   1132     1
   1116   1127     1
   1116   1128     1
   1117   1130     1
   1117   1131     1
   1118   1139     1
   1118   1129     1
   1118   1121     1
   1118   1122     1
   1119   1139     1
   1119   1129     1
   1119   1121     1
   1119   1122     1
   1120   1139     1
   1121   1138     1
   1121   1130     1
   1121   1131     1
   1122   1138     1
   1122   1130     1
   1122   1131     1
   1123   1139     1
   1124   1826     1
   1124   1136     1
   1124   1137     1
   1125   1826     1
   1125   1136     1
   1125   1137     1
   1126   1139     1
   1127   1812     1
   1127   1133     1
   1127   1134     1
   1128   1812     1
   1128   1133     1
   1128   1134     1
   1132   1807     1
   1132   1808     1
   1133   1806     1
   1134   1806     1
   1135   1821     1
   1135   1822     1
   1136   1820     1
   1137   1820     1
   1140   1154     1
   1140   1155     1
   1140   1157     1
   1140   1158     1
   1140   1151     1
   1140   1152     1
   1141   1145     1
   1141   1146     1
   1141   1148     1
   1141   1149     1
   1141   1166     1
   1141   1167     1
   1142   1144     1
   1142   1147     1
   1142   1169     1
   1142   1165     1
   1142   1154     1
   1142   1155     1
   1143   1144     1
   1143   1147     1
   1143   1169     1
   1143   1165     1
   1143   1154     1
   1143   1155     1
   1144   1148     1
   1144   1149     1
   1144   1163     1
   1144   1164     1
   1145   1147     1
   1145   1169     1
   1145   1162     1
   1145   1157     1
   1145   1158     1
   1146   1147     1
   1146   1169     1
   1146   1162     1
   1146   1157     1
   1146   1158     1
   1147   1160     1
   1147   1161     1
   1148   1169     1
   1148   1159     1
   1148   1151     1
   1148   1152     1
   1149   1169     1
   1149   1159     1
   1149   1151     1
   1149   1152     1
   1150   1169     1
   1151   1168     1
   1151   1160     1
   1151   1161     1
   1152   1168     1
   1152   1160     1
   1152   1161     1
   1153   1169     1
   1154   1854     1
   1154   1166     1
   1154   1167     1
   1155   1854     1
   1155   1166     1
   1155   1167     1
   1156   1169     1
   1157   1840     1
   1157   1163     1
   1157   1164     1
   1158   1840     1
   1158   1163     1
   1158   1164     1
   1162   1835     1
   1162   1836     1
   1163   1834     1
   1164   1834     1
   1165   1849     1
   1165   1850     1
   1166   1848     1
   1167   1848     1
   1170   1184     1
   1170   1185     1
   1170   1187     1
   1170   1188     1
   1170   1181     1
   1170   1182     1
   1171   1175     1
   1171   1176     1
   1171   1178     1
   1171   1179     1
   1171   1196     1
   1171   1197     1
   1172   1174     1
   1172   1177     1
   1172   1199     1
   1172   1195     1
   1172   1184     1
   1172   1185     1
   1173   1174     1
   1173   1177     1
   1173   1199     1
   1173   1195     1
   1173   1184     1
   1173   1185     1
   1174   1178     1
   1174   1179     1
   1174   1193     1
   1174   1194     1
   1175   1177     1
   1175   1199     1
   1175   1192     1
   1175   1187     1
   1175   1188     1
   1176   1177     1
   1176   1199     1
   1176   1192     1
   1176   1187     1
   1176   1188     1
   1177   1190     1
   1177   1191     1
   1178   1199     1
   1178   1189     1
   1178   1181     1
   1178   1182     1
   1179   1199     1
   1179   1189     1
   1179   1181     1
   1179   1182     1
   1180   1199     1
   1181   1198     1
   1181   1190     1
   1181   1191     1
   1182   1198     1
   1182   1190     1
   1182   1191     1
   1183   1199     1
   1184   1882     1
   1184   1196     1
   1184   1197     1
   1185   1882     1
   1185   1196     1
   1185   1197     1
   1186   1199     1
   1187   1868     1
   1187   1193     1
   1187   1194     1
   1188   1868     1
   1188   1193     1
   1188   1194     1
   1192   1863     1
   1192   1864     1
   1193   1862     1
   1194   1862     1
   1195   1877     1
   1195   1878     1
   1196   1876     1
   1197   1876     1
   1200   1214     1
   1200   1215     1
   1200   1217     1
   1200   1218     1
   1200   1211     1
   1200   1212     1
   1201   1205     1
   1201   1206     1
   1201   1208     1
   1201   1209     1
   1201   1226     1
   1201   1227     1
   1202   1204     1
   1202   1207     1
   1202   1229     1
   1202   1225     1
   1202   1214     1
   1202   1215     1
   1203   1204     1
   1203   1207     1
   1203   1229     1
   1203   1225     1
   1203   1214     1
   1203   1215     1
   1204   1208     1
   1204   1209     1
   1204   1223     1
   1204   1224     1
   1205   1207     1
   1205   1229     1
   1205   1222     1
   1205   1217     1
   1205   1218     1
   1206   1207     1
   1206   1229     1
   1206   1222     1
   1206   1217     1
   1206   1218     1
   1207   1220     1
   1207   1221     1
   1208   1229     1
   1208   1219     1
   1208   1211     1
   1208   1212     1
   1209   1229     1
   1209   1219     1
   1209   1211     1
   1209   1212     1
   1210   1229     1
   1211   1228     1
   1211   1220     1
   1211   1221     1
   1212   1228     1
   1212   1220     1
   1212   1221     1
   1213   1229     1
   1214   1910     1
   1214   1226     1
   1214   1227     1
   1215   1910     1
   1215   1226     1
   1215   1227     1
   1216   1229     1
   1217   1896     1
   1217   1223     1
   1217   1224     1
   1218   1896     1
   1218   1223     1
   1218   1224     1
   1222   1891     1
   1222   1892     1
   1223   1890     1
   1224   1890     1
   1225   1905     1
   1225   1906     1
   1226   1904     1
   1227   1904     1
   1230   1244     1
   1230   1245     1
   1230   1247     1
   1230   1248     1
   1230   1241     1
   1230   1242     1
   1231   1235     1
   1231   1236     1
   1231   1238     1
   1231   1239     1
   1231   1256     1
   1231   1257     1
   1232   1234     1
   1232   1237     1
   1232   1259     1
   1232   1255     1
   1232   1244     1
   1232   1245     1
   1233   1234     1
   1233   1237     1
   1233   1259     1
   1233   1255     1
   1233   1244     1
   1233   1245     1
   1234   1238     1
   1234   1239     1
   1234   1253     1
   1234   1254     1
   1235   1237     1
   1235   1259     1
   1235   1252     1
   1235   1247     1
   1235   1248     1
   1236   1237     1
   1236   1259     1
   1236   1252     1
   1236   1247     1
   1236   1248     1
   1237   1250     1
   1237   1251     1
   1238   1259     1
   1238   1249     1
   1238   1241     1
   1238   1242     1
   1239   1259     1
   1239   1249     1
   1239   1241     1
   1239   1242     1
   1240   1259     1
   1241   1258     1
   1241   1250     1
   1241   1251     1
   1242   1258     1
   1242   1250     1
   1242   1251     1
   1243   1259     1
   1244   1938     1
   1244   1256     1
   1244   1257     1
   1245   1938     1
   1245   1256     1
   1245   1257     1
   1246   1259     1
   1247   1924     1
   1247   1253     1
   1247   1254     1
   1248   1924     1
   1248   1253     1
   1248   1254     1
   1252   1919     1
   1252   1920     1
   1253   1918     1
   1254   1918     1
   1255   1933     1
   1255   1934     1
   1256   1932     1
   1257   1932     1
   1260   1274     1
   1260   1275     1
   1260   1277     1
   1260   1278     1
   1260   1271     1
   1260   1272     1
   1261   1265     1
   1261   1266     1
   1261   1268     1
   1261   1269     1
   1261   1286     1
   1261   1287     1
   1262   1264     1
   1262   1267     1
   1262   1289     1
   1262   1285     1
   1262   1274     1
   1262   1275     1
   1263   1264     1
   1263   1267     1
   1263   1289     1
   1263   1285     1
   1263   1274     1
   1263   1275     1
   1264   1268     1
   1264   1269     1
   1264   1283     1
   1264   1284     1
   1265   1267     1
   1265   1289     1
   1265   1282     1
   1265   1277     1
   1265   1278     1
   1266   1267     1
   1266   1289     1
   1266   1282     1
   1266   1277     1
   1266   1278     1
   1267   1280     1
   1267   1281     1
   1268   1289     1
   1268   1279     1
   1268   1271     1
   1268   1272     1
   1269   1289     1
   1269   1279     1
   1269   1271     1
   1269   1272     1
   1270   1289     1
   1271   1288     1
   1271   1280     1
   1271   1281     1
   1272   1288     1
   1272   1280     1
   1272   1281     1
   1273   1289     1
   1274   1966     1
   1274   1286     1
   1274   1287     1
   1275   1966     1
   1275   1286     1
   1275   1287     1
   1276   1289     1
   1277   1952     1
   1277   1283     1
   1277   1284     1
   1278   1952     1
   1278   1283     1
   1278   1284     1
   1282   1947     1
   1282   1948     1
   1283   1946     1
   1284   1946     1
   1285   1961     1
   1285   1962     1
   1286   1960     1
   1287   1960     1
   1290   1304     1
   1290   1305     1
   1290   1307     1
   1290   1308     1
   1290   1301     1
   1290   1302     1
   1291   1295     1
   1291   1296     1
   1291   1298     1
   1291   1299     1
   1291   1316     1
   1291   1317     1
   1292   1294     1
   1292   1297     1
   1292   1319     1
   1292   1315     1
   1292   1304     1
   1292   1305     1
   1293   1294     1
   1293   1297     1
   1293   1319     1
   1293   1315     1
   1293   1304     1
   1293   1305     1
   1294   1298     1
   1294   1299     1
   1294   1313     1
   1294   1314     1
   1295   1297     1
   1295   1319     1
   1295   1312     1
   1295   1307     1
   1295   1308     1
   1296   1297     1
   1296   1319     1
   1296   1312     1
   1296   1307     1
   1296   1308     1
   1297   1310     1
   1297   1311     1
   1298   1319     1
   1298   1309     1
   1298   1301     1
   1298   1302     1
   1299   1319     1
   1299   1309     1
   1299   1301     1
   1299   1302     1
   1300   1319     1
   1301   1318     1
   1301   1310     1
   1301   1311     1
   1302   1318     1
   1302   1310     1
   1302   1311     1
   1303   1319     1
   1304   1994     1
   1304   1316     1
   1304   1317     1
   1305   1994     1
   1305   1316     1
   1305   1317     1
   1306   1319     1
   1307   1980     1
   1307   1313     1
   1307   1314     1
   1308   1980     1
   1308   1313     1
   1308   1314     1
   1312   1975     1
   1312   1976     1
   1313   1974     1
   1314   1974     1
   1315   1989     1
   1315   1990     1
   1316   1988     1
   1317   1988     1
   1320   1334     1
   1320   1335     1
   1320   1337     1
   1320   1338     1
   1320   1331     1
   1320   1332     1
   1321   1325     1
   1321   1326     1
   1321   1328     1
   1321   1329     1
   1321   1346     1
   1321   1347     1
   1322   1324     1
   1322   1327     1
   1322   1349     1
   1322   1345     1
   1322   1334     1
   1322   1335     1
   1323   1324     1
   1323   1327     1
   1323   1349     1
   1323   1345     1
   1323   1334     1
   1323   1335     1
   1324   1328     1
   1324   1329     1
   1324   1343     1
   1324   1344     1
   1325   1327     1
   1325   1349     1
   1325   1342     1
   1325   1337     1
   1325   1338     1
   1326   1327     1
   1326   1349     1
   1326   1342     1
   1326   1337     1
   1326   1338     1
   1327   1340     1
   1327   1341     1
   1328   1349     1
   1328   1339     1
   1328   1331     1
   1328   1332     1
   1329   1349     1
   1329   1339     1
   1329   1331     1
   1329   1332     1
   1330   1349     1
   1331   1348     1
   1331   1340     1
   1331   1341     1
   1332   1348     1
   1332   1340     1
   1332   1341     1
   1333   1349     1
   1334   2022     1
   1334   1346     1
   1334   1347     1
   1335   2022     1
   1335   1346     1
   1335   1347     1
   1336   1349     1
   1337   2008     1
   1337   1343     1
   1337   1344     1
   1338   2008     1
   1338   1343     1
   1338   1344     1
   1342   2003     1
   1342   2004     1
   1343   2002     1
   1344   2002     1
   1345   2017     1
   1345   2018     1
   1346   2016     1
   1347   2016     1
   1350   1364     1
   1350   1365     1
   1350   1367     1
   1350   1368     1
   1350   1361     1
   1350   1362     1
   1351   1355     1
   1351   1356     1
   1351   1358     1
   1351   1359     1
   1351   1376     1
   1351   1377     1
   1352   1354     1
   1352   1357     1
   1352   1379     1
   1352   1375     1
   1352   1364     1
   1352   1365     1
   1353   1354     1
   1353   1357     1
   1353   1379     1
   1353   1375     1
   1353   1364     1
   1353   1365     1
   1354   1358     1
   1354   1359     1
   1354   1373     1
   1354   1374     1
   1355   1357     1
   1355   1379     1
   1355   1372     1
   1355   1367     1
   1355   1368     1
   1356   1357     1
   1356   1379     1
   1356   1372     1
   1356   1367     1
   1356   1368     1
   1357   1370     1
   1357   1371     1
   1358   1379     1
   1358   1369     1
   1358   1361     1
   1358   1362     1
   1359   1379     1
   1359   1369     1
   1359   1361     1
   1359   1362     1
   1360   1379     1
   1361   1378     1
   1361   1370     1
   1361   1371     1
   1362   1378     1
   1362   1370     1
   1362   1371     1
   1363   1379     1
   1364   2050     1
   1364   1376     1
   1364   1377     1
   1365   2050     1
   1365   1376     1
   1365   1377     1
   1366   1379     1
   1367   2036     1
   1367   1373     1
   1367   1374     1
   1368   2036     1
   1368   1373     1
   1368   1374     1
   1372   2031     1
   1372   2032     1
   1373   2030     1
   1374   2030     1
   1375   2045     1
   1375   2046     1
   1376   2044     1
   1377   2044     1
   1380   1387     1
   1380   1388     1
   1381   1386     1
   1381   1384     1
   1381   1385     1
   1381   1390     1
   1381   1391     1
   1381   1393     1
   1382   1386     1
   1382   1384     1
   1382   1385     1
   1382   1390     1
   1382   1391     1
   1382   1393     1
   1383   1390     1
   1383   1391     1
   1383   1393     1
   1384   1389     1
   1384   1392     1
   1384   1387     1
   1384   1388     1
   1385   1389     1
   1385   1392     1
   1385   1387     1
   1385   1388     1
   1394   1401     1
   1394   1402     1
   1395   1400     1
   1395   1398     1
   1395   1399     1
   1395   1404     1
   1395   1405     1
   1395   1407     1
   1396   1400     1
   1396   1398     1
   1396   1399     1
   1396   1404     1
   1396   1405     1
   1396   1407     1
   1397   1404     1
   1397   1405     1
   1397   1407     1
   1398   1406     1
   1398   1401     1
   1398   1402     1
   1398   1403     1
   1399   1406     1
   1399   1401     1
   1399   1402     1
   1399   1403     1
   1408   1415     1
   1408   1416     1
   1409   1414     1
   1409   1412     1
   1409   1413     1
   1409   1418     1
   1409   1419     1
   1409   1421     1
   1410   1414     1
   1410   1412     1
   1410   1413     1
   1410   1418     1
   1410   1419     1
   1410   1421     1
   1411   1418     1
   1411   1419     1
   1411   1421     1
   1412   1417     1
   1412   1420     1
   1412   1415     1
   1412   1416     1
   1413   1417     1
   1413   1420     1
   1413   1415     1
   1413   1416     1
   1422   1429     1
   1422   1430     1
   1423   1428     1
   1423   1426     1
   1423   1427     1
   1423   1432     1
   1423   1433     1
   1423   1435     1
   1424   1428     1
   1424   1426     1
   1424   1427     1
   1424   1432     1
   1424   1433     1
   1424   1435     1
   1425   1432     1
   1425   1433     1
   1425   1435     1
   1426   1434     1
   1426   1429     1
   1426   1430     1
   1426   1431     1
   1427   1434     1
   1427   1429     1
   1427   1430     1
   1427   1431     1
   1436   1443     1
   1436   1444     1
   1437   1442     1
   1437   1440     1
   1437   1441     1
   1437   1446     1
   1437   1447     1
   1437   1449     1
   1438   1442     1
   1438   1440     1
   1438   1441     1
   1438   1446     1
   1438   1447     1
   1438   1449     1
   1439   1446     1
   1439   1447     1
   1439   1449     1
   1440   1445     1
   1440   1448     1
   1440   1443     1
   1440   1444     1
   1441   1445     1
   1441   1448     1
   1441   1443     1
   1441   1444     1
   1450   1457     1
   1450   1458     1
   1451   1456     1
   1451   1454     1
   1451   1455     1
   1451   1460     1
   1451   1461     1
   1451   1463     1
   1452   1456     1
   1452   1454     1
   1452   1455     1
   1452   1460     1
   1452   1461     1
   1452   1463     1
   1453   1460     1
   1453   1461     1
   1453   1463     1
   1454   1462     1
   1454   1457     1
   1454   1458     1
   1454   1459     1
   1455   1462     1
   1455   1457     1
   1455   1458     1
   1455   1459     1
   1464   1471     1
   1464   1472     1
   1465   1470     1
   1465   1468     1
   1465   1469     1
   1465   1474     1
   1465   1475     1
   1465   1477     1
   1466   1470     1
   1466   1468     1
   1466   1469     1
   1466   1474     1
   1466   1475     1
   1466   1477     1
   1467   1474     1
   1467   1475     1
   1467   1477     1
   1468   1473     1
   1468   1476     1
   1468   1471     1
   1468   1472     1
   1469   1473     1
   1469   1476     1
   1469   1471     1
   1469   1472     1
   1478   1485     1
   1478   1486     1
   1479   1484     1
   1479   1482     1
   1479   1483     1
   1479   1488     1
   1479   1489     1
   1479   1491     1
   1480   1484     1
   1480   1482     1
   1480   1483     1
   1480   1488     1
   1480   1489     1
   1480   1491     1
   1481   1488     1
   1481   1489     1
   1481   1491     1
   1482   1490     1
   1482   1485     1
   1482   1486     1
   1482   1487     1
   1483   1490     1
   1483   1485     1
   1483   1486     1
   1483   1487     1
   1492   1499     1
   1492   1500     1
   1493   1498     1
   1493   1496     1
   1493   1497     1
   1493   1502     1
   1493   1503     1
   1493   1505     1
   1494   1498     1
   1494   1496     1
   1494   1497     1
   1494   1502     1
   1494   1503     1
   1494   1505     1
   1495   1502     1
   1495   1503     1
   1495   1505     1
   1496   1501     1
   1496   1504     1
   1496   1499     1
   1496   1500     1
   1497   1501     1
   1497   1504     1
   1497   1499     1
   1497   1500     1
   1506   1513     1
   1506   1514     1
   1507   1512     1
   1507   1510     1
   1507   1511     1
   1507   1516     1
   1507   1517     1
   1507   1519     1
   1508   1512     1
   1508   1510     1
   1508   1511     1
   1508   1516     1
   1508   1517     1
   1508   1519     1
   1509   1516     1
   1509   1517     1
   1509   1519     1
   1510   1518     1
   1510   1513     1
   1510   1514     1
   1510   1515     1
   1511   1518     1
   1511   1513     1
   1511   1514     1
   1511   1515     1
   1520   1527     1
   1520   1528     1
   1521   1526     1
   1521   1524     1
   1521   1525     1
   1521   1530     1
   1521   1531     1
   1521   1533     1
   1522   1526     1
   1522   1524     1
   1522   1525     1
   1522   1530     1
   1522   1531     1
   1522   1533     1
   1523   1530     1
   1523   1531     1
   1523   1533     1
   1524   1529     1
   1524   1532     1
   1524   1527     1
   1524   1528     1
   1525   1529     1
   1525   1532     1
   1525   1527     1
   1525   1528     1
   1534   1541     1
   1534   1542     1
   1535   1540     1
   1535   1538     1
   1535   1539     1
   1535   1544     1
   1535   1545     1
   1535   1547     1
   1536   1540     1
   1536   1538     1
   1536   1539     1
   1536   1544     1
   1536   1545     1
   1536   1547     1
   1537   1544     1
   1537   1545     1
   1537   1547     1
   1538   1546     1
   1538   1541     1
   1538   1542     1
   1538   1543     1
   1539   1546     1
   1539   1541     1
   1539   1542     1
   1539   1543     1
   1548   1555     1
   1548   1556     1
   1549   1554     1
   1549   1552     1
   1549   1553     1
   1549   1558     1
   1549   1559     1
   1549   1561     1
   1550   1554     1
   1550   1552     1
   1550   1553     1
   1550   1558     1
   1550   1559     1
   1550   1561     1
   1551   1558     1
   1551   1559     1
   1551   1561     1
   1552   1557     1
   1552   1560     1
   1552   1555     1
   1552   1556     1
   1553   1557     1
   1553   1560     1
   1553   1555     1
   1553   1556     1
   1562   1569     1
   1562   1570     1
   1563   1568     1
   1563   1566     1
   1563   1567     1
   1563   1572     1
   1563   1573     1
   1563   1575     1
   1564   1568     1
   1564   1566     1
   1564   1567     1
   1564   1572     1
   1564   1573     1
   1564   1575     1
   1565   1572     1
   1565   1573     1
   1565   1575     1
   1566   1574     1
   1566   1569     1
   1566   1570     1
   1566   1571     1
   1567   1574     1
   1567   1569     1
   1567   1570     1
   1567   1571     1
   1576   1583     1
   1576   1584     1
   1577   1582     1
   1577   1580     1
   1577   1581     1
   1577   1586     1
   1577   1587     1
   1577   1589     1
   1578   1582     1
   1578   1580     1
   1578   1581     1
   1578   1586     1
   1578   1587     1
   1578   1589     1
   1579   1586     1
   1579   1587     1
   1579   1589     1
   1580   1585     1
   1580   1588     1
   1580   1583     1
   1580   1584     1
   1581   1585     1
   1581   1588     1
   1581   1583     1
   1581   1584     1
   1590   1597     1
   1590   1598     1
   1591   1596     1
   1591   1594     1
   1591   1595     1
   1591   1600     1
   1591   1601     1
   1591   1603     1
   1592   1596     1
   1592   1594     1
   1592   1595     1
   1592   1600     1
   1592   1601     1
   1592   1603     1
   1593   1600     1
   1593   1601     1
   1593   1603     1
   1594   1602     1
   1594   1597     1
   1594   1598     1
   1594   1599     1
   1595   1602     1
   1595   1597     1
   1595   1598     1
   1595   1599     1
   1604   1611     1
   1604   1612     1
   1605   1610     1
   1605   1608     1
   1605   1609     1
   1605   1614     1
   1605   1615     1
   1605   1617     1
   1606   1610     1
   1606   1608     1
   1606   1609     1
   1606   1614     1
   1606   1615     1
   1606   1617     1
   1607   1614     1
   1607   1615     1
   1607   1617     1
   1608   1613     1
   1608   1616     1
   1608   1611     1
   1608   1612     1
   1609   1613     1
   1609   1616     1
   1609   1611     1
   1609   1612     1
   1618   1625     1
   1618   1626     1
   1619   1624     1
   1619   1622     1
   1619   1623     1
   1619   1628     1
   1619   1629     1
   1619   1631     1
   1620   1624     1
   1620   1622     1
   1620   1623     1
   1620   1628     1
   1620   1629     1
   1620   1631     1
   1621   1628     1
   1621   1629     1
   1621   1631     1
   1622   1630     1
   1622   1625     1
   1622   1626     1
   1622   1627     1
   1623   1630     1
   1623   1625     1
   1623   1626     1
   1623   1627     1
   1632   1639     1
   1632   1640     1
   1633   1638     1
   1633   1636     1
   1633   1637     1
   1633   1642     1
   1633   1643     1
   1633   1645     1
   1634   1638     1
   1634   1636     1
   1634   1637     1
   1634   1642     1
   1634   1643     1
   1634   1645     1
   1635   1642     1
   1635   1643     1
   1635   1645     1
   1636   1641     1
   1636   1644     1
   1636   1639     1
   1636   1640     1
   1637   1641     1
   1637   1644     1
   1637   1639     1
   1637   1640     1
   1646   1653     1
   1646   1654     1
   1647   1652     1
   1647   1650     1
   1647   1651     1
   1647   1656     1
   1647   1657     1
   1647   1659     1
   1648   1652     1
   1648   1650     1
   1648   1651     1
   1648   1656     1
   1648   1657     1
   1648   1659     1
   1649   1656     1
   1649   1657     1
   1649   1659     1
   1650   1658     1
   1650   1653     1
   1650   1654     1
   1650   1655     1
   1651   1658     1
   1651   1653     1
   1651   1654     1
   1651   1655     1
   1660   1667     1
   1660   1668     1
   1661   1666     1
   1661   1664     1
   1661   1665     1
   1661   1670     1
   1661   1671     1
   1661   1673     1
   1662   1666     1
   1662   1664     1
   1662   1665     1
   1662   1670     1
   1662   1671     1
   1662   1673     1
   1663   1670     1
   1663   1671     1
   1663   1673     1
   1664   1669     1
   1664   1672     1
   1664   1667     1
   1664   1668     1
   1665   1669     1
   1665   1672     1
   1665   1667     1
   1665   1668     1
   1674   1681     1
   1674   1682     1
   1675   1680     1
   1675   1678     1
   1675   1679     1
   1675   1684     1
   1675   1685     1
   1675   1687     1
   1676   1680     1
   1676   1678     1
   1676   1679     1
   1676   1684     1
   1676   1685     1
   1676   1687     1
   1677   1684     1
   1677   1685     1
   1677   1687     1
   1678   1686     1
   1678   1681     1
   1678   1682     1
   1678   1683     1
   1679   1686     1
   1679   1681     1
   1679   1682     1
   1679   1683     1
   1688   1695     1
   1688   1696     1
   1689   1694     1
   1689   1692     1
   1689   1693     1
   1689   1698     1
   1689   1699     1
   1689   1701     1
   1690   1694     1
   1690   1692     1
   1690   1693     1
   1690   1698     1
   1690   1699     1
   1690   1701     1
   1691   1698     1
   1691   1699     1
   1691   1701     1
   1692   1697     1
   1692   1700     1
   1692   1695     1
   1692   1696     1
   1693   1697     1
   1693   1700     1
   1693   1695     1
   1693   1696     1
   1702   1709     1
   1702   1710     1
   1703   1708     1
   1703   1706     1
   1703   1707     1
   1703   1712     1
   1703   1713     1
   1703   1715     1
   1704   1708     1
   1704   1706     1
   1704   1707     1
   1704   1712     1
   1704   1713     1
   1704   1715     1
   1705   1712     1
   1705   1713     1
   1705   1715     1
   1706   1714     1
   1706   1709     1
   1706   1710     1
   1706   1711     1
   1707   1714     1
   1707   1709     1
   1707   1710     1
   1707   1711     1
   1716   1723     1
   1716   1724     1
   1717   1722     1
   1717   1720     1
   1717   1721     1
   1717   1726     1
   1717   1727     1
   1717   1729     1
   1718   1722     1
   1718   1720     1
   1718   1721     1
   1718   1726     1
   1718   1727     1
   1718   1729     1
   1719   1726     1
   1719   1727     1
   1719   1729     1
   1720   1725     1
   1720   1728     1
   1720   1723     1
   1720   1724     1
   1721   1725     1
   1721   1728     1
   1721   1723     1
   1721   1724     1
   1730   1737     1
   1730   1738     1
   1731   1736     1
   1731   1734     1
   1731   1735     1
   1731   1740     1
   1731   1741     1
   1731   1743     1
   1732   1736     1
   1732   1734     1
   1732   1735     1
   1732   1740     1
   1732   1741     1
   1732   1743     1
   1733   1740     1
   1733   1741     1
   1733   1743     1
   1734   1742     1
   1734   1737     1
   1734   1738     1
   1734   1739     1
   1735   1742     1
   1735   1737     1
   1735   1738     1
   1735   1739     1
   1744   1751     1
   1744   1752     1
   1745   1750     1
   1745   1748     1
   1745   1749     1
   1745   1754     1
   1745   1755     1
   1745   1757     1
   1746   1750     1
   1746   1748     1
   1746   1749     1
   1746   1754     1
   1746   1755     1
   1746   1757     1
   1747   1754     1
   1747   1755     1
   1747   1757     1
   1748   1753     1
   1748   1756     1
   1748   1751     1
   1748   1752     1
   1749   1753     1
   1749   1756     1
   1749   1751     1
   1749   1752     1
   1758   1765     1
   1758   1766     1
   1759   1764     1
   1759   1762     1
   1759   1763     1
   1759   1768     1
   1759   1769     1
   1759   1771     1
   1760   1764     1
   1760   1762     1
   1760   1763     1
   1760   1768     1
   1760   1769     1
   1760   1771     1
   1761   1768     1
   1761   1769     1
   1761   1771     1
   1762   1770     1
   1762   1765     1
   1762   1766     1
   1762   1767     1
   1763   1770     1
   1763   1765     1
   1763   1766     1
   1763   1767     1
   1772   1779     1
   1772   1780     1
   1773   1778     1
   1773   1776     1
   1773   1777     1
   1773   1782     1
   1773   1783     1
   1773   1785     1
   1774   1778     1
   1774   1776     1
   1774   1777     1
   1774   1782     1
   1774   1783     1
   1774   1785     1
   1775   1782     1
   1775   1783     1
   1775   1785     1
   1776   1781     1
   1776   1784     1
   1776   1779     1
   1776   1780     1
   1777   1781     1
   1777   1784     1
   1777   1779     1
   1777   1780     1
   1786   1793     1
   1786   1794     1
   1787   1792     1
   1787   1790     1
   1787   1791     1
   1787   1796     1
   1787   1797     1
   1787   1799     1
   1788   1792     1
   1788   1790     1
   1788   1791     1
   1788   1796     1
   1788   1797     1
   1788   1799     1
   1789   1796     1
   1789   1797     1
   1789   1799     1
   1790   1798     1
   1790   1793     1
   1790   1794     1
   1790   1795     1
   1791   1798     1
   1791   1793     1
   1791   1794     1
   1791   1795     1
   1800   1807     1
   1800   1808     1
   1801   1806     1
   1801   1804     1
   1801   1805     1
   1801   1810     1
   1801   1811     1
   1801   1813     1
   1802   1806     1
   1802   1804     1
   1802   1805     1
   1802   1810     1
   1802   1811     1
   1802   1813     1
   1803   1810     1
   1803   1811     1
   1803   1813     1
   1804   1809     1
   1804   1812     1
   1804   1807     1
   1804   1808     1
   1805   1809     1
   1805   1812     1
   1805   1807     1
   1805   1808     1
   1814   1821     1
   1814   1822     1
   1815   1820     1
   1815   1818     1
   1815   1819     1
   1815   1824     1
   1815   1825     1
   1815   1827     1
   1816   1820     1
   1816   1818     1
   1816   1819     1
   1816   1824     1
   1816   1825     1
   1816   1827     1
   1817   1824     1
   1817   1825     1
   1817   1827     1
   1818   1826     1
   1818   1821     1
   1818   1822     1
   1818   1823     1
   1819   1826     1
   1819   1821     1
   1819   1822     1
   1819   1823     1
   1828   1835     1
   1828   1836     1
   1829   1834     1
   1829   1832     1
   1829   1833     1
   1829   1838     1
   1829   1839     1
   1829   1841     1
   1830   1834     1
   1830   1832     1
   1830   1833     1
   1830   1838     1
   1830   1839     1
   1830   1841     1
   1831   1838     1
   1831   1839     1
   1831   1841     1
   1832   1837     1
   1832   1840     1
   1832   1835     1
   1832   1836     1
   1833   1837     1
   1833   1840     1
   1833   1835     1
   1833   1836     1
   1842   1849     1
   1842   1850     1
   1843   1848     1
   1843   1846     1
   1843   1847     1
   1843   1852     1
   1843   1853     1
   1843   1855     1
   1844   1848     1
   1844   1846     1
   1844   1847     1
   1844   1852     1
   1844   1853     1
   1844   1855     1
   1845   1852     1
   1845   1853     1
   1845   1855     1
   1846   1854     1
   1846   1849     1
   1846   1850     1
   1846   1851     1
   1847   1854     1
   1847   1849     1
   1847   1850     1
   1847   1851     1
   1856   1863     1
   1856   1864     1
   1857   1862     1
   1857   1860     1
   1857   1861     1
   1857   1866     1
   1857   1867     1
   1857   1869     1
   1858   1862     1
   1858   1860     1
   1858   1861     1
   1858   1866     1
   1858   1867     1
   1858   1869     1
   1859   1866     1
   1859   1867     1
   1859   1869     1
   1860   1865     1
   1860   1868     1
   1860   1863     1
   1860   1864     1
   1861   1865     1
   1861   1868     1
   1861   1863     1
   1861   1864     1
   1870   1877     1
   1870   1878     1
   1871   1876     1
   1871   1874     1
   1871   1875     1
   1871   1880     1
   1871   1881     1
   1871   1883     1
   1872   1876     1
   1872   1874     1
   1872   1875     1
   1872   1880     1
   1872   1881     1
   1872   1883     1
   1873   1880     1
   1873   1881     1
   1873   1883     1
   1874   1882     1
   1874   1877     1
   1874   1878     1
   1874   1879     1
   1875   1882     1
   1875   1877     1
   1875   1878     1
   1875   1879     1
   1884   1891     1
   1884   1892     1
   1885   1890     1
   1885   1888     1
   1885   1889     1
   1885   1894     1
   1885   1895     1
   1885   1897     1
   1886   1890     1
   1886   1888     1
   1886   1889     1
   1886   1894     1
   1886   1895     1
   1886   1897     1
   1887   1894     1
   1887   1895     1
   1887   1897     1
   1888   1893     1
   1888   1896     1
   1888   1891     1
   1888   1892     1
   1889   1893     1
   1889   1896     1
   1889   1891     1
   1889   1892     1
   1898   1905     1
   1898   1906     1
   1899   1904     1
   1899   1902     1
   1899   1903     1
   1899   1908     1
   1899   1909     1
   1899   1911     1
   1900   1904     1
   1900   1902     1
   1900   1903     1
   1900   1908     1
   1900   1909     1
   1900   1911     1
   1901   1908     1
   1901   1909     1
   1901   1911     1
   1902   1910     1
   1902   1905     1
   1902   1906     1
   1902   1907     1
   1903   1910     1
   1903   1905     1
   1903   1906     1
   1903   1907     1
   1912   1919     1
   1912   1920     1
   1913   1918     1
   1913   1916     1
   1913   1917     1
   1913   1922     1
   1913   1923     1
   1913   1925     1
   1914   1918     1
   1914   1916     1
   1914   1917     1
   1914   1922     1
   1914   1923     1
   1914   1925     1
   1915   1922     1
   1915   1923     1
   1915   1925     1
   1916   1921     1
   1916   1924     1
   1916   1919     1
   1916   1920     1
   1917   1921     1
   1917   1924     1
   1917   1919     1
   1917   1920     1
   1926   1933     1
   1926   1934     1
   1927   1932     1
   1927   1930     1
   1927   1931     1
   1927   1936     1
   1927   1937     1
   1927   1939     1
   1928   1932     1
   1928   1930     1
   1928   1931     1
   1928   1936     1
   1928   1937     1
   1928   1939     1
   1929   1936     1
   1929   1937     1
   1929   1939     1
   1930   1938     1
   1930   1933     1
   1930   1934     1
   1930   1935     1
   1931   1938     1
   1931   1933     1
   1931   1934     1
   1931   1935     1
   1940   1947     1
   1940   1948     1
   1941   1946     1
   1941   1944     1
   1941   1945     1
   1941   1950     1
   1941   1951     1
   1941   1953     1
   1942   1946     1
   1942   1944     1
   1942   1945     1
   1942   1950     1
   1942   1951     1
   1942   1953     1
   1943   1950     1
   1943   1951     1
   1943   1953     1
   1944   1949     1
   1944   1952     1
   1944   1947     1
   1944   1948     1
   1945   1949     1
   1945   1952     1
   1945   1947     1
   1945   1948     1
   1954   1961     1
   1954   1962     1
   1955   1960     1
   1955   1958     1
   1955   1959     1
   1955   1964     1
   1955   1965     1
   1955   1967     1
   1956   1960     1
   1956   1958     1
   1956   1959     1
   1956   1964     1
   1956   1965     1
   1956   1967     1
   1957   1964     1
   1957   1965     1
   1957   1967     1
   1958   1966     1
   1958   1961     1
   1958   1962     1
   1958   1963     1
   1959   1966     1
   1959   1961     1
   1959   1962     1
   1959   1963     1
   1968   1975     1
   1968   1976     1
   1969   1974     1
   1969   1972     1
   1969   1973     1
   1969   1978     1
   1969   1979     1
   1969   1981     1
   1970   1974     1
   1970   1972     1
   1970   1973     1
   1970   1978     1
   1970   1979     1
   1970   1981     1
   1971   1978     1
   1971   1979     1
   1971   1981     1
   1972   1977     1
   1972   1980     1
   1972   1975     1
   1972   1976     1
   1973   1977     1
   1973   1980     1
   1973   1975     1
   1973   1976     1
   1982   1989     1
   1982   1990     1
   1983   1988     1
   1983   1986     1
   1983   1987     1
   1983   1992     1
   1983   1993     1
   1983   1995     1
   1984   1988     1
   1984   1986     1
   1984   1987     1
   1984   1992     1
   1984   1993     1
   1984   1995     1
   1985   1992     1
   1985   1993     1
   1985   1995     1
   1986   1994     1
   1986   1989     1
   1986   1990     1
   1986   1991     1
   1987   1994     1
   1987   1989     1
   1987   1990     1
   1987   1991     1
   1996   2003     1
   1996   2004     1
   1997   2002     1
   1997   2000     1
   1997   2001     1
   1997   2006     1
   1997   2007     1
   1997   2009     1
   1998   2002     1
   1998   2000     1
   1998   2001     1
   1998   2006     1
   1998   2007     1
   1998   2009     1
   1999   2006     1
   1999   2007     1
   1999   2009     1
   2000   2005     1
   2000   2008     1
   2000   2003     1
   2000   2004     1
   2001   2005     1
   2001   2008     1
   2001   2003     1
   2001   2004     1
   2010   2017     1
   2010   2018     1
   2011   2016     1
   2011   2014     1
   2011   2015     1
   2011   2020     1
   2011   2021     1
   2011   2023     1
   2012   2016     1
   2012   2014     1
   2012   2015     1
   2012   2020     1
   2012   2021     1
   2012   2023     1
   2013   2020     1
   2013   2021     1
   2013   2023     1
   2014   2022     1
   2014   2017     1
   2014   2018     1
   2014   2019     1
   2015   2022     1
   2015   2017     1
   2015   2018     1
   2015   2019     1
   2024   2031     1
   2024   2032     1
   2025   2030     1
   2025   2028     1
   2025   2029     1
   2025   2034     1
   2025   2035     1
   2025   2037     1
   2026   2030     1
   2026   2028     1
   2026   2029     1
   2026   2034     1
   2026   2035     1
   2026   2037     1
   2027   2034     1
   2027   2035     1
   2027   2037     1
   2028   2033     1
   2028   2036     1
   2028   2031     1
   2028   2032     1
   2029   2033     1
   2029   2036     1
   2029   2031     1
   2029   2032     1
   2038   2045     1
   2038   2046     1
   2039   2044     1
   2039   2042     1
   2039   2043     1
   2039   2048     1
   2039   2049     1
   2039   2051     1
   2040   2044     1
   2040   2042     1
   2040   2043     1
   2040   2048     1
   2040   2049     1
   2040   2051     1
   2041   2048     1
   2041   2049     1
   2041   2051     1
   2042   2050     1
   2042   2045     1
   2042   2046     1
   2042   2047     1
   2043   2050     1
   2043   2045     1
   2043   2046     1
   2043   2047     1

[ angles ]
;    ai     aj     ak funct         c0         c1         c2         c3
      1      2     14     1   114.2100488 537.225600
      1      5     17     1   114.2100488 537.225600
      1      8     11     1   114.2100488 537.225600
      2      1      5     1   109.6600471 523.836800
      2      1      8     1   109.6600471 523.836800
      2     14     26     1   111.5100476 526.347200
      5      1      8     1   109.6600471 523.836800
      5     17     20     1   111.5100476 526.347200
      8     11     23     1   111.5100476 526.347200
     11     23     88     1   107.9700462 569.024000
     14     26    118     1   107.9700462 569.024000
     17     20     58     1   107.9700462 569.024000
     20     58     49     1   112.4800480 524.673600
     23     88     79     1   112.4800480 524.673600
     26    118    109     1   112.4800480 524.673600
     30     31     43     1   114.2100488 537.225600
     30     34     46     1   114.2100488 537.225600
     30     37     40     1   114.2100488 537.225600
     31     30     34     1   109.6600471 523.836800
     31     30     37     1   109.6600471 523.836800
     31     43     55     1   111.5100476 526.347200
     34     30     37     1   109.6600471 523.836800
     34     46     52     1   111.5100476 526.347200
     37     40     49     1   111.5100476 526.347200
     40     49     58     1   107.9700462 569.024000
     43     55    178     1   107.9700462 569.024000
     46     52    148     1   107.9700462 569.024000
     52    148    139     1   112.4800480 524.673600
     55    178    169     1   112.4800480 524.673600
     60     61     73     1   114.2100488 537.225600
     60     64     76     1   114.2100488 537.225600
     60     67     70     1   114.2100488 537.225600
     61     60     64     1   109.6600471 523.836800
     61     60     67     1   109.6600471 523.836800
     61     73     85     1   111.5100476 526.347200
     64     60     67     1   109.6600471 523.836800
     64     76     82     1   111.5100476 526.347200
     67     70     79     1   111.5100476 526.347200
     70     79     88     1   107.9700462 569.024000
     73     85    238     1   107.9700462 569.024000
     76     82    208     1   107.9700462 569.024000
     82    208    199     1   112.4800480 524.673600
     85    238    229     1   112.4800480 524.673600
     90     91    103     1   114.2100488 537.225600
     90     94    106     1   114.2100488 537.225600
     90     97    100     1   114.2100488 537.225600
     91     90     94     1   109.6600471 523.836800
     91     90     97     1   109.6600471 523.836800
     91    103    115     1   111.5100476 526.347200
     94     90     97     1   109.6600471 523.836800
     94    106    112     1   111.5100476 526.347200
     97    100    109     1   111.5100476 526.347200
    100    109    118     1   107.9700462 569.024000
    103    115    298     1   107.9700462 569.024000
    106    112    268     1   107.9700462 569.024000
    112    268    259     1   112.4800480 524.673600
    115    298    289     1   112.4800480 524.673600
    120    121    133     1   114.2100488 537.225600
    120    124    136     1   114.2100488 537.225600
    120    127    130     1   114.2100488 537.225600
    121    120    124     1   109.6600471 523.836800
    121    120    127     1   109.6600471 523.836800
    121    133    145     1   111.5100476 526.347200
    124    120    127     1   109.6600471 523.836800
    124    136    142     1   111.5100476 526.347200
    127    130    139     1   111.5100476 526.347200
    130    139    148     1   107.9700462 569.024000
    133    145    358     1   107.9700462 569.024000
    136    142    328     1   107.9700462 569.024000
    142    328    319     1   112.4800480 524.673600
    145    358    349     1   112.4800480 524.673600
    150    151    163     1   114.2100488 537.225600
    150    154    166     1   114.2100488 537.225600
    150    157    160     1   114.2100488 537.225600
    151    150    154     1   109.6600471 523.836800
    151    150    157     1   109.6600471 523.836800
    151    163    175     1   111.5100476 526.347200
    154    150    157     1   109.6600471 523.836800
    154    166    172     1   111.5100476 526.347200
    157    160    169     1   111.5100476 526.347200
    160    169    178     1   107.9700462 569.024000
    163    175    418     1   107.9700462 569.024000
    166    172    388     1   107.9700462 569.024000
    172    388    379     1   112.4800480 524.673600
    175    418    409     1   112.4800480 524.673600
    180    181    193     1   114.2100488 537.225600
    180    184    196     1   114.2100488 537.225600
    180    187    190     1   114.2100488 537.225600
    181    180    184     1   109.6600471 523.836800
    181    180    187     1   109.6600471 523.836800
    181    193    205     1   111.5100476 526.347200
    184    180    187     1   109.6600471 523.836800
    184    196    202     1   111.5100476 526.347200
    187    190    199     1   111.5100476 526.347200
    190    199    208     1   107.9700462 569.024000
    193    205    478     1   107.9700462 569.024000
    196    202    448     1   107.9700462 569.024000
    202    448    439     1   112.4800480 524.673600
    205    478    469     1   112.4800480 524.673600
    210    211    223     1   114.2100488 537.225600
    210    214    226     1   114.2100488 537.225600
    210    217    220     1   114.2100488 537.225600
    211    210    214     1   109.6600471 523.836800
    211    210    217     1   109.6600471 523.836800
    211    223    235     1   111.5100476 526.347200
    214    210    217     1   109.6600471 523.836800
    214    226    232     1   111.5100476 526.347200
    217    220    229     1   111.5100476 526.347200
    220    229    238     1   107.9700462 569.024000
    223    235    538     1   107.9700462 569.024000
    226    232    508     1   107.9700462 569.024000
    232    508    499     1   112.4800480 524.673600
    235    538    529     1   112.4800480 524.673600
    240    241    253     1   114.2100488 537.225600
    240    244    256     1   114.2100488 537.225600
    240    247    250     1   114.2100488 537.225600
    241    240    244     1   109.6600471 523.836800
    241    240    247     1   109.6600471 523.836800
    241    253    265     1   111.5100476 526.347200
    244    240    247     1   109.6600471 523.836800
    244    256    262     1   111.5100476 526.347200
    247    250    259     1   111.5100476 526.347200
    250    259    268     1   107.9700462 569.024000
    253    265    598     1   107.9700462 569.024000
    256    262    568     1   107.9700462 569.024000
    262    568    559     1   112.4800480 524.673600
    265    598    589     1   112.4800480 524.673600
    270    271    283     1   114.2100488 537.225600
    270    274    286     1   114.2100488 537.225600
    270    277    280     1   114.2100488 537.225600
    271    270    274     1   109.6600471 523.836800
    271    270    277     1   109.6600471 523.836800
    271    283    295     1   111.5100476 526.347200
    274    270    277     1   109.6600471 523.836800
    274    286    292     1   111.5100476 526.347200
    277    280    289     1   111.5100476 526.347200
    280    289    298     1   107.9700462 569.024000
    283    295    658     1   107.9700462 569.024000
    286    292    628     1   107.9700462 569.024000
    292    628    619     1   112.4800480 524.673600
    295    658    649     1   112.4800480 524.673600
    300    301    313     1   114.2100488 537.225600
    300    304    316     1   114.2100488 537.225600
    300    307    310     1   114.2100488 537.225600
    301    300    304     1   109.6600471 523.836800
    301    300    307     1   109.6600471 523.836800
    301    313    325     1   111.5100476 526.347200
    304    300    307     1   109.6600471 523.836800
    304    316    322     1   111.5100476 526.347200
    307    310    319     1   111.5100476 526.347200
    310    319    328     1   107.9700462 569.024000
    313    325    718     1   107.9700462 569.024000
    316    322    688     1   107.9700462 569.024000
    322    688    679     1   112.4800480 524.673600
    325    718    709     1   112.4800480 524.673600
    330    331    343     1   114.2100488 537.225600
    330    334    346     1   114.2100488 537.225600
    330    337    340     1   114.2100488 537.225600
    331    330    334     1   109.6600471 523.836800
    331    330    337     1   109.6600471 523.836800
    331    343    355     1   111.5100476 526.347200
    334    330    337     1   109.6600471 523.836800
    334    346    352     1   111.5100476 526.347200
    337    340    349     1   111.5100476 526.347200
    340    349    358     1   107.9700462 569.024000
    343    355    778     1   107.9700462 569.024000
    346    352    748     1   107.9700462 569.024000
    352    748    739     1   112.4800480 524.673600
    355    778    769     1   112.4800480 524.673600
    360    361    373     1   114.2100488 537.225600
    360    364    376     1   114.2100488 537.225600
    360    367    370     1   114.2100488 537.225600
    361    360    364     1   109.6600471 523.836800
    361    360    367     1   109.6600471 523.836800
    361    373    385     1   111.5100476 526.347200
    364    360    367     1   109.6600471 523.836800
    364    376    382     1   111.5100476 526.347200
    367    370    379     1   111.5100476 526.347200
    370    379    388     1   107.9700462 569.024000
    373    385    838     1   107.9700462 569.024000
    376    382    808     1   107.9700462 569.024000
    382    808    799     1   112.4800480 524.673600
    385    838    829     1   112.4800480 524.673600
    390    391    403     1   114.2100488 537.225600
    390    394    406     1   114.2100488 537.225600
    390    397    400     1   114.2100488 537.225600
    391    390    394     1   109.6600471 523.836800
    391    390    397     1   109.6600471 523.836800
    391    403    415     1   111.5100476 526.347200
    394    390    397     1   109.6600471 523.836800
    394    406    412     1   111.5100476 526.347200
    397    400    409     1   111.5100476 526.347200
    400    409    418     1   107.9700462 569.024000
    403    415    898     1   107.9700462 569.024000
    406    412    868     1   107.9700462 569.024000
    412    868    859     1   112.4800480 524.673600
    415    898    889     1   112.4800480 524.673600
    420    421    433     1   114.2100488 537.225600
    420    424    436     1   114.2100488 537.225600
    420    427    430     1   114.2100488 537.225600
    421    420    424     1   109.6600471 523.836800
    421    420    427     1   109.6600471 523.836800
    421    433    445     1   111.5100476 526.347200
    424    420    427     1   109.6600471 523.836800
    424    436    442     1   111.5100476 526.347200
    427    430    439     1   111.5100476 526.347200
    430    439    448     1   107.9700462 569.024000
    433    445    958     1   107.9700462 569.024000
    436    442    928     1   107.9700462 569.024000
    442    928    919     1   112.4800480 524.673600
    445    958    949     1   112.4800480 524.673600
    450    451    463     1   114.2100488 537.225600
    450    454    466     1   114.2100488 537.225600
    450    457    460     1   114.2100488 537.225600
    451    450    454     1   109.6600471 523.836800
    451    450    457     1   109.6600471 523.836800
    451    463    475     1   111.5100476 526.347200
    454    450    457     1   109.6600471 523.836800
    454    466    472     1   111.5100476 526.347200
    457    460    469     1   111.5100476 526.347200
    460    469    478     1   107.9700462 569.024000
    463    475   1018     1   107.9700462 569.024000
    466    472    988     1   107.9700462 569.024000
    472    988    979     1   112.4800480 524.673600
    475   1018   1009     1   112.4800480 524.673600
    480    481    493     1   114.2100488 537.225600
    480    484    496     1   114.2100488 537.225600
    480    487    490     1   114.2100488 537.225600
    481    480    484     1   109.6600471 523.836800
    481    480    487     1   109.6600471 523.836800
    481    493    505     1   111.5100476 526.347200
    484    480    487     1   109.6600471 523.836800
    484    496    502     1   111.5100476 526.347200
    487    490    499     1   111.5100476 526.347200
    490    499    508     1   107.9700462 569.024000
    493    505   1078     1   107.9700462 569.024000
    496    502   1048     1   107.9700462 569.024000
    502   1048   1039     1   112.4800480 524.673600
    505   1078   1069     1   112.4800480 524.673600
    510    511    523     1   114.2100488 537.225600
    510    514    526     1   114.2100488 537.225600
    510    517    520     1   114.2100488 537.225600
    511    510    514     1   109.6600471 523.836800
    511    510    517     1   109.6600471 523.836800
    511    523    535     1   111.5100476 526.347200
    514    510    517     1   109.6600471 523.836800
    514    526    532     1   111.5100476 526.347200
    517    520    529     1   111.5100476 526.347200
    520    529    538     1   107.9700462 569.024000
    523    535   1138     1   107.9700462 569.024000
    526    532   1108     1   107.9700462 569.024000
    532   1108   1099     1   112.4800480 524.673600
    535   1138   1129     1   112.4800480 524.673600
    540    541    553     1   114.2100488 537.225600
    540    544    556     1   114.2100488 537.225600
    540    547    550     1   114.2100488 537.225600
    541    540    544     1   109.6600471 523.836800
    541    540    547     1   109.6600471 523.836800
    541    553    565     1   111.5100476 526.347200
    544    540    547     1   109.6600471 523.836800
    544    556    562     1   111.5100476 526.347200
    547    550    559     1   111.5100476 526.347200
    550    559    568     1   107.9700462 569.024000
    553    565   1198     1   107.9700462 569.024000
    556    562   1168     1   107.9700462 569.024000
    562   1168   1159     1   112.4800480 524.673600
    565   1198   1189     1   112.4800480 524.673600
    570    571    583     1   114.2100488 537.225600
    570    574    586     1   114.2100488 537.225600
    570    577    580     1   114.2100488 537.225600
    571    570    574     1   109.6600471 523.836800
    571    570    577     1   109.6600471 523.836800
    571    583    595     1   111.5100476 526.347200
    574    570    577     1   109.6600471 523.836800
    574    586    592     1   111.5100476 526.347200
    577    580    589     1   111.5100476 526.347200
    580    589    598     1   107.9700462 569.024000
    583    595   1258     1   107.9700462 569.024000
    586    592   1228     1   107.9700462 569.024000
    592   1228   1219     1   112.4800480 524.673600
    595   1258   1249     1   112.4800480 524.673600
    600    601    613     1   114.2100488 537.225600
    600    604    616     1   114.2100488 537.225600
    600    607    610     1   114.2100488 537.225600
    601    600    604     1   109.6600471 523.836800
    601    600    607     1   109.6600471 523.836800
    601    613    625     1   111.5100476 526.347200
    604    600    607     1   109.6600471 523.836800
    604    616    622     1   111.5100476 526.347200
    607    610    619     1   111.5100476 526.347200
    610    619    628     1   107.9700462 569.024000
    613    625   1318     1   107.9700462 569.024000
    616    622   1288     1   107.9700462 569.024000
    622   1288   1279     1   112.4800480 524.673600
    625   1318   1309     1   112.4800480 524.673600
    630    631    643     1   114.2100488 537.225600
    630    634    646     1   114.2100488 537.225600
    630    637    640     1   114.2100488 537.225600
    631    630    634     1   109.6600471 523.836800
    631    630    637     1   109.6600471 523.836800
    631    643    655     1   111.5100476 526.347200
    634    630    637     1   109.6600471 523.836800
    634    646    652     1   111.5100476 526.347200
    637    640    649     1   111.5100476 526.347200
    640    649    658     1   107.9700462 569.024000
    643    655   1378     1   107.9700462 569.024000
    646    652   1348     1   107.9700462 569.024000
    652   1348   1339     1   112.4800480 524.673600
    655   1378   1369     1   112.4800480 524.673600
    660    661    673     1   114.2100488 537.225600
    660    664    676     1   114.2100488 537.225600
    660    667    670     1   114.2100488 537.225600
    661    660    664     1   109.6600471 523.836800
    661    660    667     1   109.6600471 523.836800
    661    673    685     1   111.5100476 526.347200
    664    660    667     1   109.6600471 523.836800
    664    676    682     1   111.5100476 526.347200
    667    670    679     1   111.5100476 526.347200
    670    679    688     1   107.9700462 569.024000
    673    685   1406     1   107.9700462 569.024000
    676    682   1392     1   107.9700462 569.024000
    682   1392   1386     1   112.4800480 524.673600
    685   1406   1400     1   112.4800480 524.673600
    690    691    703     1   114.2100488 537.225600
    690    694    706     1   114.2100488 537.225600
    690    697    700     1   114.2100488 537.225600
    691    690    694     1   109.6600471 523.836800
    691    690    697     1   109.6600471 523.836800
    691    703    715     1   111.5100476 526.347200
    694    690    697     1   109.6600471 523.836800
    694    706    712     1   111.5100476 526.347200
    697    700    709     1   111.5100476 526.347200
    700    709    718     1   107.9700462 569.024000
    703    715   1434     1   107.9700462 569.024000
    706    712   1420     1   107.9700462 569.024000
    712   1420   1414     1   112.4800480 524.673600
    715   1434   1428     1   112.4800480 524.673600
    720    721    733     1   114.2100488 537.225600
    720    724    736     1   114.2100488 537.225600
    720    727    730     1   114.2100488 537.225600
    721    720    724     1   109.6600471 523.836800
    721    720    727     1   109.6600471 523.836800
    721    733    745     1   111.5100476 526.347200
    724    720    727     1   109.6600471 523.836800
    724    736    742     1   111.5100476 526.347200
    727    730    739     1   111.5100476 526.347200
    730    739    748     1   107.9700462 569.024000
    733    745   1462     1   107.9700462 569.024000
    736    742   1448     1   107.9700462 569.024000
    742   1448   1442     1   112.4800480 524.673600
    745   1462   1456     1   112.4800480 524.673600
    750    751    763     1   114.2100488 537.225600
    750    754    766     1   114.2100488 537.225600
    750    757    760     1   114.2100488 537.225600
    751    750    754     1   109.6600471 523.836800
    751    750    757     1   109.6600471 523.836800
    751    763    775     1   111.5100476 526.347200
    754    750    757     1   109.6600471 523.836800
    754    766    772     1   111.5100476 526.347200
    757    760    769     1   111.5100476 526.347200
    760    769    778     1   107.9700462 569.024000
    763    775   1490     1   107.9700462 569.024000
    766    772   1476     1   107.9700462 569.024000
    772   1476   1470     1   112.4800480 524.673600
    775   1490   1484     1   112.4800480 524.673600
    780    781    793     1   114.2100488 537.225600
    780    784    796     1   114.2100488 537.225600
    780    787    790     1   114.2100488 537.225600
    781    780    784     1   109.6600471 523.836800
    781    780    787     1   109.6600471 523.836800
    781    793    805     1   111.5100476 526.347200
    784    780    787     1   109.6600471 523.836800
    784    796    802     1   111.5100476 526.347200
    787    790    799     1   111.5100476 526.347200
    790    799    808     1   107.9700462 569.024000
    793    805   1518     1   107.9700462 569.024000
    796    802   1504     1   107.9700462 569.024000
    802   1504   1498     1   112.4800480 524.673600
    805   1518   1512     1   112.4800480 524.673600
    810    811    823     1   114.2100488 537.225600
    810    814    826     1   114.2100488 537.225600
    810    817    820     1   114.2100488 537.225600
    811    810    814     1   109.6600471 523.836800
    811    810    817     1   109.6600471 523.836800
    811    823    835     1   111.5100476 526.347200
    814    810    817     1   109.6600471 523.836800
    814    826    832     1   111.5100476 526.347200
    817    820    829     1   111.5100476 526.347200
    820    829    838     1   107.9700462 569.024000
    823    835   1546     1   107.9700462 569.024000
    826    832   1532     1   107.9700462 569.024000
    832   1532   1526     1   112.4800480 524.673600
    835   1546   1540     1   112.4800480 524.673600
    840    841    853     1   114.2100488 537.225600
    840    844    856     1   114.2100488 537.225600
    840    847    850     1   114.2100488 537.225600
    841    840    844     1   109.6600471 523.836800
    841    840    847     1   109.6600471 523.836800
    841    853    865     1   111.5100476 526.347200
    844    840    847     1   109.6600471 523.836800
    844    856    862     1   111.5100476 526.347200
    847    850    859     1   111.5100476 526.347200
    850    859    868     1   107.9700462 569.024000
    853    865   1574     1   107.9700462 569.024000
    856    862   1560     1   107.9700462 569.024000
    862   1560   1554     1   112.4800480 524.673600
    865   1574   1568     1   112.4800480 524.673600
    870    871    883     1   114.2100488 537.225600
    870    874    886     1   114.2100488 537.225600
    870    877    880     1   114.2100488 537.225600
    871    870    874     1   109.6600471 523.836800
    871    870    877     1   109.6600471 523.836800
    871    883    895     1   111.5100476 526.347200
    874    870    877     1   109.6600471 523.836800
    874    886    892     1   111.5100476 526.347200
    877    880    889     1   111.5100476 526.347200
    880    889    898     1   107.9700462 569.024000
    883    895   1602     1   107.9700462 569.024000
    886    892   1588     1   107.9700462 569.024000
    892   1588   1582     1   112.4800480 524.673600
    895   1602   1596     1   112.4800480 524.673600
    900    901    913     1   114.2100488 537.225600
    900    904    916     1   114.2100488 537.225600
    900    907    910     1   114.2100488 537.225600
    901    900    904     1   109.6600471 523.836800
    901    900    907     1   109.6600471 523.836800
    901    913    925     1   111.5100476 526.347200
    904    900    907     1   109.6600471 523.836800
    904    916    922     1   111.5100476 526.347200
    907    910    919     1   111.5100476 526.347200
    910    919    928     1   107.9700462 569.024000
    913    925   1630     1   107.9700462 569.024000
    916    922   1616     1   107.9700462 569.024000
    922   1616   1610     1   112.4800480 524.673600
    925   1630   1624     1   112.4800480 524.673600
    930    931    943     1   114.2100488 537.225600
    930    934    946     1   114.2100488 537.225600
    930    937    940     1   114.2100488 537.225600
    931    930    934     1   109.6600471 523.836800
    931    930    937     1   109.6600471 523.836800
    931    943    955     1   111.5100476 526.347200
    934    930    937     1   109.6600471 523.836800
    934    946    952     1   111.5100476 526.347200
    937    940    949     1   111.5100476 526.347200
    940    949    958     1   107.9700462 569.024000
    943    955   1658     1   107.9700462 569.024000
    946    952   1644     1   107.9700462 569.024000
    952   1644   1638     1   112.4800480 524.673600
    955   1658   1652     1   112.4800480 524.673600
    960    961    973     1   114.2100488 537.225600
    960    964    976     1   114.2100488 537.225600
    960    967    970     1   114.2100488 537.225600
    961    960    964     1   109.6600471 523.836800
    961    960    967     1   109.6600471 523.836800
    961    973    985     1   111.5100476 526.347200
    964    960    967     1   109.6600471 523.836800
    964    976    982     1   111.5100476 526.347200
    967    970    979     1   111.5100476 526.347200
    970    979    988     1   107.9700462 569.024000
    973    985   1686     1   107.9700462 569.024000
    976    982   1672     1   107.9700462 569.024000
    982   1672   1666     1   112.4800480 524.673600
    985   1686   1680     1   112.4800480 524.673600
    990    991   1003     1   114.2100488 537.225600
    990    994   1006     1   114.2100488 537.225600
    990    997   1000     1   114.2100488 537.225600
    991    990    994     1   109.6600471 523.836800
    991    990    997     1   109.6600471 523.836800
    991   1003   1015     1   111.5100476 526.347200
    994    990    997     1   109.6600471 523.836800
    994   1006   1012     1   111.5100476 526.347200
    997   1000   1009     1   111.5100476 526.347200
   1000   1009   1018     1   107.9700462 569.024000
   1003   1015   1714     1   107.9700462 569.024000
   1006   1012   1700     1   107.9700462 569.024000
   1012   1700   1694     1   112.4800480 524.673600
   1015   1714   1708     1   112.4800480 524.673600
   1020   1021   1033     1   114.2100488 537.225600
   1020   1024   1036     1   114.2100488 537.225600
   1020   1027   1030     1   114.2100488 537.225600
   1021   1020   1024     1   109.6600471 523.836800
   1021   1020   1027     1   109.6600471 523.836800
   1021   1033   1045     1   111.5100476 526.347200
   1024   1020   1027     1   109.6600471 523.836800
   1024   1036   1042     1   111.5100476 526.347200
   1027   1030   1039     1   111.5100476 526.347200
   1030   1039   1048     1   107.9700462 569.024000
   1033   1045   1742     1   107.9700462 569.024000
   1036   1042   1728     1   107.9700462 569.024000
   1042   1728   1722     1   112.4800480 524.673600
   1045   1742   1736     1   112.4800480 524.673600
   1050   1051   1063     1   114.2100488 537.225600
   1050   1054   1066     1   114.2100488 537.225600
   1050   1057   1060     1   114.2100488 537.225600
   1051   1050   1054     1   109.6600471 523.836800
   1051   1050   1057     1   109.6600471 523.836800
   1051   1063   1075     1   111.5100476 526.347200
   1054   1050   1057     1   109.6600471 523.836800
   1054   1066   1072     1   111.5100476 526.347200
   1057   1060   1069     1   111.5100476 526.347200
   1060   1069   1078     1   107.9700462 569.024000
   1063   1075   1770     1   107.9700462 569.024000
   1066   1072   1756     1   107.9700462 569.024000
   1072   1756   1750     1   112.4800480 524.673600
   1075   1770   1764     1   112.4800480 524.673600
   1080   1081   1093     1   114.2100488 537.225600
   1080   1084   1096     1   114.2100488 537.225600
   1080   1087   1090     1   114.2100488 537.225600
   1081   1080   1084     1   109.6600471 523.836800
   1081   1080   1087     1   109.6600471 523.836800
   1081   1093   1105     1   111.5100476 526.347200
   1084   1080   1087     1   109.6600471 523.836800
   1084   1096   1102     1   111.5100476 526.347200
   1087   1090   1099     1   111.5100476 526.347200
   1090   1099   1108     1   107.9700462 569.024000
   1093   1105   1798     1   107.9700462 569.024000
   1096   1102   1784     1   107.9700462 569.024000
   1102   1784   1778     1   112.4800480 524.673600
   1105   1798   1792     1   112.4800480 524.673600
   1110   1111   1123     1   114.2100488 537.225600
   1110   1114   1126     1   114.2100488 537.225600
   1110   1117   1120     1   114.2100488 537.225600
   1111   1110   1114     1   109.6600471 523.836800
   1111   1110   1117     1   109.6600471 523.836800
   1111   1123   1135     1   111.5100476 526.347200
   1114   1110   1117     1   109.6600471 523.836800
   1114   1126   1132     1   111.5100476 526.347200
   1117   1120   1129     1   111.5100476 526.347200
   1120   1129   1138     1   107.9700462 569.024000
   1123   1135   1826     1   107.9700462 569.024000
   1126   1132   1812     1   107.9700462 569.024000
   1132   1812   1806     1   112.4800480 524.673600
   1135   1826   1820     1   112.4800480 524.673600
   1140   1141   1153     1   114.2100488 537.225600
   1140   1144   1156     1   114.2100488 537.225600
   1140   1147   1150     1   114.2100488 537.225600
   1141   1140   1144     1   109.6600471 523.836800
   1141   1140   1147     1   109.6600471 523.836800
   1141   1153   1165     1   111.5100476 526.347200
   1144   1140   1147     1   109.6600471 523.836800
   1144   1156   1162     1   111.5100476 526.347200
   1147   1150   1159     1   111.5100476 526.347200
   1150   1159   1168     1   107.9700462 569.024000
   1153   1165   1854     1   107.9700462 569.024000
   1156   1162   1840     1   107.9700462 569.024000
   1162   1840   1834     1   112.4800480 524.673600
   1165   1854   1848     1   112.4800480 524.673600
   1170   1171   1183     1   114.2100488 537.225600
   1170   1174   1186     1   114.2100488 537.225600
   1170   1177   1180     1   114.2100488 537.225600
   1171   1170   1174     1   109.6600471 523.836800
   1171   1170   1177     1   109.6600471 523.836800
   1171   1183   1195     1   111.5100476 526.347200
   1174   1170   1177     1   109.6600471 523.836800
   1174   1186   1192     1   111.5100476 526.347200
   1177   1180   1189     1   111.5100476 526.347200
   1180   1189   1198     1   107.9700462 569.024000
   1183   1195   1882     1   107.9700462 569.024000
   1186   1192   1868     1   107.9700462 569.024000
   1192   1868   1862     1   112.4800480 524.673600
   1195   1882   1876     1   112.4800480 524.673600
   1200   1201   1213     1   114.2100488 537.225600
   1200   1204   1216     1   114.2100488 537.225600
   1200   1207   1210     1   114.2100488 537.225600
   1201   1200   1204     1   109.6600471 523.836800
   1201   1200   1207     1   109.6600471 523.836800
   1201   1213   1225     1   111.5100476 526.347200
   1204   1200   1207     1   109.6600471 523.836800
   1204   1216   1222     1   111.5100476 526.347200
   1207   1210   1219     1   111.5100476 526.347200
   1210   1219   1228     1   107.9700462 569.024000
   1213   1225   1910     1   107.9700462 569.024000
   1216   1222   1896     1   107.9700462 569.024000
   1222   1896   1890     1   112.4800480 524.673600
   1225   1910   1904     1   112.4800480 524.673600
   1230   1231   1243     1   114.2100488 537.225600
   1230   1234   1246     1   114.2100488 537.225600
   1230   1237   1240     1   114.2100488 537.225600
   1231   1230   1234     1   109.6600471 523.836800
   1231   1230   1237     1   109.6600471 523.836800
   1231   1243   1255     1   111.5100476 526.347200
   1234   1230   1237     1   109.6600471 523.836800
   1234   1246   1252     1   111.5100476 526.347200
   1237   1240   1249     1   111.5100476 526.347200
   1240   1249   1258     1   107.9700462 569.024000
   1243   1255   1938     1   107.9700462 569.024000
   1246   1252   1924     1   107.9700462 569.024000
   1252   1924   1918     1   112.4800480 524.673600
   1255   1938   1932     1   112.4800480 524.673600
   1260   1261   1273     1   114.2100488 537.225600
   1260   1264   1276     1   114.2100488 537.225600
   1260   1267   1270     1   114.2100488 537.225600
   1261   1260   1264     1   109.6600471 523.836800
   1261   1260   1267     1   109.6600471 523.836800
   1261   1273   1285     1   111.5100476 526.347200
   1264   1260   1267     1   109.6600471 523.836800
   1264   1276   1282     1   111.5100476 526.347200
   1267   1270   1279     1   111.5100476 526.347200
   1270   1279   1288     1   107.9700462 569.024000
   1273   1285   1966     1   107.9700462 569.024000
   1276   1282   1952     1   107.9700462 569.024000
   1282   1952   1946     1   112.4800480 524.673600
   1285   1966   1960     1   112.4800480 524.673600
   1290   1291   1303     1   114.2100488 537.225600
   1290   1294   1306     1   114.2100488 537.225600
   1290   1297   1300     1   114.2100488 537.225600
   1291   1290   1294     1   109.6600471 523.836800
   1291   1290   1297     1   109.6600471 523.836800
   1291   1303   1315     1   111.5100476 526.347200
   1294   1290   1297     1   109.6600471 523.836800
   1294   1306   1312     1   111.5100476 526.347200
   1297   1300   1309     1   111.5100476 526.347200
   1300   1309   1318     1   107.9700462 569.024000
   1303   1315   1994     1   107.9700462 569.024000
   1306   1312   1980     1   107.9700462 569.024000
   1312   1980   1974     1   112.4800480 524.673600
   1315   1994   1988     1   112.4800480 524.673600
   1320   1321   1333     1   114.2100488 537.225600
   1320   1324   1336     1   114.2100488 537.225600
   1320   1327   1330     1   114.2100488 537.225600
   1321   1320   1324     1   109.6600471 523.836800
   1321   1320   1327     1   109.6600471 523.836800
   1321   1333   1345     1   111.5100476 526.347200
   1324   1320   1327     1   109.6600471 523.836800
   1324   1336   1342     1   111.5100476 526.347200
   1327   1330   1339     1   111.5100476 526.347200
   1330   1339   1348     1   107.9700462 569.024000
   1333   1345   2022     1   107.9700462 569.024000
   1336   1342   2008     1   107.9700462 569.024000
   1342   2008   2002     1   112.4800480 524.673600
   1345   2022   2016     1   112.4800480 524.673600
   1350   1351   1363     1   114.2100488 537.225600
   1350   1354   1366     1   114.2100488 537.225600
   1350   1357   1360     1   114.2100488 537.225600
   1351   1350   1354     1   109.6600471 523.836800
   1351   1350   1357     1   109.6600471 523.836800
   1351   1363   1375     1   111.5100476 526.347200
   1354   1350   1357     1   109.6600471 523.836800
   1354   1366   1372     1   111.5100476 526.347200
   1357   1360   1369     1   111.5100476 526.347200
   1360   1369   1378     1   107.9700462 569.024000
   1363   1375   2050     1   107.9700462 569.024000
   1366   1372   2036     1   107.9700462 569.024000
   1372   2036   2030     1   112.4800480 524.673600
   1375   2050   2044     1   112.4800480 524.673600
   1380   1383   1386     1   111.5100476 526.347200
   1383   1380   1389     1   114.2100488 537.225600
   1383   1386   1392     1   107.9700462 569.024000
   1394   1397   1400     1   111.5100476 526.347200
   1397   1400   1406     1   107.9700462 569.024000
   1397   1394   1403     1   114.2100488 537.225600
   1408   1411   1414     1   111.5100476 526.347200
   1411   1408   1417     1   114.2100488 537.225600
   1411   1414   1420     1   107.9700462 569.024000
   1422   1425   1428     1   111.5100476 526.347200
   1425   1428   1434     1   107.9700462 569.024000
   1425   1422   1431     1   114.2100488 537.225600
   1436   1439   1442     1   111.5100476 526.347200
   1439   1436   1445     1   114.2100488 537.225600
   1439   1442   1448     1   107.9700462 569.024000
   1450   1453   1456     1   111.5100476 526.347200
   1453   1456   1462     1   107.9700462 569.024000
   1453   1450   1459     1   114.2100488 537.225600
   1464   1467   1470     1   111.5100476 526.347200
   1467   1464   1473     1   114.2100488 537.225600
   1467   1470   1476     1   107.9700462 569.024000
   1478   1481   1484     1   111.5100476 526.347200
   1481   1484   1490     1   107.9700462 569.024000
   1481   1478   1487     1   114.2100488 537.225600
   1492   1495   1498     1   111.5100476 526.347200
   1495   1492   1501     1   114.2100488 537.225600
   1495   1498   1504     1   107.9700462 569.024000
   1506   1509   1512     1   111.5100476 526.347200
   1509   1512   1518     1   107.9700462 569.024000
   1509   1506   1515     1   114.2100488 537.225600
   1520   1523   1526     1   111.5100476 526.347200
   1523   1520   1529     1   114.2100488 537.225600
   1523   1526   1532     1   107.9700462 569.024000
   1534   1537   1540     1   111.5100476 526.347200
   1537   1540   1546     1   107.9700462 569.024000
   1537   1534   1543     1   114.2100488 537.225600
   1548   1551   1554     1   111.5100476 526.347200
   1551   1548   1557     1   114.2100488 537.225600
   1551   1554   1560     1   107.9700462 569.024000
   1562   1565   1568     1   111.5100476 526.347200
   1565   1568   1574     1   107.9700462 569.024000
   1565   1562   1571     1   114.2100488 537.225600
   1576   1579   1582     1   111.5100476 526.347200
   1579   1576   1585     1   114.2100488 537.225600
   1579   1582   1588     1   107.9700462 569.024000
   1590   1593   1596     1   111.5100476 526.347200
   1593   1596   1602     1   107.9700462 569.024000
   1593   1590   1599     1   114.2100488 537.225600
   1604   1607   1610     1   111.5100476 526.347200
   1607   1604   1613     1   114.2100488 537.225600
   1607   1610   1616     1   107.9700462 569.024000
   1618   1621   1624     1   111.5100476 526.347200
   1621   1624   1630     1   107.9700462 569.024000
   1621   1618   1627     1   114.2100488 537.225600
   1632   1635   1638     1   111.5100476 526.347200
   1635   1632   1641     1   114.2100488 537.225600
   1635   1638   1644     1   107.9700462 569.024000
   1646   1649   1652     1   111.5100476 526.347200
   1649   1652   1658     1   107.9700462 569.024000
   1649   1646   1655     1   114.2100488 537.225600
   1660   1663   1666     1   111.5100476 526.347200
   1663   1660   1669     1   114.2100488 537.225600
   1663   1666   1672     1   107.9700462 569.024000
   1674   1677   1680     1   111.5100476 526.347200
   1677   1680   1686     1   107.9700462 569.024000
   1677   1674   1683     1   114.2100488 537.225600
   1688   1691   1694     1   111.5100476 526.347200
   1691   1688   1697     1   114.2100488 537.225600
   1691   1694   1700     1   107.9700462 569.024000
   1702   1705   1708     1   111.5100476 526.347200
   1705   1708   1714     1   107.9700462 569.024000
   1705   1702   1711     1   114.2100488 537.225600
   1716   1719   1722     1   111.5100476 526.347200
   1719   1716   1725     1   114.2100488 537.225600
   1719   1722   1728     1   107.9700462 569.024000
   1730   1733   1736     1   111.5100476 526.347200
   1733   1736   1742     1   107.9700462 569.024000
   1733   1730   1739     1   114.2100488 537.225600
   1744   1747   1750     1   111.5100476 526.347200
   1747   1744   1753     1   114.2100488 537.225600
   1747   1750   1756     1   107.9700462 569.024000
   1758   1761   1764     1   111.5100476 526.347200
   1761   1764   1770     1   107.9700462 569.024000
   1761   1758   1767     1   114.2100488 537.225600
   1772   1775   1778     1   111.5100476 526.347200
   1775   1772   1781     1   114.2100488 537.225600
   1775   1778   1784     1   107.9700462 569.024000
   1786   1789   1792     1   111.5100476 526.347200
   1789   1792   1798     1   107.9700462 569.024000
   1789   1786   1795     1   114.2100488 537.225600
   1800   1803   1806     1   111.5100476 526.347200
   1803   1800   1809     1   114.2100488 537.225600
   1803   1806   1812     1   107.9700462 569.024000
   1814   1817   1820     1   111.5100476 526.347200
   1817   1820   1826     1   107.9700462 569.024000
   1817   1814   1823     1   114.2100488 537.225600
   1828   1831   1834     1   111.5100476 526.347200
   1831   1828   1837     1   114.2100488 537.225600
   1831   1834   1840     1   107.9700462 569.024000
   1842   1845   1848     1   111.5100476 526.347200
   1845   1848   1854     1   107.9700462 569.024000
   1845   1842   1851     1   114.2100488 537.225600
   1856   1859   1862     1   111.5100476 526.347200
   1859   1856   1865     1   114.2100488 537.225600
   1859   1862   1868     1   107.9700462 569.024000
   1870   1873   1876     1   111.5100476 526.347200
   1873   1876   1882     1   107.9700462 569.024000
   1873   1870   1879     1   114.2100488 537.225600
   1884   1887   1890     1   111.5100476 526.347200
   1887   1884   1893     1   114.2100488 537.225600
   1887   1890   1896     1   107.9700462 569.024000
   1898   1901   1904     1   111.5100476 526.347200
   1901   1904   1910     1   107.9700462 569.024000
   1901   1898   1907     1   114.2100488 537.225600
   1912   1915   1918     1   111.5100476 526.347200
   1915   1912   1921     1   114.2100488 537.225600
   1915   1918   1924     1   107.9700462 569.024000
   1926   1929   1932     1   111.5100476 526.347200
   1929   1932   1938     1   107.9700462 569.024000
   1929   1926   1935     1   114.2100488 537.225600
   1940   1943   1946     1   111.5100476 526.347200
   1943   1940   1949     1   114.2100488 537.225600
   1943   1946   1952     1   107.9700462 569.024000
   1954   1957   1960     1   111.5100476 526.347200
   1957   1960   1966     1   107.9700462 569.024000
   1957   1954   1963     1   114.2100488 537.225600
   1968   1971   1974     1   111.5100476 526.347200
   1971   1968   1977     1   114.2100488 537.225600
   1971   1974   1980     1   107.9700462 569.024000
   1982   1985   1988     1   111.5100476 526.347200
   1985   1988   1994     1   107.9700462 569.024000
   1985   1982   1991     1   114.2100488 537.225600
   1996   1999   2002     1   111.5100476 526.347200
   1999   1996   2005     1   114.2100488 537.225600
   1999   2002   2008     1   107.9700462 569.024000
   2010   2013   2016     1   111.5100476 526.347200
   2013   2016   2022     1   107.9700462 569.024000
   2013   2010   2019     1   114.2100488 537.225600
   2024   2027   2030     1   111.5100476 526.347200
   2027   2024   2033     1   114.2100488 537.225600
   2027   2030   2036     1   107.9700462 569.024000
   2038   2041   2044     1   111.5100476 526.347200
   2041   2044   2050     1   107.9700462 569.024000
   2041   2038   2047     1   114.2100488 537.225600
      1      2      3     1   108.0100461 406.684800
      1      2      4     1   108.0100461 406.684800
      1      5      6     1   108.0100461 406.684800
      1      5      7     1   108.0100461 406.684800
      1      8      9     1   108.0100461 406.684800
      1      8     10     1   108.0100461 406.684800
      2      1     29     1   110.1100470 384.091200
      2     14     15     1   109.8000471 387.438400
      2     14     16     1   109.8000471 387.438400
      3      2     14     1   110.5600475 386.601600
      3      2      4     1   109.7500473 328.025600
      4      2     14     1   110.5600475 386.601600
      5      1     29     1   110.1100470 384.091200
      5     17     18     1   109.8000471 387.438400
      5     17     19     1   109.8000471 387.438400
      6      5     17     1   110.5600475 386.601600
      6      5      7     1   109.7500473 328.025600
      7      5     17     1   110.5600475 386.601600
      8      1     29     1   110.1100470 384.091200
      8     11     12     1   109.8000471 387.438400
      8     11     13     1   109.8000471 387.438400
      9      8     11     1   110.5600475 386.601600
      9      8     10     1   109.7500473 328.025600
     10      8     11     1   110.5600475 386.601600
     11     23     24     1   109.5600471 388.275200
     11     23     25     1   109.5600471 388.275200
     12     11     23     1   109.8000471 387.438400
     12     11     13     1   107.5800459 329.699200
     13     11     23     1   109.8000471 387.438400
     14     26     27     1   109.5600471 388.275200
     14     26     28     1   109.5600471 388.275200
     15     14     26     1   109.8000471 387.438400
     15     14     16     1   107.5800459 329.699200
     16     14     26     1   109.8000471 387.438400
     17     20     21     1   109.5600471 388.275200
     17     20     22     1   109.5600471 388.275200
     18     17     20     1   109.8000471 387.438400
     18     17     19     1   107.5800459 329.699200
     19     17     20     1   109.8000471 387.438400
     21     20     58     1   109.7800468 425.094400
     21     20     22     1   108.4600466 328.025600
     22     20     58     1   109.7800468 425.094400
     24     23     88     1   109.7800468 425.094400
     24     23     25     1   108.4600466 328.025600
     25     23     88     1   109.7800468 425.094400
     27     26    118     1   109.7800468 425.094400
     27     26     28     1   108.4600466 328.025600
     28     26    118     1   109.7800468 425.094400
     30     31     32     1   108.0100461 406.684800
     30     31     33     1   108.0100461 406.684800
     30     34     35     1   108.0100461 406.684800
     30     34     36     1   108.0100461 406.684800
     30     37     38     1   108.0100461 406.684800
     30     37     39     1   108.0100461 406.684800
     31     30     59     1   110.1100470 384.091200
     31     43     44     1   109.8000471 387.438400
     31     43     45     1   109.8000471 387.438400
     32     31     43     1   110.5600475 386.601600
     32     31     33     1   109.7500473 328.025600
     33     31     43     1   110.5600475 386.601600
     34     30     59     1   110.1100470 384.091200
     34     46     47     1   109.8000471 387.438400
     34     46     48     1   109.8000471 387.438400
     35     34     46     1   110.5600475 386.601600
     35     34     36     1   109.7500473 328.025600
     36     34     46     1   110.5600475 386.601600
     37     30     59     1   110.1100470 384.091200
     37     40     41     1   109.8000471 387.438400
     37     40     42     1   109.8000471 387.438400
     38     37     40     1   110.5600475 386.601600
     38     37     39     1   109.7500473 328.025600
     39     37     40     1   110.5600475 386.601600
     40     49     50     1   109.5600471 388.275200
     40     49     51     1   109.5600471 388.275200
     41     40     49     1   109.8000471 387.438400
     41     40     42     1   107.5800459 329.699200
     42     40     49     1   109.8000471 387.438400
     43     55     56     1   109.5600471 388.275200
     43     55     57     1   109.5600471 388.275200
     44     43     55     1   109.8000471 387.438400
     44     43     45     1   107.5800459 329.699200
     45     43     55     1   109.8000471 387.438400
     46     52     53     1   109.5600471 388.275200
     46     52     54     1   109.5600471 388.275200
     47     46     52     1   109.8000471 387.438400
     47     46     48     1   107.5800459 329.699200
     48     46     52     1   109.8000471 387.438400
     50     49     58     1   109.7800468 425.094400
     50     49     51     1   108.4600466 328.025600
     51     49     58     1   109.7800468 425.094400
     53     52    148     1   109.7800468 425.094400
     53     52     54     1   108.4600466 328.025600
     54     52    148     1   109.7800468 425.094400
     56     55    178     1   109.7800468 425.094400
     56     55     57     1   108.4600466 328.025600
     57     55    178     1   109.7800468 425.094400
     60     61     62     1   108.0100461 406.684800
     60     61     63     1   108.0100461 406.684800
     60     64     65     1   108.0100461 406.684800
     60     64     66     1   108.0100461 406.684800
     60     67     68     1   108.0100461 406.684800
     60     67     69     1   108.0100461 406.684800
     61     60     89     1   110.1100470 384.091200
     61     73     74     1   109.8000471 387.438400
     61     73     75     1   109.8000471 387.438400
     62     61     73     1   110.5600475 386.601600
     62     61     63     1   109.7500473 328.025600
     63     61     73     1   110.5600475 386.601600
     64     60     89     1   110.1100470 384.091200
     64     76     77     1   109.8000471 387.438400
     64     76     78     1   109.8000471 387.438400
     65     64     76     1   110.5600475 386.601600
     65     64     66     1   109.7500473 328.025600
     66     64     76     1   110.5600475 386.601600
     67     60     89     1   110.1100470 384.091200
     67     70     71     1   109.8000471 387.438400
     67     70     72     1   109.8000471 387.438400
     68     67     70     1   110.5600475 386.601600
     68     67     69     1   109.7500473 328.025600
     69     67     70     1   110.5600475 386.601600
     70     79     80     1   109.5600471 388.275200
     70     79     81     1   109.5600471 388.275200
     71     70     79     1   109.8000471 387.438400
     71     70     72     1   107.5800459 329.699200
     72     70     79     1   109.8000471 387.438400
     73     85     86     1   109.5600471 388.275200
     73     85     87     1   109.5600471 388.275200
     74     73     85     1   109.8000471 387.438400
     74     73     75     1   107.5800459 329.699200
     75     73     85     1   109.8000471 387.438400
     76     82     83     1   109.5600471 388.275200
     76     82     84     1   109.5600471 388.275200
     77     76     82     1   109.8000471 387.438400
     77     76     78     1   107.5800459 329.699200
     78     76     82     1   109.8000471 387.438400
     80     79     88     1   109.7800468 425.094400
     80     79     81     1   108.4600466 328.025600
     81     79     88     1   109.7800468 425.094400
     83     82    208     1   109.7800468 425.094400
     83     82     84     1   108.4600466 328.025600
     84     82    208     1   109.7800468 425.094400
     86     85    238     1   109.7800468 425.094400
     86     85     87     1   108.4600466 328.025600
     87     85    238     1   109.7800468 425.094400
     90     91     92     1   108.0100461 406.684800
     90     91     93     1   108.0100461 406.684800
     90     94     95     1   108.0100461 406.684800
     90     94     96     1   108.0100461 406.684800
     90     97     98     1   108.0100461 406.684800
     90     97     99     1   108.0100461 406.684800
     91     90    119     1   110.1100470 384.091200
     91    103    104     1   109.8000471 387.438400
     91    103    105     1   109.8000471 387.438400
     92     91    103     1   110.5600475 386.601600
     92     91     93     1   109.7500473 328.025600
     93     91    103     1   110.5600475 386.601600
     94     90    119     1   110.1100470 384.091200
     94    106    107     1   109.8000471 387.438400
     94    106    108     1   109.8000471 387.438400
     95     94    106     1   110.5600475 386.601600
     95     94     96     1   109.7500473 328.025600
     96     94    106     1   110.5600475 386.601600
     97     90    119     1   110.1100470 384.091200
     97    100    101     1   109.8000471 387.438400
     97    100    102     1   109.8000471 387.438400
     98     97    100     1   110.5600475 386.601600
     98     97     99     1   109.7500473 328.025600
     99     97    100     1   110.5600475 386.601600
    100    109    110     1   109.5600471 388.275200
    100    109    111     1   109.5600471 388.275200
    101    100    109     1   109.8000471 387.438400
    101    100    102     1   107.5800459 329.699200
    102    100    109     1   109.8000471 387.438400
    103    115    116     1   109.5600471 388.275200
    103    115    117     1   109.5600471 388.275200
    104    103    115     1   109.8000471 387.438400
    104    103    105     1   107.5800459 329.699200
    105    103    115     1   109.8000471 387.438400
    106    112    113     1   109.5600471 388.275200
    106    112    114     1   109.5600471 388.275200
    107    106    112     1   109.8000471 387.438400
    107    106    108     1   107.5800459 329.699200
    108    106    112     1   109.8000471 387.438400
    110    109    118     1   109.7800468 425.094400
    110    109    111     1   108.4600466 328.025600
    111    109    118     1   109.7800468 425.094400
    113    112    268     1   109.7800468 425.094400
    113    112    114     1   108.4600466 328.025600
    114    112    268     1   109.7800468 425.094400
    116    115    298     1   109.7800468 425.094400
    116    115    117     1   108.4600466 328.025600
    117    115    298     1   109.7800468 425.094400
    120    121    122     1   108.0100461 406.684800
    120    121    123     1   108.0100461 406.684800
    120    124    125     1   108.0100461 406.684800
    120    124    126     1   108.0100461 406.684800
    120    127    128     1   108.0100461 406.684800
    120    127    129     1   108.0100461 406.684800
    121    120    149     1   110.1100470 384.091200
    121    133    134     1   109.8000471 387.438400
    121    133    135     1   109.8000471 387.438400
    122    121    133     1   110.5600475 386.601600
    122    121    123     1   109.7500473 328.025600
    123    121    133     1   110.5600475 386.601600
    124    120    149     1   110.1100470 384.091200
    124    136    137     1   109.8000471 387.438400
    124    136    138     1   109.8000471 387.438400
    125    124    136     1   110.5600475 386.601600
    125    124    126     1   109.7500473 328.025600
    126    124    136     1   110.5600475 386.601600
    127    120    149     1   110.1100470 384.091200
    127    130    131     1   109.8000471 387.438400
    127    130    132     1   109.8000471 387.438400
    128    127    130     1   110.5600475 386.601600
    128    127    129     1   109.7500473 328.025600
    129    127    130     1   110.5600475 386.601600
    130    139    140     1   109.5600471 388.275200
    130    139    141     1   109.5600471 388.275200
    131    130    139     1   109.8000471 387.438400
    131    130    132     1   107.5800459 329.699200
    132    130    139     1   109.8000471 387.438400
    133    145    146     1   109.5600471 388.275200
    133    145    147     1   109.5600471 388.275200
    134    133    145     1   109.8000471 387.438400
    134    133    135     1   107.5800459 329.699200
    135    133    145     1   109.8000471 387.438400
    136    142    143     1   109.5600471 388.275200
    136    142    144     1   109.5600471 388.275200
    137    136    142     1   109.8000471 387.438400
    137    136    138     1   107.5800459 329.699200
    138    136    142     1   109.8000471 387.438400
    140    139    148     1   109.7800468 425.094400
    140    139    141     1   108.4600466 328.025600
    141    139    148     1   109.7800468 425.094400
    143    142    328     1   109.7800468 425.094400
    143    142    144     1   108.4600466 328.025600
    144    142    328     1   109.7800468 425.094400
    146    145    358     1   109.7800468 425.094400
    146    145    147     1   108.4600466 328.025600
    147    145    358     1   109.7800468 425.094400
    150    151    152     1   108.0100461 406.684800
    150    151    153     1   108.0100461 406.684800
    150    154    155     1   108.0100461 406.684800
    150    154    156     1   108.0100461 406.684800
    150    157    158     1   108.0100461 406.684800
    150    157    159     1   108.0100461 406.684800
    151    150    179     1   110.1100470 384.091200
    151    163    164     1   109.8000471 387.438400
    151    163    165     1   109.8000471 387.438400
    152    151    163     1   110.5600475 386.601600
    152    151    153     1   109.7500473 328.025600
    153    151    163     1   110.5600475 386.601600
    154    150    179     1   110.1100470 384.091200
    154    166    167     1   109.8000471 387.438400
    154    166    168     1   109.8000471 387.438400
    155    154    166     1   110.5600475 386.601600
    155    154    156     1   109.7500473 328.025600
    156    154    166     1   110.5600475 386.601600
    157    150    179     1   110.1100470 384.091200
    157    160    161     1   109.8000471 387.438400
    157    160    162     1   109.8000471 387.438400
    158    157    160     1   110.5600475 386.601600
    158    157    159     1   109.7500473 328.025600
    159    157    160     1   110.5600475 386.601600
    160    169    170     1   109.5600471 388.275200
    160    169    171     1   109.5600471 388.275200
    161    160    169     1   109.8000471 387.438400
    161    160    162     1   107.5800459 329.699200
    162    160    169     1   109.8000471 387.438400
    163    175    176     1   109.5600471 388.275200
    163    175    177     1   109.5600471 388.275200
    164    163    175     1   109.8000471 387.438400
    164    163    165     1   107.5800459 329.699200
    165    163    175     1   109.8000471 387.438400
    166    172    173     1   109.5600471 388.275200
    166    172    174     1   109.5600471 388.275200
    167    166    172     1   109.8000471 387.438400
    167    166    168     1   107.5800459 329.699200
    168    166    172     1   109.8000471 387.438400
    170    169    178     1   109.7800468 425.094400
    170    169    171     1   108.4600466 328.025600
    171    169    178     1   109.7800468 425.094400
    173    172    388     1   109.7800468 425.094400
    173    172    174     1   108.4600466 328.025600
    174    172    388     1   109.7800468 425.094400
    176    175    418     1   109.7800468 425.094400
    176    175    177     1   108.4600466 328.025600
    177    175    418     1   109.7800468 425.094400
    180    181    182     1   108.0100461 406.684800
    180    181    183     1   108.0100461 406.684800
    180    184    185     1   108.0100461 406.684800
    180    184    186     1   108.0100461 406.684800
    180    187    188     1   108.0100461 406.684800
    180    187    189     1   108.0100461 406.684800
    181    180    209     1   110.1100470 384.091200
    181    193    194     1   109.8000471 387.438400
    181    193    195     1   109.8000471 387.438400
    182    181    193     1   110.5600475 386.601600
    182    181    183     1   109.7500473 328.025600
    183    181    193     1   110.5600475 386.601600
    184    180    209     1   110.1100470 384.091200
    184    196    197     1   109.8000471 387.438400
    184    196    198     1   109.8000471 387.438400
    185    184    196     1   110.5600475 386.601600
    185    184    186     1   109.7500473 328.025600
    186    184    196     1   110.5600475 386.601600
    187    180    209     1   110.1100470 384.091200
    187    190    191     1   109.8000471 387.438400
    187    190    192     1   109.8000471 387.438400
    188    187    190     1   110.5600475 386.601600
    188    187    189     1   109.7500473 328.025600
    189    187    190     1   110.5600475 386.601600
    190    199    200     1   109.5600471 388.275200
    190    199    201     1   109.5600471 388.275200
    191    190    199     1   109.8000471 387.438400
    191    190    192     1   107.5800459 329.699200
    192    190    199     1   109.8000471 387.438400
    193    205    206     1   109.5600471 388.275200
    193    205    207     1   109.5600471 388.275200
    194    193    205     1   109.8000471 387.438400
    194    193    195     1   107.5800459 329.699200
    195    193    205     1   109.8000471 387.438400
    196    202    203     1   109.5600471 388.275200
    196    202    204     1   109.5600471 388.275200
    197    196    202     1   109.8000471 387.438400
    197    196    198     1   107.5800459 329.699200
    198    196    202     1   109.8000471 387.438400
    200    199    208     1   109.7800468 425.094400
    200    199    201     1   108.4600466 328.025600
    201    199    208     1   109.7800468 425.094400
    203    202    448     1   109.7800468 425.094400
    203    202    204     1   108.4600466 328.025600
    204    202    448     1   109.7800468 425.094400
    206    205    478     1   109.7800468 425.094400
    206    205    207     1   108.4600466 328.025600
    207    205    478     1   109.7800468 425.094400
    210    211    212     1   108.0100461 406.684800
    210    211    213     1   108.0100461 406.684800
    210    214    215     1   108.0100461 406.684800
    210    214    216     1   108.0100461 406.684800
    210    217    218     1   108.0100461 406.684800
    210    217    219     1   108.0100461 406.684800
    211    210    239     1   110.1100470 384.091200
    211    223    224     1   109.8000471 387.438400
    211    223    225     1   109.8000471 387.438400
    212    211    223     1   110.5600475 386.601600
    212    211    213     1   109.7500473 328.025600
    213    211    223     1   110.5600475 386.601600
    214    210    239     1   110.1100470 384.091200
    214    226    227     1   109.8000471 387.438400
    214    226    228     1   109.8000471 387.438400
    215    214    226     1   110.5600475 386.601600
    215    214    216     1   109.7500473 328.025600
    216    214    226     1   110.5600475 386.601600
    217    210    239     1   110.1100470 384.091200
    217    220    221     1   109.8000471 387.438400
    217    220    222     1   109.8000471 387.438400
    218    217    220     1   110.5600475 386.601600
    218    217    219     1   109.7500473 328.025600
    219    217    220     1   110.5600475 386.601600
    220    229    230     1   109.5600471 388.275200
    220    229    231     1   109.5600471 388.275200
    221    220    229     1   109.8000471 387.438400
    221    220    222     1   107.5800459 329.699200
    222    220    229     1   109.8000471 387.438400
    223    235    236     1   109.5600471 388.275200
    223    235    237     1   109.5600471 388.275200
    224    223    235     1   109.8000471 387.438400
    224    223    225     1   107.5800459 329.699200
    225    223    235     1   109.8000471 387.438400
    226    232    233     1   109.5600471 388.275200
    226    232    234     1   109.5600471 388.275200
    227    226    232     1   109.8000471 387.438400
    227    226    228     1   107.5800459 329.699200
    228    226    232     1   109.8000471 387.438400
    230    229    238     1   109.7800468 425.094400
    230    229    231     1   108.4600466 328.025600
    231    229    238     1   109.7800468 425.094400
    233    232    508     1   109.7800468 425.094400
    233    232    234     1   108.4600466 328.025600
    234    232    508     1   109.7800468 425.094400
    236    235    538     1   109.7800468 425.094400
    236    235    237     1   108.4600466 328.025600
    237    235    538     1   109.7800468 425.094400
    240    241    242     1   108.0100461 406.684800
    240    241    243     1   108.0100461 406.684800
    240    244    245     1   108.0100461 406.684800
    240    244    246     1   108.0100461 406.684800
    240    247    248     1   108.0100461 406.684800
    240    247    249     1   108.0100461 406.684800
    241    240    269     1   110.1100470 384.091200
    241    253    254     1   109.8000471 387.438400
    241    253    255     1   109.8000471 387.438400
    242    241    253     1   110.5600475 386.601600
    242    241    243     1   109.7500473 328.025600
    243    241    253     1   110.5600475 386.601600
    244    240    269     1   110.1100470 384.091200
    244    256    257     1   109.8000471 387.438400
    244    256    258     1   109.8000471 387.438400
    245    244    256     1   110.5600475 386.601600
    245    244    246     1   109.7500473 328.025600
    246    244    256     1   110.5600475 386.601600
    247    240    269     1   110.1100470 384.091200
    247    250    251     1   109.8000471 387.438400
    247    250    252     1   109.8000471 387.438400
    248    247    250     1   110.5600475 386.601600
    248    247    249     1   109.7500473 328.025600
    249    247    250     1   110.5600475 386.601600
    250    259    260     1   109.5600471 388.275200
    250    259    261     1   109.5600471 388.275200
    251    250    259     1   109.8000471 387.438400
    251    250    252     1   107.5800459 329.699200
    252    250    259     1   109.8000471 387.438400
    253    265    266     1   109.5600471 388.275200
    253    265    267     1   109.5600471 388.275200
    254    253    265     1   109.8000471 387.438400
    254    253    255     1   107.5800459 329.699200
    255    253    265     1   109.8000471 387.438400
    256    262    263     1   109.5600471 388.275200
    256    262    264     1   109.5600471 388.275200
    257    256    262     1   109.8000471 387.438400
    257    256    258     1   107.5800459 329.699200
    258    256    262     1   109.8000471 387.438400
    260    259    268     1   109.7800468 425.094400
    260    259    261     1   108.4600466 328.025600
    261    259    268     1   109.7800468 425.094400
    263    262    568     1   109.7800468 425.094400
    263    262    264     1   108.4600466 328.025600
    264    262    568     1   109.7800468 425.094400
    266    265    598     1   109.7800468 425.094400
    266    265    267     1   108.4600466 328.025600
    267    265    598     1   109.7800468 425.094400
    270    271    272     1   108.0100461 406.684800
    270    271    273     1   108.0100461 406.684800
    270    274    275     1   108.0100461 406.684800
    270    274    276     1   108.0100461 406.684800
    270    277    278     1   108.0100461 406.684800
    270    277    279     1   108.0100461 406.684800
    271    270    299     1   110.1100470 384.091200
    271    283    284     1   109.8000471 387.438400
    271    283    285     1   109.8000471 387.438400
    272    271    283     1   110.5600475 386.601600
    272    271    273     1   109.7500473 328.025600
    273    271    283     1   110.5600475 386.601600
    274    270    299     1   110.1100470 384.091200
    274    286    287     1   109.8000471 387.438400
    274    286    288     1   109.8000471 387.438400
    275    274    286     1   110.5600475 386.601600
    275    274    276     1   109.7500473 328.025600
    276    274    286     1   110.5600475 386.601600
    277    270    299     1   110.1100470 384.091200
    277    280    281     1   109.8000471 387.438400
    277    280    282     1   109.8000471 387.438400
    278    277    280     1   110.5600475 386.601600
    278    277    279     1   109.7500473 328.025600
    279    277    280     1   110.5600475 386.601600
    280    289    290     1   109.5600471 388.275200
    280    289    291     1   109.5600471 388.275200
    281    280    289     1   109.8000471 387.438400
    281    280    282     1   107.5800459 329.699200
    282    280    289     1   109.8000471 387.438400
    283    295    296     1   109.5600471 388.275200
    283    295    297     1   109.5600471 388.275200
    284    283    295     1   109.8000471 387.438400
    284    283    285     1   107.5800459 329.699200
    285    283    295     1   109.8000471 387.438400
    286    292    293     1   109.5600471 388.275200
    286    292    294     1   109.5600471 388.275200
    287    286    292     1   109.8000471 387.438400
    287    286    288     1   107.5800459 329.699200
    288    286    292     1   109.8000471 387.438400
    290    289    298     1   109.7800468 425.094400
    290    289    291     1   108.4600466 328.025600
    291    289    298     1   109.7800468 425.094400
    293    292    628     1   109.7800468 425.094400
    293    292    294     1   108.4600466 328.025600
    294    292    628     1   109.7800468 425.094400
    296    295    658     1   109.7800468 425.094400
    296    295    297     1   108.4600466 328.025600
    297    295    658     1   109.7800468 425.094400
    300    301    302     1   108.0100461 406.684800
    300    301    303     1   108.0100461 406.684800
    300    304    305     1   108.0100461 406.684800
    300    304    306     1   108.0100461 406.684800
    300    307    308     1   108.0100461 406.684800
    300    307    309     1   108.0100461 406.684800
    301    300    329     1   110.1100470 384.091200
    301    313    314     1   109.8000471 387.438400
    301    313    315     1   109.8000471 387.438400
    302    301    313     1   110.5600475 386.601600
    302    301    303     1   109.7500473 328.025600
    303    301    313     1   110.5600475 386.601600
    304    300    329     1   110.1100470 384.091200
    304    316    317     1   109.8000471 387.438400
    304    316    318     1   109.8000471 387.438400
    305    304    316     1   110.5600475 386.601600
    305    304    306     1   109.7500473 328.025600
    306    304    316     1   110.5600475 386.601600
    307    300    329     1   110.1100470 384.091200
    307    310    311     1   109.8000471 387.438400
    307    310    312     1   109.8000471 387.438400
    308    307    310     1   110.5600475 386.601600
    308    307    309     1   109.7500473 328.025600
    309    307    310     1   110.5600475 386.601600
    310    319    320     1   109.5600471 388.275200
    310    319    321     1   109.5600471 388.275200
    311    310    319     1   109.8000471 387.438400
    311    310    312     1   107.5800459 329.699200
    312    310    319     1   109.8000471 387.438400
    313    325    326     1   109.5600471 388.275200
    313    325    327     1   109.5600471 388.275200
    314    313    325     1   109.8000471 387.438400
    314    313    315     1   107.5800459 329.699200
    315    313    325     1   109.8000471 387.438400
    316    322    323     1   109.5600471 388.275200
    316    322    324     1   109.5600471 388.275200
    317    316    322     1   109.8000471 387.438400
    317    316    318     1   107.5800459 329.699200
    318    316    322     1   109.8000471 387.438400
    320    319    328     1   109.7800468 425.094400
    320    319    321     1   108.4600466 328.025600
    321    319    328     1   109.7800468 425.094400
    323    322    688     1   109.7800468 425.094400
    323    322    324     1   108.4600466 328.025600
    324    322    688     1   109.7800468 425.094400
    326    325    718     1   109.7800468 425.094400
    326    325    327     1   108.4600466 328.025600
    327    325    718     1   109.7800468 425.094400
    330    331    332     1   108.0100461 406.684800
    330    331    333     1   108.0100461 406.684800
    330    334    335     1   108.0100461 406.684800
    330    334    336     1   108.0100461 406.684800
    330    337    338     1   108.0100461 406.684800
    330    337    339     1   108.0100461 406.684800
    331    330    359     1   110.1100470 384.091200
    331    343    344     1   109.8000471 387.438400
    331    343    345     1   109.8000471 387.438400
    332    331    343     1   110.5600475 386.601600
    332    331    333     1   109.7500473 328.025600
    333    331    343     1   110.5600475 386.601600
    334    330    359     1   110.1100470 384.091200
    334    346    347     1   109.8000471 387.438400
    334    346    348     1   109.8000471 387.438400
    335    334    346     1   110.5600475 386.601600
    335    334    336     1   109.7500473 328.025600
    336    334    346     1   110.5600475 386.601600
    337    330    359     1   110.1100470 384.091200
    337    340    341     1   109.8000471 387.438400
    337    340    342     1   109.8000471 387.438400
    338    337    340     1   110.5600475 386.601600
    338    337    339     1   109.7500473 328.025600
    339    337    340     1   110.5600475 386.601600
    340    349    350     1   109.5600471 388.275200
    340    349    351     1   109.5600471 388.275200
    341    340    349     1   109.8000471 387.438400
    341    340    342     1   107.5800459 329.699200
    342    340    349     1   109.8000471 387.438400
    343    355    356     1   109.5600471 388.275200
    343    355    357     1   109.5600471 388.275200
    344    343    355     1   109.8000471 387.438400
    344    343    345     1   107.5800459 329.699200
    345    343    355     1   109.8000471 387.438400
    346    352    353     1   109.5600471 388.275200
    346    352    354     1   109.5600471 388.275200
    347    346    352     1   109.8000471 387.438400
    347    346    348     1   107.5800459 329.699200
    348    346    352     1   109.8000471 387.438400
    350    349    358     1   109.7800468 425.094400
    350    349    351     1   108.4600466 328.025600
    351    349    358     1   109.7800468 425.094400
    353    352    748     1   109.7800468 425.094400
    353    352    354     1   108.4600466 328.025600
    354    352    748     1   109.7800468 425.094400
    356    355    778     1   109.7800468 425.094400
    356    355    357     1   108.4600466 328.025600
    357    355    778     1   109.7800468 425.094400
    360    361    362     1   108.0100461 406.684800
    360    361    363     1   108.0100461 406.684800
    360    364    365     1   108.0100461 406.684800
    360    364    366     1   108.0100461 406.684800
    360    367    368     1   108.0100461 406.684800
    360    367    369     1   108.0100461 406.684800
    361    360    389     1   110.1100470 384.091200
    361    373    374     1   109.8000471 387.438400
    361    373    375     1   109.8000471 387.438400
    362    361    373     1   110.5600475 386.601600
    362    361    363     1   109.7500473 328.025600
    363    361    373     1   110.5600475 386.601600
    364    360    389     1   110.1100470 384.091200
    364    376    377     1   109.8000471 387.438400
    364    376    378     1   109.8000471 387.438400
    365    364    376     1   110.5600475 386.601600
    365    364    366     1   109.7500473 328.025600
    366    364    376     1   110.5600475 386.601600
    367    360    389     1   110.1100470 384.091200
    367    370    371     1   109.8000471 387.438400
    367    370    372     1   109.8000471 387.438400
    368    367    370     1   110.5600475 386.601600
    368    367    369     1   109.7500473 328.025600
    369    367    370     1   110.5600475 386.601600
    370    379    380     1   109.5600471 388.275200
    370    379    381     1   109.5600471 388.275200
    371    370    379     1   109.8000471 387.438400
    371    370    372     1   107.5800459 329.699200
    372    370    379     1   109.8000471 387.438400
    373    385    386     1   109.5600471 388.275200
    373    385    387     1   109.5600471 388.275200
    374    373    385     1   109.8000471 387.438400
    374    373    375     1   107.5800459 329.699200
    375    373    385     1   109.8000471 387.438400
    376    382    383     1   109.5600471 388.275200
    376    382    384     1   109.5600471 388.275200
    377    376    382     1   109.8000471 387.438400
    377    376    378     1   107.5800459 329.699200
    378    376    382     1   109.8000471 387.438400
    380    379    388     1   109.7800468 425.094400
    380    379    381     1   108.4600466 328.025600
    381    379    388     1   109.7800468 425.094400
    383    382    808     1   109.7800468 425.094400
    383    382    384     1   108.4600466 328.025600
    384    382    808     1   109.7800468 425.094400
    386    385    838     1   109.7800468 425.094400
    386    385    387     1   108.4600466 328.025600
    387    385    838     1   109.7800468 425.094400
    390    391    392     1   108.0100461 406.684800
    390    391    393     1   108.0100461 406.684800
    390    394    395     1   108.0100461 406.684800
    390    394    396     1   108.0100461 406.684800
    390    397    398     1   108.0100461 406.684800
    390    397    399     1   108.0100461 406.684800
    391    390    419     1   110.1100470 384.091200
    391    403    404     1   109.8000471 387.438400
    391    403    405     1   109.8000471 387.438400
    392    391    403     1   110.5600475 386.601600
    392    391    393     1   109.7500473 328.025600
    393    391    403     1   110.5600475 386.601600
    394    390    419     1   110.1100470 384.091200
    394    406    407     1   109.8000471 387.438400
    394    406    408     1   109.8000471 387.438400
    395    394    406     1   110.5600475 386.601600
    395    394    396     1   109.7500473 328.025600
    396    394    406     1   110.5600475 386.601600
    397    390    419     1   110.1100470 384.091200
    397    400    401     1   109.8000471 387.438400
    397    400    402     1   109.8000471 387.438400
    398    397    400     1   110.5600475 386.601600
    398    397    399     1   109.7500473 328.025600
    399    397    400     1   110.5600475 386.601600
    400    409    410     1   109.5600471 388.275200
    400    409    411     1   109.5600471 388.275200
    401    400    409     1   109.8000471 387.438400
    401    400    402     1   107.5800459 329.699200
    402    400    409     1   109.8000471 387.438400
    403    415    416     1   109.5600471 388.275200
    403    415    417     1   109.5600471 388.275200
    404    403    415     1   109.8000471 387.438400
    404    403    405     1   107.5800459 329.699200
    405    403    415     1   109.8000471 387.438400
    406    412    413     1   109.5600471 388.275200
    406    412    414     1   109.5600471 388.275200
    407    406    412     1   109.8000471 387.438400
    407    406    408     1   107.5800459 329.699200
    408    406    412     1   109.8000471 387.438400
    410    409    418     1   109.7800468 425.094400
    410    409    411     1   108.4600466 328.025600
    411    409    418     1   109.7800468 425.094400
    413    412    868     1   109.7800468 425.094400
    413    412    414     1   108.4600466 328.025600
    414    412    868     1   109.7800468 425.094400
    416    415    898     1   109.7800468 425.094400
    416    415    417     1   108.4600466 328.025600
    417    415    898     1   109.7800468 425.094400
    420    421    422     1   108.0100461 406.684800
    420    421    423     1   108.0100461 406.684800
    420    424    425     1   108.0100461 406.684800
    420    424    426     1   108.0100461 406.684800
    420    427    428     1   108.0100461 406.684800
    420    427    429     1   108.0100461 406.684800
    421    420    449     1   110.1100470 384.091200
    421    433    434     1   109.8000471 387.438400
    421    433    435     1   109.8000471 387.438400
    422    421    433     1   110.5600475 386.601600
    422    421    423     1   109.7500473 328.025600
    423    421    433     1   110.5600475 386.601600
    424    420    449     1   110.1100470 384.091200
    424    436    437     1   109.8000471 387.438400
    424    436    438     1   109.8000471 387.438400
    425    424    436     1   110.5600475 386.601600
    425    424    426     1   109.7500473 328.025600
    426    424    436     1   110.5600475 386.601600
    427    420    449     1   110.1100470 384.091200
    427    430    431     1   109.8000471 387.438400
    427    430    432     1   109.8000471 387.438400
    428    427    430     1   110.5600475 386.601600
    428    427    429     1   109.7500473 328.025600
    429    427    430     1   110.5600475 386.601600
    430    439    440     1   109.5600471 388.275200
    430    439    441     1   109.5600471 388.275200
    431    430    439     1   109.8000471 387.438400
    431    430    432     1   107.5800459 329.699200
    432    430    439     1   109.8000471 387.438400
    433    445    446     1   109.5600471 388.275200
    433    445    447     1   109.5600471 388.275200
    434    433    445     1   109.8000471 387.438400
    434    433    435     1   107.5800459 329.699200
    435    433    445     1   109.8000471 387.438400
    436    442    443     1   109.5600471 388.275200
    436    442    444     1   109.5600471 388.275200
    437    436    442     1   109.8000471 387.438400
    437    436    438     1   107.5800459 329.699200
    438    436    442     1   109.8000471 387.438400
    440    439    448     1   109.7800468 425.094400
    440    439    441     1   108.4600466 328.025600
    441    439    448     1   109.7800468 425.094400
    443    442    928     1   109.7800468 425.094400
    443    442    444     1   108.4600466 328.025600
    444    442    928     1   109.7800468 425.094400
    446    445    958     1   109.7800468 425.094400
    446    445    447     1   108.4600466 328.025600
    447    445    958     1   109.7800468 425.094400
    450    451    452     1   108.0100461 406.684800
    450    451    453     1   108.0100461 406.684800
    450    454    455     1   108.0100461 406.684800
    450    454    456     1   108.0100461 406.684800
    450    457    458     1   108.0100461 406.684800
    450    457    459     1   108.0100461 406.684800
    451    450    479     1   110.1100470 384.091200
    451    463    464     1   109.8000471 387.438400
    451    463    465     1   109.8000471 387.438400
    452    451    463     1   110.5600475 386.601600
    452    451    453     1   109.7500473 328.025600
    453    451    463     1   110.5600475 386.601600
    454    450    479     1   110.1100470 384.091200
    454    466    467     1   109.8000471 387.438400
    454    466    468     1   109.8000471 387.438400
    455    454    466     1   110.5600475 386.601600
    455    454    456     1   109.7500473 328.025600
    456    454    466     1   110.5600475 386.601600
    457    450    479     1   110.1100470 384.091200
    457    460    461     1   109.8000471 387.438400
    457    460    462     1   109.8000471 387.438400
    458    457    460     1   110.5600475 386.601600
    458    457    459     1   109.7500473 328.025600
    459    457    460     1   110.5600475 386.601600
    460    469    470     1   109.5600471 388.275200
    460    469    471     1   109.5600471 388.275200
    461    460    469     1   109.8000471 387.438400
    461    460    462     1   107.5800459 329.699200
    462    460    469     1   109.8000471 387.438400
    463    475    476     1   109.5600471 388.275200
    463    475    477     1   109.5600471 388.275200
    464    463    475     1   109.8000471 387.438400
    464    463    465     1   107.5800459 329.699200
    465    463    475     1   109.8000471 387.438400
    466    472    473     1   109.5600471 388.275200
    466    472    474     1   109.5600471 388.275200
    467    466    472     1   109.8000471 387.438400
    467    466    468     1   107.5800459 329.699200
    468    466    472     1   109.8000471 387.438400
    470    469    478     1   109.7800468 425.094400
    470    469    471     1   108.4600466 328.025600
    471    469    478     1   109.7800468 425.094400
    473    472    988     1   109.7800468 425.094400
    473    472    474     1   108.4600466 328.025600
    474    472    988     1   109.7800468 425.094400
    476    475   1018     1   109.7800468 425.094400
    476    475    477     1   108.4600466 328.025600
    477    475   1018     1   109.7800468 425.094400
    480    481    482     1   108.0100461 406.684800
    480    481    483     1   108.0100461 406.684800
    480    484    485     1   108.0100461 406.684800
    480    484    486     1   108.0100461 406.684800
    480    487    488     1   108.0100461 406.684800
    480    487    489     1   108.0100461 406.684800
    481    480    509     1   110.1100470 384.091200
    481    493    494     1   109.8000471 387.438400
    481    493    495     1   109.8000471 387.438400
    482    481    493     1   110.5600475 386.601600
    482    481    483     1   109.7500473 328.025600
    483    481    493     1   110.5600475 386.601600
    484    480    509     1   110.1100470 384.091200
    484    496    497     1   109.8000471 387.438400
    484    496    498     1   109.8000471 387.438400
    485    484    496     1   110.5600475 386.601600
    485    484    486     1   109.7500473 328.025600
    486    484    496     1   110.5600475 386.601600
    487    480    509     1   110.1100470 384.091200
    487    490    491     1   109.8000471 387.438400
    487    490    492     1   109.8000471 387.438400
    488    487    490     1   110.5600475 386.601600
    488    487    489     1   109.7500473 328.025600
    489    487    490     1   110.5600475 386.601600
    490    499    500     1   109.5600471 388.275200
    490    499    501     1   109.5600471 388.275200
    491    490    499     1   109.8000471 387.438400
    491    490    492     1   107.5800459 329.699200
    492    490    499     1   109.8000471 387.438400
    493    505    506     1   109.5600471 388.275200
    493    505    507     1   109.5600471 388.275200
    494    493    505     1   109.8000471 387.438400
    494    493    495     1   107.5800459 329.699200
    495    493    505     1   109.8000471 387.438400
    496    502    503     1   109.5600471 388.275200
    496    502    504     1   109.5600471 388.275200
    497    496    502     1   109.8000471 387.438400
    497    496    498     1   107.5800459 329.699200
    498    496    502     1   109.8000471 387.438400
    500    499    508     1   109.7800468 425.094400
    500    499    501     1   108.4600466 328.025600
    501    499    508     1   109.7800468 425.094400
    503    502   1048     1   109.7800468 425.094400
    503    502    504     1   108.4600466 328.025600
    504    502   1048     1   109.7800468 425.094400
    506    505   1078     1   109.7800468 425.094400
    506    505    507     1   108.4600466 328.025600
    507    505   1078     1   109.7800468 425.094400
    510    511    512     1   108.0100461 406.684800
    510    511    513     1   108.0100461 406.684800
    510    514    515     1   108.0100461 406.684800
    510    514    516     1   108.0100461 406.684800
    510    517    518     1   108.0100461 406.684800
    510    517    519     1   108.0100461 406.684800
    511    510    539     1   110.1100470 384.091200
    511    523    524     1   109.8000471 387.438400
    511    523    525     1   109.8000471 387.438400
    512    511    523     1   110.5600475 386.601600
    512    511    513     1   109.7500473 328.025600
    513    511    523     1   110.5600475 386.601600
    514    510    539     1   110.1100470 384.091200
    514    526    527     1   109.8000471 387.438400
    514    526    528     1   109.8000471 387.438400
    515    514    526     1   110.5600475 386.601600
    515    514    516     1   109.7500473 328.025600
    516    514    526     1   110.5600475 386.601600
    517    510    539     1   110.1100470 384.091200
    517    520    521     1   109.8000471 387.438400
    517    520    522     1   109.8000471 387.438400
    518    517    520     1   110.5600475 386.601600
    518    517    519     1   109.7500473 328.025600
    519    517    520     1   110.5600475 386.601600
    520    529    530     1   109.5600471 388.275200
    520    529    531     1   109.5600471 388.275200
    521    520    529     1   109.8000471 387.438400
    521    520    522     1   107.5800459 329.699200
    522    520    529     1   109.8000471 387.438400
    523    535    536     1   109.5600471 388.275200
    523    535    537     1   109.5600471 388.275200
    524    523    535     1   109.8000471 387.438400
    524    523    525     1   107.5800459 329.699200
    525    523    535     1   109.8000471 387.438400
    526    532    533     1   109.5600471 388.275200
    526    532    534     1   109.5600471 388.275200
    527    526    532     1   109.8000471 387.438400
    527    526    528     1   107.5800459 329.699200
    528    526    532     1   109.8000471 387.438400
    530    529    538     1   109.7800468 425.094400
    530    529    531     1   108.4600466 328.025600
    531    529    538     1   109.7800468 425.094400
    533    532   1108     1   109.7800468 425.094400
    533    532    534     1   108.4600466 328.025600
    534    532   1108     1   109.7800468 425.094400
    536    535   1138     1   109.7800468 425.094400
    536    535    537     1   108.4600466 328.025600
    537    535   1138     1   109.7800468 425.094400
    540    541    542     1   108.0100461 406.684800
    540    541    543     1   108.0100461 406.684800
    540    544    545     1   108.0100461 406.684800
    540    544    546     1   108.0100461 406.684800
    540    547    548     1   108.0100461 406.684800
    540    547    549     1   108.0100461 406.684800
    541    540    569     1   110.1100470 384.091200
    541    553    554     1   109.8000471 387.438400
    541    553    555     1   109.8000471 387.438400
    542    541    553     1   110.5600475 386.601600
    542    541    543     1   109.7500473 328.025600
    543    541    553     1   110.5600475 386.601600
    544    540    569     1   110.1100470 384.091200
    544    556    557     1   109.8000471 387.438400
    544    556    558     1   109.8000471 387.438400
    545    544    556     1   110.5600475 386.601600
    545    544    546     1   109.7500473 328.025600
    546    544    556     1   110.5600475 386.601600
    547    540    569     1   110.1100470 384.091200
    547    550    551     1   109.8000471 387.438400
    547    550    552     1   109.8000471 387.438400
    548    547    550     1   110.5600475 386.601600
    548    547    549     1   109.7500473 328.025600
    549    547    550     1   110.5600475 386.601600
    550    559    560     1   109.5600471 388.275200
    550    559    561     1   109.5600471 388.275200
    551    550    559     1   109.8000471 387.438400
    551    550    552     1   107.5800459 329.699200
    552    550    559     1   109.8000471 387.438400
    553    565    566     1   109.5600471 388.275200
    553    565    567     1   109.5600471 388.275200
    554    553    565     1   109.8000471 387.438400
    554    553    555     1   107.5800459 329.699200
    555    553    565     1   109.8000471 387.438400
    556    562    563     1   109.5600471 388.275200
    556    562    564     1   109.5600471 388.275200
    557    556    562     1   109.8000471 387.438400
    557    556    558     1   107.5800459 329.699200
    558    556    562     1   109.8000471 387.438400
    560    559    568     1   109.7800468 425.094400
    560    559    561     1   108.4600466 328.025600
    561    559    568     1   109.7800468 425.094400
    563    562   1168     1   109.7800468 425.094400
    563    562    564     1   108.4600466 328.025600
    564    562   1168     1   109.7800468 425.094400
    566    565   1198     1   109.7800468 425.094400
    566    565    567     1   108.4600466 328.025600
    567    565   1198     1   109.7800468 425.094400
    570    571    572     1   108.0100461 406.684800
    570    571    573     1   108.0100461 406.684800
    570    574    575     1   108.0100461 406.684800
    570    574    576     1   108.0100461 406.684800
    570    577    578     1   108.0100461 406.684800
    570    577    579     1   108.0100461 406.684800
    571    570    599     1   110.1100470 384.091200
    571    583    584     1   109.8000471 387.438400
    571    583    585     1   109.8000471 387.438400
    572    571    583     1   110.5600475 386.601600
    572    571    573     1   109.7500473 328.025600
    573    571    583     1   110.5600475 386.601600
    574    570    599     1   110.1100470 384.091200
    574    586    587     1   109.8000471 387.438400
    574    586    588     1   109.8000471 387.438400
    575    574    586     1   110.5600475 386.601600
    575    574    576     1   109.7500473 328.025600
    576    574    586     1   110.5600475 386.601600
    577    570    599     1   110.1100470 384.091200
    577    580    581     1   109.8000471 387.438400
    577    580    582     1   109.8000471 387.438400
    578    577    580     1   110.5600475 386.601600
    578    577    579     1   109.7500473 328.025600
    579    577    580     1   110.5600475 386.601600
    580    589    590     1   109.5600471 388.275200
    580    589    591     1   109.5600471 388.275200
    581    580    589     1   109.8000471 387.438400
    581    580    582     1   107.5800459 329.699200
    582    580    589     1   109.8000471 387.438400
    583    595    596     1   109.5600471 388.275200
    583    595    597     1   109.5600471 388.275200
    584    583    595     1   109.8000471 387.438400
    584    583    585     1   107.5800459 329.699200
    585    583    595     1   109.8000471 387.438400
    586    592    593     1   109.5600471 388.275200
    586    592    594     1   109.5600471 388.275200
    587    586    592     1   109.8000471 387.438400
    587    586    588     1   107.5800459 329.699200
    588    586    592     1   109.8000471 387.438400
    590    589    598     1   109.7800468 425.094400
    590    589    591     1   108.4600466 328.025600
    591    589    598     1   109.7800468 425.094400
    593    592   1228     1   109.7800468 425.094400
    593    592    594     1   108.4600466 328.025600
    594    592   1228     1   109.7800468 425.094400
    596    595   1258     1   109.7800468 425.094400
    596    595    597     1   108.4600466 328.025600
    597    595   1258     1   109.7800468 425.094400
    600    601    602     1   108.0100461 406.684800
    600    601    603     1   108.0100461 406.684800
    600    604    605     1   108.0100461 406.684800
    600    604    606     1   108.0100461 406.684800
    600    607    608     1   108.0100461 406.684800
    600    607    609     1   108.0100461 406.684800
    601    600    629     1   110.1100470 384.091200
    601    613    614     1   109.8000471 387.438400
    601    613    615     1   109.8000471 387.438400
    602    601    613     1   110.5600475 386.601600
    602    601    603     1   109.7500473 328.025600
    603    601    613     1   110.5600475 386.601600
    604    600    629     1   110.1100470 384.091200
    604    616    617     1   109.8000471 387.438400
    604    616    618     1   109.8000471 387.438400
    605    604    616     1   110.5600475 386.601600
    605    604    606     1   109.7500473 328.025600
    606    604    616     1   110.5600475 386.601600
    607    600    629     1   110.1100470 384.091200
    607    610    611     1   109.8000471 387.438400
    607    610    612     1   109.8000471 387.438400
    608    607    610     1   110.5600475 386.601600
    608    607    609     1   109.7500473 328.025600
    609    607    610     1   110.5600475 386.601600
    610    619    620     1   109.5600471 388.275200
    610    619    621     1   109.5600471 388.275200
    611    610    619     1   109.8000471 387.438400
    611    610    612     1   107.5800459 329.699200
    612    610    619     1   109.8000471 387.438400
    613    625    626     1   109.5600471 388.275200
    613    625    627     1   109.5600471 388.275200
    614    613    625     1   109.8000471 387.438400
    614    613    615     1   107.5800459 329.699200
    615    613    625     1   109.8000471 387.438400
    616    622    623     1   109.5600471 388.275200
    616    622    624     1   109.5600471 388.275200
    617    616    622     1   109.8000471 387.438400
    617    616    618     1   107.5800459 329.699200
    618    616    622     1   109.8000471 387.438400
    620    619    628     1   109.7800468 425.094400
    620    619    621     1   108.4600466 328.025600
    621    619    628     1   109.7800468 425.094400
    623    622   1288     1   109.7800468 425.094400
    623    622    624     1   108.4600466 328.025600
    624    622   1288     1   109.7800468 425.094400
    626    625   1318     1   109.7800468 425.094400
    626    625    627     1   108.4600466 328.025600
    627    625   1318     1   109.7800468 425.094400
    630    631    632     1   108.0100461 406.684800
    630    631    633     1   108.0100461 406.684800
    630    634    635     1   108.0100461 406.684800
    630    634    636     1   108.0100461 406.684800
    630    637    638     1   108.0100461 406.684800
    630    637    639     1   108.0100461 406.684800
    631    630    659     1   110.1100470 384.091200
    631    643    644     1   109.8000471 387.438400
    631    643    645     1   109.8000471 387.438400
    632    631    643     1   110.5600475 386.601600
    632    631    633     1   109.7500473 328.025600
    633    631    643     1   110.5600475 386.601600
    634    630    659     1   110.1100470 384.091200
    634    646    647     1   109.8000471 387.438400
    634    646    648     1   109.8000471 387.438400
    635    634    646     1   110.5600475 386.601600
    635    634    636     1   109.7500473 328.025600
    636    634    646     1   110.5600475 386.601600
    637    630    659     1   110.1100470 384.091200
    637    640    641     1   109.8000471 387.438400
    637    640    642     1   109.8000471 387.438400
    638    637    640     1   110.5600475 386.601600
    638    637    639     1   109.7500473 328.025600
    639    637    640     1   110.5600475 386.601600
    640    649    650     1   109.5600471 388.275200
    640    649    651     1   109.5600471 388.275200
    641    640    649     1   109.8000471 387.438400
    641    640    642     1   107.5800459 329.699200
    642    640    649     1   109.8000471 387.438400
    643    655    656     1   109.5600471 388.275200
    643    655    657     1   109.5600471 388.275200
    644    643    655     1   109.8000471 387.438400
    644    643    645     1   107.5800459 329.699200
    645    643    655     1   109.8000471 387.438400
    646    652    653     1   109.5600471 388.275200
    646    652    654     1   109.5600471 388.275200
    647    646    652     1   109.8000471 387.438400
    647    646    648     1   107.5800459 329.699200
    648    646    652     1   109.8000471 387.438400
    650    649    658     1   109.7800468 425.094400
    650    649    651     1   108.4600466 328.025600
    651    649    658     1   109.7800468 425.094400
    653    652   1348     1   109.7800468 425.094400
    653    652    654     1   108.4600466 328.025600
    654    652   1348     1   109.7800468 425.094400
    656    655   1378     1   109.7800468 425.094400
    656    655    657     1   108.4600466 328.025600
    657    655   1378     1   109.7800468 425.094400
    660    661    662     1   108.0100461 406.684800
    660    661    663     1   108.0100461 406.684800
    660    664    665     1   108.0100461 406.684800
    660    664    666     1   108.0100461 406.684800
    660    667    668     1   108.0100461 406.684800
    660    667    669     1   108.0100461 406.684800
    661    660    689     1   110.1100470 384.091200
    661    673    674     1   109.8000471 387.438400
    661    673    675     1   109.8000471 387.438400
    662    661    673     1   110.5600475 386.601600
    662    661    663     1   109.7500473 328.025600
    663    661    673     1   110.5600475 386.601600
    664    660    689     1   110.1100470 384.091200
    664    676    677     1   109.8000471 387.438400
    664    676    678     1   109.8000471 387.438400
    665    664    676     1   110.5600475 386.601600
    665    664    666     1   109.7500473 328.025600
    666    664    676     1   110.5600475 386.601600
    667    660    689     1   110.1100470 384.091200
    667    670    671     1   109.8000471 387.438400
    667    670    672     1   109.8000471 387.438400
    668    667    670     1   110.5600475 386.601600
    668    667    669     1   109.7500473 328.025600
    669    667    670     1   110.5600475 386.601600
    670    679    680     1   109.5600471 388.275200
    670    679    681     1   109.5600471 388.275200
    671    670    679     1   109.8000471 387.438400
    671    670    672     1   107.5800459 329.699200
    672    670    679     1   109.8000471 387.438400
    673    685    686     1   109.5600471 388.275200
    673    685    687     1   109.5600471 388.275200
    674    673    685     1   109.8000471 387.438400
    674    673    675     1   107.5800459 329.699200
    675    673    685     1   109.8000471 387.438400
    676    682    683     1   109.5600471 388.275200
    676    682    684     1   109.5600471 388.275200
    677    676    682     1   109.8000471 387.438400
    677    676    678     1   107.5800459 329.699200
    678    676    682     1   109.8000471 387.438400
    680    679    688     1   109.7800468 425.094400
    680    679    681     1   108.4600466 328.025600
    681    679    688     1   109.7800468 425.094400
    683    682   1392     1   109.7800468 425.094400
    683    682    684     1   108.4600466 328.025600
    684    682   1392     1   109.7800468 425.094400
    686    685   1406     1   109.7800468 425.094400
    686    685    687     1   108.4600466 328.025600
    687    685   1406     1   109.7800468 425.094400
    690    691    692     1   108.0100461 406.684800
    690    691    693     1   108.0100461 406.684800
    690    694    695     1   108.0100461 406.684800
    690    694    696     1   108.0100461 406.684800
    690    697    698     1   108.0100461 406.684800
    690    697    699     1   108.0100461 406.684800
    691    690    719     1   110.1100470 384.091200
    691    703    704     1   109.8000471 387.438400
    691    703    705     1   109.8000471 387.438400
    692    691    703     1   110.5600475 386.601600
    692    691    693     1   109.7500473 328.025600
    693    691    703     1   110.5600475 386.601600
    694    690    719     1   110.1100470 384.091200
    694    706    707     1   109.8000471 387.438400
    694    706    708     1   109.8000471 387.438400
    695    694    706     1   110.5600475 386.601600
    695    694    696     1   109.7500473 328.025600
    696    694    706     1   110.5600475 386.601600
    697    690    719     1   110.1100470 384.091200
    697    700    701     1   109.8000471 387.438400
    697    700    702     1   109.8000471 387.438400
    698    697    700     1   110.5600475 386.601600
    698    697    699     1   109.7500473 328.025600
    699    697    700     1   110.5600475 386.601600
    700    709    710     1   109.5600471 388.275200
    700    709    711     1   109.5600471 388.275200
    701    700    709     1   109.8000471 387.438400
    701    700    702     1   107.5800459 329.699200
    702    700    709     1   109.8000471 387.438400
    703    715    716     1   109.5600471 388.275200
    703    715    717     1   109.5600471 388.275200
    704    703    715     1   109.8000471 387.438400
    704    703    705     1   107.5800459 329.699200
    705    703    715     1   109.8000471 387.438400
    706    712    713     1   109.5600471 388.275200
    706    712    714     1   109.5600471 388.275200
    707    706    712     1   109.8000471 387.438400
    707    706    708     1   107.5800459 329.699200
    708    706    712     1   109.8000471 387.438400
    710    709    718     1   109.7800468 425.094400
    710    709    711     1   108.4600466 328.025600
    711    709    718     1   109.7800468 425.094400
    713    712   1420     1   109.7800468 425.094400
    713    712    714     1   108.4600466 328.025600
    714    712   1420     1   109.7800468 425.094400
    716    715   1434     1   109.7800468 425.094400
    716    715    717     1   108.4600466 328.025600
    717    715   1434     1   109.7800468 425.094400
    720    721    722     1   108.0100461 406.684800
    720    721    723     1   108.0100461 406.684800
    720    724    725     1   108.0100461 406.684800
    720    724    726     1   108.0100461 406.684800
    720    727    728     1   108.0100461 406.684800
    720    727    729     1   108.0100461 406.684800
    721    720    749     1   110.1100470 384.091200
    721    733    734     1   109.8000471 387.438400
    721    733    735     1   109.8000471 387.438400
    722    721    733     1   110.5600475 386.601600
    722    721    723     1   109.7500473 328.025600
    723    721    733     1   110.5600475 386.601600
    724    720    749     1   110.1100470 384.091200
    724    736    737     1   109.8000471 387.438400
    724    736    738     1   109.8000471 387.438400
    725    724    736     1   110.5600475 386.601600
    725    724    726     1   109.7500473 328.025600
    726    724    736     1   110.5600475 386.601600
    727    720    749     1   110.1100470 384.091200
    727    730    731     1   109.8000471 387.438400
    727    730    732     1   109.8000471 387.438400
    728    727    730     1   110.5600475 386.601600
    728    727    729     1   109.7500473 328.025600
    729    727    730     1   110.5600475 386.601600
    730    739    740     1   109.5600471 388.275200
    730    739    741     1   109.5600471 388.275200
    731    730    739     1   109.8000471 387.438400
    731    730    732     1   107.5800459 329.699200
    732    730    739     1   109.8000471 387.438400
    733    745    746     1   109.5600471 388.275200
    733    745    747     1   109.5600471 388.275200
    734    733    745     1   109.8000471 387.438400
    734    733    735     1   107.5800459 329.699200
    735    733    745     1   109.8000471 387.438400
    736    742    743     1   109.5600471 388.275200
    736    742    744     1   109.5600471 388.275200
    737    736    742     1   109.8000471 387.438400
    737    736    738     1   107.5800459 329.699200
    738    736    742     1   109.8000471 387.438400
    740    739    748     1   109.7800468 425.094400
    740    739    741     1   108.4600466 328.025600
    741    739    748     1   109.7800468 425.094400
    743    742   1448     1   109.7800468 425.094400
    743    742    744     1   108.4600466 328.025600
    744    742   1448     1   109.7800468 425.094400
    746    745   1462     1   109.7800468 425.094400
    746    745    747     1   108.4600466 328.025600
    747    745   1462     1   109.7800468 425.094400
    750    751    752     1   108.0100461 406.684800
    750    751    753     1   108.0100461 406.684800
    750    754    755     1   108.0100461 406.684800
    750    754    756     1   108.0100461 406.684800
    750    757    758     1   108.0100461 406.684800
    750    757    759     1   108.0100461 406.684800
    751    750    779     1   110.1100470 384.091200
    751    763    764     1   109.8000471 387.438400
    751    763    765     1   109.8000471 387.438400
    752    751    763     1   110.5600475 386.601600
    752    751    753     1   109.7500473 328.025600
    753    751    763     1   110.5600475 386.601600
    754    750    779     1   110.1100470 384.091200
    754    766    767     1   109.8000471 387.438400
    754    766    768     1   109.8000471 387.438400
    755    754    766     1   110.5600475 386.601600
    755    754    756     1   109.7500473 328.025600
    756    754    766     1   110.5600475 386.601600
    757    750    779     1   110.1100470 384.091200
    757    760    761     1   109.8000471 387.438400
    757    760    762     1   109.8000471 387.438400
    758    757    760     1   110.5600475 386.601600
    758    757    759     1   109.7500473 328.025600
    759    757    760     1   110.5600475 386.601600
    760    769    770     1   109.5600471 388.275200
    760    769    771     1   109.5600471 388.275200
    761    760    769     1   109.8000471 387.438400
    761    760    762     1   107.5800459 329.699200
    762    760    769     1   109.8000471 387.438400
    763    775    776     1   109.5600471 388.275200
    763    775    777     1   109.5600471 388.275200
    764    763    775     1   109.8000471 387.438400
    764    763    765     1   107.5800459 329.699200
    765    763    775     1   109.8000471 387.438400
    766    772    773     1   109.5600471 388.275200
    766    772    774     1   109.5600471 388.275200
    767    766    772     1   109.8000471 387.438400
    767    766    768     1   107.5800459 329.699200
    768    766    772     1   109.8000471 387.438400
    770    769    778     1   109.7800468 425.094400
    770    769    771     1   108.4600466 328.025600
    771    769    778     1   109.7800468 425.094400
    773    772   1476     1   109.7800468 425.094400
    773    772    774     1   108.4600466 328.025600
    774    772   1476     1   109.7800468 425.094400
    776    775   1490     1   109.7800468 425.094400
    776    775    777     1   108.4600466 328.025600
    777    775   1490     1   109.7800468 425.094400
    780    781    782     1   108.0100461 406.684800
    780    781    783     1   108.0100461 406.684800
    780    784    785     1   108.0100461 406.684800
    780    784    786     1   108.0100461 406.684800
    780    787    788     1   108.0100461 406.684800
    780    787    789     1   108.0100461 406.684800
    781    780    809     1   110.1100470 384.091200
    781    793    794     1   109.8000471 387.438400
    781    793    795     1   109.8000471 387.438400
    782    781    793     1   110.5600475 386.601600
    782    781    783     1   109.7500473 328.025600
    783    781    793     1   110.5600475 386.601600
    784    780    809     1   110.1100470 384.091200
    784    796    797     1   109.8000471 387.438400
    784    796    798     1   109.8000471 387.438400
    785    784    796     1   110.5600475 386.601600
    785    784    786     1   109.7500473 328.025600
    786    784    796     1   110.5600475 386.601600
    787    780    809     1   110.1100470 384.091200
    787    790    791     1   109.8000471 387.438400
    787    790    792     1   109.8000471 387.438400
    788    787    790     1   110.5600475 386.601600
    788    787    789     1   109.7500473 328.025600
    789    787    790     1   110.5600475 386.601600
    790    799    800     1   109.5600471 388.275200
    790    799    801     1   109.5600471 388.275200
    791    790    799     1   109.8000471 387.438400
    791    790    792     1   107.5800459 329.699200
    792    790    799     1   109.8000471 387.438400
    793    805    806     1   109.5600471 388.275200
    793    805    807     1   109.5600471 388.275200
    794    793    805     1   109.8000471 387.438400
    794    793    795     1   107.5800459 329.699200
    795    793    805     1   109.8000471 387.438400
    796    802    803     1   109.5600471 388.275200
    796    802    804     1   109.5600471 388.275200
    797    796    802     1   109.8000471 387.438400
    797    796    798     1   107.5800459 329.699200
    798    796    802     1   109.8000471 387.438400
    800    799    808     1   109.7800468 425.094400
    800    799    801     1   108.4600466 328.025600
    801    799    808     1   109.7800468 425.094400
    803    802   1504     1   109.7800468 425.094400
    803    802    804     1   108.4600466 328.025600
    804    802   1504     1   109.7800468 425.094400
    806    805   1518     1   109.7800468 425.094400
    806    805    807     1   108.4600466 328.025600
    807    805   1518     1   109.7800468 425.094400
    810    811    812     1   108.0100461 406.684800
    810    811    813     1   108.0100461 406.684800
    810    814    815     1   108.0100461 406.684800
    810    814    816     1   108.0100461 406.684800
    810    817    818     1   108.0100461 406.684800
    810    817    819     1   108.0100461 406.684800
    811    810    839     1   110.1100470 384.091200
    811    823    824     1   109.8000471 387.438400
    811    823    825     1   109.8000471 387.438400
    812    811    823     1   110.5600475 386.601600
    812    811    813     1   109.7500473 328.025600
    813    811    823     1   110.5600475 386.601600
    814    810    839     1   110.1100470 384.091200
    814    826    827     1   109.8000471 387.438400
    814    826    828     1   109.8000471 387.438400
    815    814    826     1   110.5600475 386.601600
    815    814    816     1   109.7500473 328.025600
    816    814    826     1   110.5600475 386.601600
    817    810    839     1   110.1100470 384.091200
    817    820    821     1   109.8000471 387.438400
    817    820    822     1   109.8000471 387.438400
    818    817    820     1   110.5600475 386.601600
    818    817    819     1   109.7500473 328.025600
    819    817    820     1   110.5600475 386.601600
    820    829    830     1   109.5600471 388.275200
    820    829    831     1   109.5600471 388.275200
    821    820    829     1   109.8000471 387.438400
    821    820    822     1   107.5800459 329.699200
    822    820    829     1   109.8000471 387.438400
    823    835    836     1   109.5600471 388.275200
    823    835    837     1   109.5600471 388.275200
    824    823    835     1   109.8000471 387.438400
    824    823    825     1   107.5800459 329.699200
    825    823    835     1   109.8000471 387.438400
    826    832    833     1   109.5600471 388.275200
    826    832    834     1   109.5600471 388.275200
    827    826    832     1   109.8000471 387.438400
    827    826    828     1   107.5800459 329.699200
    828    826    832     1   109.8000471 387.438400
    830    829    838     1   109.7800468 425.094400
    830    829    831     1   108.4600466 328.025600
    831    829    838     1   109.7800468 425.094400
    833    832   1532     1   109.7800468 425.094400
    833    832    834     1   108.4600466 328.025600
    834    832   1532     1   109.7800468 425.094400
    836    835   1546     1   109.7800468 425.094400
    836    835    837     1   108.4600466 328.025600
    837    835   1546     1   109.7800468 425.094400
    840    841    842     1   108.0100461 406.684800
    840    841    843     1   108.0100461 406.684800
    840    844    845     1   108.0100461 406.684800
    840    844    846     1   108.0100461 406.684800
    840    847    848     1   108.0100461 406.684800
    840    847    849     1   108.0100461 406.684800
    841    840    869     1   110.1100470 384.091200
    841    853    854     1   109.8000471 387.438400
    841    853    855     1   109.8000471 387.438400
    842    841    853     1   110.5600475 386.601600
    842    841    843     1   109.7500473 328.025600
    843    841    853     1   110.5600475 386.601600
    844    840    869     1   110.1100470 384.091200
    844    856    857     1   109.8000471 387.438400
    844    856    858     1   109.8000471 387.438400
    845    844    856     1   110.5600475 386.601600
    845    844    846     1   109.7500473 328.025600
    846    844    856     1   110.5600475 386.601600
    847    840    869     1   110.1100470 384.091200
    847    850    851     1   109.8000471 387.438400
    847    850    852     1   109.8000471 387.438400
    848    847    850     1   110.5600475 386.601600
    848    847    849     1   109.7500473 328.025600
    849    847    850     1   110.5600475 386.601600
    850    859    860     1   109.5600471 388.275200
    850    859    861     1   109.5600471 388.275200
    851    850    859     1   109.8000471 387.438400
    851    850    852     1   107.5800459 329.699200
    852    850    859     1   109.8000471 387.438400
    853    865    866     1   109.5600471 388.275200
    853    865    867     1   109.5600471 388.275200
    854    853    865     1   109.8000471 387.438400
    854    853    855     1   107.5800459 329.699200
    855    853    865     1   109.8000471 387.438400
    856    862    863     1   109.5600471 388.275200
    856    862    864     1   109.5600471 388.275200
    857    856    862     1   109.8000471 387.438400
    857    856    858     1   107.5800459 329.699200
    858    856    862     1   109.8000471 387.438400
    860    859    868     1   109.7800468 425.094400
    860    859    861     1   108.4600466 328.025600
    861    859    868     1   109.7800468 425.094400
    863    862   1560     1   109.7800468 425.094400
    863    862    864     1   108.4600466 328.025600
    864    862   1560     1   109.7800468 425.094400
    866    865   1574     1   109.7800468 425.094400
    866    865    867     1   108.4600466 328.025600
    867    865   1574     1   109.7800468 425.094400
    870    871    872     1   108.0100461 406.684800
    870    871    873     1   108.0100461 406.684800
    870    874    875     1   108.0100461 406.684800
    870    874    876     1   108.0100461 406.684800
    870    877    878     1   108.0100461 406.684800
    870    877    879     1   108.0100461 406.684800
    871    870    899     1   110.1100470 384.091200
    871    883    884     1   109.8000471 387.438400
    871    883    885     1   109.8000471 387.438400
    872    871    883     1   110.5600475 386.601600
    872    871    873     1   109.7500473 328.025600
    873    871    883     1   110.5600475 386.601600
    874    870    899     1   110.1100470 384.091200
    874    886    887     1   109.8000471 387.438400
    874    886    888     1   109.8000471 387.438400
    875    874    886     1   110.5600475 386.601600
    875    874    876     1   109.7500473 328.025600
    876    874    886     1   110.5600475 386.601600
    877    870    899     1   110.1100470 384.091200
    877    880    881     1   109.8000471 387.438400
    877    880    882     1   109.8000471 387.438400
    878    877    880     1   110.5600475 386.601600
    878    877    879     1   109.7500473 328.025600
    879    877    880     1   110.5600475 386.601600
    880    889    890     1   109.5600471 388.275200
    880    889    891     1   109.5600471 388.275200
    881    880    889     1   109.8000471 387.438400
    881    880    882     1   107.5800459 329.699200
    882    880    889     1   109.8000471 387.438400
    883    895    896     1   109.5600471 388.275200
    883    895    897     1   109.5600471 388.275200
    884    883    895     1   109.8000471 387.438400
    884    883    885     1   107.5800459 329.699200
    885    883    895     1   109.8000471 387.438400
    886    892    893     1   109.5600471 388.275200
    886    892    894     1   109.5600471 388.275200
    887    886    892     1   109.8000471 387.438400
    887    886    888     1   107.5800459 329.699200
    888    886    892     1   109.8000471 387.438400
    890    889    898     1   109.7800468 425.094400
    890    889    891     1   108.4600466 328.025600
    891    889    898     1   109.7800468 425.094400
    893    892   1588     1   109.7800468 425.094400
    893    892    894     1   108.4600466 328.025600
    894    892   1588     1   109.7800468 425.094400
    896    895   1602     1   109.7800468 425.094400
    896    895    897     1   108.4600466 328.025600
    897    895   1602     1   109.7800468 425.094400
    900    901    902     1   108.0100461 406.684800
    900    901    903     1   108.0100461 406.684800
    900    904    905     1   108.0100461 406.684800
    900    904    906     1   108.0100461 406.684800
    900    907    908     1   108.0100461 406.684800
    900    907    909     1   108.0100461 406.684800
    901    900    929     1   110.1100470 384.091200
    901    913    914     1   109.8000471 387.438400
    901    913    915     1   109.8000471 387.438400
    902    901    913     1   110.5600475 386.601600
    902    901    903     1   109.7500473 328.025600
    903    901    913     1   110.5600475 386.601600
    904    900    929     1   110.1100470 384.091200
    904    916    917     1   109.8000471 387.438400
    904    916    918     1   109.8000471 387.438400
    905    904    916     1   110.5600475 386.601600
    905    904    906     1   109.7500473 328.025600
    906    904    916     1   110.5600475 386.601600
    907    900    929     1   110.1100470 384.091200
    907    910    911     1   109.8000471 387.438400
    907    910    912     1   109.8000471 387.438400
    908    907    910     1   110.5600475 386.601600
    908    907    909     1   109.7500473 328.025600
    909    907    910     1   110.5600475 386.601600
    910    919    920     1   109.5600471 388.275200
    910    919    921     1   109.5600471 388.275200
    911    910    919     1   109.8000471 387.438400
    911    910    912     1   107.5800459 329.699200
    912    910    919     1   109.8000471 387.438400
    913    925    926     1   109.5600471 388.275200
    913    925    927     1   109.5600471 388.275200
    914    913    925     1   109.8000471 387.438400
    914    913    915     1   107.5800459 329.699200
    915    913    925     1   109.8000471 387.438400
    916    922    923     1   109.5600471 388.275200
    916    922    924     1   109.5600471 388.275200
    917    916    922     1   109.8000471 387.438400
    917    916    918     1   107.5800459 329.699200
    918    916    922     1   109.8000471 387.438400
    920    919    928     1   109.7800468 425.094400
    920    919    921     1   108.4600466 328.025600
    921    919    928     1   109.7800468 425.094400
    923    922   1616     1   109.7800468 425.094400
    923    922    924     1   108.4600466 328.025600
    924    922   1616     1   109.7800468 425.094400
    926    925   1630     1   109.7800468 425.094400
    926    925    927     1   108.4600466 328.025600
    927    925   1630     1   109.7800468 425.094400
    930    931    932     1   108.0100461 406.684800
    930    931    933     1   108.0100461 406.684800
    930    934    935     1   108.0100461 406.684800
    930    934    936     1   108.0100461 406.684800
    930    937    938     1   108.0100461 406.684800
    930    937    939     1   108.0100461 406.684800
    931    930    959     1   110.1100470 384.091200
    931    943    944     1   109.8000471 387.438400
    931    943    945     1   109.8000471 387.438400
    932    931    943     1   110.5600475 386.601600
    932    931    933     1   109.7500473 328.025600
    933    931    943     1   110.5600475 386.601600
    934    930    959     1   110.1100470 384.091200
    934    946    947     1   109.8000471 387.438400
    934    946    948     1   109.8000471 387.438400
    935    934    946     1   110.5600475 386.601600
    935    934    936     1   109.7500473 328.025600
    936    934    946     1   110.5600475 386.601600
    937    930    959     1   110.1100470 384.091200
    937    940    941     1   109.8000471 387.438400
    937    940    942     1   109.8000471 387.438400
    938    937    940     1   110.5600475 386.601600
    938    937    939     1   109.7500473 328.025600
    939    937    940     1   110.5600475 386.601600
    940    949    950     1   109.5600471 388.275200
    940    949    951     1   109.5600471 388.275200
    941    940    949     1   109.8000471 387.438400
    941    940    942     1   107.5800459 329.699200
    942    940    949     1   109.8000471 387.438400
    943    955    956     1   109.5600471 388.275200
    943    955    957     1   109.5600471 388.275200
    944    943    955     1   109.8000471 387.438400
    944    943    945     1   107.5800459 329.699200
    945    943    955     1   109.8000471 387.438400
    946    952    953     1   109.5600471 388.275200
    946    952    954     1   109.5600471 388.275200
    947    946    952     1   109.8000471 387.438400
    947    946    948     1   107.5800459 329.699200
    948    946    952     1   109.8000471 387.438400
    950    949    958     1   109.7800468 425.094400
    950    949    951     1   108.4600466 328.025600
    951    949    958     1   109.7800468 425.094400
    953    952   1644     1   109.7800468 425.094400
    953    952    954     1   108.4600466 328.025600
    954    952   1644     1   109.7800468 425.094400
    956    955   1658     1   109.7800468 425.094400
    956    955    957     1   108.4600466 328.025600
    957    955   1658     1   109.7800468 425.094400
    960    961    962     1   108.0100461 406.684800
    960    961    963     1   108.0100461 406.684800
    960    964    965     1   108.0100461 406.684800
    960    964    966     1   108.0100461 406.684800
    960    967    968     1   108.0100461 406.684800
    960    967    969     1   108.0100461 406.684800
    961    960    989     1   110.1100470 384.091200
    961    973    974     1   109.8000471 387.438400
    961    973    975     1   109.8000471 387.438400
    962    961    973     1   110.5600475 386.601600
    962    961    963     1   109.7500473 328.025600
    963    961    973     1   110.5600475 386.601600
    964    960    989     1   110.1100470 384.091200
    964    976    977     1   109.8000471 387.438400
    964    976    978     1   109.8000471 387.438400
    965    964    976     1   110.5600475 386.601600
    965    964    966     1   109.7500473 328.025600
    966    964    976     1   110.5600475 386.601600
    967    960    989     1   110.1100470 384.091200
    967    970    971     1   109.8000471 387.438400
    967    970    972     1   109.8000471 387.438400
    968    967    970     1   110.5600475 386.601600
    968    967    969     1   109.7500473 328.025600
    969    967    970     1   110.5600475 386.601600
    970    979    980     1   109.5600471 388.275200
    970    979    981     1   109.5600471 388.275200
    971    970    979     1   109.8000471 387.438400
    971    970    972     1   107.5800459 329.699200
    972    970    979     1   109.8000471 387.438400
    973    985    986     1   109.5600471 388.275200
    973    985    987     1   109.5600471 388.275200
    974    973    985     1   109.8000471 387.438400
    974    973    975     1   107.5800459 329.699200
    975    973    985     1   109.8000471 387.438400
    976    982    983     1   109.5600471 388.275200
    976    982    984     1   109.5600471 388.275200
    977    976    982     1   109.8000471 387.438400
    977    976    978     1   107.5800459 329.699200
    978    976    982     1   109.8000471 387.438400
    980    979    988     1   109.7800468 425.094400
    980    979    981     1   108.4600466 328.025600
    981    979    988     1   109.7800468 425.094400
    983    982   1672     1   109.7800468 425.094400
    983    982    984     1   108.4600466 328.025600
    984    982   1672     1   109.7800468 425.094400
    986    985   1686     1   109.7800468 425.094400
    986    985    987     1   108.4600466 328.025600
    987    985   1686     1   109.7800468 425.094400
    990    991    992     1   108.0100461 406.684800
    990    991    993     1   108.0100461 406.684800
    990    994    995     1   108.0100461 406.684800
    990    994    996     1   108.0100461 406.684800
    990    997    998     1   108.0100461 406.684800
    990    997    999     1   108.0100461 406.684800
    991    990   1019     1   110.1100470 384.091200
    991   1003   1004     1   109.8000471 387.438400
    991   1003   1005     1   109.8000471 387.438400
    992    991   1003     1   110.5600475 386.601600
    992    991    993     1   109.7500473 328.025600
    993    991   1003     1   110.5600475 386.601600
    994    990   1019     1   110.1100470 384.091200
    994   1006   1007     1   109.8000471 387.438400
    994   1006   1008     1   109.8000471 387.438400
    995    994   1006     1   110.5600475 386.601600
    995    994    996     1   109.7500473 328.025600
    996    994   1006     1   110.5600475 386.601600
    997    990   1019     1   110.1100470 384.091200
    997   1000   1001     1   109.8000471 387.438400
    997   1000   1002     1   109.8000471 387.438400
    998    997   1000     1   110.5600475 386.601600
    998    997    999     1   109.7500473 328.025600
    999    997   1000     1   110.5600475 386.601600
   1000   1009   1010     1   109.5600471 388.275200
   1000   1009   1011     1   109.5600471 388.275200
   1001   1000   1009     1   109.8000471 387.438400
   1001   1000   1002     1   107.5800459 329.699200
   1002   1000   1009     1   109.8000471 387.438400
   1003   1015   1016     1   109.5600471 388.275200
   1003   1015   1017     1   109.5600471 388.275200
   1004   1003   1015     1   109.8000471 387.438400
   1004   1003   1005     1   107.5800459 329.699200
   1005   1003   1015     1   109.8000471 387.438400
   1006   1012   1013     1   109.5600471 388.275200
   1006   1012   1014     1   109.5600471 388.275200
   1007   1006   1012     1   109.8000471 387.438400
   1007   1006   1008     1   107.5800459 329.699200
   1008   1006   1012     1   109.8000471 387.438400
   1010   1009   1018     1   109.7800468 425.094400
   1010   1009   1011     1   108.4600466 328.025600
   1011   1009   1018     1   109.7800468 425.094400
   1013   1012   1700     1   109.7800468 425.094400
   1013   1012   1014     1   108.4600466 328.025600
   1014   1012   1700     1   109.7800468 425.094400
   1016   1015   1714     1   109.7800468 425.094400
   1016   1015   1017     1   108.4600466 328.025600
   1017   1015   1714     1   109.7800468 425.094400
   1020   1021   1022     1   108.0100461 406.684800
   1020   1021   1023     1   108.0100461 406.684800
   1020   1024   1025     1   108.0100461 406.684800
   1020   1024   1026     1   108.0100461 406.684800
   1020   1027   1028     1   108.0100461 406.684800
   1020   1027   1029     1   108.0100461 406.684800
   1021   1020   1049     1   110.1100470 384.091200
   1021   1033   1034     1   109.8000471 387.438400
   1021   1033   1035     1   109.8000471 387.438400
   1022   1021   1033     1   110.5600475 386.601600
   1022   1021   1023     1   109.7500473 328.025600
   1023   1021   1033     1   110.5600475 386.601600
   1024   1020   1049     1   110.1100470 384.091200
   1024   1036   1037     1   109.8000471 387.438400
   1024   1036   1038     1   109.8000471 387.438400
   1025   1024   1036     1   110.5600475 386.601600
   1025   1024   1026     1   109.7500473 328.025600
   1026   1024   1036     1   110.5600475 386.601600
   1027   1020   1049     1   110.1100470 384.091200
   1027   1030   1031     1   109.8000471 387.438400
   1027   1030   1032     1   109.8000471 387.438400
   1028   1027   1030     1   110.5600475 386.601600
   1028   1027   1029     1   109.7500473 328.025600
   1029   1027   1030     1   110.5600475 386.601600
   1030   1039   1040     1   109.5600471 388.275200
   1030   1039   1041     1   109.5600471 388.275200
   1031   1030   1039     1   109.8000471 387.438400
   1031   1030   1032     1   107.5800459 329.699200
   1032   1030   1039     1   109.8000471 387.438400
   1033   1045   1046     1   109.5600471 388.275200
   1033   1045   1047     1   109.5600471 388.275200
   1034   1033   1045     1   109.8000471 387.438400
   1034   1033   1035     1   107.5800459 329.699200
   1035   1033   1045     1   109.8000471 387.438400
   1036   1042   1043     1   109.5600471 388.275200
   1036   1042   1044     1   109.5600471 388.275200
   1037   1036   1042     1   109.8000471 387.438400
   1037   1036   1038     1   107.5800459 329.699200
   1038   1036   1042     1   109.8000471 387.438400
   1040   1039   1048     1   109.7800468 425.094400
   1040   1039   1041     1   108.4600466 328.025600
   1041   1039   1048     1   109.7800468 425.094400
   1043   1042   1728     1   109.7800468 425.094400
   1043   1042   1044     1   108.4600466 328.025600
   1044   1042   1728     1   109.7800468 425.094400
   1046   1045   1742     1   109.7800468 425.094400
   1046   1045   1047     1   108.4600466 328.025600
   1047   1045   1742     1   109.7800468 425.094400
   1050   1051   1052     1   108.0100461 406.684800
   1050   1051   1053     1   108.0100461 406.684800
   1050   1054   1055     1   108.0100461 406.684800
   1050   1054   1056     1   108.0100461 406.684800
   1050   1057   1058     1   108.0100461 406.684800
   1050   1057   1059     1   108.0100461 406.684800
   1051   1050   1079     1   110.1100470 384.091200
   1051   1063   1064     1   109.8000471 387.438400
   1051   1063   1065     1   109.8000471 387.438400
   1052   1051   1063     1   110.5600475 386.601600
   1052   1051   1053     1   109.7500473 328.025600
   1053   1051   1063     1   110.5600475 386.601600
   1054   1050   1079     1   110.1100470 384.091200
   1054   1066   1067     1   109.8000471 387.438400
   1054   1066   1068     1   109.8000471 387.438400
   1055   1054   1066     1   110.5600475 386.601600
   1055   1054   1056     1   109.7500473 328.025600
   1056   1054   1066     1   110.5600475 386.601600
   1057   1050   1079     1   110.1100470 384.091200
   1057   1060   1061     1   109.8000471 387.438400
   1057   1060   1062     1   109.8000471 387.438400
   1058   1057   1060     1   110.5600475 386.601600
   1058   1057   1059     1   109.7500473 328.025600
   1059   1057   1060     1   110.5600475 386.601600
   1060   1069   1070     1   109.5600471 388.275200
   1060   1069   1071     1   109.5600471 388.275200
   1061   1060   1069     1   109.8000471 387.438400
   1061   1060   1062     1   107.5800459 329.699200
   1062   1060   1069     1   109.8000471 387.438400
   1063   1075   1076     1   109.5600471 388.275200
   1063   1075   1077     1   109.5600471 388.275200
   1064   1063   1075     1   109.8000471 387.438400
   1064   1063   1065     1   107.5800459 329.699200
   1065   1063   1075     1   109.8000471 387.438400
   1066   1072   1073     1   109.5600471 388.275200
   1066   1072   1074     1   109.5600471 388.275200
   1067   1066   1072     1   109.8000471 387.438400
   1067   1066   1068     1   107.5800459 329.699200
   1068   1066   1072     1   109.8000471 387.438400
   1070   1069   1078     1   109.7800468 425.094400
   1070   1069   1071     1   108.4600466 328.025600
   1071   1069   1078     1   109.7800468 425.094400
   1073   1072   1756     1   109.7800468 425.094400
   1073   1072   1074     1   108.4600466 328.025600
   1074   1072   1756     1   109.7800468 425.094400
   1076   1075   1770     1   109.7800468 425.094400
   1076   1075   1077     1   108.4600466 328.025600
   1077   1075   1770     1   109.7800468 425.094400
   1080   1081   1082     1   108.0100461 406.684800
   1080   1081   1083     1   108.0100461 406.684800
   1080   1084   1085     1   108.0100461 406.684800
   1080   1084   1086     1   108.0100461 406.684800
   1080   1087   1088     1   108.0100461 406.684800
   1080   1087   1089     1   108.0100461 406.684800
   1081   1080   1109     1   110.1100470 384.091200
   1081   1093   1094     1   109.8000471 387.438400
   1081   1093   1095     1   109.8000471 387.438400
   1082   1081   1093     1   110.5600475 386.601600
   1082   1081   1083     1   109.7500473 328.025600
   1083   1081   1093     1   110.5600475 386.601600
   1084   1080   1109     1   110.1100470 384.091200
   1084   1096   1097     1   109.8000471 387.438400
   1084   1096   1098     1   109.8000471 387.438400
   1085   1084   1096     1   110.5600475 386.601600
   1085   1084   1086     1   109.7500473 328.025600
   1086   1084   1096     1   110.5600475 386.601600
   1087   1080   1109     1   110.1100470 384.091200
   1087   1090   1091     1   109.8000471 387.438400
   1087   1090   1092     1   109.8000471 387.438400
   1088   1087   1090     1   110.5600475 386.601600
   1088   1087   1089     1   109.7500473 328.025600
   1089   1087   1090     1   110.5600475 386.601600
   1090   1099   1100     1   109.5600471 388.275200
   1090   1099   1101     1   109.5600471 388.275200
   1091   1090   1099     1   109.8000471 387.438400
   1091   1090   1092     1   107.5800459 329.699200
   1092   1090   1099     1   109.8000471 387.438400
   1093   1105   1106     1   109.5600471 388.275200
   1093   1105   1107     1   109.5600471 388.275200
   1094   1093   1105     1   109.8000471 387.438400
   1094   1093   1095     1   107.5800459 329.699200
   1095   1093   1105     1   109.8000471 387.438400
   1096   1102   1103     1   109.5600471 388.275200
   1096   1102   1104     1   109.5600471 388.275200
   1097   1096   1102     1   109.8000471 387.438400
   1097   1096   1098     1   107.5800459 329.699200
   1098   1096   1102     1   109.8000471 387.438400
   1100   1099   1108     1   109.7800468 425.094400
   1100   1099   1101     1   108.4600466 328.025600
   1101   1099   1108     1   109.7800468 425.094400
   1103   1102   1784     1   109.7800468 425.094400
   1103   1102   1104     1   108.4600466 328.025600
   1104   1102   1784     1   109.7800468 425.094400
   1106   1105   1798     1   109.7800468 425.094400
   1106   1105   1107     1   108.4600466 328.025600
   1107   1105   1798     1   109.7800468 425.094400
   1110   1111   1112     1   108.0100461 406.684800
   1110   1111   1113     1   108.0100461 406.684800
   1110   1114   1115     1   108.0100461 406.684800
   1110   1114   1116     1   108.0100461 406.684800
   1110   1117   1118     1   108.0100461 406.684800
   1110   1117   1119     1   108.0100461 406.684800
   1111   1110   1139     1   110.1100470 384.091200
   1111   1123   1124     1   109.8000471 387.438400
   1111   1123   1125     1   109.8000471 387.438400
   1112   1111   1123     1   110.5600475 386.601600
   1112   1111   1113     1   109.7500473 328.025600
   1113   1111   1123     1   110.5600475 386.601600
   1114   1110   1139     1   110.1100470 384.091200
   1114   1126   1127     1   109.8000471 387.438400
   1114   1126   1128     1   109.8000471 387.438400
   1115   1114   1126     1   110.5600475 386.601600
   1115   1114   1116     1   109.7500473 328.025600
   1116   1114   1126     1   110.5600475 386.601600
   1117   1110   1139     1   110.1100470 384.091200
   1117   1120   1121     1   109.8000471 387.438400
   1117   1120   1122     1   109.8000471 387.438400
   1118   1117   1120     1   110.5600475 386.601600
   1118   1117   1119     1   109.7500473 328.025600
   1119   1117   1120     1   110.5600475 386.601600
   1120   1129   1130     1   109.5600471 388.275200
   1120   1129   1131     1   109.5600471 388.275200
   1121   1120   1129     1   109.8000471 387.438400
   1121   1120   1122     1   107.5800459 329.699200
   1122   1120   1129     1   109.8000471 387.438400
   1123   1135   1136     1   109.5600471 388.275200
   1123   1135   1137     1   109.5600471 388.275200
   1124   1123   1135     1   109.8000471 387.438400
   1124   1123   1125     1   107.5800459 329.699200
   1125   1123   1135     1   109.8000471 387.438400
   1126   1132   1133     1   109.5600471 388.275200
   1126   1132   1134     1   109.5600471 388.275200
   1127   1126   1132     1   109.8000471 387.438400
   1127   1126   1128     1   107.5800459 329.699200
   1128   1126   1132     1   109.8000471 387.438400
   1130   1129   1138     1   109.7800468 425.094400
   1130   1129   1131     1   108.4600466 328.025600
   1131   1129   1138     1   109.7800468 425.094400
   1133   1132   1812     1   109.7800468 425.094400
   1133   1132   1134     1   108.4600466 328.025600
   1134   1132   1812     1   109.7800468 425.094400
   1136   1135   1826     1   109.7800468 425.094400
   1136   1135   1137     1   108.4600466 328.025600
   1137   1135   1826     1   109.7800468 425.094400
   1140   1141   1142     1   108.0100461 406.684800
   1140   1141   1143     1   108.0100461 406.684800
   1140   1144   1145     1   108.0100461 406.684800
   1140   1144   1146     1   108.0100461 406.684800
   1140   1147   1148     1   108.0100461 406.684800
   1140   1147   1149     1   108.0100461 406.684800
   1141   1140   1169     1   110.1100470 384.091200
   1141   1153   1154     1   109.8000471 387.438400
   1141   1153   1155     1   109.8000471 387.438400
   1142   1141   1153     1   110.5600475 386.601600
   1142   1141   1143     1   109.7500473 328.025600
   1143   1141   1153     1   110.5600475 386.601600
   1144   1140   1169     1   110.1100470 384.091200
   1144   1156   1157     1   109.8000471 387.438400
   1144   1156   1158     1   109.8000471 387.438400
   1145   1144   1156     1   110.5600475 386.601600
   1145   1144   1146     1   109.7500473 328.025600
   1146   1144   1156     1   110.5600475 386.601600
   1147   1140   1169     1   110.1100470 384.091200
   1147   1150   1151     1   109.8000471 387.438400
   1147   1150   1152     1   109.8000471 387.438400
   1148   1147   1150     1   110.5600475 386.601600
   1148   1147   1149     1   109.7500473 328.025600
   1149   1147   1150     1   110.5600475 386.601600
   1150   1159   1160     1   109.5600471 388.275200
   1150   1159   1161     1   109.5600471 388.275200
   1151   1150   1159     1   109.8000471 387.438400
   1151   1150   1152     1   107.5800459 329.699200
   1152   1150   1159     1   109.8000471 387.438400
   1153   1165   1166     1   109.5600471 388.275200
   1153   1165   1167     1   109.5600471 388.275200
   1154   1153   1165     1   109.8000471 387.438400
   1154   1153   1155     1   107.5800459 329.699200
   1155   1153   1165     1   109.8000471 387.438400
   1156   1162   1163     1   109.5600471 388.275200
   1156   1162   1164     1   109.5600471 388.275200
   1157   1156   1162     1   109.8000471 387.438400
   1157   1156   1158     1   107.5800459 329.699200
   1158   1156   1162     1   109.8000471 387.438400
   1160   1159   1168     1   109.7800468 425.094400
   1160   1159   1161     1   108.4600466 328.025600
   1161   1159   1168     1   109.7800468 425.094400
   1163   1162   1840     1   109.7800468 425.094400
   1163   1162   1164     1   108.4600466 328.025600
   1164   1162   1840     1   109.7800468 425.094400
   1166   1165   1854     1   109.7800468 425.094400
   1166   1165   1167     1   108.4600466 328.025600
   1167   1165   1854     1   109.7800468 425.094400
   1170   1171   1172     1   108.0100461 406.684800
   1170   1171   1173     1   108.0100461 406.684800
   1170   1174   1175     1   108.0100461 406.684800
   1170   1174   1176     1   108.0100461 406.684800
   1170   1177   1178     1   108.0100461 406.684800
   1170   1177   1179     1   108.0100461 406.684800
   1171   1170   1199     1   110.1100470 384.091200
   1171   1183   1184     1   109.8000471 387.438400
   1171   1183   1185     1   109.8000471 387.438400
   1172   1171   1183     1   110.5600475 386.601600
   1172   1171   1173     1   109.7500473 328.025600
   1173   1171   1183     1   110.5600475 386.601600
   1174   1170   1199     1   110.1100470 384.091200
   1174   1186   1187     1   109.8000471 387.438400
   1174   1186   1188     1   109.8000471 387.438400
   1175   1174   1186     1   110.5600475 386.601600
   1175   1174   1176     1   109.7500473 328.025600
   1176   1174   1186     1   110.5600475 386.601600
   1177   1170   1199     1   110.1100470 384.091200
   1177   1180   1181     1   109.8000471 387.438400
   1177   1180   1182     1   109.8000471 387.438400
   1178   1177   1180     1   110.5600475 386.601600
   1178   1177   1179     1   109.7500473 328.025600
   1179   1177   1180     1   110.5600475 386.601600
   1180   1189   1190     1   109.5600471 388.275200
   1180   1189   1191     1   109.5600471 388.275200
   1181   1180   1189     1   109.8000471 387.438400
   1181   1180   1182     1   107.5800459 329.699200
   1182   1180   1189     1   109.8000471 387.438400
   1183   1195   1196     1   109.5600471 388.275200
   1183   1195   1197     1   109.5600471 388.275200
   1184   1183   1195     1   109.8000471 387.438400
   1184   1183   1185     1   107.5800459 329.699200
   1185   1183   1195     1   109.8000471 387.438400
   1186   1192   1193     1   109.5600471 388.275200
   1186   1192   1194     1   109.5600471 388.275200
   1187   1186   1192     1   109.8000471 387.438400
   1187   1186   1188     1   107.5800459 329.699200
   1188   1186   1192     1   109.8000471 387.438400
   1190   1189   1198     1   109.7800468 425.094400
   1190   1189   1191     1   108.4600466 328.025600
   1191   1189   1198     1   109.7800468 425.094400
   1193   1192   1868     1   109.7800468 425.094400
   1193   1192   1194     1   108.4600466 328.025600
   1194   1192   1868     1   109.7800468 425.094400
   1196   1195   1882     1   109.7800468 425.094400
   1196   1195   1197     1   108.4600466 328.025600
   1197   1195   1882     1   109.7800468 425.094400
   1200   1201   1202     1   108.0100461 406.684800
   1200   1201   1203     1   108.0100461 406.684800
   1200   1204   1205     1   108.0100461 406.684800
   1200   1204   1206     1   108.0100461 406.684800
   1200   1207   1208     1   108.0100461 406.684800
   1200   1207   1209     1   108.0100461 406.684800
   1201   1200   1229     1   110.1100470 384.091200
   1201   1213   1214     1   109.8000471 387.438400
   1201   1213   1215     1   109.8000471 387.438400
   1202   1201   1213     1   110.5600475 386.601600
   1202   1201   1203     1   109.7500473 328.025600
   1203   1201   1213     1   110.5600475 386.601600
   1204   1200   1229     1   110.1100470 384.091200
   1204   1216   1217     1   109.8000471 387.438400
   1204   1216   1218     1   109.8000471 387.438400
   1205   1204   1216     1   110.5600475 386.601600
   1205   1204   1206     1   109.7500473 328.025600
   1206   1204   1216     1   110.5600475 386.601600
   1207   1200   1229     1   110.1100470 384.091200
   1207   1210   1211     1   109.8000471 387.438400
   1207   1210   1212     1   109.8000471 387.438400
   1208   1207   1210     1   110.5600475 386.601600
   1208   1207   1209     1   109.7500473 328.025600
   1209   1207   1210     1   110.5600475 386.601600
   1210   1219   1220     1   109.5600471 388.275200
   1210   1219   1221     1   109.5600471 388.275200
   1211   1210   1219     1   109.8000471 387.438400
   1211   1210   1212     1   107.5800459 329.699200
   1212   1210   1219     1   109.8000471 387.438400
   1213   1225   1226     1   109.5600471 388.275200
   1213   1225   1227     1   109.5600471 388.275200
   1214   1213   1225     1   109.8000471 387.438400
   1214   1213   1215     1   107.5800459 329.699200
   1215   1213   1225     1   109.8000471 387.438400
   1216   1222   1223     1   109.5600471 388.275200
   1216   1222   1224     1   109.5600471 388.275200
   1217   1216   1222     1   109.8000471 387.438400
   1217   1216   1218     1   107.5800459 329.699200
   1218   1216   1222     1   109.8000471 387.438400
   1220   1219   1228     1   109.7800468 425.094400
   1220   1219   1221     1   108.4600466 328.025600
   1221   1219   1228     1   109.7800468 425.094400
   1223   1222   1896     1   109.7800468 425.094400
   1223   1222   1224     1   108.4600466 328.025600
   1224   1222   1896     1   109.7800468 425.094400
   1226   1225   1910     1   109.7800468 425.094400
   1226   1225   1227     1   108.4600466 328.025600
   1227   1225   1910     1   109.7800468 425.094400
   1230   1231   1232     1   108.0100461 406.684800
   1230   1231   1233     1   108.0100461 406.684800
   1230   1234   1235     1   108.0100461 406.684800
   1230   1234   1236     1   108.0100461 406.684800
   1230   1237   1238     1   108.0100461 406.684800
   1230   1237   1239     1   108.0100461 406.684800
   1231   1230   1259     1   110.1100470 384.091200
   1231   1243   1244     1   109.8000471 387.438400
   1231   1243   1245     1   109.8000471 387.438400
   1232   1231   1243     1   110.5600475 386.601600
   1232   1231   1233     1   109.7500473 328.025600
   1233   1231   1243     1   110.5600475 386.601600
   1234   1230   1259     1   110.1100470 384.091200
   1234   1246   1247     1   109.8000471 387.438400
   1234   1246   1248     1   109.8000471 387.438400
   1235   1234   1246     1   110.5600475 386.601600
   1235   1234   1236     1   109.7500473 328.025600
   1236   1234   1246     1   110.5600475 386.601600
   1237   1230   1259     1   110.1100470 384.091200
   1237   1240   1241     1   109.8000471 387.438400
   1237   1240   1242     1   109.8000471 387.438400
   1238   1237   1240     1   110.5600475 386.601600
   1238   1237   1239     1   109.7500473 328.025600
   1239   1237   1240     1   110.5600475 386.601600
   1240   1249   1250     1   109.5600471 388.275200
   1240   1249   1251     1   109.5600471 388.275200
   1241   1240   1249     1   109.8000471 387.438400
   1241   1240   1242     1   107.5800459 329.699200
   1242   1240   1249     1   109.8000471 387.438400
   1243   1255   1256     1   109.5600471 388.275200
   1243   1255   1257     1   109.5600471 388.275200
   1244   1243   1255     1   109.8000471 387.438400
   1244   1243   1245     1   107.5800459 329.699200
   1245   1243   1255     1   109.8000471 387.438400
   1246   1252   1253     1   109.5600471 388.275200
   1246   1252   1254     1   109.5600471 388.275200
   1247   1246   1252     1   109.8000471 387.438400
   1247   1246   1248     1   107.5800459 329.699200
   1248   1246   1252     1   109.8000471 387.438400
   1250   1249   1258     1   109.7800468 425.094400
   1250   1249   1251     1   108.4600466 328.025600
   1251   1249   1258     1   109.7800468 425.094400
   1253   1252   1924     1   109.7800468 425.094400
   1253   1252   1254     1   108.4600466 328.025600
   1254   1252   1924     1   109.7800468 425.094400
   1256   1255   1938     1   109.7800468 425.094400
   1256   1255   1257     1   108.4600466 328.025600
   1257   1255   1938     1   109.7800468 425.094400
   1260   1261   1262     1   108.0100461 406.684800
   1260   1261   1263     1   108.0100461 406.684800
   1260   1264   1265     1   108.0100461 406.684800
   1260   1264   1266     1   108.0100461 406.684800
   1260   1267   1268     1   108.0100461 406.684800
   1260   1267   1269     1   108.0100461 406.684800
   1261   1260   1289     1   110.1100470 384.091200
   1261   1273   1274     1   109.8000471 387.438400
   1261   1273   1275     1   109.8000471 387.438400
   1262   1261   1273     1   110.5600475 386.601600
   1262   1261   1263     1   109.7500473 328.025600
   1263   1261   1273     1   110.5600475 386.601600
   1264   1260   1289     1   110.1100470 384.091200
   1264   1276   1277     1   109.8000471 387.438400
   1264   1276   1278     1   109.8000471 387.438400
   1265   1264   1276     1   110.5600475 386.601600
   1265   1264   1266     1   109.7500473 328.025600
   1266   1264   1276     1   110.5600475 386.601600
   1267   1260   1289     1   110.1100470 384.091200
   1267   1270   1271     1   109.8000471 387.438400
   1267   1270   1272     1   109.8000471 387.438400
   1268   1267   1270     1   110.5600475 386.601600
   1268   1267   1269     1   109.7500473 328.025600
   1269   1267   1270     1   110.5600475 386.601600
   1270   1279   1280     1   109.5600471 388.275200
   1270   1279   1281     1   109.5600471 388.275200
   1271   1270   1279     1   109.8000471 387.438400
   1271   1270   1272     1   107.5800459 329.699200
   1272   1270   1279     1   109.8000471 387.438400
   1273   1285   1286     1   109.5600471 388.275200
   1273   1285   1287     1   109.5600471 388.275200
   1274   1273   1285     1   109.8000471 387.438400
   1274   1273   1275     1   107.5800459 329.699200
   1275   1273   1285     1   109.8000471 387.438400
   1276   1282   1283     1   109.5600471 388.275200
   1276   1282   1284     1   109.5600471 388.275200
   1277   1276   1282     1   109.8000471 387.438400
   1277   1276   1278     1   107.5800459 329.699200
   1278   1276   1282     1   109.8000471 387.438400
   1280   1279   1288     1   109.7800468 425.094400
   1280   1279   1281     1   108.4600466 328.025600
   1281   1279   1288     1   109.7800468 425.094400
   1283   1282   1952     1   109.7800468 425.094400
   1283   1282   1284     1   108.4600466 328.025600
   1284   1282   1952     1   109.7800468 425.094400
   1286   1285   1966     1   109.7800468 425.094400
   1286   1285   1287     1   108.4600466 328.025600
   1287   1285   1966     1   109.7800468 425.094400
   1290   1291   1292     1   108.0100461 406.684800
   1290   1291   1293     1   108.0100461 406.684800
   1290   1294   1295     1   108.0100461 406.684800
   1290   1294   1296     1   108.0100461 406.684800
   1290   1297   1298     1   108.0100461 406.684800
   1290   1297   1299     1   108.0100461 406.684800
   1291   1290   1319     1   110.1100470 384.091200
   1291   1303   1304     1   109.8000471 387.438400
   1291   1303   1305     1   109.8000471 387.438400
   1292   1291   1303     1   110.5600475 386.601600
   1292   1291   1293     1   109.7500473 328.025600
   1293   1291   1303     1   110.5600475 386.601600
   1294   1290   1319     1   110.1100470 384.091200
   1294   1306   1307     1   109.8000471 387.438400
   1294   1306   1308     1   109.8000471 387.438400
   1295   1294   1306     1   110.5600475 386.601600
   1295   1294   1296     1   109.7500473 328.025600
   1296   1294   1306     1   110.5600475 386.601600
   1297   1290   1319     1   110.1100470 384.091200
   1297   1300   1301     1   109.8000471 387.438400
   1297   1300   1302     1   109.8000471 387.438400
   1298   1297   1300     1   110.5600475 386.601600
   1298   1297   1299     1   109.7500473 328.025600
   1299   1297   1300     1   110.5600475 386.601600
   1300   1309   1310     1   109.5600471 388.275200
   1300   1309   1311     1   109.5600471 388.275200
   1301   1300   1309     1   109.8000471 387.438400
   1301   1300   1302     1   107.5800459 329.699200
   1302   1300   1309     1   109.8000471 387.438400
   1303   1315   1316     1   109.5600471 388.275200
   1303   1315   1317     1   109.5600471 388.275200
   1304   1303   1315     1   109.8000471 387.438400
   1304   1303   1305     1   107.5800459 329.699200
   1305   1303   1315     1   109.8000471 387.438400
   1306   1312   1313     1   109.5600471 388.275200
   1306   1312   1314     1   109.5600471 388.275200
   1307   1306   1312     1   109.8000471 387.438400
   1307   1306   1308     1   107.5800459 329.699200
   1308   1306   1312     1   109.8000471 387.438400
   1310   1309   1318     1   109.7800468 425.094400
   1310   1309   1311     1   108.4600466 328.025600
   1311   1309   1318     1   109.7800468 425.094400
   1313   1312   1980     1   109.7800468 425.094400
   1313   1312   1314     1   108.4600466 328.025600
   1314   1312   1980     1   109.7800468 425.094400
   1316   1315   1994     1   109.7800468 425.094400
   1316   1315   1317     1   108.4600466 328.025600
   1317   1315   1994     1   109.7800468 425.094400
   1320   1321   1322     1   108.0100461 406.684800
   1320   1321   1323     1   108.0100461 406.684800
   1320   1324   1325     1   108.0100461 406.684800
   1320   1324   1326     1   108.0100461 406.684800
   1320   1327   1328     1   108.0100461 406.684800
   1320   1327   1329     1   108.0100461 406.684800
   1321   1320   1349     1   110.1100470 384.091200
   1321   1333   1334     1   109.8000471 387.438400
   1321   1333   1335     1   109.8000471 387.438400
   1322   1321   1333     1   110.5600475 386.601600
   1322   1321   1323     1   109.7500473 328.025600
   1323   1321   1333     1   110.5600475 386.601600
   1324   1320   1349     1   110.1100470 384.091200
   1324   1336   1337     1   109.8000471 387.438400
   1324   1336   1338     1   109.8000471 387.438400
   1325   1324   1336     1   110.5600475 386.601600
   1325   1324   1326     1   109.7500473 328.025600
   1326   1324   1336     1   110.5600475 386.601600
   1327   1320   1349     1   110.1100470 384.091200
   1327   1330   1331     1   109.8000471 387.438400
   1327   1330   1332     1   109.8000471 387.438400
   1328   1327   1330     1   110.5600475 386.601600
   1328   1327   1329     1   109.7500473 328.025600
   1329   1327   1330     1   110.5600475 386.601600
   1330   1339   1340     1   109.5600471 388.275200
   1330   1339   1341     1   109.5600471 388.275200
   1331   1330   1339     1   109.8000471 387.438400
   1331   1330   1332     1   107.5800459 329.699200
   1332   1330   1339     1   109.8000471 387.438400
   1333   1345   1346     1   109.5600471 388.275200
   1333   1345   1347     1   109.5600471 388.275200
   1334   1333   1345     1   109.8000471 387.438400
   1334   1333   1335     1   107.5800459 329.699200
   1335   1333   1345     1   109.8000471 387.438400
   1336   1342   1343     1   109.5600471 388.275200
   1336   1342   1344     1   109.5600471 388.275200
   1337   1336   1342     1   109.8000471 387.438400
   1337   1336   1338     1   107.5800459 329.699200
   1338   1336   1342     1   109.8000471 387.438400
   1340   1339   1348     1   109.7800468 425.094400
   1340   1339   1341     1   108.4600466 328.025600
   1341   1339   1348     1   109.7800468 425.094400
   1343   1342   2008     1   109.7800468 425.094400
   1343   1342   1344     1   108.4600466 328.025600
   1344   1342   2008     1   109.7800468 425.094400
   1346   1345   2022     1   109.7800468 425.094400
   1346   1345   1347     1   108.4600466 328.025600
   1347   1345   2022     1   109.7800468 425.094400
   1350   1351   1352     1   108.0100461 406.684800
   1350   1351   1353     1   108.0100461 406.684800
   1350   1354   1355     1   108.0100461 406.684800
   1350   1354   1356     1   108.0100461 406.684800
   1350   1357   1358     1   108.0100461 406.684800
   1350   1357   1359     1   108.0100461 406.684800
   1351   1350   1379     1   110.1100470 384.091200
   1351   1363   1364     1   109.8000471 387.438400
   1351   1363   1365     1   109.8000471 387.438400
   1352   1351   1363     1   110.5600475 386.601600
   1352   1351   1353     1   109.7500473 328.025600
   1353   1351   1363     1   110.5600475 386.601600
   1354   1350   1379     1   110.1100470 384.091200
   1354   1366   1367     1   109.8000471 387.438400
   1354   1366   1368     1   109.8000471 387.438400
   1355   1354   1366     1   110.5600475 386.601600
   1355   1354   1356     1   109.7500473 328.025600
   1356   1354   1366     1   110.5600475 386.601600
   1357   1350   1379     1   110.1100470 384.091200
   1357   1360   1361     1   109.8000471 387.438400
   1357   1360   1362     1   109.8000471 387.438400
   1358   1357   1360     1   110.5600475 386.601600
   1358   1357   1359     1   109.7500473 328.025600
   1359   1357   1360     1   110.5600475 386.601600
   1360   1369   1370     1   109.5600471 388.275200
   1360   1369   1371     1   109.5600471 388.275200
   1361   1360   1369     1   109.8000471 387.438400
   1361   1360   1362     1   107.5800459 329.699200
   1362   1360   1369     1   109.8000471 387.438400
   1363   1375   1376     1   109.5600471 388.275200
   1363   1375   1377     1   109.5600471 388.275200
   1364   1363   1375     1   109.8000471 387.438400
   1364   1363   1365     1   107.5800459 329.699200
   1365   1363   1375     1   109.8000471 387.438400
   1366   1372   1373     1   109.5600471 388.275200
   1366   1372   1374     1   109.5600471 388.275200
   1367   1366   1372     1   109.8000471 387.438400
   1367   1366   1368     1   107.5800459 329.699200
   1368   1366   1372     1   109.8000471 387.438400
   1370   1369   1378     1   109.7800468 425.094400
   1370   1369   1371     1   108.4600466 328.025600
   1371   1369   1378     1   109.7800468 425.094400
   1373   1372   2036     1   109.7800468 425.094400
   1373   1372   1374     1   108.4600466 328.025600
   1374   1372   2036     1   109.7800468 425.094400
   1376   1375   2050     1   109.7800468 425.094400
   1376   1375   1377     1   108.4600466 328.025600
   1377   1375   2050     1   109.7800468 425.094400
   1380   1383   1384     1   109.8000471 387.438400
   1380   1383   1385     1   109.8000471 387.438400
   1380   1389   1390     1   110.1100470 384.091200
   1380   1389   1391     1   110.1100470 384.091200
   1380   1389   1393     1   110.1100470 384.091200
   1381   1380   1383     1   110.5600475 386.601600
   1381   1380   1389     1   108.0100461 406.684800
   1381   1380   1382     1   109.7500473 328.025600
   1382   1380   1383     1   110.5600475 386.601600
   1382   1380   1389     1   108.0100461 406.684800
   1383   1386   1387     1   109.5600471 388.275200
   1383   1386   1388     1   109.5600471 388.275200
   1384   1383   1386     1   109.8000471 387.438400
   1384   1383   1385     1   107.5800459 329.699200
   1385   1383   1386     1   109.8000471 387.438400
   1387   1386   1392     1   109.7800468 425.094400
   1387   1386   1388     1   108.4600466 328.025600
   1388   1386   1392     1   109.7800468 425.094400
   1390   1389   1391     1   108.3000464 339.740800
   1390   1389   1393     1   108.3000464 339.740800
   1391   1389   1393     1   108.3000464 339.740800
   1394   1397   1398     1   109.8000471 387.438400
   1394   1397   1399     1   109.8000471 387.438400
   1394   1403   1404     1   110.1100470 384.091200
   1394   1403   1405     1   110.1100470 384.091200
   1394   1403   1407     1   110.1100470 384.091200
   1395   1394   1397     1   110.5600475 386.601600
   1395   1394   1403     1   108.0100461 406.684800
   1395   1394   1396     1   109.7500473 328.025600
   1396   1394   1397     1   110.5600475 386.601600
   1396   1394   1403     1   108.0100461 406.684800
   1397   1400   1401     1   109.5600471 388.275200
   1397   1400   1402     1   109.5600471 388.275200
   1398   1397   1400     1   109.8000471 387.438400
   1398   1397   1399     1   107.5800459 329.699200
   1399   1397   1400     1   109.8000471 387.438400
   1401   1400   1406     1   109.7800468 425.094400
   1401   1400   1402     1   108.4600466 328.025600
   1402   1400   1406     1   109.7800468 425.094400
   1404   1403   1405     1   108.3000464 339.740800
   1404   1403   1407     1   108.3000464 339.740800
   1405   1403   1407     1   108.3000464 339.740800
   1408   1411   1412     1   109.8000471 387.438400
   1408   1411   1413     1   109.8000471 387.438400
   1408   1417   1418     1   110.1100470 384.091200
   1408   1417   1419     1   110.1100470 384.091200
   1408   1417   1421     1   110.1100470 384.091200
   1409   1408   1411     1   110.5600475 386.601600
   1409   1408   1417     1   108.0100461 406.684800
   1409   1408   1410     1   109.7500473 328.025600
   1410   1408   1411     1   110.5600475 386.601600
   1410   1408   1417     1   108.0100461 406.684800
   1411   1414   1415     1   109.5600471 388.275200
   1411   1414   1416     1   109.5600471 388.275200
   1412   1411   1414     1   109.8000471 387.438400
   1412   1411   1413     1   107.5800459 329.699200
   1413   1411   1414     1   109.8000471 387.438400
   1415   1414   1420     1   109.7800468 425.094400
   1415   1414   1416     1   108.4600466 328.025600
   1416   1414   1420     1   109.7800468 425.094400
   1418   1417   1419     1   108.3000464 339.740800
   1418   1417   1421     1   108.3000464 339.740800
   1419   1417   1421     1   108.3000464 339.740800
   1422   1425   1426     1   109.8000471 387.438400
   1422   1425   1427     1   109.8000471 387.438400
   1422   1431   1432     1   110.1100470 384.091200
   1422   1431   1433     1   110.1100470 384.091200
   1422   1431   1435     1   110.1100470 384.091200
   1423   1422   1425     1   110.5600475 386.601600
   1423   1422   1431     1   108.0100461 406.684800
   1423   1422   1424     1   109.7500473 328.025600
   1424   1422   1425     1   110.5600475 386.601600
   1424   1422   1431     1   108.0100461 406.684800
   1425   1428   1429     1   109.5600471 388.275200
   1425   1428   1430     1   109.5600471 388.275200
   1426   1425   1428     1   109.8000471 387.438400
   1426   1425   1427     1   107.5800459 329.699200
   1427   1425   1428     1   109.8000471 387.438400
   1429   1428   1434     1   109.7800468 425.094400
   1429   1428   1430     1   108.4600466 328.025600
   1430   1428   1434     1   109.7800468 425.094400
   1432   1431   1433     1   108.3000464 339.740800
   1432   1431   1435     1   108.3000464 339.740800
   1433   1431   1435     1   108.3000464 339.740800
   1436   1439   1440     1   109.8000471 387.438400
   1436   1439   1441     1   109.8000471 387.438400
   1436   1445   1446     1   110.1100470 384.091200
   1436   1445   1447     1   110.1100470 384.091200
   1436   1445   1449     1   110.1100470 384.091200
   1437   1436   1439     1   110.5600475 386.601600
   1437   1436   1445     1   108.0100461 406.684800
   1437   1436   1438     1   109.7500473 328.025600
   1438   1436   1439     1   110.5600475 386.601600
   1438   1436   1445     1   108.0100461 406.684800
   1439   1442   1443     1   109.5600471 388.275200
   1439   1442   1444     1   109.5600471 388.275200
   1440   1439   1442     1   109.8000471 387.438400
   1440   1439   1441     1   107.5800459 329.699200
   1441   1439   1442     1   109.8000471 387.438400
   1443   1442   1448     1   109.7800468 425.094400
   1443   1442   1444     1   108.4600466 328.025600
   1444   1442   1448     1   109.7800468 425.094400
   1446   1445   1447     1   108.3000464 339.740800
   1446   1445   1449     1   108.3000464 339.740800
   1447   1445   1449     1   108.3000464 339.740800
   1450   1453   1454     1   109.8000471 387.438400
   1450   1453   1455     1   109.8000471 387.438400
   1450   1459   1460     1   110.1100470 384.091200
   1450   1459   1461     1   110.1100470 384.091200
   1450   1459   1463     1   110.1100470 384.091200
   1451   1450   1453     1   110.5600475 386.601600
   1451   1450   1459     1   108.0100461 406.684800
   1451   1450   1452     1   109.7500473 328.025600
   1452   1450   1453     1   110.5600475 386.601600
   1452   1450   1459     1   108.0100461 406.684800
   1453   1456   1457     1   109.5600471 388.275200
   1453   1456   1458     1   109.5600471 388.275200
   1454   1453   1456     1   109.8000471 387.438400
   1454   1453   1455     1   107.5800459 329.699200
   1455   1453   1456     1   109.8000471 387.438400
   1457   1456   1462     1   109.7800468 425.094400
   1457   1456   1458     1   108.4600466 328.025600
   1458   1456   1462     1   109.7800468 425.094400
   1460   1459   1461     1   108.3000464 339.740800
   1460   1459   1463     1   108.3000464 339.740800
   1461   1459   1463     1   108.3000464 339.740800
   1464   1467   1468     1   109.8000471 387.438400
   1464   1467   1469     1   109.8000471 387.438400
   1464   1473   1474     1   110.1100470 384.091200
   1464   1473   1475     1   110.1100470 384.091200
   1464   1473   1477     1   110.1100470 384.091200
   1465   1464   1467     1   110.5600475 386.601600
   1465   1464   1473     1   108.0100461 406.684800
   1465   1464   1466     1   109.7500473 328.025600
   1466   1464   1467     1   110.5600475 386.601600
   1466   1464   1473     1   108.0100461 406.684800
   1467   1470   1471     1   109.5600471 388.275200
   1467   1470   1472     1   109.5600471 388.275200
   1468   1467   1470     1   109.8000471 387.438400
   1468   1467   1469     1   107.5800459 329.699200
   1469   1467   1470     1   109.8000471 387.438400
   1471   1470   1476     1   109.7800468 425.094400
   1471   1470   1472     1   108.4600466 328.025600
   1472   1470   1476     1   109.7800468 425.094400
   1474   1473   1475     1   108.3000464 339.740800
   1474   1473   1477     1   108.3000464 339.740800
   1475   1473   1477     1   108.3000464 339.740800
   1478   1481   1482     1   109.8000471 387.438400
   1478   1481   1483     1   109.8000471 387.438400
   1478   1487   1488     1   110.1100470 384.091200
   1478   1487   1489     1   110.1100470 384.091200
   1478   1487   1491     1   110.1100470 384.091200
   1479   1478   1481     1   110.5600475 386.601600
   1479   1478   1487     1   108.0100461 406.684800
   1479   1478   1480     1   109.7500473 328.025600
   1480   1478   1481     1   110.5600475 386.601600
   1480   1478   1487     1   108.0100461 406.684800
   1481   1484   1485     1   109.5600471 388.275200
   1481   1484   1486     1   109.5600471 388.275200
   1482   1481   1484     1   109.8000471 387.438400
   1482   1481   1483     1   107.5800459 329.699200
   1483   1481   1484     1   109.8000471 387.438400
   1485   1484   1490     1   109.7800468 425.094400
   1485   1484   1486     1   108.4600466 328.025600
   1486   1484   1490     1   109.7800468 425.094400
   1488   1487   1489     1   108.3000464 339.740800
   1488   1487   1491     1   108.3000464 339.740800
   1489   1487   1491     1   108.3000464 339.740800
   1492   1495   1496     1   109.8000471 387.438400
   1492   1495   1497     1   109.8000471 387.438400
   1492   1501   1502     1   110.1100470 384.091200
   1492   1501   1503     1   110.1100470 384.091200
   1492   1501   1505     1   110.1100470 384.091200
   1493   1492   1495     1   110.5600475 386.601600
   1493   1492   1501     1   108.0100461 406.684800
   1493   1492   1494     1   109.7500473 328.025600
   1494   1492   1495     1   110.5600475 386.601600
   1494   1492   1501     1   108.0100461 406.684800
   1495   1498   1499     1   109.5600471 388.275200
   1495   1498   1500     1   109.5600471 388.275200
   1496   1495   1498     1   109.8000471 387.438400
   1496   1495   1497     1   107.5800459 329.699200
   1497   1495   1498     1   109.8000471 387.438400
   1499   1498   1504     1   109.7800468 425.094400
   1499   1498   1500     1   108.4600466 328.025600
   1500   1498   1504     1   109.7800468 425.094400
   1502   1501   1503     1   108.3000464 339.740800
   1502   1501   1505     1   108.3000464 339.740800
   1503   1501   1505     1   108.3000464 339.740800
   1506   1509   1510     1   109.8000471 387.438400
   1506   1509   1511     1   109.8000471 387.438400
   1506   1515   1516     1   110.1100470 384.091200
   1506   1515   1517     1   110.1100470 384.091200
   1506   1515   1519     1   110.1100470 384.091200
   1507   1506   1509     1   110.5600475 386.601600
   1507   1506   1515     1   108.0100461 406.684800
   1507   1506   1508     1   109.7500473 328.025600
   1508   1506   1509     1   110.5600475 386.601600
   1508   1506   1515     1   108.0100461 406.684800
   1509   1512   1513     1   109.5600471 388.275200
   1509   1512   1514     1   109.5600471 388.275200
   1510   1509   1512     1   109.8000471 387.438400
   1510   1509   1511     1   107.5800459 329.699200
   1511   1509   1512     1   109.8000471 387.438400
   1513   1512   1518     1   109.7800468 425.094400
   1513   1512   1514     1   108.4600466 328.025600
   1514   1512   1518     1   109.7800468 425.094400
   1516   1515   1517     1   108.3000464 339.740800
   1516   1515   1519     1   108.3000464 339.740800
   1517   1515   1519     1   108.3000464 339.740800
   1520   1523   1524     1   109.8000471 387.438400
   1520   1523   1525     1   109.8000471 387.438400
   1520   1529   1530     1   110.1100470 384.091200
   1520   1529   1531     1   110.1100470 384.091200
   1520   1529   1533     1   110.1100470 384.091200
   1521   1520   1523     1   110.5600475 386.601600
   1521   1520   1529     1   108.0100461 406.684800
   1521   1520   1522     1   109.7500473 328.025600
   1522   1520   1523     1   110.5600475 386.601600
   1522   1520   1529     1   108.0100461 406.684800
   1523   1526   1527     1   109.5600471 388.275200
   1523   1526   1528     1   109.5600471 388.275200
   1524   1523   1526     1   109.8000471 387.438400
   1524   1523   1525     1   107.5800459 329.699200
   1525   1523   1526     1   109.8000471 387.438400
   1527   1526   1532     1   109.7800468 425.094400
   1527   1526   1528     1   108.4600466 328.025600
   1528   1526   1532     1   109.7800468 425.094400
   1530   1529   1531     1   108.3000464 339.740800
   1530   1529   1533     1   108.3000464 339.740800
   1531   1529   1533     1   108.3000464 339.740800
   1534   1537   1538     1   109.8000471 387.438400
   1534   1537   1539     1   109.8000471 387.438400
   1534   1543   1544     1   110.1100470 384.091200
   1534   1543   1545     1   110.1100470 384.091200
   1534   1543   1547     1   110.1100470 384.091200
   1535   1534   1537     1   110.5600475 386.601600
   1535   1534   1543     1   108.0100461 406.684800
   1535   1534   1536     1   109.7500473 328.025600
   1536   1534   1537     1   110.5600475 386.601600
   1536   1534   1543     1   108.0100461 406.684800
   1537   1540   1541     1   109.5600471 388.275200
   1537   1540   1542     1   109.5600471 388.275200
   1538   1537   1540     1   109.8000471 387.438400
   1538   1537   1539     1   107.5800459 329.699200
   1539   1537   1540     1   109.8000471 387.438400
   1541   1540   1546     1   109.7800468 425.094400
   1541   1540   1542     1   108.4600466 328.025600
   1542   1540   1546     1   109.7800468 425.094400
   1544   1543   1545     1   108.3000464 339.740800
   1544   1543   1547     1   108.3000464 339.740800
   1545   1543   1547     1   108.3000464 339.740800
   1548   1551   1552     1   109.8000471 387.438400
   1548   1551   1553     1   109.8000471 387.438400
   1548   1557   1558     1   110.1100470 384.091200
   1548   1557   1559     1   110.1100470 384.091200
   1548   1557   1561     1   110.1100470 384.091200
   1549   1548   1551     1   110.5600475 386.601600
   1549   1548   1557     1   108.0100461 406.684800
   1549   1548   1550     1   109.7500473 328.025600
   1550   1548   1551     1   110.5600475 386.601600
   1550   1548   1557     1   108.0100461 406.684800
   1551   1554   1555     1   109.5600471 388.275200
   1551   1554   1556     1   109.5600471 388.275200
   1552   1551   1554     1   109.8000471 387.438400
   1552   1551   1553     1   107.5800459 329.699200
   1553   1551   1554     1   109.8000471 387.438400
   1555   1554   1560     1   109.7800468 425.094400
   1555   1554   1556     1   108.4600466 328.025600
   1556   1554   1560     1   109.7800468 425.094400
   1558   1557   1559     1   108.3000464 339.740800
   1558   1557   1561     1   108.3000464 339.740800
   1559   1557   1561     1   108.3000464 339.740800
   1562   1565   1566     1   109.8000471 387.438400
   1562   1565   1567     1   109.8000471 387.438400
   1562   1571   1572     1   110.1100470 384.091200
   1562   1571   1573     1   110.1100470 384.091200
   1562   1571   1575     1   110.1100470 384.091200
   1563   1562   1565     1   110.5600475 386.601600
   1563   1562   1571     1   108.0100461 406.684800
   1563   1562   1564     1   109.7500473 328.025600
   1564   1562   1565     1   110.5600475 386.601600
   1564   1562   1571     1   108.0100461 406.684800
   1565   1568   1569     1   109.5600471 388.275200
   1565   1568   1570     1   109.5600471 388.275200
   1566   1565   1568     1   109.8000471 387.438400
   1566   1565   1567     1   107.5800459 329.699200
   1567   1565   1568     1   109.8000471 387.438400
   1569   1568   1574     1   109.7800468 425.094400
   1569   1568   1570     1   108.4600466 328.025600
   1570   1568   1574     1   109.7800468 425.094400
   1572   1571   1573     1   108.3000464 339.740800
   1572   1571   1575     1   108.3000464 339.740800
   1573   1571   1575     1   108.3000464 339.740800
   1576   1579   1580     1   109.8000471 387.438400
   1576   1579   1581     1   109.8000471 387.438400
   1576   1585   1586     1   110.1100470 384.091200
   1576   1585   1587     1   110.1100470 384.091200
   1576   1585   1589     1   110.1100470 384.091200
   1577   1576   1579     1   110.5600475 386.601600
   1577   1576   1585     1   108.0100461 406.684800
   1577   1576   1578     1   109.7500473 328.025600
   1578   1576   1579     1   110.5600475 386.601600
   1578   1576   1585     1   108.0100461 406.684800
   1579   1582   1583     1   109.5600471 388.275200
   1579   1582   1584     1   109.5600471 388.275200
   1580   1579   1582     1   109.8000471 387.438400
   1580   1579   1581     1   107.5800459 329.699200
   1581   1579   1582     1   109.8000471 387.438400
   1583   1582   1588     1   109.7800468 425.094400
   1583   1582   1584     1   108.4600466 328.025600
   1584   1582   1588     1   109.7800468 425.094400
   1586   1585   1587     1   108.3000464 339.740800
   1586   1585   1589     1   108.3000464 339.740800
   1587   1585   1589     1   108.3000464 339.740800
   1590   1593   1594     1   109.8000471 387.438400
   1590   1593   1595     1   109.8000471 387.438400
   1590   1599   1600     1   110.1100470 384.091200
   1590   1599   1601     1   110.1100470 384.091200
   1590   1599   1603     1   110.1100470 384.091200
   1591   1590   1593     1   110.5600475 386.601600
   1591   1590   1599     1   108.0100461 406.684800
   1591   1590   1592     1   109.7500473 328.025600
   1592   1590   1593     1   110.5600475 386.601600
   1592   1590   1599     1   108.0100461 406.684800
   1593   1596   1597     1   109.5600471 388.275200
   1593   1596   1598     1   109.5600471 388.275200
   1594   1593   1596     1   109.8000471 387.438400
   1594   1593   1595     1   107.5800459 329.699200
   1595   1593   1596     1   109.8000471 387.438400
   1597   1596   1602     1   109.7800468 425.094400
   1597   1596   1598     1   108.4600466 328.025600
   1598   1596   1602     1   109.7800468 425.094400
   1600   1599   1601     1   108.3000464 339.740800
   1600   1599   1603     1   108.3000464 339.740800
   1601   1599   1603     1   108.3000464 339.740800
   1604   1607   1608     1   109.8000471 387.438400
   1604   1607   1609     1   109.8000471 387.438400
   1604   1613   1614     1   110.1100470 384.091200
   1604   1613   1615     1   110.1100470 384.091200
   1604   1613   1617     1   110.1100470 384.091200
   1605   1604   1607     1   110.5600475 386.601600
   1605   1604   1613     1   108.0100461 406.684800
   1605   1604   1606     1   109.7500473 328.025600
   1606   1604   1607     1   110.5600475 386.601600
   1606   1604   1613     1   108.0100461 406.684800
   1607   1610   1611     1   109.5600471 388.275200
   1607   1610   1612     1   109.5600471 388.275200
   1608   1607   1610     1   109.8000471 387.438400
   1608   1607   1609     1   107.5800459 329.699200
   1609   1607   1610     1   109.8000471 387.438400
   1611   1610   1616     1   109.7800468 425.094400
   1611   1610   1612     1   108.4600466 328.025600
   1612   1610   1616     1   109.7800468 425.094400
   1614   1613   1615     1   108.3000464 339.740800
   1614   1613   1617     1   108.3000464 339.740800
   1615   1613   1617     1   108.3000464 339.740800
   1618   1621   1622     1   109.8000471 387.438400
   1618   1621   1623     1   109.8000471 387.438400
   1618   1627   1628     1   110.1100470 384.091200
   1618   1627   1629     1   110.1100470 384.091200
   1618   1627   1631     1   110.1100470 384.091200
   1619   1618   1621     1   110.5600475 386.601600
   1619   1618   1627     1   108.0100461 406.684800
   1619   1618   1620     1   109.7500473 328.025600
   1620   1618   1621     1   110.5600475 386.601600
   1620   1618   1627     1   108.0100461 406.684800
   1621   1624   1625     1   109.5600471 388.275200
   1621   1624   1626     1   109.5600471 388.275200
   1622   1621   1624     1   109.8000471 387.438400
   1622   1621   1623     1   107.5800459 329.699200
   1623   1621   1624     1   109.8000471 387.438400
   1625   1624   1630     1   109.7800468 425.094400
   1625   1624   1626     1   108.4600466 328.025600
   1626   1624   1630     1   109.7800468 425.094400
   1628   1627   1629     1   108.3000464 339.740800
   1628   1627   1631     1   108.3000464 339.740800
   1629   1627   1631     1   108.3000464 339.740800
   1632   1635   1636     1   109.8000471 387.438400
   1632   1635   1637     1   109.8000471 387.438400
   1632   1641   1642     1   110.1100470 384.091200
   1632   1641   1643     1   110.1100470 384.091200
   1632   1641   1645     1   110.1100470 384.091200
   1633   1632   1635     1   110.5600475 386.601600
   1633   1632   1641     1   108.0100461 406.684800
   1633   1632   1634     1   109.7500473 328.025600
   1634   1632   1635     1   110.5600475 386.601600
   1634   1632   1641     1   108.0100461 406.684800
   1635   1638   1639     1   109.5600471 388.275200
   1635   1638   1640     1   109.5600471 388.275200
   1636   1635   1638     1   109.8000471 387.438400
   1636   1635   1637     1   107.5800459 329.699200
   1637   1635   1638     1   109.8000471 387.438400
   1639   1638   1644     1   109.7800468 425.094400
   1639   1638   1640     1   108.4600466 328.025600
   1640   1638   1644     1   109.7800468 425.094400
   1642   1641   1643     1   108.3000464 339.740800
   1642   1641   1645     1   108.3000464 339.740800
   1643   1641   1645     1   108.3000464 339.740800
   1646   1649   1650     1   109.8000471 387.438400
   1646   1649   1651     1   109.8000471 387.438400
   1646   1655   1656     1   110.1100470 384.091200
   1646   1655   1657     1   110.1100470 384.091200
   1646   1655   1659     1   110.1100470 384.091200
   1647   1646   1649     1   110.5600475 386.601600
   1647   1646   1655     1   108.0100461 406.684800
   1647   1646   1648     1   109.7500473 328.025600
   1648   1646   1649     1   110.5600475 386.601600
   1648   1646   1655     1   108.0100461 406.684800
   1649   1652   1653     1   109.5600471 388.275200
   1649   1652   1654     1   109.5600471 388.275200
   1650   1649   1652     1   109.8000471 387.438400
   1650   1649   1651     1   107.5800459 329.699200
   1651   1649   1652     1   109.8000471 387.438400
   1653   1652   1658     1   109.7800468 425.094400
   1653   1652   1654     1   108.4600466 328.025600
   1654   1652   1658     1   109.7800468 425.094400
   1656   1655   1657     1   108.3000464 339.740800
   1656   1655   1659     1   108.3000464 339.740800
   1657   1655   1659     1   108.3000464 339.740800
   1660   1663   1664     1   109.8000471 387.438400
   1660   1663   1665     1   109.8000471 387.438400
   1660   1669   1670     1   110.1100470 384.091200
   1660   1669   1671     1   110.1100470 384.091200
   1660   1669   1673     1   110.1100470 384.091200
   1661   1660   1663     1   110.5600475 386.601600
   1661   1660   1669     1   108.0100461 406.684800
   1661   1660   1662     1   109.7500473 328.025600
   1662   1660   1663     1   110.5600475 386.601600
   1662   1660   1669     1   108.0100461 406.684800
   1663   1666   1667     1   109.5600471 388.275200
   1663   1666   1668     1   109.5600471 388.275200
   1664   1663   1666     1   109.8000471 387.438400
   1664   1663   1665     1   107.5800459 329.699200
   1665   1663   1666     1   109.8000471 387.438400
   1667   1666   1672     1   109.7800468 425.094400
   1667   1666   1668     1   108.4600466 328.025600
   1668   1666   1672     1   109.7800468 425.094400
   1670   1669   1671     1   108.3000464 339.740800
   1670   1669   1673     1   108.3000464 339.740800
   1671   1669   1673     1   108.3000464 339.740800
   1674   1677   1678     1   109.8000471 387.438400
   1674   1677   1679     1   109.8000471 387.438400
   1674   1683   1684     1   110.1100470 384.091200
   1674   1683   1685     1   110.1100470 384.091200
   1674   1683   1687     1   110.1100470 384.091200
   1675   1674   1677     1   110.5600475 386.601600
   1675   1674   1683     1   108.0100461 406.684800
   1675   1674   1676     1   109.7500473 328.025600
   1676   1674   1677     1   110.5600475 386.601600
   1676   1674   1683     1   108.0100461 406.684800
   1677   1680   1681     1   109.5600471 388.275200
   1677   1680   1682     1   109.5600471 388.275200
   1678   1677   1680     1   109.8000471 387.438400
   1678   1677   1679     1   107.5800459 329.699200
   1679   1677   1680     1   109.8000471 387.438400
   1681   1680   1686     1   109.7800468 425.094400
   1681   1680   1682     1   108.4600466 328.025600
   1682   1680   1686     1   109.7800468 425.094400
   1684   1683   1685     1   108.3000464 339.740800
   1684   1683   1687     1   108.3000464 339.740800
   1685   1683   1687     1   108.3000464 339.740800
   1688   1691   1692     1   109.8000471 387.438400
   1688   1691   1693     1   109.8000471 387.438400
   1688   1697   1698     1   110.1100470 384.091200
   1688   1697   1699     1   110.1100470 384.091200
   1688   1697   1701     1   110.1100470 384.091200
   1689   1688   1691     1   110.5600475 386.601600
   1689   1688   1697     1   108.0100461 406.684800
   1689   1688   1690     1   109.7500473 328.025600
   1690   1688   1691     1   110.5600475 386.601600
   1690   1688   1697     1   108.0100461 406.684800
   1691   1694   1695     1   109.5600471 388.275200
   1691   1694   1696     1   109.5600471 388.275200
   1692   1691   1694     1   109.8000471 387.438400
   1692   1691   1693     1   107.5800459 329.699200
   1693   1691   1694     1   109.8000471 387.438400
   1695   1694   1700     1   109.7800468 425.094400
   1695   1694   1696     1   108.4600466 328.025600
   1696   1694   1700     1   109.7800468 425.094400
   1698   1697   1699     1   108.3000464 339.740800
   1698   1697   1701     1   108.3000464 339.740800
   1699   1697   1701     1   108.3000464 339.740800
   1702   1705   1706     1   109.8000471 387.438400
   1702   1705   1707     1   109.8000471 387.438400
   1702   1711   1712     1   110.1100470 384.091200
   1702   1711   1713     1   110.1100470 384.091200
   1702   1711   1715     1   110.1100470 384.091200
   1703   1702   1705     1   110.5600475 386.601600
   1703   1702   1711     1   108.0100461 406.684800
   1703   1702   1704     1   109.7500473 328.025600
   1704   1702   1705     1   110.5600475 386.601600
   1704   1702   1711     1   108.0100461 406.684800
   1705   1708   1709     1   109.5600471 388.275200
   1705   1708   1710     1   109.5600471 388.275200
   1706   1705   1708     1   109.8000471 387.438400
   1706   1705   1707     1   107.5800459 329.699200
   1707   1705   1708     1   109.8000471 387.438400
   1709   1708   1714     1   109.7800468 425.094400
   1709   1708   1710     1   108.4600466 328.025600
   1710   1708   1714     1   109.7800468 425.094400
   1712   1711   1713     1   108.3000464 339.740800
   1712   1711   1715     1   108.3000464 339.740800
   1713   1711   1715     1   108.3000464 339.740800
   1716   1719   1720     1   109.8000471 387.438400
   1716   1719   1721     1   109.8000471 387.438400
   1716   1725   1726     1   110.1100470 384.091200
   1716   1725   1727     1   110.1100470 384.091200
   1716   1725   1729     1   110.1100470 384.091200
   1717   1716   1719     1   110.5600475 386.601600
   1717   1716   1725     1   108.0100461 406.684800
   1717   1716   1718     1   109.7500473 328.025600
   1718   1716   1719     1   110.5600475 386.601600
   1718   1716   1725     1   108.0100461 406.684800
   1719   1722   1723     1   109.5600471 388.275200
   1719   1722   1724     1   109.5600471 388.275200
   1720   1719   1722     1   109.8000471 387.438400
   1720   1719   1721     1   107.5800459 329.699200
   1721   1719   1722     1   109.8000471 387.438400
   1723   1722   1728     1   109.7800468 425.094400
   1723   1722   1724     1   108.4600466 328.025600
   1724   1722   1728     1   109.7800468 425.094400
   1726   1725   1727     1   108.3000464 339.740800
   1726   1725   1729     1   108.3000464 339.740800
   1727   1725   1729     1   108.3000464 339.740800
   1730   1733   1734     1   109.8000471 387.438400
   1730   1733   1735     1   109.8000471 387.438400
   1730   1739   1740     1   110.1100470 384.091200
   1730   1739   1741     1   110.1100470 384.091200
   1730   1739   1743     1   110.1100470 384.091200
   1731   1730   1733     1   110.5600475 386.601600
   1731   1730   1739     1   108.0100461 406.684800
   1731   1730   1732     1   109.7500473 328.025600
   1732   1730   1733     1   110.5600475 386.601600
   1732   1730   1739     1   108.0100461 406.684800
   1733   1736   1737     1   109.5600471 388.275200
   1733   1736   1738     1   109.5600471 388.275200
   1734   1733   1736     1   109.8000471 387.438400
   1734   1733   1735     1   107.5800459 329.699200
   1735   1733   1736     1   109.8000471 387.438400
   1737   1736   1742     1   109.7800468 425.094400
   1737   1736   1738     1   108.4600466 328.025600
   1738   1736   1742     1   109.7800468 425.094400
   1740   1739   1741     1   108.3000464 339.740800
   1740   1739   1743     1   108.3000464 339.740800
   1741   1739   1743     1   108.3000464 339.740800
   1744   1747   1748     1   109.8000471 387.438400
   1744   1747   1749     1   109.8000471 387.438400
   1744   1753   1754     1   110.1100470 384.091200
   1744   1753   1755     1   110.1100470 384.091200
   1744   1753   1757     1   110.1100470 384.091200
   1745   1744   1747     1   110.5600475 386.601600
   1745   1744   1753     1   108.0100461 406.684800
   1745   1744   1746     1   109.7500473 328.025600
   1746   1744   1747     1   110.5600475 386.601600
   1746   1744   1753     1   108.0100461 406.684800
   1747   1750   1751     1   109.5600471 388.275200
   1747   1750   1752     1   109.5600471 388.275200
   1748   1747   1750     1   109.8000471 387.438400
   1748   1747   1749     1   107.5800459 329.699200
   1749   1747   1750     1   109.8000471 387.438400
   1751   1750   1756     1   109.7800468 425.094400
   1751   1750   1752     1   108.4600466 328.025600
   1752   1750   1756     1   109.7800468 425.094400
   1754   1753   1755     1   108.3000464 339.740800
   1754   1753   1757     1   108.3000464 339.740800
   1755   1753   1757     1   108.3000464 339.740800
   1758   1761   1762     1   109.8000471 387.438400
   1758   1761   1763     1   109.8000471 387.438400
   1758   1767   1768     1   110.1100470 384.091200
   1758   1767   1769     1   110.1100470 384.091200
   1758   1767   1771     1   110.1100470 384.091200
   1759   1758   1761     1   110.5600475 386.601600
   1759   1758   1767     1   108.0100461 406.684800
   1759   1758   1760     1   109.7500473 328.025600
   1760   1758   1761     1   110.5600475 386.601600
   1760   1758   1767     1   108.0100461 406.684800
   1761   1764   1765     1   109.5600471 388.275200
   1761   1764   1766     1   109.5600471 388.275200
   1762   1761   1764     1   109.8000471 387.438400
   1762   1761   1763     1   107.5800459 329.699200
   1763   1761   1764     1   109.8000471 387.438400
   1765   1764   1770     1   109.7800468 425.094400
   1765   1764   1766     1   108.4600466 328.025600
   1766   1764   1770     1   109.7800468 425.094400
   1768   1767   1769     1   108.3000464 339.740800
   1768   1767   1771     1   108.3000464 339.740800
   1769   1767   1771     1   108.3000464 339.740800
   1772   1775   1776     1   109.8000471 387.438400
   1772   1775   1777     1   109.8000471 387.438400
   1772   1781   1782     1   110.1100470 384.091200
   1772   1781   1783     1   110.1100470 384.091200
   1772   1781   1785     1   110.1100470 384.091200
   1773   1772   1775     1   110.5600475 386.601600
   1773   1772   1781     1   108.0100461 406.684800
   1773   1772   1774     1   109.7500473 328.025600
   1774   1772   1775     1   110.5600475 386.601600
   1774   1772   1781     1   108.0100461 406.684800
   1775   1778   1779     1   109.5600471 388.275200
   1775   1778   1780     1   109.5600471 388.275200
   1776   1775   1778     1   109.8000471 387.438400
   1776   1775   1777     1   107.5800459 329.699200
   1777   1775   1778     1   109.8000471 387.438400
   1779   1778   1784     1   109.7800468 425.094400
   1779   1778   1780     1   108.4600466 328.025600
   1780   1778   1784     1   109.7800468 425.094400
   1782   1781   1783     1   108.3000464 339.740800
   1782   1781   1785     1   108.3000464 339.740800
   1783   1781   1785     1   108.3000464 339.740800
   1786   1789   1790     1   109.8000471 387.438400
   1786   1789   1791     1   109.8000471 387.438400
   1786   1795   1796     1   110.1100470 384.091200
   1786   1795   1797     1   110.1100470 384.091200
   1786   1795   1799     1   110.1100470 384.091200
   1787   1786   1789     1   110.5600475 386.601600
   1787   1786   1795     1   108.0100461 406.684800
   1787   1786   1788     1   109.7500473 328.025600
   1788   1786   1789     1   110.5600475 386.601600
   1788   1786   1795     1   108.0100461 406.684800
   1789   1792   1793     1   109.5600471 388.275200
   1789   1792   1794     1   109.5600471 388.275200
   1790   1789   1792     1   109.8000471 387.438400
   1790   1789   1791     1   107.5800459 329.699200
   1791   1789   1792     1   109.8000471 387.438400
   1793   1792   1798     1   109.7800468 425.094400
   1793   1792   1794     1   108.4600466 328.025600
   1794   1792   1798     1   109.7800468 425.094400
   1796   1795   1797     1   108.3000464 339.740800
   1796   1795   1799     1   108.3000464 339.740800
   1797   1795   1799     1   108.3000464 339.740800
   1800   1803   1804     1   109.8000471 387.438400
   1800   1803   1805     1   109.8000471 387.438400
   1800   1809   1810     1   110.1100470 384.091200
   1800   1809   1811     1   110.1100470 384.091200
   1800   1809   1813     1   110.1100470 384.091200
   1801   1800   1803     1   110.5600475 386.601600
   1801   1800   1809     1   108.0100461 406.684800
   1801   1800   1802     1   109.7500473 328.025600
   1802   1800   1803     1   110.5600475 386.601600
   1802   1800   1809     1   108.0100461 406.684800
   1803   1806   1807     1   109.5600471 388.275200
   1803   1806   1808     1   109.5600471 388.275200
   1804   1803   1806     1   109.8000471 387.438400
   1804   1803   1805     1   107.5800459 329.699200
   1805   1803   1806     1   109.8000471 387.438400
   1807   1806   1812     1   109.7800468 425.094400
   1807   1806   1808     1   108.4600466 328.025600
   1808   1806   1812     1   109.7800468 425.094400
   1810   1809   1811     1   108.3000464 339.740800
   1810   1809   1813     1   108.3000464 339.740800
   1811   1809   1813     1   108.3000464 339.740800
   1814   1817   1818     1   109.8000471 387.438400
   1814   1817   1819     1   109.8000471 387.438400
   1814   1823   1824     1   110.1100470 384.091200
   1814   1823   1825     1   110.1100470 384.091200
   1814   1823   1827     1   110.1100470 384.091200
   1815   1814   1817     1   110.5600475 386.601600
   1815   1814   1823     1   108.0100461 406.684800
   1815   1814   1816     1   109.7500473 328.025600
   1816   1814   1817     1   110.5600475 386.601600
   1816   1814   1823     1   108.0100461 406.684800
   1817   1820   1821     1   109.5600471 388.275200
   1817   1820   1822     1   109.5600471 388.275200
   1818   1817   1820     1   109.8000471 387.438400
   1818   1817   1819     1   107.5800459 329.699200
   1819   1817   1820     1   109.8000471 387.438400
   1821   1820   1826     1   109.7800468 425.094400
   1821   1820   1822     1   108.4600466 328.025600
   1822   1820   1826     1   109.7800468 425.094400
   1824   1823   1825     1   108.3000464 339.740800
   1824   1823   1827     1   108.3000464 339.740800
   1825   1823   1827     1   108.3000464 339.740800
   1828   1831   1832     1   109.8000471 387.438400
   1828   1831   1833     1   109.8000471 387.438400
   1828   1837   1838     1   110.1100470 384.091200
   1828   1837   1839     1   110.1100470 384.091200
   1828   1837   1841     1   110.1100470 384.091200
   1829   1828   1831     1   110.5600475 386.601600
   1829   1828   1837     1   108.0100461 406.684800
   1829   1828   1830     1   109.7500473 328.025600
   1830   1828   1831     1   110.5600475 386.601600
   1830   1828   1837     1   108.0100461 406.684800
   1831   1834   1835     1   109.5600471 388.275200
   1831   1834   1836     1   109.5600471 388.275200
   1832   1831   1834     1   109.8000471 387.438400
   1832   1831   1833     1   107.5800459 329.699200
   1833   1831   1834     1   109.8000471 387.438400
   1835   1834   1840     1   109.7800468 425.094400
   1835   1834   1836     1   108.4600466 328.025600
   1836   1834   1840     1   109.7800468 425.094400
   1838   1837   1839     1   108.3000464 339.740800
   1838   1837   1841     1   108.3000464 339.740800
   1839   1837   1841     1   108.3000464 339.740800
   1842   1845   1846     1   109.8000471 387.438400
   1842   1845   1847     1   109.8000471 387.438400
   1842   1851   1852     1   110.1100470 384.091200
   1842   1851   1853     1   110.1100470 384.091200
   1842   1851   1855     1   110.1100470 384.091200
   1843   1842   1845     1   110.5600475 386.601600
   1843   1842   1851     1   108.0100461 406.684800
   1843   1842   1844     1   109.7500473 328.025600
   1844   1842   1845     1   110.5600475 386.601600
   1844   1842   1851     1   108.0100461 406.684800
   1845   1848   1849     1   109.5600471 388.275200
   1845   1848   1850     1   109.5600471 388.275200
   1846   1845   1848     1   109.8000471 387.438400
   1846   1845   1847     1   107.5800459 329.699200
   1847   1845   1848     1   109.8000471 387.438400
   1849   1848   1854     1   109.7800468 425.094400
   1849   1848   1850     1   108.4600466 328.025600
   1850   1848   1854     1   109.7800468 425.094400
   1852   1851   1853     1   108.3000464 339.740800
   1852   1851   1855     1   108.3000464 339.740800
   1853   1851   1855     1   108.3000464 339.740800
   1856   1859   1860     1   109.8000471 387.438400
   1856   1859   1861     1   109.8000471 387.438400
   1856   1865   1866     1   110.1100470 384.091200
   1856   1865   1867     1   110.1100470 384.091200
   1856   1865   1869     1   110.1100470 384.091200
   1857   1856   1859     1   110.5600475 386.601600
   1857   1856   1865     1   108.0100461 406.684800
   1857   1856   1858     1   109.7500473 328.025600
   1858   1856   1859     1   110.5600475 386.601600
   1858   1856   1865     1   108.0100461 406.684800
   1859   1862   1863     1   109.5600471 388.275200
   1859   1862   1864     1   109.5600471 388.275200
   1860   1859   1862     1   109.8000471 387.438400
   1860   1859   1861     1   107.5800459 329.699200
   1861   1859   1862     1   109.8000471 387.438400
   1863   1862   1868     1   109.7800468 425.094400
   1863   1862   1864     1   108.4600466 328.025600
   1864   1862   1868     1   109.7800468 425.094400
   1866   1865   1867     1   108.3000464 339.740800
   1866   1865   1869     1   108.3000464 339.740800
   1867   1865   1869     1   108.3000464 339.740800
   1870   1873   1874     1   109.8000471 387.438400
   1870   1873   1875     1   109.8000471 387.438400
   1870   1879   1880     1   110.1100470 384.091200
   1870   1879   1881     1   110.1100470 384.091200
   1870   1879   1883     1   110.1100470 384.091200
   1871   1870   1873     1   110.5600475 386.601600
   1871   1870   1879     1   108.0100461 406.684800
   1871   1870   1872     1   109.7500473 328.025600
   1872   1870   1873     1   110.5600475 386.601600
   1872   1870   1879     1   108.0100461 406.684800
   1873   1876   1877     1   109.5600471 388.275200
   1873   1876   1878     1   109.5600471 388.275200
   1874   1873   1876     1   109.8000471 387.438400
   1874   1873   1875     1   107.5800459 329.699200
   1875   1873   1876     1   109.8000471 387.438400
   1877   1876   1882     1   109.7800468 425.094400
   1877   1876   1878     1   108.4600466 328.025600
   1878   1876   1882     1   109.7800468 425.094400
   1880   1879   1881     1   108.3000464 339.740800
   1880   1879   1883     1   108.3000464 339.740800
   1881   1879   1883     1   108.3000464 339.740800
   1884   1887   1888     1   109.8000471 387.438400
   1884   1887   1889     1   109.8000471 387.438400
   1884   1893   1894     1   110.1100470 384.091200
   1884   1893   1895     1   110.1100470 384.091200
   1884   1893   1897     1   110.1100470 384.091200
   1885   1884   1887     1   110.5600475 386.601600
   1885   1884   1893     1   108.0100461 406.684800
   1885   1884   1886     1   109.7500473 328.025600
   1886   1884   1887     1   110.5600475 386.601600
   1886   1884   1893     1   108.0100461 406.684800
   1887   1890   1891     1   109.5600471 388.275200
   1887   1890   1892     1   109.5600471 388.275200
   1888   1887   1890     1   109.8000471 387.438400
   1888   1887   1889     1   107.5800459 329.699200
   1889   1887   1890     1   109.8000471 387.438400
   1891   1890   1896     1   109.7800468 425.094400
   1891   1890   1892     1   108.4600466 328.025600
   1892   1890   1896     1   109.7800468 425.094400
   1894   1893   1895     1   108.3000464 339.740800
   1894   1893   1897     1   108.3000464 339.740800
   1895   1893   1897     1   108.3000464 339.740800
   1898   1901   1902     1   109.8000471 387.438400
   1898   1901   1903     1   109.8000471 387.438400
   1898   1907   1908     1   110.1100470 384.091200
   1898   1907   1909     1   110.1100470 384.091200
   1898   1907   1911     1   110.1100470 384.091200
   1899   1898   1901     1   110.5600475 386.601600
   1899   1898   1907     1   108.0100461 406.684800
   1899   1898   1900     1   109.7500473 328.025600
   1900   1898   1901     1   110.5600475 386.601600
   1900   1898   1907     1   108.0100461 406.684800
   1901   1904   1905     1   109.5600471 388.275200
   1901   1904   1906     1   109.5600471 388.275200
   1902   1901   1904     1   109.8000471 387.438400
   1902   1901   1903     1   107.5800459 329.699200
   1903   1901   1904     1   109.8000471 387.438400
   1905   1904   1910     1   109.7800468 425.094400
   1905   1904   1906     1   108.4600466 328.025600
   1906   1904   1910     1   109.7800468 425.094400
   1908   1907   1909     1   108.3000464 339.740800
   1908   1907   1911     1   108.3000464 339.740800
   1909   1907   1911     1   108.3000464 339.740800
   1912   1915   1916     1   109.8000471 387.438400
   1912   1915   1917     1   109.8000471 387.438400
   1912   1921   1922     1   110.1100470 384.091200
   1912   1921   1923     1   110.1100470 384.091200
   1912   1921   1925     1   110.1100470 384.091200
   1913   1912   1915     1   110.5600475 386.601600
   1913   1912   1921     1   108.0100461 406.684800
   1913   1912   1914     1   109.7500473 328.025600
   1914   1912   1915     1   110.5600475 386.601600
   1914   1912   1921     1   108.0100461 406.684800
   1915   1918   1919     1   109.5600471 388.275200
   1915   1918   1920     1   109.5600471 388.275200
   1916   1915   1918     1   109.8000471 387.438400
   1916   1915   1917     1   107.5800459 329.699200
   1917   1915   1918     1   109.8000471 387.438400
   1919   1918   1924     1   109.7800468 425.094400
   1919   1918   1920     1   108.4600466 328.025600
   1920   1918   1924     1   109.7800468 425.094400
   1922   1921   1923     1   108.3000464 339.740800
   1922   1921   1925     1   108.3000464 339.740800
   1923   1921   1925     1   108.3000464 339.740800
   1926   1929   1930     1   109.8000471 387.438400
   1926   1929   1931     1   109.8000471 387.438400
   1926   1935   1936     1   110.1100470 384.091200
   1926   1935   1937     1   110.1100470 384.091200
   1926   1935   1939     1   110.1100470 384.091200
   1927   1926   1929     1   110.5600475 386.601600
   1927   1926   1935     1   108.0100461 406.684800
   1927   1926   1928     1   109.7500473 328.025600
   1928   1926   1929     1   110.5600475 386.601600
   1928   1926   1935     1   108.0100461 406.684800
   1929   1932   1933     1   109.5600471 388.275200
   1929   1932   1934     1   109.5600471 388.275200
   1930   1929   1932     1   109.8000471 387.438400
   1930   1929   1931     1   107.5800459 329.699200
   1931   1929   1932     1   109.8000471 387.438400
   1933   1932   1938     1   109.7800468 425.094400
   1933   1932   1934     1   108.4600466 328.025600
   1934   1932   1938     1   109.7800468 425.094400
   1936   1935   1937     1   108.3000464 339.740800
   1936   1935   1939     1   108.3000464 339.740800
   1937   1935   1939     1   108.3000464 339.740800
   1940   1943   1944     1   109.8000471 387.438400
   1940   1943   1945     1   109.8000471 387.438400
   1940   1949   1950     1   110.1100470 384.091200
   1940   1949   1951     1   110.1100470 384.091200
   1940   1949   1953     1   110.1100470 384.091200
   1941   1940   1943     1   110.5600475 386.601600
   1941   1940   1949     1   108.0100461 406.684800
   1941   1940   1942     1   109.7500473 328.025600
   1942   1940   1943     1   110.5600475 386.601600
   1942   1940   1949     1   108.0100461 406.684800
   1943   1946   1947     1   109.5600471 388.275200
   1943   1946   1948     1   109.5600471 388.275200
   1944   1943   1946     1   109.8000471 387.438400
   1944   1943   1945     1   107.5800459 329.699200
   1945   1943   1946     1   109.8000471 387.438400
   1947   1946   1952     1   109.7800468 425.094400
   1947   1946   1948     1   108.4600466 328.025600
   1948   1946   1952     1   109.7800468 425.094400
   1950   1949   1951     1   108.3000464 339.740800
   1950   1949   1953     1   108.3000464 339.740800
   1951   1949   1953     1   108.3000464 339.740800
   1954   1957   1958     1   109.8000471 387.438400
   1954   1957   1959     1   109.8000471 387.438400
   1954   1963   1964     1   110.1100470 384.091200
   1954   1963   1965     1   110.1100470 384.091200
   1954   1963   1967     1   110.1100470 384.091200
   1955   1954   1957     1   110.5600475 386.601600
   1955   1954   1963     1   108.0100461 406.684800
   1955   1954   1956     1   109.7500473 328.025600
   1956   1954   1957     1   110.5600475 386.601600
   1956   1954   1963     1   108.0100461 406.684800
   1957   1960   1961     1   109.5600471 388.275200
   1957   1960   1962     1   109.5600471 388.275200
   1958   1957   1960     1   109.8000471 387.438400
   1958   1957   1959     1   107.5800459 329.699200
   1959   1957   1960     1   109.8000471 387.438400
   1961   1960   1966     1   109.7800468 425.094400
   1961   1960   1962     1   108.4600466 328.025600
   1962   1960   1966     1   109.7800468 425.094400
   1964   1963   1965     1   108.3000464 339.740800
   1964   1963   1967     1   108.3000464 339.740800
   1965   1963   1967     1   108.3000464 339.740800
   1968   1971   1972     1   109.8000471 387.438400
   1968   1971   1973     1   109.8000471 387.438400
   1968   1977   1978     1   110.1100470 384.091200
   1968   1977   1979     1   110.1100470 384.091200
   1968   1977   1981     1   110.1100470 384.091200
   1969   1968   1971     1   110.5600475 386.601600
   1969   1968   1977     1   108.0100461 406.684800
   1969   1968   1970     1   109.7500473 328.025600
   1970   1968   1971     1   110.5600475 386.601600
   1970   1968   1977     1   108.0100461 406.684800
   1971   1974   1975     1   109.5600471 388.275200
   1971   1974   1976     1   109.5600471 388.275200
   1972   1971   1974     1   109.8000471 387.438400
   1972   1971   1973     1   107.5800459 329.699200
   1973   1971   1974     1   109.8000471 387.438400
   1975   1974   1980     1   109.7800468 425.094400
   1975   1974   1976     1   108.4600466 328.025600
   1976   1974   1980     1   109.7800468 425.094400
   1978   1977   1979     1   108.3000464 339.740800
   1978   1977   1981     1   108.3000464 339.740800
   1979   1977   1981     1   108.3000464 339.740800
   1982   1985   1986     1   109.8000471 387.438400
   1982   1985   1987     1   109.8000471 387.438400
   1982   1991   1992     1   110.1100470 384.091200
   1982   1991   1993     1   110.1100470 384.091200
   1982   1991   1995     1   110.1100470 384.091200
   1983   1982   1985     1   110.5600475 386.601600
   1983   1982   1991     1   108.0100461 406.684800
   1983   1982   1984     1   109.7500473 328.025600
   1984   1982   1985     1   110.5600475 386.601600
   1984   1982   1991     1   108.0100461 406.684800
   1985   1988   1989     1   109.5600471 388.275200
   1985   1988   1990     1   109.5600471 388.275200
   1986   1985   1988     1   109.8000471 387.438400
   1986   1985   1987     1   107.5800459 329.699200
   1987   1985   1988     1   109.8000471 387.438400
   1989   1988   1994     1   109.7800468 425.094400
   1989   1988   1990     1   108.4600466 328.025600
   1990   1988   1994     1   109.7800468 425.094400
   1992   1991   1993     1   108.3000464 339.740800
   1992   1991   1995     1   108.3000464 339.740800
   1993   1991   1995     1   108.3000464 339.740800
   1996   1999   2000     1   109.8000471 387.438400
   1996   1999   2001     1   109.8000471 387.438400
   1996   2005   2006     1   110.1100470 384.091200
   1996   2005   2007     1   110.1100470 384.091200
   1996   2005   2009     1   110.1100470 384.091200
   1997   1996   1999     1   110.5600475 386.601600
   1997   1996   2005     1   108.0100461 406.684800
   1997   1996   1998     1   109.7500473 328.025600
   1998   1996   1999     1   110.5600475 386.601600
   1998   1996   2005     1   108.0100461 406.684800
   1999   2002   2003     1   109.5600471 388.275200
   1999   2002   2004     1   109.5600471 388.275200
   2000   1999   2002     1   109.8000471 387.438400
   2000   1999   2001     1   107.5800459 329.699200
   2001   1999   2002     1   109.8000471 387.438400
   2003   2002   2008     1   109.7800468 425.094400
   2003   2002   2004     1   108.4600466 328.025600
   2004   2002   2008     1   109.7800468 425.094400
   2006   2005   2007     1   108.3000464 339.740800
   2006   2005   2009     1   108.3000464 339.740800
   2007   2005   2009     1   108.3000464 339.740800
   2010   2013   2014     1   109.8000471 387.438400
   2010   2013   2015     1   109.8000471 387.438400
   2010   2019   2020     1   110.1100470 384.091200
   2010   2019   2021     1   110.1100470 384.091200
   2010   2019   2023     1   110.1100470 384.091200
   2011   2010   2013     1   110.5600475 386.601600
   2011   2010   2019     1   108.0100461 406.684800
   2011   2010   2012     1   109.7500473 328.025600
   2012   2010   2013     1   110.5600475 386.601600
   2012   2010   2019     1   108.0100461 406.684800
   2013   2016   2017     1   109.5600471 388.275200
   2013   2016   2018     1   109.5600471 388.275200
   2014   2013   2016     1   109.8000471 387.438400
   2014   2013   2015     1   107.5800459 329.699200
   2015   2013   2016     1   109.8000471 387.438400
   2017   2016   2022     1   109.7800468 425.094400
   2017   2016   2018     1   108.4600466 328.025600
   2018   2016   2022     1   109.7800468 425.094400
   2020   2019   2021     1   108.3000464 339.740800
   2020   2019   2023     1   108.3000464 339.740800
   2021   2019   2023     1   108.3000464 339.740800
   2024   2027   2028     1   109.8000471 387.438400
   2024   2027   2029     1   109.8000471 387.438400
   2024   2033   2034     1   110.1100470 384.091200
   2024   2033   2035     1   110.1100470 384.091200
   2024   2033   2037     1   110.1100470 384.091200
   2025   2024   2027     1   110.5600475 386.601600
   2025   2024   2033     1   108.0100461 406.684800
   2025   2024   2026     1   109.7500473 328.025600
   2026   2024   2027     1   110.5600475 386.601600
   2026   2024   2033     1   108.0100461 406.684800
   2027   2030   2031     1   109.5600471 388.275200
   2027   2030   2032     1   109.5600471 388.275200
   2028   2027   2030     1   109.8000471 387.438400
   2028   2027   2029     1   107.5800459 329.699200
   2029   2027   2030     1   109.8000471 387.438400
   2031   2030   2036     1   109.7800468 425.094400
   2031   2030   2032     1   108.4600466 328.025600
   2032   2030   2036     1   109.7800468 425.094400
   2034   2033   2035     1   108.3000464 339.740800
   2034   2033   2037     1   108.3000464 339.740800
   2035   2033   2037     1   108.3000464 339.740800
   2038   2041   2042     1   109.8000471 387.438400
   2038   2041   2043     1   109.8000471 387.438400
   2038   2047   2048     1   110.1100470 384.091200
   2038   2047   2049     1   110.1100470 384.091200
   2038   2047   2051     1   110.1100470 384.091200
   2039   2038   2041     1   110.5600475 386.601600
   2039   2038   2047     1   108.0100461 406.684800
   2039   2038   2040     1   109.7500473 328.025600
   2040   2038   2041     1   110.5600475 386.601600
   2040   2038   2047     1   108.0100461 406.684800
   2041   2044   2045     1   109.5600471 388.275200
   2041   2044   2046     1   109.5600471 388.275200
   2042   2041   2044     1   109.8000471 387.438400
   2042   2041   2043     1   107.5800459 329.699200
   2043   2041   2044     1   109.8000471 387.438400
   2045   2044   2050     1   109.7800468 425.094400
   2045   2044   2046     1   108.4600466 328.025600
   2046   2044   2050     1   109.7800468 425.094400
   2048   2047   2049     1   108.3000464 339.740800
   2048   2047   2051     1   108.3000464 339.740800
   2049   2047   2051     1   108.3000464 339.740800

[ dihedrals ]
;    ai     aj     ak     al funct         c0         c1         c2         c3         c4         c5
      1      2     14     26     1  0.0000000  0.6508444  3
      1      5     17     20     1  0.0000000  0.6508444  3
      1      8     11     23     1  0.0000000  0.6508444  3
      2      1      5     17     1  0.0000000  0.6508444  3
      2      1      8     11     1  0.0000000  0.6508444  3
      2     14     26    118     1  0.0000000  0.6508444  3
      5      1      2     14     1  0.0000000  0.6508444  3
      5      1      8     11     1  0.0000000  0.6508444  3
      5     17     20     58     1  0.0000000  0.6508444  3
      8      1      2     14     1  0.0000000  0.6508444  3
      8      1      5     17     1  0.0000000  0.6508444  3
      8     11     23     88     1  0.0000000  0.6508444  3
     11     23     88     79     1  180.0000771  0.4184000  2
     11     23     88     79     1  0.0000000  1.6024720  3
     14     26    118    109     1  180.0000771  0.4184000  2
     14     26    118    109     1  0.0000000  1.6024720  3
     17     20     58     49     1  180.0000771  0.4184000  2
     17     20     58     49     1  0.0000000  1.6024720  3
     20     58     49     40     1  180.0000771  0.4184000  2
     20     58     49     40     1  0.0000000  1.6024720  3
     23     88     79     70     1  180.0000771  0.4184000  2
     23     88     79     70     1  0.0000000  1.6024720  3
     26    118    109    100     1  180.0000771  0.4184000  2
     26    118    109    100     1  0.0000000  1.6024720  3
     30     31     43     55     1  0.0000000  0.6508444  3
     30     34     46     52     1  0.0000000  0.6508444  3
     30     37     40     49     1  0.0000000  0.6508444  3
     31     30     34     46     1  0.0000000  0.6508444  3
     31     30     37     40     1  0.0000000  0.6508444  3
     31     43     55    178     1  0.0000000  0.6508444  3
     34     30     31     43     1  0.0000000  0.6508444  3
     34     30     37     40     1  0.0000000  0.6508444  3
     34     46     52    148     1  0.0000000  0.6508444  3
     37     30     31     43     1  0.0000000  0.6508444  3
     37     30     34     46     1  0.0000000  0.6508444  3
     37     40     49     58     1  0.0000000  0.6508444  3
     43     55    178    169     1  180.0000771  0.4184000  2
     43     55    178    169     1  0.0000000  1.6024720  3
     46     52    148    139     1  180.0000771  0.4184000  2
     46     52    148    139     1  0.0000000  1.6024720  3
     52    148    139    130     1  180.0000771  0.4184000  2
     52    148    139    130     1  0.0000000  1.6024720  3
     55    178    169    160     1  180.0000771  0.4184000  2
     55    178    169    160     1  0.0000000  1.6024720  3
     60     61     73     85     1  0.0000000  0.6508444  3
     60     64     76     82     1  0.0000000  0.6508444  3
     60     67     70     79     1  0.0000000  0.6508444  3
     61     60     64     76     1  0.0000000  0.6508444  3
     61     60     67     70     1  0.0000000  0.6508444  3
     61     73     85    238     1  0.0000000  0.6508444  3
     64     60     61     73     1  0.0000000  0.6508444  3
     64     60     67     70     1  0.0000000  0.6508444  3
     64     76     82    208     1  0.0000000  0.6508444  3
     67     60     61     73     1  0.0000000  0.6508444  3
     67     60     64     76     1  0.0000000  0.6508444  3
     67     70     79     88     1  0.0000000  0.6508444  3
     73     85    238    229     1  180.0000771  0.4184000  2
     73     85    238    229     1  0.0000000  1.6024720  3
     76     82    208    199     1  180.0000771  0.4184000  2
     76     82    208    199     1  0.0000000  1.6024720  3
     82    208    199    190     1  180.0000771  0.4184000  2
     82    208    199    190     1  0.0000000  1.6024720  3
     85    238    229    220     1  180.0000771  0.4184000  2
     85    238    229    220     1  0.0000000  1.6024720  3
     90     91    103    115     1  0.0000000  0.6508444  3
     90     94    106    112     1  0.0000000  0.6508444  3
     90     97    100    109     1  0.0000000  0.6508444  3
     91     90     94    106     1  0.0000000  0.6508444  3
     91     90     97    100     1  0.0000000  0.6508444  3
     91    103    115    298     1  0.0000000  0.6508444  3
     94     90     91    103     1  0.0000000  0.6508444  3
     94     90     97    100     1  0.0000000  0.6508444  3
     94    106    112    268     1  0.0000000  0.6508444  3
     97     90     91    103     1  0.0000000  0.6508444  3
     97     90     94    106     1  0.0000000  0.6508444  3
     97    100    109    118     1  0.0000000  0.6508444  3
    103    115    298    289     1  180.0000771  0.4184000  2
    103    115    298    289     1  0.0000000  1.6024720  3
    106    112    268    259     1  180.0000771  0.4184000  2
    106    112    268    259     1  0.0000000  1.6024720  3
    112    268    259    250     1  180.0000771  0.4184000  2
    112    268    259    250     1  0.0000000  1.6024720  3
    115    298    289    280     1  180.0000771  0.4184000  2
    115    298    289    280     1  0.0000000  1.6024720  3
    120    121    133    145     1  0.0000000  0.6508444  3
    120    124    136    142     1  0.0000000  0.6508444  3
    120    127    130    139     1  0.0000000  0.6508444  3
    121    120    124    136     1  0.0000000  0.6508444  3
    121    120    127    130     1  0.0000000  0.6508444  3
    121    133    145    358     1  0.0000000  0.6508444  3
    124    120    121    133     1  0.0000000  0.6508444  3
    124    120    127    130     1  0.0000000  0.6508444  3
    124    136    142    328     1  0.0000000  0.6508444  3
    127    120    121    133     1  0.0000000  0.6508444  3
    127    120    124    136     1  0.0000000  0.6508444  3
    127    130    139    148     1  0.0000000  0.6508444  3
    133    145    358    349     1  180.0000771  0.4184000  2
    133    145    358    349     1  0.0000000  1.6024720  3
    136    142    328    319     1  180.0000771  0.4184000  2
    136    142    328    319     1  0.0000000  1.6024720  3
    142    328    319    310     1  180.0000771  0.4184000  2
    142    328    319    310     1  0.0000000  1.6024720  3
    145    358    349    340     1  180.0000771  0.4184000  2
    145    358    349    340     1  0.0000000  1.6024720  3
    150    151    163    175     1  0.0000000  0.6508444  3
    150    154    166    172     1  0.0000000  0.6508444  3
    150    157    160    169     1  0.0000000  0.6508444  3
    151    150    154    166     1  0.0000000  0.6508444  3
    151    150    157    160     1  0.0000000  0.6508444  3
    151    163    175    418     1  0.0000000  0.6508444  3
    154    150    151    163     1  0.0000000  0.6508444  3
    154    150    157    160     1  0.0000000  0.6508444  3
    154    166    172    388     1  0.0000000  0.6508444  3
    157    150    151    163     1  0.0000000  0.6508444  3
    157    150    154    166     1  0.0000000  0.6508444  3
    157    160    169    178     1  0.0000000  0.6508444  3
    163    175    418    409     1  180.0000771  0.4184000  2
    163    175    418    409     1  0.0000000  1.6024720  3
    166    172    388    379     1  180.0000771  0.4184000  2
    166    172    388    379     1  0.0000000  1.6024720  3
    172    388    379    370     1  180.0000771  0.4184000  2
    172    388    379    370     1  0.0000000  1.6024720  3
    175    418    409    400     1  180.0000771  0.4184000  2
    175    418    409    400     1  0.0000000  1.6024720  3
    180    181    193    205     1  0.0000000  0.6508444  3
    180    184    196    202     1  0.0000000  0.6508444  3
    180    187    190    199     1  0.0000000  0.6508444  3
    181    180    184    196     1  0.0000000  0.6508444  3
    181    180    187    190     1  0.0000000  0.6508444  3
    181    193    205    478     1  0.0000000  0.6508444  3
    184    180    181    193     1  0.0000000  0.6508444  3
    184    180    187    190     1  0.0000000  0.6508444  3
    184    196    202    448     1  0.0000000  0.6508444  3
    187    180    181    193     1  0.0000000  0.6508444  3
    187    180    184    196     1  0.0000000  0.6508444  3
    187    190    199    208     1  0.0000000  0.6508444  3
    193    205    478    469     1  180.0000771  0.4184000  2
    193    205    478    469     1  0.0000000  1.6024720  3
    196    202    448    439     1  180.0000771  0.4184000  2
    196    202    448    439     1  0.0000000  1.6024720  3
    202    448    439    430     1  180.0000771  0.4184000  2
    202    448    439    430     1  0.0000000  1.6024720  3
    205    478    469    460     1  180.0000771  0.4184000  2
    205    478    469    460     1  0.0000000  1.6024720  3
    210    211    223    235     1  0.0000000  0.6508444  3
    210    214    226    232     1  0.0000000  0.6508444  3
    210    217    220    229     1  0.0000000  0.6508444  3
    211    210    214    226     1  0.0000000  0.6508444  3
    211    210    217    220     1  0.0000000  0.6508444  3
    211    223    235    538     1  0.0000000  0.6508444  3
    214    210    211    223     1  0.0000000  0.6508444  3
    214    210    217    220     1  0.0000000  0.6508444  3
    214    226    232    508     1  0.0000000  0.6508444  3
    217    210    211    223     1  0.0000000  0.6508444  3
    217    210    214    226     1  0.0000000  0.6508444  3
    217    220    229    238     1  0.0000000  0.6508444  3
    223    235    538    529     1  180.0000771  0.4184000  2
    223    235    538    529     1  0.0000000  1.6024720  3
    226    232    508    499     1  180.0000771  0.4184000  2
    226    232    508    499     1  0.0000000  1.6024720  3
    232    508    499    490     1  180.0000771  0.4184000  2
    232    508    499    490     1  0.0000000  1.6024720  3
    235    538    529    520     1  180.0000771  0.4184000  2
    235    538    529    520     1  0.0000000  1.6024720  3
    240    241    253    265     1  0.0000000  0.6508444  3
    240    244    256    262     1  0.0000000  0.6508444  3
    240    247    250    259     1  0.0000000  0.6508444  3
    241    240    244    256     1  0.0000000  0.6508444  3
    241    240    247    250     1  0.0000000  0.6508444  3
    241    253    265    598     1  0.0000000  0.6508444  3
    244    240    241    253     1  0.0000000  0.6508444  3
    244    240    247    250     1  0.0000000  0.6508444  3
    244    256    262    568     1  0.0000000  0.6508444  3
    247    240    241    253     1  0.0000000  0.6508444  3
    247    240    244    256     1  0.0000000  0.6508444  3
    247    250    259    268     1  0.0000000  0.6508444  3
    253    265    598    589     1  180.0000771  0.4184000  2
    253    265    598    589     1  0.0000000  1.6024720  3
    256    262    568    559     1  180.0000771  0.4184000  2
    256    262    568    559     1  0.0000000  1.6024720  3
    262    568    559    550     1  180.0000771  0.4184000  2
    262    568    559    550     1  0.0000000  1.6024720  3
    265    598    589    580     1  180.0000771  0.4184000  2
    265    598    589    580     1  0.0000000  1.6024720  3
    270    271    283    295     1  0.0000000  0.6508444  3
    270    274    286    292     1  0.0000000  0.6508444  3
    270    277    280    289     1  0.0000000  0.6508444  3
    271    270    274    286     1  0.0000000  0.6508444  3
    271    270    277    280     1  0.0000000  0.6508444  3
    271    283    295    658     1  0.0000000  0.6508444  3
    274    270    271    283     1  0.0000000  0.6508444  3
    274    270    277    280     1  0.0000000  0.6508444  3
    274    286    292    628     1  0.0000000  0.6508444  3
    277    270    271    283     1  0.0000000  0.6508444  3
    277    270    274    286     1  0.0000000  0.6508444  3
    277    280    289    298     1  0.0000000  0.6508444  3
    283    295    658    649     1  180.0000771  0.4184000  2
    283    295    658    649     1  0.0000000  1.6024720  3
    286    292    628    619     1  180.0000771  0.4184000  2
    286    292    628    619     1  0.0000000  1.6024720  3
    292    628    619    610     1  180.0000771  0.4184000  2
    292    628    619    610     1  0.0000000  1.6024720  3
    295    658    649    640     1  180.0000771  0.4184000  2
    295    658    649    640     1  0.0000000  1.6024720  3
    300    301    313    325     1  0.0000000  0.6508444  3
    300    304    316    322     1  0.0000000  0.6508444  3
    300    307    310    319     1  0.0000000  0.6508444  3
    301    300    304    316     1  0.0000000  0.6508444  3
    301    300    307    310     1  0.0000000  0.6508444  3
    301    313    325    718     1  0.0000000  0.6508444  3
    304    300    301    313     1  0.0000000  0.6508444  3
    304    300    307    310     1  0.0000000  0.6508444  3
    304    316    322    688     1  0.0000000  0.6508444  3
    307    300    301    313     1  0.0000000  0.6508444  3
    307    300    304    316     1  0.0000000  0.6508444  3
    307    310    319    328     1  0.0000000  0.6508444  3
    313    325    718    709     1  180.0000771  0.4184000  2
    313    325    718    709     1  0.0000000  1.6024720  3
    316    322    688    679     1  180.0000771  0.4184000  2
    316    322    688    679     1  0.0000000  1.6024720  3
    322    688    679    670     1  180.0000771  0.4184000  2
    322    688    679    670     1  0.0000000  1.6024720  3
    325    718    709    700     1  180.0000771  0.4184000  2
    325    718    709    700     1  0.0000000  1.6024720  3
    330    331    343    355     1  0.0000000  0.6508444  3
    330    334    346    352     1  0.0000000  0.6508444  3
    330    337    340    349     1  0.0000000  0.6508444  3
    331    330    334    346     1  0.0000000  0.6508444  3
    331    330    337    340     1  0.0000000  0.6508444  3
    331    343    355    778     1  0.0000000  0.6508444  3
    334    330    331    343     1  0.0000000  0.6508444  3
    334    330    337    340     1  0.0000000  0.6508444  3
    334    346    352    748     1  0.0000000  0.6508444  3
    337    330    331    343     1  0.0000000  0.6508444  3
    337    330    334    346     1  0.0000000  0.6508444  3
    337    340    349    358     1  0.0000000  0.6508444  3
    343    355    778    769     1  180.0000771  0.4184000  2
    343    355    778    769     1  0.0000000  1.6024720  3
    346    352    748    739     1  180.0000771  0.4184000  2
    346    352    748    739     1  0.0000000  1.6024720  3
    352    748    739    730     1  180.0000771  0.4184000  2
    352    748    739    730     1  0.0000000  1.6024720  3
    355    778    769    760     1  180.0000771  0.4184000  2
    355    778    769    760     1  0.0000000  1.6024720  3
    360    361    373    385     1  0.0000000  0.6508444  3
    360    364    376    382     1  0.0000000  0.6508444  3
    360    367    370    379     1  0.0000000  0.6508444  3
    361    360    364    376     1  0.0000000  0.6508444  3
    361    360    367    370     1  0.0000000  0.6508444  3
    361    373    385    838     1  0.0000000  0.6508444  3
    364    360    361    373     1  0.0000000  0.6508444  3
    364    360    367    370     1  0.0000000  0.6508444  3
    364    376    382    808     1  0.0000000  0.6508444  3
    367    360    361    373     1  0.0000000  0.6508444  3
    367    360    364    376     1  0.0000000  0.6508444  3
    367    370    379    388     1  0.0000000  0.6508444  3
    373    385    838    829     1  180.0000771  0.4184000  2
    373    385    838    829     1  0.0000000  1.6024720  3
    376    382    808    799     1  180.0000771  0.4184000  2
    376    382    808    799     1  0.0000000  1.6024720  3
    382    808    799    790     1  180.0000771  0.4184000  2
    382    808    799    790     1  0.0000000  1.6024720  3
    385    838    829    820     1  180.0000771  0.4184000  2
    385    838    829    820     1  0.0000000  1.6024720  3
    390    391    403    415     1  0.0000000  0.6508444  3
    390    394    406    412     1  0.0000000  0.6508444  3
    390    397    400    409     1  0.0000000  0.6508444  3
    391    390    394    406     1  0.0000000  0.6508444  3
    391    390    397    400     1  0.0000000  0.6508444  3
    391    403    415    898     1  0.0000000  0.6508444  3
    394    390    391    403     1  0.0000000  0.6508444  3
    394    390    397    400     1  0.0000000  0.6508444  3
    394    406    412    868     1  0.0000000  0.6508444  3
    397    390    391    403     1  0.0000000  0.6508444  3
    397    390    394    406     1  0.0000000  0.6508444  3
    397    400    409    418     1  0.0000000  0.6508444  3
    403    415    898    889     1  180.0000771  0.4184000  2
    403    415    898    889     1  0.0000000  1.6024720  3
    406    412    868    859     1  180.0000771  0.4184000  2
    406    412    868    859     1  0.0000000  1.6024720  3
    412    868    859    850     1  180.0000771  0.4184000  2
    412    868    859    850     1  0.0000000  1.6024720  3
    415    898    889    880     1  180.0000771  0.4184000  2
    415    898    889    880     1  0.0000000  1.6024720  3
    420    421    433    445     1  0.0000000  0.6508444  3
    420    424    436    442     1  0.0000000  0.6508444  3
    420    427    430    439     1  0.0000000  0.6508444  3
    421    420    424    436     1  0.0000000  0.6508444  3
    421    420    427    430     1  0.0000000  0.6508444  3
    421    433    445    958     1  0.0000000  0.6508444  3
    424    420    421    433     1  0.0000000  0.6508444  3
    424    420    427    430     1  0.0000000  0.6508444  3
    424    436    442    928     1  0.0000000  0.6508444  3
    427    420    421    433     1  0.0000000  0.6508444  3
    427    420    424    436     1  0.0000000  0.6508444  3
    427    430    439    448     1  0.0000000  0.6508444  3
    433    445    958    949     1  180.0000771  0.4184000  2
    433    445    958    949     1  0.0000000  1.6024720  3
    436    442    928    919     1  180.0000771  0.4184000  2
    436    442    928    919     1  0.0000000  1.6024720  3
    442    928    919    910     1  180.0000771  0.4184000  2
    442    928    919    910     1  0.0000000  1.6024720  3
    445    958    949    940     1  180.0000771  0.4184000  2
    445    958    949    940     1  0.0000000  1.6024720  3
    450    451    463    475     1  0.0000000  0.6508444  3
    450    454    466    472     1  0.0000000  0.6508444  3
    450    457    460    469     1  0.0000000  0.6508444  3
    451    450    454    466     1  0.0000000  0.6508444  3
    451    450    457    460     1  0.0000000  0.6508444  3
    451    463    475   1018     1  0.0000000  0.6508444  3
    454    450    451    463     1  0.0000000  0.6508444  3
    454    450    457    460     1  0.0000000  0.6508444  3
    454    466    472    988     1  0.0000000  0.6508444  3
    457    450    451    463     1  0.0000000  0.6508444  3
    457    450    454    466     1  0.0000000  0.6508444  3
    457    460    469    478     1  0.0000000  0.6508444  3
    463    475   1018   1009     1  180.0000771  0.4184000  2
    463    475   1018   1009     1  0.0000000  1.6024720  3
    466    472    988    979     1  180.0000771  0.4184000  2
    466    472    988    979     1  0.0000000  1.6024720  3
    472    988    979    970     1  180.0000771  0.4184000  2
    472    988    979    970     1  0.0000000  1.6024720  3
    475   1018   1009   1000     1  180.0000771  0.4184000  2
    475   1018   1009   1000     1  0.0000000  1.6024720  3
    480    481    493    505     1  0.0000000  0.6508444  3
    480    484    496    502     1  0.0000000  0.6508444  3
    480    487    490    499     1  0.0000000  0.6508444  3
    481    480    484    496     1  0.0000000  0.6508444  3
    481    480    487    490     1  0.0000000  0.6508444  3
    481    493    505   1078     1  0.0000000  0.6508444  3
    484    480    481    493     1  0.0000000  0.6508444  3
    484    480    487    490     1  0.0000000  0.6508444  3
    484    496    502   1048     1  0.0000000  0.6508444  3
    487    480    481    493     1  0.0000000  0.6508444  3
    487    480    484    496     1  0.0000000  0.6508444  3
    487    490    499    508     1  0.0000000  0.6508444  3
    493    505   1078   1069     1  180.0000771  0.4184000  2
    493    505   1078   1069     1  0.0000000  1.6024720  3
    496    502   1048   1039     1  180.0000771  0.4184000  2
    496    502   1048   1039     1  0.0000000  1.6024720  3
    502   1048   1039   1030     1  180.0000771  0.4184000  2
    502   1048   1039   1030     1  0.0000000  1.6024720  3
    505   1078   1069   1060     1  180.0000771  0.4184000  2
    505   1078   1069   1060     1  0.0000000  1.6024720  3
    510    511    523    535     1  0.0000000  0.6508444  3
    510    514    526    532     1  0.0000000  0.6508444  3
    510    517    520    529     1  0.0000000  0.6508444  3
    511    510    514    526     1  0.0000000  0.6508444  3
    511    510    517    520     1  0.0000000  0.6508444  3
    511    523    535   1138     1  0.0000000  0.6508444  3
    514    510    511    523     1  0.0000000  0.6508444  3
    514    510    517    520     1  0.0000000  0.6508444  3
    514    526    532   1108     1  0.0000000  0.6508444  3
    517    510    511    523     1  0.0000000  0.6508444  3
    517    510    514    526     1  0.0000000  0.6508444  3
    517    520    529    538     1  0.0000000  0.6508444  3
    523    535   1138   1129     1  180.0000771  0.4184000  2
    523    535   1138   1129     1  0.0000000  1.6024720  3
    526    532   1108   1099     1  180.0000771  0.4184000  2
    526    532   1108   1099     1  0.0000000  1.6024720  3
    532   1108   1099   1090     1  180.0000771  0.4184000  2
    532   1108   1099   1090     1  0.0000000  1.6024720  3
    535   1138   1129   1120     1  180.0000771  0.4184000  2
    535   1138   1129   1120     1  0.0000000  1.6024720  3
    540    541    553    565     1  0.0000000  0.6508444  3
    540    544    556    562     1  0.0000000  0.6508444  3
    540    547    550    559     1  0.0000000  0.6508444  3
    541    540    544    556     1  0.0000000  0.6508444  3
    541    540    547    550     1  0.0000000  0.6508444  3
    541    553    565   1198     1  0.0000000  0.6508444  3
    544    540    541    553     1  0.0000000  0.6508444  3
    544    540    547    550     1  0.0000000  0.6508444  3
    544    556    562   1168     1  0.0000000  0.6508444  3
    547    540    541    553     1  0.0000000  0.6508444  3
    547    540    544    556     1  0.0000000  0.6508444  3
    547    550    559    568     1  0.0000000  0.6508444  3
    553    565   1198   1189     1  180.0000771  0.4184000  2
    553    565   1198   1189     1  0.0000000  1.6024720  3
    556    562   1168   1159     1  180.0000771  0.4184000  2
    556    562   1168   1159     1  0.0000000  1.6024720  3
    562   1168   1159   1150     1  180.0000771  0.4184000  2
    562   1168   1159   1150     1  0.0000000  1.6024720  3
    565   1198   1189   1180     1  180.0000771  0.4184000  2
    565   1198   1189   1180     1  0.0000000  1.6024720  3
    570    571    583    595     1  0.0000000  0.6508444  3
    570    574    586    592     1  0.0000000  0.6508444  3
    570    577    580    589     1  0.0000000  0.6508444  3
    571    570    574    586     1  0.0000000  0.6508444  3
    571    570    577    580     1  0.0000000  0.6508444  3
    571    583    595   1258     1  0.0000000  0.6508444  3
    574    570    571    583     1  0.0000000  0.6508444  3
    574    570    577    580     1  0.0000000  0.6508444  3
    574    586    592   1228     1  0.0000000  0.6508444  3
    577    570    571    583     1  0.0000000  0.6508444  3
    577    570    574    586     1  0.0000000  0.6508444  3
    577    580    589    598     1  0.0000000  0.6508444  3
    583    595   1258   1249     1  180.0000771  0.4184000  2
    583    595   1258   1249     1  0.0000000  1.6024720  3
    586    592   1228   1219     1  180.0000771  0.4184000  2
    586    592   1228   1219     1  0.0000000  1.6024720  3
    592   1228   1219   1210     1  180.0000771  0.4184000  2
    592   1228   1219   1210     1  0.0000000  1.6024720  3
    595   1258   1249   1240     1  180.0000771  0.4184000  2
    595   1258   1249   1240     1  0.0000000  1.6024720  3
    600    601    613    625     1  0.0000000  0.6508444  3
    600    604    616    622     1  0.0000000  0.6508444  3
    600    607    610    619     1  0.0000000  0.6508444  3
    601    600    604    616     1  0.0000000  0.6508444  3
    601    600    607    610     1  0.0000000  0.6508444  3
    601    613    625   1318     1  0.0000000  0.6508444  3
    604    600    601    613     1  0.0000000  0.6508444  3
    604    600    607    610     1  0.0000000  0.6508444  3
    604    616    622   1288     1  0.0000000  0.6508444  3
    607    600    601    613     1  0.0000000  0.6508444  3
    607    600    604    616     1  0.0000000  0.6508444  3
    607    610    619    628     1  0.0000000  0.6508444  3
    613    625   1318   1309     1  180.0000771  0.4184000  2
    613    625   1318   1309     1  0.0000000  1.6024720  3
    616    622   1288   1279     1  180.0000771  0.4184000  2
    616    622   1288   1279     1  0.0000000  1.6024720  3
    622   1288   1279   1270     1  180.0000771  0.4184000  2
    622   1288   1279   1270     1  0.0000000  1.6024720  3
    625   1318   1309   1300     1  180.0000771  0.4184000  2
    625   1318   1309   1300     1  0.0000000  1.6024720  3
    630    631    643    655     1  0.0000000  0.6508444  3
    630    634    646    652     1  0.0000000  0.6508444  3
    630    637    640    649     1  0.0000000  0.6508444  3
    631    630    634    646     1  0.0000000  0.6508444  3
    631    630    637    640     1  0.0000000  0.6508444  3
    631    643    655   1378     1  0.0000000  0.6508444  3
    634    630    631    643     1  0.0000000  0.6508444  3
    634    630    637    640     1  0.0000000  0.6508444  3
    634    646    652   1348     1  0.0000000  0.6508444  3
    637    630    631    643     1  0.0000000  0.6508444  3
    637    630    634    646     1  0.0000000  0.6508444  3
    637    640    649    658     1  0.0000000  0.6508444  3
    643    655   1378   1369     1  180.0000771  0.4184000  2
    643    655   1378   1369     1  0.0000000  1.6024720  3
    646    652   1348   1339     1  180.0000771  0.4184000  2
    646    652   1348   1339     1  0.0000000  1.6024720  3
    652   1348   1339   1330     1  180.0000771  0.4184000  2
    652   1348   1339   1330     1  0.0000000  1.6024720  3
    655   1378   1369   1360     1  180.0000771  0.4184000  2
    655   1378   1369   1360     1  0.0000000  1.6024720  3
    660    661    673    685     1  0.0000000  0.6508444  3
    660    664    676    682     1  0.0000000  0.6508444  3
    660    667    670    679     1  0.0000000  0.6508444  3
    661    660    664    676     1  0.0000000  0.6508444  3
    661    660    667    670     1  0.0000000  0.6508444  3
    661    673    685   1406     1  0.0000000  0.6508444  3
    664    660    661    673     1  0.0000000  0.6508444  3
    664    660    667    670     1  0.0000000  0.6508444  3
    664    676    682   1392     1  0.0000000  0.6508444  3
    667    660    661    673     1  0.0000000  0.6508444  3
    667    660    664    676     1  0.0000000  0.6508444  3
    667    670    679    688     1  0.0000000  0.6508444  3
    673    685   1406   1400     1  180.0000771  0.4184000  2
    673    685   1406   1400     1  0.0000000  1.6024720  3
    676    682   1392   1386     1  180.0000771  0.4184000  2
    676    682   1392   1386     1  0.0000000  1.6024720  3
    682   1392   1386   1383     1  180.0000771  0.4184000  2
    682   1392   1386   1383     1  0.0000000  1.6024720  3
    685   1406   1400   1397     1  180.0000771  0.4184000  2
    685   1406   1400   1397     1  0.0000000  1.6024720  3
    690    691    703    715     1  0.0000000  0.6508444  3
    690    694    706    712     1  0.0000000  0.6508444  3
    690    697    700    709     1  0.0000000  0.6508444  3
    691    690    694    706     1  0.0000000  0.6508444  3
    691    690    697    700     1  0.0000000  0.6508444  3
    691    703    715   1434     1  0.0000000  0.6508444  3
    694    690    691    703     1  0.0000000  0.6508444  3
    694    690    697    700     1  0.0000000  0.6508444  3
    694    706    712   1420     1  0.0000000  0.6508444  3
    697    690    691    703     1  0.0000000  0.6508444  3
    697    690    694    706     1  0.0000000  0.6508444  3
    697    700    709    718     1  0.0000000  0.6508444  3
    703    715   1434   1428     1  180.0000771  0.4184000  2
    703    715   1434   1428     1  0.0000000  1.6024720  3
    706    712   1420   1414     1  180.0000771  0.4184000  2
    706    712   1420   1414     1  0.0000000  1.6024720  3
    712   1420   1414   1411     1  180.0000771  0.4184000  2
    712   1420   1414   1411     1  0.0000000  1.6024720  3
    715   1434   1428   1425     1  180.0000771  0.4184000  2
    715   1434   1428   1425     1  0.0000000  1.6024720  3
    720    721    733    745     1  0.0000000  0.6508444  3
    720    724    736    742     1  0.0000000  0.6508444  3
    720    727    730    739     1  0.0000000  0.6508444  3
    721    720    724    736     1  0.0000000  0.6508444  3
    721    720    727    730     1  0.0000000  0.6508444  3
    721    733    745   1462     1  0.0000000  0.6508444  3
    724    720    721    733     1  0.0000000  0.6508444  3
    724    720    727    730     1  0.0000000  0.6508444  3
    724    736    742   1448     1  0.0000000  0.6508444  3
    727    720    721    733     1  0.0000000  0.6508444  3
    727    720    724    736     1  0.0000000  0.6508444  3
    727    730    739    748     1  0.0000000  0.6508444  3
    733    745   1462   1456     1  180.0000771  0.4184000  2
    733    745   1462   1456     1  0.0000000  1.6024720  3
    736    742   1448   1442     1  180.0000771  0.4184000  2
    736    742   1448   1442     1  0.0000000  1.6024720  3
    742   1448   1442   1439     1  180.0000771  0.4184000  2
    742   1448   1442   1439     1  0.0000000  1.6024720  3
    745   1462   1456   1453     1  180.0000771  0.4184000  2
    745   1462   1456   1453     1  0.0000000  1.6024720  3
    750    751    763    775     1  0.0000000  0.6508444  3
    750    754    766    772     1  0.0000000  0.6508444  3
    750    757    760    769     1  0.0000000  0.6508444  3
    751    750    754    766     1  0.0000000  0.6508444  3
    751    750    757    760     1  0.0000000  0.6508444  3
    751    763    775   1490     1  0.0000000  0.6508444  3
    754    750    751    763     1  0.0000000  0.6508444  3
    754    750    757    760     1  0.0000000  0.6508444  3
    754    766    772   1476     1  0.0000000  0.6508444  3
    757    750    751    763     1  0.0000000  0.6508444  3
    757    750    754    766     1  0.0000000  0.6508444  3
    757    760    769    778     1  0.0000000  0.6508444  3
    763    775   1490   1484     1  180.0000771  0.4184000  2
    763    775   1490   1484     1  0.0000000  1.6024720  3
    766    772   1476   1470     1  180.0000771  0.4184000  2
    766    772   1476   1470     1  0.0000000  1.6024720  3
    772   1476   1470   1467     1  180.0000771  0.4184000  2
    772   1476   1470   1467     1  0.0000000  1.6024720  3
    775   1490   1484   1481     1  180.0000771  0.4184000  2
    775   1490   1484   1481     1  0.0000000  1.6024720  3
    780    781    793    805     1  0.0000000  0.6508444  3
    780    784    796    802     1  0.0000000  0.6508444  3
    780    787    790    799     1  0.0000000  0.6508444  3
    781    780    784    796     1  0.0000000  0.6508444  3
    781    780    787    790     1  0.0000000  0.6508444  3
    781    793    805   1518     1  0.0000000  0.6508444  3
    784    780    781    793     1  0.0000000  0.6508444  3
    784    780    787    790     1  0.0000000  0.6508444  3
    784    796    802   1504     1  0.0000000  0.6508444  3
    787    780    781    793     1  0.0000000  0.6508444  3
    787    780    784    796     1  0.0000000  0.6508444  3
    787    790    799    808     1  0.0000000  0.6508444  3
    793    805   1518   1512     1  180.0000771  0.4184000  2
    793    805   1518   1512     1  0.0000000  1.6024720  3
    796    802   1504   1498     1  180.0000771  0.4184000  2
    796    802   1504   1498     1  0.0000000  1.6024720  3
    802   1504   1498   1495     1  180.0000771  0.4184000  2
    802   1504   1498   1495     1  0.0000000  1.6024720  3
    805   1518   1512   1509     1  180.0000771  0.4184000  2
    805   1518   1512   1509     1  0.0000000  1.6024720  3
    810    811    823    835     1  0.0000000  0.6508444  3
    810    814    826    832     1  0.0000000  0.6508444  3
    810    817    820    829     1  0.0000000  0.6508444  3
    811    810    814    826     1  0.0000000  0.6508444  3
    811    810    817    820     1  0.0000000  0.6508444  3
    811    823    835   1546     1  0.0000000  0.6508444  3
    814    810    811    823     1  0.0000000  0.6508444  3
    814    810    817    820     1  0.0000000  0.6508444  3
    814    826    832   1532     1  0.0000000  0.6508444  3
    817    810    811    823     1  0.0000000  0.6508444  3
    817    810    814    826     1  0.0000000  0.6508444  3
    817    820    829    838     1  0.0000000  0.6508444  3
    823    835   1546   1540     1  180.0000771  0.4184000  2
    823    835   1546   1540     1  0.0000000  1.6024720  3
    826    832   1532   1526     1  180.0000771  0.4184000  2
    826    832   1532   1526     1  0.0000000  1.6024720  3
    832   1532   1526   1523     1  180.0000771  0.4184000  2
    832   1532   1526   1523     1  0.0000000  1.6024720  3
    835   1546   1540   1537     1  180.0000771  0.4184000  2
    835   1546   1540   1537     1  0.0000000  1.6024720  3
    840    841    853    865     1  0.0000000  0.6508444  3
    840    844    856    862     1  0.0000000  0.6508444  3
    840    847    850    859     1  0.0000000  0.6508444  3
    841    840    844    856     1  0.0000000  0.6508444  3
    841    840    847    850     1  0.0000000  0.6508444  3
    841    853    865   1574     1  0.0000000  0.6508444  3
    844    840    841    853     1  0.0000000  0.6508444  3
    844    840    847    850     1  0.0000000  0.6508444  3
    844    856    862   1560     1  0.0000000  0.6508444  3
    847    840    841    853     1  0.0000000  0.6508444  3
    847    840    844    856     1  0.0000000  0.6508444  3
    847    850    859    868     1  0.0000000  0.6508444  3
    853    865   1574   1568     1  180.0000771  0.4184000  2
    853    865   1574   1568     1  0.0000000  1.6024720  3
    856    862   1560   1554     1  180.0000771  0.4184000  2
    856    862   1560   1554     1  0.0000000  1.6024720  3
    862   1560   1554   1551     1  180.0000771  0.4184000  2
    862   1560   1554   1551     1  0.0000000  1.6024720  3
    865   1574   1568   1565     1  180.0000771  0.4184000  2
    865   1574   1568   1565     1  0.0000000  1.6024720  3
    870    871    883    895     1  0.0000000  0.6508444  3
    870    874    886    892     1  0.0000000  0.6508444  3
    870    877    880    889     1  0.0000000  0.6508444  3
    871    870    874    886     1  0.0000000  0.6508444  3
    871    870    877    880     1  0.0000000  0.6508444  3
    871    883    895   1602     1  0.0000000  0.6508444  3
    874    870    871    883     1  0.0000000  0.6508444  3
    874    870    877    880     1  0.0000000  0.6508444  3
    874    886    892   1588     1  0.0000000  0.6508444  3
    877    870    871    883     1  0.0000000  0.6508444  3
    877    870    874    886     1  0.0000000  0.6508444  3
    877    880    889    898     1  0.0000000  0.6508444  3
    883    895   1602   1596     1  180.0000771  0.4184000  2
    883    895   1602   1596     1  0.0000000  1.6024720  3
    886    892   1588   1582     1  180.0000771  0.4184000  2
    886    892   1588   1582     1  0.0000000  1.6024720  3
    892   1588   1582   1579     1  180.0000771  0.4184000  2
    892   1588   1582   1579     1  0.0000000  1.6024720  3
    895   1602   1596   1593     1  180.0000771  0.4184000  2
    895   1602   1596   1593     1  0.0000000  1.6024720  3
    900    901    913    925     1  0.0000000  0.6508444  3
    900    904    916    922     1  0.0000000  0.6508444  3
    900    907    910    919     1  0.0000000  0.6508444  3
    901    900    904    916     1  0.0000000  0.6508444  3
    901    900    907    910     1  0.0000000  0.6508444  3
    901    913    925   1630     1  0.0000000  0.6508444  3
    904    900    901    913     1  0.0000000  0.6508444  3
    904    900    907    910     1  0.0000000  0.6508444  3
    904    916    922   1616     1  0.0000000  0.6508444  3
    907    900    901    913     1  0.0000000  0.6508444  3
    907    900    904    916     1  0.0000000  0.6508444  3
    907    910    919    928     1  0.0000000  0.6508444  3
    913    925   1630   1624     1  180.0000771  0.4184000  2
    913    925   1630   1624     1  0.0000000  1.6024720  3
    916    922   1616   1610     1  180.0000771  0.4184000  2
    916    922   1616   1610     1  0.0000000  1.6024720  3
    922   1616   1610   1607     1  180.0000771  0.4184000  2
    922   1616   1610   1607     1  0.0000000  1.6024720  3
    925   1630   1624   1621     1  180.0000771  0.4184000  2
    925   1630   1624   1621     1  0.0000000  1.6024720  3
    930    931    943    955     1  0.0000000  0.6508444  3
    930    934    946    952     1  0.0000000  0.6508444  3
    930    937    940    949     1  0.0000000  0.6508444  3
    931    930    934    946     1  0.0000000  0.6508444  3
    931    930    937    940     1  0.0000000  0.6508444  3
    931    943    955   1658     1  0.0000000  0.6508444  3
    934    930    931    943     1  0.0000000  0.6508444  3
    934    930    937    940     1  0.0000000  0.6508444  3
    934    946    952   1644     1  0.0000000  0.6508444  3
    937    930    931    943     1  0.0000000  0.6508444  3
    937    930    934    946     1  0.0000000  0.6508444  3
    937    940    949    958     1  0.0000000  0.6508444  3
    943    955   1658   1652     1  180.0000771  0.4184000  2
    943    955   1658   1652     1  0.0000000  1.6024720  3
    946    952   1644   1638     1  180.0000771  0.4184000  2
    946    952   1644   1638     1  0.0000000  1.6024720  3
    952   1644   1638   1635     1  180.0000771  0.4184000  2
    952   1644   1638   1635     1  0.0000000  1.6024720  3
    955   1658   1652   1649     1  180.0000771  0.4184000  2
    955   1658   1652   1649     1  0.0000000  1.6024720  3
    960    961    973    985     1  0.0000000  0.6508444  3
    960    964    976    982     1  0.0000000  0.6508444  3
    960    967    970    979     1  0.0000000  0.6508444  3
    961    960    964    976     1  0.0000000  0.6508444  3
    961    960    967    970     1  0.0000000  0.6508444  3
    961    973    985   1686     1  0.0000000  0.6508444  3
    964    960    961    973     1  0.0000000  0.6508444  3
    964    960    967    970     1  0.0000000  0.6508444  3
    964    976    982   1672     1  0.0000000  0.6508444  3
    967    960    961    973     1  0.0000000  0.6508444  3
    967    960    964    976     1  0.0000000  0.6508444  3
    967    970    979    988     1  0.0000000  0.6508444  3
    973    985   1686   1680     1  180.0000771  0.4184000  2
    973    985   1686   1680     1  0.0000000  1.6024720  3
    976    982   1672   1666     1  180.0000771  0.4184000  2
    976    982   1672   1666     1  0.0000000  1.6024720  3
    982   1672   1666   1663     1  180.0000771  0.4184000  2
    982   1672   1666   1663     1  0.0000000  1.6024720  3
    985   1686   1680   1677     1  180.0000771  0.4184000  2
    985   1686   1680   1677     1  0.0000000  1.6024720  3
    990    991   1003   1015     1  0.0000000  0.6508444  3
    990    994   1006   1012     1  0.0000000  0.6508444  3
    990    997   1000   1009     1  0.0000000  0.6508444  3
    991    990    994   1006     1  0.0000000  0.6508444  3
    991    990    997   1000     1  0.0000000  0.6508444  3
    991   1003   1015   1714     1  0.0000000  0.6508444  3
    994    990    991   1003     1  0.0000000  0.6508444  3
    994    990    997   1000     1  0.0000000  0.6508444  3
    994   1006   1012   1700     1  0.0000000  0.6508444  3
    997    990    991   1003     1  0.0000000  0.6508444  3
    997    990    994   1006     1  0.0000000  0.6508444  3
    997   1000   1009   1018     1  0.0000000  0.6508444  3
   1003   1015   1714   1708     1  180.0000771  0.4184000  2
   1003   1015   1714   1708     1  0.0000000  1.6024720  3
   1006   1012   1700   1694     1  180.0000771  0.4184000  2
   1006   1012   1700   1694     1  0.0000000  1.6024720  3
   1012   1700   1694   1691     1  180.0000771  0.4184000  2
   1012   1700   1694   1691     1  0.0000000  1.6024720  3
   1015   1714   1708   1705     1  180.0000771  0.4184000  2
   1015   1714   1708   1705     1  0.0000000  1.6024720  3
   1020   1021   1033   1045     1  0.0000000  0.6508444  3
   1020   1024   1036   1042     1  0.0000000  0.6508444  3
   1020   1027   1030   1039     1  0.0000000  0.6508444  3
   1021   1020   1024   1036     1  0.0000000  0.6508444  3
   1021   1020   1027   1030     1  0.0000000  0.6508444  3
   1021   1033   1045   1742     1  0.0000000  0.6508444  3
   1024   1020   1021   1033     1  0.0000000  0.6508444  3
   1024   1020   1027   1030     1  0.0000000  0.6508444  3
   1024   1036   1042   1728     1  0.0000000  0.6508444  3
   1027   1020   1021   1033     1  0.0000000  0.6508444  3
   1027   1020   1024   1036     1  0.0000000  0.6508444  3
   1027   1030   1039   1048     1  0.0000000  0.6508444  3
   1033   1045   1742   1736     1  180.0000771  0.4184000  2
   1033   1045   1742   1736     1  0.0000000  1.6024720  3
   1036   1042   1728   1722     1  180.0000771  0.4184000  2
   1036   1042   1728   1722     1  0.0000000  1.6024720  3
   1042   1728   1722   1719     1  180.0000771  0.4184000  2
   1042   1728   1722   1719     1  0.0000000  1.6024720  3
   1045   1742   1736   1733     1  180.0000771  0.4184000  2
   1045   1742   1736   1733     1  0.0000000  1.6024720  3
   1050   1051   1063   1075     1  0.0000000  0.6508444  3
   1050   1054   1066   1072     1  0.0000000  0.6508444  3
   1050   1057   1060   1069     1  0.0000000  0.6508444  3
   1051   1050   1054   1066     1  0.0000000  0.6508444  3
   1051   1050   1057   1060     1  0.0000000  0.6508444  3
   1051   1063   1075   1770     1  0.0000000  0.6508444  3
   1054   1050   1051   1063     1  0.0000000  0.6508444  3
   1054   1050   1057   1060     1  0.0000000  0.6508444  3
   1054   1066   1072   1756     1  0.0000000  0.6508444  3
   1057   1050   1051   1063     1  0.0000000  0.6508444  3
   1057   1050   1054   1066     1  0.0000000  0.6508444  3
   1057   1060   1069   1078     1  0.0000000  0.6508444  3
   1063   1075   1770   1764     1  180.0000771  0.4184000  2
   1063   1075   1770   1764     1  0.0000000  1.6024720  3
   1066   1072   1756   1750     1  180.0000771  0.4184000  2
   1066   1072   1756   1750     1  0.0000000  1.6024720  3
   1072   1756   1750   1747     1  180.0000771  0.4184000  2
   1072   1756   1750   1747     1  0.0000000  1.6024720  3
   1075   1770   1764   1761     1  180.0000771  0.4184000  2
   1075   1770   1764   1761     1  0.0000000  1.6024720  3
   1080   1081   1093   1105     1  0.0000000  0.6508444  3
   1080   1084   1096   1102     1  0.0000000  0.6508444  3
   1080   1087   1090   1099     1  0.0000000  0.6508444  3
   1081   1080   1084   1096     1  0.0000000  0.6508444  3
   1081   1080   1087   1090     1  0.0000000  0.6508444  3
   1081   1093   1105   1798     1  0.0000000  0.6508444  3
   1084   1080   1081   1093     1  0.0000000  0.6508444  3
   1084   1080   1087   1090     1  0.0000000  0.6508444  3
   1084   1096   1102   1784     1  0.0000000  0.6508444  3
   1087   1080   1081   1093     1  0.0000000  0.6508444  3
   1087   1080   1084   1096     1  0.0000000  0.6508444  3
   1087   1090   1099   1108     1  0.0000000  0.6508444  3
   1093   1105   1798   1792     1  180.0000771  0.4184000  2
   1093   1105   1798   1792     1  0.0000000  1.6024720  3
   1096   1102   1784   1778     1  180.0000771  0.4184000  2
   1096   1102   1784   1778     1  0.0000000  1.6024720  3
   1102   1784   1778   1775     1  180.0000771  0.4184000  2
   1102   1784   1778   1775     1  0.0000000  1.6024720  3
   1105   1798   1792   1789     1  180.0000771  0.4184000  2
   1105   1798   1792   1789     1  0.0000000  1.6024720  3
   1110   1111   1123   1135     1  0.0000000  0.6508444  3
   1110   1114   1126   1132     1  0.0000000  0.6508444  3
   1110   1117   1120   1129     1  0.0000000  0.6508444  3
   1111   1110   1114   1126     1  0.0000000  0.6508444  3
   1111   1110   1117   1120     1  0.0000000  0.6508444  3
   1111   1123   1135   1826     1  0.0000000  0.6508444  3
   1114   1110   1111   1123     1  0.0000000  0.6508444  3
   1114   1110   1117   1120     1  0.0000000  0.6508444  3
   1114   1126   1132   1812     1  0.0000000  0.6508444  3
   1117   1110   1111   1123     1  0.0000000  0.6508444  3
   1117   1110   1114   1126     1  0.0000000  0.6508444  3
   1117   1120   1129   1138     1  0.0000000  0.6508444  3
   1123   1135   1826   1820     1  180.0000771  0.4184000  2
   1123   1135   1826   1820     1  0.0000000  1.6024720  3
   1126   1132   1812   1806     1  180.0000771  0.4184000  2
   1126   1132   1812   1806     1  0.0000000  1.6024720  3
   1132   1812   1806   1803     1  180.0000771  0.4184000  2
   1132   1812   1806   1803     1  0.0000000  1.6024720  3
   1135   1826   1820   1817     1  180.0000771  0.4184000  2
   1135   1826   1820   1817     1  0.0000000  1.6024720  3
   1140   1141   1153   1165     1  0.0000000  0.6508444  3
   1140   1144   1156   1162     1  0.0000000  0.6508444  3
   1140   1147   1150   1159     1  0.0000000  0.6508444  3
   1141   1140   1144   1156     1  0.0000000  0.6508444  3
   1141   1140   1147   1150     1  0.0000000  0.6508444  3
   1141   1153   1165   1854     1  0.0000000  0.6508444  3
   1144   1140   1141   1153     1  0.0000000  0.6508444  3
   1144   1140   1147   1150     1  0.0000000  0.6508444  3
   1144   1156   1162   1840     1  0.0000000  0.6508444  3
   1147   1140   1141   1153     1  0.0000000  0.6508444  3
   1147   1140   1144   1156     1  0.0000000  0.6508444  3
   1147   1150   1159   1168     1  0.0000000  0.6508444  3
   1153   1165   1854   1848     1  180.0000771  0.4184000  2
   1153   1165   1854   1848     1  0.0000000  1.6024720  3
   1156   1162   1840   1834     1  180.0000771  0.4184000  2
   1156   1162   1840   1834     1  0.0000000  1.6024720  3
   1162   1840   1834   1831     1  180.0000771  0.4184000  2
   1162   1840   1834   1831     1  0.0000000  1.6024720  3
   1165   1854   1848   1845     1  180.0000771  0.4184000  2
   1165   1854   1848   1845     1  0.0000000  1.6024720  3
   1170   1171   1183   1195     1  0.0000000  0.6508444  3
   1170   1174   1186   1192     1  0.0000000  0.6508444  3
   1170   1177   1180   1189     1  0.0000000  0.6508444  3
   1171   1170   1174   1186     1  0.0000000  0.6508444  3
   1171   1170   1177   1180     1  0.0000000  0.6508444  3
   1171   1183   1195   1882     1  0.0000000  0.6508444  3
   1174   1170   1171   1183     1  0.0000000  0.6508444  3
   1174   1170   1177   1180     1  0.0000000  0.6508444  3
   1174   1186   1192   1868     1  0.0000000  0.6508444  3
   1177   1170   1171   1183     1  0.0000000  0.6508444  3
   1177   1170   1174   1186     1  0.0000000  0.6508444  3
   1177   1180   1189   1198     1  0.0000000  0.6508444  3
   1183   1195   1882   1876     1  180.0000771  0.4184000  2
   1183   1195   1882   1876     1  0.0000000  1.6024720  3
   1186   1192   1868   1862     1  180.0000771  0.4184000  2
   1186   1192   1868   1862     1  0.0000000  1.6024720  3
   1192   1868   1862   1859     1  180.0000771  0.4184000  2
   1192   1868   1862   1859     1  0.0000000  1.6024720  3
   1195   1882   1876   1873     1  180.0000771  0.4184000  2
   1195   1882   1876   1873     1  0.0000000  1.6024720  3
   1200   1201   1213   1225     1  0.0000000  0.6508444  3
   1200   1204   1216   1222     1  0.0000000  0.6508444  3
   1200   1207   1210   1219     1  0.0000000  0.6508444  3
   1201   1200   1204   1216     1  0.0000000  0.6508444  3
   1201   1200   1207   1210     1  0.0000000  0.6508444  3
   1201   1213   1225   1910     1  0.0000000  0.6508444  3
   1204   1200   1201   1213     1  0.0000000  0.6508444  3
   1204   1200   1207   1210     1  0.0000000  0.6508444  3
   1204   1216   1222   1896     1  0.0000000  0.6508444  3
   1207   1200   1201   1213     1  0.0000000  0.6508444  3
   1207   1200   1204   1216     1  0.0000000  0.6508444  3
   1207   1210   1219   1228     1  0.0000000  0.6508444  3
   1213   1225   1910   1904     1  180.0000771  0.4184000  2
   1213   1225   1910   1904     1  0.0000000  1.6024720  3
   1216   1222   1896   1890     1  180.0000771  0.4184000  2
   1216   1222   1896   1890     1  0.0000000  1.6024720  3
   1222   1896   1890   1887     1  180.0000771  0.4184000  2
   1222   1896   1890   1887     1  0.0000000  1.6024720  3
   1225   1910   1904   1901     1  180.0000771  0.4184000  2
   1225   1910   1904   1901     1  0.0000000  1.6024720  3
   1230   1231   1243   1255     1  0.0000000  0.6508444  3
   1230   1234   1246   1252     1  0.0000000  0.6508444  3
   1230   1237   1240   1249     1  0.0000000  0.6508444  3
   1231   1230   1234   1246     1  0.0000000  0.6508444  3
   1231   1230   1237   1240     1  0.0000000  0.6508444  3
   1231   1243   1255   1938     1  0.0000000  0.6508444  3
   1234   1230   1231   1243     1  0.0000000  0.6508444  3
   1234   1230   1237   1240     1  0.0000000  0.6508444  3
   1234   1246   1252   1924     1  0.0000000  0.6508444  3
   1237   1230   1231   1243     1  0.0000000  0.6508444  3
   1237   1230   1234   1246     1  0.0000000  0.6508444  3
   1237   1240   1249   1258     1  0.0000000  0.6508444  3
   1243   1255   1938   1932     1  180.0000771  0.4184000  2
   1243   1255   1938   1932     1  0.0000000  1.6024720  3
   1246   1252   1924   1918     1  180.0000771  0.4184000  2
   1246   1252   1924   1918     1  0.0000000  1.6024720  3
   1252   1924   1918   1915     1  180.0000771  0.4184000  2
   1252   1924   1918   1915     1  0.0000000  1.6024720  3
   1255   1938   1932   1929     1  180.0000771  0.4184000  2
   1255   1938   1932   1929     1  0.0000000  1.6024720  3
   1260   1261   1273   1285     1  0.0000000  0.6508444  3
   1260   1264   1276   1282     1  0.0000000  0.6508444  3
   1260   1267   1270   1279     1  0.0000000  0.6508444  3
   1261   1260   1264   1276     1  0.0000000  0.6508444  3
   1261   1260   1267   1270     1  0.0000000  0.6508444  3
   1261   1273   1285   1966     1  0.0000000  0.6508444  3
   1264   1260   1261   1273     1  0.0000000  0.6508444  3
   1264   1260   1267   1270     1  0.0000000  0.6508444  3
   1264   1276   1282   1952     1  0.0000000  0.6508444  3
   1267   1260   1261   1273     1  0.0000000  0.6508444  3
   1267   1260   1264   1276     1  0.0000000  0.6508444  3
   1267   1270   1279   1288     1  0.0000000  0.6508444  3
   1273   1285   1966   1960     1  180.0000771  0.4184000  2
   1273   1285   1966   1960     1  0.0000000  1.6024720  3
   1276   1282   1952   1946     1  180.0000771  0.4184000  2
   1276   1282   1952   1946     1  0.0000000  1.6024720  3
   1282   1952   1946   1943     1  180.0000771  0.4184000  2
   1282   1952   1946   1943     1  0.0000000  1.6024720  3
   1285   1966   1960   1957     1  180.0000771  0.4184000  2
   1285   1966   1960   1957     1  0.0000000  1.6024720  3
   1290   1291   1303   1315     1  0.0000000  0.6508444  3
   1290   1294   1306   1312     1  0.0000000  0.6508444  3
   1290   1297   1300   1309     1  0.0000000  0.6508444  3
   1291   1290   1294   1306     1  0.0000000  0.6508444  3
   1291   1290   1297   1300     1  0.0000000  0.6508444  3
   1291   1303   1315   1994     1  0.0000000  0.6508444  3
   1294   1290   1291   1303     1  0.0000000  0.6508444  3
   1294   1290   1297   1300     1  0.0000000  0.6508444  3
   1294   1306   1312   1980     1  0.0000000  0.6508444  3
   1297   1290   1291   1303     1  0.0000000  0.6508444  3
   1297   1290   1294   1306     1  0.0000000  0.6508444  3
   1297   1300   1309   1318     1  0.0000000  0.6508444  3
   1303   1315   1994   1988     1  180.0000771  0.4184000  2
   1303   1315   1994   1988     1  0.0000000  1.6024720  3
   1306   1312   1980   1974     1  180.0000771  0.4184000  2
   1306   1312   1980   1974     1  0.0000000  1.6024720  3
   1312   1980   1974   1971     1  180.0000771  0.4184000  2
   1312   1980   1974   1971     1  0.0000000  1.6024720  3
   1315   1994   1988   1985     1  180.0000771  0.4184000  2
   1315   1994   1988   1985     1  0.0000000  1.6024720  3
   1320   1321   1333   1345     1  0.0000000  0.6508444  3
   1320   1324   1336   1342     1  0.0000000  0.6508444  3
   1320   1327   1330   1339     1  0.0000000  0.6508444  3
   1321   1320   1324   1336     1  0.0000000  0.6508444  3
   1321   1320   1327   1330     1  0.0000000  0.6508444  3
   1321   1333   1345   2022     1  0.0000000  0.6508444  3
   1324   1320   1321   1333     1  0.0000000  0.6508444  3
   1324   1320   1327   1330     1  0.0000000  0.6508444  3
   1324   1336   1342   2008     1  0.0000000  0.6508444  3
   1327   1320   1321   1333     1  0.0000000  0.6508444  3
   1327   1320   1324   1336     1  0.0000000  0.6508444  3
   1327   1330   1339   1348     1  0.0000000  0.6508444  3
   1333   1345   2022   2016     1  180.0000771  0.4184000  2
   1333   1345   2022   2016     1  0.0000000  1.6024720  3
   1336   1342   2008   2002     1  180.0000771  0.4184000  2
   1336   1342   2008   2002     1  0.0000000  1.6024720  3
   1342   2008   2002   1999     1  180.0000771  0.4184000  2
   1342   2008   2002   1999     1  0.0000000  1.6024720  3
   1345   2022   2016   2013     1  180.0000771  0.4184000  2
   1345   2022   2016   2013     1  0.0000000  1.6024720  3
   1350   1351   1363   1375     1  0.0000000  0.6508444  3
   1350   1354   1366   1372     1  0.0000000  0.6508444  3
   1350   1357   1360   1369     1  0.0000000  0.6508444  3
   1351   1350   1354   1366     1  0.0000000  0.6508444  3
   1351   1350   1357   1360     1  0.0000000  0.6508444  3
   1351   1363   1375   2050     1  0.0000000  0.6508444  3
   1354   1350   1351   1363     1  0.0000000  0.6508444  3
   1354   1350   1357   1360     1  0.0000000  0.6508444  3
   1354   1366   1372   2036     1  0.0000000  0.6508444  3
   1357   1350   1351   1363     1  0.0000000  0.6508444  3
   1357   1350   1354   1366     1  0.0000000  0.6508444  3
   1357   1360   1369   1378     1  0.0000000  0.6508444  3
   1363   1375   2050   2044     1  180.0000771  0.4184000  2
   1363   1375   2050   2044     1  0.0000000  1.6024720  3
   1366   1372   2036   2030     1  180.0000771  0.4184000  2
   1366   1372   2036   2030     1  0.0000000  1.6024720  3
   1372   2036   2030   2027     1  180.0000771  0.4184000  2
   1372   2036   2030   2027     1  0.0000000  1.6024720  3
   1375   2050   2044   2041     1  180.0000771  0.4184000  2
   1375   2050   2044   2041     1  0.0000000  1.6024720  3
   1380   1383   1386   1392     1  0.0000000  0.6508444  3
   1386   1383   1380   1389     1  0.0000000  0.6508444  3
   1394   1397   1400   1406     1  0.0000000  0.6508444  3
   1400   1397   1394   1403     1  0.0000000  0.6508444  3
   1408   1411   1414   1420     1  0.0000000  0.6508444  3
   1414   1411   1408   1417     1  0.0000000  0.6508444  3
   1422   1425   1428   1434     1  0.0000000  0.6508444  3
   1428   1425   1422   1431     1  0.0000000  0.6508444  3
   1436   1439   1442   1448     1  0.0000000  0.6508444  3
   1442   1439   1436   1445     1  0.0000000  0.6508444  3
   1450   1453   1456   1462     1  0.0000000  0.6508444  3
   1456   1453   1450   1459     1  0.0000000  0.6508444  3
   1464   1467   1470   1476     1  0.0000000  0.6508444  3
   1470   1467   1464   1473     1  0.0000000  0.6508444  3
   1478   1481   1484   1490     1  0.0000000  0.6508444  3
   1484   1481   1478   1487     1  0.0000000  0.6508444  3
   1492   1495   1498   1504     1  0.0000000  0.6508444  3
   1498   1495   1492   1501     1  0.0000000  0.6508444  3
   1506   1509   1512   1518     1  0.0000000  0.6508444  3
   1512   1509   1506   1515     1  0.0000000  0.6508444  3
   1520   1523   1526   1532     1  0.0000000  0.6508444  3
   1526   1523   1520   1529     1  0.0000000  0.6508444  3
   1534   1537   1540   1546     1  0.0000000  0.6508444  3
   1540   1537   1534   1543     1  0.0000000  0.6508444  3
   1548   1551   1554   1560     1  0.0000000  0.6508444  3
   1554   1551   1548   1557     1  0.0000000  0.6508444  3
   1562   1565   1568   1574     1  0.0000000  0.6508444  3
   1568   1565   1562   1571     1  0.0000000  0.6508444  3
   1576   1579   1582   1588     1  0.0000000  0.6508444  3
   1582   1579   1576   1585     1  0.0000000  0.6508444  3
   1590   1593   1596   1602     1  0.0000000  0.6508444  3
   1596   1593   1590   1599     1  0.0000000  0.6508444  3
   1604   1607   1610   1616     1  0.0000000  0.6508444  3
   1610   1607   1604   1613     1  0.0000000  0.6508444  3
   1618   1621   1624   1630     1  0.0000000  0.6508444  3
   1624   1621   1618   1627     1  0.0000000  0.6508444  3
   1632   1635   1638   1644     1  0.0000000  0.6508444  3
   1638   1635   1632   1641     1  0.0000000  0.6508444  3
   1646   1649   1652   1658     1  0.0000000  0.6508444  3
   1652   1649   1646   1655     1  0.0000000  0.6508444  3
   1660   1663   1666   1672     1  0.0000000  0.6508444  3
   1666   1663   1660   1669     1  0.0000000  0.6508444  3
   1674   1677   1680   1686     1  0.0000000  0.6508444  3
   1680   1677   1674   1683     1  0.0000000  0.6508444  3
   1688   1691   1694   1700     1  0.0000000  0.6508444  3
   1694   1691   1688   1697     1  0.0000000  0.6508444  3
   1702   1705   1708   1714     1  0.0000000  0.6508444  3
   1708   1705   1702   1711     1  0.0000000  0.6508444  3
   1716   1719   1722   1728     1  0.0000000  0.6508444  3
   1722   1719   1716   1725     1  0.0000000  0.6508444  3
   1730   1733   1736   1742     1  0.0000000  0.6508444  3
   1736   1733   1730   1739     1  0.0000000  0.6508444  3
   1744   1747   1750   1756     1  0.0000000  0.6508444  3
   1750   1747   1744   1753     1  0.0000000  0.6508444  3
   1758   1761   1764   1770     1  0.0000000  0.6508444  3
   1764   1761   1758   1767     1  0.0000000  0.6508444  3
   1772   1775   1778   1784     1  0.0000000  0.6508444  3
   1778   1775   1772   1781     1  0.0000000  0.6508444  3
   1786   1789   1792   1798     1  0.0000000  0.6508444  3
   1792   1789   1786   1795     1  0.0000000  0.6508444  3
   1800   1803   1806   1812     1  0.0000000  0.6508444  3
   1806   1803   1800   1809     1  0.0000000  0.6508444  3
   1814   1817   1820   1826     1  0.0000000  0.6508444  3
   1820   1817   1814   1823     1  0.0000000  0.6508444  3
   1828   1831   1834   1840     1  0.0000000  0.6508444  3
   1834   1831   1828   1837     1  0.0000000  0.6508444  3
   1842   1845   1848   1854     1  0.0000000  0.6508444  3
   1848   1845   1842   1851     1  0.0000000  0.6508444  3
   1856   1859   1862   1868     1  0.0000000  0.6508444  3
   1862   1859   1856   1865     1  0.0000000  0.6508444  3
   1870   1873   1876   1882     1  0.0000000  0.6508444  3
   1876   1873   1870   1879     1  0.0000000  0.6508444  3
   1884   1887   1890   1896     1  0.0000000  0.6508444  3
   1890   1887   1884   1893     1  0.0000000  0.6508444  3
   1898   1901   1904   1910     1  0.0000000  0.6508444  3
   1904   1901   1898   1907     1  0.0000000  0.6508444  3
   1912   1915   1918   1924     1  0.0000000  0.6508444  3
   1918   1915   1912   1921     1  0.0000000  0.6508444  3
   1926   1929   1932   1938     1  0.0000000  0.6508444  3
   1932   1929   1926   1935     1  0.0000000  0.6508444  3
   1940   1943   1946   1952     1  0.0000000  0.6508444  3
   1946   1943   1940   1949     1  0.0000000  0.6508444  3
   1954   1957   1960   1966     1  0.0000000  0.6508444  3
   1960   1957   1954   1963     1  0.0000000  0.6508444  3
   1968   1971   1974   1980     1  0.0000000  0.6508444  3
   1974   1971   1968   1977     1  0.0000000  0.6508444  3
   1982   1985   1988   1994     1  0.0000000  0.6508444  3
   1988   1985   1982   1991     1  0.0000000  0.6508444  3
   1996   1999   2002   2008     1  0.0000000  0.6508444  3
   2002   1999   1996   2005     1  0.0000000  0.6508444  3
   2010   2013   2016   2022     1  0.0000000  0.6508444  3
   2016   2013   2010   2019     1  0.0000000  0.6508444  3
   2024   2027   2030   2036     1  0.0000000  0.6508444  3
   2030   2027   2024   2033     1  0.0000000  0.6508444  3
   2038   2041   2044   2050     1  0.0000000  0.6508444  3
   2044   2041   2038   2047     1  0.0000000  0.6508444  3
      1      2     14     15     1  0.0000000  0.6508444  3
      1      2     14     16     1  0.0000000  0.6508444  3
      1      5     17     18     1  0.0000000  0.6508444  3
      1      5     17     19     1  0.0000000  0.6508444  3
      1      8     11     12     1  0.0000000  0.6508444  3
      1      8     11     13     1  0.0000000  0.6508444  3
      2      1      5      6     1  0.0000000  0.6508444  3
      2      1      5      7     1  0.0000000  0.6508444  3
      2      1      8      9     1  0.0000000  0.6508444  3
      2      1      8     10     1  0.0000000  0.6508444  3
      2     14     26     27     1  0.0000000  0.6508444  3
      2     14     26     28     1  0.0000000  0.6508444  3
      5      1      2      3     1  0.0000000  0.6508444  3
      8      1      2      3     1  0.0000000  0.6508444  3
     29      1      2      3     1  0.0000000  0.6508444  3
      3      2     14     26     1  0.0000000  0.6508444  3
      3      2     14     15     1  0.0000000  0.6508444  3
      3      2     14     16     1  0.0000000  0.6508444  3
      5      1      2      4     1  0.0000000  0.6508444  3
      8      1      2      4     1  0.0000000  0.6508444  3
     29      1      2      4     1  0.0000000  0.6508444  3
      4      2     14     26     1  0.0000000  0.6508444  3
      4      2     14     15     1  0.0000000  0.6508444  3
      4      2     14     16     1  0.0000000  0.6508444  3
      5      1      8      9     1  0.0000000  0.6508444  3
      5      1      8     10     1  0.0000000  0.6508444  3
      5     17     20     21     1  0.0000000  0.6508444  3
      5     17     20     22     1  0.0000000  0.6508444  3
      8      1      5      6     1  0.0000000  0.6508444  3
     29      1      5      6     1  0.0000000  0.6508444  3
      6      5     17     20     1  0.0000000  0.6508444  3
      6      5     17     18     1  0.0000000  0.6508444  3
      6      5     17     19     1  0.0000000  0.6508444  3
      8      1      5      7     1  0.0000000  0.6508444  3
     29      1      5      7     1  0.0000000  0.6508444  3
      7      5     17     20     1  0.0000000  0.6508444  3
      7      5     17     18     1  0.0000000  0.6508444  3
      7      5     17     19     1  0.0000000  0.6508444  3
      8     11     23     24     1  0.0000000  0.6508444  3
      8     11     23     25     1  0.0000000  0.6508444  3
     29      1      8      9     1  0.0000000  0.6508444  3
      9      8     11     23     1  0.0000000  0.6508444  3
      9      8     11     12     1  0.0000000  0.6508444  3
      9      8     11     13     1  0.0000000  0.6508444  3
     29      1      8     10     1  0.0000000  0.6508444  3
     10      8     11     23     1  0.0000000  0.6508444  3
     10      8     11     12     1  0.0000000  0.6508444  3
     10      8     11     13     1  0.0000000  0.6508444  3
     29      1      8     11     1  0.0000000  0.6508444  3
     12     11     23     88     1  0.0000000  1.0460000  1
     12     11     23     88     1  0.0000000  0.0000000  3
     12     11     23     24     1  0.0000000  0.6508444  3
     12     11     23     25     1  0.0000000  0.6508444  3
     13     11     23     88     1  0.0000000  1.0460000  1
     13     11     23     88     1  0.0000000  0.0000000  3
     13     11     23     24     1  0.0000000  0.6508444  3
     13     11     23     25     1  0.0000000  0.6508444  3
     29      1      2     14     1  0.0000000  0.6508444  3
     15     14     26    118     1  0.0000000  1.0460000  1
     15     14     26    118     1  0.0000000  0.0000000  3
     15     14     26     27     1  0.0000000  0.6508444  3
     15     14     26     28     1  0.0000000  0.6508444  3
     16     14     26    118     1  0.0000000  1.0460000  1
     16     14     26    118     1  0.0000000  0.0000000  3
     16     14     26     27     1  0.0000000  0.6508444  3
     16     14     26     28     1  0.0000000  0.6508444  3
     29      1      5     17     1  0.0000000  0.6508444  3
     18     17     20     58     1  0.0000000  1.0460000  1
     18     17     20     58     1  0.0000000  0.0000000  3
     18     17     20     21     1  0.0000000  0.6508444  3
     18     17     20     22     1  0.0000000  0.6508444  3
     19     17     20     58     1  0.0000000  1.0460000  1
     19     17     20     58     1  0.0000000  0.0000000  3
     19     17     20     21     1  0.0000000  0.6508444  3
     19     17     20     22     1  0.0000000  0.6508444  3
     20     58     49     50     1  0.0000000  1.6038667  3
     20     58     49     51     1  0.0000000  1.6038667  3
     21     20     58     49     1  0.0000000  1.6038667  3
     22     20     58     49     1  0.0000000  1.6038667  3
     23     88     79     80     1  0.0000000  1.6038667  3
     23     88     79     81     1  0.0000000  1.6038667  3
     24     23     88     79     1  0.0000000  1.6038667  3
     25     23     88     79     1  0.0000000  1.6038667  3
     26    118    109    110     1  0.0000000  1.6038667  3
     26    118    109    111     1  0.0000000  1.6038667  3
     27     26    118    109     1  0.0000000  1.6038667  3
     28     26    118    109     1  0.0000000  1.6038667  3
     30     31     43     44     1  0.0000000  0.6508444  3
     30     31     43     45     1  0.0000000  0.6508444  3
     30     34     46     47     1  0.0000000  0.6508444  3
     30     34     46     48     1  0.0000000  0.6508444  3
     30     37     40     41     1  0.0000000  0.6508444  3
     30     37     40     42     1  0.0000000  0.6508444  3
     31     30     34     35     1  0.0000000  0.6508444  3
     31     30     34     36     1  0.0000000  0.6508444  3
     31     30     37     38     1  0.0000000  0.6508444  3
     31     30     37     39     1  0.0000000  0.6508444  3
     31     43     55     56     1  0.0000000  0.6508444  3
     31     43     55     57     1  0.0000000  0.6508444  3
     32     31     30     34     1  0.0000000  0.6508444  3
     32     31     30     37     1  0.0000000  0.6508444  3
     32     31     30     59     1  0.0000000  0.6508444  3
     32     31     43     55     1  0.0000000  0.6508444  3
     32     31     43     44     1  0.0000000  0.6508444  3
     32     31     43     45     1  0.0000000  0.6508444  3
     33     31     30     34     1  0.0000000  0.6508444  3
     33     31     30     37     1  0.0000000  0.6508444  3
     33     31     30     59     1  0.0000000  0.6508444  3
     33     31     43     55     1  0.0000000  0.6508444  3
     33     31     43     44     1  0.0000000  0.6508444  3
     33     31     43     45     1  0.0000000  0.6508444  3
     34     30     37     38     1  0.0000000  0.6508444  3
     34     30     37     39     1  0.0000000  0.6508444  3
     34     46     52     53     1  0.0000000  0.6508444  3
     34     46     52     54     1  0.0000000  0.6508444  3
     35     34     30     37     1  0.0000000  0.6508444  3
     35     34     30     59     1  0.0000000  0.6508444  3
     35     34     46     52     1  0.0000000  0.6508444  3
     35     34     46     47     1  0.0000000  0.6508444  3
     35     34     46     48     1  0.0000000  0.6508444  3
     36     34     30     37     1  0.0000000  0.6508444  3
     36     34     30     59     1  0.0000000  0.6508444  3
     36     34     46     52     1  0.0000000  0.6508444  3
     36     34     46     47     1  0.0000000  0.6508444  3
     36     34     46     48     1  0.0000000  0.6508444  3
     37     40     49     50     1  0.0000000  0.6508444  3
     37     40     49     51     1  0.0000000  0.6508444  3
     38     37     30     59     1  0.0000000  0.6508444  3
     38     37     40     49     1  0.0000000  0.6508444  3
     38     37     40     41     1  0.0000000  0.6508444  3
     38     37     40     42     1  0.0000000  0.6508444  3
     39     37     30     59     1  0.0000000  0.6508444  3
     39     37     40     49     1  0.0000000  0.6508444  3
     39     37     40     41     1  0.0000000  0.6508444  3
     39     37     40     42     1  0.0000000  0.6508444  3
     40     37     30     59     1  0.0000000  0.6508444  3
     41     40     49     58     1  0.0000000  1.0460000  1
     41     40     49     58     1  0.0000000  0.0000000  3
     41     40     49     50     1  0.0000000  0.6508444  3
     41     40     49     51     1  0.0000000  0.6508444  3
     42     40     49     58     1  0.0000000  1.0460000  1
     42     40     49     58     1  0.0000000  0.0000000  3
     42     40     49     50     1  0.0000000  0.6508444  3
     42     40     49     51     1  0.0000000  0.6508444  3
     43     31     30     59     1  0.0000000  0.6508444  3
     44     43     55    178     1  0.0000000  1.0460000  1
     44     43     55    178     1  0.0000000  0.0000000  3
     44     43     55     56     1  0.0000000  0.6508444  3
     44     43     55     57     1  0.0000000  0.6508444  3
     45     43     55    178     1  0.0000000  1.0460000  1
     45     43     55    178     1  0.0000000  0.0000000  3
     45     43     55     56     1  0.0000000  0.6508444  3
     45     43     55     57     1  0.0000000  0.6508444  3
     46     34     30     59     1  0.0000000  0.6508444  3
     47     46     52    148     1  0.0000000  1.0460000  1
     47     46     52    148     1  0.0000000  0.0000000  3
     47     46     52     53     1  0.0000000  0.6508444  3
     47     46     52     54     1  0.0000000  0.6508444  3
     48     46     52    148     1  0.0000000  1.0460000  1
     48     46     52    148     1  0.0000000  0.0000000  3
     48     46     52     53     1  0.0000000  0.6508444  3
     48     46     52     54     1  0.0000000  0.6508444  3
     52    148    139    140     1  0.0000000  1.6038667  3
     52    148    139    141     1  0.0000000  1.6038667  3
     53     52    148    139     1  0.0000000  1.6038667  3
     54     52    148    139     1  0.0000000  1.6038667  3
     55    178    169    170     1  0.0000000  1.6038667  3
     55    178    169    171     1  0.0000000  1.6038667  3
     56     55    178    169     1  0.0000000  1.6038667  3
     57     55    178    169     1  0.0000000  1.6038667  3
     60     61     73     74     1  0.0000000  0.6508444  3
     60     61     73     75     1  0.0000000  0.6508444  3
     60     64     76     77     1  0.0000000  0.6508444  3
     60     64     76     78     1  0.0000000  0.6508444  3
     60     67     70     71     1  0.0000000  0.6508444  3
     60     67     70     72     1  0.0000000  0.6508444  3
     61     60     64     65     1  0.0000000  0.6508444  3
     61     60     64     66     1  0.0000000  0.6508444  3
     61     60     67     68     1  0.0000000  0.6508444  3
     61     60     67     69     1  0.0000000  0.6508444  3
     61     73     85     86     1  0.0000000  0.6508444  3
     61     73     85     87     1  0.0000000  0.6508444  3
     62     61     60     64     1  0.0000000  0.6508444  3
     62     61     60     67     1  0.0000000  0.6508444  3
     62     61     60     89     1  0.0000000  0.6508444  3
     62     61     73     85     1  0.0000000  0.6508444  3
     62     61     73     74     1  0.0000000  0.6508444  3
     62     61     73     75     1  0.0000000  0.6508444  3
     63     61     60     64     1  0.0000000  0.6508444  3
     63     61     60     67     1  0.0000000  0.6508444  3
     63     61     60     89     1  0.0000000  0.6508444  3
     63     61     73     85     1  0.0000000  0.6508444  3
     63     61     73     74     1  0.0000000  0.6508444  3
     63     61     73     75     1  0.0000000  0.6508444  3
     64     60     67     68     1  0.0000000  0.6508444  3
     64     60     67     69     1  0.0000000  0.6508444  3
     64     76     82     83     1  0.0000000  0.6508444  3
     64     76     82     84     1  0.0000000  0.6508444  3
     65     64     60     67     1  0.0000000  0.6508444  3
     65     64     60     89     1  0.0000000  0.6508444  3
     65     64     76     82     1  0.0000000  0.6508444  3
     65     64     76     77     1  0.0000000  0.6508444  3
     65     64     76     78     1  0.0000000  0.6508444  3
     66     64     60     67     1  0.0000000  0.6508444  3
     66     64     60     89     1  0.0000000  0.6508444  3
     66     64     76     82     1  0.0000000  0.6508444  3
     66     64     76     77     1  0.0000000  0.6508444  3
     66     64     76     78     1  0.0000000  0.6508444  3
     67     70     79     80     1  0.0000000  0.6508444  3
     67     70     79     81     1  0.0000000  0.6508444  3
     68     67     60     89     1  0.0000000  0.6508444  3
     68     67     70     79     1  0.0000000  0.6508444  3
     68     67     70     71     1  0.0000000  0.6508444  3
     68     67     70     72     1  0.0000000  0.6508444  3
     69     67     60     89     1  0.0000000  0.6508444  3
     69     67     70     79     1  0.0000000  0.6508444  3
     69     67     70     71     1  0.0000000  0.6508444  3
     69     67     70     72     1  0.0000000  0.6508444  3
     70     67     60     89     1  0.0000000  0.6508444  3
     71     70     79     88     1  0.0000000  1.0460000  1
     71     70     79     88     1  0.0000000  0.0000000  3
     71     70     79     80     1  0.0000000  0.6508444  3
     71     70     79     81     1  0.0000000  0.6508444  3
     72     70     79     88     1  0.0000000  1.0460000  1
     72     70     79     88     1  0.0000000  0.0000000  3
     72     70     79     80     1  0.0000000  0.6508444  3
     72     70     79     81     1  0.0000000  0.6508444  3
     73     61     60     89     1  0.0000000  0.6508444  3
     74     73     85    238     1  0.0000000  1.0460000  1
     74     73     85    238     1  0.0000000  0.0000000  3
     74     73     85     86     1  0.0000000  0.6508444  3
     74     73     85     87     1  0.0000000  0.6508444  3
     75     73     85    238     1  0.0000000  1.0460000  1
     75     73     85    238     1  0.0000000  0.0000000  3
     75     73     85     86     1  0.0000000  0.6508444  3
     75     73     85     87     1  0.0000000  0.6508444  3
     76     64     60     89     1  0.0000000  0.6508444  3
     77     76     82    208     1  0.0000000  1.0460000  1
     77     76     82    208     1  0.0000000  0.0000000  3
     77     76     82     83     1  0.0000000  0.6508444  3
     77     76     82     84     1  0.0000000  0.6508444  3
     78     76     82    208     1  0.0000000  1.0460000  1
     78     76     82    208     1  0.0000000  0.0000000  3
     78     76     82     83     1  0.0000000  0.6508444  3
     78     76     82     84     1  0.0000000  0.6508444  3
     82    208    199    200     1  0.0000000  1.6038667  3
     82    208    199    201     1  0.0000000  1.6038667  3
     83     82    208    199     1  0.0000000  1.6038667  3
     84     82    208    199     1  0.0000000  1.6038667  3
     85    238    229    230     1  0.0000000  1.6038667  3
     85    238    229    231     1  0.0000000  1.6038667  3
     86     85    238    229     1  0.0000000  1.6038667  3
     87     85    238    229     1  0.0000000  1.6038667  3
     90     91    103    104     1  0.0000000  0.6508444  3
     90     91    103    105     1  0.0000000  0.6508444  3
     90     94    106    107     1  0.0000000  0.6508444  3
     90     94    106    108     1  0.0000000  0.6508444  3
     90     97    100    101     1  0.0000000  0.6508444  3
     90     97    100    102     1  0.0000000  0.6508444  3
     91     90     94     95     1  0.0000000  0.6508444  3
     91     90     94     96     1  0.0000000  0.6508444  3
     91     90     97     98     1  0.0000000  0.6508444  3
     91     90     97     99     1  0.0000000  0.6508444  3
     91    103    115    116     1  0.0000000  0.6508444  3
     91    103    115    117     1  0.0000000  0.6508444  3
     92     91     90     94     1  0.0000000  0.6508444  3
     92     91     90     97     1  0.0000000  0.6508444  3
     92     91     90    119     1  0.0000000  0.6508444  3
     92     91    103    115     1  0.0000000  0.6508444  3
     92     91    103    104     1  0.0000000  0.6508444  3
     92     91    103    105     1  0.0000000  0.6508444  3
     93     91     90     94     1  0.0000000  0.6508444  3
     93     91     90     97     1  0.0000000  0.6508444  3
     93     91     90    119     1  0.0000000  0.6508444  3
     93     91    103    115     1  0.0000000  0.6508444  3
     93     91    103    104     1  0.0000000  0.6508444  3
     93     91    103    105     1  0.0000000  0.6508444  3
     94     90     97     98     1  0.0000000  0.6508444  3
     94     90     97     99     1  0.0000000  0.6508444  3
     94    106    112    113     1  0.0000000  0.6508444  3
     94    106    112    114     1  0.0000000  0.6508444  3
     95     94     90     97     1  0.0000000  0.6508444  3
     95     94     90    119     1  0.0000000  0.6508444  3
     95     94    106    112     1  0.0000000  0.6508444  3
     95     94    106    107     1  0.0000000  0.6508444  3
     95     94    106    108     1  0.0000000  0.6508444  3
     96     94     90     97     1  0.0000000  0.6508444  3
     96     94     90    119     1  0.0000000  0.6508444  3
     96     94    106    112     1  0.0000000  0.6508444  3
     96     94    106    107     1  0.0000000  0.6508444  3
     96     94    106    108     1  0.0000000  0.6508444  3
     97    100    109    110     1  0.0000000  0.6508444  3
     97    100    109    111     1  0.0000000  0.6508444  3
     98     97     90    119     1  0.0000000  0.6508444  3
     98     97    100    109     1  0.0000000  0.6508444  3
     98     97    100    101     1  0.0000000  0.6508444  3
     98     97    100    102     1  0.0000000  0.6508444  3
     99     97     90    119     1  0.0000000  0.6508444  3
     99     97    100    109     1  0.0000000  0.6508444  3
     99     97    100    101     1  0.0000000  0.6508444  3
     99     97    100    102     1  0.0000000  0.6508444  3
    100     97     90    119     1  0.0000000  0.6508444  3
    101    100    109    118     1  0.0000000  1.0460000  1
    101    100    109    118     1  0.0000000  0.0000000  3
    101    100    109    110     1  0.0000000  0.6508444  3
    101    100    109    111     1  0.0000000  0.6508444  3
    102    100    109    118     1  0.0000000  1.0460000  1
    102    100    109    118     1  0.0000000  0.0000000  3
    102    100    109    110     1  0.0000000  0.6508444  3
    102    100    109    111     1  0.0000000  0.6508444  3
    103     91     90    119     1  0.0000000  0.6508444  3
    104    103    115    298     1  0.0000000  1.0460000  1
    104    103    115    298     1  0.0000000  0.0000000  3
    104    103    115    116     1  0.0000000  0.6508444  3
    104    103    115    117     1  0.0000000  0.6508444  3
    105    103    115    298     1  0.0000000  1.0460000  1
    105    103    115    298     1  0.0000000  0.0000000  3
    105    103    115    116     1  0.0000000  0.6508444  3
    105    103    115    117     1  0.0000000  0.6508444  3
    106     94     90    119     1  0.0000000  0.6508444  3
    107    106    112    268     1  0.0000000  1.0460000  1
    107    106    112    268     1  0.0000000  0.0000000  3
    107    106    112    113     1  0.0000000  0.6508444  3
    107    106    112    114     1  0.0000000  0.6508444  3
    108    106    112    268     1  0.0000000  1.0460000  1
    108    106    112    268     1  0.0000000  0.0000000  3
    108    106    112    113     1  0.0000000  0.6508444  3
    108    106    112    114     1  0.0000000  0.6508444  3
    112    268    259    260     1  0.0000000  1.6038667  3
    112    268    259    261     1  0.0000000  1.6038667  3
    113    112    268    259     1  0.0000000  1.6038667  3
    114    112    268    259     1  0.0000000  1.6038667  3
    115    298    289    290     1  0.0000000  1.6038667  3
    115    298    289    291     1  0.0000000  1.6038667  3
    116    115    298    289     1  0.0000000  1.6038667  3
    117    115    298    289     1  0.0000000  1.6038667  3
    120    121    133    134     1  0.0000000  0.6508444  3
    120    121    133    135     1  0.0000000  0.6508444  3
    120    124    136    137     1  0.0000000  0.6508444  3
    120    124    136    138     1  0.0000000  0.6508444  3
    120    127    130    131     1  0.0000000  0.6508444  3
    120    127    130    132     1  0.0000000  0.6508444  3
    121    120    124    125     1  0.0000000  0.6508444  3
    121    120    124    126     1  0.0000000  0.6508444  3
    121    120    127    128     1  0.0000000  0.6508444  3
    121    120    127    129     1  0.0000000  0.6508444  3
    121    133    145    146     1  0.0000000  0.6508444  3
    121    133    145    147     1  0.0000000  0.6508444  3
    122    121    120    124     1  0.0000000  0.6508444  3
    122    121    120    127     1  0.0000000  0.6508444  3
    122    121    120    149     1  0.0000000  0.6508444  3
    122    121    133    145     1  0.0000000  0.6508444  3
    122    121    133    134     1  0.0000000  0.6508444  3
    122    121    133    135     1  0.0000000  0.6508444  3
    123    121    120    124     1  0.0000000  0.6508444  3
    123    121    120    127     1  0.0000000  0.6508444  3
    123    121    120    149     1  0.0000000  0.6508444  3
    123    121    133    145     1  0.0000000  0.6508444  3
    123    121    133    134     1  0.0000000  0.6508444  3
    123    121    133    135     1  0.0000000  0.6508444  3
    124    120    127    128     1  0.0000000  0.6508444  3
    124    120    127    129     1  0.0000000  0.6508444  3
    124    136    142    143     1  0.0000000  0.6508444  3
    124    136    142    144     1  0.0000000  0.6508444  3
    125    124    120    127     1  0.0000000  0.6508444  3
    125    124    120    149     1  0.0000000  0.6508444  3
    125    124    136    142     1  0.0000000  0.6508444  3
    125    124    136    137     1  0.0000000  0.6508444  3
    125    124    136    138     1  0.0000000  0.6508444  3
    126    124    120    127     1  0.0000000  0.6508444  3
    126    124    120    149     1  0.0000000  0.6508444  3
    126    124    136    142     1  0.0000000  0.6508444  3
    126    124    136    137     1  0.0000000  0.6508444  3
    126    124    136    138     1  0.0000000  0.6508444  3
    127    130    139    140     1  0.0000000  0.6508444  3
    127    130    139    141     1  0.0000000  0.6508444  3
    128    127    120    149     1  0.0000000  0.6508444  3
    128    127    130    139     1  0.0000000  0.6508444  3
    128    127    130    131     1  0.0000000  0.6508444  3
    128    127    130    132     1  0.0000000  0.6508444  3
    129    127    120    149     1  0.0000000  0.6508444  3
    129    127    130    139     1  0.0000000  0.6508444  3
    129    127    130    131     1  0.0000000  0.6508444  3
    129    127    130    132     1  0.0000000  0.6508444  3
    130    127    120    149     1  0.0000000  0.6508444  3
    131    130    139    148     1  0.0000000  1.0460000  1
    131    130    139    148     1  0.0000000  0.0000000  3
    131    130    139    140     1  0.0000000  0.6508444  3
    131    130    139    141     1  0.0000000  0.6508444  3
    132    130    139    148     1  0.0000000  1.0460000  1
    132    130    139    148     1  0.0000000  0.0000000  3
    132    130    139    140     1  0.0000000  0.6508444  3
    132    130    139    141     1  0.0000000  0.6508444  3
    133    121    120    149     1  0.0000000  0.6508444  3
    134    133    145    358     1  0.0000000  1.0460000  1
    134    133    145    358     1  0.0000000  0.0000000  3
    134    133    145    146     1  0.0000000  0.6508444  3
    134    133    145    147     1  0.0000000  0.6508444  3
    135    133    145    358     1  0.0000000  1.0460000  1
    135    133    145    358     1  0.0000000  0.0000000  3
    135    133    145    146     1  0.0000000  0.6508444  3
    135    133    145    147     1  0.0000000  0.6508444  3
    136    124    120    149     1  0.0000000  0.6508444  3
    137    136    142    328     1  0.0000000  1.0460000  1
    137    136    142    328     1  0.0000000  0.0000000  3
    137    136    142    143     1  0.0000000  0.6508444  3
    137    136    142    144     1  0.0000000  0.6508444  3
    138    136    142    328     1  0.0000000  1.0460000  1
    138    136    142    328     1  0.0000000  0.0000000  3
    138    136    142    143     1  0.0000000  0.6508444  3
    138    136    142    144     1  0.0000000  0.6508444  3
    142    328    319    320     1  0.0000000  1.6038667  3
    142    328    319    321     1  0.0000000  1.6038667  3
    143    142    328    319     1  0.0000000  1.6038667  3
    144    142    328    319     1  0.0000000  1.6038667  3
    145    358    349    350     1  0.0000000  1.6038667  3
    145    358    349    351     1  0.0000000  1.6038667  3
    146    145    358    349     1  0.0000000  1.6038667  3
    147    145    358    349     1  0.0000000  1.6038667  3
    150    151    163    164     1  0.0000000  0.6508444  3
    150    151    163    165     1  0.0000000  0.6508444  3
    150    154    166    167     1  0.0000000  0.6508444  3
    150    154    166    168     1  0.0000000  0.6508444  3
    150    157    160    161     1  0.0000000  0.6508444  3
    150    157    160    162     1  0.0000000  0.6508444  3
    151    150    154    155     1  0.0000000  0.6508444  3
    151    150    154    156     1  0.0000000  0.6508444  3
    151    150    157    158     1  0.0000000  0.6508444  3
    151    150    157    159     1  0.0000000  0.6508444  3
    151    163    175    176     1  0.0000000  0.6508444  3
    151    163    175    177     1  0.0000000  0.6508444  3
    152    151    150    154     1  0.0000000  0.6508444  3
    152    151    150    157     1  0.0000000  0.6508444  3
    152    151    150    179     1  0.0000000  0.6508444  3
    152    151    163    175     1  0.0000000  0.6508444  3
    152    151    163    164     1  0.0000000  0.6508444  3
    152    151    163    165     1  0.0000000  0.6508444  3
    153    151    150    154     1  0.0000000  0.6508444  3
    153    151    150    157     1  0.0000000  0.6508444  3
    153    151    150    179     1  0.0000000  0.6508444  3
    153    151    163    175     1  0.0000000  0.6508444  3
    153    151    163    164     1  0.0000000  0.6508444  3
    153    151    163    165     1  0.0000000  0.6508444  3
    154    150    157    158     1  0.0000000  0.6508444  3
    154    150    157    159     1  0.0000000  0.6508444  3
    154    166    172    173     1  0.0000000  0.6508444  3
    154    166    172    174     1  0.0000000  0.6508444  3
    155    154    150    157     1  0.0000000  0.6508444  3
    155    154    150    179     1  0.0000000  0.6508444  3
    155    154    166    172     1  0.0000000  0.6508444  3
    155    154    166    167     1  0.0000000  0.6508444  3
    155    154    166    168     1  0.0000000  0.6508444  3
    156    154    150    157     1  0.0000000  0.6508444  3
    156    154    150    179     1  0.0000000  0.6508444  3
    156    154    166    172     1  0.0000000  0.6508444  3
    156    154    166    167     1  0.0000000  0.6508444  3
    156    154    166    168     1  0.0000000  0.6508444  3
    157    160    169    170     1  0.0000000  0.6508444  3
    157    160    169    171     1  0.0000000  0.6508444  3
    158    157    150    179     1  0.0000000  0.6508444  3
    158    157    160    169     1  0.0000000  0.6508444  3
    158    157    160    161     1  0.0000000  0.6508444  3
    158    157    160    162     1  0.0000000  0.6508444  3
    159    157    150    179     1  0.0000000  0.6508444  3
    159    157    160    169     1  0.0000000  0.6508444  3
    159    157    160    161     1  0.0000000  0.6508444  3
    159    157    160    162     1  0.0000000  0.6508444  3
    160    157    150    179     1  0.0000000  0.6508444  3
    161    160    169    178     1  0.0000000  1.0460000  1
    161    160    169    178     1  0.0000000  0.0000000  3
    161    160    169    170     1  0.0000000  0.6508444  3
    161    160    169    171     1  0.0000000  0.6508444  3
    162    160    169    178     1  0.0000000  1.0460000  1
    162    160    169    178     1  0.0000000  0.0000000  3
    162    160    169    170     1  0.0000000  0.6508444  3
    162    160    169    171     1  0.0000000  0.6508444  3
    163    151    150    179     1  0.0000000  0.6508444  3
    164    163    175    418     1  0.0000000  1.0460000  1
    164    163    175    418     1  0.0000000  0.0000000  3
    164    163    175    176     1  0.0000000  0.6508444  3
    164    163    175    177     1  0.0000000  0.6508444  3
    165    163    175    418     1  0.0000000  1.0460000  1
    165    163    175    418     1  0.0000000  0.0000000  3
    165    163    175    176     1  0.0000000  0.6508444  3
    165    163    175    177     1  0.0000000  0.6508444  3
    166    154    150    179     1  0.0000000  0.6508444  3
    167    166    172    388     1  0.0000000  1.0460000  1
    167    166    172    388     1  0.0000000  0.0000000  3
    167    166    172    173     1  0.0000000  0.6508444  3
    167    166    172    174     1  0.0000000  0.6508444  3
    168    166    172    388     1  0.0000000  1.0460000  1
    168    166    172    388     1  0.0000000  0.0000000  3
    168    166    172    173     1  0.0000000  0.6508444  3
    168    166    172    174     1  0.0000000  0.6508444  3
    172    388    379    380     1  0.0000000  1.6038667  3
    172    388    379    381     1  0.0000000  1.6038667  3
    173    172    388    379     1  0.0000000  1.6038667  3
    174    172    388    379     1  0.0000000  1.6038667  3
    175    418    409    410     1  0.0000000  1.6038667  3
    175    418    409    411     1  0.0000000  1.6038667  3
    176    175    418    409     1  0.0000000  1.6038667  3
    177    175    418    409     1  0.0000000  1.6038667  3
    180    181    193    194     1  0.0000000  0.6508444  3
    180    181    193    195     1  0.0000000  0.6508444  3
    180    184    196    197     1  0.0000000  0.6508444  3
    180    184    196    198     1  0.0000000  0.6508444  3
    180    187    190    191     1  0.0000000  0.6508444  3
    180    187    190    192     1  0.0000000  0.6508444  3
    181    180    184    185     1  0.0000000  0.6508444  3
    181    180    184    186     1  0.0000000  0.6508444  3
    181    180    187    188     1  0.0000000  0.6508444  3
    181    180    187    189     1  0.0000000  0.6508444  3
    181    193    205    206     1  0.0000000  0.6508444  3
    181    193    205    207     1  0.0000000  0.6508444  3
    182    181    180    184     1  0.0000000  0.6508444  3
    182    181    180    187     1  0.0000000  0.6508444  3
    182    181    180    209     1  0.0000000  0.6508444  3
    182    181    193    205     1  0.0000000  0.6508444  3
    182    181    193    194     1  0.0000000  0.6508444  3
    182    181    193    195     1  0.0000000  0.6508444  3
    183    181    180    184     1  0.0000000  0.6508444  3
    183    181    180    187     1  0.0000000  0.6508444  3
    183    181    180    209     1  0.0000000  0.6508444  3
    183    181    193    205     1  0.0000000  0.6508444  3
    183    181    193    194     1  0.0000000  0.6508444  3
    183    181    193    195     1  0.0000000  0.6508444  3
    184    180    187    188     1  0.0000000  0.6508444  3
    184    180    187    189     1  0.0000000  0.6508444  3
    184    196    202    203     1  0.0000000  0.6508444  3
    184    196    202    204     1  0.0000000  0.6508444  3
    185    184    180    187     1  0.0000000  0.6508444  3
    185    184    180    209     1  0.0000000  0.6508444  3
    185    184    196    202     1  0.0000000  0.6508444  3
    185    184    196    197     1  0.0000000  0.6508444  3
    185    184    196    198     1  0.0000000  0.6508444  3
    186    184    180    187     1  0.0000000  0.6508444  3
    186    184    180    209     1  0.0000000  0.6508444  3
    186    184    196    202     1  0.0000000  0.6508444  3
    186    184    196    197     1  0.0000000  0.6508444  3
    186    184    196    198     1  0.0000000  0.6508444  3
    187    190    199    200     1  0.0000000  0.6508444  3
    187    190    199    201     1  0.0000000  0.6508444  3
    188    187    180    209     1  0.0000000  0.6508444  3
    188    187    190    199     1  0.0000000  0.6508444  3
    188    187    190    191     1  0.0000000  0.6508444  3
    188    187    190    192     1  0.0000000  0.6508444  3
    189    187    180    209     1  0.0000000  0.6508444  3
    189    187    190    199     1  0.0000000  0.6508444  3
    189    187    190    191     1  0.0000000  0.6508444  3
    189    187    190    192     1  0.0000000  0.6508444  3
    190    187    180    209     1  0.0000000  0.6508444  3
    191    190    199    208     1  0.0000000  1.0460000  1
    191    190    199    208     1  0.0000000  0.0000000  3
    191    190    199    200     1  0.0000000  0.6508444  3
    191    190    199    201     1  0.0000000  0.6508444  3
    192    190    199    208     1  0.0000000  1.0460000  1
    192    190    199    208     1  0.0000000  0.0000000  3
    192    190    199    200     1  0.0000000  0.6508444  3
    192    190    199    201     1  0.0000000  0.6508444  3
    193    181    180    209     1  0.0000000  0.6508444  3
    194    193    205    478     1  0.0000000  1.0460000  1
    194    193    205    478     1  0.0000000  0.0000000  3
    194    193    205    206     1  0.0000000  0.6508444  3
    194    193    205    207     1  0.0000000  0.6508444  3
    195    193    205    478     1  0.0000000  1.0460000  1
    195    193    205    478     1  0.0000000  0.0000000  3
    195    193    205    206     1  0.0000000  0.6508444  3
    195    193    205    207     1  0.0000000  0.6508444  3
    196    184    180    209     1  0.0000000  0.6508444  3
    197    196    202    448     1  0.0000000  1.0460000  1
    197    196    202    448     1  0.0000000  0.0000000  3
    197    196    202    203     1  0.0000000  0.6508444  3
    197    196    202    204     1  0.0000000  0.6508444  3
    198    196    202    448     1  0.0000000  1.0460000  1
    198    196    202    448     1  0.0000000  0.0000000  3
    198    196    202    203     1  0.0000000  0.6508444  3
    198    196    202    204     1  0.0000000  0.6508444  3
    202    448    439    440     1  0.0000000  1.6038667  3
    202    448    439    441     1  0.0000000  1.6038667  3
    203    202    448    439     1  0.0000000  1.6038667  3
    204    202    448    439     1  0.0000000  1.6038667  3
    205    478    469    470     1  0.0000000  1.6038667  3
    205    478    469    471     1  0.0000000  1.6038667  3
    206    205    478    469     1  0.0000000  1.6038667  3
    207    205    478    469     1  0.0000000  1.6038667  3
    210    211    223    224     1  0.0000000  0.6508444  3
    210    211    223    225     1  0.0000000  0.6508444  3
    210    214    226    227     1  0.0000000  0.6508444  3
    210    214    226    228     1  0.0000000  0.6508444  3
    210    217    220    221     1  0.0000000  0.6508444  3
    210    217    220    222     1  0.0000000  0.6508444  3
    211    210    214    215     1  0.0000000  0.6508444  3
    211    210    214    216     1  0.0000000  0.6508444  3
    211    210    217    218     1  0.0000000  0.6508444  3
    211    210    217    219     1  0.0000000  0.6508444  3
    211    223    235    236     1  0.0000000  0.6508444  3
    211    223    235    237     1  0.0000000  0.6508444  3
    212    211    210    214     1  0.0000000  0.6508444  3
    212    211    210    217     1  0.0000000  0.6508444  3
    212    211    210    239     1  0.0000000  0.6508444  3
    212    211    223    235     1  0.0000000  0.6508444  3
    212    211    223    224     1  0.0000000  0.6508444  3
    212    211    223    225     1  0.0000000  0.6508444  3
    213    211    210    214     1  0.0000000  0.6508444  3
    213    211    210    217     1  0.0000000  0.6508444  3
    213    211    210    239     1  0.0000000  0.6508444  3
    213    211    223    235     1  0.0000000  0.6508444  3
    213    211    223    224     1  0.0000000  0.6508444  3
    213    211    223    225     1  0.0000000  0.6508444  3
    214    210    217    218     1  0.0000000  0.6508444  3
    214    210    217    219     1  0.0000000  0.6508444  3
    214    226    232    233     1  0.0000000  0.6508444  3
    214    226    232    234     1  0.0000000  0.6508444  3
    215    214    210    217     1  0.0000000  0.6508444  3
    215    214    210    239     1  0.0000000  0.6508444  3
    215    214    226    232     1  0.0000000  0.6508444  3
    215    214    226    227     1  0.0000000  0.6508444  3
    215    214    226    228     1  0.0000000  0.6508444  3
    216    214    210    217     1  0.0000000  0.6508444  3
    216    214    210    239     1  0.0000000  0.6508444  3
    216    214    226    232     1  0.0000000  0.6508444  3
    216    214    226    227     1  0.0000000  0.6508444  3
    216    214    226    228     1  0.0000000  0.6508444  3
    217    220    229    230     1  0.0000000  0.6508444  3
    217    220    229    231     1  0.0000000  0.6508444  3
    218    217    210    239     1  0.0000000  0.6508444  3
    218    217    220    229     1  0.0000000  0.6508444  3
    218    217    220    221     1  0.0000000  0.6508444  3
    218    217    220    222     1  0.0000000  0.6508444  3
    219    217    210    239     1  0.0000000  0.6508444  3
    219    217    220    229     1  0.0000000  0.6508444  3
    219    217    220    221     1  0.0000000  0.6508444  3
    219    217    220    222     1  0.0000000  0.6508444  3
    220    217    210    239     1  0.0000000  0.6508444  3
    221    220    229    238     1  0.0000000  1.0460000  1
    221    220    229    238     1  0.0000000  0.0000000  3
    221    220    229    230     1  0.0000000  0.6508444  3
    221    220    229    231     1  0.0000000  0.6508444  3
    222    220    229    238     1  0.0000000  1.0460000  1
    222    220    229    238     1  0.0000000  0.0000000  3
    222    220    229    230     1  0.0000000  0.6508444  3
    222    220    229    231     1  0.0000000  0.6508444  3
    223    211    210    239     1  0.0000000  0.6508444  3
    224    223    235    538     1  0.0000000  1.0460000  1
    224    223    235    538     1  0.0000000  0.0000000  3
    224    223    235    236     1  0.0000000  0.6508444  3
    224    223    235    237     1  0.0000000  0.6508444  3
    225    223    235    538     1  0.0000000  1.0460000  1
    225    223    235    538     1  0.0000000  0.0000000  3
    225    223    235    236     1  0.0000000  0.6508444  3
    225    223    235    237     1  0.0000000  0.6508444  3
    226    214    210    239     1  0.0000000  0.6508444  3
    227    226    232    508     1  0.0000000  1.0460000  1
    227    226    232    508     1  0.0000000  0.0000000  3
    227    226    232    233     1  0.0000000  0.6508444  3
    227    226    232    234     1  0.0000000  0.6508444  3
    228    226    232    508     1  0.0000000  1.0460000  1
    228    226    232    508     1  0.0000000  0.0000000  3
    228    226    232    233     1  0.0000000  0.6508444  3
    228    226    232    234     1  0.0000000  0.6508444  3
    232    508    499    500     1  0.0000000  1.6038667  3
    232    508    499    501     1  0.0000000  1.6038667  3
    233    232    508    499     1  0.0000000  1.6038667  3
    234    232    508    499     1  0.0000000  1.6038667  3
    235    538    529    530     1  0.0000000  1.6038667  3
    235    538    529    531     1  0.0000000  1.6038667  3
    236    235    538    529     1  0.0000000  1.6038667  3
    237    235    538    529     1  0.0000000  1.6038667  3
    240    241    253    254     1  0.0000000  0.6508444  3
    240    241    253    255     1  0.0000000  0.6508444  3
    240    244    256    257     1  0.0000000  0.6508444  3
    240    244    256    258     1  0.0000000  0.6508444  3
    240    247    250    251     1  0.0000000  0.6508444  3
    240    247    250    252     1  0.0000000  0.6508444  3
    241    240    244    245     1  0.0000000  0.6508444  3
    241    240    244    246     1  0.0000000  0.6508444  3
    241    240    247    248     1  0.0000000  0.6508444  3
    241    240    247    249     1  0.0000000  0.6508444  3
    241    253    265    266     1  0.0000000  0.6508444  3
    241    253    265    267     1  0.0000000  0.6508444  3
    242    241    240    244     1  0.0000000  0.6508444  3
    242    241    240    247     1  0.0000000  0.6508444  3
    242    241    240    269     1  0.0000000  0.6508444  3
    242    241    253    265     1  0.0000000  0.6508444  3
    242    241    253    254     1  0.0000000  0.6508444  3
    242    241    253    255     1  0.0000000  0.6508444  3
    243    241    240    244     1  0.0000000  0.6508444  3
    243    241    240    247     1  0.0000000  0.6508444  3
    243    241    240    269     1  0.0000000  0.6508444  3
    243    241    253    265     1  0.0000000  0.6508444  3
    243    241    253    254     1  0.0000000  0.6508444  3
    243    241    253    255     1  0.0000000  0.6508444  3
    244    240    247    248     1  0.0000000  0.6508444  3
    244    240    247    249     1  0.0000000  0.6508444  3
    244    256    262    263     1  0.0000000  0.6508444  3
    244    256    262    264     1  0.0000000  0.6508444  3
    245    244    240    247     1  0.0000000  0.6508444  3
    245    244    240    269     1  0.0000000  0.6508444  3
    245    244    256    262     1  0.0000000  0.6508444  3
    245    244    256    257     1  0.0000000  0.6508444  3
    245    244    256    258     1  0.0000000  0.6508444  3
    246    244    240    247     1  0.0000000  0.6508444  3
    246    244    240    269     1  0.0000000  0.6508444  3
    246    244    256    262     1  0.0000000  0.6508444  3
    246    244    256    257     1  0.0000000  0.6508444  3
    246    244    256    258     1  0.0000000  0.6508444  3
    247    250    259    260     1  0.0000000  0.6508444  3
    247    250    259    261     1  0.0000000  0.6508444  3
    248    247    240    269     1  0.0000000  0.6508444  3
    248    247    250    259     1  0.0000000  0.6508444  3
    248    247    250    251     1  0.0000000  0.6508444  3
    248    247    250    252     1  0.0000000  0.6508444  3
    249    247    240    269     1  0.0000000  0.6508444  3
    249    247    250    259     1  0.0000000  0.6508444  3
    249    247    250    251     1  0.0000000  0.6508444  3
    249    247    250    252     1  0.0000000  0.6508444  3
    250    247    240    269     1  0.0000000  0.6508444  3
    251    250    259    268     1  0.0000000  1.0460000  1
    251    250    259    268     1  0.0000000  0.0000000  3
    251    250    259    260     1  0.0000000  0.6508444  3
    251    250    259    261     1  0.0000000  0.6508444  3
    252    250    259    268     1  0.0000000  1.0460000  1
    252    250    259    268     1  0.0000000  0.0000000  3
    252    250    259    260     1  0.0000000  0.6508444  3
    252    250    259    261     1  0.0000000  0.6508444  3
    253    241    240    269     1  0.0000000  0.6508444  3
    254    253    265    598     1  0.0000000  1.0460000  1
    254    253    265    598     1  0.0000000  0.0000000  3
    254    253    265    266     1  0.0000000  0.6508444  3
    254    253    265    267     1  0.0000000  0.6508444  3
    255    253    265    598     1  0.0000000  1.0460000  1
    255    253    265    598     1  0.0000000  0.0000000  3
    255    253    265    266     1  0.0000000  0.6508444  3
    255    253    265    267     1  0.0000000  0.6508444  3
    256    244    240    269     1  0.0000000  0.6508444  3
    257    256    262    568     1  0.0000000  1.0460000  1
    257    256    262    568     1  0.0000000  0.0000000  3
    257    256    262    263     1  0.0000000  0.6508444  3
    257    256    262    264     1  0.0000000  0.6508444  3
    258    256    262    568     1  0.0000000  1.0460000  1
    258    256    262    568     1  0.0000000  0.0000000  3
    258    256    262    263     1  0.0000000  0.6508444  3
    258    256    262    264     1  0.0000000  0.6508444  3
    262    568    559    560     1  0.0000000  1.6038667  3
    262    568    559    561     1  0.0000000  1.6038667  3
    263    262    568    559     1  0.0000000  1.6038667  3
    264    262    568    559     1  0.0000000  1.6038667  3
    265    598    589    590     1  0.0000000  1.6038667  3
    265    598    589    591     1  0.0000000  1.6038667  3
    266    265    598    589     1  0.0000000  1.6038667  3
    267    265    598    589     1  0.0000000  1.6038667  3
    270    271    283    284     1  0.0000000  0.6508444  3
    270    271    283    285     1  0.0000000  0.6508444  3
    270    274    286    287     1  0.0000000  0.6508444  3
    270    274    286    288     1  0.0000000  0.6508444  3
    270    277    280    281     1  0.0000000  0.6508444  3
    270    277    280    282     1  0.0000000  0.6508444  3
    271    270    274    275     1  0.0000000  0.6508444  3
    271    270    274    276     1  0.0000000  0.6508444  3
    271    270    277    278     1  0.0000000  0.6508444  3
    271    270    277    279     1  0.0000000  0.6508444  3
    271    283    295    296     1  0.0000000  0.6508444  3
    271    283    295    297     1  0.0000000  0.6508444  3
    272    271    270    274     1  0.0000000  0.6508444  3
    272    271    270    277     1  0.0000000  0.6508444  3
    272    271    270    299     1  0.0000000  0.6508444  3
    272    271    283    295     1  0.0000000  0.6508444  3
    272    271    283    284     1  0.0000000  0.6508444  3
    272    271    283    285     1  0.0000000  0.6508444  3
    273    271    270    274     1  0.0000000  0.6508444  3
    273    271    270    277     1  0.0000000  0.6508444  3
    273    271    270    299     1  0.0000000  0.6508444  3
    273    271    283    295     1  0.0000000  0.6508444  3
    273    271    283    284     1  0.0000000  0.6508444  3
    273    271    283    285     1  0.0000000  0.6508444  3
    274    270    277    278     1  0.0000000  0.6508444  3
    274    270    277    279     1  0.0000000  0.6508444  3
    274    286    292    293     1  0.0000000  0.6508444  3
    274    286    292    294     1  0.0000000  0.6508444  3
    275    274    270    277     1  0.0000000  0.6508444  3
    275    274    270    299     1  0.0000000  0.6508444  3
    275    274    286    292     1  0.0000000  0.6508444  3
    275    274    286    287     1  0.0000000  0.6508444  3
    275    274    286    288     1  0.0000000  0.6508444  3
    276    274    270    277     1  0.0000000  0.6508444  3
    276    274    270    299     1  0.0000000  0.6508444  3
    276    274    286    292     1  0.0000000  0.6508444  3
    276    274    286    287     1  0.0000000  0.6508444  3
    276    274    286    288     1  0.0000000  0.6508444  3
    277    280    289    290     1  0.0000000  0.6508444  3
    277    280    289    291     1  0.0000000  0.6508444  3
    278    277    270    299     1  0.0000000  0.6508444  3
    278    277    280    289     1  0.0000000  0.6508444  3
    278    277    280    281     1  0.0000000  0.6508444  3
    278    277    280    282     1  0.0000000  0.6508444  3
    279    277    270    299     1  0.0000000  0.6508444  3
    279    277    280    289     1  0.0000000  0.6508444  3
    279    277    280    281     1  0.0000000  0.6508444  3
    279    277    280    282     1  0.0000000  0.6508444  3
    280    277    270    299     1  0.0000000  0.6508444  3
    281    280    289    298     1  0.0000000  1.0460000  1
    281    280    289    298     1  0.0000000  0.0000000  3
    281    280    289    290     1  0.0000000  0.6508444  3
    281    280    289    291     1  0.0000000  0.6508444  3
    282    280    289    298     1  0.0000000  1.0460000  1
    282    280    289    298     1  0.0000000  0.0000000  3
    282    280    289    290     1  0.0000000  0.6508444  3
    282    280    289    291     1  0.0000000  0.6508444  3
    283    271    270    299     1  0.0000000  0.6508444  3
    284    283    295    658     1  0.0000000  1.0460000  1
    284    283    295    658     1  0.0000000  0.0000000  3
    284    283    295    296     1  0.0000000  0.6508444  3
    284    283    295    297     1  0.0000000  0.6508444  3
    285    283    295    658     1  0.0000000  1.0460000  1
    285    283    295    658     1  0.0000000  0.0000000  3
    285    283    295    296     1  0.0000000  0.6508444  3
    285    283    295    297     1  0.0000000  0.6508444  3
    286    274    270    299     1  0.0000000  0.6508444  3
    287    286    292    628     1  0.0000000  1.0460000  1
    287    286    292    628     1  0.0000000  0.0000000  3
    287    286    292    293     1  0.0000000  0.6508444  3
    287    286    292    294     1  0.0000000  0.6508444  3
    288    286    292    628     1  0.0000000  1.0460000  1
    288    286    292    628     1  0.0000000  0.0000000  3
    288    286    292    293     1  0.0000000  0.6508444  3
    288    286    292    294     1  0.0000000  0.6508444  3
    292    628    619    620     1  0.0000000  1.6038667  3
    292    628    619    621     1  0.0000000  1.6038667  3
    293    292    628    619     1  0.0000000  1.6038667  3
    294    292    628    619     1  0.0000000  1.6038667  3
    295    658    649    650     1  0.0000000  1.6038667  3
    295    658    649    651     1  0.0000000  1.6038667  3
    296    295    658    649     1  0.0000000  1.6038667  3
    297    295    658    649     1  0.0000000  1.6038667  3
    300    301    313    314     1  0.0000000  0.6508444  3
    300    301    313    315     1  0.0000000  0.6508444  3
    300    304    316    317     1  0.0000000  0.6508444  3
    300    304    316    318     1  0.0000000  0.6508444  3
    300    307    310    311     1  0.0000000  0.6508444  3
    300    307    310    312     1  0.0000000  0.6508444  3
    301    300    304    305     1  0.0000000  0.6508444  3
    301    300    304    306     1  0.0000000  0.6508444  3
    301    300    307    308     1  0.0000000  0.6508444  3
    301    300    307    309     1  0.0000000  0.6508444  3
    301    313    325    326     1  0.0000000  0.6508444  3
    301    313    325    327     1  0.0000000  0.6508444  3
    302    301    300    304     1  0.0000000  0.6508444  3
    302    301    300    307     1  0.0000000  0.6508444  3
    302    301    300    329     1  0.0000000  0.6508444  3
    302    301    313    325     1  0.0000000  0.6508444  3
    302    301    313    314     1  0.0000000  0.6508444  3
    302    301    313    315     1  0.0000000  0.6508444  3
    303    301    300    304     1  0.0000000  0.6508444  3
    303    301    300    307     1  0.0000000  0.6508444  3
    303    301    300    329     1  0.0000000  0.6508444  3
    303    301    313    325     1  0.0000000  0.6508444  3
    303    301    313    314     1  0.0000000  0.6508444  3
    303    301    313    315     1  0.0000000  0.6508444  3
    304    300    307    308     1  0.0000000  0.6508444  3
    304    300    307    309     1  0.0000000  0.6508444  3
    304    316    322    323     1  0.0000000  0.6508444  3
    304    316    322    324     1  0.0000000  0.6508444  3
    305    304    300    307     1  0.0000000  0.6508444  3
    305    304    300    329     1  0.0000000  0.6508444  3
    305    304    316    322     1  0.0000000  0.6508444  3
    305    304    316    317     1  0.0000000  0.6508444  3
    305    304    316    318     1  0.0000000  0.6508444  3
    306    304    300    307     1  0.0000000  0.6508444  3
    306    304    300    329     1  0.0000000  0.6508444  3
    306    304    316    322     1  0.0000000  0.6508444  3
    306    304    316    317     1  0.0000000  0.6508444  3
    306    304    316    318     1  0.0000000  0.6508444  3
    307    310    319    320     1  0.0000000  0.6508444  3
    307    310    319    321     1  0.0000000  0.6508444  3
    308    307    300    329     1  0.0000000  0.6508444  3
    308    307    310    319     1  0.0000000  0.6508444  3
    308    307    310    311     1  0.0000000  0.6508444  3
    308    307    310    312     1  0.0000000  0.6508444  3
    309    307    300    329     1  0.0000000  0.6508444  3
    309    307    310    319     1  0.0000000  0.6508444  3
    309    307    310    311     1  0.0000000  0.6508444  3
    309    307    310    312     1  0.0000000  0.6508444  3
    310    307    300    329     1  0.0000000  0.6508444  3
    311    310    319    328     1  0.0000000  1.0460000  1
    311    310    319    328     1  0.0000000  0.0000000  3
    311    310    319    320     1  0.0000000  0.6508444  3
    311    310    319    321     1  0.0000000  0.6508444  3
    312    310    319    328     1  0.0000000  1.0460000  1
    312    310    319    328     1  0.0000000  0.0000000  3
    312    310    319    320     1  0.0000000  0.6508444  3
    312    310    319    321     1  0.0000000  0.6508444  3
    313    301    300    329     1  0.0000000  0.6508444  3
    314    313    325    718     1  0.0000000  1.0460000  1
    314    313    325    718     1  0.0000000  0.0000000  3
    314    313    325    326     1  0.0000000  0.6508444  3
    314    313    325    327     1  0.0000000  0.6508444  3
    315    313    325    718     1  0.0000000  1.0460000  1
    315    313    325    718     1  0.0000000  0.0000000  3
    315    313    325    326     1  0.0000000  0.6508444  3
    315    313    325    327     1  0.0000000  0.6508444  3
    316    304    300    329     1  0.0000000  0.6508444  3
    317    316    322    688     1  0.0000000  1.0460000  1
    317    316    322    688     1  0.0000000  0.0000000  3
    317    316    322    323     1  0.0000000  0.6508444  3
    317    316    322    324     1  0.0000000  0.6508444  3
    318    316    322    688     1  0.0000000  1.0460000  1
    318    316    322    688     1  0.0000000  0.0000000  3
    318    316    322    323     1  0.0000000  0.6508444  3
    318    316    322    324     1  0.0000000  0.6508444  3
    322    688    679    680     1  0.0000000  1.6038667  3
    322    688    679    681     1  0.0000000  1.6038667  3
    323    322    688    679     1  0.0000000  1.6038667  3
    324    322    688    679     1  0.0000000  1.6038667  3
    325    718    709    710     1  0.0000000  1.6038667  3
    325    718    709    711     1  0.0000000  1.6038667  3
    326    325    718    709     1  0.0000000  1.6038667  3
    327    325    718    709     1  0.0000000  1.6038667  3
    330    331    343    344     1  0.0000000  0.6508444  3
    330    331    343    345     1  0.0000000  0.6508444  3
    330    334    346    347     1  0.0000000  0.6508444  3
    330    334    346    348     1  0.0000000  0.6508444  3
    330    337    340    341     1  0.0000000  0.6508444  3
    330    337    340    342     1  0.0000000  0.6508444  3
    331    330    334    335     1  0.0000000  0.6508444  3
    331    330    334    336     1  0.0000000  0.6508444  3
    331    330    337    338     1  0.0000000  0.6508444  3
    331    330    337    339     1  0.0000000  0.6508444  3
    331    343    355    356     1  0.0000000  0.6508444  3
    331    343    355    357     1  0.0000000  0.6508444  3
    332    331    330    334     1  0.0000000  0.6508444  3
    332    331    330    337     1  0.0000000  0.6508444  3
    332    331    330    359     1  0.0000000  0.6508444  3
    332    331    343    355     1  0.0000000  0.6508444  3
    332    331    343    344     1  0.0000000  0.6508444  3
    332    331    343    345     1  0.0000000  0.6508444  3
    333    331    330    334     1  0.0000000  0.6508444  3
    333    331    330    337     1  0.0000000  0.6508444  3
    333    331    330    359     1  0.0000000  0.6508444  3
    333    331    343    355     1  0.0000000  0.6508444  3
    333    331    343    344     1  0.0000000  0.6508444  3
    333    331    343    345     1  0.0000000  0.6508444  3
    334    330    337    338     1  0.0000000  0.6508444  3
    334    330    337    339     1  0.0000000  0.6508444  3
    334    346    352    353     1  0.0000000  0.6508444  3
    334    346    352    354     1  0.0000000  0.6508444  3
    335    334    330    337     1  0.0000000  0.6508444  3
    335    334    330    359     1  0.0000000  0.6508444  3
    335    334    346    352     1  0.0000000  0.6508444  3
    335    334    346    347     1  0.0000000  0.6508444  3
    335    334    346    348     1  0.0000000  0.6508444  3
    336    334    330    337     1  0.0000000  0.6508444  3
    336    334    330    359     1  0.0000000  0.6508444  3
    336    334    346    352     1  0.0000000  0.6508444  3
    336    334    346    347     1  0.0000000  0.6508444  3
    336    334    346    348     1  0.0000000  0.6508444  3
    337    340    349    350     1  0.0000000  0.6508444  3
    337    340    349    351     1  0.0000000  0.6508444  3
    338    337    330    359     1  0.0000000  0.6508444  3
    338    337    340    349     1  0.0000000  0.6508444  3
    338    337    340    341     1  0.0000000  0.6508444  3
    338    337    340    342     1  0.0000000  0.6508444  3
    339    337    330    359     1  0.0000000  0.6508444  3
    339    337    340    349     1  0.0000000  0.6508444  3
    339    337    340    341     1  0.0000000  0.6508444  3
    339    337    340    342     1  0.0000000  0.6508444  3
    340    337    330    359     1  0.0000000  0.6508444  3
    341    340    349    358     1  0.0000000  1.0460000  1
    341    340    349    358     1  0.0000000  0.0000000  3
    341    340    349    350     1  0.0000000  0.6508444  3
    341    340    349    351     1  0.0000000  0.6508444  3
    342    340    349    358     1  0.0000000  1.0460000  1
    342    340    349    358     1  0.0000000  0.0000000  3
    342    340    349    350     1  0.0000000  0.6508444  3
    342    340    349    351     1  0.0000000  0.6508444  3
    343    331    330    359     1  0.0000000  0.6508444  3
    344    343    355    778     1  0.0000000  1.0460000  1
    344    343    355    778     1  0.0000000  0.0000000  3
    344    343    355    356     1  0.0000000  0.6508444  3
    344    343    355    357     1  0.0000000  0.6508444  3
    345    343    355    778     1  0.0000000  1.0460000  1
    345    343    355    778     1  0.0000000  0.0000000  3
    345    343    355    356     1  0.0000000  0.6508444  3
    345    343    355    357     1  0.0000000  0.6508444  3
    346    334    330    359     1  0.0000000  0.6508444  3
    347    346    352    748     1  0.0000000  1.0460000  1
    347    346    352    748     1  0.0000000  0.0000000  3
    347    346    352    353     1  0.0000000  0.6508444  3
    347    346    352    354     1  0.0000000  0.6508444  3
    348    346    352    748     1  0.0000000  1.0460000  1
    348    346    352    748     1  0.0000000  0.0000000  3
    348    346    352    353     1  0.0000000  0.6508444  3
    348    346    352    354     1  0.0000000  0.6508444  3
    352    748    739    740     1  0.0000000  1.6038667  3
    352    748    739    741     1  0.0000000  1.6038667  3
    353    352    748    739     1  0.0000000  1.6038667  3
    354    352    748    739     1  0.0000000  1.6038667  3
    355    778    769    770     1  0.0000000  1.6038667  3
    355    778    769    771     1  0.0000000  1.6038667  3
    356    355    778    769     1  0.0000000  1.6038667  3
    357    355    778    769     1  0.0000000  1.6038667  3
    360    361    373    374     1  0.0000000  0.6508444  3
    360    361    373    375     1  0.0000000  0.6508444  3
    360    364    376    377     1  0.0000000  0.6508444  3
    360    364    376    378     1  0.0000000  0.6508444  3
    360    367    370    371     1  0.0000000  0.6508444  3
    360    367    370    372     1  0.0000000  0.6508444  3
    361    360    364    365     1  0.0000000  0.6508444  3
    361    360    364    366     1  0.0000000  0.6508444  3
    361    360    367    368     1  0.0000000  0.6508444  3
    361    360    367    369     1  0.0000000  0.6508444  3
    361    373    385    386     1  0.0000000  0.6508444  3
    361    373    385    387     1  0.0000000  0.6508444  3
    362    361    360    364     1  0.0000000  0.6508444  3
    362    361    360    367     1  0.0000000  0.6508444  3
    362    361    360    389     1  0.0000000  0.6508444  3
    362    361    373    385     1  0.0000000  0.6508444  3
    362    361    373    374     1  0.0000000  0.6508444  3
    362    361    373    375     1  0.0000000  0.6508444  3
    363    361    360    364     1  0.0000000  0.6508444  3
    363    361    360    367     1  0.0000000  0.6508444  3
    363    361    360    389     1  0.0000000  0.6508444  3
    363    361    373    385     1  0.0000000  0.6508444  3
    363    361    373    374     1  0.0000000  0.6508444  3
    363    361    373    375     1  0.0000000  0.6508444  3
    364    360    367    368     1  0.0000000  0.6508444  3
    364    360    367    369     1  0.0000000  0.6508444  3
    364    376    382    383     1  0.0000000  0.6508444  3
    364    376    382    384     1  0.0000000  0.6508444  3
    365    364    360    367     1  0.0000000  0.6508444  3
    365    364    360    389     1  0.0000000  0.6508444  3
    365    364    376    382     1  0.0000000  0.6508444  3
    365    364    376    377     1  0.0000000  0.6508444  3
    365    364    376    378     1  0.0000000  0.6508444  3
    366    364    360    367     1  0.0000000  0.6508444  3
    366    364    360    389     1  0.0000000  0.6508444  3
    366    364    376    382     1  0.0000000  0.6508444  3
    366    364    376    377     1  0.0000000  0.6508444  3
    366    364    376    378     1  0.0000000  0.6508444  3
    367    370    379    380     1  0.0000000  0.6508444  3
    367    370    379    381     1  0.0000000  0.6508444  3
    368    367    360    389     1  0.0000000  0.6508444  3
    368    367    370    379     1  0.0000000  0.6508444  3
    368    367    370    371     1  0.0000000  0.6508444  3
    368    367    370    372     1  0.0000000  0.6508444  3
    369    367    360    389     1  0.0000000  0.6508444  3
    369    367    370    379     1  0.0000000  0.6508444  3
    369    367    370    371     1  0.0000000  0.6508444  3
    369    367    370    372     1  0.0000000  0.6508444  3
    370    367    360    389     1  0.0000000  0.6508444  3
    371    370    379    388     1  0.0000000  1.0460000  1
    371    370    379    388     1  0.0000000  0.0000000  3
    371    370    379    380     1  0.0000000  0.6508444  3
    371    370    379    381     1  0.0000000  0.6508444  3
    372    370    379    388     1  0.0000000  1.0460000  1
    372    370    379    388     1  0.0000000  0.0000000  3
    372    370    379    380     1  0.0000000  0.6508444  3
    372    370    379    381     1  0.0000000  0.6508444  3
    373    361    360    389     1  0.0000000  0.6508444  3
    374    373    385    838     1  0.0000000  1.0460000  1
    374    373    385    838     1  0.0000000  0.0000000  3
    374    373    385    386     1  0.0000000  0.6508444  3
    374    373    385    387     1  0.0000000  0.6508444  3
    375    373    385    838     1  0.0000000  1.0460000  1
    375    373    385    838     1  0.0000000  0.0000000  3
    375    373    385    386     1  0.0000000  0.6508444  3
    375    373    385    387     1  0.0000000  0.6508444  3
    376    364    360    389     1  0.0000000  0.6508444  3
    377    376    382    808     1  0.0000000  1.0460000  1
    377    376    382    808     1  0.0000000  0.0000000  3
    377    376    382    383     1  0.0000000  0.6508444  3
    377    376    382    384     1  0.0000000  0.6508444  3
    378    376    382    808     1  0.0000000  1.0460000  1
    378    376    382    808     1  0.0000000  0.0000000  3
    378    376    382    383     1  0.0000000  0.6508444  3
    378    376    382    384     1  0.0000000  0.6508444  3
    382    808    799    800     1  0.0000000  1.6038667  3
    382    808    799    801     1  0.0000000  1.6038667  3
    383    382    808    799     1  0.0000000  1.6038667  3
    384    382    808    799     1  0.0000000  1.6038667  3
    385    838    829    830     1  0.0000000  1.6038667  3
    385    838    829    831     1  0.0000000  1.6038667  3
    386    385    838    829     1  0.0000000  1.6038667  3
    387    385    838    829     1  0.0000000  1.6038667  3
    390    391    403    404     1  0.0000000  0.6508444  3
    390    391    403    405     1  0.0000000  0.6508444  3
    390    394    406    407     1  0.0000000  0.6508444  3
    390    394    406    408     1  0.0000000  0.6508444  3
    390    397    400    401     1  0.0000000  0.6508444  3
    390    397    400    402     1  0.0000000  0.6508444  3
    391    390    394    395     1  0.0000000  0.6508444  3
    391    390    394    396     1  0.0000000  0.6508444  3
    391    390    397    398     1  0.0000000  0.6508444  3
    391    390    397    399     1  0.0000000  0.6508444  3
    391    403    415    416     1  0.0000000  0.6508444  3
    391    403    415    417     1  0.0000000  0.6508444  3
    392    391    390    394     1  0.0000000  0.6508444  3
    392    391    390    397     1  0.0000000  0.6508444  3
    392    391    390    419     1  0.0000000  0.6508444  3
    392    391    403    415     1  0.0000000  0.6508444  3
    392    391    403    404     1  0.0000000  0.6508444  3
    392    391    403    405     1  0.0000000  0.6508444  3
    393    391    390    394     1  0.0000000  0.6508444  3
    393    391    390    397     1  0.0000000  0.6508444  3
    393    391    390    419     1  0.0000000  0.6508444  3
    393    391    403    415     1  0.0000000  0.6508444  3
    393    391    403    404     1  0.0000000  0.6508444  3
    393    391    403    405     1  0.0000000  0.6508444  3
    394    390    397    398     1  0.0000000  0.6508444  3
    394    390    397    399     1  0.0000000  0.6508444  3
    394    406    412    413     1  0.0000000  0.6508444  3
    394    406    412    414     1  0.0000000  0.6508444  3
    395    394    390    397     1  0.0000000  0.6508444  3
    395    394    390    419     1  0.0000000  0.6508444  3
    395    394    406    412     1  0.0000000  0.6508444  3
    395    394    406    407     1  0.0000000  0.6508444  3
    395    394    406    408     1  0.0000000  0.6508444  3
    396    394    390    397     1  0.0000000  0.6508444  3
    396    394    390    419     1  0.0000000  0.6508444  3
    396    394    406    412     1  0.0000000  0.6508444  3
    396    394    406    407     1  0.0000000  0.6508444  3
    396    394    406    408     1  0.0000000  0.6508444  3
    397    400    409    410     1  0.0000000  0.6508444  3
    397    400    409    411     1  0.0000000  0.6508444  3
    398    397    390    419     1  0.0000000  0.6508444  3
    398    397    400    409     1  0.0000000  0.6508444  3
    398    397    400    401     1  0.0000000  0.6508444  3
    398    397    400    402     1  0.0000000  0.6508444  3
    399    397    390    419     1  0.0000000  0.6508444  3
    399    397    400    409     1  0.0000000  0.6508444  3
    399    397    400    401     1  0.0000000  0.6508444  3
    399    397    400    402     1  0.0000000  0.6508444  3
    400    397    390    419     1  0.0000000  0.6508444  3
    401    400    409    418     1  0.0000000  1.0460000  1
    401    400    409    418     1  0.0000000  0.0000000  3
    401    400    409    410     1  0.0000000  0.6508444  3
    401    400    409    411     1  0.0000000  0.6508444  3
    402    400    409    418     1  0.0000000  1.0460000  1
    402    400    409    418     1  0.0000000  0.0000000  3
    402    400    409    410     1  0.0000000  0.6508444  3
    402    400    409    411     1  0.0000000  0.6508444  3
    403    391    390    419     1  0.0000000  0.6508444  3
    404    403    415    898     1  0.0000000  1.0460000  1
    404    403    415    898     1  0.0000000  0.0000000  3
    404    403    415    416     1  0.0000000  0.6508444  3
    404    403    415    417     1  0.0000000  0.6508444  3
    405    403    415    898     1  0.0000000  1.0460000  1
    405    403    415    898     1  0.0000000  0.0000000  3
    405    403    415    416     1  0.0000000  0.6508444  3
    405    403    415    417     1  0.0000000  0.6508444  3
    406    394    390    419     1  0.0000000  0.6508444  3
    407    406    412    868     1  0.0000000  1.0460000  1
    407    406    412    868     1  0.0000000  0.0000000  3
    407    406    412    413     1  0.0000000  0.6508444  3
    407    406    412    414     1  0.0000000  0.6508444  3
    408    406    412    868     1  0.0000000  1.0460000  1
    408    406    412    868     1  0.0000000  0.0000000  3
    408    406    412    413     1  0.0000000  0.6508444  3
    408    406    412    414     1  0.0000000  0.6508444  3
    412    868    859    860     1  0.0000000  1.6038667  3
    412    868    859    861     1  0.0000000  1.6038667  3
    413    412    868    859     1  0.0000000  1.6038667  3
    414    412    868    859     1  0.0000000  1.6038667  3
    415    898    889    890     1  0.0000000  1.6038667  3
    415    898    889    891     1  0.0000000  1.6038667  3
    416    415    898    889     1  0.0000000  1.6038667  3
    417    415    898    889     1  0.0000000  1.6038667  3
    420    421    433    434     1  0.0000000  0.6508444  3
    420    421    433    435     1  0.0000000  0.6508444  3
    420    424    436    437     1  0.0000000  0.6508444  3
    420    424    436    438     1  0.0000000  0.6508444  3
    420    427    430    431     1  0.0000000  0.6508444  3
    420    427    430    432     1  0.0000000  0.6508444  3
    421    420    424    425     1  0.0000000  0.6508444  3
    421    420    424    426     1  0.0000000  0.6508444  3
    421    420    427    428     1  0.0000000  0.6508444  3
    421    420    427    429     1  0.0000000  0.6508444  3
    421    433    445    446     1  0.0000000  0.6508444  3
    421    433    445    447     1  0.0000000  0.6508444  3
    422    421    420    424     1  0.0000000  0.6508444  3
    422    421    420    427     1  0.0000000  0.6508444  3
    422    421    420    449     1  0.0000000  0.6508444  3
    422    421    433    445     1  0.0000000  0.6508444  3
    422    421    433    434     1  0.0000000  0.6508444  3
    422    421    433    435     1  0.0000000  0.6508444  3
    423    421    420    424     1  0.0000000  0.6508444  3
    423    421    420    427     1  0.0000000  0.6508444  3
    423    421    420    449     1  0.0000000  0.6508444  3
    423    421    433    445     1  0.0000000  0.6508444  3
    423    421    433    434     1  0.0000000  0.6508444  3
    423    421    433    435     1  0.0000000  0.6508444  3
    424    420    427    428     1  0.0000000  0.6508444  3
    424    420    427    429     1  0.0000000  0.6508444  3
    424    436    442    443     1  0.0000000  0.6508444  3
    424    436    442    444     1  0.0000000  0.6508444  3
    425    424    420    427     1  0.0000000  0.6508444  3
    425    424    420    449     1  0.0000000  0.6508444  3
    425    424    436    442     1  0.0000000  0.6508444  3
    425    424    436    437     1  0.0000000  0.6508444  3
    425    424    436    438     1  0.0000000  0.6508444  3
    426    424    420    427     1  0.0000000  0.6508444  3
    426    424    420    449     1  0.0000000  0.6508444  3
    426    424    436    442     1  0.0000000  0.6508444  3
    426    424    436    437     1  0.0000000  0.6508444  3
    426    424    436    438     1  0.0000000  0.6508444  3
    427    430    439    440     1  0.0000000  0.6508444  3
    427    430    439    441     1  0.0000000  0.6508444  3
    428    427    420    449     1  0.0000000  0.6508444  3
    428    427    430    439     1  0.0000000  0.6508444  3
    428    427    430    431     1  0.0000000  0.6508444  3
    428    427    430    432     1  0.0000000  0.6508444  3
    429    427    420    449     1  0.0000000  0.6508444  3
    429    427    430    439     1  0.0000000  0.6508444  3
    429    427    430    431     1  0.0000000  0.6508444  3
    429    427    430    432     1  0.0000000  0.6508444  3
    430    427    420    449     1  0.0000000  0.6508444  3
    431    430    439    448     1  0.0000000  1.0460000  1
    431    430    439    448     1  0.0000000  0.0000000  3
    431    430    439    440     1  0.0000000  0.6508444  3
    431    430    439    441     1  0.0000000  0.6508444  3
    432    430    439    448     1  0.0000000  1.0460000  1
    432    430    439    448     1  0.0000000  0.0000000  3
    432    430    439    440     1  0.0000000  0.6508444  3
    432    430    439    441     1  0.0000000  0.6508444  3
    433    421    420    449     1  0.0000000  0.6508444  3
    434    433    445    958     1  0.0000000  1.0460000  1
    434    433    445    958     1  0.0000000  0.0000000  3
    434    433    445    446     1  0.0000000  0.6508444  3
    434    433    445    447     1  0.0000000  0.6508444  3
    435    433    445    958     1  0.0000000  1.0460000  1
    435    433    445    958     1  0.0000000  0.0000000  3
    435    433    445    446     1  0.0000000  0.6508444  3
    435    433    445    447     1  0.0000000  0.6508444  3
    436    424    420    449     1  0.0000000  0.6508444  3
    437    436    442    928     1  0.0000000  1.0460000  1
    437    436    442    928     1  0.0000000  0.0000000  3
    437    436    442    443     1  0.0000000  0.6508444  3
    437    436    442    444     1  0.0000000  0.6508444  3
    438    436    442    928     1  0.0000000  1.0460000  1
    438    436    442    928     1  0.0000000  0.0000000  3
    438    436    442    443     1  0.0000000  0.6508444  3
    438    436    442    444     1  0.0000000  0.6508444  3
    442    928    919    920     1  0.0000000  1.6038667  3
    442    928    919    921     1  0.0000000  1.6038667  3
    443    442    928    919     1  0.0000000  1.6038667  3
    444    442    928    919     1  0.0000000  1.6038667  3
    445    958    949    950     1  0.0000000  1.6038667  3
    445    958    949    951     1  0.0000000  1.6038667  3
    446    445    958    949     1  0.0000000  1.6038667  3
    447    445    958    949     1  0.0000000  1.6038667  3
    450    451    463    464     1  0.0000000  0.6508444  3
    450    451    463    465     1  0.0000000  0.6508444  3
    450    454    466    467     1  0.0000000  0.6508444  3
    450    454    466    468     1  0.0000000  0.6508444  3
    450    457    460    461     1  0.0000000  0.6508444  3
    450    457    460    462     1  0.0000000  0.6508444  3
    451    450    454    455     1  0.0000000  0.6508444  3
    451    450    454    456     1  0.0000000  0.6508444  3
    451    450    457    458     1  0.0000000  0.6508444  3
    451    450    457    459     1  0.0000000  0.6508444  3
    451    463    475    476     1  0.0000000  0.6508444  3
    451    463    475    477     1  0.0000000  0.6508444  3
    452    451    450    454     1  0.0000000  0.6508444  3
    452    451    450    457     1  0.0000000  0.6508444  3
    452    451    450    479     1  0.0000000  0.6508444  3
    452    451    463    475     1  0.0000000  0.6508444  3
    452    451    463    464     1  0.0000000  0.6508444  3
    452    451    463    465     1  0.0000000  0.6508444  3
    453    451    450    454     1  0.0000000  0.6508444  3
    453    451    450    457     1  0.0000000  0.6508444  3
    453    451    450    479     1  0.0000000  0.6508444  3
    453    451    463    475     1  0.0000000  0.6508444  3
    453    451    463    464     1  0.0000000  0.6508444  3
    453    451    463    465     1  0.0000000  0.6508444  3
    454    450    457    458     1  0.0000000  0.6508444  3
    454    450    457    459     1  0.0000000  0.6508444  3
    454    466    472    473     1  0.0000000  0.6508444  3
    454    466    472    474     1  0.0000000  0.6508444  3
    455    454    450    457     1  0.0000000  0.6508444  3
    455    454    450    479     1  0.0000000  0.6508444  3
    455    454    466    472     1  0.0000000  0.6508444  3
    455    454    466    467     1  0.0000000  0.6508444  3
    455    454    466    468     1  0.0000000  0.6508444  3
    456    454    450    457     1  0.0000000  0.6508444  3
    456    454    450    479     1  0.0000000  0.6508444  3
    456    454    466    472     1  0.0000000  0.6508444  3
    456    454    466    467     1  0.0000000  0.6508444  3
    456    454    466    468     1  0.0000000  0.6508444  3
    457    460    469    470     1  0.0000000  0.6508444  3
    457    460    469    471     1  0.0000000  0.6508444  3
    458    457    450    479     1  0.0000000  0.6508444  3
    458    457    460    469     1  0.0000000  0.6508444  3
    458    457    460    461     1  0.0000000  0.6508444  3
    458    457    460    462     1  0.0000000  0.6508444  3
    459    457    450    479     1  0.0000000  0.6508444  3
    459    457    460    469     1  0.0000000  0.6508444  3
    459    457    460    461     1  0.0000000  0.6508444  3
    459    457    460    462     1  0.0000000  0.6508444  3
    460    457    450    479     1  0.0000000  0.6508444  3
    461    460    469    478     1  0.0000000  1.0460000  1
    461    460    469    478     1  0.0000000  0.0000000  3
    461    460    469    470     1  0.0000000  0.6508444  3
    461    460    469    471     1  0.0000000  0.6508444  3
    462    460    469    478     1  0.0000000  1.0460000  1
    462    460    469    478     1  0.0000000  0.0000000  3
    462    460    469    470     1  0.0000000  0.6508444  3
    462    460    469    471     1  0.0000000  0.6508444  3
    463    451    450    479     1  0.0000000  0.6508444  3
    464    463    475   1018     1  0.0000000  1.0460000  1
    464    463    475   1018     1  0.0000000  0.0000000  3
    464    463    475    476     1  0.0000000  0.6508444  3
    464    463    475    477     1  0.0000000  0.6508444  3
    465    463    475   1018     1  0.0000000  1.0460000  1
    465    463    475   1018     1  0.0000000  0.0000000  3
    465    463    475    476     1  0.0000000  0.6508444  3
    465    463    475    477     1  0.0000000  0.6508444  3
    466    454    450    479     1  0.0000000  0.6508444  3
    467    466    472    988     1  0.0000000  1.0460000  1
    467    466    472    988     1  0.0000000  0.0000000  3
    467    466    472    473     1  0.0000000  0.6508444  3
    467    466    472    474     1  0.0000000  0.6508444  3
    468    466    472    988     1  0.0000000  1.0460000  1
    468    466    472    988     1  0.0000000  0.0000000  3
    468    466    472    473     1  0.0000000  0.6508444  3
    468    466    472    474     1  0.0000000  0.6508444  3
    472    988    979    980     1  0.0000000  1.6038667  3
    472    988    979    981     1  0.0000000  1.6038667  3
    473    472    988    979     1  0.0000000  1.6038667  3
    474    472    988    979     1  0.0000000  1.6038667  3
    475   1018   1009   1010     1  0.0000000  1.6038667  3
    475   1018   1009   1011     1  0.0000000  1.6038667  3
    476    475   1018   1009     1  0.0000000  1.6038667  3
    477    475   1018   1009     1  0.0000000  1.6038667  3
    480    481    493    494     1  0.0000000  0.6508444  3
    480    481    493    495     1  0.0000000  0.6508444  3
    480    484    496    497     1  0.0000000  0.6508444  3
    480    484    496    498     1  0.0000000  0.6508444  3
    480    487    490    491     1  0.0000000  0.6508444  3
    480    487    490    492     1  0.0000000  0.6508444  3
    481    480    484    485     1  0.0000000  0.6508444  3
    481    480    484    486     1  0.0000000  0.6508444  3
    481    480    487    488     1  0.0000000  0.6508444  3
    481    480    487    489     1  0.0000000  0.6508444  3
    481    493    505    506     1  0.0000000  0.6508444  3
    481    493    505    507     1  0.0000000  0.6508444  3
    482    481    480    484     1  0.0000000  0.6508444  3
    482    481    480    487     1  0.0000000  0.6508444  3
    482    481    480    509     1  0.0000000  0.6508444  3
    482    481    493    505     1  0.0000000  0.6508444  3
    482    481    493    494     1  0.0000000  0.6508444  3
    482    481    493    495     1  0.0000000  0.6508444  3
    483    481    480    484     1  0.0000000  0.6508444  3
    483    481    480    487     1  0.0000000  0.6508444  3
    483    481    480    509     1  0.0000000  0.6508444  3
    483    481    493    505     1  0.0000000  0.6508444  3
    483    481    493    494     1  0.0000000  0.6508444  3
    483    481    493    495     1  0.0000000  0.6508444  3
    484    480    487    488     1  0.0000000  0.6508444  3
    484    480    487    489     1  0.0000000  0.6508444  3
    484    496    502    503     1  0.0000000  0.6508444  3
    484    496    502    504     1  0.0000000  0.6508444  3
    485    484    480    487     1  0.0000000  0.6508444  3
    485    484    480    509     1  0.0000000  0.6508444  3
    485    484    496    502     1  0.0000000  0.6508444  3
    485    484    496    497     1  0.0000000  0.6508444  3
    485    484    496    498     1  0.0000000  0.6508444  3
    486    484    480    487     1  0.0000000  0.6508444  3
    486    484    480    509     1  0.0000000  0.6508444  3
    486    484    496    502     1  0.0000000  0.6508444  3
    486    484    496    497     1  0.0000000  0.6508444  3
    486    484    496    498     1  0.0000000  0.6508444  3
    487    490    499    500     1  0.0000000  0.6508444  3
    487    490    499    501     1  0.0000000  0.6508444  3
    488    487    480    509     1  0.0000000  0.6508444  3
    488    487    490    499     1  0.0000000  0.6508444  3
    488    487    490    491     1  0.0000000  0.6508444  3
    488    487    490    492     1  0.0000000  0.6508444  3
    489    487    480    509     1  0.0000000  0.6508444  3
    489    487    490    499     1  0.0000000  0.6508444  3
    489    487    490    491     1  0.0000000  0.6508444  3
    489    487    490    492     1  0.0000000  0.6508444  3
    490    487    480    509     1  0.0000000  0.6508444  3
    491    490    499    508     1  0.0000000  1.0460000  1
    491    490    499    508     1  0.0000000  0.0000000  3
    491    490    499    500     1  0.0000000  0.6508444  3
    491    490    499    501     1  0.0000000  0.6508444  3
    492    490    499    508     1  0.0000000  1.0460000  1
    492    490    499    508     1  0.0000000  0.0000000  3
    492    490    499    500     1  0.0000000  0.6508444  3
    492    490    499    501     1  0.0000000  0.6508444  3
    493    481    480    509     1  0.0000000  0.6508444  3
    494    493    505   1078     1  0.0000000  1.0460000  1
    494    493    505   1078     1  0.0000000  0.0000000  3
    494    493    505    506     1  0.0000000  0.6508444  3
    494    493    505    507     1  0.0000000  0.6508444  3
    495    493    505   1078     1  0.0000000  1.0460000  1
    495    493    505   1078     1  0.0000000  0.0000000  3
    495    493    505    506     1  0.0000000  0.6508444  3
    495    493    505    507     1  0.0000000  0.6508444  3
    496    484    480    509     1  0.0000000  0.6508444  3
    497    496    502   1048     1  0.0000000  1.0460000  1
    497    496    502   1048     1  0.0000000  0.0000000  3
    497    496    502    503     1  0.0000000  0.6508444  3
    497    496    502    504     1  0.0000000  0.6508444  3
    498    496    502   1048     1  0.0000000  1.0460000  1
    498    496    502   1048     1  0.0000000  0.0000000  3
    498    496    502    503     1  0.0000000  0.6508444  3
    498    496    502    504     1  0.0000000  0.6508444  3
    502   1048   1039   1040     1  0.0000000  1.6038667  3
    502   1048   1039   1041     1  0.0000000  1.6038667  3
    503    502   1048   1039     1  0.0000000  1.6038667  3
    504    502   1048   1039     1  0.0000000  1.6038667  3
    505   1078   1069   1070     1  0.0000000  1.6038667  3
    505   1078   1069   1071     1  0.0000000  1.6038667  3
    506    505   1078   1069     1  0.0000000  1.6038667  3
    507    505   1078   1069     1  0.0000000  1.6038667  3
    510    511    523    524     1  0.0000000  0.6508444  3
    510    511    523    525     1  0.0000000  0.6508444  3
    510    514    526    527     1  0.0000000  0.6508444  3
    510    514    526    528     1  0.0000000  0.6508444  3
    510    517    520    521     1  0.0000000  0.6508444  3
    510    517    520    522     1  0.0000000  0.6508444  3
    511    510    514    515     1  0.0000000  0.6508444  3
    511    510    514    516     1  0.0000000  0.6508444  3
    511    510    517    518     1  0.0000000  0.6508444  3
    511    510    517    519     1  0.0000000  0.6508444  3
    511    523    535    536     1  0.0000000  0.6508444  3
    511    523    535    537     1  0.0000000  0.6508444  3
    512    511    510    514     1  0.0000000  0.6508444  3
    512    511    510    517     1  0.0000000  0.6508444  3
    512    511    510    539     1  0.0000000  0.6508444  3
    512    511    523    535     1  0.0000000  0.6508444  3
    512    511    523    524     1  0.0000000  0.6508444  3
    512    511    523    525     1  0.0000000  0.6508444  3
    513    511    510    514     1  0.0000000  0.6508444  3
    513    511    510    517     1  0.0000000  0.6508444  3
    513    511    510    539     1  0.0000000  0.6508444  3
    513    511    523    535     1  0.0000000  0.6508444  3
    513    511    523    524     1  0.0000000  0.6508444  3
    513    511    523    525     1  0.0000000  0.6508444  3
    514    510    517    518     1  0.0000000  0.6508444  3
    514    510    517    519     1  0.0000000  0.6508444  3
    514    526    532    533     1  0.0000000  0.6508444  3
    514    526    532    534     1  0.0000000  0.6508444  3
    515    514    510    517     1  0.0000000  0.6508444  3
    515    514    510    539     1  0.0000000  0.6508444  3
    515    514    526    532     1  0.0000000  0.6508444  3
    515    514    526    527     1  0.0000000  0.6508444  3
    515    514    526    528     1  0.0000000  0.6508444  3
    516    514    510    517     1  0.0000000  0.6508444  3
    516    514    510    539     1  0.0000000  0.6508444  3
    516    514    526    532     1  0.0000000  0.6508444  3
    516    514    526    527     1  0.0000000  0.6508444  3
    516    514    526    528     1  0.0000000  0.6508444  3
    517    520    529    530     1  0.0000000  0.6508444  3
    517    520    529    531     1  0.0000000  0.6508444  3
    518    517    510    539     1  0.0000000  0.6508444  3
    518    517    520    529     1  0.0000000  0.6508444  3
    518    517    520    521     1  0.0000000  0.6508444  3
    518    517    520    522     1  0.0000000  0.6508444  3
    519    517    510    539     1  0.0000000  0.6508444  3
    519    517    520    529     1  0.0000000  0.6508444  3
    519    517    520    521     1  0.0000000  0.6508444  3
    519    517    520    522     1  0.0000000  0.6508444  3
    520    517    510    539     1  0.0000000  0.6508444  3
    521    520    529    538     1  0.0000000  1.0460000  1
    521    520    529    538     1  0.0000000  0.0000000  3
    521    520    529    530     1  0.0000000  0.6508444  3
    521    520    529    531     1  0.0000000  0.6508444  3
    522    520    529    538     1  0.0000000  1.0460000  1
    522    520    529    538     1  0.0000000  0.0000000  3
    522    520    529    530     1  0.0000000  0.6508444  3
    522    520    529    531     1  0.0000000  0.6508444  3
    523    511    510    539     1  0.0000000  0.6508444  3
    524    523    535   1138     1  0.0000000  1.0460000  1
    524    523    535   1138     1  0.0000000  0.0000000  3
    524    523    535    536     1  0.0000000  0.6508444  3
    524    523    535    537     1  0.0000000  0.6508444  3
    525    523    535   1138     1  0.0000000  1.0460000  1
    525    523    535   1138     1  0.0000000  0.0000000  3
    525    523    535    536     1  0.0000000  0.6508444  3
    525    523    535    537     1  0.0000000  0.6508444  3
    526    514    510    539     1  0.0000000  0.6508444  3
    527    526    532   1108     1  0.0000000  1.0460000  1
    527    526    532   1108     1  0.0000000  0.0000000  3
    527    526    532    533     1  0.0000000  0.6508444  3
    527    526    532    534     1  0.0000000  0.6508444  3
    528    526    532   1108     1  0.0000000  1.0460000  1
    528    526    532   1108     1  0.0000000  0.0000000  3
    528    526    532    533     1  0.0000000  0.6508444  3
    528    526    532    534     1  0.0000000  0.6508444  3
    532   1108   1099   1100     1  0.0000000  1.6038667  3
    532   1108   1099   1101     1  0.0000000  1.6038667  3
    533    532   1108   1099     1  0.0000000  1.6038667  3
    534    532   1108   1099     1  0.0000000  1.6038667  3
    535   1138   1129   1130     1  0.0000000  1.6038667  3
    535   1138   1129   1131     1  0.0000000  1.6038667  3
    536    535   1138   1129     1  0.0000000  1.6038667  3
    537    535   1138   1129     1  0.0000000  1.6038667  3
    540    541    553    554     1  0.0000000  0.6508444  3
    540    541    553    555     1  0.0000000  0.6508444  3
    540    544    556    557     1  0.0000000  0.6508444  3
    540    544    556    558     1  0.0000000  0.6508444  3
    540    547    550    551     1  0.0000000  0.6508444  3
    540    547    550    552     1  0.0000000  0.6508444  3
    541    540    544    545     1  0.0000000  0.6508444  3
    541    540    544    546     1  0.0000000  0.6508444  3
    541    540    547    548     1  0.0000000  0.6508444  3
    541    540    547    549     1  0.0000000  0.6508444  3
    541    553    565    566     1  0.0000000  0.6508444  3
    541    553    565    567     1  0.0000000  0.6508444  3
    542    541    540    544     1  0.0000000  0.6508444  3
    542    541    540    547     1  0.0000000  0.6508444  3
    542    541    540    569     1  0.0000000  0.6508444  3
    542    541    553    565     1  0.0000000  0.6508444  3
    542    541    553    554     1  0.0000000  0.6508444  3
    542    541    553    555     1  0.0000000  0.6508444  3
    543    541    540    544     1  0.0000000  0.6508444  3
    543    541    540    547     1  0.0000000  0.6508444  3
    543    541    540    569     1  0.0000000  0.6508444  3
    543    541    553    565     1  0.0000000  0.6508444  3
    543    541    553    554     1  0.0000000  0.6508444  3
    543    541    553    555     1  0.0000000  0.6508444  3
    544    540    547    548     1  0.0000000  0.6508444  3
    544    540    547    549     1  0.0000000  0.6508444  3
    544    556    562    563     1  0.0000000  0.6508444  3
    544    556    562    564     1  0.0000000  0.6508444  3
    545    544    540    547     1  0.0000000  0.6508444  3
    545    544    540    569     1  0.0000000  0.6508444  3
    545    544    556    562     1  0.0000000  0.6508444  3
    545    544    556    557     1  0.0000000  0.6508444  3
    545    544    556    558     1  0.0000000  0.6508444  3
    546    544    540    547     1  0.0000000  0.6508444  3
    546    544    540    569     1  0.0000000  0.6508444  3
    546    544    556    562     1  0.0000000  0.6508444  3
    546    544    556    557     1  0.0000000  0.6508444  3
    546    544    556    558     1  0.0000000  0.6508444  3
    547    550    559    560     1  0.0000000  0.6508444  3
    547    550    559    561     1  0.0000000  0.6508444  3
    548    547    540    569     1  0.0000000  0.6508444  3
    548    547    550    559     1  0.0000000  0.6508444  3
    548    547    550    551     1  0.0000000  0.6508444  3
    548    547    550    552     1  0.0000000  0.6508444  3
    549    547    540    569     1  0.0000000  0.6508444  3
    549    547    550    559     1  0.0000000  0.6508444  3
    549    547    550    551     1  0.0000000  0.6508444  3
    549    547    550    552     1  0.0000000  0.6508444  3
    550    547    540    569     1  0.0000000  0.6508444  3
    551    550    559    568     1  0.0000000  1.0460000  1
    551    550    559    568     1  0.0000000  0.0000000  3
    551    550    559    560     1  0.0000000  0.6508444  3
    551    550    559    561     1  0.0000000  0.6508444  3
    552    550    559    568     1  0.0000000  1.0460000  1
    552    550    559    568     1  0.0000000  0.0000000  3
    552    550    559    560     1  0.0000000  0.6508444  3
    552    550    559    561     1  0.0000000  0.6508444  3
    553    541    540    569     1  0.0000000  0.6508444  3
    554    553    565   1198     1  0.0000000  1.0460000  1
    554    553    565   1198     1  0.0000000  0.0000000  3
    554    553    565    566     1  0.0000000  0.6508444  3
    554    553    565    567     1  0.0000000  0.6508444  3
    555    553    565   1198     1  0.0000000  1.0460000  1
    555    553    565   1198     1  0.0000000  0.0000000  3
    555    553    565    566     1  0.0000000  0.6508444  3
    555    553    565    567     1  0.0000000  0.6508444  3
    556    544    540    569     1  0.0000000  0.6508444  3
    557    556    562   1168     1  0.0000000  1.0460000  1
    557    556    562   1168     1  0.0000000  0.0000000  3
    557    556    562    563     1  0.0000000  0.6508444  3
    557    556    562    564     1  0.0000000  0.6508444  3
    558    556    562   1168     1  0.0000000  1.0460000  1
    558    556    562   1168     1  0.0000000  0.0000000  3
    558    556    562    563     1  0.0000000  0.6508444  3
    558    556    562    564     1  0.0000000  0.6508444  3
    562   1168   1159   1160     1  0.0000000  1.6038667  3
    562   1168   1159   1161     1  0.0000000  1.6038667  3
    563    562   1168   1159     1  0.0000000  1.6038667  3
    564    562   1168   1159     1  0.0000000  1.6038667  3
    565   1198   1189   1190     1  0.0000000  1.6038667  3
    565   1198   1189   1191     1  0.0000000  1.6038667  3
    566    565   1198   1189     1  0.0000000  1.6038667  3
    567    565   1198   1189     1  0.0000000  1.6038667  3
    570    571    583    584     1  0.0000000  0.6508444  3
    570    571    583    585     1  0.0000000  0.6508444  3
    570    574    586    587     1  0.0000000  0.6508444  3
    570    574    586    588     1  0.0000000  0.6508444  3
    570    577    580    581     1  0.0000000  0.6508444  3
    570    577    580    582     1  0.0000000  0.6508444  3
    571    570    574    575     1  0.0000000  0.6508444  3
    571    570    574    576     1  0.0000000  0.6508444  3
    571    570    577    578     1  0.0000000  0.6508444  3
    571    570    577    579     1  0.0000000  0.6508444  3
    571    583    595    596     1  0.0000000  0.6508444  3
    571    583    595    597     1  0.0000000  0.6508444  3
    572    571    570    574     1  0.0000000  0.6508444  3
    572    571    570    577     1  0.0000000  0.6508444  3
    572    571    570    599     1  0.0000000  0.6508444  3
    572    571    583    595     1  0.0000000  0.6508444  3
    572    571    583    584     1  0.0000000  0.6508444  3
    572    571    583    585     1  0.0000000  0.6508444  3
    573    571    570    574     1  0.0000000  0.6508444  3
    573    571    570    577     1  0.0000000  0.6508444  3
    573    571    570    599     1  0.0000000  0.6508444  3
    573    571    583    595     1  0.0000000  0.6508444  3
    573    571    583    584     1  0.0000000  0.6508444  3
    573    571    583    585     1  0.0000000  0.6508444  3
    574    570    577    578     1  0.0000000  0.6508444  3
    574    570    577    579     1  0.0000000  0.6508444  3
    574    586    592    593     1  0.0000000  0.6508444  3
    574    586    592    594     1  0.0000000  0.6508444  3
    575    574    570    577     1  0.0000000  0.6508444  3
    575    574    570    599     1  0.0000000  0.6508444  3
    575    574    586    592     1  0.0000000  0.6508444  3
    575    574    586    587     1  0.0000000  0.6508444  3
    575    574    586    588     1  0.0000000  0.6508444  3
    576    574    570    577     1  0.0000000  0.6508444  3
    576    574    570    599     1  0.0000000  0.6508444  3
    576    574    586    592     1  0.0000000  0.6508444  3
    576    574    586    587     1  0.0000000  0.6508444  3
    576    574    586    588     1  0.0000000  0.6508444  3
    577    580    589    590     1  0.0000000  0.6508444  3
    577    580    589    591     1  0.0000000  0.6508444  3
    578    577    570    599     1  0.0000000  0.6508444  3
    578    577    580    589     1  0.0000000  0.6508444  3
    578    577    580    581     1  0.0000000  0.6508444  3
    578    577    580    582     1  0.0000000  0.6508444  3
    579    577    570    599     1  0.0000000  0.6508444  3
    579    577    580    589     1  0.0000000  0.6508444  3
    579    577    580    581     1  0.0000000  0.6508444  3
    579    577    580    582     1  0.0000000  0.6508444  3
    580    577    570    599     1  0.0000000  0.6508444  3
    581    580    589    598     1  0.0000000  1.0460000  1
    581    580    589    598     1  0.0000000  0.0000000  3
    581    580    589    590     1  0.0000000  0.6508444  3
    581    580    589    591     1  0.0000000  0.6508444  3
    582    580    589    598     1  0.0000000  1.0460000  1
    582    580    589    598     1  0.0000000  0.0000000  3
    582    580    589    590     1  0.0000000  0.6508444  3
    582    580    589    591     1  0.0000000  0.6508444  3
    583    571    570    599     1  0.0000000  0.6508444  3
    584    583    595   1258     1  0.0000000  1.0460000  1
    584    583    595   1258     1  0.0000000  0.0000000  3
    584    583    595    596     1  0.0000000  0.6508444  3
    584    583    595    597     1  0.0000000  0.6508444  3
    585    583    595   1258     1  0.0000000  1.0460000  1
    585    583    595   1258     1  0.0000000  0.0000000  3
    585    583    595    596     1  0.0000000  0.6508444  3
    585    583    595    597     1  0.0000000  0.6508444  3
    586    574    570    599     1  0.0000000  0.6508444  3
    587    586    592   1228     1  0.0000000  1.0460000  1
    587    586    592   1228     1  0.0000000  0.0000000  3
    587    586    592    593     1  0.0000000  0.6508444  3
    587    586    592    594     1  0.0000000  0.6508444  3
    588    586    592   1228     1  0.0000000  1.0460000  1
    588    586    592   1228     1  0.0000000  0.0000000  3
    588    586    592    593     1  0.0000000  0.6508444  3
    588    586    592    594     1  0.0000000  0.6508444  3
    592   1228   1219   1220     1  0.0000000  1.6038667  3
    592   1228   1219   1221     1  0.0000000  1.6038667  3
    593    592   1228   1219     1  0.0000000  1.6038667  3
    594    592   1228   1219     1  0.0000000  1.6038667  3
    595   1258   1249   1250     1  0.0000000  1.6038667  3
    595   1258   1249   1251     1  0.0000000  1.6038667  3
    596    595   1258   1249     1  0.0000000  1.6038667  3
    597    595   1258   1249     1  0.0000000  1.6038667  3
    600    601    613    614     1  0.0000000  0.6508444  3
    600    601    613    615     1  0.0000000  0.6508444  3
    600    604    616    617     1  0.0000000  0.6508444  3
    600    604    616    618     1  0.0000000  0.6508444  3
    600    607    610    611     1  0.0000000  0.6508444  3
    600    607    610    612     1  0.0000000  0.6508444  3
    601    600    604    605     1  0.0000000  0.6508444  3
    601    600    604    606     1  0.0000000  0.6508444  3
    601    600    607    608     1  0.0000000  0.6508444  3
    601    600    607    609     1  0.0000000  0.6508444  3
    601    613    625    626     1  0.0000000  0.6508444  3
    601    613    625    627     1  0.0000000  0.6508444  3
    602    601    600    604     1  0.0000000  0.6508444  3
    602    601    600    607     1  0.0000000  0.6508444  3
    602    601    600    629     1  0.0000000  0.6508444  3
    602    601    613    625     1  0.0000000  0.6508444  3
    602    601    613    614     1  0.0000000  0.6508444  3
    602    601    613    615     1  0.0000000  0.6508444  3
    603    601    600    604     1  0.0000000  0.6508444  3
    603    601    600    607     1  0.0000000  0.6508444  3
    603    601    600    629     1  0.0000000  0.6508444  3
    603    601    613    625     1  0.0000000  0.6508444  3
    603    601    613    614     1  0.0000000  0.6508444  3
    603    601    613    615     1  0.0000000  0.6508444  3
    604    600    607    608     1  0.0000000  0.6508444  3
    604    600    607    609     1  0.0000000  0.6508444  3
    604    616    622    623     1  0.0000000  0.6508444  3
    604    616    622    624     1  0.0000000  0.6508444  3
    605    604    600    607     1  0.0000000  0.6508444  3
    605    604    600    629     1  0.0000000  0.6508444  3
    605    604    616    622     1  0.0000000  0.6508444  3
    605    604    616    617     1  0.0000000  0.6508444  3
    605    604    616    618     1  0.0000000  0.6508444  3
    606    604    600    607     1  0.0000000  0.6508444  3
    606    604    600    629     1  0.0000000  0.6508444  3
    606    604    616    622     1  0.0000000  0.6508444  3
    606    604    616    617     1  0.0000000  0.6508444  3
    606    604    616    618     1  0.0000000  0.6508444  3
    607    610    619    620     1  0.0000000  0.6508444  3
    607    610    619    621     1  0.0000000  0.6508444  3
    608    607    600    629     1  0.0000000  0.6508444  3
    608    607    610    619     1  0.0000000  0.6508444  3
    608    607    610    611     1  0.0000000  0.6508444  3
    608    607    610    612     1  0.0000000  0.6508444  3
    609    607    600    629     1  0.0000000  0.6508444  3
    609    607    610    619     1  0.0000000  0.6508444  3
    609    607    610    611     1  0.0000000  0.6508444  3
    609    607    610    612     1  0.0000000  0.6508444  3
    610    607    600    629     1  0.0000000  0.6508444  3
    611    610    619    628     1  0.0000000  1.0460000  1
    611    610    619    628     1  0.0000000  0.0000000  3
    611    610    619    620     1  0.0000000  0.6508444  3
    611    610    619    621     1  0.0000000  0.6508444  3
    612    610    619    628     1  0.0000000  1.0460000  1
    612    610    619    628     1  0.0000000  0.0000000  3
    612    610    619    620     1  0.0000000  0.6508444  3
    612    610    619    621     1  0.0000000  0.6508444  3
    613    601    600    629     1  0.0000000  0.6508444  3
    614    613    625   1318     1  0.0000000  1.0460000  1
    614    613    625   1318     1  0.0000000  0.0000000  3
    614    613    625    626     1  0.0000000  0.6508444  3
    614    613    625    627     1  0.0000000  0.6508444  3
    615    613    625   1318     1  0.0000000  1.0460000  1
    615    613    625   1318     1  0.0000000  0.0000000  3
    615    613    625    626     1  0.0000000  0.6508444  3
    615    613    625    627     1  0.0000000  0.6508444  3
    616    604    600    629     1  0.0000000  0.6508444  3
    617    616    622   1288     1  0.0000000  1.0460000  1
    617    616    622   1288     1  0.0000000  0.0000000  3
    617    616    622    623     1  0.0000000  0.6508444  3
    617    616    622    624     1  0.0000000  0.6508444  3
    618    616    622   1288     1  0.0000000  1.0460000  1
    618    616    622   1288     1  0.0000000  0.0000000  3
    618    616    622    623     1  0.0000000  0.6508444  3
    618    616    622    624     1  0.0000000  0.6508444  3
    622   1288   1279   1280     1  0.0000000  1.6038667  3
    622   1288   1279   1281     1  0.0000000  1.6038667  3
    623    622   1288   1279     1  0.0000000  1.6038667  3
    624    622   1288   1279     1  0.0000000  1.6038667  3
    625   1318   1309   1310     1  0.0000000  1.6038667  3
    625   1318   1309   1311     1  0.0000000  1.6038667  3
    626    625   1318   1309     1  0.0000000  1.6038667  3
    627    625   1318   1309     1  0.0000000  1.6038667  3
    630    631    643    644     1  0.0000000  0.6508444  3
    630    631    643    645     1  0.0000000  0.6508444  3
    630    634    646    647     1  0.0000000  0.6508444  3
    630    634    646    648     1  0.0000000  0.6508444  3
    630    637    640    641     1  0.0000000  0.6508444  3
    630    637    640    642     1  0.0000000  0.6508444  3
    631    630    634    635     1  0.0000000  0.6508444  3
    631    630    634    636     1  0.0000000  0.6508444  3
    631    630    637    638     1  0.0000000  0.6508444  3
    631    630    637    639     1  0.0000000  0.6508444  3
    631    643    655    656     1  0.0000000  0.6508444  3
    631    643    655    657     1  0.0000000  0.6508444  3
    632    631    630    634     1  0.0000000  0.6508444  3
    632    631    630    637     1  0.0000000  0.6508444  3
    632    631    630    659     1  0.0000000  0.6508444  3
    632    631    643    655     1  0.0000000  0.6508444  3
    632    631    643    644     1  0.0000000  0.6508444  3
    632    631    643    645     1  0.0000000  0.6508444  3
    633    631    630    634     1  0.0000000  0.6508444  3
    633    631    630    637     1  0.0000000  0.6508444  3
    633    631    630    659     1  0.0000000  0.6508444  3
    633    631    643    655     1  0.0000000  0.6508444  3
    633    631    643    644     1  0.0000000  0.6508444  3
    633    631    643    645     1  0.0000000  0.6508444  3
    634    630    637    638     1  0.0000000  0.6508444  3
    634    630    637    639     1  0.0000000  0.6508444  3
    634    646    652    653     1  0.0000000  0.6508444  3
    634    646    652    654     1  0.0000000  0.6508444  3
    635    634    630    637     1  0.0000000  0.6508444  3
    635    634    630    659     1  0.0000000  0.6508444  3
    635    634    646    652     1  0.0000000  0.6508444  3
    635    634    646    647     1  0.0000000  0.6508444  3
    635    634    646    648     1  0.0000000  0.6508444  3
    636    634    630    637     1  0.0000000  0.6508444  3
    636    634    630    659     1  0.0000000  0.6508444  3
    636    634    646    652     1  0.0000000  0.6508444  3
    636    634    646    647     1  0.0000000  0.6508444  3
    636    634    646    648     1  0.0000000  0.6508444  3
    637    640    649    650     1  0.0000000  0.6508444  3
    637    640    649    651     1  0.0000000  0.6508444  3
    638    637    630    659     1  0.0000000  0.6508444  3
    638    637    640    649     1  0.0000000  0.6508444  3
    638    637    640    641     1  0.0000000  0.6508444  3
    638    637    640    642     1  0.0000000  0.6508444  3
    639    637    630    659     1  0.0000000  0.6508444  3
    639    637    640    649     1  0.0000000  0.6508444  3
    639    637    640    641     1  0.0000000  0.6508444  3
    639    637    640    642     1  0.0000000  0.6508444  3
    640    637    630    659     1  0.0000000  0.6508444  3
    641    640    649    658     1  0.0000000  1.0460000  1
    641    640    649    658     1  0.0000000  0.0000000  3
    641    640    649    650     1  0.0000000  0.6508444  3
    641    640    649    651     1  0.0000000  0.6508444  3
    642    640    649    658     1  0.0000000  1.0460000  1
    642    640    649    658     1  0.0000000  0.0000000  3
    642    640    649    650     1  0.0000000  0.6508444  3
    642    640    649    651     1  0.0000000  0.6508444  3
    643    631    630    659     1  0.0000000  0.6508444  3
    644    643    655   1378     1  0.0000000  1.0460000  1
    644    643    655   1378     1  0.0000000  0.0000000  3
    644    643    655    656     1  0.0000000  0.6508444  3
    644    643    655    657     1  0.0000000  0.6508444  3
    645    643    655   1378     1  0.0000000  1.0460000  1
    645    643    655   1378     1  0.0000000  0.0000000  3
    645    643    655    656     1  0.0000000  0.6508444  3
    645    643    655    657     1  0.0000000  0.6508444  3
    646    634    630    659     1  0.0000000  0.6508444  3
    647    646    652   1348     1  0.0000000  1.0460000  1
    647    646    652   1348     1  0.0000000  0.0000000  3
    647    646    652    653     1  0.0000000  0.6508444  3
    647    646    652    654     1  0.0000000  0.6508444  3
    648    646    652   1348     1  0.0000000  1.0460000  1
    648    646    652   1348     1  0.0000000  0.0000000  3
    648    646    652    653     1  0.0000000  0.6508444  3
    648    646    652    654     1  0.0000000  0.6508444  3
    652   1348   1339   1340     1  0.0000000  1.6038667  3
    652   1348   1339   1341     1  0.0000000  1.6038667  3
    653    652   1348   1339     1  0.0000000  1.6038667  3
    654    652   1348   1339     1  0.0000000  1.6038667  3
    655   1378   1369   1370     1  0.0000000  1.6038667  3
    655   1378   1369   1371     1  0.0000000  1.6038667  3
    656    655   1378   1369     1  0.0000000  1.6038667  3
    657    655   1378   1369     1  0.0000000  1.6038667  3
    660    661    673    674     1  0.0000000  0.6508444  3
    660    661    673    675     1  0.0000000  0.6508444  3
    660    664    676    677     1  0.0000000  0.6508444  3
    660    664    676    678     1  0.0000000  0.6508444  3
    660    667    670    671     1  0.0000000  0.6508444  3
    660    667    670    672     1  0.0000000  0.6508444  3
    661    660    664    665     1  0.0000000  0.6508444  3
    661    660    664    666     1  0.0000000  0.6508444  3
    661    660    667    668     1  0.0000000  0.6508444  3
    661    660    667    669     1  0.0000000  0.6508444  3
    661    673    685    686     1  0.0000000  0.6508444  3
    661    673    685    687     1  0.0000000  0.6508444  3
    662    661    660    664     1  0.0000000  0.6508444  3
    662    661    660    667     1  0.0000000  0.6508444  3
    662    661    660    689     1  0.0000000  0.6508444  3
    662    661    673    685     1  0.0000000  0.6508444  3
    662    661    673    674     1  0.0000000  0.6508444  3
    662    661    673    675     1  0.0000000  0.6508444  3
    663    661    660    664     1  0.0000000  0.6508444  3
    663    661    660    667     1  0.0000000  0.6508444  3
    663    661    660    689     1  0.0000000  0.6508444  3
    663    661    673    685     1  0.0000000  0.6508444  3
    663    661    673    674     1  0.0000000  0.6508444  3
    663    661    673    675     1  0.0000000  0.6508444  3
    664    660    667    668     1  0.0000000  0.6508444  3
    664    660    667    669     1  0.0000000  0.6508444  3
    664    676    682    683     1  0.0000000  0.6508444  3
    664    676    682    684     1  0.0000000  0.6508444  3
    665    664    660    667     1  0.0000000  0.6508444  3
    665    664    660    689     1  0.0000000  0.6508444  3
    665    664    676    682     1  0.0000000  0.6508444  3
    665    664    676    677     1  0.0000000  0.6508444  3
    665    664    676    678     1  0.0000000  0.6508444  3
    666    664    660    667     1  0.0000000  0.6508444  3
    666    664    660    689     1  0.0000000  0.6508444  3
    666    664    676    682     1  0.0000000  0.6508444  3
    666    664    676    677     1  0.0000000  0.6508444  3
    666    664    676    678     1  0.0000000  0.6508444  3
    667    670    679    680     1  0.0000000  0.6508444  3
    667    670    679    681     1  0.0000000  0.6508444  3
    668    667    660    689     1  0.0000000  0.6508444  3
    668    667    670    679     1  0.0000000  0.6508444  3
    668    667    670    671     1  0.0000000  0.6508444  3
    668    667    670    672     1  0.0000000  0.6508444  3
    669    667    660    689     1  0.0000000  0.6508444  3
    669    667    670    679     1  0.0000000  0.6508444  3
    669    667    670    671     1  0.0000000  0.6508444  3
    669    667    670    672     1  0.0000000  0.6508444  3
    670    667    660    689     1  0.0000000  0.6508444  3
    671    670    679    688     1  0.0000000  1.0460000  1
    671    670    679    688     1  0.0000000  0.0000000  3
    671    670    679    680     1  0.0000000  0.6508444  3
    671    670    679    681     1  0.0000000  0.6508444  3
    672    670    679    688     1  0.0000000  1.0460000  1
    672    670    679    688     1  0.0000000  0.0000000  3
    672    670    679    680     1  0.0000000  0.6508444  3
    672    670    679    681     1  0.0000000  0.6508444  3
    673    661    660    689     1  0.0000000  0.6508444  3
    674    673    685   1406     1  0.0000000  1.0460000  1
    674    673    685   1406     1  0.0000000  0.0000000  3
    674    673    685    686     1  0.0000000  0.6508444  3
    674    673    685    687     1  0.0000000  0.6508444  3
    675    673    685   1406     1  0.0000000  1.0460000  1
    675    673    685   1406     1  0.0000000  0.0000000  3
    675    673    685    686     1  0.0000000  0.6508444  3
    675    673    685    687     1  0.0000000  0.6508444  3
    676    664    660    689     1  0.0000000  0.6508444  3
    677    676    682   1392     1  0.0000000  1.0460000  1
    677    676    682   1392     1  0.0000000  0.0000000  3
    677    676    682    683     1  0.0000000  0.6508444  3
    677    676    682    684     1  0.0000000  0.6508444  3
    678    676    682   1392     1  0.0000000  1.0460000  1
    678    676    682   1392     1  0.0000000  0.0000000  3
    678    676    682    683     1  0.0000000  0.6508444  3
    678    676    682    684     1  0.0000000  0.6508444  3
    682   1392   1386   1387     1  0.0000000  1.6038667  3
    682   1392   1386   1388     1  0.0000000  1.6038667  3
    683    682   1392   1386     1  0.0000000  1.6038667  3
    684    682   1392   1386     1  0.0000000  1.6038667  3
    685   1406   1400   1401     1  0.0000000  1.6038667  3
    685   1406   1400   1402     1  0.0000000  1.6038667  3
    686    685   1406   1400     1  0.0000000  1.6038667  3
    687    685   1406   1400     1  0.0000000  1.6038667  3
    690    691    703    704     1  0.0000000  0.6508444  3
    690    691    703    705     1  0.0000000  0.6508444  3
    690    694    706    707     1  0.0000000  0.6508444  3
    690    694    706    708     1  0.0000000  0.6508444  3
    690    697    700    701     1  0.0000000  0.6508444  3
    690    697    700    702     1  0.0000000  0.6508444  3
    691    690    694    695     1  0.0000000  0.6508444  3
    691    690    694    696     1  0.0000000  0.6508444  3
    691    690    697    698     1  0.0000000  0.6508444  3
    691    690    697    699     1  0.0000000  0.6508444  3
    691    703    715    716     1  0.0000000  0.6508444  3
    691    703    715    717     1  0.0000000  0.6508444  3
    692    691    690    694     1  0.0000000  0.6508444  3
    692    691    690    697     1  0.0000000  0.6508444  3
    692    691    690    719     1  0.0000000  0.6508444  3
    692    691    703    715     1  0.0000000  0.6508444  3
    692    691    703    704     1  0.0000000  0.6508444  3
    692    691    703    705     1  0.0000000  0.6508444  3
    693    691    690    694     1  0.0000000  0.6508444  3
    693    691    690    697     1  0.0000000  0.6508444  3
    693    691    690    719     1  0.0000000  0.6508444  3
    693    691    703    715     1  0.0000000  0.6508444  3
    693    691    703    704     1  0.0000000  0.6508444  3
    693    691    703    705     1  0.0000000  0.6508444  3
    694    690    697    698     1  0.0000000  0.6508444  3
    694    690    697    699     1  0.0000000  0.6508444  3
    694    706    712    713     1  0.0000000  0.6508444  3
    694    706    712    714     1  0.0000000  0.6508444  3
    695    694    690    697     1  0.0000000  0.6508444  3
    695    694    690    719     1  0.0000000  0.6508444  3
    695    694    706    712     1  0.0000000  0.6508444  3
    695    694    706    707     1  0.0000000  0.6508444  3
    695    694    706    708     1  0.0000000  0.6508444  3
    696    694    690    697     1  0.0000000  0.6508444  3
    696    694    690    719     1  0.0000000  0.6508444  3
    696    694    706    712     1  0.0000000  0.6508444  3
    696    694    706    707     1  0.0000000  0.6508444  3
    696    694    706    708     1  0.0000000  0.6508444  3
    697    700    709    710     1  0.0000000  0.6508444  3
    697    700    709    711     1  0.0000000  0.6508444  3
    698    697    690    719     1  0.0000000  0.6508444  3
    698    697    700    709     1  0.0000000  0.6508444  3
    698    697    700    701     1  0.0000000  0.6508444  3
    698    697    700    702     1  0.0000000  0.6508444  3
    699    697    690    719     1  0.0000000  0.6508444  3
    699    697    700    709     1  0.0000000  0.6508444  3
    699    697    700    701     1  0.0000000  0.6508444  3
    699    697    700    702     1  0.0000000  0.6508444  3
    700    697    690    719     1  0.0000000  0.6508444  3
    701    700    709    718     1  0.0000000  1.0460000  1
    701    700    709    718     1  0.0000000  0.0000000  3
    701    700    709    710     1  0.0000000  0.6508444  3
    701    700    709    711     1  0.0000000  0.6508444  3
    702    700    709    718     1  0.0000000  1.0460000  1
    702    700    709    718     1  0.0000000  0.0000000  3
    702    700    709    710     1  0.0000000  0.6508444  3
    702    700    709    711     1  0.0000000  0.6508444  3
    703    691    690    719     1  0.0000000  0.6508444  3
    704    703    715   1434     1  0.0000000  1.0460000  1
    704    703    715   1434     1  0.0000000  0.0000000  3
    704    703    715    716     1  0.0000000  0.6508444  3
    704    703    715    717     1  0.0000000  0.6508444  3
    705    703    715   1434     1  0.0000000  1.0460000  1
    705    703    715   1434     1  0.0000000  0.0000000  3
    705    703    715    716     1  0.0000000  0.6508444  3
    705    703    715    717     1  0.0000000  0.6508444  3
    706    694    690    719     1  0.0000000  0.6508444  3
    707    706    712   1420     1  0.0000000  1.0460000  1
    707    706    712   1420     1  0.0000000  0.0000000  3
    707    706    712    713     1  0.0000000  0.6508444  3
    707    706    712    714     1  0.0000000  0.6508444  3
    708    706    712   1420     1  0.0000000  1.0460000  1
    708    706    712   1420     1  0.0000000  0.0000000  3
    708    706    712    713     1  0.0000000  0.6508444  3
    708    706    712    714     1  0.0000000  0.6508444  3
    712   1420   1414   1415     1  0.0000000  1.6038667  3
    712   1420   1414   1416     1  0.0000000  1.6038667  3
    713    712   1420   1414     1  0.0000000  1.6038667  3
    714    712   1420   1414     1  0.0000000  1.6038667  3
    715   1434   1428   1429     1  0.0000000  1.6038667  3
    715   1434   1428   1430     1  0.0000000  1.6038667  3
    716    715   1434   1428     1  0.0000000  1.6038667  3
    717    715   1434   1428     1  0.0000000  1.6038667  3
    720    721    733    734     1  0.0000000  0.6508444  3
    720    721    733    735     1  0.0000000  0.6508444  3
    720    724    736    737     1  0.0000000  0.6508444  3
    720    724    736    738     1  0.0000000  0.6508444  3
    720    727    730    731     1  0.0000000  0.6508444  3
    720    727    730    732     1  0.0000000  0.6508444  3
    721    720    724    725     1  0.0000000  0.6508444  3
    721    720    724    726     1  0.0000000  0.6508444  3
    721    720    727    728     1  0.0000000  0.6508444  3
    721    720    727    729     1  0.0000000  0.6508444  3
    721    733    745    746     1  0.0000000  0.6508444  3
    721    733    745    747     1  0.0000000  0.6508444  3
    722    721    720    724     1  0.0000000  0.6508444  3
    722    721    720    727     1  0.0000000  0.6508444  3
    722    721    720    749     1  0.0000000  0.6508444  3
    722    721    733    745     1  0.0000000  0.6508444  3
    722    721    733    734     1  0.0000000  0.6508444  3
    722    721    733    735     1  0.0000000  0.6508444  3
    723    721    720    724     1  0.0000000  0.6508444  3
    723    721    720    727     1  0.0000000  0.6508444  3
    723    721    720    749     1  0.0000000  0.6508444  3
    723    721    733    745     1  0.0000000  0.6508444  3
    723    721    733    734     1  0.0000000  0.6508444  3
    723    721    733    735     1  0.0000000  0.6508444  3
    724    720    727    728     1  0.0000000  0.6508444  3
    724    720    727    729     1  0.0000000  0.6508444  3
    724    736    742    743     1  0.0000000  0.6508444  3
    724    736    742    744     1  0.0000000  0.6508444  3
    725    724    720    727     1  0.0000000  0.6508444  3
    725    724    720    749     1  0.0000000  0.6508444  3
    725    724    736    742     1  0.0000000  0.6508444  3
    725    724    736    737     1  0.0000000  0.6508444  3
    725    724    736    738     1  0.0000000  0.6508444  3
    726    724    720    727     1  0.0000000  0.6508444  3
    726    724    720    749     1  0.0000000  0.6508444  3
    726    724    736    742     1  0.0000000  0.6508444  3
    726    724    736    737     1  0.0000000  0.6508444  3
    726    724    736    738     1  0.0000000  0.6508444  3
    727    730    739    740     1  0.0000000  0.6508444  3
    727    730    739    741     1  0.0000000  0.6508444  3
    728    727    720    749     1  0.0000000  0.6508444  3
    728    727    730    739     1  0.0000000  0.6508444  3
    728    727    730    731     1  0.0000000  0.6508444  3
    728    727    730    732     1  0.0000000  0.6508444  3
    729    727    720    749     1  0.0000000  0.6508444  3
    729    727    730    739     1  0.0000000  0.6508444  3
    729    727    730    731     1  0.0000000  0.6508444  3
    729    727    730    732     1  0.0000000  0.6508444  3
    730    727    720    749     1  0.0000000  0.6508444  3
    731    730    739    748     1  0.0000000  1.0460000  1
    731    730    739    748     1  0.0000000  0.0000000  3
    731    730    739    740     1  0.0000000  0.6508444  3
    731    730    739    741     1  0.0000000  0.6508444  3
    732    730    739    748     1  0.0000000  1.0460000  1
    732    730    739    748     1  0.0000000  0.0000000  3
    732    730    739    740     1  0.0000000  0.6508444  3
    732    730    739    741     1  0.0000000  0.6508444  3
    733    721    720    749     1  0.0000000  0.6508444  3
    734    733    745   1462     1  0.0000000  1.0460000  1
    734    733    745   1462     1  0.0000000  0.0000000  3
    734    733    745    746     1  0.0000000  0.6508444  3
    734    733    745    747     1  0.0000000  0.6508444  3
    735    733    745   1462     1  0.0000000  1.0460000  1
    735    733    745   1462     1  0.0000000  0.0000000  3
    735    733    745    746     1  0.0000000  0.6508444  3
    735    733    745    747     1  0.0000000  0.6508444  3
    736    724    720    749     1  0.0000000  0.6508444  3
    737    736    742   1448     1  0.0000000  1.0460000  1
    737    736    742   1448     1  0.0000000  0.0000000  3
    737    736    742    743     1  0.0000000  0.6508444  3
    737    736    742    744     1  0.0000000  0.6508444  3
    738    736    742   1448     1  0.0000000  1.0460000  1
    738    736    742   1448     1  0.0000000  0.0000000  3
    738    736    742    743     1  0.0000000  0.6508444  3
    738    736    742    744     1  0.0000000  0.6508444  3
    742   1448   1442   1443     1  0.0000000  1.6038667  3
    742   1448   1442   1444     1  0.0000000  1.6038667  3
    743    742   1448   1442     1  0.0000000  1.6038667  3
    744    742   1448   1442     1  0.0000000  1.6038667  3
    745   1462   1456   1457     1  0.0000000  1.6038667  3
    745   1462   1456   1458     1  0.0000000  1.6038667  3
    746    745   1462   1456     1  0.0000000  1.6038667  3
    747    745   1462   1456     1  0.0000000  1.6038667  3
    750    751    763    764     1  0.0000000  0.6508444  3
    750    751    763    765     1  0.0000000  0.6508444  3
    750    754    766    767     1  0.0000000  0.6508444  3
    750    754    766    768     1  0.0000000  0.6508444  3
    750    757    760    761     1  0.0000000  0.6508444  3
    750    757    760    762     1  0.0000000  0.6508444  3
    751    750    754    755     1  0.0000000  0.6508444  3
    751    750    754    756     1  0.0000000  0.6508444  3
    751    750    757    758     1  0.0000000  0.6508444  3
    751    750    757    759     1  0.0000000  0.6508444  3
    751    763    775    776     1  0.0000000  0.6508444  3
    751    763    775    777     1  0.0000000  0.6508444  3
    752    751    750    754     1  0.0000000  0.6508444  3
    752    751    750    757     1  0.0000000  0.6508444  3
    752    751    750    779     1  0.0000000  0.6508444  3
    752    751    763    775     1  0.0000000  0.6508444  3
    752    751    763    764     1  0.0000000  0.6508444  3
    752    751    763    765     1  0.0000000  0.6508444  3
    753    751    750    754     1  0.0000000  0.6508444  3
    753    751    750    757     1  0.0000000  0.6508444  3
    753    751    750    779     1  0.0000000  0.6508444  3
    753    751    763    775     1  0.0000000  0.6508444  3
    753    751    763    764     1  0.0000000  0.6508444  3
    753    751    763    765     1  0.0000000  0.6508444  3
    754    750    757    758     1  0.0000000  0.6508444  3
    754    750    757    759     1  0.0000000  0.6508444  3
    754    766    772    773     1  0.0000000  0.6508444  3
    754    766    772    774     1  0.0000000  0.6508444  3
    755    754    750    757     1  0.0000000  0.6508444  3
    755    754    750    779     1  0.0000000  0.6508444  3
    755    754    766    772     1  0.0000000  0.6508444  3
    755    754    766    767     1  0.0000000  0.6508444  3
    755    754    766    768     1  0.0000000  0.6508444  3
    756    754    750    757     1  0.0000000  0.6508444  3
    756    754    750    779     1  0.0000000  0.6508444  3
    756    754    766    772     1  0.0000000  0.6508444  3
    756    754    766    767     1  0.0000000  0.6508444  3
    756    754    766    768     1  0.0000000  0.6508444  3
    757    760    769    770     1  0.0000000  0.6508444  3
    757    760    769    771     1  0.0000000  0.6508444  3
    758    757    750    779     1  0.0000000  0.6508444  3
    758    757    760    769     1  0.0000000  0.6508444  3
    758    757    760    761     1  0.0000000  0.6508444  3
    758    757    760    762     1  0.0000000  0.6508444  3
    759    757    750    779     1  0.0000000  0.6508444  3
    759    757    760    769     1  0.0000000  0.6508444  3
    759    757    760    761     1  0.0000000  0.6508444  3
    759    757    760    762     1  0.0000000  0.6508444  3
    760    757    750    779     1  0.0000000  0.6508444  3
    761    760    769    778     1  0.0000000  1.0460000  1
    761    760    769    778     1  0.0000000  0.0000000  3
    761    760    769    770     1  0.0000000  0.6508444  3
    761    760    769    771     1  0.0000000  0.6508444  3
    762    760    769    778     1  0.0000000  1.0460000  1
    762    760    769    778     1  0.0000000  0.0000000  3
    762    760    769    770     1  0.0000000  0.6508444  3
    762    760    769    771     1  0.0000000  0.6508444  3
    763    751    750    779     1  0.0000000  0.6508444  3
    764    763    775   1490     1  0.0000000  1.0460000  1
    764    763    775   1490     1  0.0000000  0.0000000  3
    764    763    775    776     1  0.0000000  0.6508444  3
    764    763    775    777     1  0.0000000  0.6508444  3
    765    763    775   1490     1  0.0000000  1.0460000  1
    765    763    775   1490     1  0.0000000  0.0000000  3
    765    763    775    776     1  0.0000000  0.6508444  3
    765    763    775    777     1  0.0000000  0.6508444  3
    766    754    750    779     1  0.0000000  0.6508444  3
    767    766    772   1476     1  0.0000000  1.0460000  1
    767    766    772   1476     1  0.0000000  0.0000000  3
    767    766    772    773     1  0.0000000  0.6508444  3
    767    766    772    774     1  0.0000000  0.6508444  3
    768    766    772   1476     1  0.0000000  1.0460000  1
    768    766    772   1476     1  0.0000000  0.0000000  3
    768    766    772    773     1  0.0000000  0.6508444  3
    768    766    772    774     1  0.0000000  0.6508444  3
    772   1476   1470   1471     1  0.0000000  1.6038667  3
    772   1476   1470   1472     1  0.0000000  1.6038667  3
    773    772   1476   1470     1  0.0000000  1.6038667  3
    774    772   1476   1470     1  0.0000000  1.6038667  3
    775   1490   1484   1485     1  0.0000000  1.6038667  3
    775   1490   1484   1486     1  0.0000000  1.6038667  3
    776    775   1490   1484     1  0.0000000  1.6038667  3
    777    775   1490   1484     1  0.0000000  1.6038667  3
    780    781    793    794     1  0.0000000  0.6508444  3
    780    781    793    795     1  0.0000000  0.6508444  3
    780    784    796    797     1  0.0000000  0.6508444  3
    780    784    796    798     1  0.0000000  0.6508444  3
    780    787    790    791     1  0.0000000  0.6508444  3
    780    787    790    792     1  0.0000000  0.6508444  3
    781    780    784    785     1  0.0000000  0.6508444  3
    781    780    784    786     1  0.0000000  0.6508444  3
    781    780    787    788     1  0.0000000  0.6508444  3
    781    780    787    789     1  0.0000000  0.6508444  3
    781    793    805    806     1  0.0000000  0.6508444  3
    781    793    805    807     1  0.0000000  0.6508444  3
    782    781    780    784     1  0.0000000  0.6508444  3
    782    781    780    787     1  0.0000000  0.6508444  3
    782    781    780    809     1  0.0000000  0.6508444  3
    782    781    793    805     1  0.0000000  0.6508444  3
    782    781    793    794     1  0.0000000  0.6508444  3
    782    781    793    795     1  0.0000000  0.6508444  3
    783    781    780    784     1  0.0000000  0.6508444  3
    783    781    780    787     1  0.0000000  0.6508444  3
    783    781    780    809     1  0.0000000  0.6508444  3
    783    781    793    805     1  0.0000000  0.6508444  3
    783    781    793    794     1  0.0000000  0.6508444  3
    783    781    793    795     1  0.0000000  0.6508444  3
    784    780    787    788     1  0.0000000  0.6508444  3
    784    780    787    789     1  0.0000000  0.6508444  3
    784    796    802    803     1  0.0000000  0.6508444  3
    784    796    802    804     1  0.0000000  0.6508444  3
    785    784    780    787     1  0.0000000  0.6508444  3
    785    784    780    809     1  0.0000000  0.6508444  3
    785    784    796    802     1  0.0000000  0.6508444  3
    785    784    796    797     1  0.0000000  0.6508444  3
    785    784    796    798     1  0.0000000  0.6508444  3
    786    784    780    787     1  0.0000000  0.6508444  3
    786    784    780    809     1  0.0000000  0.6508444  3
    786    784    796    802     1  0.0000000  0.6508444  3
    786    784    796    797     1  0.0000000  0.6508444  3
    786    784    796    798     1  0.0000000  0.6508444  3
    787    790    799    800     1  0.0000000  0.6508444  3
    787    790    799    801     1  0.0000000  0.6508444  3
    788    787    780    809     1  0.0000000  0.6508444  3
    788    787    790    799     1  0.0000000  0.6508444  3
    788    787    790    791     1  0.0000000  0.6508444  3
    788    787    790    792     1  0.0000000  0.6508444  3
    789    787    780    809     1  0.0000000  0.6508444  3
    789    787    790    799     1  0.0000000  0.6508444  3
    789    787    790    791     1  0.0000000  0.6508444  3
    789    787    790    792     1  0.0000000  0.6508444  3
    790    787    780    809     1  0.0000000  0.6508444  3
    791    790    799    808     1  0.0000000  1.0460000  1
    791    790    799    808     1  0.0000000  0.0000000  3
    791    790    799    800     1  0.0000000  0.6508444  3
    791    790    799    801     1  0.0000000  0.6508444  3
    792    790    799    808     1  0.0000000  1.0460000  1
    792    790    799    808     1  0.0000000  0.0000000  3
    792    790    799    800     1  0.0000000  0.6508444  3
    792    790    799    801     1  0.0000000  0.6508444  3
    793    781    780    809     1  0.0000000  0.6508444  3
    794    793    805   1518     1  0.0000000  1.0460000  1
    794    793    805   1518     1  0.0000000  0.0000000  3
    794    793    805    806     1  0.0000000  0.6508444  3
    794    793    805    807     1  0.0000000  0.6508444  3
    795    793    805   1518     1  0.0000000  1.0460000  1
    795    793    805   1518     1  0.0000000  0.0000000  3
    795    793    805    806     1  0.0000000  0.6508444  3
    795    793    805    807     1  0.0000000  0.6508444  3
    796    784    780    809     1  0.0000000  0.6508444  3
    797    796    802   1504     1  0.0000000  1.0460000  1
    797    796    802   1504     1  0.0000000  0.0000000  3
    797    796    802    803     1  0.0000000  0.6508444  3
    797    796    802    804     1  0.0000000  0.6508444  3
    798    796    802   1504     1  0.0000000  1.0460000  1
    798    796    802   1504     1  0.0000000  0.0000000  3
    798    796    802    803     1  0.0000000  0.6508444  3
    798    796    802    804     1  0.0000000  0.6508444  3
    802   1504   1498   1499     1  0.0000000  1.6038667  3
    802   1504   1498   1500     1  0.0000000  1.6038667  3
    803    802   1504   1498     1  0.0000000  1.6038667  3
    804    802   1504   1498     1  0.0000000  1.6038667  3
    805   1518   1512   1513     1  0.0000000  1.6038667  3
    805   1518   1512   1514     1  0.0000000  1.6038667  3
    806    805   1518   1512     1  0.0000000  1.6038667  3
    807    805   1518   1512     1  0.0000000  1.6038667  3
    810    811    823    824     1  0.0000000  0.6508444  3
    810    811    823    825     1  0.0000000  0.6508444  3
    810    814    826    827     1  0.0000000  0.6508444  3
    810    814    826    828     1  0.0000000  0.6508444  3
    810    817    820    821     1  0.0000000  0.6508444  3
    810    817    820    822     1  0.0000000  0.6508444  3
    811    810    814    815     1  0.0000000  0.6508444  3
    811    810    814    816     1  0.0000000  0.6508444  3
    811    810    817    818     1  0.0000000  0.6508444  3
    811    810    817    819     1  0.0000000  0.6508444  3
    811    823    835    836     1  0.0000000  0.6508444  3
    811    823    835    837     1  0.0000000  0.6508444  3
    812    811    810    814     1  0.0000000  0.6508444  3
    812    811    810    817     1  0.0000000  0.6508444  3
    812    811    810    839     1  0.0000000  0.6508444  3
    812    811    823    835     1  0.0000000  0.6508444  3
    812    811    823    824     1  0.0000000  0.6508444  3
    812    811    823    825     1  0.0000000  0.6508444  3
    813    811    810    814     1  0.0000000  0.6508444  3
    813    811    810    817     1  0.0000000  0.6508444  3
    813    811    810    839     1  0.0000000  0.6508444  3
    813    811    823    835     1  0.0000000  0.6508444  3
    813    811    823    824     1  0.0000000  0.6508444  3
    813    811    823    825     1  0.0000000  0.6508444  3
    814    810    817    818     1  0.0000000  0.6508444  3
    814    810    817    819     1  0.0000000  0.6508444  3
    814    826    832    833     1  0.0000000  0.6508444  3
    814    826    832    834     1  0.0000000  0.6508444  3
    815    814    810    817     1  0.0000000  0.6508444  3
    815    814    810    839     1  0.0000000  0.6508444  3
    815    814    826    832     1  0.0000000  0.6508444  3
    815    814    826    827     1  0.0000000  0.6508444  3
    815    814    826    828     1  0.0000000  0.6508444  3
    816    814    810    817     1  0.0000000  0.6508444  3
    816    814    810    839     1  0.0000000  0.6508444  3
    816    814    826    832     1  0.0000000  0.6508444  3
    816    814    826    827     1  0.0000000  0.6508444  3
    816    814    826    828     1  0.0000000  0.6508444  3
    817    820    829    830     1  0.0000000  0.6508444  3
    817    820    829    831     1  0.0000000  0.6508444  3
    818    817    810    839     1  0.0000000  0.6508444  3
    818    817    820    829     1  0.0000000  0.6508444  3
    818    817    820    821     1  0.0000000  0.6508444  3
    818    817    820    822     1  0.0000000  0.6508444  3
    819    817    810    839     1  0.0000000  0.6508444  3
    819    817    820    829     1  0.0000000  0.6508444  3
    819    817    820    821     1  0.0000000  0.6508444  3
    819    817    820    822     1  0.0000000  0.6508444  3
    820    817    810    839     1  0.0000000  0.6508444  3
    821    820    829    838     1  0.0000000  1.0460000  1
    821    820    829    838     1  0.0000000  0.0000000  3
    821    820    829    830     1  0.0000000  0.6508444  3
    821    820    829    831     1  0.0000000  0.6508444  3
    822    820    829    838     1  0.0000000  1.0460000  1
    822    820    829    838     1  0.0000000  0.0000000  3
    822    820    829    830     1  0.0000000  0.6508444  3
    822    820    829    831     1  0.0000000  0.6508444  3
    823    811    810    839     1  0.0000000  0.6508444  3
    824    823    835   1546     1  0.0000000  1.0460000  1
    824    823    835   1546     1  0.0000000  0.0000000  3
    824    823    835    836     1  0.0000000  0.6508444  3
    824    823    835    837     1  0.0000000  0.6508444  3
    825    823    835   1546     1  0.0000000  1.0460000  1
    825    823    835   1546     1  0.0000000  0.0000000  3
    825    823    835    836     1  0.0000000  0.6508444  3
    825    823    835    837     1  0.0000000  0.6508444  3
    826    814    810    839     1  0.0000000  0.6508444  3
    827    826    832   1532     1  0.0000000  1.0460000  1
    827    826    832   1532     1  0.0000000  0.0000000  3
    827    826    832    833     1  0.0000000  0.6508444  3
    827    826    832    834     1  0.0000000  0.6508444  3
    828    826    832   1532     1  0.0000000  1.0460000  1
    828    826    832   1532     1  0.0000000  0.0000000  3
    828    826    832    833     1  0.0000000  0.6508444  3
    828    826    832    834     1  0.0000000  0.6508444  3
    832   1532   1526   1527     1  0.0000000  1.6038667  3
    832   1532   1526   1528     1  0.0000000  1.6038667  3
    833    832   1532   1526     1  0.0000000  1.6038667  3
    834    832   1532   1526     1  0.0000000  1.6038667  3
    835   1546   1540   1541     1  0.0000000  1.6038667  3
    835   1546   1540   1542     1  0.0000000  1.6038667  3
    836    835   1546   1540     1  0.0000000  1.6038667  3
    837    835   1546   1540     1  0.0000000  1.6038667  3
    840    841    853    854     1  0.0000000  0.6508444  3
    840    841    853    855     1  0.0000000  0.6508444  3
    840    844    856    857     1  0.0000000  0.6508444  3
    840    844    856    858     1  0.0000000  0.6508444  3
    840    847    850    851     1  0.0000000  0.6508444  3
    840    847    850    852     1  0.0000000  0.6508444  3
    841    840    844    845     1  0.0000000  0.6508444  3
    841    840    844    846     1  0.0000000  0.6508444  3
    841    840    847    848     1  0.0000000  0.6508444  3
    841    840    847    849     1  0.0000000  0.6508444  3
    841    853    865    866     1  0.0000000  0.6508444  3
    841    853    865    867     1  0.0000000  0.6508444  3
    842    841    840    844     1  0.0000000  0.6508444  3
    842    841    840    847     1  0.0000000  0.6508444  3
    842    841    840    869     1  0.0000000  0.6508444  3
    842    841    853    865     1  0.0000000  0.6508444  3
    842    841    853    854     1  0.0000000  0.6508444  3
    842    841    853    855     1  0.0000000  0.6508444  3
    843    841    840    844     1  0.0000000  0.6508444  3
    843    841    840    847     1  0.0000000  0.6508444  3
    843    841    840    869     1  0.0000000  0.6508444  3
    843    841    853    865     1  0.0000000  0.6508444  3
    843    841    853    854     1  0.0000000  0.6508444  3
    843    841    853    855     1  0.0000000  0.6508444  3
    844    840    847    848     1  0.0000000  0.6508444  3
    844    840    847    849     1  0.0000000  0.6508444  3
    844    856    862    863     1  0.0000000  0.6508444  3
    844    856    862    864     1  0.0000000  0.6508444  3
    845    844    840    847     1  0.0000000  0.6508444  3
    845    844    840    869     1  0.0000000  0.6508444  3
    845    844    856    862     1  0.0000000  0.6508444  3
    845    844    856    857     1  0.0000000  0.6508444  3
    845    844    856    858     1  0.0000000  0.6508444  3
    846    844    840    847     1  0.0000000  0.6508444  3
    846    844    840    869     1  0.0000000  0.6508444  3
    846    844    856    862     1  0.0000000  0.6508444  3
    846    844    856    857     1  0.0000000  0.6508444  3
    846    844    856    858     1  0.0000000  0.6508444  3
    847    850    859    860     1  0.0000000  0.6508444  3
    847    850    859    861     1  0.0000000  0.6508444  3
    848    847    840    869     1  0.0000000  0.6508444  3
    848    847    850    859     1  0.0000000  0.6508444  3
    848    847    850    851     1  0.0000000  0.6508444  3
    848    847    850    852     1  0.0000000  0.6508444  3
    849    847    840    869     1  0.0000000  0.6508444  3
    849    847    850    859     1  0.0000000  0.6508444  3
    849    847    850    851     1  0.0000000  0.6508444  3
    849    847    850    852     1  0.0000000  0.6508444  3
    850    847    840    869     1  0.0000000  0.6508444  3
    851    850    859    868     1  0.0000000  1.0460000  1
    851    850    859    868     1  0.0000000  0.0000000  3
    851    850    859    860     1  0.0000000  0.6508444  3
    851    850    859    861     1  0.0000000  0.6508444  3
    852    850    859    868     1  0.0000000  1.0460000  1
    852    850    859    868     1  0.0000000  0.0000000  3
    852    850    859    860     1  0.0000000  0.6508444  3
    852    850    859    861     1  0.0000000  0.6508444  3
    853    841    840    869     1  0.0000000  0.6508444  3
    854    853    865   1574     1  0.0000000  1.0460000  1
    854    853    865   1574     1  0.0000000  0.0000000  3
    854    853    865    866     1  0.0000000  0.6508444  3
    854    853    865    867     1  0.0000000  0.6508444  3
    855    853    865   1574     1  0.0000000  1.0460000  1
    855    853    865   1574     1  0.0000000  0.0000000  3
    855    853    865    866     1  0.0000000  0.6508444  3
    855    853    865    867     1  0.0000000  0.6508444  3
    856    844    840    869     1  0.0000000  0.6508444  3
    857    856    862   1560     1  0.0000000  1.0460000  1
    857    856    862   1560     1  0.0000000  0.0000000  3
    857    856    862    863     1  0.0000000  0.6508444  3
    857    856    862    864     1  0.0000000  0.6508444  3
    858    856    862   1560     1  0.0000000  1.0460000  1
    858    856    862   1560     1  0.0000000  0.0000000  3
    858    856    862    863     1  0.0000000  0.6508444  3
    858    856    862    864     1  0.0000000  0.6508444  3
    862   1560   1554   1555     1  0.0000000  1.6038667  3
    862   1560   1554   1556     1  0.0000000  1.6038667  3
    863    862   1560   1554     1  0.0000000  1.6038667  3
    864    862   1560   1554     1  0.0000000  1.6038667  3
    865   1574   1568   1569     1  0.0000000  1.6038667  3
    865   1574   1568   1570     1  0.0000000  1.6038667  3
    866    865   1574   1568     1  0.0000000  1.6038667  3
    867    865   1574   1568     1  0.0000000  1.6038667  3
    870    871    883    884     1  0.0000000  0.6508444  3
    870    871    883    885     1  0.0000000  0.6508444  3
    870    874    886    887     1  0.0000000  0.6508444  3
    870    874    886    888     1  0.0000000  0.6508444  3
    870    877    880    881     1  0.0000000  0.6508444  3
    870    877    880    882     1  0.0000000  0.6508444  3
    871    870    874    875     1  0.0000000  0.6508444  3
    871    870    874    876     1  0.0000000  0.6508444  3
    871    870    877    878     1  0.0000000  0.6508444  3
    871    870    877    879     1  0.0000000  0.6508444  3
    871    883    895    896     1  0.0000000  0.6508444  3
    871    883    895    897     1  0.0000000  0.6508444  3
    872    871    870    874     1  0.0000000  0.6508444  3
    872    871    870    877     1  0.0000000  0.6508444  3
    872    871    870    899     1  0.0000000  0.6508444  3
    872    871    883    895     1  0.0000000  0.6508444  3
    872    871    883    884     1  0.0000000  0.6508444  3
    872    871    883    885     1  0.0000000  0.6508444  3
    873    871    870    874     1  0.0000000  0.6508444  3
    873    871    870    877     1  0.0000000  0.6508444  3
    873    871    870    899     1  0.0000000  0.6508444  3
    873    871    883    895     1  0.0000000  0.6508444  3
    873    871    883    884     1  0.0000000  0.6508444  3
    873    871    883    885     1  0.0000000  0.6508444  3
    874    870    877    878     1  0.0000000  0.6508444  3
    874    870    877    879     1  0.0000000  0.6508444  3
    874    886    892    893     1  0.0000000  0.6508444  3
    874    886    892    894     1  0.0000000  0.6508444  3
    875    874    870    877     1  0.0000000  0.6508444  3
    875    874    870    899     1  0.0000000  0.6508444  3
    875    874    886    892     1  0.0000000  0.6508444  3
    875    874    886    887     1  0.0000000  0.6508444  3
    875    874    886    888     1  0.0000000  0.6508444  3
    876    874    870    877     1  0.0000000  0.6508444  3
    876    874    870    899     1  0.0000000  0.6508444  3
    876    874    886    892     1  0.0000000  0.6508444  3
    876    874    886    887     1  0.0000000  0.6508444  3
    876    874    886    888     1  0.0000000  0.6508444  3
    877    880    889    890     1  0.0000000  0.6508444  3
    877    880    889    891     1  0.0000000  0.6508444  3
    878    877    870    899     1  0.0000000  0.6508444  3
    878    877    880    889     1  0.0000000  0.6508444  3
    878    877    880    881     1  0.0000000  0.6508444  3
    878    877    880    882     1  0.0000000  0.6508444  3
    879    877    870    899     1  0.0000000  0.6508444  3
    879    877    880    889     1  0.0000000  0.6508444  3
    879    877    880    881     1  0.0000000  0.6508444  3
    879    877    880    882     1  0.0000000  0.6508444  3
    880    877    870    899     1  0.0000000  0.6508444  3
    881    880    889    898     1  0.0000000  1.0460000  1
    881    880    889    898     1  0.0000000  0.0000000  3
    881    880    889    890     1  0.0000000  0.6508444  3
    881    880    889    891     1  0.0000000  0.6508444  3
    882    880    889    898     1  0.0000000  1.0460000  1
    882    880    889    898     1  0.0000000  0.0000000  3
    882    880    889    890     1  0.0000000  0.6508444  3
    882    880    889    891     1  0.0000000  0.6508444  3
    883    871    870    899     1  0.0000000  0.6508444  3
    884    883    895   1602     1  0.0000000  1.0460000  1
    884    883    895   1602     1  0.0000000  0.0000000  3
    884    883    895    896     1  0.0000000  0.6508444  3
    884    883    895    897     1  0.0000000  0.6508444  3
    885    883    895   1602     1  0.0000000  1.0460000  1
    885    883    895   1602     1  0.0000000  0.0000000  3
    885    883    895    896     1  0.0000000  0.6508444  3
    885    883    895    897     1  0.0000000  0.6508444  3
    886    874    870    899     1  0.0000000  0.6508444  3
    887    886    892   1588     1  0.0000000  1.0460000  1
    887    886    892   1588     1  0.0000000  0.0000000  3
    887    886    892    893     1  0.0000000  0.6508444  3
    887    886    892    894     1  0.0000000  0.6508444  3
    888    886    892   1588     1  0.0000000  1.0460000  1
    888    886    892   1588     1  0.0000000  0.0000000  3
    888    886    892    893     1  0.0000000  0.6508444  3
    888    886    892    894     1  0.0000000  0.6508444  3
    892   1588   1582   1583     1  0.0000000  1.6038667  3
    892   1588   1582   1584     1  0.0000000  1.6038667  3
    893    892   1588   1582     1  0.0000000  1.6038667  3
    894    892   1588   1582     1  0.0000000  1.6038667  3
    895   1602   1596   1597     1  0.0000000  1.6038667  3
    895   1602   1596   1598     1  0.0000000  1.6038667  3
    896    895   1602   1596     1  0.0000000  1.6038667  3
    897    895   1602   1596     1  0.0000000  1.6038667  3
    900    901    913    914     1  0.0000000  0.6508444  3
    900    901    913    915     1  0.0000000  0.6508444  3
    900    904    916    917     1  0.0000000  0.6508444  3
    900    904    916    918     1  0.0000000  0.6508444  3
    900    907    910    911     1  0.0000000  0.6508444  3
    900    907    910    912     1  0.0000000  0.6508444  3
    901    900    904    905     1  0.0000000  0.6508444  3
    901    900    904    906     1  0.0000000  0.6508444  3
    901    900    907    908     1  0.0000000  0.6508444  3
    901    900    907    909     1  0.0000000  0.6508444  3
    901    913    925    926     1  0.0000000  0.6508444  3
    901    913    925    927     1  0.0000000  0.6508444  3
    902    901    900    904     1  0.0000000  0.6508444  3
    902    901    900    907     1  0.0000000  0.6508444  3
    902    901    900    929     1  0.0000000  0.6508444  3
    902    901    913    925     1  0.0000000  0.6508444  3
    902    901    913    914     1  0.0000000  0.6508444  3
    902    901    913    915     1  0.0000000  0.6508444  3
    903    901    900    904     1  0.0000000  0.6508444  3
    903    901    900    907     1  0.0000000  0.6508444  3
    903    901    900    929     1  0.0000000  0.6508444  3
    903    901    913    925     1  0.0000000  0.6508444  3
    903    901    913    914     1  0.0000000  0.6508444  3
    903    901    913    915     1  0.0000000  0.6508444  3
    904    900    907    908     1  0.0000000  0.6508444  3
    904    900    907    909     1  0.0000000  0.6508444  3
    904    916    922    923     1  0.0000000  0.6508444  3
    904    916    922    924     1  0.0000000  0.6508444  3
    905    904    900    907     1  0.0000000  0.6508444  3
    905    904    900    929     1  0.0000000  0.6508444  3
    905    904    916    922     1  0.0000000  0.6508444  3
    905    904    916    917     1  0.0000000  0.6508444  3
    905    904    916    918     1  0.0000000  0.6508444  3
    906    904    900    907     1  0.0000000  0.6508444  3
    906    904    900    929     1  0.0000000  0.6508444  3
    906    904    916    922     1  0.0000000  0.6508444  3
    906    904    916    917     1  0.0000000  0.6508444  3
    906    904    916    918     1  0.0000000  0.6508444  3
    907    910    919    920     1  0.0000000  0.6508444  3
    907    910    919    921     1  0.0000000  0.6508444  3
    908    907    900    929     1  0.0000000  0.6508444  3
    908    907    910    919     1  0.0000000  0.6508444  3
    908    907    910    911     1  0.0000000  0.6508444  3
    908    907    910    912     1  0.0000000  0.6508444  3
    909    907    900    929     1  0.0000000  0.6508444  3
    909    907    910    919     1  0.0000000  0.6508444  3
    909    907    910    911     1  0.0000000  0.6508444  3
    909    907    910    912     1  0.0000000  0.6508444  3
    910    907    900    929     1  0.0000000  0.6508444  3
    911    910    919    928     1  0.0000000  1.0460000  1
    911    910    919    928     1  0.0000000  0.0000000  3
    911    910    919    920     1  0.0000000  0.6508444  3
    911    910    919    921     1  0.0000000  0.6508444  3
    912    910    919    928     1  0.0000000  1.0460000  1
    912    910    919    928     1  0.0000000  0.0000000  3
    912    910    919    920     1  0.0000000  0.6508444  3
    912    910    919    921     1  0.0000000  0.6508444  3
    913    901    900    929     1  0.0000000  0.6508444  3
    914    913    925   1630     1  0.0000000  1.0460000  1
    914    913    925   1630     1  0.0000000  0.0000000  3
    914    913    925    926     1  0.0000000  0.6508444  3
    914    913    925    927     1  0.0000000  0.6508444  3
    915    913    925   1630     1  0.0000000  1.0460000  1
    915    913    925   1630     1  0.0000000  0.0000000  3
    915    913    925    926     1  0.0000000  0.6508444  3
    915    913    925    927     1  0.0000000  0.6508444  3
    916    904    900    929     1  0.0000000  0.6508444  3
    917    916    922   1616     1  0.0000000  1.0460000  1
    917    916    922   1616     1  0.0000000  0.0000000  3
    917    916    922    923     1  0.0000000  0.6508444  3
    917    916    922    924     1  0.0000000  0.6508444  3
    918    916    922   1616     1  0.0000000  1.0460000  1
    918    916    922   1616     1  0.0000000  0.0000000  3
    918    916    922    923     1  0.0000000  0.6508444  3
    918    916    922    924     1  0.0000000  0.6508444  3
    922   1616   1610   1611     1  0.0000000  1.6038667  3
    922   1616   1610   1612     1  0.0000000  1.6038667  3
    923    922   1616   1610     1  0.0000000  1.6038667  3
    924    922   1616   1610     1  0.0000000  1.6038667  3
    925   1630   1624   1625     1  0.0000000  1.6038667  3
    925   1630   1624   1626     1  0.0000000  1.6038667  3
    926    925   1630   1624     1  0.0000000  1.6038667  3
    927    925   1630   1624     1  0.0000000  1.6038667  3
    930    931    943    944     1  0.0000000  0.6508444  3
    930    931    943    945     1  0.0000000  0.6508444  3
    930    934    946    947     1  0.0000000  0.6508444  3
    930    934    946    948     1  0.0000000  0.6508444  3
    930    937    940    941     1  0.0000000  0.6508444  3
    930    937    940    942     1  0.0000000  0.6508444  3
    931    930    934    935     1  0.0000000  0.6508444  3
    931    930    934    936     1  0.0000000  0.6508444  3
    931    930    937    938     1  0.0000000  0.6508444  3
    931    930    937    939     1  0.0000000  0.6508444  3
    931    943    955    956     1  0.0000000  0.6508444  3
    931    943    955    957     1  0.0000000  0.6508444  3
    932    931    930    934     1  0.0000000  0.6508444  3
    932    931    930    937     1  0.0000000  0.6508444  3
    932    931    930    959     1  0.0000000  0.6508444  3
    932    931    943    955     1  0.0000000  0.6508444  3
    932    931    943    944     1  0.0000000  0.6508444  3
    932    931    943    945     1  0.0000000  0.6508444  3
    933    931    930    934     1  0.0000000  0.6508444  3
    933    931    930    937     1  0.0000000  0.6508444  3
    933    931    930    959     1  0.0000000  0.6508444  3
    933    931    943    955     1  0.0000000  0.6508444  3
    933    931    943    944     1  0.0000000  0.6508444  3
    933    931    943    945     1  0.0000000  0.6508444  3
    934    930    937    938     1  0.0000000  0.6508444  3
    934    930    937    939     1  0.0000000  0.6508444  3
    934    946    952    953     1  0.0000000  0.6508444  3
    934    946    952    954     1  0.0000000  0.6508444  3
    935    934    930    937     1  0.0000000  0.6508444  3
    935    934    930    959     1  0.0000000  0.6508444  3
    935    934    946    952     1  0.0000000  0.6508444  3
    935    934    946    947     1  0.0000000  0.6508444  3
    935    934    946    948     1  0.0000000  0.6508444  3
    936    934    930    937     1  0.0000000  0.6508444  3
    936    934    930    959     1  0.0000000  0.6508444  3
    936    934    946    952     1  0.0000000  0.6508444  3
    936    934    946    947     1  0.0000000  0.6508444  3
    936    934    946    948     1  0.0000000  0.6508444  3
    937    940    949    950     1  0.0000000  0.6508444  3
    937    940    949    951     1  0.0000000  0.6508444  3
    938    937    930    959     1  0.0000000  0.6508444  3
    938    937    940    949     1  0.0000000  0.6508444  3
    938    937    940    941     1  0.0000000  0.6508444  3
    938    937    940    942     1  0.0000000  0.6508444  3
    939    937    930    959     1  0.0000000  0.6508444  3
    939    937    940    949     1  0.0000000  0.6508444  3
    939    937    940    941     1  0.0000000  0.6508444  3
    939    937    940    942     1  0.0000000  0.6508444  3
    940    937    930    959     1  0.0000000  0.6508444  3
    941    940    949    958     1  0.0000000  1.0460000  1
    941    940    949    958     1  0.0000000  0.0000000  3
    941    940    949    950     1  0.0000000  0.6508444  3
    941    940    949    951     1  0.0000000  0.6508444  3
    942    940    949    958     1  0.0000000  1.0460000  1
    942    940    949    958     1  0.0000000  0.0000000  3
    942    940    949    950     1  0.0000000  0.6508444  3
    942    940    949    951     1  0.0000000  0.6508444  3
    943    931    930    959     1  0.0000000  0.6508444  3
    944    943    955   1658     1  0.0000000  1.0460000  1
    944    943    955   1658     1  0.0000000  0.0000000  3
    944    943    955    956     1  0.0000000  0.6508444  3
    944    943    955    957     1  0.0000000  0.6508444  3
    945    943    955   1658     1  0.0000000  1.0460000  1
    945    943    955   1658     1  0.0000000  0.0000000  3
    945    943    955    956     1  0.0000000  0.6508444  3
    945    943    955    957     1  0.0000000  0.6508444  3
    946    934    930    959     1  0.0000000  0.6508444  3
    947    946    952   1644     1  0.0000000  1.0460000  1
    947    946    952   1644     1  0.0000000  0.0000000  3
    947    946    952    953     1  0.0000000  0.6508444  3
    947    946    952    954     1  0.0000000  0.6508444  3
    948    946    952   1644     1  0.0000000  1.0460000  1
    948    946    952   1644     1  0.0000000  0.0000000  3
    948    946    952    953     1  0.0000000  0.6508444  3
    948    946    952    954     1  0.0000000  0.6508444  3
    952   1644   1638   1639     1  0.0000000  1.6038667  3
    952   1644   1638   1640     1  0.0000000  1.6038667  3
    953    952   1644   1638     1  0.0000000  1.6038667  3
    954    952   1644   1638     1  0.0000000  1.6038667  3
    955   1658   1652   1653     1  0.0000000  1.6038667  3
    955   1658   1652   1654     1  0.0000000  1.6038667  3
    956    955   1658   1652     1  0.0000000  1.6038667  3
    957    955   1658   1652     1  0.0000000  1.6038667  3
    960    961    973    974     1  0.0000000  0.6508444  3
    960    961    973    975     1  0.0000000  0.6508444  3
    960    964    976    977     1  0.0000000  0.6508444  3
    960    964    976    978     1  0.0000000  0.6508444  3
    960    967    970    971     1  0.0000000  0.6508444  3
    960    967    970    972     1  0.0000000  0.6508444  3
    961    960    964    965     1  0.0000000  0.6508444  3
    961    960    964    966     1  0.0000000  0.6508444  3
    961    960    967    968     1  0.0000000  0.6508444  3
    961    960    967    969     1  0.0000000  0.6508444  3
    961    973    985    986     1  0.0000000  0.6508444  3
    961    973    985    987     1  0.0000000  0.6508444  3
    962    961    960    964     1  0.0000000  0.6508444  3
    962    961    960    967     1  0.0000000  0.6508444  3
    962    961    960    989     1  0.0000000  0.6508444  3
    962    961    973    985     1  0.0000000  0.6508444  3
    962    961    973    974     1  0.0000000  0.6508444  3
    962    961    973    975     1  0.0000000  0.6508444  3
    963    961    960    964     1  0.0000000  0.6508444  3
    963    961    960    967     1  0.0000000  0.6508444  3
    963    961    960    989     1  0.0000000  0.6508444  3
    963    961    973    985     1  0.0000000  0.6508444  3
    963    961    973    974     1  0.0000000  0.6508444  3
    963    961    973    975     1  0.0000000  0.6508444  3
    964    960    967    968     1  0.0000000  0.6508444  3
    964    960    967    969     1  0.0000000  0.6508444  3
    964    976    982    983     1  0.0000000  0.6508444  3
    964    976    982    984     1  0.0000000  0.6508444  3
    965    964    960    967     1  0.0000000  0.6508444  3
    965    964    960    989     1  0.0000000  0.6508444  3
    965    964    976    982     1  0.0000000  0.6508444  3
    965    964    976    977     1  0.0000000  0.6508444  3
    965    964    976    978     1  0.0000000  0.6508444  3
    966    964    960    967     1  0.0000000  0.6508444  3
    966    964    960    989     1  0.0000000  0.6508444  3
    966    964    976    982     1  0.0000000  0.6508444  3
    966    964    976    977     1  0.0000000  0.6508444  3
    966    964    976    978     1  0.0000000  0.6508444  3
    967    970    979    980     1  0.0000000  0.6508444  3
    967    970    979    981     1  0.0000000  0.6508444  3
    968    967    960    989     1  0.0000000  0.6508444  3
    968    967    970    979     1  0.0000000  0.6508444  3
    968    967    970    971     1  0.0000000  0.6508444  3
    968    967    970    972     1  0.0000000  0.6508444  3
    969    967    960    989     1  0.0000000  0.6508444  3
    969    967    970    979     1  0.0000000  0.6508444  3
    969    967    970    971     1  0.0000000  0.6508444  3
    969    967    970    972     1  0.0000000  0.6508444  3
    970    967    960    989     1  0.0000000  0.6508444  3
    971    970    979    988     1  0.0000000  1.0460000  1
    971    970    979    988     1  0.0000000  0.0000000  3
    971    970    979    980     1  0.0000000  0.6508444  3
    971    970    979    981     1  0.0000000  0.6508444  3
    972    970    979    988     1  0.0000000  1.0460000  1
    972    970    979    988     1  0.0000000  0.0000000  3
    972    970    979    980     1  0.0000000  0.6508444  3
    972    970    979    981     1  0.0000000  0.6508444  3
    973    961    960    989     1  0.0000000  0.6508444  3
    974    973    985   1686     1  0.0000000  1.0460000  1
    974    973    985   1686     1  0.0000000  0.0000000  3
    974    973    985    986     1  0.0000000  0.6508444  3
    974    973    985    987     1  0.0000000  0.6508444  3
    975    973    985   1686     1  0.0000000  1.0460000  1
    975    973    985   1686     1  0.0000000  0.0000000  3
    975    973    985    986     1  0.0000000  0.6508444  3
    975    973    985    987     1  0.0000000  0.6508444  3
    976    964    960    989     1  0.0000000  0.6508444  3
    977    976    982   1672     1  0.0000000  1.0460000  1
    977    976    982   1672     1  0.0000000  0.0000000  3
    977    976    982    983     1  0.0000000  0.6508444  3
    977    976    982    984     1  0.0000000  0.6508444  3
    978    976    982   1672     1  0.0000000  1.0460000  1
    978    976    982   1672     1  0.0000000  0.0000000  3
    978    976    982    983     1  0.0000000  0.6508444  3
    978    976    982    984     1  0.0000000  0.6508444  3
    982   1672   1666   1667     1  0.0000000  1.6038667  3
    982   1672   1666   1668     1  0.0000000  1.6038667  3
    983    982   1672   1666     1  0.0000000  1.6038667  3
    984    982   1672   1666     1  0.0000000  1.6038667  3
    985   1686   1680   1681     1  0.0000000  1.6038667  3
    985   1686   1680   1682     1  0.0000000  1.6038667  3
    986    985   1686   1680     1  0.0000000  1.6038667  3
    987    985   1686   1680     1  0.0000000  1.6038667  3
    990    991   1003   1004     1  0.0000000  0.6508444  3
    990    991   1003   1005     1  0.0000000  0.6508444  3
    990    994   1006   1007     1  0.0000000  0.6508444  3
    990    994   1006   1008     1  0.0000000  0.6508444  3
    990    997   1000   1001     1  0.0000000  0.6508444  3
    990    997   1000   1002     1  0.0000000  0.6508444  3
    991    990    994    995     1  0.0000000  0.6508444  3
    991    990    994    996     1  0.0000000  0.6508444  3
    991    990    997    998     1  0.0000000  0.6508444  3
    991    990    997    999     1  0.0000000  0.6508444  3
    991   1003   1015   1016     1  0.0000000  0.6508444  3
    991   1003   1015   1017     1  0.0000000  0.6508444  3
    992    991    990    994     1  0.0000000  0.6508444  3
    992    991    990    997     1  0.0000000  0.6508444  3
    992    991    990   1019     1  0.0000000  0.6508444  3
    992    991   1003   1015     1  0.0000000  0.6508444  3
    992    991   1003   1004     1  0.0000000  0.6508444  3
    992    991   1003   1005     1  0.0000000  0.6508444  3
    993    991    990    994     1  0.0000000  0.6508444  3
    993    991    990    997     1  0.0000000  0.6508444  3
    993    991    990   1019     1  0.0000000  0.6508444  3
    993    991   1003   1015     1  0.0000000  0.6508444  3
    993    991   1003   1004     1  0.0000000  0.6508444  3
    993    991   1003   1005     1  0.0000000  0.6508444  3
    994    990    997    998     1  0.0000000  0.6508444  3
    994    990    997    999     1  0.0000000  0.6508444  3
    994   1006   1012   1013     1  0.0000000  0.6508444  3
    994   1006   1012   1014     1  0.0000000  0.6508444  3
    995    994    990    997     1  0.0000000  0.6508444  3
    995    994    990   1019     1  0.0000000  0.6508444  3
    995    994   1006   1012     1  0.0000000  0.6508444  3
    995    994   1006   1007     1  0.0000000  0.6508444  3
    995    994   1006   1008     1  0.0000000  0.6508444  3
    996    994    990    997     1  0.0000000  0.6508444  3
    996    994    990   1019     1  0.0000000  0.6508444  3
    996    994   1006   1012     1  0.0000000  0.6508444  3
    996    994   1006   1007     1  0.0000000  0.6508444  3
    996    994   1006   1008     1  0.0000000  0.6508444  3
    997   1000   1009   1010     1  0.0000000  0.6508444  3
    997   1000   1009   1011     1  0.0000000  0.6508444  3
    998    997    990   1019     1  0.0000000  0.6508444  3
    998    997   1000   1009     1  0.0000000  0.6508444  3
    998    997   1000   1001     1  0.0000000  0.6508444  3
    998    997   1000   1002     1  0.0000000  0.6508444  3
    999    997    990   1019     1  0.0000000  0.6508444  3
    999    997   1000   1009     1  0.0000000  0.6508444  3
    999    997   1000   1001     1  0.0000000  0.6508444  3
    999    997   1000   1002     1  0.0000000  0.6508444  3
   1000    997    990   1019     1  0.0000000  0.6508444  3
   1001   1000   1009   1018     1  0.0000000  1.0460000  1
   1001   1000   1009   1018     1  0.0000000  0.0000000  3
   1001   1000   1009   1010     1  0.0000000  0.6508444  3
   1001   1000   1009   1011     1  0.0000000  0.6508444  3
   1002   1000   1009   1018     1  0.0000000  1.0460000  1
   1002   1000   1009   1018     1  0.0000000  0.0000000  3
   1002   1000   1009   1010     1  0.0000000  0.6508444  3
   1002   1000   1009   1011     1  0.0000000  0.6508444  3
   1003    991    990   1019     1  0.0000000  0.6508444  3
   1004   1003   1015   1714     1  0.0000000  1.0460000  1
   1004   1003   1015   1714     1  0.0000000  0.0000000  3
   1004   1003   1015   1016     1  0.0000000  0.6508444  3
   1004   1003   1015   1017     1  0.0000000  0.6508444  3
   1005   1003   1015   1714     1  0.0000000  1.0460000  1
   1005   1003   1015   1714     1  0.0000000  0.0000000  3
   1005   1003   1015   1016     1  0.0000000  0.6508444  3
   1005   1003   1015   1017     1  0.0000000  0.6508444  3
   1006    994    990   1019     1  0.0000000  0.6508444  3
   1007   1006   1012   1700     1  0.0000000  1.0460000  1
   1007   1006   1012   1700     1  0.0000000  0.0000000  3
   1007   1006   1012   1013     1  0.0000000  0.6508444  3
   1007   1006   1012   1014     1  0.0000000  0.6508444  3
   1008   1006   1012   1700     1  0.0000000  1.0460000  1
   1008   1006   1012   1700     1  0.0000000  0.0000000  3
   1008   1006   1012   1013     1  0.0000000  0.6508444  3
   1008   1006   1012   1014     1  0.0000000  0.6508444  3
   1012   1700   1694   1695     1  0.0000000  1.6038667  3
   1012   1700   1694   1696     1  0.0000000  1.6038667  3
   1013   1012   1700   1694     1  0.0000000  1.6038667  3
   1014   1012   1700   1694     1  0.0000000  1.6038667  3
   1015   1714   1708   1709     1  0.0000000  1.6038667  3
   1015   1714   1708   1710     1  0.0000000  1.6038667  3
   1016   1015   1714   1708     1  0.0000000  1.6038667  3
   1017   1015   1714   1708     1  0.0000000  1.6038667  3
   1020   1021   1033   1034     1  0.0000000  0.6508444  3
   1020   1021   1033   1035     1  0.0000000  0.6508444  3
   1020   1024   1036   1037     1  0.0000000  0.6508444  3
   1020   1024   1036   1038     1  0.0000000  0.6508444  3
   1020   1027   1030   1031     1  0.0000000  0.6508444  3
   1020   1027   1030   1032     1  0.0000000  0.6508444  3
   1021   1020   1024   1025     1  0.0000000  0.6508444  3
   1021   1020   1024   1026     1  0.0000000  0.6508444  3
   1021   1020   1027   1028     1  0.0000000  0.6508444  3
   1021   1020   1027   1029     1  0.0000000  0.6508444  3
   1021   1033   1045   1046     1  0.0000000  0.6508444  3
   1021   1033   1045   1047     1  0.0000000  0.6508444  3
   1022   1021   1020   1024     1  0.0000000  0.6508444  3
   1022   1021   1020   1027     1  0.0000000  0.6508444  3
   1022   1021   1020   1049     1  0.0000000  0.6508444  3
   1022   1021   1033   1045     1  0.0000000  0.6508444  3
   1022   1021   1033   1034     1  0.0000000  0.6508444  3
   1022   1021   1033   1035     1  0.0000000  0.6508444  3
   1023   1021   1020   1024     1  0.0000000  0.6508444  3
   1023   1021   1020   1027     1  0.0000000  0.6508444  3
   1023   1021   1020   1049     1  0.0000000  0.6508444  3
   1023   1021   1033   1045     1  0.0000000  0.6508444  3
   1023   1021   1033   1034     1  0.0000000  0.6508444  3
   1023   1021   1033   1035     1  0.0000000  0.6508444  3
   1024   1020   1027   1028     1  0.0000000  0.6508444  3
   1024   1020   1027   1029     1  0.0000000  0.6508444  3
   1024   1036   1042   1043     1  0.0000000  0.6508444  3
   1024   1036   1042   1044     1  0.0000000  0.6508444  3
   1025   1024   1020   1027     1  0.0000000  0.6508444  3
   1025   1024   1020   1049     1  0.0000000  0.6508444  3
   1025   1024   1036   1042     1  0.0000000  0.6508444  3
   1025   1024   1036   1037     1  0.0000000  0.6508444  3
   1025   1024   1036   1038     1  0.0000000  0.6508444  3
   1026   1024   1020   1027     1  0.0000000  0.6508444  3
   1026   1024   1020   1049     1  0.0000000  0.6508444  3
   1026   1024   1036   1042     1  0.0000000  0.6508444  3
   1026   1024   1036   1037     1  0.0000000  0.6508444  3
   1026   1024   1036   1038     1  0.0000000  0.6508444  3
   1027   1030   1039   1040     1  0.0000000  0.6508444  3
   1027   1030   1039   1041     1  0.0000000  0.6508444  3
   1028   1027   1020   1049     1  0.0000000  0.6508444  3
   1028   1027   1030   1039     1  0.0000000  0.6508444  3
   1028   1027   1030   1031     1  0.0000000  0.6508444  3
   1028   1027   1030   1032     1  0.0000000  0.6508444  3
   1029   1027   1020   1049     1  0.0000000  0.6508444  3
   1029   1027   1030   1039     1  0.0000000  0.6508444  3
   1029   1027   1030   1031     1  0.0000000  0.6508444  3
   1029   1027   1030   1032     1  0.0000000  0.6508444  3
   1030   1027   1020   1049     1  0.0000000  0.6508444  3
   1031   1030   1039   1048     1  0.0000000  1.0460000  1
   1031   1030   1039   1048     1  0.0000000  0.0000000  3
   1031   1030   1039   1040     1  0.0000000  0.6508444  3
   1031   1030   1039   1041     1  0.0000000  0.6508444  3
   1032   1030   1039   1048     1  0.0000000  1.0460000  1
   1032   1030   1039   1048     1  0.0000000  0.0000000  3
   1032   1030   1039   1040     1  0.0000000  0.6508444  3
   1032   1030   1039   1041     1  0.0000000  0.6508444  3
   1033   1021   1020   1049     1  0.0000000  0.6508444  3
   1034   1033   1045   1742     1  0.0000000  1.0460000  1
   1034   1033   1045   1742     1  0.0000000  0.0000000  3
   1034   1033   1045   1046     1  0.0000000  0.6508444  3
   1034   1033   1045   1047     1  0.0000000  0.6508444  3
   1035   1033   1045   1742     1  0.0000000  1.0460000  1
   1035   1033   1045   1742     1  0.0000000  0.0000000  3
   1035   1033   1045   1046     1  0.0000000  0.6508444  3
   1035   1033   1045   1047     1  0.0000000  0.6508444  3
   1036   1024   1020   1049     1  0.0000000  0.6508444  3
   1037   1036   1042   1728     1  0.0000000  1.0460000  1
   1037   1036   1042   1728     1  0.0000000  0.0000000  3
   1037   1036   1042   1043     1  0.0000000  0.6508444  3
   1037   1036   1042   1044     1  0.0000000  0.6508444  3
   1038   1036   1042   1728     1  0.0000000  1.0460000  1
   1038   1036   1042   1728     1  0.0000000  0.0000000  3
   1038   1036   1042   1043     1  0.0000000  0.6508444  3
   1038   1036   1042   1044     1  0.0000000  0.6508444  3
   1042   1728   1722   1723     1  0.0000000  1.6038667  3
   1042   1728   1722   1724     1  0.0000000  1.6038667  3
   1043   1042   1728   1722     1  0.0000000  1.6038667  3
   1044   1042   1728   1722     1  0.0000000  1.6038667  3
   1045   1742   1736   1737     1  0.0000000  1.6038667  3
   1045   1742   1736   1738     1  0.0000000  1.6038667  3
   1046   1045   1742   1736     1  0.0000000  1.6038667  3
   1047   1045   1742   1736     1  0.0000000  1.6038667  3
   1050   1051   1063   1064     1  0.0000000  0.6508444  3
   1050   1051   1063   1065     1  0.0000000  0.6508444  3
   1050   1054   1066   1067     1  0.0000000  0.6508444  3
   1050   1054   1066   1068     1  0.0000000  0.6508444  3
   1050   1057   1060   1061     1  0.0000000  0.6508444  3
   1050   1057   1060   1062     1  0.0000000  0.6508444  3
   1051   1050   1054   1055     1  0.0000000  0.6508444  3
   1051   1050   1054   1056     1  0.0000000  0.6508444  3
   1051   1050   1057   1058     1  0.0000000  0.6508444  3
   1051   1050   1057   1059     1  0.0000000  0.6508444  3
   1051   1063   1075   1076     1  0.0000000  0.6508444  3
   1051   1063   1075   1077     1  0.0000000  0.6508444  3
   1052   1051   1050   1054     1  0.0000000  0.6508444  3
   1052   1051   1050   1057     1  0.0000000  0.6508444  3
   1052   1051   1050   1079     1  0.0000000  0.6508444  3
   1052   1051   1063   1075     1  0.0000000  0.6508444  3
   1052   1051   1063   1064     1  0.0000000  0.6508444  3
   1052   1051   1063   1065     1  0.0000000  0.6508444  3
   1053   1051   1050   1054     1  0.0000000  0.6508444  3
   1053   1051   1050   1057     1  0.0000000  0.6508444  3
   1053   1051   1050   1079     1  0.0000000  0.6508444  3
   1053   1051   1063   1075     1  0.0000000  0.6508444  3
   1053   1051   1063   1064     1  0.0000000  0.6508444  3
   1053   1051   1063   1065     1  0.0000000  0.6508444  3
   1054   1050   1057   1058     1  0.0000000  0.6508444  3
   1054   1050   1057   1059     1  0.0000000  0.6508444  3
   1054   1066   1072   1073     1  0.0000000  0.6508444  3
   1054   1066   1072   1074     1  0.0000000  0.6508444  3
   1055   1054   1050   1057     1  0.0000000  0.6508444  3
   1055   1054   1050   1079     1  0.0000000  0.6508444  3
   1055   1054   1066   1072     1  0.0000000  0.6508444  3
   1055   1054   1066   1067     1  0.0000000  0.6508444  3
   1055   1054   1066   1068     1  0.0000000  0.6508444  3
   1056   1054   1050   1057     1  0.0000000  0.6508444  3
   1056   1054   1050   1079     1  0.0000000  0.6508444  3
   1056   1054   1066   1072     1  0.0000000  0.6508444  3
   1056   1054   1066   1067     1  0.0000000  0.6508444  3
   1056   1054   1066   1068     1  0.0000000  0.6508444  3
   1057   1060   1069   1070     1  0.0000000  0.6508444  3
   1057   1060   1069   1071     1  0.0000000  0.6508444  3
   1058   1057   1050   1079     1  0.0000000  0.6508444  3
   1058   1057   1060   1069     1  0.0000000  0.6508444  3
   1058   1057   1060   1061     1  0.0000000  0.6508444  3
   1058   1057   1060   1062     1  0.0000000  0.6508444  3
   1059   1057   1050   1079     1  0.0000000  0.6508444  3
   1059   1057   1060   1069     1  0.0000000  0.6508444  3
   1059   1057   1060   1061     1  0.0000000  0.6508444  3
   1059   1057   1060   1062     1  0.0000000  0.6508444  3
   1060   1057   1050   1079     1  0.0000000  0.6508444  3
   1061   1060   1069   1078     1  0.0000000  1.0460000  1
   1061   1060   1069   1078     1  0.0000000  0.0000000  3
   1061   1060   1069   1070     1  0.0000000  0.6508444  3
   1061   1060   1069   1071     1  0.0000000  0.6508444  3
   1062   1060   1069   1078     1  0.0000000  1.0460000  1
   1062   1060   1069   1078     1  0.0000000  0.0000000  3
   1062   1060   1069   1070     1  0.0000000  0.6508444  3
   1062   1060   1069   1071     1  0.0000000  0.6508444  3
   1063   1051   1050   1079     1  0.0000000  0.6508444  3
   1064   1063   1075   1770     1  0.0000000  1.0460000  1
   1064   1063   1075   1770     1  0.0000000  0.0000000  3
   1064   1063   1075   1076     1  0.0000000  0.6508444  3
   1064   1063   1075   1077     1  0.0000000  0.6508444  3
   1065   1063   1075   1770     1  0.0000000  1.0460000  1
   1065   1063   1075   1770     1  0.0000000  0.0000000  3
   1065   1063   1075   1076     1  0.0000000  0.6508444  3
   1065   1063   1075   1077     1  0.0000000  0.6508444  3
   1066   1054   1050   1079     1  0.0000000  0.6508444  3
   1067   1066   1072   1756     1  0.0000000  1.0460000  1
   1067   1066   1072   1756     1  0.0000000  0.0000000  3
   1067   1066   1072   1073     1  0.0000000  0.6508444  3
   1067   1066   1072   1074     1  0.0000000  0.6508444  3
   1068   1066   1072   1756     1  0.0000000  1.0460000  1
   1068   1066   1072   1756     1  0.0000000  0.0000000  3
   1068   1066   1072   1073     1  0.0000000  0.6508444  3
   1068   1066   1072   1074     1  0.0000000  0.6508444  3
   1072   1756   1750   1751     1  0.0000000  1.6038667  3
   1072   1756   1750   1752     1  0.0000000  1.6038667  3
   1073   1072   1756   1750     1  0.0000000  1.6038667  3
   1074   1072   1756   1750     1  0.0000000  1.6038667  3
   1075   1770   1764   1765     1  0.0000000  1.6038667  3
   1075   1770   1764   1766     1  0.0000000  1.6038667  3
   1076   1075   1770   1764     1  0.0000000  1.6038667  3
   1077   1075   1770   1764     1  0.0000000  1.6038667  3
   1080   1081   1093   1094     1  0.0000000  0.6508444  3
   1080   1081   1093   1095     1  0.0000000  0.6508444  3
   1080   1084   1096   1097     1  0.0000000  0.6508444  3
   1080   1084   1096   1098     1  0.0000000  0.6508444  3
   1080   1087   1090   1091     1  0.0000000  0.6508444  3
   1080   1087   1090   1092     1  0.0000000  0.6508444  3
   1081   1080   1084   1085     1  0.0000000  0.6508444  3
   1081   1080   1084   1086     1  0.0000000  0.6508444  3
   1081   1080   1087   1088     1  0.0000000  0.6508444  3
   1081   1080   1087   1089     1  0.0000000  0.6508444  3
   1081   1093   1105   1106     1  0.0000000  0.6508444  3
   1081   1093   1105   1107     1  0.0000000  0.6508444  3
   1082   1081   1080   1084     1  0.0000000  0.6508444  3
   1082   1081   1080   1087     1  0.0000000  0.6508444  3
   1082   1081   1080   1109     1  0.0000000  0.6508444  3
   1082   1081   1093   1105     1  0.0000000  0.6508444  3
   1082   1081   1093   1094     1  0.0000000  0.6508444  3
   1082   1081   1093   1095     1  0.0000000  0.6508444  3
   1083   1081   1080   1084     1  0.0000000  0.6508444  3
   1083   1081   1080   1087     1  0.0000000  0.6508444  3
   1083   1081   1080   1109     1  0.0000000  0.6508444  3
   1083   1081   1093   1105     1  0.0000000  0.6508444  3
   1083   1081   1093   1094     1  0.0000000  0.6508444  3
   1083   1081   1093   1095     1  0.0000000  0.6508444  3
   1084   1080   1087   1088     1  0.0000000  0.6508444  3
   1084   1080   1087   1089     1  0.0000000  0.6508444  3
   1084   1096   1102   1103     1  0.0000000  0.6508444  3
   1084   1096   1102   1104     1  0.0000000  0.6508444  3
   1085   1084   1080   1087     1  0.0000000  0.6508444  3
   1085   1084   1080   1109     1  0.0000000  0.6508444  3
   1085   1084   1096   1102     1  0.0000000  0.6508444  3
   1085   1084   1096   1097     1  0.0000000  0.6508444  3
   1085   1084   1096   1098     1  0.0000000  0.6508444  3
   1086   1084   1080   1087     1  0.0000000  0.6508444  3
   1086   1084   1080   1109     1  0.0000000  0.6508444  3
   1086   1084   1096   1102     1  0.0000000  0.6508444  3
   1086   1084   1096   1097     1  0.0000000  0.6508444  3
   1086   1084   1096   1098     1  0.0000000  0.6508444  3
   1087   1090   1099   1100     1  0.0000000  0.6508444  3
   1087   1090   1099   1101     1  0.0000000  0.6508444  3
   1088   1087   1080   1109     1  0.0000000  0.6508444  3
   1088   1087   1090   1099     1  0.0000000  0.6508444  3
   1088   1087   1090   1091     1  0.0000000  0.6508444  3
   1088   1087   1090   1092     1  0.0000000  0.6508444  3
   1089   1087   1080   1109     1  0.0000000  0.6508444  3
   1089   1087   1090   1099     1  0.0000000  0.6508444  3
   1089   1087   1090   1091     1  0.0000000  0.6508444  3
   1089   1087   1090   1092     1  0.0000000  0.6508444  3
   1090   1087   1080   1109     1  0.0000000  0.6508444  3
   1091   1090   1099   1108     1  0.0000000  1.0460000  1
   1091   1090   1099   1108     1  0.0000000  0.0000000  3
   1091   1090   1099   1100     1  0.0000000  0.6508444  3
   1091   1090   1099   1101     1  0.0000000  0.6508444  3
   1092   1090   1099   1108     1  0.0000000  1.0460000  1
   1092   1090   1099   1108     1  0.0000000  0.0000000  3
   1092   1090   1099   1100     1  0.0000000  0.6508444  3
   1092   1090   1099   1101     1  0.0000000  0.6508444  3
   1093   1081   1080   1109     1  0.0000000  0.6508444  3
   1094   1093   1105   1798     1  0.0000000  1.0460000  1
   1094   1093   1105   1798     1  0.0000000  0.0000000  3
   1094   1093   1105   1106     1  0.0000000  0.6508444  3
   1094   1093   1105   1107     1  0.0000000  0.6508444  3
   1095   1093   1105   1798     1  0.0000000  1.0460000  1
   1095   1093   1105   1798     1  0.0000000  0.0000000  3
   1095   1093   1105   1106     1  0.0000000  0.6508444  3
   1095   1093   1105   1107     1  0.0000000  0.6508444  3
   1096   1084   1080   1109     1  0.0000000  0.6508444  3
   1097   1096   1102   1784     1  0.0000000  1.0460000  1
   1097   1096   1102   1784     1  0.0000000  0.0000000  3
   1097   1096   1102   1103     1  0.0000000  0.6508444  3
   1097   1096   1102   1104     1  0.0000000  0.6508444  3
   1098   1096   1102   1784     1  0.0000000  1.0460000  1
   1098   1096   1102   1784     1  0.0000000  0.0000000  3
   1098   1096   1102   1103     1  0.0000000  0.6508444  3
   1098   1096   1102   1104     1  0.0000000  0.6508444  3
   1102   1784   1778   1779     1  0.0000000  1.6038667  3
   1102   1784   1778   1780     1  0.0000000  1.6038667  3
   1103   1102   1784   1778     1  0.0000000  1.6038667  3
   1104   1102   1784   1778     1  0.0000000  1.6038667  3
   1105   1798   1792   1793     1  0.0000000  1.6038667  3
   1105   1798   1792   1794     1  0.0000000  1.6038667  3
   1106   1105   1798   1792     1  0.0000000  1.6038667  3
   1107   1105   1798   1792     1  0.0000000  1.6038667  3
   1110   1111   1123   1124     1  0.0000000  0.6508444  3
   1110   1111   1123   1125     1  0.0000000  0.6508444  3
   1110   1114   1126   1127     1  0.0000000  0.6508444  3
   1110   1114   1126   1128     1  0.0000000  0.6508444  3
   1110   1117   1120   1121     1  0.0000000  0.6508444  3
   1110   1117   1120   1122     1  0.0000000  0.6508444  3
   1111   1110   1114   1115     1  0.0000000  0.6508444  3
   1111   1110   1114   1116     1  0.0000000  0.6508444  3
   1111   1110   1117   1118     1  0.0000000  0.6508444  3
   1111   1110   1117   1119     1  0.0000000  0.6508444  3
   1111   1123   1135   1136     1  0.0000000  0.6508444  3
   1111   1123   1135   1137     1  0.0000000  0.6508444  3
   1112   1111   1110   1114     1  0.0000000  0.6508444  3
   1112   1111   1110   1117     1  0.0000000  0.6508444  3
   1112   1111   1110   1139     1  0.0000000  0.6508444  3
   1112   1111   1123   1135     1  0.0000000  0.6508444  3
   1112   1111   1123   1124     1  0.0000000  0.6508444  3
   1112   1111   1123   1125     1  0.0000000  0.6508444  3
   1113   1111   1110   1114     1  0.0000000  0.6508444  3
   1113   1111   1110   1117     1  0.0000000  0.6508444  3
   1113   1111   1110   1139     1  0.0000000  0.6508444  3
   1113   1111   1123   1135     1  0.0000000  0.6508444  3
   1113   1111   1123   1124     1  0.0000000  0.6508444  3
   1113   1111   1123   1125     1  0.0000000  0.6508444  3
   1114   1110   1117   1118     1  0.0000000  0.6508444  3
   1114   1110   1117   1119     1  0.0000000  0.6508444  3
   1114   1126   1132   1133     1  0.0000000  0.6508444  3
   1114   1126   1132   1134     1  0.0000000  0.6508444  3
   1115   1114   1110   1117     1  0.0000000  0.6508444  3
   1115   1114   1110   1139     1  0.0000000  0.6508444  3
   1115   1114   1126   1132     1  0.0000000  0.6508444  3
   1115   1114   1126   1127     1  0.0000000  0.6508444  3
   1115   1114   1126   1128     1  0.0000000  0.6508444  3
   1116   1114   1110   1117     1  0.0000000  0.6508444  3
   1116   1114   1110   1139     1  0.0000000  0.6508444  3
   1116   1114   1126   1132     1  0.0000000  0.6508444  3
   1116   1114   1126   1127     1  0.0000000  0.6508444  3
   1116   1114   1126   1128     1  0.0000000  0.6508444  3
   1117   1120   1129   1130     1  0.0000000  0.6508444  3
   1117   1120   1129   1131     1  0.0000000  0.6508444  3
   1118   1117   1110   1139     1  0.0000000  0.6508444  3
   1118   1117   1120   1129     1  0.0000000  0.6508444  3
   1118   1117   1120   1121     1  0.0000000  0.6508444  3
   1118   1117   1120   1122     1  0.0000000  0.6508444  3
   1119   1117   1110   1139     1  0.0000000  0.6508444  3
   1119   1117   1120   1129     1  0.0000000  0.6508444  3
   1119   1117   1120   1121     1  0.0000000  0.6508444  3
   1119   1117   1120   1122     1  0.0000000  0.6508444  3
   1120   1117   1110   1139     1  0.0000000  0.6508444  3
   1121   1120   1129   1138     1  0.0000000  1.0460000  1
   1121   1120   1129   1138     1  0.0000000  0.0000000  3
   1121   1120   1129   1130     1  0.0000000  0.6508444  3
   1121   1120   1129   1131     1  0.0000000  0.6508444  3
   1122   1120   1129   1138     1  0.0000000  1.0460000  1
   1122   1120   1129   1138     1  0.0000000  0.0000000  3
   1122   1120   1129   1130     1  0.0000000  0.6508444  3
   1122   1120   1129   1131     1  0.0000000  0.6508444  3
   1123   1111   1110   1139     1  0.0000000  0.6508444  3
   1124   1123   1135   1826     1  0.0000000  1.0460000  1
   1124   1123   1135   1826     1  0.0000000  0.0000000  3
   1124   1123   1135   1136     1  0.0000000  0.6508444  3
   1124   1123   1135   1137     1  0.0000000  0.6508444  3
   1125   1123   1135   1826     1  0.0000000  1.0460000  1
   1125   1123   1135   1826     1  0.0000000  0.0000000  3
   1125   1123   1135   1136     1  0.0000000  0.6508444  3
   1125   1123   1135   1137     1  0.0000000  0.6508444  3
   1126   1114   1110   1139     1  0.0000000  0.6508444  3
   1127   1126   1132   1812     1  0.0000000  1.0460000  1
   1127   1126   1132   1812     1  0.0000000  0.0000000  3
   1127   1126   1132   1133     1  0.0000000  0.6508444  3
   1127   1126   1132   1134     1  0.0000000  0.6508444  3
   1128   1126   1132   1812     1  0.0000000  1.0460000  1
   1128   1126   1132   1812     1  0.0000000  0.0000000  3
   1128   1126   1132   1133     1  0.0000000  0.6508444  3
   1128   1126   1132   1134     1  0.0000000  0.6508444  3
   1132   1812   1806   1807     1  0.0000000  1.6038667  3
   1132   1812   1806   1808     1  0.0000000  1.6038667  3
   1133   1132   1812   1806     1  0.0000000  1.6038667  3
   1134   1132   1812   1806     1  0.0000000  1.6038667  3
   1135   1826   1820   1821     1  0.0000000  1.6038667  3
   1135   1826   1820   1822     1  0.0000000  1.6038667  3
   1136   1135   1826   1820     1  0.0000000  1.6038667  3
   1137   1135   1826   1820     1  0.0000000  1.6038667  3
   1140   1141   1153   1154     1  0.0000000  0.6508444  3
   1140   1141   1153   1155     1  0.0000000  0.6508444  3
   1140   1144   1156   1157     1  0.0000000  0.6508444  3
   1140   1144   1156   1158     1  0.0000000  0.6508444  3
   1140   1147   1150   1151     1  0.0000000  0.6508444  3
   1140   1147   1150   1152     1  0.0000000  0.6508444  3
   1141   1140   1144   1145     1  0.0000000  0.6508444  3
   1141   1140   1144   1146     1  0.0000000  0.6508444  3
   1141   1140   1147   1148     1  0.0000000  0.6508444  3
   1141   1140   1147   1149     1  0.0000000  0.6508444  3
   1141   1153   1165   1166     1  0.0000000  0.6508444  3
   1141   1153   1165   1167     1  0.0000000  0.6508444  3
   1142   1141   1140   1144     1  0.0000000  0.6508444  3
   1142   1141   1140   1147     1  0.0000000  0.6508444  3
   1142   1141   1140   1169     1  0.0000000  0.6508444  3
   1142   1141   1153   1165     1  0.0000000  0.6508444  3
   1142   1141   1153   1154     1  0.0000000  0.6508444  3
   1142   1141   1153   1155     1  0.0000000  0.6508444  3
   1143   1141   1140   1144     1  0.0000000  0.6508444  3
   1143   1141   1140   1147     1  0.0000000  0.6508444  3
   1143   1141   1140   1169     1  0.0000000  0.6508444  3
   1143   1141   1153   1165     1  0.0000000  0.6508444  3
   1143   1141   1153   1154     1  0.0000000  0.6508444  3
   1143   1141   1153   1155     1  0.0000000  0.6508444  3
   1144   1140   1147   1148     1  0.0000000  0.6508444  3
   1144   1140   1147   1149     1  0.0000000  0.6508444  3
   1144   1156   1162   1163     1  0.0000000  0.6508444  3
   1144   1156   1162   1164     1  0.0000000  0.6508444  3
   1145   1144   1140   1147     1  0.0000000  0.6508444  3
   1145   1144   1140   1169     1  0.0000000  0.6508444  3
   1145   1144   1156   1162     1  0.0000000  0.6508444  3
   1145   1144   1156   1157     1  0.0000000  0.6508444  3
   1145   1144   1156   1158     1  0.0000000  0.6508444  3
   1146   1144   1140   1147     1  0.0000000  0.6508444  3
   1146   1144   1140   1169     1  0.0000000  0.6508444  3
   1146   1144   1156   1162     1  0.0000000  0.6508444  3
   1146   1144   1156   1157     1  0.0000000  0.6508444  3
   1146   1144   1156   1158     1  0.0000000  0.6508444  3
   1147   1150   1159   1160     1  0.0000000  0.6508444  3
   1147   1150   1159   1161     1  0.0000000  0.6508444  3
   1148   1147   1140   1169     1  0.0000000  0.6508444  3
   1148   1147   1150   1159     1  0.0000000  0.6508444  3
   1148   1147   1150   1151     1  0.0000000  0.6508444  3
   1148   1147   1150   1152     1  0.0000000  0.6508444  3
   1149   1147   1140   1169     1  0.0000000  0.6508444  3
   1149   1147   1150   1159     1  0.0000000  0.6508444  3
   1149   1147   1150   1151     1  0.0000000  0.6508444  3
   1149   1147   1150   1152     1  0.0000000  0.6508444  3
   1150   1147   1140   1169     1  0.0000000  0.6508444  3
   1151   1150   1159   1168     1  0.0000000  1.0460000  1
   1151   1150   1159   1168     1  0.0000000  0.0000000  3
   1151   1150   1159   1160     1  0.0000000  0.6508444  3
   1151   1150   1159   1161     1  0.0000000  0.6508444  3
   1152   1150   1159   1168     1  0.0000000  1.0460000  1
   1152   1150   1159   1168     1  0.0000000  0.0000000  3
   1152   1150   1159   1160     1  0.0000000  0.6508444  3
   1152   1150   1159   1161     1  0.0000000  0.6508444  3
   1153   1141   1140   1169     1  0.0000000  0.6508444  3
   1154   1153   1165   1854     1  0.0000000  1.0460000  1
   1154   1153   1165   1854     1  0.0000000  0.0000000  3
   1154   1153   1165   1166     1  0.0000000  0.6508444  3
   1154   1153   1165   1167     1  0.0000000  0.6508444  3
   1155   1153   1165   1854     1  0.0000000  1.0460000  1
   1155   1153   1165   1854     1  0.0000000  0.0000000  3
   1155   1153   1165   1166     1  0.0000000  0.6508444  3
   1155   1153   1165   1167     1  0.0000000  0.6508444  3
   1156   1144   1140   1169     1  0.0000000  0.6508444  3
   1157   1156   1162   1840     1  0.0000000  1.0460000  1
   1157   1156   1162   1840     1  0.0000000  0.0000000  3
   1157   1156   1162   1163     1  0.0000000  0.6508444  3
   1157   1156   1162   1164     1  0.0000000  0.6508444  3
   1158   1156   1162   1840     1  0.0000000  1.0460000  1
   1158   1156   1162   1840     1  0.0000000  0.0000000  3
   1158   1156   1162   1163     1  0.0000000  0.6508444  3
   1158   1156   1162   1164     1  0.0000000  0.6508444  3
   1162   1840   1834   1835     1  0.0000000  1.6038667  3
   1162   1840   1834   1836     1  0.0000000  1.6038667  3
   1163   1162   1840   1834     1  0.0000000  1.6038667  3
   1164   1162   1840   1834     1  0.0000000  1.6038667  3
   1165   1854   1848   1849     1  0.0000000  1.6038667  3
   1165   1854   1848   1850     1  0.0000000  1.6038667  3
   1166   1165   1854   1848     1  0.0000000  1.6038667  3
   1167   1165   1854   1848     1  0.0000000  1.6038667  3
   1170   1171   1183   1184     1  0.0000000  0.6508444  3
   1170   1171   1183   1185     1  0.0000000  0.6508444  3
   1170   1174   1186   1187     1  0.0000000  0.6508444  3
   1170   1174   1186   1188     1  0.0000000  0.6508444  3
   1170   1177   1180   1181     1  0.0000000  0.6508444  3
   1170   1177   1180   1182     1  0.0000000  0.6508444  3
   1171   1170   1174   1175     1  0.0000000  0.6508444  3
   1171   1170   1174   1176     1  0.0000000  0.6508444  3
   1171   1170   1177   1178     1  0.0000000  0.6508444  3
   1171   1170   1177   1179     1  0.0000000  0.6508444  3
   1171   1183   1195   1196     1  0.0000000  0.6508444  3
   1171   1183   1195   1197     1  0.0000000  0.6508444  3
   1172   1171   1170   1174     1  0.0000000  0.6508444  3
   1172   1171   1170   1177     1  0.0000000  0.6508444  3
   1172   1171   1170   1199     1  0.0000000  0.6508444  3
   1172   1171   1183   1195     1  0.0000000  0.6508444  3
   1172   1171   1183   1184     1  0.0000000  0.6508444  3
   1172   1171   1183   1185     1  0.0000000  0.6508444  3
   1173   1171   1170   1174     1  0.0000000  0.6508444  3
   1173   1171   1170   1177     1  0.0000000  0.6508444  3
   1173   1171   1170   1199     1  0.0000000  0.6508444  3
   1173   1171   1183   1195     1  0.0000000  0.6508444  3
   1173   1171   1183   1184     1  0.0000000  0.6508444  3
   1173   1171   1183   1185     1  0.0000000  0.6508444  3
   1174   1170   1177   1178     1  0.0000000  0.6508444  3
   1174   1170   1177   1179     1  0.0000000  0.6508444  3
   1174   1186   1192   1193     1  0.0000000  0.6508444  3
   1174   1186   1192   1194     1  0.0000000  0.6508444  3
   1175   1174   1170   1177     1  0.0000000  0.6508444  3
   1175   1174   1170   1199     1  0.0000000  0.6508444  3
   1175   1174   1186   1192     1  0.0000000  0.6508444  3
   1175   1174   1186   1187     1  0.0000000  0.6508444  3
   1175   1174   1186   1188     1  0.0000000  0.6508444  3
   1176   1174   1170   1177     1  0.0000000  0.6508444  3
   1176   1174   1170   1199     1  0.0000000  0.6508444  3
   1176   1174   1186   1192     1  0.0000000  0.6508444  3
   1176   1174   1186   1187     1  0.0000000  0.6508444  3
   1176   1174   1186   1188     1  0.0000000  0.6508444  3
   1177   1180   1189   1190     1  0.0000000  0.6508444  3
   1177   1180   1189   1191     1  0.0000000  0.6508444  3
   1178   1177   1170   1199     1  0.0000000  0.6508444  3
   1178   1177   1180   1189     1  0.0000000  0.6508444  3
   1178   1177   1180   1181     1  0.0000000  0.6508444  3
   1178   1177   1180   1182     1  0.0000000  0.6508444  3
   1179   1177   1170   1199     1  0.0000000  0.6508444  3
   1179   1177   1180   1189     1  0.0000000  0.6508444  3
   1179   1177   1180   1181     1  0.0000000  0.6508444  3
   1179   1177   1180   1182     1  0.0000000  0.6508444  3
   1180   1177   1170   1199     1  0.0000000  0.6508444  3
   1181   1180   1189   1198     1  0.0000000  1.0460000  1
   1181   1180   1189   1198     1  0.0000000  0.0000000  3
   1181   1180   1189   1190     1  0.0000000  0.6508444  3
   1181   1180   1189   1191     1  0.0000000  0.6508444  3
   1182   1180   1189   1198     1  0.0000000  1.0460000  1
   1182   1180   1189   1198     1  0.0000000  0.0000000  3
   1182   1180   1189   1190     1  0.0000000  0.6508444  3
   1182   1180   1189   1191     1  0.0000000  0.6508444  3
   1183   1171   1170   1199     1  0.0000000  0.6508444  3
   1184   1183   1195   1882     1  0.0000000  1.0460000  1
   1184   1183   1195   1882     1  0.0000000  0.0000000  3
   1184   1183   1195   1196     1  0.0000000  0.6508444  3
   1184   1183   1195   1197     1  0.0000000  0.6508444  3
   1185   1183   1195   1882     1  0.0000000  1.0460000  1
   1185   1183   1195   1882     1  0.0000000  0.0000000  3
   1185   1183   1195   1196     1  0.0000000  0.6508444  3
   1185   1183   1195   1197     1  0.0000000  0.6508444  3
   1186   1174   1170   1199     1  0.0000000  0.6508444  3
   1187   1186   1192   1868     1  0.0000000  1.0460000  1
   1187   1186   1192   1868     1  0.0000000  0.0000000  3
   1187   1186   1192   1193     1  0.0000000  0.6508444  3
   1187   1186   1192   1194     1  0.0000000  0.6508444  3
   1188   1186   1192   1868     1  0.0000000  1.0460000  1
   1188   1186   1192   1868     1  0.0000000  0.0000000  3
   1188   1186   1192   1193     1  0.0000000  0.6508444  3
   1188   1186   1192   1194     1  0.0000000  0.6508444  3
   1192   1868   1862   1863     1  0.0000000  1.6038667  3
   1192   1868   1862   1864     1  0.0000000  1.6038667  3
   1193   1192   1868   1862     1  0.0000000  1.6038667  3
   1194   1192   1868   1862     1  0.0000000  1.6038667  3
   1195   1882   1876   1877     1  0.0000000  1.6038667  3
   1195   1882   1876   1878     1  0.0000000  1.6038667  3
   1196   1195   1882   1876     1  0.0000000  1.6038667  3
   1197   1195   1882   1876     1  0.0000000  1.6038667  3
   1200   1201   1213   1214     1  0.0000000  0.6508444  3
   1200   1201   1213   1215     1  0.0000000  0.6508444  3
   1200   1204   1216   1217     1  0.0000000  0.6508444  3
   1200   1204   1216   1218     1  0.0000000  0.6508444  3
   1200   1207   1210   1211     1  0.0000000  0.6508444  3
   1200   1207   1210   1212     1  0.0000000  0.6508444  3
   1201   1200   1204   1205     1  0.0000000  0.6508444  3
   1201   1200   1204   1206     1  0.0000000  0.6508444  3
   1201   1200   1207   1208     1  0.0000000  0.6508444  3
   1201   1200   1207   1209     1  0.0000000  0.6508444  3
   1201   1213   1225   1226     1  0.0000000  0.6508444  3
   1201   1213   1225   1227     1  0.0000000  0.6508444  3
   1202   1201   1200   1204     1  0.0000000  0.6508444  3
   1202   1201   1200   1207     1  0.0000000  0.6508444  3
   1202   1201   1200   1229     1  0.0000000  0.6508444  3
   1202   1201   1213   1225     1  0.0000000  0.6508444  3
   1202   1201   1213   1214     1  0.0000000  0.6508444  3
   1202   1201   1213   1215     1  0.0000000  0.6508444  3
   1203   1201   1200   1204     1  0.0000000  0.6508444  3
   1203   1201   1200   1207     1  0.0000000  0.6508444  3
   1203   1201   1200   1229     1  0.0000000  0.6508444  3
   1203   1201   1213   1225     1  0.0000000  0.6508444  3
   1203   1201   1213   1214     1  0.0000000  0.6508444  3
   1203   1201   1213   1215     1  0.0000000  0.6508444  3
   1204   1200   1207   1208     1  0.0000000  0.6508444  3
   1204   1200   1207   1209     1  0.0000000  0.6508444  3
   1204   1216   1222   1223     1  0.0000000  0.6508444  3
   1204   1216   1222   1224     1  0.0000000  0.6508444  3
   1205   1204   1200   1207     1  0.0000000  0.6508444  3
   1205   1204   1200   1229     1  0.0000000  0.6508444  3
   1205   1204   1216   1222     1  0.0000000  0.6508444  3
   1205   1204   1216   1217     1  0.0000000  0.6508444  3
   1205   1204   1216   1218     1  0.0000000  0.6508444  3
   1206   1204   1200   1207     1  0.0000000  0.6508444  3
   1206   1204   1200   1229     1  0.0000000  0.6508444  3
   1206   1204   1216   1222     1  0.0000000  0.6508444  3
   1206   1204   1216   1217     1  0.0000000  0.6508444  3
   1206   1204   1216   1218     1  0.0000000  0.6508444  3
   1207   1210   1219   1220     1  0.0000000  0.6508444  3
   1207   1210   1219   1221     1  0.0000000  0.6508444  3
   1208   1207   1200   1229     1  0.0000000  0.6508444  3
   1208   1207   1210   1219     1  0.0000000  0.6508444  3
   1208   1207   1210   1211     1  0.0000000  0.6508444  3
   1208   1207   1210   1212     1  0.0000000  0.6508444  3
   1209   1207   1200   1229     1  0.0000000  0.6508444  3
   1209   1207   1210   1219     1  0.0000000  0.6508444  3
   1209   1207   1210   1211     1  0.0000000  0.6508444  3
   1209   1207   1210   1212     1  0.0000000  0.6508444  3
   1210   1207   1200   1229     1  0.0000000  0.6508444  3
   1211   1210   1219   1228     1  0.0000000  1.0460000  1
   1211   1210   1219   1228     1  0.0000000  0.0000000  3
   1211   1210   1219   1220     1  0.0000000  0.6508444  3
   1211   1210   1219   1221     1  0.0000000  0.6508444  3
   1212   1210   1219   1228     1  0.0000000  1.0460000  1
   1212   1210   1219   1228     1  0.0000000  0.0000000  3
   1212   1210   1219   1220     1  0.0000000  0.6508444  3
   1212   1210   1219   1221     1  0.0000000  0.6508444  3
   1213   1201   1200   1229     1  0.0000000  0.6508444  3
   1214   1213   1225   1910     1  0.0000000  1.0460000  1
   1214   1213   1225   1910     1  0.0000000  0.0000000  3
   1214   1213   1225   1226     1  0.0000000  0.6508444  3
   1214   1213   1225   1227     1  0.0000000  0.6508444  3
   1215   1213   1225   1910     1  0.0000000  1.0460000  1
   1215   1213   1225   1910     1  0.0000000  0.0000000  3
   1215   1213   1225   1226     1  0.0000000  0.6508444  3
   1215   1213   1225   1227     1  0.0000000  0.6508444  3
   1216   1204   1200   1229     1  0.0000000  0.6508444  3
   1217   1216   1222   1896     1  0.0000000  1.0460000  1
   1217   1216   1222   1896     1  0.0000000  0.0000000  3
   1217   1216   1222   1223     1  0.0000000  0.6508444  3
   1217   1216   1222   1224     1  0.0000000  0.6508444  3
   1218   1216   1222   1896     1  0.0000000  1.0460000  1
   1218   1216   1222   1896     1  0.0000000  0.0000000  3
   1218   1216   1222   1223     1  0.0000000  0.6508444  3
   1218   1216   1222   1224     1  0.0000000  0.6508444  3
   1222   1896   1890   1891     1  0.0000000  1.6038667  3
   1222   1896   1890   1892     1  0.0000000  1.6038667  3
   1223   1222   1896   1890     1  0.0000000  1.6038667  3
   1224   1222   1896   1890     1  0.0000000  1.6038667  3
   1225   1910   1904   1905     1  0.0000000  1.6038667  3
   1225   1910   1904   1906     1  0.0000000  1.6038667  3
   1226   1225   1910   1904     1  0.0000000  1.6038667  3
   1227   1225   1910   1904     1  0.0000000  1.6038667  3
   1230   1231   1243   1244     1  0.0000000  0.6508444  3
   1230   1231   1243   1245     1  0.0000000  0.6508444  3
   1230   1234   1246   1247     1  0.0000000  0.6508444  3
   1230   1234   1246   1248     1  0.0000000  0.6508444  3
   1230   1237   1240   1241     1  0.0000000  0.6508444  3
   1230   1237   1240   1242     1  0.0000000  0.6508444  3
   1231   1230   1234   1235     1  0.0000000  0.6508444  3
   1231   1230   1234   1236     1  0.0000000  0.6508444  3
   1231   1230   1237   1238     1  0.0000000  0.6508444  3
   1231   1230   1237   1239     1  0.0000000  0.6508444  3
   1231   1243   1255   1256     1  0.0000000  0.6508444  3
   1231   1243   1255   1257     1  0.0000000  0.6508444  3
   1232   1231   1230   1234     1  0.0000000  0.6508444  3
   1232   1231   1230   1237     1  0.0000000  0.6508444  3
   1232   1231   1230   1259     1  0.0000000  0.6508444  3
   1232   1231   1243   1255     1  0.0000000  0.6508444  3
   1232   1231   1243   1244     1  0.0000000  0.6508444  3
   1232   1231   1243   1245     1  0.0000000  0.6508444  3
   1233   1231   1230   1234     1  0.0000000  0.6508444  3
   1233   1231   1230   1237     1  0.0000000  0.6508444  3
   1233   1231   1230   1259     1  0.0000000  0.6508444  3
   1233   1231   1243   1255     1  0.0000000  0.6508444  3
   1233   1231   1243   1244     1  0.0000000  0.6508444  3
   1233   1231   1243   1245     1  0.0000000  0.6508444  3
   1234   1230   1237   1238     1  0.0000000  0.6508444  3
   1234   1230   1237   1239     1  0.0000000  0.6508444  3
   1234   1246   1252   1253     1  0.0000000  0.6508444  3
   1234   1246   1252   1254     1  0.0000000  0.6508444  3
   1235   1234   1230   1237     1  0.0000000  0.6508444  3
   1235   1234   1230   1259     1  0.0000000  0.6508444  3
   1235   1234   1246   1252     1  0.0000000  0.6508444  3
   1235   1234   1246   1247     1  0.0000000  0.6508444  3
   1235   1234   1246   1248     1  0.0000000  0.6508444  3
   1236   1234   1230   1237     1  0.0000000  0.6508444  3
   1236   1234   1230   1259     1  0.0000000  0.6508444  3
   1236   1234   1246   1252     1  0.0000000  0.6508444  3
   1236   1234   1246   1247     1  0.0000000  0.6508444  3
   1236   1234   1246   1248     1  0.0000000  0.6508444  3
   1237   1240   1249   1250     1  0.0000000  0.6508444  3
   1237   1240   1249   1251     1  0.0000000  0.6508444  3
   1238   1237   1230   1259     1  0.0000000  0.6508444  3
   1238   1237   1240   1249     1  0.0000000  0.6508444  3
   1238   1237   1240   1241     1  0.0000000  0.6508444  3
   1238   1237   1240   1242     1  0.0000000  0.6508444  3
   1239   1237   1230   1259     1  0.0000000  0.6508444  3
   1239   1237   1240   1249     1  0.0000000  0.6508444  3
   1239   1237   1240   1241     1  0.0000000  0.6508444  3
   1239   1237   1240   1242     1  0.0000000  0.6508444  3
   1240   1237   1230   1259     1  0.0000000  0.6508444  3
   1241   1240   1249   1258     1  0.0000000  1.0460000  1
   1241   1240   1249   1258     1  0.0000000  0.0000000  3
   1241   1240   1249   1250     1  0.0000000  0.6508444  3
   1241   1240   1249   1251     1  0.0000000  0.6508444  3
   1242   1240   1249   1258     1  0.0000000  1.0460000  1
   1242   1240   1249   1258     1  0.0000000  0.0000000  3
   1242   1240   1249   1250     1  0.0000000  0.6508444  3
   1242   1240   1249   1251     1  0.0000000  0.6508444  3
   1243   1231   1230   1259     1  0.0000000  0.6508444  3
   1244   1243   1255   1938     1  0.0000000  1.0460000  1
   1244   1243   1255   1938     1  0.0000000  0.0000000  3
   1244   1243   1255   1256     1  0.0000000  0.6508444  3
   1244   1243   1255   1257     1  0.0000000  0.6508444  3
   1245   1243   1255   1938     1  0.0000000  1.0460000  1
   1245   1243   1255   1938     1  0.0000000  0.0000000  3
   1245   1243   1255   1256     1  0.0000000  0.6508444  3
   1245   1243   1255   1257     1  0.0000000  0.6508444  3
   1246   1234   1230   1259     1  0.0000000  0.6508444  3
   1247   1246   1252   1924     1  0.0000000  1.0460000  1
   1247   1246   1252   1924     1  0.0000000  0.0000000  3
   1247   1246   1252   1253     1  0.0000000  0.6508444  3
   1247   1246   1252   1254     1  0.0000000  0.6508444  3
   1248   1246   1252   1924     1  0.0000000  1.0460000  1
   1248   1246   1252   1924     1  0.0000000  0.0000000  3
   1248   1246   1252   1253     1  0.0000000  0.6508444  3
   1248   1246   1252   1254     1  0.0000000  0.6508444  3
   1252   1924   1918   1919     1  0.0000000  1.6038667  3
   1252   1924   1918   1920     1  0.0000000  1.6038667  3
   1253   1252   1924   1918     1  0.0000000  1.6038667  3
   1254   1252   1924   1918     1  0.0000000  1.6038667  3
   1255   1938   1932   1933     1  0.0000000  1.6038667  3
   1255   1938   1932   1934     1  0.0000000  1.6038667  3
   1256   1255   1938   1932     1  0.0000000  1.6038667  3
   1257   1255   1938   1932     1  0.0000000  1.6038667  3
   1260   1261   1273   1274     1  0.0000000  0.6508444  3
   1260   1261   1273   1275     1  0.0000000  0.6508444  3
   1260   1264   1276   1277     1  0.0000000  0.6508444  3
   1260   1264   1276   1278     1  0.0000000  0.6508444  3
   1260   1267   1270   1271     1  0.0000000  0.6508444  3
   1260   1267   1270   1272     1  0.0000000  0.6508444  3
   1261   1260   1264   1265     1  0.0000000  0.6508444  3
   1261   1260   1264   1266     1  0.0000000  0.6508444  3
   1261   1260   1267   1268     1  0.0000000  0.6508444  3
   1261   1260   1267   1269     1  0.0000000  0.6508444  3
   1261   1273   1285   1286     1  0.0000000  0.6508444  3
   1261   1273   1285   1287     1  0.0000000  0.6508444  3
   1262   1261   1260   1264     1  0.0000000  0.6508444  3
   1262   1261   1260   1267     1  0.0000000  0.6508444  3
   1262   1261   1260   1289     1  0.0000000  0.6508444  3
   1262   1261   1273   1285     1  0.0000000  0.6508444  3
   1262   1261   1273   1274     1  0.0000000  0.6508444  3
   1262   1261   1273   1275     1  0.0000000  0.6508444  3
   1263   1261   1260   1264     1  0.0000000  0.6508444  3
   1263   1261   1260   1267     1  0.0000000  0.6508444  3
   1263   1261   1260   1289     1  0.0000000  0.6508444  3
   1263   1261   1273   1285     1  0.0000000  0.6508444  3
   1263   1261   1273   1274     1  0.0000000  0.6508444  3
   1263   1261   1273   1275     1  0.0000000  0.6508444  3
   1264   1260   1267   1268     1  0.0000000  0.6508444  3
   1264   1260   1267   1269     1  0.0000000  0.6508444  3
   1264   1276   1282   1283     1  0.0000000  0.6508444  3
   1264   1276   1282   1284     1  0.0000000  0.6508444  3
   1265   1264   1260   1267     1  0.0000000  0.6508444  3
   1265   1264   1260   1289     1  0.0000000  0.6508444  3
   1265   1264   1276   1282     1  0.0000000  0.6508444  3
   1265   1264   1276   1277     1  0.0000000  0.6508444  3
   1265   1264   1276   1278     1  0.0000000  0.6508444  3
   1266   1264   1260   1267     1  0.0000000  0.6508444  3
   1266   1264   1260   1289     1  0.0000000  0.6508444  3
   1266   1264   1276   1282     1  0.0000000  0.6508444  3
   1266   1264   1276   1277     1  0.0000000  0.6508444  3
   1266   1264   1276   1278     1  0.0000000  0.6508444  3
   1267   1270   1279   1280     1  0.0000000  0.6508444  3
   1267   1270   1279   1281     1  0.0000000  0.6508444  3
   1268   1267   1260   1289     1  0.0000000  0.6508444  3
   1268   1267   1270   1279     1  0.0000000  0.6508444  3
   1268   1267   1270   1271     1  0.0000000  0.6508444  3
   1268   1267   1270   1272     1  0.0000000  0.6508444  3
   1269   1267   1260   1289     1  0.0000000  0.6508444  3
   1269   1267   1270   1279     1  0.0000000  0.6508444  3
   1269   1267   1270   1271     1  0.0000000  0.6508444  3
   1269   1267   1270   1272     1  0.0000000  0.6508444  3
   1270   1267   1260   1289     1  0.0000000  0.6508444  3
   1271   1270   1279   1288     1  0.0000000  1.0460000  1
   1271   1270   1279   1288     1  0.0000000  0.0000000  3
   1271   1270   1279   1280     1  0.0000000  0.6508444  3
   1271   1270   1279   1281     1  0.0000000  0.6508444  3
   1272   1270   1279   1288     1  0.0000000  1.0460000  1
   1272   1270   1279   1288     1  0.0000000  0.0000000  3
   1272   1270   1279   1280     1  0.0000000  0.6508444  3
   1272   1270   1279   1281     1  0.0000000  0.6508444  3
   1273   1261   1260   1289     1  0.0000000  0.6508444  3
   1274   1273   1285   1966     1  0.0000000  1.0460000  1
   1274   1273   1285   1966     1  0.0000000  0.0000000  3
   1274   1273   1285   1286     1  0.0000000  0.6508444  3
   1274   1273   1285   1287     1  0.0000000  0.6508444  3
   1275   1273   1285   1966     1  0.0000000  1.0460000  1
   1275   1273   1285   1966     1  0.0000000  0.0000000  3
   1275   1273   1285   1286     1  0.0000000  0.6508444  3
   1275   1273   1285   1287     1  0.0000000  0.6508444  3
   1276   1264   1260   1289     1  0.0000000  0.6508444  3
   1277   1276   1282   1952     1  0.0000000  1.0460000  1
   1277   1276   1282   1952     1  0.0000000  0.0000000  3
   1277   1276   1282   1283     1  0.0000000  0.6508444  3
   1277   1276   1282   1284     1  0.0000000  0.6508444  3
   1278   1276   1282   1952     1  0.0000000  1.0460000  1
   1278   1276   1282   1952     1  0.0000000  0.0000000  3
   1278   1276   1282   1283     1  0.0000000  0.6508444  3
   1278   1276   1282   1284     1  0.0000000  0.6508444  3
   1282   1952   1946   1947     1  0.0000000  1.6038667  3
   1282   1952   1946   1948     1  0.0000000  1.6038667  3
   1283   1282   1952   1946     1  0.0000000  1.6038667  3
   1284   1282   1952   1946     1  0.0000000  1.6038667  3
   1285   1966   1960   1961     1  0.0000000  1.6038667  3
   1285   1966   1960   1962     1  0.0000000  1.6038667  3
   1286   1285   1966   1960     1  0.0000000  1.6038667  3
   1287   1285   1966   1960     1  0.0000000  1.6038667  3
   1290   1291   1303   1304     1  0.0000000  0.6508444  3
   1290   1291   1303   1305     1  0.0000000  0.6508444  3
   1290   1294   1306   1307     1  0.0000000  0.6508444  3
   1290   1294   1306   1308     1  0.0000000  0.6508444  3
   1290   1297   1300   1301     1  0.0000000  0.6508444  3
   1290   1297   1300   1302     1  0.0000000  0.6508444  3
   1291   1290   1294   1295     1  0.0000000  0.6508444  3
   1291   1290   1294   1296     1  0.0000000  0.6508444  3
   1291   1290   1297   1298     1  0.0000000  0.6508444  3
   1291   1290   1297   1299     1  0.0000000  0.6508444  3
   1291   1303   1315   1316     1  0.0000000  0.6508444  3
   1291   1303   1315   1317     1  0.0000000  0.6508444  3
   1292   1291   1290   1294     1  0.0000000  0.6508444  3
   1292   1291   1290   1297     1  0.0000000  0.6508444  3
   1292   1291   1290   1319     1  0.0000000  0.6508444  3
   1292   1291   1303   1315     1  0.0000000  0.6508444  3
   1292   1291   1303   1304     1  0.0000000  0.6508444  3
   1292   1291   1303   1305     1  0.0000000  0.6508444  3
   1293   1291   1290   1294     1  0.0000000  0.6508444  3
   1293   1291   1290   1297     1  0.0000000  0.6508444  3
   1293   1291   1290   1319     1  0.0000000  0.6508444  3
   1293   1291   1303   1315     1  0.0000000  0.6508444  3
   1293   1291   1303   1304     1  0.0000000  0.6508444  3
   1293   1291   1303   1305     1  0.0000000  0.6508444  3
   1294   1290   1297   1298     1  0.0000000  0.6508444  3
   1294   1290   1297   1299     1  0.0000000  0.6508444  3
   1294   1306   1312   1313     1  0.0000000  0.6508444  3
   1294   1306   1312   1314     1  0.0000000  0.6508444  3
   1295   1294   1290   1297     1  0.0000000  0.6508444  3
   1295   1294   1290   1319     1  0.0000000  0.6508444  3
   1295   1294   1306   1312     1  0.0000000  0.6508444  3
   1295   1294   1306   1307     1  0.0000000  0.6508444  3
   1295   1294   1306   1308     1  0.0000000  0.6508444  3
   1296   1294   1290   1297     1  0.0000000  0.6508444  3
   1296   1294   1290   1319     1  0.0000000  0.6508444  3
   1296   1294   1306   1312     1  0.0000000  0.6508444  3
   1296   1294   1306   1307     1  0.0000000  0.6508444  3
   1296   1294   1306   1308     1  0.0000000  0.6508444  3
   1297   1300   1309   1310     1  0.0000000  0.6508444  3
   1297   1300   1309   1311     1  0.0000000  0.6508444  3
   1298   1297   1290   1319     1  0.0000000  0.6508444  3
   1298   1297   1300   1309     1  0.0000000  0.6508444  3
   1298   1297   1300   1301     1  0.0000000  0.6508444  3
   1298   1297   1300   1302     1  0.0000000  0.6508444  3
   1299   1297   1290   1319     1  0.0000000  0.6508444  3
   1299   1297   1300   1309     1  0.0000000  0.6508444  3
   1299   1297   1300   1301     1  0.0000000  0.6508444  3
   1299   1297   1300   1302     1  0.0000000  0.6508444  3
   1300   1297   1290   1319     1  0.0000000  0.6508444  3
   1301   1300   1309   1318     1  0.0000000  1.0460000  1
   1301   1300   1309   1318     1  0.0000000  0.0000000  3
   1301   1300   1309   1310     1  0.0000000  0.6508444  3
   1301   1300   1309   1311     1  0.0000000  0.6508444  3
   1302   1300   1309   1318     1  0.0000000  1.0460000  1
   1302   1300   1309   1318     1  0.0000000  0.0000000  3
   1302   1300   1309   1310     1  0.0000000  0.6508444  3
   1302   1300   1309   1311     1  0.0000000  0.6508444  3
   1303   1291   1290   1319     1  0.0000000  0.6508444  3
   1304   1303   1315   1994     1  0.0000000  1.0460000  1
   1304   1303   1315   1994     1  0.0000000  0.0000000  3
   1304   1303   1315   1316     1  0.0000000  0.6508444  3
   1304   1303   1315   1317     1  0.0000000  0.6508444  3
   1305   1303   1315   1994     1  0.0000000  1.0460000  1
   1305   1303   1315   1994     1  0.0000000  0.0000000  3
   1305   1303   1315   1316     1  0.0000000  0.6508444  3
   1305   1303   1315   1317     1  0.0000000  0.6508444  3
   1306   1294   1290   1319     1  0.0000000  0.6508444  3
   1307   1306   1312   1980     1  0.0000000  1.0460000  1
   1307   1306   1312   1980     1  0.0000000  0.0000000  3
   1307   1306   1312   1313     1  0.0000000  0.6508444  3
   1307   1306   1312   1314     1  0.0000000  0.6508444  3
   1308   1306   1312   1980     1  0.0000000  1.0460000  1
   1308   1306   1312   1980     1  0.0000000  0.0000000  3
   1308   1306   1312   1313     1  0.0000000  0.6508444  3
   1308   1306   1312   1314     1  0.0000000  0.6508444  3
   1312   1980   1974   1975     1  0.0000000  1.6038667  3
   1312   1980   1974   1976     1  0.0000000  1.6038667  3
   1313   1312   1980   1974     1  0.0000000  1.6038667  3
   1314   1312   1980   1974     1  0.0000000  1.6038667  3
   1315   1994   1988   1989     1  0.0000000  1.6038667  3
   1315   1994   1988   1990     1  0.0000000  1.6038667  3
   1316   1315   1994   1988     1  0.0000000  1.6038667  3
   1317   1315   1994   1988     1  0.0000000  1.6038667  3
   1320   1321   1333   1334     1  0.0000000  0.6508444  3
   1320   1321   1333   1335     1  0.0000000  0.6508444  3
   1320   1324   1336   1337     1  0.0000000  0.6508444  3
   1320   1324   1336   1338     1  0.0000000  0.6508444  3
   1320   1327   1330   1331     1  0.0000000  0.6508444  3
   1320   1327   1330   1332     1  0.0000000  0.6508444  3
   1321   1320   1324   1325     1  0.0000000  0.6508444  3
   1321   1320   1324   1326     1  0.0000000  0.6508444  3
   1321   1320   1327   1328     1  0.0000000  0.6508444  3
   1321   1320   1327   1329     1  0.0000000  0.6508444  3
   1321   1333   1345   1346     1  0.0000000  0.6508444  3
   1321   1333   1345   1347     1  0.0000000  0.6508444  3
   1322   1321   1320   1324     1  0.0000000  0.6508444  3
   1322   1321   1320   1327     1  0.0000000  0.6508444  3
   1322   1321   1320   1349     1  0.0000000  0.6508444  3
   1322   1321   1333   1345     1  0.0000000  0.6508444  3
   1322   1321   1333   1334     1  0.0000000  0.6508444  3
   1322   1321   1333   1335     1  0.0000000  0.6508444  3
   1323   1321   1320   1324     1  0.0000000  0.6508444  3
   1323   1321   1320   1327     1  0.0000000  0.6508444  3
   1323   1321   1320   1349     1  0.0000000  0.6508444  3
   1323   1321   1333   1345     1  0.0000000  0.6508444  3
   1323   1321   1333   1334     1  0.0000000  0.6508444  3
   1323   1321   1333   1335     1  0.0000000  0.6508444  3
   1324   1320   1327   1328     1  0.0000000  0.6508444  3
   1324   1320   1327   1329     1  0.0000000  0.6508444  3
   1324   1336   1342   1343     1  0.0000000  0.6508444  3
   1324   1336   1342   1344     1  0.0000000  0.6508444  3
   1325   1324   1320   1327     1  0.0000000  0.6508444  3
   1325   1324   1320   1349     1  0.0000000  0.6508444  3
   1325   1324   1336   1342     1  0.0000000  0.6508444  3
   1325   1324   1336   1337     1  0.0000000  0.6508444  3
   1325   1324   1336   1338     1  0.0000000  0.6508444  3
   1326   1324   1320   1327     1  0.0000000  0.6508444  3
   1326   1324   1320   1349     1  0.0000000  0.6508444  3
   1326   1324   1336   1342     1  0.0000000  0.6508444  3
   1326   1324   1336   1337     1  0.0000000  0.6508444  3
   1326   1324   1336   1338     1  0.0000000  0.6508444  3
   1327   1330   1339   1340     1  0.0000000  0.6508444  3
   1327   1330   1339   1341     1  0.0000000  0.6508444  3
   1328   1327   1320   1349     1  0.0000000  0.6508444  3
   1328   1327   1330   1339     1  0.0000000  0.6508444  3
   1328   1327   1330   1331     1  0.0000000  0.6508444  3
   1328   1327   1330   1332     1  0.0000000  0.6508444  3
   1329   1327   1320   1349     1  0.0000000  0.6508444  3
   1329   1327   1330   1339     1  0.0000000  0.6508444  3
   1329   1327   1330   1331     1  0.0000000  0.6508444  3
   1329   1327   1330   1332     1  0.0000000  0.6508444  3
   1330   1327   1320   1349     1  0.0000000  0.6508444  3
   1331   1330   1339   1348     1  0.0000000  1.0460000  1
   1331   1330   1339   1348     1  0.0000000  0.0000000  3
   1331   1330   1339   1340     1  0.0000000  0.6508444  3
   1331   1330   1339   1341     1  0.0000000  0.6508444  3
   1332   1330   1339   1348     1  0.0000000  1.0460000  1
   1332   1330   1339   1348     1  0.0000000  0.0000000  3
   1332   1330   1339   1340     1  0.0000000  0.6508444  3
   1332   1330   1339   1341     1  0.0000000  0.6508444  3
   1333   1321   1320   1349     1  0.0000000  0.6508444  3
   1334   1333   1345   2022     1  0.0000000  1.0460000  1
   1334   1333   1345   2022     1  0.0000000  0.0000000  3
   1334   1333   1345   1346     1  0.0000000  0.6508444  3
   1334   1333   1345   1347     1  0.0000000  0.6508444  3
   1335   1333   1345   2022     1  0.0000000  1.0460000  1
   1335   1333   1345   2022     1  0.0000000  0.0000000  3
   1335   1333   1345   1346     1  0.0000000  0.6508444  3
   1335   1333   1345   1347     1  0.0000000  0.6508444  3
   1336   1324   1320   1349     1  0.0000000  0.6508444  3
   1337   1336   1342   2008     1  0.0000000  1.0460000  1
   1337   1336   1342   2008     1  0.0000000  0.0000000  3
   1337   1336   1342   1343     1  0.0000000  0.6508444  3
   1337   1336   1342   1344     1  0.0000000  0.6508444  3
   1338   1336   1342   2008     1  0.0000000  1.0460000  1
   1338   1336   1342   2008     1  0.0000000  0.0000000  3
   1338   1336   1342   1343     1  0.0000000  0.6508444  3
   1338   1336   1342   1344     1  0.0000000  0.6508444  3
   1342   2008   2002   2003     1  0.0000000  1.6038667  3
   1342   2008   2002   2004     1  0.0000000  1.6038667  3
   1343   1342   2008   2002     1  0.0000000  1.6038667  3
   1344   1342   2008   2002     1  0.0000000  1.6038667  3
   1345   2022   2016   2017     1  0.0000000  1.6038667  3
   1345   2022   2016   2018     1  0.0000000  1.6038667  3
   1346   1345   2022   2016     1  0.0000000  1.6038667  3
   1347   1345   2022   2016     1  0.0000000  1.6038667  3
   1350   1351   1363   1364     1  0.0000000  0.6508444  3
   1350   1351   1363   1365     1  0.0000000  0.6508444  3
   1350   1354   1366   1367     1  0.0000000  0.6508444  3
   1350   1354   1366   1368     1  0.0000000  0.6508444  3
   1350   1357   1360   1361     1  0.0000000  0.6508444  3
   1350   1357   1360   1362     1  0.0000000  0.6508444  3
   1351   1350   1354   1355     1  0.0000000  0.6508444  3
   1351   1350   1354   1356     1  0.0000000  0.6508444  3
   1351   1350   1357   1358     1  0.0000000  0.6508444  3
   1351   1350   1357   1359     1  0.0000000  0.6508444  3
   1351   1363   1375   1376     1  0.0000000  0.6508444  3
   1351   1363   1375   1377     1  0.0000000  0.6508444  3
   1352   1351   1350   1354     1  0.0000000  0.6508444  3
   1352   1351   1350   1357     1  0.0000000  0.6508444  3
   1352   1351   1350   1379     1  0.0000000  0.6508444  3
   1352   1351   1363   1375     1  0.0000000  0.6508444  3
   1352   1351   1363   1364     1  0.0000000  0.6508444  3
   1352   1351   1363   1365     1  0.0000000  0.6508444  3
   1353   1351   1350   1354     1  0.0000000  0.6508444  3
   1353   1351   1350   1357     1  0.0000000  0.6508444  3
   1353   1351   1350   1379     1  0.0000000  0.6508444  3
   1353   1351   1363   1375     1  0.0000000  0.6508444  3
   1353   1351   1363   1364     1  0.0000000  0.6508444  3
   1353   1351   1363   1365     1  0.0000000  0.6508444  3
   1354   1350   1357   1358     1  0.0000000  0.6508444  3
   1354   1350   1357   1359     1  0.0000000  0.6508444  3
   1354   1366   1372   1373     1  0.0000000  0.6508444  3
   1354   1366   1372   1374     1  0.0000000  0.6508444  3
   1355   1354   1350   1357     1  0.0000000  0.6508444  3
   1355   1354   1350   1379     1  0.0000000  0.6508444  3
   1355   1354   1366   1372     1  0.0000000  0.6508444  3
   1355   1354   1366   1367     1  0.0000000  0.6508444  3
   1355   1354   1366   1368     1  0.0000000  0.6508444  3
   1356   1354   1350   1357     1  0.0000000  0.6508444  3
   1356   1354   1350   1379     1  0.0000000  0.6508444  3
   1356   1354   1366   1372     1  0.0000000  0.6508444  3
   1356   1354   1366   1367     1  0.0000000  0.6508444  3
   1356   1354   1366   1368     1  0.0000000  0.6508444  3
   1357   1360   1369   1370     1  0.0000000  0.6508444  3
   1357   1360   1369   1371     1  0.0000000  0.6508444  3
   1358   1357   1350   1379     1  0.0000000  0.6508444  3
   1358   1357   1360   1369     1  0.0000000  0.6508444  3
   1358   1357   1360   1361     1  0.0000000  0.6508444  3
   1358   1357   1360   1362     1  0.0000000  0.6508444  3
   1359   1357   1350   1379     1  0.0000000  0.6508444  3
   1359   1357   1360   1369     1  0.0000000  0.6508444  3
   1359   1357   1360   1361     1  0.0000000  0.6508444  3
   1359   1357   1360   1362     1  0.0000000  0.6508444  3
   1360   1357   1350   1379     1  0.0000000  0.6508444  3
   1361   1360   1369   1378     1  0.0000000  1.0460000  1
   1361   1360   1369   1378     1  0.0000000  0.0000000  3
   1361   1360   1369   1370     1  0.0000000  0.6508444  3
   1361   1360   1369   1371     1  0.0000000  0.6508444  3
   1362   1360   1369   1378     1  0.0000000  1.0460000  1
   1362   1360   1369   1378     1  0.0000000  0.0000000  3
   1362   1360   1369   1370     1  0.0000000  0.6508444  3
   1362   1360   1369   1371     1  0.0000000  0.6508444  3
   1363   1351   1350   1379     1  0.0000000  0.6508444  3
   1364   1363   1375   2050     1  0.0000000  1.0460000  1
   1364   1363   1375   2050     1  0.0000000  0.0000000  3
   1364   1363   1375   1376     1  0.0000000  0.6508444  3
   1364   1363   1375   1377     1  0.0000000  0.6508444  3
   1365   1363   1375   2050     1  0.0000000  1.0460000  1
   1365   1363   1375   2050     1  0.0000000  0.0000000  3
   1365   1363   1375   1376     1  0.0000000  0.6508444  3
   1365   1363   1375   1377     1  0.0000000  0.6508444  3
   1366   1354   1350   1379     1  0.0000000  0.6508444  3
   1367   1366   1372   2036     1  0.0000000  1.0460000  1
   1367   1366   1372   2036     1  0.0000000  0.0000000  3
   1367   1366   1372   1373     1  0.0000000  0.6508444  3
   1367   1366   1372   1374     1  0.0000000  0.6508444  3
   1368   1366   1372   2036     1  0.0000000  1.0460000  1
   1368   1366   1372   2036     1  0.0000000  0.0000000  3
   1368   1366   1372   1373     1  0.0000000  0.6508444  3
   1368   1366   1372   1374     1  0.0000000  0.6508444  3
   1372   2036   2030   2031     1  0.0000000  1.6038667  3
   1372   2036   2030   2032     1  0.0000000  1.6038667  3
   1373   1372   2036   2030     1  0.0000000  1.6038667  3
   1374   1372   2036   2030     1  0.0000000  1.6038667  3
   1375   2050   2044   2045     1  0.0000000  1.6038667  3
   1375   2050   2044   2046     1  0.0000000  1.6038667  3
   1376   1375   2050   2044     1  0.0000000  1.6038667  3
   1377   1375   2050   2044     1  0.0000000  1.6038667  3
   1380   1383   1386   1387     1  0.0000000  0.6508444  3
   1380   1383   1386   1388     1  0.0000000  0.6508444  3
   1381   1380   1383   1386     1  0.0000000  0.6508444  3
   1381   1380   1383   1384     1  0.0000000  0.6508444  3
   1381   1380   1383   1385     1  0.0000000  0.6508444  3
   1381   1380   1389   1390     1  0.0000000  0.6508444  3
   1381   1380   1389   1391     1  0.0000000  0.6508444  3
   1381   1380   1389   1393     1  0.0000000  0.6508444  3
   1382   1380   1383   1386     1  0.0000000  0.6508444  3
   1382   1380   1383   1384     1  0.0000000  0.6508444  3
   1382   1380   1383   1385     1  0.0000000  0.6508444  3
   1382   1380   1389   1390     1  0.0000000  0.6508444  3
   1382   1380   1389   1391     1  0.0000000  0.6508444  3
   1382   1380   1389   1393     1  0.0000000  0.6508444  3
   1383   1380   1389   1390     1  0.0000000  0.6508444  3
   1383   1380   1389   1391     1  0.0000000  0.6508444  3
   1383   1380   1389   1393     1  0.0000000  0.6508444  3
   1384   1383   1380   1389     1  0.0000000  0.6508444  3
   1384   1383   1386   1392     1  0.0000000  1.0460000  1
   1384   1383   1386   1392     1  0.0000000  0.0000000  3
   1384   1383   1386   1387     1  0.0000000  0.6508444  3
   1384   1383   1386   1388     1  0.0000000  0.6508444  3
   1385   1383   1380   1389     1  0.0000000  0.6508444  3
   1385   1383   1386   1392     1  0.0000000  1.0460000  1
   1385   1383   1386   1392     1  0.0000000  0.0000000  3
   1385   1383   1386   1387     1  0.0000000  0.6508444  3
   1385   1383   1386   1388     1  0.0000000  0.6508444  3
   1394   1397   1400   1401     1  0.0000000  0.6508444  3
   1394   1397   1400   1402     1  0.0000000  0.6508444  3
   1395   1394   1397   1400     1  0.0000000  0.6508444  3
   1395   1394   1397   1398     1  0.0000000  0.6508444  3
   1395   1394   1397   1399     1  0.0000000  0.6508444  3
   1395   1394   1403   1404     1  0.0000000  0.6508444  3
   1395   1394   1403   1405     1  0.0000000  0.6508444  3
   1395   1394   1403   1407     1  0.0000000  0.6508444  3
   1396   1394   1397   1400     1  0.0000000  0.6508444  3
   1396   1394   1397   1398     1  0.0000000  0.6508444  3
   1396   1394   1397   1399     1  0.0000000  0.6508444  3
   1396   1394   1403   1404     1  0.0000000  0.6508444  3
   1396   1394   1403   1405     1  0.0000000  0.6508444  3
   1396   1394   1403   1407     1  0.0000000  0.6508444  3
   1397   1394   1403   1404     1  0.0000000  0.6508444  3
   1397   1394   1403   1405     1  0.0000000  0.6508444  3
   1397   1394   1403   1407     1  0.0000000  0.6508444  3
   1398   1397   1400   1406     1  0.0000000  1.0460000  1
   1398   1397   1400   1406     1  0.0000000  0.0000000  3
   1398   1397   1400   1401     1  0.0000000  0.6508444  3
   1398   1397   1400   1402     1  0.0000000  0.6508444  3
   1398   1397   1394   1403     1  0.0000000  0.6508444  3
   1399   1397   1400   1406     1  0.0000000  1.0460000  1
   1399   1397   1400   1406     1  0.0000000  0.0000000  3
   1399   1397   1400   1401     1  0.0000000  0.6508444  3
   1399   1397   1400   1402     1  0.0000000  0.6508444  3
   1399   1397   1394   1403     1  0.0000000  0.6508444  3
   1408   1411   1414   1415     1  0.0000000  0.6508444  3
   1408   1411   1414   1416     1  0.0000000  0.6508444  3
   1409   1408   1411   1414     1  0.0000000  0.6508444  3
   1409   1408   1411   1412     1  0.0000000  0.6508444  3
   1409   1408   1411   1413     1  0.0000000  0.6508444  3
   1409   1408   1417   1418     1  0.0000000  0.6508444  3
   1409   1408   1417   1419     1  0.0000000  0.6508444  3
   1409   1408   1417   1421     1  0.0000000  0.6508444  3
   1410   1408   1411   1414     1  0.0000000  0.6508444  3
   1410   1408   1411   1412     1  0.0000000  0.6508444  3
   1410   1408   1411   1413     1  0.0000000  0.6508444  3
   1410   1408   1417   1418     1  0.0000000  0.6508444  3
   1410   1408   1417   1419     1  0.0000000  0.6508444  3
   1410   1408   1417   1421     1  0.0000000  0.6508444  3
   1411   1408   1417   1418     1  0.0000000  0.6508444  3
   1411   1408   1417   1419     1  0.0000000  0.6508444  3
   1411   1408   1417   1421     1  0.0000000  0.6508444  3
   1412   1411   1408   1417     1  0.0000000  0.6508444  3
   1412   1411   1414   1420     1  0.0000000  1.0460000  1
   1412   1411   1414   1420     1  0.0000000  0.0000000  3
   1412   1411   1414   1415     1  0.0000000  0.6508444  3
   1412   1411   1414   1416     1  0.0000000  0.6508444  3
   1413   1411   1408   1417     1  0.0000000  0.6508444  3
   1413   1411   1414   1420     1  0.0000000  1.0460000  1
   1413   1411   1414   1420     1  0.0000000  0.0000000  3
   1413   1411   1414   1415     1  0.0000000  0.6508444  3
   1413   1411   1414   1416     1  0.0000000  0.6508444  3
   1422   1425   1428   1429     1  0.0000000  0.6508444  3
   1422   1425   1428   1430     1  0.0000000  0.6508444  3
   1423   1422   1425   1428     1  0.0000000  0.6508444  3
   1423   1422   1425   1426     1  0.0000000  0.6508444  3
   1423   1422   1425   1427     1  0.0000000  0.6508444  3
   1423   1422   1431   1432     1  0.0000000  0.6508444  3
   1423   1422   1431   1433     1  0.0000000  0.6508444  3
   1423   1422   1431   1435     1  0.0000000  0.6508444  3
   1424   1422   1425   1428     1  0.0000000  0.6508444  3
   1424   1422   1425   1426     1  0.0000000  0.6508444  3
   1424   1422   1425   1427     1  0.0000000  0.6508444  3
   1424   1422   1431   1432     1  0.0000000  0.6508444  3
   1424   1422   1431   1433     1  0.0000000  0.6508444  3
   1424   1422   1431   1435     1  0.0000000  0.6508444  3
   1425   1422   1431   1432     1  0.0000000  0.6508444  3
   1425   1422   1431   1433     1  0.0000000  0.6508444  3
   1425   1422   1431   1435     1  0.0000000  0.6508444  3
   1426   1425   1428   1434     1  0.0000000  1.0460000  1
   1426   1425   1428   1434     1  0.0000000  0.0000000  3
   1426   1425   1428   1429     1  0.0000000  0.6508444  3
   1426   1425   1428   1430     1  0.0000000  0.6508444  3
   1426   1425   1422   1431     1  0.0000000  0.6508444  3
   1427   1425   1428   1434     1  0.0000000  1.0460000  1
   1427   1425   1428   1434     1  0.0000000  0.0000000  3
   1427   1425   1428   1429     1  0.0000000  0.6508444  3
   1427   1425   1428   1430     1  0.0000000  0.6508444  3
   1427   1425   1422   1431     1  0.0000000  0.6508444  3
   1436   1439   1442   1443     1  0.0000000  0.6508444  3
   1436   1439   1442   1444     1  0.0000000  0.6508444  3
   1437   1436   1439   1442     1  0.0000000  0.6508444  3
   1437   1436   1439   1440     1  0.0000000  0.6508444  3
   1437   1436   1439   1441     1  0.0000000  0.6508444  3
   1437   1436   1445   1446     1  0.0000000  0.6508444  3
   1437   1436   1445   1447     1  0.0000000  0.6508444  3
   1437   1436   1445   1449     1  0.0000000  0.6508444  3
   1438   1436   1439   1442     1  0.0000000  0.6508444  3
   1438   1436   1439   1440     1  0.0000000  0.6508444  3
   1438   1436   1439   1441     1  0.0000000  0.6508444  3
   1438   1436   1445   1446     1  0.0000000  0.6508444  3
   1438   1436   1445   1447     1  0.0000000  0.6508444  3
   1438   1436   1445   1449     1  0.0000000  0.6508444  3
   1439   1436   1445   1446     1  0.0000000  0.6508444  3
   1439   1436   1445   1447     1  0.0000000  0.6508444  3
   1439   1436   1445   1449     1  0.0000000  0.6508444  3
   1440   1439   1436   1445     1  0.0000000  0.6508444  3
   1440   1439   1442   1448     1  0.0000000  1.0460000  1
   1440   1439   1442   1448     1  0.0000000  0.0000000  3
   1440   1439   1442   1443     1  0.0000000  0.6508444  3
   1440   1439   1442   1444     1  0.0000000  0.6508444  3
   1441   1439   1436   1445     1  0.0000000  0.6508444  3
   1441   1439   1442   1448     1  0.0000000  1.0460000  1
   1441   1439   1442   1448     1  0.0000000  0.0000000  3
   1441   1439   1442   1443     1  0.0000000  0.6508444  3
   1441   1439   1442   1444     1  0.0000000  0.6508444  3
   1450   1453   1456   1457     1  0.0000000  0.6508444  3
   1450   1453   1456   1458     1  0.0000000  0.6508444  3
   1451   1450   1453   1456     1  0.0000000  0.6508444  3
   1451   1450   1453   1454     1  0.0000000  0.6508444  3
   1451   1450   1453   1455     1  0.0000000  0.6508444  3
   1451   1450   1459   1460     1  0.0000000  0.6508444  3
   1451   1450   1459   1461     1  0.0000000  0.6508444  3
   1451   1450   1459   1463     1  0.0000000  0.6508444  3
   1452   1450   1453   1456     1  0.0000000  0.6508444  3
   1452   1450   1453   1454     1  0.0000000  0.6508444  3
   1452   1450   1453   1455     1  0.0000000  0.6508444  3
   1452   1450   1459   1460     1  0.0000000  0.6508444  3
   1452   1450   1459   1461     1  0.0000000  0.6508444  3
   1452   1450   1459   1463     1  0.0000000  0.6508444  3
   1453   1450   1459   1460     1  0.0000000  0.6508444  3
   1453   1450   1459   1461     1  0.0000000  0.6508444  3
   1453   1450   1459   1463     1  0.0000000  0.6508444  3
   1454   1453   1456   1462     1  0.0000000  1.0460000  1
   1454   1453   1456   1462     1  0.0000000  0.0000000  3
   1454   1453   1456   1457     1  0.0000000  0.6508444  3
   1454   1453   1456   1458     1  0.0000000  0.6508444  3
   1454   1453   1450   1459     1  0.0000000  0.6508444  3
   1455   1453   1456   1462     1  0.0000000  1.0460000  1
   1455   1453   1456   1462     1  0.0000000  0.0000000  3
   1455   1453   1456   1457     1  0.0000000  0.6508444  3
   1455   1453   1456   1458     1  0.0000000  0.6508444  3
   1455   1453   1450   1459     1  0.0000000  0.6508444  3
   1464   1467   1470   1471     1  0.0000000  0.6508444  3
   1464   1467   1470   1472     1  0.0000000  0.6508444  3
   1465   1464   1467   1470     1  0.0000000  0.6508444  3
   1465   1464   1467   1468     1  0.0000000  0.6508444  3
   1465   1464   1467   1469     1  0.0000000  0.6508444  3
   1465   1464   1473   1474     1  0.0000000  0.6508444  3
   1465   1464   1473   1475     1  0.0000000  0.6508444  3
   1465   1464   1473   1477     1  0.0000000  0.6508444  3
   1466   1464   1467   1470     1  0.0000000  0.6508444  3
   1466   1464   1467   1468     1  0.0000000  0.6508444  3
   1466   1464   1467   1469     1  0.0000000  0.6508444  3
   1466   1464   1473   1474     1  0.0000000  0.6508444  3
   1466   1464   1473   1475     1  0.0000000  0.6508444  3
   1466   1464   1473   1477     1  0.0000000  0.6508444  3
   1467   1464   1473   1474     1  0.0000000  0.6508444  3
   1467   1464   1473   1475     1  0.0000000  0.6508444  3
   1467   1464   1473   1477     1  0.0000000  0.6508444  3
   1468   1467   1464   1473     1  0.0000000  0.6508444  3
   1468   1467   1470   1476     1  0.0000000  1.0460000  1
   1468   1467   1470   1476     1  0.0000000  0.0000000  3
   1468   1467   1470   1471     1  0.0000000  0.6508444  3
   1468   1467   1470   1472     1  0.0000000  0.6508444  3
   1469   1467   1464   1473     1  0.0000000  0.6508444  3
   1469   1467   1470   1476     1  0.0000000  1.0460000  1
   1469   1467   1470   1476     1  0.0000000  0.0000000  3
   1469   1467   1470   1471     1  0.0000000  0.6508444  3
   1469   1467   1470   1472     1  0.0000000  0.6508444  3
   1478   1481   1484   1485     1  0.0000000  0.6508444  3
   1478   1481   1484   1486     1  0.0000000  0.6508444  3
   1479   1478   1481   1484     1  0.0000000  0.6508444  3
   1479   1478   1481   1482     1  0.0000000  0.6508444  3
   1479   1478   1481   1483     1  0.0000000  0.6508444  3
   1479   1478   1487   1488     1  0.0000000  0.6508444  3
   1479   1478   1487   1489     1  0.0000000  0.6508444  3
   1479   1478   1487   1491     1  0.0000000  0.6508444  3
   1480   1478   1481   1484     1  0.0000000  0.6508444  3
   1480   1478   1481   1482     1  0.0000000  0.6508444  3
   1480   1478   1481   1483     1  0.0000000  0.6508444  3
   1480   1478   1487   1488     1  0.0000000  0.6508444  3
   1480   1478   1487   1489     1  0.0000000  0.6508444  3
   1480   1478   1487   1491     1  0.0000000  0.6508444  3
   1481   1478   1487   1488     1  0.0000000  0.6508444  3
   1481   1478   1487   1489     1  0.0000000  0.6508444  3
   1481   1478   1487   1491     1  0.0000000  0.6508444  3
   1482   1481   1484   1490     1  0.0000000  1.0460000  1
   1482   1481   1484   1490     1  0.0000000  0.0000000  3
   1482   1481   1484   1485     1  0.0000000  0.6508444  3
   1482   1481   1484   1486     1  0.0000000  0.6508444  3
   1482   1481   1478   1487     1  0.0000000  0.6508444  3
   1483   1481   1484   1490     1  0.0000000  1.0460000  1
   1483   1481   1484   1490     1  0.0000000  0.0000000  3
   1483   1481   1484   1485     1  0.0000000  0.6508444  3
   1483   1481   1484   1486     1  0.0000000  0.6508444  3
   1483   1481   1478   1487     1  0.0000000  0.6508444  3
   1492   1495   1498   1499     1  0.0000000  0.6508444  3
   1492   1495   1498   1500     1  0.0000000  0.6508444  3
   1493   1492   1495   1498     1  0.0000000  0.6508444  3
   1493   1492   1495   1496     1  0.0000000  0.6508444  3
   1493   1492   1495   1497     1  0.0000000  0.6508444  3
   1493   1492   1501   1502     1  0.0000000  0.6508444  3
   1493   1492   1501   1503     1  0.0000000  0.6508444  3
   1493   1492   1501   1505     1  0.0000000  0.6508444  3
   1494   1492   1495   1498     1  0.0000000  0.6508444  3
   1494   1492   1495   1496     1  0.0000000  0.6508444  3
   1494   1492   1495   1497     1  0.0000000  0.6508444  3
   1494   1492   1501   1502     1  0.0000000  0.6508444  3
   1494   1492   1501   1503     1  0.0000000  0.6508444  3
   1494   1492   1501   1505     1  0.0000000  0.6508444  3
   1495   1492   1501   1502     1  0.0000000  0.6508444  3
   1495   1492   1501   1503     1  0.0000000  0.6508444  3
   1495   1492   1501   1505     1  0.0000000  0.6508444  3
   1496   1495   1492   1501     1  0.0000000  0.6508444  3
   1496   1495   1498   1504     1  0.0000000  1.0460000  1
   1496   1495   1498   1504     1  0.0000000  0.0000000  3
   1496   1495   1498   1499     1  0.0000000  0.6508444  3
   1496   1495   1498   1500     1  0.0000000  0.6508444  3
   1497   1495   1492   1501     1  0.0000000  0.6508444  3
   1497   1495   1498   1504     1  0.0000000  1.0460000  1
   1497   1495   1498   1504     1  0.0000000  0.0000000  3
   1497   1495   1498   1499     1  0.0000000  0.6508444  3
   1497   1495   1498   1500     1  0.0000000  0.6508444  3
   1506   1509   1512   1513     1  0.0000000  0.6508444  3
   1506   1509   1512   1514     1  0.0000000  0.6508444  3
   1507   1506   1509   1512     1  0.0000000  0.6508444  3
   1507   1506   1509   1510     1  0.0000000  0.6508444  3
   1507   1506   1509   1511     1  0.0000000  0.6508444  3
   1507   1506   1515   1516     1  0.0000000  0.6508444  3
   1507   1506   1515   1517     1  0.0000000  0.6508444  3
   1507   1506   1515   1519     1  0.0000000  0.6508444  3
   1508   1506   1509   1512     1  0.0000000  0.6508444  3
   1508   1506   1509   1510     1  0.0000000  0.6508444  3
   1508   1506   1509   1511     1  0.0000000  0.6508444  3
   1508   1506   1515   1516     1  0.0000000  0.6508444  3
   1508   1506   1515   1517     1  0.0000000  0.6508444  3
   1508   1506   1515   1519     1  0.0000000  0.6508444  3
   1509   1506   1515   1516     1  0.0000000  0.6508444  3
   1509   1506   1515   1517     1  0.0000000  0.6508444  3
   1509   1506   1515   1519     1  0.0000000  0.6508444  3
   1510   1509   1512   1518     1  0.0000000  1.0460000  1
   1510   1509   1512   1518     1  0.0000000  0.0000000  3
   1510   1509   1512   1513     1  0.0000000  0.6508444  3
   1510   1509   1512   1514     1  0.0000000  0.6508444  3
   1510   1509   1506   1515     1  0.0000000  0.6508444  3
   1511   1509   1512   1518     1  0.0000000  1.0460000  1
   1511   1509   1512   1518     1  0.0000000  0.0000000  3
   1511   1509   1512   1513     1  0.0000000  0.6508444  3
   1511   1509   1512   1514     1  0.0000000  0.6508444  3
   1511   1509   1506   1515     1  0.0000000  0.6508444  3
   1520   1523   1526   1527     1  0.0000000  0.6508444  3
   1520   1523   1526   1528     1  0.0000000  0.6508444  3
   1521   1520   1523   1526     1  0.0000000  0.6508444  3
   1521   1520   1523   1524     1  0.0000000  0.6508444  3
   1521   1520   1523   1525     1  0.0000000  0.6508444  3
   1521   1520   1529   1530     1  0.0000000  0.6508444  3
   1521   1520   1529   1531     1  0.0000000  0.6508444  3
   1521   1520   1529   1533     1  0.0000000  0.6508444  3
   1522   1520   1523   1526     1  0.0000000  0.6508444  3
   1522   1520   1523   1524     1  0.0000000  0.6508444  3
   1522   1520   1523   1525     1  0.0000000  0.6508444  3
   1522   1520   1529   1530     1  0.0000000  0.6508444  3
   1522   1520   1529   1531     1  0.0000000  0.6508444  3
   1522   1520   1529   1533     1  0.0000000  0.6508444  3
   1523   1520   1529   1530     1  0.0000000  0.6508444  3
   1523   1520   1529   1531     1  0.0000000  0.6508444  3
   1523   1520   1529   1533     1  0.0000000  0.6508444  3
   1524   1523   1520   1529     1  0.0000000  0.6508444  3
   1524   1523   1526   1532     1  0.0000000  1.0460000  1
   1524   1523   1526   1532     1  0.0000000  0.0000000  3
   1524   1523   1526   1527     1  0.0000000  0.6508444  3
   1524   1523   1526   1528     1  0.0000000  0.6508444  3
   1525   1523   1520   1529     1  0.0000000  0.6508444  3
   1525   1523   1526   1532     1  0.0000000  1.0460000  1
   1525   1523   1526   1532     1  0.0000000  0.0000000  3
   1525   1523   1526   1527     1  0.0000000  0.6508444  3
   1525   1523   1526   1528     1  0.0000000  0.6508444  3
   1534   1537   1540   1541     1  0.0000000  0.6508444  3
   1534   1537   1540   1542     1  0.0000000  0.6508444  3
   1535   1534   1537   1540     1  0.0000000  0.6508444  3
   1535   1534   1537   1538     1  0.0000000  0.6508444  3
   1535   1534   1537   1539     1  0.0000000  0.6508444  3
   1535   1534   1543   1544     1  0.0000000  0.6508444  3
   1535   1534   1543   1545     1  0.0000000  0.6508444  3
   1535   1534   1543   1547     1  0.0000000  0.6508444  3
   1536   1534   1537   1540     1  0.0000000  0.6508444  3
   1536   1534   1537   1538     1  0.0000000  0.6508444  3
   1536   1534   1537   1539     1  0.0000000  0.6508444  3
   1536   1534   1543   1544     1  0.0000000  0.6508444  3
   1536   1534   1543   1545     1  0.0000000  0.6508444  3
   1536   1534   1543   1547     1  0.0000000  0.6508444  3
   1537   1534   1543   1544     1  0.0000000  0.6508444  3
   1537   1534   1543   1545     1  0.0000000  0.6508444  3
   1537   1534   1543   1547     1  0.0000000  0.6508444  3
   1538   1537   1540   1546     1  0.0000000  1.0460000  1
   1538   1537   1540   1546     1  0.0000000  0.0000000  3
   1538   1537   1540   1541     1  0.0000000  0.6508444  3
   1538   1537   1540   1542     1  0.0000000  0.6508444  3
   1538   1537   1534   1543     1  0.0000000  0.6508444  3
   1539   1537   1540   1546     1  0.0000000  1.0460000  1
   1539   1537   1540   1546     1  0.0000000  0.0000000  3
   1539   1537   1540   1541     1  0.0000000  0.6508444  3
   1539   1537   1540   1542     1  0.0000000  0.6508444  3
   1539   1537   1534   1543     1  0.0000000  0.6508444  3
   1548   1551   1554   1555     1  0.0000000  0.6508444  3
   1548   1551   1554   1556     1  0.0000000  0.6508444  3
   1549   1548   1551   1554     1  0.0000000  0.6508444  3
   1549   1548   1551   1552     1  0.0000000  0.6508444  3
   1549   1548   1551   1553     1  0.0000000  0.6508444  3
   1549   1548   1557   1558     1  0.0000000  0.6508444  3
   1549   1548   1557   1559     1  0.0000000  0.6508444  3
   1549   1548   1557   1561     1  0.0000000  0.6508444  3
   1550   1548   1551   1554     1  0.0000000  0.6508444  3
   1550   1548   1551   1552     1  0.0000000  0.6508444  3
   1550   1548   1551   1553     1  0.0000000  0.6508444  3
   1550   1548   1557   1558     1  0.0000000  0.6508444  3
   1550   1548   1557   1559     1  0.0000000  0.6508444  3
   1550   1548   1557   1561     1  0.0000000  0.6508444  3
   1551   1548   1557   1558     1  0.0000000  0.6508444  3
   1551   1548   1557   1559     1  0.0000000  0.6508444  3
   1551   1548   1557   1561     1  0.0000000  0.6508444  3
   1552   1551   1548   1557     1  0.0000000  0.6508444  3
   1552   1551   1554   1560     1  0.0000000  1.0460000  1
   1552   1551   1554   1560     1  0.0000000  0.0000000  3
   1552   1551   1554   1555     1  0.0000000  0.6508444  3
   1552   1551   1554   1556     1  0.0000000  0.6508444  3
   1553   1551   1548   1557     1  0.0000000  0.6508444  3
   1553   1551   1554   1560     1  0.0000000  1.0460000  1
   1553   1551   1554   1560     1  0.0000000  0.0000000  3
   1553   1551   1554   1555     1  0.0000000  0.6508444  3
   1553   1551   1554   1556     1  0.0000000  0.6508444  3
   1562   1565   1568   1569     1  0.0000000  0.6508444  3
   1562   1565   1568   1570     1  0.0000000  0.6508444  3
   1563   1562   1565   1568     1  0.0000000  0.6508444  3
   1563   1562   1565   1566     1  0.0000000  0.6508444  3
   1563   1562   1565   1567     1  0.0000000  0.6508444  3
   1563   1562   1571   1572     1  0.0000000  0.6508444  3
   1563   1562   1571   1573     1  0.0000000  0.6508444  3
   1563   1562   1571   1575     1  0.0000000  0.6508444  3
   1564   1562   1565   1568     1  0.0000000  0.6508444  3
   1564   1562   1565   1566     1  0.0000000  0.6508444  3
   1564   1562   1565   1567     1  0.0000000  0.6508444  3
   1564   1562   1571   1572     1  0.0000000  0.6508444  3
   1564   1562   1571   1573     1  0.0000000  0.6508444  3
   1564   1562   1571   1575     1  0.0000000  0.6508444  3
   1565   1562   1571   1572     1  0.0000000  0.6508444  3
   1565   1562   1571   1573     1  0.0000000  0.6508444  3
   1565   1562   1571   1575     1  0.0000000  0.6508444  3
   1566   1565   1568   1574     1  0.0000000  1.0460000  1
   1566   1565   1568   1574     1  0.0000000  0.0000000  3
   1566   1565   1568   1569     1  0.0000000  0.6508444  3
   1566   1565   1568   1570     1  0.0000000  0.6508444  3
   1566   1565   1562   1571     1  0.0000000  0.6508444  3
   1567   1565   1568   1574     1  0.0000000  1.0460000  1
   1567   1565   1568   1574     1  0.0000000  0.0000000  3
   1567   1565   1568   1569     1  0.0000000  0.6508444  3
   1567   1565   1568   1570     1  0.0000000  0.6508444  3
   1567   1565   1562   1571     1  0.0000000  0.6508444  3
   1576   1579   1582   1583     1  0.0000000  0.6508444  3
   1576   1579   1582   1584     1  0.0000000  0.6508444  3
   1577   1576   1579   1582     1  0.0000000  0.6508444  3
   1577   1576   1579   1580     1  0.0000000  0.6508444  3
   1577   1576   1579   1581     1  0.0000000  0.6508444  3
   1577   1576   1585   1586     1  0.0000000  0.6508444  3
   1577   1576   1585   1587     1  0.0000000  0.6508444  3
   1577   1576   1585   1589     1  0.0000000  0.6508444  3
   1578   1576   1579   1582     1  0.0000000  0.6508444  3
   1578   1576   1579   1580     1  0.0000000  0.6508444  3
   1578   1576   1579   1581     1  0.0000000  0.6508444  3
   1578   1576   1585   1586     1  0.0000000  0.6508444  3
   1578   1576   1585   1587     1  0.0000000  0.6508444  3
   1578   1576   1585   1589     1  0.0000000  0.6508444  3
   1579   1576   1585   1586     1  0.0000000  0.6508444  3
   1579   1576   1585   1587     1  0.0000000  0.6508444  3
   1579   1576   1585   1589     1  0.0000000  0.6508444  3
   1580   1579   1576   1585     1  0.0000000  0.6508444  3
   1580   1579   1582   1588     1  0.0000000  1.0460000  1
   1580   1579   1582   1588     1  0.0000000  0.0000000  3
   1580   1579   1582   1583     1  0.0000000  0.6508444  3
   1580   1579   1582   1584     1  0.0000000  0.6508444  3
   1581   1579   1576   1585     1  0.0000000  0.6508444  3
   1581   1579   1582   1588     1  0.0000000  1.0460000  1
   1581   1579   1582   1588     1  0.0000000  0.0000000  3
   1581   1579   1582   1583     1  0.0000000  0.6508444  3
   1581   1579   1582   1584     1  0.0000000  0.6508444  3
   1590   1593   1596   1597     1  0.0000000  0.6508444  3
   1590   1593   1596   1598     1  0.0000000  0.6508444  3
   1591   1590   1593   1596     1  0.0000000  0.6508444  3
   1591   1590   1593   1594     1  0.0000000  0.6508444  3
   1591   1590   1593   1595     1  0.0000000  0.6508444  3
   1591   1590   1599   1600     1  0.0000000  0.6508444  3
   1591   1590   1599   1601     1  0.0000000  0.6508444  3
   1591   1590   1599   1603     1  0.0000000  0.6508444  3
   1592   1590   1593   1596     1  0.0000000  0.6508444  3
   1592   1590   1593   1594     1  0.0000000  0.6508444  3
   1592   1590   1593   1595     1  0.0000000  0.6508444  3
   1592   1590   1599   1600     1  0.0000000  0.6508444  3
   1592   1590   1599   1601     1  0.0000000  0.6508444  3
   1592   1590   1599   1603     1  0.0000000  0.6508444  3
   1593   1590   1599   1600     1  0.0000000  0.6508444  3
   1593   1590   1599   1601     1  0.0000000  0.6508444  3
   1593   1590   1599   1603     1  0.0000000  0.6508444  3
   1594   1593   1596   1602     1  0.0000000  1.0460000  1
   1594   1593   1596   1602     1  0.0000000  0.0000000  3
   1594   1593   1596   1597     1  0.0000000  0.6508444  3
   1594   1593   1596   1598     1  0.0000000  0.6508444  3
   1594   1593   1590   1599     1  0.0000000  0.6508444  3
   1595   1593   1596   1602     1  0.0000000  1.0460000  1
   1595   1593   1596   1602     1  0.0000000  0.0000000  3
   1595   1593   1596   1597     1  0.0000000  0.6508444  3
   1595   1593   1596   1598     1  0.0000000  0.6508444  3
   1595   1593   1590   1599     1  0.0000000  0.6508444  3
   1604   1607   1610   1611     1  0.0000000  0.6508444  3
   1604   1607   1610   1612     1  0.0000000  0.6508444  3
   1605   1604   1607   1610     1  0.0000000  0.6508444  3
   1605   1604   1607   1608     1  0.0000000  0.6508444  3
   1605   1604   1607   1609     1  0.0000000  0.6508444  3
   1605   1604   1613   1614     1  0.0000000  0.6508444  3
   1605   1604   1613   1615     1  0.0000000  0.6508444  3
   1605   1604   1613   1617     1  0.0000000  0.6508444  3
   1606   1604   1607   1610     1  0.0000000  0.6508444  3
   1606   1604   1607   1608     1  0.0000000  0.6508444  3
   1606   1604   1607   1609     1  0.0000000  0.6508444  3
   1606   1604   1613   1614     1  0.0000000  0.6508444  3
   1606   1604   1613   1615     1  0.0000000  0.6508444  3
   1606   1604   1613   1617     1  0.0000000  0.6508444  3
   1607   1604   1613   1614     1  0.0000000  0.6508444  3
   1607   1604   1613   1615     1  0.0000000  0.6508444  3
   1607   1604   1613   1617     1  0.0000000  0.6508444  3
   1608   1607   1604   1613     1  0.0000000  0.6508444  3
   1608   1607   1610   1616     1  0.0000000  1.0460000  1
   1608   1607   1610   1616     1  0.0000000  0.0000000  3
   1608   1607   1610   1611     1  0.0000000  0.6508444  3
   1608   1607   1610   1612     1  0.0000000  0.6508444  3
   1609   1607   1604   1613     1  0.0000000  0.6508444  3
   1609   1607   1610   1616     1  0.0000000  1.0460000  1
   1609   1607   1610   1616     1  0.0000000  0.0000000  3
   1609   1607   1610   1611     1  0.0000000  0.6508444  3
   1609   1607   1610   1612     1  0.0000000  0.6508444  3
   1618   1621   1624   1625     1  0.0000000  0.6508444  3
   1618   1621   1624   1626     1  0.0000000  0.6508444  3
   1619   1618   1621   1624     1  0.0000000  0.6508444  3
   1619   1618   1621   1622     1  0.0000000  0.6508444  3
   1619   1618   1621   1623     1  0.0000000  0.6508444  3
   1619   1618   1627   1628     1  0.0000000  0.6508444  3
   1619   1618   1627   1629     1  0.0000000  0.6508444  3
   1619   1618   1627   1631     1  0.0000000  0.6508444  3
   1620   1618   1621   1624     1  0.0000000  0.6508444  3
   1620   1618   1621   1622     1  0.0000000  0.6508444  3
   1620   1618   1621   1623     1  0.0000000  0.6508444  3
   1620   1618   1627   1628     1  0.0000000  0.6508444  3
   1620   1618   1627   1629     1  0.0000000  0.6508444  3
   1620   1618   1627   1631     1  0.0000000  0.6508444  3
   1621   1618   1627   1628     1  0.0000000  0.6508444  3
   1621   1618   1627   1629     1  0.0000000  0.6508444  3
   1621   1618   1627   1631     1  0.0000000  0.6508444  3
   1622   1621   1624   1630     1  0.0000000  1.0460000  1
   1622   1621   1624   1630     1  0.0000000  0.0000000  3
   1622   1621   1624   1625     1  0.0000000  0.6508444  3
   1622   1621   1624   1626     1  0.0000000  0.6508444  3
   1622   1621   1618   1627     1  0.0000000  0.6508444  3
   1623   1621   1624   1630     1  0.0000000  1.0460000  1
   1623   1621   1624   1630     1  0.0000000  0.0000000  3
   1623   1621   1624   1625     1  0.0000000  0.6508444  3
   1623   1621   1624   1626     1  0.0000000  0.6508444  3
   1623   1621   1618   1627     1  0.0000000  0.6508444  3
   1632   1635   1638   1639     1  0.0000000  0.6508444  3
   1632   1635   1638   1640     1  0.0000000  0.6508444  3
   1633   1632   1635   1638     1  0.0000000  0.6508444  3
   1633   1632   1635   1636     1  0.0000000  0.6508444  3
   1633   1632   1635   1637     1  0.0000000  0.6508444  3
   1633   1632   1641   1642     1  0.0000000  0.6508444  3
   1633   1632   1641   1643     1  0.0000000  0.6508444  3
   1633   1632   1641   1645     1  0.0000000  0.6508444  3
   1634   1632   1635   1638     1  0.0000000  0.6508444  3
   1634   1632   1635   1636     1  0.0000000  0.6508444  3
   1634   1632   1635   1637     1  0.0000000  0.6508444  3
   1634   1632   1641   1642     1  0.0000000  0.6508444  3
   1634   1632   1641   1643     1  0.0000000  0.6508444  3
   1634   1632   1641   1645     1  0.0000000  0.6508444  3
   1635   1632   1641   1642     1  0.0000000  0.6508444  3
   1635   1632   1641   1643     1  0.0000000  0.6508444  3
   1635   1632   1641   1645     1  0.0000000  0.6508444  3
   1636   1635   1632   1641     1  0.0000000  0.6508444  3
   1636   1635   1638   1644     1  0.0000000  1.0460000  1
   1636   1635   1638   1644     1  0.0000000  0.0000000  3
   1636   1635   1638   1639     1  0.0000000  0.6508444  3
   1636   1635   1638   1640     1  0.0000000  0.6508444  3
   1637   1635   1632   1641     1  0.0000000  0.6508444  3
   1637   1635   1638   1644     1  0.0000000  1.0460000  1
   1637   1635   1638   1644     1  0.0000000  0.0000000  3
   1637   1635   1638   1639     1  0.0000000  0.6508444  3
   1637   1635   1638   1640     1  0.0000000  0.6508444  3
   1646   1649   1652   1653     1  0.0000000  0.6508444  3
   1646   1649   1652   1654     1  0.0000000  0.6508444  3
   1647   1646   1649   1652     1  0.0000000  0.6508444  3
   1647   1646   1649   1650     1  0.0000000  0.6508444  3
   1647   1646   1649   1651     1  0.0000000  0.6508444  3
   1647   1646   1655   1656     1  0.0000000  0.6508444  3
   1647   1646   1655   1657     1  0.0000000  0.6508444  3
   1647   1646   1655   1659     1  0.0000000  0.6508444  3
   1648   1646   1649   1652     1  0.0000000  0.6508444  3
   1648   1646   1649   1650     1  0.0000000  0.6508444  3
   1648   1646   1649   1651     1  0.0000000  0.6508444  3
   1648   1646   1655   1656     1  0.0000000  0.6508444  3
   1648   1646   1655   1657     1  0.0000000  0.6508444  3
   1648   1646   1655   1659     1  0.0000000  0.6508444  3
   1649   1646   1655   1656     1  0.0000000  0.6508444  3
   1649   1646   1655   1657     1  0.0000000  0.6508444  3
   1649   1646   1655   1659     1  0.0000000  0.6508444  3
   1650   1649   1652   1658     1  0.0000000  1.0460000  1
   1650   1649   1652   1658     1  0.0000000  0.0000000  3
   1650   1649   1652   1653     1  0.0000000  0.6508444  3
   1650   1649   1652   1654     1  0.0000000  0.6508444  3
   1650   1649   1646   1655     1  0.0000000  0.6508444  3
   1651   1649   1652   1658     1  0.0000000  1.0460000  1
   1651   1649   1652   1658     1  0.0000000  0.0000000  3
   1651   1649   1652   1653     1  0.0000000  0.6508444  3
   1651   1649   1652   1654     1  0.0000000  0.6508444  3
   1651   1649   1646   1655     1  0.0000000  0.6508444  3
   1660   1663   1666   1667     1  0.0000000  0.6508444  3
   1660   1663   1666   1668     1  0.0000000  0.6508444  3
   1661   1660   1663   1666     1  0.0000000  0.6508444  3
   1661   1660   1663   1664     1  0.0000000  0.6508444  3
   1661   1660   1663   1665     1  0.0000000  0.6508444  3
   1661   1660   1669   1670     1  0.0000000  0.6508444  3
   1661   1660   1669   1671     1  0.0000000  0.6508444  3
   1661   1660   1669   1673     1  0.0000000  0.6508444  3
   1662   1660   1663   1666     1  0.0000000  0.6508444  3
   1662   1660   1663   1664     1  0.0000000  0.6508444  3
   1662   1660   1663   1665     1  0.0000000  0.6508444  3
   1662   1660   1669   1670     1  0.0000000  0.6508444  3
   1662   1660   1669   1671     1  0.0000000  0.6508444  3
   1662   1660   1669   1673     1  0.0000000  0.6508444  3
   1663   1660   1669   1670     1  0.0000000  0.6508444  3
   1663   1660   1669   1671     1  0.0000000  0.6508444  3
   1663   1660   1669   1673     1  0.0000000  0.6508444  3
   1664   1663   1660   1669     1  0.0000000  0.6508444  3
   1664   1663   1666   1672     1  0.0000000  1.0460000  1
   1664   1663   1666   1672     1  0.0000000  0.0000000  3
   1664   1663   1666   1667     1  0.0000000  0.6508444  3
   1664   1663   1666   1668     1  0.0000000  0.6508444  3
   1665   1663   1660   1669     1  0.0000000  0.6508444  3
   1665   1663   1666   1672     1  0.0000000  1.0460000  1
   1665   1663   1666   1672     1  0.0000000  0.0000000  3
   1665   1663   1666   1667     1  0.0000000  0.6508444  3
   1665   1663   1666   1668     1  0.0000000  0.6508444  3
   1674   1677   1680   1681     1  0.0000000  0.6508444  3
   1674   1677   1680   1682     1  0.0000000  0.6508444  3
   1675   1674   1677   1680     1  0.0000000  0.6508444  3
   1675   1674   1677   1678     1  0.0000000  0.6508444  3
   1675   1674   1677   1679     1  0.0000000  0.6508444  3
   1675   1674   1683   1684     1  0.0000000  0.6508444  3
   1675   1674   1683   1685     1  0.0000000  0.6508444  3
   1675   1674   1683   1687     1  0.0000000  0.6508444  3
   1676   1674   1677   1680     1  0.0000000  0.6508444  3
   1676   1674   1677   1678     1  0.0000000  0.6508444  3
   1676   1674   1677   1679     1  0.0000000  0.6508444  3
   1676   1674   1683   1684     1  0.0000000  0.6508444  3
   1676   1674   1683   1685     1  0.0000000  0.6508444  3
   1676   1674   1683   1687     1  0.0000000  0.6508444  3
   1677   1674   1683   1684     1  0.0000000  0.6508444  3
   1677   1674   1683   1685     1  0.0000000  0.6508444  3
   1677   1674   1683   1687     1  0.0000000  0.6508444  3
   1678   1677   1680   1686     1  0.0000000  1.0460000  1
   1678   1677   1680   1686     1  0.0000000  0.0000000  3
   1678   1677   1680   1681     1  0.0000000  0.6508444  3
   1678   1677   1680   1682     1  0.0000000  0.6508444  3
   1678   1677   1674   1683     1  0.0000000  0.6508444  3
   1679   1677   1680   1686     1  0.0000000  1.0460000  1
   1679   1677   1680   1686     1  0.0000000  0.0000000  3
   1679   1677   1680   1681     1  0.0000000  0.6508444  3
   1679   1677   1680   1682     1  0.0000000  0.6508444  3
   1679   1677   1674   1683     1  0.0000000  0.6508444  3
   1688   1691   1694   1695     1  0.0000000  0.6508444  3
   1688   1691   1694   1696     1  0.0000000  0.6508444  3
   1689   1688   1691   1694     1  0.0000000  0.6508444  3
   1689   1688   1691   1692     1  0.0000000  0.6508444  3
   1689   1688   1691   1693     1  0.0000000  0.6508444  3
   1689   1688   1697   1698     1  0.0000000  0.6508444  3
   1689   1688   1697   1699     1  0.0000000  0.6508444  3
   1689   1688   1697   1701     1  0.0000000  0.6508444  3
   1690   1688   1691   1694     1  0.0000000  0.6508444  3
   1690   1688   1691   1692     1  0.0000000  0.6508444  3
   1690   1688   1691   1693     1  0.0000000  0.6508444  3
   1690   1688   1697   1698     1  0.0000000  0.6508444  3
   1690   1688   1697   1699     1  0.0000000  0.6508444  3
   1690   1688   1697   1701     1  0.0000000  0.6508444  3
   1691   1688   1697   1698     1  0.0000000  0.6508444  3
   1691   1688   1697   1699     1  0.0000000  0.6508444  3
   1691   1688   1697   1701     1  0.0000000  0.6508444  3
   1692   1691   1688   1697     1  0.0000000  0.6508444  3
   1692   1691   1694   1700     1  0.0000000  1.0460000  1
   1692   1691   1694   1700     1  0.0000000  0.0000000  3
   1692   1691   1694   1695     1  0.0000000  0.6508444  3
   1692   1691   1694   1696     1  0.0000000  0.6508444  3
   1693   1691   1688   1697     1  0.0000000  0.6508444  3
   1693   1691   1694   1700     1  0.0000000  1.0460000  1
   1693   1691   1694   1700     1  0.0000000  0.0000000  3
   1693   1691   1694   1695     1  0.0000000  0.6508444  3
   1693   1691   1694   1696     1  0.0000000  0.6508444  3
   1702   1705   1708   1709     1  0.0000000  0.6508444  3
   1702   1705   1708   1710     1  0.0000000  0.6508444  3
   1703   1702   1705   1708     1  0.0000000  0.6508444  3
   1703   1702   1705   1706     1  0.0000000  0.6508444  3
   1703   1702   1705   1707     1  0.0000000  0.6508444  3
   1703   1702   1711   1712     1  0.0000000  0.6508444  3
   1703   1702   1711   1713     1  0.0000000  0.6508444  3
   1703   1702   1711   1715     1  0.0000000  0.6508444  3
   1704   1702   1705   1708     1  0.0000000  0.6508444  3
   1704   1702   1705   1706     1  0.0000000  0.6508444  3
   1704   1702   1705   1707     1  0.0000000  0.6508444  3
   1704   1702   1711   1712     1  0.0000000  0.6508444  3
   1704   1702   1711   1713     1  0.0000000  0.6508444  3
   1704   1702   1711   1715     1  0.0000000  0.6508444  3
   1705   1702   1711   1712     1  0.0000000  0.6508444  3
   1705   1702   1711   1713     1  0.0000000  0.6508444  3
   1705   1702   1711   1715     1  0.0000000  0.6508444  3
   1706   1705   1708   1714     1  0.0000000  1.0460000  1
   1706   1705   1708   1714     1  0.0000000  0.0000000  3
   1706   1705   1708   1709     1  0.0000000  0.6508444  3
   1706   1705   1708   1710     1  0.0000000  0.6508444  3
   1706   1705   1702   1711     1  0.0000000  0.6508444  3
   1707   1705   1708   1714     1  0.0000000  1.0460000  1
   1707   1705   1708   1714     1  0.0000000  0.0000000  3
   1707   1705   1708   1709     1  0.0000000  0.6508444  3
   1707   1705   1708   1710     1  0.0000000  0.6508444  3
   1707   1705   1702   1711     1  0.0000000  0.6508444  3
   1716   1719   1722   1723     1  0.0000000  0.6508444  3
   1716   1719   1722   1724     1  0.0000000  0.6508444  3
   1717   1716   1719   1722     1  0.0000000  0.6508444  3
   1717   1716   1719   1720     1  0.0000000  0.6508444  3
   1717   1716   1719   1721     1  0.0000000  0.6508444  3
   1717   1716   1725   1726     1  0.0000000  0.6508444  3
   1717   1716   1725   1727     1  0.0000000  0.6508444  3
   1717   1716   1725   1729     1  0.0000000  0.6508444  3
   1718   1716   1719   1722     1  0.0000000  0.6508444  3
   1718   1716   1719   1720     1  0.0000000  0.6508444  3
   1718   1716   1719   1721     1  0.0000000  0.6508444  3
   1718   1716   1725   1726     1  0.0000000  0.6508444  3
   1718   1716   1725   1727     1  0.0000000  0.6508444  3
   1718   1716   1725   1729     1  0.0000000  0.6508444  3
   1719   1716   1725   1726     1  0.0000000  0.6508444  3
   1719   1716   1725   1727     1  0.0000000  0.6508444  3
   1719   1716   1725   1729     1  0.0000000  0.6508444  3
   1720   1719   1716   1725     1  0.0000000  0.6508444  3
   1720   1719   1722   1728     1  0.0000000  1.0460000  1
   1720   1719   1722   1728     1  0.0000000  0.0000000  3
   1720   1719   1722   1723     1  0.0000000  0.6508444  3
   1720   1719   1722   1724     1  0.0000000  0.6508444  3
   1721   1719   1716   1725     1  0.0000000  0.6508444  3
   1721   1719   1722   1728     1  0.0000000  1.0460000  1
   1721   1719   1722   1728     1  0.0000000  0.0000000  3
   1721   1719   1722   1723     1  0.0000000  0.6508444  3
   1721   1719   1722   1724     1  0.0000000  0.6508444  3
   1730   1733   1736   1737     1  0.0000000  0.6508444  3
   1730   1733   1736   1738     1  0.0000000  0.6508444  3
   1731   1730   1733   1736     1  0.0000000  0.6508444  3
   1731   1730   1733   1734     1  0.0000000  0.6508444  3
   1731   1730   1733   1735     1  0.0000000  0.6508444  3
   1731   1730   1739   1740     1  0.0000000  0.6508444  3
   1731   1730   1739   1741     1  0.0000000  0.6508444  3
   1731   1730   1739   1743     1  0.0000000  0.6508444  3
   1732   1730   1733   1736     1  0.0000000  0.6508444  3
   1732   1730   1733   1734     1  0.0000000  0.6508444  3
   1732   1730   1733   1735     1  0.0000000  0.6508444  3
   1732   1730   1739   1740     1  0.0000000  0.6508444  3
   1732   1730   1739   1741     1  0.0000000  0.6508444  3
   1732   1730   1739   1743     1  0.0000000  0.6508444  3
   1733   1730   1739   1740     1  0.0000000  0.6508444  3
   1733   1730   1739   1741     1  0.0000000  0.6508444  3
   1733   1730   1739   1743     1  0.0000000  0.6508444  3
   1734   1733   1736   1742     1  0.0000000  1.0460000  1
   1734   1733   1736   1742     1  0.0000000  0.0000000  3
   1734   1733   1736   1737     1  0.0000000  0.6508444  3
   1734   1733   1736   1738     1  0.0000000  0.6508444  3
   1734   1733   1730   1739     1  0.0000000  0.6508444  3
   1735   1733   1736   1742     1  0.0000000  1.0460000  1
   1735   1733   1736   1742     1  0.0000000  0.0000000  3
   1735   1733   1736   1737     1  0.0000000  0.6508444  3
   1735   1733   1736   1738     1  0.0000000  0.6508444  3
   1735   1733   1730   1739     1  0.0000000  0.6508444  3
   1744   1747   1750   1751     1  0.0000000  0.6508444  3
   1744   1747   1750   1752     1  0.0000000  0.6508444  3
   1745   1744   1747   1750     1  0.0000000  0.6508444  3
   1745   1744   1747   1748     1  0.0000000  0.6508444  3
   1745   1744   1747   1749     1  0.0000000  0.6508444  3
   1745   1744   1753   1754     1  0.0000000  0.6508444  3
   1745   1744   1753   1755     1  0.0000000  0.6508444  3
   1745   1744   1753   1757     1  0.0000000  0.6508444  3
   1746   1744   1747   1750     1  0.0000000  0.6508444  3
   1746   1744   1747   1748     1  0.0000000  0.6508444  3
   1746   1744   1747   1749     1  0.0000000  0.6508444  3
   1746   1744   1753   1754     1  0.0000000  0.6508444  3
   1746   1744   1753   1755     1  0.0000000  0.6508444  3
   1746   1744   1753   1757     1  0.0000000  0.6508444  3
   1747   1744   1753   1754     1  0.0000000  0.6508444  3
   1747   1744   1753   1755     1  0.0000000  0.6508444  3
   1747   1744   1753   1757     1  0.0000000  0.6508444  3
   1748   1747   1744   1753     1  0.0000000  0.6508444  3
   1748   1747   1750   1756     1  0.0000000  1.0460000  1
   1748   1747   1750   1756     1  0.0000000  0.0000000  3
   1748   1747   1750   1751     1  0.0000000  0.6508444  3
   1748   1747   1750   1752     1  0.0000000  0.6508444  3
   1749   1747   1744   1753     1  0.0000000  0.6508444  3
   1749   1747   1750   1756     1  0.0000000  1.0460000  1
   1749   1747   1750   1756     1  0.0000000  0.0000000  3
   1749   1747   1750   1751     1  0.0000000  0.6508444  3
   1749   1747   1750   1752     1  0.0000000  0.6508444  3
   1758   1761   1764   1765     1  0.0000000  0.6508444  3
   1758   1761   1764   1766     1  0.0000000  0.6508444  3
   1759   1758   1761   1764     1  0.0000000  0.6508444  3
   1759   1758   1761   1762     1  0.0000000  0.6508444  3
   1759   1758   1761   1763     1  0.0000000  0.6508444  3
   1759   1758   1767   1768     1  0.0000000  0.6508444  3
   1759   1758   1767   1769     1  0.0000000  0.6508444  3
   1759   1758   1767   1771     1  0.0000000  0.6508444  3
   1760   1758   1761   1764     1  0.0000000  0.6508444  3
   1760   1758   1761   1762     1  0.0000000  0.6508444  3
   1760   1758   1761   1763     1  0.0000000  0.6508444  3
   1760   1758   1767   1768     1  0.0000000  0.6508444  3
   1760   1758   1767   1769     1  0.0000000  0.6508444  3
   1760   1758   1767   1771     1  0.0000000  0.6508444  3
   1761   1758   1767   1768     1  0.0000000  0.6508444  3
   1761   1758   1767   1769     1  0.0000000  0.6508444  3
   1761   1758   1767   1771     1  0.0000000  0.6508444  3
   1762   1761   1764   1770     1  0.0000000  1.0460000  1
   1762   1761   1764   1770     1  0.0000000  0.0000000  3
   1762   1761   1764   1765     1  0.0000000  0.6508444  3
   1762   1761   1764   1766     1  0.0000000  0.6508444  3
   1762   1761   1758   1767     1  0.0000000  0.6508444  3
   1763   1761   1764   1770     1  0.0000000  1.0460000  1
   1763   1761   1764   1770     1  0.0000000  0.0000000  3
   1763   1761   1764   1765     1  0.0000000  0.6508444  3
   1763   1761   1764   1766     1  0.0000000  0.6508444  3
   1763   1761   1758   1767     1  0.0000000  0.6508444  3
   1772   1775   1778   1779     1  0.0000000  0.6508444  3
   1772   1775   1778   1780     1  0.0000000  0.6508444  3
   1773   1772   1775   1778     1  0.0000000  0.6508444  3
   1773   1772   1775   1776     1  0.0000000  0.6508444  3
   1773   1772   1775   1777     1  0.0000000  0.6508444  3
   1773   1772   1781   1782     1  0.0000000  0.6508444  3
   1773   1772   1781   1783     1  0.0000000  0.6508444  3
   1773   1772   1781   1785     1  0.0000000  0.6508444  3
   1774   1772   1775   1778     1  0.0000000  0.6508444  3
   1774   1772   1775   1776     1  0.0000000  0.6508444  3
   1774   1772   1775   1777     1  0.0000000  0.6508444  3
   1774   1772   1781   1782     1  0.0000000  0.6508444  3
   1774   1772   1781   1783     1  0.0000000  0.6508444  3
   1774   1772   1781   1785     1  0.0000000  0.6508444  3
   1775   1772   1781   1782     1  0.0000000  0.6508444  3
   1775   1772   1781   1783     1  0.0000000  0.6508444  3
   1775   1772   1781   1785     1  0.0000000  0.6508444  3
   1776   1775   1772   1781     1  0.0000000  0.6508444  3
   1776   1775   1778   1784     1  0.0000000  1.0460000  1
   1776   1775   1778   1784     1  0.0000000  0.0000000  3
   1776   1775   1778   1779     1  0.0000000  0.6508444  3
   1776   1775   1778   1780     1  0.0000000  0.6508444  3
   1777   1775   1772   1781     1  0.0000000  0.6508444  3
   1777   1775   1778   1784     1  0.0000000  1.0460000  1
   1777   1775   1778   1784     1  0.0000000  0.0000000  3
   1777   1775   1778   1779     1  0.0000000  0.6508444  3
   1777   1775   1778   1780     1  0.0000000  0.6508444  3
   1786   1789   1792   1793     1  0.0000000  0.6508444  3
   1786   1789   1792   1794     1  0.0000000  0.6508444  3
   1787   1786   1789   1792     1  0.0000000  0.6508444  3
   1787   1786   1789   1790     1  0.0000000  0.6508444  3
   1787   1786   1789   1791     1  0.0000000  0.6508444  3
   1787   1786   1795   1796     1  0.0000000  0.6508444  3
   1787   1786   1795   1797     1  0.0000000  0.6508444  3
   1787   1786   1795   1799     1  0.0000000  0.6508444  3
   1788   1786   1789   1792     1  0.0000000  0.6508444  3
   1788   1786   1789   1790     1  0.0000000  0.6508444  3
   1788   1786   1789   1791     1  0.0000000  0.6508444  3
   1788   1786   1795   1796     1  0.0000000  0.6508444  3
   1788   1786   1795   1797     1  0.0000000  0.6508444  3
   1788   1786   1795   1799     1  0.0000000  0.6508444  3
   1789   1786   1795   1796     1  0.0000000  0.6508444  3
   1789   1786   1795   1797     1  0.0000000  0.6508444  3
   1789   1786   1795   1799     1  0.0000000  0.6508444  3
   1790   1789   1792   1798     1  0.0000000  1.0460000  1
   1790   1789   1792   1798     1  0.0000000  0.0000000  3
   1790   1789   1792   1793     1  0.0000000  0.6508444  3
   1790   1789   1792   1794     1  0.0000000  0.6508444  3
   1790   1789   1786   1795     1  0.0000000  0.6508444  3
   1791   1789   1792   1798     1  0.0000000  1.0460000  1
   1791   1789   1792   1798     1  0.0000000  0.0000000  3
   1791   1789   1792   1793     1  0.0000000  0.6508444  3
   1791   1789   1792   1794     1  0.0000000  0.6508444  3
   1791   1789   1786   1795     1  0.0000000  0.6508444  3
   1800   1803   1806   1807     1  0.0000000  0.6508444  3
   1800   1803   1806   1808     1  0.0000000  0.6508444  3
   1801   1800   1803   1806     1  0.0000000  0.6508444  3
   1801   1800   1803   1804     1  0.0000000  0.6508444  3
   1801   1800   1803   1805     1  0.0000000  0.6508444  3
   1801   1800   1809   1810     1  0.0000000  0.6508444  3
   1801   1800   1809   1811     1  0.0000000  0.6508444  3
   1801   1800   1809   1813     1  0.0000000  0.6508444  3
   1802   1800   1803   1806     1  0.0000000  0.6508444  3
   1802   1800   1803   1804     1  0.0000000  0.6508444  3
   1802   1800   1803   1805     1  0.0000000  0.6508444  3
   1802   1800   1809   1810     1  0.0000000  0.6508444  3
   1802   1800   1809   1811     1  0.0000000  0.6508444  3
   1802   1800   1809   1813     1  0.0000000  0.6508444  3
   1803   1800   1809   1810     1  0.0000000  0.6508444  3
   1803   1800   1809   1811     1  0.0000000  0.6508444  3
   1803   1800   1809   1813     1  0.0000000  0.6508444  3
   1804   1803   1800   1809     1  0.0000000  0.6508444  3
   1804   1803   1806   1812     1  0.0000000  1.0460000  1
   1804   1803   1806   1812     1  0.0000000  0.0000000  3
   1804   1803   1806   1807     1  0.0000000  0.6508444  3
   1804   1803   1806   1808     1  0.0000000  0.6508444  3
   1805   1803   1800   1809     1  0.0000000  0.6508444  3
   1805   1803   1806   1812     1  0.0000000  1.0460000  1
   1805   1803   1806   1812     1  0.0000000  0.0000000  3
   1805   1803   1806   1807     1  0.0000000  0.6508444  3
   1805   1803   1806   1808     1  0.0000000  0.6508444  3
   1814   1817   1820   1821     1  0.0000000  0.6508444  3
   1814   1817   1820   1822     1  0.0000000  0.6508444  3
   1815   1814   1817   1820     1  0.0000000  0.6508444  3
   1815   1814   1817   1818     1  0.0000000  0.6508444  3
   1815   1814   1817   1819     1  0.0000000  0.6508444  3
   1815   1814   1823   1824     1  0.0000000  0.6508444  3
   1815   1814   1823   1825     1  0.0000000  0.6508444  3
   1815   1814   1823   1827     1  0.0000000  0.6508444  3
   1816   1814   1817   1820     1  0.0000000  0.6508444  3
   1816   1814   1817   1818     1  0.0000000  0.6508444  3
   1816   1814   1817   1819     1  0.0000000  0.6508444  3
   1816   1814   1823   1824     1  0.0000000  0.6508444  3
   1816   1814   1823   1825     1  0.0000000  0.6508444  3
   1816   1814   1823   1827     1  0.0000000  0.6508444  3
   1817   1814   1823   1824     1  0.0000000  0.6508444  3
   1817   1814   1823   1825     1  0.0000000  0.6508444  3
   1817   1814   1823   1827     1  0.0000000  0.6508444  3
   1818   1817   1820   1826     1  0.0000000  1.0460000  1
   1818   1817   1820   1826     1  0.0000000  0.0000000  3
   1818   1817   1820   1821     1  0.0000000  0.6508444  3
   1818   1817   1820   1822     1  0.0000000  0.6508444  3
   1818   1817   1814   1823     1  0.0000000  0.6508444  3
   1819   1817   1820   1826     1  0.0000000  1.0460000  1
   1819   1817   1820   1826     1  0.0000000  0.0000000  3
   1819   1817   1820   1821     1  0.0000000  0.6508444  3
   1819   1817   1820   1822     1  0.0000000  0.6508444  3
   1819   1817   1814   1823     1  0.0000000  0.6508444  3
   1828   1831   1834   1835     1  0.0000000  0.6508444  3
   1828   1831   1834   1836     1  0.0000000  0.6508444  3
   1829   1828   1831   1834     1  0.0000000  0.6508444  3
   1829   1828   1831   1832     1  0.0000000  0.6508444  3
   1829   1828   1831   1833     1  0.0000000  0.6508444  3
   1829   1828   1837   1838     1  0.0000000  0.6508444  3
   1829   1828   1837   1839     1  0.0000000  0.6508444  3
   1829   1828   1837   1841     1  0.0000000  0.6508444  3
   1830   1828   1831   1834     1  0.0000000  0.6508444  3
   1830   1828   1831   1832     1  0.0000000  0.6508444  3
   1830   1828   1831   1833     1  0.0000000  0.6508444  3
   1830   1828   1837   1838     1  0.0000000  0.6508444  3
   1830   1828   1837   1839     1  0.0000000  0.6508444  3
   1830   1828   1837   1841     1  0.0000000  0.6508444  3
   1831   1828   1837   1838     1  0.0000000  0.6508444  3
   1831   1828   1837   1839     1  0.0000000  0.6508444  3
   1831   1828   1837   1841     1  0.0000000  0.6508444  3
   1832   1831   1828   1837     1  0.0000000  0.6508444  3
   1832   1831   1834   1840     1  0.0000000  1.0460000  1
   1832   1831   1834   1840     1  0.0000000  0.0000000  3
   1832   1831   1834   1835     1  0.0000000  0.6508444  3
   1832   1831   1834   1836     1  0.0000000  0.6508444  3
   1833   1831   1828   1837     1  0.0000000  0.6508444  3
   1833   1831   1834   1840     1  0.0000000  1.0460000  1
   1833   1831   1834   1840     1  0.0000000  0.0000000  3
   1833   1831   1834   1835     1  0.0000000  0.6508444  3
   1833   1831   1834   1836     1  0.0000000  0.6508444  3
   1842   1845   1848   1849     1  0.0000000  0.6508444  3
   1842   1845   1848   1850     1  0.0000000  0.6508444  3
   1843   1842   1845   1848     1  0.0000000  0.6508444  3
   1843   1842   1845   1846     1  0.0000000  0.6508444  3
   1843   1842   1845   1847     1  0.0000000  0.6508444  3
   1843   1842   1851   1852     1  0.0000000  0.6508444  3
   1843   1842   1851   1853     1  0.0000000  0.6508444  3
   1843   1842   1851   1855     1  0.0000000  0.6508444  3
   1844   1842   1845   1848     1  0.0000000  0.6508444  3
   1844   1842   1845   1846     1  0.0000000  0.6508444  3
   1844   1842   1845   1847     1  0.0000000  0.6508444  3
   1844   1842   1851   1852     1  0.0000000  0.6508444  3
   1844   1842   1851   1853     1  0.0000000  0.6508444  3
   1844   1842   1851   1855     1  0.0000000  0.6508444  3
   1845   1842   1851   1852     1  0.0000000  0.6508444  3
   1845   1842   1851   1853     1  0.0000000  0.6508444  3
   1845   1842   1851   1855     1  0.0000000  0.6508444  3
   1846   1845   1848   1854     1  0.0000000  1.0460000  1
   1846   1845   1848   1854     1  0.0000000  0.0000000  3
   1846   1845   1848   1849     1  0.0000000  0.6508444  3
   1846   1845   1848   1850     1  0.0000000  0.6508444  3
   1846   1845   1842   1851     1  0.0000000  0.6508444  3
   1847   1845   1848   1854     1  0.0000000  1.0460000  1
   1847   1845   1848   1854     1  0.0000000  0.0000000  3
   1847   1845   1848   1849     1  0.0000000  0.6508444  3
   1847   1845   1848   1850     1  0.0000000  0.6508444  3
   1847   1845   1842   1851     1  0.0000000  0.6508444  3
   1856   1859   1862   1863     1  0.0000000  0.6508444  3
   1856   1859   1862   1864     1  0.0000000  0.6508444  3
   1857   1856   1859   1862     1  0.0000000  0.6508444  3
   1857   1856   1859   1860     1  0.0000000  0.6508444  3
   1857   1856   1859   1861     1  0.0000000  0.6508444  3
   1857   1856   1865   1866     1  0.0000000  0.6508444  3
   1857   1856   1865   1867     1  0.0000000  0.6508444  3
   1857   1856   1865   1869     1  0.0000000  0.6508444  3
   1858   1856   1859   1862     1  0.0000000  0.6508444  3
   1858   1856   1859   1860     1  0.0000000  0.6508444  3
   1858   1856   1859   1861     1  0.0000000  0.6508444  3
   1858   1856   1865   1866     1  0.0000000  0.6508444  3
   1858   1856   1865   1867     1  0.0000000  0.6508444  3
   1858   1856   1865   1869     1  0.0000000  0.6508444  3
   1859   1856   1865   1866     1  0.0000000  0.6508444  3
   1859   1856   1865   1867     1  0.0000000  0.6508444  3
   1859   1856   1865   1869     1  0.0000000  0.6508444  3
   1860   1859   1856   1865     1  0.0000000  0.6508444  3
   1860   1859   1862   1868     1  0.0000000  1.0460000  1
   1860   1859   1862   1868     1  0.0000000  0.0000000  3
   1860   1859   1862   1863     1  0.0000000  0.6508444  3
   1860   1859   1862   1864     1  0.0000000  0.6508444  3
   1861   1859   1856   1865     1  0.0000000  0.6508444  3
   1861   1859   1862   1868     1  0.0000000  1.0460000  1
   1861   1859   1862   1868     1  0.0000000  0.0000000  3
   1861   1859   1862   1863     1  0.0000000  0.6508444  3
   1861   1859   1862   1864     1  0.0000000  0.6508444  3
   1870   1873   1876   1877     1  0.0000000  0.6508444  3
   1870   1873   1876   1878     1  0.0000000  0.6508444  3
   1871   1870   1873   1876     1  0.0000000  0.6508444  3
   1871   1870   1873   1874     1  0.0000000  0.6508444  3
   1871   1870   1873   1875     1  0.0000000  0.6508444  3
   1871   1870   1879   1880     1  0.0000000  0.6508444  3
   1871   1870   1879   1881     1  0.0000000  0.6508444  3
   1871   1870   1879   1883     1  0.0000000  0.6508444  3
   1872   1870   1873   1876     1  0.0000000  0.6508444  3
   1872   1870   1873   1874     1  0.0000000  0.6508444  3
   1872   1870   1873   1875     1  0.0000000  0.6508444  3
   1872   1870   1879   1880     1  0.0000000  0.6508444  3
   1872   1870   1879   1881     1  0.0000000  0.6508444  3
   1872   1870   1879   1883     1  0.0000000  0.6508444  3
   1873   1870   1879   1880     1  0.0000000  0.6508444  3
   1873   1870   1879   1881     1  0.0000000  0.6508444  3
   1873   1870   1879   1883     1  0.0000000  0.6508444  3
   1874   1873   1876   1882     1  0.0000000  1.0460000  1
   1874   1873   1876   1882     1  0.0000000  0.0000000  3
   1874   1873   1876   1877     1  0.0000000  0.6508444  3
   1874   1873   1876   1878     1  0.0000000  0.6508444  3
   1874   1873   1870   1879     1  0.0000000  0.6508444  3
   1875   1873   1876   1882     1  0.0000000  1.0460000  1
   1875   1873   1876   1882     1  0.0000000  0.0000000  3
   1875   1873   1876   1877     1  0.0000000  0.6508444  3
   1875   1873   1876   1878     1  0.0000000  0.6508444  3
   1875   1873   1870   1879     1  0.0000000  0.6508444  3
   1884   1887   1890   1891     1  0.0000000  0.6508444  3
   1884   1887   1890   1892     1  0.0000000  0.6508444  3
   1885   1884   1887   1890     1  0.0000000  0.6508444  3
   1885   1884   1887   1888     1  0.0000000  0.6508444  3
   1885   1884   1887   1889     1  0.0000000  0.6508444  3
   1885   1884   1893   1894     1  0.0000000  0.6508444  3
   1885   1884   1893   1895     1  0.0000000  0.6508444  3
   1885   1884   1893   1897     1  0.0000000  0.6508444  3
   1886   1884   1887   1890     1  0.0000000  0.6508444  3
   1886   1884   1887   1888     1  0.0000000  0.6508444  3
   1886   1884   1887   1889     1  0.0000000  0.6508444  3
   1886   1884   1893   1894     1  0.0000000  0.6508444  3
   1886   1884   1893   1895     1  0.0000000  0.6508444  3
   1886   1884   1893   1897     1  0.0000000  0.6508444  3
   1887   1884   1893   1894     1  0.0000000  0.6508444  3
   1887   1884   1893   1895     1  0.0000000  0.6508444  3
   1887   1884   1893   1897     1  0.0000000  0.6508444  3
   1888   1887   1884   1893     1  0.0000000  0.6508444  3
   1888   1887   1890   1896     1  0.0000000  1.0460000  1
   1888   1887   1890   1896     1  0.0000000  0.0000000  3
   1888   1887   1890   1891     1  0.0000000  0.6508444  3
   1888   1887   1890   1892     1  0.0000000  0.6508444  3
   1889   1887   1884   1893     1  0.0000000  0.6508444  3
   1889   1887   1890   1896     1  0.0000000  1.0460000  1
   1889   1887   1890   1896     1  0.0000000  0.0000000  3
   1889   1887   1890   1891     1  0.0000000  0.6508444  3
   1889   1887   1890   1892     1  0.0000000  0.6508444  3
   1898   1901   1904   1905     1  0.0000000  0.6508444  3
   1898   1901   1904   1906     1  0.0000000  0.6508444  3
   1899   1898   1901   1904     1  0.0000000  0.6508444  3
   1899   1898   1901   1902     1  0.0000000  0.6508444  3
   1899   1898   1901   1903     1  0.0000000  0.6508444  3
   1899   1898   1907   1908     1  0.0000000  0.6508444  3
   1899   1898   1907   1909     1  0.0000000  0.6508444  3
   1899   1898   1907   1911     1  0.0000000  0.6508444  3
   1900   1898   1901   1904     1  0.0000000  0.6508444  3
   1900   1898   1901   1902     1  0.0000000  0.6508444  3
   1900   1898   1901   1903     1  0.0000000  0.6508444  3
   1900   1898   1907   1908     1  0.0000000  0.6508444  3
   1900   1898   1907   1909     1  0.0000000  0.6508444  3
   1900   1898   1907   1911     1  0.0000000  0.6508444  3
   1901   1898   1907   1908     1  0.0000000  0.6508444  3
   1901   1898   1907   1909     1  0.0000000  0.6508444  3
   1901   1898   1907   1911     1  0.0000000  0.6508444  3
   1902   1901   1904   1910     1  0.0000000  1.0460000  1
   1902   1901   1904   1910     1  0.0000000  0.0000000  3
   1902   1901   1904   1905     1  0.0000000  0.6508444  3
   1902   1901   1904   1906     1  0.0000000  0.6508444  3
   1902   1901   1898   1907     1  0.0000000  0.6508444  3
   1903   1901   1904   1910     1  0.0000000  1.0460000  1
   1903   1901   1904   1910     1  0.0000000  0.0000000  3
   1903   1901   1904   1905     1  0.0000000  0.6508444  3
   1903   1901   1904   1906     1  0.0000000  0.6508444  3
   1903   1901   1898   1907     1  0.0000000  0.6508444  3
   1912   1915   1918   1919     1  0.0000000  0.6508444  3
   1912   1915   1918   1920     1  0.0000000  0.6508444  3
   1913   1912   1915   1918     1  0.0000000  0.6508444  3
   1913   1912   1915   1916     1  0.0000000  0.6508444  3
   1913   1912   1915   1917     1  0.0000000  0.6508444  3
   1913   1912   1921   1922     1  0.0000000  0.6508444  3
   1913   1912   1921   1923     1  0.0000000  0.6508444  3
   1913   1912   1921   1925     1  0.0000000  0.6508444  3
   1914   1912   1915   1918     1  0.0000000  0.6508444  3
   1914   1912   1915   1916     1  0.0000000  0.6508444  3
   1914   1912   1915   1917     1  0.0000000  0.6508444  3
   1914   1912   1921   1922     1  0.0000000  0.6508444  3
   1914   1912   1921   1923     1  0.0000000  0.6508444  3
   1914   1912   1921   1925     1  0.0000000  0.6508444  3
   1915   1912   1921   1922     1  0.0000000  0.6508444  3
   1915   1912   1921   1923     1  0.0000000  0.6508444  3
   1915   1912   1921   1925     1  0.0000000  0.6508444  3
   1916   1915   1912   1921     1  0.0000000  0.6508444  3
   1916   1915   1918   1924     1  0.0000000  1.0460000  1
   1916   1915   1918   1924     1  0.0000000  0.0000000  3
   1916   1915   1918   1919     1  0.0000000  0.6508444  3
   1916   1915   1918   1920     1  0.0000000  0.6508444  3
   1917   1915   1912   1921     1  0.0000000  0.6508444  3
   1917   1915   1918   1924     1  0.0000000  1.0460000  1
   1917   1915   1918   1924     1  0.0000000  0.0000000  3
   1917   1915   1918   1919     1  0.0000000  0.6508444  3
   1917   1915   1918   1920     1  0.0000000  0.6508444  3
   1926   1929   1932   1933     1  0.0000000  0.6508444  3
   1926   1929   1932   1934     1  0.0000000  0.6508444  3
   1927   1926   1929   1932     1  0.0000000  0.6508444  3
   1927   1926   1929   1930     1  0.0000000  0.6508444  3
   1927   1926   1929   1931     1  0.0000000  0.6508444  3
   1927   1926   1935   1936     1  0.0000000  0.6508444  3
   1927   1926   1935   1937     1  0.0000000  0.6508444  3
   1927   1926   1935   1939     1  0.0000000  0.6508444  3
   1928   1926   1929   1932     1  0.0000000  0.6508444  3
   1928   1926   1929   1930     1  0.0000000  0.6508444  3
   1928   1926   1929   1931     1  0.0000000  0.6508444  3
   1928   1926   1935   1936     1  0.0000000  0.6508444  3
   1928   1926   1935   1937     1  0.0000000  0.6508444  3
   1928   1926   1935   1939     1  0.0000000  0.6508444  3
   1929   1926   1935   1936     1  0.0000000  0.6508444  3
   1929   1926   1935   1937     1  0.0000000  0.6508444  3
   1929   1926   1935   1939     1  0.0000000  0.6508444  3
   1930   1929   1932   1938     1  0.0000000  1.0460000  1
   1930   1929   1932   1938     1  0.0000000  0.0000000  3
   1930   1929   1932   1933     1  0.0000000  0.6508444  3
   1930   1929   1932   1934     1  0.0000000  0.6508444  3
   1930   1929   1926   1935     1  0.0000000  0.6508444  3
   1931   1929   1932   1938     1  0.0000000  1.0460000  1
   1931   1929   1932   1938     1  0.0000000  0.0000000  3
   1931   1929   1932   1933     1  0.0000000  0.6508444  3
   1931   1929   1932   1934     1  0.0000000  0.6508444  3
   1931   1929   1926   1935     1  0.0000000  0.6508444  3
   1940   1943   1946   1947     1  0.0000000  0.6508444  3
   1940   1943   1946   1948     1  0.0000000  0.6508444  3
   1941   1940   1943   1946     1  0.0000000  0.6508444  3
   1941   1940   1943   1944     1  0.0000000  0.6508444  3
   1941   1940   1943   1945     1  0.0000000  0.6508444  3
   1941   1940   1949   1950     1  0.0000000  0.6508444  3
   1941   1940   1949   1951     1  0.0000000  0.6508444  3
   1941   1940   1949   1953     1  0.0000000  0.6508444  3
   1942   1940   1943   1946     1  0.0000000  0.6508444  3
   1942   1940   1943   1944     1  0.0000000  0.6508444  3
   1942   1940   1943   1945     1  0.0000000  0.6508444  3
   1942   1940   1949   1950     1  0.0000000  0.6508444  3
   1942   1940   1949   1951     1  0.0000000  0.6508444  3
   1942   1940   1949   1953     1  0.0000000  0.6508444  3
   1943   1940   1949   1950     1  0.0000000  0.6508444  3
   1943   1940   1949   1951     1  0.0000000  0.6508444  3
   1943   1940   1949   1953     1  0.0000000  0.6508444  3
   1944   1943   1940   1949     1  0.0000000  0.6508444  3
   1944   1943   1946   1952     1  0.0000000  1.0460000  1
   1944   1943   1946   1952     1  0.0000000  0.0000000  3
   1944   1943   1946   1947     1  0.0000000  0.6508444  3
   1944   1943   1946   1948     1  0.0000000  0.6508444  3
   1945   1943   1940   1949     1  0.0000000  0.6508444  3
   1945   1943   1946   1952     1  0.0000000  1.0460000  1
   1945   1943   1946   1952     1  0.0000000  0.0000000  3
   1945   1943   1946   1947     1  0.0000000  0.6508444  3
   1945   1943   1946   1948     1  0.0000000  0.6508444  3
   1954   1957   1960   1961     1  0.0000000  0.6508444  3
   1954   1957   1960   1962     1  0.0000000  0.6508444  3
   1955   1954   1957   1960     1  0.0000000  0.6508444  3
   1955   1954   1957   1958     1  0.0000000  0.6508444  3
   1955   1954   1957   1959     1  0.0000000  0.6508444  3
   1955   1954   1963   1964     1  0.0000000  0.6508444  3
   1955   1954   1963   1965     1  0.0000000  0.6508444  3
   1955   1954   1963   1967     1  0.0000000  0.6508444  3
   1956   1954   1957   1960     1  0.0000000  0.6508444  3
   1956   1954   1957   1958     1  0.0000000  0.6508444  3
   1956   1954   1957   1959     1  0.0000000  0.6508444  3
   1956   1954   1963   1964     1  0.0000000  0.6508444  3
   1956   1954   1963   1965     1  0.0000000  0.6508444  3
   1956   1954   1963   1967     1  0.0000000  0.6508444  3
   1957   1954   1963   1964     1  0.0000000  0.6508444  3
   1957   1954   1963   1965     1  0.0000000  0.6508444  3
   1957   1954   1963   1967     1  0.0000000  0.6508444  3
   1958   1957   1960   1966     1  0.0000000  1.0460000  1
   1958   1957   1960   1966     1  0.0000000  0.0000000  3
   1958   1957   1960   1961     1  0.0000000  0.6508444  3
   1958   1957   1960   1962     1  0.0000000  0.6508444  3
   1958   1957   1954   1963     1  0.0000000  0.6508444  3
   1959   1957   1960   1966     1  0.0000000  1.0460000  1
   1959   1957   1960   1966     1  0.0000000  0.0000000  3
   1959   1957   1960   1961     1  0.0000000  0.6508444  3
   1959   1957   1960   1962     1  0.0000000  0.6508444  3
   1959   1957   1954   1963     1  0.0000000  0.6508444  3
   1968   1971   1974   1975     1  0.0000000  0.6508444  3
   1968   1971   1974   1976     1  0.0000000  0.6508444  3
   1969   1968   1971   1974     1  0.0000000  0.6508444  3
   1969   1968   1971   1972     1  0.0000000  0.6508444  3
   1969   1968   1971   1973     1  0.0000000  0.6508444  3
   1969   1968   1977   1978     1  0.0000000  0.6508444  3
   1969   1968   1977   1979     1  0.0000000  0.6508444  3
   1969   1968   1977   1981     1  0.0000000  0.6508444  3
   1970   1968   1971   1974     1  0.0000000  0.6508444  3
   1970   1968   1971   1972     1  0.0000000  0.6508444  3
   1970   1968   1971   1973     1  0.0000000  0.6508444  3
   1970   1968   1977   1978     1  0.0000000  0.6508444  3
   1970   1968   1977   1979     1  0.0000000  0.6508444  3
   1970   1968   1977   1981     1  0.0000000  0.6508444  3
   1971   1968   1977   1978     1  0.0000000  0.6508444  3
   1971   1968   1977   1979     1  0.0000000  0.6508444  3
   1971   1968   1977   1981     1  0.0000000  0.6508444  3
   1972   1971   1968   1977     1  0.0000000  0.6508444  3
   1972   1971   1974   1980     1  0.0000000  1.0460000  1
   1972   1971   1974   1980     1  0.0000000  0.0000000  3
   1972   1971   1974   1975     1  0.0000000  0.6508444  3
   1972   1971   1974   1976     1  0.0000000  0.6508444  3
   1973   1971   1968   1977     1  0.0000000  0.6508444  3
   1973   1971   1974   1980     1  0.0000000  1.0460000  1
   1973   1971   1974   1980     1  0.0000000  0.0000000  3
   1973   1971   1974   1975     1  0.0000000  0.6508444  3
   1973   1971   1974   1976     1  0.0000000  0.6508444  3
   1982   1985   1988   1989     1  0.0000000  0.6508444  3
   1982   1985   1988   1990     1  0.0000000  0.6508444  3
   1983   1982   1985   1988     1  0.0000000  0.6508444  3
   1983   1982   1985   1986     1  0.0000000  0.6508444  3
   1983   1982   1985   1987     1  0.0000000  0.6508444  3
   1983   1982   1991   1992     1  0.0000000  0.6508444  3
   1983   1982   1991   1993     1  0.0000000  0.6508444  3
   1983   1982   1991   1995     1  0.0000000  0.6508444  3
   1984   1982   1985   1988     1  0.0000000  0.6508444  3
   1984   1982   1985   1986     1  0.0000000  0.6508444  3
   1984   1982   1985   1987     1  0.0000000  0.6508444  3
   1984   1982   1991   1992     1  0.0000000  0.6508444  3
   1984   1982   1991   1993     1  0.0000000  0.6508444  3
   1984   1982   1991   1995     1  0.0000000  0.6508444  3
   1985   1982   1991   1992     1  0.0000000  0.6508444  3
   1985   1982   1991   1993     1  0.0000000  0.6508444  3
   1985   1982   1991   1995     1  0.0000000  0.6508444  3
   1986   1985   1988   1994     1  0.0000000  1.0460000  1
   1986   1985   1988   1994     1  0.0000000  0.0000000  3
   1986   1985   1988   1989     1  0.0000000  0.6508444  3
   1986   1985   1988   1990     1  0.0000000  0.6508444  3
   1986   1985   1982   1991     1  0.0000000  0.6508444  3
   1987   1985   1988   1994     1  0.0000000  1.0460000  1
   1987   1985   1988   1994     1  0.0000000  0.0000000  3
   1987   1985   1988   1989     1  0.0000000  0.6508444  3
   1987   1985   1988   1990     1  0.0000000  0.6508444  3
   1987   1985   1982   1991     1  0.0000000  0.6508444  3
   1996   1999   2002   2003     1  0.0000000  0.6508444  3
   1996   1999   2002   2004     1  0.0000000  0.6508444  3
   1997   1996   1999   2002     1  0.0000000  0.6508444  3
   1997   1996   1999   2000     1  0.0000000  0.6508444  3
   1997   1996   1999   2001     1  0.0000000  0.6508444  3
   1997   1996   2005   2006     1  0.0000000  0.6508444  3
   1997   1996   2005   2007     1  0.0000000  0.6508444  3
   1997   1996   2005   2009     1  0.0000000  0.6508444  3
   1998   1996   1999   2002     1  0.0000000  0.6508444  3
   1998   1996   1999   2000     1  0.0000000  0.6508444  3
   1998   1996   1999   2001     1  0.0000000  0.6508444  3
   1998   1996   2005   2006     1  0.0000000  0.6508444  3
   1998   1996   2005   2007     1  0.0000000  0.6508444  3
   1998   1996   2005   2009     1  0.0000000  0.6508444  3
   1999   1996   2005   2006     1  0.0000000  0.6508444  3
   1999   1996   2005   2007     1  0.0000000  0.6508444  3
   1999   1996   2005   2009     1  0.0000000  0.6508444  3
   2000   1999   1996   2005     1  0.0000000  0.6508444  3
   2000   1999   2002   2008     1  0.0000000  1.0460000  1
   2000   1999   2002   2008     1  0.0000000  0.0000000  3
   2000   1999   2002   2003     1  0.0000000  0.6508444  3
   2000   1999   2002   2004     1  0.0000000  0.6508444  3
   2001   1999   1996   2005     1  0.0000000  0.6508444  3
   2001   1999   2002   2008     1  0.0000000  1.0460000  1
   2001   1999   2002   2008     1  0.0000000  0.0000000  3
   2001   1999   2002   2003     1  0.0000000  0.6508444  3
   2001   1999   2002   2004     1  0.0000000  0.6508444  3
   2010   2013   2016   2017     1  0.0000000  0.6508444  3
   2010   2013   2016   2018     1  0.0000000  0.6508444  3
   2011   2010   2013   2016     1  0.0000000  0.6508444  3
   2011   2010   2013   2014     1  0.0000000  0.6508444  3
   2011   2010   2013   2015     1  0.0000000  0.6508444  3
   2011   2010   2019   2020     1  0.0000000  0.6508444  3
   2011   2010   2019   2021     1  0.0000000  0.6508444  3
   2011   2010   2019   2023     1  0.0000000  0.6508444  3
   2012   2010   2013   2016     1  0.0000000  0.6508444  3
   2012   2010   2013   2014     1  0.0000000  0.6508444  3
   2012   2010   2013   2015     1  0.0000000  0.6508444  3
   2012   2010   2019   2020     1  0.0000000  0.6508444  3
   2012   2010   2019   2021     1  0.0000000  0.6508444  3
   2012   2010   2019   2023     1  0.0000000  0.6508444  3
   2013   2010   2019   2020     1  0.0000000  0.6508444  3
   2013   2010   2019   2021     1  0.0000000  0.6508444  3
   2013   2010   2019   2023     1  0.0000000  0.6508444  3
   2014   2013   2016   2022     1  0.0000000  1.0460000  1
   2014   2013   2016   2022     1  0.0000000  0.0000000  3
   2014   2013   2016   2017     1  0.0000000  0.6508444  3
   2014   2013   2016   2018     1  0.0000000  0.6508444  3
   2014   2013   2010   2019     1  0.0000000  0.6508444  3
   2015   2013   2016   2022     1  0.0000000  1.0460000  1
   2015   2013   2016   2022     1  0.0000000  0.0000000  3
   2015   2013   2016   2017     1  0.0000000  0.6508444  3
   2015   2013   2016   2018     1  0.0000000  0.6508444  3
   2015   2013   2010   2019     1  0.0000000  0.6508444  3
   2024   2027   2030   2031     1  0.0000000  0.6508444  3
   2024   2027   2030   2032     1  0.0000000  0.6508444  3
   2025   2024   2027   2030     1  0.0000000  0.6508444  3
   2025   2024   2027   2028     1  0.0000000  0.6508444  3
   2025   2024   2027   2029     1  0.0000000  0.6508444  3
   2025   2024   2033   2034     1  0.0000000  0.6508444  3
   2025   2024   2033   2035     1  0.0000000  0.6508444  3
   2025   2024   2033   2037     1  0.0000000  0.6508444  3
   2026   2024   2027   2030     1  0.0000000  0.6508444  3
   2026   2024   2027   2028     1  0.0000000  0.6508444  3
   2026   2024   2027   2029     1  0.0000000  0.6508444  3
   2026   2024   2033   2034     1  0.0000000  0.6508444  3
   2026   2024   2033   2035     1  0.0000000  0.6508444  3
   2026   2024   2033   2037     1  0.0000000  0.6508444  3
   2027   2024   2033   2034     1  0.0000000  0.6508444  3
   2027   2024   2033   2035     1  0.0000000  0.6508444  3
   2027   2024   2033   2037     1  0.0000000  0.6508444  3
   2028   2027   2024   2033     1  0.0000000  0.6508444  3
   2028   2027   2030   2036     1  0.0000000  1.0460000  1
   2028   2027   2030   2036     1  0.0000000  0.0000000  3
   2028   2027   2030   2031     1  0.0000000  0.6508444  3
   2028   2027   2030   2032     1  0.0000000  0.6508444  3
   2029   2027   2024   2033     1  0.0000000  0.6508444  3
   2029   2027   2030   2036     1  0.0000000  1.0460000  1
   2029   2027   2030   2036     1  0.0000000  0.0000000  3
   2029   2027   2030   2031     1  0.0000000  0.6508444  3
   2029   2027   2030   2032     1  0.0000000  0.6508444  3
   2038   2041   2044   2045     1  0.0000000  0.6508444  3
   2038   2041   2044   2046     1  0.0000000  0.6508444  3
   2039   2038   2041   2044     1  0.0000000  0.6508444  3
   2039   2038   2041   2042     1  0.0000000  0.6508444  3
   2039   2038   2041   2043     1  0.0000000  0.6508444  3
   2039   2038   2047   2048     1  0.0000000  0.6508444  3
   2039   2038   2047   2049     1  0.0000000  0.6508444  3
   2039   2038   2047   2051     1  0.0000000  0.6508444  3
   2040   2038   2041   2044     1  0.0000000  0.6508444  3
   2040   2038   2041   2042     1  0.0000000  0.6508444  3
   2040   2038   2041   2043     1  0.0000000  0.6508444  3
   2040   2038   2047   2048     1  0.0000000  0.6508444  3
   2040   2038   2047   2049     1  0.0000000  0.6508444  3
   2040   2038   2047   2051     1  0.0000000  0.6508444  3
   2041   2038   2047   2048     1  0.0000000  0.6508444  3
   2041   2038   2047   2049     1  0.0000000  0.6508444  3
   2041   2038   2047   2051     1  0.0000000  0.6508444  3
   2042   2041   2044   2050     1  0.0000000  1.0460000  1
   2042   2041   2044   2050     1  0.0000000  0.0000000  3
   2042   2041   2044   2045     1  0.0000000  0.6508444  3
   2042   2041   2044   2046     1  0.0000000  0.6508444  3
   2042   2041   2038   2047     1  0.0000000  0.6508444  3
   2043   2041   2044   2050     1  0.0000000  1.0460000  1
   2043   2041   2044   2050     1  0.0000000  0.0000000  3
   2043   2041   2044   2045     1  0.0000000  0.6508444  3
   2043   2041   2044   2046     1  0.0000000  0.6508444  3
   2043   2041   2038   2047     1  0.0000000  0.6508444  3

;[ system ]
;; Name
;Generic title
;
;[ molecules ]
;; Compound       #mols
;system1              1
