G2Pncore-PETIM in water
94803
    1aaa     N1    1   6.195   2.745   0.381 -0.2088  0.3496  0.0825
    1aaa     C1    2   6.325   2.823   0.380 -0.2326 -0.2690 -0.7015
    1aaa     H1    3   6.377   2.790   0.469 -1.7737  0.7753  0.6434
    1aaa     H2    4   6.377   2.782   0.293 -2.4208 -1.0949 -1.6974
    1aaa     C2    5   6.122   2.731   0.509 -0.0818  0.5787  0.3864
    1aaa     H3    6   6.085   2.826   0.548  1.5503  1.7095 -0.7111
    1aaa     H4    7   6.036   2.667   0.486  1.3505 -1.3779  0.2211
    1aaa     C3    8   6.100   2.770   0.267  0.0761 -0.0866 -0.6925
    1aaa     H5    9   6.014   2.710   0.296 -1.0443  2.3060  1.3850
    1aaa     H6   10   6.072   2.876   0.267 -1.3011 -0.4117  0.8311
    1aaa     C4   11   6.153   2.731   0.128  0.2289 -0.0277  0.4626
    1aaa     H7   12   6.078   2.725   0.048  1.4528 -1.7669 -0.6199
    1aaa     H8   13   6.236   2.791   0.091 -0.8369  0.7731 -0.6798
    1aaa     C5   14   6.320   2.976   0.377  0.4968 -0.4602  0.3796
    1aaa     H9   15   6.416   3.023   0.350  0.4335  0.1845  1.2295
    1aaa    H10   16   6.250   3.012   0.300 -0.8050  1.3441  2.2783
    1aaa     C6   17   6.192   2.653   0.625 -0.1480 -0.2549  0.2673
    1aaa    H11   18   6.289   2.699   0.644 -0.6180 -0.1412  2.6368
    1aaa    H12   19   6.131   2.670   0.714  3.7718  2.3585  2.7438
    1aaa     C7   20   6.200   2.499   0.595 -0.2925  0.6232 -0.6510
    1aaa    H13   21   6.104   2.454   0.567 -0.0847 -0.6154  0.5366
    1aaa    H14   22   6.269   2.485   0.511  0.2476  1.6937 -0.4056
    1aaa     C8   23   6.211   2.592   0.121  0.0875  0.3646  0.1405
    1aaa    H15   24   6.306   2.596   0.175 -1.1537  1.5863  2.4085
    1aaa    H16   25   6.141   2.537   0.185 -0.6681 -1.2392 -1.9339
    1aaa     C9   26   6.263   3.036   0.509 -0.7521 -0.3081 -0.1503
    1aaa    H17   27   6.246   3.142   0.489 -1.8238 -0.7327 -1.6282
    1aaa    H18   28   6.165   2.996   0.538 -1.5830  0.7729 -1.3677
    1aaa    H19   29   6.228   2.648   0.372  0.9153  0.6252  1.0014
    2bbb     N1   30   6.285   2.213   1.116 -0.0083 -0.0365 -0.0091
    2bbb     C1   31   6.386   2.295   1.186  0.1026 -0.3242  0.2627
    2bbb     H1   32   6.349   2.327   1.284 -1.0691  0.1605 -0.3197
    2bbb     H2   33   6.410   2.387   1.133 -1.7097 -0.0081 -0.0421
    2bbb     C2   34   6.158   2.207   1.201 -0.2603 -0.2469 -0.2658
    2bbb     H3   35   6.117   2.308   1.207 -0.7666 -0.3750 -1.3370
    2bbb     H4   36   6.194   2.173   1.298 -1.5464  0.7253  0.6016
    2bbb     C3   37   6.237   2.284   0.990 -0.1857  0.0709  0.1473
    2bbb     H5   38   6.228   2.392   1.006 -3.5651 -0.3399  1.9601
    2bbb     H6   39   6.135   2.247   0.977 -0.6652  0.9418  1.2248
    2bbb     C4   40   6.323   2.259   0.861 -0.0161  0.6853  0.3339
    2bbb     H7   41   6.350   2.153   0.853 -0.0363  0.8012 -2.5982
    2bbb     H8   42   6.418   2.313   0.859 -0.1189  1.0770 -3.7332
    2bbb     C5   43   6.522   2.215   1.206  0.1196 -0.1731  0.1677
    2bbb     H9   44   6.586   2.289   1.255  0.5716 -0.4356 -0.0225
    2bbb    H10   45   6.576   2.188   1.114  0.2888 -1.0900  0.5230
    2bbb     C6   46   6.055   2.099   1.156  0.4691 -0.2909 -0.1408
    2bbb    H11   47   6.108   2.004   1.145  0.1004 -0.7148  1.5133
    2bbb    H12   48   6.005   2.127   1.062 -2.5415 -1.9090  0.8465
    2bbb     C7   49   6.253   2.291   0.730 -0.2801  0.0665  0.4404
    2bbb    H13   50   6.154   2.245   0.720  0.0033 -0.0221 -3.4700
    2bbb    H14   51   6.315   2.245   0.651  0.6400  1.0699  0.5599
    2bbb     C8   52   5.953   2.077   1.266  0.8896  0.6589  0.4309
    2bbb    H15   53   5.884   2.162   1.260  1.9105  1.4452 -0.6109
    2bbb    H16   54   5.894   1.987   1.245 -0.1348  1.0446  1.5364
    2bbb     C9   55   6.517   2.093   1.293 -0.4871 -0.5752 -0.1179
    2bbb    H17   56   6.464   2.127   1.384  0.4547  1.2882 -0.2264
    2bbb    H18   57   6.617   2.053   1.310 -1.0971 -2.9059 -1.5732
    2bbb     O1   58   6.256   2.437   0.714  0.3868  0.0428  0.7549
    2bbb    H19   59   6.319   2.116   1.108 -0.7553 -0.3818  0.8983
    3bbb     N1   60   6.161   2.372  -0.415 -0.2644  0.4631 -0.2185
    3bbb     C1   61   6.030   2.315  -0.471 -1.6899 -0.7753  1.0947
    3bbb     H1   62   5.960   2.398  -0.488 -0.9356 -0.3041  0.1622
    3bbb     H2   63   5.991   2.247  -0.396  0.2244 -3.1437  0.0535
    3bbb     C2   64   6.236   2.459  -0.515  0.2790 -0.0249 -0.7686
    3bbb     H3   65   6.263   2.386  -0.591 -3.6312 -3.0894  0.4382
    3bbb     H4   66   6.321   2.496  -0.458  0.4967  0.9564 -1.6895
    3bbb     C3   67   6.139   2.458  -0.296 -0.3187  0.1760  0.0164
    3bbb     H5   68   6.079   2.546  -0.315  0.6951  0.9889  0.4735
    3bbb     H6   69   6.238   2.491  -0.264 -0.1500  0.1936 -0.5216
    3bbb     C4   70   6.087   2.386  -0.164 -0.3071 -0.2133 -0.5232
    3bbb     H7   71   6.158   2.307  -0.138  0.4683  1.6409  4.0267
    3bbb     H8   72   5.984   2.348  -0.163  0.3996 -2.3677  2.1296
    3bbb     C5   73   6.036   2.228  -0.602  0.0868  0.6863  0.2373
    3bbb     H9   74   6.121   2.158  -0.600 -1.7599 -1.6724  2.0253
    3bbb    H10   75   6.029   2.280  -0.699 -2.0509 -2.0228 -1.1900
    3bbb     C6   76   6.160   2.573  -0.580  0.2689 -0.0805 -0.4124
    3bbb    H11   77   6.089   2.608  -0.504 -0.3610 -1.3341 -0.3924
    3bbb    H12   78   6.106   2.547  -0.672  1.6498 -0.3240 -1.1944
    3bbb     C7   79   6.074   2.481  -0.043  0.3702  0.1645  0.1335
    3bbb    H13   80   6.042   2.418   0.041  3.0117 -1.2016  0.2183
    3bbb    H14   81   5.992   2.554  -0.048 -0.5611 -0.8670 -0.2198
    3bbb     C8   82   6.257   2.688  -0.607 -0.8518 -0.6160  0.1848
    3bbb    H15   83   6.199   2.769  -0.653  1.4658  1.5041  0.7818
    3bbb    H16   84   6.292   2.723  -0.510  0.2820  0.6212 -0.6406
    3bbb     C9   85   5.909   2.145  -0.603 -0.0179 -0.4703  0.0695
    3bbb    H17   86   5.928   2.061  -0.535 -0.4227 -0.8267 -0.2505
    3bbb    H18   87   5.897   2.104  -0.704 -0.0994 -0.6747  0.1614
    3bbb     O1   88   6.205   2.529  -0.009  0.7020 -0.2256  0.1267
    3bbb    H19   89   6.216   2.288  -0.391 -0.3848  0.0083 -1.4725
    4bbb     N1   90   6.288   3.435   0.687  0.6254  0.0302 -0.5483
    4bbb     C1   91   6.254   3.521   0.808  0.4592  1.0399 -0.0594
    4bbb     H1   92   6.273   3.625   0.780 -0.0275  1.4659  1.1015
    4bbb     H2   93   6.312   3.498   0.897  1.5525  2.4045 -0.3876
    4bbb     C2   94   6.379   3.512   0.597  0.1984 -0.6231  0.3134
    4bbb     H3   95   6.327   3.604   0.570 -0.6945 -0.6165  1.9013
    4bbb     H4   96   6.398   3.455   0.506  0.9569  0.9377 -0.5514
    4bbb     C3   97   6.347   3.309   0.736 -0.3128 -1.0656 -0.2048
    4bbb     H5   98   6.390   3.329   0.834 -1.9480 -0.4801  0.4175
    4bbb     H6   99   6.421   3.284   0.660  0.4596  1.3608 -0.3285
    4bbb     C4  100   6.240   3.193   0.757  0.4911 -0.3800  0.2745
    4bbb     H7  101   6.163   3.200   0.680  1.0016  4.6091 -0.1249
    4bbb     H8  102   6.202   3.209   0.859 -1.0317 -1.1704 -0.1374
    4bbb     C5  103   6.107   3.512   0.851 -0.9871  0.6591 -0.7613
    4bbb     H9  104   6.077   3.416   0.896 -0.2860  0.8370  0.1126
    4bbb    H10  105   6.042   3.525   0.763  0.4469  1.5039 -1.7286
    4bbb     C6  106   6.524   3.549   0.657  0.4720 -0.0278 -0.5204
    4bbb    H11  107   6.574   3.456   0.686  1.2119  0.6376  0.3981
    4bbb    H12  108   6.505   3.606   0.749 -3.1699 -1.0827 -0.4636
    4bbb     C7  109   6.316   3.054   0.745  0.3383 -0.5745 -0.2751
    4bbb    H13  110   6.258   2.976   0.795  1.1067 -0.7299  0.3891
    4bbb    H14  111   6.408   3.057   0.805  0.7299  1.1063 -0.9032
    4bbb     C8  112   6.618   3.627   0.559  0.1641 -0.2787 -0.3664
    4bbb    H15  113   6.706   3.649   0.620 -0.5034 -0.1057  0.5640
    4bbb    H16  114   6.653   3.565   0.476  1.6857  0.2877 -0.1654
    4bbb     C9  115   6.071   3.615   0.958 -0.8463  0.3799 -0.2681
    4bbb    H17  116   6.155   3.623   1.027 -0.5181 -0.9586 -0.4686
    4bbb    H18  117   5.986   3.566   1.007  0.5363 -1.9328 -0.0380
    4bbb     O1  118   6.357   3.027   0.613 -0.0997 -0.0750 -0.3036
    4bbb    H19  119   6.198   3.416   0.642 -1.2078  2.9957  1.5276
    5bbb     N1  120   6.216   2.056   1.781 -0.6487 -0.0952 -0.5801
    5bbb     C1  121   6.151   2.150   1.875 -0.0020 -0.3960  0.5641
    5bbb     H1  122   6.145   2.241   1.815  0.6521 -0.7783 -0.0915
    5bbb     H2  123   6.216   2.174   1.959  0.6198 -1.2434  0.3453
    5bbb     C2  124   6.279   1.932   1.851  0.4933 -0.2753  0.1482
    5bbb     H3  125   6.284   1.845   1.784 -0.3712 -1.2911  1.3574
    5bbb     H4  126   6.215   1.913   1.937  1.9868 -0.2664  1.3000
    5bbb     C3  127   6.117   2.015   1.670  0.3999 -0.7641 -0.2485
    5bbb     H5  128   6.079   2.110   1.632  0.8060 -1.2922 -2.0768
    5bbb     H6  129   6.034   1.958   1.711  0.9170 -0.2762  1.5860
    5bbb     C4  130   6.180   1.957   1.543  0.8826 -0.6225  0.2101
    5bbb     H7  131   6.224   1.857   1.551  1.8343 -0.2493 -0.2745
    5bbb     H8  132   6.266   2.020   1.520 -0.2291  1.8397  2.3215
    5bbb     C5  133   6.015   2.109   1.935 -0.5670  0.1836 -0.7497
    5bbb     H9  134   6.035   2.003   1.955 -0.9628  0.5114  1.6945
    5bbb    H10  135   5.936   2.130   1.863 -2.1727  0.8258  1.1043
    5bbb     C6  136   6.425   1.954   1.888 -0.4095  0.5611  0.4154
    5bbb    H11  137   6.444   2.040   1.952  1.6804  1.6401 -1.4984
    5bbb    H12  138   6.467   1.978   1.789 -0.1237 -0.8146  0.1811
    5bbb     C7  139   6.078   1.944   1.424 -0.3365  0.5482 -0.4303
    5bbb    H13  140   6.001   1.869   1.447 -0.0978  0.0868 -1.1040
    5bbb    H14  141   6.129   1.907   1.334 -0.2429 -1.7557  0.5053
    5bbb     C8  142   6.495   1.825   1.925 -0.7980 -0.1299  0.0829
    5bbb    H15  143   6.452   1.736   1.878 -1.0149 -1.3022  2.3477
    5bbb    H16  144   6.601   1.829   1.896  0.5013 -4.1659  3.2857
    5bbb     C9  145   5.982   2.172   2.080  0.2296  0.0687  0.0162
    5bbb    H17  146   6.068   2.160   2.146  0.8551  1.7443 -0.4526
    5bbb    H18  147   5.898   2.123   2.131  0.9206  1.3602  2.5444
    5bbb     O1  148   6.015   2.067   1.397  0.5375  0.1741  0.7268
    5bbb    H19  149   6.289   2.106   1.728 -0.6374 -0.1400 -0.6072
    6bbb     N1  150   6.750   1.576   1.279 -1.0454  0.5352  0.2773
    6bbb     C1  151   6.818   1.616   1.403 -0.6819 -0.1460 -0.3066
    6bbb     H1  152   6.754   1.581   1.484  1.4292 -0.9391  1.0861
    6bbb     H2  153   6.823   1.723   1.427  1.4635 -0.0754 -0.8931
    6bbb     C2  154   6.731   1.422   1.280  0.2181 -0.1277  0.0496
    6bbb     H3  155   6.672   1.399   1.369 -1.0744 -1.1122 -1.0232
    6bbb     H4  156   6.831   1.380   1.294  2.0671  2.5633 -3.5780
    6bbb     C3  157   6.616   1.643   1.274 -0.2627  1.0106 -0.0763
    6bbb     H5  158   6.557   1.629   1.365 -1.4840  2.0600 -0.6650
    6bbb     H6  159   6.562   1.598   1.190  0.4387 -1.6341  0.8198
    6bbb     C4  160   6.607   1.796   1.266 -0.2215 -0.3337 -0.0904
    6bbb     H7  161   6.648   1.836   1.172 -0.9680  1.0953  0.1588
    6bbb     H8  162   6.667   1.840   1.346  3.5430 -2.2250 -1.6099
    6bbb     C5  163   6.966   1.567   1.430  1.2528 -0.1262 -0.8016
    6bbb     H9  164   7.029   1.607   1.349  1.0825  2.0083  0.0793
    6bbb    H10  165   6.965   1.457   1.424 -0.1908 -0.2576  1.1553
    6bbb     C6  166   6.676   1.358   1.155 -0.6220 -0.7123  0.4387
    6bbb    H11  167   6.747   1.378   1.074  0.3511 -0.2764  1.3557
    6bbb    H12  168   6.584   1.408   1.122 -0.0580  0.8826  1.1367
    6bbb     C7  169   6.463   1.854   1.282 -0.7782  0.3018 -0.1548
    6bbb    H13  170   6.430   1.856   1.387 -1.6616 -0.4647 -0.4021
    6bbb    H14  171   6.401   1.787   1.222 -0.9458  0.2300  0.0955
    6bbb     C8  172   6.662   1.204   1.162  0.1343 -0.9363 -0.3495
    6bbb    H15  173   6.599   1.177   1.248 -0.3220  2.2216  0.4606
    6bbb    H16  174   6.604   1.173   1.074 -2.2873  0.5276  0.6077
    6bbb     C9  175   7.015   1.609   1.570  0.3220 -0.5775  0.1048
    6bbb    H17  176   7.106   1.554   1.598 -0.9246 -2.2774  1.0059
    6bbb    H18  177   6.942   1.584   1.648 -1.0610 -0.8272 -1.2242
    6bbb     O1  178   6.453   1.984   1.223  0.3363 -0.2206 -0.5730
    6bbb    H19  179   6.810   1.589   1.197  1.5179 -0.7222  1.8191
    7bbb     N1  180   6.689   2.599  -0.996 -0.1399 -0.0251  0.1800
    7bbb     C1  181   6.817   2.593  -0.923 -1.0098 -0.1929 -0.5016
    7bbb     H1  182   6.889   2.605  -1.004 -2.0365  1.4104 -1.2212
    7bbb     H2  183   6.818   2.497  -0.871  0.7700  0.1985  0.2818
    7bbb     C2  184   6.679   2.492  -1.103 -0.0671 -0.1974 -0.3967
    7bbb     H3  185   6.571   2.488  -1.121 -0.5547 -0.1257  2.0944
    7bbb     H4  186   6.696   2.396  -1.055 -1.2488  0.0877  0.6603
    7bbb     C3  187   6.573   2.576  -0.899  0.3363 -0.1549 -0.6493
    7bbb     H5  188   6.601   2.620  -0.803  0.2723  0.9976 -1.1438
    7bbb     H6  189   6.552   2.469  -0.891 -0.7418  0.0704 -0.3791
    7bbb     C4  190   6.442   2.646  -0.932  0.5315 -0.3150 -0.0749
    7bbb     H7  191   6.409   2.607  -1.029  1.8042  0.9991 -1.0777
    7bbb     H8  192   6.452   2.754  -0.945  0.1211 -0.2337  0.2645
    7bbb     C5  193   6.843   2.704  -0.819 -0.5902 -0.1194 -0.6995
    7bbb     H9  194   6.748   2.739  -0.777 -0.6385 -0.1873 -0.7526
    7bbb    H10  195   6.876   2.796  -0.868 -2.2760  0.8676 -0.0685
    7bbb     C6  196   6.758   2.515  -1.229  0.2173 -0.0623  0.4316
    7bbb    H11  197   6.867   2.525  -1.227  0.0434  2.7135  0.9616
    7bbb    H12  198   6.728   2.610  -1.275  0.4665 -0.6382 -0.9702
    7bbb     C7  199   6.328   2.612  -0.831  0.5186  0.1331  0.1679
    7bbb    H13  200   6.318   2.503  -0.829  1.5559 -0.0362 -1.8820
    7bbb    H14  201   6.236   2.665  -0.859  0.0123 -0.5854  0.4403
    7bbb     C8  202   6.717   2.409  -1.332  0.0206  0.4772  0.1914
    7bbb    H15  203   6.777   2.321  -1.304  0.6804  1.3416  1.6162
    7bbb    H16  204   6.611   2.384  -1.332 -0.0612  0.6963 -1.5658
    7bbb     C9  205   6.948   2.664  -0.709 -0.1416  0.4970 -0.4300
    7bbb    H17  206   6.911   2.578  -0.652 -2.2038  1.6969  0.1197
    7bbb    H18  207   6.959   2.749  -0.641 -0.1955  1.1316 -1.2032
    7bbb     O1  208   6.365   2.653  -0.698 -0.5143  0.1603  0.0996
    7bbb    H19  209   6.678   2.692  -1.038 -1.5754 -0.4864 -0.5295
    8bbb     N1  210   5.448   2.478  -0.530 -0.5546  0.1128 -0.1847
    8bbb     C1  211   5.507   2.562  -0.643 -0.6456 -0.2417 -0.0930
    8bbb     H1  212   5.489   2.515  -0.741  1.2099 -0.8079 -0.1954
    8bbb     H2  213   5.615   2.574  -0.640 -0.4474 -0.8148 -2.5101
    8bbb     C2  214   5.308   2.425  -0.557 -0.0648  0.7556 -0.3432
    8bbb     H3  215   5.316   2.361  -0.645  2.2819  2.1067 -1.2234
    8bbb     H4  216   5.243   2.503  -0.597 -0.6151  0.1880 -0.5659
    8bbb     C3  217   5.544   2.365  -0.495  0.0926 -0.2834 -0.3602
    8bbb     H5  218   5.521   2.315  -0.401  1.5159  0.3458  0.3653
    8bbb     H6  219   5.637   2.416  -0.471 -0.4331  0.3329  0.4263
    8bbb     C4  220   5.559   2.257  -0.611 -0.0777  0.6133  0.1167
    8bbb     H7  221   5.576   2.291  -0.714  0.0601 -2.6359 -1.0299
    8bbb     H8  222   5.468   2.197  -0.612  1.4181 -1.7921  0.2836
    8bbb     C5  223   5.435   2.699  -0.656 -0.7578  0.5616  0.1209
    8bbb     H9  224   5.331   2.676  -0.684 -0.2126 -0.2413 -1.3506
    8bbb    H10  225   5.471   2.759  -0.740  1.2188 -0.5729  0.0987
    8bbb     C6  226   5.247   2.350  -0.436  0.3034  0.1212  0.3109
    8bbb    H11  227   5.269   2.402  -0.342  2.3652 -2.0742  1.1562
    8bbb    H12  228   5.295   2.251  -0.438  2.3123  0.9713  2.1869
    8bbb     C7  229   5.669   2.160  -0.576 -1.0540 -0.0092  0.5487
    8bbb    H13  230   5.675   2.087  -0.658  3.0157 -0.1594  0.7737
    8bbb    H14  231   5.648   2.113  -0.479 -2.8023  0.3596  0.3836
    8bbb     C8  232   5.095   2.339  -0.466  0.3801 -0.0819  0.0046
    8bbb    H15  233   5.041   2.318  -0.374  0.9854 -1.6527  0.0269
    8bbb    H16  234   5.049   2.431  -0.506 -1.1486 -1.2483 -1.0046
    8bbb     C9  235   5.451   2.777  -0.522  0.4068  0.0318 -0.1222
    8bbb    H17  236   5.428   2.882  -0.541 -0.4364 -0.3855 -1.5939
    8bbb    H18  237   5.552   2.780  -0.480  0.4961 -2.8521  0.0637
    8bbb     O1  238   5.796   2.230  -0.577 -0.3619 -0.0844 -0.7897
    8bbb    H19  239   5.434   2.543  -0.452  0.2458  0.4000 -0.2699
    9bbb     N1  240   6.698   3.914   0.313 -0.0980  0.1646  0.4770
    9bbb     C1  241   6.581   3.934   0.213 -0.1570  0.1829  0.4823
    9bbb     H1  242   6.500   3.897   0.276  0.1867  1.0626  1.4789
    9bbb     H2  243   6.600   3.863   0.133  0.5637 -1.9108  2.3905
    9bbb     C2  244   6.839   3.928   0.241 -0.2976  0.2401  0.2716
    9bbb     H3  245   6.838   4.028   0.198  1.2344  0.4689  0.7177
    9bbb     H4  246   6.843   3.869   0.150  1.1559  0.4479  0.1765
    9bbb     C3  247   6.685   4.017   0.431  0.4453  0.2616  0.5059
    9bbb     H5  248   6.706   4.114   0.386  0.0899 -0.3004 -0.9499
    9bbb     H6  249   6.771   3.995   0.495  0.7496  0.9503  0.3429
    9bbb     C4  250   6.553   3.997   0.515 -0.7287 -0.2512  0.0209
    9bbb     H7  251   6.467   4.002   0.446 -1.3660 -3.3836  0.3975
    9bbb     H8  252   6.539   4.080   0.584 -1.3622 -0.3792  0.0565
    9bbb     C5  253   6.553   4.071   0.143 -0.1960 -0.2828  0.5697
    9bbb     H9  254   6.648   4.087   0.091 -0.9173 -1.5927 -1.2285
    9bbb    H10  255   6.543   4.142   0.226 -1.3386  0.7481 -0.4145
    9bbb     C6  256   6.961   3.901   0.323 -0.3156  0.8005 -0.1715
    9bbb    H11  257   6.962   3.804   0.374  3.0771  0.2865 -0.9752
    9bbb    H12  258   6.968   3.986   0.392 -1.3312  1.4625 -0.8660
    9bbb     C7  259   6.552   3.865   0.594  0.7883  0.2037 -0.0579
    9bbb    H13  260   6.464   3.862   0.659  2.3951  0.6163  2.2435
    9bbb    H14  261   6.637   3.866   0.663  0.9929  0.7746 -0.3201
    9bbb     C8  262   7.090   3.902   0.236 -0.4148  0.5229  0.6108
    9bbb    H15  263   7.167   3.846   0.290  0.0165  2.7320  2.4183
    9bbb    H16  264   7.067   3.846   0.144 -0.7066  1.2370  0.2444
    9bbb     C9  265   6.430   4.093   0.055  0.0051  0.5151  1.1759
    9bbb    H17  266   6.339   4.065   0.110 -2.4849  1.9397 -1.8783
    9bbb    H18  267   6.435   4.025  -0.031  5.7180  0.8469  0.8626
    9bbb     O1  268   6.556   3.746   0.504  0.0808 -0.6418 -0.2843
    9bbb    H19  269   6.688   3.821   0.357  0.0951  0.4735  1.1994
   10bbb     N1  270   5.903   4.224   0.996  0.0559  0.2177 -0.7322
   10bbb     C1  271   5.841   4.291   1.122 -0.0487 -0.4767 -0.7100
   10bbb     H1  272   5.861   4.398   1.117 -2.2729  0.0896  0.7732
   10bbb     H2  273   5.893   4.252   1.210  0.9058  1.0915 -0.5423
   10bbb     C2  274   6.030   4.293   0.961 -0.6408 -0.3096 -0.3661
   10bbb     H3  275   6.005   4.398   0.943  1.2015 -0.1249 -2.2695
   10bbb     H4  276   6.080   4.245   0.876 -0.4204  0.3317 -0.6057
   10bbb     C3  277   5.933   4.080   1.040  0.0576 -0.3601  0.2786
   10bbb     H5  278   5.835   4.040   1.068 -0.6175  1.5672  0.8543
   10bbb     H6  279   5.989   4.074   1.133  0.7833 -2.0152 -0.2210
   10bbb     C4  280   5.992   3.986   0.938  0.0880  0.3832 -0.0298
   10bbb     H7  281   6.100   4.000   0.930  0.2012 -0.7872 -0.8151
   10bbb     H8  282   5.942   4.011   0.843 -1.1071  3.0661  1.1760
   10bbb     C5  283   5.691   4.259   1.152 -1.0326  0.9784  0.3732
   10bbb     H9  284   5.675   4.151   1.164  0.2224  0.5023 -1.8001
   10bbb    H10  285   5.627   4.271   1.063  0.1842 -0.5748 -0.7471
   10bbb     C6  286   6.133   4.303   1.070  0.0386 -0.1795 -0.6056
   10bbb    H11  287   6.154   4.204   1.112  0.6387  1.0760  2.2699
   10bbb    H12  288   6.088   4.354   1.156  0.4039 -1.6249  0.4800
   10bbb     C7  289   5.978   3.833   0.985  0.1679  0.1439  0.8282
   10bbb    H13  290   5.873   3.809   1.006  0.2317 -0.0770  0.8941
   10bbb    H14  291   6.035   3.821   1.078  0.3312  0.5710  0.7874
   10bbb     C8  292   6.261   4.387   1.030 -0.4472  0.0001 -0.5486
   10bbb    H15  293   6.320   4.335   0.954 -1.0438 -1.1279 -0.2663
   10bbb    H16  294   6.237   4.493   1.014  0.1254  0.0924 -0.8027
   10bbb     C9  295   5.643   4.334   1.273  0.6444 -0.6260 -0.2459
   10bbb    H17  296   5.710   4.411   1.312 -1.6966 -0.0637  3.0749
   10bbb    H18  297   5.638   4.276   1.366  4.1829  0.8634  1.0465
   10bbb     O1  298   6.031   3.740   0.888 -0.0209  0.1170 -0.0582
   10bbb    H19  299   5.837   4.227   0.917 -1.3273  0.9817  0.4027
   11bbb     N1  300   6.513   1.702   2.528  0.9372 -0.2060  0.2078
   11bbb     C1  301   6.366   1.699   2.531  0.4243  0.6658 -0.1959
   11bbb     H1  302   6.334   1.676   2.632  1.6781  2.6281  0.7073
   11bbb     H2  303   6.337   1.618   2.464  0.1978 -0.3291  1.0801
   11bbb     C2  304   6.565   1.563   2.565  0.5139  0.2240 -0.5517
   11bbb     H3  305   6.534   1.485   2.496  1.3988 -0.4815 -0.1715
   11bbb     H4  306   6.516   1.541   2.660  1.7720  0.6183  0.2080
   11bbb     C3  307   6.573   1.731   2.384 -0.3064 -0.2143 -0.8693
   11bbb     H5  308   6.678   1.701   2.384 -0.2624 -0.0609 -0.5035
   11bbb     H6  309   6.570   1.840   2.376  1.3081  0.0380  1.1828
   11bbb     C4  310   6.507   1.668   2.258  0.0001  0.1523 -0.5992
   11bbb     H7  311   6.398   1.680   2.257 -0.3349 -2.2694  0.0575
   11bbb     H8  312   6.517   1.559   2.269  2.1142  0.3378 -0.2362
   11bbb     C5  313   6.308   1.842   2.501  0.0873  0.0015  0.2401
   11bbb     H9  314   6.330   1.871   2.397  0.5061  1.8414  0.8059
   11bbb    H10  315   6.358   1.921   2.559 -2.3035  0.1341  2.2828
   11bbb     C6  316   6.712   1.540   2.584 -0.2714  0.5911  0.7787
   11bbb    H11  317   6.749   1.629   2.636  0.0835  0.5935  0.5258
   11bbb    H12  318   6.752   1.545   2.482  0.2292 -1.5684  0.8116
   11bbb     C7  319   6.562   1.701   2.128  0.6514  0.0241 -0.4037
   11bbb    H13  320   6.539   1.612   2.067  1.2597 -0.4477  0.0370
   11bbb    H14  321   6.670   1.717   2.137  0.4124  0.4988  3.2924
   11bbb     C8  322   6.748   1.419   2.664  0.4527  0.4181  0.2503
   11bbb    H15  323   6.852   1.388   2.652 -0.1733 -1.2435 -1.4081
   11bbb    H16  324   6.741   1.447   2.770  0.1094  0.3684  0.2432
   11bbb     C9  325   6.158   1.852   2.540  0.0498 -0.3162  0.3134
   11bbb    H17  326   6.099   1.773   2.491 -2.6921  0.3891  2.2115
   11bbb    H18  327   6.116   1.950   2.515 -2.6918 -1.3564  0.4101
   11bbb     O1  328   6.488   1.811   2.072  0.2702  0.0344  0.0034
   11bbb    H19  329   6.545   1.774   2.595 -0.0799  0.3875  0.0862
   12bbb     N1  330   5.888   2.782   2.219  0.1465  0.1361  0.1860
   12bbb     C1  331   5.844   2.846   2.353 -0.0958  0.2161 -0.5053
   12bbb     H1  332   5.935   2.858   2.411 -0.9558  2.6931  0.4784
   12bbb     H2  333   5.787   2.773   2.411  1.9743  0.6790  2.3292
   12bbb     C2  334   6.008   2.844   2.147  0.2976  0.5219 -0.0849
   12bbb     H3  335   6.098   2.785   2.163 -1.0867 -1.3508  1.2300
   12bbb     H4  336   6.024   2.949   2.173 -0.0308  0.9573 -1.5827
   12bbb     C3  337   5.917   2.632   2.255  0.4281  0.3626  0.2203
   12bbb     H5  338   5.844   2.593   2.326 -0.8503 -0.0110 -1.2346
   12bbb     H6  339   6.014   2.628   2.304  0.4374  1.4000  0.3070
   12bbb     C4  340   5.933   2.535   2.133 -0.3404  0.0995 -0.2279
   12bbb     H7  341   6.010   2.559   2.059 -0.3268 -1.5988 -0.8063
   12bbb     H8  342   5.834   2.534   2.084 -0.0653  0.6396 -0.8088
   12bbb     C5  343   5.769   2.984   2.363 -0.5619  0.1343 -0.3206
   12bbb     H9  344   5.675   2.996   2.307  0.1064 -0.3183 -1.5851
   12bbb    H10  345   5.845   3.052   2.323 -1.1710  0.3882 -1.0642
   12bbb     C6  346   5.973   2.851   1.991 -0.2723  0.1319 -0.2361
   12bbb    H11  347   5.992   2.755   1.940  1.0880  0.6476 -0.7343
   12bbb    H12  348   6.057   2.908   1.950  0.8201 -1.2580 -0.0094
   12bbb     C7  349   5.952   2.395   2.170  0.0286 -0.0710 -0.0969
   12bbb    H13  350   5.876   2.366   2.243  0.4664 -0.9115  0.0377
   12bbb    H14  351   6.048   2.385   2.222  0.0762 -0.4984 -0.2596
   12bbb     C8  352   5.829   2.904   1.954  0.1141 -0.0345 -0.2561
   12bbb    H15  353   5.815   2.987   2.025 -0.7177 -1.0149  0.7647
   12bbb    H16  354   5.838   2.935   1.849 -0.5895  0.1616 -0.2634
   12bbb     C9  355   5.749   3.024   2.509 -0.3604  0.6529 -0.0203
   12bbb    H17  356   5.699   2.939   2.558 -0.8707  1.0654  0.1937
   12bbb    H18  357   5.670   3.101   2.517 -0.7745  0.1103  1.4834
   12bbb     O1  358   5.950   2.307   2.052  0.2361 -0.1628 -0.0238
   12bbb    H19  359   5.807   2.796   2.157  1.2227  1.0321 -1.0629
   13bbb     N1  360   7.142   0.866   1.050 -0.2915  0.0764  1.1535
   13bbb     C1  361   7.137   0.716   1.080  0.4995 -0.4035  0.3866
   13bbb     H1  362   7.080   0.708   1.172 -0.0688  0.3807  0.1078
   13bbb     H2  363   7.239   0.688   1.109  0.2036 -1.5550  0.3563
   13bbb     C2  364   7.206   0.878   0.910 -0.1324 -0.6058  0.5293
   13bbb     H3  365   7.212   0.982   0.877  4.6320 -0.9320 -0.2775
   13bbb     H4  366   7.137   0.829   0.841 -0.0880  2.7588 -2.1916
   13bbb     C3  367   7.008   0.936   1.054 -0.3552  0.4910  0.0628
   13bbb     H5  368   6.951   0.904   0.968 -2.1311 -0.1436  1.4173
   13bbb     H6  369   7.040   1.039   1.033  1.0051 -0.1098 -0.9234
   13bbb     C4  370   6.928   0.944   1.185  0.0529  0.6807 -0.4858
   13bbb     H7  371   6.976   1.002   1.265  0.4277  2.5429 -1.9832
   13bbb     H8  372   6.908   0.843   1.221 -0.2386  0.6565 -0.7104
   13bbb     C5  373   7.062   0.622   0.972 -0.6328 -0.7071 -0.8601
   13bbb     H9  374   7.117   0.610   0.878 -0.6488  2.1590 -1.3106
   13bbb    H10  375   6.968   0.674   0.949 -0.5108  0.4927  1.1611
   13bbb     C6  376   7.356   0.836   0.905  0.0109 -0.4985  0.8425
   13bbb    H11  377   7.364   0.728   0.887  0.4584 -0.3642  0.1972
   13bbb    H12  378   7.401   0.852   1.004 -0.5210 -4.8239  2.0162
   13bbb     C7  379   6.791   0.997   1.154  0.2218 -0.7895  0.2986
   13bbb    H13  380   6.723   0.962   1.233 -2.6443  2.1802 -0.6280
   13bbb    H14  381   6.757   0.962   1.056  0.6169 -0.4060  0.0186
   13bbb     C8  382   7.441   0.919   0.802 -0.2288 -0.5198 -0.6829
   13bbb    H15  383   7.470   1.013   0.851  0.6268 -1.1373  0.0274
   13bbb    H16  384   7.533   0.861   0.786 -0.7520 -1.0762 -1.7494
   13bbb     C9  385   7.037   0.476   1.020  0.0783 -0.5050  0.5466
   13bbb    H17  386   6.998   0.417   0.937 -0.1174  2.1443 -1.3704
   13bbb    H18  387   6.967   0.487   1.104 -0.6019  2.5208 -0.2868
   13bbb     O1  388   6.789   1.144   1.173  0.2718  0.4706 -0.2635
   13bbb    H19  389   7.209   0.911   1.114  2.6152 -2.0277 -0.2041
   14bbb     N1  390   7.520   1.789   1.720  0.5412 -0.1242  0.3638
   14bbb     C1  391   7.557   1.913   1.638  0.3233  0.7987 -0.3768
   14bbb     H1  392   7.548   2.008   1.691 -1.8460  0.1153  0.5849
   14bbb     H2  393   7.481   1.923   1.560 -1.6988  0.4458  1.4555
   14bbb     C2  394   7.600   1.767   1.846 -0.0927 -0.3902 -0.3796
   14bbb     H3  395   7.700   1.736   1.817  0.1238  0.3508 -0.4353
   14bbb     H4  396   7.554   1.685   1.903  1.6047 -1.3785 -0.3738
   14bbb     C3  397   7.368   1.794   1.758 -0.5601  0.0675 -0.2080
   14bbb     H5  398   7.345   1.884   1.815 -2.3840  2.5003 -4.3063
   14bbb     H6  399   7.360   1.699   1.811  1.0510 -0.5289 -0.9663
   14bbb     C4  400   7.260   1.793   1.647  0.2355 -1.0272 -0.6355
   14bbb     H7  401   7.275   1.705   1.583 -2.6356 -1.9094 -0.2286
   14bbb     H8  402   7.275   1.877   1.578 -2.8270 -0.0311 -0.2496
   14bbb     C5  403   7.697   1.901   1.573 -0.2053  0.1685  0.3868
   14bbb     H9  404   7.692   1.969   1.488  0.0036 -0.6273 -0.2741
   14bbb    H10  405   7.708   1.798   1.537 -1.1512  0.1369  0.1762
   14bbb     C6  406   7.612   1.887   1.939  0.6430 -0.4707 -1.0247
   14bbb    H11  407   7.513   1.913   1.979  1.1552  2.0878 -1.2281
   14bbb    H12  408   7.646   1.978   1.886 -0.4528 -0.1686 -1.2342
   14bbb     C7  409   7.113   1.796   1.693  0.2061  0.4248 -0.4143
   14bbb    H13  410   7.068   1.894   1.711 -3.1697 -0.7796 -1.4119
   14bbb    H14  411   7.094   1.740   1.786  1.2191  0.1534 -0.3593
   14bbb     C8  412   7.705   1.863   2.058  0.0432  0.1445  0.0587
   14bbb    H15  413   7.701   1.953   2.119 -0.3768  0.3338 -0.2472
   14bbb    H16  414   7.681   1.780   2.126  0.0186  0.7913  0.8476
   14bbb     C9  415   7.814   1.944   1.664 -0.3191 -0.3169  0.0297
   14bbb    H17  416   7.910   1.944   1.610 -0.4083 -1.3968 -0.1532
   14bbb    H18  417   7.828   1.872   1.745 -2.1376 -1.8646 -0.9684
   14bbb     O1  418   7.030   1.752   1.573  0.0004  0.0725  0.1778
   14bbb    H19  419   7.541   1.705   1.665  0.3535 -0.7166  1.1814
   15bbb     N1  420   6.767   2.403  -1.951  0.6104 -0.3824  0.1708
   15bbb     C1  421   6.800   2.290  -2.053  0.0130 -0.3341  0.4397
   15bbb     H1  422   6.763   2.324  -2.150  2.3105 -0.2882 -0.4795
   15bbb     H2  423   6.727   2.211  -2.036  0.3343 -0.6454  0.3823
   15bbb     C2  424   6.650   2.483  -1.989  0.3666  0.4235 -0.5251
   15bbb     H3  425   6.691   2.556  -2.059 -0.3903  0.8152 -0.5752
   15bbb     H4  426   6.619   2.532  -1.896  1.5049 -0.1493  0.1782
   15bbb     C3  427   6.745   2.340  -1.816  0.0874 -0.3389 -0.1797
   15bbb     H5  428   6.810   2.253  -1.805  0.0843 -0.2649  0.4782
   15bbb     H6  429   6.639   2.314  -1.803 -0.0725 -0.1562 -1.1009
   15bbb     C4  430   6.775   2.436  -1.696  0.5232 -0.2446 -0.3157
   15bbb     H7  431   6.718   2.529  -1.693  2.5437  1.0179  1.0242
   15bbb     H8  432   6.880   2.463  -1.712  0.1217  1.4042 -0.3198
   15bbb     C5  433   6.944   2.237  -2.057 -0.3832 -0.2585 -0.1898
   15bbb     H9  434   6.972   2.185  -1.965 -0.0757  0.8328  0.3437
   15bbb    H10  435   7.003   2.329  -2.052 -1.7977  0.6418  0.5058
   15bbb     C6  436   6.534   2.410  -2.049  0.3613 -0.2677  0.1259
   15bbb    H11  437   6.498   2.328  -1.986  1.5109 -0.8935 -0.0067
   15bbb    H12  438   6.552   2.372  -2.150 -1.0164  2.1010 -1.1071
   15bbb     C7  439   6.751   2.361  -1.562  0.4740  0.4551 -0.2222
   15bbb    H13  440   6.838   2.294  -1.552  0.0002 -0.1549 -0.1052
   15bbb    H14  441   6.658   2.302  -1.563  1.3261 -0.9399 -0.0058
   15bbb     C8  442   6.412   2.514  -2.044  0.1029  0.2618 -0.2818
   15bbb    H15  443   6.322   2.457  -2.068  0.1329 -1.4168  3.0471
   15bbb    H16  444   6.395   2.549  -1.942  1.5336  3.7849 -1.1022
   15bbb     C9  445   6.982   2.151  -2.190  0.1952 -0.4290  0.9202
   15bbb    H17  446   7.091   2.134  -2.191  0.3430  0.2402  2.2075
   15bbb    H18  447   6.956   2.217  -2.273 -0.4558 -1.0414  0.6333
   15bbb     O1  448   6.750   2.464  -1.457  0.2830 -0.3378 -0.0257
   15bbb    H19  449   6.852   2.461  -1.950 -0.1086  0.7162 -0.2535
   16bbb     N1  450   7.327   2.526  -0.712 -0.1386  0.4146  0.4544
   16bbb     C1  451   7.385   2.437  -0.820  0.0746  0.1315  0.3460
   16bbb     H1  452   7.489   2.466  -0.835  0.4356 -0.3731  1.7070
   16bbb     H2  453   7.329   2.452  -0.912 -0.3536 -2.2117  0.1437
   16bbb     C2  454   7.396   2.493  -0.579  0.2350  0.1844 -0.5264
   16bbb     H3  455   7.503   2.510  -0.587  0.2631  0.0596 -0.3969
   16bbb     H4  456   7.377   2.389  -0.553 -1.1587  0.6905  0.5806
   16bbb     C3  457   7.366   2.666  -0.754 -0.6557  0.3288 -0.5384
   16bbb     H5  458   7.469   2.664  -0.790 -0.5075 -0.0684 -0.0959
   16bbb     H6  459   7.358   2.727  -0.664  1.7809 -1.7583  1.2316
   16bbb     C4  460   7.284   2.736  -0.860  0.3687  0.7028 -0.3040
   16bbb     H7  461   7.275   2.667  -0.946 -1.9273 -2.7465  2.3976
   16bbb     H8  462   7.342   2.823  -0.891  0.5311  0.9335  0.6380
   16bbb     C5  463   7.387   2.288  -0.785 -0.2056  0.1801  0.1903
   16bbb     H9  464   7.288   2.259  -0.748 -0.7095 -0.7994 -1.7758
   16bbb    H10  465   7.463   2.262  -0.710 -0.5078  2.5967  1.4294
   16bbb     C6  466   7.338   2.574  -0.464 -0.0594 -0.2379  0.6125
   16bbb    H11  467   7.230   2.560  -0.458 -0.3148  0.8150 -0.8800
   16bbb    H12  468   7.361   2.681  -0.474  2.1336 -0.3775  3.0506
   16bbb     C7  469   7.135   2.767  -0.810 -0.1105  1.0383  0.5756
   16bbb    H13  470   7.089   2.823  -0.892  0.1680  1.4116  0.6686
   16bbb    H14  471   7.132   2.835  -0.724 -1.8443  1.9981 -0.2018
   16bbb     C8  472   7.387   2.544  -0.319 -0.2038  0.7440 -0.1339
   16bbb    H15  473   7.352   2.623  -0.251  2.1705  0.7840  1.1460
   16bbb    H16  474   7.349   2.448  -0.282  2.1090 -0.5440 -0.8572
   16bbb     C9  475   7.415   2.193  -0.907 -0.6247  0.3198 -0.2332
   16bbb    H17  476   7.348   2.220  -0.989  0.7811 -1.7620 -2.1883
   16bbb    H18  477   7.429   2.088  -0.876  1.1966  0.5401 -0.2509
   16bbb     O1  478   7.071   2.637  -0.775  0.6919 -0.4296  0.2626
   16bbb    H19  479   7.226   2.511  -0.705  0.0267 -0.1809  2.0274
   17bbb     N1  480   5.062   1.953  -0.558  0.4256 -0.0480 -0.5457
   17bbb     C1  481   5.059   1.853  -0.443  0.3932  0.1743  0.3057
   17bbb     H1  482   5.081   1.755  -0.485  0.5352  0.0014  0.7655
   17bbb     H2  483   4.955   1.841  -0.414  0.8252 -1.0383  1.4767
   17bbb     C2  484   5.152   1.903  -0.672 -0.1002 -0.0836 -0.5918
   17bbb     H3  485   5.254   1.881  -0.638  0.7129  2.3476 -1.2236
   17bbb     H4  486   5.155   1.995  -0.731 -1.6286 -0.1226 -0.7643
   17bbb     C3  487   4.914   1.989  -0.607  0.1438 -0.2998  0.2406
   17bbb     H5  488   4.862   2.004  -0.512  1.2245  1.5725  0.5855
   17bbb     H6  489   4.877   1.906  -0.668 -0.4546  1.0397 -1.3098
   17bbb     C4  490   4.917   2.116  -0.694  0.6486  0.2185  0.2858
   17bbb     H7  491   4.823   2.133  -0.749  1.0289  0.8302 -0.1947
   17bbb     H8  492   4.985   2.100  -0.779 -1.3711  1.1120 -1.6155
   17bbb     C5  493   5.139   1.893  -0.320 -0.1201  0.0810 -0.2428
   17bbb     H9  494   5.247   1.898  -0.336 -0.3364 -1.1486 -2.5053
   17bbb    H10  495   5.133   1.814  -0.244  1.1485 -2.7213 -2.8736
   17bbb     C6  496   5.085   1.789  -0.757  0.2506  0.2296  0.0767
   17bbb    H11  497   4.995   1.822  -0.811 -1.4011 -1.3355  1.7404
   17bbb    H12  498   5.046   1.711  -0.691 -0.8572 -0.6826 -1.5699
   17bbb     C7  499   4.950   2.250  -0.623 -0.4961  0.1189  0.1466
   17bbb    H13  500   4.866   2.273  -0.556 -0.8206  0.0622 -0.2386
   17bbb    H14  501   4.949   2.326  -0.701  0.1484  0.5450  0.5510
   17bbb     C8  502   5.186   1.717  -0.847 -0.9739  0.3199 -0.0265
   17bbb    H15  503   5.229   1.792  -0.914 -1.0347 -0.6435 -1.1771
   17bbb    H16  504   5.271   1.675  -0.791 -1.2748 -2.2013 -1.3129
   17bbb     C9  505   5.088   2.019  -0.263  0.0605 -0.0166 -0.3549
   17bbb    H17  506   5.099   2.096  -0.340 -0.1387 -2.1817 -2.6909
   17bbb    H18  507   5.160   2.043  -0.183  0.3938 -2.5468  0.1936
   17bbb     O1  508   5.078   2.242  -0.569 -0.2855 -0.2808  0.4075
   17bbb    H19  509   5.108   2.040  -0.527 -0.4267  0.9569 -1.9899
   18bbb     N1  510   5.045   2.774  -0.100 -0.9784 -0.8412 -0.4928
   18bbb     C1  511   5.077   2.851   0.032  0.4620  0.0449 -1.0671
   18bbb     H1  512   5.072   2.958   0.010 -1.9473 -0.0580 -1.2915
   18bbb     H2  513   5.182   2.837   0.060  0.0764 -0.6262  0.1247
   18bbb     C2  514   4.905   2.817  -0.147  0.4894 -0.5305 -0.6854
   18bbb     H3  515   4.906   2.922  -0.177  0.9039 -0.5278 -0.6691
   18bbb     H4  516   4.854   2.807  -0.051  0.7393  2.5657 -0.1353
   18bbb     C3  517   5.143   2.804  -0.209 -0.7585  0.3741  0.9602
   18bbb     H5  518   5.162   2.910  -0.229 -2.3199 -0.0892 -4.7270
   18bbb     H6  519   5.111   2.766  -0.306 -0.2058  0.0279  0.9115
   18bbb     C4  520   5.278   2.728  -0.185 -0.0706  0.1912 -0.1252
   18bbb     H7  521   5.259   2.620  -0.176 -0.1424  0.2432  0.3420
   18bbb     H8  522   5.316   2.759  -0.087 -0.0050 -0.9620  0.2241
   18bbb     C5  523   4.982   2.822   0.161 -0.9168 -0.2049  0.6166
   18bbb     H9  524   5.007   2.721   0.193  0.6832 -0.2430 -0.6281
   18bbb    H10  525   4.875   2.842   0.149 -0.7855 -0.1577 -0.6815
   18bbb     C6  526   4.840   2.731  -0.258 -0.3471  0.2676  0.4878
   18bbb    H11  527   4.845   2.623  -0.238  0.7896  0.1460 -0.3227
   18bbb    H12  528   4.899   2.737  -0.350  1.5814 -0.9257  1.5728
   18bbb     C7  529   5.384   2.763  -0.292  0.6222  0.0483 -0.0973
   18bbb    H13  530   5.480   2.724  -0.257 -0.1244 -0.4162  1.5200
   18bbb    H14  531   5.388   2.872  -0.301 -0.3966  0.0583 -0.6566
   18bbb     C8  532   4.699   2.787  -0.284  0.4870 -0.3545 -0.0874
   18bbb    H15  533   4.638   2.703  -0.318 -1.1655  0.5916  0.4290
   18bbb    H16  534   4.648   2.819  -0.192  2.5114 -1.2944  1.4389
   18bbb     C9  535   5.026   2.907   0.281  0.0301  0.0876  0.0900
   18bbb    H17  536   5.034   3.016   0.268 -0.9335  0.4515  2.1031
   18bbb    H18  537   5.130   2.885   0.307  0.4495  0.0305 -1.5553
   18bbb     O1  538   5.360   2.714  -0.425  0.5765  0.2897 -0.1354
   18bbb    H19  539   5.044   2.674  -0.077  0.7982 -1.0021 -0.9845
   19bbb     N1  540   7.317   4.256   0.366 -0.8596 -0.4225  0.2958
   19bbb     C1  541   7.318   4.308   0.511 -0.1682  0.3285  0.3142
   19bbb     H1  542   7.329   4.416   0.498  2.5806  0.0637 -0.0610
   19bbb     H2  543   7.404   4.263   0.560  0.1799 -0.3162 -0.8534
   19bbb     C2  544   7.410   4.341   0.282  0.7287 -0.3258  0.3381
   19bbb     H3  545   7.374   4.443   0.273 -0.3894 -0.7942 -0.8724
   19bbb     H4  546   7.406   4.303   0.179  1.1588 -0.3823  0.3403
   19bbb     C3  547   7.365   4.104   0.358 -0.0446 -0.3030  0.0784
   19bbb     H5  548   7.301   4.058   0.434 -1.3057  5.2721  2.8966
   19bbb     H6  549   7.462   4.094   0.407 -0.2773  0.7076  0.7833
   19bbb     C4  550   7.380   4.035   0.223  0.1005 -0.1010  0.6448
   19bbb     H7  551   7.382   3.926   0.230  1.3299 -0.1984 -0.6737
   19bbb     H8  552   7.472   4.071   0.174 -0.6378  0.7057 -0.1823
   19bbb     C5  553   7.197   4.301   0.599 -0.4847  0.0347 -0.2950
   19bbb     H9  554   7.108   4.355   0.565 -0.6527  0.8182  1.2927
   19bbb    H10  555   7.214   4.346   0.698 -1.5071  0.6666 -0.3975
   19bbb     C6  556   7.561   4.339   0.326  0.3604 -0.0928 -0.2570
   19bbb    H11  557   7.615   4.244   0.324 -3.1742 -2.3025  0.1646
   19bbb    H12  558   7.567   4.364   0.433  1.0297 -1.4403  0.0427
   19bbb     C7  559   7.252   4.065   0.136 -0.0733  0.0528 -0.3886
   19bbb    H13  560   7.255   4.004   0.045  0.1487 -0.6187  0.0586
   19bbb    H14  561   7.255   4.174   0.126  1.1895  0.3158  2.0531
   19bbb     C8  562   7.650   4.442   0.253 -0.2732 -0.3660  0.1699
   19bbb    H15  563   7.622   4.541   0.291  0.3560  0.7352 -2.0708
   19bbb    H16  564   7.755   4.433   0.283 -0.0902 -0.0236 -0.3567
   19bbb     C9  565   7.150   4.155   0.623 -0.1950 -0.0885 -0.2206
   19bbb    H17  566   7.107   4.117   0.529  0.6861  0.0950 -0.7098
   19bbb    H18  567   7.075   4.161   0.703  0.2452  2.9378  0.0525
   19bbb     O1  568   7.132   4.040   0.215  0.4951  0.2458 -0.1647
   19bbb    H19  569   7.221   4.267   0.330  0.0051 -0.0674 -2.0842
   20bbb     N1  570   6.483   4.592  -0.250  0.2982 -0.3563  0.1790
   20bbb     C1  571   6.618   4.609  -0.325 -0.6590 -0.2840  0.3189
   20bbb     H1  572   6.619   4.712  -0.360  1.8437 -0.4935 -0.4057
   20bbb     H2  573   6.610   4.557  -0.420  0.3181  0.2841 -0.0867
   20bbb     C2  574   6.366   4.643  -0.331 -0.0618 -0.9846 -0.4782
   20bbb     H3  575   6.281   4.623  -0.264  0.7634  2.0764  1.7068
   20bbb     H4  576   6.363   4.585  -0.423  2.7566 -1.7106 -0.1729
   20bbb     C3  577   6.467   4.444  -0.230  0.8315 -0.5333 -1.1689
   20bbb     H5  578   6.552   4.414  -0.170 -0.5669  0.2299  1.3185
   20bbb     H6  579   6.459   4.396  -0.328  0.1755 -1.0814 -0.8585
   20bbb     C4  580   6.341   4.393  -0.151  0.3756  0.7539 -0.1256
   20bbb     H7  581   6.249   4.400  -0.210  1.1898  1.5341 -1.3507
   20bbb     H8  582   6.331   4.461  -0.065  0.5125  0.3800  0.1851
   20bbb     C5  583   6.754   4.582  -0.252 -0.1755 -0.3165  0.7678
   20bbb     H9  584   6.757   4.476  -0.227  0.5332 -0.3410  0.5978
   20bbb    H10  585   6.765   4.640  -0.160  0.1600  0.0750  0.4814
   20bbb     C6  586   6.358   4.797  -0.363 -0.2534 -0.0587  0.1816
   20bbb    H11  587   6.429   4.829  -0.440 -2.1952  1.9223 -0.8821
   20bbb    H12  588   6.364   4.861  -0.275  0.0283 -0.3055  0.3415
   20bbb     C7  589   6.345   4.248  -0.099  0.3320 -0.0913  0.3790
   20bbb    H13  590   6.375   4.182  -0.181 -2.2223 -0.3702 -0.4134
   20bbb    H14  591   6.245   4.218  -0.065 -0.6739  3.8399  1.3719
   20bbb     C8  592   6.221   4.823  -0.423  0.6514  0.1045 -0.1463
   20bbb    H15  593   6.225   4.929  -0.453 -1.5750  0.4750  0.6358
   20bbb    H16  594   6.184   4.769  -0.510  4.0591  2.5521 -3.4202
   20bbb     C9  595   6.875   4.613  -0.333 -0.2526  0.2419 -0.3134
   20bbb    H17  596   6.848   4.584  -0.436  0.3860  0.1506 -0.4595
   20bbb    H18  597   6.955   4.548  -0.298  0.2506  1.3804  0.7361
   20bbb     O1  598   6.433   4.231   0.014 -0.7101  0.1202 -0.4450
   20bbb    H19  599   6.488   4.644  -0.161 -0.9864  0.5002 -0.2150
   21bbb     N1  600   6.588   4.768   1.210  0.0598 -0.9001  0.5002
   21bbb     C1  601   6.538   4.857   1.331  0.2441  0.2877  0.3652
   21bbb     H1  602   6.603   4.836   1.416  0.6274  0.1917  0.0539
   21bbb     H2  603   6.436   4.836   1.363  0.0649  1.1159  0.3616
   21bbb     C2  604   6.745   4.765   1.217  1.2308  0.0101  0.7711
   21bbb     H3  605   6.774   4.863   1.180 -0.1264 -0.2252 -1.0384
   21bbb     H4  606   6.772   4.692   1.141  0.5333 -0.8156  1.2931
   21bbb     C3  607   6.534   4.630   1.231 -0.1433 -0.4853 -0.2314
   21bbb     H5  608   6.435   4.640   1.275  0.5477  2.3819  0.9388
   21bbb     H6  609   6.595   4.576   1.304 -2.1469 -1.9453  0.4420
   21bbb     C4  610   6.514   4.561   1.095 -0.4345  0.5896  0.1765
   21bbb     H7  611   6.611   4.573   1.045  0.5916  0.7955  2.1187
   21bbb     H8  612   6.442   4.618   1.036 -0.7014  1.8422  1.6477
   21bbb     C5  613   6.553   5.006   1.306 -0.3412 -0.2744  0.0394
   21bbb     H9  614   6.492   5.042   1.222 -0.7706  0.3814  0.6159
   21bbb    H10  615   6.654   5.026   1.269 -0.4725  0.0754 -0.1453
   21bbb     C6  616   6.802   4.728   1.357 -0.1249 -0.1266  0.5078
   21bbb    H11  617   6.873   4.646   1.341  1.0186  0.5159  2.0869
   21bbb    H12  618   6.723   4.676   1.412  0.3376 -0.5135  0.8103
   21bbb     C7  619   6.490   4.414   1.109  0.0112 -0.0760  0.6806
   21bbb    H13  620   6.554   4.384   1.193  0.4342 -1.5186 -0.1247
   21bbb    H14  621   6.514   4.355   1.019 -0.1782  0.3907  0.3185
   21bbb     C8  622   6.874   4.845   1.435  0.4099  0.2338 -0.2632
   21bbb    H15  623   6.883   4.937   1.376 -1.4312  0.4870 -0.2331
   21bbb    H16  624   6.806   4.884   1.512  0.5245  2.2310 -1.1203
   21bbb     C9  625   6.504   5.078   1.439 -0.2349 -0.0485 -0.0450
   21bbb    H17  626   6.493   5.016   1.528 -1.8442 -2.8132 -2.0002
   21bbb    H18  627   6.400   5.112   1.423 -0.0386 -0.3051 -2.2397
   21bbb     O1  628   6.346   4.389   1.142  0.4561  0.0142 -0.4845
   21bbb    H19  629   6.555   4.803   1.118  1.3468 -0.3060  0.2543
   22bbb     N1  630   5.254   4.749   1.220  0.2348 -0.1060  0.0291
   22bbb     C1  631   5.285   4.850   1.111  0.1832  0.2945  0.5117
   22bbb     H1  632   5.260   4.949   1.150 -0.3315  0.6162 -0.5967
   22bbb     H2  633   5.212   4.827   1.034  0.9485  0.7680 -0.3675
   22bbb     C2  634   5.100   4.732   1.236 -0.5965 -0.1905  0.0148
   22bbb     H3  635   5.094   4.645   1.302 -1.2020 -1.0926 -1.1826
   22bbb     H4  636   5.069   4.698   1.137 -1.0050 -2.4792  0.8454
   22bbb     C3  637   5.310   4.610   1.179 -0.0892 -0.4973 -0.8708
   22bbb     H5  638   5.414   4.623   1.150  0.7945 -0.2118  2.0601
   22bbb     H6  639   5.250   4.567   1.098  1.5059 -1.8107 -1.3974
   22bbb     C4  640   5.302   4.503   1.294 -0.3024  0.2685  0.0191
   22bbb     H7  641   5.252   4.411   1.262 -1.1775  1.2672 -1.6335
   22bbb     H8  642   5.244   4.548   1.375  1.2095  0.3995  1.0689
   22bbb     C5  643   5.427   4.855   1.043  0.2297  1.0613 -0.2892
   22bbb     H9  644   5.446   4.761   0.989  2.9074  1.0658  0.4915
   22bbb    H10  645   5.500   4.849   1.124 -0.2477  0.4890  0.1108
   22bbb     C6  646   5.024   4.846   1.301 -0.0508 -0.0819 -0.4025
   22bbb    H11  647   4.926   4.816   1.338  0.2969 -0.3974  0.2768
   22bbb    H12  648   5.002   4.929   1.232  1.2507  0.9940  0.4275
   22bbb     C7  649   5.446   4.461   1.344 -0.0237  0.1220 -0.0832
   22bbb    H13  650   5.430   4.397   1.431 -2.8006  2.4729  1.3048
   22bbb    H14  651   5.503   4.550   1.375  2.3038 -0.7082 -1.6832
   22bbb     C8  652   5.098   4.914   1.416 -0.4253 -0.3870 -0.2270
   22bbb    H15  653   5.192   4.943   1.368 -1.1701  2.1164 -0.3218
   22bbb    H16  654   5.050   5.008   1.447 -1.5503 -1.0553  0.1031
   22bbb     C9  655   5.464   4.975   0.953 -0.3258 -0.1697 -0.2016
   22bbb    H17  656   5.399   4.972   0.865 -0.6553 -0.2582  0.0417
   22bbb    H18  657   5.570   4.976   0.927  0.0215  1.1318  1.1549
   22bbb     O1  658   5.517   4.393   1.241  0.4066  0.7026  0.2064
   22bbb    H19  659   5.297   4.771   1.311  0.1010 -1.5318  0.4564
   23bbb     N1  660   6.457   0.960   2.357 -0.3760 -0.3739  0.1203
   23bbb     C1  661   6.411   0.969   2.214 -1.0074  0.2663  0.1931
   23bbb     H1  662   6.387   1.072   2.188  2.2922  0.7452 -1.4626
   23bbb     H2  663   6.330   0.896   2.209 -0.1799 -0.6677  0.0118
   23bbb     C2  664   6.541   0.835   2.378 -0.3456  0.0128 -0.0546
   23bbb     H3  665   6.626   0.837   2.309 -0.0327 -2.3144  0.1788
   23bbb     H4  666   6.473   0.757   2.344 -0.8846 -0.1095  1.2423
   23bbb     C3  667   6.538   1.082   2.373 -0.6559  0.1472 -0.2905
   23bbb     H5  668   6.493   1.164   2.317  0.4039  0.9448 -0.0034
   23bbb     H6  669   6.633   1.053   2.329 -0.1408  0.3162  0.6789
   23bbb     C4  670   6.565   1.129   2.514 -0.7398 -0.5492 -0.1522
   23bbb     H7  671   6.595   1.059   2.593 -2.7392 -1.4352 -0.1046
   23bbb     H8  672   6.469   1.173   2.545 -0.9789  0.2449 -1.9027
   23bbb     C5  673   6.515   0.942   2.101 -0.2076  0.0730 -0.4435
   23bbb     H9  674   6.532   0.834   2.102  1.1467  0.2165  2.4409
   23bbb    H10  675   6.615   0.986   2.111  0.2647 -1.1934  0.5721
   23bbb     C6  676   6.592   0.794   2.517 -0.4499 -0.3114  0.4277
   23bbb    H11  677   6.517   0.826   2.590 -1.9663 -0.6222 -0.9326
   23bbb    H12  678   6.685   0.851   2.528  0.4712 -1.7011  0.1159
   23bbb     C7  679   6.652   1.256   2.513 -0.2601 -0.1463  0.1638
   23bbb    H13  680   6.613   1.327   2.438  0.1005 -1.6107 -1.4876
   23bbb    H14  681   6.755   1.233   2.484 -0.2260 -2.0824  1.6160
   23bbb     C8  682   6.601   0.642   2.525 -0.3166  0.1454 -0.6110
   23bbb    H15  683   6.513   0.601   2.474  1.2171 -1.2723 -2.2960
   23bbb    H16  684   6.689   0.608   2.469 -0.3339 -1.5060  0.3020
   23bbb     C9  685   6.461   0.979   1.959  0.3356 -0.0773  0.4850
   23bbb    H17  686   6.520   0.935   1.879  0.1047  1.0788 -0.3584
   23bbb    H18  687   6.468   1.089   1.951  1.1239 -0.1880 -0.5487
   23bbb     O1  688   6.652   1.308   2.642  0.2276 -0.5004 -0.6205
   23bbb    H19  689   6.374   0.954   2.417 -0.5236 -0.7545 -0.1222
   24bbb     N1  690   5.903   1.832   2.937  0.1420  0.0392  0.6495
   24bbb     C1  691   5.835   1.872   3.067  0.1780  0.8358 -0.0708
   24bbb     H1  692   5.746   1.932   3.049 -0.7046 -0.3529  0.1825
   24bbb     H2  693   5.910   1.934   3.116  1.2981 -1.8211  1.8299
   24bbb     C2  694   5.921   1.955   2.853 -0.6151  0.4345  0.3408
   24bbb     H3  695   5.982   1.927   2.767  0.8226  1.5306  0.9643
   24bbb     H4  696   5.984   2.029   2.904  1.5835 -0.5828 -0.7492
   24bbb     C3  697   6.045   1.779   2.952 -0.2784 -0.1117 -1.0705
   24bbb     H5  698   6.044   1.740   3.054  0.6937  2.0304 -0.1774
   24bbb     H6  699   6.123   1.854   2.942  0.6556 -0.6560  1.3138
   24bbb     C4  700   6.093   1.661   2.864 -0.5728 -0.3369 -0.2177
   24bbb     H7  701   6.030   1.575   2.891 -0.8798  0.7085  2.8081
   24bbb     H8  702   6.197   1.637   2.889 -0.8316 -2.4686 -1.0035
   24bbb     C5  703   5.798   1.750   3.158  0.2148 -0.0298 -0.7337
   24bbb     H9  704   5.893   1.706   3.190 -0.4323 -0.4198  0.7267
   24bbb    H10  705   5.735   1.677   3.106  0.3515 -0.4671 -0.2931
   24bbb     C6  706   5.779   2.002   2.792 -0.1861 -0.2599  0.0325
   24bbb    H11  707   5.714   2.034   2.875 -1.6242  0.3818 -1.2830
   24bbb    H12  708   5.729   1.912   2.755 -2.1273  0.9549 -0.4904
   24bbb     C7  709   6.082   1.700   2.708  0.4381  0.3420 -0.3287
   24bbb    H13  710   5.976   1.717   2.688  0.5083  2.4337  0.7746
   24bbb    H14  711   6.115   1.616   2.645  1.1189 -0.9714  1.6529
   24bbb     C8  712   5.777   2.106   2.687  0.1757 -0.2710  0.0672
   24bbb    H15  713   5.691   2.167   2.715  0.4070 -0.0668  0.3447
   24bbb    H16  714   5.866   2.171   2.692  1.4290 -1.7952 -1.2100
   24bbb     C9  715   5.711   1.792   3.288  0.7513  0.3346  0.2814
   24bbb    H17  716   5.623   1.848   3.251  1.4801  0.4162 -1.4322
   24bbb    H18  717   5.768   1.852   3.360  1.6290 -0.9324  0.6747
   24bbb     O1  718   6.151   1.822   2.677 -0.1992  0.5050 -0.1004
   24bbb    H19  719   5.846   1.763   2.887  0.8936  1.1076 -1.8605
   25bbb     N1  720   5.325   2.673   1.877 -0.8036 -0.4954 -0.3241
   25bbb     C1  721   5.319   2.599   2.008  0.8451  0.3434 -0.3368
   25bbb     H1  722   5.327   2.674   2.087  1.3207  0.3364 -0.3738
   25bbb     H2  723   5.415   2.547   2.016  0.8240  0.2006 -1.0268
   25bbb     C2  724   5.220   2.779   1.876  0.6639  0.0851  0.4550
   25bbb     H3  725   5.121   2.732   1.873  1.0416 -0.6688 -0.1620
   25bbb     H4  726   5.223   2.836   1.783  0.5798  0.5801  0.7479
   25bbb     C3  727   5.458   2.737   1.865 -0.0546 -0.0709 -0.2399
   25bbb     H5  728   5.475   2.796   1.955  2.3422 -0.0216 -0.6677
   25bbb     H6  729   5.446   2.802   1.779  1.4976  1.9597  0.9823
   25bbb     C4  730   5.576   2.638   1.845 -0.1305 -0.8854  0.8041
   25bbb     H7  731   5.565   2.581   1.752 -1.8809  1.0071 -0.2502
   25bbb     H8  732   5.575   2.567   1.929 -1.7595  0.9752  2.4727
   25bbb     C5  733   5.204   2.501   2.034  0.0862 -0.4610 -0.1037
   25bbb     H9  734   5.108   2.552   2.019 -0.7132 -2.3084 -1.6797
   25bbb    H10  735   5.211   2.472   2.139  2.3333  0.9127  0.2116
   25bbb     C6  736   5.227   2.900   1.970 -0.2021  0.0498  0.5530
   25bbb    H11  737   5.305   2.973   1.947 -2.2195  1.8724 -0.8521
   25bbb    H12  738   5.240   2.869   2.074 -3.8222 -2.4547  0.4427
   25bbb     C7  739   5.708   2.715   1.847 -0.1319  0.2616 -0.0089
   25bbb    H13  740   5.694   2.781   1.760  0.5218 -1.1407 -1.2226
   25bbb    H14  741   5.796   2.656   1.817 -0.2955 -0.5623  1.0803
   25bbb     C8  742   5.087   2.972   1.963 -0.3375 -0.1064 -0.1577
   25bbb    H15  743   5.001   2.906   1.979 -0.4556 -0.2576 -1.3005
   25bbb    H16  744   5.093   3.059   2.029 -1.8144 -0.3145  0.2813
   25bbb     C9  745   5.201   2.381   1.939 -0.5280 -0.0067  0.5061
   25bbb    H17  746   5.154   2.294   1.984 -0.8937  0.4773  1.0692
   25bbb    H18  747   5.302   2.356   1.904 -0.6965 -1.0841  0.7627
   25bbb     O1  748   5.735   2.797   1.966  0.0171  0.0675  0.1021
   25bbb    H19  749   5.304   2.614   1.796 -0.7412 -0.2038 -0.5525
   26bbb     N1  750   6.108   3.353   2.904  0.0256 -0.3835 -0.4894
   26bbb     C1  751   6.147   3.471   2.808 -0.6349 -0.0047 -0.1703
   26bbb     H1  752   6.066   3.539   2.832  0.3209  0.8432  0.7732
   26bbb     H2  753   6.143   3.438   2.704  0.0877  0.5631 -0.3907
   26bbb     C2  754   6.105   3.404   3.044  0.0406  0.2786 -0.0231
   26bbb     H3  755   6.015   3.463   3.053 -0.4589 -0.5263  0.3793
   26bbb     H4  756   6.188   3.474   3.059 -1.4922  1.9515  1.0387
   26bbb     C3  757   5.976   3.297   2.867 -0.2982 -0.3381  0.2018
   26bbb     H5  758   5.905   3.379   2.876  2.8964  2.5564  1.8617
   26bbb     H6  759   5.964   3.218   2.941  0.9553 -1.8820 -1.1689
   26bbb     C4  760   5.968   3.235   2.725 -0.5647  0.4555  0.2819
   26bbb     H7  761   6.060   3.178   2.710 -0.3537 -0.0538  2.9073
   26bbb     H8  762   5.963   3.312   2.647 -0.1384 -1.0163 -1.2447
   26bbb     C5  763   6.295   3.528   2.815  0.1689  0.5701 -0.7045
   26bbb     H9  764   6.367   3.467   2.760  3.2151  0.9715  2.4864
   26bbb    H10  765   6.334   3.529   2.918 -0.2656 -1.9187 -0.4595
   26bbb     C6  766   6.104   3.293   3.149 -0.5823  0.0033 -0.2521
   26bbb    H11  767   6.196   3.235   3.135 -0.9983 -0.2622 -2.3207
   26bbb    H12  768   6.018   3.228   3.133  0.4922 -1.4686 -0.2490
   26bbb     C7  769   5.852   3.135   2.708 -0.0388 -0.4105  0.3440
   26bbb    H13  770   5.762   3.192   2.735  0.1679 -1.9294  5.1162
   26bbb    H14  771   5.867   3.063   2.789  0.3728  0.8676  1.4548
   26bbb     C8  772   6.101   3.348   3.296  0.4483 -0.0985  0.1392
   26bbb    H15  773   6.015   3.412   3.317  0.7000  0.3002 -0.0375
   26bbb    H16  774   6.094   3.260   3.362 -4.5615 -1.1883 -1.3949
   26bbb     C9  775   6.303   3.660   2.744  0.1631 -0.0801 -0.2614
   26bbb    H17  776   6.298   3.650   2.635  0.9380  1.9494 -0.5251
   26bbb    H18  777   6.400   3.704   2.772  0.4145 -1.1149  0.5683
   26bbb     O1  778   5.858   3.083   2.572 -0.5371 -0.1577 -0.1060
   26bbb    H19  779   6.187   3.288   2.889 -0.6362 -1.3209  0.0222
   27bbb     N1  780   7.735   0.854   0.461  0.4589  0.0322  0.0875
   27bbb     C1  781   7.766   0.748   0.565 -0.7327 -0.2593  0.4009
   27bbb     H1  782   7.690   0.670   0.568 -1.3456  0.3467  0.8113
   27bbb     H2  783   7.769   0.800   0.661 -1.8185 -1.8685  1.3475
   27bbb     C2  784   7.726   0.799   0.321  0.4532  0.6961 -0.7699
   27bbb     H3  785   7.637   0.738   0.302 -0.1179  1.0729  0.5751
   27bbb     H4  786   7.808   0.729   0.305 -1.0555 -1.0927 -1.0397
   27bbb     C3  787   7.596   0.894   0.492 -0.6824  0.1140 -0.5638
   27bbb     H5  788   7.537   0.810   0.529 -0.7938  0.9396  1.2937
   27bbb     H6  789   7.559   0.912   0.391  2.1201 -0.8014 -1.8416
   27bbb     C4  790   7.583   1.018   0.571  0.2676  0.1113 -0.4755
   27bbb     H7  791   7.626   1.096   0.507 -1.7418  1.0699 -0.7088
   27bbb     H8  792   7.650   1.009   0.658 -0.4202 -4.4329 -0.1813
   27bbb     C5  793   7.908   0.693   0.548  0.7719 -0.3083  0.2236
   27bbb     H9  794   7.963   0.786   0.532 -0.6234  0.4613 -0.2423
   27bbb    H10  795   7.913   0.622   0.464  1.3489  0.6833 -0.6049
   27bbb     C6  796   7.734   0.899   0.207 -0.2671  0.2283  0.3666
   27bbb    H11  797   7.804   0.972   0.248 -0.9340  0.1434  1.7028
   27bbb    H12  798   7.635   0.945   0.205  0.1302  1.2802  2.2344
   27bbb     C7  799   7.432   1.040   0.597  0.0134  0.4573 -0.3305
   27bbb    H13  800   7.361   1.057   0.516 -0.5992 -0.0942  0.0809
   27bbb    H14  801   7.429   1.130   0.659  0.8169  0.4299 -0.2381
   27bbb     C8  802   7.772   0.835   0.074 -0.4679  0.0139 -0.2237
   27bbb    H15  803   7.779   0.917   0.001 -0.6544 -0.6396 -0.9860
   27bbb    H16  804   7.878   0.807   0.088 -0.1750  0.2628 -1.7474
   27bbb     C9  805   7.964   0.632   0.674  0.2939 -0.0001 -0.5754
   27bbb    H17  806   7.938   0.526   0.676 -0.6865  0.2347  0.3902
   27bbb    H18  807   7.918   0.674   0.765  0.6776 -1.0084  0.0970
   27bbb     O1  808   7.366   0.937   0.682 -0.4057  0.6095 -0.3019
   27bbb    H19  809   7.801   0.933   0.470  1.6360 -0.8558 -0.3528
   28bbb     N1  810   7.537   0.165   1.147  0.2841  0.7304  0.0951
   28bbb     C1  811   7.634   0.144   1.030  0.5291 -0.3019 -0.0857
   28bbb     H1  812   7.729   0.122   1.079 -0.1331 -1.8801  0.5601
   28bbb     H2  813   7.642   0.247   0.994 -0.1566  0.6844  2.3486
   28bbb     C2  814   7.597   0.257   1.253 -0.1315  0.9023  0.2522
   28bbb     H3  815   7.565   0.361   1.240 -1.0461  0.4445 -1.3194
   28bbb     H4  816   7.706   0.253   1.243  0.1580 -0.7046  2.8945
   28bbb     C3  817   7.410   0.237   1.090  0.2188  1.1693 -0.1357
   28bbb     H5  818   7.380   0.168   1.011 -0.1504  1.0401  0.1111
   28bbb     H6  819   7.435   0.329   1.038  3.0160 -1.1273 -3.3190
   28bbb     C4  820   7.293   0.265   1.196 -0.4906  0.5632  0.3184
   28bbb     H7  821   7.325   0.354   1.252  2.9845 -0.2472 -0.1179
   28bbb     H8  822   7.282   0.181   1.265 -1.6507  0.5979  0.1872
   28bbb     C5  823   7.601   0.033   0.924  0.3176 -0.3340 -0.0454
   28bbb     H9  824   7.501   0.055   0.885  1.3386  0.9758 -2.1042
   28bbb    H10  825   7.593  -0.070   0.959  1.6090 -0.2867  0.4341
   28bbb     C6  826   7.555   0.224   1.402  0.3785 -0.2754 -0.1632
   28bbb    H11  827   7.544   0.119   1.432  3.1275  0.0802  2.6179
   28bbb    H12  828   7.454   0.264   1.416  0.1067 -0.5541 -1.2627
   28bbb     C7  829   7.155   0.296   1.135  0.9513  0.0558 -0.1764
   28bbb    H13  830   7.076   0.296   1.212  1.0700  1.5050 -0.0269
   28bbb    H14  831   7.114   0.212   1.078 -0.5634 -1.7409  3.2501
   28bbb     C8  832   7.652   0.293   1.501  0.7535 -0.0352  0.0464
   28bbb    H15  833   7.648   0.401   1.482  0.8186  0.0251  0.3776
   28bbb    H16  834   7.625   0.264   1.603  1.8936 -0.0501  0.3533
   28bbb     C9  835   7.705   0.027   0.798  0.0300 -0.5415  0.0641
   28bbb    H17  836   7.808   0.026   0.836  0.1094  0.7280 -0.0626
   28bbb    H18  837   7.684   0.118   0.741  0.5820 -0.6145 -0.2648
   28bbb     O1  838   7.163   0.419   1.056  0.2252 -0.0302  0.3669
   28bbb    H19  839   7.513   0.070   1.180  2.2185  0.1307 -0.1353
   29bbb     N1  840   8.059   1.569   2.110  0.3603  0.2194 -0.1652
   29bbb     C1  841   8.204   1.609   2.133  0.1048  0.1942 -0.2662
   29bbb     H1  842   8.229   1.617   2.239  0.9104 -2.0842 -0.2291
   29bbb     H2  843   8.215   1.708   2.088  0.7897 -0.7717 -2.3557
   29bbb     C2  844   8.047   1.424   2.144  0.1711  0.6533  0.0644
   29bbb     H3  845   8.087   1.406   2.244 -0.2313 -0.1366  0.0860
   29bbb     H4  846   8.100   1.370   2.066  1.1908 -1.0978  1.8702
   29bbb     C3  847   7.958   1.650   2.203  0.0989  0.2713 -0.0288
   29bbb     H5  848   7.963   1.605   2.302 -1.2508 -1.2913 -0.6219
   29bbb     H6  849   7.856   1.618   2.178 -0.7143  1.8375  1.0912
   29bbb     C4  850   7.972   1.801   2.201  0.3733 -0.3875 -0.4177
   29bbb     H7  851   8.076   1.825   2.228 -0.7093  1.8616  2.1593
   29bbb     H8  852   7.900   1.848   2.268 -2.6225 -1.2704 -2.7663
   29bbb     C5  853   8.318   1.522   2.073  0.1141 -0.3758 -0.4489
   29bbb     H9  854   8.308   1.518   1.964 -0.8159 -0.3344 -0.3724
   29bbb    H10  855   8.314   1.419   2.110 -1.1938 -0.2445 -0.1997
   29bbb     C6  856   7.901   1.364   2.149 -0.9881 -0.4451 -0.6710
   29bbb    H11  857   7.845   1.405   2.064 -1.9527  0.2045  0.2427
   29bbb    H12  858   7.852   1.414   2.233 -1.0268 -0.1419 -0.8727
   29bbb     C7  859   7.953   1.876   2.065 -0.1764 -0.4911  0.3290
   29bbb    H13  860   8.045   1.871   2.005  0.2512 -0.8727  1.0064
   29bbb    H14  861   7.938   1.984   2.083 -0.1482 -0.0375 -1.9770
   29bbb     C8  862   7.883   1.212   2.160 -0.8435  0.4030 -0.7994
   29bbb    H15  863   7.779   1.191   2.188 -0.3005 -0.2813  0.8500
   29bbb    H16  864   7.903   1.160   2.066 -3.0363 -1.2279 -0.4473
   29bbb     C9  865   8.457   1.580   2.105 -0.2010 -0.0475 -0.4394
   29bbb    H17  866   8.532   1.508   2.070  1.4870 -0.0118  2.7656
   29bbb    H18  867   8.465   1.590   2.214 -0.8898 -1.5488 -0.2163
   29bbb     O1  868   7.835   1.835   1.995 -0.7386  0.5703 -0.9077
   29bbb    H19  869   8.041   1.585   2.010  1.7044  0.0182 -0.4637
   30bbb     N1  870   8.128   2.292   1.585 -0.9505  0.4282  0.7596
   30bbb     C1  871   8.114   2.381   1.460 -0.5316  0.2685 -0.0493
   30bbb     H1  872   8.210   2.399   1.413 -0.6525  0.3102 -0.2788
   30bbb     H2  873   8.083   2.476   1.503  2.3533  0.5478  1.6870
   30bbb     C2  874   8.215   2.367   1.691  0.1945  0.4924  0.2687
   30bbb     H3  875   8.213   2.312   1.785  1.4045 -1.4529 -0.7634
   30bbb     H4  876   8.177   2.465   1.719  0.9148  0.3961  1.6623
   30bbb     C3  877   7.990   2.270   1.643  0.6155  0.1076 -0.4516
   30bbb     H5  878   7.929   2.213   1.573 -0.2184 -0.6996  0.8811
   30bbb     H6  879   7.947   2.370   1.647  1.7364  0.8696 -4.0773
   30bbb     C4  880   7.983   2.190   1.771  0.0296 -0.4615 -0.1041
   30bbb     H7  881   8.019   2.250   1.855 -0.2971 -0.8211  0.2937
   30bbb     H8  882   8.049   2.103   1.762 -1.0325 -1.1230 -2.1567
   30bbb     C5  883   8.019   2.335   1.347 -0.0825 -0.6580  0.2825
   30bbb     H9  884   7.923   2.366   1.388  0.4716  1.0436  0.3853
   30bbb    H10  885   8.020   2.229   1.320 -1.2964 -0.2952 -1.3227
   30bbb     C6  886   8.364   2.362   1.653 -0.0157  0.3185  0.9139
   30bbb    H11  887   8.385   2.387   1.548 -0.3519 -0.3065  0.6901
   30bbb    H12  888   8.400   2.259   1.661  0.0085  0.2512  0.0864
   30bbb     C7  889   7.844   2.133   1.816  1.0334  0.8214 -0.2240
   30bbb    H13  890   7.778   2.211   1.856  0.6771 -0.0196  0.8825
   30bbb    H14  891   7.847   2.058   1.896  0.1898  1.1522  0.1352
   30bbb     C8  892   8.452   2.452   1.743  0.0086 -0.1503 -0.3662
   30bbb    H15  893   8.554   2.436   1.707  0.1088 -2.1827  0.6817
   30bbb    H16  894   8.422   2.557   1.741  1.2376  0.3983  3.2836
   30bbb     C9  895   8.043   2.425   1.226  0.4940  0.5458 -0.0486
   30bbb    H17  896   8.018   2.527   1.259 -1.6436 -0.7407  2.7769
   30bbb    H18  897   7.967   2.405   1.150  0.3213  0.3414  0.1788
   30bbb     O1  898   7.773   2.074   1.705  0.3252 -0.4863 -0.4438
   30bbb    H19  899   8.172   2.201   1.562 -1.0990  0.2013  1.3676
   31bbb     N1  900   6.411   3.032  -2.242 -0.3661  0.2844 -0.6849
   31bbb     C1  901   6.563   3.032  -2.268  0.2199 -1.2636  0.8016
   31bbb     H1  902   6.577   2.983  -2.364 -0.8542 -1.0325  0.5119
   31bbb     H2  903   6.605   2.979  -2.182  2.8206  2.3086  1.9956
   31bbb     C2  904   6.329   3.079  -2.362 -0.5476  0.4611 -1.1827
   31bbb     H3  905   6.224   3.051  -2.349  0.5839 -3.1004  2.4977
   31bbb     H4  906   6.364   3.027  -2.452  0.3833 -0.7167 -0.1849
   31bbb     C3  907   6.370   2.894  -2.207  1.0847  0.3593  0.3650
   31bbb     H5  908   6.269   2.898  -2.166  1.2587 -0.5136  0.9068
   31bbb     H6  909   6.433   2.874  -2.120  1.3019  1.8238  0.5655
   31bbb     C4  910   6.385   2.780  -2.311  0.3379 -0.0758 -0.0557
   31bbb     H7  911   6.484   2.793  -2.356 -0.1391  0.5506 -0.9687
   31bbb     H8  912   6.317   2.812  -2.391 -0.8206  1.9435  1.6180
   31bbb     C5  913   6.637   3.164  -2.254  0.1431 -0.6448 -0.8100
   31bbb     H9  914   6.606   3.217  -2.163  2.7828  1.4340 -1.0182
   31bbb    H10  915   6.608   3.236  -2.331 -1.5472  0.1194  0.4831
   31bbb     C6  916   6.318   3.234  -2.374 -0.7690 -0.9220 -0.2659
   31bbb    H11  917   6.411   3.285  -2.402 -0.1800 -1.5817  0.4469
   31bbb    H12  918   6.308   3.283  -2.277 -0.3689 -1.3909  0.0173
   31bbb     C7  919   6.357   2.636  -2.253  0.0454 -0.6635  0.3088
   31bbb    H13  920   6.371   2.552  -2.322  0.2207 -0.9912  0.7339
   31bbb    H14  921   6.252   2.625  -2.223  0.6546 -1.5522  2.3195
   31bbb     C8  922   6.212   3.274  -2.481 -0.0621 -0.0953  0.1853
   31bbb    H15  923   6.207   3.384  -2.484 -2.9481 -0.0901  1.6788
   31bbb    H16  924   6.242   3.239  -2.580  0.3123  0.2892  0.1576
   31bbb     C9  925   6.790   3.166  -2.234 -0.4144 -0.3502 -0.4922
   31bbb    H17  926   6.828   3.265  -2.262 -0.8434 -0.1251 -0.2801
   31bbb    H18  927   6.837   3.097  -2.306 -0.1816 -1.5804  0.7881
   31bbb     O1  928   6.441   2.624  -2.130  0.2192 -0.2607 -0.2402
   31bbb    H19  929   6.405   3.091  -2.158  0.4860 -0.5972  0.0090
   32bbb     N1  930   6.732   1.618  -2.246  0.5252  0.3454  0.1027
   32bbb     C1  931   6.773   1.511  -2.139  0.0110 -0.8970  0.6557
   32bbb     H1  932   6.766   1.562  -2.042 -0.5617  0.8642 -0.2625
   32bbb     H2  933   6.877   1.499  -2.167 -0.3012 -1.7345 -0.2057
   32bbb     C2  934   6.585   1.648  -2.243 -0.3465 -0.1227  0.1460
   32bbb     H3  935   6.531   1.570  -2.297 -2.0915  1.0463  0.1190
   32bbb     H4  936   6.573   1.735  -2.307 -1.8635  1.3676  2.3121
   32bbb     C3  937   6.818   1.734  -2.221 -0.2013 -0.4912 -0.2530
   32bbb     H5  938   6.918   1.691  -2.219 -0.3855 -0.9105  1.0215
   32bbb     H6  939   6.801   1.780  -2.123  3.1126 -0.7934  0.5987
   32bbb     C4  940   6.817   1.839  -2.330 -0.0888 -0.7610  0.1186
   32bbb     H7  941   6.721   1.890  -2.341  0.5121  0.0677 -1.5627
   32bbb     H8  942   6.832   1.795  -2.429  2.9909  2.4125 -0.9983
   32bbb     C5  943   6.686   1.381  -2.139 -0.2211 -0.0237  0.0754
   32bbb     H9  944   6.601   1.403  -2.074  0.2647 -0.5929  0.9232
   32bbb    H10  945   6.738   1.299  -2.088  0.9902  0.0725 -0.9371
   32bbb     C6  946   6.517   1.691  -2.117 -0.7465 -0.4786 -0.0593
   32bbb    H11  947   6.585   1.764  -2.072  0.7526 -0.5844 -1.9947
   32bbb    H12  948   6.491   1.602  -2.058 -2.1052 -0.2709 -0.3248
   32bbb     C7  949   6.927   1.944  -2.295  0.2417  0.1740  0.7771
   32bbb    H13  950   6.934   2.002  -2.388 -1.6318  1.1530  1.1947
   32bbb    H14  951   7.026   1.899  -2.283  0.1732 -0.4386 -0.7398
   32bbb     C8  952   6.379   1.758  -2.155 -0.0427  0.5818  0.2672
   32bbb    H15  953   6.323   1.779  -2.063  1.2507 -0.8376  1.4300
   32bbb    H16  954   6.396   1.853  -2.208 -0.3518  0.3510 -0.2584
   32bbb     C9  955   6.648   1.322  -2.273 -0.2590 -0.6606  1.0520
   32bbb    H17  956   6.577   1.382  -2.331  1.2708  0.4032  0.1919
   32bbb    H18  957   6.601   1.223  -2.265 -1.9080  0.1662  2.1043
   32bbb     O1  958   6.903   2.034  -2.183  0.7647  0.6425 -0.3877
   32bbb    H19  959   6.759   1.575  -2.335 -1.3668 -0.3474 -0.1743
   33bbb     N1  960   7.965   2.710  -0.285 -0.0092  0.4662  0.1311
   33bbb     C1  961   8.020   2.758  -0.421 -0.6054  0.0464  0.1216
   33bbb     H1  962   8.116   2.807  -0.409 -0.5607  0.4285 -1.6293
   33bbb     H2  963   7.947   2.833  -0.452 -0.2384  0.6622  0.7151
   33bbb     C2  964   7.997   2.822  -0.188 -0.3534 -0.1561 -0.7077
   33bbb     H3  965   7.948   2.806  -0.092 -0.7842 -0.6918 -1.0139
   33bbb     H4  966   7.952   2.910  -0.234 -0.2332  0.2408 -0.0858
   33bbb     C3  967   7.813   2.688  -0.303 -0.4399  1.0289 -0.0423
   33bbb     H5  968   7.795   2.652  -0.404 -2.4045  2.3717 -0.2179
   33bbb     H6  969   7.765   2.786  -0.292 -0.5903  0.8346  1.1500
   33bbb     C4  970   7.742   2.590  -0.212 -0.6692  0.7805 -0.0802
   33bbb     H7  971   7.786   2.595  -0.112  0.7441 -2.4052 -0.4090
   33bbb     H8  972   7.775   2.489  -0.239  0.5004  0.7001  1.5263
   33bbb     C5  973   8.033   2.656  -0.531  0.1637 -0.4070  0.7207
   33bbb     H9  974   7.931   2.625  -0.554  0.4305 -0.1483 -0.9826
   33bbb    H10  975   8.099   2.574  -0.500  1.1620  0.4619  0.9700
   33bbb     C6  976   8.145   2.848  -0.157  0.1858 -0.3478  0.0441
   33bbb    H11  977   8.205   2.869  -0.246  3.0164 -0.5322  1.7689
   33bbb    H12  978   8.180   2.754  -0.113 -1.3974  0.1868  2.6686
   33bbb     C7  979   7.593   2.599  -0.205  0.4180 -0.2630 -0.6096
   33bbb    H13  980   7.556   2.703  -0.206 -3.2971 -1.4257 -1.9752
   33bbb    H14  981   7.563   2.545  -0.115  1.0791 -0.1954 -0.3414
   33bbb     C8  982   8.166   2.961  -0.054 -0.0426 -0.0512  0.4098
   33bbb    H15  983   8.272   2.981  -0.032 -0.0084  2.3013 -1.4821
   33bbb    H16  984   8.135   3.052  -0.107  1.3489 -0.3871 -1.0618
   33bbb     C9  985   8.098   2.721  -0.661  0.1302 -0.8820  0.4221
   33bbb    H17  986   8.075   2.648  -0.740 -0.0211  0.9792 -1.3377
   33bbb    H18  987   8.207   2.723  -0.652  0.0388  0.0819  1.5633
   33bbb     O1  988   7.533   2.550  -0.320 -0.7144  0.0795  0.2425
   33bbb    H19  989   8.001   2.624  -0.241 -1.6723  0.7962  2.3368
   34bbb     N1  990   7.693   2.043  -1.372  0.3568 -0.2946 -0.5590
   34bbb     C1  991   7.571   1.958  -1.417 -0.4078  0.7843 -0.2581
   34bbb     H1  992   7.516   1.937  -1.326 -0.1169 -1.0110 -0.4660
   34bbb     H2  993   7.612   1.862  -1.448  0.7942  1.0402  0.4836
   34bbb     C2  994   7.789   2.072  -1.487 -0.2710  0.0138  0.3303
   34bbb     H3  995   7.744   2.127  -1.571  1.2672 -2.3270 -2.2110
   34bbb     H4  996   7.816   1.975  -1.529 -0.4924  0.9344 -2.1538
   34bbb     C3  997   7.644   2.186  -1.326  0.2012  0.2747  0.5244
   34bbb     H5  998   7.614   2.230  -1.422 -0.9695 -0.5946  0.4712
   34bbb     H6  999   7.724   2.244  -1.280 -0.0591  0.3788  0.8449
   34bbb     C4 1000   7.534   2.199  -1.218 -0.2963 -0.5530 -0.3614
   34bbb     H7 1001   7.446   2.142  -1.251 -2.3607  1.6520  0.9861
   34bbb     H8 1002   7.498   2.302  -1.207  0.5497 -0.1722 -1.0364
   34bbb     C5 1003   7.468   1.999  -1.528 -0.1156  0.3045 -0.4363
   34bbb     H9 1004   7.532   2.055  -1.597  1.5978  0.9796  1.5975
   34bbb    H10 1005   7.393   2.064  -1.481  0.1100  1.0363 -1.0659
   34bbb     C6 1006   7.924   2.138  -1.445 -0.2402  0.2726  0.0272
   34bbb    H11 1007   7.949   2.082  -1.354  1.0689 -0.5953 -0.8246
   34bbb    H12 1008   7.907   2.241  -1.413  3.2080 -0.3355  4.8915
   34bbb     C7 1009   7.581   2.142  -1.076 -0.2532  0.4499  0.5497
   34bbb    H13 1010   7.690   2.128  -1.082 -0.3949 -1.4224  1.6134
   34bbb    H14 1011   7.541   2.040  -1.070  0.4954  0.1351  0.4111
   34bbb     C8 1012   8.038   2.122  -1.549 -0.6614 -0.3271 -0.6734
   34bbb    H15 1013   8.127   2.172  -1.510 -1.0064 -1.0115  1.1153
   34bbb    H16 1014   8.065   2.015  -1.554  1.5485  0.1926 -0.7157
   34bbb     C9 1015   7.398   1.884  -1.607  0.2467  0.0860 -0.0197
   34bbb    H17 1016   7.329   1.929  -1.679  0.3645  1.2185  0.5478
   34bbb    H18 1017   7.334   1.819  -1.546  1.8604 -0.4527  1.1962
   34bbb     O1 1018   7.545   2.222  -0.961 -0.0794 -0.2547  0.2799
   34bbb    H19 1019   7.747   1.998  -1.296  3.6604  1.3938 -1.7182
   35bbb     N1 1020   4.985   1.630  -1.236 -0.6921  0.0242 -0.5757
   35bbb     C1 1021   5.033   1.576  -1.367 -0.6251 -0.1084 -0.0356
   35bbb     H1 1022   4.968   1.495  -1.400  1.1387 -0.9088 -1.7423
   35bbb     H2 1023   5.133   1.535  -1.351  0.5680  2.6055 -0.0215
   35bbb     C2 1024   4.851   1.702  -1.253  0.0444 -0.0758 -0.0171
   35bbb     H3 1025   4.782   1.635  -1.305  0.3093 -2.1466  2.1153
   35bbb     H4 1026   4.875   1.795  -1.306  0.4089 -0.9854 -1.5292
   35bbb     C3 1027   4.973   1.508  -1.151  0.1282  0.0343  0.4482
   35bbb     H5 1028   4.906   1.447  -1.212  0.0922  0.9005 -0.4097
   35bbb     H6 1029   4.922   1.543  -1.061 -0.7298  0.4411 -0.1761
   35bbb     C4 1030   5.106   1.444  -1.104 -0.2642  0.1612  0.1108
   35bbb     H7 1031   5.168   1.416  -1.190  1.8774  0.2705  1.5533
   35bbb     H8 1032   5.087   1.350  -1.049 -3.4435  0.4285 -0.3142
   35bbb     C5 1033   5.038   1.668  -1.490 -0.2783  0.0079 -0.3672
   35bbb     H9 1034   5.109   1.750  -1.475 -1.1365  0.2784  3.1053
   35bbb    H10 1035   4.940   1.711  -1.514  0.0197  2.2690  2.0186
   35bbb     C6 1036   4.777   1.745  -1.124  0.0753  0.1322  0.7720
   35bbb    H11 1037   4.840   1.797  -1.051 -1.4751  0.7547  1.7179
   35bbb    H12 1038   4.738   1.660  -1.067  0.9201 -0.2939  0.7273
   35bbb     C7 1039   5.192   1.535  -1.014  0.0095 -0.6450 -0.1780
   35bbb    H13 1040   5.248   1.598  -1.084 -0.1155  1.5131  1.5556
   35bbb    H14 1041   5.261   1.470  -0.958 -0.7611 -1.6745 -0.4139
   35bbb     C8 1042   4.652   1.835  -1.157  0.7539  0.6797 -0.3556
   35bbb    H15 1043   4.602   1.859  -1.063  1.6616  0.1946  0.2644
   35bbb    H16 1044   4.679   1.932  -1.200 -2.1177  0.7826 -2.1853
   35bbb     C9 1045   5.072   1.582  -1.613 -0.0382  0.2091 -0.7421
   35bbb    H17 1046   5.104   1.656  -1.688 -0.6594 -1.1116 -2.3461
   35bbb    H18 1047   4.980   1.529  -1.639 -0.0531 -1.3276  2.0756
   35bbb     O1 1048   5.112   1.617  -0.923 -0.1576  0.3481  0.3974
   35bbb    H19 1049   5.047   1.698  -1.189 -2.4361  1.2495  0.0350
   36bbb     N1 1050   4.539   1.901  -0.134  0.3539  0.2724 -0.1988
   36bbb     C1 1051   4.405   1.950  -0.177 -0.1447  0.8599 -0.3797
   36bbb     H1 1052   4.326   1.887  -0.135 -1.2486 -0.3201 -3.8064
   36bbb     H2 1053   4.392   1.935  -0.285 -0.6031 -0.5474 -0.1536
   36bbb     C2 1054   4.554   1.756  -0.167  0.3839 -0.3633 -0.0775
   36bbb     H3 1055   4.561   1.745  -0.276  1.3758  1.5987 -0.2431
   36bbb     H4 1056   4.461   1.699  -0.157  1.2529 -2.2141 -1.7934
   36bbb     C3 1057   4.652   1.966  -0.207 -0.2623 -0.6752  0.2097
   36bbb     H5 1058   4.613   2.008  -0.300 -1.9729 -0.2831  1.0558
   36bbb     H6 1059   4.728   1.893  -0.235  2.6736  2.2319 -0.0467
   36bbb     C4 1060   4.734   2.075  -0.132  0.3606 -0.8280  0.3533
   36bbb     H7 1061   4.749   2.032  -0.032 -0.5537 -2.5803 -0.2217
   36bbb     H8 1062   4.671   2.164  -0.117  0.4718 -0.7384  0.2823
   36bbb     C5 1063   4.373   2.094  -0.140  0.8252 -0.1197 -0.4251
   36bbb     H9 1064   4.278   2.130  -0.181 -0.1358  1.8178  3.0451
   36bbb    H10 1065   4.459   2.152  -0.177 -0.1005  1.0801 -0.7327
   36bbb     C6 1066   4.658   1.684  -0.085 -0.6310 -0.7575 -0.4525
   36bbb    H11 1067   4.630   1.686   0.021 -0.3236  1.3185 -0.3575
   36bbb    H12 1068   4.752   1.738  -0.101 -0.7043 -1.0939 -2.1943
   36bbb     C7 1069   4.870   2.125  -0.187  0.3024  0.1262 -0.2998
   36bbb    H13 1070   4.927   2.177  -0.109 -0.7205  0.1298  0.4645
   36bbb    H14 1071   4.862   2.196  -0.270  2.3575  3.6828  2.2464
   36bbb     C8 1072   4.679   1.539  -0.132 -0.0425 -0.1669 -0.1830
   36bbb    H15 1073   4.682   1.528  -0.241 -0.6748  1.1058 -0.3551
   36bbb    H16 1074   4.766   1.500  -0.079  1.2375  1.9026 -0.6482
   36bbb     C9 1075   4.360   2.118   0.009  0.0779 -0.3490 -0.1310
   36bbb    H17 1076   4.453   2.133   0.065  0.9041 -3.2084 -0.5809
   36bbb    H18 1077   4.311   2.032   0.055  2.2634 -2.0905 -0.8855
   36bbb     O1 1078   4.949   2.004  -0.215  0.2899  0.2343 -0.8959
   36bbb    H19 1079   4.545   1.906  -0.031  0.8991 -3.4614  0.1109
   37bbb     N1 1080   4.812   2.963  -0.840  0.8517 -0.9086 -0.3258
   37bbb     C1 1081   4.688   2.972  -0.937  0.1388  0.3539  0.4768
   37bbb     H1 1082   4.722   3.010  -1.034  1.1986 -1.1389  0.2259
   37bbb     H2 1083   4.618   3.037  -0.884  1.5453  0.5365  2.2091
   37bbb     C2 1084   4.859   3.100  -0.816  0.1058 -0.0460  0.4560
   37bbb     H3 1085   4.781   3.158  -0.765 -0.0843  0.4610 -0.3998
   37bbb     H4 1086   4.870   3.138  -0.918  1.5070 -0.9283  0.2567
   37bbb     C3 1087   4.761   2.893  -0.710 -0.2075  0.5736  0.5759
   37bbb     H5 1088   4.852   2.882  -0.651  0.6707 -1.7763 -1.0608
   37bbb     H6 1089   4.721   2.794  -0.731  1.9278 -0.5740  1.5202
   37bbb     C4 1090   4.651   2.967  -0.624  0.4507 -0.1964  0.4506
   37bbb     H7 1091   4.568   2.976  -0.696  0.7182 -1.4422 -0.0235
   37bbb     H8 1092   4.673   3.072  -0.600  0.6152  0.5670 -2.6719
   37bbb     C5 1093   4.636   2.827  -0.965 -0.5388 -0.1771  0.7830
   37bbb     H9 1094   4.575   2.801  -0.878 -1.1769 -2.6650 -0.3356
   37bbb    H10 1095   4.721   2.760  -0.983 -0.2839  0.8569 -2.6948
   37bbb     C6 1096   4.995   3.126  -0.742  0.2351  0.0616  0.4617
   37bbb    H11 1097   5.080   3.088  -0.799 -1.9455 -1.5405 -1.9849
   37bbb    H12 1098   4.988   3.067  -0.650  0.2942 -2.5342 -1.1110
   37bbb     C7 1099   4.602   2.884  -0.497 -0.1783 -1.0421  0.3461
   37bbb    H13 1100   4.549   2.791  -0.520 -0.5108 -0.6474 -0.5599
   37bbb    H14 1101   4.519   2.940  -0.453  0.3028 -0.8079  0.9695
   37bbb     C8 1102   5.027   3.276  -0.706 -0.1614  0.4081  0.6863
   37bbb    H15 1103   4.933   3.310  -0.660 -1.6728 -0.6942 -1.4220
   37bbb    H16 1104   5.112   3.278  -0.637  2.5513 -1.9940 -2.2860
   37bbb     C9 1105   4.551   2.823  -1.093 -0.4960  0.4157  0.1901
   37bbb    H17 1106   4.524   2.717  -1.107  2.1651 -0.2327 -0.6612
   37bbb    H18 1107   4.614   2.841  -1.181 -0.0268  0.5102  0.5400
   37bbb     O1 1108   4.716   2.873  -0.400  0.2681  0.7576  0.2313
   37bbb    H19 1109   4.892   2.914  -0.881 -0.0038 -1.7347 -1.0596
   38bbb     N1 1110   4.597   2.951   0.676  0.4347  0.4357 -0.3904
   38bbb     C1 1111   4.536   3.094   0.694  0.0267  0.4219 -0.5386
   38bbb     H1 1112   4.454   3.095   0.766  0.6572  0.4553  0.2003
   38bbb     H2 1113   4.496   3.132   0.600 -0.0309  1.1004 -0.2493
   38bbb     C2 1114   4.492   2.842   0.638 -0.2285 -0.1924 -0.2469
   38bbb     H3 1115   4.441   2.881   0.550  0.3426  2.1366  0.3842
   38bbb     H4 1116   4.415   2.847   0.716 -0.9853 -0.0222 -0.9942
   38bbb     C3 1117   4.708   2.951   0.573  0.3464  0.5531 -0.3984
   38bbb     H5 1118   4.705   3.046   0.520  1.1937  0.4650 -0.6271
   38bbb     H6 1119   4.680   2.871   0.504 -0.5739 -1.2137  1.8688
   38bbb     C4 1120   4.849   2.925   0.613  0.4497  0.3568  0.2247
   38bbb     H7 1121   4.862   2.817   0.627 -0.4810  0.1219 -0.5767
   38bbb     H8 1122   4.879   2.984   0.700  4.0301 -0.8283 -0.0251
   38bbb     C5 1123   4.628   3.209   0.738 -0.6146  0.1437  0.0620
   38bbb     H9 1124   4.727   3.194   0.694  0.0948 -0.9188  1.9104
   38bbb    H10 1125   4.636   3.210   0.848  1.3634 -0.2840 -0.0456
   38bbb     C6 1126   4.553   2.702   0.639  0.3363 -0.2555  0.0958
   38bbb    H11 1127   4.597   2.693   0.739  0.6072  0.6242  0.0611
   38bbb    H12 1128   4.630   2.695   0.561  0.8880 -0.1417  0.6228
   38bbb     C7 1129   4.946   2.962   0.499  0.1824 -0.2671  0.3347
   38bbb    H13 1130   5.047   2.939   0.534  0.3108 -0.3439 -0.0839
   38bbb    H14 1131   4.942   3.069   0.476  0.3628 -0.5323 -1.0077
   38bbb     C8 1132   4.443   2.591   0.612  0.3594  0.1003  0.2586
   38bbb    H15 1133   4.363   2.623   0.545 -1.7343 -0.5822  2.2889
   38bbb    H16 1134   4.476   2.495   0.571  1.5078  0.9585 -0.9017
   38bbb     C9 1135   4.572   3.343   0.683 -0.5350 -0.4536  0.0185
   38bbb    H17 1136   4.632   3.417   0.738 -0.5968  1.0664 -1.8381
   38bbb    H18 1137   4.468   3.354   0.714 -0.3742  1.6046 -0.0769
   38bbb     O1 1138   4.925   2.881   0.386 -0.4181  0.3106 -0.4640
   38bbb    H19 1139   4.633   2.932   0.770  2.7969  2.8802 -0.6922
   39bbb     N1 1140   8.038   4.323  -0.088  0.9648  0.3357  0.0869
   39bbb     C1 1141   8.090   4.402  -0.208 -0.0780  0.7554 -0.0750
   39bbb     H1 1142   8.127   4.499  -0.174  3.2487  1.8094 -5.4762
   39bbb     H2 1143   8.004   4.421  -0.273  1.3044  2.4078 -1.5379
   39bbb     C2 1144   8.150   4.316   0.030  0.5172 -0.1195  0.5591
   39bbb     H3 1145   8.243   4.281  -0.013  0.7393  0.4302  0.5788
   39bbb     H4 1146   8.118   4.236   0.097  1.4579  0.0572  1.2475
   39bbb     C3 1147   7.902   4.378  -0.039  0.0249  0.1525  0.2811
   39bbb     H5 1148   7.852   4.406  -0.132  2.2685  2.5869 -0.3260
   39bbb     H6 1149   7.913   4.471   0.017 -1.0801  0.4578  0.0075
   39bbb     C4 1150   7.808   4.282   0.034 -0.0316  0.0359  0.1855
   39bbb     H7 1151   7.828   4.259   0.139 -3.6342  0.9135  1.2026
   39bbb     H8 1152   7.821   4.186  -0.019 -0.2439 -0.5670  1.1906
   39bbb     C5 1153   8.197   4.329  -0.293 -0.1506  0.1914 -0.5328
   39bbb     H9 1154   8.152   4.234  -0.325  0.5220 -1.1224  2.1906
   39bbb    H10 1155   8.286   4.311  -0.232 -0.3402  1.4990  0.1565
   39bbb     C6 1156   8.173   4.453   0.105 -0.5015  0.0826 -0.0885
   39bbb    H11 1157   8.079   4.498   0.140 -0.8091  2.4050 -3.4416
   39bbb    H12 1158   8.233   4.517   0.038 -1.3956  0.8139 -0.2153
   39bbb     C7 1159   7.662   4.323   0.032 -0.2491  0.3024  0.0748
   39bbb    H13 1160   7.600   4.242   0.074 -0.0327  0.0839 -0.0240
   39bbb    H14 1161   7.639   4.331  -0.075  0.2655 -0.5849 -0.1173
   39bbb     C8 1162   8.266   4.427   0.234  0.1601 -0.5289  0.3250
   39bbb    H15 1163   8.299   4.522   0.277  0.6974 -0.5560 -0.0155
   39bbb    H16 1164   8.215   4.375   0.316  1.3544 -1.4478  0.5230
   39bbb     C9 1165   8.224   4.407  -0.423 -0.0004  0.1383 -0.1528
   39bbb    H17 1166   8.284   4.342  -0.489  0.4098  2.8556 -2.6787
   39bbb    H18 1167   8.300   4.485  -0.410  1.5636 -1.0917 -1.4003
   39bbb     O1 1168   7.644   4.449   0.105 -0.3712  0.4437  0.6347
   39bbb    H19 1169   8.012   4.231  -0.127 -1.6562  1.2738 -0.5970
   40bbb     N1 1170   7.579   3.841   0.839 -0.0181 -0.5587  0.2408
   40bbb     C1 1171   7.679   3.829   0.723  0.5887  0.5971 -0.2803
   40bbb     H1 1172   7.695   3.924   0.672 -1.5172  1.2475  0.2109
   40bbb     H2 1173   7.633   3.761   0.651 -0.7418  0.7836  0.3779
   40bbb     C2 1174   7.645   3.907   0.965 -0.1819 -0.2233  0.3940
   40bbb     H3 1175   7.676   4.011   0.952 -1.6143  0.4230  1.7562
   40bbb     H4 1176   7.741   3.859   0.982  0.2539  0.6873  0.5348
   40bbb     C3 1177   7.469   3.933   0.787 -0.4527 -0.4629  0.3725
   40bbb     H5 1178   7.509   4.035   0.782 -1.2724 -0.1738 -0.7204
   40bbb     H6 1179   7.388   3.934   0.860  0.3212  0.8970  1.2658
   40bbb     C4 1180   7.398   3.891   0.658 -0.5744 -0.2252  0.2829
   40bbb     H7 1181   7.392   3.782   0.651 -1.2969 -0.1197 -1.2370
   40bbb     H8 1182   7.448   3.927   0.567 -1.5445 -0.4582 -0.3682
   40bbb     C5 1183   7.816   3.763   0.758 -0.1849 -0.2166  0.1288
   40bbb     H9 1184   7.795   3.662   0.795 -1.5010  0.0716  0.2228
   40bbb    H10 1185   7.860   3.811   0.846  0.0263 -2.2071  1.1582
   40bbb     C6 1186   7.556   3.898   1.094  0.7669  0.4538 -0.4270
   40bbb    H11 1187   7.531   3.793   1.113 -0.3670  0.6406 -0.7935
   40bbb    H12 1188   7.463   3.955   1.096  1.1930  1.1563  0.3364
   40bbb     C7 1189   7.259   3.932   0.643  0.0015 -0.0302  0.4717
   40bbb    H13 1190   7.195   3.886   0.719 -2.5920 -0.9161 -2.0674
   40bbb    H14 1191   7.224   3.894   0.546  1.9379 -0.1598 -0.2054
   40bbb     C8 1192   7.632   3.955   1.211  0.3536 -0.2909 -0.2720
   40bbb    H15 1193   7.567   3.951   1.299  1.6201 -1.7187  0.6410
   40bbb    H16 1194   7.727   3.902   1.228 -0.1492 -1.8696 -2.0057
   40bbb     C9 1195   7.908   3.758   0.642  0.0631 -0.1980 -0.0119
   40bbb    H17 1196   8.000   3.706   0.674 -0.0596 -0.3160  0.1480
   40bbb    H18 1197   7.932   3.859   0.605 -4.1175  0.7127 -0.7100
   40bbb     O1 1198   7.265   4.083   0.659 -0.0295  0.0987 -0.3148
   40bbb    H19 1199   7.542   3.748   0.864  0.6902 -1.0166 -0.3935
   41bbb     N1 1200   5.842   4.827  -0.373  0.1891  0.0876 -0.5213
   41bbb     C1 1201   5.747   4.708  -0.390 -0.2810 -0.5176 -0.7833
   41bbb     H1 1202   5.735   4.684  -0.496 -1.5878 -0.1256 -0.7490
   41bbb     H2 1203   5.645   4.728  -0.357 -0.6389 -1.8633 -1.0179
   41bbb     C2 1204   5.787   4.956  -0.432 -0.7988 -0.6958  0.3999
   41bbb     H3 1205   5.866   5.030  -0.423  0.5765 -2.0133 -0.3586
   41bbb     H4 1206   5.717   5.003  -0.363  0.6770  0.0465  1.4257
   41bbb     C3 1207   5.865   4.847  -0.220  0.1412  1.3354 -0.2996
   41bbb     H5 1208   5.920   4.757  -0.194 -0.4660  2.0360  4.2318
   41bbb     H6 1209   5.775   4.859  -0.159 -0.9458 -0.6154 -1.4267
   41bbb     C4 1210   5.967   4.956  -0.173 -0.2264 -0.5929  0.7802
   41bbb     H7 1211   6.001   4.942  -0.070  3.1045 -1.0730 -0.2832
   41bbb     H8 1212   5.914   5.052  -0.167 -0.2519 -0.5495 -0.0194
   41bbb     C5 1213   5.796   4.575  -0.327  0.7035 -0.0100  0.1825
   41bbb     H9 1214   5.795   4.575  -0.217  0.9785  0.5283  0.1920
   41bbb    H10 1215   5.898   4.554  -0.360  0.7753  0.0368  0.3743
   41bbb     C6 1216   5.740   4.959  -0.577 -0.0680  0.9570 -0.0154
   41bbb    H11 1217   5.636   4.922  -0.582  0.7878 -2.0393  1.5835
   41bbb    H12 1218   5.804   4.898  -0.642  1.5383  1.2738  1.2034
   41bbb     C7 1219   6.086   4.965  -0.270 -0.2960  0.3776 -0.3680
   41bbb    H13 1220   6.167   5.019  -0.218 -0.4250 -0.7369  1.0697
   41bbb    H14 1221   6.060   5.025  -0.358 -1.4255  2.5654  1.3545
   41bbb     C8 1222   5.734   5.105  -0.632  0.2889 -0.1116  0.2591
   41bbb    H15 1223   5.666   5.170  -0.575  0.4516 -0.9488  1.4346
   41bbb    H16 1224   5.833   5.152  -0.630 -0.0171  0.5297  0.6097
   41bbb     C9 1225   5.700   4.461  -0.374  0.5780  0.0179  0.3188
   41bbb    H17 1226   5.597   4.496  -0.359  0.8394  1.4101 -0.9231
   41bbb    H18 1227   5.714   4.375  -0.308  0.2469 -0.9994 -0.8956
   41bbb     O1 1228   6.125   4.823  -0.315  0.4646 -0.2407 -0.3651
   41bbb    H19 1229   5.932   4.804  -0.419  0.4164 -2.7815  1.0947
   42bbb     N1 1230   6.988   5.177  -0.384 -0.3057 -0.7491  0.3570
   42bbb     C1 1231   6.971   5.287  -0.277  0.0793  0.2170 -0.4724
   42bbb     H1 1232   6.993   5.384  -0.322  0.5760  0.3839  0.1094
   42bbb     H2 1233   7.046   5.261  -0.202 -1.4295  0.3292  1.1342
   42bbb     C2 1234   7.072   5.232  -0.502  0.1332 -0.4499  0.4322
   42bbb     H3 1235   7.087   5.153  -0.577  1.2068 -0.0774  0.2347
   42bbb     H4 1236   7.168   5.264  -0.461 -1.4712  1.6059  2.8667
   42bbb     C3 1237   7.025   5.039  -0.324  0.0896 -0.1145  0.4603
   42bbb     H5 1238   6.943   5.012  -0.257  0.1595 -1.2371  0.1124
   42bbb     H6 1239   7.102   5.031  -0.247 -0.3585 -0.8875  0.8361
   42bbb     C4 1240   7.052   4.928  -0.435 -0.1737 -0.2769 -0.2720
   42bbb     H7 1241   7.148   4.943  -0.486 -0.2483 -0.0204 -0.3366
   42bbb     H8 1242   6.981   4.945  -0.517 -0.3549  1.8818  0.2671
   42bbb     C5 1243   6.831   5.289  -0.208 -0.4018 -0.4959 -0.3503
   42bbb     H9 1244   6.801   5.193  -0.164 -1.7322  0.1512  0.2143
   42bbb    H10 1245   6.761   5.330  -0.282  2.7052 -0.7573 -3.6463
   42bbb     C6 1246   7.013   5.349  -0.585 -0.4703 -0.4279 -0.5254
   42bbb    H11 1247   7.003   5.433  -0.515  2.2916 -1.2894  1.0614
   42bbb    H12 1248   6.911   5.317  -0.609 -0.7539 -1.2443  1.5143
   42bbb     C7 1249   7.047   4.779  -0.390  0.0096  0.4458  0.3692
   42bbb    H13 1250   7.121   4.760  -0.312  0.4939  0.1592 -0.1613
   42bbb    H14 1251   7.068   4.716  -0.477 -0.9940  1.1266 -0.3926
   42bbb     C8 1252   7.096   5.387  -0.710  0.9583  0.2704 -0.1226
   42bbb    H15 1253   7.113   5.311  -0.787  1.0211 -0.0356  0.1913
   42bbb    H16 1254   7.049   5.468  -0.768  1.5576 -1.7801 -3.7599
   42bbb     C9 1255   6.813   5.376  -0.084  0.3673  0.2440  0.0644
   42bbb    H17 1256   6.897   5.368  -0.014  1.4890  1.2946 -1.1131
   42bbb    H18 1257   6.723   5.341  -0.032 -0.2974  0.0255 -1.2017
   42bbb     O1 1258   6.914   4.754  -0.327  0.4079 -0.1615  0.2973
   42bbb    H19 1259   6.896   5.166  -0.429 -0.3676  0.9809 -0.0002
   43bbb     N1 1260   7.427   4.772   1.599 -0.8006  0.6213  0.3613
   43bbb     C1 1261   7.510   4.732   1.478  0.3279  0.9481 -0.5530
   43bbb     H1 1262   7.613   4.712   1.509  0.3131  1.5704 -0.0872
   43bbb     H2 1263   7.513   4.824   1.419 -0.8782  1.5704  0.3175
   43bbb     C2 1264   7.505   4.876   1.677 -0.7993  0.8607  0.1815
   43bbb     H3 1265   7.437   4.903   1.758 -1.1834  0.8618 -0.1391
   43bbb     H4 1266   7.514   4.957   1.604  1.2534 -1.8265 -2.8017
   43bbb     C3 1267   7.284   4.812   1.548  0.1616 -0.2287  0.2730
   43bbb     H5 1268   7.255   4.741   1.470 -1.7163 -0.2959  0.9764
   43bbb     H6 1269   7.275   4.911   1.504 -1.7872 -0.4481  0.0617
   43bbb     C4 1270   7.167   4.801   1.649 -0.6444  0.2069 -0.0351
   43bbb     H7 1271   7.201   4.858   1.735 -0.9833 -0.7254  0.7413
   43bbb     H8 1272   7.156   4.698   1.685 -1.2839  0.6778  1.1547
   43bbb     C5 1273   7.461   4.607   1.404  0.1756 -0.4982  0.4969
   43bbb     H9 1274   7.525   4.591   1.316  0.0266  0.5006  0.1967
   43bbb    H10 1275   7.366   4.629   1.354  1.0864  2.4852 -0.1012
   43bbb     C6 1276   7.641   4.830   1.737 -0.2678  0.4732  0.0032
   43bbb    H11 1277   7.708   4.810   1.652 -1.7715  2.1579 -1.6792
   43bbb    H12 1278   7.629   4.731   1.781  0.1275  0.4275  0.0065
   43bbb     C7 1279   7.032   4.861   1.602  0.1499  0.3080 -0.3406
   43bbb    H13 1280   7.049   4.964   1.568  0.6937 -0.1518 -1.5215
   43bbb    H14 1281   6.957   4.854   1.682  0.3463 -1.2149 -0.2503
   43bbb     C8 1282   7.693   4.940   1.836 -0.3986  0.3837 -0.2551
   43bbb    H15 1283   7.750   5.018   1.785  1.3902  0.8116  2.2080
   43bbb    H16 1284   7.608   4.988   1.884 -0.1813  1.1138 -0.5966
   43bbb     C9 1285   7.450   4.469   1.491 -0.0424 -0.8108 -0.0984
   43bbb    H17 1286   7.398   4.385   1.444 -1.1260 -0.6145  0.6874
   43bbb    H18 1287   7.383   4.487   1.576 -2.0605 -0.2502 -1.7328
   43bbb     O1 1288   6.988   4.787   1.490  0.0442 -0.1511 -0.1802
   43bbb    H19 1289   7.413   4.688   1.655  2.4086  0.8520  1.7193
   44bbb     N1 1290   6.725   5.582   1.668  0.2785  0.2392  0.7064
   44bbb     C1 1291   6.670   5.612   1.801  0.1390 -0.1723 -1.0263
   44bbb     H1 1292   6.740   5.687   1.838  0.8045 -1.8643  1.3587
   44bbb     H2 1293   6.679   5.524   1.865 -1.8910  0.4089  0.1351
   44bbb     C2 1294   6.873   5.537   1.676 -0.1001  0.5006 -0.4994
   44bbb     H3 1295   6.896   5.487   1.582  2.7478  0.0964  0.3083
   44bbb     H4 1296   6.886   5.469   1.760  1.5131  2.2816  0.8037
   44bbb     C3 1297   6.643   5.465   1.600  0.3735 -0.2486  0.2159
   44bbb     H5 1298   6.537   5.484   1.620  0.5538 -1.6925  3.1189
   44bbb     H6 1299   6.655   5.374   1.659 -2.0507 -0.4291  0.5168
   44bbb     C4 1300   6.660   5.432   1.442 -0.3969  0.1747  0.2896
   44bbb     H7 1301   6.764   5.401   1.425 -0.9282 -1.1209 -0.6891
   44bbb     H8 1302   6.647   5.525   1.386 -0.2566  0.5995  0.9413
   44bbb     C5 1303   6.523   5.667   1.814 -0.5981  0.1771  0.1537
   44bbb     H9 1304   6.501   5.705   1.914 -0.7699  0.2103  0.1052
   44bbb    H10 1305   6.456   5.584   1.786  2.0731 -2.4951  1.1673
   44bbb     C6 1306   6.985   5.646   1.692  0.1067 -0.9648 -0.2435
   44bbb    H11 1307   6.968   5.706   1.782  0.7706 -0.5613 -0.3790
   44bbb    H12 1308   6.971   5.720   1.612 -0.8674  1.3847  1.9309
   44bbb     C7 1309   6.569   5.319   1.386 -0.2526 -0.1717  0.2503
   44bbb    H13 1310   6.596   5.313   1.279 -3.0792  0.0522 -0.5470
   44bbb    H14 1311   6.466   5.356   1.390  0.3500  1.9899 -1.6909
   44bbb     C8 1312   7.130   5.591   1.714 -0.5740  0.2823 -0.3185
   44bbb    H15 1313   7.140   5.518   1.795 -1.0477 -1.1132 -1.4929
   44bbb    H16 1314   7.159   5.543   1.620  0.8178  1.6846 -0.6646
   44bbb     C9 1315   6.499   5.780   1.713  0.1610  0.1063  0.2741
   44bbb    H17 1316   6.575   5.857   1.733  0.3735 -0.0338  0.0057
   44bbb    H18 1317   6.405   5.832   1.736  0.8750  1.4847  0.2006
   44bbb     O1 1318   6.588   5.201   1.468  0.2910  0.2763  0.1666
   44bbb    H19 1319   6.726   5.670   1.613  2.7043  0.4636  1.0215
   45bbb     N1 1320   4.906   4.771   1.707 -0.4137 -0.1014  0.4663
   45bbb     C1 1321   4.888   4.625   1.693  0.2854  0.4585 -0.3400
   45bbb     H1 1322   4.795   4.601   1.642  1.4405 -2.3193 -1.2971
   45bbb     H2 1323   4.886   4.588   1.796  0.4707  2.1973  0.3365
   45bbb     C2 1324   4.779   4.836   1.756  0.3941  0.5852  0.3368
   45bbb     H3 1325   4.748   4.799   1.854  1.3232  1.5119  0.9874
   45bbb     H4 1326   4.709   4.795   1.682  2.9337 -0.2112 -1.7894
   45bbb     C3 1327   5.029   4.795   1.796  0.4007 -0.8497 -0.0035
   45bbb     H5 1328   5.081   4.704   1.826  1.7833  0.4869  1.9026
   45bbb     H6 1329   4.992   4.832   1.892  0.7404 -0.5483  0.0137
   45bbb     C4 1330   5.129   4.890   1.739  0.1515 -0.0851  0.3182
   45bbb     H7 1331   5.208   4.913   1.811  1.7591 -3.3486 -0.2479
   45bbb     H8 1332   5.080   4.987   1.720  2.0580  0.5952 -1.5229
   45bbb     C5 1333   4.997   4.540   1.623  0.2994 -0.0898  1.0138
   45bbb     H9 1334   5.097   4.579   1.644  0.1104  2.6466 -2.2901
   45bbb    H10 1335   4.984   4.553   1.515 -1.7778 -0.3917  1.1733
   45bbb     C6 1336   4.795   4.988   1.764 -1.0284  0.2022  0.8002
   45bbb    H11 1337   4.830   5.024   1.666  3.7003  1.4334  2.6361
   45bbb    H12 1338   4.878   5.020   1.828  0.7177  0.3201 -1.3754
   45bbb     C7 1339   5.210   4.843   1.622 -0.2359  0.8114  0.8417
   45bbb    H13 1340   5.275   4.756   1.636 -0.3509 -0.1218 -3.1145
   45bbb    H14 1341   5.279   4.923   1.592 -0.4420  0.1347 -1.6639
   45bbb     C8 1342   4.673   5.065   1.818 -0.0730  0.7332 -0.6165
   45bbb    H15 1343   4.701   5.170   1.836  0.4789  0.2253  1.8360
   45bbb    H16 1344   4.591   5.054   1.747 -1.6144 -0.6908  1.2727
   45bbb     C9 1345   4.988   4.389   1.652 -0.0248 -0.4504  0.6903
   45bbb    H17 1346   4.892   4.360   1.608  0.5732 -0.3758 -0.7093
   45bbb    H18 1347   4.995   4.393   1.761 -1.2563  2.6028  0.7638
   45bbb     O1 1348   5.122   4.809   1.515  0.4730  0.6923  0.6450
   45bbb    H19 1349   4.934   4.804   1.613 -1.2259  0.4473  0.4093
   46bbb     N1 1350   5.443   5.613   0.983 -0.2081 -0.7171  0.3110
   46bbb     C1 1351   5.497   5.718   0.887 -0.1692 -0.6112  0.5838
   46bbb     H1 1352   5.476   5.820   0.916 -1.1244 -0.2204 -1.3535
   46bbb     H2 1353   5.443   5.697   0.795  3.4959  0.5574 -2.0639
   46bbb     C2 1354   5.293   5.637   1.017  0.1987  0.0599  0.4639
   46bbb     H3 1355   5.261   5.564   1.091  0.4628 -2.1433 -1.4633
   46bbb     H4 1356   5.245   5.618   0.921  1.3743 -0.9182  0.0385
   46bbb     C3 1357   5.456   5.472   0.923  0.1053 -0.1492 -0.2150
   46bbb     H5 1358   5.558   5.456   0.890  0.2834 -1.3293  0.8391
   46bbb     H6 1359   5.396   5.467   0.832 -0.3588 -0.5329  0.1091
   46bbb     C4 1360   5.414   5.347   1.010  0.0940 -0.1674 -1.1008
   46bbb     H7 1361   5.307   5.333   1.026  0.0464  1.7831  0.6708
   46bbb     H8 1362   5.462   5.354   1.108  0.8286  3.2052 -1.5813
   46bbb     C5 1363   5.646   5.691   0.863  0.6951  0.6015  0.5087
   46bbb     H9 1364   5.667   5.601   0.803  1.0089  1.2040 -0.3035
   46bbb    H10 1365   5.691   5.687   0.964 -1.2282 -0.9933  1.3650
   46bbb     C6 1366   5.247   5.778   1.059  0.4260  0.0855 -0.3493
   46bbb    H11 1367   5.249   5.852   0.978  0.6587  0.1849 -0.2515
   46bbb    H12 1368   5.315   5.810   1.138 -1.2083  2.0609  0.3289
   46bbb     C7 1369   5.471   5.218   0.941 -0.5551 -0.6765  0.1746
   46bbb    H13 1370   5.576   5.237   0.916 -1.1518  0.2935 -1.8451
   46bbb    H14 1371   5.425   5.215   0.841  1.2274  0.9412 -0.7623
   46bbb     C8 1372   5.106   5.780   1.131  0.2371  0.3360 -0.0214
   46bbb    H15 1373   5.097   5.709   1.213  0.7087 -0.1637 -0.3890
   46bbb    H16 1374   5.092   5.882   1.170  0.1358  0.5603 -0.6299
   46bbb     C9 1375   5.711   5.802   0.794 -0.2335  0.2011  0.5971
   46bbb    H17 1376   5.820   5.802   0.789 -0.2599 -0.9489 -0.7632
   46bbb    H18 1377   5.686   5.891   0.852 -0.1286  0.8901 -0.3887
   46bbb     O1 1378   5.437   5.100   1.022 -0.7435  0.3006  0.8492
   46bbb    H19 1379   5.494   5.609   1.072  0.2033 -0.0833  0.1112
   47ccc     C1 1380   6.727   0.250   2.673  1.4549 -0.0089 -0.4361
   47ccc     H1 1381   6.672   0.228   2.581  1.4873  0.5630 -0.5972
   47ccc     H2 1382   6.673   0.207   2.757 -1.1597  2.0860 -0.8955
   47ccc     C2 1383   6.733   0.401   2.692 -0.5593  0.0611  0.2712
   47ccc     H3 1384   6.800   0.426   2.775  0.9768 -0.0798 -0.8821
   47ccc     H4 1385   6.792   0.443   2.609  1.1145  1.4562  2.0918
   47ccc     C3 1386   6.596   0.475   2.715  0.0942  0.5129  0.0493
   47ccc     H5 1387   6.570   0.458   2.821 -1.3408  0.1487 -0.3435
   47ccc     H6 1388   6.528   0.424   2.646 -0.7808  1.9461 -0.1963
   47ccc     N1 1389   6.861   0.177   2.665  0.4347 -0.1526  0.0865
   47ccc     H7 1390   6.912   0.189   2.754 -1.6455 -1.1418  1.4794
   47ccc     H8 1391   6.853   0.079   2.635 -0.2731 -0.4911  1.3212
   47ccc     O1 1392   6.606   0.611   2.665 -0.4291 -0.0444 -1.2006
   47ccc    H17 1393   6.915   0.228   2.594 -1.4200 -1.0764 -2.1068
   48ccc     C1 1394   6.177   1.161   1.961 -0.1317 -0.6075  0.6582
   48ccc     H1 1395   6.263   1.138   2.024 -0.5408 -0.5499  1.2380
   48ccc     H2 1396   6.084   1.115   1.994 -0.1225 -0.8422  0.3634
   48ccc     C2 1397   6.219   1.111   1.821  0.5480  0.1446  0.2252
   48ccc     H3 1398   6.129   1.118   1.758 -2.1720 -0.5698  3.7248
   48ccc     H4 1399   6.299   1.171   1.778  1.2776 -2.2050 -1.9131
   48ccc     C3 1400   6.256   0.959   1.825 -0.4794 -0.2873  0.3924
   48ccc     H5 1401   6.326   0.950   1.741 -1.4793  1.3988 -0.6901
   48ccc     H6 1402   6.167   0.895   1.819 -0.5262 -0.0706 -2.9826
   48ccc     N1 1403   6.168   1.316   1.957 -0.2751  0.3562  0.1545
   48ccc     H7 1404   6.262   1.355   1.970  0.5482 -2.1719  2.5327
   48ccc     H8 1405   6.127   1.349   1.868 -0.9677  3.8318  1.5668
   48ccc     O1 1406   6.325   0.933   1.949  0.1953  0.2642 -0.2022
   48ccc    H17 1407   6.111   1.353   2.035 -1.2371  2.1357 -1.2935
   49ccc     C1 1408   5.565   1.986   2.326 -0.1683 -0.0942 -0.6336
   49ccc     H1 1409   5.485   2.059   2.326 -1.0641 -1.0344  0.7344
   49ccc     H2 1410   5.573   1.926   2.417 -1.4291 -0.2694 -0.6240
   49ccc     C2 1411   5.700   2.062   2.314  0.0671  0.5850  0.9453
   49ccc     H3 1412   5.781   1.995   2.284  0.2355  1.5085 -0.8259
   49ccc     H4 1413   5.688   2.134   2.231 -0.0539  0.1773  0.6042
   49ccc     C3 1414   5.734   2.139   2.443 -0.5488  0.1853 -0.2357
   49ccc     H5 1415   5.648   2.202   2.467  1.8624  2.7671  2.5671
   49ccc     H6 1416   5.827   2.197   2.433 -1.4726  1.7545  0.0609
   49ccc     N1 1417   5.511   1.896   2.218  0.3287  0.4731  0.0815
   49ccc     H7 1418   5.575   1.817   2.202 -1.4568 -0.9420 -0.4251
   49ccc     H8 1419   5.418   1.858   2.242  0.5639 -0.6683 -0.7284
   49ccc     O1 1420   5.760   2.050   2.551  0.0260  0.0500  0.1789
   49ccc    H17 1421   5.486   1.939   2.128  0.1062 -2.3622 -1.3205
   50ccc     C1 1422   5.729   1.491   3.578 -0.7421 -0.5597  0.4204
   50ccc     H1 1423   5.788   1.480   3.487 -0.6319 -0.6684  0.5052
   50ccc     H2 1424   5.723   1.397   3.633  0.4595  1.1611  3.7751
   50ccc     C2 1425   5.590   1.532   3.546  0.3464  0.0870  0.2366
   50ccc     H3 1426   5.537   1.451   3.495  0.2083  1.3472 -1.7771
   50ccc     H4 1427   5.528   1.548   3.635 -0.3762 -0.4380 -0.1621
   50ccc     C3 1428   5.580   1.669   3.463 -0.2360 -0.2065 -0.7988
   50ccc     H5 1429   5.598   1.748   3.536 -1.8489 -1.8768  1.5788
   50ccc     H6 1430   5.476   1.673   3.426 -1.4473 -1.1250  2.2319
   50ccc     N1 1431   5.808   1.587   3.669 -0.9356 -0.2159 -0.6171
   50ccc     H7 1432   5.899   1.544   3.690  0.4349  1.3171 -2.9567
   50ccc     H8 1433   5.825   1.681   3.629 -0.6869  0.2737  0.6002
   50ccc     O1 1434   5.676   1.674   3.358 -0.8320 -0.8197  0.1765
   50ccc    H17 1435   5.759   1.597   3.759 -1.3588 -1.1246 -0.7409
   51ccc     C1 1436   5.081   3.133   1.564 -0.3027 -0.1457 -0.0039
   51ccc     H1 1437   5.163   3.068   1.594  1.1991  0.4885 -2.4782
   51ccc     H2 1438   5.116   3.236   1.571  0.2343 -0.4489  3.7854
   51ccc     C2 1439   4.953   3.117   1.653  0.1261 -0.0136 -1.0469
   51ccc     H3 1440   4.884   3.200   1.633  0.9944  1.2510  0.8925
   51ccc     H4 1441   4.896   3.030   1.619 -0.6863  0.8387 -1.9396
   51ccc     C3 1442   4.971   3.104   1.806  0.1366 -0.2646 -0.1921
   51ccc     H5 1443   4.879   3.064   1.849 -0.0055  0.9779  0.7218
   51ccc     H6 1444   4.995   3.202   1.850 -1.4945  0.0080  0.1651
   51ccc     N1 1445   5.054   3.114   1.417  0.1910 -0.4971 -0.2411
   51ccc     H7 1446   4.967   3.161   1.385 -0.2343 -1.7609 -1.0101
   51ccc     H8 1447   5.134   3.143   1.359  2.8176 -1.8003  2.5036
   51ccc     O1 1448   5.082   3.020   1.832  0.2242 -0.5376  0.0311
   51ccc    H17 1449   5.036   3.014   1.400  0.0558 -0.5701  0.2988
   52ccc     C1 1450   4.874   2.404   1.649  0.1021 -0.3116  0.4402
   52ccc     H1 1451   4.859   2.439   1.751 -0.5465 -1.6534  0.8341
   52ccc     H2 1452   4.848   2.298   1.647  0.1991 -0.3261 -0.4681
   52ccc     C2 1453   5.028   2.424   1.611  0.4587  0.7168 -0.6123
   52ccc     H3 1454   5.041   2.379   1.512 -1.1129 -0.5863 -0.2826
   52ccc     H4 1455   5.063   2.527   1.615  1.6125  0.3379 -0.7469
   52ccc     C3 1456   5.118   2.353   1.707 -0.3890 -0.7474  0.5843
   52ccc     H5 1457   5.221   2.349   1.669  0.0359  0.6104  1.5163
   52ccc     H6 1458   5.074   2.254   1.724 -3.0830 -0.2289 -2.3216
   52ccc     N1 1459   4.779   2.477   1.566  0.4692 -0.6782 -0.2091
   52ccc     H7 1460   4.788   2.461   1.465 -1.8500  0.8375 -0.7317
   52ccc     H8 1461   4.688   2.444   1.601  0.6023 -0.6500  0.1662
   52ccc     O1 1462   5.120   2.431   1.827 -0.2680  0.1216 -0.1538
   52ccc    H17 1463   4.794   2.578   1.581  1.1813 -0.9238  0.8203
   53ccc     C1 1464   6.484   3.534   3.437  0.0557 -0.0680  0.0576
   53ccc     H1 1465   6.503   3.442   3.492  2.9729  0.2497 -0.2503
   53ccc     H2 1466   6.559   3.605   3.471  1.2318 -1.2339 -0.0255
   53ccc     C2 1467   6.342   3.582   3.467  0.2254  0.7478  0.9762
   53ccc     H3 1468   6.337   3.626   3.568  0.6292  1.5693  0.6480
   53ccc     H4 1469   6.320   3.667   3.402  0.2899 -0.3709 -0.5692
   53ccc     C3 1470   6.233   3.478   3.453  0.5394  0.5336 -0.1295
   53ccc     H5 1471   6.139   3.522   3.490 -0.8883 -1.6595 -0.9473
   53ccc     H6 1472   6.256   3.399   3.525 -0.5908  2.4156  2.4347
   53ccc     N1 1473   6.517   3.507   3.291  0.6029 -0.0539  0.6866
   53ccc     H7 1474   6.618   3.502   3.276  0.4335 -0.5353 -0.3725
   53ccc     H8 1475   6.467   3.420   3.267 -0.3418  0.6016  0.1973
   53ccc     O1 1476   6.220   3.430   3.321 -0.5026 -0.3592 -0.5086
   53ccc    H17 1477   6.481   3.583   3.231 -0.9653 -0.8894  0.5167
   54ccc     C1 1478   6.041   4.083   2.787 -0.7702  0.2674 -0.1534
   54ccc     H1 1479   5.967   4.048   2.715 -1.9468  0.4892  0.9208
   54ccc     H2 1480   6.124   4.134   2.738  0.6329  0.5701  2.3624
   54ccc     C2 1481   6.115   3.958   2.848 -0.4200 -0.0465  0.2305
   54ccc     H3 1482   6.196   3.987   2.916  0.5455 -1.6849 -0.1667
   54ccc     H4 1483   6.037   3.898   2.896  0.8608 -1.3701  0.7253
   54ccc     C3 1484   6.184   3.873   2.744  0.3370 -0.4362 -0.5409
   54ccc     H5 1485   6.280   3.919   2.718  0.3994 -0.0758  0.3028
   54ccc     H6 1486   6.120   3.871   2.655 -0.1137  2.0656 -0.3460
   54ccc     N1 1487   5.976   4.174   2.882 -0.3660 -0.5737 -0.2473
   54ccc     H7 1488   5.919   4.113   2.943 -1.0949  0.8814  0.5763
   54ccc     H8 1489   6.035   4.240   2.934 -0.5299 -0.1333 -0.6187
   54ccc     O1 1490   6.197   3.742   2.804  0.7129 -0.1958  0.3311
   54ccc    H17 1491   5.906   4.231   2.831  0.0764  1.0573  0.9176
   55ccc     C1 1492   7.606   0.463  -0.074 -0.0437 -0.8032 -0.3008
   55ccc     H1 1493   7.608   0.498   0.029  0.0767  0.7820 -0.8115
   55ccc     H2 1494   7.704   0.427  -0.105  0.1949 -1.2204  0.8830
   55ccc     C2 1495   7.589   0.597  -0.152  0.1938  0.6764 -0.6900
   55ccc     H3 1496   7.585   0.578  -0.260 -2.9775  0.5327 -0.6559
   55ccc     H4 1497   7.480   0.610  -0.146 -0.1314 -1.8418  0.4505
   55ccc     C3 1498   7.672   0.716  -0.112 -1.0621  0.7071  0.2546
   55ccc     H5 1499   7.639   0.806  -0.165  1.0962  1.5061  0.1964
   55ccc     H6 1500   7.777   0.694  -0.136 -1.3326 -0.3544 -0.0432
   55ccc     N1 1501   7.517   0.348  -0.101 -0.1318  0.0239 -0.4437
   55ccc     H7 1502   7.495   0.329  -0.200  0.3990  1.6564 -0.9103
   55ccc     H8 1503   7.550   0.259  -0.062  0.3940 -0.5281 -2.0458
   55ccc     O1 1504   7.677   0.733   0.027 -0.0616  0.0806  0.3167
   55ccc    H17 1505   7.428   0.374  -0.057  0.8643 -0.2630  1.8472
   56ccc     C1 1506   8.434   0.511   0.658 -0.2792 -0.4918 -0.8824
   56ccc     H1 1507   8.412   0.428   0.591 -0.9374 -1.7669  0.8367
   56ccc     H2 1508   8.418   0.473   0.759  2.4288  1.0556  0.2535
   56ccc     C2 1509   8.335   0.622   0.634 -0.5206  0.0937  0.3280
   56ccc     H3 1510   8.344   0.688   0.721 -1.3017 -0.0716  0.5395
   56ccc     H4 1511   8.369   0.670   0.541 -0.8738  0.7266  0.5160
   56ccc     C3 1512   8.195   0.562   0.619 -0.8086 -0.0251  0.5506
   56ccc     H5 1513   8.184   0.458   0.653  0.9088 -1.4347 -2.7211
   56ccc     H6 1514   8.174   0.564   0.511  2.2399 -1.1976 -0.1678
   56ccc     N1 1515   8.579   0.543   0.658 -0.6179  0.1005  0.0352
   56ccc     H7 1516   8.592   0.630   0.712  0.8298 -0.0474 -0.0381
   56ccc     H8 1517   8.639   0.466   0.691  1.1542  1.0055 -0.9716
   56ccc     O1 1518   8.105   0.654   0.680 -0.2706  0.2715 -0.3659
   56ccc    H17 1519   8.607   0.554   0.559  2.4436 -1.2256  0.6449
   57ccc     C1 1520   8.128   0.340   1.597 -0.1456  0.1332  0.1016
   57ccc     H1 1521   8.097   0.434   1.642  3.1849  0.2659  2.5018
   57ccc     H2 1522   8.167   0.373   1.500 -1.0822  1.8905  0.2874
   57ccc     C2 1523   8.009   0.252   1.577 -0.7752 -0.3334  0.1966
   57ccc     H3 1524   8.028   0.191   1.488  1.9613  1.5210 -0.6033
   57ccc     H4 1525   7.991   0.190   1.665 -0.6848  1.0303  1.2040
   57ccc     C3 1526   7.876   0.329   1.566 -0.2428  0.1110 -0.3434
   57ccc     H5 1527   7.904   0.414   1.504 -0.0670 -0.8680 -1.6597
   57ccc     H6 1528   7.830   0.347   1.664 -0.8631 -1.1764 -0.3671
   57ccc     N1 1529   8.232   0.274   1.687  0.9651 -0.3034  0.1993
   57ccc     H7 1530   8.207   0.286   1.787  3.1071  1.5735  0.6152
   57ccc     H8 1531   8.254   0.181   1.650  0.2010 -1.0450  1.5220
   57ccc     O1 1532   7.782   0.243   1.494  0.4540  0.0599 -0.1788
   57ccc    H17 1533   8.323   0.324   1.686  0.0576  1.5196  1.6506
   58ccc     C1 1534   7.579  -0.245   0.469 -0.3671 -1.2697  0.5660
   58ccc     H1 1535   7.566  -0.157   0.405 -2.0102 -0.9863  1.2310
   58ccc     H2 1536   7.497  -0.242   0.540 -0.2065  1.9584  0.7346
   58ccc     C2 1537   7.703  -0.259   0.553 -0.0718 -0.1754  0.8452
   58ccc     H3 1538   7.683  -0.330   0.634 -1.7083 -0.8476 -0.0994
   58ccc     H4 1539   7.791  -0.299   0.501  1.7202 -0.6894  3.9452
   58ccc     C3 1540   7.735  -0.117   0.607  0.0394  0.3798  1.2319
   58ccc     H5 1541   7.704  -0.042   0.534  2.1055 -0.9205 -1.1367
   58ccc     H6 1542   7.843  -0.103   0.623  0.4826  1.0079 -1.7567
   58ccc     N1 1543   7.550  -0.360   0.380 -0.2029 -0.0136  0.4892
   58ccc     H7 1544   7.553  -0.447   0.437 -0.2024 -0.4445 -0.1560
   58ccc     H8 1545   7.451  -0.352   0.351 -0.3194 -0.0510  0.8685
   58ccc     O1 1546   7.670  -0.092   0.728 -0.5355  0.0989  0.1953
   58ccc    H17 1547   7.613  -0.373   0.300 -1.6250 -0.3480 -0.6258
   59ccc     C1 1548   7.982   0.842   2.484  0.6131  0.1413  0.2383
   59ccc     H1 1549   7.979   0.776   2.397  1.4732 -0.1855  0.4437
   59ccc     H2 1550   7.882   0.843   2.527  1.4611 -0.1461  2.3543
   59ccc     C2 1551   8.024   0.981   2.429  0.1583  0.1621 -0.0375
   59ccc     H3 1552   7.994   1.055   2.505 -0.8382  0.7932 -1.0028
   59ccc     H4 1553   8.131   0.983   2.407  0.7450 -1.0691  2.3047
   59ccc     C3 1554   7.944   1.019   2.303 -0.0482 -0.5934  0.2211
   59ccc     H5 1555   7.837   0.995   2.316 -0.1976 -2.1064 -2.8082
   59ccc     H6 1556   7.978   0.955   2.220 -0.8539 -0.6436 -0.0827
   59ccc     N1 1557   8.078   0.776   2.586 -0.5741  0.3612 -0.4660
   59ccc     H7 1558   8.173   0.771   2.546 -0.0720  2.4553  0.3366
   59ccc     H8 1559   8.095   0.827   2.674  0.8164  1.2289 -1.1868
   59ccc     O1 1560   7.971   1.162   2.269 -0.3094  0.5751 -0.0030
   59ccc    H17 1561   8.047   0.683   2.617  0.3346  0.7002  1.6317
   60ccc     C1 1562   8.619   1.873   1.830 -0.5141 -0.7850 -0.0661
   60ccc     H1 1563   8.544   1.805   1.789 -1.7495  0.9395 -0.8058
   60ccc     H2 1564   8.716   1.827   1.815  0.0147 -0.8369  3.0258
   60ccc     C2 1565   8.596   1.903   1.979 -0.0167 -0.4087  0.6306
   60ccc     H3 1566   8.673   1.975   2.011 -1.1301  2.3387 -2.2286
   60ccc     H4 1567   8.511   1.969   1.996 -0.0961 -0.5672  0.8498
   60ccc     C3 1568   8.599   1.785   2.076  0.0297 -0.7733 -0.1471
   60ccc     H5 1569   8.590   1.818   2.181 -3.4051  1.1758 -0.9155
   60ccc     H6 1570   8.693   1.729   2.066  1.8467  2.2212 -1.1889
   60ccc     N1 1571   8.596   1.983   1.733  0.0579 -0.0249  0.0841
   60ccc     H7 1572   8.508   2.027   1.762  1.3688  1.8864  1.3882
   60ccc     H8 1573   8.663   2.061   1.735 -0.8521  0.7577  0.3590
   60ccc     O1 1574   8.484   1.706   2.037  0.3579 -0.2519  0.4082
   60ccc    H17 1575   8.588   1.943   1.638 -2.0427  1.8280 -0.6020
   61ccc     C1 1576   8.599   2.534   2.188 -0.4996  0.5200  0.1766
   61ccc     H1 1577   8.613   2.628   2.135 -0.6991 -0.5717 -1.9268
   61ccc     H2 1578   8.694   2.483   2.206 -0.5196  0.8754  1.3856
   61ccc     C2 1579   8.503   2.443   2.100 -0.3474 -0.4413 -0.7866
   61ccc     H3 1580   8.525   2.341   2.134  1.2713  0.6638  1.7806
   61ccc     H4 1581   8.399   2.473   2.121  0.0924 -0.1615  1.2216
   61ccc     C3 1582   8.547   2.469   1.955  0.2070  0.2093  0.7829
   61ccc     H5 1583   8.643   2.428   1.925 -1.2963 -2.0779 -1.2597
   61ccc     H6 1584   8.553   2.577   1.935  1.8770 -0.2895 -1.7396
   61ccc     N1 1585   8.545   2.570   2.323 -0.0950 -0.2745 -1.0092
   61ccc     H7 1586   8.469   2.632   2.293  1.2526  0.2881 -3.5381
   61ccc     H8 1587   8.526   2.483   2.374  1.5945 -0.0985  0.0175
   61ccc     O1 1588   8.447   2.403   1.877 -0.3679  0.2608 -1.1497
   61ccc    H17 1589   8.609   2.626   2.381 -0.0757  0.2795 -1.5590
   62ccc     C1 1590   8.378   2.368   0.952 -0.4543 -0.6132  0.1347
   62ccc     H1 1591   8.297   2.343   0.883 -0.4760  3.6770 -1.7167
   62ccc     H2 1592   8.380   2.305   1.041  0.2636  0.8743  1.2289
   62ccc     C2 1593   8.341   2.504   1.006  0.0765 -0.3177  0.4256
   62ccc     H3 1594   8.411   2.538   1.083 -2.1694  1.7832  1.6551
   62ccc     H4 1595   8.346   2.570   0.918  0.8568 -2.0378 -0.9012
   62ccc     C3 1596   8.203   2.509   1.075  0.0380  0.0754  0.7118
   62ccc     H5 1597   8.123   2.492   1.001  0.0775  2.3315  0.0779
   62ccc     H6 1598   8.188   2.611   1.110 -2.0473  0.1056 -0.1039
   62ccc     N1 1599   8.516   2.361   0.886 -0.1315  0.4050 -0.5812
   62ccc     H7 1600   8.543   2.266   0.857 -1.0132  0.1858 -0.6991
   62ccc     H8 1601   8.519   2.424   0.804  1.2857  1.1426 -0.0050
   62ccc     O1 1602   8.176   2.420   1.185  0.0927 -0.0246  0.1308
   62ccc    H17 1603   8.585   2.403   0.950 -1.2188  3.0915 -1.0266
   63ccc     C1 1604   5.741   3.391  -2.452  0.2059  0.9667  0.2133
   63ccc     H1 1605   5.744   3.425  -2.556 -3.2288  1.5379  0.2027
   63ccc     H2 1606   5.761   3.470  -2.379  1.5906  0.2102  0.6964
   63ccc     C2 1607   5.842   3.286  -2.432  0.3516  1.0209 -0.7361
   63ccc     H3 1608   5.860   3.263  -2.326  1.8060 -0.2471 -1.2313
   63ccc     H4 1609   5.803   3.194  -2.476  0.9859 -0.5211  1.7189
   63ccc     C3 1610   5.980   3.328  -2.485  0.6254  0.1587  0.0801
   63ccc     H5 1611   6.018   3.425  -2.452  1.8352 -0.9208  2.0746
   63ccc     H6 1612   5.970   3.324  -2.595 -0.2449 -0.3340  0.1639
   63ccc     N1 1613   5.596   3.341  -2.434  0.2265 -0.1966 -0.0485
   63ccc     H7 1614   5.521   3.411  -2.441  0.3142  0.0615  1.2360
   63ccc     H8 1615   5.576   3.261  -2.496 -1.5565  1.7470 -2.1791
   63ccc     O1 1616   6.082   3.232  -2.437 -0.0497  0.1856 -0.3248
   63ccc    H17 1617   5.584   3.300  -2.340  0.7263 -0.1540  0.0368
   64ccc     C1 1618   6.945   3.186  -1.822  0.2381 -0.4283 -0.1991
   64ccc     H1 1619   7.004   3.277  -1.811  0.2172 -0.4812  0.3801
   64ccc     H2 1620   6.945   3.125  -1.731  2.1868 -1.6855 -0.9734
   64ccc     C2 1621   7.001   3.099  -1.941  0.1494 -0.7859  0.2387
   64ccc     H3 1622   7.109   3.092  -1.921  0.3412 -0.8313 -0.7840
   64ccc     H4 1623   6.964   2.996  -1.937 -0.9093 -0.4067  0.7388
   64ccc     C3 1624   6.977   3.156  -2.079 -0.5901 -0.4558 -0.8532
   64ccc     H5 1625   7.037   3.095  -2.147 -0.0746 -0.1232 -0.7059
   64ccc     H6 1626   7.014   3.259  -2.088  1.3366 -0.8172  1.6154
   64ccc     N1 1627   6.811   3.257  -1.834  0.2002 -0.1290 -0.1026
   64ccc     H7 1628   6.815   3.327  -1.910  1.9759  0.9993  0.9444
   64ccc     H8 1629   6.742   3.183  -1.853  0.6091 -0.9490  1.4427
   64ccc     O1 1630   6.835   3.140  -2.104  0.0179 -0.0449  0.0907
   64ccc    H17 1631   6.781   3.300  -1.745 -1.6845  0.9638 -1.2089
   65ccc     C1 1632   6.107   1.518  -2.392 -0.2268  0.2309  0.3636
   65ccc     H1 1633   6.013   1.506  -2.338 -1.4916  0.0640 -1.7910
   65ccc     H2 1634   6.179   1.471  -2.324 -0.0658 -0.3827 -0.2258
   65ccc     C2 1635   6.131   1.667  -2.411  0.0427  0.1806  0.5312
   65ccc     H3 1636   6.204   1.684  -2.491 -0.6410  0.0054 -0.1472
   65ccc     H4 1637   6.037   1.707  -2.451 -0.1479 -1.3220 -0.6412
   65ccc     C3 1638   6.178   1.732  -2.282  0.0364  0.1874  1.0330
   65ccc     H5 1639   6.106   1.714  -2.201 -0.0072  2.2872  1.5192
   65ccc     H6 1640   6.185   1.840  -2.296 -1.1282  0.3507  1.6178
   65ccc     N1 1641   6.104   1.432  -2.518 -0.3671 -0.1574 -0.0853
   65ccc     H7 1642   6.199   1.439  -2.558  0.1479  0.6644  1.2507
   65ccc     H8 1643   6.096   1.333  -2.489  0.1692  0.1008  0.9540
   65ccc     O1 1644   6.303   1.669  -2.237  0.3734 -0.2563 -0.7303
   65ccc    H17 1645   6.031   1.452  -2.589 -1.0526 -2.9352 -0.2807
   66ccc     C1 1646   7.030   1.185  -2.516  0.1266 -0.1225 -0.2369
   66ccc     H1 1647   6.947   1.199  -2.585  0.1461 -0.1972 -0.2748
   66ccc     H2 1648   7.030   1.078  -2.496  0.3691  0.0408  0.7106
   66ccc     C2 1649   7.009   1.244  -2.374  0.2278  0.5186 -0.3937
   66ccc     H3 1650   7.082   1.203  -2.302 -1.2053  0.5949  1.1747
   66ccc     H4 1651   7.026   1.353  -2.376  1.8210  0.3090  0.1828
   66ccc     C3 1652   6.868   1.217  -2.305 -0.4145  0.0291  0.4041
   66ccc     H5 1653   6.889   1.228  -2.198 -0.8203  3.2562  0.2461
   66ccc     H6 1654   6.837   1.116  -2.335 -2.2032  1.5614 -3.5279
   66ccc     N1 1655   7.164   1.209  -2.582 -0.1639 -0.2742  0.2992
   66ccc     H7 1656   7.178   1.159  -2.671 -0.8736 -0.3865  0.2468
   66ccc     H8 1657   7.159   1.309  -2.609 -1.9586 -0.4094  0.0158
   66ccc     O1 1658   6.774   1.317  -2.352  0.0820  0.2624  0.3573
   66ccc    H17 1659   7.246   1.189  -2.523 -1.6424 -0.0197  2.5881
   67ccc     C1 1660   8.023   3.064   0.414 -0.6056 -0.7455 -0.0218
   67ccc     H1 1661   7.959   3.150   0.397  0.9582  0.7480  1.2431
   67ccc     H2 1662   8.127   3.094   0.432 -0.8391 -1.2004  2.4108
   67ccc     C2 1663   8.017   2.971   0.296  0.1813  0.2530 -0.0139
   67ccc     H3 1664   8.084   2.889   0.321 -1.2883 -0.9307  0.2078
   67ccc     H4 1665   7.914   2.932   0.296 -0.0801  0.8874  1.0094
   67ccc     C3 1666   8.058   3.033   0.161 -0.1371  0.2090 -0.0372
   67ccc     H5 1667   8.148   3.094   0.179  0.5563 -0.6289 -0.5511
   67ccc     H6 1668   7.986   3.101   0.113  2.3157  1.9875 -1.4476
   67ccc     N1 1669   7.984   3.002   0.544  0.3150 -0.1280 -0.3228
   67ccc     H7 1670   7.894   2.952   0.547 -0.0581  0.5354  2.0186
   67ccc     H8 1671   8.062   2.940   0.571  1.2774  0.5916 -1.3329
   67ccc     O1 1672   8.083   2.928   0.064  0.0710  0.2947 -0.5271
   67ccc    H17 1673   7.970   3.073   0.617 -1.2592 -0.9148  0.2004
   68ccc     C1 1674   7.895   3.029  -0.877  0.2881 -0.6893  0.2104
   68ccc     H1 1675   7.835   3.010  -0.788  0.7653 -1.2747  0.4165
   68ccc     H2 1676   7.871   2.962  -0.960 -3.6055  0.6345  0.0606
   68ccc     C2 1677   8.045   3.019  -0.856 -0.8815 -0.2667  0.7737
   68ccc     H3 1678   8.092   3.044  -0.952 -3.3486  0.5503 -0.2925
   68ccc     H4 1679   8.088   3.089  -0.782 -3.4165  1.0219  1.1360
   68ccc     C3 1680   8.087   2.873  -0.833 -0.2402  0.3341 -0.7308
   68ccc     H5 1681   8.196   2.880  -0.827 -0.2954  1.1113 -0.5438
   68ccc     H6 1682   8.045   2.808  -0.911  0.1184  0.4366 -1.0105
   68ccc     N1 1683   7.854   3.160  -0.940  0.5951 -0.4936 -0.2939
   68ccc     H7 1684   7.765   3.186  -0.896  1.9031  0.7212  1.8643
   68ccc     H8 1685   7.916   3.241  -0.923  0.4491 -0.7528  1.8040
   68ccc     O1 1686   8.040   2.846  -0.698 -0.0823 -0.4382  0.1798
   68ccc    H17 1687   7.842   3.155  -1.042 -1.6122 -2.2015 -0.0100
   69ccc     C1 1688   8.066   2.336  -1.947 -0.0895 -0.4089  0.7146
   69ccc     H1 1689   8.146   2.381  -1.888 -1.7157 -0.8154  3.3896
   69ccc     H2 1690   7.969   2.374  -1.915 -0.9843 -0.0160 -2.1459
   69ccc     C2 1691   8.068   2.187  -1.923 -0.0321 -0.1693  0.0454
   69ccc     H3 1692   7.963   2.153  -1.926  0.0458 -0.4961  0.7716
   69ccc     H4 1693   8.127   2.127  -1.993 -0.2041 -0.9899  0.5852
   69ccc     C3 1694   8.122   2.145  -1.780  0.1127 -0.3617  0.1919
   69ccc     H5 1695   8.214   2.201  -1.763 -0.4333  0.0468  1.9508
   69ccc     H6 1696   8.135   2.036  -1.783 -1.9856 -0.6419 -0.2619
   69ccc     N1 1697   8.083   2.381  -2.087  0.3778 -0.6255  0.7298
   69ccc     H7 1698   8.048   2.312  -2.155  3.8571 -0.9969 -0.9449
   69ccc     H8 1699   8.025   2.466  -2.099 -0.5983 -1.1527  1.5853
   69ccc     O1 1700   8.020   2.177  -1.684 -0.0751 -0.3625  0.4977
   69ccc    H17 1701   8.184   2.385  -2.108  0.8001 -0.8409  2.5522
   70ccc     C1 1702   7.642   1.685  -1.865 -0.1637 -0.2291 -0.3794
   70ccc     H1 1703   7.737   1.636  -1.844 -0.7645 -1.3111 -0.1337
   70ccc     H2 1704   7.648   1.790  -1.837  0.4410 -0.1976 -0.5992
   70ccc     C2 1705   7.541   1.603  -1.781  0.9875 -0.0140 -0.6966
   70ccc     H3 1706   7.506   1.513  -1.831 -0.9312 -1.0594  2.2389
   70ccc     H4 1707   7.589   1.559  -1.692 -2.0787  0.0915  1.1352
   70ccc     C3 1708   7.434   1.684  -1.715 -0.0452  0.5177 -0.3140
   70ccc     H5 1709   7.376   1.627  -1.641  0.0255  1.3882  0.4483
   70ccc     H6 1710   7.366   1.723  -1.792  1.9100  0.9409 -1.9029
   70ccc     N1 1711   7.620   1.681  -2.016 -0.1547  1.2023 -1.2509
   70ccc     H7 1712   7.634   1.585  -2.050  2.5995  0.5104  1.4293
   70ccc     H8 1713   7.525   1.713  -2.039 -0.1325  0.4563 -2.4693
   70ccc     O1 1714   7.497   1.796  -1.648 -0.2057  0.5511 -0.6362
   70ccc    H17 1715   7.693   1.740  -2.060  0.6826  1.1854  0.0589
   71ccc     C1 1716   4.268   1.891  -1.451 -0.5478 -0.6764  0.5027
   71ccc     H1 1717   4.307   1.933  -1.544 -2.0546  0.9942  0.5563
   71ccc     H2 1718   4.245   1.972  -1.381  1.0081  0.6351 -0.4314
   71ccc     C2 1719   4.373   1.801  -1.395 -0.1577  0.0916  0.6431
   71ccc     H3 1720   4.329   1.732  -1.322 -0.9064 -0.6550 -0.4843
   71ccc     H4 1721   4.402   1.733  -1.476 -1.7702 -2.9786  2.4984
   71ccc     C3 1722   4.487   1.874  -1.332  0.6120  0.2268  0.7041
   71ccc     H5 1723   4.448   1.957  -1.272 -0.7696  0.3894 -0.3651
   71ccc     H6 1724   4.549   1.917  -1.412 -0.3822 -0.2010 -0.3351
   71ccc     N1 1725   4.141   1.820  -1.487 -0.3570 -0.0218  0.4028
   71ccc     H7 1726   4.161   1.750  -1.560 -0.3993  1.2595 -0.8985
   71ccc     H8 1727   4.093   1.778  -1.406 -0.0144 -0.4998  0.3603
   71ccc     O1 1728   4.559   1.777  -1.250  0.4173  0.3645 -0.2994
   71ccc    H17 1729   4.074   1.885  -1.532  0.0442 -1.5942 -2.7308
   72ccc     C1 1730   5.203   1.239  -1.870 -0.0972 -0.1502  1.0923
   72ccc     H1 1731   5.299   1.191  -1.846  0.4855  0.9979  1.1278
   72ccc     H2 1732   5.216   1.312  -1.950 -2.1281 -1.2210 -0.2733
   72ccc     C2 1733   5.148   1.315  -1.748  0.4296 -0.3119  0.3584
   72ccc     H3 1734   5.047   1.352  -1.773  0.5440  0.6579  1.2520
   72ccc     H4 1735   5.135   1.244  -1.666 -0.0567  1.2354  1.6777
   72ccc     C3 1736   5.239   1.432  -1.698 -0.3224 -0.1444 -0.1189
   72ccc     H5 1737   5.251   1.505  -1.780 -1.1154 -0.8938 -0.9205
   72ccc     H6 1738   5.334   1.382  -1.677 -0.1717 -0.9517 -2.3952
   72ccc     N1 1739   5.108   1.140  -1.933 -0.0853 -0.7199 -0.2749
   72ccc     H7 1740   5.085   1.052  -1.884 -3.1991 -1.3176 -2.4753
   72ccc     H8 1741   5.017   1.182  -1.958  0.9237  0.6878 -1.8886
   72ccc     O1 1742   5.185   1.489  -1.576 -0.0746 -0.4168 -0.6225
   72ccc    H17 1743   5.155   1.108  -2.019 -1.1215  0.1362 -1.1994
   73ccc     C1 1744   4.465   1.250   0.100 -0.2606 -0.0994  0.2601
   73ccc     H1 1745   4.479   1.349   0.144  0.9378  0.3754 -1.1204
   73ccc     H2 1746   4.562   1.201   0.113  0.8111  1.9989  0.5863
   73ccc     C2 1747   4.446   1.263  -0.048 -0.2643 -0.5934  0.2885
   73ccc     H3 1748   4.447   1.160  -0.085 -0.3918 -0.6427  0.4243
   73ccc     H4 1749   4.349   1.310  -0.069  0.1427  1.1776  1.9876
   73ccc     C3 1750   4.565   1.327  -0.115 -0.4933  0.0151  0.5459
   73ccc     H5 1751   4.576   1.311  -0.223 -1.5073  0.0258  0.4248
   73ccc     H6 1752   4.652   1.286  -0.063 -2.0541 -0.8615  2.6532
   73ccc     N1 1753   4.345   1.183   0.164 -0.4952  0.0777  0.0917
   73ccc     H7 1754   4.393   1.121   0.231 -0.0425  0.0911 -0.2204
   73ccc     H8 1755   4.272   1.244   0.204 -1.5064 -0.0909 -1.3828
   73ccc     O1 1756   4.556   1.468  -0.094  0.0483 -0.2656  0.0199
   73ccc    H17 1757   4.299   1.126   0.091 -1.3823  0.0283  0.6708
   74ccc     C1 1758   4.136   2.473   0.102 -0.3446  0.2797  0.1939
   74ccc     H1 1759   4.134   2.434   0.001  2.4258 -0.3093  0.2988
   74ccc     H2 1760   4.229   2.529   0.115 -0.9191  2.2286 -3.0742
   74ccc     C2 1761   4.149   2.349   0.195  1.1637 -0.0339  0.5449
   74ccc     H3 1762   4.150   2.383   0.299  2.0936  0.8610  0.2607
   74ccc     H4 1763   4.061   2.283   0.194  0.9205  0.2878  0.5972
   74ccc     C3 1764   4.279   2.278   0.164  0.5775  0.4087 -0.4234
   74ccc     H5 1765   4.304   2.189   0.223  0.6015  0.1726 -0.7911
   74ccc     H6 1766   4.358   2.351   0.188  1.2980 -0.5864  0.2809
   74ccc     N1 1767   4.017   2.571   0.130 -0.9161 -0.6125  0.2704
   74ccc     H7 1768   4.014   2.603   0.227 -1.4680  0.2343 -0.0180
   74ccc     H8 1769   4.035   2.653   0.071 -2.1696 -0.7383 -0.3255
   74ccc     O1 1770   4.283   2.231   0.027  0.2327  0.5276  0.0757
   74ccc    H17 1771   3.927   2.539   0.091 -1.7434  2.4318 -0.5223
   75ccc     C1 1772   5.085   3.725  -0.878  0.1672  0.0021  1.1117
   75ccc     H1 1773   5.160   3.764  -0.809  1.3601  0.3959 -0.3488
   75ccc     H2 1774   4.987   3.757  -0.843 -0.0035 -0.8344  1.4147
   75ccc     C2 1775   5.086   3.572  -0.909  0.2900  0.5950  0.1828
   75ccc     H3 1776   5.016   3.544  -0.988  0.0623 -0.1267  0.6284
   75ccc     H4 1777   5.188   3.555  -0.948 -0.4023 -0.2847 -1.3301
   75ccc     C3 1778   5.077   3.491  -0.780 -0.1811  0.2698  0.3898
   75ccc     H5 1779   4.989   3.527  -0.725 -2.6160 -1.6859 -1.9615
   75ccc     H6 1780   5.160   3.519  -0.713  1.7714  2.3709 -2.6370
   75ccc     N1 1781   5.114   3.815  -1.005  0.8477 -0.2228 -0.8051
   75ccc     H7 1782   5.026   3.830  -1.057  1.3392  1.2872 -1.2575
   75ccc     H8 1783   5.150   3.908  -0.980 -2.1159  0.1517  2.8960
   75ccc     O1 1784   5.060   3.355  -0.817 -0.6118  0.6383 -0.1424
   75ccc    H17 1785   5.177   3.768  -1.071 -1.6621 -2.6265 -1.6591
   76ccc     C1 1786   4.302   3.162  -1.198  0.9767  0.1153 -0.0498
   76ccc     H1 1787   4.352   3.185  -1.104 -1.1535 -1.6263  1.6147
   76ccc     H2 1788   4.212   3.222  -1.204  0.8549  0.0520  1.0061
   76ccc     C2 1789   4.249   3.015  -1.199  0.7650  0.1746  0.2618
   76ccc     H3 1790   4.187   3.005  -1.109 -1.0357  0.0705 -0.9381
   76ccc     H4 1791   4.183   2.993  -1.284  0.9974 -1.7725  0.5411
   76ccc     C3 1792   4.364   2.905  -1.207 -0.1874  0.1459  0.0790
   76ccc     H5 1793   4.432   2.925  -1.291  0.4129 -1.8557  0.0259
   76ccc     H6 1794   4.322   2.805  -1.222 -1.6478  1.0120 -2.1260
   76ccc     N1 1795   4.393   3.195  -1.312 -0.2011 -0.5777 -0.2839
   76ccc     H7 1796   4.356   3.176  -1.406  0.1270 -3.3761  0.0620
   76ccc     H8 1797   4.418   3.294  -1.299  1.5070 -0.7806 -1.7169
   76ccc     O1 1798   4.443   2.916  -1.086  0.3054 -0.1900 -0.8312
   76ccc    H17 1799   4.479   3.138  -1.304  0.1396  0.1052  1.1844
   77ccc     C1 1800   4.073   2.377   0.845 -0.4472 -0.2028 -0.0972
   77ccc     H1 1801   4.091   2.274   0.813  0.6455 -0.3178  0.8127
   77ccc     H2 1802   4.008   2.443   0.788 -0.0592  0.5216  0.2940
   77ccc     C2 1803   4.214   2.438   0.852 -0.3176 -1.2246 -0.1419
   77ccc     H3 1804   4.191   2.525   0.914 -1.9512 -3.3890  2.5089
   77ccc     H4 1805   4.284   2.370   0.903  1.2139 -0.7742 -1.5555
   77ccc     C3 1806   4.258   2.486   0.718 -0.2279 -0.0204  0.5510
   77ccc     H5 1807   4.182   2.553   0.677  0.5955  1.1784  0.9137
   77ccc     H6 1808   4.268   2.397   0.654 -0.7075  1.0977 -1.1522
   77ccc     N1 1809   4.015   2.366   0.988 -0.0790 -0.0679  0.5796
   77ccc     H7 1810   3.986   2.455   1.031 -1.1066 -0.0686 -0.0988
   77ccc     H8 1811   3.929   2.311   0.982 -1.5746  2.2751 -2.9087
   77ccc     O1 1812   4.381   2.560   0.732 -0.1881 -0.6254  0.4615
   77ccc    H17 1813   4.084   2.322   1.050 -0.3295 -0.2795  0.7076
   78ccc     C1 1814   4.385   3.479   0.373  0.2016 -0.6158  0.0725
   78ccc     H1 1815   4.360   3.385   0.423 -1.7434 -0.5022 -0.6070
   78ccc     H2 1816   4.449   3.445   0.291 -0.3350  0.4657 -0.8150
   78ccc     C2 1817   4.475   3.558   0.466 -0.4037  0.8610  0.2892
   78ccc     H3 1818   4.499   3.655   0.422  2.4967 -0.3692 -1.0353
   78ccc     H4 1819   4.420   3.579   0.559  0.3274  0.5892  0.7931
   78ccc     C3 1820   4.604   3.482   0.497 -0.4495  0.2360 -0.0236
   78ccc     H5 1821   4.645   3.539   0.580 -0.1490 -2.5840  1.9164
   78ccc     H6 1822   4.668   3.496   0.409 -0.0169  2.6191  0.6163
   78ccc     N1 1823   4.261   3.556   0.316  0.2547 -0.8084 -0.6444
   78ccc     H7 1824   4.222   3.498   0.240  0.0555 -2.1306  0.4422
   78ccc     H8 1825   4.190   3.576   0.387  0.9375  0.0864 -0.2003
   78ccc     O1 1826   4.579   3.350   0.546  0.4801  0.3306  0.3537
   78ccc    H17 1827   4.288   3.648   0.278  2.1546 -0.4422  1.4091
   79ccc     C1 1828   8.566   4.145   0.152 -0.2758 -0.3821  0.9247
   79ccc     H1 1829   8.470   4.170   0.106 -0.2641  0.9014  1.5523
   79ccc     H2 1830   8.543   4.082   0.238 -0.6350 -0.8222  0.5138
   79ccc     C2 1831   8.609   4.283   0.195  0.8305  0.0762  0.2893
   79ccc     H3 1832   8.704   4.274   0.248  2.2785 -0.2903 -2.2414
   79ccc     H4 1833   8.643   4.338   0.107  3.3357 -1.8221 -0.0267
   79ccc     C3 1834   8.489   4.342   0.279 -0.2790 -0.0607 -0.3013
   79ccc     H5 1835   8.510   4.444   0.313 -1.4106 -0.2867  1.1477
   79ccc     H6 1836   8.465   4.266   0.354 -0.4890 -0.6548 -0.9623
   79ccc     N1 1837   8.645   4.074   0.048  0.6143 -0.0117  0.5888
   79ccc     H7 1838   8.595   3.992   0.013  0.1767  0.7093 -0.5336
   79ccc     H8 1839   8.656   4.134  -0.035 -1.7594  0.0109  0.2285
   79ccc     O1 1840   8.373   4.347   0.190 -0.2706  0.1673 -0.5430
   79ccc    H17 1841   8.739   4.044   0.080  0.3961 -1.2231  0.1370
   80ccc     C1 1842   7.988   4.712  -0.567 -0.0717  0.4820 -0.1016
   80ccc     H1 1843   8.083   4.766  -0.577  0.2108 -0.0601 -0.4183
   80ccc     H2 1844   7.976   4.680  -0.463  1.5583  2.2006  0.6594
   80ccc     C2 1845   7.991   4.578  -0.650  0.3617  0.5082 -0.1317
   80ccc     H3 1846   7.901   4.520  -0.624  0.5217  0.5189  0.4821
   80ccc     H4 1847   7.984   4.604  -0.756  0.8393 -1.6477 -0.7431
   80ccc     C3 1848   8.122   4.500  -0.619 -0.0177  0.0262  0.3983
   80ccc     H5 1849   8.207   4.566  -0.636  2.1356 -2.5759  0.3914
   80ccc     H6 1850   8.130   4.413  -0.686  1.5085  0.6900 -0.3263
   80ccc     N1 1851   7.879   4.807  -0.592 -0.0228  0.9156  0.5129
   80ccc     H7 1852   7.874   4.883  -0.523 -1.4848  0.0162  1.4611
   80ccc     H8 1853   7.896   4.845  -0.686 -1.2202 -1.9105 -0.9700
   80ccc     O1 1854   8.103   4.451  -0.487 -0.0547 -0.7724  0.1620
   80ccc    H17 1855   7.790   4.756  -0.585  1.2376 -1.6322 -0.7610
   81ccc     C1 1856   7.824   4.309   1.087  0.0882  0.1533 -0.9009
   81ccc     H1 1857   7.789   4.237   1.012  1.6311  0.9760 -2.4990
   81ccc     H2 1858   7.927   4.277   1.100 -0.3702 -1.6376 -1.3645
   81ccc     C2 1859   7.725   4.312   1.207 -0.8609 -0.3073 -0.6101
   81ccc     H3 1860   7.774   4.385   1.273 -3.0337  1.6560 -1.0324
   81ccc     H4 1861   7.626   4.351   1.183 -1.2405  0.1687  1.5231
   81ccc     C3 1862   7.719   4.174   1.277  0.3795  0.4105  0.6426
   81ccc     H5 1863   7.661   4.183   1.370  0.4856 -1.2163  0.8891
   81ccc     H6 1864   7.820   4.131   1.285 -0.3233 -1.5322 -0.2218
   81ccc     N1 1865   7.823   4.439   1.011  0.1028 -0.2715 -0.4157
   81ccc     H7 1866   7.856   4.517   1.069  0.8713 -0.6652 -0.3030
   81ccc     H8 1867   7.890   4.445   0.933  1.1215  0.6788  0.4931
   81ccc     O1 1868   7.643   4.094   1.184  0.0809 -0.3427  0.1234
   81ccc    H17 1869   7.729   4.460   0.976  0.3238  1.0280 -0.2687
   82ccc     C1 1870   7.859   3.418   0.396 -0.1844 -0.3214 -0.4182
   82ccc     H1 1871   7.905   3.405   0.494  0.2351 -1.1741 -0.7189
   82ccc     H2 1872   7.889   3.334   0.334 -0.9192 -1.2001  0.3881
   82ccc     C2 1873   7.896   3.552   0.333  0.0118  0.1945 -0.4022
   82ccc     H3 1874   7.984   3.541   0.269 -0.9373  2.1432 -2.1464
   82ccc     H4 1875   7.816   3.585   0.266 -0.1928 -2.3243 -1.4956
   82ccc     C3 1876   7.942   3.656   0.436 -0.3060  0.1285  0.6637
   82ccc     H5 1877   7.973   3.743   0.376 -0.0542 -0.7244 -0.4704
   82ccc     H6 1878   8.036   3.621   0.480  0.4135 -0.4514 -1.2538
   82ccc     N1 1879   7.717   3.400   0.419 -0.9263 -0.0805  0.2126
   82ccc     H7 1880   7.694   3.302   0.441 -2.2016 -0.0826 -1.0256
   82ccc     H8 1881   7.680   3.455   0.498  0.1025  0.1809  0.5252
   82ccc     O1 1882   7.842   3.685   0.534 -0.6062  0.3552 -0.2174
   82ccc    H17 1883   7.658   3.433   0.342 -0.7033  1.1795  0.5569
   83ccc     C1 1884   5.492   5.282  -0.912 -0.3038  0.4217 -0.1834
   83ccc     H1 1885   5.599   5.305  -0.912 -0.4964  1.3418  0.2345
   83ccc     H2 1886   5.448   5.333  -0.826  0.0025 -0.7841  0.7273
   83ccc     C2 1887   5.484   5.130  -0.907  0.6330  1.0657 -0.3041
   83ccc     H3 1888   5.377   5.103  -0.902  0.8213  0.4051  0.4157
   83ccc     H4 1889   5.531   5.089  -0.997 -2.2340  0.5421 -1.6919
   83ccc     C3 1890   5.537   5.070  -0.775 -0.3666 -0.0209 -0.1929
   83ccc     H5 1891   5.519   4.962  -0.786 -1.1742  0.3766 -4.7967
   83ccc     H6 1892   5.488   5.106  -0.684  0.8703 -1.0920  0.9505
   83ccc     N1 1893   5.443   5.340  -1.042 -0.0704  0.4890 -0.0761
   83ccc     H7 1894   5.341   5.326  -1.050 -0.2585  0.2769  1.9843
   83ccc     H8 1895   5.452   5.442  -1.054 -3.3053  0.8952  0.0089
   83ccc     O1 1896   5.685   5.097  -0.765  0.5423 -0.6243  0.7521
   83ccc    H17 1897   5.486   5.284  -1.117  0.3636 -0.2182  0.6836
   84ccc     C1 1898   5.819   4.240  -0.715 -0.7293  0.1391  0.6229
   84ccc     H1 1899   5.884   4.303  -0.654  0.6039 -1.2306  0.6702
   84ccc     H2 1900   5.864   4.233  -0.814  0.9870  0.5951  1.3385
   84ccc     C2 1901   5.681   4.310  -0.723  0.5946 -0.1980 -0.4555
   84ccc     H3 1902   5.704   4.401  -0.781  1.7501 -1.1814 -1.6056
   84ccc     H4 1903   5.611   4.253  -0.785 -0.5412 -0.8867  1.3830
   84ccc     C3 1904   5.626   4.353  -0.580  0.0945 -0.8063  0.4203
   84ccc     H5 1905   5.598   4.261  -0.527 -1.9665 -0.5884 -0.2235
   84ccc     H6 1906   5.542   4.423  -0.586  0.9447  0.6079  3.0914
   84ccc     N1 1907   5.827   4.111  -0.639 -0.0216 -0.5014  0.0136
   84ccc     H7 1908   5.928   4.093  -0.629  0.3552  1.8657  1.1961
   84ccc     H8 1909   5.782   4.103  -0.546 -0.3411 -4.0503 -0.2857
   84ccc     O1 1910   5.727   4.435  -0.513  0.7213  0.3809 -0.0107
   84ccc    H17 1911   5.782   4.032  -0.688  1.1891 -1.4065  0.3136
   85ccc     C1 1912   7.480   5.534  -0.633  0.5262  0.4064 -0.4139
   85ccc     H1 1913   7.514   5.431  -0.645  0.7412  0.2286  1.4285
   85ccc     H2 1914   7.405   5.523  -0.554  2.9324 -1.4720  1.7798
   85ccc     C2 1915   7.411   5.582  -0.760  0.1482  0.4177 -0.2573
   85ccc     H3 1916   7.367   5.680  -0.740  1.5738  0.5699  2.6016
   85ccc     H4 1917   7.493   5.577  -0.833  0.5475 -2.9690  0.2854
   85ccc     C3 1918   7.301   5.480  -0.799 -0.4110  0.3410 -0.9036
   85ccc     H5 1919   7.340   5.389  -0.845 -0.9848 -0.0411 -0.6588
   85ccc     H6 1920   7.239   5.527  -0.876 -1.0428 -0.3799 -0.8492
   85ccc     N1 1921   7.598   5.606  -0.576 -0.0897  0.1702 -0.4664
   85ccc     H7 1922   7.577   5.705  -0.558 -0.3037 -0.1459  1.1403
   85ccc     H8 1923   7.632   5.566  -0.488 -1.0653  0.1689 -0.0875
   85ccc     O1 1924   7.225   5.440  -0.676 -0.1357 -0.4520 -0.4520
   85ccc    H17 1925   7.680   5.609  -0.639  0.2252  0.2082 -0.0527
   86ccc     C1 1926   6.873   5.799  -0.047  0.3295 -0.1994 -0.3684
   86ccc     H1 1927   6.860   5.891  -0.104 -0.3888 -0.1257 -0.0925
   86ccc     H2 1928   6.941   5.727  -0.093  0.2881 -0.7944  0.4755
   86ccc     C2 1929   6.742   5.731  -0.036 -0.2583 -0.1286 -0.1070
   86ccc     H3 1930   6.686   5.777   0.047 -0.2889  0.6968 -0.5772
   86ccc     H4 1931   6.684   5.735  -0.128 -1.5977 -1.6396  0.6208
   86ccc     C3 1932   6.748   5.586   0.004  0.4298  0.8269  0.2645
   86ccc     H5 1933   6.652   5.543   0.036  1.6143 -0.7788  1.8843
   86ccc     H6 1934   6.820   5.566   0.085  0.9690 -0.8653 -0.5876
   86ccc     N1 1935   6.937   5.817   0.093  0.5767  0.1078 -0.0342
   86ccc     H7 1936   7.018   5.881   0.085 -0.2646  0.9654 -2.3765
   86ccc     H8 1937   6.867   5.859   0.156  0.1655  0.0847 -0.4757
   86ccc     O1 1938   6.803   5.515  -0.115  0.2590 -0.2969 -0.5844
   86ccc    H17 1939   6.961   5.724   0.130 -0.4791  0.4913  1.7097
   87ccc     C1 1940   8.036   4.960   1.900 -0.2759  0.2971 -0.2875
   87ccc     H1 1941   7.978   4.908   1.823 -0.7176  0.9368 -0.3951
   87ccc     H2 1942   8.090   4.896   1.970 -3.3521 -1.6875  0.5081
   87ccc     C2 1943   7.946   5.046   1.984  0.6968  0.1307  0.0981
   87ccc     H3 1944   8.008   5.079   2.068 -0.2406  0.7384  0.5712
   87ccc     H4 1945   7.908   5.142   1.947 -0.4834  0.0299  1.0160
   87ccc     C3 1946   7.825   4.969   2.044 -0.1641 -0.4657  0.1515
   87ccc     H5 1947   7.754   5.043   2.083 -0.9607  0.3881 -2.7079
   87ccc     H6 1948   7.861   4.908   2.128  1.0592 -0.1907 -0.1532
   87ccc     N1 1949   8.139   5.033   1.825  0.0510  0.1633  0.0120
   87ccc     H7 1950   8.205   5.064   1.898  0.0750  1.0112 -0.3540
   87ccc     H8 1951   8.186   4.972   1.757  1.9428  1.6583 -0.1021
   87ccc     O1 1952   7.770   4.877   1.947 -0.0547  0.2898 -0.4038
   87ccc    H17 1953   8.108   5.114   1.768  1.5109 -0.6242 -1.9985
   88ccc     C1 1954   7.647   4.307   1.883  1.0481  0.5851 -0.4518
   88ccc     H1 1955   7.740   4.310   1.941  0.6582  2.6857  0.1700
   88ccc     H2 1956   7.606   4.208   1.867  0.9610 -0.0886  3.1926
   88ccc     C2 1957   7.673   4.371   1.751  0.8674  0.2337  0.2620
   88ccc     H3 1958   7.681   4.479   1.768  1.0355  0.2060  0.3601
   88ccc     H4 1959   7.768   4.332   1.713  0.2560  1.9722 -3.5682
   88ccc     C3 1960   7.565   4.334   1.653 -0.1711 -0.2223  0.2015
   88ccc     H5 1961   7.468   4.336   1.704 -0.6041 -1.9925 -0.4847
   88ccc     H6 1962   7.584   4.231   1.620  2.0144  0.3628 -0.5644
   88ccc     N1 1963   7.534   4.370   1.957  0.4519 -0.2324 -0.2869
   88ccc     H7 1964   7.504   4.318   2.041  3.0489 -1.1438  0.1613
   88ccc     H8 1965   7.563   4.463   1.992  1.6173  0.2006 -2.2930
   88ccc     O1 1966   7.578   4.428   1.544  0.0107  0.0072  0.1458
   88ccc    H17 1967   7.453   4.382   1.894 -0.7706  0.8024  1.3879
   89ccc     C1 1968   7.414   5.894   1.624 -0.1866  0.7515 -0.0245
   89ccc     H1 1969   7.317   5.944   1.622 -0.4168  0.3095 -0.1483
   89ccc     H2 1970   7.428   5.840   1.530  0.6609 -0.8158  0.9537
   89ccc     C2 1971   7.442   5.796   1.734  0.8444  0.5190 -0.0452
   89ccc     H3 1972   7.547   5.765   1.736  0.9503  0.9128  0.6717
   89ccc     H4 1973   7.427   5.835   1.835  0.3967  2.0053 -0.6506
   89ccc     C3 1974   7.358   5.671   1.713 -0.6940 -0.2186  0.6636
   89ccc     H5 1975   7.376   5.605   1.798 -1.0738 -0.6169  0.4405
   89ccc     H6 1976   7.386   5.628   1.616 -1.5285 -0.5871  0.5724
   89ccc     N1 1977   7.509   6.007   1.627 -0.5740 -0.2596 -0.2300
   89ccc     H7 1978   7.496   6.075   1.550 -1.6211  1.1062  1.0723
   89ccc     H8 1979   7.513   6.054   1.719 -4.1242 -1.9585  0.9722
   89ccc     O1 1980   7.219   5.703   1.724 -0.2671  0.4608 -0.3865
   89ccc    H17 1981   7.600   5.962   1.611 -0.5549 -0.7451  1.0599
   90ccc     C1 1982   6.285   5.609   1.408 -0.2270 -0.0972 -0.4304
   90ccc     H1 1983   6.214   5.650   1.480 -1.1102 -0.0544 -1.2936
   90ccc     H2 1984   6.343   5.526   1.449  0.9540  1.5256  1.3802
   90ccc     C2 1985   6.374   5.724   1.363 -0.4669  0.3309 -0.2306
   90ccc     H3 1986   6.443   5.684   1.288 -1.1725  2.0249 -1.8782
   90ccc     H4 1987   6.315   5.797   1.307 -0.3873  0.1846 -0.5050
   90ccc     C3 1988   6.438   5.806   1.475 -0.0725 -0.8625 -0.0236
   90ccc     H5 1989   6.359   5.863   1.524  0.6087 -0.8844  1.1390
   90ccc     H6 1990   6.516   5.875   1.440  1.2093 -1.9544  0.5912
   90ccc     N1 1991   6.186   5.562   1.303  0.4294 -0.1752 -0.3792
   90ccc     H7 1992   6.124   5.489   1.342  0.3975 -0.6485 -1.2886
   90ccc     H8 1993   6.121   5.639   1.283 -0.9951 -0.9663  0.9597
   90ccc     O1 1994   6.501   5.726   1.576 -0.3719 -0.4821  0.1364
   90ccc    H17 1995   6.221   5.539   1.208 -2.4801 -0.6889 -1.4337
   91ccc     C1 1996   4.501   4.811   2.095 -0.2082 -0.0841  0.2345
   91ccc     H1 1997   4.602   4.793   2.056 -0.0793  0.8578  0.1249
   91ccc     H2 1998   4.437   4.781   2.012  0.7203 -0.5398 -0.3373
   91ccc     C2 1999   4.491   4.960   2.127 -0.7071  0.4420 -0.2021
   91ccc     H3 2000   4.388   4.983   2.156 -1.0935 -0.7670 -0.5606
   91ccc     H4 2001   4.559   4.993   2.207 -0.6648 -1.7366  0.7105
   91ccc     C3 2002   4.513   5.046   1.999  0.4451  0.3236  0.6855
   91ccc     H5 2003   4.518   5.150   2.034 -0.1886  0.2551  0.9732
   91ccc     H6 2004   4.429   5.035   1.930 -0.0589  2.3324  0.9199
   91ccc     N1 2005   4.485   4.714   2.209 -0.0695  0.4006 -0.0514
   91ccc     H7 2006   4.534   4.732   2.298  1.5660  0.0773 -0.8505
   91ccc     H8 2007   4.384   4.700   2.224 -0.1774  1.7613  0.7098
   91ccc     O1 2008   4.636   4.999   1.939  0.2397 -0.0932  0.0665
   91ccc    H17 2009   4.539   4.631   2.182  0.8876  0.4875  1.4507
   92ccc     C1 2010   5.321   4.095   1.580 -0.3415  0.2159  0.0232
   92ccc     H1 2011   5.320   4.061   1.684  3.2214 -2.6026 -0.6601
   92ccc     H2 2012   5.369   4.193   1.587  2.7321 -1.2437  1.2118
   92ccc     C2 2013   5.174   4.099   1.523 -0.3053  0.1157 -0.3957
   92ccc     H3 2014   5.178   4.139   1.421  0.3329  1.2473  0.0629
   92ccc     H4 2015   5.143   3.994   1.515 -1.0338  0.4730 -3.5514
   92ccc     C3 2016   5.076   4.175   1.610  0.3017  0.4694 -0.2105
   92ccc     H5 2017   5.095   4.152   1.716 -1.0226  3.2008  0.7035
   92ccc     H6 2018   4.970   4.148   1.598  0.0122  1.7408 -0.5732
   92ccc     N1 2019   5.416   4.005   1.505 -0.1407 -0.4465  0.4272
   92ccc     H7 2020   5.512   4.011   1.544 -0.2069  1.6442  0.3844
   92ccc     H8 2021   5.386   3.907   1.496 -1.7430  0.2020 -2.7641
   92ccc     O1 2022   5.095   4.315   1.595  0.3012 -0.5906 -0.1813
   92ccc    H17 2023   5.434   4.036   1.408  0.5384 -1.5221  0.1902
   93ccc     C1 2024   4.801   5.764   0.820  0.1283 -1.0616  0.1176
   93ccc     H1 2025   4.736   5.708   0.753 -2.5656  0.3433  1.4029
   93ccc     H2 2026   4.900   5.758   0.774 -0.4484 -0.0493 -1.3054
   93ccc     C2 2027   4.789   5.708   0.963  0.2293  0.2608 -0.3659
   93ccc     H3 2028   4.684   5.718   0.993 -1.1009  1.0465 -4.6495
   93ccc     H4 2029   4.805   5.599   0.959  2.6798  0.5387  0.1412
   93ccc     C3 2030   4.883   5.768   1.066 -0.3660  0.0782  0.0008
   93ccc     H5 2031   4.873   5.711   1.159  1.0244  1.6998  1.2100
   93ccc     H6 2032   4.860   5.873   1.086  2.1055  0.9305 -1.1597
   93ccc     N1 2033   4.739   5.907   0.803 -0.0734 -0.3521 -0.0397
   93ccc     H7 2034   4.780   5.980   0.863  2.0770 -0.4097 -1.3240
   93ccc     H8 2035   4.751   5.945   0.708 -1.2052  0.0806 -0.0216
   93ccc     O1 2036   5.013   5.753   1.025 -0.1685 -0.0509 -0.1700
   93ccc    H17 2037   4.638   5.909   0.821 -0.1871  0.1526 -0.7027
   94ccc     C1 2038   5.694   5.919   0.365  0.6220  0.6975 -0.3631
   94ccc     H1 2039   5.767   5.840   0.383  0.1696  0.3160 -0.1845
   94ccc     H2 2040   5.749   6.013   0.371 -0.6341  1.3960  0.6517
   94ccc     C2 2041   5.579   5.903   0.457  0.0060 -0.4939 -0.1779
   94ccc     H3 2042   5.498   5.977   0.447  1.5546  1.4083  0.7936
   94ccc     H4 2043   5.527   5.806   0.448 -0.8261 -0.1120  0.4172
   94ccc     C3 2044   5.624   5.922   0.599 -0.5888  0.5459 -0.1406
   94ccc     H5 2045   5.536   5.952   0.656 -2.3147 -2.2401 -1.1186
   94ccc     H6 2046   5.707   5.994   0.602 -0.9439  1.0504 -1.5538
   94ccc     N1 2047   5.655   5.913   0.219 -0.4214  0.0575 -0.0664
   94ccc     H7 2048   5.741   5.919   0.163  1.0245  2.5137  2.1459
   94ccc     H8 2049   5.594   5.834   0.193 -1.5068  0.8401 -0.0092
   94ccc     O1 2050   5.653   5.796   0.659 -0.5300 -0.5584  0.8644
   94ccc    H17 2051   5.596   5.996   0.203  0.5143  0.9302  0.8653
   95SOL     OW 2052   3.001   2.636   5.379 -0.4271  0.0974 -0.0222
   95SOL    HW1 2053   2.921   2.688   5.372  1.5576  3.5239  0.2706
   95SOL    HW2 2054   3.038   2.637   5.291  0.7041  1.1421  0.4425
   96SOL     OW 2055   0.589   2.917   0.913 -0.3607 -0.5712  0.3048
   96SOL    HW1 2056   0.526   2.988   0.903  1.5916  1.6441  2.2532
   96SOL    HW2 2057   0.599   2.907   1.008  0.6898 -2.2921  0.0630
   97SOL     OW 2058   6.791   6.230   7.784 -0.3090  0.5575  0.9866
   97SOL    HW1 2059   6.885   6.236   7.771 -0.3372 -1.4858 -0.6716
   97SOL    HW2 2060   6.780   6.175   7.862 -0.1287  1.0530  1.3595
   98SOL     OW 2061   7.251   6.237   0.720  0.4416  0.6113 -0.2769
   98SOL    HW1 2062   7.335   6.283   0.727 -0.6111  2.7014 -0.6136
   98SOL    HW2 2063   7.262   6.178   0.646  1.8912  0.1894  0.2463
   99SOL     OW 2064   8.213   6.140   2.786 -0.4579  0.2934  0.1351
   99SOL    HW1 2065   8.187   6.134   2.878  1.4003 -0.3829  0.6599
   99SOL    HW2 2066   8.194   6.053   2.751  0.8294 -0.1414  0.4700
  100SOL     OW 2067   4.173   8.545   7.009 -0.4683  0.7118 -0.3118
  100SOL    HW1 2068   4.266   8.543   6.985 -0.4662 -0.4283 -0.2526
  100SOL    HW2 2069   4.128   8.502   6.937 -1.0519  1.8947 -0.6776
  101SOL     OW 2070   3.819   0.799   9.541 -0.4814  0.0106  0.0142
  101SOL    HW1 2071   3.867   0.723   9.508  1.7312  2.2902 -2.5309
  101SOL    HW2 2072   3.734   0.793   9.497  0.0587 -0.4779 -1.0128
  102SOL     OW 2073   4.934   6.152   6.541 -0.0595 -0.1280 -0.2760
  102SOL    HW1 2074   4.874   6.138   6.614  0.9517 -0.1817  0.5637
  102SOL    HW2 2075   4.914   6.081   6.480 -0.5529 -0.3973  0.1879
  103SOL     OW 2076   3.164   8.669   4.381  0.2794 -0.0728  0.5321
  103SOL    HW1 2077   3.150   8.707   4.468  1.3029  1.5213  0.0593
  103SOL    HW2 2078   3.256   8.689   4.361 -0.0397 -0.0362 -1.0667
  104SOL     OW 2079   8.675   9.523   6.764  0.1403  0.1688 -0.1469
  104SOL    HW1 2080   8.689   9.571   6.846  2.2673  1.7101 -1.3189
  104SOL    HW2 2081   8.650   9.435   6.792 -2.2807  1.4153  2.1171
  105SOL     OW 2082   4.936   9.075   9.414  0.4071 -0.4851 -0.3569
  105SOL    HW1 2083   4.913   9.036   9.329 -0.0298 -0.2179 -0.3636
  105SOL    HW2 2084   4.957   9.001   9.470 -0.6167 -0.7502 -0.3093
  106SOL     OW 2085   5.117   9.147   1.390 -0.5486  0.3718  0.4006
  106SOL    HW1 2086   5.117   9.216   1.456  0.1187  0.2301  0.5598
  106SOL    HW2 2087   5.209   9.120   1.384 -0.8889 -1.0101  0.8868
  107SOL     OW 2088   4.857   6.271   4.659 -0.2877 -0.2803 -0.6857
  107SOL    HW1 2089   4.919   6.344   4.652 -1.5800  0.9674  0.5013
  107SOL    HW2 2090   4.834   6.267   4.752 -1.6793 -0.9877 -1.0352
  108SOL     OW 2091   4.876   9.591   3.642  0.0324 -0.1791  0.5516
  108SOL    HW1 2092   4.833   9.546   3.570 -1.2393  1.6613  0.0979
  108SOL    HW2 2093   4.832   9.557   3.721 -0.6844  0.0086  0.2415
  109SOL     OW 2094   6.965   3.118   9.751  0.0452  0.0270  0.7480
  109SOL    HW1 2095   6.901   3.179   9.788  0.6702  2.1643 -1.4356
  109SOL    HW2 2096   7.037   3.117   9.815  1.0523  3.5241 -0.1127
  110SOL     OW 2097   8.442   1.193   8.005 -0.0286 -0.5948  0.2209
  110SOL    HW1 2098   8.517   1.227   8.052 -0.3096  0.5804 -0.1541
  110SOL    HW2 2099   8.381   1.267   7.998 -1.6541 -1.7589  1.3434
  111SOL     OW 2100   7.781   3.234   0.131  0.0578 -0.3640  0.1873
  111SOL    HW1 2101   7.734   3.186   0.198  0.0345 -1.1645 -0.3837
  111SOL    HW2 2102   7.713   3.265   0.071  0.1390 -0.3171  0.1185
  112SOL     OW 2103   6.085   9.085   0.923 -0.5797 -0.2083 -0.0222
  112SOL    HW1 2104   6.142   9.100   0.848 -0.5915 -2.0290 -0.4574
  112SOL    HW2 2105   6.093   8.991   0.940 -2.0032 -0.1595  1.0906
  113SOL     OW 2106   5.272   9.628   6.933  0.5944 -0.3253 -0.0774
  113SOL    HW1 2107   5.273   9.722   6.914  0.2006 -0.4504 -0.7381
  113SOL    HW2 2108   5.180   9.603   6.926  0.8467 -1.0025 -1.1585
  114SOL     OW 2109   9.777   5.721   1.842 -0.3142  0.5573 -0.0150
  114SOL    HW1 2110   9.839   5.794   1.848  1.6520 -0.9287 -0.7476
  114SOL    HW2 2111   9.780   5.695   1.750 -0.3670 -0.9008  0.3644
  115SOL     OW 2112   6.627   4.284   9.363 -0.6681  0.2956  0.2489
  115SOL    HW1 2113   6.708   4.286   9.415 -0.5195  0.6314  0.0005
  115SOL    HW2 2114   6.603   4.191   9.362  0.4590 -0.0164 -0.8209
  116SOL     OW 2115   8.557   0.138   2.505 -0.1211  0.1800  0.2153
  116SOL    HW1 2116   8.647   0.108   2.514  0.3374  1.8605  1.8335
  116SOL    HW2 2117   8.544   0.198   2.579 -1.5397  2.3935 -1.6705
  117SOL     OW 2118   4.922   3.992   4.496  0.6387 -0.1442  0.2375
  117SOL    HW1 2119   4.958   3.932   4.430  0.0674  0.1965 -0.4021
  117SOL    HW2 2120   4.998   4.020   4.547  1.2272  0.2609 -0.8375
  118SOL     OW 2121   7.456   6.793   0.318  0.1559 -0.1518 -0.0036
  118SOL    HW1 2122   7.394   6.809   0.248  0.7704  0.6777 -0.3756
  118SOL    HW2 2123   7.518   6.730   0.281  1.8816  2.0732 -1.1193
  119SOL     OW 2124   8.956   1.955   2.005  0.0692  0.2579  0.2053
  119SOL    HW1 2125   8.904   1.959   2.085  0.7385  1.2281  0.6092
  119SOL    HW2 2126   9.022   1.888   2.023  0.0778  0.3120  0.3766
  120SOL     OW 2127   5.482   7.932   5.161 -0.0403  0.2718 -0.0119
  120SOL    HW1 2128   5.538   7.921   5.238 -0.3643 -0.6029  0.1096
  120SOL    HW2 2129   5.464   8.026   5.158  0.1127  0.3393  0.8867
  121SOL     OW 2130   0.705   2.682   6.295  0.0297  0.1153 -0.4168
  121SOL    HW1 2131   0.627   2.737   6.295  0.0482  0.1416 -0.2287
  121SOL    HW2 2132   0.689   2.619   6.365  0.9244  1.1782  0.7925
  122SOL     OW 2133   4.042   7.517   4.780 -0.1375  0.4733 -0.1373
  122SOL    HW1 2134   4.105   7.451   4.807  0.7532  1.6536  0.8101
  122SOL    HW2 2135   3.971   7.510   4.844 -0.2131  0.1878 -0.2540
  123SOL     OW 2136   4.820   8.069   6.316 -0.4909  0.1255  0.4412
  123SOL    HW1 2137   4.811   8.154   6.275 -3.1528 -0.2248  0.0647
  123SOL    HW2 2138   4.788   8.007   6.250  3.0261 -1.4636  0.0179
  124SOL     OW 2139   9.464   3.330   2.155 -0.8050 -0.1656 -0.5400
  124SOL    HW1 2140   9.532   3.370   2.210 -0.4192 -1.9115  0.3179
  124SOL    HW2 2141   9.404   3.289   2.217 -0.0637 -2.6686 -1.3693
  125SOL     OW 2142   2.736   5.610   7.805  0.5254  0.2961 -0.1579
  125SOL    HW1 2143   2.754   5.548   7.734  0.7509 -1.0671  1.0353
  125SOL    HW2 2144   2.821   5.649   7.824  0.4226  0.8393 -0.7711
  126SOL     OW 2145   9.130   1.498   8.533  0.3402  0.6293  0.2100
  126SOL    HW1 2146   9.193   1.501   8.604  0.4928  1.0562  0.0599
  126SOL    HW2 2147   9.181   1.522   8.455  0.1909  0.0981 -0.0534
  127SOL     OW 2148   7.088   3.749   7.176  0.1547  0.5857  0.4223
  127SOL    HW1 2149   7.154   3.796   7.126 -0.5458  1.8231  0.6112
  127SOL    HW2 2150   7.051   3.815   7.235 -1.6892  0.1103 -0.1293
  128SOL     OW 2151   7.997   7.838   2.084 -0.2632  0.9424 -0.1583
  128SOL    HW1 2152   7.935   7.910   2.084 -1.0624  0.2817 -1.3884
  128SOL    HW2 2153   8.017   7.824   2.177 -3.1606  0.1486  0.4409
  129SOL     OW 2154   2.392   5.000   4.571 -0.1423 -0.3176 -0.3042
  129SOL    HW1 2155   2.317   5.039   4.526  1.0599  0.6430 -1.5941
  129SOL    HW2 2156   2.392   5.041   4.657 -0.1808  0.9266 -0.8719
  130SOL     OW 2157   7.715   6.443   2.860 -0.6954 -0.1681 -0.2039
  130SOL    HW1 2158   7.783   6.427   2.925 -2.6335  1.2419  2.3844
  130SOL    HW2 2159   7.657   6.367   2.866 -0.7219 -0.1752 -0.5242
  131SOL     OW 2160   8.002   1.947   8.721  0.2094  0.7788  0.3394
  131SOL    HW1 2161   8.045   1.897   8.791  0.7145  0.3308 -0.2767
  131SOL    HW2 2162   7.933   1.888   8.689  1.0401  0.3144 -0.6326
  132SOL     OW 2163   2.975   6.843   3.967  0.6975 -0.5023 -0.0442
  132SOL    HW1 2164   3.053   6.805   3.927  1.7655  1.8747 -0.4019
  132SOL    HW2 2165   2.937   6.772   4.018  2.7427 -1.9128 -0.3684
  133SOL     OW 2166   8.381   4.044   4.623  0.7217 -0.2981  0.8993
  133SOL    HW1 2167   8.441   3.973   4.645 -0.5591 -1.0174  2.1508
  133SOL    HW2 2168   8.365   4.034   4.529  0.4975 -1.7205  1.0742
  134SOL     OW 2169   8.260   2.134   6.158 -0.1101 -0.2413  0.0639
  134SOL    HW1 2170   8.206   2.169   6.229  0.7763  2.1046 -0.3286
  134SOL    HW2 2171   8.197   2.095   6.097 -1.1854  0.6445  0.5665
  135SOL     OW 2172   9.838   7.113   5.019 -0.0379 -0.2070  0.2125
  135SOL    HW1 2173   9.875   7.026   5.003  0.6335 -0.4823  2.7455
  135SOL    HW2 2174   9.746   7.105   4.996  0.5089 -0.7671 -2.1067
  136SOL     OW 2175   9.667   4.202   0.045 -0.6751 -0.0226  1.1243
  136SOL    HW1 2176   9.690   4.294   0.057 -0.4856  0.1703 -0.4332
  136SOL    HW2 2177   9.714   4.176  -0.034 -2.6381 -0.7452  0.1211
  137SOL     OW 2178   3.771   5.306   2.275  0.4070  0.0282  0.5919
  137SOL    HW1 2179   3.822   5.379   2.312  0.7464  0.0407  0.1149
  137SOL    HW2 2180   3.698   5.294   2.336 -0.1424  1.3367  0.2139
  138SOL     OW 2181   5.051   2.094   2.231  0.6467 -0.4201  0.5319
  138SOL    HW1 2182   5.073   2.150   2.305 -0.1991 -0.3586  0.7510
  138SOL    HW2 2183   5.017   2.014   2.271  0.0032 -0.3093  0.2187
  139SOL     OW 2184   9.501   1.155   4.524 -0.6336 -0.5800 -0.0932
  139SOL    HW1 2185   9.446   1.189   4.454 -0.6939 -3.3188 -1.5524
  139SOL    HW2 2186   9.443   1.098   4.575 -0.2171  0.1612  1.2433
  140SOL     OW 2187   1.759   9.095   6.978 -0.1408 -0.1800 -0.4379
  140SOL    HW1 2188   1.753   9.005   7.008 -0.4199  0.2501  0.8472
  140SOL    HW2 2189   1.791   9.144   7.054 -3.4836  1.4098  0.1610
  141SOL     OW 2190   6.829   9.254   4.204  0.0003  0.1808 -0.3184
  141SOL    HW1 2191   6.914   9.234   4.164 -0.1828  0.2305 -0.7415
  141SOL    HW2 2192   6.801   9.172   4.245 -0.2051 -0.1119 -1.0333
  142SOL     OW 2193   4.484   8.825   3.630 -0.2613  0.0914  0.2556
  142SOL    HW1 2194   4.564   8.773   3.622  1.0482  2.0440 -0.1426
  142SOL    HW2 2195   4.413   8.761   3.630  1.1541 -1.6180 -1.6855
  143SOL     OW 2196   6.336   0.410   7.930  0.2110 -0.0482 -0.6288
  143SOL    HW1 2197   6.391   0.332   7.923  0.7226  0.3951 -1.8753
  143SOL    HW2 2198   6.307   0.427   7.840 -0.9904  0.4333 -0.1703
  144SOL     OW 2199   5.732   8.502   4.497 -0.2649 -0.6649 -0.1766
  144SOL    HW1 2200   5.744   8.455   4.415  1.5840 -0.2846 -0.1683
  144SOL    HW2 2201   5.752   8.593   4.477 -0.3743 -0.4665  0.5581
  145SOL     OW 2202   2.316   3.813   0.290  0.4114 -0.3323  0.2111
  145SOL    HW1 2203   2.238   3.825   0.343  0.3637  0.2968  0.0112
  145SOL    HW2 2204   2.359   3.735   0.326 -1.6556 -2.3181 -1.3391
  146SOL     OW 2205   7.336   9.338   7.042  0.1701  0.2012  0.0640
  146SOL    HW1 2206   7.318   9.308   6.953  1.6193 -0.1476 -0.1319
  146SOL    HW2 2207   7.252   9.327   7.088 -1.1705  2.2282 -1.6959
  147SOL     OW 2208   3.272   3.783   2.287 -0.0479 -0.3959  0.5922
  147SOL    HW1 2209   3.328   3.837   2.342  0.1604  0.5312 -0.4968
  147SOL    HW2 2210   3.184   3.818   2.300  0.2432  1.1049 -1.0617
  148SOL     OW 2211   7.421   2.756   1.923 -0.4410 -0.4483  0.0480
  148SOL    HW1 2212   7.347   2.708   1.884  0.0684 -0.9167 -0.3669
  148SOL    HW2 2213   7.491   2.748   1.858  0.9796 -2.6227  1.6630
  149SOL     OW 2214   6.102   1.892   8.403 -0.8321 -0.3883  0.6101
  149SOL    HW1 2215   6.196   1.880   8.394 -0.7509  0.1246  0.7663
  149SOL    HW2 2216   6.070   1.894   8.313 -0.5580  0.4586  0.5207
  150SOL     OW 2217   8.546   2.114   9.732  1.3496  0.4236  0.5521
  150SOL    HW1 2218   8.641   2.105   9.738  1.1515 -2.3853  1.0606
  150SOL    HW2 2219   8.529   2.126   9.638  2.1516 -0.3543  0.2925
  151SOL     OW 2220   9.162   4.826   7.562 -0.7698  0.3577  0.0347
  151SOL    HW1 2221   9.129   4.909   7.528 -0.9125  0.6944  0.9826
  151SOL    HW2 2222   9.248   4.815   7.521 -0.5702  1.1754  0.2338
  152SOL     OW 2223   8.061   3.038   6.871  0.3749  0.0929  0.0871
  152SOL    HW1 2224   8.023   2.960   6.830  1.9727 -1.2056  0.9963
  152SOL    HW2 2225   7.988   3.078   6.918 -0.2473 -1.4226  0.4640
  153SOL     OW 2226   1.864   2.686   9.355 -0.0747  0.2201 -0.8732
  153SOL    HW1 2227   1.823   2.616   9.303  1.4174 -1.3515 -0.0352
  153SOL    HW2 2228   1.945   2.705   9.309  0.8739 -0.6143  0.4042
  154SOL     OW 2229   7.246   9.498   9.055  0.1430 -0.0995  0.1885
  154SOL    HW1 2230   7.241   9.580   9.007 -0.0941  1.0269  2.0205
  154SOL    HW2 2231   7.334   9.465   9.038  0.5014  0.9280  0.0020
  155SOL     OW 2232   3.750   7.304   3.088 -0.7652  0.2620  0.8663
  155SOL    HW1 2233   3.739   7.342   3.176 -1.8953  2.2760 -0.0742
  155SOL    HW2 2234   3.809   7.365   3.043  1.6487 -1.9094  0.8080
  156SOL     OW 2235   7.126   1.074   4.329  0.6527  0.2128  0.1158
  156SOL    HW1 2236   7.057   1.009   4.342  0.0690  0.9491  0.8762
  156SOL    HW2 2237   7.087   1.156   4.361  1.3633  0.9323 -0.8261
  157SOL     OW 2238   2.613   9.089   4.525  0.5498 -0.0104  0.0419
  157SOL    HW1 2239   2.521   9.081   4.552  0.6186  0.0226  0.2863
  157SOL    HW2 2240   2.608   9.115   4.433  0.3186 -1.0900 -0.2679
  158SOL     OW 2241   4.993   8.881   7.346 -0.4007 -0.2524  0.5278
  158SOL    HW1 2242   4.899   8.900   7.340 -0.4843 -0.9250 -0.5713
  158SOL    HW2 2243   5.030   8.923   7.268  0.0397 -0.9238  0.3694
  159SOL     OW 2244   5.317   0.981   4.870  0.7763  0.6089  0.4287
  159SOL    HW1 2245   5.290   1.060   4.823  2.4548  0.6460 -0.5410
  159SOL    HW2 2246   5.321   0.913   4.802 -0.9127 -0.4258  1.2914
  160SOL     OW 2247   3.980   1.541   0.566 -0.1262  1.0441 -0.0312
  160SOL    HW1 2248   3.961   1.501   0.651 -0.1236  1.5661  0.2187
  160SOL    HW2 2249   4.060   1.499   0.537  0.6447  1.8392  0.8716
  161SOL     OW 2250   6.449   4.862   4.913  0.2613 -0.2176 -0.1089
  161SOL    HW1 2251   6.441   4.781   4.962  0.5976  1.0061  2.0983
  161SOL    HW2 2252   6.534   4.897   4.937 -1.5445  2.8863  2.5519
  162SOL     OW 2253   0.719   7.536   9.378 -0.6072 -0.3274  0.3564
  162SOL    HW1 2254   0.681   7.463   9.328  1.2231 -1.9740  1.2417
  162SOL    HW2 2255   0.696   7.518   9.469  0.1668 -0.0136  0.6245
  163SOL     OW 2256   4.644   7.424   2.416 -0.2586 -0.5368  0.2647
  163SOL    HW1 2257   4.666   7.479   2.491  1.9222 -1.7391  0.6099
  163SOL    HW2 2258   4.667   7.335   2.445 -0.5026 -1.1778 -1.4154
  164SOL     OW 2259   7.224   3.821   8.845  0.2533  0.2958  0.3590
  164SOL    HW1 2260   7.211   3.888   8.912  0.2911  0.2520  0.4098
  164SOL    HW2 2261   7.165   3.750   8.870  0.3834  0.2131  0.4355
  165SOL     OW 2262   0.007   3.798   2.806 -0.0438  0.4285  0.4464
  165SOL    HW1 2263   0.022   3.873   2.748  0.7103 -0.6271 -0.7801
  165SOL    HW2 2264   0.004   3.836   2.894  1.6959  1.7563 -0.0045
  166SOL     OW 2265   9.008   4.479   1.131  0.6531 -0.3018  0.0596
  166SOL    HW1 2266   9.013   4.574   1.140  2.0766 -0.4523  1.1579
  166SOL    HW2 2267   9.094   4.454   1.097  0.1011 -1.1495 -0.7376
  167SOL     OW 2268   8.607   5.243   0.714  0.0708 -0.1893  0.1744
  167SOL    HW1 2269   8.612   5.323   0.767 -0.6297 -0.9603  1.4713
  167SOL    HW2 2270   8.688   5.242   0.664  1.3901 -0.0306  2.1769
  168SOL     OW 2271   5.715   2.497   5.186  0.2573 -0.0721  0.4392
  168SOL    HW1 2272   5.766   2.497   5.105 -0.6493 -3.4809 -0.2864
  168SOL    HW2 2273   5.779   2.514   5.255  2.3910 -3.2487 -0.5194
  169SOL     OW 2274   3.628   2.252   1.487  0.1209  0.4050  0.2767
  169SOL    HW1 2275   3.667   2.223   1.569  1.6313  0.1058 -0.5126
  169SOL    HW2 2276   3.622   2.173   1.434 -3.0543  0.1175  0.8724
  170SOL     OW 2277   5.040   2.369   7.722 -0.7271 -0.2037 -0.0043
  170SOL    HW1 2278   4.967   2.312   7.697 -1.0881 -1.3999  3.2365
  170SOL    HW2 2279   5.116   2.311   7.722 -0.3220  0.3265 -0.5788
  171SOL     OW 2280   4.386   1.312   4.747 -0.3332  0.7247  0.1162
  171SOL    HW1 2281   4.307   1.365   4.743  0.6818  2.2753 -1.7002
  171SOL    HW2 2282   4.430   1.340   4.827 -1.9110 -0.7278  1.5750
  172SOL     OW 2283   8.630   1.026   6.221  0.1118  0.1517 -0.2438
  172SOL    HW1 2284   8.536   1.042   6.209  0.3366  0.7275 -1.4331
  172SOL    HW2 2285   8.640   0.932   6.211 -0.2251  0.1991 -1.0771
  173SOL     OW 2286   1.861   1.134   3.275  0.0395  0.3025  0.2942
  173SOL    HW1 2287   1.831   1.048   3.304  1.0597  0.0930  0.7580
  173SOL    HW2 2288   1.887   1.179   3.355 -2.8577  2.0525  0.4074
  174SOL     OW 2289   0.982   6.032   4.834  0.0398  0.1887 -0.2848
  174SOL    HW1 2290   1.004   6.056   4.924 -0.8746  1.9655 -0.4995
  174SOL    HW2 2291   1.064   6.044   4.786  0.7893 -1.6578  0.4070
  175SOL     OW 2292   4.168   5.642   5.693 -0.3256  0.3376 -0.1197
  175SOL    HW1 2293   4.178   5.565   5.638 -0.3457 -0.0329  0.3846
  175SOL    HW2 2294   4.080   5.633   5.731  0.4486 -0.4858  1.5678
  176SOL     OW 2295   0.417   7.710   4.141  0.2979 -0.5198 -0.7380
  176SOL    HW1 2296   0.506   7.734   4.166  0.1767 -0.7191 -0.0870
  176SOL    HW2 2297   0.420   7.616   4.128 -0.3398 -0.9653  1.7509
  177SOL     OW 2298   7.260   5.887   0.581  0.0437  0.4790 -0.3180
  177SOL    HW1 2299   7.346   5.910   0.547  0.2027  1.1948  0.5178
  177SOL    HW2 2300   7.266   5.793   0.602  0.8631  0.6812  0.3951
  178SOL     OW 2301   6.234   9.577   9.388 -0.2511  0.1219 -0.2179
  178SOL    HW1 2302   6.302   9.511   9.377 -0.4096  0.0928 -1.0793
  178SOL    HW2 2303   6.219   9.611   9.300 -3.0964 -1.6341 -0.5742
  179SOL     OW 2304   2.617   0.336   2.347 -0.3175  0.0550  0.6171
  179SOL    HW1 2305   2.626   0.294   2.433  0.7883 -2.3796 -0.6084
  179SOL    HW2 2306   2.637   0.267   2.284  0.1141  2.0692 -1.5906
  180SOL     OW 2307   2.439   7.046   2.296 -0.1422 -0.2332  0.2853
  180SOL    HW1 2308   2.354   7.035   2.339 -1.0697 -0.5620 -1.5143
  180SOL    HW2 2309   2.474   6.957   2.288 -2.2654 -0.9603 -3.8499
  181SOL     OW 2310   3.323   7.591   5.787 -0.8149 -0.2552  0.2841
  181SOL    HW1 2311   3.391   7.629   5.842 -1.7240  1.6911  0.1460
  181SOL    HW2 2312   3.350   7.614   5.697 -1.5072  0.2931  0.2139
  182SOL     OW 2313   9.739   8.341   7.963 -0.5318 -0.0846 -0.4427
  182SOL    HW1 2314   9.807   8.399   7.928  0.0361 -0.9652 -0.8254
  182SOL    HW2 2315   9.743   8.354   8.058  1.1428 -1.1353 -0.3227
  183SOL     OW 2316   7.500   0.925   2.043  0.0389 -0.1833 -0.1695
  183SOL    HW1 2317   7.541   0.988   1.983 -0.0480  0.1913  0.1567
  183SOL    HW2 2318   7.555   0.927   2.121  0.1270 -0.6390 -0.2194
  184SOL     OW 2319   5.651   0.253   3.223 -0.1366 -0.6080 -0.2688
  184SOL    HW1 2320   5.675   0.308   3.297 -0.0371 -1.0565  0.0418
  184SOL    HW2 2321   5.733   0.231   3.180 -0.2969  0.6978 -1.2892
  185SOL     OW 2322   7.620   9.757   5.382  0.2415 -0.1430 -0.1472
  185SOL    HW1 2323   7.578   9.697   5.444 -0.1421 -1.1249 -1.3217
  185SOL    HW2 2324   7.697   9.789   5.428 -0.2638 -0.5232  0.9961
  186SOL     OW 2325   9.105   5.587   3.645  0.3264 -0.0232 -0.5288
  186SOL    HW1 2326   9.191   5.573   3.685 -0.4054 -0.1817  1.0667
  186SOL    HW2 2327   9.078   5.673   3.677 -0.9248 -0.7916  0.5745
  187SOL     OW 2328   9.787   3.742   3.573 -0.2843  0.0504  0.1516
  187SOL    HW1 2329   9.799   3.835   3.554 -1.4412  0.0994 -0.4511
  187SOL    HW2 2330   9.694   3.726   3.554  0.0321 -1.3454 -0.2936
  188SOL     OW 2331   9.539   4.616   3.309  0.1766  0.0645  0.1243
  188SOL    HW1 2332   9.583   4.701   3.316  0.6808 -0.2585  1.0344
  188SOL    HW2 2333   9.583   4.573   3.237 -1.9475  1.6233 -2.2906
  189SOL     OW 2334   9.673   2.331   7.536  0.4055  0.1790  0.3727
  189SOL    HW1 2335   9.602   2.376   7.492  1.5143  1.2448 -0.3903
  189SOL    HW2 2336   9.688   2.252   7.483  1.1777  1.0328 -0.7342
  190SOL     OW 2337   4.829   1.272   1.928 -0.1061  0.4763  0.0462
  190SOL    HW1 2338   4.783   1.189   1.921 -1.8009  1.2977  0.7800
  190SOL    HW2 2339   4.820   1.312   1.842  1.1792 -0.2859 -0.4748
  191SOL     OW 2340   1.948   6.772   8.828 -0.0456 -0.1120 -0.5821
  191SOL    HW1 2341   1.933   6.707   8.896  2.6640 -0.3660 -0.0850
  191SOL    HW2 2342   1.877   6.835   8.838 -0.7581 -1.1209  1.2533
  192SOL     OW 2343   6.654   2.968   1.734 -0.1702  0.1593 -0.1302
  192SOL    HW1 2344   6.568   2.964   1.692 -0.8880 -0.0474  1.3021
  192SOL    HW2 2345   6.675   3.062   1.736  0.4347  0.0973 -1.9845
  193SOL     OW 2346   1.170   7.084   9.510 -0.1508 -0.3432 -0.6763
  193SOL    HW1 2347   1.103   7.150   9.494  0.3128  0.4717  0.5771
  193SOL    HW2 2348   1.122   7.008   9.544 -0.6595 -0.6000 -1.9063
  194SOL     OW 2349   6.166   8.315   8.883  0.4772 -0.1841  0.3148
  194SOL    HW1 2350   6.180   8.228   8.919 -0.1615 -0.9230 -1.1395
  194SOL    HW2 2351   6.113   8.360   8.949 -0.7342 -1.5180  0.3063
  195SOL     OW 2352   4.568   9.287   1.119  0.5453 -0.1639  0.1939
  195SOL    HW1 2353   4.528   9.372   1.100  0.2105 -0.1945  0.7278
  195SOL    HW2 2354   4.493   9.228   1.130  0.7673 -0.4408  0.2186
  196SOL     OW 2355   6.566   1.132   5.366 -0.3306  0.1408  0.6856
  196SOL    HW1 2356   6.585   1.209   5.419 -1.9426 -0.1009  1.6632
  196SOL    HW2 2357   6.490   1.155   5.314 -0.6657 -0.6844  0.7834
  197SOL     OW 2358   7.640   7.369   8.191  0.2766 -0.3586  0.2021
  197SOL    HW1 2359   7.681   7.325   8.265  0.5755 -1.4203 -0.5780
  197SOL    HW2 2360   7.556   7.401   8.225  0.6034 -0.4587  1.1064
  198SOL     OW 2361   5.184   1.912   2.968 -0.3613  0.5845  0.0933
  198SOL    HW1 2362   5.228   1.993   2.942 -0.1965  0.0358 -1.4232
  198SOL    HW2 2363   5.091   1.930   2.954 -0.2353  0.1040 -1.5111
  199SOL     OW 2364   1.553   0.642   4.442  0.2852 -0.2633  0.0139
  199SOL    HW1 2365   1.512   0.567   4.399 -0.6443 -0.4871  1.2334
  199SOL    HW2 2366   1.481   0.700   4.464  0.5458 -0.7191  2.3215
  200SOL     OW 2367   0.023   7.764   3.966  0.1474 -0.0206 -0.3284
  200SOL    HW1 2368  -0.014   7.832   3.910  1.3301 -0.1023 -1.2529
  200SOL    HW2 2369   0.086   7.810   4.021  2.6939 -0.5932 -2.5419
  201SOL     OW 2370   3.655   0.495   0.111 -0.0577 -0.1336  0.5718
  201SOL    HW1 2371   3.588   0.441   0.153 -0.0246 -0.5210  0.1340
  201SOL    HW2 2372   3.664   0.459   0.023  2.0178 -1.2834  1.1833
  202SOL     OW 2373   6.302   0.214   5.554 -0.5079 -0.2810  0.4037
  202SOL    HW1 2374   6.308   0.303   5.587  0.1529  0.1370 -0.7606
  202SOL    HW2 2375   6.280   0.225   5.461  1.6371 -1.2127 -0.2848
  203SOL     OW 2376   7.753   2.904   0.852  0.6848  0.1467 -0.3645
  203SOL    HW1 2377   7.718   2.815   0.850 -0.3530  0.5439 -2.1525
  203SOL    HW2 2378   7.820   2.902   0.920  0.3192 -1.8508 -0.0003
  204SOL     OW 2379   1.416   3.479   5.775  0.6024 -0.0498 -0.2833
  204SOL    HW1 2380   1.445   3.453   5.688  0.1325 -1.4602 -0.0344
  204SOL    HW2 2381   1.480   3.546   5.802  1.5881 -0.6129 -1.1344
  205SOL     OW 2382   6.681   4.367   6.024  0.3512  0.0263 -0.2567
  205SOL    HW1 2383   6.676   4.372   5.928 -0.2236 -0.7953 -0.2781
  205SOL    HW2 2384   6.592   4.385   6.053  0.3428 -0.5524  0.0805
  206SOL     OW 2385   8.652   7.459   2.813 -0.1306 -0.4351 -0.5134
  206SOL    HW1 2386   8.604   7.502   2.742  0.4839 -1.0135 -1.3027
  206SOL    HW2 2387   8.665   7.369   2.783  0.7995 -0.4857 -0.0005
  207SOL     OW 2388   3.018   4.419   2.003  0.2744 -0.7036 -0.2251
  207SOL    HW1 2389   2.949   4.469   1.958 -0.8681  0.2218  2.3288
  207SOL    HW2 2390   3.045   4.353   1.940 -0.6556  0.9369 -2.4984
  208SOL     OW 2391   8.244   1.547   4.431 -0.4331  0.0651  0.5477
  208SOL    HW1 2392   8.313   1.541   4.497 -0.2428  0.1538  0.3586
  208SOL    HW2 2393   8.184   1.476   4.452 -0.3805  0.1003  0.8236
  209SOL     OW 2394   2.100   7.874   6.669  0.1922 -0.1302  0.4579
  209SOL    HW1 2395   2.178   7.840   6.712  0.1972  0.4296  0.9071
  209SOL    HW2 2396   2.127   7.958   6.632 -0.3275  0.3330  1.0929
  210SOL     OW 2397   8.279   6.277   8.917  0.3988  0.0449  0.3128
  210SOL    HW1 2398   8.336   6.325   8.855 -0.4400  1.5411  0.6480
  210SOL    HW2 2399   8.262   6.194   8.874  2.0977 -0.0711 -0.2100
  211SOL     OW 2400   2.672   6.394   5.796 -0.2507  0.3549  0.3767
  211SOL    HW1 2401   2.701   6.439   5.717 -0.5293 -1.3666 -0.7750
  211SOL    HW2 2402   2.738   6.327   5.812 -1.2516 -0.6825  0.3403
  212SOL     OW 2403   8.930   9.794   0.935  0.0461 -0.1590  0.4955
  212SOL    HW1 2404   8.845   9.750   0.926  0.7340 -1.5429  0.4630
  212SOL    HW2 2405   8.952   9.822   0.847  0.3690 -1.2840  0.2016
  213SOL     OW 2406   6.513   4.659   0.335 -0.1286 -0.1020 -0.1175
  213SOL    HW1 2407   6.507   4.724   0.405  1.6207 -0.1277  0.0961
  213SOL    HW2 2408   6.482   4.578   0.375  0.0725  0.0569  0.3685
  214SOL     OW 2409   3.201   3.927   0.280  0.4631  0.6533  0.1508
  214SOL    HW1 2410   3.147   3.848   0.278  0.3187  0.7239  0.8715
  214SOL    HW2 2411   3.253   3.923   0.200 -0.0967  0.2189 -0.1983
  215SOL     OW 2412   2.509   7.782   5.214 -0.0498 -0.0155 -0.1638
  215SOL    HW1 2413   2.463   7.832   5.281  0.1218 -0.2055  0.1011
  215SOL    HW2 2414   2.536   7.701   5.259  1.7998  0.7014  0.1032
  216SOL     OW 2415   6.463   5.005   8.759 -0.1998  0.5345  0.1946
  216SOL    HW1 2416   6.507   5.029   8.840 -1.6583  0.4871  1.0280
  216SOL    HW2 2417   6.436   4.914   8.770 -1.7778  0.9758  0.3390
  217SOL     OW 2418   2.559   0.038   5.561  0.1954 -0.0442 -0.5465
  217SOL    HW1 2419   2.544  -0.050   5.594  0.4945 -0.0076 -0.3128
  217SOL    HW2 2420   2.511   0.041   5.478 -2.5149  0.6047  0.9266
  218SOL     OW 2421   8.735   8.825   3.810  0.5134  0.1223  0.1743
  218SOL    HW1 2422   8.783   8.907   3.818  1.5624 -0.3676 -0.8938
  218SOL    HW2 2423   8.689   8.832   3.726 -0.2027  0.0170  0.5483
  219SOL     OW 2424   5.163   0.008   5.894 -0.3092 -0.0618  0.0221
  219SOL    HW1 2425   5.126  -0.051   5.828  2.0277 -0.5637 -0.9293
  219SOL    HW2 2426   5.226   0.061   5.846  0.5184  0.4648  1.6299
  220SOL     OW 2427   1.983   1.041   7.548 -0.8259 -0.4771 -0.4718
  220SOL    HW1 2428   2.015   1.126   7.581  1.4547 -1.5393  0.3290
  220SOL    HW2 2429   2.046   1.017   7.480 -2.9595 -0.3782 -2.5796
  221SOL     OW 2430   9.362   1.491   2.919 -0.1791  0.1998 -0.2421
  221SOL    HW1 2431   9.267   1.496   2.915 -0.1523  0.9135 -0.1309
  221SOL    HW2 2432   9.391   1.582   2.913  0.4981 -0.0168 -0.3349
  222SOL     OW 2433   3.995   5.859   7.948  0.4427 -0.0963  0.0070
  222SOL    HW1 2434   3.997   5.800   8.024  1.2122 -1.1022 -0.7722
  222SOL    HW2 2435   4.076   5.840   7.901 -0.2458  0.1659 -1.3283
  223SOL     OW 2436   1.600   8.769   0.997  0.1836  0.6067 -0.1937
  223SOL    HW1 2437   1.634   8.838   0.940  1.6530 -0.2596 -0.3998
  223SOL    HW2 2438   1.619   8.799   1.085 -3.2043  2.5535  0.0571
  224SOL     OW 2439   2.457   5.151   8.950 -0.0761 -0.6328  0.2366
  224SOL    HW1 2440   2.508   5.082   8.992  0.3674 -0.0908  0.6187
  224SOL    HW2 2441   2.499   5.164   8.865  0.9356  0.3238  0.8419
  225SOL     OW 2442   1.802   1.912   4.232  0.2184 -0.6654 -0.2936
  225SOL    HW1 2443   1.882   1.883   4.276 -0.0633 -1.0885 -0.0505
  225SOL    HW2 2444   1.732   1.864   4.275  0.1219 -3.0582 -2.8447
  226SOL     OW 2445   6.577   8.831   4.474 -0.0766  0.0004  0.1368
  226SOL    HW1 2446   6.548   8.828   4.565  0.7989 -0.4603  0.4188
  226SOL    HW2 2447   6.509   8.879   4.428  0.0646  1.3431  1.2668
  227SOL     OW 2448   4.993   4.383   6.138  0.7962  0.1129 -0.4907
  227SOL    HW1 2449   4.970   4.470   6.107  1.3794 -0.0070 -1.3177
  227SOL    HW2 2450   5.064   4.397   6.200 -1.4434  0.4929  2.1647
  228SOL     OW 2451   7.394   1.052   3.185 -0.5475 -0.3421  0.1089
  228SOL    HW1 2452   7.465   1.053   3.248  0.0976  0.4441 -0.6141
  228SOL    HW2 2453   7.370   0.959   3.177 -0.7471 -0.4385  1.5916
  229SOL     OW 2454   6.971   8.839   6.110  0.1022 -0.2841  0.2141
  229SOL    HW1 2455   7.004   8.923   6.080 -0.4421 -0.5590 -1.2673
  229SOL    HW2 2456   7.021   8.774   6.060 -0.8772 -0.7718 -0.1592
  230SOL     OW 2457   4.709   6.366   6.393 -0.0615  0.4210  0.1034
  230SOL    HW1 2458   4.677   6.282   6.360  0.3888 -0.2167  1.2561
  230SOL    HW2 2459   4.665   6.377   6.477  1.6103  0.2293  1.0331
  231SOL     OW 2460   3.199   4.983   1.780 -0.3456 -0.2228 -0.1732
  231SOL    HW1 2461   3.106   5.004   1.772 -0.5081 -1.0333 -0.5526
  231SOL    HW2 2462   3.218   4.995   1.873 -0.4262  1.4892 -0.3458
  232SOL     OW 2463   9.181   9.531   6.238  0.0675 -0.0725 -0.2721
  232SOL    HW1 2464   9.258   9.554   6.290 -0.0206  0.7871 -0.5076
  232SOL    HW2 2465   9.146   9.615   6.208  0.1305 -0.5465 -1.7447
  233SOL     OW 2466   7.379   9.133   8.815 -0.6353  0.0425 -0.1826
  233SOL    HW1 2467   7.348   9.171   8.897 -2.2860 -0.2842 -0.6108
  233SOL    HW2 2468   7.374   9.205   8.752 -1.5768 -0.2511 -0.4768
  234SOL     OW 2469   4.617   0.581   6.512 -0.1612 -0.0876  0.5550
  234SOL    HW1 2470   4.547   0.568   6.448 -1.5191  2.7142  1.3037
  234SOL    HW2 2471   4.604   0.512   6.576 -0.5992 -1.1558 -0.6432
  235SOL     OW 2472   0.261   9.689   4.143  0.7007 -0.0141  0.0758
  235SOL    HW1 2473   0.298   9.651   4.223 -1.8689 -0.0495  1.3512
  235SOL    HW2 2474   0.167   9.694   4.160 -0.1266 -1.0902 -3.4130
  236SOL     OW 2475   4.116   4.779   6.226  0.0021 -0.2678 -0.1635
  236SOL    HW1 2476   4.093   4.811   6.139  0.0513  1.2873  0.3737
  236SOL    HW2 2477   4.042   4.723   6.252 -0.2359 -0.3368 -0.9895
  237SOL     OW 2478   1.041   0.564   3.595  0.0693  0.5625 -0.1099
  237SOL    HW1 2479   0.999   0.514   3.664  2.0758 -1.3831 -0.1667
  237SOL    HW2 2480   0.993   0.541   3.515 -1.7399  2.1902  0.4332
  238SOL     OW 2481   4.066   2.568   9.154 -0.2859 -0.4329 -0.3488
  238SOL    HW1 2482   4.034   2.574   9.244 -0.2392  0.8289 -0.4031
  238SOL    HW2 2483   4.160   2.588   9.161 -0.5238  0.9299 -0.8157
  239SOL     OW 2484   5.814   4.399   5.016 -0.3670  0.0752  0.4866
  239SOL    HW1 2485   5.752   4.457   5.061  0.2263  0.9637  0.1722
  239SOL    HW2 2486   5.799   4.415   4.923  0.5183  0.5099  0.4065
  240SOL     OW 2487   3.968   6.426   6.682  0.3905 -0.1943  0.4327
  240SOL    HW1 2488   4.050   6.428   6.730  0.4340  1.6827  0.3336
  240SOL    HW2 2489   3.901   6.413   6.750  0.6873 -0.8677  0.6059
  241SOL     OW 2490   4.626   6.479   3.941  0.5435 -0.0725  0.3757
  241SOL    HW1 2491   4.671   6.545   3.993  0.6296  0.8592 -0.8203
  241SOL    HW2 2492   4.556   6.527   3.897 -1.3434 -1.3795  1.7658
  242SOL     OW 2493   9.785   3.009   0.894  0.8396  0.0498  0.3892
  242SOL    HW1 2494   9.709   3.060   0.920  0.7300  0.5784 -0.9124
  242SOL    HW2 2495   9.851   3.029   0.961  0.1478  0.3034  1.0070
  243SOL     OW 2496   6.163   7.088   6.844  0.2565 -0.3359  0.4230
  243SOL    HW1 2497   6.209   7.114   6.924  0.5285  1.5593 -0.2914
  243SOL    HW2 2498   6.221   7.022   6.804  1.3200  0.4575  0.6049
  244SOL     OW 2499   3.590   2.882   1.636 -0.0344 -0.9160  0.3068
  244SOL    HW1 2500   3.575   2.971   1.666 -0.7072 -0.9258  0.0283
  244SOL    HW2 2501   3.586   2.828   1.715  1.9806 -0.5368  0.7031
  245SOL     OW 2502   3.056   8.600   6.983  0.2752  0.6960  0.1693
  245SOL    HW1 2503   3.046   8.544   7.061 -0.8410  1.9159  0.9378
  245SOL    HW2 2504   3.090   8.683   7.018  2.0392  0.5045 -0.9695
  246SOL     OW 2505   4.871   4.825   4.559  0.5064  0.1842  0.1216
  246SOL    HW1 2506   4.896   4.894   4.497  2.5628 -0.8248 -0.2527
  246SOL    HW2 2507   4.951   4.807   4.608 -0.5151 -0.5845  1.5802
  247SOL     OW 2508   5.529   0.713   9.104  1.0610  0.0635  0.4272
  247SOL    HW1 2509   5.465   0.642   9.104  1.5172 -0.3564  0.7979
  247SOL    HW2 2510   5.567   0.711   9.192  2.3910 -0.4373 -0.1332
  248SOL     OW 2511   1.051   0.272   2.892  0.2834 -0.0740  0.0513
  248SOL    HW1 2512   1.084   0.188   2.922 -0.5705 -0.4843 -0.1247
  248SOL    HW2 2513   1.127   0.317   2.856  1.0339 -0.1748  1.4393
  249SOL     OW 2514   2.273   4.832   5.920 -0.6483  0.3589 -0.2590
  249SOL    HW1 2515   2.230   4.853   5.837  0.1293 -0.6111 -0.9208
  249SOL    HW2 2516   2.213   4.867   5.987 -3.6469 -2.7448 -1.0045
  250SOL     OW 2517   7.720   7.100   7.605 -0.1998 -0.1789 -0.8218
  250SOL    HW1 2518   7.756   7.184   7.634 -0.8115  0.4261 -1.7799
  250SOL    HW2 2519   7.761   7.036   7.663 -0.4153  0.8539  0.5433
  251SOL     OW 2520   0.440   5.647   7.384 -0.0719  0.1603 -0.4317
  251SOL    HW1 2521   0.445   5.572   7.443  0.5574  1.3967  1.1529
  251SOL    HW2 2522   0.430   5.722   7.442  1.0452  1.4871 -1.8776
  252SOL     OW 2523   4.154   3.367   0.927  0.4869 -0.5149 -0.1524
  252SOL    HW1 2524   4.230   3.424   0.940  0.7557 -1.0235  0.5361
  252SOL    HW2 2525   4.082   3.411   0.972  0.2409  0.2138 -1.2159
  253SOL     OW 2526   4.709   0.941   4.805 -0.7313  0.1788 -0.0023
  253SOL    HW1 2527   4.645   0.924   4.736 -0.9760 -0.7348  0.4300
  253SOL    HW2 2528   4.659   0.986   4.873 -1.0023 -0.7746  0.4510
  254SOL     OW 2529   1.985   3.544   3.528 -0.0734  0.3347 -0.2401
  254SOL    HW1 2530   1.903   3.500   3.505 -0.6311  0.8402  0.7382
  254SOL    HW2 2531   2.047   3.472   3.542 -0.4022 -0.0593 -0.7279
  255SOL     OW 2532   8.556   4.642   7.249 -0.7976  0.5316  0.1822
  255SOL    HW1 2533   8.521   4.731   7.259  0.6676  1.0979  0.5623
  255SOL    HW2 2534   8.648   4.650   7.275 -0.5579 -1.0355 -0.1118
  256SOL     OW 2535   0.490   1.845   6.029 -0.5919  0.0306  0.3590
  256SOL    HW1 2536   0.503   1.807   6.116 -0.5869 -2.2329 -0.5468
  256SOL    HW2 2537   0.415   1.797   5.994 -1.7274  2.1408 -0.2537
  257SOL     OW 2538   0.938   3.706   3.470  0.3640 -0.8936  0.1706
  257SOL    HW1 2539   0.891   3.737   3.547  0.2154  1.0642 -0.6363
  257SOL    HW2 2540   0.908   3.615   3.458 -1.6185 -0.3931  0.9077
  258SOL     OW 2541   9.799   6.399   0.165  0.0820 -0.4442  0.0733
  258SOL    HW1 2542   9.820   6.306   0.157 -1.0386 -0.6221 -1.0140
  258SOL    HW2 2543   9.824   6.436   0.080  0.5849  0.2742  0.5244
  259SOL     OW 2544   1.707   5.109   7.928 -0.3884 -0.3946 -0.4114
  259SOL    HW1 2545   1.738   5.021   7.909 -0.3480 -0.4734 -0.0013
  259SOL    HW2 2546   1.715   5.117   8.024  0.7293  0.4659 -0.5393
  260SOL     OW 2547   0.503   8.300   8.581  0.0320  0.2545  0.4342
  260SOL    HW1 2548   0.497   8.232   8.648 -0.1115  1.4177  1.6336
  260SOL    HW2 2549   0.433   8.362   8.603 -0.7436  0.1201 -1.4487
  261SOL     OW 2550   7.934   1.819   4.478 -0.1697 -0.7984 -0.2786
  261SOL    HW1 2551   8.020   1.819   4.436 -0.7204 -0.5946 -1.4538
  261SOL    HW2 2552   7.921   1.910   4.505 -0.9804 -0.2734 -2.2370
  262SOL     OW 2553   6.895   3.095   7.054  0.4301  0.3947  0.3528
  262SOL    HW1 2554   6.956   3.046   7.110 -0.7644 -1.0339  0.4827
  262SOL    HW2 2555   6.848   3.027   7.006 -0.0318  1.5293 -0.8352
  263SOL     OW 2556   1.145   1.214   5.855 -0.1405  0.1719  0.0706
  263SOL    HW1 2557   1.094   1.222   5.936  0.0541 -1.2447  0.3594
  263SOL    HW2 2558   1.160   1.304   5.827 -1.3194  0.6503  0.9148
  264SOL     OW 2559   3.868   9.558   1.593  0.2831  0.1815 -0.5590
  264SOL    HW1 2560   3.815   9.533   1.518  2.0426  3.5422 -3.2180
  264SOL    HW2 2561   3.958   9.561   1.559  1.2978  0.9691  1.9435
  265SOL     OW 2562   2.225   1.730   8.549  0.3747 -0.4604  0.5455
  265SOL    HW1 2563   2.204   1.644   8.587  0.9825 -0.2841  1.3075
  265SOL    HW2 2564   2.142   1.760   8.511 -0.4745 -0.3520  2.3296
  266SOL     OW 2565   5.888   0.183   3.114 -0.3741  0.8299  0.5696
  266SOL    HW1 2566   5.889   0.134   3.197  1.1500 -1.1164 -0.5066
  266SOL    HW2 2567   5.980   0.187   3.088 -0.8777  0.8583 -1.3256
  267SOL     OW 2568   9.556   5.422   6.431  0.3432 -0.3507  0.0183
  267SOL    HW1 2569   9.483   5.465   6.476 -0.3720 -1.4723 -0.0368
  267SOL    HW2 2570   9.594   5.491   6.376 -0.6091  0.2802  0.1222
  268SOL     OW 2571   3.309   2.021   9.400 -0.4735 -0.0048  0.1868
  268SOL    HW1 2572   3.388   2.075   9.397 -0.1903 -0.3285  1.2723
  268SOL    HW2 2573   3.313   1.967   9.322  1.5245 -1.5421  1.2548
  269SOL     OW 2574   0.034   0.582   8.141 -0.5277 -0.1107  0.4682
  269SOL    HW1 2575  -0.007   0.631   8.070  1.7055 -0.7234 -1.3747
  269SOL    HW2 2576   0.033   0.643   8.215  0.1071  1.9091 -1.0784
  270SOL     OW 2577   8.128   9.499   5.577 -0.1413 -0.5552  0.4761
  270SOL    HW1 2578   8.174   9.553   5.641 -0.0713  1.1605 -0.9556
  270SOL    HW2 2579   8.190   9.489   5.505 -1.6447  1.2015 -1.1820
  271SOL     OW 2580   9.757   2.284   3.475  0.0602  0.1950  0.3859
  271SOL    HW1 2581   9.755   2.189   3.461  0.8877  0.4530 -2.0730
  271SOL    HW2 2582   9.701   2.320   3.406  0.7321  1.5309  0.4940
  272SOL     OW 2583   8.644   4.847   5.440  0.0658  0.0783  0.0200
  272SOL    HW1 2584   8.716   4.848   5.504  0.8815  1.3047 -0.8784
  272SOL    HW2 2585   8.668   4.777   5.379 -0.6709 -1.0371  0.9463
  273SOL     OW 2586   7.490   2.240   1.854  0.3307  0.3292  0.6354
  273SOL    HW1 2587   7.420   2.219   1.916 -1.1675 -1.2867 -1.4669
  273SOL    HW2 2588   7.562   2.271   1.909 -1.8227  1.6140  2.9420
  274SOL     OW 2589   3.423   6.349   2.901  0.3337 -0.4702 -0.1125
  274SOL    HW1 2590   3.440   6.324   2.991  0.4187  0.6307  0.1976
  274SOL    HW2 2591   3.383   6.436   2.908  0.4009 -0.3467 -1.1374
  275SOL     OW 2592   1.639   3.872   2.167  0.6405  0.0761  0.6257
  275SOL    HW1 2593   1.570   3.922   2.124 -0.9491 -2.5657 -0.0763
  275SOL    HW2 2594   1.612   3.868   2.259 -0.7213 -1.6849  0.2067
  276SOL     OW 2595   4.962   5.518   3.333  0.6291  0.0101  0.6145
  276SOL    HW1 2596   4.990   5.582   3.268 -1.3563 -0.4552 -0.7786
  276SOL    HW2 2597   5.009   5.438   3.310  0.8883  0.1796  0.5494
  277SOL     OW 2598   9.224   5.585   7.704 -0.4337 -0.3676  0.0348
  277SOL    HW1 2599   9.143   5.632   7.723  0.2160  1.0818 -0.6233
  277SOL    HW2 2600   9.272   5.584   7.787 -1.3608 -1.7672  0.5802
  278SOL     OW 2601   1.043   9.249   7.883 -0.6942 -0.2001 -0.3238
  278SOL    HW1 2602   1.082   9.335   7.898 -1.6528  0.1867  0.0559
  278SOL    HW2 2603   1.102   9.206   7.821  0.3231  0.3498  0.2356
  279SOL     OW 2604   8.714   9.620   3.824  0.6473  0.0724 -0.7488
  279SOL    HW1 2605   8.727   9.617   3.918  1.7398  2.7511 -0.7328
  279SOL    HW2 2606   8.624   9.588   3.811  0.1786  0.4611  1.2638
  280SOL     OW 2607   8.835   2.365   5.422  0.0517  0.0548  0.7377
  280SOL    HW1 2608   8.753   2.412   5.442 -1.0355 -1.0944 -0.7850
  280SOL    HW2 2609   8.806   2.278   5.397  1.5912  0.1771 -1.6716
  281SOL     OW 2610   0.784   0.671   7.120  0.4341 -0.7683 -0.0495
  281SOL    HW1 2611   0.853   0.733   7.099 -0.1001  0.6210  2.0812
  281SOL    HW2 2612   0.831   0.592   7.148  1.1074 -1.1840 -2.1436
  282SOL     OW 2613   7.541   0.276   6.959 -0.6403 -0.2574  0.5928
  282SOL    HW1 2614   7.568   0.307   7.045  0.7756  2.3453 -0.6682
  282SOL    HW2 2615   7.453   0.241   6.973 -0.8940  1.1011  2.9155
  283SOL     OW 2616   9.258   1.670   8.889 -0.2490 -0.1802 -0.2437
  283SOL    HW1 2617   9.302   1.713   8.962 -0.5341  0.1179 -0.2408
  283SOL    HW2 2618   9.165   1.686   8.905 -0.3511 -0.6801 -0.3211
  284SOL     OW 2619   6.451   1.197   5.107  0.3919 -0.0336 -0.4242
  284SOL    HW1 2620   6.423   1.106   5.117 -1.5333  0.5016 -0.6639
  284SOL    HW2 2621   6.546   1.191   5.091  0.0774 -2.0838 -1.8609
  285SOL     OW 2622   0.937   2.037   2.981  0.3649 -0.0235 -0.0796
  285SOL    HW1 2623   0.933   1.970   2.913 -0.6664  0.3373 -0.3959
  285SOL    HW2 2624   1.008   2.094   2.954  2.2959 -1.7861  0.9829
  286SOL     OW 2625   3.523   0.496   1.836 -0.0036  0.2607  0.1669
  286SOL    HW1 2626   3.559   0.578   1.871  1.8591 -0.2797 -0.3725
  286SOL    HW2 2627   3.485   0.451   1.912 -0.6347  1.3844  0.5436
  287SOL     OW 2628   0.891   1.530   2.717 -0.2583  0.0968  0.1408
  287SOL    HW1 2629   0.804   1.568   2.711  0.3526  1.3766 -1.1463
  287SOL    HW2 2630   0.928   1.566   2.797 -0.2102  1.1184 -0.3300
  288SOL     OW 2631   0.081   1.380   0.392  0.5519 -0.4083  0.2958
  288SOL    HW1 2632   0.155   1.436   0.368  2.0938 -2.6334 -0.5122
  288SOL    HW2 2633   0.121   1.310   0.444 -1.3466 -0.5949  1.5851
  289SOL     OW 2634   4.454   2.555   4.279  0.3240 -0.4230 -0.3285
  289SOL    HW1 2635   4.533   2.553   4.334 -1.0786 -1.0352  1.7884
  289SOL    HW2 2636   4.439   2.464   4.255 -1.9010 -1.0323  2.7407
  290SOL     OW 2637   7.373   2.069   5.655 -0.3511 -1.1091  0.4678
  290SOL    HW1 2638   7.322   1.992   5.677 -0.6052 -1.3053 -0.7209
  290SOL    HW2 2639   7.450   2.065   5.711 -1.7111 -0.6920  2.4546
  291SOL     OW 2640   1.944   1.062   2.530  0.2681  0.4928  0.0146
  291SOL    HW1 2641   1.978   1.138   2.483  0.3594 -0.1178 -0.9263
  291SOL    HW2 2642   1.874   1.028   2.474  0.3553 -0.2337  0.3301
  292SOL     OW 2643   2.453   9.223   6.926  0.0208  0.3860 -0.1127
  292SOL    HW1 2644   2.426   9.132   6.911  1.4058 -0.2224  0.8598
  292SOL    HW2 2645   2.483   9.253   6.840 -0.2851 -0.1187 -0.4022
  293SOL     OW 2646   0.332   7.134   0.666 -0.5093  0.5095  0.3234
  293SOL    HW1 2647   0.427   7.130   0.671 -0.5832  0.0236  1.9599
  293SOL    HW2 2648   0.308   7.066   0.603  0.0643 -2.1552  2.8267
  294SOL     OW 2649   0.391   1.994   6.748 -0.4716 -0.1420 -0.2894
  294SOL    HW1 2650   0.318   2.043   6.710 -0.9452 -0.3360  0.3448
  294SOL    HW2 2651   0.438   2.059   6.801 -0.6774 -0.1982 -0.0315
  295SOL     OW 2652   1.293   2.220   4.625 -0.0057 -0.4310 -0.0632
  295SOL    HW1 2653   1.252   2.278   4.562  0.4304  0.1460  0.1752
  295SOL    HW2 2654   1.337   2.154   4.572 -1.4903 -1.2548 -0.3170
  296SOL     OW 2655   3.519   9.066   2.329  0.2458 -0.1840  0.0939
  296SOL    HW1 2656   3.608   9.034   2.345  0.5419 -0.5884 -1.9865
  296SOL    HW2 2657   3.500   9.123   2.403  2.8104  1.0591 -0.0947
  297SOL     OW 2658   6.627   9.545   7.208  0.2094  0.1341 -0.2681
  297SOL    HW1 2659   6.554   9.536   7.269  0.4068  0.3701  0.0047
  297SOL    HW2 2660   6.609   9.480   7.140  1.1799 -1.7989  1.2201
  298SOL     OW 2661   8.534   6.750   5.160  0.5327  0.4065  0.2354
  298SOL    HW1 2662   8.463   6.695   5.128  0.7616 -0.3547  0.9877
  298SOL    HW2 2663   8.576   6.785   5.081 -0.7390  0.9740 -0.2145
  299SOL     OW 2664   4.881   1.707   6.019 -0.1329 -0.4127 -0.5422
  299SOL    HW1 2665   4.958   1.680   5.970 -0.1026  1.0885 -1.3891
  299SOL    HW2 2666   4.879   1.803   6.009 -1.6075 -0.3418  0.2063
  300SOL     OW 2667   0.938   8.686   6.978  0.1735 -0.2452 -0.4109
  300SOL    HW1 2668   1.005   8.635   6.934  1.1230  1.3012 -0.8501
  300SOL    HW2 2669   0.966   8.777   6.967 -3.2656  0.7359 -2.8594
  301SOL     OW 2670   8.212   0.194   4.771  0.5040 -0.5117 -0.1186
  301SOL    HW1 2671   8.236   0.229   4.857  0.7747  0.7162 -0.6680
  301SOL    HW2 2672   8.127   0.233   4.753  0.0356 -1.4660 -0.0435
  302SOL     OW 2673   8.656   1.917   7.996 -0.1262 -0.6985  0.0162
  302SOL    HW1 2674   8.708   1.997   8.001  2.1887 -2.1181  0.0402
  302SOL    HW2 2675   8.574   1.939   8.041 -0.0470  1.9436 -0.9394
  303SOL     OW 2676   6.252   7.775   7.901 -0.3444 -0.0610 -0.6279
  303SOL    HW1 2677   6.347   7.766   7.894 -0.3774 -0.2165 -0.8835
  303SOL    HW2 2678   6.218   7.689   7.875 -0.4662 -0.6950  1.4498
  304SOL     OW 2679   3.519   1.078   8.926  0.3416  0.1517 -0.0676
  304SOL    HW1 2680   3.443   1.024   8.948 -0.8175  1.4964 -0.6082
  304SOL    HW2 2681   3.576   1.072   9.002 -1.9971  1.9862  1.9657
  305SOL     OW 2682   8.451   1.524   7.836  0.5519 -0.7202 -0.5737
  305SOL    HW1 2683   8.401   1.586   7.783 -2.1261 -1.4330  0.9118
  305SOL    HW2 2684   8.453   1.444   7.783 -1.4179 -1.1820 -0.0609
  306SOL     OW 2685   4.610   9.100   6.951 -0.3899  0.4328  0.2831
  306SOL    HW1 2686   4.570   9.173   6.998 -2.1533  2.1204 -3.4013
  306SOL    HW2 2687   4.689   9.136   6.912  0.6985 -0.7349  1.3292
  307SOL     OW 2688   3.516   8.400   3.229  0.4290  0.1375  0.3364
  307SOL    HW1 2689   3.554   8.351   3.302  0.2949 -1.6199 -0.7132
  307SOL    HW2 2690   3.585   8.462   3.204  2.2551 -2.1468 -0.7348
  308SOL     OW 2691   0.058   1.015   8.027  0.0410  0.8548  0.4016
  308SOL    HW1 2692  -0.035   1.039   8.032 -1.0493 -2.7619  1.1775
  308SOL    HW2 2693   0.082   0.997   8.118  0.0476 -2.4968 -0.1382
  309SOL     OW 2694   7.349   3.795   9.717 -0.1195  0.3656 -0.3945
  309SOL    HW1 2695   7.427   3.746   9.691 -0.4610  0.4405 -1.5860
  309SOL    HW2 2696   7.382   3.879   9.748  0.3203  0.1171 -0.1773
  310SOL     OW 2697   3.750   1.570   7.380  0.0496 -0.1864  0.1580
  310SOL    HW1 2698   3.707   1.645   7.422  0.1522 -0.5271  0.8728
  310SOL    HW2 2699   3.811   1.537   7.446  1.4178  0.2787 -0.8252
  311SOL     OW 2700   8.749   7.762   1.941  0.2536  0.1470 -0.2304
  311SOL    HW1 2701   8.690   7.694   1.976  1.5034 -0.8275  0.0406
  311SOL    HW2 2702   8.764   7.821   2.015 -0.8508  0.7621 -0.4715
  312SOL     OW 2703   1.690   6.452   7.254 -1.0936  1.0527 -0.6678
  312SOL    HW1 2704   1.617   6.442   7.193 -0.7752  1.8915 -1.2032
  312SOL    HW2 2705   1.683   6.377   7.313 -1.7233  0.5227 -1.4050
  313SOL     OW 2706   9.518   9.446   2.436 -0.6911 -0.3025  0.1664
  313SOL    HW1 2707   9.469   9.526   2.419  1.5972  1.4702  1.4432
  313SOL    HW2 2708   9.491   9.386   2.366 -2.5683  1.4837 -0.7424
  314SOL     OW 2709   0.122   7.670   1.897  0.1162  0.0701 -0.1719
  314SOL    HW1 2710   0.175   7.708   1.968 -1.3295 -0.5105  1.2744
  314SOL    HW2 2711   0.131   7.733   1.826  0.8085  1.2110  0.8608
  315SOL     OW 2712   6.870   5.268   2.656 -0.1041 -0.0622 -0.4368
  315SOL    HW1 2713   6.877   5.172   2.664  0.3803 -0.0161 -0.3113
  315SOL    HW2 2714   6.851   5.298   2.745 -0.8895 -0.0893 -0.5815
  316SOL     OW 2715   9.228   2.505   0.775 -0.1541  0.3526  0.0737
  316SOL    HW1 2716   9.224   2.528   0.682 -1.2105  0.2065  0.0693
  316SOL    HW2 2717   9.144   2.463   0.793  0.4948 -0.6784  0.8275
  317SOL     OW 2718   0.363   2.283   1.797 -0.1552  0.1118  0.0971
  317SOL    HW1 2719   0.403   2.245   1.719  2.8519 -0.3010  1.6913
  317SOL    HW2 2720   0.338   2.207   1.850 -0.7231  0.3884  0.2300
  318SOL     OW 2721   2.978   7.419   8.199 -0.1939 -0.0089  0.2061
  318SOL    HW1 2722   2.950   7.363   8.126 -0.3366 -0.8854  0.9165
  318SOL    HW2 2723   3.065   7.450   8.173 -1.4213  2.1635 -1.7004
  319SOL     OW 2724   1.673   3.067   1.433  0.0776  0.3459  0.1971
  319SOL    HW1 2725   1.741   3.132   1.450  1.2580 -0.8191  0.0879
  319SOL    HW2 2726   1.651   3.079   1.341 -0.9489  1.6954  0.5896
  320SOL     OW 2727   1.800   1.012   5.241  0.2103  0.2978 -0.4839
  320SOL    HW1 2728   1.732   1.028   5.176  2.3412  0.9542 -2.6955
  320SOL    HW2 2729   1.766   0.940   5.294 -1.4690 -0.5586 -2.5894
  321SOL     OW 2730   1.124   6.583   1.723 -0.0856 -0.1419  0.1019
  321SOL    HW1 2731   1.108   6.593   1.629  0.0682  1.8147  0.2497
  321SOL    HW2 2732   1.078   6.656   1.763 -2.7960 -2.6074  1.9191
  322SOL     OW 2733   1.039   9.334   4.214 -0.3776  0.2159 -0.0824
  322SOL    HW1 2734   1.012   9.259   4.161 -0.7289 -0.5068  1.1027
  322SOL    HW2 2735   1.085   9.297   4.289  0.8481  1.2723 -0.2603
  323SOL     OW 2736   0.316   3.086   8.774  0.3511 -0.3956 -0.7300
  323SOL    HW1 2737   0.312   3.009   8.718  1.2839 -0.4203 -0.7818
  323SOL    HW2 2738   0.236   3.135   8.754 -0.3696 -1.4528 -0.5312
  324SOL     OW 2739   1.814   0.134   4.594 -0.5530  0.2738  0.1405
  324SOL    HW1 2740   1.724   0.131   4.628 -1.1123  0.3125 -1.2758
  324SOL    HW2 2741   1.861   0.069   4.645 -1.4093  0.1978  0.8557
  325SOL     OW 2742   5.603   4.624   1.837  0.3257  0.2592 -0.1354
  325SOL    HW1 2743   5.670   4.557   1.847 -1.6910 -1.7944  0.3613
  325SOL    HW2 2744   5.560   4.629   1.923 -1.1362  0.3973 -0.8374
  326SOL     OW 2745   7.054   7.079   9.378  0.0497 -0.2097  0.1563
  326SOL    HW1 2746   7.122   7.013   9.389 -0.1239 -0.6839 -1.3699
  326SOL    HW2 2747   7.097   7.162   9.397  0.5173 -0.6541  1.1332
  327SOL     OW 2748   4.390   8.612   8.431  0.3151 -0.1319  0.2207
  327SOL    HW1 2749   4.375   8.587   8.340 -0.2795  0.0553  0.2636
  327SOL    HW2 2750   4.471   8.663   8.428  1.7168 -2.2075  0.1695
  328SOL     OW 2751   8.384   9.339   4.504  0.6976  0.3430 -0.0380
  328SOL    HW1 2752   8.420   9.257   4.537 -1.7235 -0.6894  0.2144
  328SOL    HW2 2753   8.436   9.407   4.548  0.1666 -1.0251  2.9731
  329SOL     OW 2754   9.845   6.768   5.201 -0.7052 -0.1071 -0.4790
  329SOL    HW1 2755   9.776   6.703   5.189  0.2966 -1.3359  0.1511
  329SOL    HW2 2756   9.926   6.722   5.178  0.1617  0.5316  1.1224
  330SOL     OW 2757   8.275   3.569   0.579  0.2732 -0.0209  0.0681
  330SOL    HW1 2758   8.306   3.651   0.617 -0.3743  1.4288 -2.3705
  330SOL    HW2 2759   8.299   3.574   0.487  0.1667 -2.5906 -0.1724
  331SOL     OW 2760   9.032   9.135   5.462 -0.0408  0.3366 -0.0184
  331SOL    HW1 2761   9.073   9.132   5.549  0.2852 -3.2290 -0.1598
  331SOL    HW2 2762   8.960   9.197   5.473  0.7733  1.0014  2.4005
  332SOL     OW 2763   8.078   9.419   2.350  0.4804  0.5826 -0.6848
  332SOL    HW1 2764   8.071   9.501   2.302 -1.7134  2.1307  1.9892
  332SOL    HW2 2765   8.165   9.423   2.390 -0.2133  2.5376  0.7905
  333SOL     OW 2766   8.266   5.022   9.375  0.1309 -0.1894 -0.0032
  333SOL    HW1 2767   8.210   4.950   9.406 -0.2185  0.4763  0.9487
  333SOL    HW2 2768   8.351   5.004   9.414  0.4743 -0.9257 -1.0416
  334SOL     OW 2769   4.875   8.854   9.572 -0.2185  0.0221 -0.3210
  334SOL    HW1 2770   4.832   8.819   9.650 -0.9729 -0.4300 -0.9258
  334SOL    HW2 2771   4.954   8.801   9.563 -0.1569  0.0354  0.0926
  335SOL     OW 2772   2.693   9.498   8.825  0.7006  0.0944  0.0019
  335SOL    HW1 2773   2.626   9.556   8.860  1.1001  0.3843  0.2895
  335SOL    HW2 2774   2.705   9.528   8.734  1.2403  0.7729  0.2884
  336SOL     OW 2775   2.876   2.710   7.834  0.3637  0.2187  0.5302
  336SOL    HW1 2776   2.820   2.726   7.758  0.1105 -0.7447  0.5060
  336SOL    HW2 2777   2.949   2.771   7.823 -1.4061  2.6684  1.3667
  337SOL     OW 2778   7.636   0.337   9.430 -0.4111 -0.1684  0.3186
  337SOL    HW1 2779   7.545   0.362   9.417 -0.2758 -0.0464 -0.4305
  337SOL    HW2 2780   7.639   0.244   9.409 -0.3461 -0.1564  0.2740
  338SOL     OW 2781   9.486   5.564   4.349  0.1665  0.4618 -0.1878
  338SOL    HW1 2782   9.404   5.570   4.397 -0.3545 -2.1616 -0.6109
  338SOL    HW2 2783   9.539   5.503   4.400  1.3533  1.0681 -0.6513
  339SOL     OW 2784   1.602   9.089   4.324 -0.3727 -0.2048 -0.0721
  339SOL    HW1 2785   1.660   9.149   4.277 -1.4988  0.6341 -0.4177
  339SOL    HW2 2786   1.518   9.096   4.280 -1.1467 -0.3176  1.3094
  340SOL     OW 2787   1.267   9.424   6.682 -0.2340  0.3869 -0.3492
  340SOL    HW1 2788   1.329   9.397   6.750  0.5471  0.7528 -0.9041
  340SOL    HW2 2789   1.237   9.343   6.642  0.5534  0.2472 -0.6576
  341SOL     OW 2790   0.668   1.179   4.371  0.5478  0.0155  0.5088
  341SOL    HW1 2791   0.636   1.105   4.422 -0.2551  1.2803  1.9159
  341SOL    HW2 2792   0.599   1.196   4.307  1.6972 -1.7767 -1.3196
  342SOL     OW 2793   2.735   4.899   0.072  0.7287  0.2436 -0.0307
  342SOL    HW1 2794   2.713   4.837   0.141  2.8904  1.0832  1.5183
  342SOL    HW2 2795   2.687   4.979   0.094  0.8161  0.2695  0.0648
  343SOL     OW 2796   4.712   8.609   9.709  0.5572 -0.1839 -0.1169
  343SOL    HW1 2797   4.779   8.558   9.755  0.9356  0.1357 -0.3116
  343SOL    HW2 2798   4.641   8.546   9.694 -0.3743  0.1217  2.5106
  344SOL     OW 2799   0.134   4.916   4.353 -0.0080  0.2534 -0.1312
  344SOL    HW1 2800   0.207   4.976   4.369 -0.4646  0.6616  0.4564
  344SOL    HW2 2801   0.141   4.895   4.260  0.2059  1.1626 -0.3354
  345SOL     OW 2802   3.628   7.677   6.709  0.6375 -0.3515 -0.6849
  345SOL    HW1 2803   3.722   7.660   6.703  0.9785  0.9271  0.6505
  345SOL    HW2 2804   3.598   7.625   6.783  0.3580 -0.4382 -0.8542
  346SOL     OW 2805   6.827   8.472   5.575  0.2088 -0.0328 -0.3881
  346SOL    HW1 2806   6.868   8.437   5.496  1.6391 -2.2475  1.2466
  346SOL    HW2 2807   6.741   8.429   5.578  0.7941 -1.2317  0.0480
  347SOL     OW 2808   5.992   4.654   6.794 -0.5687  0.4577  0.4243
  347SOL    HW1 2809   6.086   4.636   6.789 -0.6647  0.1424 -0.4420
  347SOL    HW2 2810   5.952   4.591   6.734 -1.3222  0.7245  0.6278
  348SOL     OW 2811   1.648   0.726   0.840 -0.1985  0.0433 -0.8229
  348SOL    HW1 2812   1.662   0.719   0.745  0.9049 -0.9804 -0.6124
  348SOL    HW2 2813   1.564   0.771   0.849 -0.7397 -0.6127 -2.2928
  349SOL     OW 2814   6.085   8.825   3.644  0.1144 -0.3924 -0.4173
  349SOL    HW1 2815   6.140   8.753   3.674 -0.8173  0.2053  3.1707
  349SOL    HW2 2816   6.032   8.787   3.573  1.0485 -2.6177 -0.0058
  350SOL     OW 2817   8.310   4.347   8.606  0.0593 -0.2061 -0.0777
  350SOL    HW1 2818   8.270   4.324   8.522 -0.8300 -0.8194  0.5017
  350SOL    HW2 2819   8.398   4.309   8.601  0.1748  0.1460 -0.8993
  351SOL     OW 2820   9.776   3.427   5.344  0.2877 -0.2486  0.0600
  351SOL    HW1 2821   9.743   3.429   5.434 -0.3065 -0.9423 -0.1338
  351SOL    HW2 2822   9.867   3.401   5.352  0.5828  0.9080  0.5492
  352SOL     OW 2823   7.477   1.662   9.771 -0.1878 -0.3221  0.0637
  352SOL    HW1 2824   7.448   1.571   9.775 -1.5810  0.0502 -0.9520
  352SOL    HW2 2825   7.553   1.665   9.829 -0.2657 -2.0673  0.3145
  353SOL     OW 2826   2.156   1.521   6.345 -0.3090 -0.3647 -0.1549
  353SOL    HW1 2827   2.153   1.609   6.308  0.3888  0.2246  1.1213
  353SOL    HW2 2828   2.219   1.474   6.291 -0.2817  0.0729 -0.5061
  354SOL     OW 2829   1.392   1.653   1.507  0.5457  0.3695  0.0659
  354SOL    HW1 2830   1.335   1.614   1.574  1.5126  2.2323  2.1247
  354SOL    HW2 2831   1.481   1.635   1.538  1.0525  0.1464 -1.4526
  355SOL     OW 2832   9.836   8.027   4.469 -0.5411 -0.4669 -0.7603
  355SOL    HW1 2833   9.741   8.033   4.482 -0.2228  0.8788  1.4055
  355SOL    HW2 2834   9.859   7.939   4.498 -0.9083 -0.1566  0.5305
  356SOL     OW 2835   7.025   4.244   2.452  0.4149 -0.3518 -0.6039
  356SOL    HW1 2836   6.951   4.183   2.452  1.0014 -1.0941 -1.5918
  356SOL    HW2 2837   7.028   4.277   2.362  0.2114  1.0264 -0.1206
  357SOL     OW 2838   4.839   4.713   9.285  0.0263  0.2893  0.0425
  357SOL    HW1 2839   4.829   4.799   9.326 -0.1262  0.4113 -0.2448
  357SOL    HW2 2840   4.812   4.726   9.194 -0.4464 -0.1636  0.1065
  358SOL     OW 2841   0.329   5.071   2.454 -0.1684  0.0687 -0.2506
  358SOL    HW1 2842   0.283   5.144   2.496 -2.9191 -1.5738 -0.1531
  358SOL    HW2 2843   0.362   5.109   2.372  0.0691  1.8413  0.6136
  359SOL     OW 2844   4.197   6.561   7.716 -0.0227  0.0002 -0.3593
  359SOL    HW1 2845   4.222   6.638   7.665 -0.8131  0.7599  0.3613
  359SOL    HW2 2846   4.108   6.580   7.746 -0.0527 -0.9897  0.2323
  360SOL     OW 2847   2.642   2.814   3.449  0.0126 -0.5881 -0.9739
  360SOL    HW1 2848   2.578   2.797   3.517  1.0677  0.1514  0.2513
  360SOL    HW2 2849   2.607   2.771   3.371 -1.5532 -0.8674 -0.1425
  361SOL     OW 2850   4.798   7.109   9.282  0.1555 -0.1361  0.3502
  361SOL    HW1 2851   4.734   7.106   9.354 -0.0313  0.6888  0.2317
  361SOL    HW2 2852   4.745   7.125   9.204  0.3152 -1.4242 -0.0461
  362SOL     OW 2853   9.258   5.350   1.150 -0.0941 -0.1337  0.0336
  362SOL    HW1 2854   9.172   5.328   1.188  0.5809 -0.4003  1.5050
  362SOL    HW2 2855   9.240   5.421   1.089 -1.5678 -1.1673 -0.8079
  363SOL     OW 2856   1.335   7.812   9.258  0.1609  0.2138  0.1542
  363SOL    HW1 2857   1.404   7.836   9.320  0.0571 -1.5135  0.9892
  363SOL    HW2 2858   1.378   7.750   9.199  0.2946  1.9045 -1.6621
  364SOL     OW 2859   4.105   2.053   1.816 -0.1566  0.0443 -0.2389
  364SOL    HW1 2860   4.116   2.016   1.904 -0.3983  1.3495  0.3750
  364SOL    HW2 2861   4.154   2.135   1.819  0.0999 -0.0501 -1.4412
  365SOL     OW 2862   2.166   2.076   8.439 -0.4334  0.4428 -0.2984
  365SOL    HW1 2863   2.227   2.003   8.451  0.5010  1.5354  2.2909
  365SOL    HW2 2864   2.216   2.139   8.387 -0.0681  0.5154  0.1306
  366SOL     OW 2865   6.213   8.100   7.854  0.5206 -0.1673  0.1196
  366SOL    HW1 2866   6.248   8.025   7.903  1.0937 -1.2179 -1.8205
  366SOL    HW2 2867   6.271   8.108   7.778  0.2223  2.0158  0.0570
  367SOL     OW 2868   7.187   6.764   2.877 -0.2992  0.1437  0.0902
  367SOL    HW1 2869   7.100   6.772   2.838 -0.7799  0.5847  1.2018
  367SOL    HW2 2870   7.245   6.807   2.815 -0.8794 -0.1046 -0.6382
  368SOL     OW 2871   3.533   3.894   9.147  0.1223  0.2787 -0.1643
  368SOL    HW1 2872   3.606   3.849   9.190  0.6672  3.3920  2.5255
  368SOL    HW2 2873   3.478   3.923   9.219 -3.1364 -0.7290 -2.0604
  369SOL     OW 2874   2.446   7.455   8.439  0.4523  0.1370 -0.2885
  369SOL    HW1 2875   2.524   7.434   8.389  0.7122 -1.1400  0.6171
  369SOL    HW2 2876   2.477   7.465   8.529 -0.2603  0.7512 -0.0940
  370SOL     OW 2877   5.779   8.766   4.435 -0.0793  0.2459 -0.2025
  370SOL    HW1 2878   5.694   8.803   4.462 -0.5571 -0.4887 -0.6454
  370SOL    HW2 2879   5.843   8.833   4.458 -0.5280 -0.0204  2.0655
  371SOL     OW 2880   8.769   0.124   4.907  0.5359  0.1940  0.6268
  371SOL    HW1 2881   8.791   0.033   4.929 -0.1706  0.0975  0.9614
  371SOL    HW2 2882   8.766   0.169   4.992  1.7892  0.7556  0.4023
  372SOL     OW 2883   9.624   0.061   0.784  0.1522 -0.3122 -0.0222
  372SOL    HW1 2884   9.671  -0.013   0.745 -1.6200 -0.5785 -1.8060
  372SOL    HW2 2885   9.662   0.070   0.871  1.9309 -1.9099 -0.5549
  373SOL     OW 2886   5.574   0.025   7.849 -0.7342 -0.3185 -0.1287
  373SOL    HW1 2887   5.563   0.108   7.803 -1.7899 -1.1269 -1.4006
  373SOL    HW2 2888   5.619  -0.031   7.786  1.9706 -0.1394  1.4531
  374SOL     OW 2889   4.975   1.419   6.854 -0.0365  0.0659 -0.6756
  374SOL    HW1 2890   4.910   1.451   6.791  1.6373  2.9383 -1.1659
  374SOL    HW2 2891   4.924   1.385   6.926 -2.1102  1.3222 -1.4476
  375SOL     OW 2892   4.232   1.790   2.681  0.3449  0.0217 -0.4217
  375SOL    HW1 2893   4.286   1.723   2.724 -0.4931 -1.0638 -1.0132
  375SOL    HW2 2894   4.241   1.771   2.588  1.9267  2.1874 -0.7689
  376SOL     OW 2895   5.128   7.045   4.494  0.2584  0.5904  0.2413
  376SOL    HW1 2896   5.204   7.010   4.447 -1.1862  0.1665 -1.8881
  376SOL    HW2 2897   5.094   6.970   4.543  0.9954  0.7043  0.9513
  377SOL     OW 2898   7.695   1.722   2.946 -0.5392 -0.7017  0.3927
  377SOL    HW1 2899   7.711   1.690   2.857  2.3149  0.0890  0.5303
  377SOL    HW2 2900   7.604   1.698   2.963 -1.4944 -0.1336 -3.0367
  378SOL     OW 2901   2.942   6.500   0.643  0.2947  0.1429 -0.3233
  378SOL    HW1 2902   2.954   6.520   0.735 -0.7429 -1.2147  0.1384
  378SOL    HW2 2903   3.028   6.516   0.604  0.6972  0.9039  0.8330
  379SOL     OW 2904   1.603   3.325   9.826 -0.2683  0.3549  0.0483
  379SOL    HW1 2905   1.586   3.277   9.907  1.8976 -0.6510 -0.0108
  379SOL    HW2 2906   1.626   3.414   9.855  1.9055 -0.3663  0.7272
  380SOL     OW 2907   2.349   0.070   5.950 -0.6341  0.0253 -0.0891
  380SOL    HW1 2908   2.438   0.034   5.941 -0.5381  0.0036  0.8894
  380SOL    HW2 2909   2.361   0.152   5.997 -0.9279  1.0706 -1.7287
  381SOL     OW 2910   4.154   7.765   3.391 -0.3298  0.1737 -0.4763
  381SOL    HW1 2911   4.241   7.803   3.404  0.2914 -0.9372 -1.2471
  381SOL    HW2 2912   4.105   7.832   3.343 -0.1464  1.0985  0.5946
  382SOL     OW 2913   9.312   7.054   2.606 -0.6715 -0.0434  0.4644
  382SOL    HW1 2914   9.343   7.037   2.517  0.2726  1.4058  0.4821
  382SOL    HW2 2915   9.320   7.149   2.616 -2.5709  0.0681  1.4450
  383SOL     OW 2916   8.182   5.703   6.195  0.0263 -0.4799  0.4220
  383SOL    HW1 2917   8.152   5.759   6.123  0.5566  0.6855  1.0693
  383SOL    HW2 2918   8.145   5.617   6.176 -0.9125  0.1147 -0.5511
  384SOL     OW 2919   2.795   0.115   3.719 -0.3816  0.3168 -0.2854
  384SOL    HW1 2920   2.765   0.069   3.641  0.0531  1.5276 -1.1879
  384SOL    HW2 2921   2.830   0.197   3.687 -0.7256  1.1023  1.2493
  385SOL     OW 2922   6.601   9.376   2.813  0.0797  0.2956  0.1818
  385SOL    HW1 2923   6.544   9.300   2.827  0.6174 -0.2701 -0.6116
  385SOL    HW2 2924   6.620   9.374   2.719 -1.5045  2.5847 -0.2581
  386SOL     OW 2925   4.217   2.095   7.917  0.5303 -0.5920 -0.6538
  386SOL    HW1 2926   4.201   2.119   8.009  0.7538 -0.4700 -0.6479
  386SOL    HW2 2927   4.204   2.000   7.915 -0.7145 -0.4424 -0.7514
  387SOL     OW 2928   3.575   2.295   3.371  0.5770  0.3377 -0.2010
  387SOL    HW1 2929   3.488   2.255   3.368  0.7506 -0.0407 -2.6904
  387SOL    HW2 2930   3.635   2.221   3.370  0.9653  0.6100  1.0656
  388SOL     OW 2931   3.297   4.202   6.689  0.2555  0.3063  0.2210
  388SOL    HW1 2932   3.387   4.228   6.668  0.2323  0.8985  0.8200
  388SOL    HW2 2933   3.302   4.108   6.706  1.0850  0.6230  1.8864
  389SOL     OW 2934   0.565   3.275   7.202 -0.4865 -0.8926  0.0371
  389SOL    HW1 2935   0.614   3.249   7.281 -0.2363  2.5234  1.1882
  389SOL    HW2 2936   0.633   3.306   7.142 -0.8993 -0.1357 -0.0517
  390SOL     OW 2937   8.339   2.345   2.667 -0.4701  0.1456 -0.1425
  390SOL    HW1 2938   8.346   2.413   2.734 -1.4410  0.6237 -0.5181
  390SOL    HW2 2939   8.379   2.268   2.708 -3.0926 -0.2552  1.9457
  391SOL     OW 2940   6.465   8.874   5.271 -0.0084  0.0086  0.0159
  391SOL    HW1 2941   6.483   8.967   5.285 -0.0699 -0.2866  2.4779
  391SOL    HW2 2942   6.543   8.829   5.302 -0.4820 -0.8224  0.0473
  392SOL     OW 2943   9.798   8.518   3.455  0.4874 -0.7272 -0.0109
  392SOL    HW1 2944   9.874   8.469   3.423  0.1427 -0.6443 -0.9864
  392SOL    HW2 2945   9.777   8.477   3.539  1.9014 -0.4352  0.5225
  393SOL     OW 2946   0.056   2.084   9.397  0.3574  0.4014 -0.0314
  393SOL    HW1 2947  -0.007   2.103   9.466 -1.9311 -0.1411 -1.8494
  393SOL    HW2 2948   0.128   2.145   9.412 -1.1418  1.9060  1.4270
  394SOL     OW 2949   7.471   3.545   4.050  0.1454 -0.8537  0.3686
  394SOL    HW1 2950   7.397   3.561   4.110  1.0780 -1.6343  1.7772
  394SOL    HW2 2951   7.520   3.628   4.051  0.8818 -1.2662  1.7842
  395SOL     OW 2952   4.900   6.159   9.199 -0.1921 -0.1452  0.0736
  395SOL    HW1 2953   4.848   6.232   9.233 -1.8651  0.1114 -2.6491
  395SOL    HW2 2954   4.971   6.201   9.151 -0.8935 -0.2445 -1.1048
  396SOL     OW 2955   1.275   7.584   4.643 -0.3863  0.2326 -0.4747
  396SOL    HW1 2956   1.363   7.584   4.681  0.0799  1.3218 -1.4989
  396SOL    HW2 2957   1.224   7.640   4.702 -0.3039 -0.1213 -0.0678
  397SOL     OW 2958   4.569   4.357   8.973 -0.0738  0.1843 -0.1935
  397SOL    HW1 2959   4.527   4.315   8.898  2.6025 -0.1798 -1.6159
  397SOL    HW2 2960   4.554   4.451   8.959 -1.2717  0.0370 -0.0562
  398SOL     OW 2961   5.742   9.347   1.014  0.1289  0.3571 -0.3351
  398SOL    HW1 2962   5.704   9.320   0.930  1.2105  0.2773 -0.8090
  398SOL    HW2 2963   5.746   9.266   1.065 -0.6516  0.4286 -0.1554
  399SOL     OW 2964   9.289   5.534   8.794 -0.0462 -0.4156  0.3793
  399SOL    HW1 2965   9.274   5.463   8.856 -0.5240 -1.4571 -0.8653
  399SOL    HW2 2966   9.213   5.591   8.805  1.3401  1.1387  2.8751
  400SOL     OW 2967   2.533   3.012   8.617 -0.1728  0.1326 -0.2499
  400SOL    HW1 2968   2.564   2.942   8.559  1.5590 -0.6277  1.4864
  400SOL    HW2 2969   2.563   2.986   8.704 -1.4990  1.9160  0.8075
  401SOL     OW 2970   3.888   1.794   5.824  0.1278  0.0851 -0.1890
  401SOL    HW1 2971   3.938   1.799   5.742  0.5136  0.8175  0.0743
  401SOL    HW2 2972   3.833   1.873   5.823  2.2265  1.6976  1.5471
  402SOL     OW 2973   7.251   2.978   5.951 -0.4133 -0.5508  0.1570
  402SOL    HW1 2974   7.298   3.008   5.873  1.0502  1.0416  1.5882
  402SOL    HW2 2975   7.179   2.925   5.916  0.5451 -0.3992 -2.2391
  403SOL     OW 2976   8.762   4.845   1.610 -0.0113 -0.0789 -0.6958
  403SOL    HW1 2977   8.689   4.907   1.613 -0.2416 -0.3639  1.9871
  403SOL    HW2 2978   8.719   4.759   1.609  0.3171 -0.2623 -2.7800
  404SOL     OW 2979   5.603   3.719   0.817  0.1292 -0.1916  0.1631
  404SOL    HW1 2980   5.613   3.685   0.728 -1.6000 -1.3451  0.3689
  404SOL    HW2 2981   5.573   3.810   0.805 -0.5632 -0.4915 -0.4483
  405SOL     OW 2982   6.398   0.968   0.809  0.1149  0.2051 -0.3755
  405SOL    HW1 2983   6.420   0.948   0.900 -1.0521  0.5880  0.0018
  405SOL    HW2 2984   6.405   1.064   0.803 -0.5004  0.2460 -0.4963
  406SOL     OW 2985   3.727   0.577   9.172  0.0055 -0.2405  0.0951
  406SOL    HW1 2986   3.645   0.594   9.219  0.9729  0.4923  1.5699
  406SOL    HW2 2987   3.767   0.663   9.160  0.8095 -0.6346 -0.1688
  407SOL     OW 2988   8.112   3.901   5.096  0.7536 -0.0638 -0.2461
  407SOL    HW1 2989   8.128   3.944   5.012 -2.3745  2.0402  0.0488
  407SOL    HW2 2990   8.139   3.965   5.162  1.6553 -1.0466  0.3860
  408SOL     OW 2991   0.304   2.849   4.884  0.4393  0.6330  0.2792
  408SOL    HW1 2992   0.374   2.877   4.826 -0.6784  1.3327 -0.7861
  408SOL    HW2 2993   0.228   2.901   4.857 -1.2047 -1.9358 -0.4387
  409SOL     OW 2994   4.873   4.291   4.092  0.0793 -0.1467 -0.0993
  409SOL    HW1 2995   4.862   4.357   4.160  1.8904  0.3609 -0.2556
  409SOL    HW2 2996   4.915   4.218   4.136  2.3208  0.6187 -0.8388
  410SOL     OW 2997   2.055   0.764   2.432  0.0904 -0.0441  0.1224
  410SOL    HW1 2998   1.967   0.784   2.401 -0.1974 -1.1099  0.2307
  410SOL    HW2 2999   2.093   0.708   2.363  0.6866  0.4008  0.0757
  411SOL     OW 3000   1.141   1.803   0.658 -0.8230 -0.6823 -0.3142
  411SOL    HW1 3001   1.114   1.732   0.716  1.5251 -1.0631  0.4442
  411SOL    HW2 3002   1.236   1.791   0.649 -0.4377  2.0238 -0.6276
  412SOL     OW 3003   3.936   8.144   7.935 -0.0925  0.0388 -0.5535
  412SOL    HW1 3004   3.855   8.159   7.985 -1.4296  1.0460 -2.8642
  412SOL    HW2 3005   3.937   8.214   7.871  0.7877 -1.9636 -2.8606
  413SOL     OW 3006   7.829   8.543   4.216  0.0184  0.0552  0.1380
  413SOL    HW1 3007   7.738   8.547   4.188 -0.1981 -1.3369  0.5683
  413SOL    HW2 3008   7.827   8.566   4.309  0.1023  0.0229  0.1477
  414SOL     OW 3009   0.019   0.618   7.557 -0.0707  0.2347  0.4235
  414SOL    HW1 3010  -0.022   0.655   7.635  0.9174 -0.1635  1.1507
  414SOL    HW2 3011   0.113   0.626   7.573  0.1520 -0.8036 -0.2682
  415SOL     OW 3012   5.468   7.291   3.397  0.4521 -0.5040 -0.1467
  415SOL    HW1 3013   5.523   7.217   3.424 -2.5835 -1.8642  3.1292
  415SOL    HW2 3014   5.398   7.251   3.346 -0.1098  0.4518 -0.1317
  416SOL     OW 3015   8.314   1.480   3.101 -0.2356 -0.2165 -0.0634
  416SOL    HW1 3016   8.264   1.399   3.093  0.1698 -0.7905  2.2739
  416SOL    HW2 3017   8.400   1.458   3.067 -0.0126 -0.9374  0.8991
  417SOL     OW 3018   7.349   8.387   8.836 -0.4038  0.1498  0.0082
  417SOL    HW1 3019   7.277   8.449   8.841  0.4497  1.5189 -2.5460
  417SOL    HW2 3020   7.426   8.437   8.864 -0.2723 -1.0829  2.0306
  418SOL     OW 3021   6.224   8.242   0.525 -0.0279 -0.3237 -0.4509
  418SOL    HW1 3022   6.231   8.189   0.445  0.5536 -1.7714  0.5083
  418SOL    HW2 3023   6.146   8.208   0.569  0.9092 -1.1360  0.6582
  419SOL     OW 3024   6.277   1.422   2.652  0.0193 -0.0079 -0.3152
  419SOL    HW1 3025   6.315   1.378   2.728  0.2714 -0.3743 -0.6555
  419SOL    HW2 3026   6.316   1.378   2.576  0.4415  0.9418 -0.6587
  420SOL     OW 3027   4.547   0.195   2.716 -0.1160  0.2297 -0.0269
  420SOL    HW1 3028   4.489   0.171   2.789 -1.2717  0.1137 -0.9456
  420SOL    HW2 3029   4.518   0.282   2.689  0.7332  0.5501  0.0586
  421SOL     OW 3030   9.148   7.002   6.015 -0.3306 -0.1275  0.4032
  421SOL    HW1 3031   9.136   6.917   5.972 -0.1418  0.4259 -0.7909
  421SOL    HW2 3032   9.104   7.064   5.958  4.5624  1.4755 -2.2531
  422SOL     OW 3033   4.652   7.923   9.320 -0.3634  0.3691  0.1209
  422SOL    HW1 3034   4.737   7.967   9.328 -0.1856 -0.0695  0.6715
  422SOL    HW2 3035   4.588   7.995   9.316  0.0591  0.7192 -0.7589
  423SOL     OW 3036   2.894   7.178   5.451 -0.0063  0.0235 -0.3817
  423SOL    HW1 3037   2.799   7.186   5.456 -0.1545 -1.7166  3.2177
  423SOL    HW2 3038   2.926   7.249   5.507  0.8253  0.4964 -1.4401
  424SOL     OW 3039   4.544   7.714   9.534  0.2286  0.3833 -0.0326
  424SOL    HW1 3040   4.605   7.782   9.565  0.1059  0.7767 -0.6346
  424SOL    HW2 3041   4.458   7.756   9.535  0.0044 -0.0859  0.5548
  425SOL     OW 3042   2.673   4.545   9.517 -0.1219  0.2421  0.2711
  425SOL    HW1 3043   2.687   4.500   9.600  0.6523  0.9753  0.5415
  425SOL    HW2 3044   2.755   4.590   9.499  1.0052 -2.5457 -2.5665
  426SOL     OW 3045   9.815   9.033   6.977 -0.2465  0.1488  0.0308
  426SOL    HW1 3046   9.800   8.940   6.996 -1.3808 -0.0925 -1.7336
  426SOL    HW2 3047   9.866   9.032   6.896 -0.9356  1.0467 -0.4350
  427SOL     OW 3048   8.138   2.714   4.819 -0.3355 -0.0866 -0.0657
  427SOL    HW1 3049   8.148   2.620   4.804 -0.9238  0.1541 -2.4087
  427SOL    HW2 3050   8.055   2.736   4.777  1.4681  2.0368 -2.8881
  428SOL     OW 3051   8.288   9.828   2.623  0.5307 -0.3154  0.4376
  428SOL    HW1 3052   8.342   9.906   2.633 -0.0379  0.1406  0.0730
  428SOL    HW2 3053   8.219   9.856   2.562 -0.0024 -0.9350  0.7574
  429SOL     OW 3054   4.131   1.971   8.774  0.2416  0.0565  0.1994
  429SOL    HW1 3055   4.044   1.993   8.741  0.0966  0.6790  0.9551
  429SOL    HW2 3056   4.125   1.878   8.795 -0.4378  0.2131  0.7779
  430SOL     OW 3057   5.509   4.288   3.049  0.0679 -0.0532 -0.2491
  430SOL    HW1 3058   5.548   4.297   3.136  0.2437 -1.4273 -0.1666
  430SOL    HW2 3059   5.430   4.342   3.053  0.6125  0.7318  0.4111
  431SOL     OW 3060   8.821   3.662   2.543 -0.2538  0.1509 -0.0290
  431SOL    HW1 3061   8.876   3.733   2.510 -0.5925  1.5229  2.1265
  431SOL    HW2 3062   8.777   3.627   2.466  1.3570  1.0013 -1.4007
  432SOL     OW 3063   1.526   5.179   9.493  0.0005  0.3942  0.0036
  432SOL    HW1 3064   1.601   5.163   9.436 -1.2684 -2.0576 -1.1082
  432SOL    HW2 3065   1.465   5.229   9.439  0.2976  1.3332  0.5101
  433SOL     OW 3066   3.075   5.242   8.051 -0.2904  0.2695 -1.0610
  433SOL    HW1 3067   3.105   5.321   8.006  0.7454 -0.7951 -2.3054
  433SOL    HW2 3068   2.984   5.233   8.024  0.0690  0.1299 -2.2772
  434SOL     OW 3069   2.570   9.843   4.920  0.4181  0.0591  0.3872
  434SOL    HW1 3070   2.561   9.753   4.888  2.2847  0.2277 -0.7553
  434SOL    HW2 3071   2.578   9.834   5.015  1.4308 -1.0706  0.2203
  435SOL     OW 3072   4.133   4.497   9.490  0.7766 -0.4357 -0.4263
  435SOL    HW1 3073   4.126   4.558   9.563 -0.6124  0.2228 -1.0476
  435SOL    HW2 3074   4.045   4.460   9.482  1.3815 -1.9047 -0.6049
  436SOL     OW 3075   6.720   3.357   3.607 -0.6262  0.3029  0.3037
  436SOL    HW1 3076   6.754   3.269   3.590  0.2448  0.8630 -1.0336
  436SOL    HW2 3077   6.741   3.373   3.699 -0.0054 -0.5606  0.3308
  437SOL     OW 3078   7.839   8.923   0.782 -0.2209 -0.4839 -0.0080
  437SOL    HW1 3079   7.757   8.964   0.754 -0.1917  1.1033  1.9536
  437SOL    HW2 3080   7.859   8.966   0.866  2.5129 -0.9508 -0.3385
  438SOL     OW 3081   3.299   1.650   0.181  0.0311  0.3340  0.5028
  438SOL    HW1 3082   3.231   1.644   0.248 -1.1885  1.0518 -0.6065
  438SOL    HW2 3083   3.260   1.705   0.113  1.7511  0.7828 -0.1690
  439SOL     OW 3084   4.044   4.283   0.201  0.3534  0.3516  0.4099
  439SOL    HW1 3085   4.096   4.221   0.150 -2.4402 -2.4565  0.6914
  439SOL    HW2 3086   3.992   4.330   0.136  0.2812  0.2476  0.3935
  440SOL     OW 3087   5.760   4.306   6.751  0.2797  0.4766 -0.3666
  440SOL    HW1 3088   5.760   4.383   6.694 -0.5569  0.5021 -0.3424
  440SOL    HW2 3089   5.734   4.234   6.694  0.1171  0.3823 -0.1741
  441SOL     OW 3090   3.538   7.907   3.614  0.1332  0.1877 -0.0909
  441SOL    HW1 3091   3.598   7.931   3.543 -0.3051 -0.3369 -0.6562
  441SOL    HW2 3092   3.589   7.921   3.694  0.3915  1.4861 -0.4616
  442SOL     OW 3093   4.983   4.405   9.530 -0.2247 -0.0690  0.1069
  442SOL    HW1 3094   4.917   4.336   9.524 -0.4220 -0.1045  1.9951
  442SOL    HW2 3095   4.946   4.478   9.481 -0.7395 -0.7728 -0.5666
  443SOL     OW 3096   3.812   6.133   0.170 -0.0067  0.4065  1.0316
  443SOL    HW1 3097   3.754   6.208   0.167 -1.8803 -0.9632  1.2817
  443SOL    HW2 3098   3.777   6.072   0.105 -0.2908 -1.4071  2.7681
  444SOL     OW 3099   2.273   7.644   6.233  0.1018  0.1132  0.2335
  444SOL    HW1 3100   2.225   7.567   6.263  1.6772 -0.6492  0.8965
  444SOL    HW2 3101   2.304   7.687   6.313  1.6186 -0.1688 -0.1533
  445SOL     OW 3102   7.717   7.953   5.209 -0.0252 -0.1349  0.2687
  445SOL    HW1 3103   7.773   7.879   5.187 -0.7848 -0.4761 -0.5916
  445SOL    HW2 3104   7.774   8.014   5.255  0.0211 -2.4285  3.5450
  446SOL     OW 3105   9.527   2.672   9.451 -0.2118 -0.1651 -0.1823
  446SOL    HW1 3106   9.578   2.752   9.463  0.8631 -0.9225  0.4803
  446SOL    HW2 3107   9.590   2.608   9.415 -0.9419 -0.8334 -0.3016
  447SOL     OW 3108   3.387   8.435   3.565  0.1914 -0.3316 -0.2080
  447SOL    HW1 3109   3.477   8.456   3.592  0.0453  0.8936 -0.5982
  447SOL    HW2 3110   3.334   8.455   3.642 -0.0987  2.1364 -0.9542
  448SOL     OW 3111   2.650   2.333   6.224  0.0074  0.3299  0.0121
  448SOL    HW1 3112   2.732   2.310   6.182  0.0504  1.7403 -0.7403
  448SOL    HW2 3113   2.586   2.271   6.187  0.8691 -1.4547  1.3761
  449SOL     OW 3114   0.488   7.382   7.971 -0.0731 -0.1233  0.4966
  449SOL    HW1 3115   0.567   7.409   7.925 -0.7835  1.8829  0.3103
  449SOL    HW2 3116   0.518   7.327   8.043  1.3463 -0.5964 -0.4345
  450SOL     OW 3117   0.271   1.104   2.407  0.1160 -0.5943 -0.4834
  450SOL    HW1 3118   0.203   1.092   2.474 -0.3345 -1.1791 -1.0294
  450SOL    HW2 3119   0.349   1.130   2.456  0.6017 -3.6806  0.6209
  451SOL     OW 3120   0.173   2.117   4.871  0.0710  0.3179  0.1248
  451SOL    HW1 3121   0.241   2.165   4.823  0.6626  0.7663  1.3676
  451SOL    HW2 3122   0.093   2.133   4.821  0.0779  3.2738  0.8342
  452SOL     OW 3123   2.502   8.598   0.498 -0.4880 -0.6098 -0.1303
  452SOL    HW1 3124   2.549   8.620   0.418  0.3719 -0.4365  0.4191
  452SOL    HW2 3125   2.539   8.654   0.565 -1.2613 -0.6926  0.3859
  453SOL     OW 3126   8.275   0.220   1.313 -0.0227 -0.3500  0.4638
  453SOL    HW1 3127   8.249   0.156   1.380 -0.1846  0.6714  1.4191
  453SOL    HW2 3128   8.368   0.236   1.330 -0.3378  0.8268  1.2994
  454SOL     OW 3129   8.970   9.222   2.564  0.3662  0.2601  0.1033
  454SOL    HW1 3130   8.923   9.159   2.509 -1.7089  2.0106 -0.2857
  454SOL    HW2 3131   8.975   9.180   2.650  3.2974 -2.3551 -1.1562
  455SOL     OW 3132   7.339   6.845   9.150 -0.8851  0.1204 -0.3273
  455SOL    HW1 3133   7.297   6.909   9.092  1.9167  1.1303 -1.4080
  455SOL    HW2 3134   7.426   6.832   9.112 -0.2184 -1.9236  1.7045
  456SOL     OW 3135   8.706   0.373   6.195 -0.8207  0.3003 -0.3707
  456SOL    HW1 3136   8.724   0.434   6.267  0.1947 -1.2752  0.7736
  456SOL    HW2 3137   8.611   0.373   6.188 -0.9577  0.3882  1.0855
  457SOL     OW 3138   7.943   8.943   4.999 -0.5255 -0.0196  0.2254
  457SOL    HW1 3139   7.900   9.028   4.988 -1.4279 -0.5769 -0.8687
  457SOL    HW2 3140   8.026   8.953   4.952  0.4064  0.9260  1.9776
  458SOL     OW 3141   2.728   6.882   1.175 -0.4619  0.0571 -0.1973
  458SOL    HW1 3142   2.818   6.891   1.206 -0.1107 -0.6764 -0.9528
  458SOL    HW2 3143   2.730   6.806   1.118 -1.6685 -0.2261  0.1124
  459SOL     OW 3144   3.155   0.644   8.699 -0.1240  0.7139 -0.3962
  459SOL    HW1 3145   3.093   0.620   8.768  2.7098 -1.3576  1.6843
  459SOL    HW2 3146   3.133   0.735   8.678 -1.6383  1.2194  2.7195
  460SOL     OW 3147   2.010   1.434   5.667  0.0237 -0.9532 -0.3321
  460SOL    HW1 3148   1.917   1.452   5.656  0.0454 -0.9243 -0.4640
  460SOL    HW2 3149   2.015   1.339   5.680 -0.1132 -0.8475  0.5803
  461SOL     OW 3150   9.740   7.201   7.041 -0.1484 -0.1309  0.4607
  461SOL    HW1 3151   9.737   7.259   6.964 -1.5916 -1.5225 -0.5963
  461SOL    HW2 3152   9.761   7.260   7.114 -1.4152  1.7360 -0.5786
  462SOL     OW 3153   3.918   1.794   8.083  0.2689 -0.4173 -0.0031
  462SOL    HW1 3154   3.863   1.769   8.009  1.2949 -0.3455 -0.8147
  462SOL    HW2 3155   3.930   1.713   8.132  1.8739 -1.1240 -1.4781
  463SOL     OW 3156   1.266   9.691   5.430  0.1582 -0.6422  0.5312
  463SOL    HW1 3157   1.236   9.678   5.519  1.4916  1.2705  1.3339
  463SOL    HW2 3158   1.190   9.669   5.375 -0.6265 -1.9986  2.0971
  464SOL     OW 3159   0.902   4.227   0.015 -0.0777  0.1140 -0.0228
  464SOL    HW1 3160   0.854   4.297  -0.030  1.2045  1.2846  0.3806
  464SOL    HW2 3161   0.930   4.266   0.097 -0.8467 -1.4581  1.0245
  465SOL     OW 3162   4.824   2.574   8.668  0.1150 -0.3642 -0.8030
  465SOL    HW1 3163   4.846   2.526   8.588 -1.3269 -1.6670 -0.4643
  465SOL    HW2 3164   4.758   2.638   8.640  0.5251  0.0290 -0.8763
  466SOL     OW 3165   7.168   6.106   2.888  0.0125 -0.0882  0.3380
  466SOL    HW1 3166   7.091   6.051   2.906 -0.6684  0.3370 -1.1556
  466SOL    HW2 3167   7.228   6.048   2.840  0.4137 -0.2459  1.0003
  467SOL     OW 3168   2.671   7.584   3.755  0.1197  0.3742 -0.5221
  467SOL    HW1 3169   2.630   7.507   3.793  1.6468 -0.8603 -1.2708
  467SOL    HW2 3170   2.598   7.642   3.734 -0.9705 -0.2613  1.2879
  468SOL     OW 3171   3.302   3.123   3.057 -0.0970  0.3542  0.1972
  468SOL    HW1 3172   3.269   3.154   3.142  1.8930  1.1758  0.7284
  468SOL    HW2 3173   3.397   3.125   3.066  0.1704  0.3913 -2.0339
  469SOL     OW 3174   7.126   2.360   3.497  0.0458 -0.3886 -0.5936
  469SOL    HW1 3175   7.088   2.349   3.410 -0.2229 -0.0396 -0.5225
  469SOL    HW2 3176   7.051   2.354   3.556  0.2528 -0.8245 -0.3683
  470SOL     OW 3177   8.022   9.790   6.401  0.0266 -0.4881  0.5654
  470SOL    HW1 3178   8.065   9.856   6.347 -0.0235  0.1804  1.3244
  470SOL    HW2 3179   7.929   9.798   6.379  0.0243 -0.3190  0.6346
  471SOL     OW 3180   7.307   8.781   0.787 -0.3584  0.3341  0.2727
  471SOL    HW1 3181   7.268   8.808   0.870  0.5225  0.8313  0.5349
  471SOL    HW2 3182   7.256   8.826   0.721 -0.4381  0.7281  0.5977
  472SOL     OW 3183   6.715   7.953   1.538 -0.2300 -0.0336 -0.2583
  472SOL    HW1 3184   6.711   8.042   1.573 -0.2905 -0.4683  0.9047
  472SOL    HW2 3185   6.624   7.932   1.517 -0.2504  0.0921 -0.2972
  473SOL     OW 3186   3.450   7.170   7.908  0.5411 -0.1346  0.2725
  473SOL    HW1 3187   3.382   7.103   7.895  0.7281 -0.3746  0.5148
  473SOL    HW2 3188   3.436   7.202   7.996  0.2600  0.3703  0.0454
  474SOL     OW 3189   3.084   2.270   8.265  0.0068 -0.8245  0.3506
  474SOL    HW1 3190   3.094   2.231   8.352 -1.9377 -1.3472  0.3790
  474SOL    HW2 3191   3.022   2.213   8.220 -1.0115  0.8614 -0.4722
  475SOL     OW 3192   8.041   3.840   7.865 -0.1276 -0.5309 -0.2921
  475SOL    HW1 3193   8.043   3.746   7.883  0.3479 -0.3939  0.4151
  475SOL    HW2 3194   7.976   3.875   7.926 -1.3313 -0.5760 -1.5053
  476SOL     OW 3195   8.174   7.454   5.350  0.1243 -0.1202  0.0909
  476SOL    HW1 3196   8.134   7.452   5.263  0.8287 -1.3587 -0.2336
  476SOL    HW2 3197   8.101   7.458   5.410 -0.3574  2.4843 -0.5532
  477SOL     OW 3198   2.390   5.202   1.471 -0.2850 -0.0580  0.1369
  477SOL    HW1 3199   2.402   5.108   1.475 -0.1397 -0.0435  0.0449
  477SOL    HW2 3200   2.469   5.235   1.428 -0.4184  0.0863  0.0006
  478SOL     OW 3201   1.816   8.334   5.114  0.1292  0.4357 -0.4656
  478SOL    HW1 3202   1.791   8.401   5.051  1.0441  1.3484  0.1104
  478SOL    HW2 3203   1.769   8.357   5.194  1.4416  1.2045  0.1285
  479SOL     OW 3204   2.291   0.530   6.250  0.5527 -0.1377  0.0111
  479SOL    HW1 3205   2.319   0.456   6.196  1.3782  1.3164 -1.6597
  479SOL    HW2 3206   2.202   0.549   6.221 -0.3299 -1.4954  1.6600
  480SOL     OW 3207   7.600   3.308   3.976  0.1878 -0.0742  0.4007
  480SOL    HW1 3208   7.546   3.383   4.000  1.4680  1.4237 -1.1714
  480SOL    HW2 3209   7.690   3.338   3.985  0.7722 -1.8724  1.0292
  481SOL     OW 3210   7.247   1.159   9.326 -0.0197 -1.0309  0.2836
  481SOL    HW1 3211   7.341   1.154   9.310  0.1960  0.1707  1.0756
  481SOL    HW2 3212   7.208   1.108   9.255  1.1548 -0.4024 -0.8549
  482SOL     OW 3213   8.488   4.907   7.146  0.0611  0.5133  0.6945
  482SOL    HW1 3214   8.525   4.885   7.060  0.9997  1.8692  0.7315
  482SOL    HW2 3215   8.396   4.929   7.127 -0.7306 -2.4805  0.5499
  483SOL     OW 3216   2.533   6.723   8.651 -0.1139 -0.5766 -0.1635
  483SOL    HW1 3217   2.594   6.725   8.724  0.1326 -0.7896 -0.3626
  483SOL    HW2 3218   2.560   6.648   8.599  0.2156  0.0460 -0.9072
  484SOL     OW 3219   2.121   8.813   2.249 -0.2027 -0.2734  0.0144
  484SOL    HW1 3220   2.140   8.823   2.342  2.3633  0.3082 -0.4974
  484SOL    HW2 3221   2.102   8.719   2.238  1.8353 -0.8186  0.7809
  485SOL     OW 3222   7.912   7.581   1.811 -0.0712  0.4979  0.0641
  485SOL    HW1 3223   7.879   7.524   1.881  0.4841 -1.3243 -1.0857
  485SOL    HW2 3224   7.923   7.522   1.736 -0.2422  2.3116 -1.4399
  486SOL     OW 3225   3.262   3.930   7.103 -0.1368 -0.0988 -0.1702
  486SOL    HW1 3226   3.166   3.924   7.097 -0.2983 -0.2548  1.8250
  486SOL    HW2 3227   3.293   3.845   7.070 -0.7139 -0.2184 -0.4277
  487SOL     OW 3228   6.907   3.748   4.469 -0.6710 -0.3334 -0.2587
  487SOL    HW1 3229   6.978   3.812   4.469 -0.8245 -0.1559 -1.1072
  487SOL    HW2 3230   6.950   3.665   4.450 -0.5981 -0.3351 -0.0894
  488SOL     OW 3231   5.196   3.349   1.792  0.3658  0.4511 -0.5748
  488SOL    HW1 3232   5.135   3.403   1.742 -0.1548  0.4992  0.1015
  488SOL    HW2 3233   5.273   3.341   1.736 -0.4492 -0.0184 -1.6387
  489SOL     OW 3234   0.387   1.996   8.887 -0.2136  0.1069 -0.7174
  489SOL    HW1 3235   0.328   1.994   8.962  0.4589  1.3808 -0.1204
  489SOL    HW2 3236   0.427   2.083   8.890 -0.5431  0.3907 -2.8487
  490SOL     OW 3237   8.192   2.386   7.379  0.0169  0.1043 -0.4510
  490SOL    HW1 3238   8.247   2.391   7.458  0.3588 -2.4189 -0.4380
  490SOL    HW2 3239   8.184   2.476   7.350  0.7549  1.0051  1.8765
  491SOL     OW 3240   0.454   0.806   4.809 -0.3325 -0.3373  0.5351
  491SOL    HW1 3241   0.464   0.724   4.761  1.9956  0.6370 -0.8305
  491SOL    HW2 3242   0.379   0.849   4.768 -0.3257 -0.9182 -0.1118
  492SOL     OW 3243   1.395   2.761   1.068  0.3310  0.2072  0.1900
  492SOL    HW1 3244   1.311   2.790   1.032  1.1697  1.5978 -0.7181
  492SOL    HW2 3245   1.379   2.754   1.163 -1.1619 -0.9064 -0.1085
  493SOL     OW 3246   4.107   7.148   8.220  0.2046 -0.0778  0.1056
  493SOL    HW1 3247   4.071   7.102   8.144  0.4583 -0.5364  0.2594
  493SOL    HW2 3248   4.119   7.080   8.286 -0.1823  0.3418  0.6238
  494SOL     OW 3249   9.102   7.311   3.178  0.4625 -0.0818 -0.3164
  494SOL    HW1 3250   9.099   7.216   3.190  1.2877 -0.1974 -0.9400
  494SOL    HW2 3251   9.038   7.328   3.109  1.8826 -0.4846 -1.8032
  495SOL     OW 3252   5.659   8.231   5.755 -0.0678  0.3430  0.6541
  495SOL    HW1 3253   5.752   8.250   5.752  0.3095 -1.2948  1.1151
  495SOL    HW2 3254   5.627   8.255   5.667  1.0998 -0.5760 -0.0490
  496SOL     OW 3255   3.415   1.962   3.114  0.0075 -0.0935  0.7879
  496SOL    HW1 3256   3.386   1.877   3.145  0.3039 -0.4085  0.2151
  496SOL    HW2 3257   3.496   1.944   3.067  0.2252  0.5443  0.9031
  497SOL     OW 3258   6.485   0.187   4.201 -0.4238  0.1140  0.1607
  497SOL    HW1 3259   6.470   0.268   4.153 -0.6089 -0.1088 -0.1613
  497SOL    HW2 3260   6.404   0.137   4.189 -0.2626 -0.1693  0.2524
  498SOL     OW 3261   8.905   4.369   7.938  0.2355  0.4978 -0.2014
  498SOL    HW1 3262   8.826   4.396   7.890  0.7842  0.4586 -1.1434
  498SOL    HW2 3263   8.886   4.280   7.968  1.0124 -0.7248 -3.0032
  499SOL     OW 3264   9.056   6.261   9.013 -0.0602  0.1045 -0.6686
  499SOL    HW1 3265   8.990   6.329   9.024 -0.8676 -0.8163  0.3078
  499SOL    HW2 3266   9.119   6.277   9.084  0.0847  0.1910 -0.8141
  500SOL     OW 3267   4.305   5.842   3.259 -0.2249  0.2236  0.3501
  500SOL    HW1 3268   4.301   5.836   3.164 -0.0998 -0.1648  0.3684
  500SOL    HW2 3269   4.320   5.935   3.276  1.6587  0.0496 -0.0871
  501SOL     OW 3270   9.607   8.521   1.211  0.2617 -0.0668 -0.2867
  501SOL    HW1 3271   9.571   8.435   1.193  0.0128 -0.1647  0.6152
  501SOL    HW2 3272   9.580   8.540   1.301  0.7714  0.7148 -0.2859
  502SOL     OW 3273   9.203   0.418   0.947 -0.0460 -0.1189 -0.7999
  502SOL    HW1 3274   9.159   0.337   0.975  0.6854  0.0132  0.8327
  502SOL    HW2 3275   9.287   0.417   0.993 -0.3031  1.9079 -0.1978
  503SOL     OW 3276   9.738   3.472   4.774  0.0917 -0.6252  0.6844
  503SOL    HW1 3277   9.682   3.428   4.710  0.5501  0.0755 -0.2075
  503SOL    HW2 3278   9.724   3.423   4.855 -0.8744 -1.2150  0.1778
  504SOL     OW 3279   1.387   7.345   5.670  0.3302 -0.5763 -0.4185
  504SOL    HW1 3280   1.432   7.266   5.702  0.9633  0.4602  1.3873
  504SOL    HW2 3281   1.429   7.417   5.717 -0.7093  0.7864 -1.5142
  505SOL     OW 3282   2.774   1.789   3.255  0.4357  0.2387 -0.4748
  505SOL    HW1 3283   2.704   1.829   3.306 -0.5516 -1.3176 -0.5554
  505SOL    HW2 3284   2.811   1.723   3.313  1.5517  0.7220 -0.6066
  506SOL     OW 3285   4.695   8.407   9.352 -0.4795 -0.5300  0.4014
  506SOL    HW1 3286   4.662   8.375   9.436 -1.9764  1.4672  0.6434
  506SOL    HW2 3287   4.678   8.501   9.353  0.3597 -0.2906 -1.7494
  507SOL     OW 3288   5.554   8.551   1.552  0.2888  0.6885 -0.2638
  507SOL    HW1 3289   5.527   8.641   1.533 -1.3360  0.1445 -0.7032
  507SOL    HW2 3290   5.618   8.560   1.622 -1.1060  2.0879  0.8976
  508SOL     OW 3291   3.708   1.293   5.934 -0.2697 -0.0079  0.2600
  508SOL    HW1 3292   3.720   1.361   6.000 -1.2610  0.3498  0.1025
  508SOL    HW2 3293   3.662   1.337   5.863 -2.5705 -1.2139  0.8941
  509SOL     OW 3294   5.113   3.374   0.576  0.0227 -0.0494 -0.3899
  509SOL    HW1 3295   5.050   3.335   0.637  0.0913 -0.2751 -0.4628
  509SOL    HW2 3296   5.161   3.437   0.629 -0.0296 -0.1269 -0.2498
  510SOL     OW 3297   3.367   5.862   7.837 -0.0153  0.1177  0.0398
  510SOL    HW1 3298   3.305   5.910   7.783  0.2400  0.0486 -0.3225
  510SOL    HW2 3299   3.447   5.915   7.835  0.0595  0.0133  0.1882
  511SOL     OW 3300   4.889   5.726   8.286  0.0029 -0.3556 -0.1747
  511SOL    HW1 3301   4.837   5.741   8.207 -0.9064 -2.5214 -0.0417
  511SOL    HW2 3302   4.965   5.675   8.255  2.5004  3.1377 -0.4626
  512SOL     OW 3303   2.095   2.460   8.458  0.3283 -0.8313 -0.4253
  512SOL    HW1 3304   2.038   2.455   8.381 -0.1740  0.7747 -0.1776
  512SOL    HW2 3305   2.056   2.527   8.514  2.3096  0.1844 -0.1529
  513SOL     OW 3306   5.241   6.642   9.634 -0.8768  0.2896 -0.3202
  513SOL    HW1 3307   5.235   6.623   9.540 -0.3673  0.5534 -0.4067
  513SOL    HW2 3308   5.151   6.631   9.666 -1.1651  0.7479 -0.9456
  514SOL     OW 3309   2.357   3.755   5.058 -0.0126 -0.3551  0.4806
  514SOL    HW1 3310   2.439   3.746   5.106 -1.0137  1.6652  2.7793
  514SOL    HW2 3311   2.373   3.826   4.996  0.6435 -1.5616 -0.7787
  515SOL     OW 3312   4.888   0.348   1.704  0.0155  0.6305 -0.0770
  515SOL    HW1 3313   4.794   0.344   1.684  0.0755  0.4019 -0.3123
  515SOL    HW2 3314   4.927   0.393   1.629 -0.0269  1.5587  0.4420
  516SOL     OW 3315   7.284   2.893   9.818 -0.3249  0.4434 -0.2577
  516SOL    HW1 3316   7.336   2.941   9.883 -0.7171  1.7222 -0.8396
  516SOL    HW2 3317   7.223   2.841   9.870  1.4740 -1.0746  0.4378
  517SOL     OW 3318   1.307   4.065   4.816  0.3785 -0.0102 -0.4584
  517SOL    HW1 3319   1.260   4.018   4.885  2.3712 -1.0235  0.2924
  517SOL    HW2 3320   1.244   4.128   4.782 -0.3693  1.3885  3.1009
  518SOL     OW 3321   1.268   1.553   7.908  0.2381  0.1759  0.3992
  518SOL    HW1 3322   1.317   1.635   7.909  1.5862 -0.5376 -0.9560
  518SOL    HW2 3323   1.275   1.519   7.997 -0.5531  1.6278  1.0356
  519SOL     OW 3324   2.985   8.242   6.966  0.3787 -0.3302 -0.5648
  519SOL    HW1 3325   3.064   8.289   6.937  0.3666  0.0994  0.0903
  519SOL    HW2 3326   3.001   8.151   6.940  0.8632 -0.1578 -0.8958
  520SOL     OW 3327   3.368   8.576   1.481  0.7571 -0.3503  0.0530
  520SOL    HW1 3328   3.319   8.627   1.416 -0.5508 -1.9579 -0.2974
  520SOL    HW2 3329   3.317   8.584   1.561 -0.5824 -2.6619 -0.5073
  521SOL     OW 3330   7.480   6.243   7.997  0.2663 -0.1314 -0.8369
  521SOL    HW1 3331   7.541   6.314   7.978 -0.0408  0.3222 -0.1197
  521SOL    HW2 3332   7.400   6.286   8.025  0.5060 -0.7423  0.9440
  522SOL     OW 3333   2.487   8.989   0.036 -0.8119  0.1947 -0.0189
  522SOL    HW1 3334   2.405   9.017   0.076  0.0992  0.5987  1.6568
  522SOL    HW2 3335   2.530   9.071   0.012 -1.9903 -0.0207 -3.4037
  523SOL     OW 3336   0.314   5.005   7.957  0.2977 -0.4924  0.0037
  523SOL    HW1 3337   0.281   4.916   7.953  0.5379 -0.5824 -0.0200
  523SOL    HW2 3338   0.342   5.024   7.867  1.0349 -0.7016  0.1824
  524SOL     OW 3339   0.183   7.424   1.794  0.2893 -0.0860  0.4472
  524SOL    HW1 3340   0.152   7.472   1.871 -1.1879  0.6394 -0.5373
  524SOL    HW2 3341   0.191   7.491   1.726  0.9184 -0.8167 -0.2166
  525SOL     OW 3342   5.897   7.757   3.889 -0.1437  0.0066  0.0900
  525SOL    HW1 3343   5.838   7.829   3.863 -0.4033  0.4266  1.7108
  525SOL    HW2 3344   5.841   7.680   3.890 -0.0700 -0.0634 -0.8141
  526SOL     OW 3345   3.472   8.972   0.573  0.5812  0.0265 -0.3610
  526SOL    HW1 3346   3.457   9.067   0.564  0.6189  0.2769  1.8491
  526SOL    HW2 3347   3.559   8.958   0.534 -0.2995  0.4977 -2.6465
  527SOL     OW 3348   5.602   4.904   6.978  0.4736 -0.2853  0.2930
  527SOL    HW1 3349   5.614   4.823   6.929  1.6121 -1.0001  1.6777
  527SOL    HW2 3350   5.682   4.913   7.030  0.6290  2.0329 -0.2409
  528SOL     OW 3351   6.977   2.909   7.514 -0.5825  0.3294 -0.3918
  528SOL    HW1 3352   7.053   2.851   7.520  0.2969  1.2405 -1.9961
  528SOL    HW2 3353   6.912   2.870   7.572  0.6382 -1.2071  0.0046
  529SOL     OW 3354   3.932   4.103   1.465 -0.1479  0.2306  0.6490
  529SOL    HW1 3355   4.023   4.086   1.491 -0.2153  0.8663  1.3653
  529SOL    HW2 3356   3.933   4.098   1.370  0.2333 -1.6653  0.7108
  530SOL     OW 3357   9.648   9.086   3.515 -0.3724  0.5661 -0.0000
  530SOL    HW1 3358   9.675   9.153   3.452 -0.7947  0.9303  0.2035
  530SOL    HW2 3359   9.658   9.004   3.467 -0.5526  0.8253 -0.5006
  531SOL     OW 3360   2.095   6.937   3.757 -0.0074  0.3914 -0.3307
  531SOL    HW1 3361   2.113   7.006   3.693 -0.5420 -0.8386 -1.8791
  531SOL    HW2 3362   2.006   6.908   3.737 -0.4014  0.3218  1.3506
  532SOL     OW 3363   2.929   2.927   1.527 -0.5453  0.0577  0.4704
  532SOL    HW1 3364   3.006   2.961   1.572 -0.2689  1.8054 -1.2130
  532SOL    HW2 3365   2.867   2.908   1.597  0.9432 -0.2017  1.7670
  533SOL     OW 3366   0.106   9.600   2.067  0.0832 -0.1412 -0.1205
  533SOL    HW1 3367   0.172   9.617   1.999 -0.9647 -0.0861 -1.1487
  533SOL    HW2 3368   0.126   9.665   2.135  0.3299  0.7042 -0.9704
  534SOL     OW 3369   0.460   3.490   3.713 -0.6257  0.6268 -0.4614
  534SOL    HW1 3370   0.424   3.467   3.799  2.0805 -0.6640  0.4393
  534SOL    HW2 3371   0.406   3.440   3.651 -0.3119 -1.4445  0.8324
  535SOL     OW 3372   2.979   3.354   1.135 -0.3027  0.0094 -0.3474
  535SOL    HW1 3373   3.008   3.343   1.044  0.7443 -0.2938  0.0077
  535SOL    HW2 3374   2.966   3.449   1.145  0.6224  0.1646 -0.5167
  536SOL     OW 3375   0.794   4.547   3.759  0.1350 -0.5972 -0.0579
  536SOL    HW1 3376   0.730   4.615   3.740 -0.1491 -0.3054  1.7892
  536SOL    HW2 3377   0.854   4.548   3.684 -1.1725  0.1045 -1.1285
  537SOL     OW 3378   2.843   1.772   1.833 -0.7168  0.5105  0.3393
  537SOL    HW1 3379   2.885   1.716   1.898 -2.1638 -0.6977  0.2830
  537SOL    HW2 3380   2.774   1.818   1.881 -1.3069  0.1711 -0.1667
  538SOL     OW 3381   5.266   4.063   6.128 -0.4664  0.4613 -0.0757
  538SOL    HW1 3382   5.258   4.152   6.160  0.1783  0.8042 -0.8398
  538SOL    HW2 3383   5.235   4.067   6.037 -0.7567 -0.1597 -0.0081
  539SOL     OW 3384   0.991   2.470   5.121 -0.0573  0.3380  0.0759
  539SOL    HW1 3385   1.084   2.463   5.145 -0.0239  1.0450  0.1728
  539SOL    HW2 3386   0.951   2.515   5.196  0.1683  3.2065 -1.3863
  540SOL     OW 3387   2.272   0.641   2.267 -0.6343  0.0525 -0.1224
  540SOL    HW1 3388   2.262   0.546   2.268 -0.2353 -0.0473 -1.8051
  540SOL    HW2 3389   2.360   0.655   2.232  0.4216  1.0358  2.6448
  541SOL     OW 3390   0.303   4.430   3.833  0.7067  0.0784  0.1036
  541SOL    HW1 3391   0.246   4.419   3.910  1.1683 -0.0671  0.4323
  541SOL    HW2 3392   0.303   4.525   3.818  1.2848  0.2038  0.8131
  542SOL     OW 3393   8.701   1.466   8.994 -0.0758 -0.1363 -0.5828
  542SOL    HW1 3394   8.793   1.495   8.997  0.0928 -0.6973  1.6945
  542SOL    HW2 3395   8.672   1.471   9.085 -2.5718  0.7409 -1.3552
  543SOL     OW 3396   7.356   9.423   5.385 -0.3327 -0.3454 -0.0342
  543SOL    HW1 3397   7.277   9.459   5.342  0.5144  2.5409  0.6087
  543SOL    HW2 3398   7.426   9.437   5.321  0.0588 -0.7426  0.3069
  544SOL     OW 3399   8.234   7.604   0.288  0.3371 -0.4271 -0.4490
  544SOL    HW1 3400   8.280   7.674   0.242 -0.7367  0.0999 -0.7564
  544SOL    HW2 3401   8.230   7.633   0.379 -3.0293  1.6352 -1.0784
  545SOL     OW 3402   3.391   5.778   5.972  0.0438  0.2425  0.0087
  545SOL    HW1 3403   3.397   5.727   5.891 -0.6944  2.0065 -1.1967
  545SOL    HW2 3404   3.426   5.719   6.040  1.1982 -1.0765 -1.6551
  546SOL     OW 3405   7.904   8.008   8.077 -0.7759 -0.0294 -0.0450
  546SOL    HW1 3406   7.820   7.983   8.038 -0.9459  0.6248 -0.1125
  546SOL    HW2 3407   7.969   7.985   8.010 -0.7715 -1.5795  0.4497
  547SOL     OW 3408   3.483   5.234   7.880  0.3024 -0.7323 -0.2637
  547SOL    HW1 3409   3.540   5.240   7.957  1.0386  1.2182 -0.8947
  547SOL    HW2 3410   3.434   5.153   7.893  1.3403 -1.1287  1.6021
  548SOL     OW 3411   0.086   3.268   4.908 -0.6504 -0.3393 -0.6092
  548SOL    HW1 3412  -0.004   3.240   4.926 -0.2579 -0.3193  1.8422
  548SOL    HW2 3413   0.129   3.265   4.994  1.2365  1.2640 -1.4167
  549SOL     OW 3414   7.782   9.194   8.996  0.1934  0.2095  0.3458
  549SOL    HW1 3415   7.854   9.137   9.024  0.0530  0.3389  0.9876
  549SOL    HW2 3416   7.740   9.220   9.078 -2.0501 -1.7548 -0.0737
  550SOL     OW 3417   0.305   2.135   7.744  0.1155 -0.1236  0.3636
  550SOL    HW1 3418   0.308   2.229   7.761  0.8152  0.0182 -0.4996
  550SOL    HW2 3419   0.355   2.123   7.663 -0.8800 -1.1092 -0.1238
  551SOL     OW 3420   6.302   7.636   4.691 -0.6453  0.4389  0.4591
  551SOL    HW1 3421   6.338   7.722   4.711  1.9944 -0.4143 -0.1608
  551SOL    HW2 3422   6.339   7.578   4.758 -1.8266 -0.3619  0.4675
  552SOL     OW 3423   2.482   5.817   0.435 -0.0820 -0.0898  0.8721
  552SOL    HW1 3424   2.421   5.795   0.505  0.3179 -1.0919  0.9227
  552SOL    HW2 3425   2.442   5.781   0.356 -0.8600  1.6188  0.4493
  553SOL     OW 3426   8.394   1.525   9.411  0.2422  0.3273  0.6530
  553SOL    HW1 3427   8.387   1.576   9.492 -2.4953 -2.1148  2.1524
  553SOL    HW2 3428   8.338   1.571   9.349  0.6414  1.0442  0.8075
  554SOL     OW 3429   3.537   2.791   6.936  0.9266  0.0552 -0.1024
  554SOL    HW1 3430   3.496   2.750   6.859 -1.2655  1.8958 -0.0293
  554SOL    HW2 3431   3.533   2.724   7.003 -1.0685 -0.2411 -0.4443
  555SOL     OW 3432   9.636   6.131   7.834  0.1079 -0.3670  0.0508
  555SOL    HW1 3433   9.622   6.134   7.739  1.1893 -0.4202 -0.1294
  555SOL    HW2 3434   9.714   6.185   7.848  1.1057 -1.8797  0.6584
  556SOL     OW 3435   2.406   6.858   1.282 -0.1619  0.0500  0.4459
  556SOL    HW1 3436   2.350   6.915   1.229  0.1065  0.2548  0.3803
  556SOL    HW2 3437   2.436   6.791   1.221 -0.5807 -0.2387  0.5529
  557SOL     OW 3438   6.094   4.055   9.287  0.3557 -0.0299 -0.0278
  557SOL    HW1 3439   6.072   3.975   9.334 -1.2419 -1.4340 -2.8927
  557SOL    HW2 3440   6.188   4.049   9.273  0.3807 -1.0425  0.4504
  558SOL     OW 3441   5.287   2.556   6.661  0.5462  0.5286 -0.1026
  558SOL    HW1 3442   5.237   2.510   6.594  0.3968  0.9921 -0.3146
  558SOL    HW2 3443   5.378   2.546   6.635  0.5948 -0.5199  0.4114
  559SOL     OW 3444   5.517   8.520   4.665 -0.7046 -0.2599  1.2010
  559SOL    HW1 3445   5.534   8.610   4.691 -2.9373  1.1629 -1.7341
  559SOL    HW2 3446   5.597   8.494   4.619  0.0260  0.1118  2.2203
  560SOL     OW 3447   5.833   2.438   6.634  0.1954 -0.4087 -0.4032
  560SOL    HW1 3448   5.790   2.506   6.583  2.2154 -0.1521 -1.8780
  560SOL    HW2 3449   5.902   2.405   6.576  1.7100 -1.0678  1.6740
  561SOL     OW 3450   2.443   1.997   8.718  0.2544  0.6532  0.2075
  561SOL    HW1 3451   2.518   1.980   8.775  0.3749 -0.0687 -0.1389
  561SOL    HW2 3452   2.368   1.960   8.765  0.1074  1.3968  0.5643
  562SOL     OW 3453   4.475   0.477   0.388 -0.4811 -0.2524  0.3099
  562SOL    HW1 3454   4.534   0.417   0.434 -2.4219 -1.4875  1.3168
  562SOL    HW2 3455   4.473   0.445   0.298 -1.2807 -1.6124  0.7725
  563SOL     OW 3456   2.548   7.367   6.776 -0.5326  0.1773 -0.0895
  563SOL    HW1 3457   2.596   7.340   6.698 -0.3506  1.2206 -0.3479
  563SOL    HW2 3458   2.562   7.295   6.838 -1.5670 -1.1623 -1.3508
  564SOL     OW 3459   7.061   4.871   2.137  0.3689  0.0325 -0.6702
  564SOL    HW1 3460   7.127   4.898   2.201  0.1614  1.9422 -1.2176
  564SOL    HW2 3461   7.059   4.775   2.144  1.5821  0.0846  0.9374
  565SOL     OW 3462   1.616   2.534   0.581 -0.5033 -0.4834  0.0111
  565SOL    HW1 3463   1.572   2.548   0.665  0.7473 -2.2956  1.0265
  565SOL    HW2 3464   1.677   2.608   0.574 -1.2318  0.1589  0.2565
  566SOL     OW 3465   6.551   6.456   8.056  0.0595 -0.4652 -0.5910
  566SOL    HW1 3466   6.531   6.434   7.965 -0.8797 -0.6591 -0.3507
  566SOL    HW2 3467   6.644   6.435   8.067  0.2276 -0.2604 -1.5526
  567SOL     OW 3468   6.668   6.612   9.157  0.0329 -0.3788 -0.3571
  567SOL    HW1 3469   6.662   6.556   9.235  0.0417  1.7680  1.2652
  567SOL    HW2 3470   6.578   6.640   9.141  0.1388 -0.2260 -0.6806
  568SOL     OW 3471   1.114   6.920   8.192  0.0220 -0.4449 -0.0261
  568SOL    HW1 3472   1.035   6.953   8.149  0.7469 -0.1805 -1.2058
  568SOL    HW2 3473   1.142   6.847   8.138  2.1740  1.2337 -1.3485
  569SOL     OW 3474   5.110   4.860   2.272 -0.0183 -0.4373 -0.5818
  569SOL    HW1 3475   5.084   4.915   2.345  0.0653 -0.3713 -0.6014
  569SOL    HW2 3476   5.190   4.815   2.302 -0.9953 -1.8265  0.0620
  570SOL     OW 3477   0.054   6.741   7.102  0.2495 -0.2643 -0.1624
  570SOL    HW1 3478   0.083   6.830   7.120 -0.8129  0.1278 -0.3111
  570SOL    HW2 3479   0.024   6.744   7.011 -1.9890 -0.1541  0.5294
  571SOL     OW 3480   6.267   1.606   1.713 -0.5784 -0.1455  0.0606
  571SOL    HW1 3481   6.179   1.583   1.685 -1.6422  3.1008  0.3341
  571SOL    HW2 3482   6.308   1.643   1.636 -0.5652  1.1319  0.6544
  572SOL     OW 3483   1.063   1.393   4.448 -0.0980 -0.0819  0.2600
  572SOL    HW1 3484   1.140   1.381   4.393 -1.4713  0.2427 -1.8392
  572SOL    HW2 3485   1.017   1.310   4.445 -0.6868  0.2417  0.0994
  573SOL     OW 3486   9.445   3.562   3.256 -0.3825 -0.1218 -0.2098
  573SOL    HW1 3487   9.481   3.475   3.274 -0.1763 -0.0324 -0.1836
  573SOL    HW2 3488   9.435   3.564   3.161  2.6098  0.9588 -0.6017
  574SOL     OW 3489   8.964   3.355   3.660 -0.2407 -0.3335  0.0705
  574SOL    HW1 3490   8.911   3.275   3.664 -0.7494  0.0107  0.3779
  574SOL    HW2 3491   9.001   3.363   3.748  0.6707 -0.7971 -0.2606
  575SOL     OW 3492   8.487   6.583   0.399 -0.7412  0.7430 -0.2073
  575SOL    HW1 3493   8.502   6.664   0.350  1.1866  0.2976 -0.4262
  575SOL    HW2 3494   8.544   6.591   0.476  0.3504 -0.8658 -0.8071
  576SOL     OW 3495   0.983   2.379   6.143 -0.1997  0.0159  0.0419
  576SOL    HW1 3496   0.999   2.349   6.053 -1.0035 -0.1916 -0.0371
  576SOL    HW2 3497   0.905   2.331   6.171  0.7951 -0.9256  1.3297
  577SOL     OW 3498   1.805   3.557   0.627  0.7733  0.8560  0.3402
  577SOL    HW1 3499   1.841   3.562   0.715 -1.8429  0.0839  1.5640
  577SOL    HW2 3500   1.761   3.471   0.624  0.5054  1.0094 -1.5892
  578SOL     OW 3501   5.228   9.755   2.240  0.2813 -0.2670 -0.1496
  578SOL    HW1 3502   5.280   9.694   2.188 -0.7829 -0.9882 -0.3819
  578SOL    HW2 3503   5.276   9.838   2.235  1.3047 -0.8665 -0.5070
  579SOL     OW 3504   1.407   4.850   7.673 -0.0141  0.1042  0.4602
  579SOL    HW1 3505   1.417   4.824   7.581 -0.7101 -0.1829  0.4550
  579SOL    HW2 3506   1.467   4.923   7.684  0.6469 -0.3496 -0.0186
  580SOL     OW 3507   6.480   9.398   0.464 -0.5147  0.0051 -0.1164
  580SOL    HW1 3508   6.551   9.334   0.467 -1.5883 -1.1865  1.0095
  580SOL    HW2 3509   6.511   9.466   0.403  1.1605 -0.9584 -0.3878
  581SOL     OW 3510   5.646   6.073   8.253 -0.0830  0.2480  0.3111
  581SOL    HW1 3511   5.708   6.136   8.215  0.4101 -0.8039 -0.6985
  581SOL    HW2 3512   5.596   6.040   8.178 -1.7954  0.9492  1.0901
  582SOL     OW 3513   2.128   6.203   3.720  0.4655  0.4169 -0.0855
  582SOL    HW1 3514   2.046   6.226   3.764  0.5410  0.7199 -0.0952
  582SOL    HW2 3515   2.128   6.257   3.641  0.3361 -0.1180 -0.4523
  583SOL     OW 3516   4.805   9.845   8.616 -0.3461 -0.3694 -0.4399
  583SOL    HW1 3517   4.847   9.926   8.647 -0.0254  0.5915 -3.1233
  583SOL    HW2 3518   4.858   9.818   8.541 -1.7542 -1.8337 -0.9656
  584SOL     OW 3519   2.477   5.269   0.868  0.1386 -0.1681  0.5720
  584SOL    HW1 3520   2.409   5.265   0.935  0.6724 -2.0825  1.0575
  584SOL    HW2 3521   2.502   5.362   0.864 -1.6126  0.3660  1.2507
  585SOL     OW 3522   2.006   4.869   2.106  0.2428 -0.2230  0.2066
  585SOL    HW1 3523   2.086   4.862   2.054 -0.3737 -3.1863 -0.5067
  585SOL    HW2 3524   1.935   4.852   2.044 -0.6812 -1.2585  1.4873
  586SOL     OW 3525   5.067   7.542   2.675 -0.0350 -0.2143 -0.3407
  586SOL    HW1 3526   5.053   7.496   2.592 -1.9300 -0.6703  0.1836
  586SOL    HW2 3527   5.077   7.634   2.650 -1.0705 -0.2788 -1.0475
  587SOL     OW 3528   4.367   3.859   7.459  0.0597  0.2273 -0.3324
  587SOL    HW1 3529   4.342   3.803   7.385 -1.4847  0.8712 -0.3421
  587SOL    HW2 3530   4.322   3.820   7.535  1.2975 -0.1888  0.2143
  588SOL     OW 3531   6.583   9.556   5.933 -0.1402  0.0608 -0.2806
  588SOL    HW1 3532   6.535   9.478   5.960  1.1114 -0.1840  1.3695
  588SOL    HW2 3533   6.640   9.525   5.862 -0.4722 -0.2377 -0.4264
  589SOL     OW 3534   1.310   5.419   8.708 -0.4111 -0.5776  0.3176
  589SOL    HW1 3535   1.231   5.364   8.714 -0.4691 -0.4987  0.2801
  589SOL    HW2 3536   1.276   5.507   8.693 -0.3246 -1.0184 -3.8049
  590SOL     OW 3537   3.590   1.335   8.838  0.9307  0.3694 -0.0411
  590SOL    HW1 3538   3.585   1.240   8.850  2.6503  0.0945 -1.1077
  590SOL    HW2 3539   3.580   1.371   8.926 -2.6127 -0.5626  0.1153
  591SOL     OW 3540   5.116   3.277   1.160 -0.5139 -0.3054 -0.2806
  591SOL    HW1 3541   5.161   3.254   1.078 -0.5625  0.4629 -0.5318
  591SOL    HW2 3542   5.186   3.308   1.217 -0.2802 -2.0776  0.4601
  592SOL     OW 3543   2.979   0.426   2.605  0.3390 -0.0584 -0.0787
  592SOL    HW1 3544   2.917   0.444   2.676  0.2326 -1.5746  0.2550
  592SOL    HW2 3545   2.999   0.332   2.614  0.2557 -0.3076 -2.0985
  593SOL     OW 3546   1.078   0.213   0.620 -0.0106 -0.2163  0.0998
  593SOL    HW1 3547   1.168   0.207   0.651 -0.6379  1.4134  2.5285
  593SOL    HW2 3548   1.075   0.297   0.573 -0.3503 -0.0509  0.4119
  594SOL     OW 3549   8.276   1.965   0.282  0.0746  0.2316 -0.0672
  594SOL    HW1 3550   8.254   1.885   0.233  1.3576 -0.1416 -0.0818
  594SOL    HW2 3551   8.252   1.945   0.372 -0.2486  0.0861 -0.1843
  595SOL     OW 3552   4.194   2.634   3.227  0.2861  0.0026 -0.2900
  595SOL    HW1 3553   4.111   2.620   3.182  0.2832 -0.3260 -0.1821
  595SOL    HW2 3554   4.222   2.721   3.199 -0.9552  0.8576  1.0047
  596SOL     OW 3555   1.032   8.545   0.848  0.0418  0.3340  0.0258
  596SOL    HW1 3556   1.119   8.570   0.880  0.2521  0.5004 -0.6634
  596SOL    HW2 3557   1.026   8.583   0.760 -0.7265  0.3219  0.0582
  597SOL     OW 3558   5.445   4.612   2.079  0.2147 -0.1197  0.2131
  597SOL    HW1 3559   5.481   4.549   2.141  0.6230 -0.2752 -0.1760
  597SOL    HW2 3560   5.354   4.621   2.104  0.1444 -0.8914  0.2566
  598SOL     OW 3561   0.908   7.434   2.251 -0.0752 -0.4788 -0.0080
  598SOL    HW1 3562   1.002   7.419   2.262  0.0432  0.2145 -0.0316
  598SOL    HW2 3563   0.868   7.396   2.329  0.3321  0.1942  0.5425
  599SOL     OW 3564   1.795   3.453   7.165 -0.5652 -0.2162 -0.1428
  599SOL    HW1 3565   1.887   3.432   7.153 -1.0363 -2.6910 -0.0121
  599SOL    HW2 3566   1.774   3.421   7.253 -1.7818 -0.7421 -0.5946
  600SOL     OW 3567   8.294   4.468   5.191 -0.7256 -0.4654  0.5171
  600SOL    HW1 3568   8.384   4.434   5.189 -0.5026  0.1518 -0.1590
  600SOL    HW2 3569   8.246   4.403   5.241  0.2357 -0.4743  1.4708
  601SOL     OW 3570   4.450   6.746   2.366 -0.1195 -0.5789  0.1698
  601SOL    HW1 3571   4.515   6.761   2.435 -0.0067 -0.2720  0.0010
  601SOL    HW2 3572   4.372   6.715   2.412 -0.5318  0.9918  0.6172
  602SOL     OW 3573   2.689   3.839   2.438  0.7598  0.3347 -0.4386
  602SOL    HW1 3574   2.742   3.915   2.461 -0.1625  0.7538  0.3647
  602SOL    HW2 3575   2.635   3.868   2.364 -0.4005  0.8597  0.5735
  603SOL     OW 3576   0.446   1.432   1.761  0.0333  0.5913  0.3240
  603SOL    HW1 3577   0.456   1.343   1.794  1.8917  0.8238  0.4696
  603SOL    HW2 3578   0.497   1.486   1.821 -0.3978  1.6465 -0.2320
  604SOL     OW 3579   0.347   1.797   8.460 -0.3145 -0.6329 -0.6438
  604SOL    HW1 3580   0.404   1.822   8.532 -2.3700 -1.2308  1.2923
  604SOL    HW2 3581   0.393   1.725   8.417  0.9652 -0.2459  0.0109
  605SOL     OW 3582   9.355   7.674   2.080 -0.0965  0.5199  0.5475
  605SOL    HW1 3583   9.327   7.606   2.142  1.2622 -1.6002 -1.0073
  605SOL    HW2 3584   9.274   7.715   2.051 -0.8706  0.4945  2.5061
  606SOL     OW 3585   0.167   6.751   1.833  0.4184 -0.0266 -0.0234
  606SOL    HW1 3586   0.225   6.805   1.779 -0.5272 -0.5451 -1.6397
  606SOL    HW2 3587   0.184   6.661   1.804  0.7078 -0.4501  1.3908
  607SOL     OW 3588   5.208   3.402   5.167  0.1731  0.5233 -0.2211
  607SOL    HW1 3589   5.226   3.496   5.171 -2.8627  1.1897  0.1903
  607SOL    HW2 3590   5.191   3.384   5.075 -0.3076  0.6405 -0.1602
  608SOL     OW 3591   8.475   8.862   8.473 -0.3420  0.1591  0.2040
  608SOL    HW1 3592   8.536   8.819   8.533  0.4522 -1.5877 -1.7150
  608SOL    HW2 3593   8.522   8.866   8.389 -2.3438 -0.0086 -1.0040
  609SOL     OW 3594   2.855   5.048   2.354  0.2553  0.4632  0.5444
  609SOL    HW1 3595   2.907   5.064   2.276 -0.2741  1.4525  0.3767
  609SOL    HW2 3596   2.802   4.971   2.333 -0.0640  0.8693 -0.1624
  610SOL     OW 3597   7.924   8.270   3.085  0.1578 -0.3884  0.5346
  610SOL    HW1 3598   7.890   8.201   3.028  2.1536 -2.8683  2.1128
  610SOL    HW2 3599   7.867   8.267   3.162 -1.0358  1.2576 -0.2426
  611SOL     OW 3600   3.277   9.641   6.471 -0.4541 -0.0739 -0.0499
  611SOL    HW1 3601   3.371   9.648   6.451 -0.6958 -0.3407 -1.3511
  611SOL    HW2 3602   3.256   9.549   6.452 -1.0730  0.0910 -0.1695
  612SOL     OW 3603   9.363   3.765   4.777 -1.1973 -0.1678 -0.2779
  612SOL    HW1 3604   9.336   3.679   4.744  0.1516 -0.7508  0.0830
  612SOL    HW2 3605   9.434   3.746   4.838 -0.6180  1.2488 -0.4853
  613SOL     OW 3606   6.671   2.782   2.528  0.1862 -0.3788  0.0836
  613SOL    HW1 3607   6.652   2.786   2.435  1.6507 -1.2722 -0.2946
  613SOL    HW2 3608   6.704   2.693   2.542 -0.0746 -0.2904  1.4749
  614SOL     OW 3609   9.669   9.560   0.940  0.7442  0.0294 -0.6788
  614SOL    HW1 3610   9.660   9.539   0.847 -0.3211 -2.4783 -0.0797
  614SOL    HW2 3611   9.585   9.535   0.979  0.4832  2.7250  0.7461
  615SOL     OW 3612   8.661   2.718   7.471 -0.4192 -0.3222 -0.3491
  615SOL    HW1 3613   8.639   2.800   7.429 -1.2002 -0.2893  0.0945
  615SOL    HW2 3614   8.744   2.691   7.432  0.5458  1.3537  0.4621
  616SOL     OW 3615   7.742   5.680   5.932  0.7449 -0.4186 -0.1578
  616SOL    HW1 3616   7.747   5.739   6.007  2.0826 -0.9703  0.2108
  616SOL    HW2 3617   7.693   5.604   5.964  1.5140 -0.7535  0.2318
  617SOL     OW 3618   3.159   4.058   6.455  0.2258 -0.2597  0.2263
  617SOL    HW1 3619   3.088   4.024   6.510  0.4279 -0.4301  0.3850
  617SOL    HW2 3620   3.175   4.146   6.490 -0.3553  0.0368 -0.2395
  618SOL     OW 3621   3.943   4.143   9.526 -1.3994  0.4874  0.3943
  618SOL    HW1 3622   4.018   4.195   9.556 -0.8769  1.1225 -1.8332
  618SOL    HW2 3623   3.883   4.208   9.489 -0.4290 -0.3909 -3.0792
  619SOL     OW 3624   8.646   8.004   0.807 -0.2690  0.1323 -0.3021
  619SOL    HW1 3625   8.677   7.922   0.768  1.7438  1.1624 -0.9939
  619SOL    HW2 3626   8.715   8.028   0.869 -0.1024  2.0045 -1.1491
  620SOL     OW 3627   4.874   4.402   1.275 -0.3755  0.0015  0.1530
  620SOL    HW1 3628   4.831   4.487   1.288 -1.7014 -0.5544 -0.4897
  620SOL    HW2 3629   4.821   4.340   1.325  1.7052 -0.2037  2.2676
  621SOL     OW 3630   1.988   1.536   4.987  0.3277 -0.0579  0.8954
  621SOL    HW1 3631   2.076   1.568   4.970  0.4796 -0.3655  1.0993
  621SOL    HW2 3632   1.947   1.604   5.041 -0.6073  1.5974 -1.6913
  622SOL     OW 3633   2.253   3.185   3.150  0.2244  0.1488 -0.2566
  622SOL    HW1 3634   2.245   3.224   3.063  1.1248 -0.3492 -0.5698
  622SOL    HW2 3635   2.196   3.109   3.148  0.7319 -0.2248 -0.6271
  623SOL     OW 3636   1.663   5.902   5.211 -0.4111 -0.2904  0.1502
  623SOL    HW1 3637   1.630   5.931   5.296 -1.5400 -0.0650 -0.3468
  623SOL    HW2 3638   1.758   5.897   5.223 -0.3910  1.2696  0.9664
  624SOL     OW 3639   9.594   8.530   1.502  0.1869 -0.1515 -0.1240
  624SOL    HW1 3640   9.507   8.524   1.542 -0.1729 -0.7799 -0.9621
  624SOL    HW2 3641   9.654   8.539   1.576 -0.5833  0.1768  0.4689
  625SOL     OW 3642   6.144   0.302   0.973 -0.0622 -0.6748 -0.2773
  625SOL    HW1 3643   6.153   0.395   0.955 -1.1268 -0.0546  2.0368
  625SOL    HW2 3644   6.100   0.266   0.896  0.6628  0.6365 -1.3396
  626SOL     OW 3645   0.741   6.665   7.633  0.2545  0.1084 -0.2366
  626SOL    HW1 3646   0.772   6.646   7.721 -0.1778 -0.7303 -0.2548
  626SOL    HW2 3647   0.790   6.605   7.576 -0.2279 -0.0961 -0.4443
  627SOL     OW 3648   3.741   2.447   6.722 -0.2129 -0.3864  0.6162
  627SOL    HW1 3649   3.687   2.516   6.683  1.0910  0.6682  0.6168
  627SOL    HW2 3650   3.708   2.438   6.811 -1.8646 -1.3738 -0.0417
  628SOL     OW 3651   7.070   8.511   0.834 -0.2220 -0.5060 -0.1889
  628SOL    HW1 3652   7.039   8.443   0.774 -0.5631 -1.3862  0.9511
  628SOL    HW2 3653   6.994   8.531   0.888  0.5769 -1.1133  1.2095
  629SOL     OW 3654   1.891   0.177   8.823 -0.0692 -0.5809  0.4152
  629SOL    HW1 3655   1.923   0.231   8.895  1.2295 -0.4141 -0.2651
  629SOL    HW2 3656   1.796   0.174   8.836 -0.2087  1.8457  0.5185
  630SOL     OW 3657   3.809   5.634   3.027 -0.2351 -0.1456  0.2399
  630SOL    HW1 3658   3.817   5.571   3.099  0.9935 -1.2522 -0.7989
  630SOL    HW2 3659   3.894   5.679   3.027 -0.1083 -0.3757 -0.6933
  631SOL     OW 3660   6.972   5.174   2.348 -0.2408 -0.0852 -0.1383
  631SOL    HW1 3661   7.035   5.141   2.413  0.4586 -2.2652 -1.8349
  631SOL    HW2 3662   6.887   5.145   2.380  0.2282 -2.4132 -0.8284
  632SOL     OW 3663   3.567   5.201   3.492 -0.2185 -0.1485  0.3307
  632SOL    HW1 3664   3.648   5.154   3.513  0.1782  0.7870  0.9497
  632SOL    HW2 3665   3.592   5.262   3.422 -0.9802 -1.5539 -1.2514
  633SOL     OW 3666   9.362   0.842   9.361  0.1283  0.5022 -0.0382
  633SOL    HW1 3667   9.442   0.893   9.350 -0.7496  1.8866 -0.2288
  633SOL    HW2 3668   9.325   0.835   9.273 -1.1442  1.9324  0.3359
  634SOL     OW 3669   9.818   0.899   7.000 -0.4143 -0.2189 -0.4060
  634SOL    HW1 3670   9.739   0.887   7.052 -1.8061 -0.0805 -2.3636
  634SOL    HW2 3671   9.875   0.954   7.054 -2.0147  0.4110  0.7068
  635SOL     OW 3672   2.653   6.913   0.809  0.2374 -0.4098  0.1084
  635SOL    HW1 3673   2.674   6.964   0.887  1.9854 -1.0047  0.0545
  635SOL    HW2 3674   2.560   6.929   0.795  0.3733  1.4260  1.0498
  636SOL     OW 3675   3.350   0.555   0.706  0.8922  0.2335  0.1579
  636SOL    HW1 3676   3.325   0.597   0.788  1.7182 -1.4506  1.3097
  636SOL    HW2 3677   3.306   0.470   0.708  0.0775  0.5431 -1.6580
  637SOL     OW 3678   3.017   3.788   0.492  0.2941 -0.1006 -0.3131
  637SOL    HW1 3679   2.926   3.761   0.504  0.1190  0.5582 -0.1135
  637SOL    HW2 3680   3.030   3.792   0.397 -0.0581  0.3573 -0.3453
  638SOL     OW 3681   0.403   0.401   3.849  0.2955 -0.0426  0.4766
  638SOL    HW1 3682   0.401   0.358   3.763 -1.7979  1.0877 -0.1217
  638SOL    HW2 3683   0.495   0.421   3.864  0.7521 -0.6303 -1.3323
  639SOL     OW 3684   6.722   8.875   7.556  0.1035  0.2423  0.5247
  639SOL    HW1 3685   6.772   8.922   7.489  1.1031 -0.0387  1.0496
  639SOL    HW2 3686   6.708   8.788   7.519 -2.3986  1.0935 -0.7678
  640SOL     OW 3687   5.107   1.492   5.377 -0.0048  0.1703 -0.2310
  640SOL    HW1 3688   5.019   1.471   5.407 -0.0273 -0.3547 -0.6559
  640SOL    HW2 3689   5.093   1.552   5.303 -0.0257 -0.3464 -0.6482
  641SOL     OW 3690   2.553   2.071   2.246 -0.0751 -0.0887  0.6295
  641SOL    HW1 3691   2.572   2.122   2.325  0.5126  1.9012 -0.7307
  641SOL    HW2 3692   2.636   2.072   2.197 -0.6958 -0.4500 -0.4521
  642SOL     OW 3693   8.937   8.292   4.626 -0.1297 -0.2354 -0.5061
  642SOL    HW1 3694   8.999   8.220   4.612  0.9498  0.4580  0.5344
  642SOL    HW2 3695   8.886   8.295   4.545  2.3591  0.2771 -2.2065
  643SOL     OW 3696   9.347   3.641   1.783 -0.0787 -0.4496 -0.0015
  643SOL    HW1 3697   9.339   3.735   1.767 -0.8548 -0.6469 -0.8373
  643SOL    HW2 3698   9.296   3.626   1.863 -2.5494 -0.5948 -1.4994
  644SOL     OW 3699   6.901   9.647   1.594  0.1156  0.3110 -0.2084
  644SOL    HW1 3700   6.812   9.672   1.618 -0.4870 -0.8592 -1.1429
  644SOL    HW2 3701   6.936   9.723   1.547  0.1702  1.3546  1.4371
  645SOL     OW 3702   9.292   4.860   9.370 -0.3795  0.2630 -0.1186
  645SOL    HW1 3703   9.214   4.907   9.400 -0.3110  0.2371  0.1013
  645SOL    HW2 3704   9.345   4.848   9.449 -0.7476 -0.8671 -0.0159
  646SOL     OW 3705   7.412   1.384   2.865 -0.4620 -0.1144 -0.1173
  646SOL    HW1 3706   7.445   1.371   2.776  0.2775 -1.3105  0.2978
  646SOL    HW2 3707   7.317   1.389   2.855 -0.4888 -1.5380 -0.8778
  647SOL     OW 3708   6.853   1.919   3.836  0.1121  0.4222  0.1624
  647SOL    HW1 3709   6.940   1.924   3.796 -0.6904  4.5066 -1.5582
  647SOL    HW2 3710   6.816   2.007   3.825 -4.0540 -0.9426  1.2881
  648SOL     OW 3711   4.942   7.532   0.292 -0.8460 -0.2511 -0.3702
  648SOL    HW1 3712   4.936   7.564   0.382  2.9089 -0.3768  0.1083
  648SOL    HW2 3713   4.939   7.610   0.238  1.2973  0.3545  0.2850
  649SOL     OW 3714   9.797   5.617   1.560  0.0277  0.1527 -0.6715
  649SOL    HW1 3715   9.847   5.640   1.482  0.7120  0.3368 -0.1887
  649SOL    HW2 3716   9.856   5.561   1.611  0.2571  1.4096  0.5127
  650SOL     OW 3717   8.801   4.874   4.624 -0.3597  0.5390 -0.5622
  650SOL    HW1 3718   8.841   4.947   4.672 -0.4344 -0.1747  0.6455
  650SOL    HW2 3719   8.873   4.812   4.611 -0.9045 -0.5151  1.1489
  651SOL     OW 3720   5.756   7.276   1.939 -0.4384  0.0302 -0.5850
  651SOL    HW1 3721   5.815   7.305   2.009 -2.2968  0.8943  0.7147
  651SOL    HW2 3722   5.673   7.259   1.984 -1.2031 -1.1028 -2.3483
  652SOL     OW 3723   5.061   0.665   4.697 -0.1145  0.3774  0.5503
  652SOL    HW1 3724   5.134   0.606   4.717  1.3135  1.7540 -0.3852
  652SOL    HW2 3725   4.994   0.642   4.761  0.4126 -2.1534  0.3041
  653SOL     OW 3726   1.206   6.351   9.544  0.0765 -0.2698 -0.4559
  653SOL    HW1 3727   1.278   6.324   9.602  0.5236 -0.3867 -1.0499
  653SOL    HW2 3728   1.248   6.362   9.458 -0.7357 -0.9747 -0.9646
  654SOL     OW 3729   4.967   9.069   2.130  0.3941  0.6036 -0.5558
  654SOL    HW1 3730   5.057   9.041   2.118  0.7362  1.4767 -0.0755
  654SOL    HW2 3731   4.959   9.088   2.223 -0.0097  1.4509 -0.7541
  655SOL     OW 3732   8.606   5.806   9.544  0.6047  0.0160 -0.3573
  655SOL    HW1 3733   8.641   5.841   9.626  1.0411 -0.1838 -0.4593
  655SOL    HW2 3734   8.567   5.722   9.569 -1.6287  1.1282  0.1484
  656SOL     OW 3735   5.109   8.924   7.583 -0.5825  0.4420  0.3010
  656SOL    HW1 3736   5.059   8.930   7.502  0.9270  1.1873 -0.6096
  656SOL    HW2 3737   5.103   8.832   7.608 -1.1636  0.2245 -0.5797
  657SOL     OW 3738   6.733   6.461   4.672 -0.3285  0.2882 -0.7506
  657SOL    HW1 3739   6.793   6.535   4.686 -0.9855  0.3912  2.1756
  657SOL    HW2 3740   6.674   6.491   4.602  0.7865  1.6183 -1.1769
  658SOL     OW 3741   5.986   7.481   6.772 -0.5945  0.0939 -0.2316
  658SOL    HW1 3742   6.066   7.500   6.821  0.7405 -0.4266 -2.1033
  658SOL    HW2 3743   5.980   7.553   6.708 -1.0854 -0.3639 -0.7118
  659SOL     OW 3744   8.213   4.412   5.765  0.0012 -0.3161 -0.0783
  659SOL    HW1 3745   8.151   4.484   5.768 -0.7228 -0.7614 -2.4364
  659SOL    HW2 3746   8.293   4.447   5.805 -0.3581  1.7759 -1.0714
  660SOL     OW 3747   6.268   9.154   0.734 -0.2608 -0.0302 -0.2220
  660SOL    HW1 3748   6.258   9.240   0.692 -0.8297  0.5549  1.0441
  660SOL    HW2 3749   6.326   9.171   0.809 -1.3594 -0.4621  0.7595
  661SOL     OW 3750   0.993   2.634   9.032 -0.4705  0.1056 -0.0816
  661SOL    HW1 3751   1.009   2.640   8.938  0.9380 -3.0622 -0.1741
  661SOL    HW2 3752   0.908   2.591   9.040 -0.7121  0.6117  0.1142
  662SOL     OW 3753   2.822   6.195   1.007 -1.1091  0.3531 -0.5983
  662SOL    HW1 3754   2.904   6.164   1.046 -1.8788  0.2430  0.9916
  662SOL    HW2 3755   2.796   6.125   0.947 -1.4222 -0.8635  0.9134
  663SOL     OW 3756   7.455   7.200   7.197  0.0441  0.3815  0.1915
  663SOL    HW1 3757   7.468   7.277   7.142  1.4542  0.2395  0.2998
  663SOL    HW2 3758   7.535   7.149   7.186 -0.3205 -0.4264  1.1504
  664SOL     OW 3759   0.172   6.548   3.529  0.2878  0.0602  0.1952
  664SOL    HW1 3760   0.172   6.452   3.525 -0.3768  0.0924 -0.9913
  664SOL    HW2 3761   0.265   6.572   3.527  0.4199 -0.5177 -0.9135
  665SOL     OW 3762   1.621   2.265   5.700  0.3814  0.2812 -0.2794
  665SOL    HW1 3763   1.530   2.284   5.721  0.4140  0.0930  0.0396
  665SOL    HW2 3764   1.671   2.313   5.766  0.4391 -1.9312  1.4104
  666SOL     OW 3765   0.278   8.433   2.806  0.0165 -0.2570  0.8377
  666SOL    HW1 3766   0.361   8.391   2.780  0.1436 -0.0401  0.8882
  666SOL    HW2 3767   0.222   8.361   2.835  1.3601 -0.1409  4.1463
  667SOL     OW 3768   8.625   1.439   6.743  0.3647 -0.1376 -0.3787
  667SOL    HW1 3769   8.708   1.486   6.742 -0.6130  1.7850  1.4947
  667SOL    HW2 3770   8.642   1.363   6.799  1.5054 -1.2592 -2.1300
  668SOL     OW 3771   0.469   3.425   2.302 -0.4821 -0.7992 -0.8901
  668SOL    HW1 3772   0.542   3.387   2.351 -1.7935 -0.8343  1.1775
  668SOL    HW2 3773   0.488   3.404   2.211  1.3181 -2.0941 -0.2816
  669SOL     OW 3774   0.296   8.175   3.836 -0.0671 -0.1349  0.1209
  669SOL    HW1 3775   0.248   8.093   3.829 -1.8475  0.4500  3.4793
  669SOL    HW2 3776   0.234   8.242   3.806  0.0519  0.2702  0.7477
  670SOL     OW 3777   7.488   6.896   7.847 -0.3696 -0.3355 -0.0273
  670SOL    HW1 3778   7.398   6.896   7.815 -0.1086  0.5112 -0.8191
  670SOL    HW2 3779   7.506   6.988   7.865 -0.3945 -0.7392  2.3113
  671SOL     OW 3780   8.343   8.739   2.922  0.1418 -0.1778 -0.1115
  671SOL    HW1 3781   8.356   8.646   2.903 -0.6067  0.0488 -1.9236
  671SOL    HW2 3782   8.420   8.764   2.974  1.4329 -1.3354 -1.3866
  672SOL     OW 3783   1.470   0.709   0.107  0.0045 -0.0186 -0.2258
  672SOL    HW1 3784   1.557   0.697   0.069 -0.4342 -0.8832 -0.9929
  672SOL    HW2 3785   1.424   0.766   0.045 -0.1482  0.0288 -0.0725
  673SOL     OW 3786   6.582   4.718   5.954 -0.2207  0.3536 -0.0833
  673SOL    HW1 3787   6.570   4.800   5.905 -0.5409  1.6599  2.0341
  673SOL    HW2 3788   6.674   4.719   5.980  0.0919 -0.6158 -1.0566
  674SOL     OW 3789   2.734   8.050   6.769  0.1362  0.1292  0.2501
  674SOL    HW1 3790   2.765   8.134   6.735 -0.6491  0.0719 -0.6512
  674SOL    HW2 3791   2.681   8.072   6.845  0.2027  0.4200  0.2131
  675SOL     OW 3792   3.673   2.740   1.932  0.1067  0.1543 -0.3827
  675SOL    HW1 3793   3.754   2.689   1.929  0.4253  0.2493  2.7234
  675SOL    HW2 3794   3.605   2.677   1.955  0.2126  0.7267  1.7647
  676SOL     OW 3795   6.186   6.378   9.496 -0.1742 -0.3096  0.0334
  676SOL    HW1 3796   6.168   6.328   9.575  1.0630  0.7828  1.0502
  676SOL    HW2 3797   6.264   6.337   9.458 -1.8888 -2.0943 -1.7887
  677SOL     OW 3798   6.428   1.543   3.089  0.1135  0.3051  0.6583
  677SOL    HW1 3799   6.440   1.457   3.130 -2.1637 -0.6175 -0.4909
  677SOL    HW2 3800   6.437   1.527   2.995  0.7904  1.5737  0.4756
  678SOL     OW 3801   2.700   7.544   5.082  0.0804 -0.1631  0.0014
  678SOL    HW1 3802   2.749   7.625   5.065 -0.4627  0.6313  1.9206
  678SOL    HW2 3803   2.627   7.547   5.021  0.9920 -0.0787 -1.1197
  679SOL     OW 3804   5.220   9.440   8.555  0.1571  0.3440  0.0064
  679SOL    HW1 3805   5.168   9.359   8.561 -0.3552  0.4994 -1.8093
  679SOL    HW2 3806   5.311   9.409   8.549  0.0254 -0.0745  0.1256
  680SOL     OW 3807   0.898   1.228   3.675  0.4290 -0.5500  0.3262
  680SOL    HW1 3808   0.921   1.140   3.704 -0.1209 -0.8886 -0.2256
  680SOL    HW2 3809   0.958   1.246   3.603 -0.0843 -0.8755 -0.1986
  681SOL     OW 3810   6.126   3.451   4.285  0.0269 -0.4044 -0.1975
  681SOL    HW1 3811   6.084   3.396   4.351 -0.0407 -0.4356 -0.2673
  681SOL    HW2 3812   6.219   3.450   4.309 -0.0773  0.0555  0.2453
  682SOL     OW 3813   3.532   5.309   5.401 -0.6070  0.3738  0.3489
  682SOL    HW1 3814   3.488   5.360   5.469  0.2931  1.9045 -0.1421
  682SOL    HW2 3815   3.544   5.222   5.439 -1.0702  0.8914  1.7332
  683SOL     OW 3816   4.416   2.978   9.811 -0.1117  0.2397 -0.1680
  683SOL    HW1 3817   4.370   2.979   9.727  0.1542  1.9689 -0.3192
  683SOL    HW2 3818   4.365   3.036   9.868 -1.1458 -2.0344  1.4002
  684SOL     OW 3819   1.844   2.434   7.583  0.9969 -0.4581  0.4114
  684SOL    HW1 3820   1.931   2.394   7.588  1.2133  0.0775  1.1365
  684SOL    HW2 3821   1.799   2.385   7.514  2.0068 -0.4798 -0.2593
  685SOL     OW 3822   6.366   5.567   7.775  0.0783  0.5360  0.2574
  685SOL    HW1 3823   6.334   5.478   7.789  0.3713  0.5405  1.0226
  685SOL    HW2 3824   6.314   5.600   7.702  0.1789 -0.3654 -0.2350
  686SOL     OW 3825   2.182   4.960   6.129 -0.2763 -0.1810  0.2639
  686SOL    HW1 3826   2.176   5.050   6.161  0.7443 -0.7629  2.2240
  686SOL    HW2 3827   2.144   4.907   6.199  0.8166 -1.4069 -0.0307
  687SOL     OW 3828   8.934   4.285   6.546 -0.1780 -0.1018 -0.2506
  687SOL    HW1 3829   9.017   4.291   6.498  0.2033 -1.1564  0.2355
  687SOL    HW2 3830   8.955   4.320   6.633 -0.3091 -0.1274 -0.2094
  688SOL     OW 3831   9.597   3.504   0.061 -0.0287 -0.2498  0.3786
  688SOL    HW1 3832   9.533   3.491  -0.009  0.9222 -0.3327 -0.5123
  688SOL    HW2 3833   9.633   3.417   0.077  0.6785 -0.0300  0.0409
  689SOL     OW 3834   8.426   8.410   1.453  0.1604  0.2214  0.1318
  689SOL    HW1 3835   8.491   8.383   1.388  0.5362  1.6882 -0.1249
  689SOL    HW2 3836   8.428   8.340   1.518  0.1624 -1.0191 -1.1297
  690SOL     OW 3837   7.761   8.692   5.623 -0.2338  0.4097 -0.5255
  690SOL    HW1 3838   7.733   8.602   5.641  0.6977  0.0892 -0.6106
  690SOL    HW2 3839   7.849   8.682   5.587 -0.5655  1.2887 -1.6362
  691SOL     OW 3840   5.715   0.897   2.463 -0.2372  0.5749 -0.1937
  691SOL    HW1 3841   5.662   0.820   2.443 -1.1226  1.0004  0.4424
  691SOL    HW2 3842   5.652   0.969   2.468  0.8418  1.9329 -3.5049
  692SOL     OW 3843   5.297   3.951   7.518 -0.1877 -0.1571 -0.5816
  692SOL    HW1 3844   5.334   3.868   7.487 -1.4753 -0.3527 -1.7284
  692SOL    HW2 3845   5.371   4.011   7.521  0.6848 -1.2228 -0.1985
  693SOL     OW 3846   3.105   6.851   4.534 -0.2961  0.0210 -0.0937
  693SOL    HW1 3847   3.051   6.898   4.597  0.0068  2.4603 -1.4838
  693SOL    HW2 3848   3.158   6.792   4.586 -1.4218  0.5335  1.7071
  694SOL     OW 3849   6.451   3.204   3.325 -0.2947 -0.1933  0.0189
  694SOL    HW1 3850   6.414   3.220   3.412  0.2489 -1.4392  0.5004
  694SOL    HW2 3851   6.484   3.114   3.329  0.9490  0.1836 -1.0416
  695SOL     OW 3852   2.239   8.668   3.785 -0.3006 -0.3752  0.1360
  695SOL    HW1 3853   2.223   8.759   3.811 -0.6774 -0.8614  1.7419
  695SOL    HW2 3854   2.315   8.672   3.727  1.1758  0.7578  2.0184
  696SOL     OW 3855   9.575   3.936   6.526  0.3910 -0.5065 -1.0069
  696SOL    HW1 3856   9.647   4.000   6.525  2.4192 -2.5155  1.7104
  696SOL    HW2 3857   9.601   3.871   6.460  0.6161 -0.7704 -0.6597
  697SOL     OW 3858   8.747   0.844   5.241  0.4307  0.4149  0.0680
  697SOL    HW1 3859   8.657   0.848   5.273  0.2108 -1.9840 -0.0807
  697SOL    HW2 3860   8.796   0.800   5.311  1.4652  1.4745  0.0433
  698SOL     OW 3861   6.100   9.290   3.681  0.0570  0.1630 -0.0908
  698SOL    HW1 3862   6.186   9.313   3.718  0.0278  0.1630 -0.0221
  698SOL    HW2 3863   6.120   9.231   3.609  0.1127  0.1198 -0.0408
  699SOL     OW 3864   1.416   4.135   1.281 -0.0531 -0.2772  0.1274
  699SOL    HW1 3865   1.414   4.042   1.258 -1.7883 -0.3806  0.5608
  699SOL    HW2 3866   1.499   4.167   1.246  0.0531 -1.7326 -1.0302
  700SOL     OW 3867   5.070   6.788   8.784  0.1641  0.2971  0.0583
  700SOL    HW1 3868   5.066   6.767   8.877 -1.3100 -1.8346 -0.3991
  700SOL    HW2 3869   4.980   6.776   8.753  0.6410  0.8557 -1.6540
  701SOL     OW 3870   8.982   3.049   9.718  0.1854 -0.1262 -0.1206
  701SOL    HW1 3871   9.052   2.986   9.698  0.7246  0.4232  0.0316
  701SOL    HW2 3872   8.908   3.019   9.665 -0.6542 -2.8095  2.2784
  702SOL     OW 3873   4.086   5.372   3.700 -0.2994 -0.4559  0.0225
  702SOL    HW1 3874   4.062   5.287   3.738 -0.7075 -0.7900 -0.9392
  702SOL    HW2 3875   4.138   5.349   3.623 -0.2100  0.1797 -0.1103
  703SOL     OW 3876   9.460   0.349   5.699  0.3697  0.5688  0.3146
  703SOL    HW1 3877   9.391   0.366   5.763  1.3135  0.1063  1.5000
  703SOL    HW2 3878   9.490   0.435   5.672 -1.1921  0.7848 -0.8197
  704SOL     OW 3879   8.271   6.582   8.113 -0.3174 -0.6498 -0.3715
  704SOL    HW1 3880   8.213   6.507   8.125 -1.3949 -0.4107 -3.2004
  704SOL    HW2 3881   8.227   6.655   8.156 -0.4132 -1.1435  0.3879
  705SOL     OW 3882   8.959   8.171   6.932  0.0646  0.4540 -0.5928
  705SOL    HW1 3883   9.032   8.123   6.971  0.3448  0.9444 -0.5086
  705SOL    HW2 3884   8.956   8.140   6.841 -0.6223 -0.7246 -0.1906
  706SOL     OW 3885   7.918   7.464   5.475 -0.0839  0.6832 -0.0722
  706SOL    HW1 3886   7.899   7.439   5.565 -0.0081  0.0581 -0.2200
  706SOL    HW2 3887   7.873   7.398   5.422 -0.5061  1.3067 -0.5052
  707SOL     OW 3888   2.796   0.329   6.299 -0.4181  0.1919 -0.4340
  707SOL    HW1 3889   2.757   0.393   6.240 -0.8360  0.9643  0.6418
  707SOL    HW2 3890   2.863   0.286   6.246 -0.5515  1.0870 -1.3725
  708SOL     OW 3891   1.195   5.662   8.340  0.2969 -0.0200 -0.5752
  708SOL    HW1 3892   1.117   5.626   8.298  0.6814  0.5466 -1.8039
  708SOL    HW2 3893   1.250   5.693   8.268  1.4266  0.0839  0.2947
  709SOL     OW 3894   0.935   4.848   6.053  0.1870 -0.8693  0.6715
  709SOL    HW1 3895   0.879   4.901   6.110 -0.0898 -0.2523 -0.1589
  709SOL    HW2 3896   1.023   4.857   6.090  0.0417 -0.3173  0.8825
  710SOL     OW 3897   8.142   5.511   5.825 -0.4822  0.0842 -0.2982
  710SOL    HW1 3898   8.132   5.545   5.914  0.4740  0.4921 -0.3297
  710SOL    HW2 3899   8.135   5.588   5.769 -2.5756 -0.3509 -0.7240
  711SOL     OW 3900   0.778   4.257   9.329  0.0148 -0.2832  0.0664
  711SOL    HW1 3901   0.851   4.298   9.283 -0.6584  1.7810  0.6996
  711SOL    HW2 3902   0.815   4.227   9.411  0.4718 -0.7296 -0.2943
  712SOL     OW 3903   9.100   9.644   5.925 -0.1958  0.1941  0.1808
  712SOL    HW1 3904   9.144   9.722   5.960 -0.1975  1.0228 -1.5414
  712SOL    HW2 3905   9.159   9.611   5.858 -0.1950 -1.3361  0.9002
  713SOL     OW 3906   6.093   0.067   3.352  0.1063  0.1655 -0.0302
  713SOL    HW1 3907   6.118   0.040   3.263  0.7701 -0.9818  0.4766
  713SOL    HW2 3908   6.033  -0.002   3.381 -1.0047  1.1288  0.0147
  714SOL     OW 3909   6.738   4.597   9.172 -0.5423  0.0611  0.5103
  714SOL    HW1 3910   6.647   4.572   9.190 -0.8742 -0.0669 -1.1408
  714SOL    HW2 3911   6.787   4.515   9.178 -0.5137  0.1367  1.4487
  715SOL     OW 3912   8.160   0.818   0.178  0.0255 -0.5645 -0.2214
  715SOL    HW1 3913   8.238   0.846   0.131 -0.8085 -0.7472 -1.7885
  715SOL    HW2 3914   8.147   0.885   0.246  2.0296 -1.0324  0.6731
  716SOL     OW 3915   4.278   9.837   3.424 -0.2287 -0.4551  0.0372
  716SOL    HW1 3916   4.315   9.843   3.512  2.2540 -2.1215 -0.8180
  716SOL    HW2 3917   4.353   9.830   3.366 -1.8268 -1.6098 -2.0429
  717SOL     OW 3918   1.440   2.067   0.243  0.2496  0.3643  0.3045
  717SOL    HW1 3919   1.488   1.987   0.223 -0.1483  0.2262 -0.1095
  717SOL    HW2 3920   1.348   2.043   0.235  0.1251  0.8629  0.1725
  718SOL     OW 3921   4.684   6.492   2.125 -0.2111 -0.0335 -0.1200
  718SOL    HW1 3922   4.639   6.478   2.208  0.7922  1.7128  0.8030
  718SOL    HW2 3923   4.616   6.521   2.064 -0.6025  1.1481  0.8369
  719SOL     OW 3924   3.995   5.547   9.170  0.7625 -0.2919  0.1071
  719SOL    HW1 3925   3.989   5.489   9.246 -0.0461 -1.8419 -1.0728
  719SOL    HW2 3926   3.904   5.565   9.146  1.0077  1.0669  0.1287
  720SOL     OW 3927   7.647   3.785   8.818 -0.1249  0.2868 -0.0453
  720SOL    HW1 3928   7.640   3.695   8.849  0.4477 -0.3971 -1.7766
  720SOL    HW2 3929   7.587   3.789   8.743  3.0895 -0.0680 -2.8653
  721SOL     OW 3930   1.309   9.746   2.401  0.4526 -0.1490  0.2682
  721SOL    HW1 3931   1.302   9.831   2.444  2.2897  0.2842 -0.2010
  721SOL    HW2 3932   1.343   9.766   2.314  0.6415 -1.3287  0.0570
  722SOL     OW 3933   6.864   8.835   3.499  0.2823  0.4760 -0.1085
  722SOL    HW1 3934   6.886   8.926   3.479  0.6738  1.0131  2.4911
  722SOL    HW2 3935   6.776   8.824   3.462  0.9569  1.2801 -2.1034
  723SOL     OW 3936   3.972   0.236   7.685  0.3978  0.0938  0.2395
  723SOL    HW1 3937   4.005   0.157   7.727  0.9640  0.7869  1.1590
  723SOL    HW2 3938   3.878   0.234   7.702  0.5906  0.2651  1.4269
  724SOL     OW 3939   4.270   1.039   3.976  0.0522  0.0671  0.0345
  724SOL    HW1 3940   4.350   1.004   4.015  0.0963  0.3783  0.2338
  724SOL    HW2 3941   4.211   1.052   4.050  0.1977  0.8209  0.0353
  725SOL     OW 3942   0.746   5.468   1.377  0.6679  0.3882  0.1314
  725SOL    HW1 3943   0.687   5.498   1.446  1.1356  1.3134  0.1477
  725SOL    HW2 3944   0.695   5.477   1.296 -0.0100 -1.0437  0.3559
  726SOL     OW 3945   1.050   3.120   5.045 -0.4468  0.1489 -0.2772
  726SOL    HW1 3946   0.995   3.048   5.076  2.2125 -1.0648  2.1306
  726SOL    HW2 3947   1.139   3.093   5.067  0.8506  3.4254 -0.9041
  727SOL     OW 3948   9.640   9.378   2.786 -0.5700 -0.2442 -0.4379
  727SOL    HW1 3949   9.571   9.313   2.779 -0.5648 -0.4482  1.0484
  727SOL    HW2 3950   9.720   9.332   2.759 -0.3755 -1.2457  1.6295
  728SOL     OW 3951   5.532   7.277   0.484  0.2746  0.5937  0.0667
  728SOL    HW1 3952   5.575   7.342   0.428  1.5245  0.0434  0.3651
  728SOL    HW2 3953   5.494   7.214   0.423 -0.5077  1.3193 -0.2112
  729SOL     OW 3954   0.149   2.621   2.107  0.3311 -0.6031  0.4067
  729SOL    HW1 3955   0.215   2.691   2.098 -0.9123  0.6989  1.0781
  729SOL    HW2 3956   0.164   2.565   2.030  2.5248 -0.6435  0.7851
  730SOL     OW 3957   9.027   8.784   2.871 -0.4556 -0.2106 -0.3640
  730SOL    HW1 3958   9.119   8.808   2.858 -0.7348  0.4768 -1.1400
  730SOL    HW2 3959   9.007   8.727   2.796 -0.8391  0.1678 -0.5540
  731SOL     OW 3960   6.446   0.025   2.773 -0.7869 -0.1786  0.1275
  731SOL    HW1 3961   6.478   0.011   2.684 -0.3470  0.5820  0.1637
  731SOL    HW2 3962   6.360  -0.018   2.774 -0.5741 -0.6337 -0.5098
  732SOL     OW 3963   2.893   7.036   0.342 -0.1337  0.2124 -0.0158
  732SOL    HW1 3964   2.885   7.099   0.270  0.6505 -0.5137 -0.7586
  732SOL    HW2 3965   2.889   6.951   0.299 -0.2305 -0.2354  0.8749
  733SOL     OW 3966   0.028   2.335   8.639  0.2482 -0.1152 -0.8435
  733SOL    HW1 3967   0.081   2.399   8.592  0.3438  0.5339  0.0993
  733SOL    HW2 3968   0.066   2.250   8.617  1.2088  0.2855 -0.7732
  734SOL     OW 3969   6.225   9.826   6.221  0.0760 -0.2741  0.0131
  734SOL    HW1 3970   6.134   9.845   6.197 -0.3749 -1.4074  0.7662
  734SOL    HW2 3971   6.254   9.762   6.156 -0.3712 -1.5196  0.9997
  735SOL     OW 3972   0.760   4.706   5.858 -0.2373 -0.0238  0.0624
  735SOL    HW1 3973   0.795   4.735   5.942 -0.1282 -1.2939  0.4749
  735SOL    HW2 3974   0.836   4.671   5.811 -0.1694  1.3197 -0.8597
  736SOL     OW 3975   1.902   6.237   3.874 -0.0089  0.0347 -0.8839
  736SOL    HW1 3976   1.963   6.198   3.937  0.0544 -1.0964 -1.5984
  736SOL    HW2 3977   1.892   6.328   3.902  0.7101 -0.2088  0.2175
  737SOL     OW 3978   5.438   9.353   5.669  0.1463 -0.6114 -0.3272
  737SOL    HW1 3979   5.407   9.415   5.735  1.6794  1.2167 -1.2253
  737SOL    HW2 3980   5.400   9.384   5.586  0.7696 -0.9829 -0.7637
  738SOL     OW 3981   5.428   4.742   9.336  0.5375  0.2384  0.0729
  738SOL    HW1 3982   5.484   4.754   9.260  0.5810  0.1936  0.0974
  738SOL    HW2 3983   5.354   4.800   9.321  1.3380  1.4893  0.7827
  739SOL     OW 3984   0.820   9.827   6.273  0.3239  0.0086 -0.2196
  739SOL    HW1 3985   0.828   9.749   6.218  2.1222  0.5442 -0.8051
  739SOL    HW2 3986   0.726   9.837   6.287  0.0242 -2.0887 -0.3616
  740SOL     OW 3987   5.258   5.257   4.991  0.3243  0.4977 -0.1710
  740SOL    HW1 3988   5.318   5.253   5.065  0.9005 -0.2036 -0.6558
  740SOL    HW2 3989   5.178   5.216   5.022  0.0284  1.5478  0.5207
  741SOL     OW 3990   5.442   3.346   2.968  0.2920  0.0665  0.1180
  741SOL    HW1 3991   5.392   3.279   2.922  0.2566  0.9300 -1.1293
  741SOL    HW2 3992   5.393   3.361   3.049 -1.3233  0.7005 -0.9447
  742SOL     OW 3993   7.754   8.789   2.149 -0.7365 -0.0373  0.4948
  742SOL    HW1 3994   7.816   8.716   2.154  1.1038  1.5404  2.6888
  742SOL    HW2 3995   7.682   8.755   2.097  1.1895 -2.5545 -0.7615
  743SOL     OW 3996   9.500   5.267   0.997  0.3006  0.3000  0.1674
  743SOL    HW1 3997   9.435   5.313   1.049 -0.1747  1.9354 -1.7669
  743SOL    HW2 3998   9.549   5.336   0.953  0.9392 -0.9878 -1.2175
  744SOL     OW 3999   8.841   2.333   4.852 -0.1377  1.0677  0.1035
  744SOL    HW1 4000   8.931   2.364   4.864 -0.0167  0.5538  0.5675
  744SOL    HW2 4001   8.829   2.268   4.921  0.1714 -1.1269 -1.7859
  745SOL     OW 4002   8.536   8.389   8.570 -0.5206 -0.2695 -0.5464
  745SOL    HW1 4003   8.519   8.351   8.484 -0.8574 -2.1355  0.2997
  745SOL    HW2 4004   8.454   8.430   8.595 -0.3056  0.6399 -1.2516
  746SOL     OW 4005   4.789   2.862   3.377 -0.5317  0.3986 -0.0399
  746SOL    HW1 4006   4.858   2.876   3.312 -0.2460 -0.0240  0.1684
  746SOL    HW2 4007   4.720   2.816   3.329 -1.1038  1.6808 -0.5033
  747SOL     OW 4008   0.424   6.000   8.236 -0.3325 -0.7038 -0.9067
  747SOL    HW1 4009   0.466   5.966   8.315 -1.5828 -0.2018  0.0018
  747SOL    HW2 4010   0.341   6.037   8.267  0.3023  1.9084 -2.0200
  748SOL     OW 4011   8.163   6.245   2.362  0.1779 -0.1074 -0.1178
  748SOL    HW1 4012   8.107   6.167   2.370  0.9163 -0.6217  0.1148
  748SOL    HW2 4013   8.145   6.295   2.442  0.1426 -0.3330  0.0179
  749SOL     OW 4014   4.994   6.794   2.835  0.3844 -0.5319  0.0620
  749SOL    HW1 4015   4.959   6.712   2.868  1.4641 -1.0047  0.0681
  749SOL    HW2 4016   5.073   6.769   2.788  0.0259  0.3641 -1.0696
  750SOL     OW 4017   2.708   5.674   0.400  0.4095  0.2989 -0.2258
  750SOL    HW1 4018   2.642   5.743   0.405 -0.3118 -0.1900 -2.1614
  750SOL    HW2 4019   2.775   5.708   0.341  0.8518 -0.0383  0.0686
  751SOL     OW 4020   5.763   1.905   7.551  0.5572 -0.2565 -0.1537
  751SOL    HW1 4021   5.733   1.814   7.551  0.5308 -0.2544  0.7407
  751SOL    HW2 4022   5.813   1.914   7.470  0.5959 -1.0828 -0.2269
  752SOL     OW 4023   2.560   5.214   4.131 -0.5119 -0.1645 -0.1818
  752SOL    HW1 4024   2.571   5.258   4.215 -1.8409  0.4865 -0.3264
  752SOL    HW2 4025   2.569   5.283   4.066  0.4508 -0.6560 -0.5989
  753SOL     OW 4026   2.282   3.474   1.106 -0.2878 -0.1197 -0.1003
  753SOL    HW1 4027   2.239   3.389   1.108 -0.3103 -0.1064  1.8864
  753SOL    HW2 4028   2.218   3.534   1.145  0.7326  0.2788  1.0027
  754SOL     OW 4029   2.764   1.152   9.751  0.1067 -0.1648  0.0473
  754SOL    HW1 4030   2.856   1.174   9.764  0.8071 -2.3414 -0.7067
  754SOL    HW2 4031   2.735   1.208   9.679  1.8904 -1.7232 -2.0352
  755SOL     OW 4032   8.974   6.645   5.811 -0.6963  0.4074 -0.8450
  755SOL    HW1 4033   8.957   6.575   5.748 -1.6611  0.0834 -0.2300
  755SOL    HW2 4034   9.031   6.706   5.764 -0.2276 -0.5520 -1.5410
  756SOL     OW 4035   3.912   5.560   5.790  0.5520 -0.0315  0.6827
  756SOL    HW1 4036   3.895   5.560   5.885 -0.6739  1.2410  0.5048
  756SOL    HW2 4037   3.855   5.492   5.755  1.0530 -0.5464  0.8569
  757SOL     OW 4038   2.903   5.469   8.483 -0.3553 -0.2397 -0.4348
  757SOL    HW1 4039   2.921   5.416   8.406  1.5430  0.0101 -0.2005
  757SOL    HW2 4040   2.979   5.526   8.492  0.1276 -1.1413  2.3199
  758SOL     OW 4041   4.429   7.357   0.086  0.0748  0.2274 -0.3072
  758SOL    HW1 4042   4.334   7.368   0.083 -0.2046 -1.7597 -0.3228
  758SOL    HW2 4043   4.460   7.392   0.002 -0.7976 -0.2556 -0.8480
  759SOL     OW 4044   6.527   2.958   6.062  0.1318  0.2067 -0.2892
  759SOL    HW1 4045   6.446   3.008   6.049 -2.1242 -2.8809  0.7656
  759SOL    HW2 4046   6.579   3.012   6.122 -2.2594  1.1959  1.0498
  760SOL     OW 4047   2.552   1.419   9.836  0.0122  0.2509 -0.1924
  760SOL    HW1 4048   2.516   1.392   9.751  3.6114 -0.0941 -1.7715
  760SOL    HW2 4049   2.592   1.339   9.871  2.1772  1.2644 -0.2096
  761SOL     OW 4050   3.352   4.192   0.235 -0.0304 -0.4980 -0.2975
  761SOL    HW1 4051   3.319   4.233   0.155  1.5089 -0.9881 -1.2233
  761SOL    HW2 4052   3.290   4.122   0.253  0.4174 -1.4105 -2.0060
  762SOL     OW 4053   3.475   1.692   0.893 -0.6150 -0.2748  0.0093
  762SOL    HW1 4054   3.394   1.740   0.911  0.6855  1.9191  0.2751
  762SOL    HW2 4055   3.504   1.661   0.979  0.1816  1.2428  0.3130
  763SOL     OW 4056   9.676   1.545   9.486  0.4317  0.3311 -0.2337
  763SOL    HW1 4057   9.634   1.499   9.413  0.7107 -1.1672  0.5063
  763SOL    HW2 4058   9.741   1.483   9.519  0.4130  1.0275  1.1888
  764SOL     OW 4059   7.599   9.317   4.217  0.2355 -0.2130 -0.3580
  764SOL    HW1 4060   7.663   9.249   4.236  1.0149  1.3840  3.8661
  764SOL    HW2 4061   7.650   9.386   4.173  0.7756 -0.1032  0.4269
  765SOL     OW 4062   2.119   8.070   0.301 -0.4718  0.4364  0.1386
  765SOL    HW1 4063   2.205   8.055   0.341  0.0746  2.0140 -0.3633
  765SOL    HW2 4064   2.091   7.984   0.271  0.4632 -0.2715  1.2238
  766SOL     OW 4065   4.469   9.141   8.977 -0.2427 -0.5883 -0.4837
  766SOL    HW1 4066   4.412   9.196   8.923  1.2891 -1.1901 -2.8220
  766SOL    HW2 4067   4.436   9.154   9.066 -1.2011  2.5248 -1.1626
  767SOL     OW 4068   3.027   7.886   1.796 -0.0296  0.0773  0.0464
  767SOL    HW1 4069   2.985   7.878   1.711  0.4303  0.5487 -0.2303
  767SOL    HW2 4070   3.111   7.841   1.786  0.3965  0.8664 -0.0144
  768SOL     OW 4071   7.633   8.390   6.528 -0.0994  0.4384  0.2963
  768SOL    HW1 4072   7.632   8.333   6.451 -1.2010  0.1895  0.4741
  768SOL    HW2 4073   7.701   8.454   6.510  0.9977 -0.7758 -0.0228
  769SOL     OW 4074   5.905   2.331   7.061 -0.0879 -0.1941 -0.4786
  769SOL    HW1 4075   5.852   2.405   7.029  0.7991  0.6036 -0.1412
  769SOL    HW2 4076   5.962   2.310   6.987 -1.2483 -1.4582 -1.0655
  770SOL     OW 4077   2.511   2.186   9.253  0.4979 -0.0856 -0.3482
  770SOL    HW1 4078   2.433   2.161   9.204 -0.4953  0.7174  0.7720
  770SOL    HW2 4079   2.566   2.108   9.253 -0.5675 -0.8498 -0.6390
  771SOL     OW 4080   5.892   8.635   6.582 -0.9964 -0.0077 -0.2005
  771SOL    HW1 4081   5.883   8.698   6.654 -0.9773 -0.9273  0.6327
  771SOL    HW2 4082   5.865   8.551   6.620 -1.4708 -0.4319 -1.4114
  772SOL     OW 4083   9.264   3.146   7.942  0.4411 -0.1224  0.0884
  772SOL    HW1 4084   9.312   3.067   7.917 -1.2378 -0.8005 -1.2248
  772SOL    HW2 4085   9.209   3.119   8.016 -0.6466 -0.4416 -0.7946
  773SOL     OW 4086   8.431   4.103   1.941  0.3359  0.4081 -0.2097
  773SOL    HW1 4087   8.503   4.066   1.992 -0.2116  0.2823  0.4961
  773SOL    HW2 4088   8.473   4.144   1.866  1.0301 -0.9607 -0.6046
  774SOL     OW 4089   6.114   3.048   2.398  0.1898  0.0987 -0.2811
  774SOL    HW1 4090   6.039   3.082   2.447 -1.0174 -2.0501 -0.4661
  774SOL    HW2 4091   6.109   3.092   2.313 -3.2975 -2.5843 -1.7541
  775SOL     OW 4092   2.495   4.961   4.137 -0.2337  0.1601  0.1124
  775SOL    HW1 4093   2.509   5.056   4.138 -0.2933  0.1694  0.0856
  775SOL    HW2 4094   2.530   4.932   4.053  0.5789  0.0340  0.4939
  776SOL     OW 4095   3.626   4.388   5.719  0.1982  0.1265  0.0262
  776SOL    HW1 4096   3.711   4.431   5.727  0.0017  0.2637  1.8384
  776SOL    HW2 4097   3.622   4.360   5.628  1.4809  1.5660 -0.5260
  777SOL     OW 4098   8.594   0.855   5.715 -0.2834 -0.4097 -0.5301
  777SOL    HW1 4099   8.545   0.790   5.665 -0.0874 -2.3876  1.6946
  777SOL    HW2 4100   8.667   0.807   5.753  0.6610  1.4256  0.1167
  778SOL     OW 4101   7.414   0.906   5.197 -0.0202 -0.3652 -0.4438
  778SOL    HW1 4102   7.392   0.905   5.290  0.3200 -4.6050 -0.2438
  778SOL    HW2 4103   7.349   0.965   5.158 -2.8298 -1.6239  1.9476
  779SOL     OW 4104   4.341   8.588   3.051  0.3728  0.3721 -0.5094
  779SOL    HW1 4105   4.370   8.511   3.002  0.3997  0.7537 -1.1093
  779SOL    HW2 4106   4.385   8.662   3.007  0.6844  0.6892  0.3170
  780SOL     OW 4107   0.764   8.887   9.237 -0.6686 -0.3207  0.5864
  780SOL    HW1 4108   0.750   8.885   9.143  0.6670 -0.9794  0.3829
  780SOL    HW2 4109   0.858   8.898   9.248 -0.8616  0.3573  1.8533
  781SOL     OW 4110   6.797   9.392   5.794  0.2117 -0.5590  0.1057
  781SOL    HW1 4111   6.763   9.404   5.706  0.2963 -2.5304 -0.2454
  781SOL    HW2 4112   6.877   9.443   5.796 -0.4930  0.6028 -0.4954
  782SOL     OW 4113   5.412   7.152   8.455 -0.4365  0.4896  0.0956
  782SOL    HW1 4114   5.430   7.188   8.368 -1.9219 -1.0520 -0.9136
  782SOL    HW2 4115   5.430   7.058   8.446 -1.7826  0.1101  1.0832
  783SOL     OW 4116   3.110   3.222   5.100 -0.3994  0.0599  0.1971
  783SOL    HW1 4117   3.199   3.209   5.133 -0.1596  1.0713 -0.0334
  783SOL    HW2 4118   3.054   3.201   5.174  0.0481 -0.0359  0.5126
  784SOL     OW 4119   2.348   2.938   3.453 -0.0337 -0.2316 -0.3629
  784SOL    HW1 4120   2.330   2.869   3.389  0.5813 -1.4410  0.7146
  784SOL    HW2 4121   2.404   2.896   3.518  0.0287  1.1899  0.5439
  785SOL     OW 4122   1.520   3.462   3.574  0.4494  0.3096  0.0801
  785SOL    HW1 4123   1.436   3.417   3.571  0.9138 -0.5521 -0.6972
  785SOL    HW2 4124   1.514   3.521   3.648 -1.2661  1.1113 -0.6674
  786SOL     OW 4125   5.271   2.381   8.872  0.1204 -0.2971 -0.5197
  786SOL    HW1 4126   5.271   2.285   8.872 -0.6543 -0.3050 -0.1157
  786SOL    HW2 4127   5.254   2.405   8.781  0.2473 -0.5376 -0.6083
  787SOL     OW 4128   4.568   8.760   0.097  0.3707  0.2659  0.1289
  787SOL    HW1 4129   4.585   8.754   0.003  0.2134 -0.0544  0.1182
  787SOL    HW2 4130   4.623   8.691   0.135  2.8862  2.3965  0.6104
  788SOL     OW 4131   6.393   7.376   6.081 -0.2742  0.0952  0.0899
  788SOL    HW1 4132   6.446   7.371   6.160 -0.6520 -0.0953  0.3361
  788SOL    HW2 4133   6.391   7.470   6.060  0.2567  0.0903  0.0070
  789SOL     OW 4134   2.416   1.854   0.265  0.1282 -0.1087  0.0796
  789SOL    HW1 4135   2.474   1.787   0.228  1.1112 -0.1257  1.5833
  789SOL    HW2 4136   2.340   1.805   0.298 -0.0154 -0.2599 -0.4560
  790SOL     OW 4137   7.427   8.802   1.159  0.1128  0.0603 -0.3287
  790SOL    HW1 4138   7.420   8.785   1.253 -1.5013  0.7320 -0.2985
  790SOL    HW2 4139   7.337   8.814   1.130  0.6684  1.0216 -1.7505
  791SOL     OW 4140   6.119   2.426   5.144  0.4820 -0.2400 -0.3053
  791SOL    HW1 4141   6.210   2.398   5.144  0.9993  1.1116  2.3657
  791SOL    HW2 4142   6.112   2.487   5.070  2.1827  0.8041  0.3465
  792SOL     OW 4143   8.525   3.027   7.497  0.6064  0.1592  1.1373
  792SOL    HW1 4144   8.459   3.094   7.516 -0.0001  0.4234 -1.5022
  792SOL    HW2 4145   8.480   2.944   7.513 -0.3195  0.3429 -0.3119
  793SOL     OW 4146   9.191   2.859   1.954 -0.4173  0.0158 -0.5132
  793SOL    HW1 4147   9.105   2.819   1.943 -0.5470 -0.0389  0.5489
  793SOL    HW2 4148   9.253   2.789   1.933 -0.6436 -0.4931  0.4349
  794SOL     OW 4149   9.364   7.599   9.688 -0.5189  0.3782 -1.0141
  794SOL    HW1 4150   9.275   7.625   9.664  0.1116  1.4648 -2.2395
  794SOL    HW2 4151   9.357   7.504   9.703 -1.9641  0.5108 -0.6122
  795SOL     OW 4152   1.299   7.295   4.669  0.2908 -0.0910 -0.5199
  795SOL    HW1 4153   1.280   7.383   4.703 -0.0940  0.0695 -1.1290
  795SOL    HW2 4154   1.220   7.272   4.619  1.0777 -0.0772 -1.7944
  796SOL     OW 4155   4.476   7.142   1.813 -0.0174  0.3920 -0.3923
  796SOL    HW1 4156   4.470   7.076   1.744  0.1761 -0.4899  0.4207
  796SOL    HW2 4157   4.485   7.225   1.765  1.1706 -0.2901 -1.4397
  797SOL     OW 4158   7.084   6.447   8.258  0.0695  0.0379  0.2762
  797SOL    HW1 4159   7.024   6.521   8.258  0.3070  0.2331  0.4290
  797SOL    HW2 4160   7.034   6.375   8.296  0.0167  0.2695  0.6533
  798SOL     OW 4161   7.456   5.326   3.487 -0.5656  0.0577 -0.1582
  798SOL    HW1 4162   7.406   5.406   3.503 -1.1267 -0.6151  1.7228
  798SOL    HW2 4163   7.495   5.340   3.401 -1.4673  1.9162 -0.3367
  799SOL     OW 4164   0.997   8.428   8.889  0.3925  0.0317 -0.2487
  799SOL    HW1 4165   1.015   8.449   8.980  0.1945  3.3053 -0.8410
  799SOL    HW2 4166   1.001   8.513   8.844 -0.1507 -1.3801 -3.1752
  800SOL     OW 4167   3.765   3.851   2.282  0.5522 -0.3271  0.6558
  800SOL    HW1 4168   3.712   3.908   2.338 -0.1239 -0.3663  0.0690
  800SOL    HW2 4169   3.830   3.909   2.244 -0.3450  0.1399 -0.2031
  801SOL     OW 4170   8.132   5.385   2.332  0.1329  0.1433  0.1663
  801SOL    HW1 4171   8.152   5.348   2.418 -1.2449 -0.8956  0.0935
  801SOL    HW2 4172   8.057   5.333   2.302  0.6449  0.4363 -1.6948
  802SOL     OW 4173   2.759   4.100   4.506 -0.0528 -0.4210 -0.2415
  802SOL    HW1 4174   2.750   4.089   4.601 -0.9380  0.6125 -0.1930
  802SOL    HW2 4175   2.677   4.066   4.470  0.0896 -0.3748 -0.6112
  803SOL     OW 4176   7.358   5.459   7.412  0.5028  0.1693  0.2254
  803SOL    HW1 4177   7.385   5.412   7.334 -0.3872 -0.6124  0.3786
  803SOL    HW2 4178   7.420   5.432   7.480 -0.7160 -1.7733  0.6272
  804SOL     OW 4179   8.216   2.914   4.996 -0.4790  0.6124  0.0290
  804SOL    HW1 4180   8.212   2.855   4.921  0.4587  1.1666 -0.4614
  804SOL    HW2 4181   8.303   2.953   4.993 -0.3160  0.4505  1.5624
  805SOL     OW 4182   5.433   8.409   7.202 -0.0604  0.1161  0.7500
  805SOL    HW1 4183   5.425   8.404   7.297  1.1101 -1.3364  0.8186
  805SOL    HW2 4184   5.473   8.494   7.185  3.4801 -1.1203  1.9437
  806SOL     OW 4185   9.734   9.265   8.122 -0.1760  0.2535 -0.6021
  806SOL    HW1 4186   9.722   9.192   8.182 -0.4913  1.8223  1.3774
  806SOL    HW2 4187   9.729   9.227   8.035 -0.4934 -2.0226  0.3586
  807SOL     OW 4188   9.794   5.505   3.773 -0.4969  0.2785  0.5842
  807SOL    HW1 4189   9.703   5.523   3.752 -0.3325 -0.4482 -0.9434
  807SOL    HW2 4190   9.818   5.432   3.714  1.6262  1.7920 -0.5618
  808SOL     OW 4191   6.669   1.280   4.084  0.2459 -0.3267  0.3017
  808SOL    HW1 4192   6.586   1.234   4.098 -0.4338  1.1164  1.3163
  808SOL    HW2 4193   6.684   1.276   3.990 -0.9768 -0.6328  0.1058
  809SOL     OW 4194   6.408   0.564   6.453 -0.1330 -0.5098 -0.2424
  809SOL    HW1 4195   6.472   0.605   6.511  0.5314  0.1469 -1.3858
  809SOL    HW2 4196   6.369   0.494   6.505  1.6359 -1.0374  0.4716
  810SOL     OW 4197   8.997   4.633   1.516 -0.4497 -0.0595  0.2314
  810SOL    HW1 4198   9.087   4.602   1.520  0.0130  0.9402 -1.4426
  810SOL    HW2 4199   8.944   4.556   1.535  0.7289 -0.5642  1.6770
  811SOL     OW 4200   3.069   4.255   4.700  0.4474  0.3183 -0.2789
  811SOL    HW1 4201   3.134   4.323   4.680  0.0193  1.2271  1.2799
  811SOL    HW2 4202   3.117   4.173   4.690  2.3483  0.9907  2.3045
  812SOL     OW 4203   5.400   2.654   5.631  0.4070  0.0777  0.2406
  812SOL    HW1 4204   5.417   2.743   5.600 -1.5017  0.2410 -0.4908
  812SOL    HW2 4205   5.305   2.648   5.634  0.4042 -2.5897 -1.7336
  813SOL     OW 4206   4.791   4.947   9.446 -0.6503 -1.0643 -0.2057
  813SOL    HW1 4207   4.840   4.907   9.518 -0.5155  0.3219  0.5046
  813SOL    HW2 4208   4.700   4.945   9.475 -0.8987 -2.5422 -1.0015
  814SOL     OW 4209   6.982   9.446   8.011  0.3820  0.0551 -0.5385
  814SOL    HW1 4210   6.974   9.534   7.974 -0.2232  0.1318 -0.2281
  814SOL    HW2 4211   7.075   9.438   8.033  0.4519  0.5971 -0.6140
  815SOL     OW 4212   7.569   6.842   5.687  0.1450 -0.0563 -0.0502
  815SOL    HW1 4213   7.589   6.933   5.667  0.6145 -0.3301 -0.9112
  815SOL    HW2 4214   7.645   6.810   5.734  0.6520 -0.3957 -1.0636
  816SOL     OW 4215   2.426   4.842   2.409  0.3299 -0.3061 -0.3695
  816SOL    HW1 4216   2.403   4.911   2.471 -0.7593 -1.1202  0.1471
  816SOL    HW2 4217   2.487   4.786   2.457 -0.0281 -0.5928 -0.2535
  817SOL     OW 4218   6.396   3.363   8.847 -0.3206 -0.1364 -0.2899
  817SOL    HW1 4219   6.484   3.358   8.885 -0.4115 -0.5446 -0.1199
  817SOL    HW2 4220   6.405   3.422   8.773 -0.0562  0.3864  0.1521
  818SOL     OW 4221   0.634   8.208   7.186 -0.1719 -0.4863  0.0507
  818SOL    HW1 4222   0.542   8.196   7.164 -0.1063 -1.0881  0.0758
  818SOL    HW2 4223   0.644   8.302   7.199 -0.2966 -0.1235 -2.1095
  819SOL     OW 4224   8.448   6.776   9.765 -0.0166 -0.8432 -0.8319
  819SOL    HW1 4225   8.528   6.772   9.817  0.4789 -1.1431 -1.5905
  819SOL    HW2 4226   8.392   6.707   9.802 -1.0040  0.9742  1.3503
  820SOL     OW 4227   8.169   2.592   3.463  0.3244  0.3107 -1.1715
  820SOL    HW1 4228   8.108   2.591   3.390  0.8857 -1.3976 -1.6644
  820SOL    HW2 4229   8.211   2.506   3.461  1.2514  0.6765  0.4111
  821SOL     OW 4230   8.045   4.778   3.427 -0.0711  0.3313  0.1675
  821SOL    HW1 4231   8.069   4.687   3.443  1.3275  0.4895 -0.8038
  821SOL    HW2 4232   8.127   4.821   3.402 -1.1792  1.1388 -2.4887
  822SOL     OW 4233   5.626   1.280   9.148 -0.4811 -0.0181 -0.4459
  822SOL    HW1 4234   5.619   1.227   9.068 -0.7055  1.2345 -1.2936
  822SOL    HW2 4235   5.591   1.366   9.123 -0.2363  0.5095  0.9117
  823SOL     OW 4236   4.020   0.556   9.466 -0.3005 -0.1045 -0.3155
  823SOL    HW1 4237   4.111   0.545   9.495 -0.2502  0.9000 -0.0622
  823SOL    HW2 4238   4.019   0.524   9.376  0.0838 -1.0065 -0.0110
  824SOL     OW 4239   3.849   8.907   8.641 -0.3205  0.0528  0.0897
  824SOL    HW1 4240   3.863   8.875   8.552 -0.6192  0.1806 -0.0032
  824SOL    HW2 4241   3.762   8.947   8.639  0.2217  1.2733  0.0946
  825SOL     OW 4242   7.210   5.171   7.731 -0.0377  0.1877 -0.1059
  825SOL    HW1 4243   7.218   5.175   7.636  1.9829 -1.0972 -0.0619
  825SOL    HW2 4244   7.138   5.109   7.747 -0.3588  0.3786 -0.7852
  826SOL     OW 4245   4.337   1.577   3.631  0.4097 -0.0555  0.4463
  826SOL    HW1 4246   4.384   1.651   3.668 -0.8543  1.0052 -0.0107
  826SOL    HW2 4247   4.391   1.548   3.558  0.4734  1.0180  0.0532
  827SOL     OW 4248   2.225   4.044   8.331 -0.1116 -0.3375  0.5525
  827SOL    HW1 4249   2.149   4.098   8.309  0.1587  0.6576  1.9033
  827SOL    HW2 4250   2.188   3.965   8.371 -0.4570 -0.1741  0.5560
  828SOL     OW 4251   4.326   6.987   6.335 -0.2737 -0.5177  0.1590
  828SOL    HW1 4252   4.307   7.025   6.249  1.0633  0.1186  0.1165
  828SOL    HW2 4253   4.293   7.051   6.397 -1.3428 -1.0301  0.1424
  829SOL     OW 4254   3.971   5.425   7.546  0.2430  0.3170 -0.4286
  829SOL    HW1 4255   3.990   5.356   7.610  1.2918  2.1550  1.3470
  829SOL    HW2 4256   4.038   5.491   7.562 -2.0786  2.8284 -0.4380
  830SOL     OW 4257   8.720   4.929   3.090  0.1436 -0.3060 -0.2090
  830SOL    HW1 4258   8.689   5.019   3.094  1.4449  0.2402 -1.6154
  830SOL    HW2 4259   8.711   4.904   2.998 -0.1771 -1.6125  0.1525
  831SOL     OW 4260   1.899   1.187   0.973  0.1612 -0.5985 -0.2454
  831SOL    HW1 4261   1.945   1.268   0.994 -0.2353 -0.5437  0.4445
  831SOL    HW2 4262   1.820   1.189   1.028  0.6042 -1.8878  0.4911
  832SOL     OW 4263   0.355   9.597   9.234 -0.0191 -0.5003  0.1733
  832SOL    HW1 4264   0.412   9.532   9.193  0.0104 -0.3356 -0.0450
  832SOL    HW2 4265   0.400   9.680   9.223  1.0438 -0.7153  2.4393
  833SOL     OW 4266   0.341   3.462   8.848 -0.3674  0.5040 -0.1491
  833SOL    HW1 4267   0.320   3.546   8.806 -0.8809 -0.6763 -2.3935
  833SOL    HW2 4268   0.431   3.444   8.821  0.4384  1.1788  1.9055
  834SOL     OW 4269   0.736   7.828   1.674 -0.3677 -0.0424  0.0067
  834SOL    HW1 4270   0.751   7.826   1.768 -0.5413 -0.7301  0.0289
  834SOL    HW2 4271   0.738   7.736   1.648  0.1948  0.1736 -0.7464
  835SOL     OW 4272   4.299   9.651   8.490 -0.2081 -0.2017 -0.1651
  835SOL    HW1 4273   4.334   9.636   8.402  1.1517  0.1397  0.2962
  835SOL    HW2 4274   4.372   9.632   8.549 -1.3009 -1.1454  0.9506
  836SOL     OW 4275   2.028   4.309   8.986 -0.7686  0.1472 -0.1340
  836SOL    HW1 4276   2.104   4.289   8.932 -1.2027 -0.1080 -0.6582
  836SOL    HW2 4277   1.984   4.225   8.998 -0.6796  0.1998  0.6177
  837SOL     OW 4278   3.302   6.746   0.285 -0.1862 -0.1355 -0.3599
  837SOL    HW1 4279   3.209   6.743   0.308  0.1194  0.5926  1.1084
  837SOL    HW2 4280   3.323   6.657   0.257 -1.6686  0.0357 -2.2617
  838SOL     OW 4281   3.796   3.974   3.996 -0.6451  0.0815  0.2662
  838SOL    HW1 4282   3.737   3.899   4.006 -1.4294  0.6114 -0.2963
  838SOL    HW2 4283   3.813   4.002   4.086  0.5773 -1.4452  0.5562
  839SOL     OW 4284   7.195   3.502   2.649  0.0689  0.5474  0.6821
  839SOL    HW1 4285   7.221   3.439   2.717 -1.0585 -1.4723 -0.6493
  839SOL    HW2 4286   7.277   3.544   2.624  0.6646  0.6242  2.5520
  840SOL     OW 4287   2.276   1.732   1.552 -0.1465 -0.4541 -0.2902
  840SOL    HW1 4288   2.191   1.713   1.511 -0.5460  2.0259 -0.7936
  840SOL    HW2 4289   2.337   1.736   1.479 -0.1727  0.5234 -0.2702
  841SOL     OW 4290   1.854   9.182   6.243  0.3231  0.4358  0.4814
  841SOL    HW1 4291   1.763   9.200   6.219  0.5627 -0.3663 -1.1448
  841SOL    HW2 4292   1.849   9.110   6.306 -0.1386 -0.2550 -0.3246
  842SOL     OW 4293   8.070   1.281   1.124 -0.0306 -0.1534  0.4569
  842SOL    HW1 4294   8.063   1.240   1.038 -1.0353  1.4610 -0.2812
  842SOL    HW2 4295   8.109   1.214   1.180 -2.5404 -2.5341 -0.4083
  843SOL     OW 4296   6.972   5.558   3.101  0.2106 -0.0940  0.1451
  843SOL    HW1 4297   6.921   5.630   3.066  1.0267  1.0167  1.1743
  843SOL    HW2 4298   6.953   5.484   3.042 -2.5504  0.2464  0.4881
  844SOL     OW 4299   6.863   7.550   5.187 -0.0556  0.7875  0.2903
  844SOL    HW1 4300   6.891   7.515   5.102  1.3591  0.6305  0.7961
  844SOL    HW2 4301   6.940   7.596   5.221 -0.2751  0.0468  1.9041
  845SOL     OW 4302   8.694   7.198   5.153  0.1392  0.6865  0.0590
  845SOL    HW1 4303   8.760   7.131   5.136  0.3008  1.1429 -1.2280
  845SOL    HW2 4304   8.622   7.176   5.093  0.4675  2.0126 -0.8743
  846SOL     OW 4305   6.816   8.162   2.791  0.3621  0.5685  0.7485
  846SOL    HW1 4306   6.839   8.246   2.752  3.0011 -0.7606 -0.8097
  846SOL    HW2 4307   6.807   8.102   2.717  0.7737 -0.9934  1.9003
  847SOL     OW 4308   4.216   9.471   6.165 -0.3044 -0.8880  0.2248
  847SOL    HW1 4309   4.124   9.487   6.187  0.1193 -1.2496  2.4324
  847SOL    HW2 4310   4.240   9.547   6.111 -1.7738 -0.5985 -0.0837
  848SOL     OW 4311   4.031   0.265   2.286 -0.3438  0.0243  0.0286
  848SOL    HW1 4312   4.125   0.280   2.291 -0.4910  0.6863  0.9841
  848SOL    HW2 4313   3.995   0.307   2.364 -1.6084  1.0544 -1.0521
  849SOL     OW 4314   9.810   9.303   0.627  0.2889 -0.3659  0.5434
  849SOL    HW1 4315   9.757   9.381   0.613  0.7858 -0.1307 -0.0863
  849SOL    HW2 4316   9.789   9.275   0.716 -0.2821  0.1824  0.5869
  850SOL     OW 4317   9.118   1.572   0.170  0.5061 -0.3418 -0.3501
  850SOL    HW1 4318   9.056   1.585   0.098  0.3267 -0.3686 -0.2011
  850SOL    HW2 4319   9.087   1.493   0.215 -1.7806  1.7923  2.1846
  851SOL     OW 4320   1.925   8.224   6.755 -0.3369  0.2024  0.2696
  851SOL    HW1 4321   1.997   8.163   6.772  0.0767  0.6428  0.1183
  851SOL    HW2 4322   1.858   8.170   6.713  0.7079  0.1787 -1.4769
  852SOL     OW 4323   7.864   1.627   5.851  0.0161  0.0634 -0.4693
  852SOL    HW1 4324   7.950   1.627   5.809  0.3695 -0.5797  0.2372
  852SOL    HW2 4325   7.822   1.706   5.819  1.2130  0.8677 -0.1162
  853SOL     OW 4326   0.105   3.402   8.297  0.0996 -0.4453  0.1111
  853SOL    HW1 4327   0.182   3.361   8.337  0.3655  0.1212  0.2015
  853SOL    HW2 4328   0.121   3.397   8.203  0.1655 -0.4913  0.1250
  854SOL     OW 4329   3.375   5.515   7.301  0.4890 -0.0495  0.0317
  854SOL    HW1 4330   3.413   5.456   7.366  0.4067  0.2689  0.3707
  854SOL    HW2 4331   3.281   5.496   7.303  0.7643 -2.1271 -2.0873
  855SOL     OW 4332   9.157   2.149   3.019  0.1184 -0.0616 -0.3394
  855SOL    HW1 4333   9.162   2.244   3.023  0.6547 -0.0577 -0.9201
  855SOL    HW2 4334   9.068   2.128   3.047  0.1460  0.5792  0.2363
  856SOL     OW 4335   0.848   2.178   7.677 -0.1549  0.7054 -0.1085
  856SOL    HW1 4336   0.797   2.201   7.755 -0.2739  0.8399 -0.2261
  856SOL    HW2 4337   0.783   2.168   7.608 -0.4624 -2.7279  0.5043
  857SOL     OW 4338   2.210   7.111   5.697  0.1804  0.0480  0.4721
  857SOL    HW1 4339   2.228   7.171   5.769  1.8433 -0.5249  0.5718
  857SOL    HW2 4340   2.270   7.137   5.628 -1.3757  0.5777 -0.7548
  858SOL     OW 4341   3.261   4.866   4.301  0.2306  0.0248 -0.2794
  858SOL    HW1 4342   3.246   4.931   4.233 -0.2662 -0.4489 -0.6269
  858SOL    HW2 4343   3.249   4.914   4.383 -1.9271 -0.0110 -0.5256
  859SOL     OW 4344   7.767   7.276   5.349  0.2747 -0.1899 -0.3675
  859SOL    HW1 4345   7.756   7.261   5.255  0.0286  2.1355 -0.7538
  859SOL    HW2 4346   7.694   7.228   5.388  0.2244 -0.9757 -1.3752
  860SOL     OW 4347   3.175   9.131   4.466  0.0720 -0.9813  0.3693
  860SOL    HW1 4348   3.221   9.194   4.521 -1.7496  1.2179 -0.4857
  860SOL    HW2 4349   3.088   9.125   4.505 -0.3867 -1.4907 -0.7167
  861SOL     OW 4350   2.492   1.117   1.466 -0.2748 -0.1089  0.7131
  861SOL    HW1 4351   2.434   1.097   1.539 -1.4106  0.2132 -0.0691
  861SOL    HW2 4352   2.435   1.117   1.389  0.7294  0.4114 -0.0615
  862SOL     OW 4353   3.637   3.639   2.672  0.3466 -0.4411  0.3898
  862SOL    HW1 4354   3.658   3.563   2.618  1.5136  1.6718 -2.3513
  862SOL    HW2 4355   3.563   3.681   2.627  0.0770  0.3532  1.5335
  863SOL     OW 4356   2.063   9.471   7.858  0.2385 -0.1116 -0.8911
  863SOL    HW1 4357   2.118   9.431   7.925 -0.3459  0.0596 -0.2948
  863SOL    HW2 4358   2.120   9.535   7.815 -0.1595  2.0585  1.5204
  864SOL     OW 4359   2.694   7.287   4.978  0.1585  0.2059  0.6668
  864SOL    HW1 4360   2.701   7.365   5.034 -0.1817 -0.8376  2.2095
  864SOL    HW2 4361   2.630   7.231   5.022 -3.5418  1.0866 -2.9116
  865SOL     OW 4362   4.262   4.083   2.190  0.3223 -0.2607  0.3011
  865SOL    HW1 4363   4.220   4.168   2.176  1.9257  0.4947 -0.0990
  865SOL    HW2 4364   4.231   4.030   2.116 -0.9590 -0.1595  0.7369
  866SOL     OW 4365   1.268   1.355   9.775  0.2426  0.4610  0.1220
  866SOL    HW1 4366   1.228   1.364   9.861  1.4075  0.5212  0.6792
  866SOL    HW2 4367   1.265   1.443   9.738  1.4056  0.8575  0.8917
  867SOL     OW 4368   7.655   6.892   5.395 -0.2114 -0.1706 -0.0421
  867SOL    HW1 4369   7.731   6.872   5.451 -0.1828  0.0286 -0.0080
  867SOL    HW2 4370   7.629   6.807   5.359 -0.4245 -0.3539  0.5211
  868SOL     OW 4371   1.069   6.272   8.978 -0.2157 -0.1357  0.2089
  868SOL    HW1 4372   0.997   6.326   9.012  1.1230  1.1963  1.0348
  868SOL    HW2 4373   1.121   6.333   8.926 -0.3237 -1.3681 -1.4192
  869SOL     OW 4374   7.833   1.199   8.479 -0.3694 -0.5605 -0.4622
  869SOL    HW1 4375   7.860   1.239   8.561  0.1455 -0.6588 -0.5837
  869SOL    HW2 4376   7.877   1.251   8.412 -0.8555 -0.4249 -0.6808
  870SOL     OW 4377   7.411   4.509   7.914  0.3748 -0.2202  0.4969
  870SOL    HW1 4378   7.458   4.448   7.971  1.5652  0.2265  0.0289
  870SOL    HW2 4379   7.386   4.457   7.838  0.0217 -0.4783  0.7824
  871SOL     OW 4380   3.120   9.411   1.747  0.2835  0.8484  0.0548
  871SOL    HW1 4381   3.053   9.344   1.737  0.2638  0.5990  1.5502
  871SOL    HW2 4382   3.086   9.487   1.700 -1.1406  0.7830  0.9229
  872SOL     OW 4383   0.945   7.393   3.401 -0.0406  0.1184  0.1235
  872SOL    HW1 4384   0.958   7.435   3.486 -0.3846  0.4039  0.0380
  872SOL    HW2 4385   1.026   7.344   3.385  0.9028  1.7396 -0.3436
  873SOL     OW 4386   5.277   2.710   1.162 -0.6620 -0.0645 -0.1620
  873SOL    HW1 4387   5.183   2.704   1.146 -0.5054 -1.2615 -0.7072
  873SOL    HW2 4388   5.303   2.622   1.186  0.4939  0.0320 -0.9945
  874SOL     OW 4389   6.582   6.157   5.435 -0.5578  0.0671  0.3481
  874SOL    HW1 4390   6.677   6.162   5.425 -0.5390 -0.3504  0.2830
  874SOL    HW2 4391   6.553   6.248   5.433 -0.0343  0.2864  1.6786
  875SOL     OW 4392   0.923   2.005   6.326  0.0535  0.9612 -0.1307
  875SOL    HW1 4393   0.829   1.990   6.328 -0.2379  2.7073  0.4761
  875SOL    HW2 4394   0.959   1.937   6.383 -0.5278 -1.3535 -2.3366
  876SOL     OW 4395   5.866   6.563   0.791 -0.0910 -0.3960  0.0765
  876SOL    HW1 4396   5.953   6.564   0.753  0.4391  1.2322  1.2159
  876SOL    HW2 4397   5.877   6.521   0.877 -0.7158 -1.4498 -0.3397
  877SOL     OW 4398   0.986   3.016   2.397  0.3169  0.2102  0.0521
  877SOL    HW1 4399   0.975   3.091   2.456 -0.4629  1.3256 -1.4270
  877SOL    HW2 4400   1.045   3.048   2.329 -1.3549  0.1211 -1.5285
  878SOL     OW 4401   2.619   9.792   8.534 -0.0198 -0.5892  0.6297
  878SOL    HW1 4402   2.546   9.786   8.471  0.4636  0.3937 -0.0542
  878SOL    HW2 4403   2.637   9.886   8.541  0.5217 -0.7514  1.5751
  879SOL     OW 4404   1.880   1.672   9.481 -0.2888  0.2604 -0.5574
  879SOL    HW1 4405   1.813   1.696   9.544  1.0484 -2.9240  2.3956
  879SOL    HW2 4406   1.900   1.580   9.501  2.6785  0.0998 -3.4068
  880SOL     OW 4407   3.265   5.704   4.709  0.0058  0.1962 -0.1751
  880SOL    HW1 4408   3.217   5.639   4.658  1.7582 -0.6215 -0.8844
  880SOL    HW2 4409   3.198   5.759   4.748 -1.5358 -1.6020 -0.1405
  881SOL     OW 4410   5.885   0.153   3.561  0.4621 -0.4291 -0.3172
  881SOL    HW1 4411   5.805   0.127   3.515  0.6489 -1.0308 -0.3146
  881SOL    HW2 4412   5.856   0.216   3.626  0.0574 -0.2777 -0.6382
  882SOL     OW 4413   5.939   8.630   9.678 -0.1727  0.1944 -0.0992
  882SOL    HW1 4414   5.856   8.587   9.695 -0.5015 -0.0989 -2.2119
  882SOL    HW2 4415   5.939   8.707   9.735 -1.6788 -0.0456  0.2455
  883SOL     OW 4416   2.392   1.695   3.338  0.1804  0.0199 -0.5536
  883SOL    HW1 4417   2.298   1.686   3.326  0.1453 -1.2822  0.4493
  883SOL    HW2 4418   2.426   1.716   3.251 -0.9646 -0.1036 -1.0437
  884SOL     OW 4419   1.861   9.383   1.759  0.3997  0.0844 -0.0497
  884SOL    HW1 4420   1.904   9.461   1.793 -0.1033  0.1901  0.3610
  884SOL    HW2 4421   1.776   9.382   1.802  1.2748 -1.9853  1.8227
  885SOL     OW 4422   8.667   0.797   2.481  0.5282  0.4614 -0.6405
  885SOL    HW1 4423   8.672   0.757   2.567  1.3407  0.4105 -0.7040
  885SOL    HW2 4424   8.757   0.795   2.448  0.1406 -0.1086 -1.7526
  886SOL     OW 4425   6.953   3.909   6.604  0.3496 -0.0840  0.5756
  886SOL    HW1 4426   6.880   3.880   6.549 -0.0696 -0.6496  1.4009
  886SOL    HW2 4427   7.031   3.875   6.560  0.2332  1.4051 -0.8737
  887SOL     OW 4428   9.637   2.943   6.843 -0.3900  0.2075  0.2585
  887SOL    HW1 4429   9.686   3.016   6.805  1.2700 -0.7680  0.4380
  887SOL    HW2 4430   9.617   2.971   6.932 -1.2450  1.1039 -0.2051
  888SOL     OW 4431   5.996   8.004   0.280  0.0854  0.2051 -0.5411
  888SOL    HW1 4432   5.948   8.051   0.349 -1.2723  0.0774 -1.3459
  888SOL    HW2 4433   5.965   7.914   0.288  0.8693 -0.0621 -0.5247
  889SOL     OW 4434   7.256   9.510   7.785 -0.2942 -0.5322  0.4462
  889SOL    HW1 4435   7.263   9.425   7.829  1.3448 -1.1128 -0.8245
  889SOL    HW2 4436   7.333   9.559   7.815  0.3280 -0.5921 -0.9671
  890SOL     OW 4437   4.738   2.489   1.076  0.3672 -0.1462 -0.1840
  890SOL    HW1 4438   4.796   2.414   1.089  1.0544  0.2172 -1.1320
  890SOL    HW2 4439   4.791   2.554   1.031 -0.2936  0.8347  0.4175
  891SOL     OW 4440   3.935   6.733   5.097 -0.3600 -0.1886  0.0039
  891SOL    HW1 4441   4.009   6.684   5.060  2.1548  2.4930  1.1075
  891SOL    HW2 4442   3.939   6.819   5.055 -2.4270  0.2886  0.6654
  892SOL     OW 4443   8.801   2.608   1.795 -0.3124 -0.5389 -0.4381
  892SOL    HW1 4444   8.724   2.661   1.817  0.6821 -0.1418  2.5642
  892SOL    HW2 4445   8.846   2.596   1.879  1.4008 -3.1675 -1.6204
  893SOL     OW 4446   9.657   6.495   6.275 -0.2194 -0.1228  0.1026
  893SOL    HW1 4447   9.632   6.479   6.366  3.2957  0.3802  1.2768
  893SOL    HW2 4448   9.696   6.582   6.276  3.3622 -1.5443 -0.9820
  894SOL     OW 4449   5.902   1.394   8.434  0.1030 -0.2579  0.4180
  894SOL    HW1 4450   5.987   1.410   8.392  1.4256  0.3967  3.0878
  894SOL    HW2 4451   5.868   1.481   8.455 -0.2580 -0.5569  1.1129
  895SOL     OW 4452   4.217   0.871   3.436 -0.0025  0.1618 -0.3600
  895SOL    HW1 4453   4.281   0.892   3.503  0.2100  0.8072 -0.7611
  895SOL    HW2 4454   4.258   0.800   3.385 -1.3494 -2.4820  1.9250
  896SOL     OW 4455   4.241   8.877   5.659  0.0138  0.4952 -0.2820
  896SOL    HW1 4456   4.162   8.829   5.635  0.9649 -0.6948 -1.1399
  896SOL    HW2 4457   4.254   8.856   5.752  1.0855 -2.0227 -0.9095
  897SOL     OW 4458   8.589   7.481   5.821 -0.4905 -0.0681  0.4108
  897SOL    HW1 4459   8.532   7.536   5.874  1.4609  1.6027  0.8770
  897SOL    HW2 4460   8.540   7.467   5.740 -1.7085  0.9775  0.9306
  898SOL     OW 4461   6.772   4.304   0.275 -0.5521 -0.8907  0.2251
  898SOL    HW1 4462   6.724   4.338   0.351 -1.0186 -0.1383 -0.3932
  898SOL    HW2 4463   6.729   4.344   0.199 -0.3424 -1.9336 -0.4633
  899SOL     OW 4464   1.207   3.003   7.422  0.3352 -0.0681  0.8185
  899SOL    HW1 4465   1.160   2.974   7.344  1.7310 -0.6122  0.1396
  899SOL    HW2 4466   1.300   2.991   7.400  0.8553  1.7755  1.7552
  900SOL     OW 4467   9.273   6.925   4.768  0.3388  0.0440  0.2564
  900SOL    HW1 4468   9.276   7.009   4.815  2.1821  1.4583 -2.1736
  900SOL    HW2 4469   9.359   6.887   4.784 -0.1609 -0.9800  0.5657
  901SOL     OW 4470   4.645   8.158   1.054 -0.3484 -0.1898  0.0576
  901SOL    HW1 4471   4.604   8.072   1.063  1.4988 -1.0498  0.7843
  901SOL    HW2 4472   4.735   8.139   1.028  0.4428  1.4400  1.3733
  902SOL     OW 4473   6.832   7.758   8.167  0.0498 -0.1155  0.0304
  902SOL    HW1 4474   6.919   7.719   8.157  1.0737  2.2263 -0.9678
  902SOL    HW2 4475   6.775   7.704   8.111  1.0106 -1.1616  0.0200
  903SOL     OW 4476   0.012   7.282   5.232  1.0735  0.0887 -0.2616
  903SOL    HW1 4477  -0.007   7.221   5.160  0.1519  0.2807 -0.1961
  903SOL    HW2 4478   0.054   7.228   5.299  0.3619 -0.4599 -0.2494
  904SOL     OW 4479   6.303   8.971   7.774 -0.3754 -0.7497 -0.1305
  904SOL    HW1 4480   6.379   9.006   7.727  1.6009 -1.4480  2.3012
  904SOL    HW2 4481   6.267   9.046   7.821  0.0514 -0.7967  0.2741
  905SOL     OW 4482   0.119   1.936   1.728  0.1983  0.3647  0.0040
  905SOL    HW1 4483   0.107   1.983   1.645 -1.7746 -0.5152 -0.2777
  905SOL    HW2 4484   0.055   1.976   1.787  1.9299  1.3304  1.3280
  906SOL     OW 4485   2.103   6.117   3.290  0.1614 -0.2575 -0.1002
  906SOL    HW1 4486   2.045   6.118   3.214 -1.0459  1.6313  0.7690
  906SOL    HW2 4487   2.079   6.039   3.339 -1.4450  0.2933  0.0440
  907SOL     OW 4488   6.579   2.731   3.202 -0.0279 -0.0981  0.1721
  907SOL    HW1 4489   6.523   2.659   3.172  1.6040 -1.0521 -0.7025
  907SOL    HW2 4490   6.668   2.697   3.196  0.7603  1.8012  0.3086
  908SOL     OW 4491   5.521   8.377   1.039  0.1740  0.9849  0.7936
  908SOL    HW1 4492   5.475   8.385   0.955 -0.4414  1.4557  1.1640
  908SOL    HW2 4493   5.488   8.296   1.077 -2.2031  2.4264  2.1062
  909SOL     OW 4494   6.581   7.324   0.464 -0.0493 -0.5436  0.2331
  909SOL    HW1 4495   6.527   7.390   0.507  0.7252  0.1907  0.1042
  909SOL    HW2 4496   6.575   7.345   0.371 -1.3112 -1.8166  0.0032
  910SOL     OW 4497   1.483   9.257   6.515 -0.5166  0.4451 -0.0320
  910SOL    HW1 4498   1.550   9.216   6.460 -0.2235  0.8986 -0.0194
  910SOL    HW2 4499   1.516   9.246   6.604  0.1260  1.6975 -0.1024
  911SOL     OW 4500   2.958   5.079   1.291  0.0547 -0.6017 -0.0116
  911SOL    HW1 4501   2.964   5.023   1.369  0.4021  0.0609  0.4459
  911SOL    HW2 4502   2.866   5.074   1.265  0.4306 -3.0052 -1.1997
  912SOL     OW 4503   8.622   7.623   8.012  0.5602  0.5095  0.1482
  912SOL    HW1 4504   8.554   7.561   7.986  0.3633  0.8608 -0.1907
  912SOL    HW2 4505   8.695   7.569   8.041 -0.1174  0.1215  1.2039
  913SOL     OW 4506   5.681   1.215   1.551  0.0368 -0.4853 -0.4905
  913SOL    HW1 4507   5.702   1.251   1.465 -0.8405 -2.3751 -1.5761
  913SOL    HW2 4508   5.678   1.290   1.610 -0.2490  0.9704 -2.3015
  914SOL     OW 4509   3.560   2.354   8.197 -0.2709 -0.3756  0.2588
  914SOL    HW1 4510   3.547   2.435   8.246  0.8238 -0.4692  0.7301
  914SOL    HW2 4511   3.472   2.321   8.181 -0.6972  0.4672  0.8054
  915SOL     OW 4512   1.811   3.360   5.283 -0.8086 -0.2204  0.1182
  915SOL    HW1 4513   1.875   3.401   5.224 -0.5527 -0.0788  0.4947
  915SOL    HW2 4514   1.727   3.375   5.240 -0.4217 -2.8101 -1.8487
  916SOL     OW 4515   4.824   5.143   1.326 -0.2090 -0.6894  0.2949
  916SOL    HW1 4516   4.818   5.105   1.238  1.4642 -0.4893  0.0616
  916SOL    HW2 4517   4.737   5.180   1.342 -0.4594 -0.4652 -1.4099
  917SOL     OW 4518   8.653   4.426   2.797 -0.1776 -0.3786  0.5485
  917SOL    HW1 4519   8.740   4.458   2.773 -0.1899  0.0157  1.0086
  917SOL    HW2 4520   8.646   4.444   2.890 -0.2259 -1.6620  0.8147
  918SOL     OW 4521   0.488   3.678   5.118  0.5472  0.1584  0.0071
  918SOL    HW1 4522   0.410   3.715   5.159  0.5095 -0.8259  0.8759
  918SOL    HW2 4523   0.560   3.732   5.150  0.1840  1.4685 -1.2953
  919SOL     OW 4524   3.618   5.570   3.293  0.1535  0.5624 -0.6470
  919SOL    HW1 4525   3.696   5.614   3.324 -0.5450  0.5464  1.2871
  919SOL    HW2 4526   3.646   5.481   3.273  0.2173 -0.2247  2.5227
  920SOL     OW 4527   4.097   7.358   8.056 -0.2946  0.4827  0.6112
  920SOL    HW1 4528   4.090   7.296   8.128  0.7798 -0.3280  0.0439
  920SOL    HW2 4529   4.162   7.320   7.997  0.9213  2.4584  0.5679
  921SOL     OW 4530   2.169   7.938   8.976  0.2466  0.7623  0.6657
  921SOL    HW1 4531   2.109   7.990   9.028  1.6871  2.2031  0.9576
  921SOL    HW2 4532   2.249   7.933   9.029  0.7083 -0.3257 -0.1000
  922SOL     OW 4533   2.673   1.280   6.425 -0.6367 -0.9121  0.0279
  922SOL    HW1 4534   2.769   1.285   6.428 -0.6966  0.8058  2.9980
  922SOL    HW2 4535   2.647   1.258   6.515 -3.0664 -0.2192 -0.4256
  923SOL     OW 4536   4.685   1.868   4.200 -0.1648  0.3461  0.2628
  923SOL    HW1 4537   4.642   1.791   4.238  0.3098 -0.4696 -0.7917
  923SOL    HW2 4538   4.765   1.879   4.251  0.1393 -0.3384 -0.0538
  924SOL     OW 4539   7.797   9.111   1.539 -0.2485 -0.0074 -0.8658
  924SOL    HW1 4540   7.769   9.202   1.530 -0.2013  0.0188 -0.7578
  924SOL    HW2 4541   7.856   9.112   1.615 -0.6232 -0.2151 -0.5679
  925SOL     OW 4542   2.843   7.141   4.320 -0.5681  0.0383 -0.3542
  925SOL    HW1 4543   2.938   7.143   4.319 -0.3224  0.6225  3.8620
  925SOL    HW2 4544   2.816   7.233   4.315 -0.7040  0.0935  1.0529
  926SOL     OW 4545   6.924   8.117   4.605 -0.3515 -0.0989 -0.3698
  926SOL    HW1 4546   6.927   8.045   4.668  0.3852 -0.9320 -1.3193
  926SOL    HW2 4547   6.979   8.185   4.644  3.1246 -1.9396 -1.6002
  927SOL     OW 4548   4.195   3.312   9.320  0.2372  0.1078  0.2503
  927SOL    HW1 4549   4.152   3.389   9.358  0.1551 -0.9541  2.4591
  927SOL    HW2 4550   4.147   3.296   9.239 -2.3532  0.1184  1.6678
  928SOL     OW 4551   9.735   1.609   3.062 -0.7975 -0.0477  0.0266
  928SOL    HW1 4552   9.698   1.685   3.106 -0.0797 -0.5635  1.5919
  928SOL    HW2 4553   9.777   1.644   2.983  0.3016  1.2981  1.1770
  929SOL     OW 4554   8.596   5.498   6.499  0.5665 -0.4572 -0.1516
  929SOL    HW1 4555   8.681   5.496   6.543  1.3799 -1.7558 -1.6636
  929SOL    HW2 4556   8.550   5.421   6.533  1.4717 -1.8799 -1.9500
  930SOL     OW 4557   0.926   2.660   1.725 -0.6394 -0.0566  0.3522
  930SOL    HW1 4558   0.886   2.631   1.807 -0.3500  1.2350  0.9835
  930SOL    HW2 4559   0.861   2.639   1.657 -0.4753 -2.0195  0.7529
  931SOL     OW 4560   0.799   6.265   3.939 -0.2924  0.4233 -0.4101
  931SOL    HW1 4561   0.872   6.240   3.995  0.5866 -0.1938 -1.7849
  931SOL    HW2 4562   0.722   6.226   3.982  0.7178 -2.7115 -1.1754
  932SOL     OW 4563   4.609   7.588   1.829  0.8550 -0.4384 -0.3079
  932SOL    HW1 4564   4.600   7.636   1.911  0.3039 -0.6699 -0.2308
  932SOL    HW2 4565   4.693   7.542   1.837  1.4534  0.6049 -0.4398
  933SOL     OW 4566   9.452   8.682   6.173 -0.0131  0.0221  0.1924
  933SOL    HW1 4567   9.507   8.718   6.243  1.2390  0.0002 -0.7640
  933SOL    HW2 4568   9.388   8.752   6.155  1.8388  1.4775 -1.0319
  934SOL     OW 4569   2.671   5.868   8.579 -0.4170  0.2963  0.2935
  934SOL    HW1 4570   2.752   5.833   8.617  0.4627  0.4095 -1.4031
  934SOL    HW2 4571   2.628   5.792   8.540 -1.1301  0.2462  1.1423
  935SOL     OW 4572   9.572   8.704   2.393  0.0793  0.3034 -0.7435
  935SOL    HW1 4573   9.625   8.633   2.356 -0.4540 -0.3748 -0.2266
  935SOL    HW2 4574   9.486   8.693   2.352  0.7561  2.5063 -3.0036
  936SOL     OW 4575   6.940   4.191   6.866  0.1501  0.1768  0.0806
  936SOL    HW1 4576   6.859   4.228   6.900  1.1400  1.9848  0.5766
  936SOL    HW2 4577   6.929   4.192   6.771 -0.3198  0.6180  0.1341
  937SOL     OW 4578   5.515   0.130   8.468 -0.4816 -0.9929  0.1140
  937SOL    HW1 4579   5.498   0.218   8.436 -0.2103 -1.1245 -0.3929
  937SOL    HW2 4580   5.461   0.073   8.413 -0.2068 -1.1963  0.0542
  938SOL     OW 4581   8.800   1.866   6.377 -0.2678  0.3445 -0.0548
  938SOL    HW1 4582   8.714   1.902   6.354 -0.3048  1.0968  1.1566
  938SOL    HW2 4583   8.846   1.940   6.418  0.6772 -0.2560 -0.0137
  939SOL     OW 4584   4.284   6.090   2.994 -0.0545 -0.2647 -0.0836
  939SOL    HW1 4585   4.338   6.012   2.984 -1.7911 -1.4360 -0.8353
  939SOL    HW2 4586   4.300   6.119   3.084 -0.8884 -2.7127  0.9573
  940SOL     OW 4587   0.023   9.339   5.432  0.3564  0.3451  0.1870
  940SOL    HW1 4588   0.055   9.419   5.474  1.5286 -0.7154  1.3997
  940SOL    HW2 4589   0.066   9.268   5.480 -2.8557 -1.1645  1.0929
  941SOL     OW 4590   3.147   3.607   9.126  0.3547 -0.3739  0.1833
  941SOL    HW1 4591   3.055   3.603   9.099  0.6856 -0.4765 -1.0089
  941SOL    HW2 4592   3.160   3.697   9.154 -0.0512 -0.2958  0.1259
  942SOL     OW 4593   2.745   2.287   5.213  0.5046 -0.5285 -0.1129
  942SOL    HW1 4594   2.675   2.345   5.242  0.6280 -0.5119  0.1594
  942SOL    HW2 4595   2.801   2.276   5.290  1.7694  0.8628 -0.7876
  943SOL     OW 4596   4.867   6.353   4.952  0.0742  0.0404  0.1277
  943SOL    HW1 4597   4.803   6.307   5.006  1.2036 -1.1378  0.4994
  943SOL    HW2 4598   4.844   6.445   4.961  0.6545 -0.0252  3.2304
  944SOL     OW 4599   1.908   3.667   1.690 -0.3481 -0.8145  0.3733
  944SOL    HW1 4600   1.888   3.651   1.598 -1.1381  2.2154 -0.0918
  944SOL    HW2 4601   1.986   3.614   1.708  0.9732 -0.0578 -2.5753
  945SOL     OW 4602   7.577   0.281   5.054  0.2694  0.1479  0.1486
  945SOL    HW1 4603   7.622   0.228   5.121  1.5491 -0.8057 -1.4044
  945SOL    HW2 4604   7.646   0.331   5.012 -0.1687 -0.7773 -1.7912
  946SOL     OW 4605   0.223   7.694   3.741 -0.3095  0.7208  0.5338
  946SOL    HW1 4606   0.212   7.620   3.800  0.1171  1.9460  2.2363
  946SOL    HW2 4607   0.188   7.769   3.789  1.4633  2.0386 -0.0917
  947SOL     OW 4608   7.722   9.755   8.631 -0.1487  0.2333  0.6150
  947SOL    HW1 4609   7.729   9.784   8.722  2.6959 -1.7671  1.1728
  947SOL    HW2 4610   7.758   9.666   8.631 -3.5607 -1.4127 -1.8554
  948SOL     OW 4611   8.612   2.424   7.948 -0.1254  0.8745 -0.7973
  948SOL    HW1 4612   8.566   2.470   8.019 -0.3872 -2.0320  1.1039
  948SOL    HW2 4613   8.692   2.474   7.934  0.5524  0.9591  2.5034
  949SOL     OW 4614   2.654   3.497   0.274  0.1546 -0.0935  0.0124
  949SOL    HW1 4615   2.590   3.523   0.340 -0.9279 -0.6197 -0.8110
  949SOL    HW2 4616   2.659   3.572   0.215  1.3858  0.5190  0.8584
  950SOL     OW 4617   1.781   2.669   7.794  0.3181  0.5040  0.1025
  950SOL    HW1 4618   1.773   2.624   7.710 -0.1112  0.8336 -0.0356
  950SOL    HW2 4619   1.872   2.696   7.798  0.5914 -0.3791  0.1928
  951SOL     OW 4620   7.604   2.317   9.418  0.2280 -0.2862 -0.2640
  951SOL    HW1 4621   7.668   2.282   9.480  3.5727  2.4961 -1.8165
  951SOL    HW2 4622   7.570   2.396   9.460  1.3811  0.7784 -1.2598
  952SOL     OW 4623   8.081   2.680   2.764  0.5802  0.6537  0.5669
  952SOL    HW1 4624   8.152   2.674   2.828  0.8860  0.7750  0.2432
  952SOL    HW2 4625   8.094   2.603   2.708 -0.3969 -0.1198  1.3616
  953SOL     OW 4626   7.656   3.814   2.240 -0.2941 -0.2339 -0.1559
  953SOL    HW1 4627   7.661   3.735   2.294 -0.7990  0.1042  0.3972
  953SOL    HW2 4628   7.604   3.875   2.292  1.5215  1.0914  0.1945
  954SOL     OW 4629   3.729   0.295   4.583 -0.3114  0.7618  0.4176
  954SOL    HW1 4630   3.777   0.335   4.511 -2.1274  1.4983 -0.4375
  954SOL    HW2 4631   3.767   0.207   4.591 -0.3158  0.5196 -1.7184
  955SOL     OW 4632   6.039   9.769   5.881 -0.6512 -0.1306 -0.4762
  955SOL    HW1 4633   6.131   9.741   5.881 -0.8253 -0.7765  0.5409
  955SOL    HW2 4634   6.024   9.804   5.794  0.6358  0.2213 -0.5738
  956SOL     OW 4635   8.398   6.899   8.662  0.9245 -0.6814  0.4436
  956SOL    HW1 4636   8.407   6.804   8.655  1.1320 -0.7781  1.7498
  956SOL    HW2 4637   8.451   6.934   8.590  1.5595 -1.5420  0.4775
  957SOL     OW 4638   6.316   4.999   1.909 -0.0793 -0.1194  0.5998
  957SOL    HW1 4639   6.345   4.909   1.922 -1.7062 -0.6333  0.7991
  957SOL    HW2 4640   6.394   5.052   1.928  1.3721 -1.5236 -1.0465
  958SOL     OW 4641   9.196   1.324   6.460 -0.1687  0.6041  0.0817
  958SOL    HW1 4642   9.200   1.360   6.371 -0.5066 -0.7406 -0.5102
  958SOL    HW2 4643   9.260   1.253   6.460  1.2912  1.8361  1.5674
  959SOL     OW 4644   9.407   3.354   6.740 -0.1475 -0.2994 -0.2047
  959SOL    HW1 4645   9.451   3.439   6.740 -0.1752 -0.2864  0.0548
  959SOL    HW2 4646   9.315   3.374   6.728 -0.1776 -0.2816  0.0609
  960SOL     OW 4647   9.132   7.408   0.220  0.3218 -0.5156 -0.2395
  960SOL    HW1 4648   9.073   7.339   0.249  1.7791 -2.1614 -0.9684
  960SOL    HW2 4649   9.102   7.486   0.266 -2.7254 -1.1001 -0.9762
  961SOL     OW 4650   7.375   8.856   7.967 -0.0891 -0.3013  0.1842
  961SOL    HW1 4651   7.435   8.791   8.005  0.5334  0.4706  0.5439
  961SOL    HW2 4652   7.379   8.839   7.873 -0.5240 -1.2818  0.3238
  962SOL     OW 4653   1.700   1.424   6.336 -0.2686  0.2814 -0.0338
  962SOL    HW1 4654   1.685   1.441   6.429 -0.5644  0.0423 -0.0407
  962SOL    HW2 4655   1.629   1.367   6.309 -0.7630  1.1569 -0.6497
  963SOL     OW 4656   2.304   4.483   7.852  0.1197 -0.0345 -0.0426
  963SOL    HW1 4657   2.304   4.540   7.776 -0.6644 -0.2110 -0.1859
  963SOL    HW2 4658   2.260   4.403   7.822 -1.0128  0.2218  0.8181
  964SOL     OW 4659   9.447   3.668   1.379  0.3614  0.1137 -0.1201
  964SOL    HW1 4660   9.526   3.720   1.365 -0.8010  2.2831  0.9747
  964SOL    HW2 4661   9.405   3.664   1.293 -0.4168  2.5848  0.0824
  965SOL     OW 4662   9.601   2.433   4.128  0.3100 -0.3121  0.0953
  965SOL    HW1 4663   9.596   2.461   4.037  0.8369 -0.6615 -0.0444
  965SOL    HW2 4664   9.512   2.445   4.162  0.9068  3.7691  0.7229
  966SOL     OW 4665   9.080   0.937   7.096  0.2894  0.4865  0.0322
  966SOL    HW1 4666   9.127   1.001   7.151  1.4452  0.4446 -0.8609
  966SOL    HW2 4667   9.023   0.990   7.041 -0.7339  0.5429  1.1164
  967SOL     OW 4668   5.710   8.218   3.080  0.3007 -0.7459 -0.1836
  967SOL    HW1 4669   5.707   8.306   3.042  1.7071 -0.2747  0.7099
  967SOL    HW2 4670   5.690   8.232   3.173 -0.7533 -1.5523 -0.2810
  968SOL     OW 4671   4.348   4.921   3.111  0.2412 -0.3071  0.3502
  968SOL    HW1 4672   4.377   4.878   3.191 -0.7728 -1.4209  0.1416
  968SOL    HW2 4673   4.269   4.968   3.137  0.9599  0.9212  0.4151
  969SOL     OW 4674   2.570   3.929   0.296 -0.1385  0.0059  0.7016
  969SOL    HW1 4675   2.613   3.862   0.243 -0.3215 -1.5645  2.4416
  969SOL    HW2 4676   2.476   3.913   0.283 -0.1835 -0.0231  1.0565
  970SOL     OW 4677   8.140   2.541   5.663  1.1287 -0.1062  0.3103
  970SOL    HW1 4678   8.230   2.528   5.691 -0.0426 -1.9658  3.9272
  970SOL    HW2 4679   8.102   2.453   5.664 -0.8477  0.6729 -0.6821
  971SOL     OW 4680   5.522   6.503   9.771  0.0566  0.5657  0.3207
  971SOL    HW1 4681   5.536   6.444   9.697  1.1581  1.2536 -0.0587
  971SOL    HW2 4682   5.510   6.589   9.730  0.5249  0.9303  0.9276
  972SOL     OW 4683   8.805   5.714   3.017  0.0138  0.5034 -0.1586
  972SOL    HW1 4684   8.876   5.681   2.963  0.9311  0.3788  1.0860
  972SOL    HW2 4685   8.739   5.745   2.954  0.9738  0.2363 -1.3240
  973SOL     OW 4686   3.682   3.167   0.316  0.4041 -0.1708  0.2383
  973SOL    HW1 4687   3.757   3.196   0.368  0.7462  0.0838 -0.3837
  973SOL    HW2 4688   3.711   3.085   0.276  0.7537  0.4520 -0.8342
  974SOL     OW 4689   2.449   7.214   3.044  0.3727 -0.1211  0.0339
  974SOL    HW1 4690   2.476   7.244   3.131  0.0520  0.6461 -0.1235
  974SOL    HW2 4691   2.422   7.123   3.058 -0.5268  0.2582  0.9169
  975SOL     OW 4692   5.011   1.514   1.463 -0.4159 -0.1099  0.0554
  975SOL    HW1 4693   5.052   1.588   1.417  0.0423 -0.2860  0.1723
  975SOL    HW2 4694   4.981   1.456   1.393  2.0577 -1.3592 -0.0782
  976SOL     OW 4695   0.477   7.175   4.261 -0.3771 -0.3087  0.2095
  976SOL    HW1 4696   0.402   7.162   4.319 -0.2385  0.8166  0.6751
  976SOL    HW2 4697   0.467   7.265   4.229  0.8147 -0.1086  0.3565
  977SOL     OW 4698   8.697   5.944   3.594  0.6370 -0.2523 -0.1468
  977SOL    HW1 4699   8.761   5.965   3.662 -0.2080 -3.6107  1.9564
  977SOL    HW2 4700   8.618   5.992   3.619  0.1158 -1.9995  1.8102
  978SOL     OW 4701   7.637   1.677   2.438  0.1769 -0.8056  0.5418
  978SOL    HW1 4702   7.721   1.642   2.468  0.4500  0.2798  1.1030
  978SOL    HW2 4703   7.596   1.713   2.516  0.5392  1.3469 -0.1923
  979SOL     OW 4704   9.299   1.629   0.379  0.8641  0.4621  0.2479
  979SOL    HW1 4705   9.383   1.620   0.335  0.4488  1.3148 -0.7600
  979SOL    HW2 4706   9.234   1.609   0.312  0.2395  0.6039  0.7937
  980SOL     OW 4707   1.550   1.833   2.189 -0.6652  0.3359  0.4092
  980SOL    HW1 4708   1.535   1.847   2.096  0.4605  0.2149  0.2022
  980SOL    HW2 4709   1.480   1.773   2.216  0.3894 -1.5815 -0.8995
  981SOL     OW 4710   7.877   8.008   1.556  0.0664  0.3694  0.0927
  981SOL    HW1 4711   7.962   8.042   1.527  0.2070 -1.1315 -1.3936
  981SOL    HW2 4712   7.899   7.948   1.628  0.1978  0.5851  0.2315
  982SOL     OW 4713   5.217   5.987   4.653 -0.9782  0.0061  0.4782
  982SOL    HW1 4714   5.297   5.935   4.655 -0.3307  0.9668  0.2115
  982SOL    HW2 4715   5.156   5.940   4.710 -0.5843 -1.2972 -0.1182
  983SOL     OW 4716   1.041   8.296   0.585  0.0654 -0.3726 -0.3373
  983SOL    HW1 4717   1.067   8.211   0.549 -0.1194 -0.1215 -1.0894
  983SOL    HW2 4718   0.945   8.296   0.579 -0.0434 -0.7042  1.0460
  984SOL     OW 4719   8.405   7.503   5.023  0.0554  0.1272 -0.3445
  984SOL    HW1 4720   8.317   7.466   5.010 -0.2898  1.0768 -0.8680
  984SOL    HW2 4721   8.390   7.578   5.080  0.3306  1.0016 -1.3815
  985SOL     OW 4722   7.939   0.790   7.744  0.2461  0.4204  0.9792
  985SOL    HW1 4723   8.009   0.764   7.683  2.4811  1.3243  3.0229
  985SOL    HW2 4724   7.982   0.797   7.829 -2.1405  2.0509  2.1699
  986SOL     OW 4725   1.175   5.835   7.827  0.6145  0.1724 -0.0037
  986SOL    HW1 4726   1.155   5.922   7.792 -2.7407 -1.2094 -1.9981
  986SOL    HW2 4727   1.200   5.784   7.751 -2.4665 -1.8105  0.1839
  987SOL     OW 4728   5.251   8.097   5.173  0.3111 -0.1539  0.4673
  987SOL    HW1 4729   5.216   8.025   5.120  0.8777  0.1624 -0.3720
  987SOL    HW2 4730   5.193   8.103   5.248 -0.9960 -0.1066 -0.5183
  988SOL     OW 4731   1.391   6.329   9.717  0.3541  0.1745 -0.2135
  988SOL    HW1 4732   1.469   6.378   9.689  1.1419 -0.5300  0.6909
  988SOL    HW2 4733   1.365   6.370   9.799  1.1238 -0.9725  0.6458
  989SOL     OW 4734   1.181   3.584   1.255 -0.4320 -0.5873  0.1965
  989SOL    HW1 4735   1.201   3.611   1.345 -1.6925  1.0995  0.0143
  989SOL    HW2 4736   1.122   3.510   1.264 -1.2450  0.1176  0.7946
  990SOL     OW 4737   5.815   0.595   9.127  0.7011  0.0497 -0.1563
  990SOL    HW1 4738   5.747   0.537   9.160  1.0169  0.7760  1.8694
  990SOL    HW2 4739   5.776   0.635   9.049 -0.9832  0.0058  0.6189
  991SOL     OW 4740   1.449   0.408   2.423  0.3173  0.1436  0.5077
  991SOL    HW1 4741   1.469   0.491   2.467 -1.4185  0.8031  0.1234
  991SOL    HW2 4742   1.389   0.432   2.353 -0.4681 -1.4811  0.5854
  992SOL     OW 4743   3.711   4.360   9.175  0.1863  0.1214  0.2299
  992SOL    HW1 4744   3.806   4.355   9.166  0.1484  0.4451 -0.3982
  992SOL    HW2 4745   3.677   4.310   9.101 -0.1399 -0.6265  0.8653
  993SOL     OW 4746   2.842   6.941   5.359  0.1208  0.9495  0.2653
  993SOL    HW1 4747   2.863   7.030   5.389  0.4232  0.7788  0.5637
  993SOL    HW2 4748   2.917   6.888   5.386  0.5609  0.8436 -1.0634
  994SOL     OW 4749   7.240   8.848   3.691 -0.3554  0.1764 -0.4124
  994SOL    HW1 4750   7.335   8.840   3.684 -0.4650 -0.1748 -1.6926
  994SOL    HW2 4751   7.225   8.878   3.781  0.8907 -1.0196  0.2307
  995SOL     OW 4752   1.618   0.457   2.013  0.1240 -0.1457 -0.3312
  995SOL    HW1 4753   1.683   0.433   1.947 -0.4839  0.4877 -1.1704
  995SOL    HW2 4754   1.534   0.457   1.966 -0.3762 -0.0959  0.5350
  996SOL     OW 4755   1.311   3.364   1.114  0.8136  0.1020 -0.0263
  996SOL    HW1 4756   1.296   3.457   1.132  3.2432  0.3143  1.3926
  996SOL    HW2 4757   1.405   3.358   1.097  0.8607 -2.1898  0.7031
  997SOL     OW 4758   7.460   6.592   1.798 -0.5809  0.4874  0.2586
  997SOL    HW1 4759   7.469   6.611   1.891  0.2379  0.8486  0.1205
  997SOL    HW2 4760   7.435   6.500   1.794 -0.2012  0.3573  0.8272
  998SOL     OW 4761   8.345   9.439   8.796 -0.3861 -0.1776 -0.3106
  998SOL    HW1 4762   8.373   9.456   8.886  0.1146 -0.2229 -0.4597
  998SOL    HW2 4763   8.424   9.449   8.743 -0.4468 -1.2028 -0.6231
  999SOL     OW 4764   1.713   6.120   8.108 -0.2644  0.4323 -0.6699
  999SOL    HW1 4765   1.641   6.107   8.170 -1.0607  0.3569 -1.5755
  999SOL    HW2 4766   1.754   6.034   8.100 -0.0756  0.4755 -0.1460
 1000SOL     OW 4767   3.982   7.431   3.979  0.5724 -0.3562  0.0405
 1000SOL    HW1 4768   4.067   7.388   3.978  0.7535 -0.0000 -0.0842
 1000SOL    HW2 4769   3.957   7.437   3.886  0.1075 -1.0558  0.1177
 1001SOL     OW 4770   6.209   4.557   3.328  0.2260  0.3061 -0.1921
 1001SOL    HW1 4771   6.246   4.470   3.339 -1.7763 -0.5181  0.6287
 1001SOL    HW2 4772   6.206   4.594   3.417 -0.2211  0.6316 -0.3343
 1002SOL     OW 4773   0.234   7.255   3.242 -0.2084 -0.0416 -0.0494
 1002SOL    HW1 4774   0.151   7.289   3.275 -0.4013  0.2227 -0.7886
 1002SOL    HW2 4775   0.301   7.301   3.294 -0.5208 -0.8486  1.1055
 1003SOL     OW 4776   8.939   5.247   2.321  0.4835  0.3075 -0.2719
 1003SOL    HW1 4777   9.028   5.236   2.286 -0.2728 -0.4454 -2.1470
 1003SOL    HW2 4778   8.920   5.340   2.311  1.1519  0.5251  0.4123
 1004SOL     OW 4779   1.608   6.853   1.585 -0.2536  0.4129 -0.5673
 1004SOL    HW1 4780   1.600   6.850   1.490 -0.3638 -0.7453 -0.5458
 1004SOL    HW2 4781   1.532   6.803   1.617 -0.5924  1.3594  0.1554
 1005SOL     OW 4782   2.027   2.280   5.385 -0.3234  0.0161 -0.1744
 1005SOL    HW1 4783   2.110   2.293   5.340 -1.5082  0.6198 -2.3398
 1005SOL    HW2 4784   2.010   2.186   5.377 -0.5528  0.1279 -1.0907
 1006SOL     OW 4785   6.300   8.387   7.909  0.1219 -0.0774 -0.4665
 1006SOL    HW1 4786   6.310   8.295   7.934  0.5931 -0.3027 -1.4754
 1006SOL    HW2 4787   6.299   8.387   7.814  0.3469  0.9905 -0.4839
 1007SOL     OW 4788   8.929   4.090   9.538 -0.3682  0.6335 -0.1437
 1007SOL    HW1 4789   8.934   4.093   9.442 -0.6218 -1.8182 -0.2917
 1007SOL    HW2 4790   9.020   4.093   9.567 -0.1865 -0.3410 -0.5753
 1008SOL     OW 4791   3.910   5.423   0.893  0.0929 -0.4348  0.4865
 1008SOL    HW1 4792   3.847   5.406   0.963  0.8447  0.2223  1.3381
 1008SOL    HW2 4793   3.896   5.351   0.831  0.4036 -1.8703  2.0108
 1009SOL     OW 4794   4.688   4.213   1.762  0.0134 -0.1224 -0.1683
 1009SOL    HW1 4795   4.709   4.127   1.726 -0.6946  0.3785 -1.8680
 1009SOL    HW2 4796   4.629   4.252   1.698 -0.4417  1.2630  1.0425
 1010SOL     OW 4797   9.767   6.748   6.041 -0.2114  0.0008  0.4751
 1010SOL    HW1 4798   9.799   6.808   5.974 -0.9122  0.5890  0.6598
 1010SOL    HW2 4799   9.679   6.725   6.012  0.4755 -1.9061 -0.2358
 1011SOL     OW 4800   4.968   0.605   1.206 -0.8474  0.5127  0.6362
 1011SOL    HW1 4801   5.046   0.550   1.212  0.2550  2.1045  1.5954
 1011SOL    HW2 4802   4.909   0.556   1.149  1.1165 -0.4151 -0.7314
 1012SOL     OW 4803   7.685   4.020   3.158 -0.0405  0.1131  0.1962
 1012SOL    HW1 4804   7.725   3.934   3.145  0.5903  0.3040  0.8211
 1012SOL    HW2 4805   7.747   4.081   3.118  0.8181  0.5020  2.0129
 1013SOL     OW 4806   8.484   3.827   0.081  0.3494  0.0495 -0.3488
 1013SOL    HW1 4807   8.451   3.776   0.007  0.5555 -2.0806  0.9416
 1013SOL    HW2 4808   8.527   3.763   0.138 -0.0526  1.5382  1.7859
 1014SOL     OW 4809   7.881   8.901   0.459  0.0398  0.3029  0.3334
 1014SOL    HW1 4810   7.803   8.956   0.460 -1.1641 -1.3558  0.4422
 1014SOL    HW2 4811   7.865   8.836   0.528  2.0403  0.6097  1.1660
 1015SOL     OW 4812   8.272   2.981   2.196  0.1315  0.1726  0.5356
 1015SOL    HW1 4813   8.249   3.045   2.129 -0.0650 -1.2741 -0.8535
 1015SOL    HW2 4814   8.353   3.015   2.235  1.4739  0.0292 -1.9454
 1016SOL     OW 4815   2.537   9.340   7.557  0.3240 -0.0338  0.1331
 1016SOL    HW1 4816   2.527   9.245   7.552 -1.6187  0.1781 -0.7688
 1016SOL    HW2 4817   2.482   9.373   7.486  1.5456  1.7491 -0.0375
 1017SOL     OW 4818   7.192   7.640   6.989 -0.4640 -0.2225 -0.3545
 1017SOL    HW1 4819   7.215   7.673   6.903  1.1521  0.4713  0.2986
 1017SOL    HW2 4820   7.161   7.717   7.037  0.6859 -0.1436  0.3124
 1018SOL     OW 4821   1.305   3.821   0.657  0.1286  0.3383 -0.0648
 1018SOL    HW1 4822   1.384   3.772   0.632  0.8007  1.6321 -0.6100
 1018SOL    HW2 4823   1.333   3.912   0.656 -1.7396  0.9758 -1.7540
 1019SOL     OW 4824   8.871   5.215   9.746  0.0637 -0.5379 -0.1728
 1019SOL    HW1 4825   8.939   5.208   9.679  0.4331 -0.4157  0.1858
 1019SOL    HW2 4826   8.792   5.184   9.703  0.4278 -1.0682 -0.4732
 1020SOL     OW 4827   9.562   8.823   0.148  0.1820  0.6092 -0.2068
 1020SOL    HW1 4828   9.495   8.814   0.081  0.6377  0.5122 -0.6619
 1020SOL    HW2 4829   9.632   8.872   0.104  0.6214  0.2540  0.0946
 1021SOL     OW 4830   9.811   4.569   8.213  0.1157  0.0732 -0.2138
 1021SOL    HW1 4831   9.834   4.651   8.258  0.9621 -0.3502  0.1378
 1021SOL    HW2 4832   9.718   4.557   8.231  0.6314 -0.6171  2.3365
 1022SOL     OW 4833   9.271   2.968   7.129  0.8701 -0.3653  0.1728
 1022SOL    HW1 4834   9.315   3.012   7.202  3.6421  0.2813 -1.7076
 1022SOL    HW2 4835   9.287   3.026   7.054 -2.3510 -0.6969 -0.9415
 1023SOL     OW 4836   0.323   5.244   6.452  0.6552 -0.4778  0.2958
 1023SOL    HW1 4837   0.285   5.181   6.391  1.7662 -0.1882 -0.7287
 1023SOL    HW2 4838   0.256   5.311   6.463 -0.5417 -1.8065  1.3916
 1024SOL     OW 4839   2.913   5.927   6.689  0.0204 -0.4280 -0.4638
 1024SOL    HW1 4840   2.883   5.980   6.615  2.4693  2.0252  0.1606
 1024SOL    HW2 4841   2.962   5.855   6.648  1.0576  0.7109 -1.2995
 1025SOL     OW 4842   0.997   6.174   4.128 -0.5300 -0.5725 -0.8126
 1025SOL    HW1 4843   1.072   6.221   4.166  0.2722 -2.3835 -0.0432
 1025SOL    HW2 4844   0.966   6.117   4.198 -3.0438  0.5207 -0.9384
 1026SOL     OW 4845   5.854   9.158   9.343 -0.4868  0.1361  0.2623
 1026SOL    HW1 4846   5.938   9.114   9.355 -0.2198  0.7730  0.7758
 1026SOL    HW2 4847   5.789   9.093   9.368 -0.0616  0.3946  2.2062
 1027SOL     OW 4848   9.070   6.503   2.098  0.3018  0.0749 -0.4105
 1027SOL    HW1 4849   9.069   6.408   2.086 -0.2561  0.1682 -1.2088
 1027SOL    HW2 4850   9.045   6.538   2.012  1.4665  0.9740 -0.4023
 1028SOL     OW 4851   9.514   0.975   1.916 -0.4895 -0.4107 -0.2366
 1028SOL    HW1 4852   9.500   0.881   1.929 -1.2462 -0.3334 -0.4845
 1028SOL    HW2 4853   9.455   0.999   1.844  1.6902 -0.2965 -2.1039
 1029SOL     OW 4854   0.830   4.540   0.499  0.4826  0.5816  0.2582
 1029SOL    HW1 4855   0.873   4.456   0.486 -2.6389 -1.1200  0.0055
 1029SOL    HW2 4856   0.787   4.532   0.584 -1.7600  0.9449 -0.7679
 1030SOL     OW 4857   9.815   3.263   7.561  0.5188  0.1839  0.0334
 1030SOL    HW1 4858   9.751   3.311   7.615  0.8010  0.8769 -0.2332
 1030SOL    HW2 4859   9.857   3.203   7.623  1.5024  1.6324  0.8190
 1031SOL     OW 4860   3.449   2.942   8.304  0.4641 -0.0224 -0.0933
 1031SOL    HW1 4861   3.521   2.996   8.335 -0.4246  0.6885  0.8056
 1031SOL    HW2 4862   3.389   3.003   8.262  0.3470 -0.5997 -0.7945
 1032SOL     OW 4863   3.317   3.851   4.701 -0.1999 -0.0062  0.0712
 1032SOL    HW1 4864   3.370   3.787   4.652  0.2354 -0.0075  0.5306
 1032SOL    HW2 4865   3.239   3.863   4.647 -0.1686 -0.7262 -0.1565
 1033SOL     OW 4866   8.492   4.065   0.503 -1.1477  1.1010 -0.4608
 1033SOL    HW1 4867   8.568   4.124   0.512 -1.5045  1.4771  0.1695
 1033SOL    HW2 4868   8.528   3.978   0.517 -0.8370  1.2808 -0.1022
 1034SOL     OW 4869   0.342   7.140   6.405  0.1661  0.4826  0.2916
 1034SOL    HW1 4870   0.406   7.120   6.473  0.0943  0.0857  0.2451
 1034SOL    HW2 4871   0.340   7.062   6.351 -0.1563  0.6014  0.1311
 1035SOL     OW 4872   3.441   7.533   6.854  0.2622  0.1385 -0.3670
 1035SOL    HW1 4873   3.392   7.476   6.795  0.5601 -0.2106 -0.2852
 1035SOL    HW2 4874   3.470   7.475   6.924 -0.7277  0.6900  0.5280
 1036SOL     OW 4875   7.348   1.899   9.821 -0.1488 -0.6042  0.4763
 1036SOL    HW1 4876   7.364   1.811   9.786 -0.6434 -0.7957  0.7352
 1036SOL    HW2 4877   7.425   1.917   9.876 -0.3327 -1.1171  0.9080
 1037SOL     OW 4878   5.367   1.205   1.624 -0.3125  0.6274 -0.7553
 1037SOL    HW1 4879   5.290   1.155   1.597  0.2973 -0.0561 -1.2855
 1037SOL    HW2 4880   5.338   1.296   1.626 -1.8893  0.1568  1.7230
 1038SOL     OW 4881   4.815   8.488   7.927  0.2974 -0.4005 -0.0887
 1038SOL    HW1 4882   4.884   8.554   7.935 -0.4475  0.4813 -0.6983
 1038SOL    HW2 4883   4.862   8.405   7.924  1.3304  0.1718 -0.3200
 1039SOL     OW 4884   1.580   0.797   6.544 -0.5211 -0.5533 -0.7621
 1039SOL    HW1 4885   1.656   0.808   6.601 -0.8483  1.1262 -0.5946
 1039SOL    HW2 4886   1.617   0.781   6.457 -0.0180 -2.3471 -0.2485
 1040SOL     OW 4887   0.835   6.416   5.117  0.4393 -0.4519 -0.5468
 1040SOL    HW1 4888   0.825   6.488   5.055  1.7560  1.2811  1.1409
 1040SOL    HW2 4889   0.780   6.441   5.192  2.4206 -0.1549  0.8756
 1041SOL     OW 4890   0.102   4.643   4.696 -0.0725  0.2418 -0.6208
 1041SOL    HW1 4891   0.149   4.588   4.758  1.0342  1.0197 -0.7497
 1041SOL    HW2 4892   0.106   4.595   4.613 -1.4282 -0.7304 -0.1673
 1042SOL     OW 4893   1.221   7.621   6.528 -0.6748  0.5292 -0.1594
 1042SOL    HW1 4894   1.174   7.560   6.585 -1.1697  1.4153  0.4082
 1042SOL    HW2 4895   1.289   7.659   6.585 -0.3154  0.4429 -0.5299
 1043SOL     OW 4896   2.764   8.003   9.322  0.0385 -0.3118  0.2910
 1043SOL    HW1 4897   2.827   7.968   9.384 -0.6887 -0.9434  0.6916
 1043SOL    HW2 4898   2.726   7.926   9.280  1.2521  0.1061 -1.7237
 1044SOL     OW 4899   5.921   5.987   5.269  0.4562  0.2515  0.1339
 1044SOL    HW1 4900   5.985   6.001   5.339 -0.4378 -1.1606  1.2683
 1044SOL    HW2 4901   5.870   6.068   5.267 -0.1686 -0.0580  1.8447
 1045SOL     OW 4902   7.057   7.611   4.589 -0.4454 -0.0197 -1.2985
 1045SOL    HW1 4903   6.970   7.573   4.583 -0.4926  0.0448 -1.0391
 1045SOL    HW2 4904   7.100   7.587   4.507 -1.2273  1.2682 -2.1184
 1046SOL     OW 4905   1.010   9.484   4.631 -1.1879 -0.1371 -0.3935
 1046SOL    HW1 4906   0.918   9.480   4.657 -1.1079 -1.4835 -0.2832
 1046SOL    HW2 4907   1.039   9.393   4.629 -0.1401  0.1943 -1.4635
 1047SOL     OW 4908   9.213   4.865   3.244  0.2072 -0.3150  0.0755
 1047SOL    HW1 4909   9.126   4.882   3.279  0.7798  3.3487  0.1762
 1047SOL    HW2 4910   9.222   4.927   3.171  2.1860 -1.6974 -0.9489
 1048SOL     OW 4911   0.149   5.690   7.633  0.1858 -0.2996 -0.1270
 1048SOL    HW1 4912   0.130   5.775   7.594 -2.0798 -0.3774  0.6477
 1048SOL    HW2 4913   0.163   5.708   7.726  0.3223 -0.7023 -0.0640
 1049SOL     OW 4914   9.847   0.176   9.540  0.2146 -0.2431 -0.3691
 1049SOL    HW1 4915   9.776   0.167   9.604  0.4303 -1.1462 -0.2332
 1049SOL    HW2 4916   9.904   0.243   9.576 -0.9669  1.1002 -0.8746
 1050SOL     OW 4917   8.943   3.246   8.355  0.4380  0.3028 -0.1802
 1050SOL    HW1 4918   8.902   3.173   8.308  1.7362 -1.5068  1.3203
 1050SOL    HW2 4919   8.879   3.317   8.350 -0.5689 -0.6599 -2.3474
 1051SOL     OW 4920   2.806   5.445   0.823  0.0952 -0.4644 -0.7190
 1051SOL    HW1 4921   2.795   5.536   0.851  0.0160 -0.9937  1.0599
 1051SOL    HW2 4922   2.762   5.441   0.738 -1.1957  0.8135 -0.1577
 1052SOL     OW 4923   3.766   5.154   5.241 -0.2006 -0.4696  0.4903
 1052SOL    HW1 4924   3.793   5.070   5.202  0.2892 -0.1762  0.1875
 1052SOL    HW2 4925   3.770   5.138   5.336  1.8043 -0.2278  0.4911
 1053SOL     OW 4926   3.634   5.025   3.239 -0.6049  0.0366 -0.1621
 1053SOL    HW1 4927   3.620   4.931   3.255  0.6411 -0.2196 -0.4510
 1053SOL    HW2 4928   3.626   5.035   3.145  1.7841 -0.3014 -0.4827
 1054SOL     OW 4929   1.571   8.851   9.576 -0.0240  0.3787 -0.1115
 1054SOL    HW1 4930   1.596   8.776   9.631  1.4990  1.0448  0.1688
 1054SOL    HW2 4931   1.618   8.838   9.494 -1.6605 -0.1909 -0.9961
 1055SOL     OW 4932   3.474   6.294   3.178 -0.2801 -0.2299  0.2946
 1055SOL    HW1 4933   3.545   6.298   3.242 -1.6785 -1.8341  2.0557
 1055SOL    HW2 4934   3.403   6.343   3.219 -0.5470  0.5520 -1.0332
 1056SOL     OW 4935   4.699   4.984   3.263 -0.2074 -0.2405  0.0650
 1056SOL    HW1 4936   4.643   4.934   3.322 -2.1408 -0.4814 -1.8351
 1056SOL    HW2 4937   4.674   5.075   3.278  1.1476 -0.0472  1.3727
 1057SOL     OW 4938   1.832   3.672   9.232 -0.1257 -0.3511 -0.2772
 1057SOL    HW1 4939   1.787   3.625   9.161 -0.6842 -3.8230  2.1343
 1057SOL    HW2 4940   1.761   3.715   9.280 -0.6065 -2.7756  1.3698
 1058SOL     OW 4941   4.787   1.356   0.157 -0.5392  0.1861 -0.4170
 1058SOL    HW1 4942   4.879   1.376   0.174 -0.1695  1.1107 -3.0831
 1058SOL    HW2 4943   4.738   1.411   0.218  0.6571  0.9919 -0.1554
 1059SOL     OW 4944   3.571   8.919   3.101 -0.4608 -0.2449  0.2988
 1059SOL    HW1 4945   3.481   8.919   3.135 -1.0608 -1.2839 -1.1855
 1059SOL    HW2 4946   3.623   8.954   3.172 -2.1653  1.2807  0.8765
 1060SOL     OW 4947   8.179   0.720   6.984  0.0343 -0.1233  0.2395
 1060SOL    HW1 4948   8.182   0.704   6.890 -0.2303 -0.5503  0.3048
 1060SOL    HW2 4949   8.144   0.809   6.991 -1.5097 -0.6734 -0.0226
 1061SOL     OW 4950   4.520   8.766   6.801  0.0306  0.2620  0.4180
 1061SOL    HW1 4951   4.547   8.748   6.711 -0.5233  0.5257  0.1966
 1061SOL    HW2 4952   4.582   8.832   6.832  0.0138  0.4218  0.1162
 1062SOL     OW 4953   5.292   1.513   7.161 -0.2643  0.3199 -0.5451
 1062SOL    HW1 4954   5.263   1.422   7.165 -0.7664  0.4962 -0.0356
 1062SOL    HW2 4955   5.274   1.541   7.071  0.9401 -0.4146 -1.0401
 1063SOL     OW 4956   9.156   6.100   4.796 -0.5139 -0.2551  0.3312
 1063SOL    HW1 4957   9.120   6.172   4.743  0.6500 -0.1484 -0.3440
 1063SOL    HW2 4958   9.239   6.133   4.829 -0.2219 -1.0962  0.4636
 1064SOL     OW 4959   6.704   8.033   3.014  0.3006 -0.3121 -0.0684
 1064SOL    HW1 4960   6.761   8.072   2.947  1.6503 -0.4477  0.9596
 1064SOL    HW2 4961   6.760   7.970   3.059 -0.8762 -0.9510  0.5333
 1065SOL     OW 4962   7.923   9.277   3.207  0.1240  0.1995  0.3158
 1065SOL    HW1 4963   7.851   9.216   3.224  0.2343  0.1230  0.5159
 1065SOL    HW2 4964   7.882   9.363   3.208 -0.3861  0.0471 -1.8185
 1066SOL     OW 4965   5.720   0.567   4.489  0.0961 -0.0189  0.4972
 1066SOL    HW1 4966   5.730   0.638   4.552  1.8798  0.8304 -0.6650
 1066SOL    HW2 4967   5.777   0.497   4.521  0.0139 -0.0882  0.4935
 1067SOL     OW 4968   8.342   2.729   6.168 -0.2200  0.2335 -0.0970
 1067SOL    HW1 4969   8.287   2.675   6.111 -1.2483 -0.4474  1.4740
 1067SOL    HW2 4970   8.301   2.816   6.166 -0.5069  0.0992 -0.0575
 1068SOL     OW 4971   9.306   8.030   6.664  0.0867  0.0218 -0.6590
 1068SOL    HW1 4972   9.364   8.097   6.701 -0.0559  0.1975 -0.7549
 1068SOL    HW2 4973   9.364   7.956   6.647  0.0885 -0.1986  0.2573
 1069SOL     OW 4974   2.072   3.772   5.088  0.0413 -0.6879 -0.9891
 1069SOL    HW1 4975   2.164   3.797   5.076  0.0772 -1.4776 -2.7392
 1069SOL    HW2 4976   2.024   3.853   5.072  0.4290  0.0419  1.1885
 1070SOL     OW 4977   0.220   4.916   9.697  0.2333 -0.1331 -0.3852
 1070SOL    HW1 4978   0.155   4.870   9.750  0.1395 -1.8981 -1.9049
 1070SOL    HW2 4979   0.303   4.875   9.720  0.5898  0.9324  0.3002
 1071SOL     OW 4980   7.831   1.708   4.234  0.3074 -0.2933 -0.2839
 1071SOL    HW1 4981   7.890   1.734   4.305  0.3343  0.5149 -0.5947
 1071SOL    HW2 4982   7.888   1.697   4.158 -0.0321  1.5005 -0.8466
 1072SOL     OW 4983   3.385   3.691   8.128 -0.1656 -0.1164  0.1663
 1072SOL    HW1 4984   3.334   3.623   8.083  1.1074 -0.2808 -1.0902
 1072SOL    HW2 4985   3.343   3.699   8.214 -2.1138 -0.4520 -0.6959
 1073SOL     OW 4986   8.954   5.819   0.954 -0.7298 -0.3585  0.4656
 1073SOL    HW1 4987   8.953   5.850   1.045  1.0928  2.1605 -0.2671
 1073SOL    HW2 4988   9.002   5.736   0.958 -1.4237 -0.7359  1.8846
 1074SOL     OW 4989   6.815   7.823   4.279 -0.1854 -0.0167 -0.0835
 1074SOL    HW1 4990   6.777   7.876   4.350 -0.5784  0.7683 -0.8599
 1074SOL    HW2 4991   6.894   7.870   4.254 -0.1412 -0.1931 -0.2795
 1075SOL     OW 4992   2.512   8.884   6.074 -0.6339 -0.3726  0.4364
 1075SOL    HW1 4993   2.602   8.915   6.074  0.0664 -2.1329 -1.5152
 1075SOL    HW2 4994   2.481   8.897   6.163  1.7092 -0.1772  1.2753
 1076SOL     OW 4995   9.363   0.667   7.408 -1.0363 -0.6479  0.1018
 1076SOL    HW1 4996   9.333   0.633   7.323 -1.5616  1.0649 -0.4306
 1076SOL    HW2 4997   9.432   0.730   7.385  1.2670 -2.6283  1.1695
 1077SOL     OW 4998   3.981   3.118   0.039 -0.0360 -0.3451  0.4561
 1077SOL    HW1 4999   3.915   3.172  -0.004  1.2213 -0.1264 -1.3364
 1077SOL    HW2 5000   4.038   3.088  -0.033 -2.0859 -6.3782  0.7386
 1078SOL     OW 5001   6.268   3.425   4.775 -0.0340  0.0075  0.3575
 1078SOL    HW1 5002   6.233   3.465   4.696  2.4488 -0.9736 -1.3806
 1078SOL    HW2 5003   6.320   3.494   4.816  2.7675 -0.7171 -1.6732
 1079SOL     OW 5004   0.637   6.188   0.535  0.5534  0.0472  0.0406
 1079SOL    HW1 5005   0.556   6.143   0.560  0.8899 -0.0213  1.0683
 1079SOL    HW2 5006   0.657   6.154   0.448 -0.4767  0.0074 -0.1972
 1080SOL     OW 5007   1.701   8.995   5.859  0.1219 -0.5329  0.1492
 1080SOL    HW1 5008   1.649   8.951   5.926  1.4883 -1.7649  0.4555
 1080SOL    HW2 5009   1.760   8.927   5.826  1.3236  0.7249 -0.3942
 1081SOL     OW 5010   6.342   3.245   5.618 -0.0636  0.2806  0.7010
 1081SOL    HW1 5011   6.280   3.178   5.647 -1.8352  1.5518  0.0158
 1081SOL    HW2 5012   6.408   3.248   5.688 -2.3860  0.9171  3.0178
 1082SOL     OW 5013   4.949   0.964   1.792 -0.0934  0.2197  0.1517
 1082SOL    HW1 5014   4.905   1.015   1.860 -3.1195 -0.0452 -1.4646
 1082SOL    HW2 5015   4.884   0.900   1.763  1.7981 -1.0607 -1.5906
 1083SOL     OW 5016   3.269   7.545   1.214  0.2494 -0.4228  0.0409
 1083SOL    HW1 5017   3.348   7.582   1.173  0.6492 -1.1271  0.1723
 1083SOL    HW2 5018   3.302   7.486   1.282 -0.4047  0.2236  0.9464
 1084SOL     OW 5019   6.848   7.741   7.604 -0.8584 -0.3198 -0.1188
 1084SOL    HW1 5020   6.832   7.663   7.657  0.0529 -0.6642 -0.3418
 1084SOL    HW2 5021   6.919   7.716   7.544  0.3407  1.0753  0.6590
 1085SOL     OW 5022   2.023   6.915   7.109  0.1987  0.0458 -0.3544
 1085SOL    HW1 5023   2.035   6.904   7.014  0.8508  0.9977 -0.4035
 1085SOL    HW2 5024   2.099   6.872   7.148  0.2859  0.2430 -0.3037
 1086SOL     OW 5025   6.853   0.225   2.942  1.0630  0.2803  0.3217
 1086SOL    HW1 5026   6.875   0.171   3.017 -0.7819  0.5912  1.1632
 1086SOL    HW2 5027   6.844   0.314   2.978  1.5450  0.6919 -0.5399
 1087SOL     OW 5028   4.444   0.496   5.773  0.7446 -0.1182  0.1873
 1087SOL    HW1 5029   4.395   0.467   5.697  0.0585 -0.1689  0.6351
 1087SOL    HW2 5030   4.527   0.449   5.769 -0.8850 -3.4856  1.7319
 1088SOL     OW 5031   4.619   7.040   6.868 -0.1671 -0.4086 -0.2886
 1088SOL    HW1 5032   4.706   7.001   6.856 -0.1589 -0.4655 -0.0555
 1088SOL    HW2 5033   4.622   7.121   6.817 -1.2045 -2.1239 -3.2975
 1089SOL     OW 5034   6.601   6.295   2.259  0.6254  0.0164 -0.4035
 1089SOL    HW1 5035   6.678   6.252   2.222  0.9641 -0.9545  1.3394
 1089SOL    HW2 5036   6.635   6.348   2.331 -0.3824 -1.0946  0.9525
 1090SOL     OW 5037   3.832   8.226   1.936 -0.0481  0.7052  0.0874
 1090SOL    HW1 5038   3.778   8.164   1.888  0.1990  0.7617 -0.2692
 1090SOL    HW2 5039   3.922   8.204   1.910 -0.0168  1.8739 -0.8397
 1091SOL     OW 5040   7.540   8.005   5.000 -0.0359  0.1519  0.7261
 1091SOL    HW1 5041   7.587   7.998   5.083  0.3785  2.3839  0.7583
 1091SOL    HW2 5042   7.529   8.100   4.987 -1.6528 -0.2018 -0.9051
 1092SOL     OW 5043   3.181   8.545   5.301  0.1172 -0.5168 -0.0980
 1092SOL    HW1 5044   3.269   8.579   5.319 -0.2259 -0.3058  1.2882
 1092SOL    HW2 5045   3.168   8.475   5.365  0.0746 -2.0308 -1.6893
 1093SOL     OW 5046   3.066   6.455   3.752 -0.1859  0.4539  0.1348
 1093SOL    HW1 5047   3.104   6.394   3.689 -1.0191  1.1719 -1.1085
 1093SOL    HW2 5048   3.140   6.484   3.806  0.9511  1.3174 -1.7862
 1094SOL     OW 5049   0.236   8.717   1.794 -0.8895 -0.1189 -0.1561
 1094SOL    HW1 5050   0.169   8.786   1.793  1.4834  2.3678 -0.8725
 1094SOL    HW2 5051   0.212   8.658   1.723 -2.3056  0.6937 -0.3871
 1095SOL     OW 5052   3.249   1.324   3.906  0.1573 -0.4969  0.2915
 1095SOL    HW1 5053   3.247   1.318   3.810 -0.4457  0.7456  0.2112
 1095SOL    HW2 5054   3.342   1.321   3.929  0.2874 -1.2501 -0.2896
 1096SOL     OW 5055   6.270   1.887   0.597  0.2999 -0.5244 -0.4444
 1096SOL    HW1 5056   6.198   1.950   0.593  0.0009 -0.8449 -0.2685
 1096SOL    HW2 5057   6.314   1.894   0.513  0.8800  0.6198 -0.0597
 1097SOL     OW 5058   3.900   4.637   0.097  0.1599  0.2334 -0.1738
 1097SOL    HW1 5059   3.980   4.689   0.089 -0.0687  0.7005  0.4778
 1097SOL    HW2 5060   3.913   4.563   0.039  1.3868 -0.0982  0.5083
 1098SOL     OW 5061   5.074   4.019   5.171  0.0780  0.5747  0.1304
 1098SOL    HW1 5062   5.121   4.099   5.146  0.1148  0.0393 -1.6236
 1098SOL    HW2 5063   4.982   4.044   5.169 -0.1133 -0.0154 -3.0510
 1099SOL     OW 5064   5.126   9.626   9.467  0.0251  0.2357 -0.2634
 1099SOL    HW1 5065   5.102   9.682   9.540  0.2329  0.5321 -0.4227
 1099SOL    HW2 5066   5.149   9.686   9.397 -0.8137 -0.0430 -0.7927
 1100SOL     OW 5067   0.122   0.891   0.206  0.4285  0.2183 -0.6206
 1100SOL    HW1 5068   0.086   0.806   0.178  0.8202 -0.1223 -0.1042
 1100SOL    HW2 5069   0.086   0.954   0.143  0.2096 -0.3435 -1.0701
 1101SOL     OW 5070   7.850   3.867   0.132 -0.2409  0.2598 -0.5753
 1101SOL    HW1 5071   7.882   3.851   0.043  0.3768  0.6410 -0.4343
 1101SOL    HW2 5072   7.902   3.942   0.162 -1.6211  1.2330 -0.5059
 1102SOL     OW 5073   3.153   1.493   2.448  0.6828  0.0334 -0.3216
 1102SOL    HW1 5074   3.167   1.558   2.517  0.0810  0.5517 -0.6754
 1102SOL    HW2 5075   3.212   1.520   2.378 -0.1500  0.6837 -0.7859
 1103SOL     OW 5076   2.158   2.951   2.352  0.1672 -0.1602  0.8087
 1103SOL    HW1 5077   2.199   2.924   2.270 -0.0469  0.0601  0.6298
 1103SOL    HW2 5078   2.123   2.870   2.389 -0.2933 -0.1644  0.3737
 1104SOL     OW 5079   0.775   7.938   8.906  0.3347  0.1783  0.0158
 1104SOL    HW1 5080   0.778   7.938   9.002  0.2929  0.4159  0.0176
 1104SOL    HW2 5081   0.787   8.030   8.881 -2.3596  0.5881 -0.0998
 1105SOL     OW 5082   7.447   0.512   7.913 -0.3333 -0.1782 -0.0764
 1105SOL    HW1 5083   7.482   0.548   7.831  1.9202  0.2103  0.9933
 1105SOL    HW2 5084   7.408   0.429   7.887  1.0272 -0.4271 -1.4655
 1106SOL     OW 5085   4.053   2.842   5.969 -0.1849 -0.1455 -0.3662
 1106SOL    HW1 5086   4.109   2.909   5.929  3.3503 -1.2199  2.2476
 1106SOL    HW2 5087   4.022   2.882   6.050  1.0595 -1.1668  0.6732
 1107SOL     OW 5088   3.875   7.836   2.883  0.0336 -0.0285 -0.2599
 1107SOL    HW1 5089   3.833   7.766   2.934  1.6834 -0.9141 -0.0513
 1107SOL    HW2 5090   3.830   7.916   2.912  0.3232 -0.5982  2.0135
 1108SOL     OW 5091   8.724   7.381   7.230 -0.1133  0.5562  0.0526
 1108SOL    HW1 5092   8.710   7.394   7.324  0.7202  0.0872  0.2450
 1108SOL    HW2 5093   8.733   7.470   7.195  3.2061  0.7178  1.0077
 1109SOL     OW 5094   2.932   8.160   7.946 -0.0358  0.2525 -0.8104
 1109SOL    HW1 5095   2.935   8.199   7.858 -2.4907 -1.3135 -1.6837
 1109SOL    HW2 5096   2.903   8.232   8.003 -2.1645  0.4001 -1.9778
 1110SOL     OW 5097   7.270   3.258   4.909  0.3486  0.2259  0.0532
 1110SOL    HW1 5098   7.179   3.286   4.923  0.7716  1.1592  1.0375
 1110SOL    HW2 5099   7.318   3.340   4.899  1.1110 -0.2638 -0.3088
 1111SOL     OW 5100   9.337   8.619   7.537 -0.7763  0.3121  0.2846
 1111SOL    HW1 5101   9.277   8.605   7.464 -1.0526 -1.6200  0.8225
 1111SOL    HW2 5102   9.423   8.592   7.503 -0.7076  0.4737  0.3300
 1112SOL     OW 5103   3.766   2.081   3.329  0.4604 -0.3827 -0.0732
 1112SOL    HW1 5104   3.710   2.046   3.260 -0.2313  0.3767  0.0914
 1112SOL    HW2 5105   3.763   2.014   3.398  3.5640 -2.6530 -1.8683
 1113SOL     OW 5106   9.211   4.714   4.266 -0.0944  0.1851 -0.2621
 1113SOL    HW1 5107   9.222   4.789   4.325  0.5354  0.2822 -0.4913
 1113SOL    HW2 5108   9.181   4.753   4.184 -0.1272  0.1456 -0.2686
 1114SOL     OW 5109   8.658   4.781   2.830  0.1953 -0.3675  0.0665
 1114SOL    HW1 5110   8.679   4.765   2.738 -1.0904  0.0587 -0.3203
 1114SOL    HW2 5111   8.710   4.716   2.878  0.1378 -1.2584 -1.0308
 1115SOL     OW 5112   0.217   9.316   7.164 -1.0710 -0.0442  0.2502
 1115SOL    HW1 5113   0.150   9.282   7.105 -0.6627  0.5363 -0.5510
 1115SOL    HW2 5114   0.271   9.373   7.110  2.2776 -3.1637 -0.1180
 1116SOL     OW 5115   6.476   8.748   4.725  0.2134  0.2181  0.1546
 1116SOL    HW1 5116   6.514   8.801   4.794 -0.8853  2.2481 -0.7145
 1116SOL    HW2 5117   6.396   8.712   4.763 -0.2977  1.1863  0.0231
 1117SOL     OW 5118   9.076   2.535   7.559 -0.4634 -0.0480 -0.2336
 1117SOL    HW1 5119   9.051   2.470   7.494  1.7184 -0.5191 -0.6697
 1117SOL    HW2 5120   9.039   2.618   7.527  1.4230 -0.0574 -2.6941
 1118SOL     OW 5121   4.290   6.250   1.311  0.2081  0.2374 -0.1342
 1118SOL    HW1 5122   4.326   6.295   1.234 -0.4210 -0.5123 -0.8849
 1118SOL    HW2 5123   4.311   6.158   1.297  0.3599  0.1233  0.7600
 1119SOL     OW 5124   6.807   1.377   7.188  0.1135 -0.4378  0.0926
 1119SOL    HW1 5125   6.802   1.340   7.099 -0.7167  1.8816 -0.8982
 1119SOL    HW2 5126   6.896   1.413   7.193  0.2999 -0.9318  0.3658
 1120SOL     OW 5127   3.176   9.841   1.480  0.1381 -0.1518 -0.4456
 1120SOL    HW1 5128   3.271   9.849   1.484  0.2883 -1.6401 -0.3308
 1120SOL    HW2 5129   3.159   9.747   1.493 -1.4500  0.3318  1.5418
 1121SOL     OW 5130   6.225   7.404   8.871 -0.5413  0.6188 -0.7580
 1121SOL    HW1 5131   6.132   7.387   8.856 -1.1326  3.5317 -0.8787
 1121SOL    HW2 5132   6.227   7.485   8.922  1.9088 -0.3751  0.8870
 1122SOL     OW 5133   6.680   8.120   2.252 -0.0408 -0.3236  0.5795
 1122SOL    HW1 5134   6.681   8.044   2.194  1.6858 -0.3449  0.5818
 1122SOL    HW2 5135   6.587   8.135   2.270 -0.6787 -0.3217 -2.1687
 1123SOL     OW 5136   7.856   7.720   0.806 -0.0783 -0.0889  0.2266
 1123SOL    HW1 5137   7.800   7.720   0.884  0.4098  1.3131  0.6043
 1123SOL    HW2 5138   7.841   7.634   0.765 -2.4148  0.1860  0.3736
 1124SOL     OW 5139   1.527   4.069   1.785 -0.9291  0.8087  0.2551
 1124SOL    HW1 5140   1.500   4.047   1.874 -0.4269 -2.0174 -0.1939
 1124SOL    HW2 5141   1.447   4.058   1.733 -0.8098  0.5790  0.1146
 1125SOL     OW 5142   4.048   4.785   8.677  0.7751  0.2123 -0.0177
 1125SOL    HW1 5143   4.137   4.777   8.711  0.4475 -0.1369  0.7838
 1125SOL    HW2 5144   3.999   4.827   8.748  0.5360  1.4197 -0.8756
 1126SOL     OW 5145   8.116   6.442   4.795 -0.0269  0.2234 -0.1589
 1126SOL    HW1 5146   8.058   6.457   4.721 -3.2002 -0.5396  1.9690
 1126SOL    HW2 5147   8.129   6.529   4.834 -0.4616  0.2949 -0.1714
 1127SOL     OW 5148   9.621   1.275   3.617 -0.0191  0.1958 -0.3053
 1127SOL    HW1 5149   9.660   1.361   3.631  1.0826 -0.5173  1.3412
 1127SOL    HW2 5150   9.545   1.273   3.676  0.6955 -0.3984  0.6113
 1128SOL     OW 5151   0.470   9.188   7.167  0.6991 -0.1542 -0.4222
 1128SOL    HW1 5152   0.391   9.236   7.142  0.9573  1.2866  1.3121
 1128SOL    HW2 5153   0.440   9.126   7.234  1.1018  0.8182  0.6857
 1129SOL     OW 5154   1.544   7.962   4.424  0.1218  0.0375 -0.6071
 1129SOL    HW1 5155   1.452   7.981   4.406  0.3963  1.2753 -0.8309
 1129SOL    HW2 5156   1.576   7.921   4.344  0.1310  1.0281 -1.1273
 1130SOL     OW 5157   6.106   3.348   6.470  0.0554 -0.6619 -0.9748
 1130SOL    HW1 5158   6.108   3.440   6.497  0.0626 -0.8801 -0.2189
 1130SOL    HW2 5159   6.079   3.351   6.377 -1.4508  0.0186 -0.5576
 1131SOL     OW 5160   0.119   0.719   4.993  0.0927  0.9855  0.2294
 1131SOL    HW1 5161   0.194   0.743   5.047 -0.5173  1.3173  0.9549
 1131SOL    HW2 5162   0.044   0.758   5.038 -0.5679  0.2790 -0.2263
 1132SOL     OW 5163   3.256   9.175   8.102  0.2621 -0.1966 -0.2757
 1132SOL    HW1 5164   3.270   9.182   8.197 -0.0010  1.9106 -0.3470
 1132SOL    HW2 5165   3.343   9.182   8.064  0.6215 -3.0295 -0.1869
 1133SOL     OW 5166   3.560   1.096   7.512 -0.0125 -0.0043 -0.0336
 1133SOL    HW1 5167   3.529   1.117   7.424  0.2433  0.1350 -0.0896
 1133SOL    HW2 5168   3.545   1.176   7.562  0.8229  0.2681 -0.2105
 1134SOL     OW 5169   9.079   0.618   9.783  0.0566  0.7595 -0.4772
 1134SOL    HW1 5170   8.984   0.620   9.791 -0.0253  0.2176 -1.1792
 1134SOL    HW2 5171   9.100   0.687   9.721  0.2196  1.5075  0.3862
 1135SOL     OW 5172   1.800   5.870   8.112  0.3683 -0.0336 -0.4740
 1135SOL    HW1 5173   1.736   5.799   8.117 -2.2335  2.1778  0.5873
 1135SOL    HW2 5174   1.854   5.861   8.190  1.4478 -1.9602 -1.3952
 1136SOL     OW 5175   8.523   0.566   5.685 -0.0233 -0.0124 -0.2338
 1136SOL    HW1 5176   8.593   0.521   5.732  2.9319  2.3857 -1.9623
 1136SOL    HW2 5177   8.544   0.554   5.592 -0.4492  2.7528 -0.7754
 1137SOL     OW 5178   1.805   9.157   3.944 -0.4869 -0.3172  0.4703
 1137SOL    HW1 5179   1.797   9.205   3.861  1.7206 -0.2132  0.2609
 1137SOL    HW2 5180   1.738   9.196   4.001 -1.2195  0.4427 -0.8720
 1138SOL     OW 5181   3.554   7.134   7.656 -0.2130 -0.0689 -0.1357
 1138SOL    HW1 5182   3.607   7.198   7.608 -1.3243  1.2829  0.3815
 1138SOL    HW2 5183   3.527   7.180   7.735 -0.6180 -1.3779  0.5073
 1139SOL     OW 5184   5.965   3.509   7.061  0.0412  0.2664 -0.1972
 1139SOL    HW1 5185   6.054   3.545   7.054  0.4420 -0.8911 -1.6520
 1139SOL    HW2 5186   5.970   3.424   7.017 -2.1213  0.7833 -1.5912
 1140SOL     OW 5187   7.450   7.685   9.720 -0.1512 -0.2625  0.0355
 1140SOL    HW1 5188   7.382   7.626   9.686  1.8258 -1.1853 -2.7294
 1140SOL    HW2 5189   7.445   7.675   9.815 -2.8145 -1.4605 -0.1366
 1141SOL     OW 5190   2.052   8.784   8.587 -0.3071  0.0156 -0.4912
 1141SOL    HW1 5191   2.043   8.725   8.662 -0.0248 -0.3801 -0.7632
 1141SOL    HW2 5192   2.040   8.727   8.511  0.8641  0.1392 -0.7781
 1142SOL     OW 5193   2.786   4.755   2.406  0.1070  0.3120 -0.0001
 1142SOL    HW1 5194   2.752   4.748   2.495 -0.5047  1.8627 -0.0801
 1142SOL    HW2 5195   2.881   4.753   2.417  0.0459 -1.7389  0.4521
 1143SOL     OW 5196   5.192   1.880   5.873  0.0646 -0.4296 -0.2399
 1143SOL    HW1 5197   5.194   1.795   5.829 -0.7299 -0.8898  0.5853
 1143SOL    HW2 5198   5.129   1.931   5.822  0.0315 -0.5630 -0.3346
 1144SOL     OW 5199   0.452   7.675   1.791 -0.1824 -0.1952 -0.6100
 1144SOL    HW1 5200   0.396   7.752   1.788  2.8755  2.3508  1.0157
 1144SOL    HW2 5201   0.469   7.662   1.885  3.0498  0.2288 -1.0096
 1145SOL     OW 5202   3.146   4.437   1.190 -0.3174 -0.0800 -0.2532
 1145SOL    HW1 5203   3.135   4.405   1.100  5.1033  1.5843 -1.9483
 1145SOL    HW2 5204   3.085   4.511   1.197 -0.6016  0.0115 -2.7667
 1146SOL     OW 5205   1.808   3.155   6.689 -0.2895  0.2762  0.3442
 1146SOL    HW1 5206   1.769   3.188   6.608 -0.4512  0.9935  0.7009
 1146SOL    HW2 5207   1.880   3.216   6.707 -0.7072  0.5538  1.1160
 1147SOL     OW 5208   1.045   2.744   8.310 -0.4218  0.7825  0.2777
 1147SOL    HW1 5209   1.053   2.822   8.366  0.1185  0.2799  0.9037
 1147SOL    HW2 5210   1.032   2.672   8.371 -2.3802  0.5458 -0.3544
 1148SOL     OW 5211   2.477   2.420   3.802  0.0308 -0.4676  0.2437
 1148SOL    HW1 5212   2.391   2.432   3.761 -0.2494  2.9463  1.5498
 1148SOL    HW2 5213   2.457   2.390   3.890  0.3707 -2.1509 -0.2167
 1149SOL     OW 5214   0.224   2.939   0.737  0.1519  0.1110 -0.0171
 1149SOL    HW1 5215   0.164   2.875   0.775 -0.9906  1.3145  0.2767
 1149SOL    HW2 5216   0.177   2.975   0.662  1.1859 -0.1017 -0.7857
 1150SOL     OW 5217   4.729   3.278   4.183  0.5834 -0.0920 -0.2580
 1150SOL    HW1 5218   4.808   3.285   4.236  1.0697  2.5552 -1.1901
 1150SOL    HW2 5219   4.660   3.318   4.237  0.4536 -0.0153 -0.4795
 1151SOL     OW 5220   6.087   9.080   8.330  0.0925 -0.4273 -0.0525
 1151SOL    HW1 5221   6.100   9.169   8.364 -1.5559 -0.2931  0.3072
 1151SOL    HW2 5222   6.158   9.029   8.368  0.7914  0.6361  0.1138
 1152SOL     OW 5223   8.990   6.325   5.066  0.0735  0.1678 -0.0890
 1152SOL    HW1 5224   8.933   6.250   5.047  0.0789 -0.2631  1.4630
 1152SOL    HW2 5225   9.072   6.305   5.020  0.7870 -1.7959  1.8714
 1153SOL     OW 5226   7.874   4.580   1.960 -0.5990  0.1577  0.1200
 1153SOL    HW1 5227   7.918   4.505   2.000  1.0353  0.4919 -0.9703
 1153SOL    HW2 5228   7.785   4.577   1.995  0.1372 -0.8191  2.0264
 1154SOL     OW 5229   4.888   1.634   5.661  0.0928 -0.2555  0.6821
 1154SOL    HW1 5230   4.831   1.558   5.658 -1.1525  0.5860  1.8373
 1154SOL    HW2 5231   4.830   1.709   5.647  1.2801  0.5080 -0.3992
 1155SOL     OW 5232   6.514   1.747   1.579  0.1966  0.0535  0.2283
 1155SOL    HW1 5233   6.528   1.653   1.577  0.4076  0.0835  0.2862
 1155SOL    HW2 5234   6.600   1.784   1.595  0.0816  0.2479  0.4098
 1156SOL     OW 5235   0.768   7.500   5.852 -0.2354 -0.4176 -0.4003
 1156SOL    HW1 5236   0.841   7.553   5.819 -0.8821  0.7397 -0.0330
 1156SOL    HW2 5237   0.711   7.489   5.776 -0.0338 -0.7181 -0.5111
 1157SOL     OW 5238   0.942   0.022   0.272  0.1494 -0.0634 -0.4521
 1157SOL    HW1 5239   0.990  -0.035   0.332  0.0136 -1.4525 -1.6118
 1157SOL    HW2 5240   0.853  -0.015   0.269 -0.1161  0.5700 -0.7662
 1158SOL     OW 5241   3.215   8.646   3.112  0.6582  0.2771 -0.6741
 1158SOL    HW1 5242   3.179   8.594   3.040  1.8120 -0.1438 -0.9812
 1158SOL    HW2 5243   3.154   8.632   3.185 -0.3682  0.4736 -1.4751
 1159SOL     OW 5244   8.248   1.359   0.307 -0.2205 -0.2567  0.0072
 1159SOL    HW1 5245   8.184   1.409   0.359 -0.6778  1.1950 -1.8477
 1159SOL    HW2 5246   8.195   1.297   0.258  0.1388 -1.1154  0.6797
 1160SOL     OW 5247   5.400   4.216   0.830  0.0799  0.1965 -0.0246
 1160SOL    HW1 5248   5.454   4.290   0.802  0.6419 -0.3434 -0.3974
 1160SOL    HW2 5249   5.334   4.254   0.887 -0.6269  1.2342 -1.4718
 1161SOL     OW 5250   6.707   7.184   0.671  0.6586  0.4994  0.0715
 1161SOL    HW1 5251   6.679   7.242   0.600 -2.3793  1.5070  1.9124
 1161SOL    HW2 5252   6.681   7.097   0.641 -1.9180  1.0748  0.4045
 1162SOL     OW 5253   8.065   3.395   3.362 -0.1740 -0.5391  0.3336
 1162SOL    HW1 5254   8.005   3.426   3.294  0.1344  0.8427  0.6665
 1162SOL    HW2 5255   8.086   3.306   3.336 -0.3699 -0.1773 -1.1722
 1163SOL     OW 5256   5.261   4.797   3.584  0.2734  0.2837 -0.5514
 1163SOL    HW1 5257   5.291   4.777   3.672 -0.6932  0.0404 -0.2673
 1163SOL    HW2 5258   5.168   4.774   3.584  0.4599 -0.6290 -1.9102
 1164SOL     OW 5259   6.869   6.427   2.023  0.2922 -0.8043 -0.1079
 1164SOL    HW1 5260   6.903   6.462   2.105  1.3568 -2.5137  0.2356
 1164SOL    HW2 5261   6.782   6.467   2.014  0.7908  0.6146  1.0302
 1165SOL     OW 5262   8.405   3.600   8.067  0.6796 -0.2529 -0.4629
 1165SOL    HW1 5263   8.431   3.582   8.157 -0.0527  0.8020 -0.0222
 1165SOL    HW2 5264   8.469   3.664   8.036  0.1251  0.4209 -0.2268
 1166SOL     OW 5265   0.279   7.314   1.420 -0.2680 -0.4562 -0.1559
 1166SOL    HW1 5266   0.323   7.394   1.450  0.7202 -0.0070 -2.5604
 1166SOL    HW2 5267   0.350   7.250   1.412 -0.2982 -0.2890 -2.2580
 1167SOL     OW 5268   5.766   3.640   5.317 -0.6823  0.0731 -0.1273
 1167SOL    HW1 5269   5.720   3.588   5.383 -2.0037  0.1068 -0.9878
 1167SOL    HW2 5270   5.710   3.635   5.239  0.9318 -0.1194 -1.3159
 1168SOL     OW 5271   2.199   5.227   9.050  0.3346  1.2981 -0.7245
 1168SOL    HW1 5272   2.161   5.196   8.967  0.3824  1.5881 -0.8566
 1168SOL    HW2 5273   2.287   5.190   9.051 -0.7993 -1.6820  0.8663
 1169SOL     OW 5274   6.774   3.698   5.972  0.0049  0.4241  0.6650
 1169SOL    HW1 5275   6.786   3.763   6.042 -0.4826  0.6460  0.5465
 1169SOL    HW2 5276   6.860   3.691   5.930 -0.1544  1.6585  0.1003
 1170SOL     OW 5277   5.725   3.335   5.237  0.1464 -0.2560 -0.0550
 1170SOL    HW1 5278   5.784   3.324   5.311  0.5423 -2.4754 -0.6189
 1170SOL    HW2 5279   5.637   3.321   5.273  0.2007  0.1821  0.2535
 1171SOL     OW 5280   6.923   7.222   0.278  0.8961  0.0032  0.2614
 1171SOL    HW1 5281   6.924   7.290   0.345  1.1634 -0.1346  0.4009
 1171SOL    HW2 5282   7.010   7.182   0.283  0.9012 -0.0397 -0.1357
 1172SOL     OW 5283   3.714   3.192   1.041  0.1821 -0.3852 -0.6146
 1172SOL    HW1 5284   3.683   3.196   1.132  0.1900 -1.3843 -0.5592
 1172SOL    HW2 5285   3.639   3.221   0.989 -0.1328 -0.7035 -0.3432
 1173SOL     OW 5286   5.123   4.390   4.091  0.1655 -0.3158  0.5885
 1173SOL    HW1 5287   5.164   4.310   4.059 -0.4979 -1.0926  1.6275
 1173SOL    HW2 5288   5.030   4.370   4.095 -0.3137  1.2436 -1.2154
 1174SOL     OW 5289   1.643   8.321   1.986  0.5627  0.1562 -0.4139
 1174SOL    HW1 5290   1.717   8.270   1.952  0.2565 -1.3750  1.1128
 1174SOL    HW2 5291   1.569   8.261   1.984 -0.2696  1.1498 -0.3507
 1175SOL     OW 5292   2.680   2.867   0.523  0.3977 -0.3499  0.0534
 1175SOL    HW1 5293   2.742   2.939   0.515  1.9022 -1.3607  1.8813
 1175SOL    HW2 5294   2.600   2.900   0.483  2.0426  1.0240 -2.3787
 1176SOL     OW 5295   6.629   1.099   0.523 -0.0855 -0.1431  0.4281
 1176SOL    HW1 5296   6.702   1.161   0.521  0.8083 -1.1887 -0.1481
 1176SOL    HW2 5297   6.630   1.064   0.612 -0.0189 -0.0052  0.4826
 1177SOL     OW 5298   1.385   7.265   3.900  0.1152 -0.1649 -0.6893
 1177SOL    HW1 5299   1.345   7.351   3.889 -0.2786 -0.4707 -1.7593
 1177SOL    HW2 5300   1.478   7.280   3.885  0.3035  0.3581  0.7828
 1178SOL     OW 5301   8.557   8.187   3.095  0.3638  0.1584  0.1607
 1178SOL    HW1 5302   8.518   8.152   3.175 -0.4595  2.7176  0.9647
 1178SOL    HW2 5303   8.533   8.124   3.027 -1.0153 -0.8313  1.5089
 1179SOL     OW 5304   2.712   1.145   4.850 -0.0725  0.1357 -0.4665
 1179SOL    HW1 5305   2.623   1.152   4.884  0.0531 -0.3295 -0.0222
 1179SOL    HW2 5306   2.706   1.077   4.783  0.3170 -1.3217  0.9190
 1180SOL     OW 5307   7.888   2.891   2.135 -0.3130 -0.2505 -0.6002
 1180SOL    HW1 5308   7.878   2.976   2.177 -1.4511  0.1714 -1.6616
 1180SOL    HW2 5309   7.801   2.852   2.136  0.1214 -1.2499 -0.4510
 1181SOL     OW 5310   3.191   0.812   1.628 -0.1404  0.7512  0.0363
 1181SOL    HW1 5311   3.238   0.732   1.604 -2.2660 -0.7418  0.6519
 1181SOL    HW2 5312   3.215   0.875   1.559  1.6207 -0.3536 -0.4268
 1182SOL     OW 5313   9.654   2.259   1.666 -0.0497 -0.5602  0.0657
 1182SOL    HW1 5314   9.658   2.252   1.571 -2.2551  0.6542 -0.1889
 1182SOL    HW2 5315   9.586   2.324   1.683  0.9182 -0.0559  2.4812
 1183SOL     OW 5316   3.905   2.477   5.204 -0.1687  0.5540  0.1144
 1183SOL    HW1 5317   3.861   2.412   5.259 -0.1592  2.3400  2.3872
 1183SOL    HW2 5318   3.838   2.544   5.188 -0.4403 -0.2958 -2.9029
 1184SOL     OW 5319   9.304   0.490   2.392 -0.2892  0.7935 -0.4557
 1184SOL    HW1 5320   9.234   0.426   2.408 -2.6352  2.4660 -3.0597
 1184SOL    HW2 5321   9.348   0.458   2.313  1.3854  0.2163  0.6764
 1185SOL     OW 5322   3.492   4.296   6.478 -0.6185  0.4977  0.1126
 1185SOL    HW1 5323   3.478   4.383   6.515 -0.3298  0.4440  0.3549
 1185SOL    HW2 5324   3.484   4.308   6.384  0.0680  0.9146  0.0967
 1186SOL     OW 5325   8.050   4.316   6.038 -0.1108  0.3193  0.0439
 1186SOL    HW1 5326   8.102   4.335   5.960  0.4165  0.5013  0.4368
 1186SOL    HW2 5327   8.086   4.373   6.106  0.1707 -0.6317  0.7098
 1187SOL     OW 5328   4.031   9.073   7.931 -0.0759 -0.6609 -0.4874
 1187SOL    HW1 5329   4.057   9.162   7.906 -0.6898 -0.5481 -0.7324
 1187SOL    HW2 5330   4.072   9.017   7.865 -0.6678 -0.4636 -1.0275
 1188SOL     OW 5331   8.423   6.678   6.931  0.2056  1.0377  0.3939
 1188SOL    HW1 5332   8.451   6.761   6.969  0.1257  1.1139  0.2875
 1188SOL    HW2 5333   8.358   6.644   6.991  1.1982  0.4004  1.1455
 1189SOL     OW 5334   4.147   8.591   1.313 -0.1852  0.4844 -0.0296
 1189SOL    HW1 5335   4.055   8.568   1.329 -0.0966  0.8514  1.1179
 1189SOL    HW2 5336   4.178   8.625   1.397  0.3484  2.5524 -0.9936
 1190SOL     OW 5337   3.952   3.767   8.332 -0.0082  0.3377 -0.6423
 1190SOL    HW1 5338   4.022   3.810   8.380  1.2103  0.5267 -2.4522
 1190SOL    HW2 5339   3.901   3.721   8.398  0.0162  2.6671  1.0751
 1191SOL     OW 5340   1.965   7.831   6.392 -0.2213  0.3461 -0.2318
 1191SOL    HW1 5341   2.008   7.831   6.478 -1.7436 -2.1511  0.6337
 1191SOL    HW2 5342   1.994   7.913   6.351  0.4783  1.6970  2.6771
 1192SOL     OW 5343   7.194   1.926   7.911 -0.2141  0.1181  0.2873
 1192SOL    HW1 5344   7.099   1.913   7.914  0.0246 -1.6163  1.8420
 1192SOL    HW2 5345   7.207   2.017   7.936 -1.3864 -0.2131  2.2634
 1193SOL     OW 5346   3.549   7.230   1.784  0.8481 -0.0548  0.1512
 1193SOL    HW1 5347   3.589   7.208   1.869  1.8296  1.6525  0.1918
 1193SOL    HW2 5348   3.494   7.155   1.763 -0.7199  0.1182  3.0680
 1194SOL     OW 5349   6.299   5.474   3.931 -0.2596 -0.3364 -0.6244
 1194SOL    HW1 5350   6.336   5.439   3.850  2.5884  0.1412  0.3654
 1194SOL    HW2 5351   6.279   5.398   3.985 -0.3291 -0.5865 -1.0031
 1195SOL     OW 5352   9.028   0.247   2.838 -0.2189  0.0329 -0.6839
 1195SOL    HW1 5353   8.965   0.318   2.824 -0.3863  0.7243  2.6118
 1195SOL    HW2 5354   9.109   0.278   2.797 -0.5854  1.7051 -0.2238
 1196SOL     OW 5355   2.576   8.760   4.882 -0.1497 -0.2139  0.5228
 1196SOL    HW1 5356   2.503   8.707   4.914  0.0688 -0.9473 -0.1549
 1196SOL    HW2 5357   2.578   8.836   4.940 -1.7160  0.0284  0.2969
 1197SOL     OW 5358   1.031   6.020   5.101 -0.1909 -0.1205  0.0311
 1197SOL    HW1 5359   0.958   5.999   5.160 -0.4674  1.2354  0.1904
 1197SOL    HW2 5360   1.099   6.053   5.158 -0.0462  0.1473 -0.2963
 1198SOL     OW 5361   3.348   2.096   3.393  0.6396  0.9611  0.0037
 1198SOL    HW1 5362   3.361   2.022   3.333  2.6390  1.5394 -0.3457
 1198SOL    HW2 5363   3.328   2.055   3.477 -2.4167  0.1248 -0.9963
 1199SOL     OW 5364   1.610   1.568   5.383 -0.0259  0.1683 -0.1251
 1199SOL    HW1 5365   1.576   1.657   5.382 -0.2346  0.1180  0.9789
 1199SOL    HW2 5366   1.572   1.526   5.306 -1.2410  0.5621  0.2461
 1200SOL     OW 5367   4.080   4.852   5.331  0.5279  0.0026  0.1778
 1200SOL    HW1 5368   4.123   4.771   5.303  1.7890  0.5416  0.4487
 1200SOL    HW2 5369   4.087   4.850   5.427  0.2680  0.2812  0.2036
 1201SOL     OW 5370   2.484   6.191   1.205 -0.7190 -0.3186 -0.2445
 1201SOL    HW1 5371   2.537   6.218   1.280 -1.1868 -0.6745  0.2216
 1201SOL    HW2 5372   2.486   6.095   1.208  0.3283 -0.3480 -1.4564
 1202SOL     OW 5373   4.061   6.227   0.043 -0.0834 -0.1182 -0.1837
 1202SOL    HW1 5374   4.024   6.183   0.119 -0.7231 -0.5133 -0.7069
 1202SOL    HW2 5375   4.152   6.244   0.066 -0.6997  1.3584  1.3503
 1203SOL     OW 5376   0.841   4.989   9.146  0.3057 -0.2108 -0.3951
 1203SOL    HW1 5377   0.883   4.929   9.208  0.4054  0.4823  0.2058
 1203SOL    HW2 5378   0.783   5.043   9.199  0.0678  0.1047 -0.9665
 1204SOL     OW 5379   9.066   2.313   1.196  0.5006 -0.4571  0.9468
 1204SOL    HW1 5380   9.067   2.397   1.150  1.6910 -0.0252  1.7231
 1204SOL    HW2 5381   9.144   2.315   1.252  0.9602 -2.3731  0.4491
 1205SOL     OW 5382   8.850   7.978   3.302 -0.0972  0.6471 -0.3549
 1205SOL    HW1 5383   8.908   7.940   3.237  0.7923  0.2227  0.6553
 1205SOL    HW2 5384   8.764   7.942   3.282  0.0715  0.8806 -1.5570
 1206SOL     OW 5385   3.716   6.638   9.005 -0.0314  0.0784  0.4868
 1206SOL    HW1 5386   3.685   6.681   9.085 -0.9668  0.1790  0.0823
 1206SOL    HW2 5387   3.707   6.704   8.937 -4.2060 -1.4710 -0.7293
 1207SOL     OW 5388   2.741   5.878   7.474 -0.1942 -0.1239 -0.1228
 1207SOL    HW1 5389   2.792   5.879   7.393 -1.0049 -2.6368 -0.7486
 1207SOL    HW2 5390   2.652   5.903   7.447  0.1186  1.8562  0.5414
 1208SOL     OW 5391   7.409   4.635   2.410 -0.3667  0.5648  0.1737
 1208SOL    HW1 5392   7.434   4.723   2.439 -1.0544  0.8025  0.0811
 1208SOL    HW2 5393   7.319   4.624   2.443 -0.0691 -0.3430  0.7064
 1209SOL     OW 5394   7.528   3.049   2.131 -0.0743 -0.5292 -0.2606
 1209SOL    HW1 5395   7.623   3.059   2.140  0.3494 -3.2814 -1.0028
 1209SOL    HW2 5396   7.509   3.081   2.043  0.1358  0.0175 -0.1152
 1210SOL     OW 5397   3.724   3.349   8.192 -0.2285 -0.2835  0.1694
 1210SOL    HW1 5398   3.632   3.334   8.214  0.3490 -1.4808  1.9583
 1210SOL    HW2 5399   3.756   3.408   8.260  0.0081  1.3752 -1.2960
 1211SOL     OW 5400   7.222   4.634   9.085  0.0981  0.4794 -0.1034
 1211SOL    HW1 5401   7.304   4.597   9.052 -0.4447 -1.1475  0.2537
 1211SOL    HW2 5402   7.199   4.702   9.023  0.7109 -0.4035 -1.3382
 1212SOL     OW 5403   8.059   5.828   8.023  0.0613  0.1670 -0.0683
 1212SOL    HW1 5404   8.132   5.776   7.989 -0.8926 -1.4501  0.2405
 1212SOL    HW2 5405   8.100   5.906   8.060  1.5249 -0.1922 -0.8601
 1213SOL     OW 5406   9.566   0.199   1.221 -0.3563  0.2951  0.0965
 1213SOL    HW1 5407   9.598   0.225   1.134 -0.3826  1.7181  0.4812
 1213SOL    HW2 5408   9.640   0.216   1.280 -0.3378 -0.6663  0.3604
 1214SOL     OW 5409   7.997   3.094   7.973  0.3093  0.3213 -0.8754
 1214SOL    HW1 5410   8.045   3.119   8.051  0.5457 -0.6839 -0.6937
 1214SOL    HW2 5411   7.913   3.062   8.006  0.0233  0.8186 -1.1050
 1215SOL     OW 5412   6.096   4.288   9.450  0.2650 -0.0340 -0.5168
 1215SOL    HW1 5413   6.041   4.229   9.502  1.0707  0.7775  1.3526
 1215SOL    HW2 5414   6.146   4.230   9.393  0.4978 -1.1346  0.7523
 1216SOL     OW 5415   0.973   4.273   7.307 -0.5693 -0.0049 -0.4581
 1216SOL    HW1 5416   0.903   4.234   7.358 -1.8023 -0.4722 -2.3833
 1216SOL    HW2 5417   0.973   4.366   7.332 -0.8472 -0.2993  0.6574
 1217SOL     OW 5418   3.754   3.949   8.591 -0.5301  0.3567 -0.2182
 1217SOL    HW1 5419   3.666   3.980   8.567 -1.1470  0.3942  1.9247
 1217SOL    HW2 5420   3.812   3.993   8.530 -2.0224 -0.0456 -2.0282
 1218SOL     OW 5421   3.634   2.055   7.281  0.3206  0.3359  0.2910
 1218SOL    HW1 5422   3.635   1.961   7.267  0.4617  0.3239  0.3833
 1218SOL    HW2 5423   3.717   2.086   7.246  0.3591  0.4005  0.4401
 1219SOL     OW 5424   0.779   0.661   6.449 -0.9709 -0.3740  0.0052
 1219SOL    HW1 5425   0.773   0.689   6.357  1.4599 -1.3834 -0.5356
 1219SOL    HW2 5426   0.873   0.648   6.464 -1.4656 -2.1111  2.0713
 1220SOL     OW 5427   0.482   7.815   3.709 -0.1397 -0.3957 -0.1882
 1220SOL    HW1 5428   0.506   7.824   3.801 -0.3130 -2.0443  0.0419
 1220SOL    HW2 5429   0.387   7.803   3.709 -0.3873  1.2697 -0.7394
 1221SOL     OW 5430   9.345   1.783   4.159 -0.1553  0.1447 -0.0404
 1221SOL    HW1 5431   9.350   1.819   4.070  0.4470  0.9321  0.3048
 1221SOL    HW2 5432   9.424   1.814   4.202 -0.0551 -0.8831  0.5501
 1222SOL     OW 5433   4.835   5.240   9.844  0.5326  0.8543  0.3806
 1222SOL    HW1 5434   4.817   5.334   9.847  0.3354  0.8117  0.5510
 1222SOL    HW2 5435   4.748   5.199   9.850  0.6789  0.6443  1.2549
 1223SOL     OW 5436   1.027   0.641   1.611 -0.0740  0.4315  0.6248
 1223SOL    HW1 5437   0.945   0.614   1.570  0.0936 -1.1447  1.2466
 1223SOL    HW2 5438   1.042   0.730   1.579  0.3980 -0.8668 -3.2979
 1224SOL     OW 5439   4.243   5.306   1.410 -0.3897  0.2686 -0.0857
 1224SOL    HW1 5440   4.175   5.325   1.345 -0.5195  0.1546  0.0170
 1224SOL    HW2 5441   4.251   5.211   1.409 -0.4640  0.2596  0.1386
 1225SOL     OW 5442   9.240   0.783   2.538  0.4888  0.3261  0.3196
 1225SOL    HW1 5443   9.323   0.750   2.504 -0.0105 -0.4059 -0.2346
 1225SOL    HW2 5444   9.193   0.704   2.567  0.7495  0.8876  2.4171
 1226SOL     OW 5445   9.651   5.563   7.088  0.1952 -0.1499  0.0543
 1226SOL    HW1 5446   9.670   5.532   7.177  0.9053  1.5400  0.5286
 1226SOL    HW2 5447   9.556   5.574   7.087  0.2844  0.9266  1.0122
 1227SOL     OW 5448   1.420   9.480   9.737  0.2081  0.0825 -0.3971
 1227SOL    HW1 5449   1.414   9.502   9.830 -0.5043 -2.6182  0.2824
 1227SOL    HW2 5450   1.513   9.463   9.722  0.0762 -1.5449  0.4109
 1228SOL     OW 5451   4.249   6.828   1.039 -0.0659  0.4847 -0.1633
 1228SOL    HW1 5452   4.205   6.760   1.090  0.1876 -0.4634 -1.1878
 1228SOL    HW2 5453   4.318   6.860   1.097 -0.7913  0.5748  0.6884
 1229SOL     OW 5454   3.900   8.738   6.026  0.0840 -0.4430 -0.0803
 1229SOL    HW1 5455   3.870   8.775   6.109  1.2226  0.8149 -0.2084
 1229SOL    HW2 5456   3.919   8.813   5.971  0.4662 -1.2489 -1.0850
 1230SOL     OW 5457   2.514   2.675   3.259 -0.4546 -0.7856  0.1203
 1230SOL    HW1 5458   2.534   2.586   3.289 -0.9168 -0.4609  1.4603
 1230SOL    HW2 5459   2.419   2.679   3.257 -0.4369 -0.2514  0.2565
 1231SOL     OW 5460   3.198   1.710   4.820  0.2875 -0.2328 -0.3906
 1231SOL    HW1 5461   3.229   1.633   4.867 -0.4928 -0.2067  0.1912
 1231SOL    HW2 5462   3.123   1.741   4.871 -1.4099 -0.9438 -2.3217
 1232SOL     OW 5463   6.057   7.699   9.833  0.2410  0.4710  0.4126
 1232SOL    HW1 5464   6.036   7.728   9.922  0.2561 -0.1101  0.6125
 1232SOL    HW2 5465   6.106   7.618   9.846  3.0874  2.0076 -0.0190
 1233SOL     OW 5466   9.254   8.658   0.566 -0.4884 -0.2383 -0.1559
 1233SOL    HW1 5467   9.300   8.712   0.501 -1.0613 -0.8326 -1.0797
 1233SOL    HW2 5468   9.311   8.659   0.643  0.6456 -0.2309 -0.9744
 1234SOL     OW 5469   3.929   8.339   2.320  0.0535 -0.0712 -0.3492
 1234SOL    HW1 5470   3.952   8.417   2.370  1.3914 -0.0859 -0.8944
 1234SOL    HW2 5471   3.842   8.314   2.352  0.6002  0.2771  1.4867
 1235SOL     OW 5472   7.672   0.805   2.417 -0.2095  0.4397  0.1412
 1235SOL    HW1 5473   7.598   0.747   2.434 -0.4388  0.7774  0.2988
 1235SOL    HW2 5474   7.647   0.888   2.456  0.6220  0.3145  1.0001
 1236SOL     OW 5475   9.171   7.933   7.776 -0.0559 -0.2920  0.5448
 1236SOL    HW1 5476   9.120   7.995   7.724 -0.2971  0.9521  2.2002
 1236SOL    HW2 5477   9.257   7.973   7.784  0.1336 -0.7177  0.6989
 1237SOL     OW 5478   0.341   1.535   6.679 -0.6257  0.8780  0.7912
 1237SOL    HW1 5479   0.329   1.602   6.611 -0.3013  0.5212  0.3766
 1237SOL    HW2 5480   0.415   1.567   6.731 -0.1919  0.6367  0.3318
 1238SOL     OW 5481   3.974   2.981   5.300 -0.5266  0.1439  0.6246
 1238SOL    HW1 5482   3.954   2.900   5.347 -0.2025  0.2689  0.9793
 1238SOL    HW2 5483   4.047   2.958   5.242 -0.8077  0.0370  0.3089
 1239SOL     OW 5484   5.221   4.397   0.928  0.3838  0.2422  0.0728
 1239SOL    HW1 5485   5.152   4.460   0.904  0.2896 -0.2663 -1.0660
 1239SOL    HW2 5486   5.272   4.442   0.994 -0.6377  0.9036  0.4410
 1240SOL     OW 5487   9.123   0.737   4.384 -0.3442  0.4652  0.1686
 1240SOL    HW1 5488   9.147   0.826   4.409  0.1401 -0.1691  2.1546
 1240SOL    HW2 5489   9.173   0.681   4.444  0.7905 -1.2465 -2.1781
 1241SOL     OW 5490   0.773   5.693   8.473  0.2819 -0.1337 -0.1291
 1241SOL    HW1 5491   0.827   5.668   8.547 -0.1184 -2.6900 -0.6076
 1241SOL    HW2 5492   0.813   5.650   8.398 -1.8333 -1.3898 -0.6338
 1242SOL     OW 5493   0.193   6.965   3.513 -0.0811 -0.5201 -0.4633
 1242SOL    HW1 5494   0.117   6.960   3.454 -0.4145 -0.1533 -0.0790
 1242SOL    HW2 5495   0.226   7.054   3.500 -2.0129  0.7042  2.0996
 1243SOL     OW 5496   8.706   7.534   9.642  1.0537 -0.4047 -0.7976
 1243SOL    HW1 5497   8.702   7.629   9.647 -0.1399 -0.4048 -1.4743
 1243SOL    HW2 5498   8.782   7.516   9.585  0.0339  0.2241 -2.4305
 1244SOL     OW 5499   5.760   7.162   1.341  0.4604 -0.3882 -0.3388
 1244SOL    HW1 5500   5.770   7.163   1.436  1.1872 -4.2178 -0.2289
 1244SOL    HW2 5501   5.668   7.183   1.326 -0.3542 -2.4014  1.4436
 1245SOL     OW 5502   0.587   2.998   4.516 -0.0687 -0.3709 -0.2456
 1245SOL    HW1 5503   0.508   2.997   4.462 -0.1198 -1.6388 -0.1696
 1245SOL    HW2 5504   0.578   3.077   4.570 -1.5064 -0.7335  0.0754
 1246SOL     OW 5505   8.239   1.303   6.232 -0.1142 -0.4048  0.1681
 1246SOL    HW1 5506   8.210   1.369   6.295  0.7917  2.0957 -1.8565
 1246SOL    HW2 5507   8.176   1.309   6.160  0.7957 -0.7131 -0.6865
 1247SOL     OW 5508   9.063   7.910   7.205  0.4093 -0.1957  0.0656
 1247SOL    HW1 5509   9.060   7.856   7.284  1.9273 -0.2861  0.0967
 1247SOL    HW2 5510   9.157   7.924   7.190  0.0912  1.1014 -0.8479
 1248SOL     OW 5511   0.164   5.243   0.734  0.4783 -0.2033  0.4644
 1248SOL    HW1 5512   0.163   5.316   0.672 -0.1991  0.0958  0.8101
 1248SOL    HW2 5513   0.073   5.213   0.737  0.5577 -0.3927  1.1014
 1249SOL     OW 5514   2.354   3.913   3.132 -0.1118 -0.1225  0.4706
 1249SOL    HW1 5515   2.450   3.913   3.141 -0.0541 -2.0559  0.2528
 1249SOL    HW2 5516   2.327   3.995   3.173  1.6022  0.2662  0.9361
 1250SOL     OW 5517   5.505   3.456   4.723  0.1079  0.7828 -0.5501
 1250SOL    HW1 5518   5.444   3.402   4.671  0.1368  0.1225  0.0827
 1250SOL    HW2 5519   5.573   3.395   4.751  1.6806  1.7257 -2.1455
 1251SOL     OW 5520   7.829   3.035   3.011  0.0405 -0.6529  0.7872
 1251SOL    HW1 5521   7.746   3.059   3.053 -0.5819 -3.6474  1.5387
 1251SOL    HW2 5522   7.867   3.118   2.982 -2.9425  0.8866  0.9103
 1252SOL     OW 5523   8.791   0.050   8.711 -0.1699 -0.5843  0.5912
 1252SOL    HW1 5524   8.798   0.143   8.733 -3.5734 -0.0577  0.0454
 1252SOL    HW2 5525   8.844   0.040   8.632 -0.6445  1.1842 -0.0063
 1253SOL     OW 5526   1.226   1.315   2.446  0.0606  0.1053 -0.0640
 1253SOL    HW1 5527   1.223   1.375   2.520 -0.9606 -0.5016  0.3957
 1253SOL    HW2 5528   1.291   1.354   2.387 -0.5262  1.6182  0.2492
 1254SOL     OW 5529   9.675   3.949   2.127  0.3808  0.1669 -0.3131
 1254SOL    HW1 5530   9.753   3.921   2.080 -0.8781 -0.1964 -2.3277
 1254SOL    HW2 5531   9.695   3.932   2.219  3.2361  1.5866 -0.5554
 1255SOL     OW 5532   2.379   7.746   2.734 -0.5993 -0.2402  0.0357
 1255SOL    HW1 5533   2.290   7.711   2.737 -0.5412 -0.5482 -1.2673
 1255SOL    HW2 5534   2.406   7.734   2.643 -0.1343  2.1101 -0.2016
 1256SOL     OW 5535   7.012   4.098   9.297  0.0815  0.3264 -0.2053
 1256SOL    HW1 5536   7.090   4.046   9.318  0.2541  0.6765  0.0369
 1256SOL    HW2 5537   7.014   4.171   9.360 -0.0366  0.7436 -0.6748
 1257SOL     OW 5538   8.090   4.182   8.976  0.0450  0.3282  0.0981
 1257SOL    HW1 5539   8.080   4.239   8.900 -1.0834 -0.6492 -0.5203
 1257SOL    HW2 5540   8.157   4.118   8.949  0.9508  1.0341  0.6100
 1258SOL     OW 5541   9.273   4.917   6.302  0.2238  0.2495 -0.1539
 1258SOL    HW1 5542   9.298   5.008   6.291  2.9594 -0.2862  0.7685
 1258SOL    HW2 5543   9.313   4.871   6.229  2.4284 -0.7014  1.5352
 1259SOL     OW 5544   9.374   1.420   4.596 -0.3445 -0.3859  0.4593
 1259SOL    HW1 5545   9.278   1.414   4.593 -0.4404  0.7757  0.5124
 1259SOL    HW2 5546   9.401   1.409   4.505 -0.4871 -1.1706  0.5067
 1260SOL     OW 5547   3.004   7.168   7.291 -0.2073 -0.5780 -0.7004
 1260SOL    HW1 5548   2.985   7.256   7.259 -0.1967 -0.3880 -0.2031
 1260SOL    HW2 5549   3.035   7.182   7.381 -0.2625 -1.0936 -0.6001
 1261SOL     OW 5550   3.883   0.668   6.033 -0.5164 -0.1086 -0.2633
 1261SOL    HW1 5551   3.979   0.664   6.035 -0.2409  1.2636 -3.4810
 1261SOL    HW2 5552   3.861   0.650   5.942 -3.0974  2.1942 -0.2205
 1262SOL     OW 5553   8.584   0.780   3.374 -0.1666 -0.1719 -0.3157
 1262SOL    HW1 5554   8.676   0.787   3.351 -0.0116  0.6965  0.5221
 1262SOL    HW2 5555   8.537   0.801   3.293  0.3737  0.6211 -0.4318
 1263SOL     OW 5556   9.013   2.347   3.958 -0.3815 -0.2424  0.4829
 1263SOL    HW1 5557   8.928   2.371   3.995 -0.1581  0.2018  0.7121
 1263SOL    HW2 5558   9.043   2.425   3.913 -0.2832 -0.5301  0.0407
 1264SOL     OW 5559   2.804   1.114   6.757 -0.1976 -0.0954  0.3513
 1264SOL    HW1 5560   2.722   1.163   6.749 -0.2620  0.2571  2.4921
 1264SOL    HW2 5561   2.778   1.022   6.747 -0.7330  0.0667  0.2179
 1265SOL     OW 5562   9.135   4.785   5.188  0.4777 -0.0882 -0.1306
 1265SOL    HW1 5563   9.161   4.695   5.171  1.1974 -0.0879  0.9191
 1265SOL    HW2 5564   9.082   4.809   5.111  2.2564 -0.6028 -1.5822
 1266SOL     OW 5565   0.285   7.433   9.264 -0.4467  0.2165 -0.7478
 1266SOL    HW1 5566   0.238   7.462   9.343 -0.4624  0.6368 -0.9104
 1266SOL    HW2 5567   0.352   7.500   9.251 -0.3943  0.1045 -1.0467
 1267SOL     OW 5568   0.782   6.678   3.079 -0.3342  0.3158 -0.1659
 1267SOL    HW1 5569   0.837   6.728   3.140 -1.1232  1.3538 -0.2882
 1267SOL    HW2 5570   0.783   6.729   2.999 -0.2839 -0.4360 -0.6547
 1268SOL     OW 5571   3.508   6.966   2.436 -0.5077 -0.3853  0.0661
 1268SOL    HW1 5572   3.422   6.952   2.396 -0.6489 -0.7181  0.4784
 1268SOL    HW2 5573   3.489   6.970   2.530  0.0410 -1.2884  0.2161
 1269SOL     OW 5574   4.481   9.515   3.793 -0.4329 -0.1716 -0.4137
 1269SOL    HW1 5575   4.574   9.530   3.813 -0.6483 -1.2139  1.6298
 1269SOL    HW2 5576   4.468   9.422   3.809 -2.3637  0.3919  1.8287
 1270SOL     OW 5577   8.980   4.210   5.119 -0.0081  0.0027  0.0662
 1270SOL    HW1 5578   9.026   4.243   5.197  0.9205  0.5484 -0.6827
 1270SOL    HW2 5579   8.908   4.272   5.106  0.4764  0.5398 -0.1190
 1271SOL     OW 5580   1.927   7.320   4.875  0.2439  0.1054  0.1903
 1271SOL    HW1 5581   1.970   7.244   4.913  1.1616 -0.0025 -1.0055
 1271SOL    HW2 5582   1.972   7.395   4.914  1.2233 -0.0042 -0.6932
 1272SOL     OW 5583   5.426   0.022   9.702 -0.2050 -0.2686 -0.7420
 1272SOL    HW1 5584   5.519   0.015   9.682 -0.5204 -0.4959 -2.2162
 1272SOL    HW2 5585   5.404  -0.063   9.740  0.7670  0.7388  2.4623
 1273SOL     OW 5586   4.745   9.235   6.317 -0.2327 -0.4019  0.0933
 1273SOL    HW1 5587   4.691   9.188   6.381 -1.1111  2.3446  1.5407
 1273SOL    HW2 5588   4.721   9.327   6.329  1.5482  0.4824 -2.3946
 1274SOL     OW 5589   7.394   5.109   5.293  0.0723  0.7203 -0.7588
 1274SOL    HW1 5590   7.435   5.073   5.214 -1.9160  0.8488 -1.9268
 1274SOL    HW2 5591   7.357   5.032   5.338 -1.0306  0.8829 -1.3476
 1275SOL     OW 5592   5.666   0.289   8.767 -0.1687 -0.2354 -0.5154
 1275SOL    HW1 5593   5.676   0.220   8.701 -1.1773  0.3357 -1.2886
 1275SOL    HW2 5594   5.713   0.364   8.730  0.7659 -0.4267  0.2383
 1276SOL     OW 5595   2.646   5.950   4.276  0.2584 -0.6974  0.3211
 1276SOL    HW1 5596   2.646   6.028   4.330 -1.1034  0.5428 -1.3450
 1276SOL    HW2 5597   2.554   5.938   4.251  0.1325 -3.8088  1.7944
 1277SOL     OW 5598   1.231   4.796   5.207 -0.4503  0.4370  0.1738
 1277SOL    HW1 5599   1.185   4.871   5.245  1.9260  2.3798 -0.5135
 1277SOL    HW2 5600   1.279   4.758   5.280 -2.5579 -1.2178  0.7657
 1278SOL     OW 5601   9.368   5.196   3.550  0.2612 -0.0753 -0.6814
 1278SOL    HW1 5602   9.283   5.157   3.533 -0.0658  1.0676 -1.8265
 1278SOL    HW2 5603   9.390   5.170   3.640 -1.6192  0.2135 -0.1035
 1279SOL     OW 5604   0.320   3.441   7.314 -0.2265 -0.6288 -0.1163
 1279SOL    HW1 5605   0.309   3.427   7.408 -0.2882 -0.2530 -0.0698
 1279SOL    HW2 5606   0.400   3.393   7.292  0.4947  0.3292  0.3638
 1280SOL     OW 5607   4.299   4.300   2.721 -0.1426 -0.5006  0.2760
 1280SOL    HW1 5608   4.224   4.244   2.700 -0.5024 -0.9275  2.4798
 1280SOL    HW2 5609   4.329   4.270   2.806  1.4059  0.8779  0.2717
 1281SOL     OW 5610   0.213   8.760   4.079 -0.2541 -0.4870 -0.0060
 1281SOL    HW1 5611   0.239   8.751   4.171 -0.7289  0.5034  0.2295
 1281SOL    HW2 5612   0.168   8.844   4.075 -0.6019 -0.7188 -1.0659
 1282SOL     OW 5613   6.072   4.184   1.374 -0.1525 -0.3130  0.5875
 1282SOL    HW1 5614   6.056   4.115   1.438  0.7205 -1.3855 -0.3247
 1282SOL    HW2 5615   6.138   4.240   1.415  0.2938 -0.9062  0.6791
 1283SOL     OW 5616   0.480   6.197   5.643  0.1301 -0.0606 -0.0904
 1283SOL    HW1 5617   0.555   6.148   5.609  0.0912 -0.2782  0.1273
 1283SOL    HW2 5618   0.497   6.203   5.737 -0.7062 -1.1532  0.1517
 1284SOL     OW 5619   9.629   9.357   0.082 -0.5139 -0.5201  0.1324
 1284SOL    HW1 5620   9.550   9.319   0.120  0.0214 -3.0274 -1.0844
 1284SOL    HW2 5621   9.643   9.308   0.001  1.4652  0.8851 -0.4578
 1285SOL     OW 5622   2.259   0.617   7.989 -0.6805  0.3337  0.4330
 1285SOL    HW1 5623   2.292   0.656   7.908 -0.6535  0.2512  0.4038
 1285SOL    HW2 5624   2.315   0.654   8.058 -1.3259  1.1481  0.5264
 1286SOL     OW 5625   5.478   7.669   2.531  0.4379  0.0457 -0.1959
 1286SOL    HW1 5626   5.534   7.723   2.587 -0.2170  1.5322 -0.9087
 1286SOL    HW2 5627   5.442   7.603   2.590 -1.6427  2.6256  1.6729
 1287SOL     OW 5628   2.035   6.876   7.390  0.0644  0.0782  0.2304
 1287SOL    HW1 5629   1.980   6.954   7.381 -1.7608 -0.5979  3.8255
 1287SOL    HW2 5630   2.002   6.815   7.324 -1.3247  0.8669  0.1619
 1288SOL     OW 5631   4.549   5.672   1.485 -0.1241 -0.2875  0.5553
 1288SOL    HW1 5632   4.483   5.674   1.416  1.0261 -1.0472 -0.6227
 1288SOL    HW2 5633   4.567   5.579   1.499  0.5376 -0.1006  0.9981
 1289SOL     OW 5634   4.582   8.694   5.485 -0.0503  0.0833  0.5809
 1289SOL    HW1 5635   4.621   8.764   5.432 -0.4636 -0.4666 -0.4685
 1289SOL    HW2 5636   4.488   8.701   5.470 -0.3345  0.8907  2.4759
 1290SOL     OW 5637   8.796   7.873   7.701 -0.3365 -0.3941 -0.0768
 1290SOL    HW1 5638   8.703   7.868   7.723 -0.3449  1.8018  0.5383
 1290SOL    HW2 5639   8.810   7.963   7.673  1.4265 -0.9409 -1.1133
 1291SOL     OW 5640   6.811   1.259   3.558 -0.4583  0.5559  0.5832
 1291SOL    HW1 5641   6.725   1.285   3.590 -0.6617 -0.7892  1.2090
 1291SOL    HW2 5642   6.871   1.287   3.627 -0.4257  1.1753  0.3100
 1292SOL     OW 5643   6.130   2.052   9.586 -0.4576  0.3161 -0.4881
 1292SOL    HW1 5644   6.139   2.008   9.502  0.0865  1.4948 -1.0731
 1292SOL    HW2 5645   6.219   2.080   9.608 -0.8675  1.6693 -0.4636
 1293SOL     OW 5646   1.867   8.368   8.990  0.1113 -0.2165 -0.2518
 1293SOL    HW1 5647   1.894   8.349   8.900 -2.0443  1.7573 -1.4183
 1293SOL    HW2 5648   1.791   8.312   9.004  0.5125 -0.6021  0.3985
 1294SOL     OW 5649   6.251   4.191   5.645 -0.0826  0.5843  0.0841
 1294SOL    HW1 5650   6.315   4.132   5.684  0.2816  0.9367  0.0283
 1294SOL    HW2 5651   6.168   4.164   5.683 -0.4585 -2.0083 -2.2675
 1295SOL     OW 5652   6.102   0.497   8.083  0.2012  0.2004 -0.4002
 1295SOL    HW1 5653   6.165   0.472   8.016  0.5935  2.3242 -0.9178
 1295SOL    HW2 5654   6.137   0.580   8.119 -0.9508  0.0726  1.1378
 1296SOL     OW 5655   4.561   6.440   6.169  0.0148 -0.2851 -0.0576
 1296SOL    HW1 5656   4.618   6.403   6.236 -0.9669  0.6628  1.3617
 1296SOL    HW2 5657   4.472   6.420   6.199 -0.4726  1.1997 -0.4063
 1297SOL     OW 5658   0.975   9.351   5.616  0.0989 -0.2486 -0.3081
 1297SOL    HW1 5659   0.931   9.310   5.691 -2.8870  0.9291 -1.2557
 1297SOL    HW2 5660   0.932   9.312   5.540  0.2900  1.3802 -1.2912
 1298SOL     OW 5661   2.838   2.599   1.287 -0.4855 -0.9991 -0.2486
 1298SOL    HW1 5662   2.924   2.566   1.314 -0.4751  0.3186  1.5157
 1298SOL    HW2 5663   2.837   2.690   1.315 -2.8594 -1.2585  0.8110
 1299SOL     OW 5664   6.856   7.275   4.877 -0.3607  0.3076  0.8048
 1299SOL    HW1 5665   6.912   7.353   4.876  0.1241  0.0182  2.6283
 1299SOL    HW2 5666   6.864   7.240   4.965 -1.9289 -0.8554  0.5386
 1300SOL     OW 5667   3.419   5.655   8.471  0.3290 -0.0114 -0.0255
 1300SOL    HW1 5668   3.425   5.751   8.476  2.5642  0.0016 -1.4887
 1300SOL    HW2 5669   3.500   5.629   8.427 -0.9710 -2.4672 -1.1148
 1301SOL     OW 5670   5.454   7.625   5.363  0.2257  1.1804 -0.1116
 1301SOL    HW1 5671   5.514   7.579   5.305  1.2022  0.9302  1.0507
 1301SOL    HW2 5672   5.392   7.668   5.304  0.3708 -0.1268 -1.2922
 1302SOL     OW 5673   2.505   7.348   8.772  0.6456  0.0171  0.1320
 1302SOL    HW1 5674   2.523   7.309   8.857  1.0782 -1.4308 -0.5855
 1302SOL    HW2 5675   2.465   7.277   8.721 -1.0727  1.3068 -0.3901
 1303SOL     OW 5676   4.639   8.240   1.310  0.3820 -0.2733 -0.1264
 1303SOL    HW1 5677   4.629   8.168   1.373  1.8928 -0.4359 -0.0409
 1303SOL    HW2 5678   4.733   8.244   1.293  0.0159 -0.4486 -2.6198
 1304SOL     OW 5679   4.909   2.884   4.212 -0.0463 -0.7640  0.3690
 1304SOL    HW1 5680   4.838   2.905   4.152 -1.2145 -1.1127  1.5828
 1304SOL    HW2 5681   4.939   2.797   4.185  0.8652 -0.0680 -0.9853
 1305SOL     OW 5682   6.213   9.111   2.571  0.5988  0.7521  0.3937
 1305SOL    HW1 5683   6.213   9.029   2.619  1.2779  0.9405  0.7274
 1305SOL    HW2 5684   6.300   9.148   2.586  0.6723  1.0339 -0.6004
 1306SOL     OW 5685   0.489   3.831   8.435 -0.4759 -0.2254  0.2158
 1306SOL    HW1 5686   0.441   3.753   8.464  0.3472 -0.1446  1.8946
 1306SOL    HW2 5687   0.473   3.835   8.341 -0.7001 -2.3021  0.1254
 1307SOL     OW 5688   4.850   8.869   2.371  0.4726 -0.1397  0.2817
 1307SOL    HW1 5689   4.808   8.849   2.455  0.5304  0.9148  0.5835
 1307SOL    HW2 5690   4.789   8.929   2.328  1.2345  0.6819  0.3281
 1308SOL     OW 5691   6.145   1.557   8.317 -0.3717  0.0385 -0.5353
 1308SOL    HW1 5692   6.235   1.588   8.303 -0.3510 -1.0097 -3.2559
 1308SOL    HW2 5693   6.092   1.610   8.258 -1.3936 -0.1510  0.1865
 1309SOL     OW 5694   4.194   0.748   9.175  0.0108  0.0322  0.6688
 1309SOL    HW1 5695   4.283   0.776   9.195  0.0219 -0.0865  0.7919
 1309SOL    HW2 5696   4.205   0.662   9.133  0.0098  0.4490 -0.1989
 1310SOL     OW 5697   0.436   0.557   4.714 -0.3867 -0.2421  0.1758
 1310SOL    HW1 5698   0.483   0.545   4.631 -0.3798 -2.1626  0.4291
 1310SOL    HW2 5699   0.421   0.469   4.747 -2.9816  0.3288  0.7971
 1311SOL     OW 5700   1.450   4.361   0.058 -0.3359  0.1851 -0.1331
 1311SOL    HW1 5701   1.410   4.274   0.060 -0.5379  0.2609 -0.8062
 1311SOL    HW2 5702   1.456   4.382  -0.035 -1.0654  1.2557  0.0536
 1312SOL     OW 5703   9.338   5.390   2.055 -0.0337  0.1271  0.9320
 1312SOL    HW1 5704   9.421   5.361   2.093  0.1189  1.1073  1.3957
 1312SOL    HW2 5705   9.364   5.437   1.976 -0.0974  0.7127  1.2455
 1313SOL     OW 5706   0.843   3.905   4.382  0.1148 -0.4873  0.7125
 1313SOL    HW1 5707   0.773   3.923   4.444 -1.7261 -0.7308 -1.1899
 1313SOL    HW2 5708   0.822   3.819   4.345  0.0543  0.4454 -1.5893
 1314SOL     OW 5709   5.631   3.817   1.077 -0.0565 -0.1745  0.4145
 1314SOL    HW1 5710   5.542   3.842   1.099  0.0681  0.1825  0.5261
 1314SOL    HW2 5711   5.623   3.766   0.997 -0.1510  1.7329 -0.8347
 1315SOL     OW 5712   2.681   5.524   8.881  0.4775  0.4701  0.5614
 1315SOL    HW1 5713   2.603   5.509   8.828 -0.3210 -0.2734  1.8914
 1315SOL    HW2 5714   2.752   5.484   8.831 -0.1202  0.4738 -0.3026
 1316SOL     OW 5715   4.654   4.249   0.847  0.5341 -0.0881  0.1626
 1316SOL    HW1 5716   4.718   4.193   0.802 -0.2569  0.2619 -1.4821
 1316SOL    HW2 5717   4.707   4.313   0.894  1.4458 -1.7771  1.5486
 1317SOL     OW 5718   9.086   4.172   2.048  0.0385  0.1184  0.2983
 1317SOL    HW1 5719   9.109   4.248   2.102  1.1995 -0.4201  0.5972
 1317SOL    HW2 5720   9.127   4.098   2.093  0.0513 -0.4976 -0.7120
 1318SOL     OW 5721   3.598   6.758   5.601 -0.2085  0.5220 -0.0290
 1318SOL    HW1 5722   3.680   6.722   5.569  1.0372  1.3238  2.0634
 1318SOL    HW2 5723   3.583   6.835   5.545  0.7620  0.6835 -0.0870
 1319SOL     OW 5724   8.967   0.438   7.717 -0.6185  0.2448 -0.3973
 1319SOL    HW1 5725   9.034   0.506   7.709  0.0369 -0.3933 -0.4745
 1319SOL    HW2 5726   8.900   0.462   7.652 -0.0680  0.4482 -0.8978
 1320SOL     OW 5727   5.500   3.792   2.790  0.3327 -0.1356 -0.7592
 1320SOL    HW1 5728   5.583   3.832   2.816 -0.5893  0.8371  0.8429
 1320SOL    HW2 5729   5.437   3.864   2.793 -0.8208 -1.1222 -0.6877
 1321SOL     OW 5730   5.140   5.874   2.983  0.3170  0.9811 -0.1638
 1321SOL    HW1 5731   5.116   5.817   2.911 -0.8408  2.7074 -1.2109
 1321SOL    HW2 5732   5.224   5.911   2.957  1.0290 -0.1138  0.4794
 1322SOL     OW 5733   3.052   3.208   2.518 -0.0096  0.2782  0.3804
 1322SOL    HW1 5734   3.136   3.194   2.562 -0.3826 -0.0380  1.0126
 1322SOL    HW2 5735   3.073   3.206   2.425  0.4473 -1.5888  0.4790
 1323SOL     OW 5736   3.527   8.936   7.572 -0.9571 -0.0712 -1.0224
 1323SOL    HW1 5737   3.441   8.976   7.586 -0.5396  1.6391 -2.7981
 1323SOL    HW2 5738   3.589   9.000   7.606 -0.3143 -1.8150  1.3678
 1324SOL     OW 5739   4.615   7.193   5.784  0.3534  0.4772  0.2480
 1324SOL    HW1 5740   4.539   7.136   5.771 -0.7835  1.8420  0.7272
 1324SOL    HW2 5741   4.656   7.199   5.698  0.2564 -0.7101  0.1018
 1325SOL     OW 5742   1.469   3.240   7.852  0.0458  1.0345  0.2073
 1325SOL    HW1 5743   1.439   3.225   7.762 -0.2144  1.3232  0.2420
 1325SOL    HW2 5744   1.489   3.334   7.856 -0.8416  1.2224  0.6997
 1326SOL     OW 5745   0.859   0.535   2.076  0.2183 -0.7114 -0.1871
 1326SOL    HW1 5746   0.929   0.589   2.115 -1.0316  0.7918  0.0684
 1326SOL    HW2 5747   0.792   0.531   2.144  0.2362 -2.5514 -0.2482
 1327SOL     OW 5748   2.149   3.359   0.302 -0.2169 -0.5640 -0.1817
 1327SOL    HW1 5749   2.147   3.405   0.385  0.2856 -0.5386 -0.1800
 1327SOL    HW2 5750   2.066   3.381   0.260  0.4531  1.2393 -0.6639
 1328SOL     OW 5751   0.249   4.152   1.005  0.2404  0.2986 -0.2719
 1328SOL    HW1 5752   0.319   4.210   0.975 -0.6077  0.6810 -1.5949
 1328SOL    HW2 5753   0.205   4.124   0.924  0.5173 -2.0822  0.3168
 1329SOL     OW 5754   9.398   8.768   1.213 -0.5920 -0.1271  0.2821
 1329SOL    HW1 5755   9.399   8.809   1.127 -1.2682  0.4980  0.5675
 1329SOL    HW2 5756   9.374   8.677   1.196 -0.9879  0.0591 -0.1642
 1330SOL     OW 5757   7.357   6.948   1.411 -0.1524  0.1638  0.4683
 1330SOL    HW1 5758   7.287   6.944   1.477 -0.1357  1.6049  0.5971
 1330SOL    HW2 5759   7.379   7.041   1.405 -0.6662  0.1888 -2.1255
 1331SOL     OW 5760   8.994   7.857   7.467 -0.3010  0.5629 -0.1357
 1331SOL    HW1 5761   8.985   7.762   7.465  1.8962  0.3129 -0.1015
 1331SOL    HW2 5762   8.953   7.883   7.550 -0.6294 -0.3759  0.0108
 1332SOL     OW 5763   8.903   7.237   7.557 -0.1201  0.0784  0.2163
 1332SOL    HW1 5764   8.860   7.214   7.640  0.0639  1.4759  0.7263
 1332SOL    HW2 5765   8.833   7.274   7.504  0.0230  0.4239  0.2637
 1333SOL     OW 5766   0.217   0.804   9.289  0.4095  0.1150  0.1117
 1333SOL    HW1 5767   0.124   0.823   9.279  0.2872  0.5911  1.8280
 1333SOL    HW2 5768   0.245   0.859   9.362  1.5068 -1.6973  1.1356
 1334SOL     OW 5769   9.397   9.819   0.933  0.3600  0.2862  0.0425
 1334SOL    HW1 5770   9.378   9.791   0.844  0.3380  0.0883  0.1100
 1334SOL    HW2 5771   9.492   9.821   0.938  0.4536 -2.2667  0.8017
 1335SOL     OW 5772   8.769   7.204   8.477  0.1545  0.1029  0.0020
 1335SOL    HW1 5773   8.797   7.259   8.550 -1.7868  0.6711  0.3738
 1335SOL    HW2 5774   8.776   7.260   8.400 -0.6994  0.5037  0.2089
 1336SOL     OW 5775   2.498   3.423   3.399  0.0736  0.3214  0.8556
 1336SOL    HW1 5776   2.486   3.328   3.397 -0.1110  0.3495  0.5183
 1336SOL    HW2 5777   2.586   3.438   3.363 -0.9400  0.4403 -1.8375
 1337SOL     OW 5778   3.679   8.191   3.792  0.0707  0.3127  0.3260
 1337SOL    HW1 5779   3.644   8.275   3.763  1.5684  1.5505  1.8904
 1337SOL    HW2 5780   3.626   8.168   3.869 -0.9284 -0.6852 -0.6148
 1338SOL     OW 5781   4.418   1.686   2.865 -0.5540  0.1380 -0.8657
 1338SOL    HW1 5782   4.394   1.594   2.850 -1.2599 -0.0755  1.2077
 1338SOL    HW2 5783   4.356   1.716   2.931  1.0649  1.4476  0.1379
 1339SOL     OW 5784   8.575   8.864   8.186  0.3876  0.3046 -0.6736
 1339SOL    HW1 5785   8.547   8.777   8.157  0.2330  0.4184 -0.8674
 1339SOL    HW2 5786   8.501   8.921   8.166  0.5510  0.5109 -0.6932
 1340SOL     OW 5787   8.220   7.701   2.739  0.1646  0.0786 -0.7613
 1340SOL    HW1 5788   8.310   7.732   2.744  0.0208  0.4979 -0.7699
 1340SOL    HW2 5789   8.213   7.661   2.652  1.3647 -3.1682  0.4608
 1341SOL     OW 5790   4.703   8.140   6.546 -0.6743  0.4130 -0.3254
 1341SOL    HW1 5791   4.747   8.102   6.470  0.2092  1.0059 -0.1218
 1341SOL    HW2 5792   4.706   8.071   6.612  2.1787  1.2272  0.5193
 1342SOL     OW 5793   8.078   3.439   9.515 -0.2767 -0.1995 -0.1794
 1342SOL    HW1 5794   8.166   3.441   9.478  0.4471 -0.7009  1.4208
 1342SOL    HW2 5795   8.073   3.518   9.568 -1.2330  0.4202 -1.1582
 1343SOL     OW 5796   8.666   6.959   0.110 -0.5028  0.1616 -0.2066
 1343SOL    HW1 5797   8.665   7.054   0.125  1.5575  0.1032  0.6573
 1343SOL    HW2 5798   8.672   6.922   0.198  2.2689 -0.5825 -0.6176
 1344SOL     OW 5799   2.722   1.020   0.584 -0.6218 -0.5585  0.1558
 1344SOL    HW1 5800   2.798   1.071   0.557 -0.3848 -0.2863  1.2919
 1344SOL    HW2 5801   2.751   0.972   0.662 -1.8967  0.3281  1.2249
 1345SOL     OW 5802   2.072   2.955   0.276 -0.5971 -0.4053  0.0209
 1345SOL    HW1 5803   2.101   2.879   0.326 -0.0793 -0.9500 -1.0600
 1345SOL    HW2 5804   2.149   2.979   0.224 -1.7313 -1.3129 -2.2370
 1346SOL     OW 5805   8.178   3.063   7.406  0.1632 -0.5763  0.0141
 1346SOL    HW1 5806   8.219   3.146   7.382 -0.0979 -0.8042 -1.2518
 1346SOL    HW2 5807   8.085   3.084   7.415  0.2470 -0.5047  0.8245
 1347SOL     OW 5808   3.586   1.343   6.757  0.1235  0.5167  0.0780
 1347SOL    HW1 5809   3.576   1.248   6.754  0.2108  0.5155 -0.2293
 1347SOL    HW2 5810   3.525   1.376   6.691 -0.2930  0.7090  0.5496
 1348SOL     OW 5811   1.010   3.783   8.969  0.2000  0.2792 -0.2415
 1348SOL    HW1 5812   0.971   3.870   8.959 -0.8140 -0.0064  0.9369
 1348SOL    HW2 5813   1.007   3.767   9.064  1.0751 -0.7200 -0.3736
 1349SOL     OW 5814   4.235   4.204   4.760 -0.4781  0.1785  0.2906
 1349SOL    HW1 5815   4.228   4.111   4.782  0.9876 -0.4595 -1.6340
 1349SOL    HW2 5816   4.153   4.224   4.716 -0.4376 -0.4830 -0.1066
 1350SOL     OW 5817   2.791   7.780   2.996 -0.2128  0.4917  0.3361
 1350SOL    HW1 5818   2.841   7.794   2.915  0.3273  1.4986  0.8267
 1350SOL    HW2 5819   2.847   7.724   3.049 -0.7261 -0.4698 -0.1211
 1351SOL     OW 5820   1.461   1.039   0.186 -0.6521  0.0700 -0.1285
 1351SOL    HW1 5821   1.424   0.986   0.256  0.2167 -2.7579 -1.6646
 1351SOL    HW2 5822   1.555   1.021   0.188 -0.5098  0.5061 -1.5224
 1352SOL     OW 5823   2.919   6.360   9.533 -0.3392 -0.7717 -0.2640
 1352SOL    HW1 5824   2.997   6.411   9.511 -0.2315 -0.0808  1.5920
 1352SOL    HW2 5825   2.864   6.420   9.582 -1.6407 -1.5344 -0.7513
 1353SOL     OW 5826   2.870   0.122   7.534 -0.1315  0.1386 -0.0853
 1353SOL    HW1 5827   2.922   0.192   7.494 -0.6217  0.5454 -0.0176
 1353SOL    HW2 5828   2.780   0.145   7.512 -0.2791 -0.5961 -0.2526
 1354SOL     OW 5829   5.045   5.239   2.051  0.2065  0.2851  0.6273
 1354SOL    HW1 5830   5.131   5.246   2.094  0.7596  1.5639 -0.5796
 1354SOL    HW2 5831   5.065   5.241   1.958 -1.1045 -0.2102  0.3149
 1355SOL     OW 5832   5.433   9.370   0.881 -0.8234  0.3471  0.0452
 1355SOL    HW1 5833   5.436   9.329   0.968 -3.4105  1.4149  0.7405
 1355SOL    HW2 5834   5.340   9.385   0.865 -0.4278  0.2287 -2.9439
 1356SOL     OW 5835   4.283   2.814   5.461 -0.2318  0.6523  0.2966
 1356SOL    HW1 5836   4.288   2.762   5.380  0.2843  1.0257  0.0899
 1356SOL    HW2 5837   4.195   2.852   5.459 -1.0349 -1.0700  0.9841
 1357SOL     OW 5838   8.077   5.326   2.832  0.3784 -0.4894  0.2815
 1357SOL    HW1 5839   7.986   5.296   2.833  0.6816 -1.4786 -0.4292
 1357SOL    HW2 5840   8.119   5.277   2.903  0.2559  0.3521  0.9518
 1358SOL     OW 5841   1.895   3.229   9.795  0.4122 -0.1398  0.2733
 1358SOL    HW1 5842   1.813   3.224   9.746  0.9677  0.2836 -0.7299
 1358SOL    HW2 5843   1.964   3.228   9.728  1.2276 -0.3649  1.0853
 1359SOL     OW 5844   6.950   5.693   3.792  0.4317  0.2615 -0.4340
 1359SOL    HW1 5845   6.870   5.661   3.833  0.0124  0.6982 -0.9013
 1359SOL    HW2 5846   7.006   5.616   3.784  0.2579  0.0472  0.3529
 1360SOL     OW 5847   7.298   4.523   7.038 -0.0171  0.4879  0.0055
 1360SOL    HW1 5848   7.372   4.495   6.983  0.4889  1.1199  0.3572
 1360SOL    HW2 5849   7.227   4.539   6.975  0.0809 -0.2705 -0.3195
 1361SOL     OW 5850   0.270   3.172   6.723 -0.0351  0.2979  0.3437
 1361SOL    HW1 5851   0.343   3.195   6.780 -0.7341  1.2479  0.8688
 1361SOL    HW2 5852   0.219   3.252   6.715  0.1194  0.2661 -1.7707
 1362SOL     OW 5853   1.692   4.455   5.356  0.9154 -0.6329 -0.5292
 1362SOL    HW1 5854   1.632   4.416   5.292  0.3718  0.9739 -1.0628
 1362SOL    HW2 5855   1.749   4.383   5.383 -0.9417 -2.1224 -0.3531
 1363SOL     OW 5856   8.014   3.232   2.573 -0.3618 -0.0098  0.1433
 1363SOL    HW1 5857   7.934   3.180   2.575 -1.0641  0.9813 -1.2444
 1363SOL    HW2 5858   7.989   3.314   2.532  1.7630 -0.3997 -2.1920
 1364SOL     OW 5859   0.637   1.785   8.128  0.7024 -0.3398 -0.5538
 1364SOL    HW1 5860   0.667   1.744   8.047  0.1702 -1.1968 -0.3277
 1364SOL    HW2 5861   0.544   1.764   8.133  0.4541  0.7475 -0.3266
 1365SOL     OW 5862   5.917   7.560   7.419 -0.2841  0.7374 -0.6149
 1365SOL    HW1 5863   5.858   7.522   7.353 -1.9357  0.5088  0.9120
 1365SOL    HW2 5864   5.925   7.652   7.394  1.9833 -0.0290 -3.1012
 1366SOL     OW 5865   8.630   0.515   1.142  0.0359  0.5764  0.0053
 1366SOL    HW1 5866   8.622   0.600   1.185  1.1489  0.5233  0.3559
 1366SOL    HW2 5867   8.722   0.493   1.151 -0.2635 -0.7314  0.0256
 1367SOL     OW 5868   3.292   5.861   2.715 -0.5392  0.0156  0.5311
 1367SOL    HW1 5869   3.316   5.952   2.731  0.8189 -0.4679  1.5324
 1367SOL    HW2 5870   3.269   5.827   2.802 -1.2033 -0.5526  0.1421
 1368SOL     OW 5871   8.026   4.298   5.201  0.5461  0.4539 -0.4215
 1368SOL    HW1 5872   7.985   4.267   5.121 -1.4255  0.8236  0.3926
 1368SOL    HW2 5873   8.003   4.233   5.268  0.4745  1.1560  0.2565
 1369SOL     OW 5874   0.903   5.719   8.733 -0.1315 -0.2930  0.1921
 1369SOL    HW1 5875   0.992   5.690   8.752 -0.3893  0.0298  2.0560
 1369SOL    HW2 5876   0.848   5.665   8.790 -0.9676  0.9057  0.5471
 1370SOL     OW 5877   7.574   2.677   5.292  0.0017 -1.0757 -0.2310
 1370SOL    HW1 5878   7.576   2.772   5.282  2.1722 -1.2332 -2.1117
 1370SOL    HW2 5879   7.508   2.661   5.360 -1.4018  1.6564 -0.8264
 1371SOL     OW 5880   0.880   5.399   7.980 -0.5523  0.1728 -0.3022
 1371SOL    HW1 5881   0.931   5.480   7.992 -1.5693  0.7203  0.5588
 1371SOL    HW2 5882   0.943   5.337   7.943  0.0334  1.6045 -1.8767
 1372SOL     OW 5883   3.428   2.974   6.202 -0.3216 -0.7270 -0.3560
 1372SOL    HW1 5884   3.436   3.058   6.156 -1.7870 -0.0431  0.5916
 1372SOL    HW2 5885   3.514   2.962   6.243 -0.5739  1.1217  0.8349
 1373SOL     OW 5886   8.535   2.223   9.136  0.1257 -0.5214  0.0592
 1373SOL    HW1 5887   8.560   2.298   9.082 -1.4625 -0.6772 -0.9684
 1373SOL    HW2 5888   8.515   2.261   9.221  1.2485 -0.0711  0.1470
 1374SOL     OW 5889   2.128   3.785   8.452 -0.4849  0.0782  0.0433
 1374SOL    HW1 5890   2.106   3.728   8.525 -0.9512  1.7201  1.2406
 1374SOL    HW2 5891   2.052   3.777   8.393 -0.6006 -0.4202  0.2487
 1375SOL     OW 5892   4.116   7.382   2.508  0.9058 -0.3416 -0.0234
 1375SOL    HW1 5893   4.163   7.364   2.427  2.3757  0.6956  0.5433
 1375SOL    HW2 5894   4.174   7.350   2.577  0.0560 -0.4544  0.6582
 1376SOL     OW 5895   7.421   5.297   3.066 -0.0840  0.2832  0.0204
 1376SOL    HW1 5896   7.428   5.332   2.978  1.2905  0.2630  0.0914
 1376SOL    HW2 5897   7.360   5.224   3.059  0.9886 -0.5407 -1.2100
 1377SOL     OW 5898   2.787   6.359   0.457 -0.1086  0.2390  0.4264
 1377SOL    HW1 5899   2.830   6.408   0.527 -0.7636 -0.5363  1.3927
 1377SOL    HW2 5900   2.822   6.398   0.376  1.0244  0.8259  1.1664
 1378SOL     OW 5901   4.314   8.145   4.613  0.3797  1.0724  0.2848
 1378SOL    HW1 5902   4.264   8.066   4.592 -0.5594  1.5656  0.6295
 1378SOL    HW2 5903   4.272   8.214   4.561  0.6845  1.5002  0.6040
 1379SOL     OW 5904   9.435   7.068   3.215 -0.2212  0.5751  0.2166
 1379SOL    HW1 5905   9.485   7.127   3.158  1.1191 -0.4626  0.2472
 1379SOL    HW2 5906   9.495   7.048   3.287 -0.4818 -1.0682  0.0263
 1380SOL     OW 5907   4.030   6.583   6.448 -0.3165  0.4644 -0.0805
 1380SOL    HW1 5908   3.976   6.565   6.525  0.4121  0.3595  0.4102
 1380SOL    HW2 5909   3.992   6.663   6.411  0.2504  1.3788  1.2516
 1381SOL     OW 5910   2.605   8.698   5.851 -0.2798  0.1669 -0.0252
 1381SOL    HW1 5911   2.534   8.761   5.847  2.1884  3.1149 -0.6848
 1381SOL    HW2 5912   2.648   8.714   5.935  1.4568  0.7082 -0.9549
 1382SOL     OW 5913   2.458   5.365   1.203 -0.4251 -0.1751  0.6463
 1382SOL    HW1 5914   2.401   5.309   1.149  1.7035 -0.9598 -0.9403
 1382SOL    HW2 5915   2.529   5.307   1.231  1.0294  1.3460  0.2669
 1383SOL     OW 5916   0.271   9.159   4.903  0.5575  0.7029 -0.6264
 1383SOL    HW1 5917   0.353   9.207   4.892  1.3323 -0.7754 -1.6049
 1383SOL    HW2 5918   0.251   9.168   4.997  1.5562  1.4931 -0.4678
 1384SOL     OW 5919   7.908   7.223   0.698  0.8090  0.2523  0.6451
 1384SOL    HW1 5920   7.896   7.229   0.793 -2.8168 -0.4316  0.3654
 1384SOL    HW2 5921   7.885   7.310   0.665 -0.9380 -0.2945  0.2747
 1385SOL     OW 5922   5.271   3.755   7.905 -0.3596 -0.3060  0.5510
 1385SOL    HW1 5923   5.219   3.824   7.864 -0.3296 -1.0397 -0.7904
 1385SOL    HW2 5924   5.360   3.790   7.907 -0.2791 -0.4177 -0.4551
 1386SOL     OW 5925   5.568   6.292   4.213  0.1388 -0.2302 -0.4009
 1386SOL    HW1 5926   5.648   6.240   4.212 -0.6893 -1.5638 -1.1740
 1386SOL    HW2 5927   5.509   6.246   4.154 -1.2694  0.6186  0.2847
 1387SOL     OW 5928   9.557   5.426   1.523 -0.2296 -0.2879 -0.1121
 1387SOL    HW1 5929   9.623   5.486   1.557 -0.3277  0.4301 -1.1211
 1387SOL    HW2 5930   9.568   5.346   1.574  1.3554 -0.1514 -0.1738
 1388SOL     OW 5931   7.584   9.050   7.707  0.2916 -0.9377 -0.0005
 1388SOL    HW1 5932   7.489   9.053   7.691  0.3739 -0.6798 -0.4425
 1388SOL    HW2 5933   7.619   8.998   7.634  0.5660 -0.4916 -0.1897
 1389SOL     OW 5934   4.040   1.095   1.256 -0.1132  0.1623  0.6527
 1389SOL    HW1 5935   3.953   1.090   1.294 -0.6311 -0.4304 -0.5579
 1389SOL    HW2 5936   4.096   1.046   1.317 -0.4793  1.0780  1.7634
 1390SOL     OW 5937   2.529   0.105   0.759  0.6617  0.2647 -0.2757
 1390SOL    HW1 5938   2.522   0.021   0.713  0.5967 -0.5779  1.2375
 1390SOL    HW2 5939   2.567   0.083   0.844  3.1196  2.1090 -0.7750
 1391SOL     OW 5940   4.663   0.877   0.725 -0.2159  0.4991  0.6047
 1391SOL    HW1 5941   4.754   0.903   0.710 -0.3074  1.0334  0.9609
 1391SOL    HW2 5942   4.669   0.810   0.793 -0.0802  0.4345  0.5301
 1392SOL     OW 5943   9.659   2.763   9.723 -0.2436 -0.0725 -0.2087
 1392SOL    HW1 5944   9.711   2.812   9.787  2.0389 -0.3618 -1.6948
 1392SOL    HW2 5945   9.660   2.819   9.645  1.8462 -2.0096 -1.7252
 1393SOL     OW 5946   6.956   1.660   6.362  0.0825 -0.1881 -0.2160
 1393SOL    HW1 5947   7.024   1.667   6.429  0.7566  0.5327 -0.9618
 1393SOL    HW2 5948   6.952   1.567   6.341 -1.6219 -0.7962  2.3060
 1394SOL     OW 5949   0.307   0.293   5.617  0.3972 -0.6777 -0.0135
 1394SOL    HW1 5950   0.366   0.314   5.689 -0.3577  1.8134 -0.0462
 1394SOL    HW2 5951   0.358   0.311   5.538 -0.4587  2.1615 -0.0514
 1395SOL     OW 5952   2.484   1.460   4.915 -0.5574  0.4654 -0.1942
 1395SOL    HW1 5953   2.571   1.475   4.952  0.0575  1.4487 -1.9074
 1395SOL    HW2 5954   2.481   1.366   4.898  0.7373  0.6070 -1.3698
 1396SOL     OW 5955   5.213   1.087   9.432  0.1170 -0.5145 -0.5107
 1396SOL    HW1 5956   5.144   1.032   9.471  0.3604 -0.0720  0.5730
 1396SOL    HW2 5957   5.290   1.031   9.430  1.0400  0.4219  2.8481
 1397SOL     OW 5958   7.742   4.599   7.390 -0.4880 -0.0572  0.1781
 1397SOL    HW1 5959   7.674   4.593   7.458 -0.4632 -0.0485  0.2038
 1397SOL    HW2 5960   7.800   4.669   7.421 -1.3067  1.0044 -0.5786
 1398SOL     OW 5961   4.523   8.280   5.178 -0.1065 -0.1001  0.2165
 1398SOL    HW1 5962   4.514   8.190   5.208 -1.3947 -0.9607 -2.3887
 1398SOL    HW2 5963   4.435   8.304   5.149  0.7774  0.8906 -1.8682
 1399SOL     OW 5964   2.243   4.287   1.354  0.2613 -0.0772  0.4225
 1399SOL    HW1 5965   2.178   4.232   1.398 -1.0277  0.4547 -0.7453
 1399SOL    HW2 5966   2.304   4.312   1.423 -0.0565 -1.5963  1.3091
 1400SOL     OW 5967   0.689   0.797   9.185 -0.3901 -0.0731  0.2473
 1400SOL    HW1 5968   0.610   0.849   9.202  0.5799  1.1265  1.2384
 1400SOL    HW2 5969   0.753   0.829   9.248  1.3999  0.0939 -1.5527
 1401SOL     OW 5970   6.550   4.938   6.505 -0.6346  0.1464  0.5319
 1401SOL    HW1 5971   6.456   4.929   6.525 -0.5982 -0.1228  0.5871
 1401SOL    HW2 5972   6.585   4.988   6.579 -0.7239  0.2034  0.5369
 1402SOL     OW 5973   2.726   9.253   5.292 -0.2195 -0.0488 -0.0298
 1402SOL    HW1 5974   2.673   9.278   5.367  0.0189 -0.1594  0.1791
 1402SOL    HW2 5975   2.679   9.287   5.216 -0.9381 -0.7379  0.0954
 1403SOL     OW 5976   5.467   0.149   5.183  0.1164  0.1554  0.4487
 1403SOL    HW1 5977   5.435   0.119   5.098 -1.1048  1.3849  0.4359
 1403SOL    HW2 5978   5.560   0.166   5.168  0.0691 -0.3055 -0.4469
 1404SOL     OW 5979   1.452   8.075   7.173 -0.1949  0.1881  0.3851
 1404SOL    HW1 5980   1.371   8.124   7.155  0.8790  2.2127  0.8236
 1404SOL    HW2 5981   1.421   7.992   7.210 -2.0731  1.0773  0.9546
 1405SOL     OW 5982   3.076   5.336   1.269  0.2743 -0.2327  0.1038
 1405SOL    HW1 5983   3.050   5.246   1.289  1.0601 -0.4830  0.0221
 1405SOL    HW2 5984   3.009   5.367   1.209  0.7807 -1.2773 -1.0600
 1406SOL     OW 5985   2.595   3.901   5.204  0.0475 -0.3897  0.2990
 1406SOL    HW1 5986   2.607   3.967   5.272 -0.0764 -0.0846  0.0287
 1406SOL    HW2 5987   2.620   3.945   5.123 -3.7540  0.6741 -0.4988
 1407SOL     OW 5988   6.564   0.817   3.231 -0.1142  0.5482  0.0825
 1407SOL    HW1 5989   6.521   0.888   3.279 -0.9138  0.5158 -0.5536
 1407SOL    HW2 5990   6.565   0.744   3.292  2.6463  1.6584  1.5428
 1408SOL     OW 5991   8.157   7.335   8.005 -0.3363  0.8667  0.1632
 1408SOL    HW1 5992   8.106   7.398   7.954 -1.2295  0.4616  0.5366
 1408SOL    HW2 5993   8.093   7.271   8.035  0.5906 -0.3881 -0.4358
 1409SOL     OW 5994   1.859   7.962   7.709  0.2659 -0.4756  0.5089
 1409SOL    HW1 5995   1.765   7.967   7.726  0.3214 -0.8222  0.9363
 1409SOL    HW2 5996   1.898   8.028   7.767  0.2742 -0.2043  0.2001
 1410SOL     OW 5997   2.649   8.699   5.273 -0.4464 -0.2421  0.3014
 1410SOL    HW1 5998   2.706   8.682   5.197  0.0654 -1.4314  0.9232
 1410SOL    HW2 5999   2.607   8.615   5.290 -0.6973  0.0597  1.2206
 1411SOL     OW 6000   3.789   1.399   6.560 -0.0875 -0.0554  0.0383
 1411SOL    HW1 6001   3.729   1.392   6.635 -0.7853  1.4411 -0.3329
 1411SOL    HW2 6002   3.742   1.358   6.488 -0.8313  1.3434 -0.3142
 1412SOL     OW 6003   6.973   7.059   9.092 -0.1398 -0.6191  0.1006
 1412SOL    HW1 6004   7.002   7.064   9.183  1.5533  0.3503 -0.4514
 1412SOL    HW2 6005   6.935   7.145   9.073  0.3226 -0.5073 -0.3513
 1413SOL     OW 6006   5.566   1.291   3.988 -0.0475 -0.3597 -0.4984
 1413SOL    HW1 6007   5.580   1.204   4.026 -1.6355  0.3231  1.8340
 1413SOL    HW2 6008   5.523   1.273   3.904  0.4963 -1.8395 -0.4975
 1414SOL     OW 6009   8.245   7.942   5.435 -0.0038  0.3136  0.3437
 1414SOL    HW1 6010   8.212   7.898   5.513 -0.3944 -1.0222 -0.5229
 1414SOL    HW2 6011   8.202   7.896   5.362  0.9191  1.0134 -0.6817
 1415SOL     OW 6012   3.312   5.909   5.360  0.3598  0.4351  0.0410
 1415SOL    HW1 6013   3.276   5.902   5.272  1.7882  1.9378 -0.7284
 1415SOL    HW2 6014   3.316   5.819   5.393  1.3897 -0.3547 -2.0995
 1416SOL     OW 6015   0.787   1.091   6.976  0.6774 -0.5764  0.0930
 1416SOL    HW1 6016   0.822   1.008   6.943  2.0216 -0.3780  0.9494
 1416SOL    HW2 6017   0.841   1.111   7.053  0.0325  0.8281  0.2088
 1417SOL     OW 6018   9.739   2.806   2.560 -0.7764  0.1273  0.2401
 1417SOL    HW1 6019   9.675   2.791   2.491  1.8339 -0.7032 -2.2154
 1417SOL    HW2 6020   9.773   2.718   2.581  0.7370  0.6565  0.1687
 1418SOL     OW 6021   9.145   6.257   1.977  0.2266  0.0391 -0.3144
 1418SOL    HW1 6022   9.220   6.198   1.986 -0.7370 -1.0265  1.1946
 1418SOL    HW2 6023   9.182   6.338   1.943  1.5870 -1.4565 -2.7010
 1419SOL     OW 6024   7.562   5.686   3.502  0.0921 -0.0241 -0.2692
 1419SOL    HW1 6025   7.565   5.673   3.408 -2.5359  1.3337 -0.6388
 1419SOL    HW2 6026   7.619   5.761   3.518  1.2206 -0.7885 -0.6233
 1420SOL     OW 6027   7.585   8.788   0.741 -0.0676 -0.3318 -0.5287
 1420SOL    HW1 6028   7.622   8.769   0.827  1.9500  1.6279 -0.9000
 1420SOL    HW2 6029   7.491   8.770   0.751  0.4716 -2.6876  1.2694
 1421SOL     OW 6030   7.161   1.341   9.518  0.4333  0.2333  0.2877
 1421SOL    HW1 6031   7.086   1.302   9.564 -0.2110  1.5962  0.4677
 1421SOL    HW2 6032   7.191   1.273   9.459  0.0101 -0.8747  1.3003
 1422SOL     OW 6033   9.636   9.554   6.301 -0.2872 -0.4003  0.1029
 1422SOL    HW1 6034   9.658   9.559   6.208 -0.7055 -0.1520  0.0117
 1422SOL    HW2 6035   9.707   9.601   6.345  1.0787 -2.3560  0.1237
 1423SOL     OW 6036   3.888   6.487   1.136 -0.5817 -0.0879 -0.9295
 1423SOL    HW1 6037   3.852   6.574   1.152 -0.1079 -0.2111  1.0245
 1423SOL    HW2 6038   3.816   6.427   1.157 -0.6960 -0.1957 -1.6139
 1424SOL     OW 6039   3.877   1.354   9.675 -0.4642  0.0111 -0.2158
 1424SOL    HW1 6040   3.793   1.379   9.636 -1.0121 -0.3264  0.7149
 1424SOL    HW2 6041   3.916   1.437   9.702 -0.7821  0.1203 -0.0857
 1425SOL     OW 6042   4.824   8.560   2.355  0.4771 -0.2892  0.2558
 1425SOL    HW1 6043   4.732   8.580   2.376  0.4879 -0.2744  0.2882
 1425SOL    HW2 6044   4.830   8.577   2.261  0.3988 -0.4704  0.2170
 1426SOL     OW 6045   7.173   5.152   4.425  0.9341  0.0862 -0.8763
 1426SOL    HW1 6046   7.246   5.213   4.419  0.2834  0.8090 -1.5929
 1426SOL    HW2 6047   7.130   5.157   4.340  0.2323 -0.5690 -0.5724
 1427SOL     OW 6048   4.817   4.642   0.794 -0.4275  0.2223 -0.2362
 1427SOL    HW1 6049   4.839   4.558   0.754 -1.0356 -0.2608  0.4306
 1427SOL    HW2 6050   4.728   4.661   0.765 -0.1004  0.9037 -0.8182
 1428SOL     OW 6051   7.553   6.762   4.606  0.2409 -0.7406  0.0581
 1428SOL    HW1 6052   7.480   6.703   4.625  1.2155 -1.9922  0.0662
 1428SOL    HW2 6053   7.589   6.784   4.692 -0.7426  0.7323  0.1249
 1429SOL     OW 6054   0.834   9.213   1.776 -0.2581 -0.1027  0.3580
 1429SOL    HW1 6055   0.768   9.178   1.836  1.3857 -2.9180  0.7587
 1429SOL    HW2 6056   0.917   9.201   1.824  0.7772  1.0454 -1.0610
 1430SOL     OW 6057   5.956   4.938   1.435  0.1045 -0.4475 -0.1561
 1430SOL    HW1 6058   5.933   4.902   1.520 -0.2873 -2.3492 -1.0176
 1430SOL    HW2 6059   5.993   5.024   1.454 -0.3731 -0.6561  1.8803
 1431SOL     OW 6060   8.283   0.650   9.349  0.3046  0.0688 -0.0608
 1431SOL    HW1 6061   8.285   0.565   9.305  1.0023 -0.4813  0.9845
 1431SOL    HW2 6062   8.280   0.628   9.442 -0.2328  1.2034  0.2079
 1432SOL     OW 6063   0.415   7.469   8.864  0.7309  0.3683 -0.0312
 1432SOL    HW1 6064   0.387   7.456   8.774  0.5278 -2.6129  0.3731
 1432SOL    HW2 6065   0.511   7.473   8.859  0.9027 -2.3773 -0.2160
 1433SOL     OW 6066   4.023   0.650   3.479 -0.4397  0.3296  0.6740
 1433SOL    HW1 6067   4.082   0.603   3.538  1.7340  0.5644 -1.2207
 1433SOL    HW2 6068   4.043   0.743   3.492 -1.9671  0.5799  1.5537
 1434SOL     OW 6069   9.527   5.249   5.510  0.5679  0.3197 -0.4727
 1434SOL    HW1 6070   9.521   5.166   5.557  1.0994  0.7001  0.2978
 1434SOL    HW2 6071   9.464   5.306   5.554  2.0854  1.1195  0.7787
 1435SOL     OW 6072   4.995   6.599   0.734 -0.0130  0.1708  0.4243
 1435SOL    HW1 6073   5.008   6.658   0.808 -0.1857  0.3066  0.3498
 1435SOL    HW2 6074   4.980   6.658   0.659  0.3312  0.0362  0.2496
 1436SOL     OW 6075   2.285   1.038   4.842 -0.2142  0.0477  0.2713
 1436SOL    HW1 6076   2.210   1.014   4.787  0.1353  0.3642 -0.3481
 1436SOL    HW2 6077   2.359   1.042   4.782  0.6481 -1.8162  1.1189
 1437SOL     OW 6078   4.334   8.628   6.379  0.4386 -0.7640 -0.4766
 1437SOL    HW1 6079   4.245   8.664   6.387  1.4580  1.8601  0.0969
 1437SOL    HW2 6080   4.344   8.573   6.457  0.0388  0.7196  0.6823
 1438SOL     OW 6081   9.049   9.138   9.512 -0.8403 -0.1686  0.2856
 1438SOL    HW1 6082   8.960   9.166   9.534 -0.7459  0.5163 -0.1859
 1438SOL    HW2 6083   9.041   9.099   9.425 -0.7483 -0.4553  0.4055
 1439SOL     OW 6084   8.467   1.070   8.816 -0.1349  1.2944 -0.1384
 1439SOL    HW1 6085   8.449   0.984   8.855  2.9563  0.2080 -0.8289
 1439SOL    HW2 6086   8.517   1.117   8.883  1.3788  1.1069 -1.0971
 1440SOL     OW 6087   1.735   3.860   6.565  0.4607  0.0603  0.1455
 1440SOL    HW1 6088   1.641   3.852   6.581  0.5944  0.2505  1.0511
 1440SOL    HW2 6089   1.749   3.955   6.554  0.4999  0.0043 -0.3114
 1441SOL     OW 6090   8.701   1.276   0.185 -0.3119 -0.1500 -0.1157
 1441SOL    HW1 6091   8.735   1.290   0.097  0.2273 -1.6456 -0.1714
 1441SOL    HW2 6092   8.636   1.345   0.197 -1.2492 -0.5959 -2.1503
 1442SOL     OW 6093   0.866   7.537   1.601 -0.2504  0.4968 -0.5671
 1442SOL    HW1 6094   0.806   7.480   1.650 -1.9138  2.7437  0.1989
 1442SOL    HW2 6095   0.912   7.587   1.668  2.5582 -1.1232 -1.1571
 1443SOL     OW 6096   3.065   7.434   1.927 -0.1559 -0.3170  0.1776
 1443SOL    HW1 6097   2.997   7.375   1.958  0.9788 -1.0443  1.3595
 1443SOL    HW2 6098   3.035   7.462   1.840 -2.2028 -0.1743  0.8871
 1444SOL     OW 6099   5.032   1.344   3.689 -0.7912 -0.4516 -0.4886
 1444SOL    HW1 6100   5.081   1.417   3.727 -0.3808 -0.4989 -0.9255
 1444SOL    HW2 6101   4.960   1.330   3.750 -1.1804  0.6606 -0.6654
 1445SOL     OW 6102   2.724   2.815   7.158  0.4026 -0.5504  0.8193
 1445SOL    HW1 6103   2.816   2.820   7.133  0.4179 -1.5476  0.6366
 1445SOL    HW2 6104   2.723   2.756   7.234  0.0737  0.6073  1.7530
 1446SOL     OW 6105   6.815   1.030   7.026  0.2404 -0.1659 -0.1056
 1446SOL    HW1 6106   6.734   1.070   6.993 -0.1136  0.3591  1.2990
 1446SOL    HW2 6107   6.818   0.944   6.985 -0.5653  0.1622 -0.8817
 1447SOL     OW 6108   4.837   2.881   2.593  0.7315 -0.4623  0.3710
 1447SOL    HW1 6109   4.885   2.826   2.655  0.7619  0.2349  0.9685
 1447SOL    HW2 6110   4.745   2.861   2.610  0.7647 -1.7297 -0.7114
 1448SOL     OW 6111   5.472   4.429   8.758  0.2875  0.5160  0.7599
 1448SOL    HW1 6112   5.559   4.390   8.757  1.0022  2.0100 -0.2164
 1448SOL    HW2 6113   5.427   4.388   8.832  0.9468 -2.0930 -0.1804
 1449SOL     OW 6114   2.414   6.876   9.720  0.3666 -0.4750 -0.2385
 1449SOL    HW1 6115   2.402   6.813   9.650  3.1103  0.3688 -1.5847
 1449SOL    HW2 6116   2.429   6.959   9.676 -2.1383  1.0214  1.4705
 1450SOL     OW 6117   7.557   5.411   1.234  0.3398 -0.8451  0.2258
 1450SOL    HW1 6118   7.474   5.450   1.206  0.4709 -1.6656 -1.4148
 1450SOL    HW2 6119   7.624   5.469   1.198  0.5023 -1.2204 -0.0768
 1451SOL     OW 6120   0.658   6.289   6.002 -0.1756  0.4283 -0.5718
 1451SOL    HW1 6121   0.608   6.209   6.018  0.6627  0.4749  3.1295
 1451SOL    HW2 6122   0.742   6.274   6.045  0.8085  2.5101 -1.6166
 1452SOL     OW 6123   2.669   7.769   5.523 -0.2764 -0.3920  0.3862
 1452SOL    HW1 6124   2.653   7.739   5.433  1.2229  0.7221 -0.2890
 1452SOL    HW2 6125   2.741   7.714   5.554 -1.4256 -1.4432  1.3016
 1453SOL     OW 6126   4.943   8.606   1.115  0.5513  0.5540 -0.0190
 1453SOL    HW1 6127   5.002   8.563   1.178 -1.3364 -0.7851  0.9509
 1453SOL    HW2 6128   4.900   8.675   1.166 -1.0952 -0.6314  0.3029
 1454SOL     OW 6129   9.315   4.612   6.568 -0.6075  0.5929 -0.4171
 1454SOL    HW1 6130   9.332   4.568   6.651 -0.7832  0.8552 -0.2410
 1454SOL    HW2 6131   9.402   4.631   6.533 -0.3748 -2.7857 -2.0832
 1455SOL     OW 6132   0.953   6.784   4.700 -0.2407  0.1251 -0.3379
 1455SOL    HW1 6133   1.019   6.824   4.644  0.1013 -1.1720 -0.9123
 1455SOL    HW2 6134   0.886   6.851   4.711  0.8715  1.2441 -0.2674
 1456SOL     OW 6135   5.696   4.982   1.310  0.2023  0.1283  0.0716
 1456SOL    HW1 6136   5.781   4.948   1.336 -0.5591  0.2541  3.1091
 1456SOL    HW2 6137   5.716   5.064   1.264  1.7577  1.7051  3.2453
 1457SOL     OW 6138   8.411   8.445   0.728  0.0960  0.2165 -0.5709
 1457SOL    HW1 6139   8.355   8.514   0.762 -0.0089 -0.4966  0.7807
 1457SOL    HW2 6140   8.480   8.491   0.682 -1.0162  1.1473 -1.3727
 1458SOL     OW 6141   0.118   0.785   3.222 -0.0954 -0.0613 -0.0059
 1458SOL    HW1 6142   0.063   0.841   3.167  2.3001  1.3483 -1.1359
 1458SOL    HW2 6143   0.117   0.829   3.308  0.7972  1.1104 -0.5592
 1459SOL     OW 6144   5.209   5.652   9.262 -0.0131  0.0097 -0.0335
 1459SOL    HW1 6145   5.267   5.726   9.247 -0.1739  0.3070  0.7521
 1459SOL    HW2 6146   5.210   5.639   9.356 -0.9106 -0.2314 -0.0434
 1460SOL     OW 6147   4.326   1.448   6.449 -0.0717 -0.0398  0.0553
 1460SOL    HW1 6148   4.237   1.438   6.415  0.2385 -0.6104 -0.6344
 1460SOL    HW2 6149   4.381   1.440   6.371  0.5104  2.2403  0.1720
 1461SOL     OW 6150   3.273   9.637   9.247  0.4275 -0.3359 -0.0298
 1461SOL    HW1 6151   3.310   9.578   9.182 -0.8672 -0.2774 -0.8562
 1461SOL    HW2 6152   3.349   9.673   9.293  1.3163 -1.1337 -0.8370
 1462SOL     OW 6153   4.939   8.189   3.859 -0.1472  0.1479  0.1365
 1462SOL    HW1 6154   5.033   8.175   3.869 -0.4516 -1.6946  0.6623
 1462SOL    HW2 6155   4.914   8.245   3.933  0.4183  0.0553  0.3974
 1463SOL     OW 6156   8.513   5.345   5.678 -0.4624 -0.2506 -0.0752
 1463SOL    HW1 6157   8.526   5.400   5.601 -0.3640 -0.2113 -0.0305
 1463SOL    HW2 6158   8.567   5.385   5.746  0.2440 -0.8683 -0.2673
 1464SOL     OW 6159   8.932   2.056   6.502  0.3865 -0.2083 -0.0421
 1464SOL    HW1 6160   8.922   2.147   6.473 -1.6296 -0.1437  0.7624
 1464SOL    HW2 6161   9.026   2.048   6.520  0.6262  1.6631 -0.2397
 1465SOL     OW 6162   2.872   4.597   3.755  0.3411  0.3323 -0.3534
 1465SOL    HW1 6163   2.967   4.584   3.756  0.3704  0.5470 -0.4281
 1465SOL    HW2 6164   2.846   4.589   3.846  0.2261 -1.2564 -0.4930
 1466SOL     OW 6165   3.070   5.167   8.534 -0.5319 -0.0558 -0.6707
 1466SOL    HW1 6166   3.040   5.077   8.527 -1.6652  0.1733  0.8096
 1466SOL    HW2 6167   3.163   5.163   8.513 -0.6683 -1.4656 -1.1348
 1467SOL     OW 6168   3.642   7.752   2.242 -0.3381  0.4225 -0.7407
 1467SOL    HW1 6169   3.737   7.757   2.250 -0.2236  0.4170 -1.9510
 1467SOL    HW2 6170   3.610   7.763   2.332  0.8199 -0.1893 -0.2328
 1468SOL     OW 6171   2.594   5.861   5.910 -0.0172 -0.5554  0.7458
 1468SOL    HW1 6172   2.537   5.832   5.981  2.2024 -2.5779  1.8752
 1468SOL    HW2 6173   2.681   5.865   5.950  0.7564  2.0301 -0.9764
 1469SOL     OW 6174   6.426   0.733   7.315  0.3360  0.0029  0.6581
 1469SOL    HW1 6175   6.501   0.757   7.261  0.7564 -0.1556  1.1546
 1469SOL    HW2 6176   6.388   0.657   7.271 -2.0034  2.4165 -1.8339
 1470SOL     OW 6177   8.996   4.097   3.025 -0.1982 -0.1019  0.1727
 1470SOL    HW1 6178   9.044   4.169   3.067 -0.0309  1.2972 -2.2065
 1470SOL    HW2 6179   8.904   4.122   3.035 -0.1937 -0.1107  0.2448
 1471SOL     OW 6180   7.582   0.894   1.291 -0.3352 -0.0570 -0.0723
 1471SOL    HW1 6181   7.490   0.877   1.308 -0.2972 -1.5596 -1.1377
 1471SOL    HW2 6182   7.584   0.982   1.253 -1.2328  0.2756  0.6361
 1472SOL     OW 6183   6.538   8.376   5.565 -0.2679  0.6618 -0.1148
 1472SOL    HW1 6184   6.460   8.322   5.552 -0.0257  0.5797 -1.3800
 1472SOL    HW2 6185   6.508   8.466   5.549 -0.1834  0.6649 -0.2594
 1473SOL     OW 6186   2.624   5.414   1.967 -0.4936  0.3363 -0.0450
 1473SOL    HW1 6187   2.596   5.506   1.968  0.6084  0.7118 -0.9770
 1473SOL    HW2 6188   2.634   5.393   1.874  2.9990  0.5171  0.1532
 1474SOL     OW 6189   7.415   8.667   1.837  0.4411 -0.6243  0.2355
 1474SOL    HW1 6190   7.358   8.639   1.765  1.1652  1.3681 -1.2029
 1474SOL    HW2 6191   7.391   8.758   1.852  1.3617 -0.5745  1.4967
 1475SOL     OW 6192   0.776   7.399   2.476 -0.0744 -0.2822  0.8477
 1475SOL    HW1 6193   0.691   7.423   2.440  0.2268 -0.2427  0.1412
 1475SOL    HW2 6194   0.824   7.482   2.483  0.6407 -0.5124 -0.7412
 1476SOL     OW 6195   6.572   3.909   1.379 -0.4314 -0.5544 -0.2748
 1476SOL    HW1 6196   6.515   3.952   1.315 -0.0061 -0.1102 -0.3564
 1476SOL    HW2 6197   6.527   3.827   1.399 -1.6228  0.2410  0.4377
 1477SOL     OW 6198   7.667   6.944   6.360 -0.2498 -0.1712  0.9834
 1477SOL    HW1 6199   7.747   6.894   6.377  0.4579  0.5739 -0.0716
 1477SOL    HW2 6200   7.697   7.033   6.343 -1.2458 -0.0222 -0.1039
 1478SOL     OW 6201   2.533   2.304   8.613 -0.4648  0.1553  0.1972
 1478SOL    HW1 6202   2.512   2.282   8.703 -1.5593 -0.8114 -0.2592
 1478SOL    HW2 6203   2.529   2.399   8.610  1.0957  0.2990  1.4909
 1479SOL     OW 6204   0.516   7.921   2.038  0.4440  0.0740 -0.3099
 1479SOL    HW1 6205   0.557   8.005   2.016  0.6232 -0.0704 -0.5299
 1479SOL    HW2 6206   0.495   7.882   1.954  0.4359 -0.1391 -0.2096
 1480SOL     OW 6207   6.711   3.051   2.524  0.5316 -0.3602 -0.9205
 1480SOL    HW1 6208   6.730   3.060   2.617 -0.7706  2.1529 -0.8043
 1480SOL    HW2 6209   6.688   2.958   2.513 -1.0663 -0.3822  1.6603
 1481SOL     OW 6210   2.021   5.461   8.711  0.0228  0.1075 -0.9634
 1481SOL    HW1 6211   2.075   5.495   8.783  0.5425 -0.6969 -0.9591
 1481SOL    HW2 6212   1.979   5.384   8.748 -1.4927  0.9636 -0.8350
 1482SOL     OW 6213   4.753   3.447   7.105  0.2392  0.4394  0.1255
 1482SOL    HW1 6214   4.791   3.362   7.082 -1.8067 -0.5758  0.2895
 1482SOL    HW2 6215   4.829   3.503   7.121  1.6665 -1.5154  0.6534
 1483SOL     OW 6216   9.615   0.135   6.746 -0.1882 -0.0607 -0.4388
 1483SOL    HW1 6217   9.703   0.165   6.768 -0.7882  0.5817  1.2424
 1483SOL    HW2 6218   9.559   0.211   6.761 -1.0341 -0.4226 -1.5866
 1484SOL     OW 6219   2.410   1.253   2.607 -0.3900 -0.0534 -0.3110
 1484SOL    HW1 6220   2.384   1.333   2.563 -0.3700  0.4438  0.5549
 1484SOL    HW2 6221   2.453   1.282   2.687 -0.9441 -0.9275  0.3298
 1485SOL     OW 6222   0.422   1.782   5.229  0.1377  0.6064 -0.4544
 1485SOL    HW1 6223   0.429   1.825   5.144 -0.3094  0.8972 -0.3475
 1485SOL    HW2 6224   0.500   1.810   5.277  1.3763 -1.0326 -1.4088
 1486SOL     OW 6225   4.494   6.965   1.602  0.3564  0.6751  0.0783
 1486SOL    HW1 6226   4.558   6.932   1.539 -0.4134 -0.7850  0.0043
 1486SOL    HW2 6227   4.498   6.902   1.674  1.1290  2.2418  1.4544
 1487SOL     OW 6228   6.027   2.247   6.029 -0.6136  0.2508 -0.0332
 1487SOL    HW1 6229   6.023   2.287   5.942 -0.8123 -0.1012 -0.1917
 1487SOL    HW2 6230   5.971   2.170   6.022 -1.6829  0.9201  0.7881
 1488SOL     OW 6231   0.724   2.149   4.155 -0.3046  0.5672  0.2677
 1488SOL    HW1 6232   0.692   2.110   4.074 -0.4988  0.2187  0.5113
 1488SOL    HW2 6233   0.647   2.187   4.196  0.2171  3.4936 -1.1710
 1489SOL     OW 6234   0.817   6.038   9.311  1.0984  0.0433 -0.3089
 1489SOL    HW1 6235   0.869   6.085   9.375  1.0952 -0.6705  0.2341
 1489SOL    HW2 6236   0.765   6.106   9.267  2.3049  0.7368 -0.7081
 1490SOL     OW 6237   0.379   0.334   7.492 -0.0084  0.4625  0.5610
 1490SOL    HW1 6238   0.451   0.362   7.436 -1.3380  0.6744 -1.1395
 1490SOL    HW2 6239   0.300   0.361   7.445 -1.2837 -2.2338  0.9611
 1491SOL     OW 6240   7.897   5.808   2.520 -0.3966  0.1490 -0.0429
 1491SOL    HW1 6241   7.862   5.743   2.581 -1.7799  0.0319 -0.9013
 1491SOL    HW2 6242   7.834   5.808   2.448  1.6548 -0.3957 -1.9370
 1492SOL     OW 6243   5.981   6.723   9.721  0.1448 -0.1285 -0.1087
 1492SOL    HW1 6244   6.019   6.809   9.733 -0.0863  0.1891 -1.4706
 1492SOL    HW2 6245   5.943   6.701   9.806  0.1246  1.1548  0.2306
 1493SOL     OW 6246   9.667   5.855   3.710  0.7308 -0.1440 -0.0491
 1493SOL    HW1 6247   9.747   5.850   3.763  0.0677  0.2987  1.0340
 1493SOL    HW2 6248   9.698   5.850   3.620  2.3037  2.7290  0.1869
 1494SOL     OW 6249   0.485   0.224   2.382  0.0488 -0.0608  0.2102
 1494SOL    HW1 6250   0.450   0.213   2.470  1.0277  4.2826  1.3646
 1494SOL    HW2 6251   0.420   0.279   2.337 -0.1954 -1.7819 -1.7419
 1495SOL     OW 6252   0.890   7.363   4.959 -0.5882  0.5261 -0.5136
 1495SOL    HW1 6253   0.929   7.429   4.902 -0.8952  0.4073 -0.8694
 1495SOL    HW2 6254   0.797   7.365   4.937 -0.3718 -1.2125 -1.7615
 1496SOL     OW 6255   9.454   5.905   9.258 -0.3752  0.6677  1.2216
 1496SOL    HW1 6256   9.455   5.936   9.349 -1.6114 -0.9595  1.8435
 1496SOL    HW2 6257   9.370   5.937   9.223  0.5595  2.2081  0.2560
 1497SOL     OW 6258   2.527   3.252   8.169 -0.3608  0.2817  0.3200
 1497SOL    HW1 6259   2.500   3.336   8.205  0.0119  0.8521 -0.7088
 1497SOL    HW2 6260   2.606   3.229   8.217 -0.6536  0.3571  0.8372
 1498SOL     OW 6261   3.461   2.166   4.615 -0.3107  0.2351 -0.1786
 1498SOL    HW1 6262   3.555   2.184   4.624 -0.1987 -1.0125  1.5821
 1498SOL    HW2 6263   3.418   2.244   4.650  0.0774  0.4109 -0.0887
 1499SOL     OW 6264   8.435   3.244   8.096 -0.5498  0.8469 -0.5118
 1499SOL    HW1 6265   8.391   3.268   8.014  0.9245  1.6429 -1.1082
 1499SOL    HW2 6266   8.433   3.325   8.147 -0.7862  0.5617 -0.0664
 1500SOL     OW 6267   2.085   8.144   7.144  0.2126 -0.6156  0.1042
 1500SOL    HW1 6268   2.015   8.148   7.079  2.2330 -0.9197 -2.2557
 1500SOL    HW2 6269   2.138   8.068   7.118  0.6051 -1.3742  2.7504
 1501SOL     OW 6270   1.339   9.057   5.462  0.6576 -0.0059 -0.2892
 1501SOL    HW1 6271   1.421   9.094   5.495  1.0704 -0.8496 -0.3406
 1501SOL    HW2 6272   1.360   8.965   5.445  0.2997  0.2440 -2.3461
 1502SOL     OW 6273   3.280   1.287   8.830 -0.1739 -0.2211  0.2930
 1502SOL    HW1 6274   3.336   1.359   8.857 -0.5428  0.9525 -1.9199
 1502SOL    HW2 6275   3.318   1.210   8.873  2.3525  0.7282 -0.0876
 1503SOL     OW 6276   5.348   6.554   1.034  0.3084 -0.0174  0.3977
 1503SOL    HW1 6277   5.302   6.624   0.988 -0.4127  0.4411  1.7574
 1503SOL    HW2 6278   5.428   6.596   1.067  1.9137 -0.8557 -2.1212
 1504SOL     OW 6279   9.329   0.780   5.747 -0.2896  0.2192 -0.2281
 1504SOL    HW1 6280   9.283   0.834   5.683  0.7847  1.7553  0.2309
 1504SOL    HW2 6281   9.403   0.743   5.698 -0.5741 -0.1800 -0.3523
 1505SOL     OW 6282   7.357   4.141   6.749 -0.1426 -0.2361  0.0459
 1505SOL    HW1 6283   7.298   4.183   6.812  0.2053 -0.4042  0.4906
 1505SOL    HW2 6284   7.399   4.070   6.799  0.9525  0.3133 -0.0553
 1506SOL     OW 6285   3.664   8.378   2.445 -0.8781 -0.4540 -0.7999
 1506SOL    HW1 6286   3.634   8.445   2.383 -0.0039  0.3751 -0.3498
 1506SOL    HW2 6287   3.584   8.333   2.472 -1.8185  1.8896  0.6052
 1507SOL     OW 6288   0.772   3.206   0.761  0.4182  0.0768  0.2288
 1507SOL    HW1 6289   0.725   3.133   0.800  0.0379 -0.1035 -0.5362
 1507SOL    HW2 6290   0.708   3.249   0.705  1.1039 -0.1044 -0.7443
 1508SOL     OW 6291   1.482   7.113   5.645 -0.5275  0.9421 -0.2957
 1508SOL    HW1 6292   1.454   7.038   5.697  1.5644  0.9865  1.0229
 1508SOL    HW2 6293   1.453   7.094   5.556 -0.0259 -1.4522  0.0074
 1509SOL     OW 6294   9.279   8.875   7.676 -0.2783  0.5396  0.1500
 1509SOL    HW1 6295   9.316   8.812   7.614  0.4946  0.6642  0.4735
 1509SOL    HW2 6296   9.260   8.823   7.754  0.3571  0.6931  0.4162
 1510SOL     OW 6297   3.264   5.220   5.013 -0.4729 -0.0489  0.0535
 1510SOL    HW1 6298   3.193   5.239   5.075 -0.6695  0.1407 -0.2306
 1510SOL    HW2 6299   3.329   5.172   5.065 -0.8071 -0.2186  0.3157
 1511SOL     OW 6300   7.404   0.954   7.275  0.2592 -0.0018 -0.0871
 1511SOL    HW1 6301   7.465   0.923   7.342 -1.2473  0.3019  1.5279
 1511SOL    HW2 6302   7.392   0.880   7.216  1.4956 -0.3385  0.0700
 1512SOL     OW 6303   0.736   5.466   9.450  0.2235 -0.6013  0.3076
 1512SOL    HW1 6304   0.647   5.447   9.481  0.4981 -0.7700  1.0200
 1512SOL    HW2 6305   0.780   5.381   9.451  0.8613 -0.2848  1.5378
 1513SOL     OW 6306   4.734   4.974   6.666 -0.2734  0.2823 -0.0224
 1513SOL    HW1 6307   4.728   4.944   6.576 -0.1510 -2.3187  0.7770
 1513SOL    HW2 6308   4.643   4.985   6.694 -0.4417 -1.9385  0.4382
 1514SOL     OW 6309   5.641   0.942   3.320  0.1771 -0.3740  0.3282
 1514SOL    HW1 6310   5.583   0.931   3.396  1.3494 -3.7525  0.9085
 1514SOL    HW2 6311   5.672   0.853   3.301  3.7387  1.0066 -1.0726
 1515SOL     OW 6312   0.729   6.601   7.351  0.0516  0.1043  0.5723
 1515SOL    HW1 6313   0.814   6.609   7.395  0.9014 -2.6716 -0.3816
 1515SOL    HW2 6314   0.696   6.514   7.377 -1.7921  0.4828 -0.3007
 1516SOL     OW 6315   5.177   0.331   2.172 -0.1025 -0.3096 -0.1579
 1516SOL    HW1 6316   5.114   0.325   2.101 -0.4613  0.1841  0.1064
 1516SOL    HW2 6317   5.225   0.248   2.170 -1.2844 -1.0244  0.1161
 1517SOL     OW 6318   2.686   3.337   6.990 -0.0221 -0.5199 -0.3769
 1517SOL    HW1 6319   2.663   3.247   7.016 -0.6763 -0.0749  0.6327
 1517SOL    HW2 6320   2.602   3.382   6.985  0.3860  0.3157  0.1655
 1518SOL     OW 6321   5.398   8.650   0.845 -0.1413 -0.1813 -0.2241
 1518SOL    HW1 6322   5.432   8.674   0.931  0.7216  0.9419 -0.8519
 1518SOL    HW2 6323   5.471   8.606   0.801 -1.0160 -2.0850  0.0993
 1519SOL     OW 6324   0.651   8.687   0.848 -0.0462 -0.0818  0.4267
 1519SOL    HW1 6325   0.572   8.644   0.815 -1.7572  0.6999  3.1177
 1519SOL    HW2 6326   0.669   8.643   0.931  2.7079 -0.5528 -0.3279
 1520SOL     OW 6327   1.651   4.847   4.714  0.2840 -0.1301 -0.1801
 1520SOL    HW1 6328   1.590   4.794   4.663  2.2484 -1.2251 -1.5413
 1520SOL    HW2 6329   1.701   4.896   4.648  0.3668  1.3209  0.9244
 1521SOL     OW 6330   3.818   1.374   1.064  0.3384 -1.0432  0.6300
 1521SOL    HW1 6331   3.743   1.397   1.118  0.5978 -1.2456  1.0770
 1521SOL    HW2 6332   3.789   1.300   1.011  0.1213 -0.9137  0.5671
 1522SOL     OW 6333   7.966   7.838   1.767 -0.2238  0.7272 -0.4524
 1522SOL    HW1 6334   7.964   7.848   1.862 -0.3503  0.2643 -0.4062
 1522SOL    HW2 6335   7.949   7.745   1.752 -0.4349  0.8394 -0.9361
 1523SOL     OW 6336   4.196   2.054   6.009 -0.0497  0.2118 -0.0054
 1523SOL    HW1 6337   4.267   2.070   6.071 -1.3674 -0.2356  1.6988
 1523SOL    HW2 6338   4.130   2.120   6.031 -0.8155 -0.3832 -0.4908
 1524SOL     OW 6339   5.987   0.079   8.327 -0.4738 -0.0405 -0.1660
 1524SOL    HW1 6340   5.901   0.044   8.303 -1.3101  1.9838 -0.3690
 1524SOL    HW2 6341   5.973   0.174   8.332  1.8189  0.3701 -0.4933
 1525SOL     OW 6342   7.421   2.840   8.478 -0.1874 -0.0616 -0.0617
 1525SOL    HW1 6343   7.361   2.771   8.507 -0.1399 -0.5316 -1.0341
 1525SOL    HW2 6344   7.364   2.908   8.442 -0.3169  1.0294  2.0805
 1526SOL     OW 6345   7.720   9.531   5.617 -0.0803  0.9346 -0.2704
 1526SOL    HW1 6346   7.764   9.553   5.699 -0.6185  1.2501 -0.0633
 1526SOL    HW2 6347   7.629   9.557   5.631 -0.0812  1.4116 -1.1304
 1527SOL     OW 6348   5.142   9.563   3.800 -0.2014 -0.0540 -0.5985
 1527SOL    HW1 6349   5.055   9.560   3.760 -1.5538 -2.1317  2.1401
 1527SOL    HW2 6350   5.199   9.520   3.736 -1.5494 -0.3476 -1.6656
 1528SOL     OW 6351   5.792   0.143   5.434 -0.8842  0.2635  0.5083
 1528SOL    HW1 6352   5.819   0.201   5.362  0.4457 -0.4271  0.4161
 1528SOL    HW2 6353   5.868   0.087   5.449 -0.8783  0.7922  2.8760
 1529SOL     OW 6354   1.769   4.388   7.706  0.0854  0.5810  0.0160
 1529SOL    HW1 6355   1.724   4.303   7.710  1.4686 -0.1422  1.9771
 1529SOL    HW2 6356   1.840   4.375   7.643  0.2370  0.3054  0.2413
 1530SOL     OW 6357   4.550   7.021   4.469  0.1365 -0.1102 -0.0987
 1530SOL    HW1 6358   4.545   7.113   4.445 -0.7300  0.2090  1.1911
 1530SOL    HW2 6359   4.640   7.010   4.501  0.3638  0.1745 -0.6228
 1531SOL     OW 6360   2.363   8.158   4.007  0.4797 -0.0416 -0.2857
 1531SOL    HW1 6361   2.378   8.063   4.000  1.1367  0.0740 -0.4703
 1531SOL    HW2 6362   2.289   8.165   4.068  1.3344 -0.6162  0.8714
 1532SOL     OW 6363   8.354   3.492   9.470  0.2369 -0.2547  0.7009
 1532SOL    HW1 6364   8.449   3.494   9.466  0.2447  0.8637  0.9536
 1532SOL    HW2 6365   8.328   3.584   9.459 -0.8518 -0.6513 -0.1908
 1533SOL     OW 6366   0.176   7.974   0.699  0.2031  0.4214 -0.2104
 1533SOL    HW1 6367   0.232   8.046   0.671  0.4654  0.3499  0.1280
 1533SOL    HW2 6368   0.210   7.898   0.652 -0.7810  0.7056 -1.4581
 1534SOL     OW 6369   3.450   0.284   4.682 -0.8238 -0.1296  0.0118
 1534SOL    HW1 6370   3.534   0.323   4.659 -0.9752  1.5648  1.9716
 1534SOL    HW2 6371   3.469   0.191   4.692  0.9658  0.2748  0.8637
 1535SOL     OW 6372   6.567   3.185   1.417 -0.2012 -0.1091 -0.1651
 1535SOL    HW1 6373   6.526   3.155   1.337  2.0328 -2.4843 -0.5857
 1535SOL    HW2 6374   6.501   3.173   1.485 -1.3163 -0.3849 -1.2818
 1536SOL     OW 6375   0.255   2.719   5.567 -0.0679  0.3223 -0.4040
 1536SOL    HW1 6376   0.180   2.682   5.519  0.0320 -0.4838  0.0468
 1536SOL    HW2 6377   0.265   2.806   5.530 -0.7215  0.1441 -1.0475
 1537SOL     OW 6378   1.413   5.777   5.642 -0.0431 -0.3740 -0.4739
 1537SOL    HW1 6379   1.488   5.734   5.682  1.4132  1.3394 -1.1831
 1537SOL    HW2 6380   1.337   5.724   5.666  1.3691 -2.0233  0.4743
 1538SOL     OW 6381   3.290   4.101   2.025  0.5671 -0.1618  0.0680
 1538SOL    HW1 6382   3.229   4.140   1.963 -0.5094 -1.1270  0.4737
 1538SOL    HW2 6383   3.269   4.008   2.024  2.2173 -0.5661  0.0489
 1539SOL     OW 6384   0.618   5.793   8.747  0.0762  0.4411  0.6951
 1539SOL    HW1 6385   0.657   5.756   8.826  0.1976 -0.3661  0.2660
 1539SOL    HW2 6386   0.681   5.776   8.677 -0.3541  0.4924  0.2845
 1540SOL     OW 6387   3.330   0.764   1.914 -0.1044 -0.5126 -0.2624
 1540SOL    HW1 6388   3.252   0.804   1.954  0.1518  0.9140 -1.1102
 1540SOL    HW2 6389   3.330   0.674   1.946 -1.4448 -0.2038  0.6994
 1541SOL     OW 6390   7.863   6.547   0.386 -0.5875 -0.3458 -0.3592
 1541SOL    HW1 6391   7.776   6.538   0.348 -0.8962 -0.4020  0.3382
 1541SOL    HW2 6392   7.903   6.461   0.374 -1.6430 -1.2106  1.7081
 1542SOL     OW 6393   8.267   0.565   1.711  1.0528  0.1951 -0.5847
 1542SOL    HW1 6394   8.336   0.629   1.698  0.3750  0.7383 -1.6520
 1542SOL    HW2 6395   8.211   0.603   1.779  2.0378 -0.4726  0.6404
 1543SOL     OW 6396   0.666   6.241   9.196  0.2981  0.5055 -0.5048
 1543SOL    HW1 6397   0.591   6.193   9.230  0.7028  0.3272  0.1541
 1543SOL    HW2 6398   0.632   6.287   9.119  0.1258 -1.5415 -1.7265
 1544SOL     OW 6399   6.601   2.652   1.491  0.2178  0.5318  0.1944
 1544SOL    HW1 6400   6.696   2.654   1.482  0.4548  0.6082  2.3136
 1544SOL    HW2 6401   6.585   2.601   1.570 -1.5892 -0.4760 -0.7570
 1545SOL     OW 6402   0.287   3.261   8.436 -0.3528 -0.3139  0.0988
 1545SOL    HW1 6403   0.230   3.208   8.492 -1.5244 -0.4943 -1.1866
 1545SOL    HW2 6404   0.358   3.201   8.411 -2.1813 -1.7529 -2.1542
 1546SOL     OW 6405   0.055   7.447   2.684 -0.1301 -0.0855 -0.2732
 1546SOL    HW1 6406  -0.021   7.504   2.694 -0.5648 -0.8914  1.3668
 1546SOL    HW2 6407   0.122   7.502   2.645 -0.7890  1.3285  0.5282
 1547SOL     OW 6408   1.804   4.831   0.383  0.4019  0.1487 -0.0167
 1547SOL    HW1 6409   1.875   4.772   0.356 -0.9482 -1.2008 -0.8208
 1547SOL    HW2 6410   1.801   4.898   0.315 -0.5959 -1.1530 -1.3217
 1548SOL     OW 6411   9.560   0.558   6.988  0.1538 -0.4283 -0.0887
 1548SOL    HW1 6412   9.587   0.484   6.933  1.4216 -0.6717  0.8198
 1548SOL    HW2 6413   9.568   0.526   7.077  1.3900  1.0002  0.3579
 1549SOL     OW 6414   2.513   1.696   4.032  0.1687 -0.1053 -0.3936
 1549SOL    HW1 6415   2.480   1.630   4.093 -0.9018 -0.5622 -1.4148
 1549SOL    HW2 6416   2.544   1.767   4.087 -0.5570 -0.6102  0.6916
 1550SOL     OW 6417   8.121   4.356   1.233 -0.2323  0.4113  0.0653
 1550SOL    HW1 6418   8.161   4.302   1.300 -2.4620 -0.9590  0.4160
 1550SOL    HW2 6419   8.167   4.334   1.152  3.7108  3.3718  1.2156
 1551SOL     OW 6420   2.557   3.633   7.192 -0.0312  0.1219  0.6558
 1551SOL    HW1 6421   2.643   3.627   7.232 -0.2540  0.3643  1.1891
 1551SOL    HW2 6422   2.570   3.688   7.114  0.2969  0.1516  0.7329
 1552SOL     OW 6423   0.644   6.200   5.040  0.3166 -0.2805 -0.1894
 1552SOL    HW1 6424   0.579   6.267   5.061  0.7807  0.2295 -0.3491
 1552SOL    HW2 6425   0.721   6.225   5.090 -0.3387 -2.2515  1.9665
 1553SOL     OW 6426   6.985   0.627   4.204  0.1384 -0.2070 -0.1397
 1553SOL    HW1 6427   6.917   0.651   4.140  0.4167 -0.6611 -0.6186
 1553SOL    HW2 6428   7.067   0.645   4.159  0.3388 -0.7650 -0.0064
 1554SOL     OW 6429   3.901   3.488   2.554  0.1545  0.2603 -0.1699
 1554SOL    HW1 6430   3.825   3.458   2.503 -0.1077  0.7439 -0.0728
 1554SOL    HW2 6431   3.931   3.410   2.600 -0.3515  0.0842 -0.1320
 1555SOL     OW 6432   9.305   8.767   1.812  0.3958  0.4134  0.0295
 1555SOL    HW1 6433   9.304   8.705   1.885  0.4475 -1.4262 -1.4501
 1555SOL    HW2 6434   9.231   8.825   1.829 -0.6973 -1.0896  0.6341
 1556SOL     OW 6435   0.803   9.434   1.641 -0.7458 -0.5303 -0.3392
 1556SOL    HW1 6436   0.832   9.515   1.682  2.0082 -1.0664 -1.0661
 1556SOL    HW2 6437   0.814   9.366   1.708  0.8962 -0.9237 -0.9726
 1557SOL     OW 6438   5.368   5.023   4.197 -0.1632  0.1118 -0.6838
 1557SOL    HW1 6439   5.398   4.936   4.220 -1.7273 -0.5312 -0.9478
 1557SOL    HW2 6440   5.390   5.032   4.104 -0.0517 -0.0107 -0.6694
 1558SOL     OW 6441   3.412   1.461   2.821  0.3276  0.8920 -0.3597
 1558SOL    HW1 6442   3.410   1.436   2.913  0.1742 -1.0002 -0.8410
 1558SOL    HW2 6443   3.403   1.379   2.773  0.6510  1.8012 -2.0762
 1559SOL     OW 6444   5.012   7.710   0.065 -0.3334 -0.2953 -0.4831
 1559SOL    HW1 6445   5.082   7.691   0.003  0.2866 -0.0465  0.1298
 1559SOL    HW2 6446   4.933   7.715   0.011 -0.0140 -1.3449 -1.0822
 1560SOL     OW 6447   5.408   4.291   9.593 -0.1815 -0.2604 -0.2599
 1560SOL    HW1 6448   5.382   4.372   9.548  0.4188  0.7124  1.0861
 1560SOL    HW2 6449   5.353   4.289   9.671 -0.9135 -1.7179 -0.7720
 1561SOL     OW 6450   6.379   3.789   8.289  0.1358 -0.1066 -0.3280
 1561SOL    HW1 6451   6.439   3.812   8.360  0.7952 -0.2868 -0.8196
 1561SOL    HW2 6452   6.365   3.871   8.242 -0.1788 -0.0206 -0.0935
 1562SOL     OW 6453   7.173   5.699   9.386 -0.7663 -0.2318 -0.3251
 1562SOL    HW1 6454   7.268   5.690   9.396 -0.6450  0.0537 -1.1493
 1562SOL    HW2 6455   7.160   5.718   9.293 -1.6073  0.0728 -0.1578
 1563SOL     OW 6456   1.172   7.901   6.723  0.1079 -0.0032 -0.0904
 1563SOL    HW1 6457   1.242   7.835   6.720  0.2030  0.1130 -0.5459
 1563SOL    HW2 6458   1.091   7.850   6.730  0.2858 -0.1169  1.6259
 1564SOL     OW 6459   5.420   6.490   1.824 -0.2524  0.3713  0.5084
 1564SOL    HW1 6460   5.487   6.428   1.855  0.3699 -0.6040 -2.3738
 1564SOL    HW2 6461   5.463   6.575   1.827  0.4790  0.0163  0.4695
 1565SOL     OW 6462   7.124   9.354   4.957 -0.4715  0.2642  0.0196
 1565SOL    HW1 6463   7.137   9.268   4.997  0.3068  0.1291 -0.4808
 1565SOL    HW2 6464   7.161   9.344   4.869  1.8553  1.7548  0.7215
 1566SOL     OW 6465   2.242   4.909   1.981  0.2544  0.0004 -0.0596
 1566SOL    HW1 6466   2.250   4.998   1.944 -1.5249 -0.7447 -2.5137
 1566SOL    HW2 6467   2.323   4.896   2.030  1.7799  2.0301 -1.8246
 1567SOL     OW 6468   6.772   5.876   1.249 -0.1138 -0.1495 -0.5435
 1567SOL    HW1 6469   6.696   5.883   1.191 -0.0955 -0.6826 -0.6386
 1567SOL    HW2 6470   6.819   5.959   1.237 -0.7088  0.2140 -0.4331
 1568SOL     OW 6471   5.496   5.710   3.707 -0.0952  0.4371  0.1481
 1568SOL    HW1 6472   5.457   5.675   3.627 -0.9768  2.2904 -0.2840
 1568SOL    HW2 6473   5.548   5.637   3.741 -2.3750 -1.5425 -0.2720
 1569SOL     OW 6474   0.574   1.498   1.106 -0.2113  0.7401  0.0977
 1569SOL    HW1 6475   0.661   1.535   1.121  0.0332  0.9896 -1.6431
 1569SOL    HW2 6476   0.567   1.425   1.168  1.1795  0.8114  0.3703
 1570SOL     OW 6477   0.900   0.512   3.349  0.9259 -0.1375 -0.0906
 1570SOL    HW1 6478   0.980   0.542   3.305  1.7750  0.3041  1.6865
 1570SOL    HW2 6479   0.893   0.420   3.323  1.6096  0.0061 -0.8478
 1571SOL     OW 6480   8.928   3.287   0.428  0.1637  0.3672  0.1370
 1571SOL    HW1 6481   8.955   3.273   0.518  1.1458  2.5462  0.2437
 1571SOL    HW2 6482   8.880   3.370   0.430  0.4510  0.6004 -1.3783
 1572SOL     OW 6483   9.802   4.212   5.139  0.5070 -0.0244  0.2312
 1572SOL    HW1 6484   9.845   4.257   5.066 -0.9308  0.9853 -0.0303
 1572SOL    HW2 6485   9.716   4.188   5.106 -0.3881  0.9581  1.7316
 1573SOL     OW 6486   1.315   2.560   4.991 -0.4664 -0.2784  0.1411
 1573SOL    HW1 6487   1.380   2.611   4.943 -0.4073 -0.6873 -0.2258
 1573SOL    HW2 6488   1.352   2.552   5.080  0.3687 -1.1605 -0.2646
 1574SOL     OW 6489   5.022   8.528   1.818 -0.2547  0.0399 -0.1342
 1574SOL    HW1 6490   5.022   8.578   1.900  0.6737  1.4610 -0.9708
 1574SOL    HW2 6491   5.076   8.452   1.837  0.6903  0.8056  0.3367
 1575SOL     OW 6492   8.524   5.767   5.602  0.2213 -0.4556  0.0546
 1575SOL    HW1 6493   8.535   5.858   5.574 -0.5108 -0.3384  0.1298
 1575SOL    HW2 6494   8.601   5.748   5.655 -0.4266  0.6634  1.4528
 1576SOL     OW 6495   2.936   7.712   2.006  0.2522  0.3567  0.1679
 1576SOL    HW1 6496   2.986   7.781   1.962  1.1318 -0.5848 -0.3277
 1576SOL    HW2 6497   2.901   7.659   1.935  1.5740 -1.1031  0.5651
 1577SOL     OW 6498   7.323   3.613   3.741 -0.0076  0.0590 -0.9603
 1577SOL    HW1 6499   7.379   3.690   3.732  1.8012 -1.0922 -0.2297
 1577SOL    HW2 6500   7.362   3.548   3.682 -1.0338 -0.5430 -0.9951
 1578SOL     OW 6501   0.122   6.869   0.470 -0.0413  0.4383  0.0481
 1578SOL    HW1 6502   0.190   6.933   0.449  0.6666 -0.6369 -1.1345
 1578SOL    HW2 6503   0.040   6.920   0.470  0.6834  1.6721  1.0777
 1579SOL     OW 6504   9.049   3.693   7.267 -0.6347  0.6517  0.0328
 1579SOL    HW1 6505   8.972   3.640   7.289 -0.1747  0.8890  2.5926
 1579SOL    HW2 6506   9.014   3.781   7.253 -0.9709  0.4746 -0.2672
 1580SOL     OW 6507   7.049   9.276   6.425  0.4181 -0.5699  0.0127
 1580SOL    HW1 6508   7.015   9.224   6.352 -0.1745 -0.0476 -0.0967
 1580SOL    HW2 6509   7.084   9.355   6.384  2.7487 -1.5242  0.0151
 1581SOL     OW 6510   7.750   5.244   2.694 -0.4715 -0.3448  0.3424
 1581SOL    HW1 6511   7.663   5.241   2.655 -0.1459  2.2836 -0.8646
 1581SOL    HW2 6512   7.785   5.329   2.667  2.7747 -1.5820  0.1599
 1582SOL     OW 6513   9.529   6.521   9.704 -0.0402 -0.1528  0.0154
 1582SOL    HW1 6514   9.469   6.530   9.629 -0.2612  0.2732  0.2390
 1582SOL    HW2 6515   9.541   6.427   9.713  2.8935 -0.2317 -2.8428
 1583SOL     OW 6516   7.909   6.265   0.398 -0.8664 -0.1574 -0.2426
 1583SOL    HW1 6517   7.962   6.296   0.325 -0.4043  1.1064  0.6074
 1583SOL    HW2 6518   7.894   6.172   0.379 -1.9142  0.4332 -2.6141
 1584SOL     OW 6519   5.588   0.937   1.651  0.0494  0.0620  0.3580
 1584SOL    HW1 6520   5.613   1.018   1.606  1.0531  1.1710  2.7302
 1584SOL    HW2 6521   5.560   0.966   1.738  1.0730 -2.1615  1.5093
 1585SOL     OW 6522   1.963   2.455   5.782  0.6333  0.3133  0.4460
 1585SOL    HW1 6523   2.045   2.469   5.735  0.1230 -0.6704 -0.8070
 1585SOL    HW2 6524   1.895   2.468   5.715 -0.2718  1.6403  1.5807
 1586SOL     OW 6525   9.242   8.101   4.242 -0.2356  0.3804 -0.7178
 1586SOL    HW1 6526   9.257   8.009   4.264  0.8034  0.5093 -0.8254
 1586SOL    HW2 6527   9.241   8.103   4.146 -1.0896  0.3685 -0.7191
 1587SOL     OW 6528   7.279   8.029   2.341  0.4864  0.3471 -0.2925
 1587SOL    HW1 6529   7.231   8.111   2.333 -0.1099 -0.0506 -0.8526
 1587SOL    HW2 6530   7.288   8.016   2.435 -0.3432  0.5170 -0.1856
 1588SOL     OW 6531   3.178   4.023   1.014 -0.2180 -0.2710 -0.3705
 1588SOL    HW1 6532   3.251   4.045   1.071 -2.2740  2.7773  1.3703
 1588SOL    HW2 6533   3.153   3.934   1.040  1.1063 -0.3042  0.9459
 1589SOL     OW 6534   3.345   2.989   8.939  0.5636 -0.3122  0.1532
 1589SOL    HW1 6535   3.341   2.945   9.024  2.3040  1.7425  1.4390
 1589SOL    HW2 6536   3.418   2.946   8.893  1.8799  0.7259  1.1664
 1590SOL     OW 6537   0.255   3.101   3.376  0.3226  0.2327  0.5744
 1590SOL    HW1 6538   0.343   3.138   3.365  0.9357 -1.4963 -0.8021
 1590SOL    HW2 6539   0.258   3.056   3.460  1.1967 -0.8832 -0.0313
 1591SOL     OW 6540   7.455   1.894   4.638 -0.5674 -0.1826 -0.7634
 1591SOL    HW1 6541   7.401   1.915   4.714 -0.2118  0.0184 -0.5607
 1591SOL    HW2 6542   7.503   1.815   4.663  2.3727  1.9037  0.7377
 1592SOL     OW 6543   8.358   1.916   2.791 -0.2482  0.8129 -0.2605
 1592SOL    HW1 6544   8.280   1.971   2.781 -1.1594 -0.5956 -1.3698
 1592SOL    HW2 6545   8.325   1.836   2.832  0.4307 -0.1320 -1.4897
 1593SOL     OW 6546   7.078   6.191   9.604  0.4933  0.0704 -0.2204
 1593SOL    HW1 6547   7.120   6.233   9.679  1.2429 -0.1367 -0.5149
 1593SOL    HW2 6548   7.057   6.264   9.545 -0.0093  0.2234  0.1449
 1594SOL     OW 6549   1.342   8.039   2.338 -0.0476 -0.2409  0.4309
 1594SOL    HW1 6550   1.426   8.039   2.384 -0.4074 -1.8830  1.1979
 1594SOL    HW2 6551   1.283   8.087   2.396  0.5171  1.6291 -0.4943
 1595SOL     OW 6552   9.402   8.174   4.748  0.4347 -0.0379  0.6187
 1595SOL    HW1 6553   9.428   8.098   4.697 -0.0251  0.7095 -0.8170
 1595SOL    HW2 6554   9.479   8.231   4.748 -0.6629  1.8157 -2.9439
 1596SOL     OW 6555   3.807   2.970   1.940  0.0100 -0.0197  0.5243
 1596SOL    HW1 6556   3.750   2.894   1.947  0.1470 -0.3151 -1.1940
 1596SOL    HW2 6557   3.777   3.016   1.862  1.4490  0.3616  0.1485
 1597SOL     OW 6558   4.099   9.553   8.663  0.1894  0.5066  0.4789
 1597SOL    HW1 6559   4.170   9.590   8.612 -0.2017 -0.1572 -0.5722
 1597SOL    HW2 6560   4.053   9.494   8.603  0.8725 -1.8302  2.1121
 1598SOL     OW 6561   0.005   3.914   9.105  0.0411  0.0965  0.1122
 1598SOL    HW1 6562  -0.066   3.861   9.070  0.6748 -1.3050  0.8672
 1598SOL    HW2 6563  -0.029   3.948   9.188 -0.1911  0.5013 -0.1431
 1599SOL     OW 6564   3.840   5.715   3.393 -0.5056  0.5714 -0.2921
 1599SOL    HW1 6565   3.925   5.670   3.396 -0.4027  0.7802 -0.0264
 1599SOL    HW2 6566   3.862   5.807   3.407 -0.6254  0.8336 -1.6623
 1600SOL     OW 6567   1.947   4.221   4.364 -0.4484  0.1546  0.4421
 1600SOL    HW1 6568   1.857   4.210   4.333 -0.2992 -1.2307  0.4266
 1600SOL    HW2 6569   1.940   4.221   4.459 -0.3452 -1.6128  0.4918
 1601SOL     OW 6570   2.180   0.992   8.328 -0.3622  0.1834 -0.3553
 1601SOL    HW1 6571   2.271   1.018   8.312 -0.5789 -0.1913 -2.6415
 1601SOL    HW2 6572   2.133   1.074   8.339  0.3715  0.3505  1.8720
 1602SOL     OW 6573   2.262   5.905   2.069  0.2731  0.5501 -0.1235
 1602SOL    HW1 6574   2.311   5.985   2.087  1.6293 -0.2481 -0.1152
 1602SOL    HW2 6575   2.253   5.862   2.154  0.7610  0.0411 -0.3198
 1603SOL     OW 6576   7.452   5.246   4.540  0.2889  0.5531 -0.1822
 1603SOL    HW1 6577   7.442   5.175   4.604 -0.1189 -0.8052 -1.6892
 1603SOL    HW2 6578   7.539   5.233   4.503 -0.4130 -0.2121 -1.6353
 1604SOL     OW 6579   8.598   8.323   4.316  0.2637  0.3478  0.4843
 1604SOL    HW1 6580   8.505   8.334   4.295  0.1372 -1.0909  0.1879
 1604SOL    HW2 6581   8.612   8.375   4.395 -0.8978  0.2041  0.7910
 1605SOL     OW 6582   6.401   3.285   6.745  1.3289  0.4816 -0.0432
 1605SOL    HW1 6583   6.430   3.243   6.826  0.4653  1.3237  0.7196
 1605SOL    HW2 6584   6.344   3.355   6.773 -1.5325 -1.1136 -1.4547
 1606SOL     OW 6585   6.794   5.302   6.175  0.3619 -0.2831  0.0112
 1606SOL    HW1 6586   6.758   5.216   6.195  0.2206 -0.6929 -1.8206
 1606SOL    HW2 6587   6.739   5.363   6.225 -1.2659 -1.0752 -0.7192
 1607SOL     OW 6588   3.165   8.547   0.116 -0.3064  0.3582 -0.5763
 1607SOL    HW1 6589   3.122   8.614   0.170  0.1030 -1.4878  2.2108
 1607SOL    HW2 6590   3.097   8.481   0.102  0.6272 -1.0935  1.2368
 1608SOL     OW 6591   2.477   4.260   9.719 -0.0637 -0.6404 -0.8818
 1608SOL    HW1 6592   2.499   4.194   9.784  0.4323  0.0391 -0.3526
 1608SOL    HW2 6593   2.549   4.323   9.722 -1.1639  0.6630 -0.3933
 1609SOL     OW 6594   1.299   8.379   7.381 -0.1703  0.4250 -0.5966
 1609SOL    HW1 6595   1.331   8.313   7.443  0.0079  0.5458 -0.5592
 1609SOL    HW2 6596   1.378   8.427   7.355 -0.5642  2.0536  1.0384
 1610SOL     OW 6597   8.547   2.686   2.595  1.0105  0.0133  0.2987
 1610SOL    HW1 6598   8.478   2.743   2.561 -0.7954 -1.2923  1.5709
 1610SOL    HW2 6599   8.620   2.745   2.613  0.5320  1.3391 -1.7874
 1611SOL     OW 6600   8.767   4.255   3.104  0.6771  0.4442  0.1474
 1611SOL    HW1 6601   8.674   4.236   3.117  0.6839 -0.4953 -0.9293
 1611SOL    HW2 6602   8.769   4.343   3.067  0.1820  0.3176 -0.1921
 1612SOL     OW 6603   4.003   7.491   8.733  0.3400  0.6641  0.2428
 1612SOL    HW1 6604   4.074   7.429   8.717 -0.3002  0.0985 -0.4996
 1612SOL    HW2 6605   3.957   7.455   8.809  0.5846  0.7948  0.4546
 1613SOL     OW 6606   4.239   0.430   1.247 -0.1068 -0.0070 -0.2088
 1613SOL    HW1 6607   4.314   0.370   1.238 -0.3597 -0.2729 -0.5831
 1613SOL    HW2 6608   4.168   0.375   1.280 -0.4662 -0.0248 -0.9716
 1614SOL     OW 6609   1.895   9.448   0.389 -0.8498 -0.6947 -0.2899
 1614SOL    HW1 6610   1.910   9.386   0.460 -0.6358 -0.6427 -0.2878
 1614SOL    HW2 6611   1.940   9.528   0.417 -0.7575 -0.6776 -0.4877
 1615SOL     OW 6612   4.148   6.555   4.973  0.2185  0.1963 -0.2813
 1615SOL    HW1 6613   4.101   6.559   4.889 -0.6455 -0.1372  0.1675
 1615SOL    HW2 6614   4.234   6.592   4.954 -0.3453  1.1740 -1.0628
 1616SOL     OW 6615   2.033   1.267   2.376  0.2491 -0.5724 -0.4154
 1616SOL    HW1 6616   2.088   1.320   2.434  1.7658 -1.0529 -1.3436
 1616SOL    HW2 6617   1.954   1.319   2.362  2.2268  2.1882 -2.3908
 1617SOL     OW 6618   8.222   2.967   8.391 -0.3100 -0.2377 -0.2328
 1617SOL    HW1 6619   8.165   2.970   8.314 -0.1497 -0.8014 -0.3788
 1617SOL    HW2 6620   8.246   3.058   8.406  1.8341 -0.3078 -2.4982
 1618SOL     OW 6621   8.289   6.820   5.959  0.4400 -0.2898  0.5102
 1618SOL    HW1 6622   8.352   6.816   5.886  2.9229  2.1376  2.3385
 1618SOL    HW2 6623   8.219   6.761   5.932  2.2210 -1.1492 -2.8777
 1619SOL     OW 6624   7.545   1.455   7.695 -0.1449 -0.3651 -0.3178
 1619SOL    HW1 6625   7.627   1.416   7.726  0.5180  0.4353 -1.0058
 1619SOL    HW2 6626   7.481   1.384   7.703  1.2498 -2.0874 -2.6814
 1620SOL     OW 6627   4.086   0.681   7.924 -0.1442  0.3635 -0.0419
 1620SOL    HW1 6628   4.178   0.702   7.907  0.0708 -1.1950 -0.9978
 1620SOL    HW2 6629   4.038   0.760   7.897  0.7783  0.5432 -1.2454
 1621SOL     OW 6630   0.300   7.465   7.797 -0.2355 -0.0055  0.4153
 1621SOL    HW1 6631   0.360   7.427   7.861  0.1879 -0.7070 -0.3852
 1621SOL    HW2 6632   0.343   7.546   7.770 -0.1598  0.0246  0.6183
 1622SOL     OW 6633   6.787   4.650   3.032 -0.5673  0.0678 -0.7871
 1622SOL    HW1 6634   6.699   4.670   3.000 -0.8163 -1.5039 -1.2051
 1622SOL    HW2 6635   6.836   4.731   3.021 -2.2680  1.3630  0.6233
 1623SOL     OW 6636   3.685   0.699   8.471  0.1384 -0.7410 -0.0090
 1623SOL    HW1 6637   3.738   0.751   8.411  0.6213 -0.6557  0.4760
 1623SOL    HW2 6638   3.645   0.631   8.417 -0.8222  0.3591 -0.7376
 1624SOL     OW 6639   7.434   7.509   7.599 -0.5419 -0.1951  0.4982
 1624SOL    HW1 6640   7.497   7.462   7.543  2.4735  1.1519  2.4952
 1624SOL    HW2 6641   7.386   7.439   7.644  0.1876 -1.3028 -0.3825
 1625SOL     OW 6642   6.009   0.356   2.679 -0.4244 -0.2605  0.2585
 1625SOL    HW1 6643   5.937   0.408   2.644  1.5235  1.7202 -1.0222
 1625SOL    HW2 6644   6.003   0.272   2.633 -1.7762 -0.0785  0.0676
 1626SOL     OW 6645   2.190   5.308   8.372 -0.5217 -0.0959  0.3271
 1626SOL    HW1 6646   2.095   5.294   8.374 -0.3408 -1.5047 -0.1487
 1626SOL    HW2 6647   2.217   5.301   8.463 -0.4574 -3.0426  0.1618
 1627SOL     OW 6648   3.712   6.025   2.172  0.0068  0.0434 -0.0841
 1627SOL    HW1 6649   3.667   6.016   2.256 -1.3538  1.4397 -0.6011
 1627SOL    HW2 6650   3.796   5.983   2.185 -0.9183 -1.4721  1.3749
 1628SOL     OW 6651   1.082   1.841   7.572 -0.2128  0.4121 -0.2963
 1628SOL    HW1 6652   1.150   1.779   7.598  0.5089  1.3088  0.0248
 1628SOL    HW2 6653   1.070   1.897   7.648 -0.5420  0.9307 -0.7192
 1629SOL     OW 6654   6.189   4.582   5.490  0.5922  0.1451  0.2899
 1629SOL    HW1 6655   6.141   4.580   5.407  0.9031  1.7373  0.0503
 1629SOL    HW2 6656   6.253   4.652   5.479  1.5036 -0.4756  1.4221
 1630SOL     OW 6657   7.503   9.318   3.079  0.0324 -0.3940 -0.3050
 1630SOL    HW1 6658   7.490   9.240   3.026 -0.2255  0.0839 -0.9585
 1630SOL    HW2 6659   7.572   9.367   3.035  1.1728 -0.8859  0.8484
 1631SOL     OW 6660   8.189   8.865   3.561  0.1011  0.5125  0.7228
 1631SOL    HW1 6661   8.275   8.844   3.527 -0.4466 -1.2334  0.3300
 1631SOL    HW2 6662   8.150   8.922   3.494 -0.8562 -2.6353 -1.6778
 1632SOL     OW 6663   7.742   8.857   9.373  0.3745 -0.2773  0.1868
 1632SOL    HW1 6664   7.661   8.865   9.324  0.9864 -1.1927 -1.0291
 1632SOL    HW2 6665   7.758   8.763   9.379  0.2959 -0.2087  2.2279
 1633SOL     OW 6666   5.939   8.496   4.789  0.0056  0.0662 -0.8289
 1633SOL    HW1 6667   5.892   8.568   4.831  1.0406  0.0691  0.3615
 1633SOL    HW2 6668   5.895   8.417   4.821 -0.3598  0.1186 -1.1885
 1634SOL     OW 6669   6.029   7.155   0.896 -0.1245 -0.7620  0.1810
 1634SOL    HW1 6670   6.028   7.157   0.801 -0.0789 -2.5127  0.1165
 1634SOL    HW2 6671   6.122   7.149   0.919 -0.1646 -0.9367  0.3020
 1635SOL     OW 6672   4.375   4.990   0.807  0.3940  0.5872  0.1498
 1635SOL    HW1 6673   4.423   4.985   0.890  2.0496 -1.3242 -0.8480
 1635SOL    HW2 6674   4.426   5.051   0.753  0.3736  0.3756 -0.1087
 1636SOL     OW 6675   7.463   1.431   8.702  0.0228 -0.0669  0.0380
 1636SOL    HW1 6676   7.373   1.404   8.716 -0.2174  0.6887 -0.0200
 1636SOL    HW2 6677   7.494   1.457   8.788 -0.1846  0.7751 -0.1390
 1637SOL     OW 6678   7.015   5.710   3.324 -0.3103  0.0374  0.0531
 1637SOL    HW1 6679   6.961   5.664   3.389 -0.3923 -0.0931 -0.1057
 1637SOL    HW2 6680   7.012   5.653   3.247  0.6743 -0.3556  0.2886
 1638SOL     OW 6681   2.976   5.592   0.453  0.5860 -0.2216 -0.3330
 1638SOL    HW1 6682   2.914   5.665   0.460 -0.0466 -0.5822 -1.8938
 1638SOL    HW2 6683   2.921   5.514   0.446  1.1055 -0.4470 -3.0115
 1639SOL     OW 6684   2.535   0.717   9.496  0.2102  0.2160  0.4193
 1639SOL    HW1 6685   2.591   0.765   9.557  2.5389 -1.4484 -0.2840
 1639SOL    HW2 6686   2.505   0.641   9.546 -1.6282  1.1583  0.8327
 1640SOL     OW 6687   1.020   1.509   9.392 -0.7383 -0.1542 -0.0074
 1640SOL    HW1 6688   0.991   1.599   9.373  1.2865  0.8508  1.3028
 1640SOL    HW2 6689   1.039   1.472   9.306  1.3759  1.7978 -0.4813
 1641SOL     OW 6690   0.512   9.355   0.691 -0.3744 -0.3751  0.3136
 1641SOL    HW1 6691   0.430   9.384   0.651 -0.3340 -3.2088 -2.1604
 1641SOL    HW2 6692   0.580   9.405   0.645 -0.5145 -1.1788 -0.7882
 1642SOL     OW 6693   2.968   5.432   4.884 -0.1587  0.1195  0.3754
 1642SOL    HW1 6694   2.973   5.453   4.791  1.1646 -0.9563  0.1636
 1642SOL    HW2 6695   2.972   5.516   4.929  0.2985  0.5815 -0.5187
 1643SOL     OW 6696   8.803   8.262   4.866  0.3529 -0.3885 -0.4150
 1643SOL    HW1 6697   8.861   8.280   4.792  0.4320  0.1146 -0.2327
 1643SOL    HW2 6698   8.719   8.239   4.826  0.1039  0.8824 -0.6522
 1644SOL     OW 6699   3.627   3.497   3.687 -0.0024 -0.2092  0.4699
 1644SOL    HW1 6700   3.652   3.406   3.674  0.1281 -0.0165 -0.7108
 1644SOL    HW2 6701   3.710   3.545   3.687 -0.0411 -0.1182  1.4664
 1645SOL     OW 6702   1.184   0.454   6.587  0.1333 -0.1917 -0.0607
 1645SOL    HW1 6703   1.207   0.503   6.666 -1.2355 -0.3957  0.4801
 1645SOL    HW2 6704   1.256   0.392   6.576  0.6196  0.2264  0.6915
 1646SOL     OW 6705   8.056   9.401   1.523  0.4913 -0.0907 -0.3944
 1646SOL    HW1 6706   8.064   9.443   1.608 -1.4675 -0.1751 -0.1335
 1646SOL    HW2 6707   8.081   9.310   1.538  2.1897  0.3468 -0.3966
 1647SOL     OW 6708   5.504   0.327   8.242  0.0558 -0.4116 -0.0542
 1647SOL    HW1 6709   5.581   0.275   8.220 -0.0174 -0.3406 -0.4870
 1647SOL    HW2 6710   5.470   0.357   8.158  0.2988  0.6345  0.1995
 1648SOL     OW 6711   9.783   4.017   3.761 -0.5583 -0.4300  0.0232
 1648SOL    HW1 6712   9.876   4.016   3.783 -0.6884 -0.5962  0.5682
 1648SOL    HW2 6713   9.751   4.102   3.792 -0.7249 -0.6348  0.4218
 1649SOL     OW 6714   9.277   0.220   1.986 -0.6596 -0.2621  0.8443
 1649SOL    HW1 6715   9.201   0.164   1.999 -0.7182 -0.6660 -0.9745
 1649SOL    HW2 6716   9.319   0.186   1.906 -0.2342  1.7386  0.1520
 1650SOL     OW 6717   4.803   3.979   9.529 -1.1129 -0.4272  0.2114
 1650SOL    HW1 6718   4.891   3.955   9.503 -0.8124  1.2885 -0.4859
 1650SOL    HW2 6719   4.808   4.073   9.548 -2.8447 -0.2291 -0.1438
 1651SOL     OW 6720   9.028   6.867   8.847 -0.2847 -0.5831 -0.6638
 1651SOL    HW1 6721   8.973   6.790   8.830  1.2595 -2.2258  1.1706
 1651SOL    HW2 6722   9.017   6.883   8.941  1.4817 -0.3022 -0.4722
 1652SOL     OW 6723   1.930   2.660   3.097  0.0727 -0.6539 -0.4447
 1652SOL    HW1 6724   1.896   2.612   3.172 -3.0121  0.4403 -0.9715
 1652SOL    HW2 6725   1.982   2.596   3.049  1.9097 -1.4623  2.3627
 1653SOL     OW 6726   6.289   8.516   2.143  0.1325  0.0477  0.2395
 1653SOL    HW1 6727   6.237   8.557   2.212 -0.0340  1.3560 -0.6410
 1653SOL    HW2 6728   6.374   8.499   2.184  0.9389  3.1956  0.1233
 1654SOL     OW 6729   4.803   8.031   4.235 -0.3728  0.3144  0.1316
 1654SOL    HW1 6730   4.817   7.962   4.171 -1.4250 -0.1151  0.3370
 1654SOL    HW2 6731   4.770   7.986   4.312  2.2140  0.6209  1.5528
 1655SOL     OW 6732   8.483   6.780   8.352  0.5279 -0.2904  0.5476
 1655SOL    HW1 6733   8.473   6.821   8.266  0.0607  0.8573  1.1303
 1655SOL    HW2 6734   8.555   6.827   8.393 -0.2579  0.2399  1.3711
 1656SOL     OW 6735   0.371   8.301   3.066 -0.2896 -0.6662  0.3565
 1656SOL    HW1 6736   0.282   8.293   3.031 -0.7218  2.1149  0.5913
 1656SOL    HW2 6737   0.362   8.283   3.159 -0.7914  0.4176  0.5283
 1657SOL     OW 6738   0.090   0.261   7.862 -0.1103  0.6989 -0.2148
 1657SOL    HW1 6739   0.111   0.183   7.810 -0.8150 -2.0096  3.2263
 1657SOL    HW2 6740   0.173   0.287   7.902 -0.1749  0.7083 -0.0869
 1658SOL     OW 6741   6.010   9.673   2.523 -0.4181  0.0688 -0.4059
 1658SOL    HW1 6742   5.970   9.673   2.610 -1.8019 -1.0801 -0.9885
 1658SOL    HW2 6743   6.010   9.581   2.497  0.0689  0.3789 -1.5910
 1659SOL     OW 6744   7.138   2.739   2.951  0.4327  0.1144  0.1281
 1659SOL    HW1 6745   7.093   2.683   2.888  2.4012  0.4260 -1.6474
 1659SOL    HW2 6746   7.182   2.678   3.010  2.0202 -0.2838 -1.3957
 1660SOL     OW 6747   7.392   8.967   9.801  0.2162 -0.3632 -0.2744
 1660SOL    HW1 6748   7.456   8.916   9.850  0.2488 -0.5167 -0.4756
 1660SOL    HW2 6749   7.404   9.057   9.833  1.2115 -0.2186 -1.0047
 1661SOL     OW 6750   1.670   5.955   9.454  0.5585 -0.3742 -0.1288
 1661SOL    HW1 6751   1.729   6.017   9.413  0.1120  0.3845  0.3407
 1661SOL    HW2 6752   1.591   6.006   9.472 -0.3809 -1.4446 -1.0558
 1662SOL     OW 6753   6.389   2.194   9.433 -0.0030  0.0569  0.0285
 1662SOL    HW1 6754   6.399   2.099   9.441  1.0592  0.1281 -0.2878
 1662SOL    HW2 6755   6.434   2.229   9.509  0.6321  0.3446 -0.4744
 1663SOL     OW 6756   4.643   0.227   6.027  0.1302  0.0986 -0.3032
 1663SOL    HW1 6757   4.652   0.313   6.068  3.7816  0.7929 -2.1402
 1663SOL    HW2 6758   4.676   0.165   6.092 -0.9011  0.2616  0.3914
 1664SOL     OW 6759   2.138   8.012   2.259 -0.3194  0.2842  0.1385
 1664SOL    HW1 6760   2.121   7.962   2.339  0.7704 -2.3609 -1.1600
 1664SOL    HW2 6761   2.204   7.961   2.212  0.0391  2.4176 -1.8726
 1665SOL     OW 6762   2.992   5.686   7.721 -0.0784 -0.0168 -0.1249
 1665SOL    HW1 6763   3.016   5.651   7.635  2.9834  0.4201  0.4166
 1665SOL    HW2 6764   2.981   5.780   7.706 -1.4548 -0.1946 -0.3413
 1666SOL     OW 6765   4.690   0.757   6.700  0.3697 -0.0448 -0.0850
 1666SOL    HW1 6766   4.684   0.692   6.629  0.6461  0.3445 -0.4696
 1666SOL    HW2 6767   4.630   0.826   6.674 -0.8856 -0.7103  0.9474
 1667SOL     OW 6768   2.168   6.307   5.594 -0.2421  0.2004  0.1164
 1667SOL    HW1 6769   2.218   6.388   5.599  0.5334 -0.2933  0.5209
 1667SOL    HW2 6770   2.104   6.314   5.665 -0.8108  0.8713 -0.4555
 1668SOL     OW 6771   8.578   1.505   5.171  0.5658  0.2213  0.3068
 1668SOL    HW1 6772   8.586   1.573   5.104  3.2397  0.2046  0.4839
 1668SOL    HW2 6773   8.656   1.516   5.226  0.6215 -2.3881  0.9127
 1669SOL     OW 6774   9.272   4.265   2.781  0.0087 -0.0227 -0.2702
 1669SOL    HW1 6775   9.253   4.191   2.723  1.5306  0.7847 -1.8781
 1669SOL    HW2 6776   9.287   4.224   2.867  0.2127 -1.5226 -0.9884
 1670SOL     OW 6777   9.107   1.362   4.457 -0.2815 -0.1596 -0.4524
 1670SOL    HW1 6778   9.072   1.277   4.482 -0.3703 -0.3400 -1.1558
 1670SOL    HW2 6779   9.055   1.388   4.381 -0.3589  0.5957 -0.1563
 1671SOL     OW 6780   8.567   2.493   1.338 -0.0343  0.0323  0.6325
 1671SOL    HW1 6781   8.480   2.530   1.352  0.7976  1.5515  2.0429
 1671SOL    HW2 6782   8.558   2.402   1.365 -1.3057  0.0054  0.2229
 1672SOL     OW 6783   4.908   4.332   5.376  0.0087 -0.4718  0.4508
 1672SOL    HW1 6784   4.837   4.355   5.317  0.8592 -1.2940 -0.9350
 1672SOL    HW2 6785   4.964   4.409   5.378 -1.0435  0.3039  1.8064
 1673SOL     OW 6786   2.116   3.844   6.833 -0.0135 -0.6693 -0.4191
 1673SOL    HW1 6787   2.063   3.778   6.878 -2.0191  0.7618 -0.5404
 1673SOL    HW2 6788   2.110   3.821   6.741 -1.0485 -0.1316 -0.5009
 1674SOL     OW 6789   9.812   6.352   3.284  0.1060 -0.3726 -0.1020
 1674SOL    HW1 6790   9.745   6.372   3.219 -1.0533  0.0788  1.1872
 1674SOL    HW2 6791   9.871   6.291   3.239 -0.8674 -0.3775 -1.4392
 1675SOL     OW 6792   9.036   9.122   1.372  0.1518  0.0486 -0.1788
 1675SOL    HW1 6793   9.034   9.147   1.280 -2.0179 -1.2267 -0.5366
 1675SOL    HW2 6794   9.098   9.183   1.412  0.5352  1.1464 -2.3104
 1676SOL     OW 6795   8.119   9.492   0.625 -0.5420 -0.6667  0.0404
 1676SOL    HW1 6796   8.149   9.402   0.611 -1.2658 -0.6629 -1.7858
 1676SOL    HW2 6797   8.071   9.489   0.708  1.1423 -1.4994  1.0360
 1677SOL     OW 6798   1.015   7.354   7.983 -0.1056  0.5680 -0.1218
 1677SOL    HW1 6799   1.028   7.312   7.898  0.6568  0.2096  0.1623
 1677SOL    HW2 6800   1.096   7.338   8.031 -0.5181  0.7726  0.6741
 1678SOL     OW 6801   3.515   5.110   0.818  0.0688 -0.6452 -0.0234
 1678SOL    HW1 6802   3.458   5.056   0.763 -0.7057 -0.1344  0.2618
 1678SOL    HW2 6803   3.479   5.101   0.906  1.1441 -1.2449  0.3690
 1679SOL     OW 6804   7.331   3.300   5.600 -0.6370 -0.3179  0.3009
 1679SOL    HW1 6805   7.362   3.387   5.625 -1.9100  0.1556  0.3130
 1679SOL    HW2 6806   7.382   3.278   5.522 -2.5271  1.9231 -1.7587
 1680SOL     OW 6807   5.445   8.131   5.924  0.8186  0.3867  0.2949
 1680SOL    HW1 6808   5.495   8.139   5.843  0.0466 -1.3781 -0.3975
 1680SOL    HW2 6809   5.478   8.051   5.966  0.2403  0.5056  1.0148
 1681SOL     OW 6810   0.905   9.461   8.893 -0.3912  0.0129 -0.1833
 1681SOL    HW1 6811   0.837   9.454   8.826  0.5132  2.1792 -1.4529
 1681SOL    HW2 6812   0.870   9.525   8.955 -0.9866 -1.5718  1.1904
 1682SOL     OW 6813   7.472   3.205   6.209  0.7433 -0.0307 -0.2842
 1682SOL    HW1 6814   7.379   3.204   6.184  0.8147 -2.3781 -0.6697
 1682SOL    HW2 6815   7.489   3.296   6.235 -1.2939  0.7778 -1.5325
 1683SOL     OW 6816   4.036   0.976   5.687 -0.3737 -0.0490  0.2674
 1683SOL    HW1 6817   4.047   1.056   5.738 -0.2897 -0.3177  0.6715
 1683SOL    HW2 6818   3.957   0.935   5.721 -0.9407  0.3232 -0.5687
 1684SOL     OW 6819   8.486   0.350   0.934  0.2033 -0.1156 -0.3480
 1684SOL    HW1 6820   8.516   0.400   1.010  2.5090 -1.3313 -0.3852
 1684SOL    HW2 6821   8.459   0.266   0.971  0.8509 -0.5270 -0.7868
 1685SOL     OW 6822   6.533   1.073   4.535  0.1311  0.4226  0.2759
 1685SOL    HW1 6823   6.445   1.102   4.511 -0.3221  1.5302  2.9063
 1685SOL    HW2 6824   6.589   1.104   4.464 -1.3445  1.3804 -0.5141
 1686SOL     OW 6825   6.316   3.206   0.173  0.0619 -0.8944  0.1222
 1686SOL    HW1 6826   6.233   3.249   0.150  0.5231 -1.0962 -2.1358
 1686SOL    HW2 6827   6.317   3.126   0.120  0.7995 -1.9727  1.6687
 1687SOL     OW 6828   3.723   9.043   4.554  0.3400  0.1979  0.0497
 1687SOL    HW1 6829   3.683   8.957   4.568 -0.9822  0.9480  1.1204
 1687SOL    HW2 6830   3.704   9.064   4.462  0.8639 -0.7377 -0.2776
 1688SOL     OW 6831   4.783   8.517   6.717  0.4131  0.4330 -0.1416
 1688SOL    HW1 6832   4.784   8.605   6.755  0.5074 -0.5470  2.3493
 1688SOL    HW2 6833   4.872   8.484   6.731  0.3425 -0.1272 -0.9300
 1689SOL     OW 6834   1.472   1.498   5.159 -1.0309 -0.3169  0.2063
 1689SOL    HW1 6835   1.396   1.473   5.107 -1.0150  0.5528 -0.2390
 1689SOL    HW2 6836   1.505   1.578   5.118  0.6399 -1.1342 -0.1593
 1690SOL     OW 6837   5.390   0.199   0.317 -0.2011 -0.3455  0.2604
 1690SOL    HW1 6838   5.388   0.196   0.222  0.2504  1.6686  0.1297
 1690SOL    HW2 6839   5.347   0.119   0.346 -1.4235 -0.4177 -1.6375
 1691SOL     OW 6840   5.580   2.023   3.439  0.1953 -0.0189 -0.3606
 1691SOL    HW1 6841   5.522   2.007   3.365 -0.4811 -1.0611  0.3534
 1691SOL    HW2 6842   5.524   2.063   3.505  0.8314  1.0743 -0.4558
 1692SOL     OW 6843   8.921   3.942   7.210 -0.1956 -0.3186  0.4861
 1692SOL    HW1 6844   8.829   3.950   7.235 -0.4763 -0.8786 -0.3222
 1692SOL    HW2 6845   8.920   3.943   7.115  0.5712 -0.9646  0.4576
 1693SOL     OW 6846   3.098   1.086   0.613 -0.1336  1.0879 -0.0187
 1693SOL    HW1 6847   3.156   1.084   0.689 -0.5243  0.1083  0.2788
 1693SOL    HW2 6848   3.156   1.081   0.538  0.2387  1.6433  0.2275
 1694SOL     OW 6849   1.438   8.320   0.518  0.4152  0.0005  0.6069
 1694SOL    HW1 6850   1.349   8.354   0.513  1.2182  2.0365 -0.9300
 1694SOL    HW2 6851   1.482   8.376   0.581  0.8589 -0.4467  0.7055
 1695SOL     OW 6852   8.443   6.513   8.420 -0.3344 -0.5116  0.3925
 1695SOL    HW1 6853   8.455   6.600   8.381  3.0399 -0.7350  0.6235
 1695SOL    HW2 6854   8.415   6.457   8.347  0.4457  0.1742 -0.4481
 1696SOL     OW 6855   6.151   0.761   4.708  0.8698  0.5039 -0.1747
 1696SOL    HW1 6856   6.119   0.749   4.618 -0.7323 -0.1081  0.4275
 1696SOL    HW2 6857   6.164   0.855   4.717  0.2145  0.6638 -0.8053
 1697SOL     OW 6858   2.483   7.667   1.176 -0.5428 -0.0550  0.1159
 1697SOL    HW1 6859   2.535   7.601   1.222 -1.6774 -1.2936 -0.3027
 1697SOL    HW2 6860   2.523   7.673   1.089  1.6721  2.3683  1.1741
 1698SOL     OW 6861   0.604   4.356   2.640 -0.3783  0.2946  0.1129
 1698SOL    HW1 6862   0.526   4.392   2.682  0.7368  1.7018  1.0759
 1698SOL    HW2 6863   0.652   4.314   2.711  0.7447  1.2852 -0.0221
 1699SOL     OW 6864   5.035   6.624   1.730  0.0067  0.1505 -0.2192
 1699SOL    HW1 6865   5.077   6.677   1.663 -1.1937  0.4524 -0.7662
 1699SOL    HW2 6866   4.984   6.560   1.681 -0.2770 -0.1142  0.4115
 1700SOL     OW 6867   0.998   5.091   1.435 -0.4903  0.3807  0.5243
 1700SOL    HW1 6868   0.959   5.151   1.372  0.1074  0.1750 -0.0506
 1700SOL    HW2 6869   1.091   5.116   1.437 -0.2129 -0.6086  0.1868
 1701SOL     OW 6870   7.820   4.477   2.470  0.0608 -0.5777  0.7273
 1701SOL    HW1 6871   7.811   4.540   2.398  1.9497 -2.2865 -1.1281
 1701SOL    HW2 6872   7.888   4.515   2.526 -0.3650  0.0473  0.8358
 1702SOL     OW 6873   7.269   5.333   4.948  0.3582  0.5201 -0.0519
 1702SOL    HW1 6874   7.235   5.344   4.860 -2.3100 -1.4672  0.5747
 1702SOL    HW2 6875   7.225   5.401   5.000 -0.4526 -0.1826  0.2207
 1703SOL     OW 6876   3.857   8.418   0.786  0.4268  0.0304 -0.1324
 1703SOL    HW1 6877   3.840   8.483   0.718 -1.8698 -0.9824 -0.6053
 1703SOL    HW2 6878   3.773   8.403   0.827  1.4368 -0.6801  1.7973
 1704SOL     OW 6879   3.056   1.483   7.351 -0.2013  0.0356  0.1365
 1704SOL    HW1 6880   3.107   1.462   7.273 -1.7531  0.5679 -1.0642
 1704SOL    HW2 6881   3.050   1.401   7.399  0.3458 -0.4158 -0.5521
 1705SOL     OW 6882   2.204   0.374   8.346 -0.1934 -0.0054  0.0758
 1705SOL    HW1 6883   2.252   0.316   8.287 -0.4188  1.0361 -1.1697
 1705SOL    HW2 6884   2.121   0.329   8.361 -0.7848  0.4415 -1.7070
 1706SOL     OW 6885   9.763   2.349   6.889 -0.2472 -0.1859 -0.3523
 1706SOL    HW1 6886   9.688   2.391   6.932 -1.3805 -0.7210 -1.6917
 1706SOL    HW2 6887   9.791   2.412   6.823  1.3824  0.5674  1.0008
 1707SOL     OW 6888   8.623   3.566   9.446  0.0802  0.3636  0.5529
 1707SOL    HW1 6889   8.619   3.554   9.351 -1.9345  1.5548  0.4357
 1707SOL    HW2 6890   8.702   3.617   9.461  2.1197 -2.3784 -0.1131
 1708SOL     OW 6891   7.436   5.664   2.548 -0.4405  0.3397 -0.1587
 1708SOL    HW1 6892   7.378   5.591   2.525 -0.1759  0.5988 -1.7998
 1708SOL    HW2 6893   7.405   5.737   2.493  1.5560  0.4155 -1.2657
 1709SOL     OW 6894   3.025   9.115   6.045  0.4027  0.1325 -0.3330
 1709SOL    HW1 6895   3.103   9.089   6.095 -0.3756 -0.7259  0.5005
 1709SOL    HW2 6896   3.059   9.146   5.962  1.6588  0.1223  0.1460
 1710SOL     OW 6897   6.962   4.936   5.149 -0.1216 -0.2790  0.0493
 1710SOL    HW1 6898   7.014   5.016   5.155  2.7174 -1.9027 -1.2141
 1710SOL    HW2 6899   6.894   4.957   5.084  0.2159  1.2487  0.1519
 1711SOL     OW 6900   2.016   2.271   3.541  0.1228  0.7206 -0.4989
 1711SOL    HW1 6901   1.926   2.262   3.573  0.5457  0.6537  0.7205
 1711SOL    HW2 6902   2.034   2.188   3.497 -0.2979  0.6009 -0.4467
 1712SOL     OW 6903   1.532   3.439   7.673  0.2951  0.2172 -0.2114
 1712SOL    HW1 6904   1.459   3.499   7.663  0.6882  1.1965  2.0955
 1712SOL    HW2 6905   1.511   3.365   7.615 -2.1624  0.7724 -0.1475
 1713SOL     OW 6906   0.745   1.974   0.535 -0.4780  0.1657  0.1365
 1713SOL    HW1 6907   0.688   2.049   0.551  0.6426  0.6433  2.2166
 1713SOL    HW2 6908   0.728   1.915   0.609 -0.7942 -1.3287 -1.0761
 1714SOL     OW 6909   6.731   6.440   2.425  0.7012  0.2888  0.0386
 1714SOL    HW1 6910   6.730   6.466   2.517  0.9919  0.7944 -0.0964
 1714SOL    HW2 6911   6.821   6.456   2.397  1.1420 -1.6668  0.1627
 1715SOL     OW 6912   1.255   8.055   7.825  0.3849  0.4798 -0.3879
 1715SOL    HW1 6913   1.316   7.981   7.831 -1.7628 -1.5119 -1.3214
 1715SOL    HW2 6914   1.250   8.090   7.914  2.1828  0.1416 -0.1236
 1716SOL     OW 6915   1.527   6.496   5.214 -0.6021  0.9864  0.2212
 1716SOL    HW1 6916   1.552   6.563   5.149  1.8340  0.8624  0.9343
 1716SOL    HW2 6917   1.596   6.430   5.208 -2.3403 -0.9269  0.3687
 1717SOL     OW 6918   9.453   2.657   5.739 -0.0432 -0.2953 -0.1104
 1717SOL    HW1 6919   9.533   2.620   5.703 -0.0741 -1.9000  1.3127
 1717SOL    HW2 6920   9.430   2.728   5.680  2.3189  0.1034 -0.6591
 1718SOL     OW 6921   0.613   3.792   1.287 -0.6561  0.1144 -0.5333
 1718SOL    HW1 6922   0.691   3.739   1.269 -0.4332 -0.1950  1.2090
 1718SOL    HW2 6923   0.610   3.855   1.215  0.7235 -0.4123 -1.0822
 1719SOL     OW 6924   0.202   0.133   6.301  0.1502  0.4513 -0.2930
 1719SOL    HW1 6925   0.133   0.150   6.237 -0.8515  0.1145  0.6593
 1719SOL    HW2 6926   0.226   0.041   6.286 -2.1065 -0.5456  1.6124
 1720SOL     OW 6927   9.682   2.089   6.430  0.1675 -0.1771  0.5627
 1720SOL    HW1 6928   9.777   2.087   6.437  0.0849 -2.3257  2.2645
 1720SOL    HW2 6929   9.662   2.035   6.354  0.2894  0.9548 -0.3014
 1721SOL     OW 6930   5.798   9.397   5.596 -0.6033  0.4467 -0.2121
 1721SOL    HW1 6931   5.748   9.369   5.519 -2.4414  0.5368  0.8824
 1721SOL    HW2 6932   5.767   9.486   5.613 -0.9741  0.0693  1.1950
 1722SOL     OW 6933   0.892   9.634   2.053 -0.3438  0.4087 -0.0409
 1722SOL    HW1 6934   0.977   9.646   2.011 -0.2504 -0.6884 -0.2085
 1722SOL    HW2 6935   0.831   9.682   1.997  0.1073  0.8683 -0.1432
 1723SOL     OW 6936   6.100   3.679   7.364  0.3718  0.7666  0.1919
 1723SOL    HW1 6937   6.147   3.632   7.433  0.9000  0.0745 -0.6337
 1723SOL    HW2 6938   6.167   3.734   7.323 -0.0953  1.7435  0.6996
 1724SOL     OW 6939   5.907   8.084   1.009 -0.3147 -0.1336  0.5844
 1724SOL    HW1 6940   5.948   8.167   1.034 -0.1954 -0.4764  1.5803
 1724SOL    HW2 6941   5.980   8.024   0.996 -0.4473 -0.4298  1.1824
 1725SOL     OW 6942   5.889   1.646   5.542 -0.5207  0.3793  0.3670
 1725SOL    HW1 6943   5.952   1.686   5.481 -1.3019  2.0498  0.5930
 1725SOL    HW2 6944   5.810   1.699   5.532 -1.7649 -1.4162  0.4066
 1726SOL     OW 6945   8.169   9.442   6.658  0.1416 -0.4706  0.7892
 1726SOL    HW1 6946   8.097   9.462   6.717  2.3041  1.5978  2.9394
 1726SOL    HW2 6947   8.237   9.405   6.714  1.2515 -1.2747 -0.9596
 1727SOL     OW 6948   7.942   4.008   3.565  0.1031  0.1468  0.3817
 1727SOL    HW1 6949   8.002   4.029   3.637 -0.5284 -0.7132  1.1888
 1727SOL    HW2 6950   7.993   3.952   3.507  0.4513  0.4115  0.4268
 1728SOL     OW 6951   4.203   2.030   6.425  0.3249 -0.2608  0.6203
 1728SOL    HW1 6952   4.231   1.986   6.344 -1.2892  1.7279 -1.1321
 1728SOL    HW2 6953   4.108   2.029   6.421  0.2231  1.9549  1.2777
 1729SOL     OW 6954   7.874   2.674   7.936  0.5770 -0.1182  0.1605
 1729SOL    HW1 6955   7.833   2.759   7.956 -0.2694 -0.4171 -0.2364
 1729SOL    HW2 6956   7.926   2.690   7.857 -1.8276 -0.5633 -1.6428
 1730SOL     OW 6957   3.419   6.024   3.094  0.0581  0.0164 -0.0067
 1730SOL    HW1 6958   3.488   5.964   3.123  0.2417  0.3930  0.3370
 1730SOL    HW2 6959   3.459   6.111   3.100 -0.5053  0.2545  0.3707
 1731SOL     OW 6960   2.186   5.640   7.900  0.2167 -0.0139  0.8230
 1731SOL    HW1 6961   2.163   5.692   7.824 -0.2318 -1.3760 -0.0221
 1731SOL    HW2 6962   2.174   5.699   7.974 -2.2664  0.5407  0.0927
 1732SOL     OW 6963   4.927   2.250   7.424 -0.5984 -0.5560 -0.4663
 1732SOL    HW1 6964   4.890   2.171   7.463 -0.5735  0.2179  1.1988
 1732SOL    HW2 6965   4.880   2.322   7.465  1.1542  0.3817  0.0126
 1733SOL     OW 6966   7.644   0.873   5.919  0.2994 -0.2033  0.5304
 1733SOL    HW1 6967   7.634   0.821   5.999 -0.5741 -0.1733  0.4474
 1733SOL    HW2 6968   7.706   0.824   5.866  1.3304  0.0520  1.4550
 1734SOL     OW 6969   3.788   7.947   5.035  0.0387  0.4075  0.5271
 1734SOL    HW1 6970   3.755   7.924   4.948  0.6487 -0.0612  0.4158
 1734SOL    HW2 6971   3.755   7.877   5.092 -0.8288  1.0109  0.7815
 1735SOL     OW 6972   0.633   0.858   3.905  0.2555  0.0329 -0.3687
 1735SOL    HW1 6973   0.663   0.827   3.820 -1.4832 -1.0582 -0.6248
 1735SOL    HW2 6974   0.538   0.863   3.897  0.0141 -0.4690  1.6175
 1736SOL     OW 6975   4.621   6.936   9.762 -0.5104  0.3545  0.2984
 1736SOL    HW1 6976   4.623   6.849   9.723 -0.6712  0.4925 -0.0238
 1736SOL    HW2 6977   4.538   6.974   9.733 -0.0861  0.9132 -0.2118
 1737SOL     OW 6978   2.490   9.564   1.769 -0.1107  0.4488  0.2078
 1737SOL    HW1 6979   2.469   9.525   1.854 -0.3982 -2.9065 -1.2241
 1737SOL    HW2 6980   2.564   9.511   1.737 -1.1359  0.4265 -2.3375
 1738SOL     OW 6981   7.311   4.802   7.208  0.3600 -0.1716 -0.1397
 1738SOL    HW1 6982   7.273   4.738   7.268  2.5479 -2.3405 -0.9356
 1738SOL    HW2 6983   7.334   4.753   7.130  3.5664  1.1690 -0.2051
 1739SOL     OW 6984   2.888   3.162   4.163 -0.3643 -0.2615 -0.1505
 1739SOL    HW1 6985   2.906   3.184   4.254 -2.7987 -1.9044  0.8248
 1739SOL    HW2 6986   2.797   3.135   4.162 -0.1621 -1.1966 -2.9308
 1740SOL     OW 6987   8.841   4.954   6.464 -0.3842  0.3642 -0.1590
 1740SOL    HW1 6988   8.810   5.000   6.386  1.7769  0.9539 -0.7261
 1740SOL    HW2 6989   8.923   4.997   6.487  0.6143 -1.7666  0.5913
 1741SOL     OW 6990   2.784   1.862   9.534  0.0453  0.1213 -0.3235
 1741SOL    HW1 6991   2.767   1.901   9.619  0.4097  0.3516 -0.3566
 1741SOL    HW2 6992   2.844   1.923   9.490  1.9246 -1.2276  0.2358
 1742SOL     OW 6993   2.676   7.310   1.511 -0.5039  0.1871  0.0481
 1742SOL    HW1 6994   2.656   7.217   1.498 -0.8506  0.2085  0.4058
 1742SOL    HW2 6995   2.771   7.314   1.511 -0.4205 -0.4855  2.0198
 1743SOL     OW 6996   1.763   3.087   5.670 -0.3230 -0.3995 -0.0644
 1743SOL    HW1 6997   1.841   3.142   5.684  0.2584 -0.7388 -1.7091
 1743SOL    HW2 6998   1.798   3.002   5.645 -1.1475 -0.1645 -2.3043
 1744SOL     OW 6999   0.363   4.687   3.161 -0.2636  0.1252 -0.3617
 1744SOL    HW1 7000   0.449   4.648   3.149 -0.4731 -0.2084 -0.8063
 1744SOL    HW2 7001   0.339   4.666   3.251  0.0641  0.1075 -0.2801
 1745SOL     OW 7002   8.937   1.359   5.456 -0.3783 -0.0317 -0.5108
 1745SOL    HW1 7003   9.025   1.378   5.487 -1.1383 -0.3426  2.0561
 1745SOL    HW2 7004   8.884   1.433   5.487 -1.0676  0.1236 -1.9617
 1746SOL     OW 7005   0.822   7.328   0.954  0.2032  0.3757  0.2031
 1746SOL    HW1 7006   0.902   7.360   0.995  0.7437  1.0270 -1.2956
 1746SOL    HW2 7007   0.767   7.301   1.028  1.4427  0.7336  1.3039
 1747SOL     OW 7008   4.283   3.175   2.507  0.0387 -0.5722  0.3576
 1747SOL    HW1 7009   4.307   3.240   2.573  0.6191 -0.9075  0.4799
 1747SOL    HW2 7010   4.211   3.126   2.548  1.2311 -1.6185  1.2897
 1748SOL     OW 7011   7.245   9.194   0.069  0.2929  0.0082  0.3636
 1748SOL    HW1 7012   7.206   9.106   0.070  0.4534 -0.0911 -0.8062
 1748SOL    HW2 7013   7.226   9.229   0.156 -1.5875 -0.3842  0.1455
 1749SOL     OW 7014   6.847   3.463   7.848  0.1897 -0.1192  0.4621
 1749SOL    HW1 7015   6.856   3.480   7.754  0.0617 -0.9015  0.3023
 1749SOL    HW2 7016   6.877   3.544   7.890  1.8804 -0.3507 -0.2111
 1750SOL     OW 7017   6.954   8.409   2.678 -0.5722 -0.0381 -0.4203
 1750SOL    HW1 7018   6.936   8.365   2.594 -0.2909  0.7907 -0.9235
 1750SOL    HW2 7019   7.035   8.457   2.663 -0.7667  0.4904  0.1899
 1751SOL     OW 7020   5.282   0.003   8.288  0.3764  0.3059  0.5067
 1751SOL    HW1 7021   5.213   0.069   8.277  0.1198 -0.1335 -0.6280
 1751SOL    HW2 7022   5.235  -0.079   8.295  0.7759  0.0186 -0.1126
 1752SOL     OW 7023   6.619   6.015   0.556  1.0343 -0.2057 -0.0490
 1752SOL    HW1 7024   6.544   5.957   0.570  1.7886 -1.1022  0.4121
 1752SOL    HW2 7025   6.692   5.969   0.597  1.4225  1.6805  1.5314
 1753SOL     OW 7026   4.921   2.020   7.006  0.0357  0.4824 -0.1353
 1753SOL    HW1 7027   4.961   1.933   7.011 -0.7458  0.1309  0.1185
 1753SOL    HW2 7028   4.952   2.065   7.084  0.0566  0.2627 -0.0155
 1754SOL     OW 7029   0.603   8.814   2.091 -0.4733 -1.0088 -0.2744
 1754SOL    HW1 7030   0.606   8.850   2.002 -2.0915 -1.1291 -0.4177
 1754SOL    HW2 7031   0.690   8.831   2.127 -0.0281 -0.2751 -1.6111
 1755SOL     OW 7032   8.546   2.769   1.825 -0.5738 -0.0295 -0.8813
 1755SOL    HW1 7033   8.453   2.774   1.850 -0.3669 -0.3565 -0.0274
 1755SOL    HW2 7034   8.587   2.840   1.874 -0.2677 -0.2727 -0.7868
 1756SOL     OW 7035   1.961   5.484   5.814 -1.0601  0.1383  0.2762
 1756SOL    HW1 7036   1.872   5.519   5.816 -1.0069  0.3448 -0.6744
 1756SOL    HW2 7037   2.010   5.540   5.875 -1.5849 -0.0298  0.8694
 1757SOL     OW 7038   8.730   7.728   0.986  1.0239 -0.0878 -0.9966
 1757SOL    HW1 7039   8.744   7.654   0.928 -2.1936 -1.5874 -0.0661
 1757SOL    HW2 7040   8.740   7.692   1.074  1.1582  1.0220 -0.5402
 1758SOL     OW 7041   9.590   8.320   8.308  0.4658 -0.3065 -0.2648
 1758SOL    HW1 7042   9.514   8.368   8.341  0.3949 -0.5148 -0.1176
 1758SOL    HW2 7043   9.660   8.342   8.370  0.7382  0.5095 -0.8464
 1759SOL     OW 7044   7.322   5.645   1.377  0.5297 -0.5511 -0.3204
 1759SOL    HW1 7045   7.400   5.670   1.327  0.7552  0.0550  0.3164
 1759SOL    HW2 7046   7.253   5.702   1.343  0.3293 -1.1332 -0.9304
 1760SOL     OW 7047   0.396   5.575   3.398 -0.0753 -0.1467  0.5233
 1760SOL    HW1 7048   0.309   5.552   3.430  0.0213  1.2243  1.8695
 1760SOL    HW2 7049   0.444   5.603   3.475  0.9641  0.9149 -0.4605
 1761SOL     OW 7050   2.491   0.073   4.592  0.5157 -0.1484 -0.1717
 1761SOL    HW1 7051   2.492   0.086   4.497 -0.1960 -1.1497 -0.3356
 1761SOL    HW2 7052   2.430   0.139   4.624 -0.2013 -0.6052 -0.5609
 1762SOL     OW 7053   5.202   5.273   4.727  0.2463  0.1002  0.6217
 1762SOL    HW1 7054   5.123   5.234   4.766 -1.0789  3.1515  1.3000
 1762SOL    HW2 7055   5.260   5.289   4.801  0.7643 -0.4771  0.3528
 1763SOL     OW 7056   8.934   8.444   6.764 -0.2001  0.1249  0.2618
 1763SOL    HW1 7057   8.886   8.369   6.798  0.8460 -0.6646  0.0518
 1763SOL    HW2 7058   8.885   8.471   6.686 -0.6997 -0.1985  0.4629
 1764SOL     OW 7059   3.680   9.375   7.454  0.3677  0.4493  0.8055
 1764SOL    HW1 7060   3.744   9.325   7.506  1.4670  0.3444 -0.5909
 1764SOL    HW2 7061   3.625   9.308   7.413  1.3270  0.3591 -0.4134
 1765SOL     OW 7062   1.173   0.959   7.594  0.2898 -0.1580  0.1361
 1765SOL    HW1 7063   1.218   0.907   7.527 -0.1576 -1.1959  0.6109
 1765SOL    HW2 7064   1.193   1.049   7.572  0.0820 -0.4713 -1.4479
 1766SOL     OW 7065   6.404   1.841   7.310 -0.0130 -0.3228 -0.0754
 1766SOL    HW1 7066   6.467   1.911   7.292  0.0625  0.0735  1.5861
 1766SOL    HW2 7067   6.400   1.791   7.229 -0.2213  1.7164 -1.3982
 1767SOL     OW 7068   2.311   3.894   0.646 -0.2642  0.2775 -0.1753
 1767SOL    HW1 7069   2.395   3.852   0.664 -0.8274 -1.9695 -2.2716
 1767SOL    HW2 7070   2.331   3.961   0.580 -0.1820 -0.8481 -1.3357
 1768SOL     OW 7071   7.740   8.366   6.040 -0.4761 -0.7081  0.6737
 1768SOL    HW1 7072   7.720   8.282   5.999  1.2579 -1.1608  0.7024
 1768SOL    HW2 7073   7.834   8.376   6.030 -0.8291  2.0559 -0.9018
 1769SOL     OW 7074   6.322   9.847   5.349  0.3556  0.5578 -0.0638
 1769SOL    HW1 7075   6.413   9.872   5.335  0.4391 -0.3452 -1.2837
 1769SOL    HW2 7076   6.326   9.753   5.370 -0.3193  0.4202 -0.5146
 1770SOL     OW 7077   8.525   1.385   3.720  0.3040 -0.2509  0.3583
 1770SOL    HW1 7078   8.526   1.403   3.626 -1.5189 -0.3898  0.2790
 1770SOL    HW2 7079   8.609   1.418   3.752  0.3208  1.2073 -1.0728
 1771SOL     OW 7080   8.998   6.338   0.592 -0.1416 -0.0548 -0.3032
 1771SOL    HW1 7081   9.035   6.410   0.540 -1.6607 -0.1083 -1.5187
 1771SOL    HW2 7082   8.916   6.373   0.627  0.4808 -0.2762  1.4969
 1772SOL     OW 7083   4.904   9.136   8.504  0.2471 -0.1637  0.2421
 1772SOL    HW1 7084   4.950   9.151   8.586  1.2343  1.8310 -0.5906
 1772SOL    HW2 7085   4.951   9.064   8.462  0.9884  0.1283  0.5554
 1773SOL     OW 7086   3.875   1.456   0.809  0.2968 -0.0258 -0.3447
 1773SOL    HW1 7087   3.798   1.489   0.763 -0.2986 -1.4560 -0.4384
 1773SOL    HW2 7088   3.845   1.442   0.899  0.1112 -1.5805 -0.6205
 1774SOL     OW 7089   5.290   0.159   7.861 -0.0747 -0.1849 -0.5362
 1774SOL    HW1 7090   5.220   0.104   7.826 -0.7172  0.6231 -0.5517
 1774SOL    HW2 7091   5.363   0.099   7.877 -0.7206 -1.0100 -0.6651
 1775SOL     OW 7092   2.201   5.050   9.820  0.2305  0.1808  0.2714
 1775SOL    HW1 7093   2.145   5.006   9.756 -0.7149 -0.0651  1.2307
 1775SOL    HW2 7094   2.290   5.040   9.786 -0.1908 -0.5006 -0.6599
 1776SOL     OW 7095   4.789   9.736   4.244 -0.2440  0.2141  0.4487
 1776SOL    HW1 7096   4.824   9.821   4.217  0.6167  1.1580  3.9889
 1776SOL    HW2 7097   4.715   9.758   4.301 -0.8832 -1.4607  0.3210
 1777SOL     OW 7098   5.469   7.658   5.866  0.1708 -0.0688 -0.0449
 1777SOL    HW1 7099   5.463   7.564   5.883 -0.5790 -0.0059  0.0499
 1777SOL    HW2 7100   5.513   7.664   5.781 -0.9050 -0.5577 -0.6594
 1778SOL     OW 7101   9.081   2.611   3.949 -0.1674 -0.8804 -1.2931
 1778SOL    HW1 7102   9.148   2.658   3.898  1.0165  1.4528  2.0434
 1778SOL    HW2 7103   9.007   2.672   3.952 -2.0041 -2.7797 -3.5767
 1779SOL     OW 7104   2.381   6.775   9.492  0.4908 -0.0843 -0.1390
 1779SOL    HW1 7105   2.366   6.692   9.447  1.4773 -0.2096 -0.2659
 1779SOL    HW2 7106   2.368   6.841   9.425  0.9567 -0.2156 -0.3645
 1780SOL     OW 7107   1.858   4.094   0.500  0.2429  0.6894  0.3797
 1780SOL    HW1 7108   1.826   4.015   0.457  2.8587  1.3330 -3.1561
 1780SOL    HW2 7109   1.938   4.066   0.545  0.3081  1.0368  0.4837
 1781SOL     OW 7110   2.037   1.328   0.369 -0.0001  0.3525 -0.3220
 1781SOL    HW1 7111   2.012   1.298   0.457 -0.7171 -2.2752 -1.3247
 1781SOL    HW2 7112   1.978   1.401   0.351  1.6237  2.4618  2.1610
 1782SOL     OW 7113   7.575   8.530   6.810 -0.0595  0.2160 -0.1936
 1782SOL    HW1 7114   7.593   8.555   6.901  1.3474  3.2382 -1.1763
 1782SOL    HW2 7115   7.494   8.576   6.788  0.9661  1.6401 -1.1591
 1783SOL     OW 7116   7.841   9.801   5.556  0.0535 -0.2714  0.4955
 1783SOL    HW1 7117   7.905   9.813   5.626 -0.3380 -1.0504  0.9993
 1783SOL    HW2 7118   7.822   9.707   5.556 -0.7292 -0.1228  0.0328
 1784SOL     OW 7119   6.943   4.804   9.117  0.2574  0.8452  0.1201
 1784SOL    HW1 7120   6.885   4.729   9.102  1.3671 -0.3297  1.3615
 1784SOL    HW2 7121   7.030   4.771   9.096  0.6416  2.2071 -0.5474
 1785SOL     OW 7122   9.367   7.370   4.556 -0.0589 -0.2631  0.7332
 1785SOL    HW1 7123   9.455   7.342   4.581  0.3905 -0.2002 -0.6698
 1785SOL    HW2 7124   9.331   7.412   4.634  2.0586  1.8302  0.7007
 1786SOL     OW 7125   7.571   7.728   8.779 -0.1492  0.1423  0.6140
 1786SOL    HW1 7126   7.663   7.753   8.790  0.1285 -1.2185  1.7072
 1786SOL    HW2 7127   7.575   7.640   8.740 -1.0233  0.5029 -0.3370
 1787SOL     OW 7128   0.368   6.486   1.380  0.4591  0.1147 -0.5232
 1787SOL    HW1 7129   0.276   6.479   1.407  1.0757 -1.1695  1.5246
 1787SOL    HW2 7130   0.403   6.557   1.433  0.8663 -0.0412 -0.5777
 1788SOL     OW 7131   1.665   8.385   7.656  0.5486 -0.6468 -0.6732
 1788SOL    HW1 7132   1.638   8.476   7.670 -1.1703 -1.2940  0.5969
 1788SOL    HW2 7133   1.701   8.357   7.740  0.7864 -1.2154 -0.9579
 1789SOL     OW 7134   0.205   2.123   0.215  0.1012 -0.8648 -0.0304
 1789SOL    HW1 7135   0.183   2.171   0.135  1.3112 -1.1907 -0.5795
 1789SOL    HW2 7136   0.297   2.145   0.232 -0.5392  0.4190  2.1574
 1790SOL     OW 7137   3.731   6.737   7.972  0.1393  0.1604 -0.6734
 1790SOL    HW1 7138   3.720   6.665   7.909  1.6546 -0.7528  0.0708
 1790SOL    HW2 7139   3.674   6.806   7.938  0.1326 -0.6744 -2.4809
 1791SOL     OW 7140   2.845   2.368   2.117  0.0159 -0.9461 -0.1011
 1791SOL    HW1 7141   2.877   2.305   2.182  0.0082 -0.7776  0.0662
 1791SOL    HW2 7142   2.751   2.376   2.137  0.4171  0.8155  1.3291
 1792SOL     OW 7143   1.018   9.061   9.843 -0.2887  0.2167 -1.0950
 1792SOL    HW1 7144   0.943   9.017   9.882  1.8081 -1.3791  1.4830
 1792SOL    HW2 7145   1.069   8.990   9.804  1.3106  0.8439 -0.2070
 1793SOL     OW 7146   4.213   1.700   8.104  0.3186 -0.0404 -0.1749
 1793SOL    HW1 7147   4.158   1.621   8.110 -1.4215  1.0901 -0.5278
 1793SOL    HW2 7148   4.191   1.738   8.019  1.7495  0.4252 -0.3728
 1794SOL     OW 7149   5.037   5.259   3.262 -0.4098  0.2470 -0.2369
 1794SOL    HW1 7150   5.114   5.207   3.240 -1.0387  0.2930 -2.8924
 1794SOL    HW2 7151   4.969   5.228   3.202 -0.9900  3.5864 -1.5203
 1795SOL     OW 7152   3.551   3.815   6.881  0.1865  0.1342 -0.0428
 1795SOL    HW1 7153   3.544   3.842   6.973 -1.1825 -0.3076  0.0121
 1795SOL    HW2 7154   3.637   3.774   6.874  0.6747  0.9819  0.8193
 1796SOL     OW 7155   2.917   6.866   0.593  0.4654 -0.0898  0.0321
 1796SOL    HW1 7156   2.940   6.958   0.577 -1.0818  0.7843  2.1967
 1796SOL    HW2 7157   2.836   6.871   0.645  0.0238 -2.7087 -0.2790
 1797SOL     OW 7158   1.053   3.632   3.123 -0.0496  0.1734 -0.1505
 1797SOL    HW1 7159   1.028   3.546   3.092  1.0980 -1.0120  1.9716
 1797SOL    HW2 7160   0.971   3.679   3.135 -0.6690 -0.5069 -1.5775
 1798SOL     OW 7161   5.245   4.012   3.595 -0.3341  0.4788  0.5029
 1798SOL    HW1 7162   5.155   4.044   3.604 -0.1076  1.0705  0.6764
 1798SOL    HW2 7163   5.256   3.953   3.670 -0.6840  0.1390  0.2935
 1799SOL     OW 7164   6.972   8.941   8.738 -0.4821  0.7288 -0.1658
 1799SOL    HW1 7165   6.933   8.984   8.815 -0.4787 -0.7859  0.7148
 1799SOL    HW2 7166   6.897   8.923   8.681 -0.5955  1.1047 -0.1417
 1800SOL     OW 7167   9.666   0.818   3.583  0.5182 -0.0274 -0.2009
 1800SOL    HW1 7168   9.727   0.751   3.551 -1.3036 -0.8775 -2.0842
 1800SOL    HW2 7169   9.579   0.784   3.563 -0.5400  2.1943  0.2634
 1801SOL     OW 7170   7.722   0.849   7.190  1.1424  0.1739 -0.2835
 1801SOL    HW1 7171   7.693   0.852   7.281 -0.7225  1.6850 -0.8677
 1801SOL    HW2 7172   7.727   0.755   7.170 -0.7352 -0.1909  0.6945
 1802SOL     OW 7173   6.569   8.827   3.856  0.6594 -0.4731  0.1182
 1802SOL    HW1 7174   6.534   8.742   3.829 -1.0317 -0.1661  1.1753
 1802SOL    HW2 7175   6.663   8.814   3.861  0.3364 -2.7946  1.8274
 1803SOL     OW 7176   8.418   5.044   3.047 -0.3581 -0.1186 -0.0166
 1803SOL    HW1 7177   8.438   5.099   3.122 -2.2068 -0.7429  0.9743
 1803SOL    HW2 7178   8.479   5.074   2.979 -0.8126  2.6559  0.6953
 1804SOL     OW 7179   1.994   9.843   4.747  0.2043 -0.1095 -0.2471
 1804SOL    HW1 7180   2.075   9.891   4.765  0.5797 -1.0152  0.5596
 1804SOL    HW2 7181   2.002   9.763   4.798 -1.3809 -0.0418  0.1567
 1805SOL     OW 7182   7.157   0.323   7.797 -0.0399  0.0245 -0.2394
 1805SOL    HW1 7183   7.126   0.413   7.785  1.1106  0.3566 -0.8658
 1805SOL    HW2 7184   7.077   0.271   7.798 -0.6999  0.9996 -0.3864
 1806SOL     OW 7185   8.638   3.765   7.103 -0.5030  0.0621  0.3701
 1806SOL    HW1 7186   8.621   3.839   7.161 -3.0881  0.7703 -1.1250
 1806SOL    HW2 7187   8.553   3.721   7.096 -0.3708  0.0852 -2.9163
 1807SOL     OW 7188   5.413   4.895   6.270 -0.0870 -1.0664  0.1959
 1807SOL    HW1 7189   5.404   4.899   6.365  0.6486 -1.2978  0.2762
 1807SOL    HW2 7190   5.480   4.960   6.249  0.0071 -1.2683 -0.1311
 1808SOL     OW 7191   7.880   2.400   0.842 -0.2879 -0.3921 -0.3026
 1808SOL    HW1 7192   7.947   2.407   0.775 -0.9536 -0.6391 -1.0110
 1808SOL    HW2 7193   7.826   2.478   0.830 -1.7519 -1.5389 -1.5782
 1809SOL     OW 7194   7.311   0.170   9.249 -0.4439 -0.0983 -0.2402
 1809SOL    HW1 7195   7.322   0.251   9.200 -0.2510 -0.5742 -0.9863
 1809SOL    HW2 7196   7.227   0.135   9.218 -1.7440  0.9847  1.7880
 1810SOL     OW 7197   2.412   5.075   5.733  1.2398 -0.3389  0.0666
 1810SOL    HW1 7198   2.422   5.066   5.828 -1.4647 -1.3580  0.3476
 1810SOL    HW2 7199   2.451   5.160   5.713 -1.1610  1.5915  2.7063
 1811SOL     OW 7200   2.033   9.603   4.883 -0.4463 -0.6295  0.0911
 1811SOL    HW1 7201   2.036   9.606   4.979 -0.2773  1.4692  0.0776
 1811SOL    HW2 7202   1.946   9.570   4.863 -0.5342 -0.9617  0.9713
 1812SOL     OW 7203   3.606   2.034   4.983 -0.7060  0.1744 -0.2309
 1812SOL    HW1 7204   3.520   2.011   4.948 -0.9028  1.6766 -0.7959
 1812SOL    HW2 7205   3.667   1.974   4.940 -1.5333 -1.5031  0.8258
 1813SOL     OW 7206   4.374   0.933   2.739 -0.3108 -0.1620 -0.3990
 1813SOL    HW1 7207   4.391   0.842   2.763 -2.7894 -0.4523  0.5073
 1813SOL    HW2 7208   4.291   0.954   2.780  1.6428  3.5963  2.3078
 1814SOL     OW 7209   2.424   0.452   1.479 -0.6914  0.1049  0.7144
 1814SOL    HW1 7210   2.352   0.514   1.467 -0.4313  0.1617 -0.6715
 1814SOL    HW2 7211   2.384   0.366   1.466 -0.5405  0.1276  0.1024
 1815SOL     OW 7212   8.912   7.376   1.574  0.6680  0.2914 -0.4056
 1815SOL    HW1 7213   8.869   7.461   1.578  2.9415  1.5588 -0.8709
 1815SOL    HW2 7214   8.919   7.348   1.665 -1.4897 -0.2179 -0.3415
 1816SOL     OW 7215   2.465   2.743   0.288 -0.4347  0.6948  0.1023
 1816SOL    HW1 7216   2.438   2.829   0.320 -0.1558  0.2537  1.5841
 1816SOL    HW2 7217   2.411   2.728   0.211  0.9330  3.0896 -1.4796
 1817SOL     OW 7218   3.261   0.527   8.443 -0.5245 -0.4589 -0.0974
 1817SOL    HW1 7219   3.343   0.566   8.412  0.0257 -2.0927 -0.7793
 1817SOL    HW2 7220   3.198   0.599   8.439  0.9736  0.9907  0.9942
 1818SOL     OW 7221   5.432   3.321   8.736 -1.0797 -0.4033 -0.0086
 1818SOL    HW1 7222   5.359   3.274   8.696 -0.3531 -1.5396 -0.0597
 1818SOL    HW2 7223   5.510   3.278   8.699 -0.3883  0.6025  0.2460
 1819SOL     OW 7224   8.282   0.310   8.180 -0.2787 -0.5574 -0.2313
 1819SOL    HW1 7225   8.366   0.269   8.159 -0.2198 -0.7821  0.4447
 1819SOL    HW2 7226   8.261   0.361   8.101  1.7308  1.5686  0.4947
 1820SOL     OW 7227   7.155   6.137   3.166  0.0462 -0.4135 -0.1112
 1820SOL    HW1 7228   7.153   6.130   3.070 -0.6972 -1.1978 -0.0483
 1820SOL    HW2 7229   7.217   6.208   3.183 -0.5306  0.3889 -1.2018
 1821SOL     OW 7230   6.940   4.581   6.455  0.5189 -0.3681  0.0647
 1821SOL    HW1 7231   6.857   4.627   6.447 -0.0564 -1.4054 -0.0641
 1821SOL    HW2 7232   7.000   4.646   6.493  0.2883  1.1211 -1.9663
 1822SOL     OW 7233   3.270   6.043   9.504  0.1075 -0.3278  0.6679
 1822SOL    HW1 7234   3.296   6.106   9.436  0.2458  0.1915  1.1921
 1822SOL    HW2 7235   3.188   6.078   9.538  1.2615  0.7923  2.4634
 1823SOL     OW 7236   3.995   1.009   3.544 -0.3463 -0.0843 -0.0504
 1823SOL    HW1 7237   4.018   1.036   3.633 -0.7967 -2.2852  0.8043
 1823SOL    HW2 7238   4.080   0.999   3.500 -0.0840  0.2260  0.3729
 1824SOL     OW 7239   3.658   9.586   8.124  0.1633  0.4985  0.3142
 1824SOL    HW1 7240   3.731   9.525   8.112 -0.4227  0.2241 -2.5584
 1824SOL    HW2 7241   3.593   9.536   8.173 -0.3407 -1.3380 -2.0385
 1825SOL     OW 7242   0.406   4.922   1.466  0.7986  0.0499  0.6707
 1825SOL    HW1 7243   0.413   4.845   1.523  1.2897  0.1824  0.7928
 1825SOL    HW2 7244   0.371   4.887   1.384 -1.7153  0.1205  1.6032
 1826SOL     OW 7245   9.791   7.449   3.146 -0.1473 -0.5751 -1.2482
 1826SOL    HW1 7246   9.835   7.411   3.070  0.3150 -0.4688 -1.0311
 1826SOL    HW2 7247   9.771   7.539   3.120  1.4817 -0.0093 -0.6585
 1827SOL     OW 7248   8.088   7.948   4.681 -0.0285  0.2181  0.0471
 1827SOL    HW1 7249   8.038   7.900   4.746  1.5458 -0.0192  1.1370
 1827SOL    HW2 7250   8.165   7.979   4.728  0.9982  0.3317 -1.6309
 1828SOL     OW 7251   4.867   2.349   6.694 -0.2574 -0.8254  0.3046
 1828SOL    HW1 7252   4.841   2.301   6.773  1.1890 -0.9687  0.7204
 1828SOL    HW2 7253   4.789   2.399   6.670 -0.2765  0.5884  2.8754
 1829SOL     OW 7254   9.234   2.553   2.647 -0.6004  0.3438  0.5228
 1829SOL    HW1 7255   9.256   2.472   2.692 -1.1685 -0.7108 -1.0278
 1829SOL    HW2 7256   9.289   2.553   2.569 -2.1892  0.2968 -0.6603
 1830SOL     OW 7257   9.836   2.283   2.053 -0.4755  0.4330 -0.3637
 1830SOL    HW1 7258   9.836   2.372   2.087  1.1852 -0.2648  1.7366
 1830SOL    HW2 7259   9.918   2.277   2.003  0.2250 -0.3233  0.8345
 1831SOL     OW 7260   5.607   2.482   0.872 -0.5286  0.0037  1.1500
 1831SOL    HW1 7261   5.645   2.457   0.956  0.6624 -0.1134  0.5972
 1831SOL    HW2 7262   5.624   2.576   0.865  2.1113 -0.4661 -0.2393
 1832SOL     OW 7263   0.692   2.649   1.515 -0.4292  0.6030 -0.0837
 1832SOL    HW1 7264   0.770   2.696   1.487 -1.1245  0.7986 -1.8249
 1832SOL    HW2 7265   0.685   2.574   1.456 -1.5644  0.6120 -0.0010
 1833SOL     OW 7266   9.016   8.171   0.844 -0.0844 -0.2857 -0.2734
 1833SOL    HW1 7267   9.102   8.130   0.830  0.0904 -0.0150 -0.0047
 1833SOL    HW2 7268   8.957   8.098   0.860  0.1406 -0.4634 -0.2526
 1834SOL     OW 7269   2.714   8.594   7.107 -0.2737 -0.2036  0.6725
 1834SOL    HW1 7270   2.728   8.688   7.124 -1.8731  0.5575 -1.6712
 1834SOL    HW2 7271   2.721   8.553   7.193  2.9706  1.6769  1.4772
 1835SOL     OW 7272   5.183   0.367   3.955  0.0516  0.0599 -0.4918
 1835SOL    HW1 7273   5.141   0.432   3.899  0.1104  0.4216 -0.1249
 1835SOL    HW2 7274   5.123   0.293   3.955 -0.4297  0.4376 -0.2508
 1836SOL     OW 7275   2.248   4.059   4.090 -0.0827  0.1029  0.1074
 1836SOL    HW1 7276   2.227   4.027   4.003  0.6111 -1.8626  0.6062
 1836SOL    HW2 7277   2.335   4.096   4.082  0.2317 -0.6213  0.0632
 1837SOL     OW 7278   4.398   6.802   4.398  0.4411 -1.1528 -0.6611
 1837SOL    HW1 7279   4.458   6.869   4.432 -0.0546 -0.2830 -1.4509
 1837SOL    HW2 7280   4.453   6.726   4.380  1.2705 -0.4585 -1.1096
 1838SOL     OW 7281   1.481   2.215   1.995  0.2286 -0.6923 -0.2388
 1838SOL    HW1 7282   1.504   2.220   1.902 -0.5006 -1.5697 -0.4783
 1838SOL    HW2 7283   1.558   2.177   2.038  0.7617  0.1833 -0.3927
 1839SOL     OW 7284   3.527   5.932   5.732  0.0955  0.1120 -0.0059
 1839SOL    HW1 7285   3.475   6.001   5.774  2.2624  1.2413  0.9603
 1839SOL    HW2 7286   3.482   5.851   5.756 -2.6563  1.0879 -1.3450
 1840SOL     OW 7287   4.198   2.792   0.202 -0.2849  0.0147 -0.2866
 1840SOL    HW1 7288   4.194   2.821   0.110  2.6835 -3.1507 -1.6388
 1840SOL    HW2 7289   4.266   2.847   0.241 -1.0898  0.9088 -0.0721
 1841SOL     OW 7290   1.623   9.332   4.079 -0.1388  0.2233  0.2987
 1841SOL    HW1 7291   1.610   9.399   4.013  2.2989 -0.8569 -1.4051
 1841SOL    HW2 7292   1.535   9.298   4.097 -0.9655  1.2326 -1.6331
 1842SOL     OW 7293   8.101   2.032   5.970 -0.0047  0.4125 -0.3405
 1842SOL    HW1 7294   8.045   2.110   5.975  1.9605  1.8877 -0.2025
 1842SOL    HW2 7295   8.129   2.029   5.879 -0.6746 -0.6127 -0.5262
 1843SOL     OW 7296   1.801   5.484   0.675  0.0675  0.1172 -0.3790
 1843SOL    HW1 7297   1.796   5.551   0.607  1.3025  0.8740  0.2594
 1843SOL    HW2 7298   1.833   5.406   0.629  1.4003  0.7695 -0.5795
 1844SOL     OW 7299   9.315   0.735   1.271  0.7143 -0.3618  0.2624
 1844SOL    HW1 7300   9.332   0.814   1.219 -0.4037 -0.4798 -0.3015
 1844SOL    HW2 7301   9.330   0.762   1.361  0.5567  0.4431  0.0587
 1845SOL     OW 7302   7.636   8.895   4.859 -0.2294 -0.1842  0.0304
 1845SOL    HW1 7303   7.613   8.955   4.788 -1.3724 -0.9114 -0.2266
 1845SOL    HW2 7304   7.553   8.867   4.896  0.3151 -0.9038  0.7603
 1846SOL     OW 7305   6.315   2.003   2.827  0.0861  0.5451 -0.4220
 1846SOL    HW1 7306   6.407   1.978   2.819  0.0580 -1.2238  2.9226
 1846SOL    HW2 7307   6.269   1.947   2.764  1.0600 -0.5277 -0.2095
 1847SOL     OW 7308   6.033   7.398   6.240 -0.3394 -0.1068  1.0953
 1847SOL    HW1 7309   6.025   7.303   6.232 -1.5781 -0.0396  1.2322
 1847SOL    HW2 7310   5.974   7.421   6.312 -1.4181  0.9326 -0.0790
 1848SOL     OW 7311   3.276   8.785   3.765  0.3554 -0.5491  0.4427
 1848SOL    HW1 7312   3.237   8.713   3.715 -0.2152 -0.8856  1.3544
 1848SOL    HW2 7313   3.370   8.777   3.749  0.1768 -0.5781 -0.6633
 1849SOL     OW 7314   3.282   5.204   9.293  0.3603 -0.0821 -0.1207
 1849SOL    HW1 7315   3.278   5.140   9.222  0.9536  0.6316 -0.8104
 1849SOL    HW2 7316   3.193   5.238   9.300  0.0367 -0.9651  0.2503
 1850SOL     OW 7317   0.770   4.681   7.460 -0.3136 -0.1686  0.3557
 1850SOL    HW1 7318   0.822   4.628   7.520  0.6207  0.6904  0.3369
 1850SOL    HW2 7319   0.821   4.761   7.448 -1.8211  0.8874  0.6253
 1851SOL     OW 7320   3.426   7.755   9.608  0.0620 -0.2265  0.3321
 1851SOL    HW1 7321   3.397   7.832   9.559 -1.2422 -0.6605  0.4023
 1851SOL    HW2 7322   3.368   7.685   9.579 -0.0527 -0.7273  1.7309
 1852SOL     OW 7323   4.853   8.675   4.148 -0.2973  0.1420 -0.0603
 1852SOL    HW1 7324   4.882   8.645   4.062  1.0046  0.4395  0.2581
 1852SOL    HW2 7325   4.925   8.653   4.207 -1.1992 -0.1287  0.9876
 1853SOL     OW 7326   3.819   4.032   1.230 -0.1383  0.0370 -0.1015
 1853SOL    HW1 7327   3.842   3.992   1.146 -1.1248 -0.1672 -0.2846
 1853SOL    HW2 7328   3.820   3.960   1.293  2.9796  0.5631  0.5959
 1854SOL     OW 7329   2.158   9.209   4.383  0.6462 -0.0021  0.3874
 1854SOL    HW1 7330   2.217   9.135   4.366 -0.5166 -0.9700  0.4534
 1854SOL    HW2 7331   2.089   9.201   4.317 -0.3494  0.0733  1.3899
 1855SOL     OW 7332   0.446   2.232   4.218 -0.0482  0.1001  0.4850
 1855SOL    HW1 7333   0.414   2.319   4.197  1.2667  0.3399 -0.6712
 1855SOL    HW2 7334   0.399   2.173   4.158  1.7369  0.4811 -1.4053
 1856SOL     OW 7335   6.899   5.962   3.915 -0.0718 -0.2009  0.1087
 1856SOL    HW1 7336   6.987   5.955   3.877  0.3273 -1.8279  1.2157
 1856SOL    HW2 7337   6.839   5.948   3.842  0.6507 -1.4682 -0.2746
 1857SOL     OW 7338   9.409   8.892   0.980 -0.0664  0.8126  0.1363
 1857SOL    HW1 7339   9.339   8.939   0.935 -0.0124  0.0124 -0.8090
 1857SOL    HW2 7340   9.471   8.960   1.005 -0.8936  1.4597  0.4782
 1858SOL     OW 7341   0.522   6.983   7.033  0.0958  0.3140  0.1053
 1858SOL    HW1 7342   0.551   6.988   6.942  2.8785 -0.0988  0.8727
 1858SOL    HW2 7343   0.579   6.917   7.073  0.3486  1.8945  2.5971
 1859SOL     OW 7344   8.455   3.210   3.106 -0.5113  0.3572  0.1392
 1859SOL    HW1 7345   8.441   3.264   3.184  3.2937 -0.3410  1.5231
 1859SOL    HW2 7346   8.429   3.122   3.133  0.0037  0.2633  0.3305
 1860SOL     OW 7347   4.219   3.073   4.396  0.1184  0.1266  0.3541
 1860SOL    HW1 7348   4.293   3.053   4.454 -0.0809 -0.2681  0.4760
 1860SOL    HW2 7349   4.154   3.006   4.418 -0.1834  0.3353  0.0845
 1861SOL     OW 7350   6.900   7.705   8.887 -0.4000  0.2244 -0.6114
 1861SOL    HW1 7351   6.861   7.671   8.968 -1.4201  0.4624 -0.9942
 1861SOL    HW2 7352   6.955   7.778   8.916 -0.4137  0.0386 -0.0962
 1862SOL     OW 7353   7.705   0.440   8.015  0.1266  0.2682 -0.6817
 1862SOL    HW1 7354   7.727   0.477   7.930  0.1841  0.7200 -0.4704
 1862SOL    HW2 7355   7.609   0.432   8.013  0.0266  1.2399 -0.4053
 1863SOL     OW 7356   7.117   4.381   9.004  1.0511  0.0216  0.0767
 1863SOL    HW1 7357   7.203   4.355   8.969  1.1019  1.2286 -0.7632
 1863SOL    HW2 7358   7.120   4.476   9.006  0.2595  0.0308  1.4596
 1864SOL     OW 7359   6.759   2.726   7.560 -0.0088 -0.2227 -0.1688
 1864SOL    HW1 7360   6.712   2.644   7.577 -0.1330 -0.5171 -1.7763
 1864SOL    HW2 7361   6.741   2.746   7.468  1.0685  0.9329 -0.1658
 1865SOL     OW 7362   1.670   0.426   2.723 -0.2356 -0.0731 -0.1424
 1865SOL    HW1 7363   1.737   0.418   2.790 -1.5624 -0.2800  1.2101
 1865SOL    HW2 7364   1.652   0.337   2.695  0.8762  0.0619 -1.4048
 1866SOL     OW 7365   4.576   3.191   0.228 -0.0147  0.6028 -0.2342
 1866SOL    HW1 7366   4.560   3.270   0.177  1.4608  1.0743 -0.0051
 1866SOL    HW2 7367   4.669   3.194   0.250 -0.3054 -0.2763  1.3216
 1867SOL     OW 7368   3.181   2.231   1.562  0.0825 -0.4525  0.6592
 1867SOL    HW1 7369   3.249   2.290   1.531 -0.5764 -0.5719 -1.1324
 1867SOL    HW2 7370   3.194   2.226   1.656  1.2943  1.0858  0.6003
 1868SOL     OW 7371   0.358   0.969   5.509 -0.1459  0.2353 -0.5068
 1868SOL    HW1 7372   0.379   0.942   5.599  1.1700 -2.0610 -1.4035
 1868SOL    HW2 7373   0.421   1.039   5.490  0.4704 -0.1912 -0.0684
 1869SOL     OW 7374   2.881   1.537   2.304  0.3548 -0.0510  0.4288
 1869SOL    HW1 7375   2.933   1.599   2.253 -0.1451  1.1075  1.2749
 1869SOL    HW2 7376   2.941   1.503   2.370  1.0973 -1.8070 -1.0552
 1870SOL     OW 7377   0.141   0.752   1.710  0.0082 -0.0606 -0.0997
 1870SOL    HW1 7378   0.173   0.680   1.656 -0.0824  0.8349 -1.3963
 1870SOL    HW2 7379   0.082   0.801   1.653 -0.2831  0.7943  0.8923
 1871SOL     OW 7380   7.964   5.216   5.946  0.2258  0.0761 -0.0759
 1871SOL    HW1 7381   7.910   5.195   6.022 -0.3070  2.2867  0.2328
 1871SOL    HW2 7382   7.921   5.174   5.872  0.3593 -1.5220  0.7258
 1872SOL     OW 7383   8.672   5.956   8.252 -0.2463 -0.4156  0.1160
 1872SOL    HW1 7384   8.756   6.001   8.254  0.9764 -2.5565  1.8667
 1872SOL    HW2 7385   8.694   5.863   8.247 -2.5021 -1.0519  0.5420
 1873SOL     OW 7386   3.745   7.124   7.909 -0.3510 -0.6754 -0.3373
 1873SOL    HW1 7387   3.781   7.205   7.871  1.2403 -1.6620 -1.0167
 1873SOL    HW2 7388   3.669   7.105   7.855 -0.9260  0.5037  0.0121
 1874SOL     OW 7389   5.880   6.372   6.195  0.0617  0.8167  0.7833
 1874SOL    HW1 7390   5.854   6.428   6.267  1.0921  1.5099  0.6443
 1874SOL    HW2 7391   5.940   6.308   6.235 -0.5671  0.2241  0.8106
 1875SOL     OW 7392   4.598   5.119   2.467  0.2386  0.4597 -0.0944
 1875SOL    HW1 7393   4.618   5.183   2.534 -3.5456 -0.2370  1.9677
 1875SOL    HW2 7394   4.512   5.144   2.434  0.4293 -1.2779 -2.1781
 1876SOL     OW 7395   6.758   2.017   5.909 -0.4123  0.1558  0.0937
 1876SOL    HW1 7396   6.669   2.006   5.942 -1.1382 -0.0815 -1.8756
 1876SOL    HW2 7397   6.794   2.088   5.963 -1.7390  0.2092  0.9649
 1877SOL     OW 7398   3.330   5.537   2.089  0.3675 -0.1213 -0.6279
 1877SOL    HW1 7399   3.270   5.612   2.088 -0.8628 -1.0660 -1.4945
 1877SOL    HW2 7400   3.361   5.532   2.180  0.1939  1.2036 -0.4800
 1878SOL     OW 7401   5.241   9.452   4.392  0.6531 -0.0036  0.6576
 1878SOL    HW1 7402   5.195   9.533   4.372 -0.3742 -1.0496 -1.5298
 1878SOL    HW2 7403   5.322   9.457   4.341  1.9840  0.8167  2.7157
 1879SOL     OW 7404   4.486   4.498   7.150 -0.0056 -0.0147 -0.4325
 1879SOL    HW1 7405   4.434   4.429   7.190  0.7349 -0.3291  0.0116
 1879SOL    HW2 7406   4.567   4.455   7.124  0.4759  0.6918 -0.1281
 1880SOL     OW 7407   0.329   0.747   5.163 -0.3297 -0.3037  0.6207
 1880SOL    HW1 7408   0.404   0.792   5.202 -0.6639 -0.0781  1.0166
 1880SOL    HW2 7409   0.360   0.657   5.148 -0.4625 -0.6687  2.2814
 1881SOL     OW 7410   3.443   9.383   9.537  0.1148 -0.1915  0.1182
 1881SOL    HW1 7411   3.408   9.300   9.505 -1.1299 -0.2019  1.3709
 1881SOL    HW2 7412   3.523   9.358   9.584  0.7669 -0.4280 -1.0843
 1882SOL     OW 7413   2.396   6.841   1.730 -0.2471 -0.1234 -0.8112
 1882SOL    HW1 7414   2.314   6.826   1.682 -1.9485 -2.4516  2.4193
 1882SOL    HW2 7415   2.380   6.922   1.779 -0.2844 -0.1343 -0.8049
 1883SOL     OW 7416   2.593   4.272   9.433  0.4218 -0.9700 -0.2433
 1883SOL    HW1 7417   2.499   4.252   9.434  0.5661 -1.7098 -0.7029
 1883SOL    HW2 7418   2.599   4.362   9.465 -0.3484 -1.3199  0.9503
 1884SOL     OW 7419   4.363   0.280   8.863  0.3907  0.3134 -0.1351
 1884SOL    HW1 7420   4.449   0.240   8.855 -0.3384 -1.1735 -0.9774
 1884SOL    HW2 7421   4.344   0.317   8.777  0.4492  1.2400  0.2344
 1885SOL     OW 7422   4.225   9.374   3.392  0.3799 -0.0053 -0.0357
 1885SOL    HW1 7423   4.157   9.353   3.328 -0.0108 -0.7447  0.6150
 1885SOL    HW2 7424   4.190   9.449   3.440 -0.4610 -1.0186  0.9884
 1886SOL     OW 7425   5.322   4.982   7.626 -0.2724 -0.3975  0.4877
 1886SOL    HW1 7426   5.264   4.906   7.619 -1.4704  0.6146 -1.0736
 1886SOL    HW2 7427   5.362   4.990   7.540  0.9698 -0.1009  1.0744
 1887SOL     OW 7428   4.855   3.795   3.930 -0.4752 -0.1567 -0.0294
 1887SOL    HW1 7429   4.928   3.804   3.991 -1.1484 -1.7992  1.0987
 1887SOL    HW2 7430   4.784   3.758   3.983 -1.2965 -1.0193 -1.6547
 1888SOL     OW 7431   7.686   2.284   1.550 -0.0774 -0.4855 -0.1723
 1888SOL    HW1 7432   7.704   2.213   1.612 -0.9591 -2.5624 -2.1486
 1888SOL    HW2 7433   7.596   2.271   1.523  0.5952 -0.4087 -2.7380
 1889SOL     OW 7434   3.241   8.654   5.762 -0.7162 -0.1881 -0.2082
 1889SOL    HW1 7435   3.254   8.709   5.685 -0.9317  0.2068  0.0324
 1889SOL    HW2 7436   3.292   8.575   5.744  0.5287  0.5521 -0.0700
 1890SOL     OW 7437   7.510   3.172   4.837  0.1863  0.3925 -0.5905
 1890SOL    HW1 7438   7.415   3.169   4.834  0.1911 -1.1446 -0.1824
 1890SOL    HW2 7439   7.535   3.229   4.764 -0.9802 -0.8223 -1.9997
 1891SOL     OW 7440   9.423   8.144   1.678 -0.3207 -0.6249 -0.0342
 1891SOL    HW1 7441   9.456   8.076   1.619 -0.1082  1.0825 -1.9821
 1891SOL    HW2 7442   9.396   8.215   1.620  1.6066  1.9308  1.9563
 1892SOL     OW 7443   9.038   0.035   9.116  0.4827  0.1177  0.2301
 1892SOL    HW1 7444   9.088   0.117   9.110 -0.5936  0.7884  0.1365
 1892SOL    HW2 7445   8.951   0.058   9.083  0.3841 -1.2618 -0.5354
 1893SOL     OW 7446   9.710   0.032   3.542 -0.1087  0.1993 -0.1744
 1893SOL    HW1 7447   9.787   0.088   3.535 -1.3593  2.2478  1.2289
 1893SOL    HW2 7448   9.703  -0.011   3.456  1.3060  1.7063 -1.0903
 1894SOL     OW 7449   7.115   6.354   2.467  0.3080 -0.2401  0.2995
 1894SOL    HW1 7450   7.053   6.290   2.504 -2.2122  2.3908  1.0155
 1894SOL    HW2 7451   7.152   6.310   2.390 -1.0286 -2.6458  0.9168
 1895SOL     OW 7452   0.931   0.455   3.029 -0.5639  0.1236  0.9767
 1895SOL    HW1 7453   1.017   0.492   3.049 -0.5203  0.3369  0.4082
 1895SOL    HW2 7454   0.949   0.383   2.970 -0.9351  1.8142 -1.3424
 1896SOL     OW 7455   6.636   7.306   1.696 -0.2220 -0.5678 -0.5991
 1896SOL    HW1 7456   6.575   7.251   1.645  0.1069 -2.6029  1.0564
 1896SOL    HW2 7457   6.579   7.355   1.755 -0.5819  1.5919 -2.5899
 1897SOL     OW 7458   7.554   6.295   3.156 -0.0741 -0.1049 -1.0625
 1897SOL    HW1 7459   7.609   6.220   3.176  1.7209  1.2210 -0.7870
 1897SOL    HW2 7460   7.545   6.295   3.061  0.8256 -0.0587 -1.1497
 1898SOL     OW 7461   3.130   7.916   9.533 -0.0397 -0.6929  0.3677
 1898SOL    HW1 7462   3.039   7.888   9.526 -0.0209 -0.4847 -0.9714
 1898SOL    HW2 7463   3.174   7.872   9.461  1.2461 -1.9210  1.8259
 1899SOL     OW 7464   1.480   1.840   6.794 -0.1758 -0.0064 -0.0148
 1899SOL    HW1 7465   1.468   1.928   6.829  3.5421 -0.2093  2.2425
 1899SOL    HW2 7466   1.419   1.786   6.845 -0.9688  0.9462  0.0764
 1900SOL     OW 7467   9.217   9.057   2.854 -0.7104  0.5940 -0.1016
 1900SOL    HW1 7468   9.262   8.998   2.914 -0.9322 -1.2116 -1.6191
 1900SOL    HW2 7469   9.218   9.142   2.898  3.1516  0.4227  0.4658
 1901SOL     OW 7470   1.344   5.817   3.693 -0.2406 -1.0031  0.1111
 1901SOL    HW1 7471   1.250   5.835   3.692 -0.3060 -1.2689  0.7246
 1901SOL    HW2 7472   1.384   5.901   3.715 -0.3080 -0.7946 -0.5649
 1902SOL     OW 7473   5.970   1.844   4.799 -0.0649 -0.2550 -0.2994
 1902SOL    HW1 7474   5.962   1.819   4.891  0.2491 -0.8489 -0.4346
 1902SOL    HW2 7475   5.880   1.864   4.772 -0.0448  0.9155  0.4049
 1903SOL     OW 7476   1.516   1.522   5.799  0.0993 -0.2488  0.9554
 1903SOL    HW1 7477   1.580   1.469   5.847  1.5900  0.4950 -0.1278
 1903SOL    HW2 7478   1.500   1.473   5.718 -0.2222 -0.1242  0.9413
 1904SOL     OW 7479   8.318   5.231   0.723 -0.1431 -0.6307 -0.2858
 1904SOL    HW1 7480   8.350   5.142   0.707  3.3951  0.4684 -0.1603
 1904SOL    HW2 7481   8.341   5.248   0.815  0.4475  0.8293 -0.6771
 1905SOL     OW 7482   7.570   7.383   6.141  0.3142  0.2082 -0.3213
 1905SOL    HW1 7483   7.535   7.313   6.197  0.5505  0.9826  0.8142
 1905SOL    HW2 7484   7.572   7.344   6.053  0.7929 -1.3484  0.3435
 1906SOL     OW 7485   9.041   1.852   4.064 -0.0846 -0.7564  0.0929
 1906SOL    HW1 7486   9.107   1.915   4.036  0.8100 -2.2198 -1.2665
 1906SOL    HW2 7487   8.968   1.865   4.004  0.1685 -1.1243 -0.2963
 1907SOL     OW 7488   4.769   3.358   5.039 -0.0530 -0.0346  0.4723
 1907SOL    HW1 7489   4.698   3.293   5.048 -1.0370  1.3065  3.3695
 1907SOL    HW2 7490   4.724   3.442   5.039  1.4241  0.7936 -0.3248
 1908SOL     OW 7491   4.335   0.728   7.771 -0.4753 -0.4882 -0.5835
 1908SOL    HW1 7492   4.287   0.670   7.712  0.2619 -1.9637  0.2122
 1908SOL    HW2 7493   4.324   0.815   7.733 -4.6230 -0.5038  0.0621
 1909SOL     OW 7494   3.494   0.811   3.420  0.3337  0.0781  0.0699
 1909SOL    HW1 7495   3.580   0.776   3.444  0.2170  0.7410  1.5839
 1909SOL    HW2 7496   3.432   0.758   3.469 -0.0281  0.4406  0.0104
 1910SOL     OW 7497   2.849   4.276   1.261  0.4134  0.7093 -0.3218
 1910SOL    HW1 7498   2.942   4.257   1.261 -0.1694 -2.8441 -0.7379
 1910SOL    HW2 7499   2.822   4.265   1.170 -0.8056 -1.1744  0.2065
 1911SOL     OW 7500   9.433   6.918   3.633  0.3913 -0.0087 -0.1084
 1911SOL    HW1 7501   9.490   6.946   3.561 -0.3895  0.9670 -0.3726
 1911SOL    HW2 7502   9.375   6.993   3.648  0.3362 -0.3115  1.3447
 1912SOL     OW 7503   0.201   5.444   4.080  0.1860  0.4430 -0.0100
 1912SOL    HW1 7504   0.212   5.413   4.170 -0.4504 -0.2617 -0.1643
 1912SOL    HW2 7505   0.124   5.501   4.084 -0.2370 -0.1028 -0.2198
 1913SOL     OW 7506   6.538   8.119   4.179  0.3936 -0.0599 -0.3956
 1913SOL    HW1 7507   6.535   8.088   4.269  0.7140 -0.5563 -0.5506
 1913SOL    HW2 7508   6.520   8.213   4.185  0.5427 -0.0659  0.1952
 1914SOL     OW 7509   9.663   0.033   1.974  0.5612 -0.3675 -0.2072
 1914SOL    HW1 7510   9.715   0.113   1.969  0.5204 -0.2380  1.1062
 1914SOL    HW2 7511   9.652   0.017   2.067 -0.1399 -1.4535 -0.4534
 1915SOL     OW 7512   1.847   5.022   8.367  0.4026 -0.3525  0.2599
 1915SOL    HW1 7513   1.834   5.055   8.278 -1.5900 -1.6149  0.0163
 1915SOL    HW2 7514   1.865   5.100   8.419 -3.7935  1.2442 -0.3308
 1916SOL     OW 7515   7.682   2.531   8.525  0.4528 -0.4758 -0.4707
 1916SOL    HW1 7516   7.754   2.493   8.575  0.1660  0.8490  1.0409
 1916SOL    HW2 7517   7.720   2.549   8.439  0.8550 -3.1637 -0.9435
 1917SOL     OW 7518   2.635   8.560   7.396  0.2961  0.1995  0.4528
 1917SOL    HW1 7519   2.695   8.551   7.471  1.6203  0.2065 -0.5639
 1917SOL    HW2 7520   2.567   8.619   7.427  0.4555 -0.3064  1.8655
 1918SOL     OW 7521   3.429   0.640   9.618 -0.5435 -0.3819 -0.1546
 1918SOL    HW1 7522   3.410   0.557   9.575 -0.6098 -0.4687  0.0414
 1918SOL    HW2 7523   3.444   0.617   9.710  1.8131 -0.5007 -0.5187
 1919SOL     OW 7524   1.606   2.279   7.704 -0.5196 -0.1878  0.4722
 1919SOL    HW1 7525   1.622   2.265   7.797 -1.5905 -1.4644  0.5012
 1919SOL    HW2 7526   1.670   2.346   7.678  0.6438 -0.7215  1.8256
 1920SOL     OW 7527   6.208   8.453   8.664 -0.0921  0.8098  0.0808
 1920SOL    HW1 7528   6.214   8.382   8.601  2.7352  1.1223 -0.1350
 1920SOL    HW2 7529   6.186   8.411   8.747  0.2786 -0.1582 -0.3047
 1921SOL     OW 7530   0.568   9.534   3.550 -0.3593  0.3229  0.2255
 1921SOL    HW1 7531   0.493   9.558   3.603 -0.9763 -1.5599  0.2710
 1921SOL    HW2 7532   0.530   9.505   3.467  0.3297 -0.4519  0.1731
 1922SOL     OW 7533   6.120   5.693   4.099  0.4168  0.2360 -0.2774
 1922SOL    HW1 7534   6.163   5.623   4.050 -0.7440 -1.4149  0.9489
 1922SOL    HW2 7535   6.110   5.658   4.187 -2.6204  0.8743 -0.2736
 1923SOL     OW 7536   4.807   2.953   7.252  0.3395 -0.5477  0.1050
 1923SOL    HW1 7537   4.821   3.017   7.321 -1.8291  0.5392 -0.3633
 1923SOL    HW2 7538   4.808   2.868   7.297 -0.0376  0.0674  1.3076
 1924SOL     OW 7539   8.271   2.515   3.741  0.3786 -0.5715 -0.1757
 1924SOL    HW1 7540   8.268   2.446   3.674 -1.2291 -2.1176  1.3692
 1924SOL    HW2 7541   8.183   2.553   3.739  1.2221  1.4655 -0.9562
 1925SOL     OW 7542   5.327   7.220   7.213 -0.6221  0.0898 -0.8129
 1925SOL    HW1 7543   5.423   7.226   7.206 -0.6318  0.7174 -0.4456
 1925SOL    HW2 7544   5.297   7.310   7.217 -0.9892 -0.0506  1.8848
 1926SOL     OW 7545   9.106   6.897   5.108 -0.0550 -0.3650 -0.0320
 1926SOL    HW1 7546   9.171   6.953   5.066  0.3361 -1.7179 -1.3107
 1926SOL    HW2 7547   9.124   6.809   5.075 -2.8637 -0.7363 -0.9098
 1927SOL     OW 7548   9.361   2.646   2.932  0.1398  0.0034  0.0305
 1927SOL    HW1 7549   9.450   2.633   2.901 -0.6163 -2.2898 -1.4792
 1927SOL    HW2 7550   9.329   2.721   2.882  1.1892  0.8203  0.5638
 1928SOL     OW 7551   3.142   8.821   7.189  0.0316  0.3946  0.0170
 1928SOL    HW1 7552   3.163   8.911   7.166  2.5204 -0.0187  0.3801
 1928SOL    HW2 7553   3.214   8.793   7.245 -0.7517 -1.7781  0.0468
 1929SOL     OW 7554   2.203   9.060   7.487 -0.1269  0.7911 -0.0081
 1929SOL    HW1 7555   2.127   9.016   7.526 -0.0308  0.4274 -0.2264
 1929SOL    HW2 7556   2.212   9.142   7.536 -0.6196  0.8035  0.0615
 1930SOL     OW 7557   4.134   4.957   2.254 -0.1021  0.5888 -0.0268
 1930SOL    HW1 7558   4.204   5.020   2.270 -1.6185  2.3833 -0.1294
 1930SOL    HW2 7559   4.059   5.010   2.227 -1.1880 -1.3527 -1.0725
 1931SOL     OW 7560   8.237   5.929   9.686  0.4657  0.5807 -0.5334
 1931SOL    HW1 7561   8.158   5.944   9.739 -0.3056 -1.5428 -0.9709
 1931SOL    HW2 7562   8.214   5.964   9.600  0.1704  0.4127 -0.5271
 1932SOL     OW 7563   9.055   0.790   5.288 -0.1648  0.2633  0.3224
 1932SOL    HW1 7564   9.077   0.812   5.197 -0.1039  0.6686  0.4294
 1932SOL    HW2 7565   8.976   0.737   5.282  0.3896 -0.5366 -0.0264
 1933SOL     OW 7566   3.085   2.219   8.533  0.6099 -0.3097  0.4799
 1933SOL    HW1 7567   3.089   2.135   8.580 -1.3539 -0.3311  0.6974
 1933SOL    HW2 7568   2.992   2.242   8.534  0.5187 -0.0508 -2.9606
 1934SOL     OW 7569   2.367   4.696   8.816  0.5059 -0.7644 -0.0875
 1934SOL    HW1 7570   2.345   4.756   8.887  0.3690  0.2585 -0.9673
 1934SOL    HW2 7571   2.283   4.677   8.773  0.9394  1.5251 -2.1866
 1935SOL     OW 7572   4.706   9.000   7.387  0.0150 -0.1018 -0.3284
 1935SOL    HW1 7573   4.698   9.086   7.348  0.2723  0.3826  0.6526
 1935SOL    HW2 7574   4.615   8.969   7.396 -0.0497 -0.1695 -1.1664
 1936SOL     OW 7575   0.343   2.634   1.123 -0.5232  0.2877  0.0992
 1936SOL    HW1 7576   0.413   2.568   1.122  0.2926  0.9293  3.1889
 1936SOL    HW2 7577   0.273   2.595   1.071  0.2503 -2.7018  1.0864
 1937SOL     OW 7578   8.902   7.840   7.001 -0.3462  0.1620  0.4971
 1937SOL    HW1 7579   8.951   7.824   6.921  1.2245  4.0924  0.4704
 1937SOL    HW2 7580   8.968   7.840   7.070 -1.5173 -2.0068  1.7273
 1938SOL     OW 7581   2.432   2.939   0.722 -0.6690 -0.3461 -0.5872
 1938SOL    HW1 7582   2.373   2.866   0.741  0.6160 -1.1282  0.5841
 1938SOL    HW2 7583   2.519   2.899   0.720  0.1924  1.3160  1.1241
 1939SOL     OW 7584   1.037   6.554   9.626  0.2103 -0.3867 -0.4844
 1939SOL    HW1 7585   1.091   6.477   9.608  2.1108  0.9373 -0.7645
 1939SOL    HW2 7586   0.947   6.523   9.618  0.9145 -2.5698 -0.5456
 1940SOL     OW 7587   2.051   4.741   9.246  0.0279 -0.1051 -0.7964
 1940SOL    HW1 7588   1.986   4.711   9.309  1.6433 -1.3736  0.3505
 1940SOL    HW2 7589   2.037   4.684   9.170 -0.5130 -0.0383 -0.7544
 1941SOL     OW 7590   8.817   4.834   7.555  0.5918 -0.7839  0.1420
 1941SOL    HW1 7591   8.736   4.839   7.606 -0.4941  1.5962 -1.6189
 1941SOL    HW2 7592   8.886   4.860   7.617  0.0485 -2.5468  1.5777
 1942SOL     OW 7593   3.006   9.480   1.086  0.0113 -0.4955  0.2829
 1942SOL    HW1 7594   3.058   9.543   1.135  0.3893  0.3286 -1.1281
 1942SOL    HW2 7595   2.915   9.507   1.102  0.0939 -0.6816  1.0975
 1943SOL     OW 7596   3.371   2.493   6.082  0.3815  0.6939  0.4275
 1943SOL    HW1 7597   3.417   2.573   6.107 -1.3552  1.8206  0.1719
 1943SOL    HW2 7598   3.308   2.477   6.152 -1.0386  1.0192 -0.7241
 1944SOL     OW 7599   6.867   4.824   4.626  0.0148  0.4220  0.0235
 1944SOL    HW1 7600   6.925   4.898   4.611  2.1916 -0.6235  2.4779
 1944SOL    HW2 7601   6.886   4.763   4.555  0.1293  1.0925 -0.5286
 1945SOL     OW 7602   3.542   3.342   5.662  0.0156 -0.0634 -0.1953
 1945SOL    HW1 7603   3.572   3.251   5.673  2.2171  0.7207  0.8262
 1945SOL    HW2 7604   3.465   3.349   5.719  0.3890 -1.0445  0.4595
 1946SOL     OW 7605   1.931   9.500   7.556 -0.0632 -0.6118  0.8422
 1946SOL    HW1 7606   1.985   9.560   7.608 -1.1130 -0.2118  1.5118
 1946SOL    HW2 7607   1.869   9.464   7.619  0.8877 -2.8619  0.5815
 1947SOL     OW 7608   8.570   2.584   8.168  0.0927  0.5668 -0.1149
 1947SOL    HW1 7609   8.532   2.657   8.216 -1.1455 -0.0276 -0.1521
 1947SOL    HW2 7610   8.654   2.568   8.211 -0.5223  0.7224  1.1850
 1948SOL     OW 7611   7.080   7.656   8.152  0.7254  0.2388  0.4900
 1948SOL    HW1 7612   7.139   7.668   8.227  0.2496  1.2879  0.7135
 1948SOL    HW2 7613   7.114   7.578   8.108  1.7686  0.3285  1.0859
 1949SOL     OW 7614   4.343   6.307   6.026 -0.4348 -0.2849 -0.3577
 1949SOL    HW1 7615   4.364   6.222   6.066  1.5881  0.1279 -0.4648
 1949SOL    HW2 7616   4.370   6.298   5.935 -1.8815 -0.0781 -0.8397
 1950SOL     OW 7617   1.936   5.911   8.735 -0.6303  0.1162  0.0315
 1950SOL    HW1 7618   1.948   5.988   8.679  0.3019  0.6151  0.8852
 1950SOL    HW2 7619   2.021   5.898   8.777 -0.8981 -1.1310  0.2356
 1951SOL     OW 7620   5.905   5.874   0.094 -0.7974  0.4344  0.2653
 1951SOL    HW1 7621   5.949   5.804   0.142 -0.4264  1.2353  1.1324
 1951SOL    HW2 7622   5.939   5.867   0.005 -0.5059 -0.2778  0.4258
 1952SOL     OW 7623   1.024   3.427   8.448  0.4449 -0.4682  0.3977
 1952SOL    HW1 7624   0.967   3.470   8.385 -0.7398 -2.6347 -0.1059
 1952SOL    HW2 7625   0.965   3.381   8.507  1.6150 -2.1089  0.3657
 1953SOL     OW 7626   0.127   2.978   4.491  0.0899  0.1119  0.0672
 1953SOL    HW1 7627   0.141   3.064   4.531  0.0633  0.5263 -0.8032
 1953SOL    HW2 7628   0.037   2.956   4.515 -0.4346  1.0199 -0.9443
 1954SOL     OW 7629   9.232   7.988   0.889  0.2381  0.1773 -0.4384
 1954SOL    HW1 7630   9.297   8.020   0.827 -1.6818  0.7667 -2.2597
 1954SOL    HW2 7631   9.176   7.930   0.838 -0.9018  0.0026  0.9489
 1955SOL     OW 7632   0.076   1.456   9.097 -0.1810 -0.3893 -0.3440
 1955SOL    HW1 7633  -0.017   1.474   9.110  0.1941  0.0481  2.0274
 1955SOL    HW2 7634   0.111   1.538   9.062 -0.6788 -0.6233 -1.4521
 1956SOL     OW 7635   3.001   2.176   1.373  0.0486 -0.7593 -0.1951
 1956SOL    HW1 7636   2.977   2.084   1.359 -0.5066 -0.4724 -1.2221
 1956SOL    HW2 7637   3.073   2.172   1.436  1.1359 -2.0131 -1.4350
 1957SOL     OW 7638   9.563   7.240   6.619 -0.2932  0.7427 -0.4732
 1957SOL    HW1 7639   9.622   7.231   6.543  1.7052 -0.7952  1.1483
 1957SOL    HW2 7640   9.610   7.299   6.678 -2.0714  2.3604 -0.5699
 1958SOL     OW 7641   7.151   6.714   8.989 -0.5956 -0.7699  0.1377
 1958SOL    HW1 7642   7.225   6.766   9.019 -0.4849 -0.7595 -0.1598
 1958SOL    HW2 7643   7.103   6.693   9.070 -0.7296 -0.0766  0.2478
 1959SOL     OW 7644   2.097   8.387   3.375  0.8434 -0.4324  0.5244
 1959SOL    HW1 7645   2.188   8.362   3.360  0.9869  1.0781 -1.4979
 1959SOL    HW2 7646   2.095   8.481   3.357 -1.0389 -0.3518  1.0052
 1960SOL     OW 7647   3.071   4.714   6.022  0.2308 -0.2130 -0.5012
 1960SOL    HW1 7648   3.009   4.690   6.091  2.0390 -0.9467  0.9425
 1960SOL    HW2 7649   3.066   4.810   6.018 -0.7746 -0.2376 -0.2364
 1961SOL     OW 7650   1.767   6.835   0.032  0.0671  0.4101  0.3497
 1961SOL    HW1 7651   1.720   6.780   0.094 -0.4165  1.3992  0.8836
 1961SOL    HW2 7652   1.715   6.915   0.026  0.8568  0.8988 -0.2499
 1962SOL     OW 7653   9.022   8.665   1.257 -0.2524  0.3985  0.6283
 1962SOL    HW1 7654   9.044   8.757   1.239 -1.7642  0.7796  0.6556
 1962SOL    HW2 7655   9.096   8.616   1.221 -0.5043  1.4877 -1.5496
 1963SOL     OW 7656   2.317   0.119   8.527  0.8847  0.3589  0.6649
 1963SOL    HW1 7657   2.405   0.145   8.555  1.0221 -0.1876  0.7587
 1963SOL    HW2 7658   2.284   0.193   8.476  1.0497  0.9405  1.3810
 1964SOL     OW 7659   2.208   6.511   0.907 -0.2939 -0.5232 -0.5870
 1964SOL    HW1 7660   2.238   6.459   0.982 -1.2435 -1.4962 -0.8477
 1964SOL    HW2 7661   2.285   6.560   0.879  0.1626 -0.4016  0.8121
 1965SOL     OW 7662   6.618   2.229   0.631  0.5015  0.1436 -0.7628
 1965SOL    HW1 7663   6.651   2.267   0.712 -0.9535  1.9313 -0.9359
 1965SOL    HW2 7664   6.638   2.135   0.638 -0.4980  0.0620  2.1367
 1966SOL     OW 7665   7.659   6.257   8.577  0.8758 -0.1976  0.2512
 1966SOL    HW1 7666   7.587   6.198   8.599  1.4418 -2.0949 -2.5050
 1966SOL    HW2 7667   7.624   6.344   8.594 -2.1000 -1.0240 -0.9453
 1967SOL     OW 7668   8.683   4.434   6.866  0.6706  0.1594  0.2154
 1967SOL    HW1 7669   8.684   4.484   6.947  1.1443  1.7905 -0.7428
 1967SOL    HW2 7670   8.737   4.485   6.805  1.6850 -1.8414 -0.6655
 1968SOL     OW 7671   8.472   4.455   5.528 -0.1136 -0.3932 -0.8258
 1968SOL    HW1 7672   8.530   4.500   5.590  0.6536 -2.1488 -0.1940
 1968SOL    HW2 7673   8.423   4.393   5.582  0.7984 -2.1965 -1.9483
 1969SOL     OW 7674   5.598   3.691   3.862  0.3823  0.2772  0.5555
 1969SOL    HW1 7675   5.576   3.747   3.787 -0.4617 -0.4742  0.2237
 1969SOL    HW2 7676   5.523   3.634   3.872  1.5131 -1.3051  0.4178
 1970SOL     OW 7677   8.160   8.461   1.435  0.1670 -0.2076 -0.7168
 1970SOL    HW1 7678   8.144   8.372   1.402  2.3734 -2.5254  3.6335
 1970SOL    HW2 7679   8.255   8.467   1.444  0.0299  2.4032 -0.2528
 1971SOL     OW 7680   0.584   3.364   0.664  0.1971 -0.0746  0.3200
 1971SOL    HW1 7681   0.516   3.363   0.732  1.4117 -1.0868  1.5624
 1971SOL    HW2 7682   0.570   3.447   0.618 -1.5640 -0.0332  0.8533
 1972SOL     OW 7683   0.662   4.453   6.451  0.3923  0.3855 -0.4849
 1972SOL    HW1 7684   0.633   4.424   6.537  1.2737  0.1639 -0.2595
 1972SOL    HW2 7685   0.698   4.375   6.410  0.5879  0.6395 -0.8007
 1973SOL     OW 7686   3.130   4.915   1.118  0.2736 -0.3137 -0.0118
 1973SOL    HW1 7687   3.127   4.938   1.025 -0.1029  0.3931  0.1703
 1973SOL    HW2 7688   3.070   4.976   1.160 -0.5363 -1.4558  0.5432
 1974SOL     OW 7689   8.019   3.696   5.295 -0.3790  0.4600  0.3953
 1974SOL    HW1 7690   8.074   3.680   5.218 -0.7087  0.4487  0.1645
 1974SOL    HW2 7691   8.080   3.690   5.368 -0.1023  0.2530  0.1531
 1975SOL     OW 7692   0.463   1.502   7.165 -0.2604  0.3658 -0.9246
 1975SOL    HW1 7693   0.505   1.535   7.086  0.1591 -0.2376 -0.9628
 1975SOL    HW2 7694   0.486   1.565   7.233 -0.3988  0.7426 -1.2223
 1976SOL     OW 7695   8.498   7.878   6.039  0.6320  0.2640 -0.1842
 1976SOL    HW1 7696   8.552   7.954   6.018 -0.6431  1.1600 -0.3829
 1976SOL    HW2 7697   8.498   7.874   6.135 -0.5452  1.5118 -0.0954
 1977SOL     OW 7698   8.962   2.679   7.139  0.1534 -0.3475 -0.0054
 1977SOL    HW1 7699   9.005   2.664   7.055  0.3135 -0.3064  0.0694
 1977SOL    HW2 7700   8.871   2.655   7.123 -0.0603  0.7441 -0.5012
 1978SOL     OW 7701   4.902   6.706   2.473  0.2935  0.4091  0.0071
 1978SOL    HW1 7702   4.993   6.726   2.492 -0.2551  2.2874  0.9972
 1978SOL    HW2 7703   4.891   6.726   2.380  0.9419 -0.0802 -0.1773
 1979SOL     OW 7704   7.903   0.690   8.978  0.4743 -0.7172  0.1072
 1979SOL    HW1 7705   7.935   0.624   8.916 -3.0261  0.1550 -2.9611
 1979SOL    HW2 7706   7.961   0.766   8.964  0.5407 -0.9831 -1.1740
 1980SOL     OW 7707   8.063   8.002   0.214 -0.5327  0.4103 -0.4183
 1980SOL    HW1 7708   7.988   7.943   0.215 -0.6469  0.5079  1.8452
 1980SOL    HW2 7709   8.135   7.950   0.251  0.3766  0.5534 -1.8697
 1981SOL     OW 7710   6.962   7.896   5.768  1.2495 -0.0844 -0.4241
 1981SOL    HW1 7711   7.016   7.819   5.786  0.2382 -1.2199 -1.9679
 1981SOL    HW2 7712   6.977   7.915   5.675 -0.0269  0.3498 -0.5663
 1982SOL     OW 7713   4.672   5.491   7.188  0.5449  0.3796 -0.0095
 1982SOL    HW1 7714   4.726   5.482   7.267  1.3518  0.0076 -0.5788
 1982SOL    HW2 7715   4.725   5.450   7.119 -0.7378 -0.5512 -0.4780
 1983SOL     OW 7716   4.216   2.831   2.489 -0.7705 -0.1163  0.1621
 1983SOL    HW1 7717   4.225   2.866   2.577 -0.4729  0.5068 -0.1069
 1983SOL    HW2 7718   4.298   2.784   2.473 -0.8755 -0.3349  0.2583
 1984SOL     OW 7719   5.958   7.778   8.366 -0.2628  0.1418  0.0836
 1984SOL    HW1 7720   5.873   7.799   8.328 -0.8126 -1.4727  0.3679
 1984SOL    HW2 7721   5.952   7.686   8.391  1.9593 -0.3637 -0.9566
 1985SOL     OW 7722   0.543   9.668   8.290 -0.7891 -0.5907 -0.9509
 1985SOL    HW1 7723   0.505   9.734   8.348 -1.4614 -0.6516 -1.3099
 1985SOL    HW2 7724   0.482   9.663   8.216  0.6123  0.2896 -2.2112
 1986SOL     OW 7725   8.472   7.239   7.006 -0.4540  0.0709  0.0645
 1986SOL    HW1 7726   8.444   7.188   6.930 -2.1531  1.6822 -0.4677
 1986SOL    HW2 7727   8.526   7.310   6.970 -1.0192  0.6726  0.3724
 1987SOL     OW 7728   7.933   9.431   4.298 -0.4877  0.6682 -0.5214
 1987SOL    HW1 7729   7.924   9.421   4.393 -0.7083 -0.0989 -0.6159
 1987SOL    HW2 7730   7.991   9.506   4.287 -2.8491  2.7428  0.1859
 1988SOL     OW 7731   5.088   5.805   4.829 -0.2742 -0.2188 -0.2189
 1988SOL    HW1 7732   5.177   5.771   4.831  0.0336  0.5921  0.1342
 1988SOL    HW2 7733   5.050   5.777   4.912 -0.3775 -0.6035 -0.3889
 1989SOL     OW 7734   5.300   4.823   6.495 -0.9874 -0.1313 -0.1436
 1989SOL    HW1 7735   5.217   4.851   6.534 -2.5459 -2.3078 -1.7010
 1989SOL    HW2 7736   5.335   4.758   6.556 -0.4276  0.7168  0.4651
 1990SOL     OW 7737   8.919   1.110   7.751 -0.0326  0.0964  0.3551
 1990SOL    HW1 7738   8.940   1.085   7.661 -2.4007  0.2606 -0.3031
 1990SOL    HW2 7739   8.931   1.030   7.802  1.4762  0.0403 -0.0489
 1991SOL     OW 7740   5.153   7.158   3.786  0.0030  0.4759  0.0409
 1991SOL    HW1 7741   5.202   7.239   3.771  1.2933 -0.0839  0.9203
 1991SOL    HW2 7742   5.220   7.089   3.779 -1.1445 -0.5534 -1.1026
 1992SOL     OW 7743   6.765   3.246   8.473 -0.4782  0.3277  0.1705
 1992SOL    HW1 7744   6.843   3.280   8.429  0.0392  0.5001  1.2114
 1992SOL    HW2 7745   6.796   3.172   8.525 -0.9363  0.6397  0.9065
 1993SOL     OW 7746   7.683   2.346   4.760  0.4786  0.1111  0.0729
 1993SOL    HW1 7747   7.671   2.272   4.819 -0.5555 -0.0021 -0.2678
 1993SOL    HW2 7748   7.746   2.402   4.805  1.7248 -1.2302  0.0822
 1994SOL     OW 7749   9.360   6.313   7.878 -0.0831  0.0705 -0.5027
 1994SOL    HW1 7750   9.279   6.263   7.884  1.1043 -1.9238  0.1092
 1994SOL    HW2 7751   9.386   6.306   7.786 -0.2517  0.0847 -0.5504
 1995SOL     OW 7752   6.008   8.996   8.756  0.3168 -0.0297 -0.4713
 1995SOL    HW1 7753   6.033   8.962   8.842 -1.4888 -1.9864 -0.6278
 1995SOL    HW2 7754   6.014   8.921   8.697  0.1050  0.9167 -1.7557
 1996SOL     OW 7755   2.787   8.623   1.306  0.1764  0.3360  0.0735
 1996SOL    HW1 7756   2.861   8.644   1.363  0.2575 -1.0786  0.5231
 1996SOL    HW2 7757   2.729   8.570   1.360 -0.4551  0.1899 -0.7234
 1997SOL     OW 7758   6.563   1.070   6.893 -0.4518 -0.4023 -0.1081
 1997SOL    HW1 7759   6.548   1.162   6.917 -0.0504 -0.5104  0.5807
 1997SOL    HW2 7760   6.499   1.021   6.943  0.5766 -0.6540  1.0045
 1998SOL     OW 7761   6.595   6.952   8.579 -0.5569 -0.3109 -0.3570
 1998SOL    HW1 7762   6.679   6.993   8.601 -1.4066  1.3279 -0.0276
 1998SOL    HW2 7763   6.534   6.986   8.644 -1.0108 -3.6052  1.1681
 1999SOL     OW 7764   9.282   1.319   1.099 -0.1216 -0.0004  0.1125
 1999SOL    HW1 7765   9.264   1.357   1.014 -1.0542 -2.2976 -0.8083
 1999SOL    HW2 7766   9.241   1.232   1.096  1.2504 -0.8233  2.2905
 2000SOL     OW 7767   8.473   5.991   1.627 -0.3624  0.0367  0.1083
 2000SOL    HW1 7768   8.517   6.059   1.677 -0.4638  0.5110 -0.4455
 2000SOL    HW2 7769   8.487   5.911   1.678 -1.7483  0.7512  1.7216
 2001SOL     OW 7770   0.499   7.658   7.690  0.8597 -0.0557  0.2269
 2001SOL    HW1 7771   0.546   7.671   7.608 -0.1634  0.6268 -0.2597
 2001SOL    HW2 7772   0.510   7.740   7.737 -2.0103  1.1694 -1.0238
 2002SOL     OW 7773   7.763   2.459   6.479 -0.1485  0.8529  0.0672
 2002SOL    HW1 7774   7.803   2.524   6.537 -2.3325  0.8961  1.6602
 2002SOL    HW2 7775   7.673   2.490   6.468 -0.1918  0.0673 -2.2679
 2003SOL     OW 7776   4.279   9.578   5.434 -0.2372 -0.7926 -0.1520
 2003SOL    HW1 7777   4.233   9.571   5.350  0.2733  2.6055 -0.8384
 2003SOL    HW2 7778   4.360   9.529   5.421 -0.4018 -0.7539 -1.4873
 2004SOL     OW 7779   1.572   7.262   3.353  0.9227 -0.5868 -0.5479
 2004SOL    HW1 7780   1.614   7.213   3.283  0.7164 -1.4871 -0.0596
 2004SOL    HW2 7781   1.502   7.204   3.384 -1.3879  1.2589 -2.0094
 2005SOL     OW 7782   4.939   0.766   5.956 -0.1437  0.1313 -0.5377
 2005SOL    HW1 7783   4.909   0.836   6.014 -0.2972  0.4934 -1.0465
 2005SOL    HW2 7784   5.007   0.806   5.903 -0.4478 -0.0118 -1.0484
 2006SOL     OW 7785   5.856   5.412   2.089 -0.1478 -0.1302  0.1314
 2006SOL    HW1 7786   5.806   5.473   2.035  1.4108  0.9259 -0.1994
 2006SOL    HW2 7787   5.947   5.436   2.073  0.3992 -0.0400  2.9034
 2007SOL     OW 7788   6.636   0.796   9.763 -0.0801  0.3690 -0.3718
 2007SOL    HW1 7789   6.577   0.818   9.835  0.1428 -0.4504  0.0697
 2007SOL    HW2 7790   6.721   0.783   9.806  0.7395  2.6754 -1.1063
 2008SOL     OW 7791   2.513   5.135   6.921 -0.3372 -0.3714 -0.3272
 2008SOL    HW1 7792   2.576   5.141   6.992  1.4344 -0.6920 -1.8095
 2008SOL    HW2 7793   2.509   5.042   6.901  0.4871 -0.1265 -1.7369
 2009SOL     OW 7794   2.016   1.213   8.292  0.4094 -0.0992 -0.4972
 2009SOL    HW1 7795   2.036   1.305   8.313  0.3903 -0.6599  2.3092
 2009SOL    HW2 7796   1.955   1.218   8.219  1.1481  2.0810 -1.0435
 2010SOL     OW 7797   0.801   1.962   2.055  0.3237  0.3020 -0.1430
 2010SOL    HW1 7798   0.721   1.967   2.003  0.1138  1.6953  0.2725
 2010SOL    HW2 7799   0.774   1.984   2.144  0.8093 -1.3479  0.4449
 2011SOL     OW 7800   5.660   1.218   0.377 -0.5958  0.3497 -0.1676
 2011SOL    HW1 7801   5.602   1.164   0.430 -0.2812 -0.1567 -0.3368
 2011SOL    HW2 7802   5.746   1.178   0.387  0.0074  1.8905  1.1828
 2012SOL     OW 7803   7.212   9.132   5.159 -0.0460  0.0179  0.5542
 2012SOL    HW1 7804   7.304   9.152   5.141  0.0547 -1.1328 -0.2608
 2012SOL    HW2 7805   7.204   9.038   5.145 -1.3322  0.0851  0.7214
 2013SOL     OW 7806   8.684   1.289   2.167  0.1316  0.0832  0.2942
 2013SOL    HW1 7807   8.606   1.303   2.220 -0.9351 -0.1739 -1.1669
 2013SOL    HW2 7808   8.757   1.307   2.227 -1.0246  0.0613  1.7519
 2014SOL     OW 7809   5.404   5.767   1.457 -0.4302  0.0272 -0.1514
 2014SOL    HW1 7810   5.353   5.755   1.538 -0.6532 -0.1330 -0.3153
 2014SOL    HW2 7811   5.406   5.680   1.417 -0.8660  0.2393 -0.6432
 2015SOL     OW 7812   6.725   1.042   3.424  0.1373 -0.2075  0.1988
 2015SOL    HW1 7813   6.754   1.120   3.471  0.5426 -0.7949  0.9571
 2015SOL    HW2 7814   6.714   1.070   3.333 -0.6000  0.9492  0.6237
 2016SOL     OW 7815   6.210   5.068   5.457  0.0872  0.2541 -0.2743
 2016SOL    HW1 7816   6.115   5.064   5.445  0.4082 -1.2263 -3.2098
 2016SOL    HW2 7817   6.241   5.129   5.390  1.3480 -1.1821 -1.0844
 2017SOL     OW 7818   4.329   3.622   2.594 -0.0518 -0.5648 -0.7246
 2017SOL    HW1 7819   4.293   3.561   2.529 -1.1602 -1.4385  0.6479
 2017SOL    HW2 7820   4.255   3.642   2.651  0.7822  0.5590 -0.0049
 2018SOL     OW 7821   0.455   9.018   8.542  0.4097 -0.2267  0.8892
 2018SOL    HW1 7822   0.488   8.988   8.456 -0.2955  0.1088  0.4945
 2018SOL    HW2 7823   0.526   9.072   8.577 -0.2220  1.6930 -0.5949
 2019SOL     OW 7824   1.906   0.109   2.459  0.3332 -0.4063  0.1575
 2019SOL    HW1 7825   1.958   0.154   2.393 -0.6960 -0.0920 -0.4657
 2019SOL    HW2 7826   1.905   0.017   2.431 -0.6038 -0.1719 -0.6275
 2020SOL     OW 7827   1.713   7.336   0.340 -0.0570  0.0453 -0.3471
 2020SOL    HW1 7828   1.719   7.429   0.319 -1.7038  0.0290 -1.0259
 2020SOL    HW2 7829   1.699   7.334   0.435  1.4002  0.4036 -0.1089
 2021SOL     OW 7830   4.792   0.210   4.981  0.1372 -0.6075  0.1755
 2021SOL    HW1 7831   4.719   0.155   5.009  0.1053 -1.1255 -0.8728
 2021SOL    HW2 7832   4.779   0.293   5.027 -0.8184 -0.8730  0.4040
 2022SOL     OW 7833   0.841   3.413   2.690 -0.5499  0.0964  0.5633
 2022SOL    HW1 7834   0.752   3.383   2.708 -1.2396  2.0855  0.7130
 2022SOL    HW2 7835   0.842   3.503   2.721  2.0082 -0.3447  2.0547
 2023SOL     OW 7836   6.650   2.241   0.191  0.0064 -0.7179 -0.5870
 2023SOL    HW1 7837   6.698   2.267   0.113  0.1278  0.8691 -0.0283
 2023SOL    HW2 7838   6.563   2.282   0.180  0.2972  0.2455  0.4606
 2024SOL     OW 7839   5.543   1.433   7.909 -0.5780 -0.3912 -0.3348
 2024SOL    HW1 7840   5.524   1.526   7.923  0.1274 -0.4820  1.3812
 2024SOL    HW2 7841   5.589   1.430   7.825 -0.7649  0.7845 -0.4925
 2025SOL     OW 7842   6.935   9.323   8.281 -0.7848 -0.4688 -0.6221
 2025SOL    HW1 7843   6.899   9.290   8.199  0.2192 -0.5961 -1.0117
 2025SOL    HW2 7844   7.025   9.348   8.260  0.2398 -2.5809  0.9437
 2026SOL     OW 7845   1.994   5.330   4.990 -0.2404 -0.2558 -0.9918
 2026SOL    HW1 7846   1.980   5.418   5.024  0.0155 -0.3272 -0.6964
 2026SOL    HW2 7847   1.967   5.335   4.899  0.0484  0.2064 -1.0560
 2027SOL     OW 7848   1.832   0.815   7.599 -0.3371  0.1046  0.0134
 2027SOL    HW1 7849   1.860   0.906   7.603 -1.3039  0.4558 -0.9536
 2027SOL    HW2 7850   1.883   0.778   7.526 -1.2661  0.3598 -0.7821
 2028SOL     OW 7851   2.666   4.318   8.846  0.0740  0.2841 -0.1127
 2028SOL    HW1 7852   2.652   4.352   8.934 -0.5954  0.6685 -0.3580
 2028SOL    HW2 7853   2.599   4.362   8.793  0.3252 -0.1137 -0.7650
 2029SOL     OW 7854   8.966   7.952   5.212 -0.3239  0.2592 -0.0780
 2029SOL    HW1 7855   8.978   7.909   5.127 -0.4990 -1.9474  0.9371
 2029SOL    HW2 7856   8.875   7.980   5.212 -1.0550 -1.9523  0.2703
 2030SOL     OW 7857   9.179   8.547   8.695 -0.7948 -0.0336  0.0778
 2030SOL    HW1 7858   9.190   8.505   8.780 -0.5347  0.1538  0.1375
 2030SOL    HW2 7859   9.132   8.628   8.714  0.8792  0.9297  0.2973
 2031SOL     OW 7860   9.434   4.618   4.377 -0.4141 -0.2104 -0.5936
 2031SOL    HW1 7861   9.433   4.530   4.340  1.3256 -0.1509 -0.8773
 2031SOL    HW2 7862   9.385   4.671   4.313 -2.6365 -1.1422  0.2326
 2032SOL     OW 7863   1.568   0.454   8.891  0.3996  0.1392 -0.2942
 2032SOL    HW1 7864   1.577   0.359   8.893  0.6062  0.1647  0.0886
 2032SOL    HW2 7865   1.475   0.470   8.904  0.3572 -0.0111 -0.4097
 2033SOL     OW 7866   0.027   4.896   2.271  0.0068  0.3487 -0.2009
 2033SOL    HW1 7867   0.108   4.887   2.221 -0.8024  0.4520 -1.5641
 2033SOL    HW2 7868   0.014   4.991   2.279 -0.1171  0.3304 -0.1910
 2034SOL     OW 7869   4.848   4.754   0.362  0.1535 -0.9415  0.3982
 2034SOL    HW1 7870   4.823   4.802   0.441  0.7561 -0.9819  0.6197
 2034SOL    HW2 7871   4.924   4.702   0.389  0.7951 -0.4345 -0.3845
 2035SOL     OW 7872   8.214   5.283   2.586  0.0275 -0.0704  0.4778
 2035SOL    HW1 7873   8.175   5.323   2.664  0.6810  0.3185  0.6062
 2035SOL    HW2 7874   8.201   5.189   2.599 -1.0330  0.0541  0.4284
 2036SOL     OW 7875   6.006   4.708   0.445 -0.1018  0.4034 -0.6108
 2036SOL    HW1 7876   6.077   4.755   0.403 -0.3451  1.3070 -0.0359
 2036SOL    HW2 7877   5.951   4.678   0.372 -0.4231  1.7885 -0.9604
 2037SOL     OW 7878   2.028   3.990   7.088 -0.5526  0.0138  0.1022
 2037SOL    HW1 7879   1.998   4.073   7.051  0.0486  0.1369 -0.1252
 2037SOL    HW2 7880   2.040   3.933   7.012 -1.1293 -0.3454  0.2716
 2038SOL     OW 7881   5.386   6.397   0.343  0.2972  0.4034  0.4472
 2038SOL    HW1 7882   5.353   6.485   0.363  2.2480  1.3123 -0.1432
 2038SOL    HW2 7883   5.366   6.384   0.251  2.9784  1.6948 -0.4114
 2039SOL     OW 7884   9.230   0.922   5.516  0.2121  0.1139 -0.4002
 2039SOL    HW1 7885   9.136   0.909   5.532  0.1779  0.1454 -0.5803
 2039SOL    HW2 7886   9.234   0.965   5.431  0.3202  1.5528  0.3170
 2040SOL     OW 7887   6.305   6.645   9.713 -0.1729 -0.0244 -0.0447
 2040SOL    HW1 7888   6.250   6.675   9.640 -2.2551 -3.0539  0.0589
 2040SOL    HW2 7889   6.253   6.664   9.791  2.0516  3.2160  0.8410
 2041SOL     OW 7890   3.554   3.409   2.037 -0.1063  0.5958 -0.0917
 2041SOL    HW1 7891   3.487   3.414   2.105  0.2176 -1.2278  0.4172
 2041SOL    HW2 7892   3.617   3.477   2.059  0.1906 -0.2070  1.6750
 2042SOL     OW 7893   2.026   6.885   0.117 -0.3970 -0.0520  0.3219
 2042SOL    HW1 7894   1.938   6.862   0.086 -0.3261  0.0136  0.0696
 2042SOL    HW2 7895   2.067   6.800   0.133 -0.0635 -0.1215 -0.8187
 2043SOL     OW 7896   8.202   0.391   1.139  0.3707 -0.6627  0.4678
 2043SOL    HW1 7897   8.251   0.469   1.165 -0.0795 -0.0675 -0.4176
 2043SOL    HW2 7898   8.218   0.329   1.210  2.8172 -0.6919  0.0015
 2044SOL     OW 7899   3.802   7.441   3.316 -0.2754  0.1435  0.5787
 2044SOL    HW1 7900   3.759   7.390   3.385 -1.2833  0.2442  0.0520
 2044SOL    HW2 7901   3.797   7.532   3.347 -1.0761  0.2348  0.2221
 2045SOL     OW 7902   3.070   6.412   2.928 -0.1797  0.1861  0.6448
 2045SOL    HW1 7903   3.138   6.479   2.931  0.6716 -0.5673 -0.4789
 2045SOL    HW2 7904   3.053   6.390   3.019  0.9453  0.5547  0.9590
 2046SOL     OW 7905   4.873   7.030   7.242  0.3436  0.5909  0.4286
 2046SOL    HW1 7906   4.874   6.940   7.210  1.1639  0.2813  1.2808
 2046SOL    HW2 7907   4.796   7.069   7.201  0.6893 -0.1229 -0.9608
 2047SOL     OW 7908   8.834   9.283   7.352  0.0062  0.2282 -0.3573
 2047SOL    HW1 7909   8.869   9.369   7.376 -1.4947  0.9846 -0.7970
 2047SOL    HW2 7910   8.821   9.288   7.258 -1.2606 -0.0222 -0.2121
 2048SOL     OW 7911   1.233   5.951   2.603 -0.6589  0.4206 -0.2457
 2048SOL    HW1 7912   1.255   5.985   2.690  0.8107  0.4558 -0.6094
 2048SOL    HW2 7913   1.158   6.003   2.575 -0.9420  0.6285  0.8580
 2049SOL     OW 7914   5.080   1.112   6.260  0.1345  0.3437  0.3332
 2049SOL    HW1 7915   5.060   1.107   6.354  0.5671  1.3696  0.4994
 2049SOL    HW2 7916   5.175   1.119   6.256  0.1326  0.1312 -0.2006
 2050SOL     OW 7917   8.393   2.085   6.743 -0.1192 -0.3119  0.7195
 2050SOL    HW1 7918   8.434   2.158   6.791  0.1608 -0.3863  0.5898
 2050SOL    HW2 7919   8.325   2.053   6.803  0.2213 -0.3952  1.0633
 2051SOL     OW 7920   2.844   6.842   9.101  0.0551  0.5809 -0.1248
 2051SOL    HW1 7921   2.789   6.786   9.047 -0.7695  0.2614  1.0161
 2051SOL    HW2 7922   2.897   6.781   9.152  0.1020  0.8592  0.1635
 2052SOL     OW 7923   2.271   5.852   9.287 -0.0343 -0.3790  0.1646
 2052SOL    HW1 7924   2.204   5.889   9.345 -0.8643  1.7777 -2.0037
 2052SOL    HW2 7925   2.354   5.868   9.333 -0.4747  3.1755 -0.0148
 2053SOL     OW 7926   7.714   6.028   8.869  0.1779 -0.1064 -0.4019
 2053SOL    HW1 7927   7.775   6.035   8.942 -0.9333 -0.8347  0.6236
 2053SOL    HW2 7928   7.642   6.087   8.892  0.0623  0.0572 -1.1618
 2054SOL     OW 7929   0.264   2.527   5.853  0.0076 -0.1335  0.4682
 2054SOL    HW1 7930   0.328   2.599   5.855 -0.7418  0.5773 -0.3259
 2054SOL    HW2 7931   0.198   2.551   5.918 -0.1685 -0.1733  0.3052
 2055SOL     OW 7932   7.671   6.905   2.166  0.7557  0.1279 -0.2392
 2055SOL    HW1 7933   7.667   6.810   2.176 -0.4611  0.2318  0.4363
 2055SOL    HW2 7934   7.742   6.931   2.225  2.2602 -0.4860 -1.6964
 2056SOL     OW 7935   8.184   9.465   8.570  1.4813 -0.0470 -0.4526
 2056SOL    HW1 7936   8.205   9.449   8.663  0.4267  3.1060  0.4462
 2056SOL    HW2 7937   8.200   9.558   8.558 -0.4430  0.0530 -2.8890
 2057SOL     OW 7938   5.307   4.183   4.007  0.0105  0.4275 -0.5928
 2057SOL    HW1 7939   5.293   4.100   4.053  0.1576  0.5221 -0.3740
 2057SOL    HW2 7940   5.349   4.159   3.925  1.5846  0.4194  0.1872
 2058SOL     OW 7941   1.884   5.239   8.530 -0.0485  0.0367 -0.4357
 2058SOL    HW1 7942   1.845   5.229   8.617 -1.3165  0.0759 -0.9828
 2058SOL    HW2 7943   1.860   5.328   8.503 -1.3657 -0.6433 -1.6193
 2059SOL     OW 7944   2.470   8.954   3.070 -0.1795  0.1407 -0.2482
 2059SOL    HW1 7945   2.560   8.942   3.041 -0.1419 -0.5162  0.1247
 2059SOL    HW2 7946   2.432   9.016   3.007  0.4479  0.2136 -0.5609
 2060SOL     OW 7947   0.455   9.086   8.125  0.1874  0.1361 -0.4790
 2060SOL    HW1 7948   0.494   9.173   8.129  1.7138 -0.4815 -1.2279
 2060SOL    HW2 7949   0.454   9.064   8.032 -2.1498  0.1805 -0.5205
 2061SOL     OW 7950   3.275   4.452   4.614  0.3617  0.5994  0.0447
 2061SOL    HW1 7951   3.347   4.456   4.678 -0.3775 -0.9512  1.0364
 2061SOL    HW2 7952   3.260   4.544   4.589  0.6934  1.2696  2.1010
 2062SOL     OW 7953   0.370   0.872   4.249 -0.4798  0.6488 -0.0339
 2062SOL    HW1 7954   0.285   0.831   4.264 -0.7707  0.1773 -2.5094
 2062SOL    HW2 7955   0.351   0.953   4.203  0.3937 -0.1232 -1.8859
 2063SOL     OW 7956   2.000   4.166   9.545  0.3464 -0.2104 -0.2195
 2063SOL    HW1 7957   2.060   4.185   9.617  1.1558  1.7902 -1.3462
 2063SOL    HW2 7958   1.918   4.207   9.570  0.4975  0.1024 -0.2319
 2064SOL     OW 7959   0.431   9.770   0.687 -0.2633 -0.0733  0.2820
 2064SOL    HW1 7960   0.465   9.857   0.711 -0.6895  0.2272 -0.1633
 2064SOL    HW2 7961   0.399   9.781   0.597  2.2878 -1.4516 -0.8881
 2065SOL     OW 7962   8.740   0.306   6.550 -0.2369 -0.0655  0.2329
 2065SOL    HW1 7963   8.787   0.388   6.563 -1.0214  0.4755 -0.2938
 2065SOL    HW2 7964   8.794   0.256   6.489 -1.3305  1.4327 -2.0798
 2066SOL     OW 7965   2.326   6.604   3.715 -0.2563 -0.7860  0.4596
 2066SOL    HW1 7966   2.409   6.651   3.722  0.4038 -1.8518 -0.0798
 2066SOL    HW2 7967   2.336   6.528   3.772  0.1475 -2.3279 -1.5844
 2067SOL     OW 7968   2.023   6.321   6.087 -0.2304 -0.0874 -0.0297
 2067SOL    HW1 7969   2.020   6.395   6.147 -0.5176  0.1217 -0.2925
 2067SOL    HW2 7970   2.115   6.314   6.061 -0.4511  1.2587 -1.3070
 2068SOL     OW 7971   1.401   6.683   7.650  0.7016  0.3671  0.0409
 2068SOL    HW1 7972   1.458   6.664   7.725  0.3613  2.2727  0.8173
 2068SOL    HW2 7973   1.319   6.638   7.670  0.1595  1.8953  1.4989
 2069SOL     OW 7974   3.396   6.579   8.886 -0.1390 -0.1403 -0.3862
 2069SOL    HW1 7975   3.367   6.669   8.898  0.2019  0.0789 -1.1953
 2069SOL    HW2 7976   3.477   6.585   8.836 -0.9138 -0.9654 -1.8024
 2070SOL     OW 7977   0.906   4.000   5.264 -1.0890  0.2436 -0.3419
 2070SOL    HW1 7978   0.887   4.082   5.310  1.7283  0.7182  0.1632
 2070SOL    HW2 7979   0.952   4.027   5.185  2.6525 -0.7705  1.2627
 2071SOL     OW 7980   6.160   5.960   2.021 -0.5552 -0.0952 -0.3631
 2071SOL    HW1 7981   6.149   6.055   2.027 -0.0533 -0.1093  1.1614
 2071SOL    HW2 7982   6.076   5.928   1.989 -1.0960  0.7776  0.1520
 2072SOL     OW 7983   8.471   6.629   8.672 -0.2815  0.0116  0.4261
 2072SOL    HW1 7984   8.557   6.668   8.656 -0.1336 -0.6282 -0.4196
 2072SOL    HW2 7985   8.451   6.582   8.592 -0.3885 -1.7642  1.4504
 2073SOL     OW 7986   3.961   4.405   1.141 -0.3273 -0.0669 -0.7965
 2073SOL    HW1 7987   3.874   4.373   1.116 -0.9739  0.8441  0.1803
 2073SOL    HW2 7988   3.947   4.497   1.162  0.5448 -0.2844  0.9042
 2074SOL     OW 7989   0.973   8.271   2.796 -0.0055  0.3441  0.4242
 2074SOL    HW1 7990   1.053   8.305   2.836 -0.4157 -0.5093  2.0722
 2074SOL    HW2 7991   0.931   8.222   2.866 -2.6126  1.7974 -0.0239
 2075SOL     OW 7992   4.251   3.129   7.259  0.0928  0.5880  0.3911
 2075SOL    HW1 7993   4.190   3.139   7.332  2.9460  3.0189  2.7362
 2075SOL    HW2 7994   4.326   3.083   7.296  0.2017 -1.5650 -2.1569
 2076SOL     OW 7995   3.292   4.639   7.815  0.9129 -0.2746  0.1217
 2076SOL    HW1 7996   3.337   4.681   7.741 -0.5678  1.7662  0.3051
 2076SOL    HW2 7997   3.202   4.631   7.786  0.6313 -0.8950  1.1334
 2077SOL     OW 7998   5.778   5.081   4.576 -0.2144  0.3377 -0.0396
 2077SOL    HW1 7999   5.768   5.022   4.502 -0.7845  0.1272  0.2003
 2077SOL    HW2 8000   5.756   5.168   4.541 -0.4888  0.2375 -0.1187
 2078SOL     OW 8001   8.287   1.273   4.949 -0.0276 -0.6795  0.1703
 2078SOL    HW1 8002   8.251   1.260   4.861 -0.7911 -1.2517  0.5580
 2078SOL    HW2 8003   8.234   1.343   4.987 -1.1890 -1.9239  0.9580
 2079SOL     OW 8004   5.606   4.565   1.048  0.4301  0.0639 -0.2287
 2079SOL    HW1 8005   5.567   4.534   0.966 -0.4109  1.1949 -0.2842
 2079SOL    HW2 8006   5.579   4.500   1.113 -0.3870  0.0877 -0.5331
 2080SOL     OW 8007   2.928   9.799   9.228  0.0385  0.3554  0.1728
 2080SOL    HW1 8008   2.953   9.874   9.283  2.3429 -0.2563  0.0690
 2080SOL    HW2 8009   2.968   9.724   9.272 -0.4999 -0.5222 -0.8241
 2081SOL     OW 8010   5.780   3.335   9.309  0.0754 -0.5297 -0.0576
 2081SOL    HW1 8011   5.837   3.343   9.385 -0.4767  1.8778  0.1816
 2081SOL    HW2 8012   5.816   3.396   9.245 -0.0579 -1.7751 -1.3748
 2082SOL     OW 8013   7.528   7.111   4.054 -0.5717 -0.5546  0.2367
 2082SOL    HW1 8014   7.460   7.171   4.086  1.6877  2.0381  0.5136
 2082SOL    HW2 8015   7.604   7.131   4.108  0.5173 -3.2667 -0.1574
 2083SOL     OW 8016   2.393   6.138   2.133  0.0123 -0.0104  0.6309
 2083SOL    HW1 8017   2.476   6.099   2.160 -0.2732 -0.6211  0.6329
 2083SOL    HW2 8018   2.409   6.233   2.137  0.4458 -0.1092  1.4307
 2084SOL     OW 8019   1.605   5.772   0.734  0.4877  0.2127  0.0869
 2084SOL    HW1 8020   1.638   5.817   0.812  1.8027 -1.1951  0.3688
 2084SOL    HW2 8021   1.614   5.679   0.753  0.0822 -0.1735 -1.4399
 2085SOL     OW 8022   1.497   5.309   3.416 -0.0561 -0.1264  0.0227
 2085SOL    HW1 8023   1.407   5.323   3.446  0.2549  2.0100  0.0759
 2085SOL    HW2 8024   1.514   5.380   3.355  1.7164 -0.2801  0.2799
 2086SOL     OW 8025   1.159   6.418   6.274 -0.4857  0.3700  0.1424
 2086SOL    HW1 8026   1.191   6.328   6.272 -0.3282  0.3502  1.8794
 2086SOL    HW2 8027   1.074   6.412   6.318  0.1988  1.2258  1.6495
 2087SOL     OW 8028   8.490   2.947   5.144  0.3431 -0.0659 -0.2647
 2087SOL    HW1 8029   8.489   2.877   5.210  1.1441 -0.1518 -0.3380
 2087SOL    HW2 8030   8.449   3.022   5.188 -1.0329 -0.7210 -0.3658
 2088SOL     OW 8031   6.794   3.021   1.290 -0.3600 -0.1457 -0.2557
 2088SOL    HW1 8032   6.795   2.963   1.366 -1.2934 -1.3027 -1.1015
 2088SOL    HW2 8033   6.704   3.053   1.285  0.2638  1.9090  0.5445
 2089SOL     OW 8034   5.278   8.664   7.277  0.1794 -0.2907 -0.3728
 2089SOL    HW1 8035   5.305   8.646   7.367 -0.3154  1.5524  0.1888
 2089SOL    HW2 8036   5.233   8.584   7.249  1.1618 -1.2375  0.6613
 2090SOL     OW 8037   4.162   7.487   0.046 -0.0617 -0.4998 -0.2891
 2090SOL    HW1 8038   4.190   7.524  -0.038 -0.6874  0.5519 -0.0570
 2090SOL    HW2 8039   4.066   7.493   0.043 -0.0512  1.5926  1.3512
 2091SOL     OW 8040   7.386   8.820   1.474 -0.6507  0.1756  0.6035
 2091SOL    HW1 8041   7.402   8.728   1.493 -1.6220  0.3373  2.4325
 2091SOL    HW2 8042   7.458   8.866   1.516 -1.0982  0.3507  1.1838
 2092SOL     OW 8043   6.288   2.543   1.728  0.0141 -0.1345  0.0185
 2092SOL    HW1 8044   6.198   2.529   1.755  0.1594  1.5353  1.5866
 2092SOL    HW2 8045   6.300   2.638   1.730  2.1086 -0.3439  1.0642
 2093SOL     OW 8046   7.008   9.033   4.721 -0.0450  0.2191  0.4361
 2093SOL    HW1 8047   6.928   8.981   4.729  0.3945 -0.5192  0.1433
 2093SOL    HW2 8048   7.047   9.032   4.808 -1.5180  2.5687  1.2274
 2094SOL     OW 8049   8.440   6.710   1.911  0.9322  0.3924 -0.1354
 2094SOL    HW1 8050   8.357   6.736   1.870  1.1636  1.3505 -0.0257
 2094SOL    HW2 8051   8.497   6.687   1.837  0.1318 -1.7138 -0.1545
 2095SOL     OW 8052   4.151   1.811   2.171  0.2653 -0.4822 -0.0318
 2095SOL    HW1 8053   4.077   1.836   2.115  0.4478 -2.0916 -1.0521
 2095SOL    HW2 8054   4.217   1.780   2.110  1.5014  0.1782  0.9352
 2096SOL     OW 8055   2.963   3.118   4.643  0.6509 -0.0787 -0.2252
 2096SOL    HW1 8056   2.881   3.159   4.671  1.6226  2.0328 -0.2700
 2096SOL    HW2 8057   3.017   3.115   4.722  1.0668 -0.1099 -0.5091
 2097SOL     OW 8058   0.858   2.923   3.153  0.3438 -0.2770 -0.1252
 2097SOL    HW1 8059   0.887   2.897   3.240 -0.4749 -0.1706  0.1874
 2097SOL    HW2 8060   0.763   2.918   3.157  0.2991 -2.2830 -1.6100
 2098SOL     OW 8061   5.755   1.727   2.483 -0.9356 -0.5433  0.3200
 2098SOL    HW1 8062   5.786   1.755   2.397 -0.8932  0.8507  0.7683
 2098SOL    HW2 8063   5.800   1.644   2.499 -1.2780 -1.0451 -1.1751
 2099SOL     OW 8064   6.777   5.843   1.531  0.9818 -0.3539 -0.0133
 2099SOL    HW1 8065   6.741   5.928   1.557  0.4237 -0.9900  1.3941
 2099SOL    HW2 8066   6.814   5.858   1.443 -0.2654  1.0015 -0.3367
 2100SOL     OW 8067   4.402   5.894   2.237  0.1876 -0.2811 -0.2808
 2100SOL    HW1 8068   4.351   5.966   2.199  0.0120 -0.0613  0.3506
 2100SOL    HW2 8069   4.447   5.934   2.311 -0.9790 -1.0983  0.9107
 2101SOL     OW 8070   6.811   1.279   1.714 -0.2269 -0.4641 -0.5501
 2101SOL    HW1 8071   6.771   1.228   1.643 -0.7449  1.1202 -1.4643
 2101SOL    HW2 8072   6.902   1.290   1.687 -0.3577 -0.0969 -0.8709
 2102SOL     OW 8073   2.466   8.216   1.713  0.1374  0.0682  0.2328
 2102SOL    HW1 8074   2.467   8.139   1.656  0.4704 -0.1868  0.5733
 2102SOL    HW2 8075   2.381   8.257   1.698 -0.7450 -1.3067  1.2905
 2103SOL     OW 8076   7.064   3.872   8.126  0.4343  0.5744  0.4253
 2103SOL    HW1 8077   7.120   3.871   8.048  2.6411  1.7211  1.8859
 2103SOL    HW2 8078   6.998   3.938   8.107 -0.4631 -0.7359 -1.3104
 2104SOL     OW 8079   5.817   3.351   6.500  0.2000  0.2582 -0.5743
 2104SOL    HW1 8080   5.911   3.369   6.512  0.0733  0.5929 -0.0751
 2104SOL    HW2 8081   5.792   3.301   6.577 -0.3911  1.5734  0.1244
 2105SOL     OW 8082   6.541   1.569   0.794 -0.0346 -0.1152  0.2114
 2105SOL    HW1 8083   6.573   1.483   0.769  0.6206 -0.0741  0.8649
 2105SOL    HW2 8084   6.600   1.597   0.864 -0.1110  0.9468 -0.1266
 2106SOL     OW 8085   2.588   1.546   8.410  0.4942 -0.0189 -0.2156
 2106SOL    HW1 8086   2.526   1.590   8.352 -0.7556  1.2197  1.9171
 2106SOL    HW2 8087   2.672   1.588   8.392 -0.0464  0.9748 -0.4993
 2107SOL     OW 8088   7.947   9.826   5.162 -0.3703  0.2508  0.4949
 2107SOL    HW1 8089   7.961   9.856   5.072  1.0027 -0.5226  0.4242
 2107SOL    HW2 8090   7.890   9.893   5.200  1.2695  2.1224 -0.1311
 2108SOL     OW 8091   2.013   6.352   7.173 -0.1675  0.0662  0.1367
 2108SOL    HW1 8092   1.979   6.440   7.153  0.8126  0.5257  0.4170
 2108SOL    HW2 8093   2.018   6.350   7.269  0.6191  0.0349  0.1032
 2109SOL     OW 8094   4.102   0.610   4.158 -0.1380  0.5063  0.0686
 2109SOL    HW1 8095   4.073   0.596   4.248 -1.1606  0.9378 -0.1863
 2109SOL    HW2 8096   4.171   0.676   4.165 -1.2904  1.7033  0.3941
 2110SOL     OW 8097   1.691   7.535   6.686  0.3402  0.0255 -0.2800
 2110SOL    HW1 8098   1.776   7.573   6.707 -0.2406  2.2499 -1.6064
 2110SOL    HW2 8099   1.693   7.523   6.591 -0.4734 -0.8521 -0.1981
 2111SOL     OW 8100   3.779   0.117   1.741  0.2822  0.2503  0.1135
 2111SOL    HW1 8101   3.699   0.065   1.751 -1.2254  2.3924 -0.0357
 2111SOL    HW2 8102   3.822   0.113   1.826 -0.7149  0.1794  0.6278
 2112SOL     OW 8103   8.758   4.905   9.428 -0.6162 -1.0377 -0.1688
 2112SOL    HW1 8104   8.766   4.856   9.346  1.6718  0.7744 -1.1422
 2112SOL    HW2 8105   8.798   4.848   9.494  0.6312 -1.1163 -0.9761
 2113SOL     OW 8106   8.923   7.027   2.784  0.2056  0.4056 -0.2569
 2113SOL    HW1 8107   9.007   6.984   2.768  0.3147  0.7493 -0.6476
 2113SOL    HW2 8108   8.857   6.959   2.772  0.2505  0.7005 -2.5771
 2114SOL     OW 8109   0.054   4.290   9.419  0.5520  0.2366 -0.1244
 2114SOL    HW1 8110   0.031   4.329   9.503  1.5911 -0.6877  0.6329
 2114SOL    HW2 8111  -0.011   4.221   9.405  0.4716  0.2891 -0.0065
 2115SOL     OW 8112   4.012   5.368   1.742 -0.2827 -0.6097  0.2353
 2115SOL    HW1 8113   4.101   5.389   1.714 -0.7759  0.2299 -0.8034
 2115SOL    HW2 8114   3.964   5.356   1.660 -1.3431 -0.0625  0.7622
 2116SOL     OW 8115   7.952   6.412   1.762  0.0975  0.4098 -0.7481
 2116SOL    HW1 8116   8.014   6.475   1.723  0.6638  0.1909 -0.2200
 2116SOL    HW2 8117   7.896   6.386   1.689  1.7642 -0.7333 -1.6751
 2117SOL     OW 8118   7.992   1.891   5.084  0.3104  0.1886 -0.3772
 2117SOL    HW1 8119   8.039   1.967   5.049  1.7761 -0.1425  0.7569
 2117SOL    HW2 8120   8.059   1.823   5.092 -0.2149 -0.1580  1.7619
 2118SOL     OW 8121   3.912   1.840   6.635 -0.8392  0.6772 -0.0097
 2118SOL    HW1 8122   3.933   1.899   6.562  0.7008  1.8810  1.3369
 2118SOL    HW2 8123   3.862   1.770   6.594 -0.6176  1.6446 -2.1165
 2119SOL     OW 8124   3.515   9.405   8.664  0.1114 -0.0409 -0.1112
 2119SOL    HW1 8125   3.506   9.468   8.736  1.5187 -0.4003  0.4105
 2119SOL    HW2 8126   3.472   9.325   8.697 -0.8465  0.3332 -0.4078
 2120SOL     OW 8127   2.629   4.603   3.427 -0.1350 -0.3005  0.3466
 2120SOL    HW1 8128   2.564   4.543   3.462  1.2123 -1.2778  1.3009
 2120SOL    HW2 8129   2.700   4.546   3.396 -0.3444  0.6401 -2.1060
 2121SOL     OW 8130   8.941   9.295   4.561  0.5157 -0.0289 -0.0099
 2121SOL    HW1 8131   8.855   9.254   4.549  0.9059 -0.2980 -2.3808
 2121SOL    HW2 8132   8.987   9.236   4.622 -1.1285  0.4724  1.8292
 2122SOL     OW 8133   1.190   6.675   3.147 -0.4755 -0.2629  0.1833
 2122SOL    HW1 8134   1.141   6.639   3.073  0.1669 -0.2915 -0.2355
 2122SOL    HW2 8135   1.239   6.748   3.110  1.0618 -1.2406  0.2191
 2123SOL     OW 8136   7.281   4.255   1.891 -0.4410  0.1030  0.2737
 2123SOL    HW1 8137   7.288   4.210   1.975  1.1735  0.5445  0.4038
 2123SOL    HW2 8138   7.204   4.310   1.899 -0.9248 -0.6685  1.0689
 2124SOL     OW 8139   6.615   5.347   4.840  0.1763 -0.2543  0.4003
 2124SOL    HW1 8140   6.654   5.411   4.780 -0.6362 -1.5470 -1.6184
 2124SOL    HW2 8141   6.690   5.300   4.876  0.6695 -1.4435 -1.9699
 2125SOL     OW 8142   5.242   6.328   1.598  0.2728  0.2493  0.0479
 2125SOL    HW1 8143   5.174   6.307   1.662 -0.3360 -1.5737 -1.0967
 2125SOL    HW2 8144   5.324   6.321   1.647 -0.2058 -0.5199  0.7706
 2126SOL     OW 8145   3.947   7.576   7.528  0.1028  0.2862 -0.8001
 2126SOL    HW1 8146   3.910   7.629   7.599  1.0157  0.1918 -0.2406
 2126SOL    HW2 8147   3.987   7.640   7.469 -1.0076  0.3968 -1.4639
 2127SOL     OW 8148   5.978   5.297   9.496  0.1649 -0.0482 -0.3460
 2127SOL    HW1 8149   6.004   5.336   9.580 -0.5438 -0.1955 -0.0567
 2127SOL    HW2 8150   5.883   5.307   9.492 -0.0395 -1.6375 -0.2989
 2128SOL     OW 8151   6.526   1.460   1.545 -0.0723 -0.4339  0.3746
 2128SOL    HW1 8152   6.557   1.412   1.622 -0.6660 -1.6554 -0.1018
 2128SOL    HW2 8153   6.454   1.406   1.512 -0.2854  0.4371 -0.6325
 2129SOL     OW 8154   2.772   1.238   2.340  0.3405 -0.5358 -0.6248
 2129SOL    HW1 8155   2.701   1.176   2.360  0.0042 -0.1912 -0.7521
 2129SOL    HW2 8156   2.729   1.310   2.295  0.8855 -0.6734 -1.3881
 2130SOL     OW 8157   1.298   9.607   0.739  0.4917 -0.1539 -0.0764
 2130SOL    HW1 8158   1.227   9.544   0.726  0.6620 -0.0234 -2.0489
 2130SOL    HW2 8159   1.276   9.653   0.820 -0.5611 -1.5410  0.4519
 2131SOL     OW 8160   9.148   4.757   4.917  0.2337 -0.4404  0.1494
 2131SOL    HW1 8161   9.220   4.735   4.976  0.4531 -1.1357 -0.3609
 2131SOL    HW2 8162   9.106   4.673   4.899 -1.4735  0.0937  1.4085
 2132SOL     OW 8163   1.304   1.436   4.948  0.0072  0.3062 -0.3848
 2132SOL    HW1 8164   1.356   1.481   4.881  0.3294  0.3558 -0.1075
 2132SOL    HW2 8165   1.213   1.457   4.927  0.1512  1.1655 -0.2066
 2133SOL     OW 8166   3.235   4.113   2.918 -0.1470 -0.5174 -0.1990
 2133SOL    HW1 8167   3.190   4.115   3.002 -1.5436 -2.1708 -0.8492
 2133SOL    HW2 8168   3.283   4.031   2.918  0.1229 -0.3721 -0.8912
 2134SOL     OW 8169   7.566   5.480   4.102 -0.1894  0.5808  0.4024
 2134SOL    HW1 8170   7.542   5.571   4.088  0.6767  0.7655  0.1078
 2134SOL    HW2 8171   7.641   5.465   4.045 -1.0587 -0.6572 -0.5053
 2135SOL     OW 8172   7.945   5.081   1.312 -0.7044 -0.4546 -0.1180
 2135SOL    HW1 8173   7.926   5.174   1.319 -1.3932 -0.5153 -0.9375
 2135SOL    HW2 8174   7.919   5.058   1.222  1.0255 -1.0799 -0.5081
 2136SOL     OW 8175   1.878   4.660   5.352 -0.0058  0.1365  0.0005
 2136SOL    HW1 8176   1.801   4.603   5.351  1.4185 -2.1381  3.0065
 2136SOL    HW2 8177   1.866   4.714   5.430  1.3548 -0.2625  0.5224
 2137SOL     OW 8178   7.490   9.664   2.091  0.0298 -0.1320 -0.3480
 2137SOL    HW1 8179   7.407   9.706   2.067  0.5942 -0.1413 -2.5875
 2137SOL    HW2 8180   7.549   9.737   2.110 -0.3043 -0.1056  0.6314
 2138SOL     OW 8181   8.096   8.388   4.683  0.2890 -0.0393 -0.0703
 2138SOL    HW1 8182   8.000   8.386   4.686  0.3051 -1.5448 -0.0581
 2138SOL    HW2 8183   8.122   8.400   4.775  0.1254 -0.1394 -0.0113
 2139SOL     OW 8184   8.997   1.878   8.558  0.5620 -0.2787 -0.3256
 2139SOL    HW1 8185   9.015   1.828   8.637 -0.0317  0.5600  0.3572
 2139SOL    HW2 8186   9.080   1.922   8.538 -0.0224  1.9397  1.6249
 2140SOL     OW 8187   2.081   5.029   3.150 -0.0672 -0.2026  0.1342
 2140SOL    HW1 8188   2.064   4.984   3.068 -1.8373  1.0424 -0.2284
 2140SOL    HW2 8189   2.175   5.045   3.150  0.3064 -2.1586 -0.5955
 2141SOL     OW 8190   1.148   6.780   5.039 -0.8785  0.1219  0.0194
 2141SOL    HW1 8191   1.155   6.711   4.973  0.0498  1.4358 -1.3265
 2141SOL    HW2 8192   1.215   6.758   5.104 -0.4255 -0.1320 -0.5225
 2142SOL     OW 8193   8.571   3.606   0.253 -0.2405 -0.3504  0.5417
 2142SOL    HW1 8194   8.477   3.600   0.272 -0.1788  0.1848  1.0526
 2142SOL    HW2 8195   8.596   3.518   0.227 -0.9629 -0.4147  0.0413
 2143SOL     OW 8196   2.171   6.680   0.455  0.3986 -0.0591 -0.9455
 2143SOL    HW1 8197   2.258   6.707   0.483  0.0369 -0.5953  0.8380
 2143SOL    HW2 8198   2.184   6.596   0.412  0.7498 -0.2033 -0.5634
 2144SOL     OW 8199   0.631   4.246   2.912 -0.0847  0.1903 -0.4787
 2144SOL    HW1 8200   0.580   4.272   2.989  1.8917 -0.0800  0.9973
 2144SOL    HW2 8201   0.722   4.259   2.938  0.6467  0.5124 -2.9592
 2145SOL     OW 8202   0.492   3.334   8.149 -0.1110  0.2954  0.4111
 2145SOL    HW1 8203   0.543   3.305   8.225  1.2330  3.2127  0.7384
 2145SOL    HW2 8204   0.451   3.416   8.177 -0.1736  1.0791 -1.7703
 2146SOL     OW 8205   6.977   8.342   1.747 -0.7326 -0.1172 -0.2779
 2146SOL    HW1 8206   6.938   8.429   1.745 -2.9508 -1.0567 -0.9560
 2146SOL    HW2 8207   7.010   8.329   1.658 -0.4620  0.0079 -0.1954
 2147SOL     OW 8208   9.471   4.382   3.523 -0.1480  0.3834 -0.0244
 2147SOL    HW1 8209   9.506   4.469   3.500  1.9368 -0.7344 -1.3786
 2147SOL    HW2 8210   9.476   4.379   3.618 -0.2982  1.7650  0.0459
 2148SOL     OW 8211   6.568   8.707   2.227  0.1042  0.4709  0.5661
 2148SOL    HW1 8212   6.592   8.688   2.318  1.3303  0.4036  0.2463
 2148SOL    HW2 8213   6.578   8.624   2.181 -3.7236 -0.3888  0.9278
 2149SOL     OW 8214   8.973   9.698   7.270 -0.6716  0.0347  0.0664
 2149SOL    HW1 8215   8.921   9.779   7.268 -0.6435  0.0566  0.2278
 2149SOL    HW2 8216   9.016   9.695   7.185 -0.8575  0.0695 -0.0303
 2150SOL     OW 8217   8.089   5.464   6.122 -0.0897  0.3389  0.2835
 2150SOL    HW1 8218   8.037   5.454   6.202 -0.1519  1.3599  0.3849
 2150SOL    HW2 8219   8.052   5.401   6.061 -0.8469  0.4133  0.6553
 2151SOL     OW 8220   5.766   6.318   0.006  0.4278 -0.3250  0.2003
 2151SOL    HW1 8221   5.749   6.244  -0.052  0.0440  0.1954 -0.3634
 2151SOL    HW2 8222   5.713   6.389  -0.029  1.4425  0.4709  0.2065
 2152SOL     OW 8223   0.667   2.916   1.219 -0.2832 -0.3901 -0.1141
 2152SOL    HW1 8224   0.702   2.832   1.191  0.7467  0.1179 -0.3732
 2152SOL    HW2 8225   0.743   2.967   1.246 -0.6557  1.1219 -1.7170
 2153SOL     OW 8226   4.755   9.821   6.265 -0.0074  0.9681  0.0560
 2153SOL    HW1 8227   4.787   9.910   6.278  0.1311  0.9916 -0.4356
 2153SOL    HW2 8228   4.660   9.829   6.265 -0.0749  0.7884  2.3417
 2154SOL     OW 8229   5.921   6.186   4.565 -0.4812 -0.0388  0.2805
 2154SOL    HW1 8230   5.845   6.224   4.609  0.6583  0.2132  2.1278
 2154SOL    HW2 8231   5.905   6.202   4.472 -1.9349  1.4098  0.7286
 2155SOL     OW 8232   0.679   5.621   2.670  0.0314 -0.0614 -0.5613
 2155SOL    HW1 8233   0.646   5.576   2.593 -0.8367  0.3677 -0.4453
 2155SOL    HW2 8234   0.604   5.669   2.705  0.6068  0.3874  0.0957
 2156SOL     OW 8235   0.915   5.423   0.647 -0.1687 -0.6432  0.5851
 2156SOL    HW1 8236   0.855   5.353   0.670 -1.2737 -0.0094 -0.2944
 2156SOL    HW2 8237   0.923   5.418   0.552  1.2477 -0.7535  0.6785
 2157SOL     OW 8238   7.208   9.267   9.294  0.4813 -0.4368  0.2620
 2157SOL    HW1 8239   7.132   9.223   9.333 -0.6904  0.0726 -1.3543
 2157SOL    HW2 8240   7.202   9.358   9.325 -0.0508 -0.2014 -0.5046
 2158SOL     OW 8241   4.957   1.529   0.381 -0.9212 -0.5872  0.7553
 2158SOL    HW1 8242   4.929   1.579   0.457 -0.7816 -0.5911  0.8105
 2158SOL    HW2 8243   4.911   1.569   0.307 -0.7480 -0.3223  0.7878
 2159SOL     OW 8244   2.422   6.643   6.263 -0.1267  0.2197 -0.5873
 2159SOL    HW1 8245   2.450   6.552   6.253 -0.4069  0.2119 -1.3178
 2159SOL    HW2 8246   2.487   6.681   6.322  0.5604 -0.1953 -1.0639
 2160SOL     OW 8247   8.591   2.837   0.872 -0.2052  0.3779 -0.1522
 2160SOL    HW1 8248   8.671   2.867   0.829  2.0226 -3.3639  0.8607
 2160SOL    HW2 8249   8.598   2.871   0.961 -0.1922  0.7781 -0.3041
 2161SOL     OW 8250   1.153   3.318   1.850  0.4380 -0.4958 -0.4647
 2161SOL    HW1 8251   1.235   3.290   1.893  0.6272  0.1237 -0.4178
 2161SOL    HW2 8252   1.132   3.402   1.891 -2.3911 -2.4159  2.4472
 2162SOL     OW 8253   8.637   1.618   1.424 -0.1267 -0.6581  0.0654
 2162SOL    HW1 8254   8.608   1.564   1.350 -1.5049  0.8070 -0.5249
 2162SOL    HW2 8255   8.731   1.604   1.428 -0.3261 -2.5091 -0.5228
 2163SOL     OW 8256   7.797   8.760   1.386 -0.0865 -0.3436 -0.4008
 2163SOL    HW1 8257   7.856   8.835   1.395 -1.1344  0.2424  2.4226
 2163SOL    HW2 8258   7.710   8.799   1.385 -0.5662 -1.3810 -1.8769
 2164SOL     OW 8259   3.458   3.126   2.086  0.1495 -0.0219 -0.0291
 2164SOL    HW1 8260   3.470   3.064   2.014  1.4596 -0.5751  0.6324
 2164SOL    HW2 8261   3.467   3.212   2.044 -1.0466 -0.2611 -0.8413
 2165SOL     OW 8262   0.340   4.188   9.410 -0.4391 -0.0452  0.1850
 2165SOL    HW1 8263   0.394   4.248   9.359 -0.3180 -0.0248  0.3329
 2165SOL    HW2 8264   0.258   4.181   9.362 -0.7116  0.7602  0.5152
 2166SOL     OW 8265   6.832   8.143   4.939  0.3044  0.1261 -0.0350
 2166SOL    HW1 8266   6.804   8.054   4.921 -0.0510  0.3254 -0.4837
 2166SOL    HW2 8267   6.899   8.134   5.006 -0.6552 -0.3773  0.8833
 2167SOL     OW 8268   3.097   9.537   3.255 -0.4857  0.0481 -0.1852
 2167SOL    HW1 8269   3.091   9.585   3.338 -2.4299 -1.3206  0.5384
 2167SOL    HW2 8270   3.166   9.582   3.207  2.1559 -0.3205  2.9438
 2168SOL     OW 8271   1.617   6.757   8.844 -0.4556 -0.7156  0.2061
 2168SOL    HW1 8272   1.642   6.787   8.756  1.2990  0.1326  0.9332
 2168SOL    HW2 8273   1.601   6.838   8.892  0.6917 -1.0529  1.2135
 2169SOL     OW 8274   3.826   4.075   3.257 -0.1065  0.3837  0.4482
 2169SOL    HW1 8275   3.857   3.999   3.305 -0.2905  0.9183  1.4257
 2169SOL    HW2 8276   3.815   4.143   3.323  1.2782  1.6613 -0.5827
 2170SOL     OW 8277   6.948   0.539   0.676  0.3584  0.3668  0.7665
 2170SOL    HW1 8278   6.957   0.454   0.633  1.5128  1.2107 -0.7626
 2170SOL    HW2 8279   6.853   0.549   0.688  0.1793 -0.9582  0.6147
 2171SOL     OW 8280   9.002   6.262   7.630  0.0741 -0.5075  0.0150
 2171SOL    HW1 8281   9.058   6.250   7.707  0.5928  1.5238  0.0092
 2171SOL    HW2 8282   9.012   6.180   7.581  3.6465 -0.0335 -0.3390
 2172SOL     OW 8283   3.514   5.660   7.538  0.2219  0.2165  0.3361
 2172SOL    HW1 8284   3.509   5.613   7.621  0.4767  1.4866  1.1026
 2172SOL    HW2 8285   3.536   5.593   7.473 -0.1948 -0.8307  1.2545
 2173SOL     OW 8286   0.832   6.558   4.858 -0.4905 -0.0669 -0.5763
 2173SOL    HW1 8287   0.855   6.476   4.815  0.8647 -1.2759  2.1690
 2173SOL    HW2 8288   0.896   6.622   4.826  0.6456 -0.9880 -0.1723
 2174SOL     OW 8289   2.048   3.920   4.484  0.8929  0.3945 -0.1469
 2174SOL    HW1 8290   2.066   4.014   4.497 -0.9524  0.8564 -0.6221
 2174SOL    HW2 8291   2.095   3.877   4.555 -0.8982  2.0077  2.1891
 2175SOL     OW 8292   6.951   0.484   2.322 -0.2729  0.3764  0.1852
 2175SOL    HW1 8293   6.962   0.533   2.404 -0.6092  0.6270  0.0834
 2175SOL    HW2 8294   6.884   0.419   2.342  0.8673 -0.7001  0.6055
 2176SOL     OW 8295   7.309   8.487   0.627 -0.4314 -0.0986 -0.4339
 2176SOL    HW1 8296   7.381   8.548   0.641 -0.1250 -0.6516  0.4564
 2176SOL    HW2 8297   7.231   8.534   0.658 -0.3312  0.1612 -0.5673
 2177SOL     OW 8298   6.183   6.983   1.679 -0.7586 -0.4209  0.3281
 2177SOL    HW1 8299   6.172   6.930   1.600 -2.7927 -0.4322  0.5607
 2177SOL    HW2 8300   6.144   6.929   1.749  0.9424 -0.3899  1.3551
 2178SOL     OW 8301   0.899   4.071   3.351  0.5430  0.1022 -0.0550
 2178SOL    HW1 8302   0.952   3.995   3.374  0.0390 -0.9018 -2.0157
 2178SOL    HW2 8303   0.811   4.050   3.383  0.9659  1.1989  2.0201
 2179SOL     OW 8304   3.568   0.798   9.426  0.0313 -0.0433  0.4666
 2179SOL    HW1 8305   3.527   0.763   9.505 -0.9815  0.1296  0.0441
 2179SOL    HW2 8306   3.517   0.877   9.406 -0.7722 -0.9376 -1.2315
 2180SOL     OW 8307   3.393   9.633   8.832  0.4650  0.3389 -0.0907
 2180SOL    HW1 8308   3.369   9.704   8.891 -0.8205  0.1428 -0.3329
 2180SOL    HW2 8309   3.375   9.553   8.881  0.0778  0.1791 -0.4818
 2181SOL     OW 8310   5.840   7.677   5.991  0.7766 -0.4834 -0.7875
 2181SOL    HW1 8311   5.814   7.761   6.029  1.3955 -0.3646 -0.6123
 2181SOL    HW2 8312   5.927   7.660   6.027 -0.0804 -2.1057  0.6478
 2182SOL     OW 8313   7.790   2.999   9.293  0.0027 -0.7475 -0.1937
 2182SOL    HW1 8314   7.732   2.978   9.366  2.2320 -0.1061  1.8789
 2182SOL    HW2 8315   7.733   3.046   9.231 -2.1210 -1.9152  0.7421
 2183SOL     OW 8316   6.615   7.882   8.861  0.1789 -0.3580  0.4374
 2183SOL    HW1 8317   6.525   7.882   8.827 -0.1575 -1.2264  1.2866
 2183SOL    HW2 8318   6.668   7.855   8.786 -0.3586 -0.5744  0.1241
 2184SOL     OW 8319   2.162   6.976   0.689 -0.3896 -0.1484  0.5018
 2184SOL    HW1 8320   2.095   6.955   0.754  0.8054 -0.1618  1.7690
 2184SOL    HW2 8321   2.116   6.973   0.605 -1.7026 -1.3057  1.2299
 2185SOL     OW 8322   1.306   8.730   6.796 -0.6003 -0.3468 -0.7379
 2185SOL    HW1 8323   1.306   8.634   6.785 -1.2915 -0.4294 -0.1140
 2185SOL    HW2 8324   1.378   8.747   6.855 -0.7599 -0.5356 -0.4842
 2186SOL     OW 8325   8.874   8.424   7.996 -0.3529  0.3282  0.1104
 2186SOL    HW1 8326   8.961   8.446   7.964 -0.5419 -0.6966 -1.1906
 2186SOL    HW2 8327   8.824   8.505   7.986 -0.3639  0.1021 -2.1579
 2187SOL     OW 8328   2.994   7.636   6.414  0.0600  0.0915  0.3900
 2187SOL    HW1 8329   3.054   7.682   6.472  1.1853 -1.4452  0.5224
 2187SOL    HW2 8330   2.918   7.617   6.468 -0.5217  1.9160  0.2687
 2188SOL     OW 8331   8.755   8.820   7.464 -0.2923 -0.2726 -0.0902
 2188SOL    HW1 8332   8.699   8.897   7.468 -0.4356 -0.4356  1.4923
 2188SOL    HW2 8333   8.706   8.758   7.410 -1.1812 -0.0408  0.4288
 2189SOL     OW 8334   6.800   0.036   8.658 -0.0435 -0.2139  0.2700
 2189SOL    HW1 8335   6.787  -0.028   8.729 -2.2879  2.1589  2.1952
 2189SOL    HW2 8336   6.734   0.012   8.593 -1.0672  0.2219  1.1053
 2190SOL     OW 8337   3.741   1.507   9.210  0.4899 -0.0448 -0.2565
 2190SOL    HW1 8338   3.771   1.418   9.226  0.3203 -0.1655 -0.5941
 2190SOL    HW2 8339   3.672   1.497   9.145  1.6587  0.4906 -1.6197
 2191SOL     OW 8340   5.762   1.170   8.441  0.0321 -0.2207 -0.5773
 2191SOL    HW1 8341   5.792   1.112   8.371  3.5582 -0.1903  0.6544
 2191SOL    HW2 8342   5.804   1.254   8.422 -0.3212  0.2616  0.6734
 2192SOL     OW 8343   7.627   5.891   2.053  0.0002  0.0526  0.8522
 2192SOL    HW1 8344   7.570   5.962   2.022 -0.8607 -1.7896 -2.1496
 2192SOL    HW2 8345   7.576   5.811   2.040  2.3550 -1.4735  0.2907
 2193SOL     OW 8346   7.685   8.034   1.068  0.4064  0.5495 -0.5485
 2193SOL    HW1 8347   7.756   8.032   1.132  0.9331  0.3075 -1.1381
 2193SOL    HW2 8348   7.728   8.049   0.984 -0.3782  1.9671 -0.7248
 2194SOL     OW 8349   6.719   8.512   3.988  0.1263 -0.0015 -0.4786
 2194SOL    HW1 8350   6.654   8.478   4.049 -1.1470 -1.6910 -2.6513
 2194SOL    HW2 8351   6.777   8.566   4.042 -0.3418 -2.1576  2.3600
 2195SOL     OW 8352   4.773   4.839   2.319  0.1591  0.1542  0.4055
 2195SOL    HW1 8353   4.791   4.758   2.271 -0.1914  0.0516  0.4387
 2195SOL    HW2 8354   4.816   4.907   2.267  0.1775 -0.0131  0.1964
 2196SOL     OW 8355   7.244   7.088   2.629 -0.2420 -0.5069 -0.5783
 2196SOL    HW1 8356   7.306   7.028   2.670 -0.8787  0.2600  1.6898
 2196SOL    HW2 8357   7.164   7.079   2.681 -1.7651 -0.7470 -2.7994
 2197SOL     OW 8358   9.489   0.186   3.160  0.3520 -0.2716  1.0184
 2197SOL    HW1 8359   9.422   0.163   3.096 -0.1630  1.7993  0.7242
 2197SOL    HW2 8360   9.560   0.124   3.145  0.0261 -0.1592 -1.2417
 2198SOL     OW 8361   8.320   5.419   2.102  0.6620  0.0129  0.5567
 2198SOL    HW1 8362   8.258   5.383   2.165  0.7855 -1.3113 -0.0235
 2198SOL    HW2 8363   8.384   5.466   2.155  0.0650  0.0145  1.2956
 2199SOL     OW 8364   3.925   3.740   9.524  0.0964 -0.0527 -0.2371
 2199SOL    HW1 8365   4.012   3.773   9.503  0.2298 -0.2350  0.0187
 2199SOL    HW2 8366   3.883   3.811   9.574 -0.5177  0.7086 -1.7760
 2200SOL     OW 8367   4.230   3.983   8.352 -0.0235  0.1972 -0.1732
 2200SOL    HW1 8368   4.229   3.912   8.416 -0.3689  1.1373  0.9077
 2200SOL    HW2 8369   4.184   3.947   8.276 -0.2195 -0.7203  0.3590
 2201SOL     OW 8370   2.350   0.341   2.601 -0.2641  0.3242  0.3131
 2201SOL    HW1 8371   2.372   0.311   2.513 -0.3116 -1.5553  0.8969
 2201SOL    HW2 8372   2.255   0.335   2.606 -0.3392  1.2405  0.2468
 2202SOL     OW 8373   2.028   1.036   9.640 -0.0217 -0.6150  0.1820
 2202SOL    HW1 8374   2.104   1.088   9.666 -0.3348  0.0145 -0.1441
 2202SOL    HW2 8375   1.974   1.096   9.590 -0.2258 -1.3522 -0.5014
 2203SOL     OW 8376   7.721   6.063   7.235  0.3883  0.9162 -0.0114
 2203SOL    HW1 8377   7.681   6.126   7.296 -0.1105  1.2446 -0.6602
 2203SOL    HW2 8378   7.760   6.117   7.167 -0.2494  0.5291 -0.7040
 2204SOL     OW 8379   3.566   6.018   6.213  0.3823  0.6332  0.1422
 2204SOL    HW1 8380   3.637   6.081   6.221  0.3403  1.2091 -2.9482
 2204SOL    HW2 8381   3.565   5.972   6.297  3.9304  1.0668  0.5665
 2205SOL     OW 8382   4.525   7.511   9.735  0.1091 -0.0889  0.2085
 2205SOL    HW1 8383   4.510   7.526   9.642  1.0478 -0.6030 -0.0420
 2205SOL    HW2 8384   4.502   7.594   9.777 -1.4595 -0.2361 -0.3307
 2206SOL     OW 8385   6.959   9.744   6.682 -0.0539  0.1042  0.1084
 2206SOL    HW1 8386   7.044   9.701   6.677 -0.0729 -0.1042  1.3426
 2206SOL    HW2 8387   6.899   9.685   6.636  0.1349 -0.6467  0.8016
 2207SOL     OW 8388   8.523   8.347   7.778  0.0978  0.5970 -0.2820
 2207SOL    HW1 8389   8.434   8.370   7.804  0.6825  1.5869  0.9825
 2207SOL    HW2 8390   8.559   8.299   7.853 -0.1089 -1.9707 -1.7123
 2208SOL     OW 8391   9.453   4.584   8.471  0.2941  0.2332 -0.3543
 2208SOL    HW1 8392   9.385   4.547   8.414 -0.7780  1.9372 -0.2381
 2208SOL    HW2 8393   9.449   4.532   8.551 -1.2776  0.6556 -0.1388
 2209SOL     OW 8394   3.533   3.182   4.274  0.0901  0.2470 -0.0591
 2209SOL    HW1 8395   3.588   3.257   4.254 -2.0005  1.4622 -1.6996
 2209SOL    HW2 8396   3.449   3.201   4.231 -0.6691 -2.8477 -0.2160
 2210SOL     OW 8397   2.863   9.450   6.012  0.0252  0.0516 -0.1714
 2210SOL    HW1 8398   2.808   9.429   6.088  0.1820  0.7867  0.1584
 2210SOL    HW2 8399   2.921   9.375   6.002 -1.1692 -0.8341 -0.6540
 2211SOL     OW 8400   3.159   5.066   6.396 -0.6657 -0.2088 -0.8111
 2211SOL    HW1 8401   3.072   5.105   6.406 -0.9030 -0.8403 -0.3504
 2211SOL    HW2 8402   3.218   5.128   6.439 -1.3685 -1.6753  2.6387
 2212SOL     OW 8403   1.415   5.472   8.398 -0.0714 -0.4786  0.2887
 2212SOL    HW1 8404   1.329   5.513   8.389 -0.3345 -1.2716 -1.0440
 2212SOL    HW2 8405   1.407   5.416   8.475 -0.7267 -0.5100  0.2040
 2213SOL     OW 8406   1.270   1.159   2.148  0.2234  0.5803 -0.0851
 2213SOL    HW1 8407   1.285   1.066   2.131  1.5706  0.8246 -0.3260
 2213SOL    HW2 8408   1.308   1.174   2.234 -0.7544  0.7471  0.3335
 2214SOL     OW 8409   4.569   2.577   0.142  0.3875  0.3081 -0.5282
 2214SOL    HW1 8410   4.539   2.662   0.176 -2.0132 -0.6149 -0.1256
 2214SOL    HW2 8411   4.635   2.548   0.204 -1.2383  0.3664  1.3365
 2215SOL     OW 8412   9.159   5.943   7.645 -0.0503 -0.2038 -0.2437
 2215SOL    HW1 8413   9.209   6.017   7.679 -1.4379  0.1253  1.2168
 2215SOL    HW2 8414   9.225   5.884   7.609  1.5238 -0.1399  2.2352
 2216SOL     OW 8415   7.024   2.863   1.729 -0.1793  0.4510  0.3425
 2216SOL    HW1 8416   6.993   2.836   1.816 -1.6904  0.1557 -0.2590
 2216SOL    HW2 8417   7.081   2.792   1.700 -1.6099 -0.6381  0.0935
 2217SOL     OW 8418   3.140   0.196   3.460  0.1188 -0.4869  0.1468
 2217SOL    HW1 8419   3.198   0.272   3.454 -2.1382  1.3919  0.7165
 2217SOL    HW2 8420   3.194   0.122   3.430  2.2882  1.3753 -0.8283
 2218SOL     OW 8421   3.572   9.197   4.395  0.4318 -0.1160  0.5177
 2218SOL    HW1 8422   3.575   9.156   4.309  0.3448  0.7284  0.0975
 2218SOL    HW2 8423   3.616   9.281   4.383  0.1852  0.1262  1.2361
 2219SOL     OW 8424   3.912   9.155   4.915  0.5172  0.0141 -0.5393
 2219SOL    HW1 8425   3.859   9.110   4.980  0.7505 -1.0203 -1.0368
 2219SOL    HW2 8426   4.000   9.156   4.952  0.4044  0.5416 -0.2909
 2220SOL     OW 8427   7.565   8.283   5.410 -0.0620 -0.1931  0.7696
 2220SOL    HW1 8428   7.552   8.285   5.505  1.2811 -0.1660  0.9745
 2220SOL    HW2 8429   7.645   8.232   5.398  0.4542  0.8249 -0.2665
 2221SOL     OW 8430   9.556   8.506   4.903 -0.4558  0.2702 -0.2918
 2221SOL    HW1 8431   9.517   8.504   4.990  0.0483  0.0832 -0.0664
 2221SOL    HW2 8432   9.616   8.581   4.906  1.2463 -1.0432  0.2771
 2222SOL     OW 8433   5.664   8.842   1.832  1.1025 -0.0219 -0.0649
 2222SOL    HW1 8434   5.759   8.833   1.825  1.1898  1.0632 -0.5380
 2222SOL    HW2 8435   5.638   8.884   1.750  0.2545 -0.0708  0.1713
 2223SOL     OW 8436   8.920   2.407   9.674  0.5512 -0.8258 -0.1061
 2223SOL    HW1 8437   8.969   2.465   9.616  0.5101 -2.3657 -1.7332
 2223SOL    HW2 8438   8.945   2.319   9.647 -1.5363 -1.6218  0.3986
 2224SOL     OW 8439   8.630   1.472   9.279 -0.0346 -0.2546  0.8596
 2224SOL    HW1 8440   8.539   1.491   9.305 -0.4380 -2.0227  0.9261
 2224SOL    HW2 8441   8.657   1.402   9.339  1.1068 -0.2962  0.3150
 2225SOL     OW 8442   4.605   0.802   8.347  0.0469  0.1370  0.2687
 2225SOL    HW1 8443   4.652   0.847   8.277  0.9103  0.1434  0.8434
 2225SOL    HW2 8444   4.665   0.734   8.377 -1.2329 -1.4872 -0.6026
 2226SOL     OW 8445   4.283   6.949   7.990  0.6104  0.4245 -0.8178
 2226SOL    HW1 8446   4.379   6.948   7.992  0.6748  1.4934  2.3428
 2226SOL    HW2 8447   4.262   7.033   7.948  1.1456  0.9843 -0.0158
 2227SOL     OW 8448   9.849   4.561   5.479  0.1752 -0.1226 -0.9202
 2227SOL    HW1 8449   9.831   4.526   5.566 -1.5948  1.1960 -0.6979
 2227SOL    HW2 8450   9.772   4.615   5.459  0.9855  0.3651 -2.8951
 2228SOL     OW 8451   6.679   1.713   8.270 -0.4421  0.5496  0.3487
 2228SOL    HW1 8452   6.597   1.720   8.221 -0.2500  0.7754  0.0580
 2228SOL    HW2 8453   6.667   1.635   8.324 -1.8927  2.0268  2.2838
 2229SOL     OW 8454   3.239   0.079   9.752 -0.1778  0.0229  0.0634
 2229SOL    HW1 8455   3.219  -0.010   9.783  0.2971  0.6140  2.2601
 2229SOL    HW2 8456   3.196   0.136   9.816 -0.3731  1.3897 -1.2492
 2230SOL     OW 8457   9.744   6.924   8.452 -0.0470  0.2393  0.4898
 2230SOL    HW1 8458   9.704   6.927   8.538 -3.0961  1.8380 -0.8247
 2230SOL    HW2 8459   9.730   7.012   8.416 -0.5983 -0.8876 -2.3043
 2231SOL     OW 8460   9.088   5.086   3.906  0.2424  0.4895 -0.1528
 2231SOL    HW1 8461   9.126   5.171   3.883  1.4313 -0.0869 -0.3896
 2231SOL    HW2 8462   9.006   5.107   3.951  0.5702  1.7574 -0.1280
 2232SOL     OW 8463   7.472   5.171   6.475 -0.1336  0.2347 -0.4467
 2232SOL    HW1 8464   7.433   5.093   6.436  0.2426 -0.6822  0.9281
 2232SOL    HW2 8465   7.402   5.236   6.475 -1.5144 -1.1454  1.3169
 2233SOL     OW 8466   1.422   7.729   6.728  0.6583 -0.2700  0.2825
 2233SOL    HW1 8467   1.510   7.690   6.728  0.6359 -0.3639  1.6701
 2233SOL    HW2 8468   1.390   7.717   6.817 -0.9759 -0.6560 -0.3259
 2234SOL     OW 8469   5.976   0.105   2.573 -0.3320 -0.2084 -0.1366
 2234SOL    HW1 8470   5.914   0.032   2.580  1.2300 -1.6767 -0.8384
 2234SOL    HW2 8471   5.973   0.129   2.480  0.6061 -0.7689 -0.3325
 2235SOL     OW 8472   0.618   8.182   5.725  0.5529  0.3697 -0.1072
 2235SOL    HW1 8473   0.666   8.245   5.671 -0.8468  0.2277 -1.6024
 2235SOL    HW2 8474   0.624   8.216   5.814  0.6534  2.1023 -0.7425
 2236SOL     OW 8475   8.823   2.902   3.783  0.1416  0.1833  0.2634
 2236SOL    HW1 8476   8.911   2.921   3.814  0.7577 -0.8732 -0.7362
 2236SOL    HW2 8477   8.790   2.835   3.843  0.2993  0.0671  0.2216
 2237SOL     OW 8478   4.153   8.030   2.977  0.0105 -0.1165 -0.1297
 2237SOL    HW1 8479   4.100   8.052   2.901 -2.6629  0.3541  1.7178
 2237SOL    HW2 8480   4.163   7.935   2.973 -1.1286 -0.2328 -0.4788
 2238SOL     OW 8481   1.324   2.631   2.474  0.5629  0.2439 -0.0099
 2238SOL    HW1 8482   1.267   2.707   2.463  0.0075  0.2129  2.1816
 2238SOL    HW2 8483   1.269   2.556   2.448  0.6348  0.4469 -0.7809
 2239SOL     OW 8484   5.986   9.383   4.988  0.5747 -0.3371 -0.4000
 2239SOL    HW1 8485   5.936   9.443   4.932  1.0710 -0.7329 -1.2842
 2239SOL    HW2 8486   6.078   9.409   4.975  0.6672 -0.0453  0.7013
 2240SOL     OW 8487   5.293   5.804   8.110  0.1790 -0.2453  0.1752
 2240SOL    HW1 8488   5.246   5.869   8.058  0.5564  0.9298  1.2550
 2240SOL    HW2 8489   5.292   5.839   8.199  0.1974 -1.8416  0.8388
 2241SOL     OW 8490   0.228   4.837   0.947  0.1694  0.0756 -0.4682
 2241SOL    HW1 8491   0.190   4.762   0.993  0.0731  0.6484  0.4097
 2241SOL    HW2 8492   0.178   4.843   0.866 -0.9590  0.1935  0.2037
 2242SOL     OW 8493   0.018   0.364   2.307 -0.2473  0.3479  0.3203
 2242SOL    HW1 8494   0.005   0.421   2.231 -0.6616  0.4140  0.4340
 2242SOL    HW2 8495  -0.070   0.351   2.342  0.0339  1.1367  1.3777
 2243SOL     OW 8496   7.627   1.575   5.257 -0.4206 -0.0401 -0.3242
 2243SOL    HW1 8497   7.661   1.664   5.268 -0.1841 -0.2041  0.3040
 2243SOL    HW2 8498   7.702   1.518   5.274 -1.1800 -0.4327  2.0774
 2244SOL     OW 8499   9.265   8.163   1.097  0.0907  0.2239  0.1414
 2244SOL    HW1 8500   9.243   8.101   1.027  1.2978 -0.8637  0.6813
 2244SOL    HW2 8501   9.189   8.221   1.103 -0.5490 -0.4355 -1.2271
 2245SOL     OW 8502   4.285   4.747   1.631  0.1526 -0.0104 -0.4216
 2245SOL    HW1 8503   4.214   4.788   1.681  0.3273  0.0104 -0.1910
 2245SOL    HW2 8504   4.354   4.813   1.631  0.7185 -0.5961  0.5821
 2246SOL     OW 8505   8.450   9.115   4.765 -0.2968 -0.6727  0.0972
 2246SOL    HW1 8506   8.360   9.149   4.760  0.6836  1.9015 -1.9031
 2246SOL    HW2 8507   8.466   9.076   4.680  0.4904 -1.1272  0.4461
 2247SOL     OW 8508   8.644   7.224   9.342 -0.3670  0.6420 -0.4408
 2247SOL    HW1 8509   8.640   7.198   9.435  2.4991 -0.1772 -0.4729
 2247SOL    HW2 8510   8.652   7.319   9.344  0.5348  0.5607  0.2031
 2248SOL     OW 8511   1.730   2.348   1.546  0.1354 -0.3134 -0.1850
 2248SOL    HW1 8512   1.819   2.381   1.563  0.6972  0.5450 -3.9066
 2248SOL    HW2 8513   1.680   2.427   1.526 -0.8081 -1.0197 -0.6351
 2249SOL     OW 8514   1.021   5.357   7.547  0.0354 -0.6117  0.4392
 2249SOL    HW1 8515   1.060   5.421   7.606 -1.8328  1.0222  0.0361
 2249SOL    HW2 8516   0.963   5.305   7.602 -0.1303 -0.4551  0.4170
 2250SOL     OW 8517   1.956   2.833   8.953 -0.4867 -0.0339 -0.6002
 2250SOL    HW1 8518   1.980   2.881   8.873 -1.7599 -0.3062 -1.1774
 2250SOL    HW2 8519   1.891   2.889   8.996  0.4829  0.2984  0.4788
 2251SOL     OW 8520   2.530   5.528   4.143  0.2927  0.4445  0.0165
 2251SOL    HW1 8521   2.589   5.522   4.067 -0.0715 -1.5975 -0.1667
 2251SOL    HW2 8522   2.588   5.528   4.219  0.5958  0.7107 -0.2116
 2252SOL     OW 8523   7.483   8.758   5.750  0.1487 -0.0640  0.3012
 2252SOL    HW1 8524   7.421   8.731   5.818 -0.4089 -0.1425 -0.2215
 2252SOL    HW2 8525   7.565   8.716   5.774 -0.7633 -2.6032 -0.6775
 2253SOL     OW 8526   5.589   6.974   3.564 -0.5949  0.3151  0.2460
 2253SOL    HW1 8527   5.633   7.051   3.600 -1.7381  1.3720 -0.5372
 2253SOL    HW2 8528   5.657   6.907   3.562 -0.0016  0.7684  2.5399
 2254SOL     OW 8529   7.901   3.148   8.615 -0.6080 -0.1290 -0.1399
 2254SOL    HW1 8530   7.944   3.063   8.612 -1.2664 -0.4618 -0.3455
 2254SOL    HW2 8531   7.972   3.211   8.599 -0.1983 -0.6634 -0.4745
 2255SOL     OW 8532   2.673   4.978   5.967 -0.5422 -0.3471  0.1153
 2255SOL    HW1 8533   2.654   4.945   5.879 -0.6301  1.3255 -0.5249
 2255SOL    HW2 8534   2.588   5.006   6.001 -0.2479  0.8433 -0.0745
 2256SOL     OW 8535   9.378   7.976   4.557  0.6358  0.1183 -0.4296
 2256SOL    HW1 8536   9.438   7.920   4.607 -0.3979 -0.8095 -0.1834
 2256SOL    HW2 8537   9.335   7.915   4.496 -2.2079  0.1157  1.3796
 2257SOL     OW 8538   7.074   6.444   3.921 -0.1494  0.3519 -0.4522
 2257SOL    HW1 8539   7.167   6.425   3.912  0.2647  1.1512  1.6352
 2257SOL    HW2 8540   7.060   6.450   4.015 -2.1937  0.8983 -0.7478
 2258SOL     OW 8541   5.433   1.346   0.887 -0.3774 -0.0895  0.1650
 2258SOL    HW1 8542   5.446   1.389   0.971 -0.9919  0.6246 -0.0949
 2258SOL    HW2 8543   5.460   1.411   0.822 -1.5920  0.0397 -0.2402
 2259SOL     OW 8544   1.352   0.008   2.161 -0.4003 -0.0571  0.1459
 2259SOL    HW1 8545   1.280   0.070   2.149 -0.6101 -0.4904 -0.8942
 2259SOL    HW2 8546   1.431   0.062   2.158 -0.4933  0.0511 -2.0803
 2260SOL     OW 8547   6.780   2.475   4.823 -0.4691 -0.0544  0.1494
 2260SOL    HW1 8548   6.697   2.441   4.856  0.6903 -2.1991  1.0859
 2260SOL    HW2 8549   6.817   2.402   4.772  0.8614  0.8219 -0.2032
 2261SOL     OW 8550   7.192   6.274   2.207  0.1890  0.5557 -0.5074
 2261SOL    HW1 8551   7.118   6.223   2.173 -0.1535  0.2482  0.6289
 2261SOL    HW2 8552   7.266   6.248   2.153 -0.1436 -0.5712 -0.4491
 2262SOL     OW 8553   9.378   6.111   1.976 -0.6459  0.0286  0.1136
 2262SOL    HW1 8554   9.375   6.018   2.000  1.7933 -0.4002 -0.8592
 2262SOL    HW2 8555   9.418   6.154   2.052  0.5156 -0.1724 -0.3541
 2263SOL     OW 8556   1.656   7.382   4.554  0.0905  0.3026 -0.5082
 2263SOL    HW1 8557   1.639   7.412   4.643 -0.9926 -2.3785  0.2774
 2263SOL    HW2 8558   1.732   7.326   4.561 -0.2699 -0.2884 -1.1892
 2264SOL     OW 8559   3.129   6.558   8.246  0.2784 -0.6597  0.0053
 2264SOL    HW1 8560   3.215   6.600   8.252  0.1949 -0.5357  0.3459
 2264SOL    HW2 8561   3.121   6.533   8.154  0.9294 -1.1968  0.0868
 2265SOL     OW 8562   6.763   7.892   6.147 -0.1128  0.1647  0.3937
 2265SOL    HW1 8563   6.735   7.927   6.062  1.4355  0.7145  0.0862
 2265SOL    HW2 8564   6.699   7.824   6.167 -2.3762  2.1158  0.3005
 2266SOL     OW 8565   7.876   0.989   9.630  0.0188 -0.0023 -0.0585
 2266SOL    HW1 8566   7.941   0.973   9.698  0.2350  1.1677  0.0349
 2266SOL    HW2 8567   7.923   0.974   9.548  0.5539  1.2402 -0.0042
 2267SOL     OW 8568   0.132   5.302   3.126  0.2158 -0.2190  0.1957
 2267SOL    HW1 8569   0.125   5.230   3.064  1.1127  0.1803 -0.3880
 2267SOL    HW2 8570   0.105   5.379   3.077 -1.3378 -0.2175  0.9925
 2268SOL     OW 8571   7.702   8.931   5.875  0.0534  0.1334  0.3269
 2268SOL    HW1 8572   7.703   8.866   5.805  0.9275  1.2016 -0.7006
 2268SOL    HW2 8573   7.754   8.891   5.945 -0.1327 -0.6181  0.0479
 2269SOL     OW 8574   4.550   0.166   2.385 -0.3832  0.7940 -0.3774
 2269SOL    HW1 8575   4.628   0.217   2.361 -0.1390  1.1688  1.0782
 2269SOL    HW2 8576   4.582   0.104   2.451 -0.9786 -0.2646 -1.0676
 2270SOL     OW 8577   8.399   2.229   0.641 -0.6980  0.5374  0.1369
 2270SOL    HW1 8578   8.474   2.172   0.625 -0.9348 -0.1309  1.2384
 2270SOL    HW2 8579   8.341   2.176   0.697 -1.7918  1.1928 -0.3542
 2271SOL     OW 8580   9.417   2.261   9.134  0.0065  0.2930  0.2374
 2271SOL    HW1 8581   9.429   2.242   9.040 -0.7273 -1.8969  0.5296
 2271SOL    HW2 8582   9.499   2.234   9.174  0.2804  1.1336  0.2629
 2272SOL     OW 8583   8.236   6.026   3.561 -0.2599  0.3439 -0.4926
 2272SOL    HW1 8584   8.142   6.043   3.568 -0.3033  0.1819 -0.6516
 2272SOL    HW2 8585   8.256   6.037   3.468 -0.1624  0.1814 -0.4917
 2273SOL     OW 8586   2.619   3.823   7.768  0.1199  0.4139  1.0974
 2273SOL    HW1 8587   2.621   3.740   7.720  0.2461  0.0819  1.6602
 2273SOL    HW2 8588   2.532   3.826   7.808  0.3713  0.1888  1.6831
 2274SOL     OW 8589   0.923   7.092   5.231 -0.3325  0.1653  0.0757
 2274SOL    HW1 8590   0.844   7.107   5.180 -0.2379  3.6298  0.6944
 2274SOL    HW2 8591   0.973   7.173   5.223  3.2455 -1.8734 -0.3003
 2275SOL     OW 8592   8.627   6.427   5.394 -0.0838 -0.4164  0.3814
 2275SOL    HW1 8593   8.640   6.452   5.303 -0.4642 -0.9705  0.1697
 2275SOL    HW2 8594   8.715   6.408   5.427  0.0110 -0.5955  0.0213
 2276SOL     OW 8595   0.425   6.419   4.890 -0.3274 -0.0559  0.0268
 2276SOL    HW1 8596   0.401   6.327   4.901  1.4337 -0.4205  1.0465
 2276SOL    HW2 8597   0.449   6.449   4.978  0.4641  0.9753 -0.5190
 2277SOL     OW 8598   4.431   8.176   0.211 -0.0183  0.5261 -0.0932
 2277SOL    HW1 8599   4.513   8.171   0.161  1.6650 -1.6535  2.5966
 2277SOL    HW2 8600   4.457   8.210   0.296 -1.7339 -0.9660  1.1040
 2278SOL     OW 8601   0.229   8.263   5.540  0.2843  0.3188  0.1115
 2278SOL    HW1 8602   0.202   8.241   5.629 -0.1319  2.4698  0.5916
 2278SOL    HW2 8603   0.324   8.275   5.546  0.4491 -0.8040 -0.0582
 2279SOL     OW 8604   9.605   9.109   6.088 -0.2573 -0.0999 -0.3730
 2279SOL    HW1 8605   9.583   9.088   5.997 -1.0415  2.7353 -0.9361
 2279SOL    HW2 8606   9.701   9.118   6.087 -0.2180 -0.4718 -0.7981
 2280SOL     OW 8607   1.138   2.094   6.106  0.1423  0.1209 -0.6112
 2280SOL    HW1 8608   1.072   2.094   6.176  0.6332  0.8485 -0.1288
 2280SOL    HW2 8609   1.143   2.003   6.077  0.2209 -0.2795  0.5915
 2281SOL     OW 8610   1.766   1.832   7.744  1.0079  0.1002  0.2169
 2281SOL    HW1 8611   1.838   1.771   7.728  2.0958  1.6565 -1.1913
 2281SOL    HW2 8612   1.794   1.882   7.820  0.6739 -0.3537  0.6389
 2282SOL     OW 8613   3.358   9.217   0.544 -0.0413 -0.2312  0.2473
 2282SOL    HW1 8614   3.311   9.157   0.485  0.4729 -1.5681  1.1581
 2282SOL    HW2 8615   3.293   9.284   0.565 -0.6261 -0.4304 -0.8307
 2283SOL     OW 8616   3.885   9.653   2.366  0.0126  0.0869 -0.4782
 2283SOL    HW1 8617   3.858   9.696   2.285 -0.1343 -0.3007 -0.6378
 2283SOL    HW2 8618   3.949   9.714   2.405 -0.0027  0.3296 -0.8239
 2284SOL     OW 8619   2.459   1.066   4.337  0.0548 -0.8453 -0.1436
 2284SOL    HW1 8620   2.495   0.978   4.336  0.2333 -0.7697 -0.3947
 2284SOL    HW2 8621   2.499   1.108   4.414 -1.1256 -1.4301  0.8302
 2285SOL     OW 8622   4.236   7.016   4.832 -0.0675 -0.6455 -0.2913
 2285SOL    HW1 8623   4.237   6.931   4.789 -0.1863 -1.8418  1.9208
 2285SOL    HW2 8624   4.158   7.015   4.887  1.3101 -0.2241  1.7863
 2286SOL     OW 8625   3.184   3.007   1.556  0.0100 -0.3622  0.1113
 2286SOL    HW1 8626   3.231   3.082   1.518  1.8756 -1.8583 -0.7232
 2286SOL    HW2 8627   3.207   3.010   1.649  1.0660 -0.5330 -0.1255
 2287SOL     OW 8628   2.176   6.896   7.604 -0.2740 -0.0857  0.1901
 2287SOL    HW1 8629   2.244   6.836   7.573  2.8094  3.2318 -0.1775
 2287SOL    HW2 8630   2.114   6.901   7.531  0.2496 -1.5728 -0.3945
 2288SOL     OW 8631   8.696   2.179   6.999  0.0601  0.8123 -0.4312
 2288SOL    HW1 8632   8.623   2.228   6.961 -0.7715 -0.0917 -0.0378
 2288SOL    HW2 8633   8.717   2.113   6.933  1.7228  2.1647 -1.3201
 2289SOL     OW 8634   3.431   0.362   2.918  0.5836 -0.1641 -0.5670
 2289SOL    HW1 8635   3.450   0.343   3.010  1.5332 -0.9653 -0.8997
 2289SOL    HW2 8636   3.441   0.457   2.911  0.7270 -0.1191  0.1162
 2290SOL     OW 8637   9.778   9.632   6.724  0.1939 -0.0650  0.2287
 2290SOL    HW1 8638   9.724   9.557   6.698  1.3531 -0.5570 -0.8734
 2290SOL    HW2 8639   9.747   9.703   6.668  1.4514 -0.6608 -1.3182
 2291SOL     OW 8640   1.705   3.340   9.404  0.5492 -0.1726 -0.1566
 2291SOL    HW1 8641   1.698   3.250   9.435 -0.0005 -0.1407 -0.1756
 2291SOL    HW2 8642   1.782   3.340   9.347 -0.3188 -0.9885 -1.3782
 2292SOL     OW 8643   6.191   8.359   4.715  0.3086  0.0232  0.4660
 2292SOL    HW1 8644   6.259   8.383   4.778 -1.3290 -0.9354  2.7484
 2292SOL    HW2 8645   6.122   8.423   4.729  0.5912  0.8504 -1.6622
 2293SOL     OW 8646   4.259   7.206   7.891 -0.0073  1.0404  0.3223
 2293SOL    HW1 8647   4.199   7.225   7.819 -0.1851 -1.9542 -0.4540
 2293SOL    HW2 8648   4.345   7.232   7.859 -0.1951  0.4532 -0.6816
 2294SOL     OW 8649   3.931   1.055   9.081 -0.0401 -0.2494 -0.3981
 2294SOL    HW1 8650   3.901   1.101   9.003  0.5191 -0.0594 -0.5011
 2294SOL    HW2 8651   4.026   1.052   9.073  0.0144 -0.3237  0.2222
 2295SOL     OW 8652   4.124   1.658   1.165 -0.2160  0.9302 -0.0063
 2295SOL    HW1 8653   4.039   1.692   1.139 -0.2798 -1.2944 -3.3719
 2295SOL    HW2 8654   4.107   1.567   1.190  0.9795  0.8660  0.6597
 2296SOL     OW 8655   9.816   0.023   1.544  0.3477  0.4277  0.1223
 2296SOL    HW1 8656   9.761  -0.034   1.490  0.4305  0.1518  0.3304
 2296SOL    HW2 8657   9.898  -0.024   1.553 -0.5640 -0.8051  2.7565
 2297SOL     OW 8658   3.688   9.758   3.481  0.1502  0.3892  0.2481
 2297SOL    HW1 8659   3.745   9.702   3.428 -2.5331 -0.7117 -1.6973
 2297SOL    HW2 8660   3.668   9.705   3.558  0.6691  0.2267  0.2740
 2298SOL     OW 8661   4.069   0.357   8.564 -0.3169 -0.0139 -0.7397
 2298SOL    HW1 8662   4.014   0.344   8.641  0.4197 -0.0549 -0.2067
 2298SOL    HW2 8663   4.022   0.420   8.510 -0.3674  0.7996  0.2270
 2299SOL     OW 8664   5.986   0.432   1.525  0.1219  0.6749 -0.0560
 2299SOL    HW1 8665   5.977   0.337   1.514  1.9283  0.5018 -0.2354
 2299SOL    HW2 8666   5.917   0.469   1.470 -0.2492 -0.5167 -0.4252
 2300SOL     OW 8667   8.640   5.384   7.182  0.1659  0.3339 -0.2280
 2300SOL    HW1 8668   8.595   5.467   7.169  0.4504  0.3134 -1.4527
 2300SOL    HW2 8669   8.723   5.394   7.137  0.1424 -0.6694 -0.5211
 2301SOL     OW 8670   3.404   9.324   4.103 -0.0864 -0.3695  0.3836
 2301SOL    HW1 8671   3.318   9.317   4.145 -0.2990 -0.0441  0.0117
 2301SOL    HW2 8672   3.453   9.248   4.136 -0.6819 -0.8367  0.2077
 2302SOL     OW 8673   8.375   2.381   8.239 -0.5381  0.1368  0.4542
 2302SOL    HW1 8674   8.433   2.316   8.278 -1.3838 -1.5473 -0.9784
 2302SOL    HW2 8675   8.435   2.448   8.204  0.2826  1.1963  3.5360
 2303SOL     OW 8676   2.895   2.902   1.235  0.9930 -0.0704  0.3021
 2303SOL    HW1 8677   2.878   2.920   1.327 -1.0645  3.2993 -0.5791
 2303SOL    HW2 8678   2.965   2.963   1.211  1.9578 -1.3635 -0.2864
 2304SOL     OW 8679   0.162   0.220   5.036 -0.2635 -0.3755  0.6356
 2304SOL    HW1 8680   0.187   0.128   5.026 -1.6031 -0.6131 -1.1289
 2304SOL    HW2 8681   0.153   0.252   4.946  0.7839  1.6855  1.1980
 2305SOL     OW 8682   2.219   9.664   0.987  0.3076 -0.4492 -0.0601
 2305SOL    HW1 8683   2.135   9.621   0.969  0.3718 -0.4661 -0.3278
 2305SOL    HW2 8684   2.280   9.625   0.924  0.3585  0.0536 -0.3276
 2306SOL     OW 8685   5.591   6.493   2.740 -0.1588  0.5025 -0.0665
 2306SOL    HW1 8686   5.677   6.510   2.701 -0.0896 -0.7096 -0.4725
 2306SOL    HW2 8687   5.609   6.485   2.834 -0.1783  2.4274  0.1444
 2307SOL     OW 8688   4.459   9.265   0.749 -0.2953 -0.7037 -0.6501
 2307SOL    HW1 8689   4.530   9.201   0.754  1.1916  0.9180  0.2695
 2307SOL    HW2 8690   4.495   9.344   0.790 -3.2158 -0.2972  1.4882
 2308SOL     OW 8691   4.884   5.911   3.303 -0.2750 -0.4890  0.1579
 2308SOL    HW1 8692   4.805   5.873   3.342 -0.2432  0.0844  0.7986
 2308SOL    HW2 8693   4.915   5.974   3.368  0.3938 -0.2966 -0.3358
 2309SOL     OW 8694   5.362   6.713   5.212 -0.0070 -0.1907  0.3340
 2309SOL    HW1 8695   5.304   6.637   5.210 -0.0850 -0.1559  1.1104
 2309SOL    HW2 8696   5.402   6.715   5.125 -1.4871  0.0323 -0.3744
 2310SOL     OW 8697   1.291   4.165   7.844 -0.3303 -0.5189 -0.5160
 2310SOL    HW1 8698   1.339   4.152   7.926 -1.6876 -3.8444 -0.0777
 2310SOL    HW2 8699   1.204   4.195   7.871  0.1480  1.5497 -1.0524
 2311SOL     OW 8700   2.897   1.155   5.682  1.2167  0.2363 -0.2639
 2311SOL    HW1 8701   2.889   1.251   5.682 -0.2053  0.1443 -0.9845
 2311SOL    HW2 8702   2.945   1.135   5.762 -0.7840  1.3984  1.3476
 2312SOL     OW 8703   0.592   3.438   8.739 -0.4621 -0.2365 -0.3759
 2312SOL    HW1 8704   0.613   3.408   8.651 -0.8404 -1.1219 -0.1721
 2312SOL    HW2 8705   0.674   3.475   8.772 -0.3854  0.3629 -1.1912
 2313SOL     OW 8706   0.517   0.805   2.371 -0.0043 -0.9333 -0.1575
 2313SOL    HW1 8707   0.572   0.849   2.306 -1.3000 -1.1667 -1.4783
 2313SOL    HW2 8708   0.520   0.861   2.448  1.8754 -0.8351 -0.2676
 2314SOL     OW 8709   4.285   0.514   9.510  0.2966  0.4447  0.3166
 2314SOL    HW1 8710   4.314   0.527   9.420 -1.1333 -0.4042 -0.2972
 2314SOL    HW2 8711   4.285   0.419   9.521 -1.0151  0.4678  0.6850
 2315SOL     OW 8712   0.105   4.095   6.072 -0.0178 -0.3707  0.2875
 2315SOL    HW1 8713   0.059   4.145   6.140 -0.4142 -0.0505 -0.2114
 2315SOL    HW2 8714   0.134   4.015   6.117  0.8321  0.3963  1.1607
 2316SOL     OW 8715   7.267   3.670   8.222  0.4284  0.4659 -0.1434
 2316SOL    HW1 8716   7.323   3.652   8.147 -2.9423 -1.4400 -2.4771
 2316SOL    HW2 8717   7.209   3.740   8.192 -0.3531  0.3593  1.0512
 2317SOL     OW 8718   7.806   5.475   9.152 -0.3892  0.1100 -0.0552
 2317SOL    HW1 8719   7.832   5.493   9.242 -1.1723 -0.1677  0.2341
 2317SOL    HW2 8720   7.888   5.465   9.105  0.1223 -2.7555  1.2291
 2318SOL     OW 8721   0.171   1.463   7.985 -0.3422  0.1680  0.7590
 2318SOL    HW1 8722   0.211   1.379   8.007 -0.7281  0.3603  2.2987
 2318SOL    HW2 8723   0.084   1.441   7.952 -0.2228 -0.0612  0.5978
 2319SOL     OW 8724   3.347   5.105   1.135  0.3082 -0.2670 -0.3143
 2319SOL    HW1 8725   3.316   5.064   1.216  1.9633  0.5470  0.7712
 2319SOL    HW2 8726   3.281   5.080   1.069 -1.1096 -0.8929  1.2690
 2320SOL     OW 8727   0.397   5.211   5.925  0.1123 -0.4752 -0.3794
 2320SOL    HW1 8728   0.474   5.249   5.966 -0.5173  0.4603 -0.0148
 2320SOL    HW2 8729   0.325   5.231   5.985 -0.6798  0.0955 -1.4647
 2321SOL     OW 8730   1.375   4.767   8.756  0.1480 -0.6590 -0.2986
 2321SOL    HW1 8731   1.329   4.851   8.754 -0.7010 -0.8545  3.7415
 2321SOL    HW2 8732   1.466   4.790   8.737 -0.4561  0.6917 -1.9238
 2322SOL     OW 8733   3.785   3.984   1.660 -0.2709  0.0279 -0.1076
 2322SOL    HW1 8734   3.845   3.911   1.679  0.2369  0.5279  0.2381
 2322SOL    HW2 8735   3.828   4.032   1.589  1.2078  2.0202  1.9794
 2323SOL     OW 8736   0.969   4.979   9.426  0.5633  0.4565 -0.1792
 2323SOL    HW1 8737   0.944   4.887   9.428 -0.2355  0.6625  1.9204
 2323SOL    HW2 8738   1.045   4.984   9.483  0.9388  1.0323 -0.7155
 2324SOL     OW 8739   8.218   2.416   0.035 -0.3903 -0.0640 -0.6015
 2324SOL    HW1 8740   8.263   2.341   0.075  1.1365  0.0348 -2.0218
 2324SOL    HW2 8741   8.250   2.492   0.084 -1.7682 -0.2666  0.6922
 2325SOL     OW 8742   9.109   0.213   4.316  0.0415  0.1478  0.4352
 2325SOL    HW1 8743   9.032   0.171   4.354  0.7989 -2.6122 -0.8113
 2325SOL    HW2 8744   9.174   0.212   4.386  0.3394 -1.7068  0.1645
 2326SOL     OW 8745   9.036   3.158   6.839  0.3911  0.0436  0.1945
 2326SOL    HW1 8746   9.050   3.154   6.933  0.8762 -0.7394  0.0980
 2326SOL    HW2 8747   9.011   3.069   6.815  1.5516 -0.0907 -0.6067
 2327SOL     OW 8748   4.570   5.146   6.025  0.7417 -0.0362 -0.2883
 2327SOL    HW1 8749   4.639   5.209   6.007 -0.4756  1.7559  1.0087
 2327SOL    HW2 8750   4.591   5.111   6.112  0.4737 -0.1112 -0.2521
 2328SOL     OW 8751   2.504   7.613   4.910 -0.3711  0.7703 -0.4003
 2328SOL    HW1 8752   2.506   7.651   4.822  2.1861  0.1058 -0.7348
 2328SOL    HW2 8753   2.450   7.672   4.962 -1.4889  1.4730 -2.2791
 2329SOL     OW 8754   9.644   4.505   7.346 -0.5025 -0.3448 -0.0606
 2329SOL    HW1 8755   9.610   4.591   7.368 -0.9458 -0.2969 -0.9140
 2329SOL    HW2 8756   9.668   4.511   7.253  2.4516 -0.1635  0.6180
 2330SOL     OW 8757   7.902   7.312   9.681 -0.6095  0.2913 -0.4209
 2330SOL    HW1 8758   7.975   7.325   9.622 -0.1804 -0.5863 -0.1119
 2330SOL    HW2 8759   7.850   7.392   9.675  1.4673  1.8354  0.9175
 2331SOL     OW 8760   0.593   7.959   2.293 -0.0177  0.7397  0.1387
 2331SOL    HW1 8761   0.577   7.952   2.199 -0.8638  0.4433  0.2993
 2331SOL    HW2 8762   0.687   7.943   2.303 -0.3298 -1.8645 -0.3971
 2332SOL     OW 8763   1.061   3.776   9.264  0.3005  0.5038 -0.5928
 2332SOL    HW1 8764   1.125   3.736   9.323  0.9314 -1.9421 -2.7343
 2332SOL    HW2 8765   1.107   3.850   9.226  1.4637 -0.4614 -1.1410
 2333SOL     OW 8766   6.485   3.870   5.260  0.3545 -0.1721 -0.3395
 2333SOL    HW1 8767   6.580   3.855   5.253  0.1843 -0.6182 -2.4145
 2333SOL    HW2 8768   6.447   3.814   5.192 -1.2222  1.4350 -0.8720
 2334SOL     OW 8769   3.592   0.545   3.822 -0.1031 -0.2466 -0.3196
 2334SOL    HW1 8770   3.629   0.570   3.737  0.9212  0.5448  0.3361
 2334SOL    HW2 8771   3.590   0.626   3.872 -4.3278  0.1513 -0.8244
 2335SOL     OW 8772   3.687   1.511   6.113  0.0963 -0.1860 -0.2577
 2335SOL    HW1 8773   3.616   1.568   6.086 -0.1057 -0.3327 -0.0353
 2335SOL    HW2 8774   3.761   1.570   6.129 -0.0664 -0.0040 -0.1827
 2336SOL     OW 8775   9.317   4.125   3.010  0.0343 -0.1948  0.4489
 2336SOL    HW1 8776   9.363   4.046   2.983  1.6001  1.0575 -0.7155
 2336SOL    HW2 8777   9.260   4.096   3.081  2.5841 -1.8829  1.9959
 2337SOL     OW 8778   1.668   8.736   5.609 -0.2423  0.3544 -0.6219
 2337SOL    HW1 8779   1.615   8.692   5.675 -0.0596  0.7686 -0.1934
 2337SOL    HW2 8780   1.703   8.813   5.654 -0.1772  0.6796 -1.2256
 2338SOL     OW 8781   1.766   5.828   6.370 -0.2198  0.1520 -0.1812
 2338SOL    HW1 8782   1.820   5.876   6.307  0.2578 -1.4362 -1.0367
 2338SOL    HW2 8783   1.819   5.825   6.450 -0.0381  0.5820 -0.2833
 2339SOL     OW 8784   0.788   5.943   3.294  0.0606 -0.0560 -0.2957
 2339SOL    HW1 8785   0.791   5.901   3.208 -2.0623 -1.6917  0.3343
 2339SOL    HW2 8786   0.853   5.894   3.346 -0.2368 -0.5393 -0.3780
 2340SOL     OW 8787   7.106   1.731   3.139 -0.4997  0.0314  0.8830
 2340SOL    HW1 8788   7.160   1.653   3.151 -1.3851 -0.6973  0.2867
 2340SOL    HW2 8789   7.035   1.702   3.081 -0.3203  1.5286 -0.1288
 2341SOL     OW 8790   5.246   8.716   2.986  0.0820  0.4814 -0.0680
 2341SOL    HW1 8791   5.254   8.722   2.891 -1.2109  3.6829 -0.0773
 2341SOL    HW2 8792   5.287   8.796   3.019 -0.3529 -0.1049  2.0127
 2342SOL     OW 8793   2.210   3.441   4.186 -0.2884 -0.6892  0.1048
 2342SOL    HW1 8794   2.134   3.400   4.228 -0.1822 -0.4346  0.5569
 2342SOL    HW2 8795   2.247   3.372   4.132 -1.2361 -0.6246 -0.6542
 2343SOL     OW 8796   6.482   0.610   8.082 -0.2081 -0.2570  0.0031
 2343SOL    HW1 8797   6.412   0.565   8.036  0.1589 -0.4556 -0.3630
 2343SOL    HW2 8798   6.468   0.703   8.062  0.1053 -0.3606 -0.7351
 2344SOL     OW 8799   0.809   5.475   5.152  0.0776 -0.2561 -0.3937
 2344SOL    HW1 8800   0.781   5.543   5.213  0.6570 -0.0378 -0.3683
 2344SOL    HW2 8801   0.874   5.518   5.096  1.2692 -1.0872  0.3230
 2345SOL     OW 8802   4.975   0.972   0.415 -0.0833 -1.2536  0.0049
 2345SOL    HW1 8803   5.013   0.959   0.502 -0.2625 -0.9783  0.1276
 2345SOL    HW2 8804   4.945   1.063   0.416  2.1121 -0.4555 -1.1894
 2346SOL     OW 8805   8.322   5.412   1.175  0.6854 -0.5501  0.6448
 2346SOL    HW1 8806   8.276   5.476   1.121 -0.1012 -1.7910 -0.1793
 2346SOL    HW2 8807   8.264   5.397   1.249  0.2846 -1.2476  0.1946
 2347SOL     OW 8808   8.318   6.411   0.280  0.4555  0.3639 -0.4187
 2347SOL    HW1 8809   8.389   6.462   0.318 -1.3714  1.3254  1.9585
 2347SOL    HW2 8810   8.355   6.324   0.267  1.8614  0.5948  1.5915
 2348SOL     OW 8811   0.185   1.685   3.909 -0.3336 -0.4590  0.4333
 2348SOL    HW1 8812   0.146   1.625   3.972 -0.9168  0.2726  0.7855
 2348SOL    HW2 8813   0.147   1.770   3.930 -2.5817 -0.5814 -2.5310
 2349SOL     OW 8814   3.261   1.107   5.493 -0.1866  0.0356  0.3012
 2349SOL    HW1 8815   3.223   1.193   5.511  0.3619  0.0669  1.4099
 2349SOL    HW2 8816   3.192   1.045   5.520 -1.8152  0.0603 -3.2849
 2350SOL     OW 8817   3.799   8.235   8.552  0.0565  0.2304  0.5780
 2350SOL    HW1 8818   3.829   8.305   8.610  0.3062  0.5502  0.0668
 2350SOL    HW2 8819   3.879   8.188   8.528  0.0858  0.7155 -0.3046
 2351SOL     OW 8820   5.984   6.508   2.211 -0.6708  0.3353 -0.0262
 2351SOL    HW1 8821   5.996   6.441   2.144  0.4433  0.0235  0.4758
 2351SOL    HW2 8822   6.072   6.526   2.244 -1.2445  0.0010  1.8244
 2352SOL     OW 8823   8.618   2.236   6.396  0.9176 -0.3040  0.1312
 2352SOL    HW1 8824   8.536   2.275   6.364  0.7321 -0.1903  0.7300
 2352SOL    HW2 8825   8.686   2.295   6.364  0.5275  1.6049  2.5246
 2353SOL     OW 8826   3.915   2.632   3.475  0.3459  0.0539 -0.4415
 2353SOL    HW1 8827   3.988   2.579   3.505  0.7789  0.0647 -1.4260
 2353SOL    HW2 8828   3.867   2.575   3.415 -0.7738 -0.1298  0.5783
 2354SOL     OW 8829   1.368   5.252   0.341  0.0865  0.0970  0.1887
 2354SOL    HW1 8830   1.380   5.159   0.355  0.0109  0.3223  1.9179
 2354SOL    HW2 8831   1.457   5.288   0.339  0.1302 -0.0263 -0.7906
 2355SOL     OW 8832   2.655   4.882   5.696  0.9429  0.0622  0.0084
 2355SOL    HW1 8833   2.685   4.796   5.666  2.8985  0.4514  0.6698
 2355SOL    HW2 8834   2.702   4.944   5.640  1.5621  0.7109  1.2156
 2356SOL     OW 8835   4.488   9.053   8.082 -0.5312  0.0483  0.3379
 2356SOL    HW1 8836   4.450   9.079   8.166  0.2323  0.4028  0.5831
 2356SOL    HW2 8837   4.577   9.088   8.084 -1.3586  2.6343 -1.8289
 2357SOL     OW 8838   1.844   4.959   7.202 -0.0685  0.2758 -0.1703
 2357SOL    HW1 8839   1.867   4.867   7.212  3.9243  1.2985  2.2122
 2357SOL    HW2 8840   1.905   4.993   7.138 -0.8847  1.4753 -0.3527
 2358SOL     OW 8841   4.156   3.891   2.515 -0.1346 -0.2845 -0.2245
 2358SOL    HW1 8842   4.142   3.973   2.564  0.8414  0.2448 -0.7965
 2358SOL    HW2 8843   4.114   3.824   2.569 -1.3269  0.6411  0.0541
 2359SOL     OW 8844   9.143   9.546   3.737  1.0114 -0.2440  0.3482
 2359SOL    HW1 8845   9.079   9.618   3.734  0.9328 -0.3242  0.0025
 2359SOL    HW2 8846   9.123   9.494   3.659  1.2097 -0.5206  0.4826
 2360SOL     OW 8847   1.516   7.878   0.930 -0.5575 -0.2178 -0.8618
 2360SOL    HW1 8848   1.556   7.797   0.961  1.3863  1.5750  1.8164
 2360SOL    HW2 8849   1.499   7.929   1.009  0.1420  2.7752 -2.4550
 2361SOL     OW 8850   0.240   9.126   9.710 -0.6365 -0.2434  0.2332
 2361SOL    HW1 8851   0.326   9.105   9.675  0.3299  1.3561  1.5244
 2361SOL    HW2 8852   0.182   9.127   9.633  0.8807  0.6410 -0.9458
 2362SOL     OW 8853   6.402   4.714   8.550 -0.0180  0.1503 -0.3721
 2362SOL    HW1 8854   6.343   4.709   8.475  0.0980 -0.1698 -0.4464
 2362SOL    HW2 8855   6.449   4.630   8.549  0.6387  0.5139 -0.4820
 2363SOL     OW 8856   5.819   2.063   5.983 -0.3775 -0.1051  0.7701
 2363SOL    HW1 8857   5.738   2.095   6.023  0.5887  1.8416  1.2722
 2363SOL    HW2 8858   5.827   1.973   6.014 -1.9285 -0.0753  1.3582
 2364SOL     OW 8859   8.888   9.305   1.692  0.4408  0.3491 -0.5709
 2364SOL    HW1 8860   8.871   9.247   1.618  0.1259 -0.1974 -0.0857
 2364SOL    HW2 8861   8.983   9.313   1.695  0.6592 -1.8646  0.6052
 2365SOL     OW 8862   8.611   4.142   5.950 -0.2837  0.2080 -0.0627
 2365SOL    HW1 8863   8.613   4.171   5.859  0.1253  1.6085  0.3627
 2365SOL    HW2 8864   8.687   4.084   5.958 -0.2823  0.1290 -0.5986
 2366SOL     OW 8865   6.345   5.315   5.738  0.0702  0.1428 -0.8685
 2366SOL    HW1 8866   6.339   5.343   5.646 -0.0230  1.8260 -0.3754
 2366SOL    HW2 8867   6.416   5.368   5.774  0.1187 -0.5264  0.0419
 2367SOL     OW 8868   2.041   8.697   8.303  0.2065  0.0812 -0.1234
 2367SOL    HW1 8869   2.036   8.791   8.289  0.2302  0.3483  1.5418
 2367SOL    HW2 8870   2.100   8.666   8.234  1.8087  1.5779  0.5049
 2368SOL     OW 8871   0.515   8.870   5.023  0.6722  0.5154  0.4424
 2368SOL    HW1 8872   0.569   8.908   5.092 -0.7459  0.8768  1.3775
 2368SOL    HW2 8873   0.459   8.942   4.993  0.8641  0.2157 -0.6982
 2369SOL     OW 8874   2.882   4.361   9.184 -0.2229  0.0593  0.4421
 2369SOL    HW1 8875   2.859   4.446   9.222  0.5263  0.8982 -0.8622
 2369SOL    HW2 8876   2.819   4.349   9.113 -1.1616 -1.1386  1.4488
 2370SOL     OW 8877   9.553   8.953   6.846 -0.1073 -0.2222  0.1292
 2370SOL    HW1 8878   9.498   8.875   6.849 -2.8563  1.5924  0.4688
 2370SOL    HW2 8879   9.628   8.933   6.902 -0.4159 -2.7842 -0.2825
 2371SOL     OW 8880   3.203   6.369   6.929 -0.3101 -0.1830 -0.1484
 2371SOL    HW1 8881   3.226   6.354   6.837 -0.6459  1.9881 -0.6322
 2371SOL    HW2 8882   3.110   6.390   6.927 -0.8845 -2.3663  1.0147
 2372SOL     OW 8883   8.569   3.717   7.861  0.5841 -0.1358 -0.7917
 2372SOL    HW1 8884   8.481   3.723   7.825  0.1727  4.1409  0.3711
 2372SOL    HW2 8885   8.623   3.767   7.801  1.5737  0.0034  0.1868
 2373SOL     OW 8886   4.534   4.641   0.797  0.2662  0.1349  0.3916
 2373SOL    HW1 8887   4.525   4.576   0.866  0.9912  0.1401  0.5002
 2373SOL    HW2 8888   4.486   4.717   0.829  0.4167  0.0619  0.8011
 2374SOL     OW 8889   4.545   4.439   2.158 -0.1587  0.2136  0.0744
 2374SOL    HW1 8890   4.628   4.398   2.132 -0.8836 -1.1690 -0.1653
 2374SOL    HW2 8891   4.526   4.403   2.244 -1.0783 -0.4057 -0.3665
 2375SOL     OW 8892   6.880   0.740   0.122 -0.1010  0.2214 -0.0695
 2375SOL    HW1 8893   6.914   0.695   0.200  1.6218  0.3130 -0.7376
 2375SOL    HW2 8894   6.873   0.831   0.148 -0.3468  0.1201  0.2317
 2376SOL     OW 8895   3.864   2.133   7.138  0.4572 -0.1895 -1.0836
 2376SOL    HW1 8896   3.885   2.222   7.165  0.9244 -0.2330 -1.2994
 2376SOL    HW2 8897   3.815   2.143   7.056 -2.4890  0.0356  0.5913
 2377SOL     OW 8898   8.682   5.571   9.180  0.1624  0.4326 -0.5496
 2377SOL    HW1 8899   8.695   5.654   9.133  0.7008  0.3096 -0.6277
 2377SOL    HW2 8900   8.768   5.552   9.218 -0.5623  1.2136  1.6173
 2378SOL     OW 8901   6.139   1.556   1.435 -0.4570  0.1407 -0.3369
 2378SOL    HW1 8902   6.059   1.563   1.383  0.2836 -1.1868 -1.7413
 2378SOL    HW2 8903   6.209   1.553   1.370  0.6464  0.1211  0.8238
 2379SOL     OW 8904   2.879   5.061   5.604 -0.0654 -0.1371  0.0214
 2379SOL    HW1 8905   2.893   5.013   5.522  1.3307  0.8496 -0.3662
 2379SOL    HW2 8906   2.967   5.069   5.642 -0.6307 -0.1490  1.3750
 2380SOL     OW 8907   0.913   1.276   2.887  0.1799 -0.6483  0.0165
 2380SOL    HW1 8908   0.922   1.344   2.820  0.6976 -1.0635 -0.3474
 2380SOL    HW2 8909   0.977   1.209   2.862  0.3843 -0.8101  0.9337
 2381SOL     OW 8910   8.712   3.230   7.548 -0.2153 -0.5938  0.1910
 2381SOL    HW1 8911   8.653   3.298   7.581 -0.7793 -0.3225 -1.2855
 2381SOL    HW2 8912   8.654   3.168   7.503  0.5550 -0.7141 -0.6494
 2382SOL     OW 8913   1.615   4.581   7.881  0.2782  0.4602 -0.4319
 2382SOL    HW1 8914   1.654   4.569   7.968 -1.3584 -0.6779  0.1907
 2382SOL    HW2 8915   1.655   4.513   7.827  0.7623  0.7082 -0.3942
 2383SOL     OW 8916   1.956   2.091   4.045  0.0197  0.1296 -0.1941
 2383SOL    HW1 8917   1.921   2.027   4.108 -0.6079  0.5745 -0.0816
 2383SOL    HW2 8918   2.032   2.129   4.089  0.4192 -0.5580 -0.2742
 2384SOL     OW 8919   1.079   6.750   4.267 -0.5038  0.1194 -0.8242
 2384SOL    HW1 8920   1.127   6.784   4.192 -0.7090  1.1077 -0.5250
 2384SOL    HW2 8921   1.106   6.805   4.341 -0.3661 -0.7809 -0.1859
 2385SOL     OW 8922   6.919   4.590   4.474 -0.6057 -0.0422  0.4061
 2385SOL    HW1 8923   6.950   4.515   4.526 -0.0229  1.4901  2.4028
 2385SOL    HW2 8924   6.842   4.556   4.428  1.6048 -2.8446 -1.6241
 2386SOL     OW 8925   0.916   3.318   4.042  0.1509 -0.3994  0.2370
 2386SOL    HW1 8926   0.821   3.309   4.050  0.2524 -1.2553  0.5808
 2386SOL    HW2 8927   0.933   3.410   4.062 -0.6622 -0.0960 -0.4409
 2387SOL     OW 8928   8.695   0.009   7.108 -0.5676  0.2172 -0.0695
 2387SOL    HW1 8929   8.673   0.102   7.114 -2.1082  0.0112 -1.8835
 2387SOL    HW2 8930   8.617  -0.036   7.139 -0.2792 -0.4916 -0.3630
 2388SOL     OW 8931   0.334   1.210   4.806 -0.0642 -0.0467 -0.2732
 2388SOL    HW1 8932   0.279   1.284   4.783  2.0960  1.3799 -1.2398
 2388SOL    HW2 8933   0.333   1.154   4.729 -0.0181  0.0762 -0.3626
 2389SOL     OW 8934   7.345   0.687   0.118 -0.0891 -0.3063 -0.0288
 2389SOL    HW1 8935   7.399   0.646   0.187  0.6401  0.1135 -0.3351
 2389SOL    HW2 8936   7.285   0.744   0.166  0.2870 -0.1602  0.2741
 2390SOL     OW 8937   3.754   5.070   2.793 -0.5695 -0.3418  0.3413
 2390SOL    HW1 8938   3.678   5.109   2.837 -0.0866 -0.7337  1.5797
 2390SOL    HW2 8939   3.822   5.137   2.800 -0.5611 -0.3148 -0.0200
 2391SOL     OW 8940   0.534   3.668   1.577  0.3384 -0.3209 -0.3073
 2391SOL    HW1 8941   0.508   3.742   1.522 -0.0238  0.3650  0.7699
 2391SOL    HW2 8942   0.628   3.659   1.561 -0.0403 -1.3245 -2.4229
 2392SOL     OW 8943   5.237   8.517   6.742  0.0167  0.3537 -0.0761
 2392SOL    HW1 8944   5.305   8.584   6.757  0.0556  0.4915 -0.8033
 2392SOL    HW2 8945   5.220   8.522   6.648  1.5690 -2.1327 -0.5730
 2393SOL     OW 8946   2.701   5.085   7.126  0.2645  0.0852  0.2701
 2393SOL    HW1 8947   2.770   5.094   7.060  0.2635 -1.1026  0.0873
 2393SOL    HW2 8948   2.709   4.995   7.158  0.2028  0.6026  1.8355
 2394SOL     OW 8949   1.882   2.015   4.803 -0.2083 -0.0889  0.1546
 2394SOL    HW1 8950   1.861   1.922   4.803  0.3910 -0.2295 -0.7571
 2394SOL    HW2 8951   1.864   2.045   4.714  2.0372  0.0793 -0.3058
 2395SOL     OW 8952   2.863   5.099   6.125  0.0881 -0.2077 -0.6099
 2395SOL    HW1 8953   2.817   5.056   6.052 -0.4180  0.1076 -0.4838
 2395SOL    HW2 8954   2.837   5.191   6.118  0.5586 -0.0606 -0.4230
 2396SOL     OW 8955   4.291   7.739   4.203 -0.6005 -0.4108  0.6414
 2396SOL    HW1 8956   4.308   7.828   4.234 -1.1906  0.0609 -0.3404
 2396SOL    HW2 8957   4.356   7.686   4.248  1.0519  0.7966 -0.1887
 2397SOL     OW 8958   8.782   0.591   8.638  0.2154  0.0196 -0.3321
 2397SOL    HW1 8959   8.770   0.504   8.677 -1.4951 -0.2576 -1.3728
 2397SOL    HW2 8960   8.794   0.649   8.714  0.9845 -1.0403  0.3971
 2398SOL     OW 8961   5.722   8.256   6.077  0.0915 -0.0489 -0.0819
 2398SOL    HW1 8962   5.649   8.305   6.039 -0.3424 -0.5231  0.1286
 2398SOL    HW2 8963   5.751   8.309   6.151 -1.3117 -0.7690  1.0343
 2399SOL     OW 8964   8.243   2.846   1.234  0.4082  0.1629  0.6756
 2399SOL    HW1 8965   8.298   2.921   1.211  0.4822  0.2507  1.1184
 2399SOL    HW2 8966   8.204   2.870   1.319 -0.8742  0.4080  0.0449
 2400SOL     OW 8967   5.120   0.754   1.609  0.0266  0.2994 -0.4117
 2400SOL    HW1 8968   5.104   0.840   1.572  0.4863  0.1014 -1.0781
 2400SOL    HW2 8969   5.137   0.771   1.702  0.6771  0.9861 -0.6452
 2401SOL     OW 8970   7.936   3.199   1.217 -0.3351 -0.4296 -0.3674
 2401SOL    HW1 8971   7.898   3.204   1.130 -0.5204 -0.0925 -0.2703
 2401SOL    HW2 8972   8.028   3.221   1.205 -0.0603 -1.6474 -0.6651
 2402SOL     OW 8973   1.930   3.276   1.790  0.7320 -0.8852 -0.1145
 2402SOL    HW1 8974   1.879   3.314   1.862  0.8174  1.8025 -1.3229
 2402SOL    HW2 8975   2.020   3.281   1.820  0.9911  2.1259 -0.9943
 2403SOL     OW 8976   2.238   1.401   1.666 -0.6800 -0.4454  0.0156
 2403SOL    HW1 8977   2.261   1.379   1.756 -1.6319 -0.6243  0.2262
 2403SOL    HW2 8978   2.322   1.416   1.622 -0.2342  3.0496  1.7560
 2404SOL     OW 8979   6.339   5.762   1.013  0.5157  0.1067 -0.5341
 2404SOL    HW1 8980   6.399   5.817   1.063 -0.0954  0.8280 -0.5690
 2404SOL    HW2 8981   6.296   5.822   0.952  0.5479 -0.5889 -1.2684
 2405SOL     OW 8982   3.111   3.006   2.922  0.5838  0.3666  0.2036
 2405SOL    HW1 8983   3.188   3.034   2.970  0.5759  0.9962 -0.1476
 2405SOL    HW2 8984   3.125   3.036   2.832  0.8035 -1.1810 -0.3209
 2406SOL     OW 8985   0.751   6.902   1.080 -0.3724  0.7386 -0.4326
 2406SOL    HW1 8986   0.677   6.956   1.051 -1.0006  0.0408 -0.1584
 2406SOL    HW2 8987   0.759   6.835   1.012  0.2809  1.0574 -0.6730
 2407SOL     OW 8988   9.160   8.940   1.581 -0.8842 -0.3855 -0.1240
 2407SOL    HW1 8989   9.235   8.884   1.561 -1.9471 -1.5127 -1.1431
 2407SOL    HW2 8990   9.120   8.957   1.495 -0.9649  1.4071  0.2457
 2408SOL     OW 8991   1.983   2.206   6.191  0.0370 -0.5757 -0.5692
 2408SOL    HW1 8992   1.963   2.274   6.126 -0.0736 -1.1397 -1.1362
 2408SOL    HW2 8993   1.973   2.124   6.143  1.2035 -0.9631 -0.1665
 2409SOL     OW 8994   6.474   2.202   6.676  0.3447  0.2795 -0.0398
 2409SOL    HW1 8995   6.495   2.145   6.603  1.7233 -0.1586  0.6734
 2409SOL    HW2 8996   6.558   2.236   6.706 -0.0484 -0.4305  2.0471
 2410SOL     OW 8997   8.939   5.688   9.154  0.1937 -0.1104  0.4463
 2410SOL    HW1 8998   8.965   5.764   9.103  0.1193  1.2360  2.3111
 2410SOL    HW2 8999   8.877   5.723   9.219 -2.1373 -2.2587 -0.4356
 2411SOL     OW 9000   7.526   7.623   6.321 -0.2153 -0.3316  0.1595
 2411SOL    HW1 9001   7.535   7.545   6.266  0.2047 -0.3196  0.2093
 2411SOL    HW2 9002   7.592   7.684   6.288  1.0248 -0.8608  1.5873
 2412SOL     OW 9003   1.123   8.627   9.631 -0.1965  0.0136  0.3251
 2412SOL    HW1 9004   1.076   8.553   9.591 -0.7019  1.3739 -1.8001
 2412SOL    HW2 9005   1.141   8.686   9.557  0.4264  1.8855  1.8944
 2413SOL     OW 9006   4.539   2.611   2.051  0.1673 -0.0057 -0.4660
 2413SOL    HW1 9007   4.471   2.667   2.089  0.2843  0.5475 -1.0518
 2413SOL    HW2 9008   4.497   2.526   2.040  0.0891 -0.1342  0.7549
 2414SOL     OW 9009   8.597   3.122   0.531 -0.3685  0.3451  0.2924
 2414SOL    HW1 9010   8.532   3.192   0.541 -0.7345  0.0110  0.2676
 2414SOL    HW2 9011   8.677   3.158   0.570 -0.8403  0.3851  1.2503
 2415SOL     OW 9012   8.803   4.654   6.047 -0.3943  0.5610  0.1754
 2415SOL    HW1 9013   8.886   4.690   6.080  2.1677 -0.3665 -4.4839
 2415SOL    HW2 9014   8.818   4.560   6.040 -1.7387  0.3995 -0.9941
 2416SOL     OW 9015   7.828   4.252   8.104  0.6235 -0.1346 -0.0751
 2416SOL    HW1 9016   7.854   4.313   8.036 -0.7626 -1.4747 -1.9048
 2416SOL    HW2 9017   7.736   4.272   8.122  0.5720 -0.7243  0.3787
 2417SOL     OW 9018   6.987   9.331   9.078  0.1109 -0.2107  0.0765
 2417SOL    HW1 9019   7.073   9.373   9.080 -0.0315  0.1298  2.4703
 2417SOL    HW2 9020   7.000   9.248   9.125  0.1142 -2.4800 -3.5072
 2418SOL     OW 9021   1.759   4.903   9.530 -0.0674 -0.3040  0.4555
 2418SOL    HW1 9022   1.762   4.981   9.475 -0.1901 -1.4795 -1.3064
 2418SOL    HW2 9023   1.730   4.934   9.616 -0.6097  1.4899 -0.3431
 2419SOL     OW 9024   7.422   9.848   2.461  0.5855 -0.5105  0.1828
 2419SOL    HW1 9025   7.357   9.845   2.530  0.0209  0.1925 -0.2961
 2419SOL    HW2 9026   7.458   9.760   2.456  1.6523 -0.2604  2.3066
 2420SOL     OW 9027   9.001   2.784   2.184 -0.3084 -0.8039  0.1891
 2420SOL    HW1 9028   8.958   2.737   2.256 -2.3764 -0.5248 -0.7724
 2420SOL    HW2 9029   9.089   2.802   2.215 -1.3742  0.0575  3.0312
 2421SOL     OW 9030   1.378   8.472   9.608 -0.0649  0.4270 -0.4147
 2421SOL    HW1 9031   1.300   8.502   9.655 -0.5621 -0.3399 -0.7252
 2421SOL    HW2 9032   1.451   8.520   9.648 -0.3414 -0.8160  1.7312
 2422SOL     OW 9033   3.365   1.647   5.551  0.1011 -0.2826 -0.0777
 2422SOL    HW1 9034   3.448   1.630   5.506 -0.5181  1.2620 -1.9960
 2422SOL    HW2 9035   3.318   1.706   5.491 -1.1091  1.3699  2.3308
 2423SOL     OW 9036   5.170   1.702   1.353 -0.1707 -0.2832 -0.2729
 2423SOL    HW1 9037   5.236   1.695   1.422 -0.9930 -0.0468  0.5596
 2423SOL    HW2 9038   5.220   1.723   1.274  1.0003 -2.3972 -0.1731
 2424SOL     OW 9039   5.976   8.161   2.528  0.3901 -0.3477 -0.3114
 2424SOL    HW1 9040   6.009   8.207   2.606 -0.4331 -0.2723  0.0034
 2424SOL    HW2 9041   5.899   8.114   2.559 -0.1441 -0.0542 -1.1569
 2425SOL     OW 9042   3.765   5.695   9.091  0.2750  0.1653 -0.1701
 2425SOL    HW1 9043   3.671   5.692   9.109  0.2807 -0.7265 -0.2376
 2425SOL    HW2 9044   3.804   5.732   9.170 -0.0893  0.1457  0.0201
 2426SOL     OW 9045   0.552   1.101   7.137 -0.2428  0.1362  0.4471
 2426SOL    HW1 9046   0.598   1.088   7.219 -1.0912  0.9513  1.0747
 2426SOL    HW2 9047   0.616   1.078   7.069  0.9385  0.8496  1.2956
 2427SOL     OW 9048   1.183   6.315   3.557 -0.0225  0.1837  0.0053
 2427SOL    HW1 9049   1.177   6.345   3.467 -1.4034 -0.2763 -0.0794
 2427SOL    HW2 9050   1.129   6.236   3.560  1.1314 -0.6079  0.9170
 2428SOL     OW 9051   4.666   2.458   8.380  0.0970 -0.1851  0.4397
 2428SOL    HW1 9052   4.674   2.429   8.471 -0.1529 -0.7052  0.2994
 2428SOL    HW2 9053   4.605   2.532   8.384 -2.6705 -2.2974  0.3142
 2429SOL     OW 9054   2.030   2.983   5.376 -0.7814  0.2445  0.4669
 2429SOL    HW1 9055   2.043   2.913   5.312 -1.5299  0.4755  0.0475
 2429SOL    HW2 9056   1.970   2.945   5.441 -1.0363  0.4236  0.3399
 2430SOL     OW 9057   9.431   2.634   8.620  0.0439 -0.0310  0.6535
 2430SOL    HW1 9058   9.445   2.726   8.642 -0.9784  0.3693 -0.2303
 2430SOL    HW2 9059   9.342   2.616   8.652  0.7135 -1.1171  2.0097
 2431SOL     OW 9060   0.248   9.739   5.571 -0.5054 -0.4874 -0.1948
 2431SOL    HW1 9061   0.258   9.797   5.495 -1.6437  0.6725  0.4882
 2431SOL    HW2 9062   0.337   9.730   5.606 -0.2688  0.7702 -0.4006
 2432SOL     OW 9063   9.320   2.492   5.133 -0.2221 -0.1953  0.5501
 2432SOL    HW1 9064   9.361   2.427   5.191  0.6181  2.5120  3.2743
 2432SOL    HW2 9065   9.393   2.548   5.104 -1.0575  0.2620 -0.7650
 2433SOL     OW 9066   9.766   7.106   7.382 -0.3166 -0.2033  0.4458
 2433SOL    HW1 9067   9.778   7.125   7.475  2.7789  1.4259 -0.1540
 2433SOL    HW2 9068   9.746   7.191   7.342 -0.9911 -0.7752 -0.4881
 2434SOL     OW 9069   7.327   2.971   5.238  0.3551  0.1452  0.3486
 2434SOL    HW1 9070   7.413   2.951   5.275 -0.1510 -0.0902  1.4269
 2434SOL    HW2 9071   7.287   2.886   5.223  0.6006  0.2345 -0.8942
 2435SOL     OW 9072   5.262   4.150   2.639 -0.0631 -0.0636  0.1633
 2435SOL    HW1 9073   5.227   4.103   2.715 -0.7572  0.7061  0.3220
 2435SOL    HW2 9074   5.269   4.241   2.667  1.9746 -0.1411  0.1010
 2436SOL     OW 9075   8.586   6.090   7.265  0.2735  0.8192  0.5112
 2436SOL    HW1 9076   8.495   6.097   7.235  0.5259 -2.3383 -1.4522
 2436SOL    HW2 9077   8.638   6.096   7.185  1.6175  0.1912  1.3058
 2437SOL     OW 9078   4.458   0.915   9.178  0.4108  0.2572  0.0882
 2437SOL    HW1 9079   4.485   0.868   9.099  0.5059  0.5404 -0.0496
 2437SOL    HW2 9080   4.522   0.986   9.186  1.2532 -0.6053  1.2096
 2438SOL     OW 9081   9.610   3.732   6.345 -0.6467 -0.2836  0.5196
 2438SOL    HW1 9082   9.521   3.764   6.339 -0.0469  1.6279  1.1932
 2438SOL    HW2 9083   9.658   3.782   6.279  0.0106 -0.9838  0.4578
 2439SOL     OW 9084   0.780   0.680   7.460  0.2018 -0.0648  0.4191
 2439SOL    HW1 9085   0.690   0.711   7.470 -0.0366 -0.8500  0.8377
 2439SOL    HW2 9086   0.832   0.759   7.448 -0.5492  0.3962  0.1172
 2440SOL     OW 9087   3.055   3.741   7.851 -0.0138  0.2412  0.0390
 2440SOL    HW1 9088   3.105   3.815   7.886  0.2031 -0.5046  1.3618
 2440SOL    HW2 9089   3.000   3.712   7.924 -0.5397 -0.5302 -0.6420
 2441SOL     OW 9090   3.717   5.921   2.656  0.1740  0.2797  0.2999
 2441SOL    HW1 9091   3.647   5.872   2.701  1.1480 -1.2961  0.1878
 2441SOL    HW2 9092   3.759   5.972   2.725 -0.8883  1.0198  0.4188
 2442SOL     OW 9093   4.845   4.475   8.143 -0.0533 -0.0887  0.0656
 2442SOL    HW1 9094   4.809   4.546   8.197  0.9026 -0.4066  1.1465
 2442SOL    HW2 9095   4.782   4.404   8.153 -0.5254  0.2742 -0.2579
 2443SOL     OW 9096   1.868   4.887   4.396 -0.1061  0.3568  0.7419
 2443SOL    HW1 9097   1.898   4.800   4.424  2.0329  0.9620  0.4721
 2443SOL    HW2 9098   1.804   4.869   4.328  1.7022 -1.0626 -0.6918
 2444SOL     OW 9099   6.005   0.414   7.198 -0.1323  0.2495  0.4126
 2444SOL    HW1 9100   6.008   0.352   7.270 -0.1960 -0.0607  0.1507
 2444SOL    HW2 9101   5.918   0.402   7.160 -0.6240  1.3710  1.1247
 2445SOL     OW 9102   7.297   3.060   8.879 -0.4543  0.3257 -0.2409
 2445SOL    HW1 9103   7.231   3.079   8.812  1.7480  0.5741 -2.4690
 2445SOL    HW2 9104   7.374   3.033   8.830  1.4441  0.9683  2.1946
 2446SOL     OW 9105   8.911   2.057   0.222  0.3800  0.2631 -0.3265
 2446SOL    HW1 9106   8.838   2.067   0.283  0.1732 -0.7012 -0.4025
 2446SOL    HW2 9107   8.960   1.981   0.255  1.8200  1.3626  0.1933
 2447SOL     OW 9108   9.314   4.833   5.579  0.2401  0.4111  0.2025
 2447SOL    HW1 9109   9.298   4.738   5.583 -0.8633  0.6089  1.0511
 2447SOL    HW2 9110   9.234   4.869   5.540  0.6256  1.0140 -0.0504
 2448SOL     OW 9111   4.540   7.592   0.835  0.3383 -0.8786  0.1465
 2448SOL    HW1 9112   4.469   7.591   0.898 -0.1894  0.3856 -0.3869
 2448SOL    HW2 9113   4.518   7.524   0.772 -1.0313  0.2315 -0.6424
 2449SOL     OW 9114   2.832   8.424   9.714  0.4434  0.4130  0.2164
 2449SOL    HW1 9115   2.914   8.472   9.722  1.1426 -0.6410 -0.2667
 2449SOL    HW2 9116   2.853   8.351   9.655 -1.2712  1.0630 -1.2950
 2450SOL     OW 9117   6.475   7.234   2.621  0.0390 -0.3521 -0.0242
 2450SOL    HW1 9118   6.515   7.320   2.634 -0.7228  0.3565 -2.0686
 2450SOL    HW2 9119   6.495   7.211   2.531 -1.4304 -1.4204 -0.1202
 2451SOL     OW 9120   7.843   0.542   4.113  0.3855 -0.2759 -0.5337
 2451SOL    HW1 9121   7.873   0.615   4.059 -0.0682 -0.7248 -1.4059
 2451SOL    HW2 9122   7.763   0.575   4.155  0.5359 -0.0569 -0.4124
 2452SOL     OW 9123   8.780   6.296   8.731 -0.0697 -0.1552  0.2118
 2452SOL    HW1 9124   8.727   6.292   8.651  0.4410  0.1366 -0.1463
 2452SOL    HW2 9125   8.718   6.277   8.801 -0.4026 -1.0157 -0.3013
 2453SOL     OW 9126   7.443   3.591   0.909 -0.4460 -0.1938 -0.1128
 2453SOL    HW1 9127   7.347   3.582   0.903 -0.5869  1.0530 -0.1144
 2453SOL    HW2 9128   7.476   3.540   0.835 -1.1261 -0.3727 -0.3031
 2454SOL     OW 9129   9.675   1.238   3.979 -0.3277 -0.2293  0.2618
 2454SOL    HW1 9130   9.758   1.273   3.946 -0.6837 -1.6624 -2.4306
 2454SOL    HW2 9131   9.619   1.315   3.989  0.2681  0.4666 -1.3310
 2455SOL     OW 9132   3.537   6.778   2.741  0.3994 -0.2781  0.0795
 2455SOL    HW1 9133   3.447   6.758   2.715  0.3408 -0.4271  0.3890
 2455SOL    HW2 9134   3.588   6.703   2.710  0.4134 -0.2033 -0.0778
 2456SOL     OW 9135   0.576   8.213   3.794  0.6238  0.5020 -1.1076
 2456SOL    HW1 9136   0.491   8.172   3.808  0.7803  0.0292 -1.5177
 2456SOL    HW2 9137   0.605   8.242   3.881  1.4029 -1.9928 -0.4726
 2457SOL     OW 9138   6.001   2.969   4.617  0.1453  0.6817 -0.1299
 2457SOL    HW1 9139   6.068   2.913   4.656 -2.0777 -1.7476  0.5305
 2457SOL    HW2 9140   5.967   3.020   4.691 -0.9851 -0.5923  0.2624
 2458SOL     OW 9141   5.425   3.810   2.507  0.1412 -0.0877  0.3157
 2458SOL    HW1 9142   5.332   3.787   2.504 -0.1911  1.2632 -1.1999
 2458SOL    HW2 9143   5.452   3.788   2.596 -1.3897 -1.3673  0.5048
 2459SOL     OW 9144   9.359   3.477   4.525  0.5231 -0.1830 -0.3205
 2459SOL    HW1 9145   9.315   3.507   4.445  0.1085 -1.2345 -0.4959
 2459SOL    HW2 9146   9.293   3.487   4.593  1.1275  1.4792  0.0756
 2460SOL     OW 9147   7.009   7.309   1.964 -0.1738 -0.0715  0.7894
 2460SOL    HW1 9148   7.046   7.222   1.948 -1.9762 -0.7218 -0.1016
 2460SOL    HW2 9149   7.061   7.344   2.036  0.7239 -1.8051  1.0422
 2461SOL     OW 9150   9.404   3.338   2.588  0.1745  0.0360 -1.0812
 2461SOL    HW1 9151   9.450   3.284   2.524  1.2139 -2.2158  1.3717
 2461SOL    HW2 9152   9.312   3.318   2.574  0.1968  0.9903 -2.9729
 2462SOL     OW 9153   2.782   5.659   2.876  0.0455 -0.6347  0.7314
 2462SOL    HW1 9154   2.840   5.728   2.843 -0.1386  0.4679  2.5684
 2462SOL    HW2 9155   2.733   5.630   2.799  1.3581  0.0576 -0.4161
 2463SOL     OW 9156   4.601   3.882   6.557  0.2572  0.4575 -0.0852
 2463SOL    HW1 9157   4.528   3.831   6.522  0.0601  0.4524  0.3210
 2463SOL    HW2 9158   4.645   3.917   6.480 -0.9757  1.5912 -0.3313
 2464SOL     OW 9159   9.848   2.819   6.631  0.1356 -0.0336 -0.3508
 2464SOL    HW1 9160   9.833   2.895   6.688 -1.3270  0.2102 -0.9928
 2464SOL    HW2 9161   9.789   2.834   6.557  0.8616 -1.1133 -1.1745
 2465SOL     OW 9162   8.043   6.417   7.097  1.2113 -0.1275  0.1048
 2465SOL    HW1 9163   8.139   6.426   7.091  1.2546 -0.7278 -0.1041
 2465SOL    HW2 9164   8.010   6.467   7.022  1.5425 -3.2619 -2.3019
 2466SOL     OW 9165   6.602   4.131   2.357 -0.0652  0.6031  0.2984
 2466SOL    HW1 9166   6.650   4.172   2.285  0.5781 -1.7210 -0.6826
 2466SOL    HW2 9167   6.520   4.102   2.317 -0.0467  0.0189  0.6704
 2467SOL     OW 9168   1.152   7.305   2.288  0.8501  0.3171 -0.3779
 2467SOL    HW1 9169   1.242   7.324   2.263  0.9795  0.2044 -0.0167
 2467SOL    HW2 9170   1.156   7.296   2.384  0.3113  1.0854 -0.2788
 2468SOL     OW 9171   9.166   4.955   1.283  0.3559  1.2055  0.3901
 2468SOL    HW1 9172   9.225   5.024   1.311  2.5723 -0.8975  1.2279
 2468SOL    HW2 9173   9.184   4.943   1.190  0.1380  1.5886  0.2982
 2469SOL     OW 9174   8.282   9.451   5.934 -0.0452  0.6747 -0.0215
 2469SOL    HW1 9175   8.210   9.506   5.965 -1.6009 -0.5184 -1.2705
 2469SOL    HW2 9176   8.320   9.499   5.861 -0.5367  0.7071 -0.2654
 2470SOL     OW 9177   0.803   3.656   0.478  0.0005 -0.2001  0.1456
 2470SOL    HW1 9178   0.885   3.704   0.466 -0.4116  1.1123  2.1093
 2470SOL    HW2 9179   0.829   3.570   0.511  0.6520 -0.6321 -1.4080
 2471SOL     OW 9180   1.265   7.516   3.880  0.0987  0.4999  0.4124
 2471SOL    HW1 9181   1.219   7.566   3.812  1.7591 -0.5976 -1.6496
 2471SOL    HW2 9182   1.310   7.582   3.932 -2.0034  1.4363  1.1710
 2472SOL     OW 9183   5.607   6.764   4.278  0.0526 -0.0729 -0.2051
 2472SOL    HW1 9184   5.700   6.763   4.301 -0.0103 -1.7910  0.1673
 2472SOL    HW2 9185   5.562   6.743   4.359 -0.6433  0.5047 -0.4373
 2473SOL     OW 9186   6.427   6.792   8.417  0.2528 -0.2391 -0.4624
 2473SOL    HW1 9187   6.371   6.865   8.392 -0.1982 -0.4295 -0.0475
 2473SOL    HW2 9188   6.470   6.821   8.497  2.3409  0.6969 -1.8559
 2474SOL     OW 9189   2.403   8.979   9.616  0.0377  0.1378  0.1258
 2474SOL    HW1 9190   2.443   8.927   9.545 -1.2283  0.4636 -0.8668
 2474SOL    HW2 9191   2.422   8.929   9.695  0.0706 -1.1244 -0.6397
 2475SOL     OW 9192   2.907   4.341   5.449  0.0897  0.4633  0.7356
 2475SOL    HW1 9193   2.931   4.433   5.439  1.3738  0.1008  0.2910
 2475SOL    HW2 9194   2.876   4.315   5.362 -0.9271  0.6299  1.0275
 2476SOL     OW 9195   8.423   5.980   2.246 -0.1357 -0.4855 -0.0680
 2476SOL    HW1 9196   8.377   6.046   2.298  0.0733 -0.7574  0.4757
 2476SOL    HW2 9197   8.355   5.920   2.217 -0.3034 -0.1279 -0.4167
 2477SOL     OW 9198   2.953   7.069   3.434  0.0678  0.1232  0.1060
 2477SOL    HW1 9199   3.009   6.991   3.440  2.2618  1.6063  0.0595
 2477SOL    HW2 9200   2.959   7.095   3.343 -4.4652 -2.1630 -1.1288
 2478SOL     OW 9201   1.289   7.739   5.659  1.0076 -0.0411 -0.3211
 2478SOL    HW1 9202   1.223   7.708   5.596  1.0696  1.3717 -1.1431
 2478SOL    HW2 9203   1.372   7.707   5.625  1.0438  0.7409 -1.0173
 2479SOL     OW 9204   7.673   7.562   7.948 -0.1785  0.1671  0.0008
 2479SOL    HW1 9205   7.585   7.534   7.973  0.8755 -0.5146  3.5388
 2479SOL    HW2 9206   7.724   7.556   8.029  3.2327  0.2481 -1.9495
 2480SOL     OW 9207   2.413   1.463   1.341 -0.2665  0.3453 -0.5766
 2480SOL    HW1 9208   2.488   1.438   1.395 -1.2334 -1.4776  0.0333
 2480SOL    HW2 9209   2.424   1.415   1.260 -0.6143  0.2890 -0.5941
 2481SOL     OW 9210   2.657   5.661   8.418 -0.0633 -0.4897  0.1574
 2481SOL    HW1 9211   2.720   5.609   8.468  2.5304  1.8558 -0.3840
 2481SOL    HW2 9212   2.681   5.645   8.326 -0.4156  0.2602 -0.0724
 2482SOL     OW 9213   5.879   2.743   3.974  0.0890 -0.5263 -0.1333
 2482SOL    HW1 9214   5.947   2.810   3.963 -1.9367  1.5711 -0.7775
 2482SOL    HW2 9215   5.901   2.700   4.056 -0.3628  3.3812  2.3130
 2483SOL     OW 9216   2.082   5.538   4.618  1.0897  0.4488 -0.4855
 2483SOL    HW1 9217   2.045   5.612   4.665  0.2471  0.1534 -0.6679
 2483SOL    HW2 9218   2.071   5.464   4.678 -0.7023 -0.0880 -1.4129
 2484SOL     OW 9219   2.395   0.346   2.210 -0.1207 -0.0547 -0.3033
 2484SOL    HW1 9220   2.475   0.367   2.258 -0.5884  1.8733 -0.2499
 2484SOL    HW2 9221   2.366   0.262   2.245  0.2104  0.7024  1.9521
 2485SOL     OW 9222   4.108   6.125   2.793 -0.4634  0.2789  0.3183
 2485SOL    HW1 9223   4.154   6.101   2.873 -1.1200  0.9723  0.9106
 2485SOL    HW2 9224   4.017   6.136   2.820 -0.5637  1.2341 -0.3850
 2486SOL     OW 9225   3.871   1.872   0.635 -0.0800 -0.2368 -0.0070
 2486SOL    HW1 9226   3.775   1.869   0.630 -0.0836 -1.1619  0.4264
 2486SOL    HW2 9227   3.893   1.817   0.711  0.9008 -1.9303 -1.4434
 2487SOL     OW 9228   8.655   9.454   7.853 -0.2391  0.3195  0.2513
 2487SOL    HW1 9229   8.574   9.448   7.903 -0.4544  0.1694 -0.1158
 2487SOL    HW2 9230   8.676   9.364   7.830  0.9447  0.1482  1.7845
 2488SOL     OW 9231   7.228   1.237   2.298 -0.4687  0.2447 -0.4345
 2488SOL    HW1 9232   7.182   1.303   2.350  0.5917  1.1569 -0.6134
 2488SOL    HW2 9233   7.201   1.154   2.336 -0.1170  0.8686  1.2624
 2489SOL     OW 9234   5.145   4.501   7.060  0.2722 -0.8113  0.0351
 2489SOL    HW1 9235   5.196   4.531   6.984 -0.3075 -0.6362 -0.2892
 2489SOL    HW2 9236   5.084   4.436   7.024  0.5482 -1.3319  0.4922
 2490SOL     OW 9237   3.079   7.785   6.195 -0.8242 -0.4971  0.0027
 2490SOL    HW1 9238   3.035   7.725   6.254 -0.3733 -1.4754 -0.6223
 2490SOL    HW2 9239   3.020   7.794   6.120 -0.1316 -1.5739 -0.6995
 2491SOL     OW 9240   1.817   2.666   0.299 -0.1354 -0.0086 -0.4009
 2491SOL    HW1 9241   1.804   2.733   0.366 -0.4273  0.1623 -0.6275
 2491SOL    HW2 9242   1.912   2.667   0.283 -0.3423  1.7128 -1.7916
 2492SOL     OW 9243   4.738   4.267   9.468 -0.6043 -0.6468 -0.1027
 2492SOL    HW1 9244   4.745   4.212   9.390  1.7522  1.1537 -1.2982
 2492SOL    HW2 9245   4.702   4.350   9.436  1.7003  0.6180  0.3418
 2493SOL     OW 9246   3.653   5.858   9.649 -0.0934  0.0685 -1.1207
 2493SOL    HW1 9247   3.728   5.811   9.683  0.0783  0.7806 -0.4710
 2493SOL    HW2 9248   3.648   5.833   9.557  1.9571  1.2747 -1.6226
 2494SOL     OW 9249   7.355   5.999   0.229 -0.2645  0.2595  0.1416
 2494SOL    HW1 9250   7.331   6.071   0.287  0.5909 -0.2473  1.1576
 2494SOL    HW2 9251   7.427   6.034   0.176 -0.9704  0.6846 -0.5624
 2495SOL     OW 9252   4.729   4.214   1.414  0.3588  0.4710  0.1633
 2495SOL    HW1 9253   4.722   4.119   1.426  3.1794  0.4106  2.2072
 2495SOL    HW2 9254   4.661   4.250   1.471  0.9194 -0.3339  1.3957
 2496SOL     OW 9255   7.835   5.126   5.110  0.2080  0.7247  0.0837
 2496SOL    HW1 9256   7.829   5.208   5.060  0.7885 -0.3682 -1.9142
 2496SOL    HW2 9257   7.911   5.082   5.072 -0.3566 -0.9236  0.8221
 2497SOL     OW 9258   7.035   0.826   9.227 -0.0977  0.2089 -0.2723
 2497SOL    HW1 9259   7.074   0.910   9.202 -0.2853  0.5208  0.4767
 2497SOL    HW2 9260   6.979   0.846   9.301 -1.5802 -0.2742 -1.2198
 2498SOL     OW 9261   4.092   5.519   6.812 -0.0368 -0.3029  0.3888
 2498SOL    HW1 9262   4.154   5.553   6.876 -0.0307 -1.0709  0.8054
 2498SOL    HW2 9263   4.146   5.482   6.743  0.1518 -3.6115  2.0825
 2499SOL     OW 9264   4.230   8.405   9.569 -0.1506 -1.0365  0.1580
 2499SOL    HW1 9265   4.212   8.408   9.476  1.9047 -0.9179 -0.2892
 2499SOL    HW2 9266   4.293   8.476   9.584 -2.3894  0.7186  2.1655
 2500SOL     OW 9267   1.488   8.993   2.192 -0.2471  0.1953  0.1703
 2500SOL    HW1 9268   1.473   9.087   2.198 -1.6106 -0.0902  2.4200
 2500SOL    HW2 9269   1.427   8.955   2.255  0.5545 -2.1756 -0.3843
 2501SOL     OW 9270   2.323   7.796   3.686  0.4828  0.3931  0.2815
 2501SOL    HW1 9271   2.309   7.879   3.641 -1.6194 -0.4142 -0.6774
 2501SOL    HW2 9272   2.367   7.741   3.621  1.3317  0.5453  0.7127
 2502SOL     OW 9273   0.738   8.613   8.886  0.0214  0.4681  0.0373
 2502SOL    HW1 9274   0.661   8.579   8.932 -0.3238  0.3898 -0.5834
 2502SOL    HW2 9275   0.738   8.707   8.907  0.2709  0.3146  0.7521
 2503SOL     OW 9276   0.024   6.154   0.055  0.2708  0.2700  0.0686
 2503SOL    HW1 9277  -0.045   6.090   0.035  0.7937 -0.1095 -0.5430
 2503SOL    HW2 9278   0.064   6.173  -0.030 -0.6501  2.3384  0.0258
 2504SOL     OW 9279   7.712   9.596   1.193  0.0002  0.4639 -0.6136
 2504SOL    HW1 9280   7.745   9.683   1.216  1.6184 -0.7760  2.2531
 2504SOL    HW2 9281   7.662   9.569   1.270  0.4506 -1.5780 -1.0039
 2505SOL     OW 9282   7.354   2.389   7.847 -0.1191 -0.2284  0.6414
 2505SOL    HW1 9283   7.445   2.383   7.877 -0.3086 -0.2392  1.2186
 2505SOL    HW2 9284   7.360   2.378   7.752  0.5170  0.1284  0.6325
 2506SOL     OW 9285   4.016   4.342   3.717 -0.5384  0.0610  0.0949
 2506SOL    HW1 9286   3.935   4.371   3.759 -0.7169 -0.9948  0.5226
 2506SOL    HW2 9287   4.028   4.402   3.644 -2.1131 -0.2145 -0.4317
 2507SOL     OW 9288   4.153   9.129   2.130 -0.0408 -0.2014 -0.1564
 2507SOL    HW1 9289   4.149   9.039   2.161  1.2850  0.0064  0.6857
 2507SOL    HW2 9290   4.234   9.164   2.167  0.0077  1.0191 -1.3357
 2508SOL     OW 9291   3.611   0.097   7.778 -0.2456 -0.1779  0.5171
 2508SOL    HW1 9292   3.683   0.093   7.841 -0.3106  0.1494  0.6159
 2508SOL    HW2 9293   3.610   0.188   7.748  1.5909 -0.9221 -2.1024
 2509SOL     OW 9294   8.435   0.544   6.883  0.3459 -0.1189  0.6373
 2509SOL    HW1 9295   8.359   0.489   6.901  1.2089 -1.0837  1.5090
 2509SOL    HW2 9296   8.491   0.532   6.960  1.3175  0.6662  0.0699
 2510SOL     OW 9297   3.856   6.983   0.214 -0.3054 -0.1631 -0.1201
 2510SOL    HW1 9298   3.776   6.995   0.265 -1.0066 -1.2434 -0.9077
 2510SOL    HW2 9299   3.887   6.896   0.239  0.1522 -0.0950 -0.4450
 2511SOL     OW 9300   1.432   1.954   9.510 -0.0905  0.2722  0.6466
 2511SOL    HW1 9301   1.338   1.937   9.512 -0.3655  1.6571  0.3711
 2511SOL    HW2 9302   1.454   1.957   9.417  0.1748  0.2439  0.7067
 2512SOL     OW 9303   1.604   6.402   8.197  0.5591  0.0610 -0.0932
 2512SOL    HW1 9304   1.524   6.364   8.232  0.8833  0.3724  1.0054
 2512SOL    HW2 9305   1.645   6.331   8.148 -0.5308 -0.0124 -0.9406
 2513SOL     OW 9306   3.692   5.800   7.685  0.2112 -0.1920 -0.3792
 2513SOL    HW1 9307   3.638   5.743   7.631 -0.4838 -0.4142  0.5114
 2513SOL    HW2 9308   3.649   5.885   7.680  0.2843 -0.1552 -0.3774
 2514SOL     OW 9309   7.657   8.609   1.894  0.1710 -0.2903  0.4979
 2514SOL    HW1 9310   7.716   8.678   1.863 -0.3762  0.7571  1.6678
 2514SOL    HW2 9311   7.571   8.636   1.863 -0.0223 -0.5335  0.8167
 2515SOL     OW 9312   2.347   6.957   3.108  0.1011 -0.2827  0.3357
 2515SOL    HW1 9313   2.366   6.866   3.089 -1.3426 -0.5850  0.2037
 2515SOL    HW2 9314   2.339   6.961   3.204  2.8623  0.3047  0.6160
 2516SOL     OW 9315   2.951   4.472   7.212 -0.0069 -0.3286  0.8637
 2516SOL    HW1 9316   2.975   4.385   7.179  2.3256  0.5507  0.0799
 2516SOL    HW2 9317   2.966   4.467   7.306 -1.8732 -1.3286  1.1702
 2517SOL     OW 9318   8.854   4.640   9.509  0.0365 -0.2464 -0.5041
 2517SOL    HW1 9319   8.890   4.575   9.570  3.0315  0.2475 -1.5767
 2517SOL    HW2 9320   8.860   4.598   9.423 -1.2666  0.2122 -0.8422
 2518SOL     OW 9321   9.489   6.010   4.114 -0.2060 -0.0195 -0.3594
 2518SOL    HW1 9322   9.491   6.041   4.204  0.6075  0.4687 -0.5318
 2518SOL    HW2 9323   9.541   5.930   4.116 -0.0066  0.1071 -0.4329
 2519SOL     OW 9324   5.815   6.275   0.268  0.0365  0.0992  0.1544
 2519SOL    HW1 9325   5.887   6.337   0.265  0.6647 -0.5835  0.6831
 2519SOL    HW2 9326   5.779   6.275   0.179  0.5822  0.5630 -0.0666
 2520SOL     OW 9327   6.320   4.649   3.079  0.5901 -0.0976  0.4004
 2520SOL    HW1 9328   6.292   4.624   3.167  0.5183  1.6057  0.8952
 2520SOL    HW2 9329   6.366   4.732   3.092  1.4596 -0.3239 -1.0502
 2521SOL     OW 9330   8.774   1.084   3.185 -0.2516  0.4438 -0.2040
 2521SOL    HW1 9331   8.729   1.045   3.261  0.5255  2.0971  1.1789
 2521SOL    HW2 9332   8.780   1.013   3.122 -1.5697 -0.8125  0.9961
 2522SOL     OW 9333   4.212   6.687   2.507  0.4112 -0.6594 -0.5407
 2522SOL    HW1 9334   4.191   6.746   2.579  1.6662 -1.7184  0.7370
 2522SOL    HW2 9335   4.127   6.659   2.473 -0.1939  0.5286 -0.0728
 2523SOL     OW 9336   5.717   2.582   6.418 -0.2098 -0.3682  0.1406
 2523SOL    HW1 9337   5.792   2.640   6.401 -0.1088 -0.0297  1.6412
 2523SOL    HW2 9338   5.718   2.521   6.345  0.4176  0.7672 -0.8504
 2524SOL     OW 9339   6.493   1.331   0.281 -0.0658  0.2759  0.4859
 2524SOL    HW1 9340   6.482   1.422   0.308 -1.1613  0.1459  0.5402
 2524SOL    HW2 9341   6.566   1.299   0.335 -0.8528  0.6123  1.8112
 2525SOL     OW 9342   1.914   2.645   9.782 -0.1755 -0.3056 -0.0665
 2525SOL    HW1 9343   1.829   2.600   9.776 -0.6578  0.7328 -1.8806
 2525SOL    HW2 9344   1.914   2.704   9.707  1.8283  0.3180  0.3880
 2526SOL     OW 9345   1.005   4.948   8.441 -0.1638  0.4910 -0.0002
 2526SOL    HW1 9346   0.960   4.905   8.368  1.4322 -0.4509 -0.4916
 2526SOL    HW2 9347   0.952   4.928   8.518 -1.2441  0.4965 -0.7198
 2527SOL     OW 9348   6.395   7.058   0.421  0.0059  0.0293 -1.0866
 2527SOL    HW1 9349   6.472   7.115   0.419 -0.5511  0.9273  1.0669
 2527SOL    HW2 9350   6.420   6.983   0.366  2.8695 -0.2649  0.4245
 2528SOL     OW 9351   9.704   9.592   8.863 -0.0531  0.0944  0.2197
 2528SOL    HW1 9352   9.706   9.594   8.768 -1.7928  0.1503  0.1541
 2528SOL    HW2 9353   9.630   9.536   8.885 -1.2345  2.0208  1.4852
 2529SOL     OW 9354   8.690   9.253   6.761  0.0419  0.3937 -0.4485
 2529SOL    HW1 9355   8.713   9.173   6.808  0.9392  0.9524  0.0970
 2529SOL    HW2 9356   8.629   9.225   6.693  0.6362 -0.7990 -0.4980
 2530SOL     OW 9357   2.265   1.365   6.545 -0.7155 -0.7156  0.2829
 2530SOL    HW1 9358   2.326   1.429   6.582 -2.5450 -0.6241  3.5193
 2530SOL    HW2 9359   2.238   1.403   6.462  1.4819  0.5558  0.0766
 2531SOL     OW 9360   4.222   9.185   9.654  0.1957  0.3129  0.0490
 2531SOL    HW1 9361   4.289   9.172   9.586  0.4276  2.4501 -0.1987
 2531SOL    HW2 9362   4.147   9.133   9.624  0.8862 -0.1580 -0.9363
 2532SOL     OW 9363   0.203   7.268   5.595  0.6916  0.2395  0.3012
 2532SOL    HW1 9364   0.124   7.306   5.634  1.1786  0.8921  0.6860
 2532SOL    HW2 9365   0.272   7.333   5.612  1.8019 -1.2608  1.9199
 2533SOL     OW 9366   7.903   9.127   3.797  0.4043 -0.0481 -0.5718
 2533SOL    HW1 9367   7.921   9.172   3.879  1.2016 -0.2431 -0.6314
 2533SOL    HW2 9368   7.964   9.054   3.796  1.0398  0.4682 -1.7494
 2534SOL     OW 9369   8.009   4.930   7.791 -0.7244 -0.3767 -0.2009
 2534SOL    HW1 9370   8.010   4.994   7.861 -0.5380  0.2751 -0.7910
 2534SOL    HW2 9371   8.095   4.888   7.795 -0.8193 -0.5368  0.1383
 2535SOL     OW 9372   2.334   3.977   7.911  0.2930 -0.1142  0.1511
 2535SOL    HW1 9373   2.292   4.002   7.829 -0.9601 -0.4790  0.6549
 2535SOL    HW2 9374   2.349   3.883   7.903 -3.3577 -0.9954  1.7516
 2536SOL     OW 9375   3.298   9.292   1.240  0.4725  0.3605 -0.1768
 2536SOL    HW1 9376   3.237   9.240   1.294  1.1301  0.0479  0.2775
 2536SOL    HW2 9377   3.305   9.242   1.158 -0.0069  0.4884 -0.3031
 2537SOL     OW 9378   3.781   5.886   5.896 -0.1907 -0.1324  0.1443
 2537SOL    HW1 9379   3.743   5.970   5.922  2.6051  0.9401  1.1705
 2537SOL    HW2 9380   3.749   5.872   5.806 -1.6738  1.3982  0.3770
 2538SOL     OW 9381   9.153   1.632   9.209  0.3928  0.2099  0.0080
 2538SOL    HW1 9382   9.186   1.550   9.244 -0.3588 -0.0471  0.1378
 2538SOL    HW2 9383   9.212   1.699   9.245  1.0111 -0.2660 -0.1110
 2539SOL     OW 9384   9.228   9.277   9.114  0.4624  0.3534  0.2540
 2539SOL    HW1 9385   9.226   9.282   9.018  1.1936  0.1959  0.2176
 2539SOL    HW2 9386   9.233   9.183   9.132  0.5472  0.3916  0.4320
 2540SOL     OW 9387   4.632   6.966   8.286  0.1700  0.2743  0.3976
 2540SOL    HW1 9388   4.720   7.001   8.271 -0.1346  1.0102  0.3049
 2540SOL    HW2 9389   4.573   7.029   8.245 -0.4625  0.3407  1.3774
 2541SOL     OW 9390   3.625   4.022   5.578 -0.4499 -0.1502  0.1992
 2541SOL    HW1 9391   3.651   4.112   5.557 -0.5174 -0.3993 -1.0666
 2541SOL    HW2 9392   3.530   4.027   5.589 -0.7907 -0.3914 -2.0449
 2542SOL     OW 9393   2.879   4.155   7.369  0.8145 -0.1579  0.1241
 2542SOL    HW1 9394   2.851   4.072   7.332  1.7201  0.4290 -2.0307
 2542SOL    HW2 9395   2.929   4.131   7.447 -2.4859 -1.3701  2.0570
 2543SOL     OW 9396   7.972   2.786   3.033 -0.0188  0.1956  0.1558
 2543SOL    HW1 9397   8.009   2.766   2.946 -0.9312  0.6844 -0.3576
 2543SOL    HW2 9398   7.972   2.881   3.038 -0.1935  0.1737  0.5968
 2544SOL     OW 9399   8.361   9.826   6.015 -0.2540  0.0496 -0.2839
 2544SOL    HW1 9400   8.333   9.909   6.054 -0.8394  0.3468 -1.3154
 2544SOL    HW2 9401   8.426   9.851   5.950 -1.6915 -0.0838 -1.8571
 2545SOL     OW 9402   2.607   9.524   8.327 -0.0130 -0.1304  0.6013
 2545SOL    HW1 9403   2.672   9.460   8.298 -0.5642 -1.2750  1.7936
 2545SOL    HW2 9404   2.527   9.473   8.340 -1.1047  1.1854 -0.5311
 2546SOL     OW 9405   2.851   8.128   3.826  0.6138 -0.4021 -0.1513
 2546SOL    HW1 9406   2.784   8.064   3.848  0.2131  0.0011 -0.1710
 2546SOL    HW2 9407   2.802   8.206   3.800  1.0782 -0.4627 -1.2945
 2547SOL     OW 9408   7.151   5.951   2.031  0.2032 -0.3839 -0.1702
 2547SOL    HW1 9409   7.099   5.961   1.951 -0.3755 -1.4035  0.0747
 2547SOL    HW2 9410   7.233   5.997   2.011 -0.3631  0.3350 -0.9376
 2548SOL     OW 9411   1.890   3.172   4.606 -0.3144  0.0154 -0.3211
 2548SOL    HW1 9412   1.972   3.218   4.624 -0.8602  0.5589  0.9445
 2548SOL    HW2 9413   1.913   3.080   4.604  0.3685  0.1812 -0.2325
 2549SOL     OW 9414   9.219   0.269   9.097  0.0825  0.3640 -0.8894
 2549SOL    HW1 9415   9.251   0.320   9.171 -1.3818  2.3878 -1.5398
 2549SOL    HW2 9416   9.287   0.279   9.030 -0.0864  1.3482 -0.9331
 2550SOL     OW 9417   7.704   1.762   4.891  0.0888  0.4640 -0.3840
 2550SOL    HW1 9418   7.724   1.746   4.799 -0.3435  0.8967 -0.5571
 2550SOL    HW2 9419   7.761   1.702   4.939  0.6881  0.6007 -0.9141
 2551SOL     OW 9420   5.483   3.416   3.549  0.2073 -0.0375 -0.1257
 2551SOL    HW1 9421   5.412   3.470   3.582  0.4022  0.7578 -0.9521
 2551SOL    HW2 9422   5.507   3.360   3.623  0.5882  1.6138  1.0721
 2552SOL     OW 9423   0.180   3.061   8.156  0.1956  0.2010  0.0265
 2552SOL    HW1 9424   0.197   3.078   8.063  2.1446 -0.9354  0.1159
 2552SOL    HW2 9425   0.103   3.114   8.176 -0.2149  0.5732 -2.1985
 2553SOL     OW 9426   7.965   0.449   7.014 -0.2015  0.2771 -0.8839
 2553SOL    HW1 9427   8.011   0.425   7.094 -2.6005 -2.0286 -0.0744
 2553SOL    HW2 9428   7.950   0.544   7.021 -0.6317  0.0729  1.5489
 2554SOL     OW 9429   3.034   9.570   8.640  0.0159  0.1425  0.6717
 2554SOL    HW1 9430   2.940   9.574   8.660 -0.2098 -1.0757 -0.0501
 2554SOL    HW2 9431   3.056   9.658   8.610 -0.9819  0.3476  0.5116
 2555SOL     OW 9432   7.759   1.133   7.737 -0.5213  0.0886  0.1647
 2555SOL    HW1 9433   7.670   1.108   7.710  0.0071 -2.8137  0.7498
 2555SOL    HW2 9434   7.755   1.134   7.832 -0.0066  0.3407  0.1841
 2556SOL     OW 9435   8.490   0.026   4.364 -0.3124  0.3067  0.3571
 2556SOL    HW1 9436   8.461  -0.059   4.399  2.7843  0.0033  2.5622
 2556SOL    HW2 9437   8.446   0.091   4.419 -0.7351  0.0557  0.3201
 2557SOL     OW 9438   6.144   6.035   9.481 -0.1133 -0.2730  0.7821
 2557SOL    HW1 9439   6.090   5.994   9.413 -0.9779 -0.6011  1.6416
 2557SOL    HW2 9440   6.206   6.090   9.432 -1.0830 -0.0430 -0.2537
 2558SOL     OW 9441   1.176   4.416   7.527 -0.2767  0.2733 -0.3672
 2558SOL    HW1 9442   1.259   4.452   7.558  0.3785  0.9530 -2.7037
 2558SOL    HW2 9443   1.154   4.469   7.450 -2.9851  0.2246  0.2807
 2559SOL     OW 9444   9.169   9.757   2.089 -0.5464 -0.3820  0.6822
 2559SOL    HW1 9445   9.253   9.733   2.050 -0.0160  0.1658  1.4651
 2559SOL    HW2 9446   9.107   9.695   2.051 -0.2434  0.6751 -1.7550
 2560SOL     OW 9447   8.238   1.131   1.338  0.1853 -0.6247  0.3996
 2560SOL    HW1 9448   8.173   1.158   1.403 -0.7672 -0.1612 -0.6921
 2560SOL    HW2 9449   8.322   1.160   1.374 -0.5046  1.2651  0.6248
 2561SOL     OW 9450   4.091   1.427   8.832 -0.0538  0.7921  0.5565
 2561SOL    HW1 9451   4.090   1.409   8.738  0.9326 -3.1862  1.1120
 2561SOL    HW2 9452   4.131   1.513   8.839 -2.1560  2.2456 -2.6881
 2562SOL     OW 9453   5.319   6.429   7.331 -0.4824 -0.2784  0.1639
 2562SOL    HW1 9454   5.238   6.471   7.362 -1.1185 -0.6283 -0.9719
 2562SOL    HW2 9455   5.299   6.401   7.241  0.4331 -1.6330  0.3480
 2563SOL     OW 9456   6.308   2.173   4.447  0.4134 -0.7223  0.0404
 2563SOL    HW1 9457   6.376   2.109   4.470  0.0645 -0.3347  2.4435
 2563SOL    HW2 9458   6.298   2.164   4.353  3.0633 -1.5200 -0.2626
 2564SOL     OW 9459   0.965   2.874   1.124 -0.4724  0.1611  0.2594
 2564SOL    HW1 9460   1.028   2.913   1.063  0.6404  0.0881  1.3382
 2564SOL    HW2 9461   0.993   2.903   1.210 -1.3915 -0.6027  0.8395
 2565SOL     OW 9462   5.450   8.519   9.115  0.5409 -0.0878  0.2141
 2565SOL    HW1 9463   5.415   8.471   9.190  1.1592 -0.9173 -0.0049
 2565SOL    HW2 9464   5.448   8.611   9.142  0.5996 -0.3557  1.1766
 2566SOL     OW 9465   0.141   5.925   3.163  0.1444 -0.0745 -0.1913
 2566SOL    HW1 9466   0.136   6.020   3.176  1.5687 -0.1900  1.6438
 2566SOL    HW2 9467   0.102   5.888   3.243 -0.8050 -1.0565 -1.0773
 2567SOL     OW 9468   7.474   9.152   8.437 -0.0268 -0.6106  0.2548
 2567SOL    HW1 9469   7.526   9.075   8.458 -1.4683 -1.1516  2.0505
 2567SOL    HW2 9470   7.395   9.144   8.490 -1.5302  0.6777 -1.6099
 2568SOL     OW 9471   7.196   9.132   6.599 -0.1071  0.2448  0.1815
 2568SOL    HW1 9472   7.216   9.066   6.533 -0.8453 -1.3460  1.4951
 2568SOL    HW2 9473   7.143   9.197   6.552  1.0262  0.1990 -1.2396
 2569SOL     OW 9474   1.045   7.728   4.205 -0.2004  0.2099  0.0514
 2569SOL    HW1 9475   1.117   7.695   4.151  0.4433  1.4917  0.0779
 2569SOL    HW2 9476   1.058   7.686   4.290  0.2277  0.0507 -0.0862
 2570SOL     OW 9477   1.931   6.023   4.954 -0.5316 -0.8416 -0.0388
 2570SOL    HW1 9478   1.892   6.010   5.040  0.2003 -1.7710  0.1660
 2570SOL    HW2 9479   1.856   6.038   4.896 -1.0639 -0.7798  0.6508
 2571SOL     OW 9480   7.900   1.367   9.619 -0.2316  0.2276 -0.5737
 2571SOL    HW1 9481   7.841   1.340   9.689 -1.4724  0.9117 -1.3071
 2571SOL    HW2 9482   7.984   1.327   9.640 -0.6200  0.2859  1.1976
 2572SOL     OW 9483   7.049   6.404   6.187  0.2177 -0.2225 -0.2957
 2572SOL    HW1 9484   6.958   6.423   6.208  0.1331 -0.8631 -0.0609
 2572SOL    HW2 9485   7.099   6.443   6.258  0.2891  1.8509 -1.4045
 2573SOL     OW 9486   7.689   0.143   2.026 -0.2876  0.3900  0.1922
 2573SOL    HW1 9487   7.768   0.147   1.972 -1.4687  1.0986 -1.5764
 2573SOL    HW2 9488   7.695   0.220   2.083  0.2392  0.4972 -0.0026
 2574SOL     OW 9489   2.485   5.369   3.084  0.1468  0.1604 -0.4113
 2574SOL    HW1 9490   2.515   5.308   3.016  2.0438  0.7691 -0.1830
 2574SOL    HW2 9491   2.525   5.453   3.059 -0.6678  0.8173  0.4480
 2575SOL     OW 9492   9.346   1.592   6.366 -0.6411 -0.4274  0.2649
 2575SOL    HW1 9493   9.398   1.567   6.289  0.2708 -1.3793  1.1513
 2575SOL    HW2 9494   9.298   1.670   6.339  0.1913 -0.3427 -1.0406
 2576SOL     OW 9495   2.335   3.030   1.376 -0.1108  0.6461  0.6569
 2576SOL    HW1 9496   2.376   2.952   1.340 -1.1112 -0.0704  1.0216
 2576SOL    HW2 9497   2.285   2.999   1.451  1.6039  2.0332  2.4981
 2577SOL     OW 9498   1.797   0.044   0.246  0.1729  0.7434 -0.1461
 2577SOL    HW1 9499   1.865   0.083   0.301  0.0275  0.1884  0.4357
 2577SOL    HW2 9500   1.833   0.049   0.158  1.9565 -1.4953  0.3716
 2578SOL     OW 9501   7.390   9.127   6.246 -0.8223 -0.7999  0.5084
 2578SOL    HW1 9502   7.332   9.196   6.217 -1.4401 -1.7081 -0.5070
 2578SOL    HW2 9503   7.435   9.098   6.166 -0.5518 -1.5414  0.9148
 2579SOL     OW 9504   7.336   8.676   9.754  0.5403  0.0070  0.0139
 2579SOL    HW1 9505   7.359   8.705   9.842  0.0656 -0.3867  0.2740
 2579SOL    HW2 9506   7.420   8.659   9.711  0.9135  2.8421 -0.5440
 2580SOL     OW 9507   2.215   2.471   7.792 -0.1153  0.3972  0.1901
 2580SOL    HW1 9508   2.291   2.510   7.836 -1.6161  2.2454  1.2839
 2580SOL    HW2 9509   2.159   2.440   7.863 -0.6177 -0.5080 -0.5832
 2581SOL     OW 9510   1.757   0.731   4.201 -0.2680  0.1450 -0.5336
 2581SOL    HW1 9511   1.707   0.735   4.283  0.7671 -0.0499  0.1262
 2581SOL    HW2 9512   1.774   0.638   4.188 -2.2724 -0.0528 -2.1497
 2582SOL     OW 9513   1.718   5.214   9.210  0.0985  0.2189 -0.3728
 2582SOL    HW1 9514   1.636   5.225   9.163  0.9915  0.2931 -1.9740
 2582SOL    HW2 9515   1.746   5.303   9.231  0.4025  0.2635 -0.9630
 2583SOL     OW 9516   1.128   3.583   8.838  0.1690 -0.0183  0.5845
 2583SOL    HW1 9517   1.081   3.652   8.884  0.4679  0.3163  0.3936
 2583SOL    HW2 9518   1.162   3.527   8.908 -1.9178 -1.2403  0.7102
 2584SOL     OW 9519   9.835   6.741   2.842  0.5282  0.0865  0.3999
 2584SOL    HW1 9520   9.807   6.809   2.781 -1.4964  0.3472  1.5319
 2584SOL    HW2 9521   9.871   6.788   2.917 -1.3932  0.0058  1.4311
 2585SOL     OW 9522   6.925   8.450   8.177  0.2251 -0.2375  0.0422
 2585SOL    HW1 9523   6.996   8.431   8.238  1.8024 -2.0175 -2.1764
 2585SOL    HW2 9524   6.871   8.371   8.177 -1.1387  0.6629  0.8480
 2586SOL     OW 9525   7.649   7.564   2.443 -0.4177  0.4899 -0.4933
 2586SOL    HW1 9526   7.616   7.531   2.526 -1.1122 -1.2550 -1.3982
 2586SOL    HW2 9527   7.595   7.641   2.424 -0.6140  0.5798  0.3916
 2587SOL     OW 9528   0.049   9.665   3.567  0.5193 -0.0297  0.5615
 2587SOL    HW1 9529   0.036   9.636   3.477  2.6045 -0.4075  0.3166
 2587SOL    HW2 9530  -0.012   9.737   3.579 -1.3793 -1.3926 -0.3937
 2588SOL     OW 9531   4.866   8.679   3.831  0.9093  0.5022 -0.3023
 2588SOL    HW1 9532   4.834   8.769   3.832  0.1427  0.2351 -0.2708
 2588SOL    HW2 9533   4.790   8.627   3.806  0.7009 -0.3788  1.9374
 2589SOL     OW 9534   2.061   3.448   9.029 -0.1667  0.2313  0.1262
 2589SOL    HW1 9535   1.983   3.434   8.975  1.7675 -1.2105 -2.5678
 2589SOL    HW2 9536   2.089   3.538   9.009 -1.0759  0.7349  1.0660
 2590SOL     OW 9537   3.081   2.062   5.084  0.0884 -0.5074 -0.2816
 2590SOL    HW1 9538   2.986   2.071   5.085 -0.0107 -1.3889  1.5459
 2590SOL    HW2 9539   3.096   1.968   5.082  0.8790 -0.4458  1.3756
 2591SOL     OW 9540   5.001   4.974   8.858  0.1859 -0.3129  0.1197
 2591SOL    HW1 9541   4.985   4.880   8.868 -1.2986 -0.0610  0.3591
 2591SOL    HW2 9542   4.953   4.998   8.779  0.6403  0.2247  0.0039
 2592SOL     OW 9543   2.846   3.081   8.587 -1.0493  0.0256 -0.8040
 2592SOL    HW1 9544   2.914   3.024   8.623  1.3144  2.6158 -0.8379
 2592SOL    HW2 9545   2.777   3.021   8.560  1.5511 -2.9101 -1.5722
 2593SOL     OW 9546   9.682   1.465   0.293 -0.0034 -0.5821  0.5154
 2593SOL    HW1 9547   9.647   1.505   0.372 -0.7812 -0.2257  0.0032
 2593SOL    HW2 9548   9.773   1.443   0.315  1.6454  4.2583 -0.0570
 2594SOL     OW 9549   3.696   9.706   7.110 -0.5125 -0.0594 -0.1352
 2594SOL    HW1 9550   3.601   9.697   7.120 -0.5381  0.1957 -0.1395
 2594SOL    HW2 9551   3.730   9.707   7.199 -0.5753  0.4832 -0.1151
 2595SOL     OW 9552   4.932   1.407   0.749 -0.0068  0.0311 -0.1535
 2595SOL    HW1 9553   4.959   1.408   0.841  0.0178  0.2191 -0.1629
 2595SOL    HW2 9554   5.014   1.419   0.700  0.0005 -0.2156 -0.2047
 2596SOL     OW 9555   8.333   4.262   8.215  0.4029  0.0784  0.1555
 2596SOL    HW1 9556   8.408   4.250   8.272 -0.2579  0.1463  1.0703
 2596SOL    HW2 9557   8.261   4.284   8.275 -0.9228 -2.3642 -0.4236
 2597SOL     OW 9558   7.811   5.145   3.336 -0.0067  0.0185 -0.6639
 2597SOL    HW1 9559   7.855   5.137   3.252  2.6587 -0.4269  0.6587
 2597SOL    HW2 9560   7.851   5.077   3.391 -2.4083 -0.4262  0.7125
 2598SOL     OW 9561   7.701   5.094   6.598 -0.4729 -0.8267 -0.2642
 2598SOL    HW1 9562   7.682   5.003   6.622  1.3017 -1.4797 -1.1717
 2598SOL    HW2 9563   7.622   5.124   6.554 -1.2839 -1.7422  0.5143
 2599SOL     OW 9564   1.445   4.718   2.648  0.7313  0.9209 -0.0393
 2599SOL    HW1 9565   1.516   4.780   2.665  0.7879  0.9270 -0.2911
 2599SOL    HW2 9566   1.411   4.743   2.562  2.3788 -0.9204 -1.3176
 2600SOL     OW 9567   5.131   7.378   4.362  0.5759  0.8404 -0.3877
 2600SOL    HW1 9568   5.059   7.428   4.402 -0.1950 -0.3483 -0.2546
 2600SOL    HW2 9569   5.118   7.288   4.391  2.4379  0.6722  0.0667
 2601SOL     OW 9570   6.198   0.728   8.219 -0.0033  0.0512  0.3074
 2601SOL    HW1 9571   6.208   0.780   8.140 -0.5270  3.4262  2.2577
 2601SOL    HW2 9572   6.286   0.724   8.257 -0.3357  1.7256  1.3531
 2602SOL     OW 9573   6.796   3.606   9.404  0.6389  0.2503 -0.1821
 2602SOL    HW1 9574   6.802   3.530   9.346 -0.0673  1.7311 -2.3146
 2602SOL    HW2 9575   6.820   3.572   9.491  0.0345 -2.4473 -0.9783
 2603SOL     OW 9576   0.022   4.797   6.933 -0.1543  0.0453  0.5816
 2603SOL    HW1 9577   0.027   4.842   6.849  0.7681 -1.8285 -0.4246
 2603SOL    HW2 9578   0.064   4.856   6.995  1.2566  0.4707 -0.7408
 2604SOL     OW 9579   8.374   0.860   3.669  0.0204  0.2765 -0.7040
 2604SOL    HW1 9580   8.442   0.792   3.663 -0.0587  0.1921 -0.6382
 2604SOL    HW2 9581   8.377   0.904   3.584  1.7031  1.7543  0.0504
 2605SOL     OW 9582   6.215   0.574   8.805  0.5892 -0.7541 -0.1487
 2605SOL    HW1 9583   6.271   0.497   8.812  0.1883 -1.0855 -0.4976
 2605SOL    HW2 9584   6.189   0.576   8.713  1.0013  0.0921 -0.2597
 2606SOL     OW 9585   4.123   8.750   9.814 -0.0965  0.4582  0.2191
 2606SOL    HW1 9586   4.133   8.800   9.733 -0.5788  0.1603 -0.0264
 2606SOL    HW2 9587   4.199   8.775   9.867  0.6321  0.0892 -0.6200
 2607SOL     OW 9588   5.439   8.890   5.926 -0.4102 -0.1466 -0.0775
 2607SOL    HW1 9589   5.520   8.905   5.878  0.0080  0.3328  0.7586
 2607SOL    HW2 9590   5.402   8.977   5.939 -0.3364 -0.2321  0.7684
 2608SOL     OW 9591   7.289   0.032   7.878 -0.3467 -0.0471 -0.2783
 2608SOL    HW1 9592   7.331  -0.013   7.952 -1.9084  1.3989  1.6183
 2608SOL    HW2 9593   7.342   0.111   7.865  0.6761 -0.9163 -1.6291
 2609SOL     OW 9594   0.961   8.337   5.120  0.3294  0.0608  0.1078
 2609SOL    HW1 9595   0.885   8.387   5.088  1.0439  1.4912  0.5268
 2609SOL    HW2 9596   0.931   8.298   5.202 -0.3831 -0.5812 -0.4446
 2610SOL     OW 9597   1.420   6.596   4.655  0.3192 -0.1778 -0.2706
 2610SOL    HW1 9598   1.460   6.555   4.732 -0.0152  1.1957  0.6605
 2610SOL    HW2 9599   1.363   6.528   4.619  0.6788 -0.9270  0.5260
 2611SOL     OW 9600   2.665   4.090   1.886  0.0408 -0.0235  0.5138
 2611SOL    HW1 9601   2.731   4.049   1.942  0.4256  1.0666  0.8928
 2611SOL    HW2 9602   2.716   4.137   1.820 -0.2177  2.5530  2.0099
 2612SOL     OW 9603   3.353   9.021   5.671 -0.4549  0.3034 -0.5366
 2612SOL    HW1 9604   3.372   9.108   5.634  1.1247  0.3850  0.3758
 2612SOL    HW2 9605   3.333   8.967   5.595  0.8545  0.9194 -1.3639
 2613SOL     OW 9606   7.393   2.672   7.753 -0.0159  0.2509  0.0054
 2613SOL    HW1 9607   7.463   2.729   7.785 -1.4623  2.9811 -1.3794
 2613SOL    HW2 9608   7.327   2.672   7.822 -0.0671  0.3127 -0.0440
 2614SOL     OW 9609   5.882   1.023   0.342  0.3409 -0.3948  0.5587
 2614SOL    HW1 9610   5.799   0.986   0.373  1.4274 -1.5044  2.3281
 2614SOL    HW2 9611   5.941   0.947   0.337  1.7211  0.6106  1.0215
 2615SOL     OW 9612   7.386   7.426   8.237 -0.4062 -0.7097  0.0674
 2615SOL    HW1 9613   7.393   7.512   8.280 -2.5400  0.0476 -0.9441
 2615SOL    HW2 9614   7.321   7.379   8.289 -0.1967 -1.2143 -0.1284
 2616SOL     OW 9615   3.465   0.581   9.297 -0.2671  0.3404 -0.2116
 2616SOL    HW1 9616   3.383   0.616   9.261 -0.0265  0.9539 -0.1736
 2616SOL    HW2 9617   3.499   0.652   9.351 -0.5754 -0.5436  1.1806
 2617SOL     OW 9618   8.167   0.838   5.189 -0.4250  0.1768  0.4158
 2617SOL    HW1 9619   8.193   0.849   5.281  0.0002  0.9682  0.2073
 2617SOL    HW2 9620   8.132   0.923   5.164  0.2932  0.2391 -0.4130
 2618SOL     OW 9621   1.958   1.361   0.059 -0.0869  0.6961 -0.4265
 2618SOL    HW1 9622   1.893   1.430   0.075 -0.0629  0.1308  2.7420
 2618SOL    HW2 9623   1.911   1.279   0.074  0.9054  0.2048  0.1007
 2619SOL     OW 9624   0.974   5.908   4.494 -0.3507  0.3493  0.4309
 2619SOL    HW1 9625   1.039   5.976   4.478 -0.8297  1.0504  1.3299
 2619SOL    HW2 9626   0.900   5.931   4.438 -0.4603  0.4826  0.6322
 2620SOL     OW 9627   0.466   4.036   3.746  0.5920 -0.8211 -0.0702
 2620SOL    HW1 9628   0.450   4.018   3.839  1.1683 -0.5332  0.0888
 2620SOL    HW2 9629   0.504   4.124   3.745  0.1358 -0.6218 -0.6240
 2621SOL     OW 9630   8.742   0.143   9.736 -0.1658  0.3476 -0.2664
 2621SOL    HW1 9631   8.793   0.219   9.707  0.4045 -0.8424 -2.6182
 2621SOL    HW2 9632   8.652   0.164   9.710 -0.9091  2.0170  3.0183
 2622SOL     OW 9633   1.445   7.473   3.050  0.1428  0.2357 -0.4112
 2622SOL    HW1 9634   1.392   7.474   3.130  1.2614  2.5673  0.3851
 2622SOL    HW2 9635   1.521   7.419   3.072 -0.2335 -0.2966 -0.4017
 2623SOL     OW 9636   7.456   6.541   2.162 -0.1859  0.1621 -0.0979
 2623SOL    HW1 9637   7.421   6.544   2.251  2.7725 -3.2461  1.4187
 2623SOL    HW2 9638   7.529   6.603   2.163  0.4388 -0.5675  0.1875
 2624SOL     OW 9639   3.937   5.867   0.806  0.4465 -0.0229 -0.3379
 2624SOL    HW1 9640   3.901   5.942   0.852  1.5835  0.2927  0.0650
 2624SOL    HW2 9641   3.864   5.834   0.753 -0.5339  0.3555  0.7257
 2625SOL     OW 9642   8.941   6.981   8.445 -0.5012 -0.8066  0.1222
 2625SOL    HW1 9643   9.013   7.029   8.405 -2.0973 -0.5937 -2.8042
 2625SOL    HW2 9644   8.891   7.046   8.493 -1.2080  0.0354 -1.6657
 2626SOL     OW 9645   7.726   9.241   7.550  0.0180  0.1339 -0.1028
 2626SOL    HW1 9646   7.762   9.153   7.551 -0.4690 -0.1318  2.8686
 2626SOL    HW2 9647   7.650   9.236   7.609 -0.1557  2.4781 -0.0476
 2627SOL     OW 9648   0.454   4.930   3.834 -0.2625 -0.4786 -0.1253
 2627SOL    HW1 9649   0.404   5.008   3.809 -0.0463 -0.3113 -0.0378
 2627SOL    HW2 9650   0.523   4.923   3.767  0.2822 -0.0635  0.3854
 2628SOL     OW 9651   5.470   8.044   6.314  0.0870  0.1132  0.4450
 2628SOL    HW1 9652   5.564   8.065   6.320 -0.2390  1.2831  2.8068
 2628SOL    HW2 9653   5.453   7.989   6.390 -0.9057 -1.3526 -0.7809
 2629SOL     OW 9654   9.489   1.741   1.047 -0.5984  0.0064  0.3096
 2629SOL    HW1 9655   9.435   1.816   1.071 -2.3479 -1.1686  0.2012
 2629SOL    HW2 9656   9.536   1.718   1.127  1.0645  2.0335 -0.0067
 2630SOL     OW 9657   2.892   3.522   9.033  0.3919 -0.1171  0.2929
 2630SOL    HW1 9658   2.835   3.469   9.088  0.1423 -1.4695 -1.1928
 2630SOL    HW2 9659   2.925   3.462   8.967  2.4492  0.9398  0.2502
 2631SOL     OW 9660   7.203   4.374   8.535 -0.9721  0.0635 -0.4124
 2631SOL    HW1 9661   7.267   4.317   8.577 -0.4547  1.9443  1.4956
 2631SOL    HW2 9662   7.234   4.382   8.444 -0.6167 -1.9748 -0.5039
 2632SOL     OW 9663   0.217   5.433   7.904  0.2677 -0.4066 -0.2168
 2632SOL    HW1 9664   0.209   5.428   7.808 -1.5518  0.4047 -0.1449
 2632SOL    HW2 9665   0.127   5.439   7.935  0.8532 -0.1668  1.5336
 2633SOL     OW 9666   3.190   1.436   0.491  0.4273 -0.0016  0.0307
 2633SOL    HW1 9667   3.181   1.525   0.457  1.4587  0.0986 -0.0059
 2633SOL    HW2 9668   3.175   1.379   0.415  2.4462  0.2149 -0.5919
 2634SOL     OW 9669   6.093   2.631   3.547 -0.1196 -0.3391  0.1119
 2634SOL    HW1 9670   6.101   2.704   3.608  0.8675 -0.7572  0.5098
 2634SOL    HW2 9671   6.172   2.636   3.493 -0.7326 -0.2814 -0.8012
 2635SOL     OW 9672   0.383   6.078   0.622 -0.0435  0.0679 -0.6869
 2635SOL    HW1 9673   0.300   6.031   0.620 -1.3701  2.2578 -0.0504
 2635SOL    HW2 9674   0.418   6.061   0.710  1.0190 -2.0755 -1.4393
 2636SOL     OW 9675   4.120   8.505   3.843  0.2261 -0.6301  0.1398
 2636SOL    HW1 9676   4.142   8.498   3.935 -1.7991  2.1031  0.9486
 2636SOL    HW2 9677   4.054   8.437   3.829 -1.5890  0.7408  1.5341
 2637SOL     OW 9678   6.773   5.326   8.977 -0.1150 -0.2346 -0.1148
 2637SOL    HW1 9679   6.801   5.348   8.888 -1.8941 -2.0821 -1.2066
 2637SOL    HW2 9680   6.841   5.266   9.008  0.7896  0.8172  0.0243
 2638SOL     OW 9681   4.225   9.108   0.072 -0.3314 -0.1931 -0.2855
 2638SOL    HW1 9682   4.284   9.182   0.083 -0.5274  0.0516 -0.8395
 2638SOL    HW2 9683   4.184   9.122  -0.013  0.5501 -1.5912 -0.9828
 2639SOL     OW 9684   3.339   9.462   2.917  0.2513 -0.3533  0.1827
 2639SOL    HW1 9685   3.380   9.485   2.834  0.0722  0.6400  0.3504
 2639SOL    HW2 9686   3.370   9.374   2.936 -0.7790 -1.1717 -1.6090
 2640SOL     OW 9687   4.438   6.625   3.760 -0.2924 -0.1865 -0.1940
 2640SOL    HW1 9688   4.495   6.628   3.682 -1.7355 -0.5020 -1.2986
 2640SOL    HW2 9689   4.448   6.712   3.799 -1.0064  0.6914 -1.8441
 2641SOL     OW 9690   2.791   8.387   9.296 -0.3535 -0.0061 -0.0963
 2641SOL    HW1 9691   2.753   8.403   9.209  1.8534  0.3891 -1.0715
 2641SOL    HW2 9692   2.855   8.458   9.307 -0.9015  0.2148  2.0930
 2642SOL     OW 9693   7.872   0.168   9.742 -0.4114  0.2309 -0.1380
 2642SOL    HW1 9694   7.881   0.239   9.678 -0.6865 -0.7092 -1.2555
 2642SOL    HW2 9695   7.779   0.144   9.738 -0.7830  1.1925  1.7778
 2643SOL     OW 9696   0.771   6.798   4.058  0.4063 -0.6269  0.1617
 2643SOL    HW1 9697   0.785   6.718   4.108  1.4368 -0.8142 -0.3821
 2643SOL    HW2 9698   0.811   6.781   3.973 -1.6102 -0.4400 -0.8805
 2644SOL     OW 9699   9.074   0.559   2.652  0.1094 -0.1363 -0.2058
 2644SOL    HW1 9700   9.007   0.592   2.713 -2.2207 -2.2602 -1.4053
 2644SOL    HW2 9701   9.035   0.480   2.614  2.9803 -0.9750 -1.7203
 2645SOL     OW 9702   1.915   7.585   6.956  0.6501  0.1652  0.6589
 2645SOL    HW1 9703   1.902   7.621   6.868  0.9030  0.2668  0.6610
 2645SOL    HW2 9704   1.929   7.661   7.012  3.4023  0.0225  0.2900
 2646SOL     OW 9705   1.879   0.135   6.367  0.0036 -0.1543  0.1430
 2646SOL    HW1 9706   1.868   0.176   6.282 -1.3000 -0.0912  0.3225
 2646SOL    HW2 9707   1.814   0.065   6.369 -1.7628  1.3944  1.9967
 2647SOL     OW 9708   4.182   7.391   5.322 -0.0225  0.9587  0.1973
 2647SOL    HW1 9709   4.102   7.388   5.374 -0.8010  1.7590 -0.9015
 2647SOL    HW2 9710   4.168   7.327   5.253  0.1442  1.3219 -0.1801
 2648SOL     OW 9711   9.339   0.108   0.425 -0.5030 -0.6234 -0.3461
 2648SOL    HW1 9712   9.335   0.150   0.511  1.2885  0.5793 -0.8035
 2648SOL    HW2 9713   9.432   0.100   0.406 -0.8413 -0.0288 -2.5557
 2649SOL     OW 9714   7.087   8.816   9.262 -0.2971 -0.1495 -0.0642
 2649SOL    HW1 9715   7.163   8.758   9.260  0.3145  0.5915  0.9968
 2649SOL    HW2 9716   7.038   8.794   9.182  0.9953 -0.6586 -0.7428
 2650SOL     OW 9717   3.183   9.672   3.822 -0.2038  0.4628  0.1650
 2650SOL    HW1 9718   3.103   9.721   3.842 -0.1641  0.0065  1.5615
 2650SOL    HW2 9719   3.243   9.694   3.893 -0.2222 -1.6618  0.9181
 2651SOL     OW 9720   0.507   5.779   9.470  0.2755  0.1278 -0.2862
 2651SOL    HW1 9721   0.441   5.727   9.424 -1.7081 -1.1424  3.5268
 2651SOL    HW2 9722   0.457   5.848   9.514  1.7671  0.4218  1.0256
 2652SOL     OW 9723   7.509   8.744   6.532  0.0841 -0.3423  0.3560
 2652SOL    HW1 9724   7.524   8.736   6.438  2.5422  1.4625  0.4889
 2652SOL    HW2 9725   7.419   8.775   6.540 -0.1880 -0.5956 -1.3899
 2653SOL     OW 9726   4.929   5.602   6.817 -0.1246 -0.2190  0.3707
 2653SOL    HW1 9727   4.931   5.669   6.748 -0.7382 -1.0655 -0.4897
 2653SOL    HW2 9728   4.920   5.652   6.898  0.4832  0.7905 -0.1606
 2654SOL     OW 9729   8.259   9.506   1.360  0.1918 -0.1498  0.4605
 2654SOL    HW1 9730   8.190   9.456   1.405 -3.3034  2.1896 -1.7572
 2654SOL    HW2 9731   8.272   9.584   1.415 -0.6384  0.4574 -0.1698
 2655SOL     OW 9732   9.139   3.099   4.768 -0.2401  0.0084 -0.0227
 2655SOL    HW1 9733   9.094   3.169   4.816  1.0194  1.2648 -0.5886
 2655SOL    HW2 9734   9.077   3.075   4.699 -1.3450 -0.5867  1.1363
 2656SOL     OW 9735   0.235   6.517   5.410 -0.0738 -0.0777 -0.3573
 2656SOL    HW1 9736   0.323   6.479   5.417 -0.5683 -1.1658  0.2975
 2656SOL    HW2 9737   0.177   6.443   5.426 -1.1105  1.2763  2.7349
 2657SOL     OW 9738   0.885   9.719   4.824  0.3442 -0.1805 -0.3253
 2657SOL    HW1 9739   0.863   9.696   4.734  2.0827 -1.7880 -0.3984
 2657SOL    HW2 9740   0.974   9.753   4.818  0.4312 -0.1860  0.7725
 2658SOL     OW 9741   0.404   9.484   4.685  0.1089  0.3307 -0.0480
 2658SOL    HW1 9742   0.362   9.465   4.601 -2.1812  2.7702  0.4089
 2658SOL    HW2 9743   0.388   9.406   4.738 -2.4360  0.4694 -0.4803
 2659SOL     OW 9744   8.335   5.245   9.789  0.2253 -0.1955 -0.8252
 2659SOL    HW1 9745   8.275   5.297   9.735 -0.7622 -0.3844  0.0687
 2659SOL    HW2 9746   8.405   5.306   9.813 -0.5704  0.5519 -0.3495
 2660SOL     OW 9747   2.123   8.292   8.691 -0.2624 -0.2054  0.0401
 2660SOL    HW1 9748   2.210   8.255   8.703  0.4483  0.4902 -2.3846
 2660SOL    HW2 9749   2.125   8.330   8.604 -2.7081  0.7000  0.2958
 2661SOL     OW 9750   7.726   4.116   7.439 -0.0456  0.1953 -0.4426
 2661SOL    HW1 9751   7.786   4.174   7.487 -1.0718  3.0240 -2.3036
 2661SOL    HW2 9752   7.745   4.134   7.347 -1.7192 -1.1175 -1.0855
 2662SOL     OW 9753   7.199   8.162   0.329  0.0639 -0.1922  0.4488
 2662SOL    HW1 9754   7.290   8.134   0.321 -0.1325 -0.6238 -0.3168
 2662SOL    HW2 9755   7.192   8.196   0.419  0.9603 -0.2015  0.5246
 2663SOL     OW 9756   9.695   0.422   9.507  0.3220  0.2509  0.3152
 2663SOL    HW1 9757   9.665   0.338   9.472  0.8500  0.2450 -0.1356
 2663SOL    HW2 9758   9.616   0.463   9.541 -0.3378  0.4869 -1.3717
 2664SOL     OW 9759   7.520   7.003   0.769 -0.1716  0.2249 -0.2880
 2664SOL    HW1 9760   7.469   6.939   0.719 -1.5222  0.4481  0.7644
 2664SOL    HW2 9761   7.605   6.959   0.783 -0.8730 -1.1133 -0.0589
 2665SOL     OW 9762   1.038   3.780   8.514 -0.5810  0.2399  0.1389
 2665SOL    HW1 9763   0.966   3.817   8.565 -1.5615 -1.6769  0.2458
 2665SOL    HW2 9764   1.002   3.699   8.477  0.6954  0.6165 -2.0652
 2666SOL     OW 9765   8.673   0.216   5.531  0.7406 -0.0973  0.6400
 2666SOL    HW1 9766   8.601   0.235   5.470  0.0908 -0.6328  1.2104
 2666SOL    HW2 9767   8.751   0.214   5.476 -0.2144 -4.2335 -0.9654
 2667SOL     OW 9768   7.303   5.566   3.486  0.2706 -0.5465 -0.0650
 2667SOL    HW1 9769   7.376   5.628   3.496  0.3684 -0.7502  0.5121
 2667SOL    HW2 9770   7.287   5.564   3.391 -0.3595  1.0801 -0.0210
 2668SOL     OW 9771   8.932   0.807   2.407 -0.0748 -0.1059 -0.0446
 2668SOL    HW1 9772   8.980   0.834   2.486  0.9130  0.3079 -0.7647
 2668SOL    HW2 9773   8.999   0.768   2.351 -0.4691  0.9751 -1.2993
 2669SOL     OW 9774   5.386   6.662   2.999  0.6998 -0.4369 -0.1790
 2669SOL    HW1 9775   5.472   6.623   2.982  0.7015 -0.0064 -1.2222
 2669SOL    HW2 9776   5.357   6.621   3.080  0.6774 -2.6838 -1.2282
 2670SOL     OW 9777   9.084   8.523   2.209 -0.0611  0.2801  0.2902
 2670SOL    HW1 9778   8.992   8.494   2.208  0.7264 -2.6225  1.3371
 2670SOL    HW2 9779   9.121   8.480   2.286  2.3139  0.9384 -0.4224
 2671SOL     OW 9780   7.966   8.957   8.368  0.2328 -0.5876  0.1682
 2671SOL    HW1 9781   7.946   8.985   8.457  0.5503 -1.0389  0.3853
 2671SOL    HW2 9782   8.049   8.910   8.376 -0.0126 -1.1068 -0.2759
 2672SOL     OW 9783   9.467   9.600   7.815 -0.1778  0.6131 -0.1241
 2672SOL    HW1 9784   9.553   9.621   7.779  0.4332 -0.5398  0.6101
 2672SOL    HW2 9785   9.405   9.630   7.749  0.8335  0.2883 -1.2510
 2673SOL     OW 9786   9.489   9.746   4.634 -0.4456 -0.0878 -0.3349
 2673SOL    HW1 9787   9.443   9.744   4.717  0.8802 -1.8466  0.3958
 2673SOL    HW2 9788   9.484   9.657   4.601  2.2209 -0.3025 -0.3143
 2674SOL     OW 9789   6.078   3.709   1.448  0.0967 -0.1792  0.1368
 2674SOL    HW1 9790   6.027   3.746   1.375  1.4360  0.4828 -0.4968
 2674SOL    HW2 9791   6.124   3.635   1.409  0.8447  0.1967  0.2927
 2675SOL     OW 9792   3.268   2.758   3.819  0.8864 -0.4863  0.7146
 2675SOL    HW1 9793   3.286   2.699   3.745 -0.5488  1.2581 -1.1379
 2675SOL    HW2 9794   3.335   2.825   3.813  0.1741  0.2138  0.3267
 2676SOL     OW 9795   1.331   5.154   2.013  0.3206 -0.2097  0.3215
 2676SOL    HW1 9796   1.391   5.143   1.939  0.8930  1.2881  0.5405
 2676SOL    HW2 9797   1.335   5.247   2.034 -0.3594 -0.4886  1.8045
 2677SOL     OW 9798   5.083   3.586   7.498  0.4738 -0.3948 -0.0008
 2677SOL    HW1 9799   5.025   3.648   7.455 -0.6717 -1.3100  0.1739
 2677SOL    HW2 9800   5.157   3.575   7.437  0.4078  0.6674 -0.2894
 2678SOL     OW 9801   0.027   9.140   4.546 -0.2922 -0.0072  0.1752
 2678SOL    HW1 9802   0.019   9.198   4.622 -0.9314  2.0391 -1.3483
 2678SOL    HW2 9803  -0.062   9.131   4.512  0.2387  1.2969 -1.7799
 2679SOL     OW 9804   2.212   6.453   2.553 -0.0173 -0.3909 -0.5704
 2679SOL    HW1 9805   2.266   6.432   2.630  0.1198  0.0392 -0.5493
 2679SOL    HW2 9806   2.189   6.367   2.516  0.9017 -0.5778 -0.7320
 2680SOL     OW 9807   9.588   0.782   9.094  0.1243  0.4365 -0.6648
 2680SOL    HW1 9808   9.569   0.694   9.128  2.2171  0.5938  1.0963
 2680SOL    HW2 9809   9.601   0.769   9.000 -1.1609 -0.8329 -0.7036
 2681SOL     OW 9810   8.091   5.554   5.481  0.0090  0.5724 -0.1580
 2681SOL    HW1 9811   8.117   5.626   5.538 -1.3895 -0.2219  1.5796
 2681SOL    HW2 9812   8.174   5.512   5.457  0.6611  0.2856  2.2491
 2682SOL     OW 9813   1.387   2.520   0.345  0.2994 -0.2668 -0.3711
 2682SOL    HW1 9814   1.306   2.501   0.392  0.5781 -1.8433 -0.4563
 2682SOL    HW2 9815   1.453   2.529   0.413  0.1200  0.6947 -0.3176
 2683SOL     OW 9816   6.005   2.471   1.742 -0.4279 -0.3955 -0.2570
 2683SOL    HW1 9817   5.991   2.380   1.714 -0.3398 -0.1024 -1.2994
 2683SOL    HW2 9818   5.960   2.523   1.676  0.0262  0.3453  0.0081
 2684SOL     OW 9819   9.755   4.352   8.447  0.1501  0.0982  0.1017
 2684SOL    HW1 9820   9.667   4.331   8.416 -0.8973  2.9423  0.8880
 2684SOL    HW2 9821   9.781   4.428   8.395  2.0894 -0.5686  0.0280
 2685SOL     OW 9822   7.727   9.454   0.148  0.0908  0.5046 -0.1891
 2685SOL    HW1 9823   7.775   9.510   0.087  1.9126  0.2657  0.9607
 2685SOL    HW2 9824   7.709   9.374   0.098  0.7891  0.6580 -0.6943
 2686SOL     OW 9825   9.066   9.042   8.005  0.1872  0.0322  0.3160
 2686SOL    HW1 9826   9.080   9.137   8.006 -0.0484  0.1051 -0.8999
 2686SOL    HW2 9827   9.058   9.017   8.097 -1.7710  1.5029  0.6083
 2687SOL     OW 9828   0.642   5.652   9.231  0.4498 -0.4627  0.2811
 2687SOL    HW1 9829   0.616   5.682   9.318 -0.7382  0.4771 -0.3645
 2687SOL    HW2 9830   0.598   5.712   9.171  2.9845  0.3185 -0.9640
 2688SOL     OW 9831   6.680   5.000   0.575 -0.2965  0.1942 -0.7045
 2688SOL    HW1 9832   6.754   4.949   0.607 -0.3054 -0.0080 -0.9896
 2688SOL    HW2 9833   6.605   4.941   0.584 -0.5324  0.6110  0.1447
 2689SOL     OW 9834   8.232   2.081   0.802  0.4095 -0.4029  0.2727
 2689SOL    HW1 9835   8.257   1.995   0.767 -1.4769  0.4996 -3.9447
 2689SOL    HW2 9836   8.150   2.065   0.849 -0.1848 -0.9010 -0.8940
 2690SOL     OW 9837   5.171   3.923   0.816  0.5314 -0.2570  0.1456
 2690SOL    HW1 9838   5.149   3.898   0.726  0.3714  0.8350 -0.1314
 2690SOL    HW2 9839   5.087   3.946   0.856  0.9516  3.9920 -0.9375
 2691SOL     OW 9840   3.934   9.761   2.672  0.9811 -0.4525 -0.1264
 2691SOL    HW1 9841   3.920   9.666   2.674  2.0329 -0.7010 -1.9914
 2691SOL    HW2 9842   3.846   9.797   2.664  0.6618 -1.4448 -1.7522
 2692SOL     OW 9843   5.997   4.450   8.252  0.0147 -0.5261 -0.2523
 2692SOL    HW1 9844   6.078   4.481   8.212 -0.0224 -1.8411 -1.4204
 2692SOL    HW2 9845   6.015   4.447   8.346  0.2106  2.3644 -0.1086
 2693SOL     OW 9846   2.528   2.760   6.950 -0.1750  0.0391 -0.2539
 2693SOL    HW1 9847   2.502   2.668   6.959 -0.0451  0.0755  0.6525
 2693SOL    HW2 9848   2.611   2.766   6.998  0.0819  0.5235 -0.7454
 2694SOL     OW 9849   3.422   1.852   0.324 -0.1064 -0.5163  0.2086
 2694SOL    HW1 9850   3.385   1.790   0.261 -0.7910 -0.9106  0.9712
 2694SOL    HW2 9851   3.463   1.796   0.390  0.4618 -0.1158  0.1925
 2695SOL     OW 9852   4.092   9.754   5.163 -0.0516  0.4526  0.1318
 2695SOL    HW1 9853   4.003   9.762   5.129 -0.6035 -2.0467  0.7758
 2695SOL    HW2 9854   4.122   9.669   5.131  0.9174 -0.1559  2.4357
 2696SOL     OW 9855   9.427   1.678   2.002  0.0135  0.9564 -0.1853
 2696SOL    HW1 9856   9.440   1.600   2.056  1.0013  1.0471 -0.2647
 2696SOL    HW2 9857   9.516   1.705   1.978 -0.3712  1.4510 -1.0959
 2697SOL     OW 9858   4.426   6.991   3.183 -0.0016  0.0589  0.6245
 2697SOL    HW1 9859   4.406   6.899   3.169 -0.9229  0.3281  0.1133
 2697SOL    HW2 9860   4.506   7.006   3.133 -0.6256 -0.1403 -0.4718
 2698SOL     OW 9861   9.356   2.898   0.680 -0.4754 -0.2888  0.3646
 2698SOL    HW1 9862   9.414   2.899   0.605 -0.5133  0.4437  0.3409
 2698SOL    HW2 9863   9.374   2.980   0.727 -2.0886  0.3902 -0.1134
 2699SOL     OW 9864   2.141   8.107   7.449 -0.4643 -0.0852 -0.0572
 2699SOL    HW1 9865   2.120   8.097   7.356 -1.5310 -1.1036  0.2626
 2699SOL    HW2 9866   2.180   8.194   7.456 -0.0195 -0.1358 -1.5111
 2700SOL     OW 9867   6.084   6.120   5.740  0.0709 -0.2627 -0.1819
 2700SOL    HW1 9868   6.021   6.170   5.793 -0.0288  0.8289 -1.2865
 2700SOL    HW2 9869   6.070   6.029   5.765  0.1518  0.2148  1.8030
 2701SOL     OW 9870   8.109   2.444   2.575  0.4430  0.2690 -0.3754
 2701SOL    HW1 9871   8.194   2.404   2.595  0.0633 -0.0405  0.6878
 2701SOL    HW2 9872   8.045   2.380   2.605 -0.1860  1.5705  1.1996
 2702SOL     OW 9873   9.419   1.242   4.818  0.4924 -0.2722 -0.7548
 2702SOL    HW1 9874   9.412   1.283   4.732  0.7002  1.3318 -0.0438
 2702SOL    HW2 9875   9.464   1.307   4.872 -2.5746  0.2485  1.4640
 2703SOL     OW 9876   7.969   5.712   5.284  0.6169 -0.1102  0.0533
 2703SOL    HW1 9877   7.887   5.723   5.331  2.4860  2.9919  3.0796
 2703SOL    HW2 9878   8.014   5.642   5.331  0.8926  0.2857  0.3898
 2704SOL     OW 9879   4.711   7.342   1.079 -0.2313 -0.6349 -0.6876
 2704SOL    HW1 9880   4.803   7.358   1.059 -0.3004 -0.4748 -0.8787
 2704SOL    HW2 9881   4.704   7.247   1.089 -0.0439 -0.6452 -0.6655
 2705SOL     OW 9882   0.965   9.025   9.457 -0.2685  0.4786 -0.0136
 2705SOL    HW1 9883   1.012   9.090   9.510 -0.1976  2.5106 -2.3961
 2705SOL    HW2 9884   1.003   9.033   9.370 -0.8258 -2.2743 -0.5921
 2706SOL     OW 9885   0.906   8.175   3.155  0.4084  0.2005 -0.0288
 2706SOL    HW1 9886   0.858   8.102   3.193  1.8671 -2.0957 -2.2881
 2706SOL    HW2 9887   0.838   8.236   3.126 -0.8426 -0.0938  2.0537
 2707SOL     OW 9888   4.782   6.351   9.385  0.0708 -0.4439 -0.0643
 2707SOL    HW1 9889   4.693   6.352   9.422  0.4285  1.4407  0.8581
 2707SOL    HW2 9890   4.828   6.287   9.439 -0.4158 -0.5175  0.2813
 2708SOL     OW 9891   3.532   2.764   8.106  0.0303 -0.6068  0.0603
 2708SOL    HW1 9892   3.490   2.684   8.074  0.7348 -0.1503 -2.1901
 2708SOL    HW2 9893   3.477   2.792   8.180 -2.1809 -1.3962 -1.1759
 2709SOL     OW 9894   9.717   3.684   1.296  0.0776 -0.2309 -0.1385
 2709SOL    HW1 9895   9.780   3.712   1.362  0.2828 -0.3051 -0.3035
 2709SOL    HW2 9896   9.749   3.599   1.267  0.8458  0.4608 -1.4298
 2710SOL     OW 9897   6.738   0.129   5.000 -0.1189  0.3728  0.1318
 2710SOL    HW1 9898   6.703   0.084   4.923  1.0687 -0.3975  0.0195
 2710SOL    HW2 9899   6.690   0.212   5.003  0.1909  0.6736 -1.7805
 2711SOL     OW 9900   8.082   1.090   6.744 -0.0279  0.2694  0.0802
 2711SOL    HW1 9901   8.138   1.089   6.667 -0.1105 -1.7084  0.0001
 2711SOL    HW2 9902   8.140   1.064   6.816 -0.1829  1.1137  0.5178
 2712SOL     OW 9903   8.496   4.164   3.088 -0.0104  0.0461  0.5467
 2712SOL    HW1 9904   8.480   4.080   3.130 -1.3834  0.3225  0.6010
 2712SOL    HW2 9905   8.524   4.142   2.999 -0.6729 -0.4579  0.4636
 2713SOL     OW 9906   6.931   7.340   2.551  0.3063 -0.2797 -0.0658
 2713SOL    HW1 9907   7.017   7.308   2.522 -0.3812 -1.6534 -0.6717
 2713SOL    HW2 9908   6.872   7.266   2.538 -1.1175  0.8558 -0.3033
 2714SOL     OW 9909   5.478   1.508   2.169  0.2714 -0.0104  0.0021
 2714SOL    HW1 9910   5.462   1.501   2.263  1.2168  1.9407  0.3627
 2714SOL    HW2 9911   5.391   1.505   2.130 -0.1888 -0.1467  0.9915
 2715SOL     OW 9912   7.027   7.344   3.453  0.2919  0.0525 -0.4247
 2715SOL    HW1 9913   6.963   7.409   3.423  0.2336  0.1853 -0.0196
 2715SOL    HW2 9914   7.111   7.378   3.423  0.3795  0.8556  0.6730
 2716SOL     OW 9915   6.874   2.807   2.703  0.4301  0.4181  0.0570
 2716SOL    HW1 9916   6.903   2.894   2.673 -0.3382 -0.0571 -2.2208
 2716SOL    HW2 9917   6.812   2.778   2.637  0.5166 -1.8150  0.8709
 2717SOL     OW 9918   5.632   9.788   7.337  0.2214  0.1132  0.2921
 2717SOL    HW1 9919   5.613   9.712   7.283 -1.2883  0.4749  0.2800
 2717SOL    HW2 9920   5.690   9.842   7.283 -1.3346  0.5090 -1.0562
 2718SOL     OW 9921   2.929   7.749   8.641 -0.0775  0.2602  0.1806
 2718SOL    HW1 9922   2.936   7.833   8.595  1.6639  0.0724  0.0037
 2718SOL    HW2 9923   2.940   7.683   8.572  0.1531 -0.0624  0.5216
 2719SOL     OW 9924   5.208   7.485   5.517  0.1230 -0.0012 -0.0081
 2719SOL    HW1 9925   5.259   7.560   5.487  1.4216 -0.8822 -0.0737
 2719SOL    HW2 9926   5.148   7.467   5.445 -1.7798  2.2894  0.8602
 2720SOL     OW 9927   8.712   6.425   6.133 -0.0533 -0.3463  0.1578
 2720SOL    HW1 9928   8.671   6.512   6.140 -0.9984 -0.6742 -0.8827
 2720SOL    HW2 9929   8.804   6.444   6.113 -0.3308  0.4330 -0.4736
 2721SOL     OW 9930   1.366   0.280   0.260  0.1236  0.6745  0.4640
 2721SOL    HW1 9931   1.403   0.201   0.301  1.3347  1.5608  1.1306
 2721SOL    HW2 9932   1.297   0.308   0.321 -0.7477 -0.2021 -0.0906
 2722SOL     OW 9933   5.007   7.332   2.205  0.4467  0.0478  0.0888
 2722SOL    HW1 9934   5.086   7.313   2.257  0.3596  0.5955  0.4301
 2722SOL    HW2 9935   4.987   7.249   2.162  1.6425  0.0901 -0.6071
 2723SOL     OW 9936   3.470   8.710   4.833  0.1324 -0.6370 -0.1928
 2723SOL    HW1 9937   3.549   8.747   4.873  0.2475 -0.7529 -0.3108
 2723SOL    HW2 9938   3.422   8.672   4.906 -0.9492  1.4232  0.2565
 2724SOL     OW 9939   7.157   8.697   7.627  0.7286  0.2489  0.2971
 2724SOL    HW1 9940   7.120   8.611   7.609  2.4764 -0.7027  0.9592
 2724SOL    HW2 9941   7.085   8.746   7.668 -0.7750 -0.3048 -1.5417
 2725SOL     OW 9942   4.514   6.094   5.623 -0.1370  0.4692 -0.1402
 2725SOL    HW1 9943   4.499   6.144   5.543 -0.9698  0.7001  0.1520
 2725SOL    HW2 9944   4.558   6.014   5.593 -0.9333  0.3031 -0.8944
 2726SOL     OW 9945   8.637   5.538   5.828  0.5123 -0.2292 -0.1583
 2726SOL    HW1 9946   8.689   5.487   5.890  0.1288  1.1572  1.3841
 2726SOL    HW2 9947   8.695   5.609   5.800 -0.8824  2.5123  3.0793
 2727SOL     OW 9948   6.469   1.667   4.895  0.4902  0.0622 -0.2872
 2727SOL    HW1 9949   6.434   1.579   4.909  1.3863 -0.4970 -1.3475
 2727SOL    HW2 9950   6.428   1.721   4.962  0.3586 -1.2830  0.7441
 2728SOL     OW 9951   5.461   3.138   9.237  0.0983 -0.2426 -0.6285
 2728SOL    HW1 9952   5.521   3.182   9.296 -0.0092  0.6279 -1.1473
 2728SOL    HW2 9953   5.446   3.201   9.166 -1.9933 -0.1173 -0.1443
 2729SOL     OW 9954   9.589   0.412   1.015  0.4114  0.0232  0.4935
 2729SOL    HW1 9955   9.659   0.477   1.005  0.5046 -0.1305  0.1662
 2729SOL    HW2 9956   9.524   0.456   1.071 -0.3773  1.1024 -1.1862
 2730SOL     OW 9957   5.467   4.091   5.910  0.9444 -0.2019  0.0460
 2730SOL    HW1 9958   5.449   4.028   5.840 -0.3948 -1.8645  1.7670
 2730SOL    HW2 9959   5.459   4.177   5.868  4.0126 -1.0425 -2.6738
 2731SOL     OW 9960   7.485   3.617   3.266 -0.0959  0.1597  0.2780
 2731SOL    HW1 9961   7.553   3.681   3.285 -0.3167  0.5084 -0.1073
 2731SOL    HW2 9962   7.456   3.637   3.177 -1.1535  0.4315  0.6640
 2732SOL     OW 9963   6.019   8.412   3.962  0.2442 -0.1260 -0.1305
 2732SOL    HW1 9964   5.974   8.496   3.954 -0.0979 -0.3749 -0.8870
 2732SOL    HW2 9965   6.040   8.386   3.872  0.5233 -0.7579  0.1054
 2733SOL     OW 9966   7.777   9.730   7.224  0.1006  0.3925  0.1066
 2733SOL    HW1 9967   7.851   9.747   7.165  0.3913  3.7175  1.2431
 2733SOL    HW2 9968   7.818   9.709   7.308 -0.3252 -1.9467 -0.2130
 2734SOL     OW 9969   6.093   6.961   5.519  0.2547  0.1895  0.0251
 2734SOL    HW1 9970   6.136   6.876   5.508  1.1158  0.2407  2.4753
 2734SOL    HW2 9971   6.082   6.994   5.430 -0.3300 -2.5783 -1.0225
 2735SOL     OW 9972   4.773   1.444   3.304  0.5965 -0.1908 -0.0166
 2735SOL    HW1 9973   4.835   1.396   3.249 -0.2902  1.7191 -2.9400
 2735SOL    HW2 9974   4.815   1.529   3.319  0.0092 -0.0136  0.6851
 2736SOL     OW 9975   1.390   0.643   2.766 -0.0521  0.2060  0.0340
 2736SOL    HW1 9976   1.481   0.657   2.740 -0.5480  2.1652 -0.8101
 2736SOL    HW2 9977   1.349   0.729   2.760 -2.0637 -0.6772  0.0615
 2737SOL     OW 9978   9.415   0.946   7.303  0.2383  0.3281  0.4605
 2737SOL    HW1 9979   9.453   1.034   7.302 -1.2076  0.9908  0.6073
 2737SOL    HW2 9980   9.475   0.893   7.251  1.1691  1.3853  0.4119
 2738SOL     OW 9981   2.331   4.347   0.478  0.0029  0.1063 -0.0947
 2738SOL    HW1 9982   2.279   4.427   0.470 -2.6367 -1.5545 -0.4070
 2738SOL    HW2 9983   2.325   4.305   0.392 -0.4181 -1.4301  0.6505
 2739SOL     OW 9984   9.595   2.929   5.369 -0.2879  0.7140  0.7615
 2739SOL    HW1 9985   9.539   2.859   5.335 -0.0666  1.3238 -0.9240
 2739SOL    HW2 9986   9.588   2.920   5.465 -2.1543 -0.0837  0.5938
 2740SOL     OW 9987   8.957   1.142   3.848 -0.4728  0.3922 -0.2553
 2740SOL    HW1 9988   8.938   1.128   3.755 -2.1983  0.2374  0.0937
 2740SOL    HW2 9989   9.053   1.144   3.853 -0.3541  0.3708 -2.0240
 2741SOL     OW 9990   0.278   1.197   0.480  0.2747 -0.0227  0.6484
 2741SOL    HW1 9991   0.358   1.223   0.527  2.8287 -2.8781 -1.6877
 2741SOL    HW2 9992   0.298   1.215   0.388 -3.0354  1.7810  0.1262
 2742SOL     OW 9993   3.728   0.723   2.507 -0.3119  0.0119  0.0589
 2742SOL    HW1 9994   3.694   0.804   2.469  0.6044  1.3294  1.9170
 2742SOL    HW2 9995   3.683   0.714   2.591 -1.0582 -1.9276 -0.4935
 2743SOL     OW 9996   6.345   0.773   5.612 -0.0269  0.1791 -0.3919
 2743SOL    HW1 9997   6.272   0.816   5.567 -1.1770 -0.7809  0.4884
 2743SOL    HW2 9998   6.315   0.762   5.702  0.9249 -0.8527 -0.1742
 2744SOL     OW 9999   2.165   5.806   8.151 -0.4542 -0.8579  0.0022
 2744SOL    HW110000   2.233   5.790   8.217 -0.2872 -1.4764 -0.3111
 2744SOL    HW210001   2.200   5.877   8.097  0.4865 -1.9797 -0.8893
 2745SOL     OW10002   3.959   5.167   3.820  0.1932  0.0014  0.0683
 2745SOL    HW110003   3.878   5.174   3.871  0.7049  1.7091  0.7383
 2745SOL    HW210004   4.027   5.156   3.886  0.7574  1.2006 -0.2828
 2746SOL     OW10005   5.670   7.633   0.132 -0.2328 -0.0242 -1.0478
 2746SOL    HW110006   5.649   7.567   0.198 -0.3809  1.2894  0.2551
 2746SOL    HW210007   5.649   7.591   0.049  1.9139 -2.4901 -0.4674
 2747SOL     OW10008   7.855   1.921   9.698 -0.1504  0.2964 -0.0883
 2747SOL    HW110009   7.932   1.889   9.745 -0.2123 -0.9406 -0.7924
 2747SOL    HW210010   7.791   1.850   9.706  0.0953 -0.3120 -2.6517
 2748SOL     OW10011   8.853   2.811   6.165 -0.0905 -0.2398 -0.0022
 2748SOL    HW110012   8.872   2.899   6.198  1.0465 -0.2873 -0.4921
 2748SOL    HW210013   8.760   2.813   6.144 -1.1775 -0.4988  4.0499
 2749SOL     OW10014   5.529   8.629   1.124 -0.1368 -0.4238  0.3868
 2749SOL    HW110015   5.620   8.632   1.155  0.7719 -0.7777 -1.9378
 2749SOL    HW210016   5.518   8.538   1.094 -0.9310 -0.1461 -0.1889
 2750SOL     OW10017   0.503   1.607   8.367  0.2074  0.8243 -0.3014
 2750SOL    HW110018   0.583   1.621   8.418  0.3362 -0.9561  0.0331
 2750SOL    HW210019   0.533   1.591   8.278  0.0027  3.5081 -0.9315
 2751SOL     OW10020   0.616   3.058   3.582  0.3879  0.3425 -0.3629
 2751SOL    HW110021   0.550   3.069   3.650  0.2411  1.2889 -0.6507
 2751SOL    HW210022   0.692   3.021   3.629 -0.1320 -0.2111  0.0669
 2752SOL     OW10023   5.231   1.536   9.713  0.4295  0.5502  0.1915
 2752SOL    HW110024   5.256   1.449   9.681 -0.5435 -0.0271  0.9282
 2752SOL    HW210025   5.294   1.595   9.673  1.6490 -0.5952  0.3485
 2753SOL     OW10026   5.170   8.922   9.136  0.0656  0.0264 -0.0161
 2753SOL    HW110027   5.256   8.882   9.124  0.0526 -0.0658  0.1871
 2753SOL    HW210028   5.142   8.894   9.224  1.0106  2.2157  1.0868
 2754SOL     OW10029   9.115   3.280   8.749 -0.0954 -0.0606  0.4718
 2754SOL    HW110030   9.089   3.188   8.756  1.1552 -0.7659 -2.6303
 2754SOL    HW210031   9.117   3.297   8.655 -0.7974  3.3469  0.9365
 2755SOL     OW10032   1.454   5.696   9.248  0.1805  0.2787 -0.4312
 2755SOL    HW110033   1.420   5.626   9.192  0.9556  1.0974 -2.0051
 2755SOL    HW210034   1.457   5.657   9.335  1.2885 -1.9359 -1.3567
 2756SOL     OW10035   5.768   5.370   6.121 -0.4594  0.2725  0.5996
 2756SOL    HW110036   5.855   5.336   6.139 -0.9384 -0.2989  2.0356
 2756SOL    HW210037   5.771   5.461   6.152 -0.3725  0.2385  0.6935
 2757SOL     OW10038   4.770   9.374   0.786 -0.4093 -0.3276 -0.9365
 2757SOL    HW110039   4.797   9.360   0.695 -0.2409  0.4302 -1.0113
 2757SOL    HW210040   4.699   9.439   0.780  1.8390  2.3965 -0.3287
 2758SOL     OW10041   5.461   4.620   6.610 -0.0438 -0.4246 -0.1806
 2758SOL    HW110042   5.543   4.591   6.649 -0.1065 -2.3554 -1.3439
 2758SOL    HW210043   5.470   4.600   6.517 -0.5177  2.5853 -0.9677
 2759SOL     OW10044   4.208   7.018   8.769 -0.1995  0.5442  0.0357
 2759SOL    HW110045   4.149   6.981   8.835  1.1409 -0.6815  0.5971
 2759SOL    HW210046   4.225   6.946   8.708 -0.4688  1.3219 -0.9897
 2760SOL     OW10047   8.943   9.086   2.785 -0.1153  0.0546  0.0997
 2760SOL    HW110048   9.027   9.068   2.826  0.1695  1.2846  0.0892
 2760SOL    HW210049   8.895   9.138   2.849 -0.8707 -0.5931  0.0895
 2761SOL     OW10050   8.654   6.937   6.646  0.2601 -0.0171  0.1297
 2761SOL    HW110051   8.601   6.998   6.698 -0.6308 -0.4974 -0.1813
 2761SOL    HW210052   8.628   6.955   6.555  0.2786 -0.5797  0.0082
 2762SOL     OW10053   3.753   2.855   0.931 -0.5614 -0.0204 -0.2349
 2762SOL    HW110054   3.692   2.807   0.987 -0.2235 -0.6775 -0.4126
 2762SOL    HW210055   3.770   2.937   0.978 -0.5284 -0.4220  0.4674
 2763SOL     OW10056   5.104   2.109   0.127 -0.2350  0.4060 -0.0185
 2763SOL    HW110057   5.166   2.172   0.089  0.6021  0.3628  1.2225
 2763SOL    HW210058   5.049   2.162   0.185  1.4007 -0.1545  2.1577
 2764SOL     OW10059   7.099   3.247   2.113 -0.4663  0.3475  0.2332
 2764SOL    HW110060   7.110   3.342   2.104  2.3681  0.0468 -0.2614
 2764SOL    HW210061   7.071   3.217   2.026 -1.3288  0.6801  0.3806
 2765SOL     OW10062   6.285   4.874   0.131  0.3586  0.1423 -0.1208
 2765SOL    HW110063   6.375   4.906   0.127  0.0035  1.2488  0.2940
 2765SOL    HW210064   6.266   4.847   0.041  0.9302  0.4221 -0.3353
 2766SOL     OW10065   9.236   8.072   6.314  0.4688 -0.6534 -0.0030
 2766SOL    HW110066   9.282   8.012   6.372  0.7528 -0.5245 -0.0932
 2766SOL    HW210067   9.305   8.111   6.259  0.1794 -0.9712 -0.6044
 2767SOL     OW10068   4.945   7.956   3.512  0.6203  0.1405  0.6721
 2767SOL    HW110069   4.965   7.965   3.605  0.5347  0.0156  0.7026
 2767SOL    HW210070   5.019   7.907   3.476  0.9036  0.6262  0.5770
 2768SOL     OW10071   7.322   1.663   7.243 -0.1031 -0.6512 -0.5646
 2768SOL    HW110072   7.253   1.605   7.211  1.2934 -2.1992 -0.9149
 2768SOL    HW210073   7.345   1.626   7.329  0.0835  0.0312 -0.3185
 2769SOL     OW10074   1.340   9.153   9.246 -0.6261 -0.4710 -0.5959
 2769SOL    HW110075   1.427   9.139   9.208 -0.0182  1.6695 -0.1206
 2769SOL    HW210076   1.335   9.090   9.318  0.5872 -0.5613 -0.5717
 2770SOL     OW10077   8.746   2.850   5.084 -0.2326 -0.2243 -0.2441
 2770SOL    HW110078   8.805   2.831   5.157  2.2894  3.3863 -1.0434
 2770SOL    HW210079   8.668   2.887   5.124 -0.3455 -1.4106  0.6869
 2771SOL     OW10080   7.118   6.554   6.659  0.0159 -0.2336  0.3253
 2771SOL    HW110081   7.156   6.630   6.703 -1.1975  0.5115  0.1234
 2771SOL    HW210082   7.051   6.522   6.720 -0.2087 -0.4845 -0.0450
 2772SOL     OW10083   7.675   6.196   2.491 -0.4152 -0.7358  0.3003
 2772SOL    HW110084   7.709   6.280   2.520 -0.9337  0.2609 -1.7794
 2772SOL    HW210085   7.642   6.212   2.402 -0.6213 -3.1046 -0.1373
 2773SOL     OW10086   9.617   2.391   9.605  0.2113  0.1167 -0.3587
 2773SOL    HW110087   9.668   2.428   9.532 -1.1236  2.4107 -0.2275
 2773SOL    HW210088   9.531   2.373   9.568  0.0802 -0.4867  0.2227
 2774SOL     OW10089   6.658   8.604   8.997 -0.0444 -0.4424  0.3170
 2774SOL    HW110090   6.617   8.575   8.916  1.2662 -0.7061 -0.2771
 2774SOL    HW210091   6.680   8.523   9.043  0.4003 -0.3204  0.3224
 2775SOL     OW10092   7.567   9.061   8.171 -0.0790 -0.3915  0.4711
 2775SOL    HW110093   7.612   9.026   8.094 -1.8909 -1.6708 -0.0769
 2775SOL    HW210094   7.478   9.079   8.141 -0.5601  0.0044  2.0392
 2776SOL     OW10095   1.948   4.532   1.040 -0.1105 -0.2150 -0.0525
 2776SOL    HW110096   1.877   4.539   1.104  0.7756  1.8431  0.8015
 2776SOL    HW210097   1.980   4.443   1.048 -1.1955 -0.5283  1.0720
 2777SOL     OW10098   6.087   1.045   1.193  0.1209  0.2190 -0.2336
 2777SOL    HW110099   6.092   0.993   1.112 -0.0705 -3.0215  1.6275
 2777SOL    HW210100   5.993   1.058   1.207  0.1354  0.4005 -0.3013
 2778SOL     OW10101   8.234   1.401   0.670 -0.1345 -0.7332 -0.5840
 2778SOL    HW110102   8.161   1.423   0.612 -2.1801 -0.3962  1.9555
 2778SOL    HW210103   8.281   1.483   0.682 -0.8687 -0.3683 -0.2110
 2779SOL     OW10104   3.134   1.341   3.039 -0.3436  0.1102  0.1985
 2779SOL    HW110105   3.187   1.378   3.110 -0.6599 -1.0642  1.0811
 2779SOL    HW210106   3.071   1.285   3.084 -1.5805  0.5671 -0.9197
 2780SOL     OW10107   8.415   0.235   7.117 -0.9449 -0.4631  0.3349
 2780SOL    HW110108   8.466   0.207   7.193 -0.2604 -2.1703 -0.6931
 2780SOL    HW210109   8.478   0.282   7.062 -1.2679  0.1619  0.4916
 2781SOL     OW10110   1.416   0.435   1.849  0.2544  0.5222 -0.7010
 2781SOL    HW110111   1.329   0.468   1.828 -0.2446  0.7303  1.5401
 2781SOL    HW210112   1.446   0.393   1.768 -1.1320  2.0856 -2.0862
 2782SOL     OW10113   3.181   0.613   9.194  0.2848 -0.1905  0.2932
 2782SOL    HW110114   3.117   0.645   9.258  0.1213 -0.8285  0.4506
 2782SOL    HW210115   3.189   0.520   9.213  2.3423  0.1177  1.2532
 2783SOL     OW10116   3.336   1.924   7.507  0.3561  0.2655  0.7221
 2783SOL    HW110117   3.294   1.984   7.446  1.4507  1.7578  1.3630
 2783SOL    HW210118   3.316   1.959   7.594 -0.4027 -1.2932  1.2162
 2784SOL     OW10119   3.490   0.399   8.584  0.1683  0.0100  0.4843
 2784SOL    HW110120   3.493   0.305   8.604  0.4962 -0.4187 -1.3802
 2784SOL    HW210121   3.550   0.409   8.510 -1.8111  1.2253 -1.0416
 2785SOL     OW10122   3.872   4.343   5.073 -0.1661  0.3640 -0.4504
 2785SOL    HW110123   3.891   4.296   5.154 -2.4463 -1.3919 -0.8297
 2785SOL    HW210124   3.915   4.428   5.084  0.7194 -0.3196  1.9978
 2786SOL     OW10125   3.531   3.749   2.429  0.3116 -0.4519  0.2380
 2786SOL    HW110126   3.512   3.658   2.408 -0.7494  0.3831 -3.0408
 2786SOL    HW210127   3.618   3.765   2.392 -0.0565  0.1647 -0.3905
 2787SOL     OW10128   3.457   9.802   9.385 -0.3222  0.0122 -0.1901
 2787SOL    HW110129   3.410   9.879   9.417 -0.6568 -1.1647  2.4653
 2787SOL    HW210130   3.535   9.837   9.342 -0.0519  1.8472  1.6366
 2788SOL     OW10131   8.483   6.558   2.145  0.1993  0.1939  0.1517
 2788SOL    HW110132   8.456   6.599   2.063 -2.4424 -1.2475  0.2183
 2788SOL    HW210133   8.546   6.491   2.118 -0.3904 -0.0430 -0.6504
 2789SOL     OW10134   4.556   9.746   4.410  0.5782  0.5547  0.5687
 2789SOL    HW110135   4.529   9.747   4.502 -0.2396  0.6133  0.3392
 2789SOL    HW210136   4.492   9.689   4.367  1.7399 -0.5517  0.2560
 2790SOL     OW10137   4.909   9.419   8.722 -0.9315  0.1963  0.1938
 2790SOL    HW110138   4.939   9.328   8.726 -0.8230  0.0720 -2.3000
 2790SOL    HW210139   4.891   9.435   8.630 -2.5923  2.2162  0.7915
 2791SOL     OW10140   6.929   1.115   5.611  0.1665 -0.2832 -0.2419
 2791SOL    HW110141   6.987   1.058   5.662 -0.4062 -0.9411 -0.3041
 2791SOL    HW210142   6.982   1.142   5.536  0.5298 -0.5371 -0.0786
 2792SOL     OW10143   9.100   2.938   5.624 -0.3610 -0.2836  0.3393
 2792SOL    HW110144   9.094   2.843   5.619 -0.8466 -0.2378 -0.0425
 2792SOL    HW210145   9.028   2.970   5.570 -0.0888  0.3031  0.3080
 2793SOL     OW10146   1.800   6.850   8.246 -0.2638 -0.8035 -0.3305
 2793SOL    HW110147   1.840   6.935   8.264 -1.0564 -0.5310  0.2154
 2793SOL    HW210148   1.846   6.789   8.303 -1.2953 -0.3118  1.0823
 2794SOL     OW10149   6.073   8.813   9.008  0.3042 -1.0615  0.3552
 2794SOL    HW110150   6.148   8.755   9.018  1.1093 -0.0133  0.5552
 2794SOL    HW210151   6.005   8.758   8.969  2.2463 -1.2356 -3.2002
 2795SOL     OW10152   7.308   8.914   3.379  0.0088  0.0991 -0.0615
 2795SOL    HW110153   7.289   8.928   3.472 -0.2613  1.0835 -0.2465
 2795SOL    HW210154   7.304   8.819   3.367  1.6210 -0.1850  1.2559
 2796SOL     OW10155   1.140   3.466   6.713 -0.2592 -0.3364  0.0891
 2796SOL    HW110156   1.094   3.547   6.690 -0.1093 -0.1635  0.3935
 2796SOL    HW210157   1.073   3.398   6.708 -0.4009 -0.1848 -0.1017
 2797SOL     OW10158   4.217   9.524   2.348 -0.4544 -0.1544 -0.2742
 2797SOL    HW110159   4.205   9.601   2.403  3.4958  0.2237  0.3407
 2797SOL    HW210160   4.182   9.549   2.263  0.6463  2.3324 -0.0741
 2798SOL     OW10161   5.545   9.548   7.256  0.4769 -0.1131  0.2489
 2798SOL    HW110162   5.467   9.568   7.204  1.0840 -0.8532 -0.9976
 2798SOL    HW210163   5.514   9.550   7.347 -0.5229  1.5869 -0.0813
 2799SOL     OW10164   8.257   7.290   4.133  0.1289  0.0790  0.4286
 2799SOL    HW110165   8.279   7.332   4.216  0.9524  0.7198 -0.0887
 2799SOL    HW210166   8.339   7.294   4.082 -0.1277 -1.0227 -0.1169
 2800SOL     OW10167   4.052   6.796   3.679  0.0045  0.3442 -0.1384
 2800SOL    HW110168   4.042   6.875   3.626  0.1248  0.9331  0.7033
 2800SOL    HW210169   3.992   6.809   3.752  0.3806 -0.1271  0.2581
 2801SOL     OW10170   1.700   3.087   7.665 -0.4000 -0.1119  0.2425
 2801SOL    HW110171   1.650   3.150   7.613  1.3051 -1.0956 -2.8229
 2801SOL    HW210172   1.637   3.018   7.685 -0.9564 -0.1100 -1.3151
 2802SOL     OW10173   4.060   2.798   2.259  0.6162 -0.1870 -0.1192
 2802SOL    HW110174   4.106   2.828   2.337  0.1584  0.8107 -0.2213
 2802SOL    HW210175   4.007   2.873   2.232  0.5139 -0.6283 -1.1915
 2803SOL     OW10176   0.892   8.193   7.077 -0.6313  0.4123 -0.0494
 2803SOL    HW110177   0.882   8.263   7.014 -1.8112 -1.1420 -1.6864
 2803SOL    HW210178   0.811   8.194   7.129 -0.5787  0.3766  0.0344
 2804SOL     OW10179   7.934   2.037   6.310  0.3862 -0.0126  0.2799
 2804SOL    HW110180   7.989   2.115   6.312  3.0979 -1.7668 -0.6410
 2804SOL    HW210181   7.954   1.991   6.391  0.9480 -1.0614 -0.4244
 2805SOL     OW10182   1.682   3.640   0.976 -0.0647 -0.2953 -0.0606
 2805SOL    HW110183   1.675   3.722   1.024 -0.8381 -0.0298 -0.6071
 2805SOL    HW210184   1.769   3.643   0.934  0.0635  0.0640  0.2325
 2806SOL     OW10185   7.609   4.202   5.042 -0.2487  0.4002  0.0072
 2806SOL    HW110186   7.645   4.133   5.098  0.8909  1.2660  0.3609
 2806SOL    HW210187   7.529   4.163   5.006  0.2864 -1.0577  0.3066
 2807SOL     OW10188   1.667   2.245   7.998 -0.4238 -1.2500  0.1265
 2807SOL    HW110189   1.701   2.262   8.086 -2.3479  0.5105  0.5913
 2807SOL    HW210190   1.590   2.191   8.011 -2.3970  1.2908 -0.1057
 2808SOL     OW10191   0.437   6.176   2.903 -0.1073  0.0972 -0.1716
 2808SOL    HW110192   0.390   6.173   2.820 -0.6385  1.0069  0.0894
 2808SOL    HW210193   0.398   6.249   2.951  1.3511  0.6804  0.1794
 2809SOL     OW10194   2.126   5.484   9.177 -0.2679 -0.0315 -0.5341
 2809SOL    HW110195   2.144   5.397   9.142 -0.4554  0.3895 -1.7008
 2809SOL    HW210196   2.149   5.477   9.270  1.4314 -0.8454 -0.9609
 2810SOL     OW10197   1.248   6.357   5.746 -0.6870  0.3542 -0.0213
 2810SOL    HW110198   1.234   6.270   5.708  0.5689 -0.6792  1.7232
 2810SOL    HW210199   1.343   6.365   5.752 -0.8124  1.0676  1.4634
 2811SOL     OW10200   7.016   0.745   9.732 -0.4641  0.3796 -0.4567
 2811SOL    HW110201   6.978   0.733   9.819  1.4871 -1.4751  0.2504
 2811SOL    HW210202   7.026   0.839   9.723 -3.3501  0.8209  0.0651
 2812SOL     OW10203   0.256   8.406   1.753 -0.1490 -0.2832 -0.1985
 2812SOL    HW110204   0.342   8.448   1.747  0.9923 -2.7158 -2.8723
 2812SOL    HW210205   0.207   8.463   1.812  3.0162  1.6253  0.8832
 2813SOL     OW10206   2.965   7.086   3.149  0.2847 -0.2305 -0.3389
 2813SOL    HW110207   2.991   7.124   3.066 -1.9313  1.3066 -0.4015
 2813SOL    HW210208   2.985   6.993   3.140 -0.2639 -0.1719 -2.7463
 2814SOL     OW10209   3.934   5.048   6.493  0.2900  0.2209  0.6463
 2814SOL    HW110210   3.986   4.968   6.497  0.4640  0.3712  1.7329
 2814SOL    HW210211   3.963   5.099   6.569 -0.6287  0.8108  0.6159
 2815SOL     OW10212   6.864   6.959   5.134 -0.2522 -0.0171  0.4971
 2815SOL    HW110213   6.860   6.917   5.220  1.2819  0.4005  0.8095
 2815SOL    HW210214   6.777   6.947   5.097 -0.4481 -1.7018  1.3995
 2816SOL     OW10215   4.875   8.895   0.839  0.4521  0.1877 -0.2266
 2816SOL    HW110216   4.910   8.903   0.927 -1.0709 -2.8029  0.8033
 2816SOL    HW210217   4.933   8.832   0.796  0.5799  0.8413 -1.0488
 2817SOL     OW10218   4.419   5.084   9.109  0.6247  0.0154 -0.5987
 2817SOL    HW110219   4.336   5.123   9.138  0.3863 -0.5881 -0.4364
 2817SOL    HW210220   4.401   4.990   9.109  1.4904 -0.1520 -0.0173
 2818SOL     OW10221   4.725   4.793   8.545  0.0143 -0.2496  0.1175
 2818SOL    HW110222   4.675   4.804   8.464 -0.8586  0.6185  0.7411
 2818SOL    HW210223   4.816   4.808   8.520 -0.1423 -0.8100 -0.8459
 2819SOL     OW10224   6.649   1.799   7.134 -0.0767 -0.0592 -0.0933
 2819SOL    HW110225   6.728   1.790   7.081 -0.4409  0.4886 -0.7314
 2819SOL    HW210226   6.578   1.770   7.077 -0.5211  0.9243 -0.0559
 2820SOL     OW10227   2.321   4.646   1.344  0.4416  0.4445  0.0454
 2820SOL    HW110228   2.357   4.682   1.424  0.7160  0.1446  0.0624
 2820SOL    HW210229   2.325   4.551   1.356 -0.3259  0.4034  0.0313
 2821SOL     OW10230   6.087   3.155   9.226  0.2692  0.0301 -0.4694
 2821SOL    HW110231   6.157   3.140   9.290 -0.0871  0.2077 -0.0298
 2821SOL    HW210232   6.118   3.227   9.172 -0.8468  2.2278  1.6609
 2822SOL     OW10233   3.845   8.381   0.112 -0.0775 -0.4154  0.5060
 2822SOL    HW110234   3.912   8.423   0.057 -0.4117  1.6415  1.5560
 2822SOL    HW210235   3.815   8.306   0.061 -1.0485  1.8923 -2.6031
 2823SOL     OW10236   9.199   9.148   8.846 -0.7342  0.0554 -0.0085
 2823SOL    HW110237   9.223   9.080   8.784  0.4737 -0.8577  1.4076
 2823SOL    HW210238   9.201   9.229   8.795  0.8973 -0.5844 -1.0224
 2824SOL     OW10239   5.326   8.260   6.700 -0.1749  0.3589 -0.3240
 2824SOL    HW110240   5.287   8.344   6.724  0.2602 -0.1046  2.3466
 2824SOL    HW210241   5.264   8.195   6.734 -0.1202 -0.4125 -1.6493
 2825SOL     OW10242   2.490   6.882   3.824 -0.1423 -0.6892  0.1099
 2825SOL    HW110243   2.547   6.953   3.792 -0.2552 -1.0235 -0.8828
 2825SOL    HW210244   2.423   6.927   3.875  0.3364 -0.1782  0.3092
 2826SOL     OW10245   7.550   0.913   9.085  0.1423  0.2425 -0.1661
 2826SOL    HW110246   7.641   0.934   9.104  1.1060 -3.1320 -0.3137
 2826SOL    HW210247   7.509   0.902   9.171  0.0804  0.9261 -0.1034
 2827SOL     OW10248   5.799   4.918   5.202 -0.4473 -0.1301 -0.2711
 2827SOL    HW110249   5.839   4.845   5.250 -2.1846 -0.8956  0.0812
 2827SOL    HW210250   5.751   4.966   5.269 -0.8761  0.2327 -0.8383
 2828SOL     OW10251   6.619   1.990   7.998 -0.0318 -0.2680  0.6972
 2828SOL    HW110252   6.573   2.017   7.919  1.1561 -1.5583 -0.4895
 2828SOL    HW210253   6.562   2.017   8.070 -0.5724  2.0737 -0.5133
 2829SOL     OW10254   9.660   3.629   5.846  0.1471  0.2426 -0.0801
 2829SOL    HW110255   9.618   3.544   5.858 -0.2699 -0.0206 -2.7382
 2829SOL    HW210256   9.707   3.621   5.763  1.5158  2.0935  0.4439
 2830SOL     OW10257   1.631   3.896   9.333  0.4104  0.1583 -0.6114
 2830SOL    HW110258   1.596   3.883   9.244  1.7887 -3.0196 -0.8334
 2830SOL    HW210259   1.697   3.964   9.323  1.1204 -0.7065 -2.2443
 2831SOL     OW10260   4.716   7.584   7.059 -0.0113  0.2771 -0.3821
 2831SOL    HW110261   4.764   7.635   6.993  0.1606  0.4300 -0.1401
 2831SOL    HW210262   4.660   7.648   7.103 -2.1500 -0.2524 -2.1587
 2832SOL     OW10263   6.858   3.307   0.511  0.5999 -0.0422 -0.4933
 2832SOL    HW110264   6.925   3.261   0.562  0.0746  0.5960  0.8364
 2832SOL    HW210265   6.820   3.240   0.454  0.2191 -1.1614  1.0104
 2833SOL     OW10266   0.577   6.508   0.974  0.0830  0.0215 -0.1893
 2833SOL    HW110267   0.546   6.434   0.922  1.7828 -0.9906  0.1648
 2833SOL    HW210268   0.592   6.577   0.911  0.0040 -0.4596 -0.7403
 2834SOL     OW10269   7.408   8.779   4.977 -0.1725 -0.0693 -0.5402
 2834SOL    HW110270   7.361   8.696   4.967  0.7567 -0.8768  1.3078
 2834SOL    HW210271   7.366   8.821   5.052 -1.7661  2.0087 -2.4603
 2835SOL     OW10272   4.545   3.618   2.748 -0.2545  0.1923 -0.1131
 2835SOL    HW110273   4.469   3.602   2.692  0.2900  0.0027 -0.8110
 2835SOL    HW210274   4.511   3.671   2.820 -0.6591  1.7912 -1.4179
 2836SOL     OW10275   4.187   5.355   4.562 -0.1645  0.1178 -0.1660
 2836SOL    HW110276   4.198   5.261   4.576 -0.4217  0.0888 -0.1335
 2836SOL    HW210277   4.209   5.394   4.647  0.3169  0.1191 -0.2925
 2837SOL     OW10278   2.243   3.702   2.285  0.2682 -0.0170 -0.1839
 2837SOL    HW110279   2.183   3.749   2.227  1.3117  1.3948 -0.1870
 2837SOL    HW210280   2.192   3.682   2.363 -0.2177  1.1623 -0.1857
 2838SOL     OW10281   3.263   5.850   0.189 -0.6660  0.3087  0.3579
 2838SOL    HW110282   3.217   5.896   0.259 -0.6021  0.8089  0.0751
 2838SOL    HW210283   3.222   5.764   0.186 -0.8045  0.3509  0.8728
 2839SOL     OW10284   1.125   3.648   2.030  0.4625 -0.4709  0.3519
 2839SOL    HW110285   1.192   3.646   2.099  0.0216 -1.6269  0.7586
 2839SOL    HW210286   1.053   3.595   2.064 -0.6284  0.6587 -0.1341
 2840SOL     OW10287   6.990   4.361   4.616  0.5639 -0.2761  0.0924
 2840SOL    HW110288   7.024   4.276   4.590  1.6766  0.3607 -0.6616
 2840SOL    HW210289   7.047   4.389   4.687  0.1218 -0.2197  0.4257
 2841SOL     OW10290   8.488   7.439   3.031 -0.2998 -0.4985  0.1289
 2841SOL    HW110291   8.517   7.450   2.940 -1.6713  1.1730 -0.1689
 2841SOL    HW210292   8.393   7.450   3.027 -0.4786 -1.2123  1.6778
 2842SOL     OW10293   0.667   0.146   5.269  0.5530  0.4720 -0.4769
 2842SOL    HW110294   0.644   0.234   5.299  2.8962  0.5847  1.2947
 2842SOL    HW210295   0.752   0.157   5.227  0.4787 -0.8190 -1.0002
 2843SOL     OW10296   0.050   6.338   8.253 -0.2510 -0.6274  0.3516
 2843SOL    HW110297  -0.031   6.315   8.298 -0.3066 -0.5802  0.2766
 2843SOL    HW210298   0.028   6.336   8.160 -0.5055  0.6622  0.3692
 2844SOL     OW10299   2.014   6.666   9.665 -0.5041 -0.0182  0.6782
 2844SOL    HW110300   1.985   6.594   9.720 -0.6098 -1.2204 -0.8758
 2844SOL    HW210301   2.053   6.624   9.589 -1.4645  1.5324 -0.7600
 2845SOL     OW10302   0.311   9.352   7.864 -0.0481 -0.0352  0.4061
 2845SOL    HW110303   0.268   9.336   7.780 -0.2880  0.6043  0.3981
 2845SOL    HW210304   0.239   9.372   7.924  0.2364  1.6886  0.2444
 2846SOL     OW10305   9.033   3.059   3.425  0.0686 -0.6497  0.1732
 2846SOL    HW110306   8.982   3.133   3.459  0.8363  0.3116 -0.6696
 2846SOL    HW210307   8.994   3.040   3.340  0.6588 -0.3622 -0.1711
 2847SOL     OW10308   5.875   4.293   3.147 -0.3146 -0.2249  0.0294
 2847SOL    HW110309   5.950   4.273   3.203 -0.1817 -0.5992 -0.2776
 2847SOL    HW210310   5.894   4.379   3.110 -0.9230  0.5494  1.4305
 2848SOL     OW10311   1.370   7.318   0.408  0.4121  0.5939  0.7216
 2848SOL    HW110312   1.371   7.383   0.478  1.5071 -1.5999  2.8997
 2848SOL    HW210313   1.445   7.261   0.427 -1.5394 -2.4315  0.1230
 2849SOL     OW10314   8.486   3.230   2.024 -0.0641  0.3543 -0.0645
 2849SOL    HW110315   8.544   3.286   1.972 -0.9762  1.8992  0.5202
 2849SOL    HW210316   8.398   3.251   1.994 -0.5129  0.2088  1.0860
 2850SOL     OW10317   9.775   0.268   1.397 -0.1067  0.6627 -0.0315
 2850SOL    HW110318   9.768   0.206   1.469  0.8762  0.6982  0.1137
 2850SOL    HW210319   9.777   0.354   1.439  0.6977  0.6715 -0.0751
 2851SOL     OW10320   0.772   7.303   7.063  0.4625 -0.0150  0.4249
 2851SOL    HW110321   0.857   7.305   7.107  0.6815  0.1245  0.0062
 2851SOL    HW210322   0.794   7.297   6.970  0.0368  1.2115  0.2250
 2852SOL     OW10323   1.368   9.354   8.471 -0.1292  0.1197 -0.7034
 2852SOL    HW110324   1.412   9.432   8.440  0.8003 -0.1201 -0.0463
 2852SOL    HW210325   1.324   9.381   8.552  0.3123 -0.0705 -0.3986
 2853SOL     OW10326   6.241   1.712   3.812  0.1635  0.8664  0.1538
 2853SOL    HW110327   6.290   1.753   3.883  0.0296 -1.3224  1.5917
 2853SOL    HW210328   6.166   1.672   3.854  0.2844 -0.8505 -1.1291
 2854SOL     OW10329   9.567   5.514   0.897  0.7220  0.0605  0.4323
 2854SOL    HW110330   9.651   5.547   0.866  0.4686 -1.0106 -1.6153
 2854SOL    HW210331   9.505   5.537   0.828  0.1739 -2.7413 -0.1613
 2855SOL     OW10332   1.631   6.720   3.233 -0.0920  0.4989  0.1409
 2855SOL    HW110333   1.558   6.664   3.259 -0.2055  0.5346 -0.0991
 2855SOL    HW210334   1.596   6.808   3.233  0.0446  0.5542  0.3617
 2856SOL     OW10335   1.051   5.253   3.667  0.2138  0.1331 -0.1567
 2856SOL    HW110336   0.972   5.201   3.683  0.5376  0.0515  1.2395
 2856SOL    HW210337   1.111   5.228   3.737  0.7816  1.5789 -0.1005
 2857SOL     OW10338   1.537   0.601   1.492  0.3003  0.3489 -0.8218
 2857SOL    HW110339   1.443   0.589   1.499 -0.0790  2.6918 -0.8733
 2857SOL    HW210340   1.575   0.527   1.539 -1.6333  1.1999  2.4072
 2858SOL     OW10341   9.606   5.839   5.757  0.3107  0.0786  0.3797
 2858SOL    HW110342   9.554   5.841   5.676  0.8406 -1.7741 -0.0554
 2858SOL    HW210343   9.668   5.911   5.746 -0.9040  1.1119  0.0498
 2859SOL     OW10344   3.911   6.415   3.158  0.8779 -0.3109  0.1481
 2859SOL    HW110345   3.925   6.509   3.148 -0.3822 -0.0460  0.7274
 2859SOL    HW210346   3.908   6.402   3.253  1.4997 -1.0230  0.0825
 2860SOL     OW10347   9.118   0.667   7.598 -0.1889  0.1549  0.3863
 2860SOL    HW110348   9.157   0.712   7.523  0.2834 -0.6192  0.1537
 2860SOL    HW210349   9.157   0.709   7.674 -0.5241  0.8142  0.2021
 2861SOL     OW10350   5.495   6.371   5.169  0.6231  0.6454  0.4746
 2861SOL    HW110351   5.549   6.333   5.100 -0.3668 -0.0504  0.0455
 2861SOL    HW210352   5.510   6.465   5.163  4.3113  0.3815  2.5517
 2862SOL     OW10353   7.269   9.354   1.103  0.1789  0.1731  0.2382
 2862SOL    HW110354   7.354   9.314   1.084  0.3349  1.2418 -1.5604
 2862SOL    HW210355   7.260   9.348   1.198  2.8151  1.0436  0.6254
 2863SOL     OW10356   8.280   1.704   6.876  0.0354  0.7129 -0.0716
 2863SOL    HW110357   8.294   1.681   6.968  0.9022 -0.1091 -0.3926
 2863SOL    HW210358   8.275   1.799   6.876  2.0985  0.8698  0.5699
 2864SOL     OW10359   8.374   6.383   5.442  0.8374 -0.3470  0.3991
 2864SOL    HW110360   8.357   6.386   5.536  2.2996 -2.8110  0.8464
 2864SOL    HW210361   8.468   6.402   5.434  0.2840  2.3086 -0.8840
 2865SOL     OW10362   4.395   2.823   2.181 -0.0745 -0.4067  0.5636
 2865SOL    HW110363   4.301   2.837   2.165  0.3438  2.5729  0.1471
 2865SOL    HW210364   4.399   2.785   2.269 -1.6576  0.5674  1.0969
 2866SOL     OW10365   8.064   9.112   2.334 -0.1678 -0.0580  0.1351
 2866SOL    HW110366   8.074   9.195   2.288  1.1260  0.3013  1.0305
 2866SOL    HW210367   7.989   9.127   2.392 -0.2038  0.3272 -0.0026
 2867SOL     OW10368   1.782   4.259   2.205 -0.3385  0.0813  0.0152
 2867SOL    HW110369   1.764   4.222   2.291  1.2042 -0.8395 -0.0328
 2867SOL    HW210370   1.696   4.277   2.168 -1.2398 -3.4573  0.0413
 2868SOL     OW10371   8.399   8.600   4.713  0.1758  0.1666 -0.3119
 2868SOL    HW110372   8.358   8.550   4.784 -2.3868  1.3786 -0.8155
 2868SOL    HW210373   8.433   8.679   4.756  1.6865 -0.6538  0.0465
 2869SOL     OW10374   3.927   4.835   2.044 -0.0199  0.3645 -0.1208
 2869SOL    HW110375   3.890   4.913   2.086  2.2829  1.3820  0.1790
 2869SOL    HW210376   3.863   4.766   2.062 -0.4540  1.3727  2.7492
 2870SOL     OW10377   2.044   8.786   0.881  0.0598 -0.2062  0.1031
 2870SOL    HW110378   2.010   8.800   0.792  0.2330 -1.1546 -0.1153
 2870SOL    HW210379   2.137   8.769   0.868 -0.1406 -1.5432  0.3579
 2871SOL     OW10380   7.428   6.327   5.823 -0.0777  0.4975  0.1664
 2871SOL    HW110381   7.409   6.237   5.851  1.4662  0.2615  0.5276
 2871SOL    HW210382   7.457   6.319   5.733 -1.7744  0.8868 -0.4629
 2872SOL     OW10383   5.061   1.382   0.142  0.5852 -0.4039  0.1285
 2872SOL    HW110384   5.099   1.469   0.126 -1.6548  0.8192  1.0440
 2872SOL    HW210385   5.041   1.348   0.055 -1.0488  1.2466 -0.1990
 2873SOL     OW10386   7.505   2.509   6.514 -0.0462 -0.1744  0.0157
 2873SOL    HW110387   7.456   2.445   6.566 -0.0027  0.0737  0.3597
 2873SOL    HW210388   7.440   2.547   6.456 -0.1224 -0.3458 -0.0138
 2874SOL     OW10389   1.189   1.888   6.503  0.1136 -0.5713  0.2429
 2874SOL    HW110390   1.097   1.865   6.492 -0.4332  2.0065 -1.0933
 2874SOL    HW210391   1.189   1.979   6.532  2.2528 -0.5782  0.4654
 2875SOL     OW10392   5.287   4.257   4.910 -0.1557  0.2101 -0.3756
 2875SOL    HW110393   5.225   4.256   4.983  0.8868 -0.3570  0.5334
 2875SOL    HW210394   5.371   4.233   4.950  0.8576  1.9066 -1.3897
 2876SOL     OW10395   9.572   7.583   7.445 -0.2441 -0.3254 -0.8154
 2876SOL    HW110396   9.531   7.513   7.495 -0.1107  0.8702  1.0685
 2876SOL    HW210397   9.654   7.545   7.413 -0.3615 -1.1497 -0.1770
 2877SOL     OW10398   4.037   0.112   7.158  0.2953 -0.0859 -0.0417
 2877SOL    HW110399   4.033   0.109   7.253  2.4303  1.5586  0.1803
 2877SOL    HW210400   3.979   0.185   7.134 -2.1611 -1.9854 -0.2913
 2878SOL     OW10401   2.560   4.709   2.595  0.1313 -0.0121 -0.3606
 2878SOL    HW110402   2.566   4.760   2.676 -0.2061  0.0636 -0.3837
 2878SOL    HW210403   2.564   4.617   2.624  2.6160 -0.0060 -0.4472
 2879SOL     OW10404   8.618   3.617   7.540  0.3787 -0.2831 -0.7462
 2879SOL    HW110405   8.711   3.610   7.557 -0.0389 -1.1293  1.5411
 2879SOL    HW210406   8.594   3.705   7.568  0.1139 -0.8699  0.9786
 2880SOL     OW10407   1.382   1.884   0.497  0.5549 -0.2722 -0.1276
 2880SOL    HW110408   1.462   1.907   0.545  0.4042  2.0265 -0.8448
 2880SOL    HW210409   1.334   1.966   0.490 -0.8955 -1.1791 -1.5321
 2881SOL     OW10410   1.021   1.422   9.105 -0.1764 -0.0371  0.0374
 2881SOL    HW110411   1.107   1.382   9.115 -0.1286  0.1375  0.3371
 2881SOL    HW210412   1.039   1.513   9.080 -0.2145  0.5320  1.9021
 2882SOL     OW10413   3.986   0.355   9.663 -0.0370 -0.4366 -0.2095
 2882SOL    HW110414   3.939   0.416   9.720  1.0312 -0.2642  0.5114
 2882SOL    HW210415   4.027   0.410   9.597 -1.5159 -0.6610 -1.3696
 2883SOL     OW10416   6.626   9.131   2.207  0.2574  0.1367 -0.4876
 2883SOL    HW110417   6.714   9.169   2.203  0.0392  0.8445  0.8576
 2883SOL    HW210418   6.571   9.200   2.243 -1.1224  0.1045 -2.3829
 2884SOL     OW10419   1.847   2.988   3.989 -0.2096 -0.0197 -0.0278
 2884SOL    HW110420   1.789   3.064   3.997 -1.7848 -1.2947  1.5747
 2884SOL    HW210421   1.844   2.965   3.896 -1.0403  0.8704 -0.2370
 2885SOL     OW10422   8.723   7.252   9.618 -0.2300  0.5907 -0.0415
 2885SOL    HW110423   8.664   7.186   9.654  1.3151 -0.5863  0.4148
 2885SOL    HW210424   8.703   7.331   9.667 -2.5595  0.7009 -1.0337
 2886SOL     OW10425   1.442   3.704   3.136 -0.1999 -0.4566  0.0237
 2886SOL    HW110426   1.348   3.693   3.149 -0.0948 -0.9887  0.3517
 2886SOL    HW210427   1.480   3.691   3.223 -0.0523  2.6298  0.5349
 2887SOL     OW10428   8.011   5.649   6.808  0.2268 -0.0417 -0.1032
 2887SOL    HW110429   7.938   5.656   6.746 -0.4002  1.0101  0.7099
 2887SOL    HW210430   7.969   5.623   6.890  0.9396 -0.6016  0.0959
 2888SOL     OW10431   2.160   2.088   5.860 -0.1430  0.1335  0.5799
 2888SOL    HW110432   2.205   2.171   5.874  0.1911 -0.0122  0.3764
 2888SOL    HW210433   2.070   2.113   5.841  0.6486  0.7088 -3.2047
 2889SOL     OW10434   6.644   0.137   5.734  0.3133 -0.6469 -0.2690
 2889SOL    HW110435   6.569   0.104   5.685 -0.8450 -3.2094  2.9089
 2889SOL    HW210436   6.710   0.068   5.725  0.1059 -1.1309  1.5459
 2890SOL     OW10437   0.670   3.735   8.930  0.1693  0.3199 -0.5413
 2890SOL    HW110438   0.601   3.758   8.868 -0.7399  1.7762  0.9373
 2890SOL    HW210439   0.675   3.809   8.990  0.4569 -1.3384  1.6202
 2891SOL     OW10440   2.919   1.856   3.038 -0.0103 -0.7866 -0.0533
 2891SOL    HW110441   2.883   1.818   3.118  0.3972  0.2776  0.6641
 2891SOL    HW210442   2.850   1.915   3.008  1.0933  1.4182  1.4396
 2892SOL     OW10443   7.418   0.667   3.449 -0.4669 -0.6843  0.6130
 2892SOL    HW110444   7.503   0.693   3.487 -0.0052  0.2486 -0.9973
 2892SOL    HW210445   7.417   0.572   3.459  0.9088 -0.7477  0.3983
 2893SOL     OW10446   4.754   7.829   4.462  0.1451  0.0809 -0.7193
 2893SOL    HW110447   4.764   7.748   4.411  0.1417 -0.0444 -0.5188
 2893SOL    HW210448   4.844   7.857   4.481  0.1635 -1.0710  1.1226
 2894SOL     OW10449   2.917   6.490   7.002  0.3724  0.2198 -0.1824
 2894SOL    HW110450   2.827   6.522   7.006  0.6114  0.8138  0.6996
 2894SOL    HW210451   2.928   6.439   7.083 -0.0068 -2.1819 -1.5566
 2895SOL     OW10452   2.587   6.121   9.709  0.2568  0.2211  0.6858
 2895SOL    HW110453   2.578   6.134   9.804 -0.5330 -0.2453  0.6856
 2895SOL    HW210454   2.620   6.031   9.701  0.0177  0.1473  0.5160
 2896SOL     OW10455   2.955   1.996   1.107  0.2590 -0.2305  0.1809
 2896SOL    HW110456   3.034   2.013   1.055 -0.1381  0.8264 -0.1038
 2896SOL    HW210457   2.981   1.929   1.169  1.8331  1.1706  1.0979
 2897SOL     OW10458   7.519   7.317   5.858  0.5033  0.4563  0.6381
 2897SOL    HW110459   7.601   7.361   5.836  2.3570 -3.8651 -2.6266
 2897SOL    HW210460   7.475   7.304   5.774 -0.4059 -2.6732  1.4599
 2898SOL     OW10461   7.230   7.220   8.066  0.6602  0.1908  0.1284
 2898SOL    HW110462   7.315   7.182   8.042 -0.7101 -3.5982  0.4981
 2898SOL    HW210463   7.239   7.241   8.159  1.4071  0.5796 -0.0223
 2899SOL     OW10464   5.003   3.924   2.141 -0.2163 -0.2038  0.1272
 2899SOL    HW110465   5.083   3.968   2.112  0.3064 -0.7246  0.7490
 2899SOL    HW210466   4.942   3.996   2.158  0.2654  0.2251  0.0799
 2900SOL     OW10467   6.345   1.003   3.344 -0.5206 -0.1574 -0.5218
 2900SOL    HW110468   6.368   1.096   3.339 -0.9618  0.0188  0.4998
 2900SOL    HW210469   6.389   0.972   3.423 -0.0013 -0.9345 -1.1060
 2901SOL     OW10470   1.730   7.479   6.416 -0.3474 -0.3402  0.0126
 2901SOL    HW110471   1.751   7.511   6.328 -2.3966  0.1991 -0.3435
 2901SOL    HW210472   1.673   7.404   6.401 -0.8288 -0.1610  0.8662
 2902SOL     OW10473   8.029   7.236   1.651  0.2171  0.2028  0.1540
 2902SOL    HW110474   8.072   7.286   1.720 -1.4764  1.8657  0.1013
 2902SOL    HW210475   7.938   7.228   1.680  0.1500 -1.8087 -0.4484
 2903SOL     OW10476   3.031   9.723   7.124  0.2707  0.1442 -0.1681
 2903SOL    HW110477   3.093   9.705   7.194  2.9088  1.4367 -1.9797
 2903SOL    HW210478   2.948   9.742   7.168  1.6275  0.1910  2.5139
 2904SOL     OW10479   7.743   4.620   8.811  0.4488 -0.5565 -0.1541
 2904SOL    HW110480   7.830   4.620   8.770  0.2193 -0.8827 -0.6453
 2904SOL    HW210481   7.694   4.687   8.764 -0.3379 -2.0600 -1.5682
 2905SOL     OW10482   1.382   3.035   3.345  0.4289 -0.2066 -0.2046
 2905SOL    HW110483   1.298   3.045   3.390  1.0474  0.7628  0.8194
 2905SOL    HW210484   1.442   3.006   3.414  0.6961 -2.0765 -1.1852
 2906SOL     OW10485   8.138   3.939   6.664 -0.5380  0.2334  0.0706
 2906SOL    HW110486   8.176   3.991   6.592 -2.1796  1.2060 -0.1479
 2906SOL    HW210487   8.048   3.922   6.636 -0.5213 -1.3499  0.9045
 2907SOL     OW10488   5.365   3.348   2.004 -0.1977 -0.2324 -0.3048
 2907SOL    HW110489   5.437   3.289   1.982  0.6624  1.3439 -1.9769
 2907SOL    HW210490   5.303   3.337   1.932 -1.0666 -0.6459  0.4871
 2908SOL     OW10491   1.204   7.148   0.729  0.0896  0.0536 -0.3065
 2908SOL    HW110492   1.134   7.208   0.703 -2.7310 -2.0549  1.9324
 2908SOL    HW210493   1.205   7.152   0.824  2.4456 -0.6976 -0.2376
 2909SOL     OW10494   5.018   2.301   6.961  0.6195 -0.0337  0.1756
 2909SOL    HW110495   5.077   2.250   6.905  0.8121 -0.4309  0.7303
 2909SOL    HW210496   5.047   2.281   7.050 -0.9233 -0.9265  0.5003
 2910SOL     OW10497   0.220   9.715   8.530  0.2329  0.1183  0.2550
 2910SOL    HW110498   0.247   9.678   8.614 -2.1394  0.4876  1.2650
 2910SOL    HW210499   0.195   9.639   8.478 -0.1464  0.0025  0.6007
 2911SOL     OW10500   8.472   7.904   5.716 -0.1374  0.1604  0.3564
 2911SOL    HW110501   8.539   7.938   5.774  0.0834 -0.1089  0.2598
 2911SOL    HW210502   8.397   7.963   5.729 -0.9472 -1.2382  2.6664
 2912SOL     OW10503   1.345   0.794   4.499 -0.2237 -0.6670  0.1835
 2912SOL    HW110504   1.388   0.879   4.487 -0.7178 -0.2846  1.0176
 2912SOL    HW210505   1.272   0.794   4.437  0.2889 -0.8493 -0.4314
 2913SOL     OW10506   0.948   7.737   6.734  0.2954  0.0106 -0.0199
 2913SOL    HW110507   0.890   7.733   6.810  1.6361 -0.5242  1.0238
 2913SOL    HW210508   0.896   7.701   6.663 -0.5385 -0.8348  0.9730
 2914SOL     OW10509   2.058   7.164   8.511 -0.8010 -0.6001 -0.0826
 2914SOL    HW110510   2.104   7.172   8.427 -0.9357 -0.1914 -0.1210
 2914SOL    HW210511   2.057   7.253   8.546  1.0749 -1.0760  1.3529
 2915SOL     OW10512   2.561   1.528   5.361 -0.6561  0.1083  0.5457
 2915SOL    HW110513   2.602   1.459   5.309  1.6687  0.7232  1.4069
 2915SOL    HW210514   2.633   1.563   5.414 -1.7698  3.0662  0.2775
 2916SOL     OW10515   8.942   2.536   0.480  0.3462 -0.2133 -0.0500
 2916SOL    HW110516   8.934   2.518   0.574  1.2501 -1.0575 -0.1139
 2916SOL    HW210517   8.993   2.617   0.476  0.3523 -0.2038  0.1885
 2917SOL     OW10518   2.627   7.160   5.894 -0.0112 -0.2274 -0.2072
 2917SOL    HW110519   2.557   7.223   5.913  0.2263 -0.3301  1.1389
 2917SOL    HW210520   2.604   7.083   5.945  1.3284 -0.0847  0.6785
 2918SOL     OW10521   5.939   3.395   8.095 -0.2343 -0.3248  0.0386
 2918SOL    HW110522   5.869   3.363   8.151 -2.7278  3.2313 -0.7327
 2918SOL    HW210523   5.985   3.460   8.148  2.5434 -2.3746  0.4357
 2919SOL     OW10524   3.798   1.219   1.617 -0.0955 -0.5053  0.2897
 2919SOL    HW110525   3.809   1.240   1.710 -0.3329 -1.7568  0.6196
 2919SOL    HW210526   3.833   1.295   1.571  1.1285 -0.3775  1.3865
 2920SOL     OW10527   3.400   0.868   4.883 -0.5734 -0.5747 -0.4870
 2920SOL    HW110528   3.424   0.812   4.809 -2.2308  2.4466 -3.6603
 2920SOL    HW210529   3.306   0.853   4.894 -0.6874  0.2728 -0.2412
 2921SOL     OW10530   2.407   0.130   1.504 -0.0748 -0.5838  0.0349
 2921SOL    HW110531   2.475   0.177   1.551  0.2335 -0.1963 -0.7844
 2921SOL    HW210532   2.454   0.070   1.446 -0.4368 -0.6822 -0.1646
 2922SOL     OW10533   8.946   4.602   5.445  0.3010 -0.4351  0.3864
 2922SOL    HW110534   8.887   4.600   5.371  1.5979  0.0256 -0.7012
 2922SOL    HW210535   9.025   4.558   5.414  1.2677  0.7249  1.1058
 2923SOL     OW10536   5.568   5.751   1.207  0.4221  0.1527  0.3839
 2923SOL    HW110537   5.561   5.835   1.163  1.0358  0.5504  1.0268
 2923SOL    HW210538   5.550   5.771   1.299  1.5094 -0.2487  0.6916
 2924SOL     OW10539   0.815   5.953   7.428  0.2590  0.5743 -0.3512
 2924SOL    HW110540   0.887   5.988   7.481  0.9655  0.1123 -0.9824
 2924SOL    HW210541   0.808   5.861   7.454 -1.7359  1.1536  1.4596
 2925SOL     OW10542   8.012   8.843   3.763  0.3938  0.2405  0.3829
 2925SOL    HW110543   8.064   8.864   3.685  0.0505  2.1083  0.6127
 2925SOL    HW210544   8.033   8.751   3.782  1.9827  0.3282 -0.7436
 2926SOL     OW10545   7.252   1.857   5.771  0.2367 -0.3049 -0.0225
 2926SOL    HW110546   7.270   1.764   5.761 -2.3508 -1.0616  1.3255
 2926SOL    HW210547   7.157   1.864   5.758  0.1986  1.9656  1.0329
 2927SOL     OW10548   7.620   0.506   5.367  0.1024  0.1089  0.4531
 2927SOL    HW110549   7.554   0.570   5.394 -0.5180  0.5068 -1.8218
 2927SOL    HW210550   7.647   0.535   5.280  1.5946 -1.3787  0.3837
 2928SOL     OW10551   5.898   7.668   3.583  0.4310 -0.5153  0.2018
 2928SOL    HW110552   5.983   7.706   3.604  0.0756  0.5933 -0.2989
 2928SOL    HW210553   5.840   7.744   3.573 -1.0292 -1.2723  2.2465
 2929SOL     OW10554   0.468   3.392   0.352  0.3317 -0.6302  0.1570
 2929SOL    HW110555   0.376   3.366   0.343 -0.6473  2.5334 -0.7278
 2929SOL    HW210556   0.509   3.363   0.271  0.3108 -2.5947  0.8157
 2930SOL     OW10557   0.863   5.978   8.561  0.0243  0.4922 -0.4725
 2930SOL    HW110558   0.871   5.957   8.654 -0.0959  1.0547 -0.3305
 2930SOL    HW210559   0.785   6.033   8.556 -0.2066  0.1267 -0.9653
 2931SOL     OW10560   9.184   7.138   9.201 -0.4789  0.7161  0.2438
 2931SOL    HW110561   9.180   7.218   9.253  1.1560 -0.0538  1.6598
 2931SOL    HW210562   9.274   7.106   9.213 -1.6451 -2.5040  1.5803
 2932SOL     OW10563   4.546   3.717   1.255  0.5730  0.5189 -0.4046
 2932SOL    HW110564   4.503   3.726   1.170 -0.3575 -0.1490 -0.0248
 2932SOL    HW210565   4.593   3.799   1.267 -0.1934  1.0789 -1.0692
 2933SOL     OW10566   1.661   2.815   4.641 -0.2884  0.0409 -0.3361
 2933SOL    HW110567   1.671   2.790   4.549 -0.1174 -1.3698  0.0417
 2933SOL    HW210568   1.585   2.873   4.642 -1.9168 -1.9617 -1.0604
 2934SOL     OW10569   1.297   7.899   8.263  0.7797 -0.7914 -0.9310
 2934SOL    HW110570   1.378   7.869   8.223  0.8880 -1.2902 -0.3638
 2934SOL    HW210571   1.315   7.898   8.357  0.7457  1.0066 -0.8822
 2935SOL     OW10572   3.904   7.201   7.232 -0.9194  0.5492  0.7530
 2935SOL    HW110573   3.919   7.252   7.311  1.2028 -0.6228  1.1838
 2935SOL    HW210574   3.928   7.260   7.161  1.0953  0.3827  1.2279
 2936SOL     OW10575   2.389   8.661   1.470  0.3414 -0.2159 -0.1286
 2936SOL    HW110576   2.375   8.754   1.449  0.9874  0.3090  1.5875
 2936SOL    HW210577   2.333   8.645   1.546  0.1140 -1.2889 -0.5165
 2937SOL     OW10578   1.040   6.453   8.127 -0.0115  0.3187 -0.1948
 2937SOL    HW110579   1.091   6.417   8.055 -0.6047  0.6713 -0.7974
 2937SOL    HW210580   0.985   6.380   8.156 -0.5395  0.4667 -0.8039
 2938SOL     OW10581   6.008   6.628   4.623  0.1547 -0.3525 -0.5749
 2938SOL    HW110582   5.919   6.632   4.659  0.1625 -0.8211 -0.5036
 2938SOL    HW210583   6.030   6.535   4.623  1.1248 -0.1488  0.5940
 2939SOL     OW10584   9.045   6.381   5.558 -0.5182  0.5608 -0.1134
 2939SOL    HW110585   8.988   6.345   5.490  1.3378 -0.4541 -1.2020
 2939SOL    HW210586   9.066   6.469   5.526 -0.4566  0.4597 -0.3575
 2940SOL     OW10587   4.701   4.786   9.059 -0.1305  0.2592 -0.3108
 2940SOL    HW110588   4.629   4.724   9.058  1.1707 -1.3447  0.1535
 2940SOL    HW210589   4.752   4.765   8.980  1.8594 -1.2987  1.2445
 2941SOL     OW10590   8.563   2.792   7.935  0.4060 -0.2444 -0.5671
 2941SOL    HW110591   8.615   2.867   7.962  3.3664 -2.1527 -0.4770
 2941SOL    HW210592   8.557   2.737   8.013 -1.0009 -0.5022 -0.8353
 2942SOL     OW10593   8.342   6.032   6.988  0.2896  0.4455 -0.2096
 2942SOL    HW110594   8.339   6.088   6.910  2.0700  0.1823 -0.5217
 2942SOL    HW210595   8.427   6.050   7.027 -0.8812  1.1653  2.1747
 2943SOL     OW10596   7.041   7.295   3.725  0.2053 -0.1645 -0.5312
 2943SOL    HW110597   7.052   7.329   3.636  0.0349 -0.2537 -0.5858
 2943SOL    HW210598   6.953   7.259   3.727 -0.4148  1.3450  0.1810
 2944SOL     OW10599   8.407   8.653   6.666  0.2533  0.2466  0.1166
 2944SOL    HW110600   8.439   8.568   6.695  1.1307  0.8899  1.1057
 2944SOL    HW210601   8.455   8.670   6.584  0.3824 -0.0174  0.1352
 2945SOL     OW10602   0.175   1.729   1.865 -0.4022  0.6023 -0.0829
 2945SOL    HW110603   0.150   1.794   1.800 -1.1011 -2.6132 -3.2886
 2945SOL    HW210604   0.252   1.686   1.828 -0.8903 -1.4569  1.1494
 2946SOL     OW10605   5.401   0.827   6.299 -0.0231 -0.2100  0.2106
 2946SOL    HW110606   5.382   0.750   6.245  0.8250  0.0243 -0.4356
 2946SOL    HW210607   5.325   0.835   6.356 -1.4352  0.1424 -1.6438
 2947SOL     OW10608   7.113   6.238   1.124  0.8668  0.8037  0.5193
 2947SOL    HW110609   7.145   6.226   1.214 -0.4772 -0.9159  0.8306
 2947SOL    HW210610   7.177   6.191   1.070 -0.8313 -2.5504  1.1278
 2948SOL     OW10611   3.122   7.191   9.578  0.0905 -0.4795  0.3708
 2948SOL    HW110612   3.116   7.223   9.488  0.4251  1.9959  1.1625
 2948SOL    HW210613   3.106   7.097   9.571 -1.9818 -0.0514 -2.0046
 2949SOL     OW10614   7.831   9.430   6.434 -0.3745 -0.6281  0.2233
 2949SOL    HW110615   7.741   9.427   6.403 -0.1511 -0.5202 -0.4438
 2949SOL    HW210616   7.882   9.458   6.358  0.4874 -2.7492 -0.0574
 2950SOL     OW10617   6.809   4.858   6.864  0.2720  0.1577 -0.5227
 2950SOL    HW110618   6.852   4.832   6.783 -1.0554 -0.6041 -1.0305
 2950SOL    HW210619   6.774   4.776   6.899  0.9108  0.4559  0.8911
 2951SOL     OW10620   9.082   7.717   2.345  0.2081 -0.7205  0.2484
 2951SOL    HW110621   9.055   7.648   2.285  0.4642 -0.6786  0.0817
 2951SOL    HW210622   9.073   7.798   2.295  1.8111 -0.8051 -0.2509
 2952SOL     OW10623   0.024   9.342   3.390 -0.3357 -0.2916  0.3585
 2952SOL    HW110624   0.087   9.276   3.362 -0.4039 -0.8138  1.4027
 2952SOL    HW210625   0.064   9.425   3.365  0.0779 -0.6909 -0.3275
 2953SOL     OW10626   8.651   0.618   1.877 -0.0388 -0.0502 -0.0706
 2953SOL    HW110627   8.601   0.699   1.882 -1.2957 -0.6747 -1.4421
 2953SOL    HW210628   8.618   0.565   1.950  0.9534  0.7313  0.9680
 2954SOL     OW10629   1.595   2.124   9.683 -0.6229  0.1799  0.1795
 2954SOL    HW110630   1.546   2.051   9.644  1.4855 -2.6225  2.3429
 2954SOL    HW210631   1.534   2.161   9.747 -1.6852  0.3410 -0.8666
 2955SOL     OW10632   6.297   6.953   6.480 -0.2594 -0.2536 -0.1455
 2955SOL    HW110633   6.308   6.858   6.471  0.3988 -0.0516 -1.8577
 2955SOL    HW210634   6.322   6.971   6.571  1.8787 -1.4523 -0.4161
 2956SOL     OW10635   9.168   6.346   3.494 -0.5303 -0.3343  0.4958
 2956SOL    HW110636   9.181   6.441   3.487  0.9317 -0.5163  0.4434
 2956SOL    HW210637   9.090   6.329   3.440 -0.2978  0.7205 -0.2171
 2957SOL     OW10638   5.452   5.135   9.420 -0.0997 -0.0377 -0.6808
 2957SOL    HW110639   5.357   5.121   9.417 -0.0129 -0.6089 -1.0125
 2957SOL    HW210640   5.468   5.208   9.361 -0.2108 -0.7252 -1.5925
 2958SOL     OW10641   2.364   7.088   7.608 -0.1039 -0.4690  0.2600
 2958SOL    HW110642   2.273   7.059   7.622 -0.1372 -0.9578 -0.8632
 2958SOL    HW210643   2.405   7.016   7.560  0.1662  0.8010 -1.5014
 2959SOL     OW10644   6.591   0.276   8.729 -0.2063  0.7230  0.3779
 2959SOL    HW110645   6.676   0.316   8.748 -0.7649  0.9690  2.6655
 2959SOL    HW210646   6.612   0.187   8.701  0.8166  0.7086  1.1372
 2960SOL     OW10647   1.034   9.580   5.110 -0.0908  0.3500  0.4012
 2960SOL    HW110648   1.031   9.562   5.204  1.1313 -2.1337  0.0465
 2960SOL    HW210649   1.085   9.660   5.102  0.6546  0.0393  1.8084
 2961SOL     OW10650   7.536   5.324   1.752  0.2946 -0.1840  0.3413
 2961SOL    HW110651   7.606   5.265   1.721  0.9200  0.3555  0.6949
 2961SOL    HW210652   7.550   5.405   1.703 -1.5641 -0.8215 -1.3630
 2962SOL     OW10653   0.995   9.345   0.179  0.0153  0.1036  0.5630
 2962SOL    HW110654   0.952   9.385   0.103  0.0709  0.9185  0.9517
 2962SOL    HW210655   0.925   9.338   0.244 -0.2224 -1.3077  0.1975
 2963SOL     OW10656   4.857   5.119   5.653 -0.0942  0.4141  0.7939
 2963SOL    HW110657   4.916   5.135   5.726 -1.3366  0.2458  1.8729
 2963SOL    HW210658   4.811   5.038   5.676 -1.3966  1.0305  0.4581
 2964SOL     OW10659   5.591   7.767   2.159  0.3935  0.4261  0.1225
 2964SOL    HW110660   5.644   7.734   2.086 -0.5915  2.1060 -1.4531
 2964SOL    HW210661   5.594   7.697   2.224  2.7635 -0.4158 -0.7704
 2965SOL     OW10662   8.774   1.641   0.172  1.0764  0.1415 -0.2062
 2965SOL    HW110663   8.812   1.616   0.256 -0.0774 -1.4976 -0.1277
 2965SOL    HW210664   8.839   1.615   0.107  1.7474  0.9506  0.1223
 2966SOL     OW10665   9.351   9.176   5.608  0.3926 -0.1002 -0.7918
 2966SOL    HW110666   9.422   9.118   5.634  0.1626 -0.5600 -1.1726
 2966SOL    HW210667   9.395   9.255   5.575  0.7613 -0.6705 -1.7235
 2967SOL     OW10668   0.814   0.179   9.083 -0.0852  0.0512  0.4762
 2967SOL    HW110669   0.734   0.202   9.131 -1.3020  1.6305 -2.1235
 2967SOL    HW210670   0.880   0.240   9.116 -0.3844 -0.1282  1.4366
 2968SOL     OW10671   8.548   4.612   9.522 -0.0260 -0.6587 -0.0321
 2968SOL    HW110672   8.639   4.624   9.549 -0.1565 -2.0047  1.1796
 2968SOL    HW210673   8.503   4.689   9.555  0.4524 -0.6105  0.5383
 2969SOL     OW10674   9.549   7.356   8.372 -0.8033 -0.5415 -0.3900
 2969SOL    HW110675   9.501   7.350   8.454  1.1278  1.6274  1.0494
 2969SOL    HW210676   9.528   7.443   8.338  0.0195 -0.6001 -1.0897
 2970SOL     OW10677   8.925   0.758   2.767  0.1067  0.9936  0.1850
 2970SOL    HW110678   8.900   0.843   2.731 -2.3998  0.3042  0.1052
 2970SOL    HW210679   8.972   0.779   2.848  0.0977  2.4580 -0.1643
 2971SOL     OW10680   6.357   6.788   7.278  0.0721 -0.2476  0.1562
 2971SOL    HW110681   6.289   6.830   7.331  1.2997  0.2180  1.4047
 2971SOL    HW210682   6.311   6.718   7.232 -1.1762 -0.1904  1.2552
 2972SOL     OW10683   4.600   1.022   9.516 -0.2028  0.0965  0.1856
 2972SOL    HW110684   4.624   0.938   9.477  1.0188  0.4327  0.1977
 2972SOL    HW210685   4.677   1.049   9.564  0.2341  2.2786 -1.6014
 2973SOL     OW10686   7.703   3.111   6.199  0.0116 -0.0626 -0.3848
 2973SOL    HW110687   7.743   3.120   6.112  2.0114 -0.0203  0.4735
 2973SOL    HW210688   7.613   3.141   6.188 -0.2114 -1.3796 -2.7459
 2974SOL     OW10689   1.036   5.828   2.964 -0.2608  0.0594  0.2655
 2974SOL    HW110690   0.997   5.821   3.051  0.8887 -2.4683  0.6849
 2974SOL    HW210691   0.971   5.791   2.905  0.5282 -2.1709  0.6855
 2975SOL     OW10692   3.979   6.234   8.847  0.3198 -0.0282 -0.5154
 2975SOL    HW110693   4.005   6.252   8.757  0.8592 -0.2889 -0.4168
 2975SOL    HW210694   3.920   6.306   8.871  1.0026  0.6096 -0.7267
 2976SOL     OW10695   1.214   1.092   5.494 -0.0404 -1.2714  0.1407
 2976SOL    HW110696   1.206   1.144   5.414 -1.4875 -1.7440 -0.0600
 2976SOL    HW210697   1.304   1.060   5.493  0.8227  1.0407  0.1914
 2977SOL     OW10698   6.797   7.881   7.231  0.0609  0.2777 -0.2193
 2977SOL    HW110699   6.742   7.810   7.263  1.4305 -0.1604  1.3038
 2977SOL    HW210700   6.817   7.857   7.141  2.0792 -2.3797  0.8016
 2978SOL     OW10701   7.351   4.546   1.801  0.1709 -0.2799  0.1780
 2978SOL    HW110702   7.258   4.525   1.808 -0.0551 -0.0053 -1.5777
 2978SOL    HW210703   7.369   4.600   1.878 -0.7801 -1.4576  1.2670
 2979SOL     OW10704   0.362   3.776   0.604  0.5070 -0.3682 -0.1425
 2979SOL    HW110705   0.441   3.725   0.586  1.0581  0.7653 -1.0915
 2979SOL    HW210706   0.382   3.863   0.570 -1.5761 -0.3328 -1.4647
 2980SOL     OW10707   0.482   9.676   2.618 -0.2953  0.2449 -0.3502
 2980SOL    HW110708   0.565   9.723   2.608 -0.0337  0.3925  2.0880
 2980SOL    HW210709   0.508   9.584   2.625 -0.4807  0.1358 -1.0093
 2981SOL     OW10710   7.612   5.424   0.183 -0.5116  0.0420  0.1576
 2981SOL    HW110711   7.584   5.335   0.205  0.8457 -0.4918 -0.2166
 2981SOL    HW210712   7.688   5.440   0.239 -1.5905  1.5324  1.2776
 2982SOL     OW10713   4.079   1.506   2.447 -0.1660 -0.6941  0.3429
 2982SOL    HW110714   4.053   1.573   2.509 -1.3664  0.6521 -1.5194
 2982SOL    HW210715   4.175   1.508   2.447 -0.1798  1.3724 -0.0057
 2983SOL     OW10716   9.145   0.275   2.328  0.0852 -0.2975 -0.4750
 2983SOL    HW110717   9.229   0.247   2.290 -0.6449 -0.4321 -2.0831
 2983SOL    HW210718   9.080   0.223   2.281 -0.8643 -0.9413  1.4731
 2984SOL     OW10719   8.197   8.455   2.342 -0.6219 -0.9220  0.3178
 2984SOL    HW110720   8.164   8.394   2.275 -0.8389 -0.7239  0.2409
 2984SOL    HW210721   8.161   8.540   2.316 -0.2385 -0.7438  0.3696
 2985SOL     OW10722   8.291   9.259   2.155 -0.4425  0.6393 -0.0042
 2985SOL    HW110723   8.353   9.208   2.102 -0.6759  0.5276 -0.1696
 2985SOL    HW210724   8.337   9.274   2.238  0.5046  2.0934 -0.7600
 2986SOL     OW10725   2.693   0.423   3.790 -0.4511  0.1621  0.0348
 2986SOL    HW110726   2.694   0.342   3.841 -1.0401  0.9106  1.2563
 2986SOL    HW210727   2.669   0.395   3.701 -1.0451 -0.9483  0.5284
 2987SOL     OW10728   6.431   1.310   7.003 -0.4950 -0.1927  0.9846
 2987SOL    HW110729   6.354   1.323   6.948  0.3987 -1.6677 -0.7214
 2987SOL    HW210730   6.478   1.393   6.999  0.0276 -0.5419 -1.3485
 2988SOL     OW10731   8.454   7.348   1.956  0.0057 -0.5161  0.2941
 2988SOL    HW110732   8.502   7.360   1.875  0.0879  2.2886  0.6740
 2988SOL    HW210733   8.488   7.415   2.015 -1.3238 -1.2860  2.0385
 2989SOL     OW10734   8.881   4.191   1.852 -0.4837  0.3362  0.5156
 2989SOL    HW110735   8.960   4.184   1.905  0.5046  0.2333 -0.8920
 2989SOL    HW210736   8.895   4.269   1.799  0.4267 -1.5567 -2.3283
 2990SOL     OW10737   5.561   8.192   8.907  0.0092 -0.2813  0.2434
 2990SOL    HW110738   5.503   8.167   8.834 -0.2720  1.2176 -0.1008
 2990SOL    HW210739   5.547   8.125   8.973 -1.4895 -0.4266 -0.1801
 2991SOL     OW10740   1.837   1.508   6.861 -0.1153  0.3301 -0.0569
 2991SOL    HW110741   1.926   1.528   6.833 -0.6588  1.9859 -0.7334
 2991SOL    HW210742   1.834   1.536   6.952  0.4366 -1.0399  0.3976
 2992SOL     OW10743   6.036   2.519   5.630  0.0730  0.1710 -0.4462
 2992SOL    HW110744   6.119   2.503   5.676 -0.0632  1.7325  0.4265
 2992SOL    HW210745   5.971   2.471   5.680  0.1683  0.5852  0.0906
 2993SOL     OW10746   5.837   7.425   4.818 -0.4261  0.5295  0.3282
 2993SOL    HW110747   5.931   7.445   4.819 -0.3715  0.3012 -0.0310
 2993SOL    HW210748   5.826   7.358   4.886 -0.4093  0.9073  0.7036
 2994SOL     OW10749   2.857   2.309   5.469  0.2910 -0.6314 -0.3349
 2994SOL    HW110750   2.874   2.259   5.550  1.8838 -0.0100 -0.2416
 2994SOL    HW210751   2.889   2.397   5.489 -1.1652  0.0784 -0.9888
 2995SOL     OW10752   6.531   5.170   8.281  0.1306 -0.2387 -0.0741
 2995SOL    HW110753   6.576   5.154   8.364  2.1853  0.1295 -1.0397
 2995SOL    HW210754   6.463   5.104   8.277  0.4450 -0.6994  1.5879
 2996SOL     OW10755   4.945   6.693   0.221 -0.1224 -0.2317 -0.0207
 2996SOL    HW110756   4.979   6.618   0.270  0.9548  0.8727  0.9697
 2996SOL    HW210757   4.879   6.655   0.163  0.6587 -1.9993  0.1834
 2997SOL     OW10758   2.575   4.129   5.890  0.3488 -0.4166  0.3001
 2997SOL    HW110759   2.603   4.195   5.827  2.0896  1.4656  2.8218
 2997SOL    HW210760   2.488   4.158   5.918  0.2959 -0.2963  0.0092
 2998SOL     OW10761   5.942   6.907   9.292 -0.2107 -0.3724 -0.0501
 2998SOL    HW110762   5.980   6.964   9.225  0.2700 -0.2457  0.3234
 2998SOL    HW210763   5.991   6.825   9.284  0.5290 -0.0275  0.7943
 2999SOL     OW10764   5.874   8.702   0.233  0.3800  0.2772 -0.0721
 2999SOL    HW110765   5.805   8.693   0.298 -0.9433 -0.7993 -1.5452
 2999SOL    HW210766   5.908   8.613   0.222  0.9232  0.5312 -0.4985
 3000SOL     OW10767   9.242   5.900   4.189 -0.5062 -0.2808 -0.0118
 3000SOL    HW110768   9.331   5.928   4.171 -0.7006  0.0210 -0.5175
 3000SOL    HW210769   9.225   5.831   4.125 -0.0028 -1.6697  1.2701
 3001SOL     OW10770   8.615   1.224   2.564 -0.5581 -0.2103 -0.0345
 3001SOL    HW110771   8.706   1.245   2.544 -0.3374 -0.6490  0.5042
 3001SOL    HW210772   8.565   1.264   2.493 -0.0450  1.0364  0.2903
 3002SOL     OW10773   3.087   1.303   7.645  0.0515  0.0916  0.4117
 3002SOL    HW110774   2.997   1.324   7.672  0.2586 -0.4989  1.6353
 3002SOL    HW210775   3.087   1.207   7.638  0.1615  0.1759 -1.2345
 3003SOL     OW10776   7.495   4.271   3.495  0.3337 -0.7602 -0.1314
 3003SOL    HW110777   7.473   4.198   3.436 -1.4958 -0.3322 -0.0647
 3003SOL    HW210778   7.486   4.234   3.583 -2.6042 -0.0869 -0.0180
 3004SOL     OW10779   3.983   9.290   8.560  0.1050 -0.2248  0.1250
 3004SOL    HW110780   3.896   9.250   8.561 -0.3272  0.6361 -0.7086
 3004SOL    HW210781   4.032   9.241   8.494 -0.3534  0.4214 -0.7329
 3005SOL     OW10782   4.204   2.396   2.745 -0.0204 -0.6813  0.1168
 3005SOL    HW110783   4.239   2.362   2.663 -0.8163  0.0909 -0.5819
 3005SOL    HW210784   4.110   2.405   2.728 -0.2320 -0.7509  1.2080
 3006SOL     OW10785   2.627   0.580   7.120  0.6760 -0.3211 -0.4704
 3006SOL    HW110786   2.580   0.664   7.116  1.7816  0.2728 -1.8682
 3006SOL    HW210787   2.561   0.517   7.151 -0.3398  0.9308  0.0171
 3007SOL     OW10788   1.233   7.685   9.811 -0.0434 -0.5045  0.2568
 3007SOL    HW110789   1.159   7.729   9.853 -0.9303 -2.3035  0.6498
 3007SOL    HW210790   1.205   7.673   9.720  1.4248  2.3698 -0.7007
 3008SOL     OW10791   9.534   2.473   8.427 -0.3059  0.3449 -0.0442
 3008SOL    HW110792   9.569   2.530   8.359 -1.3796  0.1113 -0.8180
 3008SOL    HW210793   9.512   2.533   8.499  2.3280  0.4161  0.8111
 3009SOL     OW10794   3.602   1.201   2.402  0.4345 -0.0094 -0.2990
 3009SOL    HW110795   3.636   1.217   2.490 -1.4735 -2.9596  1.1226
 3009SOL    HW210796   3.663   1.138   2.364 -0.0755 -0.6586 -0.0707
 3010SOL     OW10797   8.139   0.247   0.261  0.1675  0.0678 -0.2520
 3010SOL    HW110798   8.169   0.163   0.295 -0.4176 -0.3263 -0.7087
 3010SOL    HW210799   8.145   0.239   0.166 -1.7588 -0.1761 -0.3807
 3011SOL     OW10800   8.691   0.561   4.561  0.7104 -0.0912 -0.4544
 3011SOL    HW110801   8.759   0.562   4.628  1.7285 -2.2864 -1.3583
 3011SOL    HW210802   8.733   0.599   4.484  0.1953  0.5779 -0.4084
 3012SOL     OW10803   4.051   2.180   8.940  0.2480 -0.0402 -0.2711
 3012SOL    HW110804   4.130   2.187   8.994  0.0996 -0.1434 -0.0405
 3012SOL    HW210805   4.083   2.147   8.856  0.5036  0.2796 -0.3028
 3013SOL     OW10806   8.094   3.870   3.393 -0.8625 -0.1034  0.0110
 3013SOL    HW110807   8.175   3.887   3.345 -0.3537  1.9228  1.4543
 3013SOL    HW210808   8.104   3.781   3.427  0.2781 -0.2713 -0.7144
 3014SOL     OW10809   4.774   3.724   5.322  0.3376 -0.2984 -0.7657
 3014SOL    HW110810   4.822   3.743   5.402 -0.7016  1.2949 -0.4766
 3014SOL    HW210811   4.840   3.720   5.254  1.0511  0.1200 -0.1123
 3015SOL     OW10812   5.126   8.299   4.623  0.1322  0.5095  0.3953
 3015SOL    HW110813   5.163   8.241   4.557  0.0464  0.9790 -0.0731
 3015SOL    HW210814   5.098   8.241   4.693 -0.8246 -0.1156 -0.4753
 3016SOL     OW10815   3.956   8.122   6.348  0.4365  0.1681  0.4798
 3016SOL    HW110816   3.907   8.039   6.348  1.2714 -0.3415  1.4046
 3016SOL    HW210817   3.970   8.141   6.255 -1.2801  0.1985  0.2022
 3017SOL     OW10818   4.182   2.416   7.237 -0.2328  0.0510 -0.1696
 3017SOL    HW110819   4.106   2.396   7.292 -0.5966  0.5856 -0.4636
 3017SOL    HW210820   4.256   2.379   7.284 -0.9119 -2.5072 -0.9395
 3018SOL     OW10821   0.531   0.450   2.571  0.2163 -0.8742  0.0968
 3018SOL    HW110822   0.459   0.503   2.604 -0.7301 -3.4965  2.6049
 3018SOL    HW210823   0.517   0.447   2.476 -1.6207  0.5382  0.2674
 3019SOL     OW10824   4.861   7.952   0.005  0.1133  0.0086  0.0225
 3019SOL    HW110825   4.848   7.983   0.095  0.5092  0.2423  0.0043
 3019SOL    HW210826   4.950   7.980  -0.017  0.6049 -1.3663  0.1074
 3020SOL     OW10827   0.142   6.184   3.100 -0.2319  0.6551  0.1518
 3020SOL    HW110828   0.217   6.242   3.091  0.8271 -0.7369 -0.2066
 3020SOL    HW210829   0.091   6.197   3.020  0.2273  0.7634 -0.1228
 3021SOL     OW10830   5.057   7.164   7.387 -0.1460  1.0127 -0.0386
 3021SOL    HW110831   5.029   7.162   7.479  0.4076 -2.0910  0.1718
 3021SOL    HW210832   4.985   7.123   7.340  1.4312 -1.6797 -0.2842
 3022SOL     OW10833   0.502   6.586   6.189 -0.1754  0.4563 -0.8399
 3022SOL    HW110834   0.451   6.505   6.191 -2.6454  1.8674  2.1369
 3022SOL    HW210835   0.463   6.638   6.119 -0.8790  0.3397 -0.5475
 3023SOL     OW10836   9.700   5.027   9.827 -0.4697  0.7384 -0.0344
 3023SOL    HW110837   9.708   4.969   9.903 -0.1658  0.2746 -0.4180
 3023SOL    HW210838   9.625   5.082   9.847 -1.0163 -0.0586  0.1548
 3024SOL     OW10839   7.773   2.283   7.751  0.2785 -0.8363  0.3949
 3024SOL    HW110840   7.679   2.289   7.766  0.1358 -0.2740 -0.6685
 3024SOL    HW210841   7.783   2.277   7.656  1.2692 -2.1254  0.5481
 3025SOL     OW10842   9.517   6.329   6.968  0.7403 -0.3533  0.1773
 3025SOL    HW110843   9.577   6.403   6.958  1.0641 -0.1347  2.9359
 3025SOL    HW210844   9.572   6.259   7.003 -0.1734 -0.8788  0.5962
 3026SOL     OW10845   4.400   5.871   6.373 -0.9330  0.6725  0.5504
 3026SOL    HW110846   4.348   5.943   6.338 -0.0516  1.1748  0.2529
 3026SOL    HW210847   4.439   5.830   6.296 -1.5224 -0.2077  0.7065
 3027SOL     OW10848   0.222   7.200   7.382  0.1682  0.4643 -0.4738
 3027SOL    HW110849   0.210   7.137   7.453 -0.7800  1.3323  0.1720
 3027SOL    HW210850   0.311   7.183   7.349  0.1124 -0.8642 -0.0092
 3028SOL     OW10851   5.231   5.966   0.478 -0.3536 -0.6220 -0.5791
 3028SOL    HW110852   5.278   6.048   0.490 -0.9286 -0.3957  0.2419
 3028SOL    HW210853   5.139   5.988   0.494 -0.3819 -1.6580  0.9106
 3029SOL     OW10854   2.718   7.476   8.685 -0.3002 -0.1753 -0.7130
 3029SOL    HW110855   2.686   7.564   8.666 -0.0517  0.0851  0.0448
 3029SOL    HW210856   2.643   7.431   8.723 -0.3033 -0.1520 -0.6910
 3030SOL     OW10857   3.696   0.842   1.832  0.2033  0.0825 -0.3387
 3030SOL    HW110858   3.763   0.884   1.778 -0.1548  0.8502 -0.1986
 3030SOL    HW210859   3.746   0.793   1.898  0.6309 -0.0436 -0.7538
 3031SOL     OW10860   8.535   6.339   0.051  0.0238  0.0881  0.1548
 3031SOL    HW110861   8.616   6.297   0.024 -0.3182 -0.0494 -0.6871
 3031SOL    HW210862   8.501   6.283   0.121 -0.5811 -1.2462 -1.1647
 3032SOL     OW10863   2.758   5.615   6.199  0.2348  0.3165  0.1677
 3032SOL    HW110864   2.779   5.700   6.239  1.4859  1.1400 -2.0545
 3032SOL    HW210865   2.829   5.558   6.228  1.2641  0.9686 -0.9506
 3033SOL     OW10866   6.529   7.089   7.110  0.3591 -0.2898 -0.1747
 3033SOL    HW110867   6.620   7.087   7.081  0.2682  0.0431 -0.4902
 3033SOL    HW210868   6.531   7.138   7.192  0.4445 -0.1629 -0.2527
 3034SOL     OW10869   0.259   9.378   3.644  0.2816 -0.3373  0.2969
 3034SOL    HW110870   0.164   9.387   3.638  0.3232  0.5757  0.8521
 3034SOL    HW210871   0.284   9.429   3.720  1.3275  0.2435 -0.3995
 3035SOL     OW10872   2.482   9.593   2.778 -0.6864 -0.3334 -0.1991
 3035SOL    HW110873   2.548   9.600   2.847 -1.3749  0.3758  0.4001
 3035SOL    HW210874   2.408   9.646   2.809 -0.7830  0.5084 -1.7503
 3036SOL     OW10875   1.052   0.944   2.235  0.2386  0.0185  0.1714
 3036SOL    HW110876   1.113   1.008   2.272  0.9549  0.3702 -1.5161
 3036SOL    HW210877   0.966   0.983   2.250  0.5754  0.7234  0.3688
 3037SOL     OW10878   8.428   0.503   6.608  0.2487 -0.4663 -0.4523
 3037SOL    HW110879   8.334   0.486   6.596  0.5178 -0.9659 -2.0809
 3037SOL    HW210880   8.460   0.428   6.657 -0.5108  0.6417  1.9332
 3038SOL     OW10881   0.294   6.076   6.268 -0.0114  0.0194 -0.0214
 3038SOL    HW110882   0.383   6.048   6.244 -0.1296 -0.6533  0.3136
 3038SOL    HW210883   0.253   6.101   6.185  0.2065 -0.4844 -0.2826
 3039SOL     OW10884   8.760   1.268   5.845 -0.3829 -0.5365  0.3307
 3039SOL    HW110885   8.775   1.179   5.813  0.2181 -0.1276 -0.5709
 3039SOL    HW210886   8.846   1.309   5.843 -0.9216  0.6349 -1.0918
 3040SOL     OW10887   4.288   4.803   7.833 -0.0603  0.2636  0.0345
 3040SOL    HW110888   4.217   4.810   7.770 -0.0971 -2.3639 -0.3187
 3040SOL    HW210889   4.367   4.801   7.779  0.1504  1.0731  0.2967
 3041SOL     OW10890   8.918   5.774   4.908 -0.1799  0.3217 -0.2443
 3041SOL    HW110891   8.852   5.759   4.840 -0.1001 -0.4689 -0.1595
 3041SOL    HW210892   8.997   5.800   4.860  0.3017 -1.6151 -0.6099
 3042SOL     OW10893   8.115   7.825   5.205 -0.6346  0.3093 -0.1372
 3042SOL    HW110894   8.200   7.791   5.177  0.0128  1.5471  0.2537
 3042SOL    HW210895   8.052   7.786   5.144  0.2892 -0.0486 -0.8839
 3043SOL     OW10896   6.126   3.438   0.097 -0.0931 -0.0756  0.1966
 3043SOL    HW110897   6.095   3.515   0.050  0.3670 -0.3087 -0.5011
 3043SOL    HW210898   6.046   3.391   0.122 -0.5541  1.9258  2.9547
 3044SOL     OW10899   8.662   8.466   9.208  0.0411 -0.1973  0.3442
 3044SOL    HW110900   8.641   8.478   9.116  1.4964  0.4144  0.0728
 3044SOL    HW210901   8.688   8.553   9.239 -0.3027 -0.4182  1.3087
 3045SOL     OW10902   0.150   0.643   6.170  0.0815 -0.0848  0.5844
 3045SOL    HW110903   0.193   0.728   6.174  0.6426 -0.4090  2.6947
 3045SOL    HW210904   0.174   0.607   6.085 -1.4858  2.4834 -1.0608
 3046SOL     OW10905   8.373   7.814   1.891  0.3484  0.0619  0.2220
 3046SOL    HW110906   8.361   7.805   1.797 -0.1129 -2.0017  0.4266
 3046SOL    HW210907   8.456   7.861   1.900 -0.0258  1.0689 -1.1756
 3047SOL     OW10908   7.004   7.050   7.965 -0.3010 -0.0786 -0.1422
 3047SOL    HW110909   6.960   7.096   7.894 -0.2546 -0.6678 -0.5569
 3047SOL    HW210910   7.090   7.090   7.970 -1.0320  1.4687  1.0403
 3048SOL     OW10911   0.061   3.676   4.655 -0.1552 -0.0801  0.3522
 3048SOL    HW110912  -0.017   3.678   4.601  0.3136 -1.4831 -0.4151
 3048SOL    HW210913   0.057   3.593   4.702  1.7276 -1.0416 -1.0596
 3049SOL     OW10914   2.670   0.028   5.165  0.2137  0.1487  0.1963
 3049SOL    HW110915   2.630  -0.010   5.243  2.3525 -1.4572  0.6285
 3049SOL    HW210916   2.714   0.107   5.195  0.5881 -0.1813  0.5215
 3050SOL     OW10917   8.962   5.791   6.464 -0.5507  0.0701 -0.2652
 3050SOL    HW110918   8.920   5.865   6.420 -0.0110 -1.0152 -2.7561
 3050SOL    HW210919   8.890   5.749   6.513 -1.4817  0.5744 -1.1562
 3051SOL     OW10920   0.743   8.081   0.891  0.1472 -0.3655  0.2180
 3051SOL    HW110921   0.658   8.052   0.925  0.1601 -0.7390 -0.0566
 3051SOL    HW210922   0.738   8.176   0.894 -0.5450 -0.3710 -0.4204
 3052SOL     OW10923   4.172   2.298   1.894 -0.0442  0.2493 -0.1488
 3052SOL    HW110924   4.158   2.234   1.964 -0.7871 -0.9505 -1.3361
 3052SOL    HW210925   4.134   2.379   1.927  0.0764 -0.1586  1.0360
 3053SOL     OW10926   5.115   7.439   4.000  0.1977  0.3100  0.7087
 3053SOL    HW110927   5.106   7.394   4.084  0.1451  0.9253  1.0416
 3053SOL    HW210928   5.208   7.460   3.994  0.4447 -0.8773 -0.0045
 3054SOL     OW10929   3.657   6.541   5.061 -0.0243 -0.0254 -0.0811
 3054SOL    HW110930   3.676   6.522   5.153  0.2890  0.0952 -0.1183
 3054SOL    HW210931   3.706   6.621   5.043  0.9269 -0.7339 -0.6992
 3055SOL     OW10932   5.161   0.130   1.618  0.1046  0.1153  0.1022
 3055SOL    HW110933   5.238   0.119   1.674 -1.4173  0.1215  2.3284
 3055SOL    HW210934   5.087   0.113   1.676 -1.7037  2.8701 -1.2022
 3056SOL     OW10935   7.076   8.659   5.949 -0.1094 -0.0580  0.8159
 3056SOL    HW110936   7.051   8.673   5.858  0.5482  1.5623  0.8578
 3056SOL    HW210937   7.061   8.565   5.964  0.7485 -0.5787 -1.2654
 3057SOL     OW10938   4.507   1.681   6.760 -0.3477 -0.0855 -0.0119
 3057SOL    HW110939   4.417   1.668   6.731 -0.5159  0.9256  0.0180
 3057SOL    HW210940   4.533   1.597   6.797 -1.3776 -0.2996  0.2464
 3058SOL     OW10941   0.585   1.546   1.960 -0.0995 -0.7414 -0.4710
 3058SOL    HW110942   0.672   1.536   1.920  0.6764 -1.1387  1.1848
 3058SOL    HW210943   0.604   1.575   2.049 -1.6882 -0.7153 -0.1216
 3059SOL     OW10944   7.632   9.103   0.797  0.4086  0.1818 -0.3915
 3059SOL    HW110945   7.658   9.190   0.766  0.4925  0.7603  1.1651
 3059SOL    HW210946   7.586   9.063   0.723 -0.0448  1.7370 -0.9903
 3060SOL     OW10947   1.938   4.609   6.569  0.2652 -0.2424 -0.6510
 3060SOL    HW110948   1.892   4.538   6.615  1.4822 -1.0230 -0.5861
 3060SOL    HW210949   1.873   4.679   6.561 -0.7620 -1.1093 -0.1085
 3061SOL     OW10950   4.455   4.713   2.689 -0.0451  0.0151  0.3202
 3061SOL    HW110951   4.373   4.665   2.687  0.2501 -0.5511 -2.8065
 3061SOL    HW210952   4.438   4.786   2.749 -3.3119  0.6909 -1.2031
 3062SOL     OW10953   5.157   2.268   3.252  0.2137  0.1745 -0.2771
 3062SOL    HW110954   5.124   2.181   3.275  0.6093 -0.0615 -0.5923
 3062SOL    HW210955   5.198   2.256   3.167  0.1457  0.7042 -0.3874
 3063SOL     OW10956   8.110   7.615   8.916  0.0963  0.0884 -0.3507
 3063SOL    HW110957   8.032   7.667   8.894  0.4734  0.0834 -1.8617
 3063SOL    HW210958   8.104   7.538   8.860  0.9634 -0.1287 -0.1644
 3064SOL     OW10959   4.685   7.713   1.552  0.1875  0.0827  0.0630
 3064SOL    HW110960   4.764   7.659   1.546 -0.1356 -0.7535  2.2343
 3064SOL    HW210961   4.675   7.730   1.646 -2.6449 -0.5799 -0.0221
 3065SOL     OW10962   0.152   4.325   3.111  0.0203  0.6280  0.1280
 3065SOL    HW110963   0.185   4.412   3.090 -0.9928  0.9719 -0.1054
 3065SOL    HW210964   0.072   4.317   3.060 -0.1015 -0.2895  0.4489
 3066SOL     OW10965   3.383   5.260   8.938  0.5360  0.1051 -0.6350
 3066SOL    HW110966   3.374   5.329   8.873  1.6502  0.9950  0.1368
 3066SOL    HW210967   3.370   5.179   8.888  0.9597  0.7781 -1.8817
 3067SOL     OW10968   6.162   0.471   8.529  0.2460  0.1180 -0.1525
 3067SOL    HW110969   6.212   0.435   8.456 -0.8731  0.3967 -1.0856
 3067SOL    HW210970   6.101   0.401   8.552  0.2986  0.1953  0.2234
 3068SOL     OW10971   8.919   6.065   2.562 -0.2733  0.4636  0.2556
 3068SOL    HW110972   8.926   6.031   2.652 -0.8963 -0.5469 -0.0573
 3068SOL    HW210973   8.941   6.158   2.570  1.6989 -0.0292  1.1214
 3069SOL     OW10974   6.972   5.336   3.318  0.1466 -0.2419  0.2078
 3069SOL    HW110975   6.964   5.272   3.389 -1.8654  1.4946  1.6834
 3069SOL    HW210976   6.939   5.418   3.355  0.7277  1.1987 -2.2098
 3070SOL     OW10977   8.598   6.128   6.345  0.0508  0.9738 -0.1960
 3070SOL    HW110978   8.583   6.038   6.314 -0.5049  1.1312 -0.4012
 3070SOL    HW210979   8.583   6.182   6.267  1.7748  1.1663 -0.4480
 3071SOL     OW10980   3.021   7.748   1.161 -0.2178 -0.3223  0.2553
 3071SOL    HW110981   3.014   7.808   1.086 -0.4099  0.5033  0.9215
 3071SOL    HW210982   3.053   7.803   1.232  0.4197 -1.2066  0.6647
 3072SOL     OW10983   8.036   2.023   0.987 -0.7192  0.0778  0.2495
 3072SOL    HW110984   7.965   2.086   0.999 -0.0885  1.0883 -1.0414
 3072SOL    HW210985   7.995   1.938   1.004 -1.7925  0.7517  1.2262
 3073SOL     OW10986   0.867   4.711   9.211 -0.4299  0.5607 -0.2199
 3073SOL    HW110987   0.870   4.658   9.291  1.2854 -0.1003 -0.6718
 3073SOL    HW210988   0.858   4.646   9.141  1.5876  0.8180 -0.7761
 3074SOL     OW10989   6.452   4.540   9.124  0.2908 -0.0046 -0.5864
 3074SOL    HW110990   6.364   4.506   9.111  0.4421 -0.5374 -0.2435
 3074SOL    HW210991   6.442   4.635   9.118 -0.5702  0.0237  0.9338
 3075SOL     OW10992   2.782   9.411   0.064 -0.0883 -0.1206  0.5063
 3075SOL    HW110993   2.837   9.378   0.135  0.0354 -1.1117 -0.0338
 3075SOL    HW210994   2.822   9.375  -0.016 -1.4767 -0.8061  0.0963
 3076SOL     OW10995   3.632   2.470   5.689  0.1858  0.5932  0.1008
 3076SOL    HW110996   3.611   2.390   5.641 -0.4271  0.3160  0.8033
 3076SOL    HW210997   3.595   2.540   5.635 -1.7899  0.1856  0.8125
 3077SOL     OW10998   2.931   4.336   2.856 -0.0286  0.1927  0.1885
 3077SOL    HW110999   2.845   4.304   2.884  0.3795 -0.2160  1.0143
 3077SOL    HW211000   2.912   4.414   2.804 -0.9558 -0.5018 -0.5437
 3078SOL     OW11001   6.302   6.965   8.110  0.1365 -0.0919 -0.1073
 3078SOL    HW111002   6.274   6.882   8.150 -0.6177  0.8230  1.3279
 3078SOL    HW211003   6.268   6.961   8.020 -0.5405 -1.0159  0.1747
 3079SOL     OW11004   6.150   5.527   9.225  0.5480  0.4244  0.0444
 3079SOL    HW111005   6.153   5.489   9.313  3.6732 -2.9832 -1.2845
 3079SOL    HW211006   6.079   5.480   9.181  0.0637  0.9594  0.2387
 3080SOL     OW11007   9.234   0.823   2.127 -0.2387 -0.1773  0.0945
 3080SOL    HW111008   9.163   0.764   2.150  0.9181 -0.7893  2.3794
 3080SOL    HW211009   9.312   0.767   2.125  0.1142  0.1283 -3.9408
 3081SOL     OW11010   3.063   7.966   1.353 -0.4348 -0.1226 -0.5261
 3081SOL    HW111011   3.053   8.023   1.276 -1.0822  0.1289 -0.2656
 3081SOL    HW211012   3.077   8.026   1.426 -2.0403 -0.2117 -0.0961
 3082SOL     OW11013   5.312   1.073   7.717 -0.2038 -0.1231 -0.4507
 3082SOL    HW111014   5.285   1.026   7.639  1.6772 -1.2763 -0.4739
 3082SOL    HW211015   5.397   1.035   7.740  0.3744  1.7774  0.8160
 3083SOL     OW11016   1.124   3.696   2.831 -0.6747 -0.2415  0.1568
 3083SOL    HW111017   1.096   3.671   2.919 -2.0925  1.5458  0.2582
 3083SOL    HW211018   1.106   3.790   2.825 -1.0662 -0.3983 -2.1903
 3084SOL     OW11019   3.596   6.972   2.069  0.0020  0.0609  0.0789
 3084SOL    HW111020   3.677   6.989   2.117 -0.8550  0.3513  1.4702
 3084SOL    HW211021   3.581   6.878   2.080  0.6552 -0.1916 -1.0361
 3085SOL     OW11022   9.013   9.688   7.969  0.3255 -0.0027  0.1984
 3085SOL    HW111023   8.981   9.631   7.899 -1.8370  0.0429  1.0682
 3085SOL    HW211024   9.070   9.751   7.925  2.0973 -2.2558 -0.9031
 3086SOL     OW11025   0.136   4.996   0.412  0.3241 -0.9255  0.4277
 3086SOL    HW111026   0.046   5.021   0.396 -0.1520 -2.2026  0.9544
 3086SOL    HW211027   0.138   4.971   0.505  1.3587 -0.3532  0.5797
 3087SOL     OW11028   0.481   7.176   5.682 -0.1022 -1.3075 -0.0946
 3087SOL    HW111029   0.391   7.145   5.687 -0.8772  0.5368 -1.5280
 3087SOL    HW211030   0.474   7.265   5.648  2.2108 -0.7386  0.7422
 3088SOL     OW11031   2.793   2.435   8.009 -0.4595 -0.4073  0.3837
 3088SOL    HW111032   2.879   2.398   8.030  0.0623  0.3440 -0.3669
 3088SOL    HW211033   2.812   2.520   7.970 -1.6611  1.1245  2.8603
 3089SOL     OW11034   3.811   6.876   8.189  0.5450  0.0727 -0.0503
 3089SOL    HW111035   3.798   6.810   8.121 -1.8902 -0.1555  0.5393
 3089SOL    HW211036   3.879   6.934   8.154  1.6236 -1.8202 -1.2663
 3090SOL     OW11037   0.127   2.780   1.207 -0.9163  0.3531 -0.5969
 3090SOL    HW111038   0.209   2.744   1.241 -2.3805 -0.3937  2.5448
 3090SOL    HW211039   0.154   2.856   1.155  1.7702  0.0928  0.2451
 3091SOL     OW11040   0.657   1.007   0.560 -0.1811 -0.3953  0.0216
 3091SOL    HW111041   0.685   1.037   0.473 -2.8741 -0.5276 -0.9905
 3091SOL    HW211042   0.615   0.923   0.544  0.3736 -1.0192  1.6654
 3092SOL     OW11043   4.292   8.673   4.781  0.3563 -0.1215 -0.1962
 3092SOL    HW111044   4.227   8.617   4.739 -0.1126 -0.8030  1.3394
 3092SOL    HW211045   4.376   8.629   4.766  0.0793 -0.8526  0.3633
 3093SOL     OW11046   4.798   0.287   3.760  0.1066 -0.3126 -0.0229
 3093SOL    HW111047   4.742   0.345   3.811  0.1986 -0.2429  0.0002
 3093SOL    HW211048   4.738   0.237   3.705 -0.0222 -0.6011  0.3679
 3094SOL     OW11049   9.512   7.771   6.660 -0.0752 -0.2749 -0.4573
 3094SOL    HW111050   9.509   7.715   6.737  1.2984  0.0190 -0.1648
 3094SOL    HW211051   9.506   7.711   6.586 -0.9073 -0.5962 -0.1442
 3095SOL     OW11052   1.628   3.486   6.336 -0.6101 -0.8097  0.1957
 3095SOL    HW111053   1.633   3.535   6.418 -1.5269 -1.9113  0.9320
 3095SOL    HW211054   1.551   3.522   6.291 -0.1391 -0.2435 -0.1734
 3096SOL     OW11055   6.736   6.260   6.966 -0.2188  0.0364  0.0608
 3096SOL    HW111056   6.787   6.249   7.047  1.6047 -1.0111 -1.1533
 3096SOL    HW211057   6.726   6.171   6.932 -0.5932  0.4891 -1.0703
 3097SOL     OW11058   8.253   6.077   8.725 -0.4181 -0.2278 -0.0390
 3097SOL    HW111059   8.343   6.081   8.693 -0.8593 -1.6856 -1.6289
 3097SOL    HW211060   8.199   6.085   8.646 -1.6907  0.4508  0.8629
 3098SOL     OW11061   1.706   1.975   3.597  0.3171  0.4534  0.0815
 3098SOL    HW111062   1.676   1.925   3.520  3.4903  1.8667 -2.3374
 3098SOL    HW211063   1.722   1.908   3.664  0.5711 -1.3269 -1.6453
 3099SOL     OW11064   8.242   0.003   5.559 -0.3232  0.1841 -0.0464
 3099SOL    HW111065   8.291   0.058   5.497 -1.5627 -0.0070 -1.2578
 3099SOL    HW211066   8.171  -0.033   5.506 -0.8918 -0.7208  1.3065
 3100SOL     OW11067   8.129   3.523   6.267  0.0967 -0.3190  0.2622
 3100SOL    HW111068   8.129   3.432   6.239  0.8273  0.3420 -2.1194
 3100SOL    HW211069   8.217   3.537   6.303 -0.2085 -0.6672  1.1860
 3101SOL     OW11070   7.649   7.216   2.417 -0.3902 -0.4070 -0.1739
 3101SOL    HW111071   7.663   7.121   2.422  0.0609 -0.5561 -3.0117
 3101SOL    HW211072   7.626   7.241   2.507  0.7164 -2.9746  0.9218
 3102SOL     OW11073   1.525   0.803   1.312 -0.5467 -0.4720 -0.2054
 3102SOL    HW111074   1.528   0.730   1.374 -0.1302 -0.7759 -0.5792
 3102SOL    HW211075   1.615   0.834   1.306 -0.9696  1.2322  1.2844
 3103SOL     OW11076   6.580   0.561   3.369  0.4512 -0.0404 -0.5685
 3103SOL    HW111077   6.593   0.511   3.289 -0.2189 -1.1835  0.0140
 3103SOL    HW211078   6.625   0.509   3.436  0.1892  0.4104 -0.0429
 3104SOL     OW11079   6.837   5.191   4.876  0.0197 -0.2585 -0.0147
 3104SOL    HW111080   6.923   5.219   4.845 -0.2932 -0.8642 -1.4715
 3104SOL    HW211081   6.795   5.153   4.800 -1.5811  0.0825  0.6619
 3105SOL     OW11082   1.757   8.130   4.569 -0.7902 -0.3779 -0.1232
 3105SOL    HW111083   1.785   8.051   4.522  0.3584 -1.2534  1.9020
 3105SOL    HW211084   1.669   8.148   4.535 -1.5362 -3.1622  0.0819
 3106SOL     OW11085   0.495   7.116   8.847 -0.7234  0.6761 -0.1369
 3106SOL    HW111086   0.436   7.170   8.794  0.6406  0.5167 -1.8897
 3106SOL    HW211087   0.566   7.092   8.788  0.4533 -0.2200  1.5558
 3107SOL     OW11088   2.235   2.325   2.751  0.2798  0.1929  0.4313
 3107SOL    HW111089   2.290   2.390   2.708  0.4194  1.1411  1.9932
 3107SOL    HW211090   2.293   2.283   2.815  0.7661 -2.8905 -1.7940
 3108SOL     OW11091   5.088   6.214   4.929  0.2085 -0.3051 -0.2465
 3108SOL    HW111092   5.012   6.271   4.921  0.2015 -0.3801 -0.8018
 3108SOL    HW211093   5.145   6.259   4.992  0.5582  0.7389 -1.2519
 3109SOL     OW11094   7.494   2.821   5.580 -0.1948  0.3205  0.1707
 3109SOL    HW111095   7.551   2.780   5.645  0.6930  0.2031 -0.6767
 3109SOL    HW211096   7.405   2.799   5.610  0.2143 -2.8178 -0.5898
 3110SOL     OW11097   6.217   4.997   3.006  0.0013  0.0352  0.6371
 3110SOL    HW111098   6.296   5.007   2.952 -0.0109  2.1672  0.9106
 3110SOL    HW211099   6.145   4.996   2.944  0.0972  0.6828  0.5113
 3111SOL     OW11100   7.593   5.151   6.144 -0.5933 -0.5236 -0.1605
 3111SOL    HW111101   7.593   5.202   6.062 -1.3360  1.8819  1.2379
 3111SOL    HW211102   7.597   5.060   6.115 -2.4618  0.1475 -2.9650
 3112SOL     OW11103   1.992   4.067   2.061 -0.1106 -0.2238 -0.1945
 3112SOL    HW111104   2.032   4.149   2.030  1.5061  0.0640  2.2857
 3112SOL    HW211105   1.898   4.082   2.056  0.1526  1.5672 -0.4151
 3113SOL     OW11106   2.410   8.715   5.484  0.7251  0.5046 -0.0498
 3113SOL    HW111107   2.382   8.626   5.466 -1.4964  0.8465  1.3918
 3113SOL    HW211108   2.498   8.721   5.446  0.6635 -2.0699 -0.7344
 3114SOL     OW11109   7.202   3.753   3.919 -0.4286  0.9445  0.0102
 3114SOL    HW111110   7.253   3.695   3.863 -0.2954  1.6664 -0.6453
 3114SOL    HW211111   7.185   3.703   3.998 -2.3295 -0.8936 -1.4359
 3115SOL     OW11112   2.405   0.089   9.738  0.4403 -0.0495  0.0967
 3115SOL    HW111113   2.398  -0.003   9.715 -0.6682  0.4513 -1.8368
 3115SOL    HW211114   2.489   0.117   9.702  0.8102 -0.3128  0.7488
 3116SOL     OW11115   3.654   6.014   1.283  0.1569 -0.1038  0.1661
 3116SOL    HW111116   3.680   5.941   1.340 -0.8937  0.0437  0.8585
 3116SOL    HW211117   3.569   5.988   1.247  1.0181 -0.4240 -1.7928
 3117SOL     OW11118   6.904   4.210   2.944 -1.3688  0.0795 -0.1507
 3117SOL    HW111119   6.839   4.233   2.877 -0.1101  0.9940 -1.1101
 3117SOL    HW211120   6.857   4.152   3.004 -3.0952  0.7823 -0.7472
 3118SOL     OW11121   4.678   7.469   6.246  0.0305  0.1168  0.2266
 3118SOL    HW111122   4.646   7.418   6.171  1.7898 -1.0857  0.2134
 3118SOL    HW211123   4.743   7.529   6.208 -0.2899  0.6871  0.5707
 3119SOL     OW11124   2.463   5.400   6.475 -0.1645 -0.0674  0.5696
 3119SOL    HW111125   2.520   5.358   6.411 -0.1102  0.6361  0.1405
 3119SOL    HW211126   2.397   5.446   6.422  0.6655  1.6339  0.9431
 3120SOL     OW11127   8.862   7.960   0.963  0.2494  0.1823  0.1326
 3120SOL    HW111128   8.829   7.872   0.982  1.2168 -0.0373  0.8844
 3120SOL    HW211129   8.933   7.973   1.027  1.1956  0.8659 -1.0223
 3121SOL     OW11130   4.802   5.563   4.004  0.0611  0.9699  0.3335
 3121SOL    HW111131   4.879   5.609   3.972  1.0334 -0.5425  0.3691
 3121SOL    HW211132   4.813   5.473   3.972 -1.1279  0.4555  1.2703
 3122SOL     OW11133   0.473   8.418   5.695 -0.2861 -0.5354 -0.2599
 3122SOL    HW111134   0.476   8.393   5.787 -0.7628  0.0125 -0.0898
 3122SOL    HW211135   0.561   8.401   5.663  0.3053  0.6183  0.6694
 3123SOL     OW11136   5.566   9.619   5.175 -0.1862 -0.0412  0.2258
 3123SOL    HW111137   5.500   9.684   5.149 -0.1279  0.4965  1.3654
 3123SOL    HW211138   5.650   9.660   5.152 -0.1665  0.1062  0.5617
 3124SOL     OW11139   1.870   4.560   0.780  0.1804  0.0210  0.0864
 3124SOL    HW111140   1.887   4.568   0.873 -0.2852  0.7674  0.1083
 3124SOL    HW211141   1.855   4.466   0.766  0.6436 -0.1468  0.6855
 3125SOL     OW11142   0.909   7.611   7.774  0.0590  0.5095 -0.3298
 3125SOL    HW111143   0.992   7.636   7.814 -0.0139  1.3430 -0.6954
 3125SOL    HW211144   0.857   7.691   7.772 -0.6787  0.0405 -0.2961
 3126SOL     OW11145   1.072   4.164   5.618 -0.2552 -0.1231  0.9062
 3126SOL    HW111146   1.153   4.152   5.568 -0.3554  1.7466  0.1954
 3126SOL    HW211147   1.099   4.211   5.697 -0.4197 -1.0631  1.5324
 3127SOL     OW11148   5.074   4.638   9.167 -0.1977  0.1163 -0.7696
 3127SOL    HW111149   4.996   4.653   9.220 -0.1329  0.8597 -0.8765
 3127SOL    HW211150   5.131   4.712   9.186  0.9974 -1.0026  0.1982
 3128SOL     OW11151   2.884   7.270   8.649  0.0228 -0.4630  0.5044
 3128SOL    HW111152   2.826   7.344   8.662 -1.5368 -1.3362 -1.0463
 3128SOL    HW211153   2.843   7.198   8.697  0.2300 -0.9113  0.0258
 3129SOL     OW11154   1.659   3.814   9.705 -0.1033  0.0155 -0.1731
 3129SOL    HW111155   1.729   3.825   9.640 -1.8725  0.9939 -2.0122
 3129SOL    HW211156   1.666   3.892   9.761  0.5206 -0.1099 -0.0647
 3130SOL     OW11157   1.048   4.359   1.426 -0.0575 -0.1847  0.3205
 3130SOL    HW111158   1.074   4.301   1.355 -1.8081 -0.9147  0.2162
 3130SOL    HW211159   1.044   4.446   1.386 -1.9085 -0.7240 -0.7668
 3131SOL     OW11160   1.813   8.260   1.449  0.1311  0.6612  0.1806
 3131SOL    HW111161   1.875   8.200   1.490 -0.9889 -0.6461  0.0437
 3131SOL    HW211162   1.732   8.210   1.443 -0.3914  1.6177 -1.4774
 3132SOL     OW11163   5.751   6.665   4.694  0.7868  0.0623  0.2326
 3132SOL    HW111164   5.672   6.707   4.728 -0.1747 -1.8555  0.5201
 3132SOL    HW211165   5.721   6.619   4.615  0.3751 -4.3695  2.6139
 3133SOL     OW11166   9.048   5.659   7.979 -0.4153  0.5508  0.6555
 3133SOL    HW111167   9.136   5.697   7.986  0.7442 -1.2983 -1.9441
 3133SOL    HW211168   9.013   5.693   7.897 -1.1909 -0.4269  0.5579
 3134SOL     OW11169   5.986   3.991   7.067 -0.0540 -0.3320 -0.4103
 3134SOL    HW111170   5.945   3.919   7.114 -0.7761 -0.3804 -1.0953
 3134SOL    HW211171   5.923   4.015   6.999  1.3779 -0.9593 -2.0280
 3135SOL     OW11172   8.332   8.968   5.542  0.2312  0.2977  0.2030
 3135SOL    HW111173   8.400   9.022   5.501  0.3564 -0.4113 -0.5525
 3135SOL    HW211174   8.323   8.893   5.484 -1.9280  0.8597 -0.2834
 3136SOL     OW11175   6.170   3.227   3.968 -0.3420 -0.1489 -0.3723
 3136SOL    HW111176   6.202   3.203   4.055 -1.8391  2.0396  0.8821
 3136SOL    HW211177   6.201   3.157   3.911 -0.5038 -2.4532  2.1501
 3137SOL     OW11178   5.917   0.858   6.646 -1.0366 -0.2909 -0.1345
 3137SOL    HW111179   5.896   0.829   6.557 -1.7794  1.2115 -0.4777
 3137SOL    HW211180   5.833   0.858   6.692 -1.6533  3.6260 -0.8851
 3138SOL     OW11181   3.805   9.213   2.064  0.0000  0.0961 -0.3825
 3138SOL    HW111182   3.786   9.305   2.045  0.6648  0.1447 -0.8469
 3138SOL    HW211183   3.818   9.210   2.158 -2.7884 -0.0400  0.0820
 3139SOL     OW11184   2.787   4.369   3.355  0.4844 -0.1071  0.3500
 3139SOL    HW111185   2.831   4.319   3.425  0.9361 -0.7226 -0.3494
 3139SOL    HW211186   2.747   4.302   3.300  1.5421  0.2447 -0.9042
 3140SOL     OW11187   3.502   6.845   6.422  0.1052  0.4978  0.1769
 3140SOL    HW111188   3.561   6.920   6.428 -0.7183  1.0640  1.8148
 3140SOL    HW211189   3.421   6.881   6.387 -0.3323  0.4093  1.0842
 3141SOL     OW11190   1.130   7.755   3.275  0.3977 -0.3372 -0.1559
 3141SOL    HW111191   1.156   7.806   3.351  0.6786  0.4893 -0.7881
 3141SOL    HW211192   1.039   7.731   3.292 -0.4595  2.2128 -0.7662
 3142SOL     OW11193   2.227   5.400   2.174 -0.2829  0.3695  0.2423
 3142SOL    HW111194   2.198   5.309   2.177  2.2256 -0.4950  0.1479
 3142SOL    HW211195   2.271   5.409   2.089  0.2220  1.4339  0.5928
 3143SOL     OW11196   5.054   4.752   8.594 -0.2499  0.1253 -0.7952
 3143SOL    HW111197   5.049   4.691   8.520 -1.6567  1.2878 -1.7062
 3143SOL    HW211198   5.142   4.790   8.587  0.3894 -1.2360 -0.6262
 3144SOL     OW11199   1.236   5.637   7.048  0.6399  0.5940  0.3765
 3144SOL    HW111200   1.247   5.565   6.986  1.8371  0.4566  0.7254
 3144SOL    HW211201   1.310   5.695   7.030  0.7668  0.7680  1.3941
 3145SOL     OW11202   2.920   4.101   6.838  0.3695 -0.1256 -0.3063
 3145SOL    HW111203   2.883   4.177   6.793 -0.8513 -0.0487  0.7554
 3145SOL    HW211204   2.885   4.026   6.790 -2.4379 -0.1033  1.4563
 3146SOL     OW11205   3.711   6.653   2.564  0.1048 -0.4788 -0.4158
 3146SOL    HW111206   3.702   6.558   2.567  0.6712 -0.5380 -0.4975
 3146SOL    HW211207   3.657   6.680   2.490 -0.7647 -0.6417  0.1481
 3147SOL     OW11208   4.348   5.586   7.791 -0.2735 -0.2778  0.0733
 3147SOL    HW111209   4.432   5.590   7.745 -0.8067  1.5234 -0.8359
 3147SOL    HW211210   4.353   5.656   7.856 -1.1554 -0.0082 -0.1420
 3148SOL     OW11211   8.822   0.053   2.515  0.0177  0.5663 -0.0539
 3148SOL    HW111212   8.836   0.021   2.605 -0.8349  2.4291  0.7816
 3148SOL    HW211213   8.905   0.094   2.491  0.7225 -1.1298 -0.6947
 3149SOL     OW11214   7.350   1.246   4.418 -0.2763 -0.1681 -0.4018
 3149SOL    HW111215   7.316   1.292   4.495 -2.3837 -0.4052 -1.1461
 3149SOL    HW211216   7.278   1.189   4.390  1.3052 -1.9178 -1.1132
 3150SOL     OW11217   5.816   9.730   5.117 -0.0537  0.0381  0.3413
 3150SOL    HW111218   5.828   9.651   5.171  0.1112  1.6279  2.7642
 3150SOL    HW211219   5.904   9.764   5.104 -0.2540  0.7418  0.7846
 3151SOL     OW11220   4.807   4.060   5.184 -0.1108 -0.3876  0.1991
 3151SOL    HW111221   4.726   4.083   5.229 -1.0748 -1.2433 -1.0073
 3151SOL    HW211222   4.778   4.016   5.104  1.5544 -0.9056 -0.1655
 3152SOL     OW11223   1.551   4.567   1.540 -0.1141 -0.2960 -0.0657
 3152SOL    HW111224   1.521   4.515   1.466 -3.9985  2.5598 -0.8310
 3152SOL    HW211225   1.494   4.541   1.612 -0.4313  1.0926  0.2098
 3153SOL     OW11226   0.697   4.738   1.647  0.5068  0.6471  0.3940
 3153SOL    HW111227   0.606   4.716   1.625  0.4737 -0.4948  1.6019
 3153SOL    HW211228   0.716   4.814   1.592 -1.2641  1.0776  0.2982
 3154SOL     OW11229   6.152   6.709   4.946 -0.3018  0.1794 -0.7136
 3154SOL    HW111230   6.154   6.671   5.034 -2.1556 -0.8133 -1.0412
 3154SOL    HW211231   6.167   6.635   4.887 -0.3835  0.5953 -1.2627
 3155SOL     OW11232   2.685   1.005   3.489  0.5956 -0.2504  0.4055
 3155SOL    HW111233   2.773   0.973   3.509  0.1927 -0.9153  1.1923
 3155SOL    HW211234   2.660   1.055   3.567 -0.0862 -0.8632  0.5922
 3156SOL     OW11235   3.729   6.975   6.171 -0.1063  0.5497  0.1600
 3156SOL    HW111236   3.721   6.893   6.123 -2.0728  0.5732  0.3821
 3156SOL    HW211237   3.667   7.034   6.129  0.0289  1.3826  1.0891
 3157SOL     OW11238   2.325   2.634   6.727  0.6601  0.4442 -0.1486
 3157SOL    HW111239   2.370   2.717   6.711 -1.0751  1.4492 -0.1084
 3157SOL    HW211240   2.377   2.591   6.794  3.4189 -0.0251 -2.4388
 3158SOL     OW11241   2.668   6.005   3.368  0.4954 -0.3971 -0.1557
 3158SOL    HW111242   2.622   6.071   3.422  3.9346 -0.3227  3.1103
 3158SOL    HW211243   2.682   6.048   3.284 -0.7406  1.5279  0.5580
 3159SOL     OW11244   8.168   3.440   0.013 -0.7385 -0.5404 -0.3474
 3159SOL    HW111245   8.131   3.515  -0.035 -0.9956 -1.7634 -2.1199
 3159SOL    HW211246   8.207   3.385  -0.054  2.2848 -0.5124  1.2214
 3160SOL     OW11247   4.478   5.007   6.741  0.1040 -0.8023  0.5674
 3160SOL    HW111248   4.406   4.946   6.726 -1.2005  0.4910  1.3793
 3160SOL    HW211249   4.492   5.006   6.835  0.2462 -0.0664  0.5640
 3161SOL     OW11250   9.746   4.052   1.800 -0.3732  0.2898 -0.4234
 3161SOL    HW111251   9.781   3.976   1.752 -0.8174  0.6987 -1.4316
 3161SOL    HW211252   9.801   4.058   1.878  1.6909  0.7579 -1.8147
 3162SOL     OW11253   1.775   3.353   7.422  0.0700 -0.1520 -0.2154
 3162SOL    HW111254   1.826   3.358   7.504 -1.9393 -1.8431  1.2601
 3162SOL    HW211255   1.771   3.259   7.402 -0.9809  0.0873 -1.2488
 3163SOL     OW11256   2.337   3.663   4.187  0.3078  0.4193  0.2353
 3163SOL    HW111257   2.275   3.590   4.187  1.1287 -0.3014 -0.4325
 3163SOL    HW211258   2.317   3.711   4.267  0.4044 -1.1117  1.2140
 3164SOL     OW11259   9.847   8.096   7.962 -0.8163  0.0805  0.0978
 3164SOL    HW111260   9.869   8.073   8.053 -0.9852  1.1574  0.4272
 3164SOL    HW211261   9.808   8.183   7.968 -2.3794 -0.5151 -0.8277
 3165SOL     OW11262   8.323   6.823   6.236 -0.1688 -0.1839  0.2431
 3165SOL    HW111263   8.278   6.810   6.152  0.7607 -0.2039 -0.2702
 3165SOL    HW211264   8.278   6.896   6.277  0.0619  0.5519 -0.7805
 3166SOL     OW11265   0.470   2.296   2.960 -0.2727  0.3399  0.0046
 3166SOL    HW111266   0.481   2.307   3.054 -0.0929  2.0552 -0.1845
 3166SOL    HW211267   0.553   2.260   2.929  1.0421  3.0726  0.0665
 3167SOL     OW11268   7.819   6.657   7.203 -0.0502  0.1903 -0.4350
 3167SOL    HW111269   7.771   6.718   7.147 -1.0098 -0.5515 -0.4516
 3167SOL    HW211270   7.777   6.573   7.188  1.8974 -0.7142 -1.2029
 3168SOL     OW11271   2.877   5.796   0.204  0.2355  0.2965  0.2384
 3168SOL    HW111272   2.941   5.851   0.249 -0.9924  2.2384 -0.2556
 3168SOL    HW211273   2.858   5.843   0.122 -1.4952 -0.4191  0.1826
 3169SOL     OW11274   9.313   4.994   5.844  0.4467  0.2722  1.0080
 3169SOL    HW111275   9.220   4.989   5.866  0.6450  1.1874  2.1755
 3169SOL    HW211276   9.322   4.942   5.765 -1.5376  2.1969 -0.6175
 3170SOL     OW11277   2.892   1.329   4.698 -0.0738  0.2056  0.7470
 3170SOL    HW111278   2.820   1.269   4.713 -1.0631  1.4541  1.2172
 3170SOL    HW211279   2.941   1.291   4.625 -1.7037 -0.2514 -0.1632
 3171SOL     OW11280   5.045   7.928   6.370  0.6775  0.3132  0.3274
 3171SOL    HW111281   5.084   7.903   6.287  2.4799 -1.0609  1.5007
 3171SOL    HW211282   4.971   7.984   6.346 -0.0625 -1.5632 -2.2595
 3172SOL     OW11283   7.192   1.547   8.342  0.0660 -0.3903  0.3244
 3172SOL    HW111284   7.149   1.536   8.257  2.7416  1.2821 -1.4138
 3172SOL    HW211285   7.124   1.584   8.399 -1.3513  0.1162 -1.6124
 3173SOL     OW11286   0.850   6.926   9.204  0.3245  0.3394 -0.2308
 3173SOL    HW111287   0.914   6.902   9.137 -0.1556 -0.8437 -0.2906
 3173SOL    HW211288   0.790   6.852   9.208  0.8960 -0.0865  2.1984
 3174SOL     OW11289   3.478   7.769   4.930  0.2337 -0.3032 -0.0966
 3174SOL    HW111290   3.513   7.683   4.951  0.6512  0.4979  2.8526
 3174SOL    HW211291   3.529   7.798   4.854  2.3288 -1.3435  0.8410
 3175SOL     OW11292   1.591   8.014   7.778 -0.2010  0.0898  0.3899
 3175SOL    HW111293   1.508   7.987   7.739 -0.9214  0.5124  1.6042
 3175SOL    HW211294   1.567   8.055   7.861  1.3058 -1.0665  1.4540
 3176SOL     OW11295   9.771   5.848   3.474  0.0553 -0.2309  0.0011
 3176SOL    HW111296   9.733   5.913   3.415  0.7295  0.8326  0.7214
 3176SOL    HW211297   9.865   5.863   3.469  0.1652 -0.6000  0.8117
 3177SOL     OW11298   8.152   0.458   6.259 -0.0075 -0.1323  0.9047
 3177SOL    HW111299   8.214   0.399   6.215 -0.6014  1.2760 -2.1074
 3177SOL    HW211300   8.066   0.421   6.241 -0.2269 -0.4642  2.4933
 3178SOL     OW11301   3.353   1.142   0.883 -0.0581  0.1530  0.0742
 3178SOL    HW111302   3.382   1.208   0.946 -1.2630 -0.2074  1.0414
 3178SOL    HW211303   3.312   1.073   0.937  0.2763 -0.9088 -0.9858
 3179SOL     OW11304   4.153   3.764   4.670 -0.1940 -0.4901  0.0454
 3179SOL    HW111305   4.226   3.736   4.615  0.3181  0.4873  0.2093
 3179SOL    HW211306   4.108   3.683   4.693  0.5189 -1.0540 -0.5025
 3180SOL     OW11307   6.123   8.527   9.495  0.3164  0.1529  0.0395
 3180SOL    HW111308   6.216   8.549   9.483  0.3067  0.6326  0.7835
 3180SOL    HW211309   6.086   8.604   9.537 -1.1817  1.3817 -3.1864
 3181SOL     OW11310   2.751   0.179   8.824 -0.1726  0.3954  0.5103
 3181SOL    HW111311   2.841   0.212   8.822  0.0353 -0.2129 -0.9975
 3181SOL    HW211312   2.742   0.143   8.913  1.2485 -0.0211  0.5198
 3182SOL     OW11313   3.642   8.452   3.692  0.4887  0.5965  0.6118
 3182SOL    HW111314   3.729   8.476   3.660  0.1364  0.8409 -0.1824
 3182SOL    HW211315   3.609   8.532   3.733  0.9707  0.2620  1.6945
 3183SOL     OW11316   0.210   7.580   3.495  0.1690 -0.2240 -0.2594
 3183SOL    HW111317   0.224   7.635   3.573  2.3871 -1.4691  0.3126
 3183SOL    HW211318   0.236   7.636   3.422  3.1342 -0.6067  0.3736
 3184SOL     OW11319   7.086   5.015   4.640 -0.0752 -0.1171  0.2205
 3184SOL    HW111320   7.108   5.078   4.571  0.5650 -0.4721  0.0903
 3184SOL    HW211321   7.160   5.020   4.701 -1.0452  0.8365  1.3633
 3185SOL     OW11322   5.077   0.832   4.975 -0.3290 -0.6096 -0.0756
 3185SOL    HW111323   5.027   0.759   4.937 -0.7402 -0.4003  0.0592
 3185SOL    HW211324   5.013   0.902   4.985 -0.2498 -0.6914  1.1016
 3186SOL     OW11325   8.834   4.824   3.515  0.6925  0.0581 -0.2782
 3186SOL    HW111326   8.867   4.766   3.584  1.6221  1.1758  0.2468
 3186SOL    HW211327   8.791   4.895   3.561 -1.6485 -0.8290 -0.9386
 3187SOL     OW11328   7.184   6.944   5.351 -0.3480  0.3500  0.3316
 3187SOL    HW111329   7.243   6.911   5.419  0.2050  1.9289  0.6632
 3187SOL    HW211330   7.097   6.917   5.381 -0.2293  1.8734  2.2688
 3188SOL     OW11331   4.777   4.943   2.584  0.4874 -0.4677  0.3621
 3188SOL    HW111332   4.772   4.885   2.508  0.7378  0.3061 -0.2568
 3188SOL    HW211333   4.735   5.024   2.556  1.9390  0.3734  0.5146
 3189SOL     OW11334   0.106   6.729   4.238  0.6018  0.1467 -0.1584
 3189SOL    HW111335   0.201   6.725   4.227  0.5254 -1.2138 -0.4196
 3189SOL    HW211336   0.070   6.717   4.150  0.1779  0.2174  0.0007
 3190SOL     OW11337   1.628   8.874   1.255 -0.0638  0.0515 -0.0685
 3190SOL    HW111338   1.626   8.801   1.318  1.8590  0.9148  1.0867
 3190SOL    HW211339   1.685   8.939   1.296  0.2683  1.1699 -2.1923
 3191SOL     OW11340   2.279   6.724   8.832 -0.2053  0.2460  0.0037
 3191SOL    HW111341   2.361   6.707   8.787  0.6292  2.3088  0.6071
 3191SOL    HW211342   2.216   6.666   8.790  1.9608 -3.1994  1.0822
 3192SOL     OW11343   7.480   2.545   2.105  0.1617 -0.3488  0.1621
 3192SOL    HW111344   7.422   2.477   2.137 -0.3441 -1.1620 -2.2378
 3192SOL    HW211345   7.422   2.606   2.059  0.8647  0.5201  0.3874
 3193SOL     OW11346   2.760   5.513   5.178  0.3984  0.2105 -0.1925
 3193SOL    HW111347   2.686   5.541   5.124 -1.0061 -0.8626  1.0909
 3193SOL    HW211348   2.815   5.461   5.118  0.1340  1.0171 -1.1633
 3194SOL     OW11349   2.758   8.638   1.960  0.5734  0.0312 -0.1227
 3194SOL    HW111350   2.775   8.567   2.022  0.0233 -0.1384 -0.1632
 3194SOL    HW211351   2.789   8.716   2.006 -1.0860  0.1012  0.9662
 3195SOL     OW11352   7.399   8.089   0.761 -0.0471  0.4325 -0.1843
 3195SOL    HW111353   7.473   8.149   0.756 -0.4068  0.8382 -0.6634
 3195SOL    HW211354   7.412   8.029   0.688 -0.3858  0.7328 -0.4945
 3196SOL     OW11355   5.959   9.014   7.898  0.6953  0.1481  0.5346
 3196SOL    HW111356   5.926   9.022   7.988  1.5462  0.9982  0.7906
 3196SOL    HW211357   5.881   9.022   7.843  0.2312  0.1702  1.1848
 3197SOL     OW11358   5.051   3.979   9.441 -0.1367  0.1406  0.4394
 3197SOL    HW111359   5.048   3.893   9.400 -0.3717  0.4469 -0.1949
 3197SOL    HW211360   5.143   3.991   9.466 -0.0499 -0.1737  0.2705
 3198SOL     OW11361   8.758   8.322   7.621 -0.2512 -0.2022  0.5401
 3198SOL    HW111362   8.782   8.412   7.645  0.2177 -0.2270  0.1860
 3198SOL    HW211363   8.683   8.302   7.677  0.9407 -0.3319  2.1809
 3199SOL     OW11364   2.471   8.744   7.047  0.2470 -0.2199  0.4340
 3199SOL    HW111365   2.397   8.746   7.107  1.4397 -0.1945  1.9654
 3199SOL    HW211366   2.485   8.651   7.029 -1.3864 -0.1531 -1.5218
 3200SOL     OW11367   6.699   2.292   0.864 -0.0575 -0.5715  0.2282
 3200SOL    HW111368   6.685   2.357   0.933  6.0008  2.3691 -0.6714
 3200SOL    HW211369   6.756   2.227   0.904 -0.2963 -1.4441 -0.8167
 3201SOL     OW11370   9.819   8.702   0.807 -0.0752  0.3628 -0.4225
 3201SOL    HW111371   9.893   8.655   0.845 -0.5639 -0.5236 -0.5579
 3201SOL    HW211372   9.743   8.646   0.823 -0.3328  0.0233 -2.5490
 3202SOL     OW11373   6.933   0.220   7.885 -0.0810  0.2221  0.0280
 3202SOL    HW111374   6.858   0.169   7.854  0.5913 -1.1341  0.5240
 3202SOL    HW211375   6.920   0.227   7.979 -0.6476  1.8263 -0.1504
 3203SOL     OW11376   6.108   6.809   1.460  0.3265  0.1732  0.1062
 3203SOL    HW111377   6.053   6.731   1.465 -1.8783  1.6396 -0.1701
 3203SOL    HW211378   6.147   6.804   1.373  0.9612 -1.0528  0.4269
 3204SOL     OW11379   9.133   0.063   4.017 -0.5051  0.2888  0.0635
 3204SOL    HW111380   9.048   0.028   3.992 -0.8360  0.8089  0.4540
 3204SOL    HW211381   9.144   0.036   4.108  0.6089 -1.4266 -0.5199
 3205SOL     OW11382   5.302   8.022   7.689 -0.1990  0.5287  0.7932
 3205SOL    HW111383   5.209   8.022   7.664 -1.0608  0.2807  3.5915
 3205SOL    HW211384   5.332   7.934   7.667 -0.7140  0.4957  0.1819
 3206SOL     OW11385   2.424   9.661   9.739 -0.0666  0.2037 -0.4153
 3206SOL    HW111386   2.442   9.582   9.790 -2.4071  0.3389  0.7562
 3206SOL    HW211387   2.490   9.660   9.670  0.8209 -2.0415  0.3564
 3207SOL     OW11388   0.564   9.347   8.115 -0.0628 -0.0995 -0.0316
 3207SOL    HW111389   0.652   9.356   8.078 -0.0065 -1.2205 -0.2247
 3207SOL    HW211390   0.527   9.435   8.112  1.0176  0.3743 -0.0302
 3208SOL     OW11391   2.035   6.906   0.466 -0.1639 -0.0574  0.5866
 3208SOL    HW111392   2.082   6.825   0.447  0.3108  0.1846  0.7215
 3208SOL    HW211393   1.943   6.883   0.455  0.0357 -0.0396 -1.6476
 3209SOL     OW11394   9.535   2.607   1.074 -0.6385 -0.0271  0.8358
 3209SOL    HW111395   9.469   2.663   1.034 -1.3765 -0.5805  1.2588
 3209SOL    HW211396   9.545   2.642   1.163  0.0499  0.3971  0.5974
 3210SOL     OW11397   1.112   4.135   7.639  0.4649 -0.5870  0.1245
 3210SOL    HW111398   1.135   4.207   7.581 -1.3069  0.4751  0.6464
 3210SOL    HW211399   1.181   4.135   7.706  0.4843  0.6575  0.1234
 3211SOL     OW11400   2.736   9.386   1.769  0.0244 -0.1026 -0.3869
 3211SOL    HW111401   2.759   9.351   1.683  1.4257 -1.1046  0.3586
 3211SOL    HW211402   2.752   9.314   1.830 -1.5131  0.3984  0.6719
 3212SOL     OW11403   1.597   6.456   9.591 -0.7665  0.3159 -0.1254
 3212SOL    HW111404   1.609   6.448   9.497 -0.6636  1.5403 -0.2362
 3212SOL    HW211405   1.635   6.541   9.613  0.5185 -0.5600  1.2566
 3213SOL     OW11406   5.052   6.490   3.681 -1.0215 -0.5414  0.8744
 3213SOL    HW111407   5.111   6.425   3.641 -0.2182  0.4526  0.4127
 3213SOL    HW211408   4.980   6.497   3.618 -0.5865 -0.2213  0.3988
 3214SOL     OW11409   8.755   1.819   1.155  0.0517 -0.4094  0.1395
 3214SOL    HW111410   8.761   1.913   1.172 -0.6782 -0.4531  0.7124
 3214SOL    HW211411   8.669   1.807   1.115 -0.7803 -1.0702  1.9877
 3215SOL     OW11412   7.822   0.703   2.952 -0.2473  0.5211  0.1339
 3215SOL    HW111413   7.848   0.618   2.987 -0.0483  0.6945  0.4170
 3215SOL    HW211414   7.741   0.686   2.903  1.1101 -0.2835 -1.9662
 3216SOL     OW11415   9.086   7.212   5.836 -0.3228  0.3710  0.7093
 3216SOL    HW111416   9.050   7.199   5.748 -1.4892 -1.2853  1.3979
 3216SOL    HW211417   9.016   7.258   5.883 -0.4039 -0.3102  1.2562
 3217SOL     OW11418   2.626   1.792   5.710 -0.2226 -0.0603  0.2960
 3217SOL    HW111419   2.534   1.791   5.686 -0.1873  1.6933 -0.0334
 3217SOL    HW211420   2.632   1.855   5.782  0.7087 -0.2857  0.4390
 3218SOL     OW11421   4.178   6.827   5.571 -0.0079  0.2591 -0.4211
 3218SOL    HW111422   4.197   6.793   5.658 -0.1354 -0.4871 -0.6852
 3218SOL    HW211423   4.086   6.806   5.556 -0.5096  1.9790 -0.0183
 3219SOL     OW11424   1.675   5.366   4.672  0.4686  0.1337 -0.3703
 3219SOL    HW111425   1.624   5.405   4.601  0.5742  0.2812 -0.3645
 3219SOL    HW211426   1.613   5.308   4.717  0.2026  0.5889 -0.1380
 3220SOL     OW11427   8.286   3.868   8.627 -0.7242 -0.2070 -0.0304
 3220SOL    HW111428   8.358   3.805   8.631  0.7308  1.3107 -0.7115
 3220SOL    HW211429   8.266   3.876   8.534 -0.9349  0.2739  0.0530
 3221SOL     OW11430   2.013   5.782   3.927  0.2172 -0.6144 -0.1139
 3221SOL    HW111431   2.058   5.829   3.857 -0.8460 -1.6468 -1.5708
 3221SOL    HW211432   2.031   5.689   3.909 -0.5215 -0.9224  0.6500
 3222SOL     OW11433   8.760   2.965   7.965 -0.5877 -0.4319  0.0716
 3222SOL    HW111434   8.822   2.921   7.908 -2.1822 -2.8761  0.0753
 3222SOL    HW211435   8.750   3.052   7.928 -1.0795 -1.7102 -3.0674
 3223SOL     OW11436   8.813   9.508   5.627 -0.0143  0.1122 -0.3472
 3223SOL    HW111437   8.822   9.561   5.706 -0.5702  0.3094 -0.4096
 3223SOL    HW211438   8.746   9.554   5.576 -0.5304 -0.6723 -0.3810
 3224SOL     OW11439   8.984   8.151   6.650  0.3815  0.0913 -0.8889
 3224SOL    HW111440   8.957   8.169   6.559 -0.4617  0.1112 -0.6474
 3224SOL    HW211441   9.078   8.137   6.645  0.6356  1.7349 -1.5314
 3225SOL     OW11442   5.577   8.108   2.563 -0.0147  0.0812  0.0763
 3225SOL    HW111443   5.538   8.188   2.528 -1.5516 -0.4336  0.5425
 3225SOL    HW211444   5.586   8.050   2.487 -0.7014  0.0065  0.0437
 3226SOL     OW11445   5.695   9.612   8.961  0.6261 -0.1524  0.1499
 3226SOL    HW111446   5.759   9.682   8.947  1.2248 -0.7225  0.0044
 3226SOL    HW211447   5.657   9.631   9.047 -1.8601  2.4197 -1.3340
 3227SOL     OW11448   2.334   4.909   6.669 -0.0032  0.7404 -0.2615
 3227SOL    HW111449   2.348   4.994   6.627 -2.4535  1.2787 -0.0851
 3227SOL    HW211450   2.351   4.845   6.599 -1.1525  1.5072 -1.2709
 3228SOL     OW11451   2.740   4.518   3.993 -0.2384  0.1199 -0.8708
 3228SOL    HW111452   2.683   4.488   3.923 -1.4347 -0.3525  0.2472
 3228SOL    HW211453   2.684   4.575   4.046  0.3015 -0.3899  0.2868
 3229SOL     OW11454   7.437   9.425   9.711  0.1416 -0.5383 -0.7020
 3229SOL    HW111455   7.482   9.494   9.664  1.0571 -0.7510 -0.1694
 3229SOL    HW211456   7.370   9.470   9.763  0.2317 -0.1373 -0.9338
 3230SOL     OW11457   1.526   1.627   0.184 -0.6932 -0.3501 -0.3114
 3230SOL    HW111458   1.474   1.548   0.201 -0.8800 -0.8610 -2.7760
 3230SOL    HW211459   1.585   1.601   0.114  0.8708  1.0820  0.4162
 3231SOL     OW11460   6.389   9.810   4.038 -0.2947 -0.1046 -0.5380
 3231SOL    HW111461   6.324   9.762   4.089  0.5245 -1.4602 -0.7043
 3231SOL    HW211462   6.448   9.742   4.006  0.7287  1.0072 -1.0760
 3232SOL     OW11463   4.373   3.020   8.303  0.5425 -0.2003 -0.0795
 3232SOL    HW111464   4.421   2.938   8.315 -0.8314 -0.9457  0.4898
 3232SOL    HW211465   4.310   3.001   8.233 -0.9495 -0.2053  1.2105
 3233SOL     OW11466   2.438   8.827   2.582 -0.1380 -0.0498  0.0531
 3233SOL    HW111467   2.476   8.910   2.613 -1.6736 -0.4096  3.2578
 3233SOL    HW211468   2.349   8.849   2.557 -0.3612 -0.6221  0.3300
 3234SOL     OW11469   8.135   2.576   4.206 -0.1309 -0.0588 -0.7346
 3234SOL    HW111470   8.178   2.553   4.124  1.7701  0.1952  0.1175
 3234SOL    HW211471   8.121   2.492   4.251 -0.6025 -0.1497 -1.0500
 3235SOL     OW11472   2.851   5.355   1.106  0.1779  0.0274 -0.3492
 3235SOL    HW111473   2.790   5.291   1.142 -0.5273  1.0785  0.3951
 3235SOL    HW211474   2.817   5.375   1.019 -0.1224  0.0612 -0.2248
 3236SOL     OW11475   6.656   0.845   9.211 -0.3912  0.0734  0.2641
 3236SOL    HW111476   6.690   0.930   9.184 -1.6337  0.1833 -1.0543
 3236SOL    HW211477   6.627   0.859   9.302  0.4685  0.7212  0.4504
 3237SOL     OW11478   5.308   1.216   9.018  0.0077  0.2764  0.1289
 3237SOL    HW111479   5.312   1.138   9.073  0.6089 -0.3060 -0.7194
 3237SOL    HW211480   5.256   1.190   8.942  1.6687  0.1340 -1.0131
 3238SOL     OW11481   1.916   6.616   7.008  0.2428  0.5505  0.2061
 3238SOL    HW111482   1.827   6.621   6.974 -0.1481 -1.3456  0.8069
 3238SOL    HW211483   1.912   6.659   7.094 -0.4699 -0.7469  0.8534
 3239SOL     OW11484   0.762   8.152   5.216  0.2952 -0.2104  0.3959
 3239SOL    HW111485   0.772   8.080   5.278  0.6998  1.8202  2.8433
 3239SOL    HW211486   0.668   8.158   5.201  0.3487 -2.2167 -1.1700
 3240SOL     OW11487   2.594   2.797   6.214 -0.4167 -0.5413 -0.0323
 3240SOL    HW111488   2.647   2.829   6.141 -0.6366 -1.9146 -0.8335
 3240SOL    HW211489   2.506   2.832   6.197 -0.4158 -0.6711 -0.3164
 3241SOL     OW11490   9.374   8.998   7.173 -0.0234 -0.1293 -0.5106
 3241SOL    HW111491   9.308   8.994   7.103 -0.1326  1.5341 -0.5221
 3241SOL    HW211492   9.410   8.909   7.176 -0.0955 -0.2657 -2.5835
 3242SOL     OW11493   2.514   6.630   7.237  0.0784  0.5608 -0.4352
 3242SOL    HW111494   2.586   6.597   7.290 -0.9551 -2.4160 -0.7135
 3242SOL    HW211495   2.539   6.721   7.218  2.8877  0.1937  0.8759
 3243SOL     OW11496   0.686   9.521   3.808 -0.4680 -0.3368  0.0031
 3243SOL    HW111497   0.595   9.539   3.833  0.0359  1.2358  0.8413
 3243SOL    HW211498   0.688   9.532   3.713 -0.7735  1.6765  0.1743
 3244SOL     OW11499   5.438   2.404   3.570  0.2586 -0.0155 -0.4809
 3244SOL    HW111500   5.406   2.314   3.562  4.3036 -2.0202  2.2926
 3244SOL    HW211501   5.380   2.444   3.635 -1.5659 -0.5736 -1.7011
 3245SOL     OW11502   0.509   5.619   9.720  0.9611 -0.5454 -0.2016
 3245SOL    HW111503   0.499   5.531   9.684 -1.0127 -0.9436  1.1944
 3245SOL    HW211504   0.491   5.677   9.646 -3.3086 -1.3332 -0.0361
 3246SOL     OW11505   9.819   7.198   3.912 -0.1792  0.5623  0.0175
 3246SOL    HW111506   9.824   7.102   3.919  0.9453  0.6361  0.3524
 3246SOL    HW211507   9.910   7.227   3.914 -0.5290  1.6724  0.3593
 3247SOL     OW11508   2.940   5.333   4.315  0.2317 -0.0629  0.0607
 3247SOL    HW111509   3.023   5.319   4.269  0.0316  1.8876 -0.9532
 3247SOL    HW211510   2.883   5.376   4.251 -2.0256 -2.3876  0.3351
 3248SOL     OW11511   9.062   1.547   6.535  0.7144 -0.2444  0.4480
 3248SOL    HW111512   9.117   1.620   6.509  0.4724 -0.4731 -0.7652
 3248SOL    HW211513   9.110   1.469   6.507  1.7836 -0.7154  3.2174
 3249SOL     OW11514   2.550   1.117   2.412  0.2832 -0.7892  0.3113
 3249SOL    HW111515   2.496   1.170   2.472  1.9857 -0.2388  1.4480
 3249SOL    HW211516   2.522   1.027   2.429 -1.1639 -0.4421 -0.0821
 3250SOL     OW11517   9.812   4.455   4.967 -0.3594  0.4426  0.0025
 3250SOL    HW111518   9.729   4.411   4.948  0.4451 -0.7039 -1.0430
 3250SOL    HW211519   9.849   4.477   4.881 -0.0386  1.8692  0.4733
 3251SOL     OW11520   9.560   7.897   8.077 -0.2072 -0.3189  0.4828
 3251SOL    HW111521   9.497   7.969   8.075 -0.1907 -0.3068 -1.1995
 3251SOL    HW211522   9.637   7.934   8.121  0.1533  1.0456 -1.1575
 3252SOL     OW11523   4.289   2.488   8.867  0.3395  0.5458  0.0416
 3252SOL    HW111524   4.227   2.557   8.844  1.2804  1.5902  0.5217
 3252SOL    HW211525   4.319   2.512   8.955  0.7903 -0.4046  0.1569
 3253SOL     OW11526   9.457   1.602   3.831  0.7139  0.3645  0.2319
 3253SOL    HW111527   9.551   1.594   3.851  1.2052  1.3299 -1.4914
 3253SOL    HW211528   9.455   1.640   3.743 -1.2707 -2.2013 -0.9546
 3254SOL     OW11529   2.528   7.167   5.218 -0.4574 -0.1553 -0.4267
 3254SOL    HW111530   2.546   7.158   5.312  0.2300 -0.4078 -0.5801
 3254SOL    HW211531   2.550   7.082   5.180  0.1620  0.2253 -0.9496
 3255SOL     OW11532   7.281   3.817   1.893  0.2222 -0.2548  0.4424
 3255SOL    HW111533   7.215   3.753   1.865 -0.0123 -0.5429  1.5867
 3255SOL    HW211534   7.260   3.834   1.985  2.1618 -0.8965  1.0536
 3256SOL     OW11535   1.452   1.355   5.585  0.0890 -0.5602 -0.0072
 3256SOL    HW111536   1.375   1.396   5.546 -0.9116 -1.2148  1.2100
 3256SOL    HW211537   1.484   1.295   5.518 -0.9741 -0.9025 -0.2212
 3257SOL     OW11538   5.674   1.877   4.033 -0.0869 -0.2593 -0.1487
 3257SOL    HW111539   5.681   1.947   4.098  1.5168  0.2505 -0.8044
 3257SOL    HW211540   5.609   1.909   3.971 -1.2295 -0.5075  0.8875
 3258SOL     OW11541   3.210   3.249   3.326 -0.1565 -0.1135 -0.4859
 3258SOL    HW111542   3.172   3.295   3.401  0.0849  0.8227 -0.9295
 3258SOL    HW211543   3.215   3.157   3.355 -2.0196 -0.1390 -0.1423
 3259SOL     OW11544   1.866   1.833   3.330 -0.3598  0.4323  0.6538
 3259SOL    HW111545   1.808   1.780   3.275 -0.9318  0.2524  1.4103
 3259SOL    HW211546   1.858   1.922   3.296  0.3713  0.0937 -0.4328
 3260SOL     OW11547   9.307   3.611   9.682  0.3298  0.2422 -0.2364
 3260SOL    HW111548   9.317   3.527   9.728  2.7470  1.3321  1.4728
 3260SOL    HW211549   9.326   3.591   9.591  1.5119 -1.0022  0.2463
 3261SOL     OW11550   1.058   6.603   2.921 -0.2523 -0.1634 -0.0072
 3261SOL    HW111551   0.975   6.577   2.882 -0.3175  1.9053 -1.4173
 3261SOL    HW211552   1.121   6.595   2.849  0.8785 -2.0191  1.1238
 3262SOL     OW11553   2.478   7.421   0.120 -0.2097 -0.6255  1.5911
 3262SOL    HW111554   2.435   7.500   0.087  1.1935 -0.1026  0.9751
 3262SOL    HW211555   2.442   7.350   0.065  1.4271  0.1125 -0.5778
 3263SOL     OW11556   2.594   8.803   2.227  0.2275 -0.0455 -0.8479
 3263SOL    HW111557   2.560   8.825   2.314  0.1915  1.0356 -1.1234
 3263SOL    HW211558   2.547   8.724   2.202 -1.1588  0.7051 -0.6831
 3264SOL     OW11559   5.679   5.992   2.887  0.5848 -0.5139 -0.4481
 3264SOL    HW111560   5.677   6.088   2.895  1.3059 -0.5619  0.4461
 3264SOL    HW211561   5.744   5.976   2.818  0.4342 -0.3624 -0.6268
 3265SOL     OW11562   6.424   5.328   0.169 -0.0726  0.1823 -0.1237
 3265SOL    HW111563   6.390   5.413   0.142  0.0927  0.5045  0.6613
 3265SOL    HW211564   6.515   5.346   0.196  0.1647 -0.3542 -0.5451
 3266SOL     OW11565   3.512   5.070   5.102 -0.0638 -0.3324  0.5394
 3266SOL    HW111566   3.486   5.001   5.041  2.5389  0.1780 -1.3452
 3266SOL    HW211567   3.529   5.024   5.184  0.1605 -1.7208 -0.2454
 3267SOL     OW11568   4.393   8.407   6.221 -0.9511 -0.0570 -0.4610
 3267SOL    HW111569   4.348   8.354   6.287 -0.2718 -0.0463  0.0247
 3267SOL    HW211570   4.382   8.497   6.251 -3.2099  0.2340 -1.9610
 3268SOL     OW11571   7.709   6.555   4.438 -0.0182  0.1852 -0.6811
 3268SOL    HW111572   7.638   6.598   4.487 -0.7233  0.0512 -1.5775
 3268SOL    HW211573   7.668   6.523   4.358  0.9958 -0.1575 -1.0799
 3269SOL     OW11574   3.430   1.242   4.548  0.0633  0.3665  0.1963
 3269SOL    HW111575   3.470   1.272   4.466 -0.8017  0.3077 -0.2592
 3269SOL    HW211576   3.452   1.149   4.553  0.8730  0.5626  0.4925
 3270SOL     OW11577   0.114   7.556   1.333 -0.3083  0.1941 -0.3355
 3270SOL    HW111578   0.188   7.498   1.313  0.2025 -0.0341  2.0092
 3270SOL    HW211579   0.039   7.515   1.289  0.8810  0.4068 -2.7355
 3271SOL     OW11580   5.396   6.352   0.817 -0.0518 -0.2895 -0.2657
 3271SOL    HW111581   5.340   6.380   0.745 -0.2831 -1.8261 -0.7268
 3271SOL    HW211582   5.388   6.422   0.882 -0.1618  0.9234 -1.5386
 3272SOL     OW11583   5.600   0.916   4.553 -0.7136 -0.1537  0.0784
 3272SOL    HW111584   5.694   0.903   4.549 -0.7391 -0.1354 -1.0860
 3272SOL    HW211585   5.580   0.926   4.646  0.3797 -0.5018  0.3614
 3273SOL     OW11586   4.506   1.128   5.620  0.4901  0.3910 -0.6431
 3273SOL    HW111587   4.506   1.169   5.533 -1.1685  2.3317  0.1824
 3273SOL    HW211588   4.593   1.146   5.655  0.4604  1.4634 -1.0957
 3274SOL     OW11589   2.809   0.853   2.597 -0.5429 -0.0005  0.0328
 3274SOL    HW111590   2.751   0.816   2.531  0.7981  0.5827 -1.5443
 3274SOL    HW211591   2.866   0.781   2.623  0.1359  0.2066 -0.8456
 3275SOL     OW11592   6.455   5.927   6.889  0.1094  0.3603  0.3255
 3275SOL    HW111593   6.407   6.009   6.879 -1.8675 -0.8936 -1.4705
 3275SOL    HW211594   6.547   5.952   6.889 -0.4403  2.5795  0.0496
 3276SOL     OW11595   2.042   0.551   4.534  0.4171 -0.7387 -0.2239
 3276SOL    HW111596   1.975   0.613   4.562 -0.8113 -1.8392 -0.6392
 3276SOL    HW211597   2.115   0.606   4.505 -1.1602  0.5811 -1.9207
 3277SOL     OW11598   1.797   7.881   3.871 -0.4289 -0.4139  0.3476
 3277SOL    HW111599   1.737   7.927   3.813 -1.2084 -3.0544 -1.1104
 3277SOL    HW211600   1.876   7.936   3.871 -0.2707 -0.3276 -3.4808
 3278SOL     OW11601   1.636   8.751   2.785  0.3961 -0.2413 -0.4614
 3278SOL    HW111602   1.689   8.828   2.802  1.4896 -1.1727  0.4511
 3278SOL    HW211603   1.546   8.780   2.800  0.5478  1.4640 -2.3958
 3279SOL     OW11604   3.880   6.430   0.860 -0.1025 -0.1081  0.0300
 3279SOL    HW111605   3.922   6.505   0.817  0.0129  0.2506  0.7643
 3279SOL    HW211606   3.920   6.426   0.946  0.2903 -1.3617 -0.1936
 3280SOL     OW11607   0.093   0.570   9.056 -0.1928  0.2342  0.2773
 3280SOL    HW111608   0.053   0.656   9.069 -1.7288 -0.3902 -0.0484
 3280SOL    HW211609   0.018   0.510   9.048  0.8365 -1.1143  0.3831
 3281SOL     OW11610   1.961   4.774   6.035 -0.0034  0.6268 -0.2328
 3281SOL    HW111611   1.944   4.805   6.124 -0.2742  0.5181 -0.2451
 3281SOL    HW211612   2.042   4.724   6.042 -0.1753  0.3787  0.0118
 3282SOL     OW11613   7.229   3.617   4.198  0.5742 -0.0431  0.0512
 3282SOL    HW111614   7.185   3.533   4.211  2.2971 -1.3633 -1.9922
 3282SOL    HW211615   7.179   3.679   4.252 -2.7974 -1.7029 -0.8844
 3283SOL     OW11616   0.939   4.327   5.430  0.3845 -0.0247 -0.0825
 3283SOL    HW111617   1.018   4.381   5.425  0.0492  0.4223 -0.7355
 3283SOL    HW211618   0.965   4.250   5.482  1.3678 -0.0935 -0.6516
 3284SOL     OW11619   1.001   1.588   2.957  0.5971 -0.1928  0.1631
 3284SOL    HW111620   1.004   1.683   2.967 -0.5156 -0.0407 -0.8307
 3284SOL    HW211621   1.093   1.563   2.948  0.8724  0.8461 -0.1110
 3285SOL     OW11622   7.040   6.376   7.744  0.0039  0.1879 -0.1716
 3285SOL    HW111623   7.093   6.321   7.802  1.6639  2.4795  0.6209
 3285SOL    HW211624   7.002   6.442   7.802 -1.4940  0.2362 -1.1696
 3286SOL     OW11625   8.013   5.099   6.191  0.9308  0.1039 -0.2054
 3286SOL    HW111626   8.107   5.111   6.180  0.5572  2.7419 -1.2296
 3286SOL    HW211627   7.998   5.115   6.284  1.3310  1.1507 -0.3145
 3287SOL     OW11628   3.835   5.590   4.113  0.7451  0.1271  0.4803
 3287SOL    HW111629   3.820   5.533   4.189  1.6982  0.6109  1.0584
 3287SOL    HW211630   3.748   5.620   4.088  0.3160 -0.8890  0.7153
 3288SOL     OW11631   3.960   8.151   5.060 -0.3330  0.4145 -0.7324
 3288SOL    HW111632   3.886   8.094   5.038  0.5399 -0.7945 -0.6610
 3288SOL    HW211633   3.986   8.122   5.148 -0.9094  2.0750  0.0229
 3289SOL     OW11634   2.783   2.624   7.373  0.1894  0.2066  0.5044
 3289SOL    HW111635   2.806   2.574   7.452 -0.5655 -2.2375 -0.7270
 3289SOL    HW211636   2.707   2.579   7.337  1.2830  0.4081 -2.3392
 3290SOL     OW11637   7.681   6.447   3.924 -0.0741 -0.1492 -0.1531
 3290SOL    HW111638   7.624   6.523   3.910  0.2656  0.3164  0.8950
 3290SOL    HW211639   7.750   6.456   3.858  0.9639  1.4546  1.0589
 3291SOL     OW11640   9.132   0.441   1.465  0.4465  0.1955 -0.7747
 3291SOL    HW111641   9.116   0.413   1.555  0.0644  0.1947 -0.8430
 3291SOL    HW211642   9.228   0.439   1.456  0.4144 -1.6728 -0.9632
 3292SOL     OW11643   2.492   5.863   1.221 -0.1974 -0.1033  0.0126
 3292SOL    HW111644   2.498   5.781   1.270 -0.9780 -0.7970 -1.0128
 3292SOL    HW211645   2.559   5.856   1.154 -0.0330  0.2619  0.1349
 3293SOL     OW11646   4.274   6.775   8.624  0.1699  0.0614 -0.8540
 3293SOL    HW111647   4.209   6.718   8.582  0.9313 -1.0104 -0.6273
 3293SOL    HW211648   4.336   6.796   8.554 -0.4628  1.1817 -1.0994
 3294SOL     OW11649   9.573   9.150   1.083 -0.1098 -0.6769  0.7334
 3294SOL    HW111650   9.634   9.141   1.156 -0.7890  1.6639  1.6798
 3294SOL    HW211651   9.618   9.206   1.020 -0.8761  0.3133  1.0298
 3295SOL     OW11652   4.677   0.751   7.526  0.2486  0.0591  0.3643
 3295SOL    HW111653   4.730   0.787   7.597 -0.0506 -0.0673  0.6532
 3295SOL    HW211654   4.620   0.824   7.500  1.2532  0.5208 -0.6401
 3296SOL     OW11655   8.719   2.354   0.504  0.2258  0.0315 -0.2270
 3296SOL    HW111656   8.776   2.419   0.462  1.8919 -1.6257 -0.6714
 3296SOL    HW211657   8.734   2.367   0.598  0.1153  0.6464 -0.2915
 3297SOL     OW11658   1.636   8.519   0.381  0.1045 -0.1465  0.0572
 3297SOL    HW111659   1.638   8.506   0.476 -0.2657  2.6023  0.5313
 3297SOL    HW211660   1.543   8.528   0.360  0.2779  1.5542 -0.1267
 3298SOL     OW11661   1.700   5.139   2.243 -0.2993  0.1712 -0.1753
 3298SOL    HW111662   1.668   5.163   2.330 -1.3065  1.2811 -0.8228
 3298SOL    HW211663   1.723   5.222   2.202  0.9371 -0.4044 -0.6927
 3299SOL     OW11664   4.390   1.937   8.930  0.2947  0.1284  0.6751
 3299SOL    HW111665   4.436   1.885   8.996  2.5615 -1.5829 -1.9808
 3299SOL    HW211666   4.351   1.872   8.872 -0.0806  1.4957 -0.6540
 3300SOL     OW11667   1.816   5.586   9.734 -0.7418  0.0058 -0.2254
 3300SOL    HW111668   1.749   5.653   9.722 -0.8952 -0.0145  0.4911
 3300SOL    HW211669   1.853   5.604   9.821  0.0698 -0.0788 -0.5436
 3301SOL     OW11670   0.467   0.526   5.735  0.0660  0.2937 -0.5981
 3301SOL    HW111671   0.430   0.543   5.648 -2.5984 -1.0943  0.1418
 3301SOL    HW211672   0.503   0.610   5.762 -2.3321  1.7696 -1.6204
 3302SOL     OW11673   3.310   3.523   0.415  0.0648 -0.0339  0.0234
 3302SOL    HW111674   3.288   3.519   0.322 -0.3071 -0.2455  0.1168
 3302SOL    HW211675   3.400   3.556   0.418  0.4239 -0.9429 -0.4540
 3303SOL     OW11676   4.368   8.067   7.671  0.6425  0.5746 -0.0242
 3303SOL    HW111677   4.273   8.060   7.679  0.6521  1.0738  0.5290
 3303SOL    HW211678   4.401   7.993   7.722  0.5705  0.8923  0.4892
 3304SOL     OW11679   3.946   9.202   4.411  0.0271  0.0325  0.1966
 3304SOL    HW111680   3.871   9.229   4.464  0.0286 -2.2539  1.4933
 3304SOL    HW211681   4.013   9.179   4.475  1.5354  1.0726 -0.9273
 3305SOL     OW11682   3.728   4.743   4.894 -0.4060  0.2618 -0.0783
 3305SOL    HW111683   3.734   4.709   4.805 -0.2468 -0.3510  0.1605
 3305SOL    HW211684   3.778   4.825   4.892 -1.8380  1.1526 -0.9715
 3306SOL     OW11685   4.539   8.823   2.131  0.1680  0.3966  0.2335
 3306SOL    HW111686   4.598   8.891   2.099 -1.3882  1.8893  0.3910
 3306SOL    HW211687   4.461   8.830   2.075 -0.2113 -0.9643  0.5412
 3307SOL     OW11688   3.393   8.555   4.110  0.4041  1.0022  0.7622
 3307SOL    HW111689   3.412   8.502   4.033  1.1970 -0.0239  1.6313
 3307SOL    HW211690   3.298   8.553   4.119  0.4650 -0.9469  1.2315
 3308SOL     OW11691   5.467   2.488   8.225 -0.3873  0.0182 -0.2359
 3308SOL    HW111692   5.457   2.409   8.172  1.0523  0.5492 -1.3747
 3308SOL    HW211693   5.514   2.459   8.303  0.1274 -0.2545 -0.6429
 3309SOL     OW11694   7.523   9.101   0.229 -0.0242  0.2268  0.8717
 3309SOL    HW111695   7.452   9.119   0.290 -1.1206  0.9377 -0.5587
 3309SOL    HW211696   7.514   9.168   0.161 -0.2664 -1.8283 -1.2620
 3310SOL     OW11697   5.474   5.445   3.366  0.1558 -0.3909  0.1563
 3310SOL    HW111698   5.401   5.402   3.322 -1.3471  0.5034  1.6612
 3310SOL    HW211699   5.523   5.373   3.406 -1.1472 -0.8839  0.9314
 3311SOL     OW11700   1.155   1.597   8.873 -0.5055  0.0639 -0.4058
 3311SOL    HW111701   1.118   1.666   8.930  0.8173  0.5225 -0.0641
 3311SOL    HW211702   1.249   1.597   8.893 -0.4115 -1.5745 -0.7092
 3312SOL     OW11703   8.886   5.074   0.880 -0.0727 -0.3572 -0.0657
 3312SOL    HW111704   8.980   5.088   0.867 -0.2852 -0.2225 -1.6228
 3312SOL    HW211705   8.851   5.160   0.901  0.0947 -0.3565  0.2234
 3313SOL     OW11706   6.318   2.478   8.510 -0.0472  0.2398  0.1351
 3313SOL    HW111707   6.228   2.445   8.513 -0.0466  0.0629 -1.1665
 3313SOL    HW211708   6.371   2.404   8.540 -0.2131 -0.2139 -0.6717
 3314SOL     OW11709   6.029   9.371   9.291 -0.6015 -0.7476 -0.7729
 3314SOL    HW111710   5.954   9.324   9.327 -1.3539  1.0491  0.1035
 3314SOL    HW211711   6.005   9.463   9.298  2.2367 -0.0293  0.8182
 3315SOL     OW11712   5.013   3.952   8.607 -0.1455  0.1151  0.0899
 3315SOL    HW111713   4.938   4.011   8.597 -0.8381 -0.7804 -0.2143
 3315SOL    HW211714   5.036   3.928   8.518 -0.3965 -0.6946  0.2357
 3316SOL     OW11715   7.793   6.259   9.562 -0.1076  0.4485  0.1288
 3316SOL    HW111716   7.719   6.265   9.502 -1.1982  1.6636  1.5151
 3316SOL    HW211717   7.836   6.344   9.557  0.4107  0.2004  0.2974
 3317SOL     OW11718   1.281   6.309   2.752 -0.4811 -0.0790 -0.3365
 3317SOL    HW111719   1.235   6.279   2.830 -1.1274  2.5817  0.4117
 3317SOL    HW211720   1.344   6.373   2.786  0.8186 -0.5387 -1.7948
 3318SOL     OW11721   2.621   9.206   9.752 -0.3588  0.2823  0.5067
 3318SOL    HW111722   2.636   9.226   9.660 -0.0102  0.7822  0.6668
 3318SOL    HW211723   2.667   9.275   9.800 -0.0411 -0.3026  1.0658
 3319SOL     OW11724   4.813   6.434   0.882  0.0120  0.1711 -0.3469
 3319SOL    HW111725   4.858   6.399   0.805 -0.9621  0.7244 -1.1811
 3319SOL    HW211726   4.823   6.529   0.875 -0.9834  0.2866 -0.3610
 3320SOL     OW11727   0.363   8.558   8.669  0.3144  0.1464  0.0338
 3320SOL    HW111728   0.329   8.647   8.674 -0.7893 -0.2553 -0.1015
 3320SOL    HW211729   0.454   8.566   8.698  0.2384  1.3123  0.0146
 3321SOL     OW11730   6.059   2.060   8.671  0.7684 -0.1236  0.9602
 3321SOL    HW111731   6.086   1.970   8.686 -2.4938 -1.1511  1.4592
 3321SOL    HW211732   6.024   2.061   8.582  0.3045  0.5163  1.1413
 3322SOL     OW11733   4.665   6.669   1.007  0.6605  0.2980  0.0038
 3322SOL    HW111734   4.598   6.618   1.052 -0.3759  1.7498  0.1787
 3322SOL    HW211735   4.748   6.638   1.044  0.0325 -0.7446  0.5929
 3323SOL     OW11736   2.412   2.574   8.988  0.6051 -0.1189  0.8714
 3323SOL    HW111737   2.436   2.563   9.081  1.7724 -0.5209  0.5438
 3323SOL    HW211738   2.481   2.630   8.952  0.0581  0.1839  0.2767
 3324SOL     OW11739   7.668   3.555   5.502  0.2350  0.1153 -0.1909
 3324SOL    HW111740   7.723   3.501   5.558  0.3602 -1.3440 -1.6567
 3324SOL    HW211741   7.595   3.582   5.558  0.4093 -1.1967  0.6970
 3325SOL     OW11742   8.287   5.979   6.294  0.0040  0.6151  0.4443
 3325SOL    HW111743   8.347   6.021   6.232 -1.7481 -0.0769 -1.8196
 3325SOL    HW211744   8.302   5.885   6.283 -0.7772  0.4684  0.6048
 3326SOL     OW11745   2.979   8.150   2.414 -0.1188 -0.2994  0.0960
 3326SOL    HW111746   2.982   8.155   2.509  0.0379  0.5845  0.0539
 3326SOL    HW211747   2.952   8.060   2.395  0.9068 -0.8043  0.9503
 3327SOL     OW11748   2.755   1.461   7.336  0.0952 -0.1970  0.0667
 3327SOL    HW111749   2.815   1.473   7.410  1.3949  0.1124 -1.0054
 3327SOL    HW211750   2.774   1.534   7.277  0.2686 -1.3624 -1.3662
 3328SOL     OW11751   7.789   3.397   2.522 -0.3217  0.3464 -0.5098
 3328SOL    HW111752   7.770   3.364   2.610  1.8910 -0.0677 -0.1249
 3328SOL    HW211753   7.719   3.361   2.467 -2.1080  1.1274  1.1461
 3329SOL     OW11754   0.925   7.684   8.727  0.9466  0.1280 -0.0261
 3329SOL    HW111755   0.876   7.644   8.799 -0.0883  0.4350 -0.5480
 3329SOL    HW211756   0.924   7.619   8.657  1.1416  0.2023 -0.1008
 3330SOL     OW11757   9.095   0.633   5.038 -0.0082  0.3218  0.0777
 3330SOL    HW111758   9.150   0.699   4.994  0.2477 -1.2484 -2.1211
 3330SOL    HW211759   9.006   0.663   5.025  0.0401 -0.2748 -1.9410
 3331SOL     OW11760   8.164   4.190   5.555 -0.3665  0.1142  0.0395
 3331SOL    HW111761   8.155   4.260   5.620  0.8044  0.6113 -0.3148
 3331SOL    HW211762   8.237   4.137   5.586 -1.5627 -1.3032  0.5849
 3332SOL     OW11763   5.300   9.101   8.785  0.9157 -0.1533  0.5320
 3332SOL    HW111764   5.366   9.156   8.826 -0.3544  2.2975 -0.5321
 3332SOL    HW211765   5.341   9.072   8.703  1.2439 -0.0111  0.6444
 3333SOL     OW11766   3.726   9.371   6.864  0.2559 -0.3504 -0.2651
 3333SOL    HW111767   3.700   9.283   6.837 -0.8588 -0.1724  0.1642
 3333SOL    HW211768   3.728   9.368   6.959 -1.1483  0.4260 -0.1849
 3334SOL     OW11769   7.583   0.436   6.263 -0.0348  0.5007 -0.3651
 3334SOL    HW111770   7.588   0.388   6.180  1.2628  1.9339 -1.1612
 3334SOL    HW211771   7.593   0.368   6.330 -1.6494 -0.7594 -1.3250
 3335SOL     OW11772   0.818   7.950   2.479  0.3620 -0.2682  0.3021
 3335SOL    HW111773   0.769   8.031   2.492 -1.2262 -0.8473 -1.6158
 3335SOL    HW211774   0.800   7.898   2.557 -0.7475  0.2039  0.3832
 3336SOL     OW11775   7.775   3.615   1.063  0.0941  0.0666  0.1974
 3336SOL    HW111776   7.755   3.602   1.155 -1.6572  1.0443 -0.0056
 3336SOL    HW211777   7.840   3.686   1.062  0.5802 -0.3630  0.6858
 3337SOL     OW11778   0.351   2.871   8.617 -0.1972 -0.1868  0.2814
 3337SOL    HW111779   0.288   2.801   8.633 -0.2631 -0.5083 -1.2171
 3337SOL    HW211780   0.373   2.862   8.525  1.2449  0.5908  0.5262
 3338SOL     OW11781   3.839   9.013   0.251 -0.4271  0.2312  0.1431
 3338SOL    HW111782   3.874   9.098   0.279  1.7517 -0.1281 -1.2210
 3338SOL    HW211783   3.785   9.034   0.175 -1.1527  0.5286  0.7260
 3339SOL     OW11784   1.111   9.126   2.497  0.0249 -0.2522  0.4354
 3339SOL    HW111785   1.021   9.118   2.530 -0.0979  0.9725  0.4548
 3339SOL    HW211786   1.110   9.207   2.445  0.9365 -0.6217 -0.1804
 3340SOL     OW11787   2.881   7.608   5.997 -1.1069 -0.0476 -0.2503
 3340SOL    HW111788   2.809   7.665   5.970 -0.0341  1.8892  0.7478
 3340SOL    HW211789   2.839   7.542   6.053 -2.0095  1.8508  1.4629
 3341SOL     OW11790   1.298   9.141   8.050  0.7128  0.0946 -0.6007
 3341SOL    HW111791   1.268   9.229   8.025  0.0725  0.0826  0.0773
 3341SOL    HW211792   1.391   9.152   8.071  0.6172  0.6294 -0.4427
 3342SOL     OW11793   3.401   5.520   8.176  0.5477  0.3828  0.1307
 3342SOL    HW111794   3.382   5.541   8.085  0.4829  1.0786  0.2920
 3342SOL    HW211795   3.496   5.526   8.184  0.5177  0.8319  0.2156
 3343SOL     OW11796   8.635   3.026   8.612  0.0891 -0.2765 -0.1064
 3343SOL    HW111797   8.686   3.029   8.530  0.5316  0.3825  0.1850
 3343SOL    HW211798   8.600   3.114   8.621 -1.2837 -0.7708 -0.3953
 3344SOL     OW11799   8.852   4.583   6.709 -0.3796  0.1083 -0.0349
 3344SOL    HW111800   8.868   4.596   6.616 -3.4855 -3.6277 -1.3958
 3344SOL    HW211801   8.931   4.538   6.740  0.9878  2.0026 -0.5872
 3345SOL     OW11802   0.644   8.812   6.742  0.0236  0.3502  0.2897
 3345SOL    HW111803   0.738   8.816   6.760  0.4811  0.5143 -1.8729
 3345SOL    HW211804   0.634   8.740   6.680 -1.6092 -1.0011  1.9914
 3346SOL     OW11805   3.570   9.167   7.315  0.0202  0.1245 -0.3399
 3346SOL    HW111806   3.493   9.211   7.278 -0.6327 -0.0994  0.7223
 3346SOL    HW211807   3.570   9.081   7.274  0.6769  0.7020 -1.6046
 3347SOL     OW11808   2.668   5.471   0.599  0.1242 -0.1588 -0.3152
 3347SOL    HW111809   2.658   5.397   0.539  0.1650  0.6797 -1.3813
 3347SOL    HW211810   2.694   5.544   0.543  0.5082  0.5666  0.7783
 3348SOL     OW11811   7.524   1.548   8.937 -0.3272 -0.0200 -0.3545
 3348SOL    HW111812   7.585   1.609   8.978 -0.3091 -1.0120  1.1795
 3348SOL    HW211813   7.438   1.575   8.968 -0.5091  0.2781 -1.0843
 3349SOL     OW11814   6.374   1.365   2.371  0.7874 -0.5820 -0.4012
 3349SOL    HW111815   6.290   1.410   2.367  0.5014 -0.6427  2.5391
 3349SOL    HW211816   6.386   1.327   2.284 -1.2788  1.0467 -1.4801
 3350SOL     OW11817   2.935   9.401   4.800 -0.1346 -0.2404 -0.1656
 3350SOL    HW111818   2.913   9.456   4.724 -0.4582 -1.2871 -0.8574
 3350SOL    HW211819   3.027   9.422   4.819 -0.0409  0.0156 -0.8651
 3351SOL     OW11820   3.923   0.805   9.207  0.5544 -0.3010 -0.0500
 3351SOL    HW111821   3.914   0.884   9.155  1.6603  0.9322  1.5170
 3351SOL    HW211822   4.012   0.774   9.189  0.2745 -0.9604 -0.3350
 3352SOL     OW11823   9.654   2.005   4.904 -0.5093 -0.0415 -0.0840
 3352SOL    HW111824   9.601   1.984   4.827 -0.6062  2.5574 -0.8165
 3352SOL    HW211825   9.651   2.101   4.910  0.0795 -0.1152  2.7613
 3353SOL     OW11826   6.389   8.586   1.794  0.3913  0.5722 -0.4499
 3353SOL    HW111827   6.316   8.595   1.855  0.0623 -0.7689 -0.6053
 3353SOL    HW211828   6.451   8.655   1.819  0.3372 -0.0223  1.5034
 3354SOL     OW11829   0.905   5.649   6.494  0.5921  0.0924 -0.1090
 3354SOL    HW111830   0.960   5.708   6.545 -0.1169  0.1747  0.5734
 3354SOL    HW211831   0.892   5.573   6.550  1.2491 -0.6022 -0.8636
 3355SOL     OW11832   1.829   8.304   2.749 -0.0264  0.0523  0.4004
 3355SOL    HW111833   1.892   8.360   2.793  0.0518 -0.9238  1.6023
 3355SOL    HW211834   1.753   8.360   2.733  1.2264  1.3528 -1.4120
 3356SOL     OW11835   5.333   8.708   3.431 -0.4506 -0.3154 -0.7290
 3356SOL    HW111836   5.248   8.673   3.457 -0.5468  0.2098 -0.3208
 3356SOL    HW211837   5.386   8.705   3.511 -0.7656  1.3643 -0.4323
 3357SOL     OW11838   3.619   8.560   5.201  0.6803 -0.0516  0.1759
 3357SOL    HW111839   3.681   8.491   5.177 -0.6203 -0.2182 -3.1232
 3357SOL    HW211840   3.673   8.640   5.205  1.6908 -0.7454  1.2068
 3358SOL     OW11841   7.721   6.303   6.479 -0.8525  0.8760  0.2437
 3358SOL    HW111842   7.722   6.381   6.423 -1.4134  1.0515  0.4714
 3358SOL    HW211843   7.809   6.266   6.469  0.5847  3.2722  2.6179
 3359SOL     OW11844   2.749   8.959   1.303 -0.0539 -0.3835  0.9150
 3359SOL    HW111845   2.828   9.000   1.268 -0.2857 -0.7048  0.0086
 3359SOL    HW211846   2.743   8.875   1.258 -1.0765 -0.2404  0.7617
 3360SOL     OW11847   6.019   4.768   3.308 -0.2012 -0.4926 -0.1419
 3360SOL    HW111848   6.083   4.704   3.337  0.8541  1.0879  1.2425
 3360SOL    HW211849   6.068   4.827   3.251  0.0195  1.4967  1.9661
 3361SOL     OW11850   2.202   2.552   6.075 -0.4410  0.2375 -0.4665
 3361SOL    HW111851   2.156   2.618   6.126 -1.3365 -1.6685  1.3419
 3361SOL    HW211852   2.274   2.523   6.131 -1.0638 -1.4649 -0.4724
 3362SOL     OW11853   9.288   7.841   4.323  0.1718 -0.2527  0.2364
 3362SOL    HW111854   9.339   7.761   4.324  0.5780 -0.1103 -2.0258
 3362SOL    HW211855   9.197   7.812   4.319  0.3594 -0.7033 -1.9109
 3363SOL     OW11856   6.096   4.969   5.148  1.1302 -0.3386 -0.4054
 3363SOL    HW111857   6.142   4.925   5.219  2.2997  3.1957  1.1872
 3363SOL    HW211858   6.022   5.012   5.190  1.1523  0.8423 -1.5161
 3364SOL     OW11859   5.484   4.046   8.350  0.1190  0.3009 -0.2631
 3364SOL    HW111860   5.448   4.023   8.436  1.6906  1.3918  0.7573
 3364SOL    HW211861   5.415   4.024   8.288 -1.4084  0.2684  1.3603
 3365SOL     OW11862   4.588   3.636   0.052  0.7538  0.1647  0.0277
 3365SOL    HW111863   4.639   3.698  -0.000  0.4887  1.4999  1.2906
 3365SOL    HW211864   4.521   3.690   0.094 -0.5540 -1.2612 -0.1382
 3366SOL     OW11865   6.213   5.911   0.316  0.5788  0.7173  0.0687
 3366SOL    HW111866   6.147   5.848   0.290 -1.3465  2.7428 -0.1866
 3366SOL    HW211867   6.295   5.875   0.283 -0.0533 -2.6268  1.6936
 3367SOL     OW11868   5.464   0.270   3.599  0.3326  0.1666  0.0108
 3367SOL    HW111869   5.520   0.344   3.623  0.5261  0.5480 -1.5177
 3367SOL    HW211870   5.432   0.236   3.683 -0.0277  2.1940  0.7647
 3368SOL     OW11871   8.587   8.573   1.638 -0.0194 -0.3260 -0.1643
 3368SOL    HW111872   8.645   8.613   1.573  0.7015  0.0756  0.7005
 3368SOL    HW211873   8.499   8.587   1.603  0.2799  0.9897 -0.4706
 3369SOL     OW11874   4.119   5.010   4.352  0.2949 -0.0821 -0.1697
 3369SOL    HW111875   4.028   4.993   4.376  1.2255 -4.8394  1.0199
 3369SOL    HW211876   4.164   5.023   4.436  1.0254  0.3737 -0.6159
 3370SOL     OW11877   7.793   3.822   5.366 -0.5530  0.2005 -0.7778
 3370SOL    HW111878   7.738   3.752   5.401  0.2391 -0.0133  0.0803
 3370SOL    HW211879   7.869   3.776   5.330  0.0554  0.6276 -0.0475
 3371SOL     OW11880   8.366   5.419   4.298  0.0895  0.3655 -0.2115
 3371SOL    HW111881   8.369   5.330   4.334  1.0869 -0.0534 -1.2811
 3371SOL    HW211882   8.275   5.447   4.311 -0.3202 -0.9288 -0.1345
 3372SOL     OW11883   2.083   9.502   9.820 -0.5179 -0.0461 -0.5191
 3372SOL    HW111884   2.137   9.484   9.743  1.4115 -0.3299  0.8200
 3372SOL    HW211885   2.072   9.597   9.820  0.9613  0.1563 -0.2601
 3373SOL     OW11886   0.616   6.746   8.715  0.2431 -0.0610 -0.0900
 3373SOL    HW111887   0.641   6.839   8.721 -2.6439  0.8433 -0.4994
 3373SOL    HW211888   0.636   6.722   8.625 -0.6963  0.7778 -0.5489
 3374SOL     OW11889   4.938   0.096   0.404  0.1656  0.3959 -0.3397
 3374SOL    HW111890   4.931   0.034   0.331 -2.5631 -1.8582  1.6192
 3374SOL    HW211891   5.010   0.062   0.457  0.3979  0.4672 -0.6071
 3375SOL     OW11892   6.193   1.328   6.833  0.1602  0.3022  0.4033
 3375SOL    HW111893   6.209   1.375   6.751 -0.3739  0.5194  0.4222
 3375SOL    HW211894   6.176   1.238   6.807 -2.6274  0.8645  0.0329
 3376SOL     OW11895   7.978   7.702   2.343  0.2999 -0.1201 -0.7221
 3376SOL    HW111896   7.931   7.733   2.420 -1.5627  0.3201 -1.9393
 3376SOL    HW211897   7.916   7.642   2.300  0.6653  0.7490 -2.5948
 3377SOL     OW11898   3.392   5.950   1.129  0.4447 -0.4122 -0.1045
 3377SOL    HW111899   3.433   5.949   1.043 -0.6931 -2.0283 -0.6693
 3377SOL    HW211900   3.365   5.859   1.144 -1.3163  0.2376  0.9837
 3378SOL     OW11901   7.792   4.440   3.399 -0.1528  0.0348 -0.1096
 3378SOL    HW111902   7.807   4.520   3.348 -1.7774 -0.5356 -1.5669
 3378SOL    HW211903   7.765   4.471   3.485  2.6803  1.0211  0.5339
 3379SOL     OW11904   5.493   3.735   1.477  0.3133 -0.3175 -0.3166
 3379SOL    HW111905   5.550   3.682   1.533 -2.0173 -1.6884  0.8802
 3379SOL    HW211906   5.470   3.677   1.404 -0.1211 -0.0419 -0.4027
 3380SOL     OW11907   3.792   6.237   3.703  0.1898 -0.0447  0.1863
 3380SOL    HW111908   3.875   6.271   3.735  0.3215  1.1088 -1.2825
 3380SOL    HW211909   3.815   6.161   3.649  0.3345  0.4083 -0.4030
 3381SOL     OW11910   9.036   4.410   6.769  0.0637  0.0512 -0.4734
 3381SOL    HW111911   9.002   4.339   6.823 -0.0173  0.5380  0.1295
 3381SOL    HW211912   9.130   4.414   6.791 -0.0159  0.4017 -0.1842
 3382SOL     OW11913   7.977   1.755   8.965  0.6503 -0.2245 -0.5589
 3382SOL    HW111914   8.022   1.695   8.906  0.7641 -0.4541 -0.2409
 3382SOL    HW211915   8.002   1.726   9.053 -0.0566 -0.3177 -0.3762
 3383SOL     OW11916   3.849   0.324   8.737 -0.0141 -0.0436  0.9795
 3383SOL    HW111917   3.758   0.294   8.729  0.4242 -1.5365  1.1931
 3383SOL    HW211918   3.844   0.419   8.732 -1.7896  0.0212  2.7185
 3384SOL     OW11919   4.631   3.521   6.531  0.1128  0.2904 -0.3682
 3384SOL    HW111920   4.667   3.485   6.612  0.5596 -1.2627 -1.2062
 3384SOL    HW211921   4.623   3.445   6.473  1.1376  1.5730 -2.2701
 3385SOL     OW11922   9.509   9.518   1.825  0.5570 -0.3002  0.5472
 3385SOL    HW111923   9.587   9.503   1.772 -0.3198 -2.5618 -0.2190
 3385SOL    HW211924   9.513   9.450   1.893 -1.4173 -1.3921 -0.3641
 3386SOL     OW11925   8.122   3.652   8.616 -0.4000 -0.2882 -0.1246
 3386SOL    HW111926   8.108   3.726   8.676  0.0321 -0.5707  0.3341
 3386SOL    HW211927   8.189   3.599   8.659 -0.3981 -0.7252 -0.6578
 3387SOL     OW11928   4.696   3.425   9.263 -0.4896  0.1118 -0.5316
 3387SOL    HW111929   4.683   3.413   9.357 -0.4005 -1.1992 -0.6732
 3387SOL    HW211930   4.624   3.482   9.236 -2.1688 -1.7279 -0.1552
 3388SOL     OW11931   3.971   4.049   8.940 -0.0944  0.3301 -0.5059
 3388SOL    HW111932   3.911   3.974   8.936  0.6393 -0.2817 -0.2991
 3388SOL    HW211933   4.031   4.036   8.866  0.8159  0.0257  0.2736
 3389SOL     OW11934   6.980   5.557   2.169  0.2941  0.0733 -0.4932
 3389SOL    HW111935   7.037   5.563   2.245 -1.4829 -0.5686  0.9434
 3389SOL    HW211936   7.022   5.491   2.113  1.2945  0.0970  0.1953
 3390SOL     OW11937   8.800   2.869   4.651  0.0734 -0.0093  0.0616
 3390SOL    HW111938   8.850   2.791   4.673  1.8266  0.7227 -1.0281
 3390SOL    HW211939   8.748   2.844   4.575  1.2930  0.0645 -0.8362
 3391SOL     OW11940   3.250   2.834   5.886  0.2260 -0.1152 -0.0002
 3391SOL    HW111941   3.221   2.830   5.977  0.9310 -1.1224  0.1910
 3391SOL    HW211942   3.252   2.928   5.865  0.2783  0.1299  1.0830
 3392SOL     OW11943   3.332   2.443   9.590 -0.1151  0.1701 -0.1773
 3392SOL    HW111944   3.277   2.453   9.668  1.2111 -1.2187  1.0044
 3392SOL    HW211945   3.416   2.482   9.616 -0.0654  0.9349 -1.4266
 3393SOL     OW11946   3.590   7.584   3.634  0.0586 -1.1681  0.2630
 3393SOL    HW111947   3.528   7.629   3.577 -0.2432 -0.7527  0.9199
 3393SOL    HW211948   3.673   7.629   3.618 -0.6410  1.1136  2.4913
 3394SOL     OW11949   0.431   4.934   7.678 -0.3825 -0.3261  0.6764
 3394SOL    HW111950   0.361   4.904   7.621  0.5485 -2.1279  0.4007
 3394SOL    HW211951   0.495   4.863   7.677  1.3656  1.1616  1.0659
 3395SOL     OW11952   8.636   0.647   3.892 -0.4328 -0.1061  0.2261
 3395SOL    HW111953   8.687   0.575   3.855 -0.0955  0.2390  0.0121
 3395SOL    HW211954   8.642   0.716   3.827  0.1582  0.5082  0.9138
 3396SOL     OW11955   6.750   2.396   3.393 -0.4510 -0.1508  0.1476
 3396SOL    HW111956   6.675   2.450   3.416  0.2454  0.6401  0.6053
 3396SOL    HW211957   6.736   2.374   3.301 -0.8198  0.6963 -0.0082
 3397SOL     OW11958   2.741   3.584   8.254 -0.3782 -0.1612  0.0244
 3397SOL    HW111959   2.693   3.660   8.285  0.1204 -0.2999  1.1694
 3397SOL    HW211960   2.751   3.528   8.331  0.9249 -0.5032 -0.3635
 3398SOL     OW11961   0.452   8.568   1.987 -0.0348 -0.1906  0.6804
 3398SOL    HW111962   0.423   8.634   1.924  1.7191 -1.6474 -1.8248
 3398SOL    HW211963   0.524   8.610   2.034  0.4633  0.0386 -0.2597
 3399SOL     OW11964   5.579   9.240   1.900  0.3266 -0.3789  0.4379
 3399SOL    HW111965   5.622   9.320   1.930 -1.0557  0.3764  0.4893
 3399SOL    HW211966   5.494   9.269   1.865 -0.0355 -1.7683  0.0657
 3400SOL     OW11967   1.556   8.726   3.404 -0.1904 -0.5186  0.3073
 3400SOL    HW111968   1.491   8.659   3.423 -0.1702 -0.5430  0.2878
 3400SOL    HW211969   1.627   8.679   3.361 -1.6902 -0.0027 -3.0849
 3401SOL     OW11970   0.630   2.656   4.294 -0.2779 -0.0232  0.0594
 3401SOL    HW111971   0.681   2.716   4.349 -0.0209 -0.6607  0.5301
 3401SOL    HW211972   0.635   2.572   4.340  1.3574 -1.0018 -1.7526
 3402SOL     OW11973   4.758   8.758   1.360 -0.7878 -0.0196  0.3788
 3402SOL    HW111974   4.850   8.783   1.348 -0.6455 -0.4396  0.5670
 3402SOL    HW211975   4.762   8.671   1.400 -1.2693 -0.6850 -0.9584
 3403SOL     OW11976   9.674   8.691   8.246 -0.1247  0.2414 -0.3831
 3403SOL    HW111977   9.692   8.633   8.321  0.6193 -1.0989 -1.5546
 3403SOL    HW211978   9.757   8.693   8.198 -0.9105  0.1547 -1.7822
 3404SOL     OW11979   9.521   6.447   6.510  0.0931 -0.7751  0.3623
 3404SOL    HW111980   9.605   6.426   6.551 -0.2559 -2.2126  0.3882
 3404SOL    HW211981   9.463   6.465   6.584  0.2245 -0.3798  0.3699
 3405SOL     OW11982   3.792   9.332   3.845 -0.3516  0.3046 -0.0329
 3405SOL    HW111983   3.877   9.335   3.802  0.5089  0.8408  1.6292
 3405SOL    HW211984   3.800   9.390   3.920 -2.3067  0.6182  0.0008
 3406SOL     OW11985   6.543   8.244   7.687  0.0418 -0.1989  0.2708
 3406SOL    HW111986   6.534   8.168   7.629  0.3641 -1.6066  1.9925
 3406SOL    HW211987   6.471   8.301   7.661  0.4074 -0.5695 -1.7676
 3407SOL     OW11988   8.536   4.525   9.269  0.0956  0.2394 -0.2402
 3407SOL    HW111989   8.534   4.552   9.360 -0.8483  0.6056 -0.3626
 3407SOL    HW211990   8.620   4.558   9.236  0.9083 -0.7669  0.7353
 3408SOL     OW11991   4.549   1.176   2.723  0.3856 -0.0272 -0.3624
 3408SOL    HW111992   4.481   1.109   2.727 -0.3204  0.6595 -0.5711
 3408SOL    HW211993   4.616   1.146   2.785  0.5091 -1.3637 -1.0960
 3409SOL     OW11994   1.847   0.185   3.809 -0.0501 -0.0762  0.0370
 3409SOL    HW111995   1.871   0.092   3.809 -0.9867 -0.3252 -0.2110
 3409SOL    HW211996   1.900   0.223   3.739  1.5510 -0.0762  1.1754
 3410SOL     OW11997   6.229   4.504   7.791 -0.5355 -0.0423 -0.5032
 3410SOL    HW111998   6.175   4.575   7.756 -1.7776 -0.5816  0.2655
 3410SOL    HW211999   6.172   4.428   7.792  0.3508 -0.7227  0.0215
 3411SOL     OW12000   4.500   2.111   2.335 -0.2475  0.3520  0.0117
 3411SOL    HW112001   4.460   2.036   2.380  1.2168 -0.8563 -0.5899
 3411SOL    HW212002   4.510   2.081   2.244 -0.6461  1.7116 -0.5003
 3412SOL     OW12003   9.328   4.349   6.053 -0.2712  0.0178  0.1459
 3412SOL    HW112004   9.299   4.433   6.019 -2.0720 -0.7072 -0.2308
 3412SOL    HW212005   9.328   4.291   5.977 -0.8840 -0.7703  0.7300
 3413SOL     OW12006   7.521   0.393   8.440 -0.1243  0.3644 -0.2617
 3413SOL    HW112007   7.532   0.433   8.526  0.9794  0.5030 -0.4598
 3413SOL    HW212008   7.562   0.307   8.447 -2.7948 -0.9854  0.2681
 3414SOL     OW12009   3.173   2.900   6.121  0.1932  0.6437  0.5726
 3414SOL    HW112010   3.133   2.867   6.201  1.4637  0.8133  1.2919
 3414SOL    HW212011   3.258   2.933   6.148  0.3567  1.3597 -0.7302
 3415SOL     OW12012   2.238   7.042   1.905 -0.0891 -0.0049  0.6015
 3415SOL    HW112013   2.268   7.113   1.961 -2.1131  0.3461  1.2942
 3415SOL    HW212014   2.247   6.963   1.959 -0.8533  0.1641  0.9797
 3416SOL     OW12015   8.843   7.708   4.109  0.8642 -0.1238 -0.3266
 3416SOL    HW112016   8.885   7.685   4.192  2.5769  2.3197 -0.3884
 3416SOL    HW212017   8.916   7.726   4.050 -0.3225 -1.0863 -2.1628
 3417SOL     OW12018   2.663   4.478   6.209 -0.6561  0.2544 -0.4026
 3417SOL    HW112019   2.646   4.572   6.203 -1.8072  0.0257 -1.2410
 3417SOL    HW212020   2.729   4.461   6.141 -0.3491  0.4815 -0.1590
 3418SOL     OW12021   6.810   7.094   4.381 -0.6041 -0.0762 -0.2725
 3418SOL    HW112022   6.829   7.168   4.324  1.2259  0.3335  0.7903
 3418SOL    HW212023   6.803   7.133   4.469  0.2187 -1.1317  0.2810
 3419SOL     OW12024   4.943   1.047   8.147  0.4103 -0.1951  0.0317
 3419SOL    HW112025   4.970   1.071   8.236 -0.9210 -0.1667  0.4571
 3419SOL    HW212026   4.926   0.953   8.153 -2.6485  0.2635  0.7083
 3420SOL     OW12027   7.687   5.271   6.830  0.7411  0.0007  0.0866
 3420SOL    HW112028   7.718   5.226   6.751  1.1711  2.1278 -1.0241
 3420SOL    HW212029   7.595   5.245   6.837  1.0287 -1.1900 -0.3875
 3421SOL     OW12030   8.499   7.081   8.487  0.5949 -0.1609 -0.4885
 3421SOL    HW112031   8.591   7.086   8.513  0.2214  0.9580  0.7249
 3421SOL    HW212032   8.476   7.171   8.464 -0.3177 -0.3524 -0.3532
 3422SOL     OW12033   3.864   5.379   1.491  0.1649 -0.6669 -0.0438
 3422SOL    HW112034   3.823   5.292   1.495 -0.0018 -0.5659  0.7374
 3422SOL    HW212035   3.931   5.371   1.423  1.2072 -1.8902  1.0573
 3423SOL     OW12036   2.754   3.118   7.584  0.1942  0.3152  0.1356
 3423SOL    HW112037   2.820   3.134   7.516  0.0610 -0.8642 -0.2923
 3423SOL    HW212038   2.686   3.067   7.541 -0.8120  1.1339  0.6894
 3424SOL     OW12039   4.278   2.246   4.352 -0.0212 -0.0221 -0.0426
 3424SOL    HW112040   4.348   2.197   4.395  1.4422  2.0333  0.0593
 3424SOL    HW212041   4.204   2.239   4.412  1.0301  0.2117  1.3420
 3425SOL     OW12042   5.745   8.640   8.673  0.3148 -0.0545  0.3938
 3425SOL    HW112043   5.771   8.662   8.584  1.0085 -0.1360  0.5690
 3425SOL    HW212044   5.674   8.576   8.663 -0.2040  0.5860 -0.0970
 3426SOL     OW12045   2.850   8.487   1.706 -0.4032 -0.5589  0.4024
 3426SOL    HW112046   2.764   8.526   1.719 -0.2454  0.2403 -0.7944
 3426SOL    HW212047   2.897   8.505   1.787 -1.6835 -1.9705  1.5309
 3427SOL     OW12048   0.620   3.139   0.233 -0.9456 -0.1086  0.1796
 3427SOL    HW112049   0.567   3.189   0.171  0.5734  0.6518 -0.5834
 3427SOL    HW212050   0.615   3.048   0.202 -2.3592 -0.1850  0.5723
 3428SOL     OW12051   8.643   9.641   9.485 -0.5161  0.2635  0.1068
 3428SOL    HW112052   8.721   9.675   9.528  0.1644  1.1281 -1.7073
 3428SOL    HW212053   8.674   9.562   9.440  0.3075  2.3605 -3.4279
 3429SOL     OW12054   7.338   3.043   5.698 -0.0311  0.2911 -0.0301
 3429SOL    HW112055   7.431   3.045   5.677 -0.3829 -1.7272 -2.3248
 3429SOL    HW212056   7.307   3.132   5.680  1.3704  0.9383  0.5775
 3430SOL     OW12057   3.158   5.641   1.739 -0.6327 -0.2481  0.3837
 3430SOL    HW112058   3.137   5.606   1.653 -1.0089 -0.0742  0.4054
 3430SOL    HW212059   3.253   5.653   1.737 -0.4165 -1.7753  0.5735
 3431SOL     OW12060   0.771   3.268   5.822 -0.0781  0.1668  0.0337
 3431SOL    HW112061   0.860   3.241   5.798 -0.2362  0.4990 -1.0078
 3431SOL    HW212062   0.757   3.231   5.909  1.1046  0.1689  0.2440
 3432SOL     OW12063   2.010   3.567   8.001  0.0604 -1.0335  0.1458
 3432SOL    HW112064   1.951   3.609   8.065  0.5179 -0.8244  0.4319
 3432SOL    HW212065   1.953   3.507   7.953 -0.7590  0.3043 -0.6518
 3433SOL     OW12066   3.315   7.307   6.693  0.5309  0.7685 -0.1034
 3433SOL    HW112067   3.274   7.220   6.696  2.6672 -0.3077  0.1577
 3433SOL    HW212068   3.286   7.344   6.610  1.7313 -1.3996 -1.6033
 3434SOL     OW12069   1.447   0.408   8.077 -0.3136  0.1037  0.1095
 3434SOL    HW112070   1.460   0.493   8.120 -0.0190 -0.3145  0.8483
 3434SOL    HW212071   1.399   0.356   8.141  0.6992 -0.7380  0.2002
 3435SOL     OW12072   2.271   4.857   9.099 -0.0552  0.2203  0.0231
 3435SOL    HW112073   2.217   4.790   9.140  0.4673 -0.0571  0.2574
 3435SOL    HW212074   2.294   4.916   9.171  0.9610 -0.3313  0.1690
 3436SOL     OW12075   0.524   8.219   9.836  0.6968 -0.1308  0.2423
 3436SOL    HW112076   0.434   8.190   9.851  0.5442  1.0832  1.9957
 3436SOL    HW212077   0.517   8.288   9.770  0.5066 -0.8165 -0.4696
 3437SOL     OW12078   0.514   6.236   0.149 -0.0881  0.2085 -0.3962
 3437SOL    HW112079   0.503   6.283   0.067 -1.8201  2.4817  1.0147
 3437SOL    HW212080   0.428   6.198   0.168  0.5678 -1.2367 -0.1304
 3438SOL     OW12081   9.587   2.358   5.201 -0.0503  0.1890 -0.0431
 3438SOL    HW112082   9.583   2.372   5.106 -0.1802 -0.1083 -0.0817
 3438SOL    HW212083   9.513   2.300   5.220 -0.8446  1.3025  0.4265
 3439SOL     OW12084   9.453   6.077   2.664  0.6471 -0.5204 -0.6915
 3439SOL    HW112085   9.454   6.114   2.753 -1.4990  0.4636 -1.0193
 3439SOL    HW212086   9.370   6.107   2.626  3.1323  2.4537 -4.4764
 3440SOL     OW12087   3.502   7.493   5.019  0.3814  0.4981  0.1892
 3440SOL    HW112088   3.537   7.407   5.041  0.1268  0.2085 -0.4995
 3440SOL    HW212089   3.412   7.492   5.054  0.3240  0.4228  0.0399
 3441SOL     OW12090   4.092   5.616   3.471 -0.3147 -0.0259 -0.7703
 3441SOL    HW112091   4.180   5.585   3.451  0.3878  0.3638  1.4701
 3441SOL    HW212092   4.104   5.709   3.493 -1.2282 -0.0444 -0.1315
 3442SOL     OW12093   0.697   4.403   1.995 -0.4574  0.7792  0.3221
 3442SOL    HW112094   0.733   4.397   2.083 -1.4064  0.3764  0.6959
 3442SOL    HW212095   0.681   4.496   1.981 -2.4055  0.6596  1.4655
 3443SOL     OW12096   3.475   1.246   3.707 -0.7503 -0.1176  1.1169
 3443SOL    HW112097   3.399   1.272   3.657 -0.8461 -1.5041  0.4848
 3443SOL    HW212098   3.498   1.159   3.673  3.4280  1.6582 -1.5141
 3444SOL     OW12099   2.042   4.776   5.015  0.0410  0.1587  0.2321
 3444SOL    HW112100   1.992   4.858   5.010 -0.6037 -0.1184  1.5757
 3444SOL    HW212101   2.126   4.797   4.976  0.5726  2.0297  2.1765
 3445SOL     OW12102   9.522   6.978   0.266  0.0014 -0.0746 -0.3153
 3445SOL    HW112103   9.521   7.010   0.176  0.0437  0.0046 -0.2873
 3445SOL    HW212104   9.566   6.893   0.261 -0.0312 -0.0883 -0.3747
 3446SOL     OW12105   8.446   3.393   5.966  1.2570 -0.0437 -0.4800
 3446SOL    HW112106   8.486   3.465   6.014 -1.4684  0.9097  0.5317
 3446SOL    HW212107   8.405   3.434   5.890 -0.4356 -0.4525  0.1750
 3447SOL     OW12108   2.903   0.579   0.876 -0.1562  0.2737  0.2454
 3447SOL    HW112109   2.957   0.639   0.824 -0.6249 -0.2670 -0.9180
 3447SOL    HW212110   2.955   0.561   0.954  0.6143  1.0585 -0.0684
 3448SOL     OW12111   5.344   6.398   2.652 -0.7092 -0.1691  0.5933
 3448SOL    HW112112   5.431   6.431   2.673 -1.1552  2.0254 -0.6895
 3448SOL    HW212113   5.359   6.310   2.616  0.8062 -0.3723  1.6567
 3449SOL     OW12114   6.077   5.900   6.916 -0.0767  0.5532 -0.1106
 3449SOL    HW112115   6.115   5.823   6.874 -1.9488 -0.2949 -0.3018
 3449SOL    HW212116   6.128   5.911   6.997  1.4052  0.2498 -0.9621
 3450SOL     OW12117   2.845   5.478   0.165  0.4856 -0.4056 -0.6174
 3450SOL    HW112118   2.808   5.508   0.247  0.9085  1.4002 -1.0483
 3450SOL    HW212119   2.885   5.393   0.186 -1.0002 -0.8408  0.5761
 3451SOL     OW12120   7.130   2.104   6.149  0.0380 -0.6249 -0.5803
 3451SOL    HW112121   7.178   2.024   6.128  3.7999  1.1792  0.2670
 3451SOL    HW212122   7.137   2.112   6.244 -2.1200 -0.2883 -0.4012
 3452SOL     OW12123   9.245   7.733   5.523  0.0880 -0.1553  0.9333
 3452SOL    HW112124   9.277   7.783   5.448  0.3924  0.1396  1.2606
 3452SOL    HW212125   9.167   7.688   5.490 -1.4514  2.1689  1.1989
 3453SOL     OW12126   3.130   6.765   9.243 -0.6612 -0.2543  0.0254
 3453SOL    HW112127   3.075   6.688   9.255 -0.1536 -0.9349 -1.8302
 3453SOL    HW212128   3.220   6.732   9.248 -0.4323  0.3433 -0.0531
 3454SOL     OW12129   5.217   4.893   9.238  0.2711  0.3420 -0.0681
 3454SOL    HW112130   5.182   4.949   9.168  1.8245 -0.5062 -1.6003
 3454SOL    HW212131   5.182   4.931   9.319 -0.8421  1.9265 -1.2283
 3455SOL     OW12132   0.671   1.115   7.387 -0.3331 -0.1320 -0.0598
 3455SOL    HW112133   0.608   1.083   7.452  0.1898 -1.0883  0.0072
 3455SOL    HW212134   0.756   1.107   7.430  0.0889 -1.4037 -1.0571
 3456SOL     OW12135   2.822   5.719   5.373 -0.0199 -0.3157  0.1144
 3456SOL    HW112136   2.793   5.644   5.322  1.5843 -0.2139 -1.0494
 3456SOL    HW212137   2.754   5.785   5.360 -0.4775 -0.8935 -0.4953
 3457SOL     OW12138   0.025   0.636   9.608 -0.1224  0.4219  0.4220
 3457SOL    HW112139   0.095   0.577   9.579  0.6651  1.2693  0.5458
 3457SOL    HW212140  -0.040   0.578   9.647  0.4533 -0.4062  0.1894
 3458SOL     OW12141   5.704   0.939   3.030  0.6505 -0.7683 -0.8294
 3458SOL    HW112142   5.636   0.933   2.963 -1.9241  2.6863  1.1249
 3458SOL    HW212143   5.689   0.863   3.087 -1.1479 -0.5162 -0.8991
 3459SOL     OW12144   4.810   4.303   1.988 -0.1680 -0.6269  0.1516
 3459SOL    HW112145   4.757   4.266   1.918 -1.0348  2.0180 -0.6963
 3459SOL    HW212146   4.826   4.229   2.048 -2.9976 -2.0089 -0.6419
 3460SOL     OW12147   6.611   7.371   0.176  0.1220  0.0644  0.2574
 3460SOL    HW112148   6.562   7.451   0.158  0.7569  0.4899  0.3690
 3460SOL    HW212149   6.690   7.380   0.122  0.3964 -0.2835  0.6031
 3461SOL     OW12150   6.976   6.291   3.301  0.3757  0.1502 -0.0458
 3461SOL    HW112151   6.953   6.347   3.227  1.4347 -0.3373 -0.7730
 3461SOL    HW212152   7.034   6.225   3.264  0.4224 -0.4892  1.1058
 3462SOL     OW12153   3.455   8.682   0.704 -0.1414 -0.4786 -0.2570
 3462SOL    HW112154   3.475   8.697   0.612 -0.2926 -0.0105 -0.2190
 3462SOL    HW212155   3.416   8.594   0.706  1.0013 -1.0076 -0.4553
 3463SOL     OW12156   7.470   4.663   5.379  0.0619 -0.3813 -0.4937
 3463SOL    HW112157   7.535   4.707   5.324 -0.3754  1.4647  0.3521
 3463SOL    HW212158   7.399   4.727   5.386 -0.1978 -0.8277  1.5922
 3464SOL     OW12159   8.506   5.235   5.966  0.3873  0.0899  0.1166
 3464SOL    HW112160   8.483   5.287   6.043  0.0252 -0.6652  0.5298
 3464SOL    HW212161   8.564   5.167   6.000 -0.7673 -1.0100 -0.0242
 3465SOL     OW12162   9.002   4.529   4.948  0.1709 -0.0790  0.1142
 3465SOL    HW112163   8.930   4.471   4.973  0.0630 -0.1373 -0.3323
 3465SOL    HW212164   9.073   4.506   5.008 -0.8880  1.5268  2.1010
 3466SOL     OW12165   9.201   3.328   4.168 -0.9849 -0.2841 -0.0563
 3466SOL    HW112166   9.180   3.385   4.094 -1.2994 -1.0937 -0.5987
 3466SOL    HW212167   9.122   3.328   4.221 -1.5672 -1.4762 -0.8903
 3467SOL     OW12168   1.073   7.691   2.776 -0.1247  0.0035  0.4574
 3467SOL    HW112169   1.129   7.725   2.846 -0.2775  0.1351  0.5167
 3467SOL    HW212170   1.084   7.753   2.704 -1.2958  0.8490  0.9664
 3468SOL     OW12171   9.600   7.709   9.571  0.1619  0.2058  0.2019
 3468SOL    HW112172   9.578   7.788   9.521 -0.9363 -0.6860 -0.7798
 3468SOL    HW212173   9.518   7.683   9.612  0.1754 -1.1643 -0.5782
 3469SOL     OW12174   0.541   6.457   5.508 -0.0794 -0.3629 -0.1661
 3469SOL    HW112175   0.565   6.482   5.419  0.4376 -0.7314 -0.1358
 3469SOL    HW212176   0.619   6.413   5.543  0.5977  1.8289  1.3025
 3470SOL     OW12177   7.151   7.890   7.110  0.5210 -0.1859  0.1865
 3470SOL    HW112178   7.164   7.965   7.168  0.8335  0.1423 -0.3038
 3470SOL    HW212179   7.212   7.904   7.038 -1.1191  0.3619 -1.1556
 3471SOL     OW12180   8.003   6.690   7.849  0.0167  0.4341 -1.2956
 3471SOL    HW112181   8.075   6.659   7.794 -1.3499 -0.5856 -2.6073
 3471SOL    HW212182   7.951   6.611   7.866  0.0037  0.8597  0.9176
 3472SOL     OW12183   2.616   4.011   0.715  0.8281  0.3634 -0.6320
 3472SOL    HW112184   2.562   4.017   0.793 -1.5474  0.8174 -2.2073
 3472SOL    HW212185   2.571   4.066   0.650  3.5071  1.2527 -1.9103
 3473SOL     OW12186   2.010   8.887   3.575 -0.2697  0.0585  0.5461
 3473SOL    HW112187   2.068   8.938   3.631 -1.1817  2.2240 -0.3958
 3473SOL    HW212188   1.927   8.934   3.576 -0.8108 -0.7542 -1.3067
 3474SOL     OW12189   3.091   5.960   7.066 -0.0453  0.0342  0.5631
 3474SOL    HW112190   3.172   6.007   7.087  0.1380  0.3168 -0.7412
 3474SOL    HW212191   3.108   5.870   7.095  0.2110  0.3887  1.5659
 3475SOL     OW12192   5.352   1.872   0.457 -0.5464  0.2742  0.2228
 3475SOL    HW112193   5.286   1.822   0.504  0.5841 -0.0509  1.5364
 3475SOL    HW212194   5.408   1.806   0.416  0.3803  0.4469  1.1599
 3476SOL     OW12195   2.995   1.673   2.066  0.4217  0.0400  0.2613
 3476SOL    HW112196   3.072   1.655   2.011 -0.7044  0.5804 -1.5685
 3476SOL    HW212197   2.999   1.768   2.082  0.7441 -0.1150  1.1484
 3477SOL     OW12198   9.721   1.239   6.802 -0.8013  0.0075 -0.1649
 3477SOL    HW112199   9.770   1.204   6.727 -2.0451 -1.4157 -0.3511
 3477SOL    HW212200   9.668   1.165   6.833 -2.5044  1.3496  0.2870
 3478SOL     OW12201   0.339   0.068   3.975 -0.1480  0.2020  0.1563
 3478SOL    HW112202   0.352   0.058   4.069  3.8431 -1.4684 -0.3799
 3478SOL    HW212203   0.299  -0.015   3.948  2.0690 -0.8774  0.0063
 3479SOL     OW12204   8.384   0.406   3.453 -0.3101  0.2078  0.0128
 3479SOL    HW112205   8.309   0.366   3.497  0.1048  0.5124  1.0179
 3479SOL    HW212206   8.361   0.499   3.448 -0.1513  0.2453 -0.0020
 3480SOL     OW12207   4.634   6.994   4.749  0.2872  0.0200  0.3828
 3480SOL    HW112208   4.577   6.983   4.673  1.9166  0.9457 -1.0420
 3480SOL    HW212209   4.664   6.906   4.770  0.1570 -0.1942 -0.3216
 3481SOL     OW12210   9.383   6.431   3.226  0.0794  0.2485 -0.2374
 3481SOL    HW112211   9.384   6.507   3.286 -0.1680 -1.9197  2.7449
 3481SOL    HW212212   9.297   6.436   3.184 -0.5060  0.9103  0.9601
 3482SOL     OW12213   4.865   7.947   1.695  0.0158 -0.5446  0.4133
 3482SOL    HW112214   4.910   8.010   1.751  0.7341 -0.6670 -0.0083
 3482SOL    HW212215   4.934   7.885   1.668 -0.8352 -2.0618  1.5586
 3483SOL     OW12216   1.699   0.016   1.639 -0.0139  0.1429  0.0240
 3483SOL    HW112217   1.689   0.097   1.688 -1.3780 -0.3333  0.5760
 3483SOL    HW212218   1.693  -0.053   1.705  1.4592 -0.4231 -0.3908
 3484SOL     OW12219   1.740   0.564   9.055  0.2646 -0.0728 -0.1292
 3484SOL    HW112220   1.687   0.531   8.983  0.2504 -0.2954 -0.0186
 3484SOL    HW212221   1.686   0.632   9.096 -0.4763 -1.1700  0.7692
 3485SOL     OW12222   9.211   9.242   8.372 -0.0634 -0.2005 -0.4821
 3485SOL    HW112223   9.252   9.240   8.459 -0.7987 -0.3110 -0.1230
 3485SOL    HW212224   9.266   9.300   8.320  0.8365 -0.7616 -0.1765
 3486SOL     OW12225   9.358   2.366   9.401 -0.5350 -0.3759 -0.0552
 3486SOL    HW112226   9.422   2.353   9.331 -1.4569  0.0811 -1.0128
 3486SOL    HW212227   9.316   2.450   9.380 -0.5785 -0.0411  1.2599
 3487SOL     OW12228   5.740   2.417   6.120 -0.0881  0.4891 -0.1712
 3487SOL    HW112229   5.712   2.341   6.171  0.5571  1.1796  1.2556
 3487SOL    HW212230   5.836   2.415   6.123 -0.0121  0.2756 -1.7995
 3488SOL     OW12231   0.372   2.800   2.181  0.3688 -0.4686 -0.0608
 3488SOL    HW112232   0.439   2.733   2.194  0.5241 -0.1563  0.7931
 3488SOL    HW212233   0.387   2.863   2.251 -0.5384 -0.1624 -0.1287
 3489SOL     OW12234   6.651   7.812   1.162  0.2831  0.5899  0.0757
 3489SOL    HW112235   6.733   7.765   1.146 -0.1168 -0.3119  0.5823
 3489SOL    HW212236   6.636   7.802   1.256 -1.0548 -0.3724 -0.2183
 3490SOL     OW12237   4.550   0.764   9.382 -0.2397 -0.4311 -0.1975
 3490SOL    HW112238   4.497   0.814   9.320 -0.3514 -0.9602 -0.5248
 3490SOL    HW212239   4.555   0.676   9.345  0.6860 -0.4491 -0.0691
 3491SOL     OW12240   4.065   1.295   9.404 -0.7372  0.3967 -0.1813
 3491SOL    HW112241   4.008   1.234   9.358  0.0239  0.3462 -1.1101
 3491SOL    HW212242   4.009   1.338   9.468 -1.9748  0.8244 -1.5038
 3492SOL     OW12243   7.142   3.322   8.601 -0.0804  0.1560 -0.0342
 3492SOL    HW112244   7.212   3.379   8.632 -0.1885  1.2615 -1.6751
 3492SOL    HW212245   7.081   3.382   8.557 -2.4898 -0.6500  2.0280
 3493SOL     OW12246   1.738   1.741   8.376  0.7081  0.5419  0.6349
 3493SOL    HW112247   1.686   1.794   8.316  2.4417 -1.9745 -3.5137
 3493SOL    HW212248   1.677   1.672   8.405  0.1804  1.0649  0.7982
 3494SOL     OW12249   8.426   7.076   5.738 -0.3476 -0.1215  0.3319
 3494SOL    HW112250   8.461   7.092   5.651 -1.2578  0.0713 -0.0092
 3494SOL    HW212251   8.496   7.102   5.798 -0.2726  1.1924 -0.3040
 3495SOL     OW12252   2.280   7.618   7.095 -0.3958  0.1085  0.2808
 3495SOL    HW112253   2.259   7.552   7.161  0.2640  0.6833  1.0762
 3495SOL    HW212254   2.286   7.568   7.013  0.5328 -0.8943  0.9424
 3496SOL     OW12255   4.341   8.445   8.649  0.2928 -0.1300 -0.1276
 3496SOL    HW112256   4.362   8.366   8.600  0.4711 -0.0473 -0.1836
 3496SOL    HW212257   4.329   8.513   8.582 -1.4467 -0.4604 -0.1936
 3497SOL     OW12258   7.005   1.574   5.707  0.0987 -0.5202 -0.2507
 3497SOL    HW112259   7.006   1.548   5.799 -0.9267 -1.3673 -0.4684
 3497SOL    HW212260   6.929   1.530   5.670 -0.9098  1.6692 -0.9818
 3498SOL     OW12261   2.795   8.149   5.641  0.2059 -0.4388 -0.1486
 3498SOL    HW112262   2.846   8.172   5.718 -0.2724 -0.6480  0.2326
 3498SOL    HW212263   2.814   8.219   5.578  1.8757 -1.1178 -0.4565
 3499SOL     OW12264   3.467   8.178   1.977  0.1819 -0.0536 -0.0868
 3499SOL    HW112265   3.414   8.208   1.904  1.7108  0.0089 -1.2344
 3499SOL    HW212266   3.404   8.150   2.043 -1.2496  0.5278 -1.1507
 3500SOL     OW12267   3.571   8.832   3.451 -0.1629  0.1248 -0.1549
 3500SOL    HW112268   3.516   8.762   3.417 -0.7899  0.3225  0.4240
 3500SOL    HW212269   3.511   8.889   3.499  0.4958  0.5194  0.2281
 3501SOL     OW12270   5.435   7.588   1.240 -0.1988 -0.2073 -0.1466
 3501SOL    HW112271   5.530   7.597   1.243  0.1270 -2.8552  2.1202
 3501SOL    HW212272   5.420   7.510   1.185 -1.0248 -0.1204 -0.0617
 3502SOL     OW12273   3.948   1.925   4.942 -0.8006 -0.0583  0.6180
 3502SOL    HW112274   3.884   1.862   4.909  0.7308 -2.6146  2.1830
 3502SOL    HW212275   3.942   1.918   5.037  1.5256 -0.1267  0.8096
 3503SOL     OW12276   6.314   6.175   0.569  0.1952  0.3517 -0.4111
 3503SOL    HW112277   6.330   6.081   0.559 -1.9524  0.1017 -2.3114
 3503SOL    HW212278   6.399   6.216   0.550  0.9438 -1.1631 -0.4921
 3504SOL     OW12279   1.307   1.864   5.401  0.4575 -0.1241 -0.5866
 3504SOL    HW112280   1.287   1.852   5.493  0.8730 -0.1386 -0.4977
 3504SOL    HW212281   1.248   1.803   5.356  0.6196 -0.4925 -0.3006
 3505SOL     OW12282   6.870   1.363   3.838 -0.6653 -0.1265  0.3705
 3505SOL    HW112283   6.956   1.351   3.879  0.1355 -0.0755 -1.2260
 3505SOL    HW212284   6.848   1.454   3.855  0.6765  0.5231 -1.1092
 3506SOL     OW12285   1.216   2.569   7.820  0.4159  0.0619  0.7465
 3506SOL    HW112286   1.266   2.557   7.901  0.6740  0.4844  0.6506
 3506SOL    HW212287   1.271   2.531   7.752  1.3575  1.9380  0.4019
 3507SOL     OW12288   2.369   7.544   3.529  0.7097 -0.5044 -0.5790
 3507SOL    HW112289   2.286   7.572   3.491  0.3611  1.0963  1.2163
 3507SOL    HW212290   2.344   7.482   3.599  1.0444 -0.2683 -0.2478
 3508SOL     OW12291   5.567   8.682   9.838 -0.3101  0.0931  0.2428
 3508SOL    HW112292   5.490   8.737   9.827 -0.3889 -0.1875 -0.7201
 3508SOL    HW212293   5.589   8.689   9.931 -0.6778  1.2588  0.2605
 3509SOL     OW12294   8.110   4.583   8.397 -0.3427 -0.6732 -0.0115
 3509SOL    HW112295   8.080   4.492   8.386 -1.8771 -0.0204 -1.7029
 3509SOL    HW212296   8.199   4.582   8.361  0.3996 -1.8581  1.7017
 3510SOL     OW12297   6.229   1.743   1.043  0.1245 -0.5057  0.3465
 3510SOL    HW112298   6.265   1.657   1.065  0.2974 -0.9973 -1.6674
 3510SOL    HW212299   6.225   1.744   0.947  0.2459  1.7956  0.3061
 3511SOL     OW12300   3.784   9.342   4.700 -0.5556 -0.1916  0.1478
 3511SOL    HW112301   3.803   9.371   4.789 -1.4621  0.5486  0.1144
 3511SOL    HW212302   3.783   9.246   4.705  1.4524 -0.2502  0.4822
 3512SOL     OW12303   0.096   4.858   6.140  0.2002 -0.2455  0.2289
 3512SOL    HW112304   0.106   4.777   6.090  3.3316 -0.2943  0.7443
 3512SOL    HW212305   0.055   4.919   6.079  0.5110 -1.3581 -1.1450
 3513SOL     OW12306   7.061   2.494   5.527  0.0474  0.2999 -0.0538
 3513SOL    HW112307   7.021   2.415   5.490 -0.6889 -0.2546  1.8227
 3513SOL    HW212308   7.141   2.462   5.570 -0.6462  0.4225  1.3726
 3514SOL     OW12309   4.627   2.920   1.252 -0.5503 -0.0654  0.1593
 3514SOL    HW112310   4.542   2.962   1.245 -0.9447 -0.5942  1.5929
 3514SOL    HW212311   4.611   2.840   1.302  0.5355 -0.9367 -0.8101
 3515SOL     OW12312   3.261   8.040   2.737 -0.1196 -0.5960  0.1442
 3515SOL    HW112313   3.303   8.108   2.684  2.1921 -2.1612 -0.1781
 3515SOL    HW212314   3.240   8.084   2.820  0.7242  0.6603 -0.2782
 3516SOL     OW12315   7.306   9.542   0.251  0.2990  0.0928 -0.8238
 3516SOL    HW112316   7.295   9.540   0.156 -1.1973  0.2412 -0.6794
 3516SOL    HW212317   7.265   9.624   0.279 -0.3762 -0.5167  0.0486
 3517SOL     OW12318   6.781   0.424   4.162  0.2672 -0.0029 -0.4455
 3517SOL    HW112319   6.855   0.484   4.157  0.4973 -0.3517 -1.2603
 3517SOL    HW212320   6.798   0.371   4.240  1.4196 -0.7739 -1.1816
 3518SOL     OW12321   5.923   9.313   2.844  0.2450 -0.7541  0.2232
 3518SOL    HW112322   5.864   9.385   2.821  1.9984  0.4145 -0.8924
 3518SOL    HW212323   5.912   9.250   2.773  1.8482  0.4827 -1.2309
 3519SOL     OW12324   8.890   4.913   7.824 -0.1931  0.5387 -0.4736
 3519SOL    HW112325   8.929   4.832   7.855  0.0132  0.1515 -1.6771
 3519SOL    HW212326   8.876   4.965   7.903  2.9118  0.7764  0.0431
 3520SOL     OW12327   3.924   5.406   6.022  0.3966  0.1710 -0.4848
 3520SOL    HW112328   3.925   5.332   6.083  0.2930  0.1033 -0.5643
 3520SOL    HW212329   4.012   5.443   6.027  0.3873  0.1663 -0.2930
 3521SOL     OW12330   0.576   8.225   8.929  0.0000  0.1003  0.4240
 3521SOL    HW112331   0.497   8.219   8.876  0.0861 -1.0307  0.4142
 3521SOL    HW212332   0.544   8.245   9.017 -0.5309 -2.7385  0.9647
 3522SOL     OW12333   7.327   5.289   5.688 -0.7658  0.3935 -0.2047
 3522SOL    HW112334   7.339   5.380   5.661  0.3105  0.1810 -0.4958
 3522SOL    HW212335   7.410   5.246   5.667 -1.2769 -0.6763 -0.1298
 3523SOL     OW12336   3.959   6.451   2.091 -0.4432  0.1754 -0.4263
 3523SOL    HW112337   4.011   6.419   2.164  2.5727  3.3306 -0.9474
 3523SOL    HW212338   3.885   6.496   2.132  0.8631  1.3607  0.7268
 3524SOL     OW12339   3.232   7.044   9.229  0.4824  0.1445 -0.0567
 3524SOL    HW112340   3.317   7.085   9.211  0.4519  0.7823  1.1615
 3524SOL    HW212341   3.253   6.966   9.280  0.4416 -0.6623 -1.2358
 3525SOL     OW12342   7.969   0.658   9.552 -0.0044 -0.1730 -0.1461
 3525SOL    HW112343   7.895   0.611   9.515 -0.0451 -0.3357  0.1405
 3525SOL    HW212344   7.998   0.716   9.481  0.5738 -1.2257 -0.8026
 3526SOL     OW12345   0.364   0.555   2.362  0.6848  0.0773 -0.0973
 3526SOL    HW112346   0.335   0.541   2.272 -1.3112 -1.9660  0.7683
 3526SOL    HW212347   0.411   0.638   2.359  0.8830 -0.0322 -3.0467
 3527SOL     OW12348   3.544   7.133   5.744  0.2240 -0.1690  0.3384
 3527SOL    HW112349   3.610   7.131   5.675  1.0668 -4.4753  0.9775
 3527SOL    HW212350   3.463   7.110   5.700 -0.2352  1.6478  0.1446
 3528SOL     OW12351   7.883   5.372   1.010  0.0921 -0.2405 -0.3639
 3528SOL    HW112352   7.922   5.392   0.925  2.6883  0.8150  0.9458
 3528SOL    HW212353   7.854   5.457   1.044 -1.8066 -0.7821 -0.5518
 3529SOL     OW12354   3.763   0.056   0.545 -0.2505 -0.3915 -0.0033
 3529SOL    HW112355   3.672   0.031   0.559 -0.1662 -0.4372  0.4809
 3529SOL    HW212356   3.792   0.092   0.629  0.5503 -1.5445  0.2517
 3530SOL     OW12357   0.192   7.098   5.389  0.2037 -0.2586 -0.0195
 3530SOL    HW112358   0.148   7.025   5.433  3.8607 -1.9679  1.2384
 3530SOL    HW212359   0.214   7.159   5.460 -1.0464  1.1611 -0.7902
 3531SOL     OW12360   1.420   4.332   1.455  0.3953  0.2613 -0.1163
 3531SOL    HW112361   1.409   4.251   1.405  0.1197  0.8861 -1.0929
 3531SOL    HW212362   1.331   4.366   1.465  0.4830  0.3205  0.5071
 3532SOL     OW12363   5.557   1.925   4.445 -0.3058 -0.3627 -0.0788
 3532SOL    HW112364   5.574   1.850   4.388  0.1123  0.0533 -0.5071
 3532SOL    HW212365   5.546   1.887   4.532 -0.9497 -1.0023 -0.4294
 3533SOL     OW12366   2.648   1.013   5.469 -0.1049 -0.6420 -0.8781
 3533SOL    HW112367   2.705   1.077   5.426  0.9717 -1.9113 -1.4459
 3533SOL    HW212368   2.707   0.940   5.490 -0.7413 -0.3879  2.1266
 3534SOL     OW12369   2.092   1.704   5.532  0.5907  0.4207 -0.2727
 3534SOL    HW112370   2.005   1.704   5.572  0.8021  0.5621  0.1945
 3534SOL    HW212371   2.080   1.748   5.449 -0.0131 -0.5608 -0.7232
 3535SOL     OW12372   8.744   9.824   3.031  0.2292  0.6781 -0.0199
 3535SOL    HW112373   8.758   9.841   3.124  0.4209  2.0207 -0.2755
 3535SOL    HW212374   8.703   9.738   3.028 -1.8676  1.5425  1.4680
 3536SOL     OW12375   5.524   1.659   0.400 -0.2735  0.0170 -0.0248
 3536SOL    HW112376   5.594   1.652   0.336  0.0901 -1.7563  0.5206
 3536SOL    HW212377   5.463   1.588   0.378 -0.4972 -0.1812  1.1421
 3537SOL     OW12378   3.357   0.541   2.078 -0.3357 -0.3028 -0.5543
 3537SOL    HW112379   3.312   0.463   2.047 -3.0791  1.0633 -0.3102
 3537SOL    HW212380   3.305   0.571   2.152  2.0792  0.4240  0.9735
 3538SOL     OW12381   4.961   0.578   3.962  0.0929 -0.0316 -0.0381
 3538SOL    HW112382   4.972   0.663   4.004  0.8923 -0.7340  1.2440
 3538SOL    HW212383   4.931   0.520   4.032 -2.7724 -0.3289 -1.3786
 3539SOL     OW12384   9.667   5.454   7.312 -0.1770 -0.0086 -0.6824
 3539SOL    HW112385   9.590   5.476   7.365 -0.3861 -0.0582 -0.9664
 3539SOL    HW212386   9.708   5.381   7.359  2.3804  2.9189  2.1353
 3540SOL     OW12387   0.339   0.062   6.841  0.0789 -0.4987 -0.1664
 3540SOL    HW112388   0.417   0.088   6.792 -0.2574  0.8804 -0.0003
 3540SOL    HW212389   0.270   0.056   6.775  0.4102 -2.2477 -0.3992
 3541SOL     OW12390   9.254   5.710   5.640 -0.4248 -0.0558 -0.7603
 3541SOL    HW112391   9.166   5.691   5.607 -0.4639 -1.4430  0.1017
 3541SOL    HW212392   9.239   5.757   5.722 -0.4250 -1.8172  0.2958
 3542SOL     OW12393   2.217   8.326   1.586 -0.3088 -0.5749 -0.3667
 3542SOL    HW112394   2.159   8.398   1.561  1.6814  1.5625  0.8116
 3542SOL    HW212395   2.273   8.313   1.510 -0.4995 -0.7213 -0.4842
 3543SOL     OW12396   6.416   5.259   5.066 -0.3099 -0.2255 -0.1250
 3543SOL    HW112397   6.390   5.188   5.007 -0.0081  1.7583 -2.8673
 3543SOL    HW212398   6.467   5.318   5.010 -1.3675  2.6328  1.7429
 3544SOL     OW12399   1.681   1.327   3.502  0.4107 -0.5577  0.2673
 3544SOL    HW112400   1.739   1.267   3.548  0.7122 -0.5792 -0.1362
 3544SOL    HW212401   1.598   1.323   3.550  0.6972 -0.6400  0.7559
 3545SOL     OW12402   5.677   2.748   4.595  0.1834 -0.5271  0.3654
 3545SOL    HW112403   5.746   2.759   4.530 -1.3970  1.5076 -1.1155
 3545SOL    HW212404   5.601   2.718   4.545 -0.0744 -2.8736  1.9666
 3546SOL     OW12405   2.337   8.045   4.408 -0.1490 -0.5148 -0.0649
 3546SOL    HW112406   2.325   7.952   4.429  0.3348 -0.6716 -0.4765
 3546SOL    HW212407   2.283   8.059   4.330 -0.9976 -0.2108  0.5574
 3547SOL     OW12408   3.429   5.938   9.204 -0.3462  0.1589 -0.3900
 3547SOL    HW112409   3.356   5.997   9.222 -1.3274 -1.2674  0.5598
 3547SOL    HW212410   3.484   5.945   9.282 -2.1535 -2.4891  1.3135
 3548SOL     OW12411   6.523   1.104   9.706  0.1265 -0.0434  0.2854
 3548SOL    HW112412   6.565   1.051   9.639 -1.4364  1.1334 -1.7414
 3548SOL    HW212413   6.486   1.041   9.768  0.5446 -1.2214 -0.6318
 3549SOL     OW12414   2.806   5.608   1.207 -0.2395 -0.5152 -0.7995
 3549SOL    HW112415   2.840   5.522   1.180  1.1955 -1.3616  3.0350
 3549SOL    HW212416   2.723   5.589   1.251 -0.1270  0.1096 -0.2999
 3550SOL     OW12417   9.090   2.263   9.472  0.0035  0.2584  0.0156
 3550SOL    HW112418   9.132   2.181   9.498  1.1709  0.0778 -2.1742
 3550SOL    HW212419   9.162   2.326   9.468 -0.7805  1.2476  1.0008
 3551SOL     OW12420   8.201   9.258   4.833  0.6134 -0.0633 -0.3530
 3551SOL    HW112421   8.120   9.309   4.832  1.3695  1.1957 -1.6917
 3551SOL    HW212422   8.173   9.169   4.851 -0.8791  0.6178  0.9237
 3552SOL     OW12423   8.959   7.969   3.042 -0.0428 -0.1221  0.4835
 3552SOL    HW112424   9.019   7.974   2.967  1.6586  1.1246  1.8362
 3552SOL    HW212425   8.889   8.031   3.021  0.1746 -0.1029 -0.2408
 3553SOL     OW12426   8.653   5.235   0.295 -0.5759  0.1587  0.0409
 3553SOL    HW112427   8.688   5.201   0.377 -0.7261  1.1423  0.5275
 3553SOL    HW212428   8.680   5.327   0.293 -0.9667  0.2704 -0.7930
 3554SOL     OW12429   1.213   8.307   8.765 -0.5875  0.1753 -0.3030
 3554SOL    HW112430   1.134   8.357   8.788 -0.2768  0.5237  0.0262
 3554SOL    HW212431   1.186   8.252   8.692 -1.2536 -0.0076  0.0715
 3555SOL     OW12432   8.900   6.566   4.029  0.3001 -0.0740  0.3824
 3555SOL    HW112433   8.984   6.595   3.993  0.1189  2.4720  1.7615
 3555SOL    HW212434   8.847   6.546   3.952  0.7571  2.7033 -0.7992
 3556SOL     OW12435   4.624   1.976   1.616 -0.2888 -0.0601  0.6597
 3556SOL    HW112436   4.570   1.902   1.589 -0.3765 -0.4808  1.9183
 3556SOL    HW212437   4.702   1.937   1.654  0.6705  0.5402 -0.5908
 3557SOL     OW12438   9.518   5.276   2.861 -0.2676  0.5428  0.2777
 3557SOL    HW112439   9.543   5.321   2.942  0.2487  0.2458  0.2876
 3557SOL    HW212440   9.423   5.276   2.862 -0.3038 -1.2435  1.8981
 3558SOL     OW12441   8.663   1.641   6.453  0.0820  1.0692  0.1347
 3558SOL    HW112442   8.723   1.715   6.441 -0.1764  1.6698  2.0814
 3558SOL    HW212443   8.617   1.661   6.535 -0.1875 -1.1227  0.5837
 3559SOL     OW12444   1.214   5.653   8.630  0.1112  0.1423  0.0072
 3559SOL    HW112445   1.216   5.747   8.645 -2.7053  0.3925 -0.6327
 3559SOL    HW212446   1.220   5.644   8.534 -1.2207 -0.2008 -0.0572
 3560SOL     OW12447   0.035   6.988   0.166 -0.1309  0.3833 -0.0218
 3560SOL    HW112448  -0.004   6.912   0.209 -0.9903 -0.0973 -1.5956
 3560SOL    HW212449  -0.030   7.057   0.176  0.6224  0.9274  1.3496
 3561SOL     OW12450   5.960   3.108   7.789  0.4159 -0.5438 -0.1343
 3561SOL    HW112451   5.944   3.069   7.703  1.3470 -1.4747  0.0942
 3561SOL    HW212452   6.020   3.180   7.772 -0.3654  0.0642 -0.4026
 3562SOL     OW12453   9.404   6.238   3.413 -0.5213  0.0148  0.3711
 3562SOL    HW112454   9.408   6.272   3.323 -0.5398  1.2722  0.8295
 3562SOL    HW212455   9.324   6.276   3.449  1.4902  2.8991  2.2038
 3563SOL     OW12456   2.624   8.610   6.180  0.4507  0.0235  0.7521
 3563SOL    HW112457   2.568   8.677   6.140  1.4945 -0.2692 -1.3284
 3563SOL    HW212458   2.685   8.660   6.235  1.3391  0.8591 -0.9171
 3564SOL     OW12459   3.285   8.289   7.480 -0.3356 -0.5097 -0.0382
 3564SOL    HW112460   3.210   8.230   7.477 -0.8173  0.1284 -2.0313
 3564SOL    HW212461   3.362   8.231   7.473 -0.7929 -0.9416 -1.8845
 3565SOL     OW12462   6.660   5.959   5.173 -0.3972 -0.6442 -0.1062
 3565SOL    HW112463   6.587   5.912   5.213  0.3468 -0.4774  1.5261
 3565SOL    HW212464   6.737   5.908   5.195  0.1012 -0.2823 -0.9443
 3566SOL     OW12465   4.642   9.020   8.507  0.0199 -0.4533  0.3771
 3566SOL    HW112466   4.728   9.058   8.489  0.1862 -0.7305  0.5801
 3566SOL    HW212467   4.619   9.051   8.594  0.5835 -1.5819  0.9408
 3567SOL     OW12468   8.277   1.138   2.222  0.1500 -0.7269  0.5200
 3567SOL    HW112469   8.339   1.095   2.281 -0.1226 -0.8422  0.7256
 3567SOL    HW212470   8.270   1.078   2.148 -1.8493 -2.1396  1.7439
 3568SOL     OW12471   2.874   0.624   3.680 -0.0872 -0.0036 -0.3736
 3568SOL    HW112472   2.950   0.568   3.665  0.1306  0.5379 -1.3859
 3568SOL    HW212473   2.800   0.563   3.682  0.3486 -0.5379  0.6440
 3569SOL     OW12474   1.567   5.496   2.088  0.4411  0.2805  0.2083
 3569SOL    HW112475   1.617   5.569   2.050  1.2872 -0.0482  0.6674
 3569SOL    HW212476   1.609   5.479   2.172 -1.5129  1.1178  1.4317
 3570SOL     OW12477   6.216   0.693   3.807  0.3109  0.0675  0.1805
 3570SOL    HW112478   6.229   0.766   3.868 -1.7524  0.2587  0.4527
 3570SOL    HW212479   6.156   0.726   3.741  1.1961 -0.6791 -1.0446
 3571SOL     OW12480   7.414   6.113   8.633  0.2562  0.4214  0.2030
 3571SOL    HW112481   7.336   6.138   8.683  0.3002 -2.8599  2.2294
 3571SOL    HW212482   7.391   6.135   8.542 -1.6898  2.4388  1.0742
 3572SOL     OW12483   0.872   7.088   0.212  0.1392 -0.2178  1.0285
 3572SOL    HW112484   0.912   7.062   0.129 -1.1310  0.9294  0.0114
 3572SOL    HW212485   0.846   7.179   0.199 -1.2588 -0.4069  2.2290
 3573SOL     OW12486   4.352   3.977   1.006  0.0372 -0.0728  0.0533
 3573SOL    HW112487   4.269   3.945   1.042 -1.0889  1.7719 -0.7416
 3573SOL    HW212488   4.379   3.909   0.944 -0.9496 -0.6508  0.2265
 3574SOL     OW12489   9.725   5.546   8.846  0.4027  0.1068  0.6499
 3574SOL    HW112490   9.819   5.545   8.830  0.6375  1.1586  1.7802
 3574SOL    HW212491   9.688   5.587   8.768  0.9503  0.2170  0.4434
 3575SOL     OW12492   3.564   7.738   6.250  0.3386  0.4820  0.3864
 3575SOL    HW112493   3.599   7.814   6.205  0.1213 -0.2122 -1.0125
 3575SOL    HW212494   3.543   7.770   6.338  2.2508  1.4798  0.5354
 3576SOL     OW12495   0.267   7.667   2.516  0.1338  0.9862 -0.5378
 3576SOL    HW112496   0.321   7.731   2.471  0.0761  1.1835 -0.3304
 3576SOL    HW212497   0.201   7.719   2.561  1.2845  0.9461  1.2954
 3577SOL     OW12498   6.987   9.086   9.687 -0.5532  0.4189  0.0917
 3577SOL    HW112499   7.063   9.139   9.663  0.0566 -1.3419 -2.2478
 3577SOL    HW212500   6.967   9.112   9.777  1.3730  2.5785 -0.0014
 3578SOL     OW12501   2.653   6.397   0.978 -0.3412 -0.4937  0.3836
 3578SOL    HW112502   2.702   6.319   1.005  0.5812  0.4122  1.4269
 3578SOL    HW212503   2.563   6.366   0.965  0.4368 -2.1605 -1.4024
 3579SOL     OW12504   6.999   0.877   3.950 -0.2309 -0.3201 -0.2031
 3579SOL    HW112505   6.922   0.827   3.979 -0.8627  0.4478 -0.5002
 3579SOL    HW212506   6.963   0.944   3.892  0.2987  1.7397  1.7028
 3580SOL     OW12507   0.139   2.493   2.482 -0.0522  0.0340  0.6099
 3580SOL    HW112508   0.215   2.476   2.537  1.1139  1.0719 -0.6232
 3580SOL    HW212509   0.152   2.438   2.405  0.6631  1.8665 -0.6461
 3581SOL     OW12510   4.997   3.982   5.577 -0.3418  0.5185 -0.2960
 3581SOL    HW112511   5.049   4.061   5.557  0.8826 -0.7936 -2.7375
 3581SOL    HW212512   4.910   4.001   5.542  0.3499  0.3090 -2.2953
 3582SOL     OW12513   5.538   7.909   7.103  0.1379 -0.0186 -0.2787
 3582SOL    HW112514   5.442   7.901   7.099  0.0538  1.2079 -1.6743
 3582SOL    HW212515   5.555   8.000   7.077  1.5948  0.3653  1.8429
 3583SOL     OW12516   7.959   8.655   4.992  0.7265 -0.1174  0.8756
 3583SOL    HW112517   7.968   8.610   5.076 -2.0835 -0.6556  0.9914
 3583SOL    HW212518   7.916   8.738   5.013 -1.1059 -0.7637 -0.0790
 3584SOL     OW12519   0.927   0.161   5.151 -0.2618 -0.1741  0.3522
 3584SOL    HW112520   1.006   0.143   5.204 -1.2543  0.9862  2.3608
 3584SOL    HW212521   0.957   0.156   5.061  1.9459 -0.5378  1.0382
 3585SOL     OW12522   5.900   7.886   2.664  0.1513  0.3437 -0.0052
 3585SOL    HW112523   5.846   7.827   2.716 -0.3783  1.7495  1.1120
 3585SOL    HW212524   5.902   7.847   2.576 -1.2975 -0.5872  0.3538
 3586SOL     OW12525   9.610   4.933   6.688  0.0877 -0.0601 -0.7935
 3586SOL    HW112526   9.541   4.925   6.753  1.0663  3.0599  0.8081
 3586SOL    HW212527   9.594   5.018   6.646  0.7040 -1.0440 -3.2026
 3587SOL     OW12528   2.922   2.194   2.348 -0.7601  0.0821  0.3719
 3587SOL    HW112529   2.871   2.251   2.406  0.0840  1.8579 -0.5508
 3587SOL    HW212530   3.013   2.216   2.366 -0.4620  0.1736 -1.0853
 3588SOL     OW12531   6.967   0.924   1.770  0.1185 -0.2188  0.1680
 3588SOL    HW112532   6.887   0.873   1.781  0.3945 -0.7087 -0.0323
 3588SOL    HW212533   6.988   0.956   1.858  0.3179 -1.0399  0.4288
 3589SOL     OW12534   0.215   2.581   4.718  0.2240  0.2103  0.7421
 3589SOL    HW112535   0.265   2.648   4.765  0.5763  1.8070 -1.7057
 3589SOL    HW212536   0.181   2.627   4.641  0.2979 -2.4040 -0.9573
 3590SOL     OW12537   4.599   4.864   0.034  0.0361 -0.1911  0.3322
 3590SOL    HW112538   4.596   4.915   0.114  2.4748 -0.3894  0.6316
 3590SOL    HW212539   4.577   4.775   0.061  1.5589 -0.4053  0.9903
 3591SOL     OW12540   9.420   7.728   3.526 -0.4497  0.0464  0.5800
 3591SOL    HW112541   9.339   7.683   3.546 -0.6026 -0.2593 -0.6442
 3591SOL    HW212542   9.486   7.659   3.521 -0.2334  0.2218  0.9358
 3592SOL     OW12543   2.291   8.192   2.526  0.0391 -0.1578  0.3252
 3592SOL    HW112544   2.324   8.178   2.615  0.3265  0.8083  0.3814
 3592SOL    HW212545   2.289   8.104   2.488 -1.0008 -0.7182  1.5891
 3593SOL     OW12546   0.345   2.561   3.228  0.3450  0.4311  0.6519
 3593SOL    HW112547   0.427   2.600   3.259  1.2507 -0.5426 -0.4392
 3593SOL    HW212548   0.354   2.468   3.246  0.4965 -0.0304 -1.5228
 3594SOL     OW12549   8.297   3.600   0.311 -0.6571  0.4502  0.2554
 3594SOL    HW112550   8.269   3.680   0.266 -1.7571 -0.0713 -0.0270
 3594SOL    HW212551   8.259   3.529   0.259  1.2235 -0.3164 -0.1336
 3595SOL     OW12552   8.096   6.658   4.970  0.1622 -0.0758 -0.0241
 3595SOL    HW112553   8.006   6.665   5.001 -0.2359  0.9072 -1.3065
 3595SOL    HW212554   8.126   6.749   4.964  0.3558 -0.2354 -2.0294
 3596SOL     OW12555   4.776   1.354   2.762  1.0354 -0.7067 -0.3777
 3596SOL    HW112556   4.761   1.303   2.842  2.5208  0.8481  0.9946
 3596SOL    HW212557   4.688   1.375   2.730  0.3959 -1.1453  1.0115
 3597SOL     OW12558   7.260   5.793   1.049  0.0248  0.2154  0.0791
 3597SOL    HW112559   7.228   5.805   1.138  0.1649  1.1696  0.0100
 3597SOL    HW212560   7.268   5.882   1.014  0.6557 -0.1132 -0.6408
 3598SOL     OW12561   8.413   5.959   9.431 -0.0269 -0.3743  0.2572
 3598SOL    HW112562   8.415   5.917   9.345  0.6019 -0.2643  0.2144
 3598SOL    HW212563   8.482   5.915   9.481 -1.6584 -1.7923  1.3631
 3599SOL     OW12564   2.193   0.875   3.477  0.4944  0.0379  0.0054
 3599SOL    HW112565   2.238   0.946   3.432  0.0926  0.6366  0.5413
 3599SOL    HW212566   2.246   0.858   3.555  0.3124  0.1067  0.1458
 3600SOL     OW12567   5.467   9.276   1.148 -0.1768 -0.4733  0.4510
 3600SOL    HW112568   5.535   9.222   1.188 -0.2784 -0.4393  0.6731
 3600SOL    HW212569   5.479   9.362   1.186 -0.4914 -0.5229  0.6745
 3601SOL     OW12570   5.428   6.879   5.868 -0.3877 -0.1095  0.3011
 3601SOL    HW112571   5.341   6.850   5.843 -0.2855 -0.3222  0.1886
 3601SOL    HW212572   5.468   6.909   5.786  0.2388 -1.5566  0.0475
 3602SOL     OW12573   6.306   6.839   6.759  0.4038 -0.0244 -0.3299
 3602SOL    HW112574   6.348   6.825   6.844  0.4397 -0.3778 -0.4040
 3602SOL    HW212575   6.322   6.758   6.710 -2.3385 -1.1766  0.4757
 3603SOL     OW12576   7.539   4.889   5.571 -0.5814  0.1617 -0.0117
 3603SOL    HW112577   7.474   4.859   5.507  1.0982 -1.6317 -0.9882
 3603SOL    HW212578   7.601   4.816   5.579  0.1253  0.9320  2.5467
 3604SOL     OW12579   9.006   5.987   9.424 -0.2412  0.4576 -0.5462
 3604SOL    HW112580   8.959   6.006   9.505  0.9425  0.5823  0.1415
 3604SOL    HW212581   8.950   6.022   9.355 -0.4937  1.9259  0.3447
 3605SOL     OW12582   6.030   0.854   6.024 -0.0744  0.1481 -0.5024
 3605SOL    HW112583   6.047   0.882   6.114  0.1001 -0.8139 -0.2200
 3605SOL    HW212584   5.977   0.775   6.033  0.2348 -0.1541 -1.2331
 3606SOL     OW12585   5.339   3.598   2.900  0.1582  0.0469 -0.0581
 3606SOL    HW112586   5.406   3.656   2.863  1.1564  0.4831  2.2952
 3606SOL    HW212587   5.383   3.515   2.912 -0.6097 -0.5625 -1.2080
 3607SOL     OW12588   8.363   4.640   8.279  0.4406  0.2763  0.1020
 3607SOL    HW112589   8.384   4.590   8.200  0.6613  0.3714  0.0991
 3607SOL    HW212590   8.346   4.729   8.247 -1.3837 -0.0918 -0.0770
 3608SOL     OW12591   7.275   4.671   0.135  0.1379  0.0726 -0.1473
 3608SOL    HW112592   7.299   4.747   0.188 -0.3127  1.7283 -2.1928
 3608SOL    HW212593   7.209   4.626   0.187  0.3040  1.1505  1.0529
 3609SOL     OW12594   1.706   0.795   6.280  0.4249 -0.0884 -0.4130
 3609SOL    HW112595   1.626   0.794   6.228  0.7366 -1.0543 -0.8985
 3609SOL    HW212596   1.769   0.843   6.225  0.1428  0.8218  0.0430
 3610SOL     OW12597   3.024   1.615   8.852 -0.5326 -0.0382 -0.1729
 3610SOL    HW112598   2.982   1.590   8.770 -0.1089 -0.9636 -0.1155
 3610SOL    HW212599   3.016   1.537   8.908  0.4664  0.0795  0.1519
 3611SOL     OW12600   7.420   0.462   1.830 -0.6499  0.2555 -0.1375
 3611SOL    HW112601   7.393   0.380   1.870  0.7222  0.0568  0.4347
 3611SOL    HW212602   7.398   0.529   1.894  0.1266  0.1059  0.2870
 3612SOL     OW12603   0.030   0.747   8.714  0.9024 -0.0754  0.0909
 3612SOL    HW112604   0.103   0.687   8.698  1.4334  0.5010  0.2489
 3612SOL    HW212605   0.072   0.833   8.719  0.3926  0.1045  1.6403
 3613SOL     OW12606   6.088   9.810   5.150 -0.1653  0.1437  0.4368
 3613SOL    HW112607   6.155   9.876   5.166 -0.0942  0.5374 -1.2936
 3613SOL    HW212608   6.132   9.742   5.099 -0.4160 -0.9313  1.6143
 3614SOL     OW12609   7.506   4.473   5.100 -0.0264 -0.1536 -0.0995
 3614SOL    HW112610   7.552   4.392   5.078  0.8844  0.3982 -0.3101
 3614SOL    HW212611   7.492   4.468   5.195  2.1139  0.4278  0.3198
 3615SOL     OW12612   4.375   0.931   2.439 -0.1518  0.2365 -0.1301
 3615SOL    HW112613   4.347   0.949   2.529 -0.9534 -1.1567 -0.0776
 3615SOL    HW212614   4.458   0.884   2.449 -0.4719 -0.3304 -0.0873
 3616SOL     OW12615   1.598   2.626   8.001 -0.4732 -0.0823  0.7373
 3616SOL    HW112616   1.661   2.642   7.931 -0.3806  1.1463  1.0702
 3616SOL    HW212617   1.650   2.625   8.081 -0.9629  2.4718  1.1916
 3617SOL     OW12618   8.960   2.623   0.852  0.2929  0.1962  0.4704
 3617SOL    HW112619   8.926   2.646   0.938  1.4842  1.9944  0.4998
 3617SOL    HW212620   9.012   2.698   0.825  2.1608 -1.3925 -0.6476
 3618SOL     OW12621   9.202   3.906   1.730 -0.1570 -0.4095  0.3664
 3618SOL    HW112622   9.135   3.964   1.765  1.0554  1.5903 -0.4469
 3618SOL    HW212623   9.284   3.955   1.739  0.8362 -1.7081 -0.9875
 3619SOL     OW12624   6.532   4.747   5.263 -0.3295  1.2241 -0.1353
 3619SOL    HW112625   6.569   4.836   5.266 -0.5762  1.3052  1.3965
 3619SOL    HW212626   6.608   4.690   5.253  0.0883  1.5025  1.1545
 3620SOL     OW12627   1.742   2.417   3.748  0.0435  0.2413  0.2366
 3620SOL    HW112628   1.720   2.360   3.674  2.0576  0.9687 -0.9961
 3620SOL    HW212629   1.778   2.357   3.814  2.2257  0.0200 -1.0793
 3621SOL     OW12630   1.457   4.756   0.484  0.3630  0.2279 -0.8181
 3621SOL    HW112631   1.476   4.809   0.562 -2.0903  1.2486 -0.8274
 3621SOL    HW212632   1.514   4.679   0.493  1.2440  1.0407  1.1802
 3622SOL     OW12633   0.910   0.001   7.590 -0.9268  0.1391  0.4611
 3622SOL    HW112634   0.978  -0.063   7.570 -1.4778 -0.4297  0.3954
 3622SOL    HW212635   0.946   0.084   7.558  0.1588  0.0276  1.3293
 3623SOL     OW12636   1.159   8.711   3.616 -0.0774 -0.1584 -0.0182
 3623SOL    HW112637   1.086   8.733   3.559  0.5309 -2.2970 -1.7682
 3623SOL    HW212638   1.119   8.671   3.693 -0.7992 -1.2380 -0.9193
 3624SOL     OW12639   7.975   8.707   2.886  0.4081  0.9307 -0.2932
 3624SOL    HW112640   7.960   8.749   2.971  0.0763  0.2579 -0.0088
 3624SOL    HW212641   7.908   8.638   2.881  0.7154  0.6668 -0.8963
 3625SOL     OW12642   5.202   0.157   0.116 -0.3803 -0.5378 -0.5475
 3625SOL    HW112643   5.166   0.070   0.096 -0.6521 -0.7031  0.6022
 3625SOL    HW212644   5.174   0.212   0.043  0.0189 -1.4757 -1.4284
 3626SOL     OW12645   6.633   4.090   5.555  0.4454 -0.6295  0.2304
 3626SOL    HW112646   6.560   4.045   5.598  0.8333 -0.1245  1.4476
 3626SOL    HW212647   6.592   4.136   5.481  0.1365 -3.4146 -1.4548
 3627SOL     OW12648   1.889   2.858   5.900 -0.8174 -0.1416  0.1198
 3627SOL    HW112649   1.803   2.855   5.941 -1.3762 -0.9484 -1.0628
 3627SOL    HW212650   1.938   2.922   5.952 -1.7606 -0.4777  1.4936
 3628SOL     OW12651   8.152   0.396   4.499 -0.5025 -0.3271 -0.2174
 3628SOL    HW112652   8.243   0.425   4.499 -0.7839  0.5852 -0.8135
 3628SOL    HW212653   8.117   0.427   4.582 -0.2011 -0.9368  0.1473
 3629SOL     OW12654   5.412   8.987   6.687  0.3623  0.4201  0.3840
 3629SOL    HW112655   5.490   8.975   6.634  0.1409  2.4531 -0.4854
 3629SOL    HW212656   5.339   8.975   6.627  0.0047 -0.3616  0.9477
 3630SOL     OW12657   1.497   7.788   0.414 -0.1663 -1.3748 -0.2647
 3630SOL    HW112658   1.467   7.786   0.323  1.2510  1.6249 -0.9288
 3630SOL    HW212659   1.454   7.865   0.452  1.8052 -0.6070  0.5573
 3631SOL     OW12660   4.091   4.807   4.969  0.4768 -0.1020 -0.2869
 3631SOL    HW112661   4.179   4.823   4.934  0.6367  0.0230  0.1691
 3631SOL    HW212662   4.048   4.755   4.902  0.2903  1.3443 -1.3541
 3632SOL     OW12663   2.032   8.044   3.896 -0.8888  0.0582 -0.3869
 3632SOL    HW112664   2.091   8.014   3.965  0.6341 -0.3161 -1.7736
 3632SOL    HW212665   2.082   8.110   3.848 -2.3822  1.2506 -0.3825
 3633SOL     OW12666   9.546   1.936   8.773  0.4580 -0.3184  0.3946
 3633SOL    HW112667   9.609   1.893   8.716  3.3335  0.4024  2.7840
 3633SOL    HW212668   9.586   2.021   8.795 -0.8402 -0.2111  2.7839
 3634SOL     OW12669   2.547   6.632   1.843 -0.6987 -0.0540  0.6690
 3634SOL    HW112670   2.519   6.711   1.797 -1.2636  1.1228  2.8753
 3634SOL    HW212671   2.485   6.623   1.916  1.5268 -0.3943  2.6434
 3635SOL     OW12672   0.762   8.071   8.400 -0.3785 -0.4611  0.2043
 3635SOL    HW112673   0.775   8.030   8.486  1.3002 -0.2339  0.1064
 3635SOL    HW212674   0.760   8.165   8.419  0.3987 -0.3901 -0.0299
 3636SOL     OW12675   0.347   0.224   9.566  0.0168  0.2375  0.1314
 3636SOL    HW112676   0.324   0.230   9.473  0.9532  0.7800 -0.0865
 3636SOL    HW212677   0.335   0.132   9.588 -0.0994  0.0803 -0.5602
 3637SOL     OW12678   7.960   6.130   5.133 -0.3857 -0.1904 -0.4418
 3637SOL    HW112679   8.014   6.085   5.198 -0.8447  0.6113  0.5337
 3637SOL    HW212680   8.020   6.148   5.060  0.5386  0.1830  0.3839
 3638SOL     OW12681   5.365   4.566   9.534  0.0762  0.1199  0.9439
 3638SOL    HW112682   5.381   4.634   9.469 -1.7970 -0.8848 -0.6720
 3638SOL    HW212683   5.318   4.610   9.605  0.9043  0.9344  1.0119
 3639SOL     OW12684   0.322   1.634   5.909 -0.1945 -0.1274 -0.2758
 3639SOL    HW112685   0.253   1.626   5.975  0.7596 -0.4095  0.7105
 3639SOL    HW212686   0.314   1.555   5.855 -1.4070  0.4228 -0.9464
 3640SOL     OW12687   9.329   1.132   7.857 -1.0082 -0.0692  0.0844
 3640SOL    HW112688   9.336   1.110   7.764 -2.4202 -1.1334  0.1888
 3640SOL    HW212689   9.256   1.193   7.862  0.5953  1.9521  0.2549
 3641SOL     OW12690   0.460   4.353   0.977  0.5502 -0.4365  0.3942
 3641SOL    HW112691   0.434   4.340   1.069  1.0552  0.2148  0.6341
 3641SOL    HW212692   0.548   4.317   0.972  2.7200  4.0188  1.4941
 3642SOL     OW12693   2.339   6.333   7.714 -0.0707 -0.2775  0.9048
 3642SOL    HW112694   2.378   6.420   7.714  0.5357 -0.5442  0.6092
 3642SOL    HW212695   2.247   6.348   7.692 -0.1223  0.3472  1.5294
 3643SOL     OW12696   8.403   8.601   5.880 -0.0297  0.3829  0.5239
 3643SOL    HW112697   8.435   8.652   5.954 -1.4570 -1.3882  2.4917
 3643SOL    HW212698   8.479   8.589   5.824  0.9422  2.3623  1.3281
 3644SOL     OW12699   1.052   5.457   7.239  0.3972  0.2362  0.6690
 3644SOL    HW112700   0.984   5.500   7.186  1.3195 -0.9364 -1.6200
 3644SOL    HW212701   1.122   5.522   7.245  0.2426  0.4170  0.5370
 3645SOL     OW12702   7.954   7.053   0.305 -0.3904  0.2096 -0.4097
 3645SOL    HW112703   7.931   6.961   0.288  0.6561 -0.2665  0.6043
 3645SOL    HW212704   7.941   7.097   0.221  0.2565 -1.1295 -1.2510
 3646SOL     OW12705   9.461   3.240   2.830  0.4026  0.3181  0.0383
 3646SOL    HW112706   9.452   3.272   2.740  0.6211 -1.8189 -0.8117
 3646SOL    HW212707   9.405   3.163   2.833  0.8832  0.0110  1.5583
 3647SOL     OW12708   6.676   0.456   2.099 -0.4291  0.0728 -0.0508
 3647SOL    HW112709   6.663   0.548   2.122  0.8283  0.5522 -1.1395
 3647SOL    HW212710   6.588   0.423   2.083 -1.1031  0.4917  2.3764
 3648SOL     OW12711   2.382   4.649   7.641  0.1421 -0.1500  0.4407
 3648SOL    HW112712   2.377   4.707   7.565  0.2550  0.0010  0.5481
 3648SOL    HW212713   2.472   4.658   7.673 -0.1206  0.3764  1.0556
 3649SOL     OW12714   7.712   7.887   3.411 -0.1665  0.6174 -0.1489
 3649SOL    HW112715   7.775   7.814   3.402  1.5130  1.8994  0.6711
 3649SOL    HW212716   7.764   7.958   3.448 -2.3586  1.4595  1.4556
 3650SOL     OW12717   5.261   0.356   4.499  0.0893  0.7970 -0.5390
 3650SOL    HW112718   5.333   0.411   4.468 -0.7964  1.3377 -1.7190
 3650SOL    HW212719   5.207   0.341   4.421 -0.1827 -1.0132 -0.0519
 3651SOL     OW12720   5.876   8.215   2.283 -0.1243 -0.0124 -0.2404
 3651SOL    HW112721   5.791   8.171   2.275 -0.3032 -0.3286  2.5134
 3651SOL    HW212722   5.912   8.184   2.366  1.5899  1.9847 -0.1504
 3652SOL     OW12723   2.656   6.475   8.588 -0.6859 -0.0497 -0.5483
 3652SOL    HW112724   2.740   6.447   8.624 -1.2503 -1.8941 -0.5557
 3652SOL    HW212725   2.591   6.424   8.637 -1.8787  1.8688 -0.0339
 3653SOL     OW12726   5.588   9.786   0.553 -0.1739  0.2022  0.0095
 3653SOL    HW112727   5.586   9.704   0.602 -0.7110 -0.7344 -1.5334
 3653SOL    HW212728   5.610   9.760   0.463 -0.4872  1.7354 -0.5368
 3654SOL     OW12729   6.368   8.960   1.728 -0.7181  0.5998 -0.1056
 3654SOL    HW112730   6.445   8.907   1.748 -0.0392  1.1659 -1.1316
 3654SOL    HW212731   6.360   8.954   1.633 -0.1173  2.9716 -0.3565
 3655SOL     OW12732   9.076   2.579   6.902  0.3997 -0.1560 -0.4248
 3655SOL    HW112733   9.004   2.519   6.922  0.4318 -0.3287 -0.8126
 3655SOL    HW212734   9.145   2.522   6.869 -0.1426  0.2457 -2.3479
 3656SOL     OW12735   5.862   4.395   3.640  0.0820  0.5827 -0.5349
 3656SOL    HW112736   5.813   4.473   3.615 -3.2739 -1.3903 -0.8809
 3656SOL    HW212737   5.818   4.363   3.719  3.6675  0.8836  1.7696
 3657SOL     OW12738   5.583   0.654   8.639 -0.3837  0.1203  1.0197
 3657SOL    HW112739   5.658   0.701   8.676  2.1128 -1.8151 -1.1749
 3657SOL    HW212740   5.545   0.607   8.713  1.5665 -0.0688  1.9780
 3658SOL     OW12741   6.400   2.492   4.082 -0.3879  0.0554 -0.3350
 3658SOL    HW112742   6.444   2.502   3.997 -0.1775  0.1242 -0.2188
 3658SOL    HW212743   6.342   2.568   4.087 -0.9962 -0.3659 -0.7666
 3659SOL     OW12744   3.825   8.065   4.566 -0.6171  0.2942  0.0160
 3659SOL    HW112745   3.765   8.133   4.597 -2.7743 -2.4477  2.4115
 3659SOL    HW212746   3.888   8.055   4.637  2.1134  2.2127 -1.9191
 3660SOL     OW12747   9.000   8.083   9.459 -0.0742 -0.0068 -0.3256
 3660SOL    HW112748   8.936   8.151   9.435 -1.6575 -1.5247 -0.6371
 3660SOL    HW212749   8.974   8.055   9.546  2.6125  1.9857  1.2747
 3661SOL     OW12750   5.551   2.468   5.494  0.1841 -0.4846  0.3227
 3661SOL    HW112751   5.495   2.543   5.512  0.0130 -0.1137 -1.5541
 3661SOL    HW212752   5.491   2.398   5.468  0.5060 -0.1764 -1.3921
 3662SOL     OW12753   8.728   0.462   5.935  0.6155 -0.1142 -0.4357
 3662SOL    HW112754   8.759   0.402   6.003  0.7781  0.8305  0.3332
 3662SOL    HW212755   8.769   0.430   5.855 -1.1023 -2.4379 -0.5096
 3663SOL     OW12756   5.752   7.184   3.640  0.3875 -0.0081  0.6300
 3663SOL    HW112757   5.844   7.212   3.645  0.3371  0.4046 -0.3549
 3663SOL    HW212758   5.708   7.257   3.597 -0.3396 -0.3583  0.7683
 3664SOL     OW12759   0.690   0.317   4.092  0.2916  0.1078  0.0389
 3664SOL    HW112760   0.717   0.368   4.015  0.6869 -0.5656 -0.2813
 3664SOL    HW212761   0.656   0.235   4.056  0.7217 -0.3238  0.5820
 3665SOL     OW12762   3.304   3.467   9.306  0.0279  0.3245  0.2180
 3665SOL    HW112763   3.275   3.448   9.217  0.6518  0.1318  0.0544
 3665SOL    HW212764   3.255   3.546   9.330  1.0595  1.3422 -0.9048
 3666SOL     OW12765   1.827   3.932   0.758  0.3262  0.1774  0.6370
 3666SOL    HW112766   1.758   3.956   0.820 -0.3773  1.5634 -0.6225
 3666SOL    HW212767   1.901   3.989   0.783 -0.2171  1.3082 -0.2366
 3667SOL     OW12768   6.397   6.123   1.709 -0.1166 -0.1599 -0.1828
 3667SOL    HW112769   6.311   6.088   1.730  1.1928 -3.2380  0.5775
 3667SOL    HW212770   6.418   6.180   1.784 -0.7158 -0.8943  0.5574
 3668SOL     OW12771   4.570   3.975   4.143 -0.2498  0.2202  0.7129
 3668SOL    HW112772   4.569   3.888   4.102 -0.6659  0.8468 -0.6638
 3668SOL    HW212773   4.618   4.030   4.081 -0.7217  1.1606  1.1706
 3669SOL     OW12774   4.202   8.248   9.223  0.1461  0.0722 -0.0298
 3669SOL    HW112775   4.124   8.214   9.266  0.7810  0.6185  1.6033
 3669SOL    HW212776   4.198   8.211   9.134 -0.2907 -2.5413  0.9800
 3670SOL     OW12777   0.675   3.060   6.297 -0.3252 -0.7474  0.5481
 3670SOL    HW112778   0.670   2.977   6.345 -1.0341 -0.9731  0.0993
 3670SOL    HW212779   0.649   3.126   6.362  0.1232 -0.8813  0.8716
 3671SOL     OW12780   0.018   4.166   6.994 -0.1649  0.4121 -0.0917
 3671SOL    HW112781  -0.032   4.168   6.912  0.1904 -0.1990 -0.3338
 3671SOL    HW212782   0.101   4.209   6.974 -0.0486  0.1981 -0.0766
 3672SOL     OW12783   3.847   8.410   7.103 -0.3502  0.4882 -0.3017
 3672SOL    HW112784   3.922   8.468   7.095  1.3972 -1.6814 -0.6919
 3672SOL    HW212785   3.834   8.375   7.015 -1.5927  0.5167 -0.1533
 3673SOL     OW12786   9.741   1.712   5.696 -0.2304  0.5465 -0.1398
 3673SOL    HW112787   9.830   1.725   5.729 -0.4617  0.9527  0.3322
 3673SOL    HW212788   9.752   1.657   5.618  0.2946 -0.6879  0.7801
 3674SOL     OW12789   4.997   5.808   9.062  0.4092 -0.2529 -0.0783
 3674SOL    HW112790   5.070   5.752   9.088 -0.1827  0.0081  2.3747
 3674SOL    HW212791   5.035   5.896   9.055  0.5650 -0.3131  0.0168
 3675SOL     OW12792   0.439   5.389   8.055 -0.8279  0.1557 -0.4511
 3675SOL    HW112793   0.353   5.418   8.025 -1.1607 -0.8480 -0.5189
 3675SOL    HW212794   0.499   5.460   8.031 -1.6653  0.9552 -0.2120
 3676SOL     OW12795   5.598   9.379   7.791  0.0194 -0.2343 -0.9672
 3676SOL    HW112796   5.556   9.373   7.705 -0.5500 -0.6590 -0.6700
 3676SOL    HW212797   5.578   9.295   7.833  0.7553 -0.2428 -0.6274
 3677SOL     OW12798   7.425   3.480   1.472  0.3673  0.1180  0.0336
 3677SOL    HW112799   7.445   3.434   1.391  1.0258  1.0715 -0.3731
 3677SOL    HW212800   7.329   3.484   1.475  0.3288 -0.3492 -0.4462
 3678SOL     OW12801   0.550   8.952   1.569  0.3586 -0.3992  0.1498
 3678SOL    HW112802   0.558   9.001   1.487 -1.2595 -0.4591 -0.0942
 3678SOL    HW212803   0.494   8.878   1.546 -0.3930 -0.2330  1.3743
 3679SOL     OW12804   3.867   6.289   4.498  0.1714 -0.3431  0.1446
 3679SOL    HW112805   3.959   6.281   4.522 -0.3994 -1.5726  2.2030
 3679SOL    HW212806   3.844   6.379   4.521  0.0065 -1.0589  3.2809
 3680SOL     OW12807   2.801   2.175   8.836 -0.1462  0.1502 -0.1087
 3680SOL    HW112808   2.747   2.096   8.826 -0.6079  0.2256  1.4533
 3680SOL    HW212809   2.844   2.164   8.921 -1.5627  2.3101  0.9835
 3681SOL     OW12810   7.727   0.596   7.763  0.0831 -0.3072 -0.1165
 3681SOL    HW112811   7.810   0.616   7.720 -0.3217  0.1740 -0.6913
 3681SOL    HW212812   7.718   0.501   7.756  1.0060 -0.4717  0.7373
 3682SOL     OW12813   5.355   6.015   2.237 -0.3193  0.0322 -0.3043
 3682SOL    HW112814   5.312   6.034   2.153 -0.9663  0.2795  0.0718
 3682SOL    HW212815   5.305   6.066   2.301  0.8881  0.7459  0.0822
 3683SOL     OW12816   0.660   6.295   1.580  0.4992 -0.2597  0.1037
 3683SOL    HW112817   0.712   6.350   1.639  0.3978 -0.5266  0.4442
 3683SOL    HW212818   0.703   6.209   1.583 -2.9536 -2.2591  4.7618
 3684SOL     OW12819   6.198   5.599   4.929 -0.3351  0.0865 -0.3381
 3684SOL    HW112820   6.203   5.511   4.893  0.8734  0.1505 -0.3898
 3684SOL    HW212821   6.139   5.591   5.004  0.9177 -1.1311  0.5774
 3685SOL     OW12822   9.216   5.023   1.954  0.0454  0.3355 -0.0637
 3685SOL    HW112823   9.237   5.031   1.861 -0.9121  1.0391 -0.2362
 3685SOL    HW212824   9.234   4.932   1.974  0.0915  0.1222 -0.9952
 3686SOL     OW12825   8.207   2.262   6.636  0.1479 -0.5902  0.3036
 3686SOL    HW112826   8.219   2.170   6.613  1.4281 -0.5984  0.9259
 3686SOL    HW212827   8.249   2.310   6.565 -2.5942 -0.3401 -1.3190
 3687SOL     OW12828   7.691   7.721   2.124 -1.1711 -0.0430 -0.1259
 3687SOL    HW112829   7.757   7.652   2.124 -1.1050  0.0110 -1.3958
 3687SOL    HW212830   7.609   7.675   2.109 -1.3416 -0.0191  0.6763
 3688SOL     OW12831   3.298   2.290   6.735 -0.5430 -0.5593 -0.0854
 3688SOL    HW112832   3.269   2.378   6.759  0.2320  0.8752 -3.7737
 3688SOL    HW212833   3.352   2.262   6.809 -1.0653  1.9213  1.3576
 3689SOL     OW12834   3.663   8.711   7.667 -0.0592  0.1162  0.0527
 3689SOL    HW112835   3.691   8.738   7.755  0.2762 -0.8275  0.2498
 3689SOL    HW212836   3.639   8.793   7.624 -1.6770  0.4735  1.5031
 3690SOL     OW12837   9.491   4.087   7.552  0.2378  0.6630 -0.4947
 3690SOL    HW112838   9.467   3.996   7.566 -0.8583  0.5390 -2.6764
 3690SOL    HW212839   9.558   4.106   7.617 -0.3944 -1.3268  0.7874
 3691SOL     OW12840   7.340   1.807   6.990 -0.0281  0.5737  0.3139
 3691SOL    HW112841   7.413   1.862   7.017  1.6246 -1.5254  0.3940
 3691SOL    HW212842   7.320   1.754   7.068 -0.9574  0.4200 -0.0211
 3692SOL     OW12843   2.659   3.045   1.079  0.1335 -0.1216  0.3489
 3692SOL    HW112844   2.636   2.954   1.101  1.7060 -0.3069  1.3809
 3692SOL    HW212845   2.742   3.038   1.032  0.5461  0.8120  0.9102
 3693SOL     OW12846   0.953   9.580   3.135  0.2462  0.3897  0.0033
 3693SOL    HW112847   1.003   9.523   3.076  0.9897  1.9103 -0.8860
 3693SOL    HW212848   0.963   9.539   3.221  2.4222  0.2104 -0.2649
 3694SOL     OW12849   6.194   2.338   5.795 -0.0662 -0.5996  0.1706
 3694SOL    HW112850   6.122   2.307   5.740  1.0417 -1.3862 -0.9005
 3694SOL    HW212851   6.261   2.270   5.787  1.8584  1.3076 -0.9954
 3695SOL     OW12852   8.534   1.122   2.001 -0.0676 -0.1319 -0.0292
 3695SOL    HW112853   8.599   1.148   1.936 -0.8629 -1.7056 -1.5398
 3695SOL    HW212854   8.577   1.135   2.085  1.9769 -0.5513 -0.9632
 3696SOL     OW12855   8.862   7.195   4.094  0.1965 -0.3027  0.0173
 3696SOL    HW112856   8.872   7.283   4.058 -0.3218  0.0824  0.7765
 3696SOL    HW212857   8.825   7.143   4.022  1.1819 -0.0838 -0.6519
 3697SOL     OW12858   9.303   9.393   7.055 -0.4669  0.0657 -0.3622
 3697SOL    HW112859   9.379   9.353   7.097 -2.1149 -0.5767  2.2404
 3697SOL    HW212860   9.295   9.346   6.972  2.5003  0.8741 -1.2427
 3698SOL     OW12861   3.422   2.004   8.430  0.4616  0.0279  0.5392
 3698SOL    HW112862   3.387   1.924   8.470 -0.2428 -0.5905 -1.2144
 3698SOL    HW212863   3.350   2.038   8.377  1.2793  0.9185 -0.0363
 3699SOL     OW12864   4.562   3.347   2.075  0.3164  0.4003  0.0384
 3699SOL    HW112865   4.565   3.361   1.980 -1.2571  0.7680  0.0171
 3699SOL    HW212866   4.555   3.252   2.085  0.8129  0.3364 -0.1944
 3700SOL     OW12867   9.292   8.644   0.179 -0.3138  0.0077 -0.1074
 3700SOL    HW112868   9.197   8.655   0.169 -0.4008 -0.4429  0.2108
 3700SOL    HW212869   9.324   8.732   0.198 -0.4382  0.4978 -2.0034
 3701SOL     OW12870   5.153   2.005   4.127  0.5838 -0.5605  0.2394
 3701SOL    HW112871   5.071   1.997   4.078  0.5059  0.6715  0.1456
 3701SOL    HW212872   5.217   2.036   4.064  0.6545  0.3412  0.7392
 3702SOL     OW12873   4.635   0.821   3.892  0.3206  0.0959  0.1448
 3702SOL    HW112874   4.636   0.889   3.824  2.6438 -0.5281 -0.5171
 3702SOL    HW212875   4.691   0.856   3.961  0.0910 -0.3981  0.5863
 3703SOL     OW12876   9.581   6.411   2.117  0.1625  0.3118  0.2288
 3703SOL    HW112877   9.606   6.476   2.183  1.2434  1.2678 -1.0673
 3703SOL    HW212878   9.645   6.422   2.047 -0.0281 -1.7323 -0.3229
 3704SOL     OW12879   7.671   0.844   7.826 -0.1305  0.0521 -0.0509
 3704SOL    HW112880   7.681   0.753   7.797 -0.0889 -0.0007  0.1307
 3704SOL    HW212881   7.758   0.870   7.856 -0.2392  0.0105  0.3062
 3705SOL     OW12882   9.294   5.562   8.221  0.7836  0.0585  0.0574
 3705SOL    HW112883   9.360   5.623   8.255  0.5890  0.4524 -0.2749
 3705SOL    HW212884   9.222   5.618   8.192  1.8813 -0.0391 -3.2142
 3706SOL     OW12885   0.649   0.026   0.363 -0.5185 -0.2483 -0.2917
 3706SOL    HW112886   0.570   0.075   0.339 -1.3331 -0.5291  1.5637
 3706SOL    HW212887   0.628  -0.065   0.342 -1.3355 -0.5308  1.5456
 3707SOL     OW12888   9.160   8.270   7.219 -0.3810  0.2047  0.4117
 3707SOL    HW112889   9.218   8.196   7.237 -0.2383  0.3401  0.5009
 3707SOL    HW212890   9.088   8.259   7.282 -0.5741 -0.0971  0.1403
 3708SOL     OW12891   4.023   3.622   0.966  0.1115 -0.1703 -0.8101
 3708SOL    HW112892   4.018   3.576   1.050  0.2419  1.9654  0.4342
 3708SOL    HW212893   3.939   3.603   0.924 -0.4196 -0.3821  0.3001
 3709SOL     OW12894   7.055   3.698   1.827  0.2016 -0.3558  0.1900
 3709SOL    HW112895   7.038   3.792   1.821 -1.5884 -0.7029 -1.1871
 3709SOL    HW212896   7.011   3.670   1.907 -0.2145 -0.1934  0.0191
 3710SOL     OW12897   1.855   5.010   6.102 -0.3012  0.2396  0.2720
 3710SOL    HW112898   1.939   4.985   6.064 -0.0179 -0.5877  1.4075
 3710SOL    HW212899   1.863   5.104   6.117  0.3287  0.2087  0.1650
 3711SOL     OW12900   0.451   3.919   0.887  0.6277 -0.5257  0.7026
 3711SOL    HW112901   0.491   3.833   0.891  1.6198 -0.1545 -0.5629
 3711SOL    HW212902   0.480   3.955   0.803 -0.4477  0.7056  0.8285
 3712SOL     OW12903   6.909   1.663   3.346  1.0426 -0.3002 -0.0299
 3712SOL    HW112904   6.986   1.709   3.311  0.8605 -1.2669 -1.7762
 3712SOL    HW212905   6.838   1.686   3.286 -0.0712  0.5208  1.5159
 3713SOL     OW12906   8.740   0.109   0.195  0.0053  0.4041  0.2750
 3713SOL    HW112907   8.678   0.166   0.241 -1.6804 -0.8699 -0.2966
 3713SOL    HW212908   8.716   0.119   0.102  0.6863 -0.0928  0.0413
 3714SOL     OW12909   9.283   5.421   5.609  0.2758  0.3590  0.0377
 3714SOL    HW112910   9.298   5.368   5.687 -1.6182 -0.5479 -0.1551
 3714SOL    HW212911   9.299   5.511   5.637  0.8881 -0.0770  1.1167
 3715SOL     OW12912   7.134   0.750   7.879  0.1762 -0.2606 -0.1526
 3715SOL    HW112913   7.130   0.681   7.813 -0.9935 -0.8789  0.5275
 3715SOL    HW212914   7.227   0.765   7.894  0.4414 -0.8526 -1.1635
 3716SOL     OW12915   1.223   7.354   8.157  0.2777  0.2227  0.3530
 3716SOL    HW112916   1.315   7.343   8.180  1.4342  1.1214 -3.1657
 3716SOL    HW212917   1.204   7.446   8.177 -0.9222 -0.6125  3.8273
 3717SOL     OW12918   3.123   5.504   7.922 -0.2992 -0.1282  0.4636
 3717SOL    HW112919   3.206   5.548   7.942 -0.3628 -0.1274  0.7264
 3717SOL    HW212920   3.086   5.555   7.850  0.0156 -0.2390  0.2183
 3718SOL     OW12921   7.088   1.938   5.176  0.3995  0.0420  0.5462
 3718SOL    HW112922   7.099   2.000   5.105 -1.2907 -1.8291 -1.4903
 3718SOL    HW212923   7.177   1.917   5.204  1.0831  1.2300 -0.6429
 3719SOL     OW12924   7.299   6.005   3.527 -0.0956  0.6276 -0.3759
 3719SOL    HW112925   7.221   5.981   3.577  1.4744 -0.8273  1.5700
 3719SOL    HW212926   7.290   5.957   3.444 -1.1354  0.2745 -0.0743
 3720SOL     OW12927   2.362   0.217   8.188 -0.1779  0.4985 -0.4113
 3720SOL    HW112928   2.341   0.144   8.128  1.2492 -1.2262  1.0633
 3720SOL    HW212929   2.419   0.274   8.136  0.4379 -0.5746 -0.9692
 3721SOL     OW12930   9.156   4.711   8.221  0.3431  0.1497  0.5887
 3721SOL    HW112931   9.148   4.623   8.259  1.0801  0.2378  0.9541
 3721SOL    HW212932   9.065   4.737   8.204  0.0718 -0.3966  1.1346
 3722SOL     OW12933   7.637   0.626   8.991 -0.3070  0.2390 -0.2162
 3722SOL    HW112934   7.732   0.624   8.978 -0.2793 -1.6671  0.0086
 3722SOL    HW212935   7.623   0.701   9.048  1.2862 -0.3757  1.1033
 3723SOL     OW12936   6.480   1.718   8.069 -0.2363  0.1768  0.1451
 3723SOL    HW112937   6.401   1.771   8.061 -0.5096  0.1046  1.8648
 3723SOL    HW212938   6.448   1.627   8.069 -0.0342  0.1045 -0.2718
 3724SOL     OW12939   9.081   5.265   2.710 -0.5599  0.8810  0.4968
 3724SOL    HW112940   9.124   5.253   2.626 -1.0334  0.7098  0.2766
 3724SOL    HW212941   9.090   5.181   2.755 -1.8639  0.3868 -0.1135
 3725SOL     OW12942   0.069   9.815   7.565  0.2430 -0.0126  0.2209
 3725SOL    HW112943   0.105   9.841   7.650 -1.0863 -0.3662  0.9158
 3725SOL    HW212944   0.083   9.720   7.561  2.7757  0.3220 -1.1977
 3726SOL     OW12945   3.379   2.351   8.867 -0.5891  0.4146  0.5432
 3726SOL    HW112946   3.361   2.258   8.875 -1.3560 -0.0316 -3.7366
 3726SOL    HW212947   3.425   2.374   8.947 -1.3842 -3.3365  2.2877
 3727SOL     OW12948   2.156   3.623   2.562  0.8065 -0.0734  0.1277
 3727SOL    HW112949   2.128   3.607   2.652  1.8716  0.3002  0.5390
 3727SOL    HW212950   2.217   3.552   2.542  0.8503  0.0437 -0.1724
 3728SOL     OW12951   9.786   5.672   1.254  0.5047  0.5927  0.4150
 3728SOL    HW112952   9.873   5.634   1.268 -0.2702 -1.0698  0.8973
 3728SOL    HW212953   9.732   5.598   1.227 -0.4918  1.8338 -1.1616
 3729SOL     OW12954   5.317   7.488   4.669 -0.0251 -0.1921 -0.5009
 3729SOL    HW112955   5.413   7.489   4.673 -0.0000 -0.4930 -0.9339
 3729SOL    HW212956   5.291   7.574   4.702  0.3325 -0.5626  0.8242
 3730SOL     OW12957   2.894   1.483   3.182 -0.2834 -0.0450  0.2138
 3730SOL    HW112958   2.943   1.402   3.200  0.2914  0.0736 -0.7267
 3730SOL    HW212959   2.960   1.543   3.147 -1.2651 -0.2336 -2.1071
 3731SOL     OW12960   3.037   0.737   8.334  0.2582  0.1526  0.4206
 3731SOL    HW112961   3.082   0.821   8.336  0.8927 -0.1952  0.7959
 3731SOL    HW212962   2.959   0.753   8.280 -0.3378  1.3327  1.5731
 3732SOL     OW12963   8.107   6.938   5.013 -0.1443 -0.1289 -0.4028
 3732SOL    HW112964   8.162   6.990   4.955 -0.2296 -0.0563 -0.4176
 3732SOL    HW212965   8.139   6.959   5.101 -0.5895  0.4279 -0.3652
 3733SOL     OW12966   1.797   3.924   3.012 -0.6639 -0.5266 -0.1355
 3733SOL    HW112967   1.721   3.971   3.046  0.6656  2.9603 -1.5216
 3733SOL    HW212968   1.872   3.972   3.047  0.9371 -2.9944  0.0595
 3734SOL     OW12969   5.182   2.023   1.842  0.5048 -0.8630 -0.4639
 3734SOL    HW112970   5.124   1.950   1.865 -0.0716 -0.4091 -0.4666
 3734SOL    HW212971   5.177   2.027   1.747 -0.1698 -0.2517 -0.4088
 3735SOL     OW12972   2.144   3.372   1.401  0.0580 -0.1767 -0.6984
 3735SOL    HW112973   2.137   3.468   1.395  2.1359  0.0173 -0.7451
 3735SOL    HW212974   2.233   3.357   1.433 -0.6125 -2.0801  0.4233
 3736SOL     OW12975   6.436   2.614   9.773 -0.1677 -0.5958  0.7234
 3736SOL    HW112976   6.505   2.589   9.835  0.1921  2.1282  1.5145
 3736SOL    HW212977   6.355   2.605   9.823  0.0361  0.5894  1.2999
 3737SOL     OW12978   1.656   3.044   1.775  0.1892 -0.4108  0.1861
 3737SOL    HW112979   1.643   3.070   1.866 -1.0373 -0.4611  0.0461
 3737SOL    HW212980   1.606   3.108   1.724  1.4953  0.0943 -0.5266
 3738SOL     OW12981   7.853   2.447   6.889 -0.4450 -0.6804 -1.0504
 3738SOL    HW112982   7.899   2.441   6.806 -1.0881 -2.5970 -1.3237
 3738SOL    HW212983   7.777   2.502   6.870 -0.8152 -1.4483 -1.8759
 3739SOL     OW12984   5.149   0.163   6.114  0.0575 -0.4422 -0.4285
 3739SOL    HW112985   5.243   0.173   6.129 -0.0470  1.5117 -0.7781
 3739SOL    HW212986   5.143   0.129   6.025  0.4212 -0.0455 -0.6091
 3740SOL     OW12987   6.267   4.933   1.027  0.2501  0.0726 -0.0168
 3740SOL    HW112988   6.186   4.895   1.060 -0.1085 -0.5470 -1.4942
 3740SOL    HW212989   6.272   5.020   1.067 -0.2630 -0.5183  1.3988
 3741SOL     OW12990   5.291   1.152   7.358 -0.3030 -0.3911  0.1575
 3741SOL    HW112991   5.260   1.227   7.307  0.4947  1.3050  2.0280
 3741SOL    HW212992   5.212   1.099   7.374 -0.9897  0.3473 -0.6839
 3742SOL     OW12993   1.695   4.681   6.181 -0.6456  0.4436  0.2223
 3742SOL    HW112994   1.751   4.607   6.159 -1.4193 -0.4868  1.2661
 3742SOL    HW212995   1.641   4.650   6.254 -2.4495  1.3225 -0.6560
 3743SOL     OW12996   8.569   8.848   0.104 -0.1296 -0.6724  0.6069
 3743SOL    HW112997   8.589   8.760   0.071 -1.5522 -0.3101 -1.3972
 3743SOL    HW212998   8.481   8.867   0.070 -0.0640  1.3334  1.4277
 3744SOL     OW12999   8.807   1.929   7.222 -0.5732  0.2467  0.3169
 3744SOL    HW113000   8.887   1.935   7.169 -0.8184 -1.1396 -0.2599
 3744SOL    HW213001   8.836   1.946   7.312  0.2334  0.4852  0.0185
 3745SOL     OW13002   9.071   7.027   3.155 -0.1434  0.3529 -0.1086
 3745SOL    HW113003   8.982   6.994   3.142  0.2410 -0.7289 -0.0903
 3745SOL    HW213004   9.121   6.995   3.080  0.5159 -0.1205  0.5173
 3746SOL     OW13005   8.406   8.158   8.437 -0.1515 -0.4392 -0.4402
 3746SOL    HW113006   8.412   8.071   8.476 -1.0715 -0.5103 -0.4487
 3746SOL    HW213007   8.350   8.208   8.496  0.3707  0.1602 -0.4340
 3747SOL     OW13008   9.716   1.978   7.403  0.2984 -0.4071 -0.1918
 3747SOL    HW113009   9.763   1.901   7.435  0.1381 -1.1224 -1.5884
 3747SOL    HW213010   9.773   2.014   7.335  0.1931  0.4932  0.1868
 3748SOL     OW13011   9.376   1.566   5.690  0.3167  0.3406  0.5485
 3748SOL    HW113012   9.420   1.537   5.610 -2.6161 -1.0232 -0.7363
 3748SOL    HW213013   9.406   1.506   5.758  1.2907  0.1970  0.0045
 3749SOL     OW13014   6.769   7.529   1.156 -0.2172  0.3380  0.0869
 3749SOL    HW113015   6.827   7.469   1.202  0.4598  0.8353 -0.0894
 3749SOL    HW213016   6.692   7.538   1.212 -0.2352 -0.5199  0.2095
 3750SOL     OW13017   7.767   7.194   6.257 -0.0378 -0.5131 -0.1780
 3750SOL    HW113018   7.833   7.207   6.189  0.9425 -1.2942  0.5998
 3750SOL    HW213019   7.767   7.277   6.305  0.0679 -0.3570 -0.4418
 3751SOL     OW13020   5.886   0.863   8.533 -0.2004 -0.3485 -0.2258
 3751SOL    HW113021   5.879   0.830   8.443 -2.6544  0.1334 -0.2671
 3751SOL    HW213022   5.970   0.828   8.564 -0.4390 -2.6166 -1.8409
 3752SOL     OW13023   6.949   0.303   7.421 -0.9338  0.3811  0.3467
 3752SOL    HW113024   6.902   0.337   7.497  0.1594  1.7303  0.4744
 3752SOL    HW213025   7.011   0.373   7.398  1.7191 -1.6488  0.8343
 3753SOL     OW13026   3.296   8.169   0.435  0.3872  0.0358  0.0505
 3753SOL    HW113027   3.381   8.127   0.428  0.1156 -0.7235  1.1214
 3753SOL    HW213028   3.297   8.235   0.365  2.1254  0.5364  0.4902
 3754SOL     OW13029   0.178   6.452   9.065  0.2502  0.3450  0.5434
 3754SOL    HW113030   0.247   6.506   9.025  0.8469 -0.2160  0.7999
 3754SOL    HW213031   0.185   6.368   9.021  0.2388  0.0421  1.1127
 3755SOL     OW13032   6.454   5.705   3.975 -0.3494  0.1368  0.7057
 3755SOL    HW113033   6.393   5.632   3.969 -1.2327  0.9290 -0.3490
 3755SOL    HW213034   6.540   5.663   3.976 -0.8462 -0.9375  0.5025
 3756SOL     OW13035   0.719   5.419   0.164 -0.8844 -0.2601  0.4190
 3756SOL    HW113036   0.646   5.479   0.151 -0.9696 -0.2635  0.8774
 3756SOL    HW213037   0.688   5.336   0.128 -1.3291 -0.4128  1.1323
 3757SOL     OW13038   9.566   8.280   9.557 -0.3642 -0.3479 -0.4967
 3757SOL    HW113039   9.560   8.232   9.640  0.9440  1.7138  0.8672
 3757SOL    HW213040   9.654   8.259   9.524  0.3153  1.2223  0.2369
 3758SOL     OW13041   5.575   3.070   7.804  0.9980 -0.3388  0.5190
 3758SOL    HW113042   5.603   3.159   7.827  1.2104 -0.2377 -0.1014
 3758SOL    HW213043   5.590   3.019   7.883  0.4874  0.2615  1.0165
 3759SOL     OW13044   2.464   3.611   2.148 -0.0433 -0.1399 -0.6583
 3759SOL    HW113045   2.376   3.642   2.170  1.0348  0.5035  3.4129
 3759SOL    HW213046   2.504   3.684   2.101 -0.8467  0.5422 -0.3049
 3760SOL     OW13047   4.186   8.352   0.154 -0.2159  0.0116  0.1604
 3760SOL    HW113048   4.207   8.418   0.220  1.9786 -0.2380 -0.2322
 3760SOL    HW213049   4.157   8.402   0.078  1.2143  0.5613 -0.0562
 3761SOL     OW13050   2.791   3.647   4.048 -0.7049 -0.4903  0.0003
 3761SOL    HW113051   2.699   3.629   4.068 -1.9624  0.8687 -3.6376
 3761SOL    HW213052   2.806   3.604   3.964  1.9302 -0.4191  0.3585
 3762SOL     OW13053   7.614   7.256   6.529  0.1594 -0.2340 -0.8342
 3762SOL    HW113054   7.534   7.210   6.505  1.3423 -1.6634 -2.2547
 3762SOL    HW213055   7.585   7.345   6.549 -2.0528 -1.2332  0.9085
 3763SOL     OW13056   3.147   6.422   6.057 -0.4008  0.1316 -0.2531
 3763SOL    HW113057   3.230   6.402   6.101 -0.6478  1.0797  0.6817
 3763SOL    HW213058   3.139   6.517   6.063 -1.4038  0.0828 -0.6273
 3764SOL     OW13059   4.019   4.633   7.932  0.1867  0.0064 -0.7163
 3764SOL    HW113060   3.934   4.631   7.887 -0.9939 -2.0351  1.3903
 3764SOL    HW213061   4.050   4.543   7.928  0.6206  0.0115  1.3630
 3765SOL     OW13062   3.030   5.972   1.890 -0.3571  0.2678 -0.7289
 3765SOL    HW113063   2.995   6.033   1.956 -0.0047 -1.5951  1.2808
 3765SOL    HW213064   3.125   5.975   1.903 -0.4083 -2.3418  1.0873
 3766SOL     OW13065   9.093   8.046   8.113  0.0629 -0.6602  0.1818
 3766SOL    HW113066   9.094   8.130   8.158 -0.8150 -0.3776 -0.3065
 3766SOL    HW213067   9.175   8.004   8.139  0.8511  0.6381 -0.1142
 3767SOL     OW13068   1.536   5.951   4.808  0.2219  0.4045  0.2539
 3767SOL    HW113069   1.514   5.878   4.750 -0.1812 -0.6368  1.6601
 3767SOL    HW213070   1.623   5.979   4.781  1.9934 -2.9503  1.8831
 3768SOL     OW13071   2.850   0.129   1.718 -0.3165  0.2307  0.0515
 3768SOL    HW113072   2.863   0.090   1.804  0.0693 -1.7504 -0.8415
 3768SOL    HW213073   2.768   0.090   1.687 -0.9760  1.6771 -0.1200
 3769SOL     OW13074   0.855   1.169   9.515 -0.0699 -0.7887  0.0713
 3769SOL    HW113075   0.831   1.261   9.517 -0.6139 -0.8840 -1.0095
 3769SOL    HW213076   0.918   1.158   9.587 -1.3788  0.0153  1.3840
 3770SOL     OW13077   8.596   5.175   4.514  0.4623 -0.3990 -0.8993
 3770SOL    HW113078   8.624   5.241   4.578  0.2117  0.6708 -1.8491
 3770SOL    HW213079   8.506   5.199   4.493  0.7001 -0.4358 -2.0063
 3771SOL     OW13080   3.621   4.767   0.549 -0.3295 -0.1299  0.2635
 3771SOL    HW113081   3.690   4.709   0.515 -2.3967 -2.8522  0.3831
 3771SOL    HW213082   3.628   4.846   0.494  1.3805 -1.2387 -1.2628
 3772SOL     OW13083   0.052   4.087   7.453  0.1275 -0.5969  0.3914
 3772SOL    HW113084  -0.002   4.162   7.476  0.8422  0.3475 -0.8728
 3772SOL    HW213085   0.009   4.048   7.377 -0.3777 -1.6448  1.1907
 3773SOL     OW13086   0.802   7.711   3.634  0.1576  0.6528 -0.0996
 3773SOL    HW113087   0.822   7.640   3.695 -1.4169  0.4955  0.2859
 3773SOL    HW213088   0.713   7.692   3.604  1.3663 -0.1422 -3.6800
 3774SOL     OW13089   6.759   0.798   0.405 -0.1329  0.4843 -0.1083
 3774SOL    HW113090   6.821   0.825   0.473  0.0739  0.9407 -0.4675
 3774SOL    HW213091   6.731   0.881   0.365  1.5381  0.1628 -2.1631
 3775SOL     OW13092   6.301   2.617   1.179  0.5353  0.3413  0.5163
 3775SOL    HW113093   6.388   2.651   1.197  1.3139 -2.1724  2.0775
 3775SOL    HW213094   6.297   2.609   1.084  1.9247  0.7114  0.4117
 3776SOL     OW13095   2.221   6.151   0.869  0.4147  0.1304 -0.2356
 3776SOL    HW113096   2.247   6.072   0.917  0.7103  0.6089  0.4148
 3776SOL    HW213097   2.303   6.195   0.847  0.2316  0.9450  0.6146
 3777SOL     OW13098   5.023   0.003   5.431  0.4954 -0.1532 -0.2856
 3777SOL    HW113099   4.987   0.046   5.353 -0.0974 -1.5684 -0.8268
 3777SOL    HW213100   5.027   0.072   5.497 -0.1027  0.8063 -1.2234
 3778SOL     OW13101   6.523   6.154   6.372 -0.2789  0.0057  0.1112
 3778SOL    HW113102   6.465   6.080   6.393 -1.0629  0.3721 -0.6832
 3778SOL    HW213103   6.472   6.208   6.311  0.6885  0.6479 -0.1580
 3779SOL     OW13104   4.026   1.233   3.237  0.1009  0.5095  0.1014
 3779SOL    HW113105   4.053   1.321   3.264  1.4147  0.6011 -1.3126
 3779SOL    HW213106   4.109   1.187   3.219 -0.5827 -0.7528  0.0282
 3780SOL     OW13107   0.973   3.817   7.274  0.7015 -0.2667 -0.3615
 3780SOL    HW113108   0.981   3.735   7.323  0.5147  0.2677  0.5731
 3780SOL    HW213109   0.984   3.886   7.339 -2.3120  0.4948 -0.5032
 3781SOL     OW13110   9.148   3.653   4.259 -0.1432  0.3233 -0.4714
 3781SOL    HW113111   9.055   3.630   4.252 -0.4614  1.0790  0.8883
 3781SOL    HW213112   9.157   3.692   4.347  1.2183  1.3402 -1.0177
 3782SOL     OW13113   8.472   9.153   1.994 -0.6827  0.1652  0.3178
 3782SOL    HW113114   8.489   9.145   1.900 -1.0725 -1.4248  0.3406
 3782SOL    HW213115   8.556   9.135   2.036 -0.7521 -0.2874  0.2764
 3783SOL     OW13116   3.836   0.611   4.697 -0.1290 -0.1506  0.2287
 3783SOL    HW113117   3.876   0.574   4.776  0.6448  1.0685  0.4421
 3783SOL    HW213118   3.742   0.602   4.712 -0.0274  0.9882  1.7896
 3784SOL     OW13119   8.765   2.082   0.458 -0.0184  0.3880  0.1310
 3784SOL    HW113120   8.694   2.058   0.518  0.9511 -0.9982  0.7920
 3784SOL    HW213121   8.794   2.168   0.489 -1.1135  0.7737  0.1228
 3785SOL     OW13122   5.566   7.404   7.266 -0.4120  0.0071  0.3434
 3785SOL    HW113123   5.581   7.491   7.303  2.1163  0.3757 -1.3115
 3785SOL    HW213124   5.625   7.347   7.315 -0.6830 -0.4463  0.1526
 3786SOL     OW13125   4.193   1.697   8.867  0.5975  0.3853  0.3563
 3786SOL    HW113126   4.279   1.656   8.877 -1.2519 -3.8836  0.7288
 3786SOL    HW213127   4.167   1.721   8.956 -0.4387 -2.9022  1.0867
 3787SOL     OW13128   1.328   6.560   0.637  0.2554  0.1118 -0.2320
 3787SOL    HW113129   1.366   6.552   0.549  0.4361 -1.1228 -0.0542
 3787SOL    HW213130   1.320   6.470   0.668 -0.4134  0.4995  0.7692
 3788SOL     OW13131   3.247   7.340   4.910  0.3176 -0.1725 -0.5403
 3788SOL    HW113132   3.326   7.288   4.920 -0.4965 -1.2204  0.9801
 3788SOL    HW213133   3.263   7.394   4.833  1.9415 -1.3445 -1.0875
 3789SOL     OW13134   7.418   5.897   3.774  0.2307  0.2841  0.2131
 3789SOL    HW113135   7.397   5.928   3.686 -1.1928  0.3060  0.5375
 3789SOL    HW213136   7.430   5.803   3.764 -0.2558  0.2385  0.0509
 3790SOL     OW13137   5.407   8.979   9.846  0.1134 -1.0913 -0.2772
 3790SOL    HW113138   5.408   9.072   9.824  1.3856 -1.0887 -0.3024
 3790SOL    HW213139   5.456   8.974   9.928 -0.2555 -1.7043 -0.0918
 3791SOL     OW13140   4.684   0.341   5.223 -0.0484  0.2247 -0.0650
 3791SOL    HW113141   4.606   0.383   5.187  0.1985  0.9405  0.2193
 3791SOL    HW213142   4.670   0.340   5.317  0.1529  0.0907 -0.0349
 3792SOL     OW13143   5.774   8.728   6.135 -0.2030  0.3295 -0.1394
 3792SOL    HW113144   5.727   8.811   6.137 -1.9417 -0.6097  1.6054
 3792SOL    HW213145   5.840   8.737   6.204  0.5241  0.7309 -0.8744
 3793SOL     OW13146   3.316   9.787   8.087  0.2120 -0.5873 -0.1482
 3793SOL    HW113147   3.350   9.809   8.174 -1.0410 -1.8705  0.7208
 3793SOL    HW213148   3.345   9.858   8.031 -0.1491  1.0124  1.6060
 3794SOL     OW13149   6.914   8.935   2.717  0.3669  0.2762  0.6228
 3794SOL    HW113150   6.847   8.904   2.656  1.2053 -2.6884  1.0624
 3794SOL    HW213151   6.915   9.030   2.705 -0.0994 -0.0568 -3.3272
 3795SOL     OW13152   5.427   8.497   6.289 -0.1677 -0.3418 -0.4919
 3795SOL    HW113153   5.501   8.493   6.229 -0.1224  1.4427 -0.5977
 3795SOL    HW213154   5.377   8.417   6.272 -0.8523  0.6770 -3.8220
 3796SOL     OW13155   3.220   5.531   6.644  0.5264  0.2831 -0.4103
 3796SOL    HW113156   3.245   5.480   6.567  0.1203 -0.6173  0.0315
 3796SOL    HW213157   3.302   5.556   6.685  0.7659 -1.7978  0.4943
 3797SOL     OW13158   1.177   1.626   1.346  0.2837 -0.2235 -0.1408
 3797SOL    HW113159   1.143   1.712   1.371 -0.7258 -0.3365 -1.0296
 3797SOL    HW213160   1.260   1.617   1.393  0.4874  1.3077 -0.1836
 3798SOL     OW13161   1.466   5.585   3.613 -0.7046  0.2049 -0.1298
 3798SOL    HW113162   1.445   5.666   3.660  0.3503  0.7719 -0.6168
 3798SOL    HW213163   1.394   5.574   3.551 -0.6345  1.0269 -0.3764
 3799SOL     OW13164   8.278   3.145   9.465 -0.2215 -0.5591  0.3502
 3799SOL    HW113165   8.336   3.099   9.404 -0.7209 -0.3817 -0.2586
 3799SOL    HW213166   8.192   3.143   9.424 -0.4868 -0.0896  0.8646
 3800SOL     OW13167   8.035   0.310   2.299 -0.3708 -0.0856  0.0534
 3800SOL    HW113168   8.040   0.294   2.393 -2.3374 -0.6315  0.1256
 3800SOL    HW213169   8.084   0.237   2.260  0.4512  0.1414  0.6377
 3801SOL     OW13170   3.589   5.064   1.260 -0.1506  0.0955 -0.3455
 3801SOL    HW113171   3.503   5.093   1.229 -0.1210  0.8644  0.2576
 3801SOL    HW213172   3.572   5.029   1.348  0.1370  0.1653 -0.2614
 3802SOL     OW13173   9.591   2.682   4.684  0.3362  0.3064 -0.0117
 3802SOL    HW113174   9.640   2.600   4.695 -0.3908 -0.0169  1.0272
 3802SOL    HW213175   9.544   2.692   4.767 -1.7429  0.3275 -1.1355
 3803SOL     OW13176   3.909   8.381   9.265  0.8115  0.0849 -0.4206
 3803SOL    HW113177   3.848   8.423   9.326 -0.2451 -1.1507 -0.5933
 3803SOL    HW213178   3.928   8.296   9.304  1.8601  0.1550 -0.7481
 3804SOL     OW13179   6.978   3.755   6.828  0.2951 -0.4422 -0.5920
 3804SOL    HW113180   7.062   3.785   6.863 -0.0963  1.4987 -1.1931
 3804SOL    HW213181   6.960   3.815   6.755 -1.4007 -1.0947 -0.7482
 3805SOL     OW13182   6.713   4.295   0.562 -0.0391  0.2574 -0.1659
 3805SOL    HW113183   6.622   4.325   0.558 -0.2016 -0.2282 -0.2243
 3805SOL    HW213184   6.715   4.234   0.636  0.2204  0.2054 -0.2130
 3806SOL     OW13185   2.925   7.924   4.401 -0.3932  0.1044 -0.6663
 3806SOL    HW113186   2.906   7.975   4.480 -1.9821 -1.8700  0.2987
 3806SOL    HW213187   3.015   7.893   4.415 -0.3261  0.5268 -0.0775
 3807SOL     OW13188   7.115   7.672   3.188 -0.1995 -0.1079  0.0229
 3807SOL    HW113189   7.154   7.652   3.102 -0.3215  1.8273 -0.5144
 3807SOL    HW213190   7.189   7.692   3.244 -0.2578  1.2265 -0.3581
 3808SOL     OW13191   2.839   5.872   3.552 -0.4650 -0.0715  0.1978
 3808SOL    HW113192   2.831   5.932   3.627  0.0334  0.0362  0.1663
 3808SOL    HW213193   2.772   5.903   3.491 -0.9112 -0.1920  0.6160
 3809SOL     OW13194   4.894   0.681   3.065 -0.3501  0.8070  0.0829
 3809SOL    HW113195   4.873   0.598   3.023 -0.3910  1.0310 -0.3470
 3809SOL    HW213196   4.937   0.656   3.147 -0.4852  0.3636  0.0220
 3810SOL     OW13197   3.372   1.757   4.284  0.2304 -0.3019  0.1706
 3810SOL    HW113198   3.389   1.848   4.261  0.1007 -0.5882 -1.1085
 3810SOL    HW213199   3.321   1.763   4.365  1.9900  0.6825  1.2725
 3811SOL     OW13200   1.733   3.812   4.807 -0.2925 -0.0852 -0.6666
 3811SOL    HW113201   1.676   3.773   4.740 -0.8474  0.6668 -0.6495
 3811SOL    HW213202   1.764   3.894   4.767  0.9207 -0.5500 -0.7369
 3812SOL     OW13203   3.121   8.773   9.476 -0.2167 -0.1919 -0.3497
 3812SOL    HW113204   3.146   8.746   9.565  0.2248 -2.3850 -1.0784
 3812SOL    HW213205   3.175   8.719   9.419 -0.1871  1.4789 -1.9933
 3813SOL     OW13206   4.645   3.949   1.652  0.3622 -0.1200  0.2896
 3813SOL    HW113207   4.676   3.887   1.718 -0.7753 -0.9005  0.1266
 3813SOL    HW213208   4.682   3.916   1.570  0.6373  0.0342  0.3536
 3814SOL     OW13209   4.728   5.679   4.689  0.2038 -0.9452  0.1332
 3814SOL    HW113210   4.694   5.758   4.731 -0.2013 -2.0498  1.9813
 3814SOL    HW213211   4.768   5.710   4.608  0.8065  1.2691  1.2107
 3815SOL     OW13212   3.237   9.270   5.543  0.1661 -0.4849 -0.8627
 3815SOL    HW113213   3.178   9.235   5.476 -0.1013 -0.3485 -0.7010
 3815SOL    HW213214   3.323   9.236   5.519 -0.2610 -2.3111  0.0288
 3816SOL     OW13215   2.048   9.009   6.854  0.2024 -0.7558  0.3727
 3816SOL    HW113216   2.030   8.979   6.943 -2.3005 -0.8876 -0.0971
 3816SOL    HW213217   2.081   8.932   6.809  1.9551 -0.5711  1.2659
 3817SOL     OW13218   1.522   0.318   5.195  0.3295  0.2877 -0.0210
 3817SOL    HW113219   1.462   0.306   5.121  1.2263 -2.6428 -0.3972
 3817SOL    HW213220   1.579   0.242   5.192  0.3207 -0.0587  3.7903
 3818SOL     OW13221   8.259   7.048   7.933 -0.2586  0.0801 -0.5122
 3818SOL    HW113222   8.218   7.114   7.989 -2.0241 -0.1289 -1.4665
 3818SOL    HW213223   8.202   6.971   7.942  0.3951 -0.5154 -1.2771
 3819SOL     OW13224   0.137   7.083   9.759 -0.0715  0.5843  0.2840
 3819SOL    HW113225   0.115   7.056   9.847  0.0803  0.0117  0.1506
 3819SOL    HW213226   0.177   7.170   9.770  0.9725  0.0520  0.9030
 3820SOL     OW13227   5.853   6.576   9.524  0.5476  0.4758  0.5622
 3820SOL    HW113228   5.773   6.625   9.507 -1.5075 -1.6698  3.1098
 3820SOL    HW213229   5.907   6.634   9.577  0.4338  1.7246 -0.6576
 3821SOL     OW13230   7.939   4.077   1.876 -0.5723  0.0970  0.2032
 3821SOL    HW113231   8.014   4.024   1.849 -1.8273 -2.2977  1.1207
 3821SOL    HW213232   7.891   4.092   1.794  0.7021  1.4298 -0.3492
 3822SOL     OW13233   1.298   4.545   6.180  0.0875  0.2983  0.1952
 3822SOL    HW113234   1.335   4.505   6.101 -2.3416 -2.2436  0.1818
 3822SOL    HW213235   1.357   4.519   6.251 -0.0762 -1.2873 -0.2049
 3823SOL     OW13236   1.472   7.818   3.633  0.8750  0.5790 -0.8661
 3823SOL    HW113237   1.556   7.773   3.643  0.0108 -0.9431 -0.0631
 3823SOL    HW213238   1.492   7.910   3.648  2.3050  0.1692 -0.1055
 3824SOL     OW13239   6.648   2.704   4.028 -0.0031 -0.2687 -0.0757
 3824SOL    HW113240   6.618   2.701   4.119  1.4844 -2.3783  0.4119
 3824SOL    HW213241   6.719   2.769   4.029 -0.9770  0.8331 -0.1016
 3825SOL     OW13242   2.982   4.817   0.112  0.2108  0.1289  0.5105
 3825SOL    HW113243   2.896   4.859   0.115  0.4145  0.5351  0.6680
 3825SOL    HW213244   2.979   4.763   0.033 -0.3878 -0.2926  0.8148
 3826SOL     OW13245   8.483   0.235   6.426  0.0913 -0.0457  0.0160
 3826SOL    HW113246   8.476   0.258   6.334  0.4292 -1.8312 -0.4771
 3826SOL    HW213247   8.549   0.296   6.461  3.3721 -2.1720 -1.9792
 3827SOL     OW13248   4.007   4.760   6.544  0.2183 -0.1710 -0.3150
 3827SOL    HW113249   4.019   4.691   6.478 -0.8497 -1.2232  0.5436
 3827SOL    HW213250   3.922   4.799   6.523 -0.4439 -0.9636  0.8082
 3828SOL     OW13251   1.209   3.178   8.305 -0.0353 -0.5612 -0.1851
 3828SOL    HW113252   1.213   3.270   8.333 -1.4378 -0.4693 -0.2281
 3828SOL    HW213253   1.278   3.135   8.354 -0.8093  0.0920  1.5498
 3829SOL     OW13254   3.530   6.295   9.646 -0.2316 -0.9549  0.6382
 3829SOL    HW113255   3.541   6.294   9.741 -0.3275  2.5068  0.8138
 3829SOL    HW213256   3.616   6.320   9.613 -0.7913  0.3063  0.0612
 3830SOL     OW13257   8.736   6.791   8.474 -0.2808  0.0642  0.2734
 3830SOL    HW113258   8.736   6.791   8.570 -0.8106 -1.6302  0.3141
 3830SOL    HW213259   8.796   6.862   8.450  1.2524 -0.6068  1.8869
 3831SOL     OW13260   2.705   6.522   4.734 -0.3880  0.1486 -0.2149
 3831SOL    HW113261   2.633   6.478   4.689 -1.3643  2.0801 -0.6613
 3831SOL    HW213262   2.782   6.507   4.678 -1.1070  0.5757 -1.3446
 3832SOL     OW13263   1.479   9.041   9.745  0.0223  0.6549  0.1818
 3832SOL    HW113264   1.418   9.062   9.674  2.8715  0.2973 -2.5938
 3832SOL    HW213265   1.544   8.984   9.704  1.2701 -0.4232  3.4156
 3833SOL     OW13266   3.546   2.297   4.956 -0.0506  0.1817 -0.2954
 3833SOL    HW113267   3.482   2.311   4.886  1.2269  0.6489 -1.4108
 3833SOL    HW213268   3.572   2.206   4.946  0.7391  0.4735 -0.9758
 3834SOL     OW13269   9.491   3.258   8.760  0.1120 -0.4421 -0.1080
 3834SOL    HW113270   9.476   3.338   8.809  1.6719 -0.2737  0.1596
 3834SOL    HW213271   9.412   3.206   8.772 -0.3921  0.5090  0.7931
 3835SOL     OW13272   6.699   1.681   3.162  0.0510  0.1144  0.2281
 3835SOL    HW113273   6.762   1.669   3.090  0.0664 -0.9411  0.3976
 3835SOL    HW213274   6.615   1.654   3.124  0.1773 -1.1279  0.8003
 3836SOL     OW13275   7.660   0.018   8.894 -0.2591 -0.4192  0.5095
 3836SOL    HW113276   7.676   0.103   8.853 -0.0274 -0.1497  1.1596
 3836SOL    HW213277   7.734   0.005   8.953 -0.6973 -0.7068  1.0070
 3837SOL     OW13278   4.714   2.195   2.659 -0.6652 -0.5915 -0.6802
 3837SOL    HW113279   4.619   2.202   2.662 -0.8035 -0.4709 -3.3666
 3837SOL    HW213280   4.743   2.229   2.744 -2.9338  0.8444 -0.4025
 3838SOL     OW13281   2.878   4.556   6.582 -0.3110 -0.6005 -0.3087
 3838SOL    HW113282   2.846   4.641   6.554 -1.1149 -0.4548  0.9522
 3838SOL    HW213283   2.883   4.562   6.677 -0.1012 -1.8561 -0.2160
 3839SOL     OW13284   9.823   2.112   8.022  0.1067 -0.1471  0.5213
 3839SOL    HW113285   9.781   2.168   7.957 -0.2760 -0.3309  0.6104
 3839SOL    HW213286   9.753   2.090   8.084  0.5455  0.3545  1.2195
 3840SOL     OW13287   4.815   5.988   7.737  0.2110  0.4739 -0.0573
 3840SOL    HW113288   4.852   6.051   7.799 -0.4365  2.3732 -1.5063
 3840SOL    HW213289   4.887   5.966   7.678  0.1151  0.8212 -0.3019
 3841SOL     OW13290   5.262   3.160   2.898 -0.2479 -0.0959  0.6288
 3841SOL    HW113291   5.209   3.101   2.844 -1.2411  1.3461 -0.0407
 3841SOL    HW213292   5.238   3.138   2.988 -2.0349  0.5103  0.3418
 3842SOL     OW13293   8.971   4.505   2.147 -0.4260  0.1369  0.3929
 3842SOL    HW113294   9.045   4.495   2.207 -0.2268  0.9071  0.2864
 3842SOL    HW213295   9.012   4.520   2.062 -0.7097 -0.8176  0.0732
 3843SOL     OW13296   3.787   9.181   9.049 -0.5848  0.2690  0.3106
 3843SOL    HW113297   3.868   9.227   9.027 -1.5392  1.4785 -0.8759
 3843SOL    HW213298   3.809   9.088   9.041  0.5224  0.5876 -0.6266
 3844SOL     OW13299   3.034   0.762   7.166 -0.1670 -0.5408  0.2603
 3844SOL    HW113300   3.035   0.668   7.185  1.2338 -0.3016  1.5635
 3844SOL    HW213301   3.098   0.773   7.095  0.5914 -0.4409  0.9431
 3845SOL     OW13302   7.830   3.794   3.070  0.0958 -0.3587  0.0375
 3845SOL    HW113303   7.918   3.809   3.036 -0.1527  0.5942 -0.2183
 3845SOL    HW213304   7.773   3.802   2.993 -0.3160  0.1571  0.3940
 3846SOL     OW13305   0.523   9.359   9.117  0.3976  0.0498  0.3798
 3846SOL    HW113306   0.505   9.317   9.032 -0.3869  0.1655  0.4816
 3846SOL    HW213307   0.617   9.347   9.130  0.3071 -1.0968  0.0912
 3847SOL     OW13308   7.329   0.886   4.601  0.1848  0.1469 -0.2566
 3847SOL    HW113309   7.283   0.860   4.522 -0.5555 -0.0165  0.2184
 3847SOL    HW213310   7.275   0.955   4.640 -0.8398 -1.5012  1.4206
 3848SOL     OW13311   2.373   1.050   1.207 -0.7421  0.6981 -0.6736
 3848SOL    HW113312   2.409   1.125   1.159 -1.4847  0.5526 -1.4835
 3848SOL    HW213313   2.439   0.982   1.197 -1.7224  0.0257 -3.2275
 3849SOL     OW13314   3.984   6.531   3.660 -0.0731 -0.6557 -0.0463
 3849SOL    HW113315   4.019   6.619   3.647 -0.3680 -0.6853 -1.1762
 3849SOL    HW213316   3.904   6.544   3.710  0.0965 -0.3286  0.1466
 3850SOL     OW13317   3.148   3.089   4.861 -0.6427 -0.4109  0.0931
 3850SOL    HW113318   3.124   3.163   4.917  0.7415  0.2806 -0.2026
 3850SOL    HW213319   3.155   3.015   4.922  0.1913  0.1874  0.7450
 3851SOL     OW13320   2.242   1.573   3.019  0.2380  0.0291  0.6193
 3851SOL    HW113321   2.271   1.557   2.930  0.1707 -0.1845  0.6355
 3851SOL    HW213322   2.189   1.496   3.042 -0.6251  0.5625  0.4650
 3852SOL     OW13323   0.004   7.728   9.676  0.4208  0.4838 -0.6891
 3852SOL    HW113324  -0.081   7.745   9.637 -1.3370  0.9239  2.8805
 3852SOL    HW213325   0.053   7.810   9.663 -0.9531  1.4614 -0.0534
 3853SOL     OW13326   1.306   3.402   2.527  0.2051 -0.0095 -0.5320
 3853SOL    HW113327   1.295   3.484   2.576 -2.7575  0.1166 -1.2333
 3853SOL    HW213328   1.320   3.336   2.595  0.8462  0.8013  0.1570
 3854SOL     OW13329   7.359   1.377   9.738 -0.2158  0.3998  0.0221
 3854SOL    HW113330   7.286   1.360   9.678  0.1945 -1.0601 -0.0963
 3854SOL    HW213331   7.416   1.301   9.728  0.9330  1.1552  0.6965
 3855SOL     OW13332   8.593   0.604   5.418 -0.1173  0.1415 -0.1001
 3855SOL    HW113333   8.683   0.583   5.393 -0.0203 -3.3046  2.4163
 3855SOL    HW213334   8.540   0.533   5.382 -1.3298  0.3155  1.2352
 3856SOL     OW13335   1.743   1.886   1.708 -0.6694  0.1987  0.2637
 3856SOL    HW113336   1.802   1.824   1.665  2.1025  1.2041  2.2943
 3856SOL    HW213337   1.789   1.970   1.702 -2.4315  1.2619  1.0511
 3857SOL     OW13338   2.384   8.473   7.701 -0.4344  0.3573 -0.2259
 3857SOL    HW113339   2.407   8.400   7.644 -0.2450  1.0980 -1.1350
 3857SOL    HW213340   2.315   8.520   7.653  0.4515  1.5834 -0.3513
 3858SOL     OW13341   4.261   4.912   0.579 -0.2171  0.1259  0.2839
 3858SOL    HW113342   4.307   4.926   0.661 -0.4985 -0.2828  0.5137
 3858SOL    HW213343   4.168   4.918   0.601 -0.4410 -2.8288  0.5958
 3859SOL     OW13344   4.119   8.778   2.070  0.2891  0.8733 -0.4199
 3859SOL    HW113345   4.148   8.746   2.156 -4.0423  3.9009  2.6306
 3859SOL    HW213346   4.061   8.709   2.038 -2.1463  1.6835  1.8550
 3860SOL     OW13347   4.884   2.782   3.671 -0.5395 -0.4641  0.5591
 3860SOL    HW113348   4.886   2.687   3.674 -0.2506 -0.4559  0.6980
 3860SOL    HW213349   4.819   2.803   3.604 -2.0271 -0.7259  1.8746
 3861SOL     OW13350   2.315   5.438   1.910 -0.2876  0.0438 -0.0148
 3861SOL    HW113351   2.251   5.411   1.845 -0.0629  1.1515 -0.7234
 3861SOL    HW213352   2.277   5.516   1.951 -0.5175 -0.7562  1.3455
 3862SOL     OW13353   8.894   6.164   1.878  0.4906 -0.0092 -0.4198
 3862SOL    HW113354   8.967   6.196   1.930 -0.3483  0.3008  0.6139
 3862SOL    HW213355   8.902   6.069   1.881  0.5034  0.0074  0.2154
 3863SOL     OW13356   6.100   5.315   9.754  0.5103  0.2897  0.4611
 3863SOL    HW113357   6.092   5.268   9.837  1.1743 -0.3027  0.1998
 3863SOL    HW213358   6.095   5.408   9.779 -0.9334  0.1066  0.9688
 3864SOL     OW13359   2.761   1.864   8.589 -0.3604 -0.9023  0.4619
 3864SOL    HW113360   2.682   1.873   8.535 -0.3752 -1.2004  0.4340
 3864SOL    HW213361   2.728   1.858   8.678 -0.5151 -3.0871  0.3058
 3865SOL     OW13362   2.609   5.222   7.578  0.3766 -0.3047  0.0246
 3865SOL    HW113363   2.577   5.134   7.558 -0.3843 -0.1543  0.5334
 3865SOL    HW213364   2.531   5.270   7.607  1.0399  0.0936  1.2463
 3866SOL     OW13365   3.685   7.428   4.614 -0.3891  0.1475  0.2132
 3866SOL    HW113366   3.698   7.338   4.643  0.4989 -0.3482 -1.5605
 3866SOL    HW213367   3.590   7.439   4.609 -0.5168 -0.4401  1.0780
 3867SOL     OW13368   6.660   0.145   3.750  0.4225  0.4410 -0.1302
 3867SOL    HW113369   6.673   0.127   3.844  1.0908  1.6702  0.0220
 3867SOL    HW213370   6.651   0.058   3.711  3.7734 -0.3411  0.5436
 3868SOL     OW13371   0.502   1.441   6.192 -0.5588  0.1259 -1.1437
 3868SOL    HW113372   0.507   1.368   6.253 -0.9681  0.8840 -0.1770
 3868SOL    HW213373   0.523   1.402   6.107 -0.7905 -1.1117 -0.6617
 3869SOL     OW13374   6.183   8.129   0.930 -0.2389  0.2554  0.2511
 3869SOL    HW113375   6.250   8.192   0.956 -0.2944 -0.1860  1.5511
 3869SOL    HW213376   6.223   8.081   0.857  1.0137 -0.2004  1.1982
 3870SOL     OW13377   5.104   6.652   6.840 -0.2164 -0.3516  0.3590
 3870SOL    HW113378   5.168   6.624   6.905  0.8934 -1.5621 -1.1995
 3870SOL    HW213379   5.051   6.575   6.824 -0.1470 -0.2180 -0.5442
 3871SOL     OW13380   6.642   6.687   0.484 -0.4170 -0.1201 -0.0951
 3871SOL    HW113381   6.599   6.700   0.399 -0.9552 -2.4511 -0.2500
 3871SOL    HW213382   6.581   6.633   0.534  1.0222 -0.9807  0.8089
 3872SOL     OW13383   9.627   6.478   5.190 -0.0603  0.4262  0.3621
 3872SOL    HW113384   9.573   6.399   5.188 -0.1581  0.3282  2.9975
 3872SOL    HW213385   9.595   6.531   5.117  0.4606 -2.1578 -1.9380
 3873SOL     OW13386   5.779   8.700   4.923  0.2207 -0.5725 -0.3315
 3873SOL    HW113387   5.741   8.651   4.995 -0.3131  1.7220  1.0585
 3873SOL    HW213388   5.706   8.714   4.862  0.0675 -0.4468 -0.1198
 3874SOL     OW13389   5.799   4.362   2.774 -0.1152 -0.2779  0.0895
 3874SOL    HW113390   5.849   4.442   2.757 -1.9340  0.7528 -0.7333
 3874SOL    HW213391   5.731   4.390   2.834  0.7366 -1.8457  1.8666
 3875SOL     OW13392   9.311   0.663   5.429 -0.2659  0.2079 -0.4419
 3875SOL    HW113393   9.266   0.747   5.431  1.0461  0.9289 -0.0391
 3875SOL    HW213394   9.387   0.675   5.487 -0.3631 -1.4343  0.0736
 3876SOL     OW13395   5.204   5.640   0.620 -0.6353 -0.2377  0.7238
 3876SOL    HW113396   5.291   5.650   0.660  0.9228 -4.0029 -1.2117
 3876SOL    HW213397   5.209   5.693   0.540 -0.6078  0.5769  1.2609
 3877SOL     OW13398   6.008   5.993   0.518 -0.0019 -0.5284  0.4861
 3877SOL    HW113399   6.022   5.965   0.428 -0.0775 -0.5708  0.4877
 3877SOL    HW213400   6.022   6.088   0.516  0.1359 -0.5495  0.4580
 3878SOL     OW13401   7.221   6.866   0.836 -0.2672 -0.4974 -0.4623
 3878SOL    HW113402   7.289   6.840   0.773  0.1746 -2.1279  0.6185
 3878SOL    HW213403   7.160   6.792   0.836 -1.2503  0.2956 -0.3096
 3879SOL     OW13404   1.688   8.802   0.216 -0.3156  0.3747  0.2442
 3879SOL    HW113405   1.736   8.749   0.280  2.9402 -0.1007 -2.2699
 3879SOL    HW213406   1.700   8.892   0.246  0.2916  0.1080  0.8473
 3880SOL     OW13407   6.838   1.087   2.702  0.4557 -0.4245  0.8488
 3880SOL    HW113408   6.896   1.072   2.628  0.4427 -2.1205  1.1498
 3880SOL    HW213409   6.823   1.182   2.702  1.9982 -0.1507 -0.1335
 3881SOL     OW13410   8.211   3.409   7.534  0.1847  0.2664  0.5582
 3881SOL    HW113411   8.252   3.413   7.447  2.9548  0.6666  1.8008
 3881SOL    HW213412   8.152   3.485   7.535  1.1993  1.1017 -0.4714
 3882SOL     OW13413   8.830   1.623   6.051 -0.0616  0.0276 -0.4990
 3882SOL    HW113414   8.783   1.691   6.002 -0.9069  0.5675  0.9730
 3882SOL    HW213415   8.763   1.585   6.108  0.9833 -0.2113  0.5882
 3883SOL     OW13416   0.042   3.555   6.639 -0.4884  0.8368 -0.3998
 3883SOL    HW113417   0.012   3.611   6.567  0.7290 -0.1742 -1.7730
 3883SOL    HW213418   0.060   3.470   6.597  1.1924  0.4878  0.9074
 3884SOL     OW13419   1.894   2.673   7.249  0.6258 -0.4303 -0.0691
 3884SOL    HW113420   1.911   2.717   7.166 -1.9327 -0.8337 -0.9122
 3884SOL    HW213421   1.858   2.587   7.224  0.8052 -0.9944  1.4797
 3885SOL     OW13422   6.095   7.106   6.357  0.1756 -0.4550 -0.9435
 3885SOL    HW113423   6.010   7.103   6.402  1.3425  1.8575  1.7972
 3885SOL    HW213424   6.153   7.056   6.414  0.9870 -0.7320 -1.9910
 3886SOL     OW13425   2.687   3.363   6.173 -0.1052 -0.4530  0.2909
 3886SOL    HW113426   2.632   3.425   6.221  1.4876  0.6955  0.6964
 3886SOL    HW213427   2.732   3.417   6.108  1.5482 -1.1046  0.8597
 3887SOL     OW13428   0.197   9.248   7.631  0.3334  0.1913 -0.4090
 3887SOL    HW113429   0.207   9.321   7.570  0.2467  0.0201 -0.6289
 3887SOL    HW213430   0.129   9.194   7.593 -1.3912  1.2707  0.9961
 3888SOL     OW13431   2.650   8.227   7.793  0.2793 -0.5926 -0.2597
 3888SOL    HW113432   2.664   8.178   7.874  1.8244  0.2732  0.0323
 3888SOL    HW213433   2.670   8.318   7.816  1.5497 -0.4366 -1.7639
 3889SOL     OW13434   8.231   6.063   3.285  0.3375  0.1760 -0.1345
 3889SOL    HW113435   8.182   6.145   3.285 -0.7341 -0.3913 -1.9043
 3889SOL    HW213436   8.274   6.061   3.199  1.6028 -0.4096  0.4932
 3890SOL     OW13437   3.195   7.596   2.721 -0.3373 -0.2795  0.3979
 3890SOL    HW113438   3.189   7.623   2.812 -0.0790  0.2908  0.2555
 3890SOL    HW213439   3.178   7.677   2.672  1.8462 -0.0346 -0.0537
 3891SOL     OW13440   5.721   5.469   8.022  0.3406 -0.1969 -0.2235
 3891SOL    HW113441   5.814   5.487   8.038 -0.3362  1.5475  2.4462
 3891SOL    HW213442   5.677   5.553   8.036 -1.7734 -1.2324 -0.1894
 3892SOL     OW13443   8.630   6.072   6.017 -0.1251  0.1816  0.7531
 3892SOL    HW113444   8.580   6.060   5.937  0.2061  0.6168  0.4745
 3892SOL    HW213445   8.579   6.135   6.068 -0.1751  0.1496  0.7425
 3893SOL     OW13446   0.101   4.674   0.267  0.1121  0.3763  0.3726
 3893SOL    HW113447   0.195   4.686   0.278 -0.2576  2.5659  1.7589
 3893SOL    HW213448   0.068   4.664   0.357 -0.9246 -1.3117 -0.1361
 3894SOL     OW13449   6.810   6.106   9.708 -0.0227  0.1190  0.1521
 3894SOL    HW113450   6.899   6.131   9.731 -0.5111  1.5911  0.5739
 3894SOL    HW213451   6.772   6.185   9.670 -0.8039 -0.8145 -1.0809
 3895SOL     OW13452   2.995   2.098   0.430  0.4046 -0.0405  0.3700
 3895SOL    HW113453   3.051   2.144   0.368  1.2735 -0.0889  1.0981
 3895SOL    HW213454   2.944   2.167   0.472 -0.0114  0.0146 -0.2138
 3896SOL     OW13455   8.289   7.625   7.754 -0.2349 -0.1402  0.0102
 3896SOL    HW113456   8.290   7.578   7.670  2.0328  1.2266 -0.8358
 3896SOL    HW213457   8.344   7.572   7.812 -0.3346 -0.1686  0.0791
 3897SOL     OW13458   4.683   1.044   1.841 -0.1053 -0.4242  0.6763
 3897SOL    HW113459   4.656   1.087   1.760  1.7756 -0.7176 -0.1595
 3897SOL    HW213460   4.601   1.018   1.883 -1.1496  0.6075 -0.6455
 3898SOL     OW13461   3.186   7.266   2.405 -0.2773  0.3381  0.2977
 3898SOL    HW113462   3.247   7.204   2.366 -0.0714  0.1731  0.8723
 3898SOL    HW213463   3.241   7.323   2.459 -0.5545  0.5769  0.3306
 3899SOL     OW13464   9.740   1.346   4.576 -0.5466 -0.3239  0.0554
 3899SOL    HW113465   9.689   1.268   4.553 -0.4461  0.0792 -1.6482
 3899SOL    HW213466   9.704   1.415   4.521  0.4514  0.4688  0.3701
 3900SOL     OW13467   7.089   5.463   0.988  0.2315  0.4650 -0.4860
 3900SOL    HW113468   7.013   5.450   1.045  0.6257  0.9724  0.1719
 3900SOL    HW213469   7.053   5.505   0.910 -0.0019  1.9230  0.3662
 3901SOL     OW13470   9.038   8.888   7.176  0.8545 -0.0229  0.1724
 3901SOL    HW113471   9.107   8.876   7.110  1.2635  0.4538  0.5008
 3901SOL    HW213472   8.984   8.959   7.141  2.6317  2.1330  1.5586
 3902SOL     OW13473   4.864   7.493   4.656  0.1854  0.1770  0.4195
 3902SOL    HW113474   4.847   7.534   4.571 -1.6899  0.7777  1.0315
 3902SOL    HW213475   4.910   7.411   4.634  0.6628  0.8059 -1.0780
 3903SOL     OW13476   0.714   2.285   1.057 -0.0117 -0.1450 -0.3168
 3903SOL    HW113477   0.804   2.272   1.086 -0.0922  1.1611  0.5954
 3903SOL    HW213478   0.721   2.304   0.963  0.7069  0.3715 -0.1661
 3904SOL     OW13479   0.997   3.030   0.257  0.3514  0.1507  0.1229
 3904SOL    HW113480   1.021   2.944   0.221  2.5757  0.3320  0.9782
 3904SOL    HW213481   1.037   3.031   0.344 -2.4362  0.8234  1.5067
 3905SOL     OW13482   3.152   0.233   7.695  0.1438 -0.0983  0.1921
 3905SOL    HW113483   3.159   0.219   7.601 -0.7531 -1.5464  0.3212
 3905SOL    HW213484   3.182   0.323   7.708 -2.0466  1.0173 -1.7938
 3906SOL     OW13485   3.648   0.789   8.899  0.5607  0.0621  0.3579
 3906SOL    HW113486   3.681   0.862   8.848  2.3592 -0.2252  1.0446
 3906SOL    HW213487   3.680   0.711   8.853 -0.5066 -0.2896  0.1785
 3907SOL     OW13488   3.846   8.685   4.787 -0.1677 -0.0906 -0.3237
 3907SOL    HW113489   3.796   8.760   4.820 -0.1776 -0.0167 -0.5066
 3907SOL    HW213490   3.832   8.686   4.692  1.3313  0.7697 -0.5597
 3908SOL     OW13491   4.057   9.345   6.386  0.5162 -0.6197  0.7948
 3908SOL    HW113492   4.118   9.272   6.396 -1.8968 -2.9010  0.0642
 3908SOL    HW213493   4.057   9.388   6.471  2.7653 -0.7726  0.9416
 3909SOL     OW13494   5.409   2.962   0.460  0.1641 -0.3920 -0.4158
 3909SOL    HW113495   5.355   3.039   0.478  0.2071 -0.4943  0.1577
 3909SOL    HW213496   5.486   2.972   0.517  1.0461  0.0437 -1.6405
 3910SOL     OW13497   2.984   6.084   3.411  0.4447  0.2845  0.3237
 3910SOL    HW113498   2.955   6.078   3.320 -1.5703  0.6801  0.8846
 3910SOL    HW213499   2.936   6.014   3.456  0.5798  0.7735  1.2638
 3911SOL     OW13500   7.795   9.051   3.325  0.0262 -0.3771  0.0345
 3911SOL    HW113501   7.732   9.002   3.272 -0.2856  0.3094 -0.2341
 3911SOL    HW213502   7.746   9.078   3.402  0.2194 -0.5435  0.2182
 3912SOL     OW13503   2.501   9.377   2.057  0.3876 -0.4393 -0.7412
 3912SOL    HW113504   2.482   9.342   2.144 -0.5086  0.2648 -0.6470
 3912SOL    HW213505   2.416   9.389   2.016  0.8308 -2.1298 -2.2953
 3913SOL     OW13506   2.703   5.793   6.995 -0.1739  0.1730  0.0200
 3913SOL    HW113507   2.749   5.771   7.075 -0.2448  0.7599  0.2320
 3913SOL    HW213508   2.718   5.887   6.984  0.0855  0.0463 -0.8140
 3914SOL     OW13509   9.339   8.383   6.478  0.5427 -0.5249  0.6832
 3914SOL    HW113510   9.381   8.328   6.412  2.5726 -0.2220  1.6586
 3914SOL    HW213511   9.370   8.350   6.562 -1.5506 -0.5362  1.5295
 3915SOL     OW13512   7.816   9.404   9.635 -0.4829  0.1711  0.2257
 3915SOL    HW113513   7.803   9.488   9.678 -0.8338  0.5630 -0.6351
 3915SOL    HW213514   7.749   9.401   9.567  1.5554  0.6444 -1.9209
 3916SOL     OW13515   3.718   7.708   0.520 -0.0575  0.7368  0.8206
 3916SOL    HW113516   3.792   7.768   0.513  0.5824 -0.2165 -1.8409
 3916SOL    HW213517   3.687   7.699   0.430 -2.1334 -0.4891  1.5978
 3917SOL     OW13518   7.398   8.962   4.350  0.1834 -0.0970  0.0022
 3917SOL    HW113519   7.391   8.883   4.404  2.0278 -2.1500 -2.5173
 3917SOL    HW213520   7.492   8.975   4.339 -0.0363  2.9165  0.8345
 3918SOL     OW13521   5.120   2.493   6.146 -0.2388  0.2572 -0.6152
 3918SOL    HW113522   5.099   2.550   6.072  0.7210 -0.2150 -1.2666
 3918SOL    HW213523   5.212   2.471   6.135  0.1128  0.7217  1.1159
 3919SOL     OW13524   9.633   4.795   8.493  0.5308 -0.1924  0.5135
 3919SOL    HW113525   9.639   4.752   8.578 -0.7894 -0.4220  0.5205
 3919SOL    HW213526   9.565   4.746   8.447  1.0304  0.1138 -0.5664
 3920SOL     OW13527   0.650   8.649   4.548  0.5114  0.0044 -0.1654
 3920SOL    HW113528   0.661   8.554   4.547  1.3672  0.0048  2.5433
 3920SOL    HW213529   0.555   8.662   4.554  0.4740 -0.7575  1.2158
 3921SOL     OW13530   0.812   0.033   3.713  0.1019 -0.5072 -0.0791
 3921SOL    HW113531   0.849  -0.021   3.783 -1.9929 -1.4400  0.3781
 3921SOL    HW213532   0.717   0.024   3.723 -0.2812  0.0014 -2.5338
 3922SOL     OW13533   5.213   7.987   5.507  0.0965 -0.4365 -0.0010
 3922SOL    HW113534   5.304   8.004   5.530  0.2318 -0.8290 -0.2234
 3922SOL    HW213535   5.212   7.895   5.480 -0.1492 -0.1478 -1.0192
 3923SOL     OW13536   8.297   5.409   5.360 -0.5579 -0.1428  0.1696
 3923SOL    HW113537   8.387   5.444   5.358 -0.6416  0.0941 -1.7540
 3923SOL    HW213538   8.309   5.314   5.355 -0.3695 -0.0636 -2.0687
 3924SOL     OW13539   7.224   6.960   6.960 -0.1122 -0.0622  0.4514
 3924SOL    HW113540   7.308   6.993   6.928  0.1826 -1.2011  0.0160
 3924SOL    HW213541   7.240   6.936   7.051 -0.2812  0.7886  0.7156
 3925SOL     OW13542   3.926   3.704   8.657 -0.7109 -0.3259 -0.3935
 3925SOL    HW113543   3.862   3.764   8.620  0.2307  0.5946 -0.5794
 3925SOL    HW213544   3.934   3.730   8.748 -2.1137 -1.7980  0.2045
 3926SOL     OW13545   3.653   5.442   4.844 -0.1646  1.0475  0.4055
 3926SOL    HW113546   3.645   5.535   4.865  0.1896  1.2355 -0.2284
 3926SOL    HW213547   3.564   5.409   4.846 -0.1590  1.0423  2.1317
 3927SOL     OW13548   7.854   5.807   7.277  0.0832  0.1738 -0.2090
 3927SOL    HW113549   7.817   5.755   7.348  2.8173  1.0113  2.0216
 3927SOL    HW213550   7.806   5.890   7.281 -0.6843 -0.2638 -0.2483
 3928SOL     OW13551   0.957   8.571   8.488 -0.5698 -0.1458 -0.0717
 3928SOL    HW113552   1.006   8.499   8.450  1.1043  0.2219  1.2617
 3928SOL    HW213553   1.005   8.650   8.462 -2.1346  0.4903 -1.1655
 3929SOL     OW13554   8.362   2.969   2.812  0.2679 -0.4808  0.0691
 3929SOL    HW113555   8.443   3.006   2.847  0.3769  0.5502 -1.1828
 3929SOL    HW213556   8.327   2.915   2.883 -0.2472  2.5439  2.3320
 3930SOL     OW13557   6.921   2.486   2.051 -0.0322  0.1974 -0.4100
 3930SOL    HW113558   6.949   2.577   2.053 -2.1815  0.9804 -1.7459
 3930SOL    HW213559   6.937   2.459   1.960  2.2770 -1.4023  0.3977
 3931SOL     OW13560   3.262   0.677   4.368  0.6205  0.4362 -0.0178
 3931SOL    HW113561   3.194   0.622   4.329  0.0849  0.2581  1.1177
 3931SOL    HW213562   3.244   0.765   4.334  0.6153  0.1695 -0.7227
 3932SOL     OW13563   2.548   4.473   2.721 -0.0490  0.5290  0.1776
 3932SOL    HW113564   2.522   4.459   2.812 -0.8404  1.9018  0.1767
 3932SOL    HW213565   2.484   4.423   2.670 -0.0400  0.3544  0.3345
 3933SOL     OW13566   7.069   9.048   3.549  0.1301  0.2868 -0.6853
 3933SOL    HW113567   7.093   8.966   3.594  0.1440 -0.3194 -1.7633
 3933SOL    HW213568   7.152   9.094   3.539 -0.0930  1.2454  1.4186
 3934SOL     OW13569   0.289   5.576   8.683 -0.1171  0.4471  0.0175
 3934SOL    HW113570   0.278   5.508   8.750  3.5235 -0.5175 -0.1605
 3934SOL    HW213571   0.259   5.534   8.602  1.2728 -0.7178  0.0619
 3935SOL     OW13572   7.874   9.144   1.048  0.1199 -0.3538  0.6376
 3935SOL    HW113573   7.833   9.226   1.077  1.6743  1.0388 -0.8658
 3935SOL    HW213574   7.961   9.170   1.019  1.1705 -2.7947  1.3412
 3936SOL     OW13575   0.043   9.306   1.249  0.2057  0.0868  0.1447
 3936SOL    HW113576   0.103   9.234   1.228  0.0864  0.1160 -0.3013
 3936SOL    HW213577   0.054   9.368   1.177  0.5328  0.6616  0.6839
 3937SOL     OW13578   4.618   9.741   7.408  0.3069  0.4464  0.0765
 3937SOL    HW113579   4.623   9.834   7.431  0.3929 -0.0910  2.5398
 3937SOL    HW213580   4.547   9.707   7.463  0.3047 -0.9686 -0.7592
 3938SOL     OW13581   1.484   6.501   6.259 -0.1287 -0.3318  0.3153
 3938SOL    HW113582   1.401   6.542   6.236 -0.6220 -0.2572  2.0629
 3938SOL    HW213583   1.549   6.545   6.205 -1.1393  0.0664 -0.5994
 3939SOL     OW13584   6.468   1.023   5.980 -0.1729  0.4646 -0.4211
 3939SOL    HW113585   6.374   1.002   5.979 -0.0279 -0.1988 -1.4075
 3939SOL    HW213586   6.508   0.958   5.922  1.2422 -0.7131  1.7324
 3940SOL     OW13587   1.412   3.016   8.299  0.3401 -0.2788  0.0997
 3940SOL    HW113588   1.410   2.928   8.263  0.6233  0.0104 -0.6535
 3940SOL    HW213589   1.464   3.066   8.237  0.9192  0.2261  0.9734
 3941SOL     OW13590   7.283   5.007   5.967  0.3999  0.2315 -1.0436
 3941SOL    HW113591   7.285   5.096   6.002  2.3547  0.0464 -0.5718
 3941SOL    HW213592   7.373   4.990   5.940 -0.2082 -1.1519 -2.3371
 3942SOL     OW13593   4.257   4.858   9.473  0.1586 -0.4355 -0.2255
 3942SOL    HW113594   4.296   4.819   9.394 -0.0693  1.7682 -1.5294
 3942SOL    HW213595   4.164   4.833   9.468  0.5897 -2.4170  0.7710
 3943SOL     OW13596   5.458   8.462   0.204 -0.2087  0.6361 -0.2243
 3943SOL    HW113597   5.513   8.384   0.203 -2.2336 -0.8813 -0.3178
 3943SOL    HW213598   5.448   8.484   0.297 -1.3069 -0.5315 -0.0364
 3944SOL     OW13599   5.369   3.929   8.918 -0.3161  0.0335 -0.1678
 3944SOL    HW113600   5.445   3.961   8.869 -0.1934 -1.0565 -0.7207
 3944SOL    HW213601   5.406   3.883   8.993 -0.4857  0.8637  0.4480
 3945SOL     OW13602   8.119   7.174   0.511 -0.0418  0.0982  0.3774
 3945SOL    HW113603   8.088   7.117   0.441 -0.8174  1.3566 -0.3427
 3945SOL    HW213604   8.041   7.194   0.562  0.1385  0.8238  0.3806
 3946SOL     OW13605   3.637   8.618   1.399 -0.5093 -0.2454  0.3020
 3946SOL    HW113606   3.553   8.620   1.445 -1.5006  4.4930 -1.1784
 3946SOL    HW213607   3.615   8.595   1.309  0.6885 -4.0792  0.8219
 3947SOL     OW13608   4.098   4.087   2.718 -0.0578  0.4339  0.1109
 3947SOL    HW113609   4.010   4.072   2.682  0.2850 -0.5410 -0.3477
 3947SOL    HW213610   4.097   4.042   2.802  0.2033 -0.1363 -0.1862
 3948SOL     OW13611   8.097   4.486   3.375 -0.1277  0.5548  0.3071
 3948SOL    HW113612   8.063   4.445   3.296 -1.3212 -0.0032  1.0817
 3948SOL    HW213613   8.153   4.419   3.414 -0.9820  0.1409  0.8556
 3949SOL     OW13614   6.634   3.887   4.954  0.0368  0.5217 -1.0555
 3949SOL    HW113615   6.548   3.927   4.961 -0.6452 -0.9906 -0.4395
 3949SOL    HW213616   6.632   3.839   4.871  0.4614  0.8731 -1.2718
 3950SOL     OW13617   6.518   4.832   0.929 -0.4323  0.4112 -0.3909
 3950SOL    HW113618   6.535   4.790   0.845  0.3049  2.1520 -1.1733
 3950SOL    HW213619   6.424   4.849   0.928 -0.2257  1.8326 -1.6474
 3951SOL     OW13620   4.886   5.563   2.681  0.3711  0.3152  0.3387
 3951SOL    HW113621   4.815   5.585   2.740  0.8421  1.6212  0.4625
 3951SOL    HW213622   4.947   5.636   2.688  1.1810 -0.2266 -0.6154
 3952SOL     OW13623   1.100   0.163   7.813  0.3758  0.1827  0.0855
 3952SOL    HW113624   1.011   0.128   7.811  0.7472 -0.8859  1.1260
 3952SOL    HW213625   1.090   0.250   7.852 -0.2311  0.1579  0.0061
 3953SOL     OW13626   9.368   4.858   9.629 -0.2967  0.3315  0.0963
 3953SOL    HW113627   9.285   4.864   9.676 -1.2146 -0.5804 -1.3510
 3953SOL    HW213628   9.404   4.773   9.654 -0.2706  0.3089 -0.0151
 3954SOL     OW13629   3.004   5.844   3.839 -0.1141 -0.0669 -0.7012
 3954SOL    HW113630   2.947   5.921   3.845  0.4189  0.3122 -0.4391
 3954SOL    HW213631   3.092   5.880   3.833  0.2950 -0.6485  1.1494
 3955SOL     OW13632   2.127   9.465   8.468 -0.1632 -0.5317  0.1319
 3955SOL    HW113633   2.090   9.553   8.461  1.6718  0.5496  2.5688
 3955SOL    HW213634   2.064   9.418   8.523 -1.2769 -0.8920 -1.3807
 3956SOL     OW13635   2.540   5.564   6.706 -0.4396  0.5523 -0.6538
 3956SOL    HW113636   2.625   5.528   6.733 -1.4075 -0.4029  1.2840
 3956SOL    HW213637   2.523   5.524   6.621  0.0411 -1.0317 -0.0426
 3957SOL     OW13638   9.279   2.468   1.773  0.2444  0.3415 -0.3008
 3957SOL    HW113639   9.346   2.477   1.706  2.5298 -0.1992  1.7648
 3957SOL    HW213640   9.250   2.377   1.766  0.4275  0.3030 -0.5764
 3958SOL     OW13641   7.137   1.775   2.717  0.1583  0.4345  0.8436
 3958SOL    HW113642   7.208   1.754   2.778  1.0418  0.7243 -0.0588
 3958SOL    HW213643   7.059   1.736   2.756  0.7724  0.2942  1.9659
 3959SOL     OW13644   3.220   4.246   0.001  0.0753 -0.1671  0.3784
 3959SOL    HW113645   3.218   4.203  -0.084  1.5461 -0.2740  0.3788
 3959SOL    HW213646   3.133   4.285   0.011  0.2392  0.8142 -1.6480
 3960SOL     OW13647   5.017   5.806   0.169  0.1393 -0.1238  0.2858
 3960SOL    HW113648   5.101   5.807   0.214 -0.5377  0.4682  1.6240
 3960SOL    HW213649   5.009   5.718   0.134  1.5607 -0.0102 -0.3709
 3961SOL     OW13650   4.407   4.900   4.077 -0.3976 -0.0274  0.1501
 3961SOL    HW113651   4.487   4.854   4.100 -0.8458  0.0598  2.0625
 3961SOL    HW213652   4.419   4.989   4.110 -0.8490  0.2918 -0.5196
 3962SOL     OW13653   5.152   6.182   8.451 -0.1211 -0.0810  0.3378
 3962SOL    HW113654   5.134   6.252   8.514 -2.6695 -0.2370 -0.1176
 3962SOL    HW213655   5.155   6.102   8.504  1.7066  0.2076  0.7170
 3963SOL     OW13656   8.750   7.290   0.611  0.2830 -0.9177  0.2268
 3963SOL    HW113657   8.736   7.382   0.589  1.0577 -0.8156  0.1279
 3963SOL    HW213658   8.669   7.262   0.654 -1.3898 -1.1592 -2.8116
 3964SOL     OW13659   7.841   1.804   3.780 -0.0691  0.1836  0.4122
 3964SOL    HW113660   7.751   1.779   3.799  0.9762 -2.4529  2.6097
 3964SOL    HW213661   7.848   1.896   3.805 -1.6189 -0.1868  2.4023
 3965SOL     OW13662   6.247   6.580   8.349  0.2869  0.0595 -0.1990
 3965SOL    HW113663   6.263   6.624   8.432  0.9787  1.1008 -0.8720
 3965SOL    HW213664   6.272   6.489   8.364  3.3074  0.8294 -0.1058
 3966SOL     OW13665   6.671   7.471   4.698  0.0073 -0.7643 -0.2423
 3966SOL    HW113666   6.688   7.382   4.668  1.6071 -0.1861 -1.1222
 3966SOL    HW213667   6.698   7.527   4.626 -4.1720  0.4184 -1.1654
 3967SOL     OW13668   2.476   4.764   9.461 -0.5968 -0.0800  0.1258
 3967SOL    HW113669   2.495   4.697   9.395 -0.7794  0.3276 -0.3436
 3967SOL    HW213670   2.527   4.738   9.537 -1.4368 -1.3133  0.2941
 3968SOL     OW13671   5.069   2.496   0.009  0.2422 -0.0724 -0.0005
 3968SOL    HW113672   4.984   2.455  -0.007  0.9179 -1.3371 -0.5012
 3968SOL    HW213673   5.126   2.423   0.034  0.8685  0.9335  1.6617
 3969SOL     OW13674   1.821   1.523   0.290  0.1053  0.2730 -0.4160
 3969SOL    HW113675   1.846   1.614   0.307  2.1266 -0.1793 -0.7208
 3969SOL    HW213676   1.777   1.526   0.205 -3.5351  1.4705  1.2780
 3970SOL     OW13677   7.201   9.154   0.905 -0.7435  0.0992  0.5399
 3970SOL    HW113678   7.162   9.208   0.974 -0.8624 -1.4046  1.6929
 3970SOL    HW213679   7.285   9.125   0.942 -0.0079  0.6623 -0.6388
 3971SOL     OW13680   8.504   8.384   9.410  0.5206  0.4296  0.1231
 3971SOL    HW113681   8.546   8.395   9.325  1.9037 -0.4862  0.6531
 3971SOL    HW213682   8.571   8.410   9.474 -1.2876  3.5418  0.9397
 3972SOL     OW13683   4.208   8.599   2.274  0.1336  0.0722 -0.6759
 3972SOL    HW113684   4.206   8.509   2.307  0.2311 -0.5165 -2.1642
 3972SOL    HW213685   4.295   8.631   2.298  0.5911 -0.6965 -1.2473
 3973SOL     OW13686   9.298   1.027   4.695 -0.0558 -0.1784 -0.4320
 3973SOL    HW113687   9.339   1.101   4.740 -1.8180  0.3919  0.3147
 3973SOL    HW213688   9.262   0.974   4.765  0.5777 -1.4036 -1.0077
 3974SOL     OW13689   4.464   6.913   2.135  0.3661 -0.4983 -0.5243
 3974SOL    HW113690   4.441   6.863   2.213 -0.4858 -1.7107 -1.5147
 3974SOL    HW213691   4.520   6.984   2.167  0.9570 -1.6249  1.0258
 3975SOL     OW13692   5.548   9.800   4.473 -0.1068  0.2531 -0.7905
 3975SOL    HW113693   5.616   9.755   4.424 -0.1631 -0.2076 -0.4496
 3975SOL    HW213694   5.580   9.890   4.482  0.2414  0.1540 -1.0239
 3976SOL     OW13695   4.296   0.052   5.194  0.1312  0.2997 -0.1851
 3976SOL    HW113696   4.224  -0.007   5.174 -0.2728  0.9862 -0.8150
 3976SOL    HW213697   4.339   0.066   5.109  1.1612 -0.3015  0.2262
 3977SOL     OW13698   9.551   2.362   6.290  0.2264 -0.0266 -0.0768
 3977SOL    HW113699   9.487   2.291   6.284  1.2762 -1.1987  1.6327
 3977SOL    HW213700   9.529   2.408   6.371  0.1726  1.0059 -0.6519
 3978SOL     OW13701   3.876   6.416   0.003 -0.1454  0.0952  0.1099
 3978SOL    HW113702   3.935   6.343   0.024  0.8322  0.6754 -0.5501
 3978SOL    HW213703   3.789   6.383   0.024  0.4429 -0.6174  1.5719
 3979SOL     OW13704   1.880   7.069   2.959 -0.0109 -0.1988 -0.2272
 3979SOL    HW113705   1.974   7.083   2.950 -0.1541 -0.3424 -2.5915
 3979SOL    HW213706   1.871   7.011   3.035  1.5632  1.7657  1.5838
 3980SOL     OW13707   2.923   1.981   0.098  0.3615 -0.0965 -0.3190
 3980SOL    HW113708   3.003   1.941   0.063  0.1307 -1.6807  0.8751
 3980SOL    HW213709   2.942   2.075   0.099  2.5125 -0.4790  0.6224
 3981SOL     OW13710   9.079   2.822   6.760  0.0941 -0.0144 -0.2629
 3981SOL    HW113711   9.164   2.861   6.740  0.0423  0.6803  0.7860
 3981SOL    HW213712   9.098   2.731   6.780  0.5194  0.0002 -0.6029
 3982SOL     OW13713   3.880   8.044   2.178 -0.0883 -0.0488 -0.4549
 3982SOL    HW113714   3.910   8.104   2.109  0.4096 -0.3938 -0.5433
 3982SOL    HW213715   3.793   8.078   2.203  0.0439  0.5121 -0.7320
 3983SOL     OW13716   3.541   2.636   0.117  0.4464  0.3974 -0.5324
 3983SOL    HW113717   3.545   2.644   0.212  1.3090  1.5200 -0.6547
 3983SOL    HW213718   3.454   2.599   0.100 -0.1447  1.2098  0.6190
 3984SOL     OW13719   7.894   5.350   1.321 -0.0763  0.3628 -0.0099
 3984SOL    HW113720   7.977   5.392   1.341 -0.5289  1.0647  0.4490
 3984SOL    HW213721   7.842   5.417   1.278 -0.4528 -0.0316 -0.1868
 3985SOL     OW13722   1.053   6.765   9.069  0.1060 -0.1425 -0.1896
 3985SOL    HW113723   1.060   6.703   9.142  1.4720  0.2694  0.0564
 3985SOL    HW213724   1.137   6.758   9.024 -0.4423  0.1638 -1.2837
 3986SOL     OW13725   6.944   6.463   6.846  0.2109 -0.1879 -0.1681
 3986SOL    HW113726   6.966   6.497   6.932  0.3495 -0.7068  0.0078
 3986SOL    HW213727   6.901   6.379   6.864 -0.1200 -0.1083 -0.5850
 3987SOL     OW13728   7.318   4.210   6.026 -0.5018 -0.2200 -0.3390
 3987SOL    HW113729   7.329   4.126   6.070  0.7698  0.1813  0.1740
 3987SOL    HW213730   7.403   4.228   5.987  0.0001  1.8837  1.5260
 3988SOL     OW13731   3.054   9.665   3.503  0.2950 -0.2071 -0.4141
 3988SOL    HW113732   3.012   9.613   3.571  1.2960  0.0630  0.4455
 3988SOL    HW213733   3.133   9.700   3.545  0.0993  1.2958 -1.2205
 3989SOL     OW13734   2.050   8.391   0.334  0.0769 -0.2810  0.2965
 3989SOL    HW113735   2.043   8.346   0.250  2.2579 -1.4588  0.6496
 3989SOL    HW213736   2.055   8.320   0.398 -1.6012  0.6042  1.4686
 3990SOL     OW13737   0.489   2.369   2.505 -0.2864  0.1483  0.2299
 3990SOL    HW113738   0.468   2.432   2.436 -1.5367 -0.0839  0.3822
 3990SOL    HW213739   0.422   2.381   2.571  0.7849  0.2271  1.3417
 3991SOL     OW13740   4.348   8.029   6.071  0.1206  0.6925  0.0648
 3991SOL    HW113741   4.353   8.020   6.166  2.9967 -2.2572 -0.2348
 3991SOL    HW213742   4.360   8.123   6.056  1.0298  1.0486  2.5337
 3992SOL     OW13743   6.466   0.270   6.846  0.2269 -0.3351 -0.0547
 3992SOL    HW113744   6.446   0.353   6.890 -1.2953 -0.3627 -0.6387
 3992SOL    HW213745   6.515   0.221   6.911  1.2227  1.0433  0.2834
 3993SOL     OW13746   1.668   5.192   3.592  0.0175  0.4775 -0.3082
 3993SOL    HW113747   1.709   5.276   3.611 -0.6954  0.3504  2.1943
 3993SOL    HW213748   1.605   5.211   3.523 -0.0663  2.0043  0.1407
 3994SOL     OW13749   7.368   1.944   4.177 -0.1334  0.1033 -0.1362
 3994SOL    HW113750   7.425   2.004   4.225  0.2092 -0.5476  0.2899
 3994SOL    HW213751   7.280   1.971   4.200  0.0147  0.5638 -0.1005
 3995SOL     OW13752   8.216   7.971   3.735 -0.2551  0.5755 -0.5809
 3995SOL    HW113753   8.191   7.920   3.812 -1.3432  0.2555 -1.1212
 3995SOL    HW213754   8.247   7.906   3.672 -1.6458  0.5422 -1.2719
 3996SOL     OW13755   1.042   0.345   6.115 -0.0010 -0.2947 -0.0952
 3996SOL    HW113756   1.015   0.376   6.028 -0.4647 -0.6875 -0.0970
 3996SOL    HW213757   0.969   0.369   6.172  0.9334  1.3268  0.4990
 3997SOL     OW13758   1.121   2.740   3.385  0.0101  0.2359  0.2910
 3997SOL    HW113759   1.123   2.783   3.470 -0.1336  1.5046 -0.3161
 3997SOL    HW213760   1.030   2.716   3.371  0.3511 -1.7985  1.3442
 3998SOL     OW13761   9.186   9.412   2.530  0.9124  0.1617 -0.6878
 3998SOL    HW113762   9.111   9.356   2.549 -0.5610  2.3311  0.4155
 3998SOL    HW213763   9.153   9.475   2.465  2.1540  0.4447 -1.0719
 3999SOL     OW13764   4.483   2.565   3.714 -0.2052  0.3326  0.4219
 3999SOL    HW113765   4.467   2.659   3.706 -0.7439  0.1433 -0.9980
 3999SOL    HW213766   4.396   2.527   3.729 -0.0251  0.0209  0.6948
 4000SOL     OW13767   1.439   2.352   9.105  0.3690  0.0843  0.2856
 4000SOL    HW113768   1.387   2.321   9.180 -0.6042 -1.0253 -0.8012
 4000SOL    HW213769   1.373   2.382   9.042  1.0672 -0.5551 -0.7798
 4001SOL     OW13770   4.578   2.033   5.522 -0.2012  0.0079 -0.3097
 4001SOL    HW113771   4.515   1.967   5.494  1.6892 -2.0977  0.1887
 4001SOL    HW213772   4.530   2.086   5.587 -1.8496 -0.6354 -0.9500
 4002SOL     OW13773   5.655   8.034   2.283  0.0540 -0.4006  0.5120
 4002SOL    HW113774   5.599   7.956   2.285 -1.0674  0.3126 -0.9902
 4002SOL    HW213775   5.716   8.017   2.211  0.8809 -0.5723  1.2391
 4003SOL     OW13776   1.475   3.693   6.834 -0.1851  0.3070  0.0164
 4003SOL    HW113777   1.463   3.717   6.926  1.4160  0.0717  0.3186
 4003SOL    HW213778   1.446   3.602   6.829  0.5192  0.0532  0.4826
 4004SOL     OW13779   4.045   3.067   2.881 -0.0911 -0.2627 -0.0378
 4004SOL    HW113780   3.993   3.094   2.957  1.2738 -1.6129  1.4512
 4004SOL    HW213781   4.014   2.979   2.861  2.2087 -1.5401  1.5631
 4005SOL     OW13782   8.510   1.079   7.107  0.4382 -0.2476  0.0186
 4005SOL    HW113783   8.521   1.155   7.050 -2.0819 -0.2274 -0.5598
 4005SOL    HW213784   8.518   1.113   7.195  1.2105  0.3332 -0.2730
 4006SOL     OW13785   0.709   1.668   8.553 -0.1754 -0.6506  0.0524
 4006SOL    HW113786   0.787   1.716   8.526 -0.9664  0.4593 -0.3578
 4006SOL    HW213787   0.648   1.736   8.583 -1.2720 -1.4074 -0.3740
 4007SOL     OW13788   7.374   5.888   4.927 -0.5745  0.0109  1.0409
 4007SOL    HW113789   7.384   5.965   4.984  1.6771 -0.3662  1.2507
 4007SOL    HW213790   7.280   5.869   4.929 -1.1140  2.3914  1.4414
 4008SOL     OW13791   2.389   8.313   0.250 -0.0676 -0.3368  0.3629
 4008SOL    HW113792   2.387   8.320   0.345  1.7427  0.9651  0.3706
 4008SOL    HW213793   2.382   8.404   0.219 -0.5748 -0.7315 -0.7463
 4009SOL     OW13794   1.468   4.302   8.862 -0.2372 -0.2327  0.3351
 4009SOL    HW113795   1.550   4.352   8.858  0.3538 -1.2468 -0.7102
 4009SOL    HW213796   1.407   4.352   8.807  0.3316 -0.6267 -0.6605
 4010SOL     OW13797   7.784   4.694   2.262  0.4962 -0.4430  0.0926
 4010SOL    HW113798   7.783   4.772   2.317  1.2761 -0.1081 -0.3413
 4010SOL    HW213799   7.874   4.689   2.230 -0.2696  0.2370 -2.3642
 4011SOL     OW13800   1.787   6.353   9.095 -0.3146 -0.3737 -0.0029
 4011SOL    HW113801   1.712   6.386   9.045  0.5681 -0.7060 -1.6130
 4011SOL    HW213802   1.786   6.259   9.079  0.3745 -0.3905  0.0622
 4012SOL     OW13803   4.656   0.294   4.253  0.4689 -0.0072  0.4476
 4012SOL    HW113804   4.624   0.265   4.339  1.2179  1.5879  1.3060
 4012SOL    HW213805   4.590   0.262   4.192 -1.6499  1.2284  1.9187
 4013SOL     OW13806   6.415   0.939   1.467 -0.1876  0.0178  0.1731
 4013SOL    HW113807   6.365   0.865   1.503  0.1753  0.0830  0.8204
 4013SOL    HW213808   6.490   0.948   1.525  1.1587 -0.7405 -1.3670
 4014SOL     OW13809   1.163   2.034   7.336  0.0983  0.5592 -0.4211
 4014SOL    HW113810   1.142   1.952   7.381 -0.0496 -0.3849 -2.1571
 4014SOL    HW213811   1.226   2.009   7.268  0.0466  1.8931 -0.9879
 4015SOL     OW13812   6.974   1.422   6.670 -0.5399  0.1441  0.2856
 4015SOL    HW113813   7.026   1.429   6.750 -1.6622 -1.4664  1.2289
 4015SOL    HW213814   7.016   1.352   6.620 -1.4260 -0.7843  0.7985
 4016SOL     OW13815   7.117   0.222   6.532  0.1904  0.3474 -0.1499
 4016SOL    HW113816   7.168   0.235   6.612  2.2352  0.4295 -1.3938
 4016SOL    HW213817   7.053   0.293   6.532  0.0924  0.2908  1.4316
 4017SOL     OW13818   3.857   3.064   5.806  0.4882  0.3244  0.0862
 4017SOL    HW113819   3.774   3.052   5.853  0.4909  0.8485  0.2286
 4017SOL    HW213820   3.834   3.054   5.714  0.5527 -1.1043  0.2000
 4018SOL     OW13821   4.970   1.595   9.650 -0.2892 -0.1474  0.0268
 4018SOL    HW113822   4.963   1.604   9.555 -1.1828 -0.3789  0.0610
 4018SOL    HW213823   5.063   1.578   9.666  0.3932  2.6463 -0.5459
 4019SOL     OW13824   0.093   6.440   1.425  0.6484  0.0817  0.5946
 4019SOL    HW113825   0.043   6.376   1.376  2.4220 -0.7245 -0.2330
 4019SOL    HW213826   0.086   6.412   1.516 -0.7579  0.2587  0.5544
 4020SOL     OW13827   9.547   5.342   9.573  0.1782  0.0978 -0.5352
 4020SOL    HW113828   9.496   5.417   9.542 -0.1671 -0.6986 -1.9674
 4020SOL    HW213829   9.637   5.363   9.550  0.5261  1.3642  1.7156
 4021SOL     OW13830   5.340   6.173   7.412  0.1999  0.2088  0.2368
 4021SOL    HW113831   5.334   6.176   7.317 -1.3694  0.2327  0.3046
 4021SOL    HW213832   5.339   6.265   7.439 -2.0437  0.1999  0.3565
 4022SOL     OW13833   2.808   4.540   2.725 -0.0690  0.6872 -0.0719
 4022SOL    HW113834   2.715   4.517   2.723  0.5752 -2.3619  0.0996
 4022SOL    HW213835   2.809   4.635   2.729 -3.1603  0.9109 -1.4675
 4023SOL     OW13836   4.219   8.901   9.011  0.3379  0.0432  0.1836
 4023SOL    HW113837   4.244   8.975   8.956 -1.5667  0.0136 -0.8093
 4023SOL    HW213838   4.145   8.862   8.966 -1.3310  0.0146  2.7516
 4024SOL     OW13839   5.938   1.037   3.060  0.3888  0.5455 -0.4792
 4024SOL    HW113840   5.974   0.984   3.131 -0.4739  1.5565  0.7543
 4024SOL    HW213841   5.854   0.996   3.039 -1.0033  2.1837  1.5134
 4025SOL     OW13842   9.671   5.067   0.504  0.2012 -0.0594 -0.2772
 4025SOL    HW113843   9.629   4.983   0.524 -1.6002  0.7829 -0.3655
 4025SOL    HW213844   9.648   5.085   0.413 -0.8920  1.3248  0.2458
 4026SOL     OW13845   7.891   7.847   8.654 -0.4929 -0.0531 -0.0843
 4026SOL    HW113846   7.962   7.804   8.606  1.0785  0.7000  1.4674
 4026SOL    HW213847   7.857   7.913   8.592 -0.7831 -1.3075 -1.3143
 4027SOL     OW13848   4.012   0.850   9.721 -0.3291 -0.3354  0.3768
 4027SOL    HW113849   3.927   0.825   9.685 -0.3192 -1.3971  1.0391
 4027SOL    HW213850   4.071   0.852   9.646 -1.0622  1.1232 -0.2045
 4028SOL     OW13851   5.301   0.092   1.098  0.4090 -0.1087  0.0796
 4028SOL    HW113852   5.350   0.170   1.074  0.2709  0.1707  0.6895
 4028SOL    HW213853   5.256   0.116   1.179  0.1148 -0.7149  0.1010
 4029SOL     OW13854   6.287   1.029   8.801 -0.3746 -0.6874 -0.1593
 4029SOL    HW113855   6.367   1.068   8.766 -0.8188  1.6855  1.2658
 4029SOL    HW213856   6.307   0.936   8.807  1.6182 -0.4163 -1.5192
 4030SOL     OW13857   6.674   1.525   1.774  0.6484 -0.3889  0.0465
 4030SOL    HW113858   6.731   1.448   1.768  0.8814 -0.5093  2.6876
 4030SOL    HW213859   6.735   1.599   1.785  0.3754 -0.2965  1.0581
 4031SOL     OW13860   4.116   9.195   6.803 -0.0477 -0.5437  0.2475
 4031SOL    HW113861   4.211   9.207   6.800 -0.2901  1.8921 -2.3875
 4031SOL    HW213862   4.102   9.101   6.786  1.8557 -1.0821  1.4530
 4032SOL     OW13863   6.736   2.660   2.965  0.0687 -0.6499 -0.5605
 4032SOL    HW113864   6.818   2.695   3.000  0.2728  0.2306 -1.8478
 4032SOL    HW213865   6.699   2.732   2.914 -0.9662 -1.3928 -0.8834
 4033SOL     OW13866   7.956   2.165   0.589 -0.0054  0.3079  0.4121
 4033SOL    HW113867   7.875   2.116   0.605  0.8257 -0.9853  0.7977
 4033SOL    HW213868   8.014   2.140   0.661  0.5253  1.7413  0.5210
 4034SOL     OW13869   6.804   7.678   3.974 -1.0388 -0.1991 -0.1745
 4034SOL    HW113870   6.813   7.617   4.047 -0.5487  0.2267  0.1324
 4034SOL    HW213871   6.766   7.756   4.013  1.5986  0.9977  0.2057
 4035SOL     OW13872   4.245   7.922   8.835 -0.7125 -0.0600  0.0344
 4035SOL    HW113873   4.293   7.852   8.792 -1.1746  0.1399 -0.8507
 4035SOL    HW213874   4.158   7.920   8.793 -1.1558  0.1920  0.9242
 4036SOL     OW13875   4.646   6.822   2.551  0.3968 -0.2105  0.0517
 4036SOL    HW113876   4.719   6.763   2.534 -2.1407 -3.8001  0.5058
 4036SOL    HW213877   4.640   6.827   2.646 -0.8065 -1.2688  0.0651
 4037SOL     OW13878   9.416   2.745   3.193  0.2204 -0.3681 -0.7123
 4037SOL    HW113879   9.498   2.787   3.221  0.2270 -0.1884 -0.9893
 4037SOL    HW213880   9.407   2.771   3.101 -1.1026  1.1680 -0.1996
 4038SOL     OW13881   4.613   2.753   7.664 -0.5623 -0.4621 -0.5597
 4038SOL    HW113882   4.635   2.766   7.571 -1.0574 -2.4658 -0.9898
 4038SOL    HW213883   4.528   2.711   7.663  1.0894 -4.2921  0.5573
 4039SOL     OW13884   7.867   1.968   7.174 -0.7343  0.0115  0.3921
 4039SOL    HW113885   7.938   2.029   7.194 -0.2096 -0.5639  0.3269
 4039SOL    HW213886   7.900   1.883   7.203 -1.5332 -0.2173  0.6734
 4040SOL     OW13887   9.605   8.473   7.530 -0.2807  0.1250  0.3994
 4040SOL    HW113888   9.643   8.434   7.450  1.0004 -0.5434  1.2913
 4040SOL    HW213889   9.628   8.411   7.599 -0.9534  0.9387  1.3618
 4041SOL     OW13890   8.686   7.783   8.521  0.1394 -1.0197 -0.2874
 4041SOL    HW113891   8.605   7.746   8.484  0.2775 -0.8698 -0.7385
 4041SOL    HW213892   8.705   7.858   8.466  2.3789 -2.8975 -2.2920
 4042SOL     OW13893   0.822   6.779   5.910  0.0089 -0.0983 -0.3882
 4042SOL    HW113894   0.821   6.808   6.002  0.1135  0.5873 -0.6033
 4042SOL    HW213895   0.780   6.693   5.913  0.1415 -0.1493  0.3283
 4043SOL     OW13896   6.641   0.345   0.300 -0.6415  0.1732  0.2568
 4043SOL    HW113897   6.566   0.288   0.314 -0.5924 -0.3383 -1.2953
 4043SOL    HW213898   6.629   0.379   0.211 -0.8468  2.9103  1.2493
 4044SOL     OW13899   3.073   8.899   8.374 -0.2580 -0.2454 -0.2858
 4044SOL    HW113900   2.993   8.948   8.355 -1.1276 -1.2343  0.6933
 4044SOL    HW213901   3.074   8.891   8.469  0.2549 -1.4629 -0.3758
 4045SOL     OW13902   1.312   1.166   4.583 -0.0049 -0.0261 -0.3198
 4045SOL    HW113903   1.243   1.134   4.641  0.4763 -1.1659 -0.3559
 4045SOL    HW213904   1.388   1.113   4.604 -0.1030 -1.2792 -2.7395
 4046SOL     OW13905   7.421   7.626   0.134 -0.5052 -0.3216 -0.5315
 4046SOL    HW113906   7.501   7.627   0.186 -1.0995  1.0819  0.4259
 4046SOL    HW213907   7.393   7.535   0.134  0.2920 -0.5788  0.3929
 4047SOL     OW13908   8.517   4.765   3.936 -0.2311 -0.7761  0.1343
 4047SOL    HW113909   8.447   4.701   3.936 -0.7605 -0.2208  1.0175
 4047SOL    HW213910   8.555   4.759   4.024 -0.5890  0.4170  0.3906
 4048SOL     OW13911   2.071   1.225   0.645 -0.5102  0.4386 -0.2896
 4048SOL    HW113912   2.016   1.151   0.668  0.7174  0.1204  1.8025
 4048SOL    HW213913   2.159   1.188   0.637  0.2233  1.7139  1.3604
 4049SOL     OW13914   4.605   0.767   5.776 -0.0992 -0.3816 -0.0367
 4049SOL    HW113915   4.654   0.707   5.832  1.0253 -0.7106 -1.3083
 4049SOL    HW213916   4.583   0.841   5.833 -0.9428 -1.6666  1.3845
 4050SOL     OW13917   9.222   1.600   1.656  0.0000 -0.6537 -0.0943
 4050SOL    HW113918   9.214   1.696   1.658 -1.8646 -0.7906  0.7049
 4050SOL    HW213919   9.236   1.576   1.747  1.0289 -1.1231 -0.3681
 4051SOL     OW13920   8.192   6.606   5.425 -0.7935  0.0430  0.3832
 4051SOL    HW113921   8.241   6.524   5.428 -1.5868 -0.4642 -0.2878
 4051SOL    HW213922   8.258   6.673   5.444  0.4204 -0.5363 -1.4611
 4052SOL     OW13923   3.656   7.578   7.930 -0.1960  0.5444  0.2617
 4052SOL    HW113924   3.708   7.534   7.997 -0.2601 -0.2697 -0.2050
 4052SOL    HW213925   3.621   7.656   7.973 -0.8092 -0.3282  1.3831
 4053SOL     OW13926   2.241   9.612   7.753  0.1725 -0.3719  0.3404
 4053SOL    HW113927   2.196   9.654   7.680  1.4648 -0.1386 -0.3632
 4053SOL    HW213928   2.291   9.682   7.795 -1.3467 -0.2771  2.1440
 4054SOL     OW13929   6.922   2.417   6.216 -0.2448  0.2522  0.1982
 4054SOL    HW113930   6.854   2.417   6.284 -0.8748  0.9132 -0.4098
 4054SOL    HW213931   6.879   2.455   6.140  0.5125 -0.3002 -0.5196
 4055SOL     OW13932   2.893   5.935   8.982  0.5252  0.2467 -0.1056
 4055SOL    HW113933   2.802   5.964   8.976  1.0362  1.9474 -0.2968
 4055SOL    HW213934   2.888   5.840   8.990 -1.2772  0.3375  0.2472
 4056SOL     OW13935   6.239   5.184   1.167 -0.2071 -0.1530  0.0243
 4056SOL    HW113936   6.207   5.221   1.249 -0.6864 -0.2298 -0.1260
 4056SOL    HW213937   6.231   5.255   1.104  0.4890  0.0127  0.1199
 4057SOL     OW13938   8.645   2.215   3.797  0.5466  0.0739 -0.5581
 4057SOL    HW113939   8.722   2.212   3.739 -0.2139 -2.1376 -1.5775
 4057SOL    HW213940   8.653   2.136   3.851 -0.8402 -0.0213 -0.4563
 4058SOL     OW13941   5.443   6.012   6.367  0.3503  0.2837  0.5455
 4058SOL    HW113942   5.422   6.040   6.456 -0.0283 -0.7340  0.7893
 4058SOL    HW213943   5.372   6.047   6.313  0.1127  0.1627  0.7816
 4059SOL     OW13944   8.600   7.852   4.885 -0.6357  0.4117 -0.2048
 4059SOL    HW113945   8.608   7.841   4.979 -1.2467  1.9376  0.0483
 4059SOL    HW213946   8.681   7.816   4.849 -0.2964  0.0360  0.9061
 4060SOL     OW13947   2.248   5.660   8.651  0.0510 -0.1035 -0.1596
 4060SOL    HW113948   2.211   5.709   8.725  0.0173 -1.3431  0.6613
 4060SOL    HW213949   2.239   5.720   8.576 -2.8801 -0.0155  0.1526
 4061SOL     OW13950   0.199   7.900   6.337  0.0097  0.2366  0.3407
 4061SOL    HW113951   0.117   7.949   6.324 -1.3701 -2.2709 -1.1391
 4061SOL    HW213952   0.258   7.935   6.270 -1.3462 -0.8045 -1.4840
 4062SOL     OW13953   0.322   6.101   4.472  0.6769  0.7000  0.2966
 4062SOL    HW113954   0.241   6.124   4.517  0.6323 -1.9977  1.7671
 4062SOL    HW213955   0.382   6.173   4.493 -0.2070  0.8796  2.3843
 4063SOL     OW13956   8.552   2.484   9.410 -0.3133 -0.7477 -0.3697
 4063SOL    HW113957   8.560   2.525   9.324 -1.9940 -0.2875 -0.3350
 4063SOL    HW213958   8.617   2.529   9.465 -0.4191  0.1362 -0.9642
 4064SOL     OW13959   4.437   7.426   0.635 -0.7904  0.2785  0.3359
 4064SOL    HW113960   4.419   7.345   0.587 -0.6537  0.9446 -0.8620
 4064SOL    HW213961   4.475   7.485   0.570  1.9165  0.3418  1.8106
 4065SOL     OW13962   4.124   1.847   7.882 -0.0134  0.4385  0.0671
 4065SOL    HW113963   4.079   1.838   7.798  0.4221 -0.1532 -0.1083
 4065SOL    HW213964   4.059   1.819   7.947  0.3492 -1.2373 -0.2514
 4066SOL     OW13965   3.936   5.509   4.811 -0.4260  0.6552  0.2512
 4066SOL    HW113966   3.960   5.602   4.815  0.5575  0.4398 -0.2224
 4066SOL    HW213967   3.867   5.499   4.876 -0.0910  1.5874  0.7716
 4067SOL     OW13968   6.648   2.269   5.658 -0.1485  0.3112  0.7859
 4067SOL    HW113969   6.638   2.325   5.581 -1.0810  0.3853  0.9475
 4067SOL    HW213970   6.740   2.277   5.682 -0.0867  1.1210  0.3072
 4068SOL     OW13971   0.123   7.716   0.100  0.2742 -0.2546 -0.5569
 4068SOL    HW113972   0.211   7.697   0.066  0.1465  0.6003 -1.3967
 4068SOL    HW213973   0.064   7.699   0.027 -0.3643 -1.5080  0.2064
 4069SOL     OW13974   5.099   0.274   2.957  0.2752 -0.1707 -0.2610
 4069SOL    HW113975   5.015   0.297   2.997  0.2108 -0.1984 -0.3798
 4069SOL    HW213976   5.152   0.240   3.030 -0.3502 -1.6270 -0.4557
 4070SOL     OW13977   4.024   5.403   1.267  0.5548 -0.2086  0.2963
 4070SOL    HW113978   3.968   5.370   1.197  0.6075 -1.0159  0.6201
 4070SOL    HW213979   4.047   5.492   1.240  0.8011 -0.6045 -0.8478
 4071SOL     OW13980   5.829   8.812   5.498 -0.1311  0.0360  0.3910
 4071SOL    HW113981   5.883   8.772   5.430 -0.8301  0.4727 -0.4427
 4071SOL    HW213982   5.889   8.873   5.542 -0.2259  1.5224 -1.4009
 4072SOL     OW13983   1.200   6.846   5.556  0.1299 -0.0983 -0.2398
 4072SOL    HW113984   1.188   6.841   5.650  1.1627 -1.6697 -0.1446
 4072SOL    HW213985   1.295   6.851   5.544 -0.0481  2.0326 -1.1608
 4073SOL     OW13986   6.270   0.643   1.978  0.1753  0.2599 -0.1956
 4073SOL    HW113987   6.226   0.614   1.898  2.1799  1.8702 -2.0118
 4073SOL    HW213988   6.216   0.715   2.010 -2.0219 -1.9602  1.4579
 4074SOL     OW13989   3.092   4.149   5.473 -0.5538 -0.3516 -0.3432
 4074SOL    HW113990   3.031   4.223   5.476 -1.5299 -1.1708  0.7754
 4074SOL    HW213991   3.070   4.104   5.391 -0.8320 -0.1379 -0.3894
 4075SOL     OW13992   3.973   0.153   9.480 -0.3415  0.0721  0.6711
 4075SOL    HW113993   3.924   0.191   9.407  0.5103 -0.5676 -0.2621
 4075SOL    HW213994   3.966   0.218   9.550 -1.9819  0.2654  0.3684
 4076SOL     OW13995   6.305   1.646   6.117  0.2507 -0.0384  0.4403
 4076SOL    HW113996   6.217   1.618   6.093 -0.4025  1.1090  1.3948
 4076SOL    HW213997   6.362   1.579   6.080 -1.0290 -0.9212 -0.0122
 4077SOL     OW13998   2.187   7.855   7.551  1.0362  0.2126  0.3492
 4077SOL    HW113999   2.248   7.830   7.482  1.2643 -0.6797  0.8590
 4077SOL    HW214000   2.129   7.920   7.510  0.2003 -1.3975 -1.1327
 4078SOL     OW14001   7.823   7.786   8.294 -0.6944 -0.4315 -0.6005
 4078SOL    HW114002   7.909   7.810   8.260 -0.2410 -0.5092  0.4451
 4078SOL    HW214003   7.775   7.753   8.218  0.4496 -1.0806 -1.0646
 4079SOL     OW14004   5.478   2.877   5.526  0.1190 -0.4615 -0.2068
 4079SOL    HW114005   5.522   2.824   5.459 -1.9643 -1.5413 -0.8142
 4079SOL    HW214006   5.422   2.936   5.475 -3.0571 -2.6571  0.4357
 4080SOL     OW14007   2.280   4.044   7.652  0.4372 -0.1727  0.5151
 4080SOL    HW114008   2.277   3.949   7.637 -0.1453 -0.4677  2.2671
 4080SOL    HW214009   2.336   4.077   7.582 -0.9263 -1.5463 -1.3416
 4081SOL     OW14010   2.453   9.394   8.615  0.0323  0.3202 -0.0381
 4081SOL    HW114011   2.528   9.448   8.588  0.4398 -0.4423 -0.4834
 4081SOL    HW214012   2.428   9.428   8.700  0.5616  0.9262 -0.1206
 4082SOL     OW14013   2.622   1.903   1.973  0.0646 -0.1016 -0.1241
 4082SOL    HW114014   2.681   1.974   1.999  1.0725 -1.4457  1.5103
 4082SOL    HW214015   2.576   1.879   2.054  0.0628 -1.5642 -0.5277
 4083SOL     OW14016   4.362   6.987   0.723  0.3597  0.1967  0.1282
 4083SOL    HW114017   4.446   7.010   0.764  0.2268 -0.1999  0.6370
 4083SOL    HW214018   4.332   7.068   0.683  0.0380  0.8670  1.6449
 4084SOL     OW14019   4.519   0.959   7.442 -0.5605 -0.2735  0.1444
 4084SOL    HW114020   4.501   1.053   7.446 -0.9966 -0.3388 -0.1478
 4084SOL    HW214021   4.489   0.933   7.355 -0.3155 -0.6596  0.1743
 4085SOL     OW14022   6.895   9.079   5.538 -0.0986  0.0575 -0.4753
 4085SOL    HW114023   6.943   9.118   5.464 -0.2176  0.3627 -0.3932
 4085SOL    HW214024   6.950   9.097   5.614 -1.0334  1.7438 -0.1422
 4086SOL     OW14025   6.027   3.178   2.156  0.0366 -0.5859 -0.2847
 4086SOL    HW114026   5.943   3.223   2.164  0.3874  0.1124 -0.4563
 4086SOL    HW214027   6.046   3.178   2.062 -1.3158 -3.6674 -0.6781
 4087SOL     OW14028   4.608   4.900   8.759 -0.2003  0.2832 -0.5888
 4087SOL    HW114029   4.661   4.854   8.693  0.1658 -1.1714  0.6669
 4087SOL    HW214030   4.518   4.892   8.726  0.0556  0.2714 -1.3109
 4088SOL     OW14031   1.705   6.835   2.376 -0.1958  0.1309 -0.2484
 4088SOL    HW114032   1.642   6.834   2.304 -2.0153 -0.2907  1.2713
 4088SOL    HW214033   1.681   6.760   2.430 -1.3990  2.5066  2.7900
 4089SOL     OW14034   4.943   7.930   5.298 -0.3231 -0.3343  0.2830
 4089SOL    HW114035   4.958   7.842   5.333 -0.9832 -0.2512  0.7831
 4089SOL    HW214036   4.978   7.926   5.209 -0.0984 -1.0204  0.3917
 4090SOL     OW14037   8.435   4.412   7.358  0.0330  0.0867 -0.5099
 4090SOL    HW114038   8.483   4.491   7.335  1.7514  0.3487  3.2130
 4090SOL    HW214039   8.473   4.343   7.304 -0.5148  1.4491 -2.7847
 4091SOL     OW14040   5.349   1.930   7.623 -0.1359 -0.3513 -0.6736
 4091SOL    HW114041   5.379   1.973   7.542 -1.0906 -0.8295 -1.2938
 4091SOL    HW214042   5.423   1.876   7.650  0.9901  1.4300 -0.0308
 4092SOL     OW14043   1.490   7.431   0.184  0.1202 -0.1188  0.0207
 4092SOL    HW114044   1.441   7.382   0.250 -2.8767  1.3014 -0.9551
 4092SOL    HW214045   1.556   7.370   0.152 -0.5568 -1.9578  1.9361
 4093SOL     OW14046   5.877   7.332   0.251  0.0255  0.1324 -0.4111
 4093SOL    HW114047   5.806   7.283   0.293 -0.5981  0.7124 -0.7591
 4093SOL    HW214048   5.941   7.346   0.320 -0.4124  0.0040  0.0267
 4094SOL     OW14049   4.140   1.134   9.796  0.3225  0.2792 -0.0555
 4094SOL    HW114050   4.100   1.221   9.795 -1.0205 -0.2888 -1.8618
 4094SOL    HW214051   4.169   1.119   9.705  0.2692 -1.2492  0.1448
 4095SOL     OW14052   6.757   1.629   3.831  0.3423  0.1322  0.0727
 4095SOL    HW114053   6.778   1.721   3.844 -0.1833  0.5384 -1.6384
 4095SOL    HW214054   6.809   1.604   3.754  1.3507 -1.3399  1.1802
 4096SOL     OW14055   8.859   1.063   0.848  0.1829 -0.4820 -0.1241
 4096SOL    HW114056   8.879   1.153   0.823 -0.2095 -0.1302  0.7697
 4096SOL    HW214057   8.925   1.040   0.913 -1.0537 -0.0027  1.3738
 4097SOL     OW14058   0.675   7.097   5.877 -0.1032 -0.2197 -0.1314
 4097SOL    HW114059   0.743   7.162   5.858 -0.9353  0.5467 -0.5218
 4097SOL    HW214060   0.609   7.109   5.809  0.4722 -2.5933 -1.2173
 4098SOL     OW14061   8.243   1.035   7.003 -0.0783 -0.3262 -0.1688
 4098SOL    HW114062   8.203   1.001   7.084  0.4556  1.3451  0.8348
 4098SOL    HW214063   8.325   1.075   7.032  0.4915 -0.3592 -1.6763
 4099SOL     OW14064   1.212   3.454   3.827 -0.1154 -0.2298 -0.7578
 4099SOL    HW114065   1.200   3.446   3.732 -0.2387 -0.2750 -0.7395
 4099SOL    HW214066   1.255   3.538   3.839  0.4430 -0.4912 -0.8973
 4100SOL     OW14067   2.429   3.373   9.817 -0.6011 -0.7495  0.0892
 4100SOL    HW114068   2.371   3.333   9.882  0.1498 -0.2998  1.0679
 4100SOL    HW214069   2.445   3.304   9.752 -1.7368 -1.0602  0.1251
 4101SOL     OW14070   6.898   7.542   3.064 -0.2710  0.2375  0.8050
 4101SOL    HW114071   6.826   7.598   3.034 -0.1399 -0.1841 -0.3382
 4101SOL    HW214072   6.966   7.604   3.092  0.4645  0.7646 -1.8360
 4102SOL     OW14073   0.746   7.315   8.662 -1.2127 -0.3220 -0.3831
 4102SOL    HW114074   0.808   7.382   8.634  0.0142 -1.1610  0.2626
 4102SOL    HW214075   0.664   7.363   8.673  0.0708  1.5561  2.0544
 4103SOL     OW14076   0.538   7.497   6.420 -0.0405  0.3127 -0.3002
 4103SOL    HW114077   0.534   7.468   6.329 -3.8657 -0.4995 -0.0606
 4103SOL    HW214078   0.486   7.578   6.421  1.4462  1.3170  0.9280
 4104SOL     OW14079   1.854   3.141   8.305  0.2393 -0.5224 -0.1834
 4104SOL    HW114080   1.832   3.119   8.395  2.8369  0.7938  0.8925
 4104SOL    HW214081   1.801   3.082   8.252  0.2726 -2.9546  2.2493
 4105SOL     OW14082   0.010   0.365   0.508 -0.3247  0.5265  0.2657
 4105SOL    HW114083  -0.003   0.456   0.534  0.6208  0.6684  0.2769
 4105SOL    HW214084   0.005   0.315   0.589 -3.7564  0.1503  0.0064
 4106SOL     OW14085   2.365   2.997   4.265  0.8111 -0.8097 -0.4124
 4106SOL    HW114086   2.308   3.071   4.285  0.5966 -0.9405 -0.5341
 4106SOL    HW214087   2.306   2.921   4.267  1.3218 -1.2138  1.4023
 4107SOL     OW14088   3.845   7.231   1.284  0.8375 -0.6792 -0.1715
 4107SOL    HW114089   3.863   7.264   1.196  0.4744 -1.4839 -0.5615
 4107SOL    HW214090   3.931   7.224   1.325  0.9710  0.1219 -0.3015
 4108SOL     OW14091   2.108   4.066   0.726  0.2509  0.5878 -0.1160
 4108SOL    HW114092   2.177   4.009   0.694 -0.9521 -1.6551  1.0321
 4108SOL    HW214093   2.099   4.043   0.819 -1.8153  0.9952 -0.1640
 4109SOL     OW14094   8.367   0.764   7.819 -0.2697 -0.4206  0.1997
 4109SOL    HW114095   8.456   0.773   7.851 -0.6682  0.0130  1.2322
 4109SOL    HW214096   8.376   0.727   7.731  0.9874  0.8816 -0.2593
 4110SOL     OW14097   7.372   9.309   3.326  0.0605 -0.5054  0.2139
 4110SOL    HW114098   7.410   9.313   3.238  2.3831 -0.9842  1.1115
 4110SOL    HW214099   7.417   9.379   3.375 -0.7901 -0.5955  1.1711
 4111SOL     OW14100   3.642   0.085   6.308  0.4642 -0.8062 -0.0347
 4111SOL    HW114101   3.618   0.139   6.232 -1.4445 -1.5473 -0.0180
 4111SOL    HW214102   3.651   0.148   6.380 -0.5351 -0.3654 -0.2765
 4112SOL     OW14103   9.155   0.140   0.955 -0.7155  0.1234 -0.9155
 4112SOL    HW114104   9.077   0.086   0.968 -0.4614 -0.2465 -0.9087
 4112SOL    HW214105   9.228   0.082   0.976 -0.4649  0.7215 -0.0804
 4113SOL     OW14106   7.067   9.637   4.995 -0.4537  0.0833  0.1281
 4113SOL    HW114107   7.066   9.603   4.906 -1.2493  0.8876 -0.1865
 4113SOL    HW214108   7.047   9.561   5.050 -0.3708 -0.3303 -0.4099
 4114SOL     OW14109   7.370   8.815   7.708 -0.7849 -0.2464  0.1300
 4114SOL    HW114110   7.299   8.754   7.688  0.5020 -2.1893  1.1177
 4114SOL    HW214111   7.436   8.798   7.641 -0.2353 -0.2747  0.6636
 4115SOL     OW14112   2.829   0.336   8.077  0.5601 -0.6308  0.0381
 4115SOL    HW114113   2.861   0.393   8.147  0.6089 -0.8762  0.2167
 4115SOL    HW214114   2.852   0.382   7.997  1.5550 -0.9155  0.1593
 4116SOL     OW14115   0.957   4.254   1.036 -0.0830 -0.2929  0.0182
 4116SOL    HW114116   1.031   4.256   1.097 -0.4519 -0.0454  0.4660
 4116SOL    HW214117   0.936   4.347   1.020  0.5488 -0.3349 -1.1558
 4117SOL     OW14118   8.893   2.376   8.504 -0.1136  0.6257  0.1974
 4117SOL    HW114119   8.986   2.378   8.484 -0.1777  0.1795 -0.1709
 4117SOL    HW214120   8.857   2.310   8.444 -0.2659 -1.0009  1.9819
 4118SOL     OW14121   2.654   2.010   7.711  0.4016 -0.2955 -0.5453
 4118SOL    HW114122   2.726   1.961   7.671  2.6685  2.6367 -0.3917
 4118SOL    HW214123   2.656   1.985   7.803  0.1497 -1.3850 -0.8177
 4119SOL     OW14124   2.607   1.639   0.164  0.4450  0.2773  0.5110
 4119SOL    HW114125   2.576   1.558   0.122  4.2306 -1.4749  0.6426
 4119SOL    HW214126   2.676   1.671   0.106  1.4354  1.4217  2.2378
 4120SOL     OW14127   2.803   6.791   0.179 -0.1133  0.2771 -0.1923
 4120SOL    HW114128   2.730   6.729   0.184 -0.0299  0.0528 -1.5296
 4120SOL    HW214129   2.777   6.854   0.112 -0.5148  2.1679  1.6221
 4121SOL     OW14130   3.494   6.104   5.087  0.2802 -0.1877 -0.0599
 4121SOL    HW114131   3.465   6.179   5.138 -0.4390 -1.1666  1.0258
 4121SOL    HW214132   3.432   6.100   5.013  0.2092  0.1809 -0.0199
 4122SOL     OW14133   4.542   2.412   6.712 -0.2891  0.1915 -0.2320
 4122SOL    HW114134   4.521   2.327   6.673  0.0735  0.4412 -0.9875
 4122SOL    HW214135   4.508   2.407   6.801 -0.2897 -0.7406 -0.2787
 4123SOL     OW14136   6.235   2.858   4.730 -0.2984  0.3338  0.2724
 4123SOL    HW114137   6.248   2.770   4.695 -0.1867  0.8523 -1.0236
 4123SOL    HW214138   6.251   2.849   4.824  0.1738 -0.9287  0.0870
 4124SOL     OW14139   8.440   7.461   9.828 -0.1356  0.1694  0.0392
 4124SOL    HW114140   8.371   7.402   9.797  0.4603 -0.9015  0.7018
 4124SOL    HW214141   8.456   7.520   9.754 -2.0219  0.7042  0.0079
 4125SOL     OW14142   4.718   5.425   1.495 -0.6880  0.2427 -0.2113
 4125SOL    HW114143   4.777   5.443   1.421  0.4803 -1.1081  0.3431
 4125SOL    HW214144   4.754   5.477   1.567 -1.8693  1.6161 -0.5743
 4126SOL     OW14145   1.637   2.515   9.270  0.6184 -0.2656 -0.2795
 4126SOL    HW114146   1.661   2.537   9.180 -0.1892 -0.8254 -0.6431
 4126SOL    HW214147   1.573   2.445   9.261 -1.5720  1.4902  0.6090
 4127SOL     OW14148   2.373   9.203   0.621  0.5189  0.0299 -0.6271
 4127SOL    HW114149   2.364   9.108   0.631  0.9629 -0.0538 -0.9840
 4127SOL    HW214150   2.468   9.217   0.615  0.4493  0.4870 -0.6576
 4128SOL     OW14151   3.030   6.485   5.323 -0.4326 -0.4153  0.1637
 4128SOL    HW114152   3.071   6.399   5.330  0.2189 -0.1529 -0.3110
 4128SOL    HW214153   3.066   6.522   5.242  0.6989  1.0391  1.2929
 4129SOL     OW14154   7.025   2.362   0.220  0.2062 -0.0364  0.3208
 4129SOL    HW114155   7.119   2.361   0.199  1.3078 -1.7745  4.3743
 4129SOL    HW214156   6.997   2.271   0.206 -0.8347  0.4171 -0.6071
 4130SOL     OW14157   0.067   0.025   4.249  0.1765 -0.3370  0.0232
 4130SOL    HW114158   0.129   0.007   4.319  1.5164  0.5287 -0.9006
 4130SOL    HW214159   0.003   0.085   4.287  0.5577 -0.3280  0.6590
 4131SOL     OW14160   5.216   7.239   2.335  0.3826 -0.3381  0.0751
 4131SOL    HW114161   5.224   7.145   2.321 -0.1783 -1.0592  3.6839
 4131SOL    HW214162   5.304   7.274   2.322  0.5281 -1.2451 -1.6140
 4132SOL     OW14163   0.167   4.926   3.337  0.0655 -0.0871 -0.4451
 4132SOL    HW114164   0.147   4.844   3.382  0.1864 -0.2280 -0.6446
 4132SOL    HW214165   0.156   4.994   3.404 -2.6411  0.0536 -0.9090
 4133SOL     OW14166   8.412   0.010   3.981 -0.2970  0.2511  0.2303
 4133SOL    HW114167   8.400   0.017   3.887  1.7399  1.3972  0.0051
 4133SOL    HW214168   8.478  -0.059   3.992 -1.2969 -0.6426  0.9253
 4134SOL     OW14169   7.550   8.840   0.321 -0.1832 -0.2808 -0.4553
 4134SOL    HW114170   7.616   8.795   0.268 -0.4780 -1.8535  0.4489
 4134SOL    HW214171   7.536   8.923   0.276  2.2323  0.0238 -0.8021
 4135SOL     OW14172   5.400   9.597   8.866 -0.0346 -0.3612 -0.0982
 4135SOL    HW114173   5.449   9.679   8.874  0.2268 -0.3225 -1.6932
 4135SOL    HW214174   5.425   9.562   8.780 -1.5554 -1.1646 -0.2632
 4136SOL     OW14175   2.777   5.323   8.727  0.2642  0.0491  0.1056
 4136SOL    HW114176   2.797   5.351   8.638 -1.4090  1.3562  0.1013
 4136SOL    HW214177   2.713   5.252   8.716  1.0175 -0.6726  0.2568
 4137SOL     OW14178   2.108   0.004   0.752  0.7283 -0.2445 -0.9400
 4137SOL    HW114179   2.164   0.014   0.829  0.5477  1.1939 -0.9799
 4137SOL    HW214180   2.025   0.044   0.777  1.4177  2.4877 -2.6574
 4138SOL     OW14181   2.435   7.706   8.315 -0.1534  0.0751 -0.2301
 4138SOL    HW114182   2.430   7.613   8.335  0.2899  0.0464 -0.2523
 4138SOL    HW214183   2.521   7.733   8.347 -0.1147  0.3882 -0.5927
 4139SOL     OW14184   9.502   0.793   8.470  0.5674  0.1320 -0.5071
 4139SOL    HW114185   9.519   0.794   8.376 -0.9504 -0.2925 -0.8006
 4139SOL    HW214186   9.570   0.736   8.506 -0.1761 -1.5423 -1.6390
 4140SOL     OW14187   0.394   5.168   2.210 -0.3197 -0.1766  0.0322
 4140SOL    HW114188   0.365   5.080   2.187  0.3477 -0.2258 -0.6621
 4140SOL    HW214189   0.478   5.179   2.165 -0.0314  0.5428  0.7074
 4141SOL     OW14190   0.447   8.365   3.573  0.0340 -0.2502 -0.0730
 4141SOL    HW114191   0.460   8.323   3.658 -0.1563  1.0652  0.6276
 4141SOL    HW214192   0.485   8.303   3.510  0.4356 -1.1186  0.9845
 4142SOL     OW14193   5.709   9.589   9.717 -0.0939  0.2356  0.8144
 4142SOL    HW114194   5.748   9.517   9.668  0.5659  0.0610  1.5930
 4142SOL    HW214195   5.712   9.663   9.656  1.8417  0.3390  0.9752
 4143SOL     OW14196   0.284   1.369   9.531  0.3564  0.3839 -0.3426
 4143SOL    HW114197   0.357   1.366   9.470 -0.3028 -0.0334 -1.1270
 4143SOL    HW214198   0.216   1.419   9.485 -0.3268 -0.3540 -0.1591
 4144SOL     OW14199   4.303   0.721   0.814  1.0040  0.0862 -0.0153
 4144SOL    HW114200   4.268   0.646   0.766  0.7454  0.9227 -1.1889
 4144SOL    HW214201   4.396   0.702   0.823  0.7021 -1.0408  1.0125
 4145SOL     OW14202   1.950   9.449   6.933  0.4348  0.4654 -0.5755
 4145SOL    HW114203   2.033   9.401   6.928 -0.3543 -0.8553 -1.6723
 4145SOL    HW214204   1.898   9.416   6.860 -1.4965  0.4518  0.7143
 4146SOL     OW14205   2.005   3.801   9.719 -0.5275 -0.2366 -0.4112
 4146SOL    HW114206   2.081   3.805   9.778  0.5183  0.3275 -1.7622
 4146SOL    HW214207   2.009   3.713   9.681 -0.7033 -0.2952 -0.2952
 4147SOL     OW14208   9.171   8.324   8.543 -0.1146 -0.3818  0.4633
 4147SOL    HW114209   9.187   8.390   8.610 -1.1443 -0.8810  1.2129
 4147SOL    HW214210   9.085   8.345   8.508  0.4339 -0.0851 -0.7836
 4148SOL     OW14211   4.519   2.994   6.092 -0.4772 -0.7902 -0.0017
 4148SOL    HW114212   4.556   3.064   6.038 -1.0594  0.3659  1.0646
 4148SOL    HW214213   4.480   2.933   6.028 -0.3313  0.0615 -0.9259
 4149SOL     OW14214   5.400   7.336   1.490  0.5098 -1.0681  0.6548
 4149SOL    HW114215   5.426   7.331   1.582  1.3438 -0.3429  0.4714
 4149SOL    HW214216   5.397   7.430   1.472 -0.8169 -1.1709  0.2542
 4150SOL     OW14217   3.321   4.507   7.408 -0.2098  0.2843  0.0898
 4150SOL    HW114218   3.322   4.571   7.337  0.3294  0.5004  0.2893
 4150SOL    HW214219   3.230   4.478   7.412 -0.2419  0.2393 -0.7144
 4151SOL     OW14220   9.072   1.356   0.329 -0.6666  0.1440 -0.2921
 4151SOL    HW114221   9.075   1.329   0.420  0.3362 -0.2237 -0.4229
 4151SOL    HW214222   9.071   1.274   0.279  2.4168  0.2098 -0.6865
 4152SOL     OW14223   9.072   0.992   6.644  0.0612 -0.3726 -0.0842
 4152SOL    HW114224   9.046   1.081   6.668 -1.1303 -0.8363  0.3767
 4152SOL    HW214225   9.167   0.992   6.656 -0.1239  0.3002  1.7356
 4153SOL     OW14226   5.832   9.394   7.610 -0.3792  0.6551 -0.1119
 4153SOL    HW114227   5.768   9.440   7.664 -2.2509 -1.8174 -0.0349
 4153SOL    HW214228   5.792   9.391   7.523  0.7502  1.0764 -0.6754
 4154SOL     OW14229   1.832   3.584   8.190  0.2140  0.2545  0.3593
 4154SOL    HW114230   1.796   3.667   8.221 -0.4263 -0.6400  2.1723
 4154SOL    HW214231   1.761   3.521   8.200  1.4154 -1.0197  1.4558
 4155SOL     OW14232   7.541   1.432   1.853  0.9776 -0.3887  0.1941
 4155SOL    HW114233   7.614   1.476   1.809 -0.2817  1.0321 -0.5734
 4155SOL    HW214234   7.542   1.467   1.942  0.3378  0.8255 -0.2502
 4156SOL     OW14235   2.044   6.986   1.327 -0.6218 -0.0125  0.3149
 4156SOL    HW114236   1.956   6.959   1.353 -1.6339  3.8756  1.5401
 4156SOL    HW214237   2.030   7.053   1.260  1.1369  2.7046  2.4614
 4157SOL     OW14238   6.192   8.708   6.645  0.1849 -0.1042 -0.0974
 4157SOL    HW114239   6.200   8.614   6.660  0.7018  0.0843  0.9135
 4157SOL    HW214240   6.168   8.744   6.731  0.8433  0.7801 -0.2685
 4158SOL     OW14241   3.927   4.356   4.012  0.3517 -0.7287 -0.3961
 4158SOL    HW114242   3.983   4.433   3.997  0.4661 -1.0234 -1.6527
 4158SOL    HW214243   3.988   4.284   4.024  0.2429 -0.6784  0.4656
 4159SOL     OW14244   2.611   4.799   7.759 -0.0616 -0.2400 -0.3854
 4159SOL    HW114245   2.580   4.873   7.707 -1.6347  0.1967  1.0779
 4159SOL    HW214246   2.544   4.788   7.827  1.0968 -1.8110  0.5632
 4160SOL     OW14247   7.594   9.229   9.829  0.0767  0.1371 -0.3040
 4160SOL    HW114248   7.605   9.171   9.753 -0.9879  0.8745 -1.0488
 4160SOL    HW214249   7.527   9.291   9.802 -1.6729 -0.6588  1.8824
 4161SOL     OW14250   7.999   8.266   0.174  0.3298  0.1557  1.0318
 4161SOL    HW114251   7.911   8.287   0.203  0.4927  0.7500  1.1151
 4161SOL    HW214252   8.019   8.182   0.214 -0.8259 -0.8188 -0.3534
 4162SOL     OW14253   6.532   9.090   3.279  0.0201 -0.0934  0.1357
 4162SOL    HW114254   6.572   9.006   3.302 -0.3761 -0.2309  0.3302
 4162SOL    HW214255   6.590   9.127   3.212  0.0595 -0.6411 -0.1414
 4163SOL     OW14256   2.245   6.894   6.700  0.2858  0.2578 -0.1222
 4163SOL    HW114257   2.309   6.955   6.662  1.3199 -0.8705 -0.2303
 4163SOL    HW214258   2.255   6.813   6.650  0.9536 -0.9265  1.8229
 4164SOL     OW14259   1.728   1.562   2.245  0.7813  0.0499 -0.2235
 4164SOL    HW114260   1.670   1.636   2.266  1.9060  0.7651  0.4501
 4164SOL    HW214261   1.780   1.593   2.171  0.4784 -0.5033 -0.6751
 4165SOL     OW14262   7.987   6.765   4.568 -0.2019 -0.9092 -0.2010
 4165SOL    HW114263   7.924   6.744   4.637  0.5168 -1.4629  0.3009
 4165SOL    HW214264   7.994   6.861   4.572 -1.7588 -0.7281 -0.9524
 4166SOL     OW14265   1.708   1.642   3.250 -0.2445 -0.1821 -0.3770
 4166SOL    HW114266   1.784   1.585   3.258 -0.1219 -0.0074 -0.2728
 4166SOL    HW214267   1.640   1.588   3.210 -0.2190 -0.4750 -0.0202
 4167SOL     OW14268   6.654   8.735   1.443 -0.0150 -0.2003 -0.1267
 4167SOL    HW114269   6.718   8.677   1.403  0.0840  0.3039 -0.7179
 4167SOL    HW214270   6.626   8.689   1.523  2.0504  0.1528  0.8767
 4168SOL     OW14271   8.109   0.431   4.164  0.1340  0.5201 -0.4157
 4168SOL    HW114272   8.113   0.416   4.259 -0.9176 -0.8869 -0.5649
 4168SOL    HW214273   8.024   0.472   4.149  0.5955  1.4005 -0.6928
 4169SOL     OW14274   6.139   7.361   5.984  0.2149 -0.8877 -0.2048
 4169SOL    HW114275   6.099   7.389   6.066 -0.0089  1.2093 -0.9715
 4169SOL    HW214276   6.231   7.348   6.005 -0.2655 -2.9511  0.9212
 4170SOL     OW14277   8.991   5.486   4.690  0.2485 -0.4132  0.7457
 4170SOL    HW114278   8.984   5.484   4.786  2.5184 -0.3379  0.9806
 4170SOL    HW214279   9.085   5.481   4.673 -0.0756 -0.0452 -1.4925
 4171SOL     OW14280   8.887   4.778   5.638 -0.3992 -0.1439 -0.2727
 4171SOL    HW114281   8.895   4.697   5.588  1.6374 -0.6083  0.7105
 4171SOL    HW214282   8.967   4.827   5.619  0.7144 -0.5486  2.7665
 4172SOL     OW14283   8.907   3.165   0.119 -0.0050 -0.4495  0.0936
 4172SOL    HW114284   8.912   3.087   0.173  2.4722 -0.6317 -0.2969
 4172SOL    HW214285   8.889   3.133   0.031 -0.0939 -0.4807  0.1231
 4173SOL     OW14286   8.820   6.008   8.617  0.2864 -0.5847  0.1553
 4173SOL    HW114287   8.889   6.016   8.683 -1.1066 -1.6534  1.8408
 4173SOL    HW214288   8.866   5.990   8.536  2.1058  1.2375  0.6945
 4174SOL     OW14289   5.492   7.636   3.415  0.1163 -0.2725 -0.0600
 4174SOL    HW114290   5.567   7.688   3.384 -0.0684 -0.2623 -0.5045
 4174SOL    HW214291   5.523   7.595   3.496  0.7632 -0.6355 -0.4812
 4175SOL     OW14292   5.571   6.613   3.534  0.0859 -0.6665  0.3546
 4175SOL    HW114293   5.486   6.626   3.576 -0.1686  0.6368 -0.5319
 4175SOL    HW214294   5.635   6.628   3.604 -0.3850 -1.6951  1.0331
 4176SOL     OW14295   3.810   1.182   3.876  0.1396  0.1215  0.3697
 4176SOL    HW114296   3.769   1.148   3.797 -1.1302  1.0450  0.6102
 4176SOL    HW214297   3.826   1.105   3.930  0.7296 -0.4830 -0.6230
 4177SOL     OW14298   6.624   7.136   5.744 -0.5966 -0.1067  0.2419
 4177SOL    HW114299   6.532   7.115   5.726 -0.9153 -0.2990  1.9103
 4177SOL    HW214300   6.673   7.067   5.700 -1.2858 -0.3656 -0.1451
 4178SOL     OW14301   2.255   4.076   6.777 -0.1202  0.3146  0.1063
 4178SOL    HW114302   2.331   4.019   6.762  0.7468  1.8347 -1.6158
 4178SOL    HW214303   2.192   4.020   6.822  1.2084 -1.6117 -0.3095
 4179SOL     OW14304   3.277   6.640   1.014 -0.3103  0.0632 -0.0177
 4179SOL    HW114305   3.208   6.576   1.031 -0.1518  0.4259  2.3251
 4179SOL    HW214306   3.358   6.596   1.040 -0.1722  1.1013  1.4041
 4180SOL     OW14307   0.444   5.122   1.059  0.0145  0.9715 -0.5095
 4180SOL    HW114308   0.349   5.120   1.050 -0.0294  1.8759 -0.3345
 4180SOL    HW214309   0.472   5.197   1.006  0.8360 -0.4450 -2.1899
 4181SOL     OW14310   4.440   7.132   8.853 -0.0560 -0.6784  0.1548
 4181SOL    HW114311   4.475   7.044   8.866  0.3987 -0.7074 -1.1653
 4181SOL    HW214312   4.357   7.118   8.807  1.1056 -0.3578 -2.1746
 4182SOL     OW14313   2.344   3.012   8.909  0.2917 -0.2721 -0.2646
 4182SOL    HW114314   2.331   3.047   8.821  0.5474 -0.1828 -0.2691
 4182SOL    HW214315   2.336   2.918   8.900 -1.9166 -0.1518  0.0096
 4183SOL     OW14316   8.145   3.284   3.690  0.0787 -0.2469  0.0082
 4183SOL    HW114317   8.083   3.271   3.618 -2.3158 -0.0804  1.9030
 4183SOL    HW214318   8.143   3.201   3.738  2.0045 -0.5258 -0.3291
 4184SOL     OW14319   7.564   4.345   8.136  0.3321 -0.0531 -0.5802
 4184SOL    HW114320   7.527   4.326   8.222 -0.4711  0.7687 -0.7324
 4184SOL    HW214321   7.558   4.440   8.128 -0.1151 -0.1700 -1.7660
 4185SOL     OW14322   1.553   9.593   1.329  0.1872  0.0021 -0.1980
 4185SOL    HW114323   1.582   9.684   1.329  1.9583 -0.5167 -0.7299
 4185SOL    HW214324   1.634   9.542   1.333 -0.7500 -1.5558 -0.2282
 4186SOL     OW14325   6.970   2.607   8.368  0.1744  0.0257  0.1980
 4186SOL    HW114326   6.892   2.567   8.405  1.0591 -1.9140  0.1004
 4186SOL    HW214327   6.937   2.677   8.311 -1.3692  0.4336  1.5313
 4187SOL     OW14328   9.592   3.744   5.517  0.0168 -0.3442 -0.3467
 4187SOL    HW114329   9.674   3.698   5.532  0.8769  0.1694 -2.8917
 4187SOL    HW214330   9.597   3.822   5.571 -0.1365 -1.6910  1.7274
 4188SOL     OW14331   6.806   3.236   5.335 -0.3803 -0.0268 -0.3221
 4188SOL    HW114332   6.751   3.232   5.413  2.0495 -1.3651  1.4819
 4188SOL    HW214333   6.830   3.145   5.318  0.5449  0.4234 -1.5777
 4189SOL     OW14334   5.349   3.643   1.227  0.0709  0.1778 -0.4368
 4189SOL    HW114335   5.384   3.565   1.183  0.8337 -0.0633  0.5769
 4189SOL    HW214336   5.353   3.712   1.160  0.8192 -0.2843 -0.8754
 4190SOL     OW14337   7.348   6.294   6.225  0.4033 -0.1190 -0.0371
 4190SOL    HW114338   7.254   6.296   6.208  0.5379  0.8503 -0.7491
 4190SOL    HW214339   7.363   6.363   6.289  0.6640 -0.1123 -0.1022
 4191SOL     OW14340   0.609   6.761   4.841  0.2342  0.0721 -0.3499
 4191SOL    HW114341   0.683   6.703   4.823 -1.5440 -1.9216 -1.8051
 4191SOL    HW214342   0.616   6.779   4.935  2.1949 -0.5509 -0.3246
 4192SOL     OW14343   8.565   8.880   3.028 -0.2463  0.2319 -0.8779
 4192SOL    HW114344   8.613   8.849   2.951 -0.5041 -0.6048 -0.7138
 4192SOL    HW214345   8.634   8.902   3.092 -0.0530 -0.8582 -0.6814
 4193SOL     OW14346   9.509   9.509   9.626  0.3801 -0.6613 -0.4768
 4193SOL    HW114347   9.530   9.425   9.667 -0.1656 -1.0915 -1.0738
 4193SOL    HW214348   9.553   9.506   9.541 -3.3539 -2.3418 -2.5705
 4194SOL     OW14349   3.780   3.078   3.967 -0.1070 -0.1848 -0.7789
 4194SOL    HW114350   3.857   3.074   4.024  0.3370  0.4685 -1.3081
 4194SOL    HW214351   3.761   3.172   3.961 -0.6501 -0.3139 -1.0399
 4195SOL     OW14352   6.013   5.693   7.193 -0.3678  0.8320 -0.0037
 4195SOL    HW114353   6.071   5.621   7.171 -1.6023 -0.5160  0.9348
 4195SOL    HW214354   6.071   5.767   7.211  1.1195 -0.6299  1.5868
 4196SOL     OW14355   2.611   1.033   5.763  0.4086 -0.1133 -0.7218
 4196SOL    HW114356   2.629   1.088   5.687  0.3012  0.7236 -0.1539
 4196SOL    HW214357   2.643   0.946   5.738  1.3582  0.3943 -1.3189
 4197SOL     OW14358   2.133   5.196   5.511 -0.0760 -0.4209 -0.2412
 4197SOL    HW114359   2.189   5.223   5.438  1.1321 -2.0524  0.0116
 4197SOL    HW214360   2.177   5.231   5.588 -0.3017 -0.3203 -0.1585
 4198SOL     OW14361   8.811   7.619   2.997  0.2114 -0.0975  0.0419
 4198SOL    HW114362   8.751   7.582   2.932  0.5351 -0.4764 -0.0368
 4198SOL    HW214363   8.804   7.714   2.984 -1.3872 -0.0489  0.9178
 4199SOL     OW14364   0.745   4.939   2.052  0.8411  0.5019 -0.4565
 4199SOL    HW114365   0.718   4.853   2.019 -0.8412  0.9117 -0.2255
 4199SOL    HW214366   0.830   4.922   2.094  0.2396 -1.1953  0.1845
 4200SOL     OW14367   4.648   7.133   0.690  0.5699  0.4219  0.0378
 4200SOL    HW114368   4.639   7.056   0.746  1.3401  0.7238  0.5915
 4200SOL    HW214369   4.644   7.099   0.601  2.2778 -0.4525  0.2581
 4201SOL     OW14370   7.060   3.599   8.901 -0.6587  0.0599  0.0927
 4201SOL    HW114371   6.977   3.585   8.854 -1.1970 -0.4236  1.1608
 4201SOL    HW214372   7.062   3.531   8.967  1.1174 -0.5933 -0.5768
 4202SOL     OW14373   1.806   3.013   3.054 -0.1456 -0.5098  0.0216
 4202SOL    HW114374   1.883   3.062   3.026  0.0736 -0.6902  0.3040
 4202SOL    HW214375   1.836   2.963   3.129 -0.9849  0.7492  1.2383
 4203SOL     OW14376   5.406   0.283   9.739  0.1773  0.0665 -0.1926
 4203SOL    HW114377   5.439   0.325   9.819 -0.0179  0.4731 -0.3243
 4203SOL    HW214378   5.393   0.191   9.764  0.1864  0.1754  0.2210
 4204SOL     OW14379   3.230   1.286   3.627  0.1602 -0.3862 -0.5594
 4204SOL    HW114380   3.182   1.206   3.606  1.8259 -1.4060 -0.6071
 4204SOL    HW214381   3.213   1.344   3.552 -2.1498 -0.1177  0.0918
 4205SOL     OW14382   7.445   2.810   3.554  0.1856 -0.3848 -0.5839
 4205SOL    HW114383   7.533   2.804   3.591  0.2118  0.1097 -0.5561
 4205SOL    HW214384   7.426   2.722   3.524  0.3530 -0.6881  0.1759
 4206SOL     OW14385   2.074   4.458   3.677 -0.4046  0.3601 -0.1519
 4206SOL    HW114386   2.014   4.412   3.736  0.7866 -0.6537  0.3028
 4206SOL    HW214387   2.157   4.412   3.686  0.2912  1.3428 -1.2487
 4207SOL     OW14388   3.106   0.642   4.645  0.0993  0.2594 -0.3502
 4207SOL    HW114389   3.162   0.595   4.706 -1.2864 -0.0905  0.7051
 4207SOL    HW214390   3.167   0.684   4.584  1.5142  0.1899  0.9427
 4208SOL     OW14391   2.743   0.628   2.810  0.2658 -0.0524  0.1502
 4208SOL    HW114392   2.691   0.605   2.733  0.3617  0.9604 -0.2347
 4208SOL    HW214393   2.714   0.717   2.833  0.7948 -0.0424  0.8141
 4209SOL     OW14394   2.731   0.058   4.705 -0.1650 -0.0409  0.7727
 4209SOL    HW114395   2.678   0.058   4.784 -1.3400 -0.5545 -0.0006
 4209SOL    HW214396   2.669   0.043   4.634  1.2447 -2.9919  0.0099
 4210SOL     OW14397   3.473   7.546   0.393  0.3916 -0.0501 -0.5408
 4210SOL    HW114398   3.403   7.567   0.332  1.1753 -0.2529 -1.5301
 4210SOL    HW214399   3.451   7.595   0.473 -0.7278  0.0835 -0.9190
 4211SOL     OW14400   9.692   0.711   4.147 -0.1030  0.4325  0.2840
 4211SOL    HW114401   9.726   0.691   4.234  1.6697 -2.0896 -0.8534
 4211SOL    HW214402   9.724   0.799   4.128 -0.5918  1.0688  2.1522
 4212SOL     OW14403   0.709   3.632   5.540 -0.3497  0.2705 -0.7405
 4212SOL    HW114404   0.644   3.662   5.603  0.9294  1.2467  0.1549
 4212SOL    HW214405   0.768   3.706   5.529  2.9345 -1.7977  1.5587
 4213SOL     OW14406   0.657   4.437   8.507  0.0411 -0.3191  0.1018
 4213SOL    HW114407   0.606   4.378   8.561  0.4701  0.7021  1.6951
 4213SOL    HW214408   0.633   4.525   8.537  0.0115  0.3271 -1.6480
 4214SOL     OW14409   7.130   9.421   5.613  0.4080  0.0186 -0.3500
 4214SOL    HW114410   7.069   9.473   5.665 -0.3610 -0.0548 -1.1527
 4214SOL    HW214411   7.140   9.470   5.532  1.2108 -0.1123 -0.3361
 4215SOL     OW14412   0.244   0.718   8.425 -0.5450  0.4622  0.4240
 4215SOL    HW114413   0.335   0.707   8.452 -0.5177 -1.1105 -0.2203
 4215SOL    HW214414   0.203   0.633   8.443 -1.3075  0.3993 -1.3840
 4216SOL     OW14415   4.062   5.355   8.929 -0.1664  0.0902 -0.0279
 4216SOL    HW114416   3.980   5.311   8.903 -0.3132  1.0655 -1.3531
 4216SOL    HW214417   4.033   5.440   8.963  0.2378  0.0897  0.3096
 4217SOL     OW14418   3.318   6.736   5.275 -0.0704  0.5334  0.0157
 4217SOL    HW114419   3.284   6.692   5.197 -1.1110  2.3750 -0.6205
 4217SOL    HW214420   3.358   6.666   5.326 -1.4847 -1.1209 -1.0365
 4218SOL     OW14421   6.676   6.643   3.201  0.0104 -0.1950  0.8975
 4218SOL    HW114422   6.621   6.708   3.245  4.3497  2.9173  2.5158
 4218SOL    HW214423   6.684   6.572   3.265 -1.8901 -0.6768  0.6566
 4219SOL     OW14424   6.156   5.465   7.101 -0.0378 -0.5656  0.2012
 4219SOL    HW114425   6.208   5.420   7.034  1.6433 -1.0414  1.7650
 4219SOL    HW214426   6.189   5.431   7.184  0.2092  2.3708  1.4149
 4220SOL     OW14427   2.221   2.784   2.675  0.4067  0.8285 -0.5469
 4220SOL    HW114428   2.207   2.870   2.634  0.5896  0.7914 -0.6918
 4220SOL    HW214429   2.179   2.722   2.615 -0.5481  0.8996  0.0341
 4221SOL     OW14430   7.977   1.335   1.843  0.2425 -0.5080 -0.2833
 4221SOL    HW114431   7.967   1.241   1.825 -1.4130 -0.3329 -0.4219
 4221SOL    HW214432   7.911   1.377   1.789  0.9048  0.7547 -0.1534
 4222SOL     OW14433   3.469   2.095   0.786 -0.6890  0.1447 -0.1668
 4222SOL    HW114434   3.467   2.171   0.727 -0.3263  1.5246  1.5121
 4222SOL    HW214435   3.513   2.027   0.736 -3.0821  0.2032 -2.6167
 4223SOL     OW14436   1.024   2.169   5.582  0.9342  0.4934  0.2905
 4223SOL    HW114437   0.977   2.094   5.546  1.5116  0.5099 -0.5135
 4223SOL    HW214438   1.033   2.149   5.676  2.8727 -1.4517 -0.2324
 4224SOL     OW14439   4.645   5.854   7.421  0.1626  0.1476  1.1558
 4224SOL    HW114440   4.674   5.942   7.443  0.2213  0.2535  0.6507
 4224SOL    HW214441   4.618   5.859   7.330  2.1575 -0.8422  0.4590
 4225SOL     OW14442   5.904   8.743   7.684 -0.4133  0.0420  0.3993
 4225SOL    HW114443   5.949   8.662   7.661 -2.1343 -0.6297 -0.8316
 4225SOL    HW214444   5.961   8.785   7.749  0.4190 -2.2438  1.2377
 4226SOL     OW14445   9.753   1.733   7.816  0.2036 -0.5376 -0.1809
 4226SOL    HW114446   9.673   1.735   7.868  0.6561 -0.4355  0.5366
 4226SOL    HW214447   9.810   1.798   7.858  0.7462 -0.7828 -0.5270
 4227SOL     OW14448   3.777   6.724   5.324  0.2013 -0.3867  0.2681
 4227SOL    HW114449   3.707   6.787   5.309 -1.3967 -2.3520 -1.0606
 4227SOL    HW214450   3.825   6.721   5.241  0.5355 -0.6326  0.4667
 4228SOL     OW14451   2.343   2.835   2.154 -0.3386 -0.0153 -1.0406
 4228SOL    HW114452   2.414   2.842   2.219 -0.8281 -1.1881 -0.3434
 4228SOL    HW214453   2.363   2.903   2.090  1.0921  0.0757 -0.5462
 4229SOL     OW14454   1.333   5.053   6.939  0.6650 -0.4290  0.4303
 4229SOL    HW114455   1.396   5.030   6.871 -0.2306 -1.6525 -0.0285
 4229SOL    HW214456   1.289   5.132   6.907  1.3278 -0.0948  0.3373
 4230SOL     OW14457   3.597   5.061   4.808  0.2261  0.0324 -0.0778
 4230SOL    HW114458   3.581   5.094   4.896  0.5180 -2.9966  1.2452
 4230SOL    HW214459   3.687   5.028   4.811 -0.7469 -2.8994 -0.4625
 4231SOL     OW14460   6.216   1.560   0.751 -0.3621  0.3660  0.5945
 4231SOL    HW114461   6.310   1.561   0.731  0.0043  0.6679  2.2172
 4231SOL    HW214462   6.212   1.546   0.845 -1.9762 -0.1596  0.4762
 4232SOL     OW14463   9.128   1.042   0.331 -0.1447  0.4004  0.2626
 4232SOL    HW114464   9.088   0.979   0.271  1.9413 -0.9473  0.1877
 4232SOL    HW214465   9.209   1.000   0.359 -0.1741  1.7436  2.6657
 4233SOL     OW14466   6.743   3.226   1.679  0.2112 -0.5666  0.4581
 4233SOL    HW114467   6.703   3.256   1.597 -0.7252  0.4856  1.2593
 4233SOL    HW214468   6.823   3.182   1.652 -0.6369 -1.2489 -1.1003
 4234SOL     OW14469   4.518   3.867   9.462  0.2804  0.1468  0.0092
 4234SOL    HW114470   4.600   3.886   9.509  2.7501 -2.0628 -2.9886
 4234SOL    HW214471   4.523   3.921   9.383 -0.1510 -1.4512 -1.1505
 4235SOL     OW14472   2.470   8.501   8.782 -0.0381 -0.9543 -0.5421
 4235SOL    HW114473   2.402   8.567   8.771 -1.2471 -2.5619 -4.1690
 4235SOL    HW214474   2.423   8.418   8.784  1.5975 -1.9091  1.5864
 4236SOL     OW14475   1.443   6.612   5.696  0.4874  0.0603  0.3585
 4236SOL    HW114476   1.450   6.562   5.615 -2.8340  0.1195 -0.0886
 4236SOL    HW214477   1.417   6.548   5.762 -0.8938  0.6766  0.4340
 4237SOL     OW14478   5.290   4.501   3.451  0.0878  0.1866 -0.5348
 4237SOL    HW114479   5.303   4.552   3.531  2.1804  0.3135 -0.9188
 4237SOL    HW214480   5.314   4.411   3.475 -2.3222 -0.4430 -0.2196
 4238SOL     OW14481   8.566   5.025   3.888  0.1651 -0.0372 -0.2898
 4238SOL    HW114482   8.560   4.931   3.909 -1.5146  0.1235  0.1075
 4238SOL    HW214483   8.576   5.068   3.973  0.2360  0.1868 -0.4109
 4239SOL     OW14484   1.132   6.983   3.589  0.0319 -0.0810 -0.0942
 4239SOL    HW114485   1.177   6.901   3.607 -0.8115 -0.3906  0.6487
 4239SOL    HW214486   1.105   7.015   3.675 -0.8231  0.2870 -0.4885
 4240SOL     OW14487   3.937   1.207   8.346  0.6257  0.3474  0.4109
 4240SOL    HW114488   3.862   1.258   8.318  0.2397 -0.6378 -0.4157
 4240SOL    HW214489   4.011   1.268   8.339  0.4267  0.4163 -2.0163
 4241SOL     OW14490   1.311   5.784   8.092 -0.3451 -0.0544  0.2760
 4241SOL    HW114491   1.292   5.868   8.134 -0.1597  1.2759 -2.1472
 4241SOL    HW214492   1.249   5.779   8.019  0.4433 -1.4700 -0.3334
 4242SOL     OW14493   8.528   4.986   1.580 -0.1820 -0.1352  0.7802
 4242SOL    HW114494   8.479   5.066   1.600  0.0526  1.1976 -3.1157
 4242SOL    HW214495   8.462   4.916   1.581 -1.2326  0.8177  0.3103
 4243SOL     OW14496   6.296   8.917   7.018 -0.0843  0.1302 -0.4687
 4243SOL    HW114497   6.373   8.959   6.978 -0.8148  2.8003  0.6857
 4243SOL    HW214498   6.333   8.862   7.087  0.8754 -0.1728 -1.1919
 4244SOL     OW14499   9.597   1.602   9.743 -0.1861  0.2698  0.1044
 4244SOL    HW114500   9.686   1.598   9.779 -0.2545 -3.8110  0.3209
 4244SOL    HW214501   9.609   1.590   9.648 -0.4248  3.0109 -0.3337
 4245SOL     OW14502   2.318   4.947   0.694 -0.0680  0.0307  0.2096
 4245SOL    HW114503   2.391   4.919   0.749 -1.5604  0.0570  2.2812
 4245SOL    HW214504   2.245   4.961   0.754 -1.6234  0.6801 -1.7023
 4246SOL     OW14505   7.382   9.410   2.687  0.0733 -0.1139 -0.4753
 4246SOL    HW114506   7.302   9.369   2.718 -0.5553  1.0395 -0.5127
 4246SOL    HW214507   7.358   9.451   2.604  1.3657 -1.9208 -1.8151
 4247SOL     OW14508   4.433   1.062   7.904  0.3170  0.1892 -0.8625
 4247SOL    HW114509   4.355   1.037   7.953  1.8805 -1.3479  1.0190
 4247SOL    HW214510   4.463   1.143   7.945  0.7443 -0.2503 -0.2876
 4248SOL     OW14511   6.638   6.538   1.939 -0.6477  0.0201  0.3080
 4248SOL    HW114512   6.581   6.606   1.974 -1.7267 -0.7387  0.0777
 4248SOL    HW214513   6.584   6.459   1.938  0.1050 -0.5116 -0.8103
 4249SOL     OW14514   9.568   5.208   0.266  0.5485 -0.8177 -0.5093
 4249SOL    HW114515   9.485   5.163   0.282  0.1809 -0.3289 -1.0437
 4249SOL    HW214516   9.564   5.236   0.175 -0.0781  2.0212  0.3022
 4250SOL     OW14517   5.591   3.534   5.495  0.7100 -0.4451 -0.1384
 4250SOL    HW114518   5.532   3.600   5.531 -0.4576 -0.2979 -2.1335
 4250SOL    HW214519   5.575   3.455   5.547 -3.4831 -1.2620 -2.2323
 4251SOL     OW14520   4.815   8.987   4.650 -0.1782 -0.1591 -0.3316
 4251SOL    HW114521   4.869   8.908   4.646  0.9810  0.6346 -0.9721
 4251SOL    HW214522   4.804   9.013   4.558  0.4613  1.0631 -0.0826
 4252SOL     OW14523   6.619   9.549   1.437  0.5315  0.1670 -0.3576
 4252SOL    HW114524   6.628   9.601   1.358 -0.0270  2.6478  1.0941
 4252SOL    HW214525   6.640   9.610   1.508  1.2094 -1.9980  1.4161
 4253SOL     OW14526   5.810   3.297   2.060  0.3311  0.0353  0.3643
 4253SOL    HW114527   5.719   3.274   2.075  0.4224  0.2349  1.2645
 4253SOL    HW214528   5.822   3.290   1.965 -1.0606  1.6468  0.0246
 4254SOL     OW14529   4.735   5.405   4.507 -0.3893 -0.4102  0.3264
 4254SOL    HW114530   4.769   5.345   4.440  0.5173  1.9585 -1.4434
 4254SOL    HW214531   4.813   5.437   4.552 -1.0087 -2.7183  3.3992
 4255SOL     OW14532   5.241   1.536   0.328  0.6121  0.7164  0.4583
 4255SOL    HW114533   5.148   1.526   0.350  0.4402 -0.1577 -0.5587
 4255SOL    HW214534   5.242   1.592   0.251  1.2347  4.1539  2.7431
 4256SOL     OW14535   8.669   5.315   9.077 -0.3154  0.3219  0.0347
 4256SOL    HW114536   8.646   5.346   8.990 -1.0550  0.3397  0.2273
 4256SOL    HW214537   8.671   5.395   9.130  0.1269  0.3107  0.0310
 4257SOL     OW14538   2.478   5.879   7.361  0.5072 -0.2885 -0.4115
 4257SOL    HW114539   2.491   5.788   7.387 -0.2684 -0.0544  0.9460
 4257SOL    HW214540   2.396   5.879   7.312  0.4556 -0.3148 -0.3263
 4258SOL     OW14541   2.296   1.395   1.956  0.1732  0.5633 -0.5910
 4258SOL    HW114542   2.230   1.349   2.008 -1.0406  1.5291 -1.2000
 4258SOL    HW214543   2.293   1.485   1.988  1.0155  0.6829 -0.8186
 4259SOL     OW14544   9.730   3.322   7.999 -0.0208 -0.3414 -1.0109
 4259SOL    HW114545   9.707   3.371   8.078  1.9119  0.2874 -0.7778
 4259SOL    HW214546   9.671   3.247   8.000 -2.1468  1.2337 -0.6419
 4260SOL     OW14547   1.535   1.756   5.048  0.0989  0.0795  0.6051
 4260SOL    HW114548   1.446   1.766   5.081 -0.3747 -0.0875 -0.5844
 4260SOL    HW214549   1.536   1.805   4.966  0.1992 -2.3713 -0.9586
 4261SOL     OW14550   9.039   1.707   5.518 -0.3997 -0.6145  0.1829
 4261SOL    HW114551   9.072   1.784   5.471 -0.1001 -0.4863  0.5933
 4261SOL    HW214552   9.007   1.742   5.601  1.1171 -1.1110  1.0141
 4262SOL     OW14553   8.878   8.128   2.678 -0.5350 -0.4436 -0.2036
 4262SOL    HW114554   8.906   8.143   2.588  1.7855 -0.2117  0.4840
 4262SOL    HW214555   8.793   8.171   2.684 -0.4014  0.1880 -2.0698
 4263SOL     OW14556   3.300   5.635   4.176  0.1170  0.3492 -0.5436
 4263SOL    HW114557   3.233   5.682   4.226  1.8997  1.8833  0.5291
 4263SOL    HW214558   3.265   5.628   4.088 -1.9507  0.0137  0.2436
 4264SOL     OW14559   9.436   3.099   9.305  0.0504  0.2439 -0.5125
 4264SOL    HW114560   9.510   3.127   9.251 -0.6015  1.5439 -0.7927
 4264SOL    HW214561   9.438   3.158   9.380  0.8473 -1.4398  0.8442
 4265SOL     OW14562   0.498   5.588   0.147  0.1864 -0.0651 -0.1699
 4265SOL    HW114563   0.486   5.621   0.058 -1.0108 -0.1298 -0.0502
 4265SOL    HW214564   0.543   5.658   0.193 -0.5933  0.6161 -0.4222
 4266SOL     OW14565   2.319   5.096   7.757 -0.5899  0.3987 -0.1045
 4266SOL    HW114566   2.355   5.061   7.838 -0.6080  1.1765  0.2433
 4266SOL    HW214567   2.298   5.187   7.777 -0.4138  0.6558 -1.0396
 4267SOL     OW14568   1.102   9.142   0.352 -0.1335  0.6202  0.3849
 4267SOL    HW114569   1.040   9.213   0.365  0.7171  1.5640 -0.5922
 4267SOL    HW214570   1.143   9.131   0.438 -0.2657  1.3117  0.5434
 4268SOL     OW14571   7.074   1.998   3.690  0.3227  0.5077 -0.1082
 4268SOL    HW114572   7.122   2.080   3.700 -0.3564  0.8504  0.3993
 4268SOL    HW214573   7.030   2.006   3.605 -1.7053  1.7215  1.0089
 4269SOL     OW14574   1.256   7.206   5.093  0.1783 -0.2141  0.5585
 4269SOL    HW114575   1.204   7.176   5.018 -0.2166 -0.4464  0.9225
 4269SOL    HW214576   1.192   7.241   5.155  0.5352  0.3221  0.6360
 4270SOL     OW14577   5.516   2.681   8.670 -0.2737 -0.2065  0.2422
 4270SOL    HW114578   5.550   2.623   8.602 -0.0608 -1.6761  1.5529
 4270SOL    HW214579   5.585   2.746   8.683 -0.7640  0.7613 -1.6642
 4271SOL     OW14580   0.389   8.968   2.202 -0.4154 -0.1453 -0.4095
 4271SOL    HW114581   0.316   8.933   2.151 -1.1943  0.9831 -0.1121
 4271SOL    HW214582   0.348   9.006   2.280  0.6455 -0.8299  0.5101
 4272SOL     OW14583   3.490   9.692   4.487  0.1625  0.2396 -0.1116
 4272SOL    HW114584   3.485   9.765   4.549 -0.4791 -0.4536  0.6867
 4272SOL    HW214585   3.572   9.649   4.508 -0.0578 -0.0004  0.2795
 4273SOL     OW14586   7.558   7.134   5.452  0.1683 -0.3024 -0.3463
 4273SOL    HW114587   7.591   7.051   5.416  2.2258  0.1692  0.3027
 4273SOL    HW214588   7.594   7.137   5.541 -0.1505  1.1394 -0.2451
 4274SOL     OW14589   2.543   4.377   6.707 -0.3259 -0.3145  0.1824
 4274SOL    HW114590   2.564   4.372   6.801 -0.8744  3.0385  0.6005
 4274SOL    HW214591   2.623   4.347   6.664  1.2114  1.2388  1.7658
 4275SOL     OW14592   7.740   6.486   3.292 -0.4175  0.1065 -0.4453
 4275SOL    HW114593   7.758   6.425   3.364  1.2953  0.5090 -0.5080
 4275SOL    HW214594   7.658   6.454   3.255 -1.3365 -0.1454  1.6358
 4276SOL     OW14595   2.690   6.230   5.170 -0.1631  0.2039 -0.0159
 4276SOL    HW114596   2.673   6.268   5.084  2.9295  1.5975 -0.1459
 4276SOL    HW214597   2.689   6.304   5.230 -0.4219 -0.4780  0.8544
 4277SOL     OW14598   7.223   5.367   8.750 -0.3520  0.4417 -0.4274
 4277SOL    HW114599   7.175   5.307   8.806  1.1779  0.5741  1.1140
 4277SOL    HW214600   7.193   5.347   8.661 -2.2624 -0.3205  0.3487
 4278SOL     OW14601   1.489   7.965   8.863  0.2501 -0.7437  0.3918
 4278SOL    HW114602   1.507   8.022   8.788  1.1796 -0.8287  0.5438
 4278SOL    HW214603   1.478   7.878   8.824  1.2560 -0.8796  0.4001
 4279SOL     OW14604   0.375   6.816   2.046 -0.0764  0.1687  1.0176
 4279SOL    HW114605   0.451   6.794   1.992 -0.0014 -0.0900  1.2262
 4279SOL    HW214606   0.303   6.767   2.006  0.1170 -0.5827  1.5618
 4280SOL     OW14607   0.001   2.386   7.765 -0.7423  0.8361  0.0424
 4280SOL    HW114608  -0.019   2.467   7.719  0.1469  0.8953 -0.2666
 4280SOL    HW214609  -0.024   2.317   7.704 -1.2493  0.8801  0.1984
 4281SOL     OW14610   8.738   5.491   0.326 -0.5053 -0.6280  0.4185
 4281SOL    HW114611   8.734   5.577   0.367 -0.2352 -0.1937 -0.4405
 4281SOL    HW214612   8.738   5.509   0.232 -0.6425 -1.5748  0.2267
 4282SOL     OW14613   0.836   0.518   0.004 -0.0911  0.6216  0.3159
 4282SOL    HW114614   0.803   0.507   0.093  1.3892  1.5471  1.0230
 4282SOL    HW214615   0.772   0.473  -0.051  0.1359 -2.0924  2.0317
 4283SOL     OW14616   4.391   5.655   1.265 -0.0189 -0.0517 -0.6339
 4283SOL    HW114617   4.401   5.710   1.187  1.3322  3.0892  1.5289
 4283SOL    HW214618   4.296   5.649   1.278 -0.3068  3.4322 -0.0843
 4284SOL     OW14619   3.062   1.311   5.339 -0.0060 -0.8070 -0.2523
 4284SOL    HW114620   3.116   1.297   5.262  1.2423 -1.3549  0.6825
 4284SOL    HW214621   3.076   1.402   5.363 -1.9817 -0.0302 -1.7960
 4285SOL     OW14622   9.555   2.141   2.659  0.9034  0.1270 -0.6103
 4285SOL    HW114623   9.589   2.068   2.710  2.0982  0.5235 -0.7980
 4285SOL    HW214624   9.564   2.114   2.568 -0.8197 -0.4043 -0.6506
 4286SOL     OW14625   5.259   0.294   6.794 -0.1714 -0.6895  0.0172
 4286SOL    HW114626   5.190   0.354   6.823  0.3353  0.1761 -0.4935
 4286SOL    HW214627   5.255   0.298   6.698  2.2816  1.4812 -0.1010
 4287SOL     OW14628   8.917   1.284   8.860 -0.6304 -0.1438 -0.1216
 4287SOL    HW114629   8.899   1.230   8.783  1.0909 -1.3255  0.2537
 4287SOL    HW214630   8.973   1.355   8.827  1.1568 -1.3402  0.1867
 4288SOL     OW14631   3.296   9.489   6.135 -0.0953  0.0152 -0.4026
 4288SOL    HW114632   3.288   9.423   6.066 -0.2795 -0.2601 -0.1191
 4288SOL    HW214633   3.381   9.531   6.118  1.4008 -2.2048  1.0725
 4289SOL     OW14634   3.967   6.175   4.249 -0.2368  0.2673  0.0717
 4289SOL    HW114635   3.939   6.196   4.339 -3.5689  1.9211 -1.1513
 4289SOL    HW214636   3.915   6.098   4.226 -0.7323  0.8881 -0.9497
 4290SOL     OW14637   7.257   0.405   9.123 -0.0970  0.4571  0.0778
 4290SOL    HW114638   7.349   0.403   9.148  0.3755  0.7725 -1.5378
 4290SOL    HW214639   7.240   0.496   9.101 -0.5738  0.2428 -0.4580
 4291SOL     OW14640   0.649   9.404   0.085  0.0003 -0.2675  0.0812
 4291SOL    HW114641   0.696   9.410   0.002  1.5403 -1.5975  0.8076
 4291SOL    HW214642   0.652   9.311   0.109 -1.0868 -0.0381  1.2607
 4292SOL     OW14643   2.858   5.241   5.108 -0.5053  0.2400 -0.5516
 4292SOL    HW114644   2.891   5.270   5.023  0.4391 -3.6384 -1.7476
 4292SOL    HW214645   2.934   5.249   5.166 -0.4246  0.6278 -0.7045
 4293SOL     OW14646   8.857   5.537   4.028 -0.1850  0.0266 -0.2589
 4293SOL    HW114647   8.776   5.515   4.073  0.2713 -0.1932  0.4770
 4293SOL    HW214648   8.845   5.628   4.000 -0.0635  0.5750  1.3134
 4294SOL     OW14649   0.425   2.052   8.393 -0.1580  0.2838 -0.2132
 4294SOL    HW114650   0.429   2.056   8.297  0.8060  1.4500 -0.1519
 4294SOL    HW214651   0.384   1.968   8.412 -1.3472  0.4877 -1.6674
 4295SOL     OW14652   6.088   7.767   4.854 -0.2865  0.1724 -0.1945
 4295SOL    HW114653   6.078   7.816   4.936 -0.2843 -0.8300  0.4254
 4295SOL    HW214654   6.148   7.820   4.802  1.3195 -0.1139  1.2515
 4296SOL     OW14655   0.768   9.220   0.808  0.5039 -0.5464 -0.3959
 4296SOL    HW114656   0.693   9.279   0.798  1.2160  0.2360 -1.3913
 4296SOL    HW214657   0.802   9.238   0.895  0.4494  0.2059 -0.5262
 4297SOL     OW14658   7.713   8.288   3.289 -0.3077 -0.2669  0.1033
 4297SOL    HW114659   7.716   8.200   3.324 -0.4273  0.3668  1.7947
 4297SOL    HW214660   7.741   8.344   3.361 -2.1699  1.2577 -0.2666
 4298SOL     OW14661   8.040   4.301   0.843 -0.0943  0.4301  0.0859
 4298SOL    HW114662   8.072   4.339   0.761  0.5811  0.4188  0.3428
 4298SOL    HW214663   8.119   4.270   0.888 -0.4595  0.4481  0.7479
 4299SOL     OW14664   8.024   2.360   4.337  0.6979 -0.0445  0.1476
 4299SOL    HW114665   7.954   2.387   4.396 -1.1920  0.5629 -2.2157
 4299SOL    HW214666   7.986   2.288   4.286  2.9942 -2.0472  1.0445
 4300SOL     OW14667   6.596   5.510   3.379  0.5615  0.5144  0.0730
 4300SOL    HW114668   6.606   5.503   3.284  2.3267  6.3653 -0.5499
 4300SOL    HW214669   6.522   5.569   3.392 -0.1026 -0.7098  2.4868
 4301SOL     OW14670   5.359   4.704   8.283  0.2297  0.0109 -0.0626
 4301SOL    HW114671   5.280   4.661   8.314  0.7619 -1.1384 -0.2584
 4301SOL    HW214672   5.368   4.676   8.192  0.0485  1.3562 -0.5241
 4302SOL     OW14673   5.120   5.791   5.713  0.0121 -0.3229 -0.3196
 4302SOL    HW114674   5.130   5.703   5.677 -0.0872 -0.0159 -1.1217
 4302SOL    HW214675   5.026   5.799   5.730 -0.3263  0.3333 -2.1892
 4303SOL     OW14676   8.425   3.593   2.665  0.1530 -0.4086 -0.6999
 4303SOL    HW114677   8.497   3.642   2.705 -1.6440  1.2148  0.6901
 4303SOL    HW214678   8.405   3.524   2.729 -0.3285 -0.0822 -0.4939
 4304SOL     OW14679   6.701   7.567   7.004  0.7103 -0.1005  0.1438
 4304SOL    HW114680   6.787   7.526   7.007  1.4163  1.3740  0.8828
 4304SOL    HW214681   6.648   7.516   7.065  1.2311 -0.6270  0.1644
 4305SOL     OW14682   0.881   5.962   6.711  0.6029  0.4678  0.1573
 4305SOL    HW114683   0.797   5.931   6.678  0.3971  3.0118 -2.0454
 4305SOL    HW214684   0.917   5.888   6.759 -2.4561 -1.0061  0.3892
 4306SOL     OW14685   7.617   1.104   6.449  0.6008  0.0961 -0.0732
 4306SOL    HW114686   7.527   1.100   6.481  0.1558  0.8430 -1.1672
 4306SOL    HW214687   7.654   1.019   6.471 -0.2139 -0.0511  0.8179
 4307SOL     OW14688   4.476   6.254   4.933 -0.0246 -0.1624  0.3439
 4307SOL    HW114689   4.528   6.325   4.895  0.0860  0.0555  0.9063
 4307SOL    HW214690   4.533   6.215   4.999  0.7186 -2.0915 -1.3047
 4308SOL     OW14691   6.493   1.764   4.259  0.2833  0.3620  0.0431
 4308SOL    HW114692   6.404   1.764   4.294 -0.2697 -0.3232 -1.2820
 4308SOL    HW214693   6.533   1.685   4.295 -0.0481  0.0326 -0.3056
 4309SOL     OW14694   2.598   7.024   6.866  0.0780 -0.2667  0.5835
 4309SOL    HW114695   2.581   6.930   6.868  0.2608 -0.3145  0.1133
 4309SOL    HW214696   2.689   7.032   6.839  0.0592  0.0436  0.6039
 4310SOL     OW14697   1.555   4.899   3.082 -0.5635 -0.4712 -0.1494
 4310SOL    HW114698   1.635   4.889   3.132  0.8670  2.6683 -1.5402
 4310SOL    HW214699   1.510   4.973   3.123 -0.9992  0.0371 -1.5019
 4311SOL     OW14700   8.354   4.441   1.939  0.7401 -0.4526 -0.5581
 4311SOL    HW114701   8.305   4.387   1.877  0.2666  0.3494 -0.8993
 4311SOL    HW214702   8.419   4.381   1.977  0.5517 -1.1348 -1.2833
 4312SOL     OW14703   0.057   8.673   8.099  0.2003  0.6012 -0.7607
 4312SOL    HW114704   0.088   8.606   8.037  1.5380  0.8369 -0.3711
 4312SOL    HW214705   0.119   8.669   8.172 -0.8216  0.9664  0.1513
 4313SOL     OW14706   7.030   3.516   4.430 -0.3473  0.4383  0.6223
 4313SOL    HW114707   7.057   3.463   4.355 -0.7533 -0.8695  1.3627
 4313SOL    HW214708   7.077   3.477   4.504 -2.9948 -0.9423  1.6966
 4314SOL     OW14709   6.359   5.574   3.605 -0.0344 -0.1190  0.0937
 4314SOL    HW114710   6.271   5.538   3.619  0.0929 -0.4717  0.0072
 4314SOL    HW214711   6.362   5.595   3.512  0.9046 -2.7224 -0.5479
 4315SOL     OW14712   1.590   8.982   1.942 -0.6675 -0.7529 -0.5120
 4315SOL    HW114713   1.524   8.989   2.011 -0.3706 -0.0177 -0.2866
 4315SOL    HW214714   1.662   8.933   1.983 -0.2337  0.2153 -0.0814
 4316SOL     OW14715   9.499   8.376   0.729  0.2277 -0.2292  0.6525
 4316SOL    HW114716   9.552   8.425   0.666  0.4738 -0.7997  0.4104
 4316SOL    HW214717   9.451   8.443   0.777  1.7631  0.3598  1.4255
 4317SOL     OW14718   5.916   6.835   4.897  0.3685  0.5142 -0.3062
 4317SOL    HW114719   5.930   6.827   4.802  2.3945 -0.9761  0.0655
 4317SOL    HW214720   5.999   6.808   4.936 -0.7488  0.1218  1.9355
 4318SOL     OW14721   4.262   6.208   4.770  0.1302  0.6364  0.1584
 4318SOL    HW114722   4.204   6.157   4.827  0.6349 -1.5002 -1.1193
 4318SOL    HW214723   4.344   6.212   4.819  0.1316  0.0601  0.2180
 4319SOL     OW14724   2.446   4.380   2.956 -0.1254 -0.2303  0.7291
 4319SOL    HW114725   2.422   4.456   3.009  0.8166 -0.0769  0.9632
 4319SOL    HW214726   2.395   4.308   2.993 -0.6220  0.1831  0.8571
 4320SOL     OW14727   4.063   5.746   2.381  0.0939 -0.0041 -0.2577
 4320SOL    HW114728   4.022   5.805   2.318  0.2137  0.5994  0.2178
 4320SOL    HW214729   4.073   5.799   2.460 -1.0422 -1.0579  0.6321
 4321SOL     OW14730   2.750   2.066   2.924  0.3826  0.0155  0.3170
 4321SOL    HW114731   2.722   2.089   2.836  0.0715  0.0240  0.4176
 4321SOL    HW214732   2.671   2.074   2.977  0.8697  1.4051  0.8714
 4322SOL     OW14733   5.069   2.019   3.390  0.8295  0.1597  0.3457
 4322SOL    HW114734   5.135   1.951   3.405  1.4785  0.9349  1.1130
 4322SOL    HW214735   4.994   1.991   3.444  0.0621 -1.2812 -1.3458
 4323SOL     OW14736   2.600   3.793   1.946  0.7372 -0.0725 -0.1107
 4323SOL    HW114737   2.624   3.875   1.903  2.2815  1.3446  3.1496
 4323SOL    HW214738   2.630   3.725   1.885  2.8504  1.7670 -1.2581
 4324SOL     OW14739   6.453   7.351   0.859 -0.0505 -0.1692 -0.0257
 4324SOL    HW114740   6.532   7.318   0.901  0.4941 -0.6809 -1.4250
 4324SOL    HW214741   6.482   7.426   0.807 -0.0421 -1.5898 -2.2017
 4325SOL     OW14742   7.086   5.520   0.651 -0.4616 -0.0902  0.2640
 4325SOL    HW114743   7.171   5.538   0.609 -0.5854  1.2490  0.5232
 4325SOL    HW214744   7.028   5.589   0.617 -1.1082 -0.2344  1.0461
 4326SOL     OW14745   9.304   9.275   2.316  0.0459 -0.3288  0.3117
 4326SOL    HW114746   9.245   9.204   2.292  0.5104 -0.4485 -0.5196
 4326SOL    HW214747   9.282   9.295   2.407  0.3361 -1.9769  0.7882
 4327SOL     OW14748   7.317   0.830   8.406  0.1729  0.2026  0.3284
 4327SOL    HW114749   7.306   0.751   8.458 -0.3652 -0.4114 -0.6963
 4327SOL    HW214750   7.368   0.802   8.330  0.5587  0.9854  0.2878
 4328SOL     OW14751   6.788   5.917   1.984 -0.3735 -0.1717 -0.2127
 4328SOL    HW114752   6.702   5.906   2.025  0.0191  0.2884  0.7466
 4328SOL    HW214753   6.850   5.880   2.046  0.2583  0.8484 -0.2130
 4329SOL     OW14754   4.409   3.444   9.536  0.2966 -0.0776 -0.0684
 4329SOL    HW114755   4.409   3.497   9.457 -1.2306  0.1152  0.0314
 4329SOL    HW214756   4.319   3.449   9.569  0.8855 -0.1270  1.6950
 4330SOL     OW14757   2.882   9.355   0.317 -0.9275  0.0747 -0.0191
 4330SOL    HW114758   2.874   9.260   0.305 -2.3776  0.3763 -2.1962
 4330SOL    HW214759   2.878   9.368   0.412 -1.8929 -1.9714  0.2807
 4331SOL     OW14760   2.836   8.247   6.573 -0.4877  0.3784  0.6735
 4331SOL    HW114761   2.876   8.327   6.539 -0.0143  0.1350  0.6462
 4331SOL    HW214762   2.860   8.179   6.510 -0.6096  0.1502  0.8694
 4332SOL     OW14763   8.977   7.781   0.170  0.2822  0.4264  0.6164
 4332SOL    HW114764   8.984   7.875   0.152  0.7888  0.2782 -0.0526
 4332SOL    HW214765   9.004   7.740   0.087  3.7866 -0.3333  1.9613
 4333SOL     OW14766   6.020   0.672   4.499  0.4703  0.0296 -1.0675
 4333SOL    HW114767   5.973   0.730   4.439  1.1473 -0.5487 -2.1853
 4333SOL    HW214768   6.044   0.597   4.446 -0.2832 -1.2572  0.3241
 4334SOL     OW14769   6.462   5.665   6.813 -0.0915  0.1450 -1.1552
 4334SOL    HW114770   6.389   5.633   6.865  0.8977  0.1234  0.2631
 4334SOL    HW214771   6.455   5.761   6.818  0.3071  0.1450 -0.5244
 4335SOL     OW14772   2.369   7.998   9.204 -0.1621 -0.2775  0.6248
 4335SOL    HW114773   2.454   7.960   9.226 -0.4808 -1.9827 -0.8967
 4335SOL    HW214774   2.305   7.938   9.241 -0.6764 -1.4363 -1.9430
 4336SOL     OW14775   1.617   2.837   9.397 -0.0726 -0.4514  0.3033
 4336SOL    HW114776   1.569   2.812   9.318  0.3493 -1.1916  0.2762
 4336SOL    HW214777   1.706   2.805   9.382  0.8249  2.0157 -0.2155
 4337SOL     OW14778   1.962   9.839   5.810 -0.7642 -0.3598 -0.5291
 4337SOL    HW114779   1.978   9.799   5.896 -0.8702  0.1651 -0.2549
 4337SOL    HW214780   2.041   9.890   5.792 -1.2229  0.4894 -0.1820
 4338SOL     OW14781   1.988   5.278   6.392 -0.5919 -0.7446  0.2645
 4338SOL    HW114782   1.993   5.343   6.463 -2.1027  1.1199 -1.2243
 4338SOL    HW214783   1.894   5.267   6.377 -0.3717  0.7271 -2.9326
 4339SOL     OW14784   2.368   8.961   6.879 -0.5872 -0.5329 -0.0633
 4339SOL    HW114785   2.407   8.884   6.920 -0.6653 -0.2935  0.4576
 4339SOL    HW214786   2.292   8.927   6.832  0.3186 -1.0291 -1.2282
 4340SOL     OW14787   2.822   0.654   4.494  0.4778  0.1539 -0.7724
 4340SOL    HW114788   2.771   0.585   4.452  1.7545 -1.7757  0.6848
 4340SOL    HW214789   2.901   0.610   4.526  0.9212  2.0819  1.0279
 4341SOL     OW14790   4.993   1.838   1.714  0.4999 -0.9341 -0.3900
 4341SOL    HW114791   4.945   1.786   1.650  1.8885 -0.9711 -1.4336
 4341SOL    HW214792   5.059   1.885   1.663 -0.7284  1.9715  0.4791
 4342SOL     OW14793   2.997   6.906   7.808  0.1170 -0.5077 -0.0519
 4342SOL    HW114794   3.008   6.826   7.757 -0.3578  0.2325 -1.3708
 4342SOL    HW214795   2.922   6.950   7.768 -0.5719 -0.1014  1.5996
 4343SOL     OW14796   0.455   8.145   8.271 -0.2208 -0.2040  0.6986
 4343SOL    HW114797   0.451   8.184   8.358  0.2875  0.8873  0.2598
 4343SOL    HW214798   0.549   8.140   8.251 -0.3211 -0.7209  0.3344
 4344SOL     OW14799   6.596   4.161   8.309 -0.3063  0.4642  0.1586
 4344SOL    HW114800   6.644   4.100   8.364  0.4848  1.4117  0.5550
 4344SOL    HW214801   6.582   4.238   8.364  0.1276  1.2641 -0.8075
 4345SOL     OW14802   2.944   2.102   7.819 -0.2593 -0.0425 -0.3650
 4345SOL    HW114803   2.913   2.069   7.903 -0.0472  0.9956  0.1369
 4345SOL    HW214804   2.903   2.046   7.754 -1.1269 -0.3037  0.3986
 4346SOL     OW14805   1.109   0.766   4.274 -0.2326 -0.1636  0.1168
 4346SOL    HW114806   1.124   0.687   4.327 -0.7423  0.2396  0.8730
 4346SOL    HW214807   1.019   0.791   4.294 -0.1037  0.5597 -0.1965
 4347SOL     OW14808   6.725   8.196   6.981 -0.4993  0.5176 -0.4369
 4347SOL    HW114809   6.794   8.129   6.982 -0.4523  0.5600 -0.7594
 4347SOL    HW214810   6.658   8.161   7.040  0.0966  0.7993  0.4321
 4348SOL     OW14811   0.748   6.421   7.867  0.0677  0.1098  0.2357
 4348SOL    HW114812   0.790   6.502   7.897  1.7755 -1.3799  2.1417
 4348SOL    HW214813   0.720   6.378   7.948 -0.5215 -1.3575 -0.7175
 4349SOL     OW14814   0.783   7.337   0.110  0.2443 -0.2628  0.2874
 4349SOL    HW114815   0.838   7.412   0.091 -1.2552  0.8460  0.1077
 4349SOL    HW214816   0.700   7.357   0.067 -0.6931 -1.3143  1.5147
 4350SOL     OW14817   9.767   5.937   6.341 -0.5189  0.5343  0.4856
 4350SOL    HW114818   9.772   6.033   6.340 -1.7553  0.6604 -2.2272
 4350SOL    HW214819   9.674   5.918   6.329 -0.2114 -1.0007  0.4215
 4351SOL     OW14820   7.529   8.096   2.229  0.1209 -0.6180  0.3968
 4351SOL    HW114821   7.527   8.183   2.270  0.6739 -0.6112  0.4174
 4351SOL    HW214822   7.456   8.049   2.270 -2.0076  0.7059 -1.5979
 4352SOL     OW14823   6.730   9.244   6.456 -0.2107 -0.0117 -0.0937
 4352SOL    HW114824   6.760   9.188   6.528 -0.2970 -1.1180 -0.9072
 4352SOL    HW214825   6.801   9.239   6.391 -0.4422  0.4349 -0.3857
 4353SOL     OW14826   8.683   9.643   0.912  0.4856  0.7014 -0.2149
 4353SOL    HW114827   8.634   9.683   0.840  0.3079 -0.9471 -1.0404
 4353SOL    HW214828   8.677   9.549   0.897  1.1561  0.3394  1.5009
 4354SOL     OW14829   1.869   3.311   2.704 -0.5027  0.1763  0.5175
 4354SOL    HW114830   1.924   3.295   2.628 -2.0262  1.1578 -0.8711
 4354SOL    HW214831   1.818   3.230   2.714 -0.4140  0.1039  0.3812
 4355SOL     OW14832   4.876   3.842   0.521 -0.2361  0.0295 -0.1360
 4355SOL    HW114833   4.925   3.785   0.580 -0.4289  0.5172  0.5092
 4355SOL    HW214834   4.784   3.825   0.542 -0.3256 -0.2696 -0.7528
 4356SOL     OW14835   1.412   4.853   2.427 -0.5672 -0.5539  0.2766
 4356SOL    HW114836   1.433   4.803   2.348  0.2873 -0.2718  0.3200
 4356SOL    HW214837   1.351   4.920   2.397 -1.7443 -1.6132  0.2196
 4357SOL     OW14838   9.415   1.973   5.472  0.2979 -0.0683  0.1231
 4357SOL    HW114839   9.346   2.017   5.521 -0.6454  1.0947 -2.0822
 4357SOL    HW214840   9.495   2.019   5.498  0.3085 -1.3901  2.6587
 4358SOL     OW14841   0.252   7.625   8.366  0.1512  0.0960  0.1650
 4358SOL    HW114842   0.201   7.627   8.285 -1.2199  0.4020  1.0076
 4358SOL    HW214843   0.304   7.706   8.363  0.7173 -0.2873 -0.7634
 4359SOL     OW14844   9.183   2.218   8.089  0.0748 -0.2433 -0.0913
 4359SOL    HW114845   9.245   2.290   8.098 -0.2479  0.4474 -2.6775
 4359SOL    HW214846   9.103   2.249   8.133  1.2133 -0.8751  2.6669
 4360SOL     OW14847   7.443   3.740   4.795 -0.3277  0.6213 -0.2133
 4360SOL    HW114848   7.371   3.710   4.851 -0.4939  1.1062 -0.1551
 4360SOL    HW214849   7.439   3.683   4.718  0.2217 -0.3809  0.4823
 4361SOL     OW14850   0.472   9.609   9.531  0.1408  0.1925 -0.1396
 4361SOL    HW114851   0.516   9.609   9.447  1.7530  0.0189  0.6724
 4361SOL    HW214852   0.415   9.532   9.529 -1.1177  1.0928 -1.6598
 4362SOL     OW14853   6.001   8.682   5.316  0.3397  0.4373  0.8888
 4362SOL    HW114854   6.041   8.629   5.384  1.7423 -0.5746 -0.6314
 4362SOL    HW214855   6.075   8.723   5.270 -0.4247 -0.0752 -0.9107
 4363SOL     OW14856   2.279   6.949   9.258  0.1149 -0.7427  0.1733
 4363SOL    HW114857   2.249   6.879   9.199  0.0257 -0.0060 -0.6807
 4363SOL    HW214858   2.297   7.023   9.200 -1.2821  0.4576  1.2077
 4364SOL     OW14859   0.522   5.880   9.090 -0.3553 -0.0327 -0.2688
 4364SOL    HW114860   0.535   5.953   9.150  1.0583  0.1513 -0.7523
 4364SOL    HW214861   0.524   5.920   9.003  1.1525 -0.7032 -0.5677
 4365SOL     OW14862   6.402   0.269   8.529 -0.4634 -0.1954  0.2239
 4365SOL    HW114863   6.319   0.245   8.571 -0.5472  2.3839  1.7463
 4365SOL    HW214864   6.463   0.281   8.601  0.5949  0.2382 -0.7100
 4366SOL     OW14865   4.809   8.827   6.705 -0.2116  0.3216  0.2631
 4366SOL    HW114866   4.896   8.855   6.735 -0.2709  0.8040 -0.0023
 4366SOL    HW214867   4.766   8.908   6.679 -0.8587  0.1103  0.6748
 4367SOL     OW14868   3.462   3.282   0.930 -0.3449 -0.0247 -0.3245
 4367SOL    HW114869   3.482   3.276   0.836 -0.6531 -0.5362 -0.3674
 4367SOL    HW214870   3.462   3.375   0.949  0.9920  0.0294 -0.5475
 4368SOL     OW14871   7.162   4.746   5.212  0.4714 -0.6184  0.1854
 4368SOL    HW114872   7.094   4.802   5.174  0.7178 -0.2799  0.2411
 4368SOL    HW214873   7.118   4.661   5.225 -0.4777  0.0813  1.8845
 4369SOL     OW14874   4.337   3.551   6.581  0.3331  0.1908  0.1876
 4369SOL    HW114875   4.310   3.621   6.520  0.1112 -0.8143 -0.9218
 4369SOL    HW214876   4.429   3.535   6.560  0.1202 -0.5072 -0.2760
 4370SOL     OW14877   1.570   1.046   5.099  0.0542 -0.6362  0.4013
 4370SOL    HW114878   1.510   1.111   5.064  0.6384 -0.7770 -0.9353
 4370SOL    HW214879   1.542   0.963   5.061  0.7922 -0.7765  0.1357
 4371SOL     OW14880   1.140   1.915   9.544 -0.4195 -0.3746 -0.0879
 4371SOL    HW114881   1.083   1.840   9.531 -0.3071 -0.7049  1.1810
 4371SOL    HW214882   1.110   1.979   9.479 -1.9940 -0.6726  0.3012
 4372SOL     OW14883   1.832   9.380   0.794  0.2008 -0.4203  0.1044
 4372SOL    HW114884   1.859   9.311   0.854  0.8751  1.8475  2.6317
 4372SOL    HW214885   1.736   9.381   0.801  0.2438 -0.5252  0.7970
 4373SOL     OW14886   1.816   8.435   9.265  0.1800  0.9348 -0.6126
 4373SOL    HW114887   1.841   8.412   9.176 -2.3764 -1.6453 -0.8211
 4373SOL    HW214888   1.852   8.365   9.319 -1.9661 -0.0354 -0.3004
 4374SOL     OW14889   6.520   3.608   6.009 -0.6453  0.1955 -0.3533
 4374SOL    HW114890   6.610   3.640   6.000 -0.5506  0.0026 -0.0955
 4374SOL    HW214891   6.529   3.516   6.032 -0.8949  0.3164  0.2605
 4375SOL     OW14892   0.868   6.616   0.046  0.0993  0.2382  0.1004
 4375SOL    HW114893   0.899   6.560  -0.025 -0.8611  0.6982 -0.7060
 4375SOL    HW214894   0.785   6.578   0.072  0.2745  0.2889  0.7427
 4376SOL     OW14895   4.437   6.075   9.193 -0.5511 -0.2663  0.4048
 4376SOL    HW114896   4.460   5.996   9.145 -0.1111  0.0668  0.0601
 4376SOL    HW214897   4.409   6.044   9.279 -0.6497 -0.8129  0.1776
 4377SOL     OW14898   5.166   6.284   6.392 -0.2426  0.9793 -0.1911
 4377SOL    HW114899   5.093   6.346   6.388 -1.7449 -0.7645 -1.1095
 4377SOL    HW214900   5.128   6.204   6.428  1.0611 -0.1515 -1.2165
 4378SOL     OW14901   0.187   9.453   8.723 -0.5891 -0.0896  0.2832
 4378SOL    HW114902   0.282   9.442   8.715 -0.6672  0.8804 -3.5738
 4378SOL    HW214903   0.176   9.503   8.804  2.2172  0.3772  0.4874
 4379SOL     OW14904   4.530   7.277   4.390 -0.1402  0.5424  0.3853
 4379SOL    HW114905   4.529   7.333   4.468  0.6967  0.0335  0.7853
 4379SOL    HW214906   4.621   7.280   4.360 -0.2294 -0.0838  0.0325
 4380SOL     OW14907   5.381   3.971   6.768  0.2203 -0.2381 -0.8211
 4380SOL    HW114908   5.452   3.984   6.704 -0.0895 -0.9169 -1.3130
 4380SOL    HW214909   5.412   3.900   6.824  1.0162  1.1345  0.5729
 4381SOL     OW14910   0.279   4.445   4.753 -0.2630 -0.1305  0.4157
 4381SOL    HW114911   0.287   4.410   4.664 -1.1501 -0.7491  0.5623
 4381SOL    HW214912   0.365   4.481   4.772  0.2859 -1.0308 -0.2638
 4382SOL     OW14913   5.389   8.137   2.906 -0.0892  0.4151  0.4665
 4382SOL    HW114914   5.349   8.098   2.983 -1.3242  0.4637 -0.1194
 4382SOL    HW214915   5.366   8.078   2.834  0.7298  0.5565  0.0764
 4383SOL     OW14916   1.657   1.122   6.398  0.4046  0.1210  0.3373
 4383SOL    HW114917   1.579   1.119   6.454  0.3106 -2.9371  0.2039
 4383SOL    HW214918   1.725   1.078   6.450  1.1554 -0.0410 -0.7486
 4384SOL     OW14919   0.622   8.950   1.207 -0.0068  0.2799  0.1199
 4384SOL    HW114920   0.689   8.889   1.238 -0.0477 -0.4331 -1.1111
 4384SOL    HW214921   0.629   8.947   1.112 -1.5097  0.4995 -0.0226
 4385SOL     OW14922   2.696   7.458   8.273  0.0796 -0.3841 -0.3073
 4385SOL    HW114923   2.711   7.538   8.222 -0.6538 -0.6029 -0.8818
 4385SOL    HW214924   2.783   7.419   8.282  0.3023 -0.0379 -0.8899
 4386SOL     OW14925   4.890   1.262   0.405 -0.5986  0.2792  0.0802
 4386SOL    HW114926   4.808   1.266   0.455 -2.1548  0.6860 -2.3643
 4386SOL    HW214927   4.913   1.354   0.390 -0.6165  0.1639 -0.6624
 4387SOL     OW14928   7.690   2.651   0.804 -0.2162 -0.1096 -0.1354
 4387SOL    HW114929   7.604   2.632   0.842 -0.4160  0.0585 -0.4985
 4387SOL    HW214930   7.673   2.660   0.711  0.4557 -1.7483 -0.4571
 4388SOL     OW14931   5.725   0.541   7.884  0.4621 -1.0429 -0.2660
 4388SOL    HW114932   5.818   0.518   7.880  0.5793 -0.4864 -0.9060
 4388SOL    HW214933   5.718   0.623   7.835 -0.1691 -0.4143  0.8498
 4389SOL     OW14934   5.935   9.669   6.357 -0.1332 -0.2132  0.0002
 4389SOL    HW114935   5.956   9.709   6.273 -2.3889 -0.7135 -0.8934
 4389SOL    HW214936   6.003   9.603   6.371  0.7886  0.5126 -0.9473
 4390SOL     OW14937   3.642   2.136   0.991 -0.3012 -0.0055 -0.1932
 4390SOL    HW114938   3.576   2.113   0.927 -2.1695 -0.1626  1.6767
 4390SOL    HW214939   3.603   2.207   1.042  2.0398  1.7303 -0.6133
 4391SOL     OW14940   7.117   0.783   3.270  0.5618  0.4415 -0.5120
 4391SOL    HW114941   7.031   0.788   3.312  0.5400 -0.8004 -0.3849
 4391SOL    HW214942   7.104   0.826   3.185  0.3345  1.9918  0.2621
 4392SOL     OW14943   8.839   0.635   0.651 -0.4970 -0.0882  0.1590
 4392SOL    HW114944   8.831   0.603   0.561  1.4556  0.7884 -0.3771
 4392SOL    HW214945   8.920   0.594   0.683  0.3659  1.8052  0.5101
 4393SOL     OW14946   1.782   7.975   1.459 -0.0976 -0.2862 -0.1325
 4393SOL    HW114947   1.838   8.039   1.415 -0.1398 -1.1969 -1.5576
 4393SOL    HW214948   1.842   7.909   1.493 -0.2091 -0.6224 -0.5815
 4394SOL     OW14949   5.461   3.464   3.976 -0.1585 -0.5693  0.3918
 4394SOL    HW114950   5.467   3.419   3.892 -1.2658 -1.1909  0.6233
 4394SOL    HW214951   5.416   3.402   4.033  0.4788 -0.1130  1.4184
 4395SOL     OW14952   5.406   7.660   1.528 -0.5593 -0.2541 -0.7488
 4395SOL    HW114953   5.392   7.644   1.434 -1.8783 -0.4735 -0.5416
 4395SOL    HW214954   5.474   7.727   1.531  0.5614 -1.2874 -1.8187
 4396SOL     OW14955   3.440   8.423   5.344 -0.1523 -0.2756 -0.2689
 4396SOL    HW114956   3.451   8.338   5.302 -0.4913 -0.5510  0.1892
 4396SOL    HW214957   3.503   8.480   5.299  0.6911 -0.9690 -0.0096
 4397SOL     OW14958   4.411   0.260   2.068  0.0169 -0.2308 -0.1848
 4397SOL    HW114959   4.492   0.298   2.035 -0.4882  0.6619 -0.4694
 4397SOL    HW214960   4.346   0.281   2.000 -0.9939  1.3863  1.2056
 4398SOL     OW14961   9.110   8.123   0.310  0.0021 -0.3524 -0.0554
 4398SOL    HW114962   9.028   8.133   0.261 -0.0864  0.8602  0.3003
 4398SOL    HW214963   9.174   8.176   0.262  0.1514  0.0670  0.5982
 4399SOL     OW14964   2.836   4.768   7.956  0.0561  0.0698  0.3383
 4399SOL    HW114965   2.916   4.723   7.927  0.6312  0.5183  1.1801
 4399SOL    HW214966   2.793   4.794   7.875  0.1610 -1.2000 -0.1507
 4400SOL     OW14967   1.007   7.633   5.761  0.1500 -0.2880  0.0881
 4400SOL    HW114968   0.973   7.719   5.788 -0.1305 -0.4221  0.1595
 4400SOL    HW214969   1.036   7.646   5.671  0.8865  0.1077  0.3689
 4401SOL     OW14970   9.123   3.317   9.037 -0.6102  0.4625  0.2760
 4401SOL    HW114971   9.146   3.315   8.944  2.8896  0.8467  0.9710
 4401SOL    HW214972   9.143   3.229   9.069 -5.0938 -0.8147  0.1803
 4402SOL     OW14973   2.674   9.735   2.350  0.3205 -0.3057  0.0284
 4402SOL    HW114974   2.581   9.714   2.338  0.4933 -0.7700 -0.4920
 4402SOL    HW214975   2.721   9.657   2.322  0.8452 -0.3973  1.1118
 4403SOL     OW14976   2.560   7.608   7.099 -0.1323 -0.2090  0.3372
 4403SOL    HW114977   2.473   7.639   7.072 -0.2799 -1.9101 -1.3190
 4403SOL    HW214978   2.543   7.560   7.180 -0.2522  1.8450  1.6053
 4404SOL     OW14979   1.688   7.518   3.356 -0.0603  0.1147 -0.6096
 4404SOL    HW114980   1.613   7.560   3.399  0.7670  0.6310  0.3504
 4404SOL    HW214981   1.673   7.424   3.369 -0.1214  0.2408  0.3076
 4405SOL     OW14982   4.207   5.943   0.508 -0.0889 -0.3093  0.5764
 4405SOL    HW114983   4.129   5.905   0.467  0.2022  0.6876 -1.0068
 4405SOL    HW214984   4.217   6.028   0.465  0.3367  0.7775  2.6576
 4406SOL     OW14985   0.353   9.137   5.157 -0.3819 -0.2170 -0.2050
 4406SOL    HW114986   0.440   9.174   5.142 -0.9619  0.9073 -0.9384
 4406SOL    HW214987   0.337   9.151   5.251  0.6292 -1.3566  0.1455
 4407SOL     OW14988   0.844   3.889   8.678 -0.2645  0.4493  0.5415
 4407SOL    HW114989   0.835   3.937   8.761  0.4330  0.2197  0.7581
 4407SOL    HW214990   0.801   3.945   8.614  0.2037  1.1916  0.8551
 4408SOL     OW14991   4.014   7.470   9.105  0.0672  0.6133 -0.3404
 4408SOL    HW114992   3.995   7.502   9.193 -0.8775 -0.7330 -0.0268
 4408SOL    HW214993   4.081   7.403   9.117 -1.3356 -0.8615 -0.3819
 4409SOL     OW14994   5.899   6.019   9.167  0.8537  0.3215 -0.7723
 4409SOL    HW114995   5.922   5.969   9.246  0.7430 -0.3530 -1.1535
 4409SOL    HW214996   5.968   6.083   9.158 -0.0290  1.5898  0.8524
 4410SOL     OW14997   4.030   6.062   7.322  0.2949 -0.3636  0.1917
 4410SOL    HW114998   4.093   6.040   7.390  1.3073  0.4339 -0.4594
 4410SOL    HW214999   4.072   6.033   7.241 -0.6440 -0.7722 -0.1628
 4411SOL     OW15000   2.223   7.884   3.185 -0.0926 -0.2447 -0.3477
 4411SOL    HW115001   2.290   7.924   3.240  0.5270 -1.6982 -0.0098
 4411SOL    HW215002   2.192   7.955   3.129  2.0983  0.3618 -0.8732
 4412SOL     OW15003   6.505   5.580   4.294  0.1141  0.0570  0.0889
 4412SOL    HW115004   6.577   5.636   4.324  0.2614 -0.9479  1.7165
 4412SOL    HW215005   6.546   5.525   4.227  1.0255 -0.8241  1.3220
 4413SOL     OW15006   4.149   3.427   7.255 -0.2196 -0.3045  0.0349
 4413SOL    HW115007   4.176   3.340   7.228  0.7921 -0.1332  0.4573
 4413SOL    HW215008   4.061   3.437   7.218  0.5306 -0.6136 -2.0071
 4414SOL     OW15009   7.621   1.260   4.365 -0.3499 -0.0821 -0.8753
 4414SOL    HW115010   7.526   1.274   4.368 -0.2430  0.5847  1.3505
 4414SOL    HW215011   7.632   1.178   4.318 -2.0879 -0.5404 -0.5554
 4415SOL     OW15012   2.301   6.377   1.122 -0.2292  0.0283  0.1835
 4415SOL    HW115013   2.374   6.315   1.131  0.0346  0.2232 -0.4733
 4415SOL    HW215014   2.240   6.353   1.191  0.3864 -0.2445  0.6475
 4416SOL     OW15015   4.206   3.012   1.973  0.3922 -0.2161 -0.3501
 4416SOL    HW115016   4.117   3.023   2.008  0.3778  1.2776 -0.7758
 4416SOL    HW215017   4.220   2.918   1.973 -0.1498 -0.3881  2.3209
 4417SOL     OW15018   2.193   5.344   1.364  1.1849 -0.0721 -0.3943
 4417SOL    HW115019   2.137   5.272   1.336 -0.6360  1.2876 -0.4135
 4417SOL    HW215020   2.260   5.303   1.418  1.0673 -1.9421 -1.5922
 4418SOL     OW15021   6.534   7.808   0.909 -0.6679  0.1332  0.4624
 4418SOL    HW115022   6.602   7.756   0.866 -0.8552  0.8239 -0.7126
 4418SOL    HW215023   6.562   7.813   1.001  0.8324  0.3405  0.0204
 4419SOL     OW15024   7.701   3.921   9.565  0.5211  0.0361 -0.1638
 4419SOL    HW115025   7.751   3.961   9.494  1.2628 -0.7613 -0.1067
 4419SOL    HW215026   7.736   3.832   9.572  1.3268  0.4514  1.9861
 4420SOL     OW15027   7.012   5.589   2.770  0.0275  0.0234  0.2735
 4420SOL    HW115028   6.961   5.530   2.826 -0.3670  0.0949 -0.0052
 4420SOL    HW215029   6.946   5.639   2.722  0.3073  1.7347  1.5598
 4421SOL     OW15030   4.735   3.484   6.216  0.4314 -0.2464 -0.1424
 4421SOL    HW115031   4.749   3.551   6.284 -0.2640  0.3326 -0.5462
 4421SOL    HW215032   4.738   3.533   6.134 -1.9370 -0.3423 -0.3583
 4422SOL     OW15033   4.727   8.875   5.332  0.1165 -0.2654 -0.3438
 4422SOL    HW115034   4.741   8.963   5.366  0.0220 -0.7484  1.0122
 4422SOL    HW215035   4.801   8.824   5.367 -1.0294 -1.2113  0.8357
 4423SOL     OW15036   1.986   7.158   0.002  0.5858  0.2187  0.0344
 4423SOL    HW115037   2.057   7.190   0.057  0.4023 -1.5097  1.3751
 4423SOL    HW215038   1.918   7.132   0.064 -0.0980 -0.7009 -1.0658
 4424SOL     OW15039   5.691   4.239   8.708  0.2585  0.1467  0.2372
 4424SOL    HW115040   5.765   4.295   8.732  0.4982  0.0997 -0.3799
 4424SOL    HW215041   5.703   4.221   8.615 -0.3897 -0.0781  0.1908
 4425SOL     OW15042   7.145   2.716   1.386 -0.3281 -0.0282  0.3688
 4425SOL    HW115043   7.068   2.700   1.441  0.0465 -3.3357  0.1085
 4425SOL    HW215044   7.133   2.659   1.311  1.8963  0.1467 -0.1913
 4426SOL     OW15045   2.815   4.545   0.871  0.6870 -0.5996  0.1667
 4426SOL    HW115046   2.762   4.623   0.855  1.5402 -0.1153 -0.4284
 4426SOL    HW215047   2.755   4.472   0.861 -0.1887 -0.0189  0.9718
 4427SOL     OW15048   6.646   1.571   7.323  0.4168  0.1020  0.1984
 4427SOL    HW115049   6.699   1.497   7.294  2.0320  0.5180  1.8986
 4427SOL    HW215050   6.654   1.636   7.253 -1.2202 -1.3507 -1.4279
 4428SOL     OW15051   9.116   6.709   2.259 -0.0041  0.3783  0.4777
 4428SOL    HW115052   9.101   6.629   2.208  0.8284 -1.4254  2.8742
 4428SOL    HW215053   9.158   6.769   2.198 -0.8961 -0.8963 -1.4828
 4429SOL     OW15054   5.034   1.085   4.288 -0.4124 -0.4305  0.3132
 4429SOL    HW115055   4.983   1.167   4.286 -1.3202 -1.0015 -0.7380
 4429SOL    HW215056   4.985   1.028   4.348  0.1505 -0.2729  0.9418
 4430SOL     OW15057   0.149   2.406   8.298 -0.3984 -0.8960  0.5802
 4430SOL    HW115058   0.132   2.422   8.205 -0.5260 -1.3771  0.5174
 4430SOL    HW215059   0.149   2.310   8.306  0.7776 -0.8923  0.8570
 4431SOL     OW15060   3.575   6.910   0.028  0.1860  0.5495  0.1320
 4431SOL    HW115061   3.544   6.976   0.091  0.6723  2.8284 -1.8753
 4431SOL    HW215062   3.498   6.891  -0.025  0.2338  0.0372  0.2461
 4432SOL     OW15063   7.953   4.732   4.489 -0.1784  0.1318  0.2839
 4432SOL    HW115064   7.974   4.735   4.396 -2.3112 -0.6108 -0.2755
 4432SOL    HW215065   7.913   4.646   4.502 -0.8049  0.6048  1.6784
 4433SOL     OW15066   3.620   3.532   7.505 -0.8040  0.1954  0.1274
 4433SOL    HW115067   3.594   3.515   7.595  0.6226  1.0783  0.7414
 4433SOL    HW215068   3.644   3.625   7.503  2.9395 -0.5812 -0.0824
 4434SOL     OW15069   8.216   1.730   0.173  0.1630  0.0644  0.0239
 4434SOL    HW115070   8.213   1.638   0.146 -1.6805  0.4816 -1.4419
 4434SOL    HW215071   8.134   1.744   0.220  1.2628  0.5473  1.8812
 4435SOL     OW15072   0.824   0.875   9.418  0.3489  0.0312 -0.5601
 4435SOL    HW115073   0.867   0.834   9.493 -0.6472  1.4784  0.8488
 4435SOL    HW215074   0.894   0.924   9.374  0.7754 -0.1431 -0.0872
 4436SOL     OW15075   6.843   5.952   8.586  0.6263  0.3793 -0.0740
 4436SOL    HW115076   6.818   5.859   8.583 -0.4654  0.5656  1.7047
 4436SOL    HW215077   6.803   5.985   8.666  1.2519  2.3391 -0.5096
 4437SOL     OW15078   1.297   3.728   3.783  0.2296 -0.1913 -0.0198
 4437SOL    HW115079   1.276   3.742   3.691  0.4610 -1.1492 -0.2189
 4437SOL    HW215080   1.266   3.808   3.827 -2.7168 -1.0011 -0.4600
 4438SOL     OW15081   2.814   0.288   4.621 -0.2618 -0.1371 -0.2905
 4438SOL    HW115082   2.786   0.205   4.659  1.1403  0.2414  1.7533
 4438SOL    HW215083   2.847   0.265   4.534 -1.5637 -1.4083 -0.4809
 4439SOL     OW15084   6.083   0.285   6.927  0.2134  0.1350 -0.2565
 4439SOL    HW115085   5.993   0.260   6.906  0.3048  0.3950 -0.9787
 4439SOL    HW215086   6.076   0.340   7.004 -0.1325 -0.8579  0.4458
 4440SOL     OW15087   1.683   0.065   5.231  0.0416 -0.8829  0.3093
 4440SOL    HW115088   1.614   0.012   5.271 -0.5195 -0.7145 -0.3960
 4440SOL    HW215089   1.700   0.022   5.147 -0.0028 -0.2820 -0.0112
 4441SOL     OW15090   6.827   3.241   1.117 -0.0160  0.4262 -0.0668
 4441SOL    HW115091   6.822   3.177   1.187 -3.2040  0.0112 -0.5189
 4441SOL    HW215092   6.880   3.199   1.049  1.6314  0.1334  1.3451
 4442SOL     OW15093   0.162   1.115   9.542  0.1481 -0.1558  0.0621
 4442SOL    HW115094   0.197   1.039   9.588 -0.0015  0.4083  1.1371
 4442SOL    HW215095   0.230   1.182   9.550 -0.0882  0.1041 -0.0937
 4443SOL     OW15096   6.037   4.013   3.694 -0.2308  0.4165  0.7485
 4443SOL    HW115097   6.040   4.016   3.790 -0.5485  0.1368  0.7690
 4443SOL    HW215098   6.115   3.962   3.670  0.3988  1.3323  0.8032
 4444SOL     OW15099   2.812   6.965   8.174  0.1422 -0.9458 -0.5546
 4444SOL    HW115100   2.855   6.903   8.233 -0.0105 -0.6600 -0.1406
 4444SOL    HW215101   2.821   7.050   8.218 -1.7309 -1.0256  0.0454
 4445SOL     OW15102   9.471   8.328   7.961 -0.3363 -0.3961 -0.4270
 4445SOL    HW115103   9.444   8.401   7.906  0.1888  1.4635  1.6591
 4445SOL    HW215104   9.564   8.316   7.943 -0.1774  0.1747 -0.0082
 4446SOL     OW15105   7.177   8.518   5.385  0.7967 -0.8199  0.4217
 4446SOL    HW115106   7.202   8.599   5.430  1.9414 -0.6206 -0.5226
 4446SOL    HW215107   7.165   8.455   5.456  1.1541 -0.1539  1.1003
 4447SOL     OW15108   8.645   9.093   3.405 -0.0167 -0.4265  0.2460
 4447SOL    HW115109   8.701   9.022   3.375 -0.3032 -0.3884 -0.3913
 4447SOL    HW215110   8.700   9.171   3.398 -0.4394 -0.2365 -1.3380
 4448SOL     OW15111   8.279   9.162   5.907 -0.4012 -0.2678  0.1559
 4448SOL    HW115112   8.302   9.254   5.918 -2.1302  0.1543  0.6105
 4448SOL    HW215113   8.186   9.164   5.882 -0.5618 -1.9038  0.5326
 4449SOL     OW15114   6.479   5.109   3.325 -0.3419  0.1415 -0.2307
 4449SOL    HW115115   6.425   5.179   3.288 -1.4542  0.1506  1.3462
 4449SOL    HW215116   6.508   5.142   3.409 -0.6370 -1.1649  0.4098
 4450SOL     OW15117   4.169   5.625   7.623 -0.0432  0.0473  0.3919
 4450SOL    HW115118   4.216   5.666   7.550  1.4496 -1.1488  0.6179
 4450SOL    HW215119   4.236   5.613   7.690 -1.2649  0.5685  1.7368
 4451SOL     OW15120   3.754   6.834   1.540  0.1056  0.5802 -0.3032
 4451SOL    HW115121   3.797   6.839   1.625  0.1134  0.3786 -0.2936
 4451SOL    HW215122   3.778   6.747   1.506 -0.5950  0.3091 -0.1298
 4452SOL     OW15123   4.368   7.584   8.384 -0.4192 -0.2094 -0.4966
 4452SOL    HW115124   4.286   7.622   8.413 -0.8196 -1.7072  0.4477
 4452SOL    HW215125   4.415   7.561   8.464  0.8044  0.3380 -1.0200
 4453SOL     OW15126   7.148   1.428   2.850  0.0744 -0.0527  0.2557
 4453SOL    HW115127   7.083   1.498   2.849  1.0975  0.9108 -0.2703
 4453SOL    HW215128   7.115   1.366   2.916 -2.2125 -0.4289 -1.1394
 4454SOL     OW15129   4.084   1.860   3.447  0.2810  0.0162 -0.1205
 4454SOL    HW115130   4.176   1.877   3.466  0.5809 -0.1277 -1.3721
 4454SOL    HW215131   4.080   1.853   3.352 -0.9755 -0.2862 -0.0621
 4455SOL     OW15132   9.356   5.257   7.874  0.0586  0.0766  0.4415
 4455SOL    HW115133   9.427   5.212   7.920 -1.2402 -2.6956 -0.0393
 4455SOL    HW215134   9.283   5.255   7.936 -0.8903 -1.2470 -0.6490
 4456SOL     OW15135   3.959   9.102   0.589 -0.1257 -0.1199 -0.0940
 4456SOL    HW115136   3.926   9.012   0.586 -0.2927 -0.0586 -0.1198
 4456SOL    HW215137   4.026   9.106   0.521 -2.0876  0.5543 -2.1259
 4457SOL     OW15138   1.350   2.797   5.162  0.2063 -0.1709  0.2559
 4457SOL    HW115139   1.394   2.800   5.246  1.4338 -0.0658 -0.3693
 4457SOL    HW215140   1.397   2.731   5.111  1.1011  1.4601 -1.1797
 4458SOL     OW15141   5.657   2.629   4.856  0.9442  0.3399  0.4643
 4458SOL    HW115142   5.570   2.664   4.876  1.1805  1.3850 -0.2422
 4458SOL    HW215143   5.675   2.660   4.767  1.0563 -1.8539 -0.3341
 4459SOL     OW15144   4.843   5.504   2.033 -0.7556 -0.1581 -0.2692
 4459SOL    HW115145   4.916   5.455   2.071  0.3832 -0.1545 -2.3142
 4459SOL    HW215146   4.852   5.592   2.070  0.0292 -0.2660 -0.1841
 4460SOL     OW15147   0.760   7.443   5.512 -0.8504  0.0565  0.6154
 4460SOL    HW115148   0.749   7.455   5.417  1.1989 -1.4842  0.1188
 4460SOL    HW215149   0.713   7.363   5.532 -1.4781  0.5058  0.9610
 4461SOL     OW15150   2.172   5.755   4.903  0.1759  0.4566  0.5927
 4461SOL    HW115151   2.243   5.813   4.930 -1.0227  0.8837  3.1684
 4461SOL    HW215152   2.105   5.814   4.867  1.2610 -0.0017 -2.4578
 4462SOL     OW15153   7.380   4.447   2.199 -0.6807 -0.0244  0.3376
 4462SOL    HW115154   7.363   4.519   2.260 -1.1354 -0.2106  0.4386
 4462SOL    HW215155   7.475   4.441   2.194 -0.6379  0.0942  0.9118
 4463SOL     OW15156   5.343   4.405   8.993  0.0456 -0.5665  0.1599
 4463SOL    HW115157   5.358   4.443   9.079 -0.3722 -0.7580  0.3181
 4463SOL    HW215158   5.254   4.371   8.996  0.0936 -0.7456 -0.2839
 4464SOL     OW15159   3.409   0.642   0.419  0.6349 -0.1391  0.6335
 4464SOL    HW115160   3.363   0.723   0.398  1.3946 -0.1483 -1.2959
 4464SOL    HW215161   3.394   0.629   0.512  0.3386  2.1164  0.9501
 4465SOL     OW15162   0.513   8.281   0.265  0.7958 -0.2443 -0.2427
 4465SOL    HW115163   0.577   8.215   0.290  1.3212 -0.3362 -1.7755
 4465SOL    HW215164   0.515   8.283   0.170  0.3608  1.5601 -0.2551
 4466SOL     OW15165   6.784   8.314   1.315 -0.0270 -0.2174 -0.2989
 4466SOL    HW115166   6.765   8.319   1.409 -1.2358 -1.5836 -0.4238
 4466SOL    HW215167   6.824   8.227   1.304 -0.1106 -0.1615 -1.0735
 4467SOL     OW15168   0.067   5.613   0.073 -0.0283  0.0290 -0.1823
 4467SOL    HW115169   0.090   5.522   0.058 -1.4724 -0.0976 -1.9219
 4467SOL    HW215170   0.114   5.662   0.006  2.3800  0.9000  1.9771
 4468SOL     OW15171   2.516   5.522   2.682  0.3390 -0.2929  0.7175
 4468SOL    HW115172   2.539   5.434   2.712 -0.9994 -0.6176  0.8314
 4468SOL    HW215173   2.428   5.537   2.716 -0.1456  0.3993 -0.7507
 4469SOL     OW15174   9.166   5.817   7.339 -0.1802 -0.1687  0.5996
 4469SOL    HW115175   9.102   5.750   7.364 -2.0317  0.7041 -1.4202
 4469SOL    HW215176   9.118   5.900   7.343  0.8305  0.5457 -0.8326
 4470SOL     OW15177   6.148   7.019   0.187 -0.3099 -0.6305 -0.1766
 4470SOL    HW115178   6.056   7.043   0.174 -0.0939 -1.1504 -3.3511
 4470SOL    HW215179   6.147   6.923   0.187  0.2766 -0.6389 -0.7237
 4471SOL     OW15180   8.662   8.086   9.236 -0.3346  0.4041  0.4518
 4471SOL    HW115181   8.607   8.140   9.179  2.3595  3.3753  0.3532
 4471SOL    HW215182   8.693   8.015   9.180  1.4802  2.7148 -1.6906
 4472SOL     OW15183   8.576   0.125   5.918  0.0758 -0.0425 -0.3906
 4472SOL    HW115184   8.663   0.143   5.882 -0.1529  0.6569 -0.6087
 4472SOL    HW215185   8.557   0.201   5.973  0.4716 -1.1487  1.3445
 4473SOL     OW15186   6.766   8.994   3.100  0.7350 -0.0084  0.2025
 4473SOL    HW115187   6.775   8.908   3.059 -0.6800 -0.3642  0.5865
 4473SOL    HW215188   6.784   9.056   3.029  0.5845 -0.6197 -0.3823
 4474SOL     OW15189   5.923   0.521   1.962  0.1260  0.2121 -0.0298
 4474SOL    HW115190   5.933   0.607   1.921 -0.8233  0.5536  0.4211
 4474SOL    HW215191   5.889   0.464   1.893 -0.1638  0.4403 -0.0759
 4475SOL     OW15192   7.832   8.808   5.372  0.2261  0.1487  0.2970
 4475SOL    HW115193   7.772   8.812   5.297  0.5757 -1.1126 -0.0706
 4475SOL    HW215194   7.777   8.831   5.447 -1.0617 -2.0917  0.1221
 4476SOL     OW15195   3.572   1.862   7.044  0.1367  0.1699  0.3083
 4476SOL    HW115196   3.623   1.916   6.984 -0.5478 -0.8123 -1.2365
 4476SOL    HW215197   3.616   1.777   7.043 -0.9802 -0.4315 -0.3790
 4477SOL     OW15198   0.368   9.681   2.379 -1.2655 -0.1038 -0.4757
 4477SOL    HW115199   0.277   9.696   2.405 -1.1694 -0.3292 -0.0001
 4477SOL    HW215200   0.417   9.682   2.461 -0.4604  2.4541 -0.8751
 4478SOL     OW15201   3.249   0.119   2.905  0.2161 -0.3606  0.1957
 4478SOL    HW115202   3.312   0.190   2.911  0.0229 -0.0220 -1.3305
 4478SOL    HW215203   3.295   0.050   2.858 -0.2233 -0.4898 -0.0546
 4479SOL     OW15204   8.373   5.299   8.778  0.3025  0.3274  0.5428
 4479SOL    HW115205   8.460   5.262   8.767  0.3194  0.7060 -0.7535
 4479SOL    HW215206   8.375   5.382   8.730 -1.4006 -0.6848 -1.4703
 4480SOL     OW15207   9.839   5.328   4.275 -0.4390  0.2533  0.0012
 4480SOL    HW115208   9.854   5.399   4.337 -0.0709 -0.6083  0.9108
 4480SOL    HW215209   9.814   5.373   4.194 -0.1168  1.4240  0.5247
 4481SOL     OW15210   6.966   3.658   5.547 -0.9938  0.2216 -0.3384
 4481SOL    HW115211   6.914   3.590   5.505 -2.1690 -0.8269  2.5696
 4481SOL    HW215212   6.915   3.738   5.536 -0.7010  0.2357 -1.8162
 4482SOL     OW15213   5.490   1.079   6.646 -0.2870 -0.6304  0.2409
 4482SOL    HW115214   5.474   1.032   6.727  0.4948 -0.0117  0.7697
 4482SOL    HW215215   5.535   1.016   6.590  0.3772 -0.6608  0.7908
 4483SOL     OW15216   3.411   7.803   5.943 -0.1185  0.2473  0.5913
 4483SOL    HW115217   3.494   7.755   5.945 -1.1814 -1.6853  2.3170
 4483SOL    HW215218   3.398   7.830   6.034 -1.3550  0.5879  0.3260
 4484SOL     OW15219   4.992   9.326   7.980  0.2097  0.1811 -0.4850
 4484SOL    HW115220   4.948   9.400   8.021  2.1505  0.7104  0.7436
 4484SOL    HW215221   5.035   9.280   8.052  0.3181 -1.2826 -1.4295
 4485SOL     OW15222   4.446   5.465   1.837 -0.1651 -0.1782 -0.0545
 4485SOL    HW115223   4.517   5.527   1.821 -0.1500 -0.3577 -0.7204
 4485SOL    HW215224   4.461   5.394   1.775 -1.3476  0.1378 -0.7485
 4486SOL     OW15225   0.474   5.035   3.364 -0.3662 -0.6163  0.0759
 4486SOL    HW115226   0.395   4.982   3.362  0.1304 -1.3642 -0.6943
 4486SOL    HW215227   0.453   5.112   3.310 -0.2070 -1.3748 -1.1071
 4487SOL     OW15228   3.619   6.543   1.957 -0.5535  0.3170  0.5255
 4487SOL    HW115229   3.674   6.578   2.027 -0.8980  1.2512  0.3398
 4487SOL    HW215230   3.613   6.449   1.976  0.5368  0.3135  0.9326
 4488SOL     OW15231   5.037   3.486   1.615 -0.0555  0.1757 -0.1104
 4488SOL    HW115232   4.948   3.520   1.614  0.0693  0.7360  2.0503
 4488SOL    HW215233   5.085   3.542   1.554 -1.2882 -0.6376 -1.9210
 4489SOL     OW15234   5.274   2.736   3.582 -0.4677  0.3721  0.0707
 4489SOL    HW115235   5.190   2.733   3.536  0.3474 -0.7796 -1.4150
 4489SOL    HW215236   5.283   2.648   3.620  0.2580  0.3567 -0.1309
 4490SOL     OW15237   8.063   4.373   8.750  0.3656 -0.3486 -0.0915
 4490SOL    HW115238   8.142   4.365   8.697  0.8456  1.0182  0.3833
 4490SOL    HW215239   8.045   4.467   8.754 -0.6679 -0.5556  0.7103
 4491SOL     OW15240   1.645   3.991   5.908  0.2397 -0.6439 -1.2242
 4491SOL    HW115241   1.588   3.981   5.985  0.1810 -0.4657 -1.2425
 4491SOL    HW215242   1.588   4.032   5.842  1.1569  2.4186 -0.2703
 4492SOL     OW15243   2.882   2.079   8.193  0.1361  0.1384  0.8592
 4492SOL    HW115244   2.833   2.079   8.111 -0.2366  2.7483  1.0068
 4492SOL    HW215245   2.816   2.064   8.260  0.4284 -1.9092  0.7395
 4493SOL     OW15246   0.188   9.630   6.850  0.3032  0.0632  0.3470
 4493SOL    HW115247   0.117   9.587   6.802  0.9872 -2.6346  1.5616
 4493SOL    HW215248   0.251   9.655   6.782  0.0939 -1.3843 -0.4183
 4494SOL     OW15249   0.191   3.052   6.003  0.4179  0.4111 -0.0247
 4494SOL    HW115250   0.185   2.965   5.963  0.7718  0.8088 -0.9586
 4494SOL    HW215251   0.160   3.039   6.093 -1.8079 -0.2307 -0.8020
 4495SOL     OW15252   0.715   3.246   8.297  0.2398  0.5053 -0.0007
 4495SOL    HW115253   0.797   3.215   8.259  0.1627  2.3204 -1.8050
 4495SOL    HW215254   0.738   3.330   8.338 -0.4626  0.3947  0.6327
 4496SOL     OW15255   7.640   0.343   2.244 -0.0051 -0.3521 -0.2761
 4496SOL    HW115256   7.643   0.414   2.180  0.3356  0.4031  0.5520
 4496SOL    HW215257   7.559   0.358   2.292  2.0083  2.1417  2.7742
 4497SOL     OW15258   3.025   2.717   6.919  0.0883 -0.2476  0.1913
 4497SOL    HW115259   2.953   2.699   6.859  1.1223  0.3539 -1.2918
 4497SOL    HW215260   2.994   2.791   6.972 -0.0839  0.5939 -1.0263
 4498SOL     OW15261   8.812   8.056   7.319  0.4659 -0.5155 -0.5878
 4498SOL    HW115262   8.854   8.083   7.401  0.0320  0.0344 -0.5471
 4498SOL    HW215263   8.885   8.025   7.265  0.6948 -1.4621  0.2153
 4499SOL     OW15264   3.320   3.709   0.873  0.1029  0.0355 -0.4903
 4499SOL    HW115265   3.387   3.776   0.882  0.4060 -0.4937  2.4439
 4499SOL    HW215266   3.299   3.706   0.780  3.4921  0.8491 -1.3849
 4500SOL     OW15267   7.183   5.066   2.580  0.3070 -0.4843  0.2289
 4500SOL    HW115268   7.265   5.115   2.574  0.2468 -0.3301  0.6178
 4500SOL    HW215269   7.178   5.040   2.672 -0.1764 -0.3291  0.2481
 4501SOL     OW15270   8.088   3.526   3.810 -0.1350  0.1602  0.0288
 4501SOL    HW115271   8.116   3.443   3.771  2.2611 -0.0003  1.8645
 4501SOL    HW215272   8.019   3.502   3.872 -1.5653 -0.0016 -1.5486
 4502SOL     OW15273   0.116   9.269   6.921 -0.3609  0.5252  0.0208
 4502SOL    HW115274   0.098   9.299   6.832  1.2691 -0.7845 -0.8160
 4502SOL    HW215275   0.046   9.207   6.940  0.5903 -1.0571 -1.3675
 4503SOL     OW15276   8.143   7.427   0.869  0.5597  0.2277 -0.0431
 4503SOL    HW115277   8.176   7.517   0.872  0.3133  0.3134  0.0631
 4503SOL    HW215278   8.218   7.376   0.839  1.2662  0.2019  1.6878
 4504SOL     OW15279   2.976   6.092   4.765 -0.0444  0.1752 -0.0271
 4504SOL    HW115280   2.973   6.167   4.825 -0.7123 -0.6761  1.0452
 4504SOL    HW215281   2.885   6.071   4.748  0.1217  0.7635 -1.8711
 4505SOL     OW15282   1.445   8.136   1.924  0.4592 -0.1744 -0.5292
 4505SOL    HW115283   1.416   8.051   1.958  0.8611 -0.4212 -0.7931
 4505SOL    HW215284   1.485   8.115   1.840 -0.1322  0.3746 -0.9512
 4506SOL     OW15285   1.553   6.034   6.404  0.1418 -0.3559  0.2426
 4506SOL    HW115286   1.575   6.105   6.344  1.2835 -2.1267 -1.5762
 4506SOL    HW215287   1.637   6.009   6.444  0.1632 -1.9108 -0.6628
 4507SOL     OW15288   5.831   9.574   7.119  0.5897  0.7825 -0.0850
 4507SOL    HW115289   5.771   9.506   7.148  0.5073 -0.0631 -2.1050
 4507SOL    HW215290   5.865   9.613   7.200 -0.8664 -0.3095  1.0866
 4508SOL     OW15291   7.283   9.208   3.561 -0.1026  0.0649 -0.6559
 4508SOL    HW115292   7.319   9.218   3.649 -0.5082 -0.3353 -0.4404
 4508SOL    HW215293   7.333   9.269   3.507 -0.5615  1.0715  0.0409
 4509SOL     OW15294   1.437   2.608   0.788 -0.2964 -0.0785 -0.0168
 4509SOL    HW115295   1.353   2.600   0.743 -0.0553  0.2472 -0.5390
 4509SOL    HW215296   1.414   2.643   0.874 -0.5893  1.2470 -0.6110
 4510SOL     OW15297   1.475   6.076   3.718  0.0170 -0.0004 -0.3315
 4510SOL    HW115298   1.558   6.042   3.687 -0.2636 -0.1400 -0.9402
 4510SOL    HW215299   1.447   6.139   3.651  0.6234  1.6143  0.8629
 4511SOL     OW15300   8.168   7.395   6.260  0.4811  0.2293  0.4110
 4511SOL    HW115301   8.254   7.435   6.271  0.6843 -0.3450  0.9956
 4511SOL    HW215302   8.107   7.458   6.298  0.6799  0.4455  0.3756
 4512SOL     OW15303   2.759   8.596   5.579  0.3709  0.5390 -0.0083
 4512SOL    HW115304   2.693   8.637   5.634  0.7629  2.4593 -0.8888
 4512SOL    HW215305   2.830   8.572   5.639 -0.5322 -0.3156  0.7390
 4513SOL     OW15306   4.670   1.885   3.339 -0.3967  0.4361  0.4912
 4513SOL    HW115307   4.722   1.819   3.292  1.5715  1.7649  0.6796
 4513SOL    HW215308   4.609   1.919   3.273  0.5959  0.4898 -0.4345
 4514SOL     OW15309   7.974   6.026   1.512 -0.1273 -0.1174  0.4101
 4514SOL    HW115310   8.022   6.054   1.590 -0.3840  0.0837  0.4950
 4514SOL    HW215311   8.031   6.050   1.439 -0.3265  0.6100  0.4806
 4515SOL     OW15312   6.775   7.072   6.968  0.3798  0.2326 -0.0012
 4515SOL    HW115313   6.782   6.977   6.959  2.5297  0.4028 -0.8166
 4515SOL    HW215314   6.855   7.097   7.014  0.1021  1.7139 -0.2834
 4516SOL     OW15315   1.391   4.410   5.483  0.2465  0.1213  0.5894
 4516SOL    HW115316   1.468   4.413   5.426  0.7603  2.3716  1.2838
 4516SOL    HW215317   1.422   4.444   5.567 -0.9925 -1.1427  1.6082
 4517SOL     OW15318   3.285   3.831   3.329 -0.3728  0.0898 -0.0461
 4517SOL    HW115319   3.282   3.915   3.284  1.2737  0.0781 -0.2215
 4517SOL    HW215320   3.375   3.800   3.317 -0.1876 -0.4478  2.2825
 4518SOL     OW15321   6.298   8.474   1.106 -0.0372 -0.6325  0.0316
 4518SOL    HW115322   6.358   8.532   1.152  0.7025 -0.0697 -1.5653
 4518SOL    HW215323   6.336   8.387   1.114  0.2356 -0.4947  0.2307
 4519SOL     OW15324   0.695   8.685   1.131  0.6628  1.0451  0.1673
 4519SOL    HW115325   0.651   8.660   1.212  0.0937 -1.9031 -0.9292
 4519SOL    HW215326   0.788   8.668   1.147  0.7033  1.5848  0.5432
 4520SOL     OW15327   3.189   6.554   1.673 -0.0132  0.0929 -0.1538
 4520SOL    HW115328   3.272   6.508   1.672 -0.3854 -0.6410 -2.2464
 4520SOL    HW215329   3.141   6.520   1.597 -1.8215  1.2188  0.4010
 4521SOL     OW15330   4.229   4.166   3.695 -0.6170 -0.5452  0.5022
 4521SOL    HW115331   4.250   4.177   3.602  2.5605  0.2928  1.1914
 4521SOL    HW215332   4.152   4.220   3.709  1.8889  3.7784 -0.7035
 4522SOL     OW15333   1.718   2.731   8.523 -0.2255  0.2190 -0.0142
 4522SOL    HW115334   1.813   2.722   8.531 -0.2607 -0.3184 -0.1716
 4522SOL    HW215335   1.687   2.747   8.612 -0.2223 -1.8704  0.4068
 4523SOL     OW15336   4.210   6.598   4.080  0.6021  0.3126 -0.2498
 4523SOL    HW115337   4.179   6.509   4.097  1.2724  0.1322  0.0707
 4523SOL    HW215338   4.133   6.645   4.050  0.0210 -0.1167  0.5492
 4524SOL     OW15339   0.222   4.417   1.344  0.0196  0.4043 -0.6379
 4524SOL    HW115340   0.144   4.389   1.296 -0.5587 -0.6350  0.8529
 4524SOL    HW215341   0.278   4.340   1.346 -0.3936  0.1030  1.1454
 4525SOL     OW15342   8.744   1.351   3.276 -0.3531 -0.7269  0.1160
 4525SOL    HW115343   8.836   1.376   3.273 -0.9551  2.0301  0.9915
 4525SOL    HW215344   8.738   1.273   3.222  2.5814 -1.3604  0.5279
 4526SOL     OW15345   9.629   6.714   1.768 -0.2088 -0.2798 -0.1812
 4526SOL    HW115346   9.650   6.721   1.675 -2.1137  0.0911 -0.6101
 4526SOL    HW215347   9.540   6.748   1.776  0.7114  1.8516  2.1508
 4527SOL     OW15348   2.951   1.284   6.075  0.1623 -0.5970 -0.3750
 4527SOL    HW115349   2.962   1.312   6.166  0.3609 -1.5417 -0.1051
 4527SOL    HW215350   2.858   1.299   6.057 -0.2995 -2.1208  0.5849
 4528SOL     OW15351   4.893   9.400   7.077  0.3503 -0.1783  0.3652
 4528SOL    HW115352   4.828   9.459   7.117  0.2875  1.0027 -1.3796
 4528SOL    HW215353   4.950   9.458   7.028  1.3121 -1.4499 -0.0586
 4529SOL     OW15354   7.697   1.639   8.389  0.4389  0.0382 -0.6428
 4529SOL    HW115355   7.603   1.622   8.394  0.0162  2.4460  1.5469
 4529SOL    HW215356   7.735   1.588   8.461  0.3034  1.6282  0.5966
 4530SOL     OW15357   8.225   5.674   9.320  0.4487  0.7326 -0.1843
 4530SOL    HW115358   8.245   5.680   9.413 -1.3744 -1.5856  0.4611
 4530SOL    HW215359   8.161   5.744   9.304 -1.0598 -0.3158  0.9516
 4531SOL     OW15360   6.893   0.912   5.423 -0.5539 -0.0360 -0.4602
 4531SOL    HW115361   6.885   0.973   5.497 -1.9488  0.4734 -0.9895
 4531SOL    HW215362   6.972   0.940   5.378 -0.8754  1.0612 -0.3805
 4532SOL     OW15363   1.172   4.652   4.534 -0.1741  0.0861 -0.7013
 4532SOL    HW115364   1.177   4.565   4.495 -0.2888 -0.5017  0.5334
 4532SOL    HW215365   1.256   4.693   4.511 -0.2049 -0.2643 -1.4646
 4533SOL     OW15366   5.049   4.975   8.126  0.0587  0.3304  0.4757
 4533SOL    HW115367   5.140   4.954   8.103  0.0490 -0.7694  1.3135
 4533SOL    HW215368   5.047   5.070   8.131  1.1644  0.3789  0.3937
 4534SOL     OW15369   5.128   0.398   2.596 -0.0506 -0.0380 -0.4900
 4534SOL    HW115370   5.109   0.460   2.667  2.7908 -0.3567  0.6552
 4534SOL    HW215371   5.097   0.314   2.629  0.9952 -0.1334  0.3027
 4535SOL     OW15372   5.461   3.226   5.198  0.3445  0.2916 -0.3629
 4535SOL    HW115373   5.377   3.270   5.180 -0.7211 -1.5124  0.0260
 4535SOL    HW215374   5.482   3.181   5.116 -0.0594 -0.8045  0.1185
 4536SOL     OW15375   5.061   9.332   9.027 -0.1617  0.2963  0.3296
 4536SOL    HW115376   4.966   9.338   9.036 -0.0289  2.3273  0.8524
 4536SOL    HW215377   5.085   9.403   8.967  1.1486  0.8159  1.4004
 4537SOL     OW15378   2.182   0.930   3.017  0.4719 -0.4558  0.1070
 4537SOL    HW115379   2.191   0.840   3.050  2.1289 -0.7381 -0.9526
 4537SOL    HW215380   2.127   0.922   2.939  0.1255 -0.4596  0.3524
 4538SOL     OW15381   4.246   0.603   9.826 -0.0189 -0.3402 -0.1543
 4538SOL    HW115382   4.156   0.636   9.834  0.1337 -0.1451  0.9111
 4538SOL    HW215383   4.260   0.552   9.906  1.2874  0.7932  0.3708
 4539SOL     OW15384   1.495   5.405   0.062  0.3024  0.5686 -0.2001
 4539SOL    HW115385   1.548   5.403   0.142 -1.3661  0.0650  0.9463
 4539SOL    HW215386   1.531   5.478   0.011  2.0335  0.2771  0.5376
 4540SOL     OW15387   9.727   0.136   2.939  0.2653 -0.6059  0.4709
 4540SOL    HW115388   9.716   0.231   2.946  1.3310 -0.4352  0.0211
 4540SOL    HW215389   9.660   0.108   2.877  1.8141  0.3131 -1.7779
 4541SOL     OW15390   3.115   1.647   7.098  0.2081 -0.1059 -0.1765
 4541SOL    HW115391   3.159   1.661   7.182 -0.9050 -0.5505  0.4900
 4541SOL    HW215392   3.181   1.602   7.045  0.3410 -1.4431  1.0606
 4542SOL     OW15393   1.280   7.025   2.824 -0.3299 -0.4560 -0.1760
 4542SOL    HW115394   1.332   7.017   2.745  1.7277  1.1099  0.9127
 4542SOL    HW215395   1.201   6.973   2.807  1.9287 -3.7661 -1.5825
 4543SOL     OW15396   3.886   3.647   1.520 -0.1117  0.4336  0.5305
 4543SOL    HW115397   3.854   3.704   1.450 -2.1345 -0.3212  0.7577
 4543SOL    HW215398   3.919   3.707   1.587 -1.2714  1.3396  0.3362
 4544SOL     OW15399   8.096   6.602   8.539  0.0103 -0.3709  0.2674
 4544SOL    HW115400   8.059   6.661   8.605 -0.5289 -0.9648  0.5131
 4544SOL    HW215401   8.122   6.524   8.589  0.1424 -0.5899 -0.1391
 4545SOL     OW15402   0.258   9.722   6.245  0.0402 -0.3228  0.3692
 4545SOL    HW115403   0.340   9.699   6.288 -0.4482 -0.2544  1.3614
 4545SOL    HW215404   0.270   9.694   6.154  0.9027 -0.9265  0.6543
 4546SOL     OW15405   5.261   8.138   7.366 -0.1753 -0.0437  0.2723
 4546SOL    HW115406   5.346   8.132   7.410 -1.3217 -0.6719  2.5657
 4546SOL    HW215407   5.280   8.117   7.275  2.0568 -0.6486  0.8078
 4547SOL     OW15408   5.552   8.679   7.527  0.3623 -0.2054  0.3930
 4547SOL    HW115409   5.619   8.681   7.458 -1.0414  0.3591 -1.0097
 4547SOL    HW215410   5.556   8.765   7.567 -1.0153  0.6866 -1.2453
 4548SOL     OW15411   5.675   9.088   2.187 -0.0218 -0.1884  0.2791
 4548SOL    HW115412   5.639   9.013   2.234 -1.0996  0.8084  1.1034
 4548SOL    HW215413   5.629   9.088   2.103  1.3072 -1.4856 -0.4884
 4549SOL     OW15414   0.009   6.575   0.669  0.0699  0.5648 -0.2741
 4549SOL    HW115415   0.076   6.548   0.606 -0.5104  2.7182 -1.9452
 4549SOL    HW215416  -0.074   6.545   0.632 -0.1712  0.7652  0.0943
 4550SOL     OW15417   9.106   0.234   0.659 -0.1500 -1.1106  0.1071
 4550SOL    HW115418   9.147   0.211   0.743  0.6046 -0.1505  0.0154
 4550SOL    HW215419   9.102   0.329   0.659  1.5732 -0.9682 -1.7017
 4551SOL     OW15420   3.371   1.270   2.248 -0.4346 -0.4466 -0.5437
 4551SOL    HW115421   3.313   1.195   2.267  1.2915 -1.9648 -0.9605
 4551SOL    HW215422   3.451   1.252   2.298 -0.6332  2.1535  0.8960
 4552SOL     OW15423   8.376   9.708   0.443 -0.1113  0.6908  0.0165
 4552SOL    HW115424   8.380   9.709   0.539 -0.3077 -0.2463  0.0464
 4552SOL    HW215425   8.412   9.792   0.417  0.2415  0.8310  0.9040
 4553SOL     OW15426   5.770   5.723   8.757 -0.0422  0.3403 -0.0775
 4553SOL    HW115427   5.813   5.768   8.685  1.1597  2.1011  1.6617
 4553SOL    HW215428   5.676   5.731   8.738  0.2313  1.6388 -0.9479
 4554SOL     OW15429   3.518   5.937   8.565  0.0953  0.1098 -0.2347
 4554SOL    HW115430   3.601   5.918   8.608  0.7624 -0.5115 -1.7313
 4554SOL    HW215431   3.475   6.001   8.622  1.7813  0.7699  0.3473
 4555SOL     OW15432   1.867   4.276   0.742 -0.1203  0.0125  0.2948
 4555SOL    HW115433   1.961   4.268   0.759 -0.4035  0.8618  2.6746
 4555SOL    HW215434   1.854   4.236   0.656  2.3583 -0.4055  0.0543
 4556SOL     OW15435   0.222   3.282   0.273  0.2570  0.3642 -0.0893
 4556SOL    HW115436   0.201   3.204   0.220 -2.8120  0.8970  0.1426
 4556SOL    HW215437   0.224   3.353   0.210  1.0913  0.3899 -0.0407
 4557SOL     OW15438   2.595   6.421   9.801  0.2789 -0.2129  0.0105
 4557SOL    HW115439   2.567   6.342   9.848 -0.4509  0.5272  0.8517
 4557SOL    HW215440   2.600   6.488   9.869  0.5962  0.5430 -0.7511
 4558SOL     OW15441   1.568   6.392   4.390 -0.0945  0.4306  0.1932
 4558SOL    HW115442   1.473   6.404   4.387 -0.4395 -1.8563  0.1364
 4558SOL    HW215443   1.591   6.407   4.481 -0.6744 -0.0247  0.4190
 4559SOL     OW15444   2.592   4.346   9.127  0.7629 -0.1405 -0.3953
 4559SOL    HW115445   2.618   4.320   9.215 -0.5961  1.2802  0.4749
 4559SOL    HW215446   2.523   4.285   9.103 -0.0893  0.5511  0.2621
 4560SOL     OW15447   6.120   4.565   6.047 -0.1245 -0.1255 -0.0195
 4560SOL    HW115448   6.073   4.611   6.116  0.1123 -1.8159  1.3481
 4560SOL    HW215449   6.177   4.631   6.008 -2.0469  1.4519 -0.2875
 4561SOL     OW15450   7.939   5.596   8.380  0.2633  0.0686  0.2005
 4561SOL    HW115451   7.873   5.605   8.449  0.5840 -3.7440  1.2429
 4561SOL    HW215452   7.891   5.612   8.298 -1.3623 -0.2186  1.0557
 4562SOL     OW15453   0.724   7.056   3.452  0.7602 -0.0556  0.1856
 4562SOL    HW115454   0.704   7.148   3.438  0.2583 -0.2280 -0.2323
 4562SOL    HW215455   0.688   7.011   3.376  0.7965 -0.6272  0.4999
 4563SOL     OW15456   1.246   6.525   4.883  0.2795 -0.4636 -0.8953
 4563SOL    HW115457   1.342   6.525   4.876  0.3796 -1.1879  0.2191
 4563SOL    HW215458   1.225   6.441   4.924 -0.9438 -0.8341 -2.2221
 4564SOL     OW15459   5.374   7.422   2.983  0.5473 -0.0646  0.1222
 4564SOL    HW115460   5.450   7.437   3.039  0.0514 -1.8079  1.3501
 4564SOL    HW215461   5.305   7.393   3.043 -0.8260  0.5698 -1.0757
 4565SOL     OW15462   3.253   6.212   8.933  0.5770 -0.0819 -0.0453
 4565SOL    HW115463   3.296   6.127   8.929  0.6922 -0.0015 -0.7779
 4565SOL    HW215464   3.185   6.202   8.999  1.0151 -0.5402  0.3445
 4566SOL     OW15465   0.549   0.084   3.794 -0.2339 -0.3244  0.4577
 4566SOL    HW115466   0.472   0.102   3.848  0.5287  0.0688  1.4401
 4566SOL    HW215467   0.525   0.116   3.707 -0.3573  1.9783  1.2760
 4567SOL     OW15468   3.688   7.981   3.410  0.2739 -0.0214 -0.1338
 4567SOL    HW115469   3.783   7.992   3.416 -0.1010  3.2374  1.6757
 4567SOL    HW215470   3.653   8.070   3.406 -2.8430 -0.9486  2.2628
 4568SOL     OW15471   0.976   5.904   1.772  0.0302  0.1613  0.3289
 4568SOL    HW115472   1.042   5.853   1.725 -0.8326  0.1549 -0.9462
 4568SOL    HW215473   0.896   5.852   1.764 -0.9936  1.8339 -1.3976
 4569SOL     OW15474   7.892   6.865   5.527  0.0651  0.0533 -0.3359
 4569SOL    HW115475   7.917   6.845   5.618  0.8016  0.3343 -0.4718
 4569SOL    HW215476   7.924   6.954   5.512 -2.0065  0.8879 -0.1681
 4570SOL     OW15477   6.419   2.484   5.898 -0.5055  0.4408 -0.3586
 4570SOL    HW115478   6.391   2.508   5.987  0.6025  1.2165 -0.1945
 4570SOL    HW215479   6.349   2.428   5.865 -0.9107  0.0905  1.0311
 4571SOL     OW15480   7.796   8.039   2.967 -0.2691  0.3643  0.6043
 4571SOL    HW115481   7.818   8.020   2.876 -2.2611 -0.4979  0.2345
 4571SOL    HW215482   7.717   7.987   2.983 -1.6775  2.7446  1.9045
 4572SOL     OW15483   4.431   8.746   1.719  0.7297 -0.1136  0.5351
 4572SOL    HW115484   4.420   8.810   1.789 -0.9660  0.1413  0.0681
 4572SOL    HW215485   4.373   8.674   1.743 -1.0714  0.6250 -1.3004
 4573SOL     OW15486   4.797   1.319   4.641  0.5170  0.3570 -0.1694
 4573SOL    HW115487   4.780   1.302   4.549  1.2911 -0.4962 -0.1672
 4573SOL    HW215488   4.812   1.413   4.646 -3.8593  1.2738 -0.2017
 4574SOL     OW15489   6.475   9.206   0.231  0.0147 -0.6197  0.8568
 4574SOL    HW115490   6.424   9.154   0.293 -0.0499  0.2675  1.5655
 4574SOL    HW215491   6.419   9.281   0.211  0.2784 -0.5973  0.1723
 4575SOL     OW15492   9.479   6.789   7.774  0.2454  0.1077  0.3581
 4575SOL    HW115493   9.428   6.709   7.789  0.1918  0.1306  0.3029
 4575SOL    HW215494   9.456   6.846   7.847  0.8531 -0.2088  0.7993
 4576SOL     OW15495   1.903   7.678   6.708  0.4002  0.2920  0.3180
 4576SOL    HW115496   1.860   7.763   6.696 -1.6677  0.1259  4.6404
 4576SOL    HW215497   1.995   7.696   6.689 -0.2003  3.0558 -0.4996
 4577SOL     OW15498   8.677   4.529   3.322 -0.6443 -0.2150 -0.1592
 4577SOL    HW115499   8.653   4.621   3.329  1.1253  0.2217  1.1634
 4577SOL    HW215500   8.602   4.481   3.357 -1.5477  0.7290 -0.7835
 4578SOL     OW15501   4.353   4.381   9.837  0.5323 -0.4230 -0.3948
 4578SOL    HW115502   4.306   4.301   9.857  0.8754 -0.2056  1.3803
 4578SOL    HW215503   4.434   4.376   9.888  1.6497  0.0094 -2.0362
 4579SOL     OW15504   4.691   9.095   5.496  0.1286 -0.8649  0.3772
 4579SOL    HW115505   4.606   9.055   5.476  0.6284 -1.6804 -0.1753
 4579SOL    HW215506   4.718   9.054   5.579  0.4235 -1.3410  0.0523
 4580SOL     OW15507   2.221   8.008   4.775 -0.0052 -0.1988  0.2158
 4580SOL    HW115508   2.296   7.968   4.819 -0.1607 -0.5455  0.1698
 4580SOL    HW215509   2.251   8.097   4.754 -0.1540  0.2087  1.5989
 4581SOL     OW15510   0.265   6.977   1.358 -0.4940  0.0653 -0.2491
 4581SOL    HW115511   0.272   7.021   1.273  0.4223 -1.3170 -0.9257
 4581SOL    HW215512   0.173   6.953   1.365 -0.7063  0.7878 -0.5445
 4582SOL     OW15513   0.533   6.999   6.536 -0.4199 -0.0125 -0.1294
 4582SOL    HW115514   0.601   6.987   6.603 -1.0002  0.3897  0.5501
 4582SOL    HW215515   0.526   6.914   6.494  0.4586 -0.0764 -0.1593
 4583SOL     OW15516   2.713   9.810   6.498 -0.1071  0.1507  0.0304
 4583SOL    HW115517   2.776   9.764   6.442 -2.0982 -0.0883 -2.2003
 4583SOL    HW215518   2.684   9.743   6.560  0.7473 -0.1410  0.1289
 4584SOL     OW15519   7.880   6.852   6.501 -0.0056  0.6427 -0.1927
 4584SOL    HW115520   7.872   6.786   6.569  1.1607  0.2039 -0.4560
 4584SOL    HW215521   7.961   6.899   6.523  2.3462 -1.6976 -3.0499
 4585SOL     OW15522   2.228   9.502   2.331 -0.3102 -0.3121 -0.7697
 4585SOL    HW115523   2.275   9.422   2.308 -0.2521 -0.8179  0.9282
 4585SOL    HW215524   2.136   9.481   2.315 -0.1613 -0.1062 -1.9486
 4586SOL     OW15525   0.310   5.842   8.651  0.3385  0.9909  0.1115
 4586SOL    HW115526   0.313   5.747   8.666  0.3962  0.7016 -1.5232
 4586SOL    HW215527   0.220   5.867   8.672  0.1717  0.4755  0.0211
 4587SOL     OW15528   5.878   0.176   9.231 -0.1732 -0.1215 -0.0208
 4587SOL    HW115529   5.851   0.195   9.321 -2.5871  0.7728 -0.8346
 4587SOL    HW215530   5.944   0.242   9.212  0.3330 -0.2880  1.0649
 4588SOL     OW15531   5.046   2.454   0.892  0.0341  0.1637  0.1873
 4588SOL    HW115532   5.053   2.542   0.928  2.6939 -0.0692  0.4830
 4588SOL    HW215533   4.976   2.459   0.827  0.8242  2.8124 -0.5711
 4589SOL     OW15534   2.934   8.958   8.836  0.0134 -0.1523 -0.2442
 4589SOL    HW115535   2.936   8.973   8.930  1.3844 -1.5741 -0.0163
 4589SOL    HW215536   2.891   8.873   8.826 -2.5727  1.1591 -1.1262
 4590SOL     OW15537   5.147   1.906   4.504  0.2746 -0.2265 -0.1062
 4590SOL    HW115538   5.089   1.870   4.571 -1.8541  0.2766 -1.5745
 4590SOL    HW215539   5.233   1.869   4.523 -0.4041 -0.6213  2.4588
 4591SOL     OW15540   4.502   4.814   7.662  0.6442 -0.4226  0.5612
 4591SOL    HW115541   4.550   4.877   7.608 -1.6943  1.1633  0.1968
 4591SOL    HW215542   4.448   4.766   7.599 -0.8572  0.2834  1.2724
 4592SOL     OW15543   3.775   0.240   0.003  0.2152 -0.3337 -0.6012
 4592SOL    HW115544   3.681   0.226  -0.007 -0.0726  1.0752 -0.0996
 4592SOL    HW215545   3.815   0.157  -0.023 -1.1798 -1.0600 -0.4985
 4593SOL     OW15546   3.395   1.674   7.299  0.1364 -0.0620  0.4489
 4593SOL    HW115547   3.436   1.642   7.219 -2.0176  1.0577 -1.1944
 4593SOL    HW215548   3.467   1.712   7.349  1.8051 -2.1814 -0.1585
 4594SOL     OW15549   2.996   4.081   2.755 -0.0901 -0.3862 -0.2551
 4594SOL    HW115550   3.084   4.114   2.773 -0.2848  0.3871 -0.7029
 4594SOL    HW215551   2.946   4.098   2.835  0.0811 -0.5471 -0.1133
 4595SOL     OW15552   0.642   8.694   5.457 -0.4945 -0.5312  0.0448
 4595SOL    HW115553   0.735   8.719   5.457 -0.8046  1.0082 -2.3787
 4595SOL    HW215554   0.634   8.636   5.382 -1.5263 -0.4688  0.0963
 4596SOL     OW15555   2.239   3.220   4.048  0.3016 -0.0025  0.1114
 4596SOL    HW115556   2.201   3.257   3.969  1.3168  0.6555 -0.0864
 4596SOL    HW215557   2.205   3.130   4.051  1.7708 -0.7179 -2.1618
 4597SOL     OW15558   4.276   8.683   3.694  0.3025 -0.3094  0.3563
 4597SOL    HW115559   4.273   8.758   3.754 -0.4544 -0.3925  0.4341
 4597SOL    HW215560   4.227   8.615   3.739  0.5067 -0.6739  0.0332
 4598SOL     OW15561   6.603   4.775   1.649  0.5563  0.4976 -0.0956
 4598SOL    HW115562   6.507   4.769   1.652  0.6434 -1.4078  0.4309
 4598SOL    HW215563   6.627   4.824   1.728 -0.0481  3.6416 -1.6884
 4599SOL     OW15564   3.774   2.657   2.422 -0.1059 -0.2205  0.3744
 4599SOL    HW115565   3.751   2.718   2.352  0.3494  0.6011  0.9212
 4599SOL    HW215566   3.708   2.589   2.417  0.3147 -0.5425 -1.2940
 4600SOL     OW15567   5.672   8.331   1.342  0.2267  0.4802 -0.0139
 4600SOL    HW115568   5.701   8.290   1.423  0.9063 -0.1771 -0.5628
 4600SOL    HW215569   5.713   8.418   1.343  0.7106  0.2559  0.0837
 4601SOL     OW15570   0.197   3.674   3.063 -0.3991 -0.1490  0.0219
 4601SOL    HW115571   0.242   3.596   3.096 -0.9950 -0.3519  0.3760
 4601SOL    HW215572   0.261   3.716   3.006  0.3955 -0.1791  0.8745
 4602SOL     OW15573   5.488   0.757   5.629  0.7878  0.7305 -0.0337
 4602SOL    HW115574   5.493   0.683   5.568  2.1543  0.4465  0.4010
 4602SOL    HW215575   5.553   0.819   5.597  1.7099  0.4693  1.2455
 4603SOL     OW15576   5.960   4.280   6.362 -0.3611  0.1892 -0.2238
 4603SOL    HW115577   5.933   4.191   6.382 -0.2584  0.1710 -0.1602
 4603SOL    HW215578   5.925   4.333   6.434  0.9020 -0.0295  0.6012
 4604SOL     OW15579   8.886   9.341   3.151 -0.5205  0.0721  0.0065
 4604SOL    HW115580   8.876   9.363   3.244 -0.6612  1.2413 -0.2672
 4604SOL    HW215581   8.834   9.408   3.105 -0.5718 -0.5789 -0.9063
 4605SOL     OW15582   4.231   2.875   3.048  0.4951  0.5830 -0.5208
 4605SOL    HW115583   4.294   2.816   3.005 -0.9111 -0.9719 -0.5749
 4605SOL    HW215584   4.187   2.919   2.976 -0.1849 -0.2112 -0.6067
 4606SOL     OW15585   9.672   6.973   4.440 -0.2291  0.1843  0.5829
 4606SOL    HW115586   9.743   6.909   4.428  0.1628  0.6609  0.3152
 4606SOL    HW215587   9.617   6.962   4.363  0.6464  1.1725 -0.2138
 4607SOL     OW15588   7.735   8.348   1.187  0.1854 -0.3611  0.6326
 4607SOL    HW115589   7.749   8.387   1.100 -1.7494 -0.7672  0.0835
 4607SOL    HW215590   7.713   8.422   1.243 -0.9803 -0.3451  0.1824
 4608SOL     OW15591   4.122   6.228   0.867  0.1526 -0.1982 -0.6174
 4608SOL    HW115592   4.106   6.284   0.942 -0.6256 -2.2332  0.8197
 4608SOL    HW215593   4.047   6.242   0.810 -0.8231 -0.8722  0.4604
 4609SOL     OW15594   8.107   5.912   0.167 -0.1101  0.3127  0.0435
 4609SOL    HW115595   8.138   5.831   0.127 -0.2388  1.7048 -3.1652
 4609SOL    HW215596   8.171   5.930   0.237  0.7968 -1.7081 -0.2004
 4610SOL     OW15597   2.401   1.883   9.590 -0.3337  0.4351  0.1825
 4610SOL    HW115598   2.402   1.788   9.603 -1.1013  0.4685  0.5057
 4610SOL    HW215599   2.365   1.918   9.671  1.4959  1.1423  0.7545
 4611SOL     OW15600   9.487   8.544   2.780  0.2086 -0.1442  0.0890
 4611SOL    HW115601   9.582   8.535   2.776  0.1228 -0.6754 -1.2599
 4611SOL    HW215602   9.458   8.527   2.691 -1.0073  1.8655  0.0396
 4612SOL     OW15603   8.354   0.678   4.316  0.3875  0.2542  0.6260
 4612SOL    HW115604   8.389   0.767   4.317  1.0858  0.0061 -0.2676
 4612SOL    HW215605   8.402   0.634   4.246 -0.7186 -0.5116  0.3157
 4613SOL     OW15606   2.008   7.947   8.005 -1.1109 -0.4126  0.6926
 4613SOL    HW115607   1.978   7.866   7.962 -1.5864 -0.7100  1.5610
 4613SOL    HW215608   2.095   7.925   8.038 -0.6252 -0.0941 -0.3454
 4614SOL     OW15609   0.470   9.449   3.313  0.8406 -0.6619  0.3125
 4614SOL    HW115610   0.544   9.480   3.260  0.3898  0.4036  0.2713
 4614SOL    HW215611   0.458   9.358   3.287 -0.0097  0.0754 -2.2145
 4615SOL     OW15612   2.447   5.714   3.875 -0.2810  0.7946 -0.2085
 4615SOL    HW115613   2.406   5.671   3.800 -1.1821  2.6373 -0.8534
 4615SOL    HW215614   2.511   5.651   3.907  1.6044  0.6350 -3.7564
 4616SOL     OW15615   1.339   1.278   2.757 -0.0564 -0.1728  0.3430
 4616SOL    HW115616   1.433   1.285   2.775  0.0665 -0.2279 -0.2709
 4616SOL    HW215617   1.305   1.367   2.772  0.5240  0.4797 -1.8199
 4617SOL     OW15618   7.818   6.312   1.558 -0.0539 -0.1501 -0.6626
 4617SOL    HW115619   7.848   6.312   1.468 -0.9398 -2.5585 -1.0429
 4617SOL    HW215620   7.724   6.331   1.553 -0.2173 -0.8232 -0.3184
 4618SOL     OW15621   0.352   0.557   7.756  0.0539  0.1746  0.1298
 4618SOL    HW115622   0.444   0.564   7.732  0.1134  1.0342  0.5504
 4618SOL    HW215623   0.353   0.537   7.850 -0.1550  2.5218  0.6942
 4619SOL     OW15624   0.855   7.290   6.803 -0.3680 -0.1028 -0.0059
 4619SOL    HW115625   0.775   7.272   6.753  0.2881  0.9781 -1.5271
 4619SOL    HW215626   0.904   7.351   6.748 -0.0351  1.9325  2.4100
 4620SOL     OW15627   4.215   8.439   5.455  0.6480 -0.0976 -0.2095
 4620SOL    HW115628   4.249   8.391   5.531 -0.9219 -0.7804  0.1200
 4620SOL    HW215629   4.193   8.370   5.392 -2.0904  0.0511  0.4534
 4621SOL     OW15630   6.626   4.747   2.283 -0.4899  0.4018 -0.3940
 4621SOL    HW115631   6.681   4.749   2.205  0.5642  2.1178  0.3512
 4621SOL    HW215632   6.559   4.813   2.267  0.6947  1.9425  0.7962
 4622SOL     OW15633   2.411   7.977   6.262 -0.9712  0.6609 -0.0192
 4622SOL    HW115634   2.382   7.963   6.172 -0.0034 -0.1677 -0.2200
 4622SOL    HW215635   2.460   8.059   6.258  0.7730 -0.3736 -0.6872
 4623SOL     OW15636   3.198   4.294   4.995  0.0069  0.3318 -0.3585
 4623SOL    HW115637   3.251   4.219   5.021 -0.7246 -0.4472 -1.0549
 4623SOL    HW215638   3.132   4.258   4.935 -0.5361  1.4790 -0.4883
 4624SOL     OW15639   5.324   9.644   2.523  0.4680  0.6796 -0.0598
 4624SOL    HW115640   5.412   9.679   2.509  0.8561 -0.2702 -0.0332
 4624SOL    HW215641   5.270   9.722   2.540  1.4762  1.2054  0.8699
 4625SOL     OW15642   3.361   2.386   4.732 -0.0721 -0.8130  0.0154
 4625SOL    HW115643   3.381   2.472   4.769 -0.5736 -1.4657  1.9521
 4625SOL    HW215644   3.287   2.401   4.674 -1.1836 -0.1175  1.5230
 4626SOL     OW15645   7.282   7.846   9.159 -0.0247  0.2254 -0.9893
 4626SOL    HW115646   7.374   7.871   9.170 -0.1369  0.2368  0.0236
 4626SOL    HW215647   7.239   7.878   9.239 -1.2567  1.8034 -2.2271
 4627SOL     OW15648   4.819   7.863   4.015  0.1475  0.2281 -0.3809
 4627SOL    HW115649   4.843   7.938   3.960  1.0477 -0.3868 -0.8501
 4627SOL    HW215650   4.902   7.820   4.035 -0.1604  0.4223  1.4834
 4628SOL     OW15651   7.800   7.336   7.700 -0.0327  0.1817 -0.8239
 4628SOL    HW115652   7.782   7.420   7.657 -0.3200  0.1008 -0.8644
 4628SOL    HW215653   7.796   7.355   7.793  1.6146  0.5828 -0.7959
 4629SOL     OW15654   9.525   5.890   0.748 -0.0450  0.6845 -0.3094
 4629SOL    HW115655   9.446   5.869   0.698  0.3781  2.2692 -1.7150
 4629SOL    HW215656   9.562   5.805   0.771 -2.0969 -0.1013  0.3500
 4630SOL     OW15657   3.614   8.073   2.562  0.1071  0.3611 -0.2650
 4630SOL    HW115658   3.593   8.020   2.639  1.2117  1.3130  0.7240
 4630SOL    HW215659   3.680   8.022   2.515 -1.0480 -0.5301 -0.9669
 4631SOL     OW15660   1.591   8.137   3.105  0.5738 -0.0753  0.4170
 4631SOL    HW115661   1.508   8.103   3.140 -0.4326  0.5781 -1.2229
 4631SOL    HW215662   1.597   8.226   3.139  1.1487 -0.4639  1.3732
 4632SOL     OW15663   2.634   0.131   1.183  0.3788  0.0713 -0.5311
 4632SOL    HW115664   2.553   0.089   1.155 -1.0342  1.9400  0.5315
 4632SOL    HW215665   2.662   0.183   1.107 -0.0680  0.3190 -0.5293
 4633SOL     OW15666   9.033   9.782   4.459 -0.0568  0.2414 -0.6849
 4633SOL    HW115667   9.118   9.737   4.459  0.0051  0.0431  3.0298
 4633SOL    HW215668   9.021   9.809   4.368  4.1607  0.6575 -1.3521
 4634SOL     OW15669   8.791   1.574   5.566 -0.2980 -0.2627 -0.0068
 4634SOL    HW115670   8.750   1.543   5.647  0.0731 -2.1527 -0.5058
 4634SOL    HW215671   8.859   1.634   5.596 -0.9662  0.0383  0.9997
 4635SOL     OW15672   9.023   4.567   7.456 -0.4914 -0.3558 -0.1157
 4635SOL    HW115673   9.088   4.498   7.464  1.5791  1.2493 -1.8469
 4635SOL    HW215674   9.058   4.640   7.507 -1.0509  0.4561 -0.8513
 4636SOL     OW15675   8.392   5.159   0.989  0.0192 -0.0583  0.1529
 4636SOL    HW115676   8.428   5.236   1.034  0.8909  0.3740 -1.2333
 4636SOL    HW215677   8.455   5.090   1.006 -0.4220 -0.3059  0.8321
 4637SOL     OW15678   7.261   8.105   5.886 -0.4274  0.5362 -0.0015
 4637SOL    HW115679   7.170   8.104   5.916 -0.3785  0.2127  0.1418
 4637SOL    HW215680   7.262   8.045   5.811  0.1008 -1.1958  1.3218
 4638SOL     OW15681   4.473   1.818   6.283 -0.5496 -0.4387  0.5263
 4638SOL    HW115682   4.397   1.761   6.295 -0.1416 -0.7624  1.7488
 4638SOL    HW215683   4.530   1.798   6.358  0.9557 -0.5255 -0.6054
 4639SOL     OW15684   6.770   2.532   2.568  0.1484 -0.2904  0.0279
 4639SOL    HW115685   6.790   2.478   2.645  3.4869 -1.5084 -1.4801
 4639SOL    HW215686   6.716   2.476   2.513  2.6368 -1.8689 -1.0046
 4640SOL     OW15687   7.824   5.876   6.446 -0.7778 -0.5850 -0.3404
 4640SOL    HW115688   7.878   5.936   6.395 -0.6240  0.0413  0.5346
 4640SOL    HW215689   7.734   5.908   6.434 -0.6414  0.1863  0.5771
 4641SOL     OW15690   4.361   1.286   9.471 -0.8183 -0.0518 -0.3597
 4641SOL    HW115691   4.274   1.288   9.430  0.6952 -2.4450 -4.2025
 4641SOL    HW215692   4.365   1.201   9.515 -0.5620  0.2843  0.2860
 4642SOL     OW15693   5.113   4.599   8.366 -0.4848 -0.3547  0.1232
 4642SOL    HW115694   5.076   4.519   8.403 -0.7379 -0.3668 -0.1557
 4642SOL    HW215695   5.038   4.648   8.335 -0.2839 -0.2614 -0.2153
 4643SOL     OW15696   6.947   7.389   7.231 -0.0545  0.0882  0.5454
 4643SOL    HW115697   7.021   7.328   7.226  0.2076  0.4909 -1.5660
 4643SOL    HW215698   6.940   7.425   7.142 -1.5999  1.4820  1.1829
 4644SOL     OW15699   0.051   5.554   4.406  0.1502  0.2669  0.4058
 4644SOL    HW115700   0.044   5.602   4.323 -1.6226  1.5752  1.2323
 4644SOL    HW215701   0.010   5.613   4.470 -1.8408 -2.1851  1.5422
 4645SOL     OW15702   8.308   1.252   7.423 -0.7667 -0.3130  0.0608
 4645SOL    HW115703   8.265   1.173   7.390 -1.2047 -0.0788  0.0723
 4645SOL    HW215704   8.288   1.253   7.516  0.5997 -1.0596  0.3942
 4646SOL     OW15705   6.159   7.379   9.239  0.2641 -0.2900 -0.5346
 4646SOL    HW115706   6.118   7.303   9.198 -1.5120 -0.0267  0.6191
 4646SOL    HW215707   6.185   7.349   9.326  1.6014 -0.1427 -0.8520
 4647SOL     OW15708   2.477   9.128   3.855 -0.3569  0.0391  0.6777
 4647SOL    HW115709   2.534   9.176   3.795 -0.4513 -0.0991  0.4734
 4647SOL    HW215710   2.523   9.045   3.870 -0.4380 -0.0173  0.6192
 4648SOL     OW15711   8.633   3.053   8.916  0.6009 -0.1326  0.1055
 4648SOL    HW115712   8.672   3.046   9.003 -0.6861 -1.6439  0.5929
 4648SOL    HW215713   8.708   3.063   8.857  1.5072  0.5646  1.3232
 4649SOL     OW15714   5.124   1.424   1.010  0.0566 -0.7541  0.2262
 4649SOL    HW115715   5.205   1.373   1.008  1.9431  2.0626 -0.8438
 4649SOL    HW215716   5.111   1.446   1.102  2.1161  0.9816  0.1835
 4650SOL     OW15717   8.824   6.480   1.121  0.4235 -0.9174 -0.0719
 4650SOL    HW115718   8.821   6.411   1.055 -0.6368  0.2095 -1.2816
 4650SOL    HW215719   8.764   6.450   1.189 -0.0404 -1.1871 -0.5892
 4651SOL     OW15720   9.583   6.209   9.122  0.0248 -0.2632  0.1516
 4651SOL    HW115721   9.576   6.288   9.068 -0.3811  0.3486  1.0792
 4651SOL    HW215722   9.580   6.137   9.059 -1.1421  0.4020 -0.5823
 4652SOL     OW15723   6.716   3.456   4.247 -0.1604 -0.1407 -0.0524
 4652SOL    HW115724   6.635   3.442   4.296 -1.0755 -1.4945 -1.8454
 4652SOL    HW215725   6.713   3.549   4.224 -1.2493 -0.1735 -0.1200
 4653SOL     OW15726   7.186   3.319   0.318  0.6844 -0.0900 -0.0867
 4653SOL    HW115727   7.189   3.383   0.388 -1.6054  0.4076 -0.3553
 4653SOL    HW215728   7.257   3.258   0.338  1.6833  1.4187  1.2401
 4654SOL     OW15729   0.514   7.167   0.273 -0.0323 -0.0986 -0.4944
 4654SOL    HW115730   0.515   7.229   0.346  0.0301 -0.1429 -0.4574
 4654SOL    HW215731   0.562   7.211   0.203 -2.5837  1.2163 -1.5657
 4655SOL     OW15732   2.841   3.899   6.085  0.1777  0.1854  0.0482
 4655SOL    HW115733   2.931   3.883   6.056  0.7144 -0.8664  2.1482
 4655SOL    HW215734   2.830   3.994   6.079  1.3491  0.3066 -0.3744
 4656SOL     OW15735   9.368   8.470   8.400  0.2465 -0.4517  0.6167
 4656SOL    HW115736   9.312   8.420   8.459  0.4683 -1.1317  0.2570
 4656SOL    HW215737   9.312   8.493   8.327  0.0804  0.0422  0.8927
 4657SOL     OW15738   0.424   5.674   4.107  0.1269 -0.2404  0.3984
 4657SOL    HW115739   0.360   5.606   4.129  0.4624 -0.9573 -0.7413
 4657SOL    HW215740   0.431   5.671   4.012  0.6877  0.9190  0.3781
 4658SOL     OW15741   0.086   4.164   5.443  0.6116 -0.1634  0.2158
 4658SOL    HW115742   0.067   4.074   5.418  0.9419 -0.2864  0.4050
 4658SOL    HW215743   0.055   4.217   5.369 -0.5356 -0.3420  0.5410
 4659SOL     OW15744   8.291   0.722   5.629  0.1135  0.0062  0.2691
 4659SOL    HW115745   8.371   0.676   5.652  0.1639  0.3086  0.6926
 4659SOL    HW215746   8.222   0.672   5.672  0.0920 -0.1182  0.0942
 4660SOL     OW15747   1.321   8.245   9.309  0.2807 -0.7499  0.4626
 4660SOL    HW115748   1.333   8.186   9.235 -1.2764 -1.5187  0.7846
 4660SOL    HW215749   1.261   8.312   9.277  1.4173  0.2588  0.3473
 4661SOL     OW15750   6.999   4.559   6.847 -0.4335 -0.1365  0.2297
 4661SOL    HW115751   6.910   4.533   6.820 -0.8076  0.0478  1.2451
 4661SOL    HW215752   6.987   4.602   6.932  0.5779  0.3290  0.1507
 4662SOL     OW15753   6.143   3.566   0.339  0.4860  0.5194 -0.2079
 4662SOL    HW115754   6.237   3.578   0.354  0.3769  0.9464  0.1547
 4662SOL    HW215755   6.139   3.509   0.262  1.0464 -0.5318  0.5134
 4663SOL     OW15756   8.919   3.734   0.873 -0.1475 -1.1299  0.1931
 4663SOL    HW115757   8.980   3.700   0.807 -0.1805 -0.5152 -0.1508
 4663SOL    HW215758   8.975   3.784   0.933 -0.2478 -0.9756  0.1555
 4664SOL     OW15759   4.946   1.880   4.689  0.2446 -0.1525  0.6017
 4664SOL    HW115760   4.956   1.841   4.776  1.0995 -0.2426  0.4713
 4664SOL    HW215761   4.950   1.974   4.704  0.7818 -0.1735  0.6258
 4665SOL     OW15762   8.934   6.265   4.697  0.5062  0.0010  0.1530
 4665SOL    HW115763   8.871   6.336   4.687  0.5008  0.2573  1.7496
 4665SOL    HW215764   8.889   6.201   4.751  0.8894 -0.7597 -0.4093
 4666SOL     OW15765   2.567   4.880   8.795 -0.2310  0.1686  0.1630
 4666SOL    HW115766   2.604   4.872   8.883  2.9665 -0.4744 -1.1125
 4666SOL    HW215767   2.514   4.801   8.785  1.4542 -1.0953  0.6731
 4667SOL     OW15768   4.514   4.317   1.568  0.1112 -0.3955  0.0168
 4667SOL    HW115769   4.467   4.307   1.485 -1.5174 -0.9543  0.9492
 4667SOL    HW215770   4.450   4.357   1.627  0.7465 -1.3214  1.4020
 4668SOL     OW15771   9.522   3.699   3.511  0.3219  0.4586  0.1292
 4668SOL    HW115772   9.510   3.663   3.423 -0.3893  1.2572 -0.1156
 4668SOL    HW215773   9.462   3.648   3.565  0.2960  0.3874  0.0353
 4669SOL     OW15774   6.890   9.510   3.353 -0.0801  0.1235  0.2691
 4669SOL    HW115775   6.874   9.572   3.424  0.4738  0.2592  0.2824
 4669SOL    HW215776   6.831   9.437   3.371 -1.1622  0.8855 -0.0657
 4670SOL     OW15777   3.204   2.061   7.301  0.6472  0.0373 -0.4161
 4670SOL    HW115778   3.121   2.015   7.313  0.5818  0.2054 -0.2228
 4670SOL    HW215779   3.247   2.014   7.230  0.3782 -0.0378 -0.5310
 4671SOL     OW15780   3.764   0.431   2.811  0.0818  0.4598 -0.1903
 4671SOL    HW115781   3.731   0.345   2.836  0.6068  0.5290  0.7826
 4671SOL    HW215782   3.738   0.441   2.719  1.0232 -1.2115 -0.6668
 4672SOL     OW15783   3.987   2.583   1.151  0.3845 -0.4477  0.6333
 4672SOL    HW115784   3.908   2.631   1.175  1.3810  2.3212 -1.2081
 4672SOL    HW215785   4.056   2.623   1.204  1.2673  0.3034 -1.0408
 4673SOL     OW15786   1.138   2.039   0.199 -0.3277 -0.5613 -0.1602
 4673SOL    HW115787   1.077   1.974   0.232  1.5977 -2.6658 -0.5282
 4673SOL    HW215788   1.169   2.004   0.116  0.1246  1.2806 -0.8278
 4674SOL     OW15789   2.298   7.121   9.053  0.0539 -0.2893  0.3802
 4674SOL    HW115790   2.278   7.089   8.965 -0.1223  0.7831  0.0220
 4674SOL    HW215791   2.384   7.163   9.044  0.4003 -0.8746  0.9001
 4675SOL     OW15792   0.908   7.095   4.857  0.0647 -0.0193  0.5423
 4675SOL    HW115793   0.865   7.177   4.881  1.3947  0.6715  0.6812
 4675SOL    HW215794   0.843   7.048   4.805 -0.9380  0.8538  0.9672
 4676SOL     OW15795   4.202   5.307   3.970 -0.2483 -0.3704 -0.1624
 4676SOL    HW115796   4.174   5.379   3.914 -0.5987  0.8782  1.5749
 4676SOL    HW215797   4.297   5.304   3.960 -0.4133 -1.2679 -2.0575
 4677SOL     OW15798   7.211   8.380   6.648 -0.1027  0.2361 -0.1186
 4677SOL    HW115799   7.279   8.318   6.669 -0.1523  0.5001  0.8536
 4677SOL    HW215800   7.129   8.337   6.675 -0.3184 -0.0119 -1.1237
 4678SOL     OW15801   2.260   7.074   0.137 -0.1647  0.1723 -0.2009
 4678SOL    HW115802   2.214   7.105   0.214 -1.8025 -2.4488 -0.0091
 4678SOL    HW215803   2.206   7.003   0.103  1.1664  0.3509 -3.0285
 4679SOL     OW15804   3.095   6.584   9.547 -0.4611  0.0374 -0.6084
 4679SOL    HW115805   3.052   6.595   9.462 -0.1214 -2.0771 -1.0922
 4679SOL    HW215806   3.104   6.674   9.580 -1.7442  0.8153 -2.2127
 4680SOL     OW15807   1.123   4.799   9.804  0.2167 -0.4800  0.2394
 4680SOL    HW115808   1.074   4.804   9.886  0.2812 -0.7060  0.2939
 4680SOL    HW215809   1.152   4.707   9.800  0.8908 -0.2755  0.3613
 4681SOL     OW15810   6.527   8.867   4.114  0.3710 -0.1510 -0.2262
 4681SOL    HW115811   6.544   8.783   4.157 -1.1077 -1.2380 -1.6252
 4681SOL    HW215812   6.527   8.846   4.020  1.3227  1.7012 -0.6961
 4682SOL     OW15813   0.382   5.160   8.180 -0.5429 -0.2084 -0.5483
 4682SOL    HW115814   0.399   5.243   8.137 -0.0875 -0.4840 -0.9026
 4682SOL    HW215815   0.369   5.098   8.108  1.5820 -0.9641 -0.3376
 4683SOL     OW15816   1.834   4.437   1.535 -0.2659 -0.0628  0.4075
 4683SOL    HW115817   1.741   4.460   1.534 -0.1152  0.5816  0.8153
 4683SOL    HW215818   1.871   4.489   1.607  0.1928 -1.1520  0.9912
 4684SOL     OW15819   4.297   8.456   6.621  0.3139 -0.0222 -0.3558
 4684SOL    HW115820   4.234   8.433   6.689  0.0679  1.0726 -0.1926
 4684SOL    HW215821   4.375   8.405   6.641  0.2703  0.3522  0.8075
 4685SOL     OW15822   0.381   4.137   5.380  0.2486  0.2186  0.1591
 4685SOL    HW115823   0.306   4.107   5.432  0.4698 -1.8022 -0.5967
 4685SOL    HW215824   0.349   4.140   5.290  0.0879  2.9549  0.2158
 4686SOL     OW15825   5.864   8.127   8.293  0.3657 -0.0463 -0.3780
 4686SOL    HW115826   5.911   8.102   8.214 -0.1389 -0.2568 -0.6140
 4686SOL    HW215827   5.933   8.140   8.358  0.7383 -0.5960 -0.6477
 4687SOL     OW15828   4.996   8.808   0.086  0.4942 -0.1909 -0.0799
 4687SOL    HW115829   4.924   8.777   0.141  0.4571 -1.2284 -0.6753
 4687SOL    HW215830   4.965   8.891   0.050 -1.1017 -1.3427 -1.5635
 4688SOL     OW15831   7.533   5.630   2.027  0.2883  0.1101 -0.0602
 4688SOL    HW115832   7.445   5.593   2.029  0.0235  0.5872 -1.7411
 4688SOL    HW215833   7.584   5.573   2.085 -0.7452 -1.1395 -0.3327
 4689SOL     OW15834   9.351   9.247   8.625 -0.0740 -0.2874 -0.0792
 4689SOL    HW115835   9.362   9.342   8.631 -1.9607 -0.1221  1.8589
 4689SOL    HW215836   9.431   9.212   8.664  0.3334  0.5032 -0.1695
 4690SOL     OW15837   0.424   1.912   9.279 -0.2430 -0.0408  0.0927
 4690SOL    HW115838   0.499   1.955   9.238 -0.1523 -0.9814 -0.7800
 4690SOL    HW215839   0.429   1.937   9.371  0.8096  0.3807 -0.0616
 4691SOL     OW15840   1.595   9.459   5.578  0.0626 -0.0938 -0.2841
 4691SOL    HW115841   1.572   9.377   5.535  0.0292  0.1660 -0.7767
 4691SOL    HW215842   1.538   9.464   5.655 -0.5902 -0.0864 -0.7636
 4692SOL     OW15843   4.718   9.691   9.538 -0.2851 -0.1970  0.0638
 4692SOL    HW115844   4.631   9.652   9.545  0.5201 -2.1818 -0.3083
 4692SOL    HW215845   4.764   9.637   9.474  1.1213  1.0418 -0.0427
 4693SOL     OW15846   9.354   4.835   2.685  0.2801 -0.3740  0.0698
 4693SOL    HW115847   9.372   4.868   2.773 -3.5506 -0.3417  1.0283
 4693SOL    HW215848   9.389   4.746   2.685 -1.0567 -0.9721  2.2913
 4694SOL     OW15849   7.850   6.126   1.816 -0.3167  0.0551 -0.0412
 4694SOL    HW115850   7.932   6.124   1.767 -0.4092  0.5574 -0.2214
 4694SOL    HW215851   7.826   6.219   1.820 -0.0822  0.0769  1.3449
 4695SOL     OW15852   2.472   6.728   4.640 -0.2050 -0.1962  0.0462
 4695SOL    HW115853   2.508   6.761   4.723 -1.8181  0.3887  0.5603
 4695SOL    HW215854   2.510   6.786   4.573 -1.0663  1.1847  0.6940
 4696SOL     OW15855   4.089   6.387   2.318 -0.3696  0.2919  0.1896
 4696SOL    HW115856   4.179   6.404   2.290 -0.3678 -0.1485 -0.0862
 4696SOL    HW215857   4.092   6.299   2.355 -0.1992  1.1510  2.3644
 4697SOL     OW15858   4.301   0.562   8.706 -0.4933  0.0015  0.6972
 4697SOL    HW115859   4.294   0.639   8.649  1.0949  0.8565  1.5925
 4697SOL    HW215860   4.213   0.524   8.705 -1.6055  2.3536  0.9459
 4698SOL     OW15861   9.033   8.598   3.087  0.0021  0.0515  0.2090
 4698SOL    HW115862   9.009   8.642   3.168  0.0411  0.6335 -0.0909
 4698SOL    HW215863   9.027   8.666   3.020 -0.8770 -0.6202 -0.4190
 4699SOL     OW15864   1.694   9.535   6.177 -0.2221  0.2114  0.3565
 4699SOL    HW115865   1.730   9.498   6.097  0.3369 -0.0285  0.7150
 4699SOL    HW215866   1.611   9.489   6.189 -0.2084  0.0970  0.0359
 4700SOL     OW15867   9.661   2.865   6.428  0.2620  0.0072  0.2865
 4700SOL    HW115868   9.702   2.783   6.402  0.1871 -0.2728  1.0482
 4700SOL    HW215869   9.685   2.927   6.359  0.8355 -0.4912  0.0367
 4701SOL     OW15870   3.590   8.043   1.282 -0.0888 -0.1736 -0.4183
 4701SOL    HW115871   3.511   7.993   1.302  0.4303 -1.3637 -1.2866
 4701SOL    HW215872   3.630   8.059   1.368 -0.0243 -1.6570 -0.1586
 4702SOL     OW15873   2.442   3.579   0.423 -0.3988  0.4199  0.8539
 4702SOL    HW115874   2.390   3.499   0.429 -0.2866  0.3710  1.2792
 4702SOL    HW215875   2.453   3.606   0.515 -0.5724  1.0094  0.7022
 4703SOL     OW15876   0.991   4.364   0.225  0.4708 -0.1185 -0.5609
 4703SOL    HW115877   1.084   4.379   0.241  0.1453 -0.7718  2.8097
 4703SOL    HW215878   0.947   4.434   0.273 -0.7869 -0.8360 -0.6188
 4704SOL     OW15879   6.040   1.607   4.676  0.0011  0.2184 -0.9174
 4704SOL    HW115880   5.959   1.596   4.725 -0.2236  1.6590 -0.9221
 4704SOL    HW215881   6.061   1.700   4.685  0.7224  0.2188 -2.3671
 4705SOL     OW15882   3.868   0.101   0.855 -0.1302 -0.1150 -0.0427
 4705SOL    HW115883   3.881   0.105   0.950 -1.0099 -0.1108  0.0905
 4705SOL    HW215884   3.919   0.025   0.827 -0.9395 -0.9337  0.6358
 4706SOL     OW15885   0.554   9.394   7.659  0.3957  0.1535 -0.1422
 4706SOL    HW115886   0.504   9.342   7.722 -1.6948 -0.3278 -2.0670
 4706SOL    HW215887   0.547   9.346   7.577  0.0447  2.4510 -1.5541
 4707SOL     OW15888   5.936   1.496   2.473 -0.2001  0.0483  0.3583
 4707SOL    HW115889   5.888   1.445   2.407 -0.0638 -0.2470  0.4855
 4707SOL    HW215890   6.019   1.516   2.431  1.0077 -2.4106  1.3491
 4708SOL     OW15891   2.807   2.905   5.698 -0.2946 -0.2234  0.2922
 4708SOL    HW115892   2.811   2.835   5.633  1.0184 -0.1241  0.2587
 4708SOL    HW215893   2.893   2.946   5.696 -1.1104  1.5669  0.1477
 4709SOL     OW15894   6.925   0.295   6.959 -0.6642  0.2975 -0.1184
 4709SOL    HW115895   6.900   0.334   6.876  0.5671  3.7894  0.9803
 4709SOL    HW215896   6.867   0.336   7.023  1.5749  1.4331  1.2796
 4710SOL     OW15897   4.187   4.445   4.339 -0.6622  0.3306  0.3491
 4710SOL    HW115898   4.169   4.535   4.310 -1.0937  0.9720  2.4612
 4710SOL    HW215899   4.107   4.418   4.384  0.0468 -0.5092  1.1560
 4711SOL     OW15900   5.679   9.327   7.324  0.0057 -0.7239 -0.3185
 4711SOL    HW115901   5.615   9.398   7.327 -0.4400 -1.1264 -0.1336
 4711SOL    HW215902   5.700   9.317   7.231 -0.6358 -0.9689 -0.4416
 4712SOL     OW15903   6.221   6.022   2.779 -0.3489 -0.8710  0.0381
 4712SOL    HW115904   6.254   6.110   2.762  1.4146 -1.4587  0.1949
 4712SOL    HW215905   6.298   5.965   2.767 -1.6094 -2.4811 -0.8547
 4713SOL     OW15906   5.554   7.097   0.145  0.4400  0.0977 -0.3626
 4713SOL    HW115907   5.476   7.093   0.201  0.4696  0.5265 -0.2887
 4713SOL    HW215908   5.586   7.007   0.142 -0.0236 -0.0703 -0.3401
 4714SOL     OW15909   4.762   9.546   0.042 -0.5820 -0.4668  0.4549
 4714SOL    HW115910   4.777   9.463   0.089 -1.2551 -0.2070  1.1558
 4714SOL    HW215911   4.792   9.529  -0.047  0.3086 -1.1174  0.8679
 4715SOL     OW15912   6.686   7.565   2.248 -0.0046  0.5544  0.1091
 4715SOL    HW115913   6.645   7.609   2.174 -1.2789  1.5175  1.3367
 4715SOL    HW215914   6.622   7.573   2.319  0.9323 -0.8328  1.1641
 4716SOL     OW15915   0.079   5.813   9.455  0.5228 -0.0421  0.2288
 4716SOL    HW115916   0.034   5.767   9.383  0.9698 -0.4824  0.2234
 4716SOL    HW215917   0.146   5.866   9.411 -0.7647  1.5823  0.1308
 4717SOL     OW15918   9.072   1.732   6.251 -0.2184  0.0251 -0.2162
 4717SOL    HW115919   8.976   1.730   6.255 -0.3328  1.1950 -1.7460
 4717SOL    HW215920   9.094   1.825   6.252  0.6431  0.0037 -3.9828
 4718SOL     OW15921   5.380   5.159   2.756  0.4770 -0.3984  0.7998
 4718SOL    HW115922   5.344   5.236   2.800 -1.2321 -1.7649  1.9032
 4718SOL    HW215923   5.410   5.192   2.671 -0.0275  1.5097  1.3153
 4719SOL     OW15924   0.364   8.188   7.228 -0.3170  0.4915  0.4726
 4719SOL    HW115925   0.329   8.271   7.260  3.0954  1.9524  0.8629
 4719SOL    HW215926   0.388   8.140   7.307  1.3058  0.8976  0.2635
 4720SOL     OW15927   1.657   3.573   6.598  0.0019  0.4219 -0.3289
 4720SOL    HW115928   1.708   3.652   6.617  2.6618 -1.2100 -0.2372
 4720SOL    HW215929   1.674   3.516   6.673 -0.4341 -0.9114 -1.2294
 4721SOL     OW15930   5.187   0.463   1.122  0.4967  0.0286 -0.6969
 4721SOL    HW115931   5.194   0.449   1.027 -1.2682 -0.8165 -0.7433
 4721SOL    HW215932   5.244   0.397   1.160 -1.2325 -1.8503 -1.1532
 4722SOL     OW15933   6.306   5.297   6.909 -0.3449 -0.1189 -0.1426
 4722SOL    HW115934   6.362   5.283   6.833 -2.6347 -1.0686 -1.7705
 4722SOL    HW215935   6.348   5.247   6.979  1.9959  1.0382 -0.6272
 4723SOL     OW15936   7.857   8.522   3.687 -0.1510 -0.4966  0.1964
 4723SOL    HW115937   7.813   8.496   3.768 -1.1763  0.3311 -0.0778
 4723SOL    HW215938   7.827   8.612   3.671 -1.0209 -1.0948 -1.8235
 4724SOL     OW15939   5.081   2.495   3.342  0.3106 -0.0329 -0.0636
 4724SOL    HW115940   5.165   2.540   3.343  0.1907  0.1896  0.2535
 4724SOL    HW215941   5.100   2.408   3.307  0.5061  0.3394 -0.9074
 4725SOL     OW15942   7.686   3.408   3.207  0.3545 -0.1944 -0.1010
 4725SOL    HW115943   7.677   3.499   3.235 -0.9647 -0.8892  1.9654
 4725SOL    HW215944   7.604   3.389   3.161  0.4954 -0.4245 -0.2556
 4726SOL     OW15945   0.560   0.182   8.841  0.2072  0.1143 -0.8800
 4726SOL    HW115946   0.556   0.090   8.865  1.9319  0.2050 -0.1241
 4726SOL    HW215947   0.632   0.188   8.779 -0.0000  0.9339 -1.0601
 4727SOL     OW15948   6.930   5.701   9.505 -0.3544  0.1071 -0.3702
 4727SOL    HW115949   6.886   5.619   9.479  0.6060 -0.3221 -0.7042
 4727SOL    HW215950   7.013   5.699   9.457 -0.1415  1.0839 -0.0518
 4728SOL     OW15951   9.704   8.808   8.759  0.8483  0.3436  0.0306
 4728SOL    HW115952   9.731   8.895   8.789  0.0630  1.3776 -2.0104
 4728SOL    HW215953   9.752   8.796   8.677 -1.4729  0.3359 -1.4149
 4729SOL     OW15954   6.176   8.760   4.552  0.4317 -0.0262 -0.6792
 4729SOL    HW115955   6.128   8.832   4.511  0.8409 -0.0497 -1.2090
 4729SOL    HW215956   6.139   8.681   4.513  0.0937 -0.0969 -0.2165
 4730SOL     OW15957   5.196   7.703   5.867  0.0480  0.0771  0.0123
 4730SOL    HW115958   5.163   7.613   5.861 -0.8848  0.4412 -0.7513
 4730SOL    HW215959   5.290   7.695   5.857  0.1818 -0.9664  1.7441
 4731SOL     OW15960   6.247   6.350   7.342 -0.0020  0.0256 -0.4491
 4731SOL    HW115961   6.207   6.436   7.331  0.5257  0.3372 -0.0245
 4731SOL    HW215962   6.214   6.298   7.269  1.0207  1.0968 -1.7173
 4732SOL     OW15963   3.885   4.650   8.235 -0.0582 -0.3401  0.5652
 4732SOL    HW115964   3.834   4.717   8.188  0.4014  0.0536  0.6150
 4732SOL    HW215965   3.881   4.677   8.327  0.2458 -0.2982  0.5685
 4733SOL     OW15966   5.461   5.128   0.513  0.7580  0.3835 -0.1860
 4733SOL    HW115967   5.535   5.117   0.453  0.7827  0.9081 -0.2547
 4733SOL    HW215968   5.426   5.214   0.492 -0.8851 -0.5041 -1.2751
 4734SOL     OW15969   3.486   0.805   1.004 -0.4346 -1.0175  0.1861
 4734SOL    HW115970   3.519   0.847   0.925 -1.6719 -1.8533 -0.8137
 4734SOL    HW215971   3.421   0.866   1.039  0.9512 -0.0926  1.2837
 4735SOL     OW15972   1.351   3.755   1.900  0.1634  0.3585  0.0374
 4735SOL    HW115973   1.273   3.710   1.933  0.4887  0.6272  1.2269
 4735SOL    HW215974   1.376   3.706   1.822 -1.2482  0.3292 -0.4254
 4736SOL     OW15975   4.221   1.092   6.823 -0.0734  0.3130 -0.4822
 4736SOL    HW115976   4.281   1.018   6.819 -0.3263  0.1397 -1.2973
 4736SOL    HW215977   4.136   1.052   6.841  0.1144  0.5989  1.1901
 4737SOL     OW15978   2.050   8.085   1.362  0.5610  0.0424 -0.3321
 4737SOL    HW115979   2.098   8.105   1.282  1.0831 -1.8295 -0.5472
 4737SOL    HW215980   2.117   8.086   1.431  0.3142  0.5827 -0.0987
 4738SOL     OW15981   3.947   9.208   3.320  0.5429  0.2444  0.2874
 4738SOL    HW115982   3.942   9.200   3.224  0.5798 -2.4109  0.4422
 4738SOL    HW215983   3.878   9.150   3.352  2.1957 -0.9174  1.8804
 4739SOL     OW15984   3.738   4.123   5.829 -0.2585  0.1868 -0.1434
 4739SOL    HW115985   3.703   4.210   5.810  0.5099  0.3919 -0.7146
 4739SOL    HW215986   3.695   4.066   5.766  2.5798  0.9298 -3.0282
 4740SOL     OW15987   0.562   7.625   3.511 -0.1829  0.1536  0.4055
 4740SOL    HW115988   0.542   7.669   3.429  2.8606  1.7092  0.3635
 4740SOL    HW215989   0.509   7.670   3.577  0.9788  2.3138 -0.0401
 4741SOL     OW15990   3.814   0.648   5.757  0.3372 -0.0208 -0.0066
 4741SOL    HW115991   3.871   0.576   5.729 -1.7641 -1.8563  0.1575
 4741SOL    HW215992   3.747   0.653   5.689 -1.0043  0.0168  1.2625
 4742SOL     OW15993   6.852   6.178   1.050 -0.2426 -0.3560 -0.1934
 4742SOL    HW115994   6.943   6.198   1.070 -0.5611  0.9642 -0.0067
 4742SOL    HW215995   6.802   6.249   1.089 -1.4019 -1.2780  0.0798
 4743SOL     OW15996   8.917   2.389   6.967  0.5806 -0.0606  0.2840
 4743SOL    HW115997   8.828   2.409   6.937  1.0081  0.8615 -0.4208
 4743SOL    HW215998   8.905   2.336   7.045 -0.5908 -0.1465  0.0617
 4744SOL     OW15999   3.143   2.374   3.715  0.1887  0.6710 -0.1907
 4744SOL    HW116000   3.067   2.353   3.769 -0.0369 -0.8561 -1.0641
 4744SOL    HW216001   3.108   2.384   3.626  1.3101 -3.3543 -1.2848
 4745SOL     OW16002   6.687   4.903   9.273  0.1234 -0.4367  0.0169
 4745SOL    HW116003   6.724   4.829   9.322 -1.2190 -1.2312 -0.1256
 4745SOL    HW216004   6.663   4.866   9.188 -1.9148 -0.2184  0.4541
 4746SOL     OW16005   7.775   8.272   7.238 -0.5611 -0.0576  0.0361
 4746SOL    HW116006   7.777   8.325   7.158 -1.9221 -0.0035  0.0189
 4746SOL    HW216007   7.802   8.185   7.208  1.0767  0.4399 -0.0481
 4747SOL     OW16008   1.650   5.666   5.780 -0.1958 -0.0444  0.0253
 4747SOL    HW116009   1.722   5.708   5.733 -0.3343  0.1196 -0.0409
 4747SOL    HW216010   1.665   5.572   5.767 -0.7232  0.0174 -1.0927
 4748SOL     OW16011   0.844   7.226   5.680  0.1746 -0.4247  0.1354
 4748SOL    HW116012   0.908   7.172   5.634  1.3302 -0.6141  1.8852
 4748SOL    HW216013   0.896   7.286   5.733 -1.0847 -0.5630  1.6020
 4749SOL     OW16014   3.786   1.413   7.864 -0.0054 -0.0481  0.3031
 4749SOL    HW116015   3.750   1.379   7.946  0.6126 -0.3103  0.4753
 4749SOL    HW216016   3.745   1.498   7.853 -0.4033 -0.1894  0.6741
 4750SOL     OW16017   2.048   3.250   5.379 -0.1728  0.0841  0.0022
 4750SOL    HW116018   2.053   3.155   5.382 -0.3521  0.1013  1.1884
 4750SOL    HW216019   1.967   3.268   5.330  0.1108 -0.3509 -0.6468
 4751SOL     OW16020   0.204   5.182   5.207  0.1586  0.4050 -0.2950
 4751SOL    HW116021   0.114   5.156   5.188  0.1481  0.5079 -0.3829
 4751SOL    HW216022   0.244   5.197   5.122  0.2433  0.4127 -0.2544
 4752SOL     OW16023   0.934   0.881   4.959 -0.1813  0.1883 -0.4037
 4752SOL    HW116024   0.941   0.811   4.894 -0.1744 -1.5864  1.3955
 4752SOL    HW216025   0.840   0.895   4.970 -0.2011 -0.0005 -0.3218
 4753SOL     OW16026   9.263   1.129   9.336 -0.0432  0.2692 -0.0484
 4753SOL    HW116027   9.329   1.096   9.274 -0.4200 -0.0718 -0.2697
 4753SOL    HW216028   9.179   1.101   9.299 -0.3764  1.4534 -0.2286
 4754SOL     OW16029   0.390   5.877   1.664  0.3075  0.7338  0.4489
 4754SOL    HW116030   0.349   5.805   1.712  0.9880  0.0372  0.0117
 4754SOL    HW216031   0.317   5.927   1.628 -0.2288  1.3371  2.2773
 4755SOL     OW16032   2.476   5.951   3.734  0.1116  0.0050 -0.1774
 4755SOL    HW116033   2.484   5.924   3.643  0.8766 -0.6107  0.0650
 4755SOL    HW216034   2.451   5.872   3.781 -1.2453  0.5327  0.0152
 4756SOL     OW16035   7.859   3.627   3.572  0.5087 -0.1614 -0.6013
 4756SOL    HW116036   7.948   3.628   3.536  0.6570  0.9961 -0.2726
 4756SOL    HW216037   7.808   3.681   3.511  0.1746 -0.3333 -0.4760
 4757SOL     OW16038   4.497   6.271   2.228 -0.2877 -0.0375 -0.2392
 4757SOL    HW116039   4.499   6.216   2.306  1.0551  1.4450  0.8188
 4757SOL    HW216040   4.435   6.341   2.250 -0.2798  0.1164 -0.7023
 4758SOL     OW16041   7.029   3.032   2.691  0.4342 -0.5537 -0.4282
 4758SOL    HW116042   7.111   3.044   2.644 -0.0574  0.5427 -1.0548
 4758SOL    HW216043   7.005   3.120   2.720 -0.0283 -0.9956  0.6085
 4759SOL     OW16044   3.041   8.897   0.805  0.1192  0.1473 -0.4731
 4759SOL    HW116045   3.029   8.803   0.821  0.0106  0.2087 -0.1894
 4759SOL    HW216046   3.105   8.924   0.870 -0.6522  0.4892  0.1596
 4760SOL     OW16047   4.174   7.283   8.685 -0.6297  0.4451 -0.6891
 4760SOL    HW116048   4.232   7.279   8.609  0.8422 -0.1948  0.4204
 4760SOL    HW216049   4.167   7.193   8.715 -1.5196  0.6368 -0.2897
 4761SOL     OW16050   2.733   8.860   2.678  0.3091  0.1275  0.3967
 4761SOL    HW116051   2.713   8.857   2.771  1.7329 -1.6531  0.6821
 4761SOL    HW216052   2.762   8.950   2.663 -0.5024  0.5984  1.5263
 4762SOL     OW16053   2.421   1.226   5.333 -0.3257  0.1500 -0.4975
 4762SOL    HW116054   2.356   1.164   5.301 -0.8941  1.3593 -1.7992
 4762SOL    HW216055   2.383   1.312   5.316  0.3978  0.8809  1.3503
 4763SOL     OW16056   5.910   7.353   1.206  0.3706  0.2519 -0.6782
 4763SOL    HW116057   5.874   7.283   1.260  1.9888  0.5497  0.9051
 4763SOL    HW216058   5.846   7.367   1.137 -0.8868 -1.4611  0.0937
 4764SOL     OW16059   1.576   8.525   2.969 -0.0771 -0.1858  0.1793
 4764SOL    HW116060   1.518   8.494   2.899  0.9416 -0.8255 -0.4073
 4764SOL    HW216061   1.615   8.605   2.934 -1.0316  0.5720  0.8103
 4765SOL     OW16062   9.783   5.138   7.454 -0.1541 -0.6531  0.7041
 4765SOL    HW116063   9.848   5.076   7.422  0.8152  0.4895  0.3868
 4765SOL    HW216064   9.702   5.111   7.412  0.2324 -1.7366  0.6211
 4766SOL     OW16065   3.807   1.260   9.286 -0.4627 -0.8028 -0.4397
 4766SOL    HW116066   3.814   1.181   9.340 -0.2013 -0.6387 -0.2324
 4766SOL    HW216067   3.772   1.229   9.202  0.0255 -1.2002 -0.5024
 4767SOL     OW16068   9.464   7.592   8.252 -0.8210 -0.1431  0.1572
 4767SOL    HW116069   9.416   7.615   8.173  1.8772 -0.3368 -1.6632
 4767SOL    HW216070   9.517   7.669   8.271 -0.3464 -0.6405  0.9051
 4768SOL     OW16071   4.656   5.254   4.740 -0.4285  0.1239  0.1364
 4768SOL    HW116072   4.661   5.304   4.658  1.3605 -0.4348 -0.1167
 4768SOL    HW216073   4.608   5.312   4.799 -1.8285  0.5122 -1.2944
 4769SOL     OW16074   7.914   7.613   8.069  0.4851 -0.0953  0.0718
 4769SOL    HW116075   7.940   7.562   7.992 -0.3377  0.7197 -0.7846
 4769SOL    HW216076   7.966   7.578   8.141  2.3233  0.0466 -1.1237
 4770SOL     OW16077   2.129   9.412   6.037 -0.1242  0.0667 -0.1197
 4770SOL    HW116078   2.109   9.405   6.130  0.9803  1.2058  0.2306
 4770SOL    HW216079   2.149   9.504   6.024  0.0232 -0.1348 -1.4278
 4771SOL     OW16080   7.058   4.620   7.661 -0.6036 -0.1529 -0.1148
 4771SOL    HW116081   7.068   4.530   7.692  0.3698 -0.5632 -1.5067
 4771SOL    HW216082   7.028   4.669   7.737 -0.9104 -1.6034  0.7350
 4772SOL     OW16083   9.735   0.939   3.803  0.1603  0.5549 -0.0368
 4772SOL    HW116084   9.810   0.998   3.797 -0.0826  0.6856 -2.7905
 4772SOL    HW216085   9.730   0.897   3.717 -1.1658 -1.6654  1.0291
 4773SOL     OW16086   4.909   4.078   0.145  0.0352  0.4558 -0.1129
 4773SOL    HW116087   4.981   4.064   0.082 -0.3008  2.1870 -0.9286
 4773SOL    HW216088   4.927   4.164   0.183 -0.8651  0.2911  0.7019
 4774SOL     OW16089   2.622   6.832   9.336  0.3637 -0.2975 -0.5770
 4774SOL    HW116090   2.553   6.769   9.355 -0.3385  1.1975  2.4073
 4774SOL    HW216091   2.703   6.780   9.339 -0.2636 -1.2653  0.9790
 4775SOL     OW16092   2.724   0.541   6.138 -0.8373  0.6709 -0.1087
 4775SOL    HW116093   2.793   0.564   6.076 -0.6215  1.5954  0.4596
 4775SOL    HW216094   2.714   0.618   6.193 -2.9587  0.9079 -0.7300
 4776SOL     OW16095   3.190   7.677   2.966 -0.2046  0.4055 -0.1725
 4776SOL    HW116096   3.114   7.699   3.020 -1.4846 -0.6755 -1.4502
 4776SOL    HW216097   3.264   7.687   3.025 -1.2865  1.7340  1.0654
 4777SOL     OW16098   4.196   5.271   9.184  0.0337  0.0100 -0.1074
 4777SOL    HW116099   4.150   5.304   9.106 -0.7046 -0.9186 -0.0869
 4777SOL    HW216100   4.217   5.349   9.234  0.4903  0.6277 -1.2205
 4778SOL     OW16101   8.657   0.368   2.681  0.8620 -0.1065  0.3550
 4778SOL    HW116102   8.603   0.439   2.715  0.1728  0.1325 -1.1539
 4778SOL    HW216103   8.732   0.364   2.740 -0.7844 -0.4612  2.5185
 4779SOL     OW16104   6.611   3.715   4.130  0.2624  0.7685 -0.2129
 4779SOL    HW116105   6.522   3.688   4.153  0.5297 -1.0265 -1.1760
 4779SOL    HW216106   6.630   3.787   4.190 -1.5927  0.7577  0.4444
 4780SOL     OW16107   3.721   8.205   5.567 -0.3330 -0.1375 -0.5353
 4780SOL    HW116108   3.691   8.176   5.481 -0.2109 -0.5482 -0.4385
 4780SOL    HW216109   3.709   8.129   5.624 -0.2441  0.0763 -0.2290
 4781SOL     OW16110   9.059   2.425   1.498 -0.1236 -0.2312  0.6318
 4781SOL    HW116111   9.112   2.345   1.495  0.2554 -0.0342 -3.7284
 4781SOL    HW216112   9.115   2.493   1.461 -1.7158  1.1887  0.6909
 4782SOL     OW16113   4.128   3.867   5.332 -0.2992  0.2580  0.6343
 4782SOL    HW116114   4.116   3.889   5.424 -0.8083  1.6984  0.2558
 4782SOL    HW216115   4.053   3.813   5.310  0.2851 -0.8494  1.2650
 4783SOL     OW16116   4.333   6.070   0.001 -0.2895 -0.1145 -0.3773
 4783SOL    HW116117   4.320   6.099  -0.089  2.1978  2.8910  0.0289
 4783SOL    HW216118   4.400   6.129   0.035 -0.7339 -1.4703  3.3134
 4784SOL     OW16119   3.428   4.796   5.922 -0.5725  0.3638 -0.0233
 4784SOL    HW116120   3.517   4.770   5.897 -0.3934  0.8677  0.0871
 4784SOL    HW216121   3.374   4.720   5.901 -0.0628 -0.0739  0.2347
 4785SOL     OW16122   8.881   2.212   7.197  0.1714 -0.3629  0.0273
 4785SOL    HW116123   8.834   2.244   7.274 -0.1104 -0.6133 -0.0414
 4785SOL    HW216124   8.813   2.179   7.139  0.2332  1.1786 -0.9899
 4786SOL     OW16125   2.722   9.134   2.440  0.3053 -0.3858  0.5290
 4786SOL    HW116126   2.795   9.149   2.500 -0.4481  0.0296  1.3564
 4786SOL    HW216127   2.758   9.151   2.353  0.5154  2.4329  1.0997
 4787SOL     OW16128   3.591   3.570   0.491  0.0508  0.3578  0.4327
 4787SOL    HW116129   3.666   3.583   0.433  0.0847  2.9138  0.9232
 4787SOL    HW216130   3.606   3.632   0.563 -1.9121  0.0410  1.1718
 4788SOL     OW16131   9.302   2.202   6.278  0.7554 -0.1618 -0.5715
 4788SOL    HW116132   9.268   2.242   6.358 -0.4058 -3.1546  0.5421
 4788SOL    HW216133   9.271   2.260   6.208  0.1525  1.4814  0.9766
 4789SOL     OW16134   9.010   5.411   0.034 -0.0965 -0.4251 -0.6018
 4789SOL    HW116135   9.094   5.369   0.055 -0.4416 -0.6973  0.2452
 4789SOL    HW216136   8.963   5.345  -0.017 -0.6557 -1.1084  0.7676
 4790SOL     OW16137   4.744   2.465   4.865 -0.0370 -0.3629  0.1397
 4790SOL    HW116138   4.839   2.460   4.877 -0.1467  0.1951  1.3736
 4790SOL    HW216139   4.732   2.532   4.797  0.4163  0.1483  0.5610
 4791SOL     OW16140   0.664   1.706   5.038 -0.2681  0.1663 -0.7157
 4791SOL    HW116141   0.629   1.793   5.054 -1.4831 -0.3676 -0.3979
 4791SOL    HW216142   0.706   1.712   4.952  2.3165  1.8489  0.5237
 4792SOL     OW16143   7.662   6.210   4.258  0.0396  0.2412  0.0153
 4792SOL    HW116144   7.741   6.206   4.312  0.3677  1.7974 -0.3067
 4792SOL    HW216145   7.630   6.119   4.256  1.7817 -0.4092  0.1786
 4793SOL     OW16146   5.127   4.474   5.736 -0.2793 -0.3143  0.4122
 4793SOL    HW116147   5.171   4.390   5.753 -1.2533 -0.4998  2.2786
 4793SOL    HW216148   5.035   4.451   5.725 -0.5572  0.5017  0.9729
 4794SOL     OW16149   7.710   5.216   7.282  0.0147  0.2277  0.8790
 4794SOL    HW116150   7.775   5.244   7.218 -0.3081  0.9408  0.8507
 4794SOL    HW216151   7.746   5.136   7.320  0.3037 -0.1039 -0.0542
 4795SOL     OW16152   5.441   7.681   7.841 -0.3453 -0.1918 -0.0209
 4795SOL    HW116153   5.445   7.764   7.888 -0.7110 -0.3089  0.2219
 4795SOL    HW216154   5.417   7.705   7.752 -1.7425 -0.1329  0.3500
 4796SOL     OW16155   0.263   0.385   4.074  0.2242  0.1773  0.2117
 4796SOL    HW116156   0.302   0.385   3.987 -0.7725  0.7381 -0.2549
 4796SOL    HW216157   0.301   0.309   4.118 -0.3220 -0.9552 -1.2043
 4797SOL     OW16158   7.332   8.222   8.066  0.0598 -0.1622  0.1084
 4797SOL    HW116159   7.249   8.213   8.112  0.9952  1.5956  2.3195
 4797SOL    HW216160   7.328   8.157   7.996 -2.3126 -1.5258  1.3916
 4798SOL     OW16161   4.995   6.513   8.812 -0.3892  0.2506 -0.1753
 4798SOL    HW116162   4.927   6.450   8.838 -1.0109  1.9091  2.7082
 4798SOL    HW216163   4.948   6.578   8.760 -0.4861  0.0913 -0.2881
 4799SOL     OW16164   1.677   9.125   8.905 -0.0976 -0.4395  0.2838
 4799SOL    HW116165   1.673   9.217   8.878  1.8289  0.5566  2.9724
 4799SOL    HW216166   1.753   9.090   8.858  0.6720  0.0837  1.1049
 4800SOL     OW16167   8.988   5.484   4.275  0.5148  0.3990 -0.5409
 4800SOL    HW116168   9.037   5.413   4.234  3.8938  2.3523 -0.2893
 4800SOL    HW216169   8.936   5.522   4.205  1.3675 -0.1857 -1.5142
 4801SOL     OW16170   2.715   4.897   1.444  0.2346  0.2741  0.3168
 4801SOL    HW116171   2.690   4.955   1.373 -0.0401 -1.5292 -1.1240
 4801SOL    HW216172   2.807   4.916   1.460 -0.1448  1.9016  0.7034
 4802SOL     OW16173   7.212   7.906   2.983 -0.1837  0.1857 -0.0893
 4802SOL    HW116174   7.240   7.996   2.967 -1.9925  1.0686  1.3105
 4802SOL    HW216175   7.253   7.882   3.066 -0.4179  0.0649 -0.0066
 4803SOL     OW16176   4.676   0.374   9.000  0.2447 -0.5746 -0.1308
 4803SOL    HW116177   4.649   0.296   8.951 -2.4301  0.0280  0.2214
 4803SOL    HW216178   4.657   0.352   9.091 -2.8559  1.2235 -0.2264
 4804SOL     OW16179   6.331   7.685   5.980 -0.5119 -0.0219 -0.2660
 4804SOL    HW116180   6.332   7.655   5.889 -1.9101  1.2054 -0.7218
 4804SOL    HW216181   6.238   7.691   6.003 -0.2573  1.8211  0.4846
 4805SOL     OW16182   9.430   4.302   3.233 -0.2082 -0.4829 -0.3792
 4805SOL    HW116183   9.446   4.218   3.190  2.3510 -1.0583  1.4541
 4805SOL    HW216184   9.464   4.290   3.322  2.3014  3.0922 -0.6469
 4806SOL     OW16185   2.088   3.750   3.397  0.1402 -0.1024 -0.7792
 4806SOL    HW116186   2.154   3.698   3.353  0.9892  1.1546 -1.0526
 4806SOL    HW216187   2.049   3.691   3.462 -0.1050 -1.5446 -2.1743
 4807SOL     OW16188   0.029   3.308   6.506  0.0505 -0.4745  0.3415
 4807SOL    HW116189  -0.043   3.271   6.557  0.1684 -0.7344  0.3172
 4807SOL    HW216190  -0.000   3.303   6.415 -0.3482  0.3963  0.4104
 4808SOL     OW16191   2.201   2.986   8.419  0.5523 -0.0238  0.3808
 4808SOL    HW116192   2.111   2.983   8.453  0.3317 -0.8662 -0.2479
 4808SOL    HW216193   2.194   3.043   8.342 -0.1441 -2.5184 -1.5428
 4809SOL     OW16194   3.451   5.904   3.387  0.5002  1.1237  0.2717
 4809SOL    HW116195   3.488   5.900   3.476  1.5809 -1.1488 -0.1840
 4809SOL    HW216196   3.518   5.863   3.332 -1.9673 -1.8372 -0.8513
 4810SOL     OW16197   3.603   5.891   0.976 -0.1334 -0.0016 -0.2595
 4810SOL    HW116198   3.632   5.835   1.048 -0.1175 -0.5818 -0.7152
 4810SOL    HW216199   3.670   5.880   0.909 -0.6731 -0.2389 -0.7571
 4811SOL     OW16200   6.329   3.632   9.800 -0.4211 -0.4813 -0.4810
 4811SOL    HW116201   6.383   3.668   9.730  0.6098 -1.2746 -0.1020
 4811SOL    HW216202   6.382   3.563   9.839 -0.9810 -0.0653  1.0848
 4812SOL     OW16203   0.933   5.629   0.054  0.0191  0.0999  0.0689
 4812SOL    HW116204   0.944   5.640  -0.040 -2.4758  0.9247 -0.2161
 4812SOL    HW216205   0.878   5.551   0.063  0.2094  0.0444  0.8336
 4813SOL     OW16206   8.191   2.052   4.219 -0.2892  0.5202  0.1828
 4813SOL    HW116207   8.097   2.068   4.228 -0.3289  1.4893 -1.6616
 4813SOL    HW216208   8.200   1.958   4.236 -1.4366  0.5843  1.3369
 4814SOL     OW16209   3.434   9.180   2.068 -0.2512 -0.4273  0.5681
 4814SOL    HW116210   3.407   9.271   2.057 -0.8877 -0.3621  2.3794
 4814SOL    HW216211   3.500   9.183   2.137  1.7506 -1.0479 -1.2202
 4815SOL     OW16212   9.697   0.432   7.817 -0.6980 -0.2993 -0.0174
 4815SOL    HW116213   9.771   0.398   7.867  0.0796  0.2738 -0.7629
 4815SOL    HW216214   9.634   0.359   7.816  0.8743 -1.7373 -1.5067
 4816SOL     OW16215   8.927   2.944   0.313  0.7983 -0.2741  0.4007
 4816SOL    HW116216   8.947   2.974   0.402 -1.2826 -2.9203  1.9221
 4816SOL    HW216217   8.998   2.883   0.292  1.4494  0.5750  0.0861
 4817SOL     OW16218   1.602   5.175   2.898  0.0151  0.2854  0.3249
 4817SOL    HW116219   1.541   5.142   2.964 -1.7597  0.9012 -0.9215
 4817SOL    HW216220   1.600   5.270   2.910  0.2568  0.3489 -0.1253
 4818SOL     OW16221   8.094   6.439   8.305  0.5995  0.6132  0.7848
 4818SOL    HW116222   8.034   6.365   8.311 -0.5705  1.5649  1.1457
 4818SOL    HW216223   8.080   6.489   8.385 -0.7473  2.7700 -0.6918
 4819SOL     OW16224   0.066   8.502   2.097 -0.5778 -0.2620  0.0376
 4819SOL    HW116225   0.145   8.555   2.093 -1.8923  2.1652  2.6330
 4819SOL    HW216226  -0.000   8.554   2.052 -1.6832 -0.0561  1.7986
 4820SOL     OW16227   3.305   0.873   7.479 -0.2926 -0.3074 -0.3182
 4820SOL    HW116228   3.255   0.791   7.486 -0.8845  0.0843  0.0722
 4820SOL    HW216229   3.286   0.905   7.391 -1.0767  0.0612 -0.0173
 4821SOL     OW16230   1.592   9.536   7.119 -0.7914 -0.2881 -0.1645
 4821SOL    HW116231   1.546   9.562   7.199 -0.2872 -1.7526  0.6346
 4821SOL    HW216232   1.530   9.557   7.049 -0.9944  1.6031  0.5236
 4822SOL     OW16233   6.389   8.484   4.878 -0.5866 -0.1276  0.1054
 4822SOL    HW116234   6.476   8.512   4.907 -1.1044 -0.3707  1.9822
 4822SOL    HW216235   6.329   8.551   4.911 -1.0854  0.5458 -1.9587
 4823SOL     OW16236   5.615   6.034   5.410 -0.2926  0.3082 -0.4050
 4823SOL    HW116237   5.643   5.949   5.376 -1.6267 -0.3526  0.1045
 4823SOL    HW216238   5.531   6.050   5.367  0.1062  1.5360 -0.7530
 4824SOL     OW16239   7.570   9.301   7.182 -0.2278  0.3060 -0.3375
 4824SOL    HW116240   7.499   9.300   7.245 -0.5277 -0.0282 -0.6772
 4824SOL    HW216241   7.531   9.337   7.102  0.3013  1.3082 -0.1615
 4825SOL     OW16242   7.931   9.311   0.295 -0.0038  0.4979 -0.0224
 4825SOL    HW116243   7.881   9.392   0.280  0.3036  0.4202 -1.7415
 4825SOL    HW216244   7.891   9.248   0.234  2.6832  0.6673 -2.1194
 4826SOL     OW16245   3.214   0.109   6.983 -0.0633 -0.3261 -0.5995
 4826SOL    HW116246   3.283   0.059   6.940  2.2052  0.2509  2.0889
 4826SOL    HW216247   3.208   0.190   6.934  0.3587 -0.8404 -1.5289
 4827SOL     OW16248   8.226   8.145   3.518  0.5740 -0.5101  0.3487
 4827SOL    HW116249   8.152   8.206   3.507  0.9585 -0.2626 -1.1113
 4827SOL    HW216250   8.215   8.110   3.606  1.0580  2.6625  1.8221
 4828SOL     OW16251   0.060   5.927   7.549  0.1877 -0.4372  0.4334
 4828SOL    HW116252   0.087   5.907   7.460 -0.1510 -0.0206  0.2335
 4828SOL    HW216253   0.119   5.997   7.577 -1.6530  1.6232 -0.5819
 4829SOL     OW16254   4.828   9.713   5.561 -0.0667 -0.1722 -0.6130
 4829SOL    HW116255   4.830   9.627   5.602  1.7191  0.4371  0.7063
 4829SOL    HW216256   4.897   9.712   5.495  1.1787  0.7361  0.6051
 4830SOL     OW16257   0.542   5.070   6.210  0.3314  0.0662  0.0904
 4830SOL    HW116258   0.471   5.007   6.205 -0.4911  0.8999  0.9100
 4830SOL    HW216259   0.541   5.115   6.126  1.6559 -1.7241 -0.9584
 4831SOL     OW16260   7.254   2.973   2.861  0.6038 -0.1811  0.3356
 4831SOL    HW116261   7.229   2.881   2.872  0.5727 -0.0755  1.2630
 4831SOL    HW216262   7.267   2.983   2.767  0.1459 -1.0140  0.1689
 4832SOL     OW16263   9.755   4.566   6.831  0.1773  0.4032  0.3078
 4832SOL    HW116264   9.784   4.651   6.864 -2.0191  0.9763  0.9888
 4832SOL    HW216265   9.659   4.572   6.832 -0.0320 -1.2508 -1.8565
 4833SOL     OW16266   9.417   7.438   9.211 -0.0238  0.3204  0.6423
 4833SOL    HW116267   9.389   7.517   9.256 -1.0992 -0.3652  1.2270
 4833SOL    HW216268   9.484   7.400   9.269 -0.9884 -0.2565  1.4110
 4834SOL     OW16269   1.213   5.015   5.385 -0.2764  0.3815 -0.1509
 4834SOL    HW116270   1.134   5.035   5.435  0.0353 -1.4833  1.1783
 4834SOL    HW216271   1.216   5.083   5.317 -2.0306  1.5506  0.8590
 4835SOL     OW16272   2.068   8.722   1.494 -0.3687  0.1041 -0.2327
 4835SOL    HW116273   2.123   8.752   1.422 -0.2383  2.0886  0.6343
 4835SOL    HW216274   2.054   8.629   1.476  2.9402 -0.4246 -0.6872
 4836SOL     OW16275   3.059   6.824   8.279 -0.0867 -0.3095  0.1274
 4836SOL    HW116276   3.108   6.837   8.198  1.6924 -1.1587  1.0150
 4836SOL    HW216277   3.057   6.729   8.291 -0.5876 -0.2102  0.9278
 4837SOL     OW16278   7.118   7.535   0.339  0.3932 -0.3157 -0.1736
 4837SOL    HW116279   7.119   7.552   0.433  1.3720  1.7670 -0.5005
 4837SOL    HW216280   7.031   7.498   0.322  1.0099 -2.9799  1.8426
 4838SOL     OW16281   6.578   8.838   3.436 -0.2906 -0.1436 -0.2792
 4838SOL    HW116282   6.548   8.748   3.420 -1.0302  0.0436  0.0028
 4838SOL    HW216283   6.505   8.879   3.483  0.0075  0.6318 -0.4864
 4839SOL     OW16284   5.246   4.550   4.308  0.2373  0.1725 -0.0406
 4839SOL    HW116285   5.237   4.505   4.223  0.1863 -0.6972  0.4067
 4839SOL    HW216286   5.160   4.539   4.349  0.3249  0.4154  0.2068
 4840SOL     OW16287   4.491   0.392   0.746  0.2117  0.0898  0.2438
 4840SOL    HW116288   4.501   0.297   0.753 -0.5051 -0.1567 -1.5603
 4840SOL    HW216289   4.535   0.415   0.665 -1.0776  1.0419 -0.2213
 4841SOL     OW16290   8.844   0.798   3.288  0.5850 -0.2216 -0.4016
 4841SOL    HW116291   8.917   0.791   3.349  0.1253 -0.8430  0.0958
 4841SOL    HW216292   8.883   0.782   3.202  1.3584  1.3433 -0.3659
 4842SOL     OW16293   8.308   5.084   7.822 -0.0605  0.8850  0.3033
 4842SOL    HW116294   8.339   5.130   7.743  1.0935  0.1622  0.3054
 4842SOL    HW216295   8.318   5.149   7.892  0.1272  1.1248  0.0598
 4843SOL     OW16296   9.496   9.469   4.073 -0.5657  0.3090 -0.1340
 4843SOL    HW116297   9.548   9.472   3.993  1.2416 -0.5137  0.9731
 4843SOL    HW216298   9.408   9.444   4.043  0.4017 -1.4293 -1.7230
 4844SOL     OW16299   7.466   9.696   8.795  0.2236  0.2652 -0.3352
 4844SOL    HW116300   7.520   9.647   8.733  1.8773  0.7877  0.6166
 4844SOL    HW216301   7.529   9.750   8.843 -1.0718  0.3940  1.3066
 4845SOL     OW16302   3.417   8.849   4.050  0.1008 -0.5210  0.8550
 4845SOL    HW116303   3.363   8.833   3.972  1.5381 -0.9626 -0.0925
 4845SOL    HW216304   3.369   8.808   4.121 -0.8004 -0.9409  0.0284
 4846SOL     OW16305   9.597   4.717   8.749  0.0902 -0.0154 -0.2287
 4846SOL    HW116306   9.614   4.633   8.791 -0.1457 -0.3447 -0.7774
 4846SOL    HW216307   9.535   4.761   8.806  1.2182  0.3559  0.7594
 4847SOL     OW16308   3.919   0.427   6.121 -0.5052 -0.1009  0.9580
 4847SOL    HW116309   4.000   0.442   6.170 -0.0404 -0.3880  0.2873
 4847SOL    HW216310   3.885   0.514   6.104 -0.3459  0.0223  1.2479
 4848SOL     OW16311   4.462   3.790   5.449 -0.6591  0.0756 -0.7183
 4848SOL    HW116312   4.433   3.775   5.359 -1.2837  0.6501 -0.6160
 4848SOL    HW216313   4.395   3.846   5.487 -2.0317 -2.5558  1.0519
 4849SOL     OW16314   0.246   3.988   0.236  0.1348  0.3251 -0.0499
 4849SOL    HW116315   0.246   3.975   0.141 -0.2173 -1.2584  0.1454
 4849SOL    HW216316   0.329   3.949   0.265 -0.4535 -0.5893  0.4444
 4850SOL     OW16317   8.712   7.215   2.728 -0.2594  0.2217  0.1577
 4850SOL    HW116318   8.747   7.148   2.787 -0.5933  1.4795  1.8676
 4850SOL    HW216319   8.773   7.216   2.654 -1.0187 -2.9249 -0.6687
 4851SOL     OW16320   6.766   9.390   7.679  0.3115  0.1210  0.0154
 4851SOL    HW116321   6.820   9.460   7.641 -0.5835 -0.2249 -2.0144
 4851SOL    HW216322   6.823   9.312   7.677  0.5030  0.2589  0.0596
 4852SOL     OW16323   6.375   4.143   6.493  0.2248  0.6703 -0.0633
 4852SOL    HW116324   6.419   4.085   6.556 -0.9393 -0.2807 -0.0827
 4852SOL    HW216325   6.377   4.229   6.534  1.4252  0.5013  0.2694
 4853SOL     OW16326   4.989   7.326   3.355  0.3725 -0.0479  0.5067
 4853SOL    HW116327   4.940   7.331   3.437  0.3693  2.7919  0.4274
 4853SOL    HW216328   4.939   7.381   3.294  1.7800  0.0522 -0.6227
 4854SOL     OW16329   8.921   1.189   6.970 -0.2891 -0.2234 -0.0647
 4854SOL    HW116330   8.993   1.249   6.949 -1.0526  0.5301 -0.6157
 4854SOL    HW216331   8.878   1.172   6.886 -1.3619  0.1472  0.3906
 4855SOL     OW16332   8.727   1.964   8.610 -0.2164 -0.4341  0.3777
 4855SOL    HW116333   8.740   1.989   8.702 -0.1866  0.9313  0.0243
 4855SOL    HW216334   8.809   1.989   8.567 -1.2734  1.6995 -0.5475
 4856SOL     OW16335   0.200   6.529   3.943 -0.1782 -0.0137  0.1097
 4856SOL    HW116336   0.242   6.609   3.977  0.3738  0.5979 -1.8718
 4856SOL    HW216337   0.106   6.547   3.947 -0.1175  0.1087  1.1112
 4857SOL     OW16338   6.161   7.692   4.031  0.2825  0.2539  0.1892
 4857SOL    HW116339   6.096   7.675   3.962 -1.6066 -2.4217  2.4083
 4857SOL    HW216340   6.115   7.747   4.094  0.6585 -0.3762  1.0337
 4858SOL     OW16341   1.243   9.786   9.770  0.3231  0.0291  0.5701
 4858SOL    HW116342   1.156   9.775   9.732  1.0010  0.5367 -1.1780
 4858SOL    HW216343   1.243   9.874   9.807  0.0488 -0.0471  0.7571
 4859SOL     OW16344   6.832   5.682   9.086 -0.3827  0.2528  0.6216
 4859SOL    HW116345   6.838   5.777   9.100 -1.2178  0.2794  0.8263
 4859SOL    HW216346   6.751   5.656   9.130 -0.1041 -0.5771  0.6590
 4860SOL     OW16347   4.226   5.067   8.199 -0.1424  0.4638 -0.1406
 4860SOL    HW116348   4.218   4.984   8.152 -1.0001 -0.1580  1.0474
 4860SOL    HW216349   4.320   5.077   8.215  0.0604  0.2074 -1.1054
 4861SOL     OW16350   3.453   8.603   6.986 -0.1564  0.3349 -0.3746
 4861SOL    HW116351   3.524   8.586   6.924 -0.1631 -2.0998  0.2017
 4861SOL    HW216352   3.481   8.561   7.067 -1.1332  1.5748  0.6502
 4862SOL     OW16353   6.113   3.084   4.219 -0.1819 -0.1030 -0.5473
 4862SOL    HW116354   6.099   3.120   4.307 -1.9767 -1.6125 -0.1502
 4862SOL    HW216355   6.207   3.067   4.215 -0.0724 -0.0894  1.1272
 4863SOL     OW16356   5.732   3.940   8.327  0.0163 -0.7152 -0.2872
 4863SOL    HW116357   5.794   4.006   8.358 -0.3529 -0.3437 -0.3330
 4863SOL    HW216358   5.649   3.987   8.316  0.4923 -0.4021 -3.4645
 4864SOL     OW16359   6.568   7.887   5.492  0.4995 -0.1021 -0.1523
 4864SOL    HW116360   6.658   7.917   5.477  0.3719  0.5944  0.4553
 4864SOL    HW216361   6.527   7.956   5.543 -0.2027 -0.7037  0.1224
 4865SOL     OW16362   9.255   7.959   1.819  0.0282  0.0960 -0.1002
 4865SOL    HW116363   9.310   8.016   1.767  0.4724 -0.3937 -0.1771
 4865SOL    HW216364   9.315   7.918   1.882  0.1233 -1.8696 -1.4016
 4866SOL     OW16365   6.627   9.371   4.044  0.0162  0.1025  0.2875
 4866SOL    HW116366   6.605   9.293   3.993  0.1259  0.8009 -0.8444
 4866SOL    HW216367   6.711   9.349   4.085  0.1826 -0.2694 -0.2414
 4867SOL     OW16368   3.300   1.234   3.357 -0.1716 -0.6354 -0.5104
 4867SOL    HW116369   3.211   1.263   3.335 -0.5015 -1.6277 -0.5592
 4867SOL    HW216370   3.295   1.138   3.354  0.6869 -0.7178  0.3428
 4868SOL     OW16371   3.513   3.565   6.541  0.0994 -0.2358  0.1704
 4868SOL    HW116372   3.598   3.521   6.534 -0.5473 -1.4563 -0.3194
 4868SOL    HW216373   3.520   3.640   6.482  0.6519 -0.6293 -0.2743
 4869SOL     OW16374   6.738   9.815   3.437  0.2216 -0.5880 -0.1692
 4869SOL    HW116375   6.686   9.789   3.512  1.0898 -1.3555  0.1894
 4869SOL    HW216376   6.679   9.806   3.362  0.1086 -2.4819  0.0898
 4870SOL     OW16377   9.829   5.410   2.260  0.0513 -0.1488 -0.1753
 4870SOL    HW116378   9.856   5.466   2.332  0.0382  0.4629 -0.6397
 4870SOL    HW216379   9.772   5.465   2.207 -1.2859 -1.0937  0.2244
 4871SOL     OW16380   0.057   7.785   2.633  0.2427 -0.4823  0.2338
 4871SOL    HW116381   0.002   7.795   2.555  0.7984 -1.3046 -0.2881
 4871SOL    HW216382   0.025   7.851   2.694 -1.3998 -1.0079  0.0012
 4872SOL     OW16383   8.031   0.910   1.486  0.3332 -0.3745  0.5228
 4872SOL    HW116384   7.997   0.995   1.512 -1.2597 -0.1674 -1.9359
 4872SOL    HW216385   7.961   0.848   1.508  0.9208 -0.8879  1.0187
 4873SOL     OW16386   9.510   6.182   1.150  0.0700 -0.1497  0.2350
 4873SOL    HW116387   9.515   6.090   1.122  0.2516  0.3599 -1.4973
 4873SOL    HW216388   9.554   6.231   1.081 -1.1172  1.3648  0.4945
 4874SOL     OW16389   4.526   5.252   3.963  0.3094  0.1854 -0.7414
 4874SOL    HW116390   4.596   5.261   3.899  1.8007  1.0755  0.9558
 4874SOL    HW216391   4.554   5.304   4.038 -1.1909 -1.1209  0.8070
 4875SOL     OW16392   9.565   6.287   3.643  0.0626  0.1205 -0.2750
 4875SOL    HW116393   9.515   6.356   3.688  0.7954  0.4911 -0.0204
 4875SOL    HW216394   9.499   6.242   3.590 -0.7253 -0.0023  0.7702
 4876SOL     OW16395   6.031   9.206   4.362 -0.9244  0.8368  0.2039
 4876SOL    HW116396   5.983   9.232   4.283 -0.4294  2.8868  0.5180
 4876SOL    HW216397   6.123   9.206   4.335 -0.8997 -1.4479  0.0423
 4877SOL     OW16398   7.337   5.750   8.321  0.9498 -0.4606  0.4193
 4877SOL    HW116399   7.337   5.839   8.357  0.9339 -0.4773  0.4606
 4877SOL    HW216400   7.338   5.763   8.226 -1.1988 -0.4049  0.3639
 4878SOL     OW16401   7.798   0.206   5.232  0.1643  0.1161 -0.0065
 4878SOL    HW116402   7.809   0.292   5.191 -1.0763  0.1405 -0.3421
 4878SOL    HW216403   7.832   0.217   5.321 -0.9501  1.2800  0.3148
 4879SOL     OW16404   2.272   1.036   5.171 -0.1975 -0.4399  0.5906
 4879SOL    HW116405   2.309   0.961   5.124 -2.8162 -0.2973 -1.9510
 4879SOL    HW216406   2.178   1.021   5.171 -0.6882  2.0955  1.4173
 4880SOL     OW16407   1.170   1.035   9.123 -0.0060 -0.2894  0.5175
 4880SOL    HW116408   1.189   1.121   9.085 -0.3946  0.0140  0.9990
 4880SOL    HW216409   1.101   1.052   9.188  0.6760 -0.7783  1.4029
 4881SOL     OW16410   4.047   2.857   9.064  0.6533  0.1742 -0.1734
 4881SOL    HW116411   3.957   2.844   9.035  0.4943  0.5616  0.1201
 4881SOL    HW216412   4.079   2.770   9.086  1.0530 -0.2466 -2.2264
 4882SOL     OW16413   5.254   8.478   4.766 -1.0480 -0.0634 -0.1995
 4882SOL    HW116414   5.194   8.424   4.714 -0.2803 -1.6023  0.4589
 4882SOL    HW216415   5.334   8.480   4.713 -0.6209 -0.7426  0.4059
 4883SOL     OW16416   5.180   0.801   0.848 -0.2396  0.2591 -0.2277
 4883SOL    HW116417   5.124   0.776   0.775 -0.9235  0.2248  0.2947
 4883SOL    HW216418   5.120   0.841   0.911  0.2267 -0.3228  0.6022
 4884SOL     OW16419   7.011   3.387   4.920 -0.0627 -0.4124  0.0281
 4884SOL    HW116420   6.964   3.398   5.002  0.6327 -1.7500  0.6434
 4884SOL    HW216421   6.962   3.320   4.872 -0.8905  0.8978 -1.0009
 4885SOL     OW16422   1.241   0.330   3.819 -0.1226  0.0390  0.2761
 4885SOL    HW116423   1.242   0.380   3.738  0.2233 -1.8599 -0.9417
 4885SOL    HW216424   1.154   0.347   3.856 -0.5122  0.4540 -0.7793
 4886SOL     OW16425   1.307   7.600   8.438  0.2588  0.7049  0.0649
 4886SOL    HW116426   1.252   7.614   8.361  1.3310 -0.2437 -0.9318
 4886SOL    HW216427   1.273   7.520   8.478 -1.2855  2.0296  1.5351
 4887SOL     OW16428   6.386   0.774   8.822 -0.0085 -0.3037  0.2819
 4887SOL    HW116429   6.313   0.714   8.834 -1.6759  0.6803 -3.5046
 4887SOL    HW216430   6.444   0.730   8.760  0.1733  0.7983 -0.3642
 4888SOL     OW16431   3.798   5.937   6.589 -0.1203 -0.0109 -0.3994
 4888SOL    HW116432   3.832   5.956   6.501  0.4513  0.8009 -0.0210
 4888SOL    HW216433   3.828   5.848   6.608 -1.4082 -0.7206 -1.5579
 4889SOL     OW16434   7.989   1.064   1.824  0.7969  0.4708  0.1066
 4889SOL    HW116435   7.921   1.023   1.877  0.4919  1.2107  0.3004
 4889SOL    HW216436   8.061   1.001   1.825  0.8154  0.4806  1.4439
 4890SOL     OW16437   3.894   8.674   1.960 -0.3213 -0.5845 -0.2638
 4890SOL    HW116438   3.927   8.673   1.871 -0.4801 -0.4610 -0.3255
 4890SOL    HW216439   3.817   8.617   1.958 -1.2531  0.6438 -0.5794
 4891SOL     OW16440   6.517   5.683   2.561 -0.2829  0.0302 -0.0429
 4891SOL    HW116441   6.605   5.705   2.530 -0.4389  0.3317 -0.2827
 4891SOL    HW216442   6.512   5.588   2.556  1.2516 -0.3552  3.2275
 4892SOL     OW16443   8.417   5.166   0.438 -0.1697 -0.0800 -0.2941
 4892SOL    HW116444   8.409   5.203   0.526  2.5597 -1.0539  0.4486
 4892SOL    HW216445   8.461   5.235   0.388  1.0643 -0.6555 -0.0371
 4893SOL     OW16446   0.656   5.663   0.684 -0.1396  0.1733  0.7885
 4893SOL    HW116447   0.642   5.706   0.600 -1.1115  1.1984  1.4493
 4893SOL    HW216448   0.625   5.573   0.670  0.9381 -0.0566 -0.3032
 4894SOL     OW16449   8.578   3.805   0.489 -0.1113 -0.0142 -0.0875
 4894SOL    HW116450   8.598   3.770   0.402 -0.3470 -1.6808  0.4799
 4894SOL    HW216451   8.663   3.829   0.526 -0.1158  1.9339 -1.2209
 4895SOL     OW16452   6.891   0.614   9.520  0.0264 -0.0964 -0.1668
 4895SOL    HW116453   6.910   0.675   9.449 -0.9993  0.3728 -0.0539
 4895SOL    HW216454   6.912   0.664   9.600 -3.6709  1.3275  0.1052
 4896SOL     OW16455   8.658   9.379   0.283 -0.3586  0.0315 -0.3131
 4896SOL    HW116456   8.588   9.410   0.225  0.0444  0.3099 -0.6559
 4896SOL    HW216457   8.730   9.440   0.268 -0.9428  1.4264  2.0283
 4897SOL     OW16458   7.293   9.477   0.573  0.4745 -0.9210 -1.0580
 4897SOL    HW116459   7.223   9.490   0.509  0.5792 -1.7327 -1.3535
 4897SOL    HW216460   7.259   9.516   0.654  0.5694  0.6219 -1.7284
 4898SOL     OW16461   5.416   4.147   1.257 -0.3640 -0.0544 -0.2087
 4898SOL    HW116462   5.338   4.152   1.202 -0.0254  2.0670 -0.5775
 4898SOL    HW216463   5.455   4.234   1.252  0.5444 -0.2428  2.1452
 4899SOL     OW16464   4.350   9.798   3.695 -0.2394 -0.0490  0.0950
 4899SOL    HW116465   4.445   9.784   3.695 -0.4794 -2.3027  1.8477
 4899SOL    HW216466   4.338   9.885   3.732  1.1549  1.4860 -2.7289
 4900SOL     OW16467   2.726   0.772   2.351 -0.3718  0.7375  0.1577
 4900SOL    HW116468   2.631   0.778   2.349 -0.4399 -0.4675 -1.1829
 4900SOL    HW216469   2.748   0.707   2.285  1.2195 -1.1512  2.3704
 4901SOL     OW16470   8.890   3.194   9.345  0.0570  0.2136 -0.3031
 4901SOL    HW116471   8.963   3.254   9.330 -0.0601  0.4889  0.1827
 4901SOL    HW216472   8.826   3.247   9.394  0.0578 -0.3769  0.3584
 4902SOL     OW16473   4.147   4.266   9.635 -0.1409 -0.3329 -0.5037
 4902SOL    HW116474   4.208   4.227   9.573  0.5599 -1.1174  0.6614
 4902SOL    HW216475   4.174   4.358   9.640 -0.2097 -0.2532 -1.3428
 4903SOL     OW16476   5.984   1.255   8.658 -0.0934  0.3770  0.1031
 4903SOL    HW116477   5.928   1.308   8.602 -1.2967  0.8830  1.6931
 4903SOL    HW216478   5.947   1.167   8.652 -0.2661  0.4451  0.1562
 4904SOL     OW16479   3.142   2.590   8.624  0.1854 -0.3541  0.0151
 4904SOL    HW116480   3.145   2.545   8.539 -0.7904  0.1868 -0.3134
 4904SOL    HW216481   3.098   2.528   8.682 -1.9772  0.4515 -0.6546
 4905SOL     OW16482   5.209   9.556   0.211  0.8136  0.3647 -0.2179
 4905SOL    HW116483   5.179   9.521   0.295  2.9667  1.2219  0.9938
 4905SOL    HW216484   5.255   9.483   0.170  1.6331  0.5367  0.3673
 4906SOL     OW16485   0.685   8.040   0.299  0.1192  0.2158 -0.2254
 4906SOL    HW116486   0.753   8.062   0.234 -0.4523  1.2184 -0.5172
 4906SOL    HW216487   0.726   8.059   0.383  0.8085 -0.9255 -0.2850
 4907SOL     OW16488   3.908   7.666   5.135  0.0815 -0.5466 -0.0208
 4907SOL    HW116489   3.958   7.704   5.063 -0.1578  2.3814  1.2239
 4907SOL    HW216490   3.958   7.688   5.214 -1.6539 -0.0557  1.0116
 4908SOL     OW16491   3.594   7.752   3.307  0.4081  0.3328  0.1118
 4908SOL    HW116492   3.523   7.734   3.369 -0.6297 -0.5201 -1.2627
 4908SOL    HW216493   3.634   7.833   3.340 -0.4451  0.2007  1.5757
 4909SOL     OW16494   1.434   2.791   2.889  0.2598  0.0948  0.1482
 4909SOL    HW116495   1.423   2.837   2.972 -1.2418  0.8226 -0.4103
 4909SOL    HW216496   1.471   2.857   2.830  1.6082 -0.5049  0.2953
 4910SOL     OW16497   7.565   2.066   5.876 -0.0886  0.9825  0.0611
 4910SOL    HW116498   7.549   2.160   5.870  0.7860  1.0881 -0.8263
 4910SOL    HW216499   7.614   2.055   5.958 -0.3254  1.2752  0.2432
 4911SOL     OW16500   4.528   9.470   5.347 -0.1284 -0.3224 -0.2362
 4911SOL    HW116501   4.554   9.495   5.259 -1.2359  0.6447 -0.3242
 4911SOL    HW216502   4.603   9.422   5.383  0.8947  0.5352 -1.1825
 4912SOL     OW16503   2.118   6.321   3.474 -0.3613 -0.5066  0.2947
 4912SOL    HW116504   2.202   6.361   3.450 -0.1396 -1.2229 -0.1481
 4912SOL    HW216505   2.112   6.244   3.418 -0.8923 -0.9628  0.9729
 4913SOL     OW16506   8.496   5.799   0.256 -0.5661 -0.0219 -0.4937
 4913SOL    HW116507   8.404   5.786   0.279 -0.9924  1.2832 -1.3047
 4913SOL    HW216508   8.493   5.833   0.167  0.8200 -1.5617 -1.1580
 4914SOL     OW16509   8.900   6.561   8.765 -0.4576 -0.4650  0.0289
 4914SOL    HW116510   8.993   6.543   8.776 -0.0571  1.7515  0.7238
 4914SOL    HW216511   8.860   6.475   8.753  1.5889 -1.5087  0.2990
 4915SOL     OW16512   9.489   0.061   6.003  0.2293 -0.3289 -0.3463
 4915SOL    HW116513   9.511   0.154   6.008 -0.3650 -0.1063 -1.6739
 4915SOL    HW216514   9.504   0.037   5.912  0.9531 -1.7000  0.0972
 4916SOL     OW16515   4.842   0.629   9.118  0.1161  0.0606 -0.1498
 4916SOL    HW116516   4.791   0.710   9.119 -1.5180 -0.8923  2.1758
 4916SOL    HW216517   4.783   0.563   9.084  0.5333 -0.6432  0.4541
 4917SOL     OW16518   0.222   1.724   9.213  0.1457 -0.4262  0.1268
 4917SOL    HW116519   0.304   1.765   9.240  0.9536 -1.8255 -0.1150
 4917SOL    HW216520   0.223   1.728   9.118 -0.7208  0.7380  0.1412
 4918SOL     OW16521   6.223   6.835   0.452  0.0256  0.6007  0.6084
 4918SOL    HW116522   6.282   6.899   0.492 -0.4512  0.2441  1.9383
 4918SOL    HW216523   6.143   6.883   0.435 -0.0751  0.5452  0.9167
 4919SOL     OW16524   7.615   4.368   3.838 -0.4928  0.1076  0.0019
 4919SOL    HW116525   7.556   4.295   3.819 -0.3178  0.1248 -0.6357
 4919SOL    HW216526   7.558   4.437   3.871 -0.7954  0.0190 -0.3259
 4920SOL     OW16527   4.091   8.104   1.932 -0.1722 -0.2751 -0.2300
 4920SOL    HW116528   4.100   8.013   1.903 -1.7584 -0.8863  1.0534
 4920SOL    HW216529   4.181   8.137   1.935  0.3022 -1.0821 -2.8316
 4921SOL     OW16530   3.210   2.442   6.287 -0.0234  0.0378 -0.5077
 4921SOL    HW116531   3.145   2.395   6.234 -0.5550 -0.0467  0.2068
 4921SOL    HW216532   3.244   2.376   6.347  0.1866  0.2608 -0.3813
 4922SOL     OW16533   2.000   7.139   1.092  0.4317  0.1348  0.1222
 4922SOL    HW116534   1.962   7.061   1.053 -0.1632 -1.6292  3.7879
 4922SOL    HW216535   1.925   7.196   1.111  0.2921 -0.4501  1.4521
 4923SOL     OW16536   1.509   0.527   6.619 -0.6883  0.3735 -0.2578
 4923SOL    HW116537   1.550   0.609   6.594  1.6851 -0.2586  1.3088
 4923SOL    HW216538   1.519   0.471   6.542 -0.0521  0.7398 -0.4465
 4924SOL     OW16539   0.857   5.303   8.948  0.1941 -0.1465 -0.4849
 4924SOL    HW116540   0.787   5.265   8.894  0.5586  0.5159 -1.4462
 4924SOL    HW216541   0.817   5.313   9.034 -1.1737  0.9532 -1.2018
 4925SOL     OW16542   5.319   5.759   5.949  0.4838 -0.3904 -0.0839
 4925SOL    HW116543   5.344   5.850   5.933 -0.1705 -0.1041  0.4744
 4925SOL    HW216544   5.239   5.746   5.898  0.3774 -0.5441  0.1184
 4926SOL     OW16545   6.443   1.899   4.763 -0.3090  0.3429  0.6647
 4926SOL    HW116546   6.472   1.815   4.800 -1.9128 -0.5447  0.0068
 4926SOL    HW216547   6.368   1.925   4.817 -0.2068  1.0446  0.4769
 4927SOL     OW16548   3.981   7.288   4.376 -0.2273  0.2191 -0.5241
 4927SOL    HW116549   4.047   7.323   4.317 -0.9445  1.0073 -0.8865
 4927SOL    HW216550   3.943   7.365   4.419 -0.7220 -0.2311 -0.1274
 4928SOL     OW16551   5.005   7.077   3.261  0.7675  0.2512  0.6301
 4928SOL    HW116552   5.056   7.009   3.306  0.1804 -0.6085  0.0190
 4928SOL    HW216553   5.017   7.156   3.315  0.6345 -0.5801  1.9094
 4929SOL     OW16554   2.299   0.990   7.751 -0.9745  0.5975  0.0257
 4929SOL    HW116555   2.375   1.032   7.791 -0.8106 -0.5808  0.9978
 4929SOL    HW216556   2.225   1.017   7.805 -0.9532  0.1543  0.2849
 4930SOL     OW16557   6.889   8.676   4.440 -0.1831  0.3292 -0.5068
 4930SOL    HW116558   6.901   8.617   4.515  0.6554  1.2571  0.1069
 4930SOL    HW216559   6.794   8.686   4.434 -0.4136 -1.7039 -1.1431
 4931SOL     OW16560   6.449   6.185   4.793 -0.7907  0.5854 -0.2798
 4931SOL    HW116561   6.394   6.120   4.836 -0.7939  1.6977  1.5146
 4931SOL    HW216562   6.487   6.236   4.866  1.1214  1.0388 -1.5164
 4932SOL     OW16563   5.823   8.658   2.834 -0.1895  0.0399 -0.1920
 4932SOL    HW116564   5.876   8.617   2.901 -0.7103 -0.9715 -0.3831
 4932SOL    HW216565   5.783   8.585   2.786 -0.9673  0.7543 -0.6712
 4933SOL     OW16566   3.530   7.964   9.731 -0.3064  0.1077 -0.1440
 4933SOL    HW116567   3.451   7.991   9.778  1.0154  1.2224  1.5726
 4933SOL    HW216568   3.509   7.877   9.697 -2.1677  0.2637  0.4972
 4934SOL     OW16569   8.599   9.481   7.484 -0.5179  0.1896  0.0628
 4934SOL    HW116570   8.598   9.567   7.527  0.4251  0.3302 -0.1816
 4934SOL    HW216571   8.691   9.465   7.464 -0.3212 -1.9835  2.3041
 4935SOL     OW16572   4.610   2.816   6.628  0.1924 -0.2192  0.1998
 4935SOL    HW116573   4.623   2.740   6.571 -0.4056 -1.3193  1.4807
 4935SOL    HW216574   4.601   2.890   6.568  2.5400 -0.8503 -1.0397
 4936SOL     OW16575   1.681   7.454   7.187 -0.2036  0.1812  0.1918
 4936SOL    HW116576   1.673   7.362   7.164  1.5338 -0.0251  0.2497
 4936SOL    HW216577   1.774   7.465   7.209 -0.6537  1.6368  1.5224
 4937SOL     OW16578   7.415   4.896   6.363  0.3545 -0.6405  0.3691
 4937SOL    HW116579   7.428   4.824   6.425  0.8042  0.5169  1.6645
 4937SOL    HW216580   7.477   4.878   6.292  0.2349 -1.6885  0.5174
 4938SOL     OW16581   4.929   8.385   8.557  0.4444  0.3137 -0.1132
 4938SOL    HW116582   4.885   8.339   8.486 -1.1772  2.0734 -0.3089
 4938SOL    HW216583   5.022   8.363   8.545 -0.1314 -2.1280 -0.6968
 4939SOL     OW16584   5.658   8.236   2.794 -0.1645 -0.6710 -0.3933
 4939SOL    HW116585   5.637   8.207   2.883  1.8985 -0.9710  0.0466
 4939SOL    HW216586   5.585   8.206   2.741 -0.8887 -1.5015  1.0172
 4940SOL     OW16587   3.008   5.651   1.472 -0.1647  0.0443 -0.8143
 4940SOL    HW116588   3.088   5.672   1.424 -0.2665 -0.0536 -1.0295
 4940SOL    HW216589   2.968   5.580   1.421 -0.8362  0.6956 -1.1984
 4941SOL     OW16590   6.754   4.013   4.617 -0.4687 -0.0330 -0.1404
 4941SOL    HW116591   6.676   4.065   4.635 -0.5047 -0.3671  0.7123
 4941SOL    HW216592   6.766   4.020   4.522 -0.5777  1.3573 -0.0683
 4942SOL     OW16593   3.844   6.879   2.709  0.4847  0.1655  0.2260
 4942SOL    HW116594   3.926   6.889   2.660  0.2485  0.0894 -0.1875
 4942SOL    HW216595   3.787   6.829   2.650  0.6138 -1.0210  1.0619
 4943SOL     OW16596   3.974   0.537   9.052  0.3748 -0.0204  0.4305
 4943SOL    HW116597   4.029   0.511   9.126 -0.5066 -1.9144  0.5015
 4943SOL    HW216598   3.887   0.551   9.091  0.2269  0.4035 -0.0434
 4944SOL     OW16599   6.840   9.303   2.193 -0.2082 -0.0143 -0.3353
 4944SOL    HW116600   6.929   9.270   2.201 -0.3360 -0.5273 -0.9483
 4944SOL    HW216601   6.850   9.397   2.180  0.2902 -0.1570 -1.0814
 4945SOL     OW16602   8.519   6.421   6.515  0.1111  0.4596  0.4020
 4945SOL    HW116603   8.461   6.355   6.475  3.5888 -2.2972 -0.5934
 4945SOL    HW216604   8.483   6.435   6.602 -1.8142 -1.3691 -0.0120
 4946SOL     OW16605   9.815   5.737   4.194 -0.3698 -0.3099  0.1000
 4946SOL    HW116606   9.730   5.696   4.178  0.5465 -1.7927 -1.3199
 4946SOL    HW216607   9.841   5.772   4.108 -0.1685  1.4350  0.8366
 4947SOL     OW16608   3.826   1.678   8.991  0.1296 -0.5078  0.8240
 4947SOL    HW116609   3.803   1.630   9.071 -0.1184  0.3464  1.2830
 4947SOL    HW216610   3.849   1.766   9.022  0.7610 -0.3799  0.0245
 4948SOL     OW16611   4.523   9.812   1.500  0.6772 -0.4729 -0.6143
 4948SOL    HW116612   4.490   9.762   1.575  1.8282  0.6874  0.7009
 4948SOL    HW216613   4.447   9.819   1.442 -0.4571 -0.7546  0.7657
 4949SOL     OW16614   5.884   2.372   5.816  0.2249 -0.3201  0.0176
 4949SOL    HW116615   5.854   2.391   5.905  0.9719 -1.8182  0.6317
 4949SOL    HW216616   5.803   2.362   5.765 -0.2236 -0.1378  0.6846
 4950SOL     OW16617   1.269   4.815   8.341  0.4502  0.8150  0.1490
 4950SOL    HW116618   1.191   4.813   8.286 -1.1699  2.1662  2.2130
 4950SOL    HW216619   1.240   4.856   8.422  3.0462  0.2592  1.4848
 4951SOL     OW16620   4.047   9.776   4.236 -0.0988 -0.2316 -0.4554
 4951SOL    HW116621   4.017   9.859   4.273 -2.2263 -0.8130 -0.7408
 4951SOL    HW216622   4.098   9.736   4.306 -1.1099  0.2485  0.5909
 4952SOL     OW16623   1.011   2.549   3.831  0.3833 -0.4132 -0.0455
 4952SOL    HW116624   0.919   2.575   3.828  0.5186  0.0434 -0.3156
 4952SOL    HW216625   1.010   2.461   3.870 -0.0665  0.0617  1.0557
 4953SOL     OW16626   7.706   4.637   6.271 -0.1110  0.0317 -0.1579
 4953SOL    HW116627   7.793   4.641   6.311 -0.0217  0.7720 -0.4078
 4953SOL    HW216628   7.649   4.684   6.333 -0.4167 -0.7800  0.1934
 4954SOL     OW16629   2.391   1.866   5.574  0.2987  0.6473 -0.0564
 4954SOL    HW116630   2.309   1.816   5.574  0.3550  0.5227 -1.3079
 4954SOL    HW216631   2.371   1.945   5.624  0.0649 -0.3626  1.5276
 4955SOL     OW16632   8.665   7.916   7.123 -0.1233 -0.2041  0.2494
 4955SOL    HW116633   8.712   7.939   7.203  0.2150 -1.2388  0.3547
 4955SOL    HW216634   8.734   7.894   7.060 -0.4340 -0.7199  0.0866
 4956SOL     OW16635   5.173   6.800   5.812 -0.5804  0.4199  0.0395
 4956SOL    HW116636   5.126   6.883   5.822 -0.8731  0.1464  1.0555
 4956SOL    HW216637   5.109   6.733   5.835  0.0645 -0.0064  0.6327
 4957SOL     OW16638   3.397   8.240   1.216  0.9043 -0.0694  0.3893
 4957SOL    HW116639   3.344   8.272   1.289  0.5589  0.1740  0.0388
 4957SOL    HW216640   3.471   8.195   1.257  1.1425  0.7620  0.8855
 4958SOL     OW16641   0.206   7.411   6.306 -0.3828 -0.3959  0.0732
 4958SOL    HW116642   0.247   7.350   6.366 -1.9990  0.9728  2.7676
 4958SOL    HW216643   0.226   7.498   6.342 -1.5032  0.4997 -1.3293
 4959SOL     OW16644   7.968   0.017   6.057 -0.4457  0.5434  0.5209
 4959SOL    HW116645   7.891   0.056   6.015 -1.0204 -0.1693  0.8749
 4959SOL    HW216646   8.041   0.074   6.032 -1.1672  1.5321  0.6106
 4960SOL     OW16647   9.594   0.701   0.941 -0.5694  0.6876  0.0398
 4960SOL    HW116648   9.681   0.676   0.974 -1.1176 -0.9147  0.3669
 4960SOL    HW216649   9.607   0.711   0.847 -0.5869 -2.6303 -0.4403
 4961SOL     OW16650   4.333   6.042   0.733  0.6976 -0.4634 -0.5314
 4961SOL    HW116651   4.273   6.107   0.771 -0.9392 -2.9774  1.5059
 4961SOL    HW216652   4.282   6.002   0.663 -0.3798 -2.9334  1.5061
 4962SOL     OW16653   8.495   1.429   0.237 -0.1354  0.7039 -0.1218
 4962SOL    HW116654   8.407   1.401   0.259 -0.3707  0.5858 -1.1616
 4962SOL    HW216655   8.505   1.514   0.281  0.1346 -0.3672  1.9999
 4963SOL     OW16656   5.032   9.174   8.721 -0.6037 -0.1212  0.1922
 4963SOL    HW116657   5.007   9.117   8.794  0.0849  0.3142  0.7748
 4963SOL    HW216658   5.127   9.167   8.717 -0.6859 -0.8018 -1.2180
 4964SOL     OW16659   9.735   6.163   7.039  0.0168 -0.0659  0.2545
 4964SOL    HW116660   9.810   6.104   7.037 -0.4082 -0.6047 -1.1341
 4964SOL    HW216661   9.752   6.223   7.112  1.3572 -0.7269  0.4993
 4965SOL     OW16662   6.176   9.616   4.934 -0.1041 -0.4220  0.0694
 4965SOL    HW116663   6.097   9.631   4.881 -0.0048 -1.5074 -0.4113
 4965SOL    HW216664   6.247   9.650   4.880 -0.3619  2.4328  1.3319
 4966SOL     OW16665   9.043   3.497   6.161 -0.1654  0.0246  0.0655
 4966SOL    HW116666   9.090   3.487   6.243  2.6134 -0.7973 -1.5151
 4966SOL    HW216667   9.083   3.574   6.120  0.1875 -0.9664 -1.5276
 4967SOL     OW16668   2.104   3.893   4.220 -0.4515 -0.3510 -0.1233
 4967SOL    HW116669   2.082   3.924   4.308  1.5493  0.0028  0.3233
 4967SOL    HW216670   2.167   3.958   4.188 -0.0862 -1.2323 -1.2446
 4968SOL     OW16671   7.445   0.652   8.167  0.1692  0.9833 -0.0458
 4968SOL    HW116672   7.463   0.590   8.096  2.2281  0.2679  1.0175
 4968SOL    HW216673   7.422   0.733   8.122 -0.6508  0.0160 -1.4866
 4969SOL     OW16674   0.097   8.257   3.494  0.5183 -0.1987 -0.6023
 4969SOL    HW116675   0.113   8.273   3.587 -2.1586  0.8272 -0.2525
 4969SOL    HW216676   0.096   8.161   3.486  1.1440 -0.2947  0.3109
 4970SOL     OW16677   5.636   2.923   8.043  0.1455  0.4359 -0.0733
 4970SOL    HW116678   5.688   2.978   8.101  0.2831 -0.8586  1.0923
 4970SOL    HW216679   5.686   2.842   8.036 -0.9984 -0.2872 -0.1113
 4971SOL     OW16680   5.810   4.489   0.745  0.2090  0.2827 -0.5951
 4971SOL    HW116681   5.876   4.444   0.693  0.1987 -0.1391 -0.2480
 4971SOL    HW216682   5.826   4.582   0.730  1.1383  0.1981 -0.2068
 4972SOL     OW16683   5.909   1.035   9.272 -0.1163 -0.6855 -0.4166
 4972SOL    HW116684   5.830   1.080   9.302  0.1027 -0.3864 -0.2777
 4972SOL    HW216685   5.927   1.074   9.186  0.3551 -0.1475 -0.0772
 4973SOL     OW16686   9.183   2.275   4.796  0.3142  0.0405  0.0273
 4973SOL    HW116687   9.202   2.182   4.809  1.5536  0.2509 -0.1349
 4973SOL    HW216688   9.153   2.306   4.881 -3.1450 -1.1305 -0.6067
 4974SOL     OW16689   3.326   9.733   2.725  0.2630 -0.2361  0.1008
 4974SOL    HW116690   3.364   9.654   2.688  1.7289  1.1753 -1.6406
 4974SOL    HW216691   3.242   9.706   2.760  1.2973 -2.7947  0.7903
 4975SOL     OW16692   6.623   6.937   5.032 -0.6592 -0.0100  0.1719
 4975SOL    HW116693   6.536   6.976   5.023 -1.5241 -2.0580 -0.9594
 4975SOL    HW216694   6.625   6.868   4.967  1.0686 -1.3615  1.5657
 4976SOL     OW16695   5.397   7.326   8.193  0.3083  0.3716 -0.3172
 4976SOL    HW116696   5.332   7.313   8.124  1.2341  1.3902 -1.4160
 4976SOL    HW216697   5.452   7.398   8.162  0.3935  1.2694  1.7695
 4977SOL     OW16698   3.063   7.360   5.140 -0.0749  0.3016 -0.0757
 4977SOL    HW116699   3.157   7.377   5.148 -0.1771  0.8561 -0.0386
 4977SOL    HW216700   3.025   7.399   5.219 -0.5001  1.3381 -0.7831
 4978SOL     OW16701   9.262   0.559   3.232 -0.0362  0.2036 -0.1779
 4978SOL    HW116702   9.278   0.654   3.235 -1.7716  0.5166  0.5110
 4978SOL    HW216703   9.300   0.525   3.313  0.4469  0.3270 -0.3498
 4979SOL     OW16704   0.971   7.914   3.620  0.4766  0.0277 -0.3335
 4979SOL    HW116705   0.928   7.996   3.644 -1.1821 -0.1720 -2.3446
 4979SOL    HW216706   0.907   7.846   3.639 -0.1452 -0.3045 -3.1433
 4980SOL     OW16707   8.401   2.153   3.615  0.4730 -0.4020  0.1572
 4980SOL    HW116708   8.466   2.196   3.671  1.5142 -1.3077 -0.3336
 4980SOL    HW216709   8.381   2.071   3.660  0.0012 -0.3302  0.0787
 4981SOL     OW16710   9.845   0.413   4.149  0.4772  0.0508 -0.2365
 4981SOL    HW116711   9.804   0.493   4.115 -0.9493 -0.6429 -0.2210
 4981SOL    HW216712   9.934   0.416   4.115 -0.7014 -0.3736 -3.7952
 4982SOL     OW16713   8.162   3.169   8.233  0.3764  0.0242  0.2961
 4982SOL    HW116714   8.254   3.167   8.260  0.6398  1.2095 -0.4338
 4982SOL    HW216715   8.123   3.237   8.288  0.0882 -0.0071  0.1324
 4983SOL     OW16716   4.820   1.023   3.499 -0.0489 -0.2785  0.4312
 4983SOL    HW116717   4.808   1.115   3.523 -2.4754 -0.0644 -1.2591
 4983SOL    HW216718   4.887   1.024   3.431 -2.4642  0.7642 -2.0824
 4984SOL     OW16719   8.066   6.662   3.168  0.2244  0.8261  0.0845
 4984SOL    HW116720   8.122   6.717   3.113 -0.3793  1.3186 -0.0423
 4984SOL    HW216721   8.127   6.617   3.227  0.6964  1.9604  0.4859
 4985SOL     OW16722   3.802   1.555   8.738 -0.6524 -0.2404  0.3976
 4985SOL    HW116723   3.722   1.503   8.744 -0.9696  0.3695  2.0324
 4985SOL    HW216724   3.810   1.597   8.824  1.7929 -0.8249  0.5336
 4986SOL     OW16725   9.421   7.006   9.840  0.2342  0.3160 -0.1610
 4986SOL    HW116726   9.459   7.051   9.765 -3.0951  0.7935 -1.7057
 4986SOL    HW216727   9.408   6.916   9.811  0.6150  0.0320  0.5196
 4987SOL     OW16728   9.280   7.223   1.090  0.1193 -0.3556 -0.2140
 4987SOL    HW116729   9.212   7.238   1.024  0.7596  0.8546 -0.6338
 4987SOL    HW216730   9.360   7.259   1.051  0.2592  1.6854  1.7355
 4988SOL     OW16731   2.114   4.321   5.325 -0.4013 -0.2957  0.6890
 4988SOL    HW116732   2.135   4.412   5.307  1.1256 -0.6027  0.8195
 4988SOL    HW216733   2.045   4.325   5.391  0.1319  0.7676  1.2017
 4989SOL     OW16734   5.341   6.968   4.317 -0.0506 -0.5674  0.0702
 4989SOL    HW116735   5.298   6.901   4.264 -0.5792 -2.9826  3.2571
 4989SOL    HW216736   5.434   6.947   4.311 -0.1333 -1.0148  0.2819
 4990SOL     OW16737   2.696   1.524   0.719  0.9562 -0.0628 -0.2200
 4990SOL    HW116738   2.730   1.612   0.735 -2.3810  1.1489  1.3581
 4990SOL    HW216739   2.700   1.481   0.805 -0.6574 -0.1006 -0.1247
 4991SOL     OW16740   2.366   9.375   4.356  0.4055 -0.6283  0.1008
 4991SOL    HW116741   2.292   9.322   4.386 -0.6748  0.1330 -1.1116
 4991SOL    HW216742   2.377   9.350   4.264  0.7338  0.2725 -0.1152
 4992SOL     OW16743   9.344   6.521   6.703 -0.5952 -0.2550  0.4460
 4992SOL    HW116744   9.385   6.574   6.772 -1.3329 -0.1293  0.7924
 4992SOL    HW216745   9.301   6.584   6.646  0.3627 -0.3255 -0.3813
 4993SOL     OW16746   5.794   4.318   0.162 -0.2859  0.5999 -0.5027
 4993SOL    HW116747   5.811   4.409   0.186 -0.7406  0.8564 -1.1197
 4993SOL    HW216748   5.705   4.300   0.194 -0.0742  0.2688 -0.0915
 4994SOL     OW16749   2.320   8.460   6.589  0.1486  1.1014  0.0127
 4994SOL    HW116750   2.251   8.449   6.524  0.2698  0.5607 -0.0292
 4994SOL    HW216751   2.400   8.434   6.543  0.5820  2.9331 -0.3432
 4995SOL     OW16752   3.382   8.670   3.341  0.2097 -0.3400  0.3674
 4995SOL    HW116753   3.418   8.584   3.319  2.3300  0.5562  0.0926
 4995SOL    HW216754   3.355   8.708   3.258  1.8375  0.2963  0.0769
 4996SOL     OW16755   3.329   3.374   4.413  0.3563  0.5436  0.2803
 4996SOL    HW116756   3.257   3.436   4.402  1.1146  1.3564 -0.3064
 4996SOL    HW216757   3.351   3.347   4.324  1.8380  1.5811  0.2908
 4997SOL     OW16758   1.573   5.118   1.821  0.2064 -0.0422 -0.2528
 4997SOL    HW116759   1.648   5.163   1.859  0.1150 -0.7117  0.7726
 4997SOL    HW216760   1.610   5.037   1.786  0.0356 -0.1686 -0.1426
 4998SOL     OW16761   7.303   9.557   4.329  0.0117  0.2395  0.9472
 4998SOL    HW116762   7.360   9.590   4.259 -0.3090 -0.5495  0.2905
 4998SOL    HW216763   7.358   9.497   4.379 -0.2511 -0.6621  0.2043
 4999SOL     OW16764   0.024   6.790   4.472 -0.3614 -0.2132  0.6423
 4999SOL    HW116765   0.088   6.755   4.535 -0.3833 -0.4206  0.5514
 4999SOL    HW216766   0.058   6.764   4.387 -0.8045 -0.7309  0.6163
 5000SOL     OW16767   5.612   6.998   9.055  0.0462  0.3718  0.2836
 5000SOL    HW116768   5.517   7.010   9.050  0.0027  0.1827  0.6195
 5000SOL    HW216769   5.645   7.034   8.973 -0.4799 -1.1895 -0.6611
 5001SOL     OW16770   3.297   0.908   0.027 -0.3053  0.1320  0.4031
 5001SOL    HW116771   3.215   0.860   0.023  0.7914 -1.7761 -1.5310
 5001SOL    HW216772   3.364   0.842   0.046  1.0644  1.1530 -0.5784
 5002SOL     OW16773   1.282   0.537   1.561 -0.0164  0.0572 -0.3443
 5002SOL    HW116774   1.190   0.560   1.573  0.4748  2.4275 -0.6587
 5002SOL    HW216775   1.282   0.442   1.547 -2.2567 -0.1900  0.9192
 5003SOL     OW16776   6.388   9.573   8.717 -0.0253 -0.2111 -0.2223
 5003SOL    HW116777   6.374   9.667   8.705 -0.9477 -0.4598 -1.2069
 5003SOL    HW216778   6.307   9.533   8.687  0.5620 -1.3591 -0.3204
 5004SOL     OW16779   9.363   1.094   9.584  0.1862 -0.5599 -0.0582
 5004SOL    HW116780   9.429   1.032   9.553  1.5129  1.3346 -1.2233
 5004SOL    HW216781   9.306   1.109   9.508 -0.7331 -1.0657  0.5095
 5005SOL     OW16782   3.230   6.773   7.523 -0.5194  0.1124 -1.1474
 5005SOL    HW116783   3.261   6.719   7.451 -1.2887  0.1942 -1.5549
 5005SOL    HW216784   3.262   6.861   7.503  1.9635 -0.3590  0.2384
 5006SOL     OW16785   4.073   1.144   5.428 -0.2953  0.0269  0.0678
 5006SOL    HW116786   4.034   1.086   5.493 -1.2271 -1.5581 -1.8117
 5006SOL    HW216787   4.125   1.086   5.371  2.0981  1.6170  0.4608
 5007SOL     OW16788   9.558   6.984   5.050  0.3153  0.1793  0.6851
 5007SOL    HW116789   9.576   6.989   5.144  1.1507  1.5492  0.4899
 5007SOL    HW216790   9.490   7.050   5.035  0.0482 -0.1644  0.3477
 5008SOL     OW16791   3.781   4.543   6.063  0.3737  0.3570  0.6132
 5008SOL    HW116792   3.831   4.586   5.994 -0.9181  1.7554  0.4928
 5008SOL    HW216793   3.690   4.551   6.035  0.0054 -1.4135  1.2068
 5009SOL     OW16794   0.201   4.570   9.738 -0.1018 -0.3451  0.3066
 5009SOL    HW116795   0.160   4.490   9.707  1.1475 -0.7163 -0.4903
 5009SOL    HW216796   0.292   4.565   9.706 -0.4620  2.2448 -1.5049
 5010SOL     OW16797   3.470   3.212   4.791 -0.2514  0.0925  0.2482
 5010SOL    HW116798   3.523   3.236   4.715 -0.0473  1.8604  0.8886
 5010SOL    HW216799   3.380   3.215   4.761 -0.1815  0.9799  0.1016
 5011SOL     OW16800   8.548   1.673   9.845  0.3329 -0.4856 -0.1625
 5011SOL    HW116801   8.596   1.638   9.920  1.1616  0.4767 -0.2089
 5011SOL    HW216802   8.601   1.748   9.817  0.6448 -1.4678 -2.4040
 5012SOL     OW16803   8.736   8.571   3.464  0.2760  0.2961 -0.6216
 5012SOL    HW116804   8.670   8.538   3.403  1.3491  0.2870 -1.8083
 5012SOL    HW216805   8.790   8.494   3.484  0.0153  0.3282  0.2517
 5013SOL     OW16806   1.969   7.479   4.304  0.6493  0.6449 -0.3263
 5013SOL    HW116807   2.025   7.403   4.285 -0.7258 -1.2920  2.7523
 5013SOL    HW216808   2.005   7.515   4.385 -1.9564 -0.1851  1.3041
 5014SOL     OW16809   8.840   2.239   8.749 -0.2086 -0.0419 -0.3584
 5014SOL    HW116810   8.855   2.267   8.658 -0.8994  0.3633 -0.3568
 5014SOL    HW216811   8.919   2.191   8.773 -0.0929 -0.3035 -1.2338
 5015SOL     OW16812   5.236   6.646   2.010 -0.9510 -0.0334  0.0020
 5015SOL    HW116813   5.192   6.595   1.942  1.3597 -0.0388 -1.5877
 5015SOL    HW216814   5.281   6.581   2.064 -0.6594  0.1326 -0.0399
 5016SOL     OW16815   9.348   1.245   2.717  0.2937  0.0422  0.0904
 5016SOL    HW116816   9.275   1.287   2.671 -0.1741 -0.8921 -0.0415
 5016SOL    HW216817   9.397   1.318   2.755 -0.5223  0.7086 -0.0951
 5017SOL     OW16818   4.158   7.942   7.092  0.0240 -0.2295 -0.7753
 5017SOL    HW116819   4.195   7.998   7.024  2.0806 -0.6333 -0.0872
 5017SOL    HW216820   4.070   7.976   7.107  0.0794  0.8192 -2.5389
 5018SOL     OW16821   6.928   7.362   0.516  0.1072  0.1270  0.0167
 5018SOL    HW116822   6.989   7.387   0.586 -0.4894  1.1729  0.1737
 5018SOL    HW216823   6.841   7.367   0.557 -0.3897  2.1611 -1.1474
 5019SOL     OW16824   3.606   8.465   7.920 -0.3727  0.9925 -0.2171
 5019SOL    HW116825   3.521   8.495   7.888 -0.8288  1.2584  1.1420
 5019SOL    HW216826   3.647   8.421   7.845 -1.3678  1.5569 -1.1120
 5020SOL     OW16827   5.605   4.682   5.356  0.6482 -0.2317  0.4254
 5020SOL    HW116828   5.687   4.672   5.309  0.9271  1.0364  0.5948
 5020SOL    HW216829   5.626   4.742   5.428 -0.5807  0.7096  0.0328
 5021SOL     OW16830   1.981   9.133   8.145  0.1472  0.1644  0.0551
 5021SOL    HW116831   2.005   9.045   8.115  1.7021  0.3353  0.7446
 5021SOL    HW216832   1.956   9.180   8.065 -1.4513 -1.0906 -0.2481
 5022SOL     OW16833   2.994   3.375   3.467  0.1521  0.2236  0.0797
 5022SOL    HW116834   2.945   3.331   3.398  2.2759 -0.8257 -0.8426
 5022SOL    HW216835   2.984   3.320   3.544  1.8010 -1.3354 -0.7527
 5023SOL     OW16836   4.882   7.017   2.016  0.1907 -0.0223 -0.1309
 5023SOL    HW116837   4.881   6.927   1.983  1.1626  0.3417 -1.2346
 5023SOL    HW216838   4.950   7.017   2.084  1.7108  0.3298 -1.5993
 5024SOL     OW16839   2.140   5.879   5.698  0.0142  0.1163 -0.2008
 5024SOL    HW116840   2.179   5.919   5.621 -1.4187  0.8332 -0.6043
 5024SOL    HW216841   2.198   5.904   5.770 -0.5909  2.6850 -0.4917
 5025SOL     OW16842   2.001   2.673   0.664  0.3913  0.7611 -0.3367
 5025SOL    HW116843   1.908   2.685   0.685  0.0914 -0.5991 -0.7735
 5025SOL    HW216844   2.043   2.658   0.749  0.3294  1.9771 -0.0754
 5026SOL     OW16845   1.747   1.437   5.569 -0.0532 -0.0048 -0.0807
 5026SOL    HW116846   1.737   1.342   5.561  0.4652 -0.1346  0.7447
 5026SOL    HW216847   1.692   1.473   5.499  0.9199 -0.9566 -1.3772
 5027SOL     OW16848   1.837   6.869   4.592  0.6149  0.1892 -0.0379
 5027SOL    HW116849   1.805   6.856   4.682 -0.4778  2.0674 -0.1123
 5027SOL    HW216850   1.766   6.838   4.536  0.7613  0.2316 -0.2500
 5028SOL     OW16851   9.169   1.979   3.367 -0.2989 -0.7816 -0.1566
 5028SOL    HW116852   9.190   2.030   3.446 -0.9253 -1.1831  0.2862
 5028SOL    HW216853   9.249   1.981   3.315  0.4304 -1.2365  0.8913
 5029SOL     OW16854   6.554   1.126   7.868  0.3196 -1.0359 -0.2359
 5029SOL    HW116855   6.568   1.194   7.933 -0.0458 -1.3025  0.1250
 5029SOL    HW216856   6.463   1.137   7.840  0.4010 -1.0784 -0.5151
 5030SOL     OW16857   3.115   5.194   4.686 -0.3362 -0.0324  0.5383
 5030SOL    HW116858   3.036   5.207   4.634  0.3330  1.8827 -0.0545
 5030SOL    HW216859   3.090   5.220   4.775 -0.6983 -0.6302  0.6191
 5031SOL     OW16860   0.678   8.635   6.261  0.4222 -0.0279 -0.1688
 5031SOL    HW116861   0.661   8.551   6.304  1.1080  0.8687  2.0168
 5031SOL    HW216862   0.757   8.619   6.209  0.5900 -0.7314  0.2779
 5032SOL     OW16863   2.369   5.180   7.297  0.4998  0.7151  0.0284
 5032SOL    HW116864   2.326   5.121   7.235  0.9925  0.9472 -0.5414
 5032SOL    HW216865   2.304   5.195   7.365 -0.0621  0.4922 -0.4534
 5033SOL     OW16866   3.987   1.536   6.714  0.2380 -0.2028  0.0118
 5033SOL    HW116867   4.002   1.457   6.767 -1.6617 -0.9823 -0.5155
 5033SOL    HW216868   3.924   1.508   6.648 -0.9586  1.9079  0.1655
 5034SOL     OW16869   7.074   0.719   6.392 -0.2193  0.2588  0.0056
 5034SOL    HW116870   7.109   0.630   6.386 -0.3257  0.2607 -0.8513
 5034SOL    HW216871   7.137   0.766   6.447  1.1876  0.2559 -1.4983
 5035SOL     OW16872   3.774   3.790   1.318 -0.4091 -0.3874  0.1302
 5035SOL    HW116873   3.680   3.802   1.335 -0.4500  0.0800 -0.3801
 5035SOL    HW216874   3.777   3.722   1.251 -0.3686 -0.6041  0.3524
 5036SOL     OW16875   1.800   5.191   0.838 -0.3520  0.3717 -0.1371
 5036SOL    HW116876   1.776   5.251   0.768  1.1448  0.6688 -0.4395
 5036SOL    HW216877   1.736   5.207   0.907 -2.2136 -0.3408 -1.6248
 5037SOL     OW16878   7.904   0.043   8.991 -0.0268 -0.6591  0.1097
 5037SOL    HW116879   7.981   0.045   8.936 -1.0047 -2.5866 -1.4672
 5037SOL    HW216880   7.925  -0.021   9.060  0.7062  0.7634  1.2421
 5038SOL     OW16881   2.083   4.277   8.575  0.1181 -0.6056 -0.5548
 5038SOL    HW116882   1.987   4.281   8.576  0.0419 -1.5913  2.2484
 5038SOL    HW216883   2.108   4.351   8.519 -2.2549  0.6399 -0.1293
 5039SOL     OW16884   9.839   2.744   3.105  0.1706  0.3346  0.7896
 5039SOL    HW116885   9.834   2.838   3.123  0.4375  0.5389 -0.1648
 5039SOL    HW216886   9.872   2.739   3.015 -0.4351 -0.6548  0.6127
 5040SOL     OW16887   5.318   7.655   6.844  0.0318 -0.5707  0.2641
 5040SOL    HW116888   5.310   7.620   6.933 -1.4301 -0.8083  0.0640
 5040SOL    HW216889   5.389   7.603   6.805  0.4447 -0.7078  1.1585
 5041SOL     OW16890   9.134   4.417   3.579  0.6075 -0.1909 -0.2516
 5041SOL    HW116891   9.169   4.466   3.505  0.4439 -2.0367 -1.6206
 5041SOL    HW216892   9.177   4.456   3.656  1.9193  0.8084 -1.4388
 5042SOL     OW16893   6.997   3.294   9.544 -0.3751 -0.0899 -0.1607
 5042SOL    HW116894   6.931   3.273   9.479  0.4134  0.1689 -1.0686
 5042SOL    HW216895   6.983   3.231   9.615 -0.8008 -0.8341 -0.8953
 5043SOL     OW16896   1.920   8.717   7.913  0.0655 -0.0843 -0.1693
 5043SOL    HW116897   1.979   8.791   7.922 -1.9817  1.6520 -0.3167
 5043SOL    HW216898   1.959   8.648   7.967 -1.0226  3.0284  5.2368
 5044SOL     OW16899   3.281   5.994   3.940 -0.3803  0.3731 -0.3328
 5044SOL    HW116900   3.338   5.975   4.014  0.8851  0.9932 -1.1145
 5044SOL    HW216901   3.194   6.005   3.978  0.2251  0.5456  1.0403
 5045SOL     OW16902   6.935   1.584   3.623 -0.3873  0.2153 -0.3850
 5045SOL    HW116903   6.911   1.599   3.532 -0.6062 -1.9764 -0.7353
 5045SOL    HW216904   7.015   1.634   3.635 -1.2750  1.9246 -1.2497
 5046SOL     OW16905   8.962   2.418   9.151 -0.0409  0.0188 -0.4223
 5046SOL    HW116906   8.915   2.462   9.080 -0.4733 -1.1925 -0.9249
 5046SOL    HW216907   9.040   2.381   9.110  1.4040  1.9830  0.4047
 5047SOL     OW16908   3.253   5.855   7.586 -0.1238  0.5036  0.1925
 5047SOL    HW116909   3.285   5.767   7.571  1.2996  0.5511  2.5237
 5047SOL    HW216910   3.168   5.858   7.542  0.9689 -1.1360 -2.1728
 5048SOL     OW16911   9.370   0.083   8.545 -0.0378 -1.0143  0.0192
 5048SOL    HW116912   9.308   0.101   8.615 -0.7622  0.9716 -1.0739
 5048SOL    HW216913   9.325   0.020   8.489 -1.2753  0.6814 -0.9601
 5049SOL     OW16914   5.987   1.770   7.113  0.9285 -0.0763  0.3195
 5049SOL    HW116915   6.025   1.840   7.059 -1.1089  1.5115  0.8220
 5049SOL    HW216916   5.901   1.753   7.074 -0.1435  0.3622  2.3731
 5050SOL     OW16917   5.115   4.933   7.333  0.2423 -0.4218  0.6075
 5050SOL    HW116918   5.145   4.856   7.286 -0.6169  1.2646 -3.1034
 5050SOL    HW216919   5.063   4.898   7.406  0.4303 -3.3155 -0.5069
 5051SOL     OW16920   2.276   4.161   0.270 -0.0383  0.1375  0.1686
 5051SOL    HW116921   2.282   4.225   0.199 -0.5054 -1.0529 -0.9819
 5051SOL    HW216922   2.185   4.133   0.270  0.5466 -2.0222 -0.7675
 5052SOL     OW16923   0.643   5.312   6.044  0.3668 -0.4928 -0.9059
 5052SOL    HW116924   0.674   5.267   5.966  1.1414 -0.7281 -0.4733
 5052SOL    HW216925   0.723   5.346   6.086 -0.1540  0.9204 -1.0011
 5053SOL     OW16926   8.880   1.903   8.316 -0.3883 -0.4019 -0.4966
 5053SOL    HW116927   8.812   1.836   8.309 -0.1381 -0.9736  1.7122
 5053SOL    HW216928   8.927   1.881   8.396  0.8561  1.3905 -0.6714
 5054SOL     OW16929   8.506   2.503   3.229 -0.5353  0.3479  0.1983
 5054SOL    HW116930   8.418   2.464   3.229 -0.4258  0.0003 -1.8215
 5054SOL    HW216931   8.555   2.450   3.292 -1.6419  0.2718  1.0336
 5055SOL     OW16932   0.400   0.034   1.606  0.1665 -0.8327 -0.3391
 5055SOL    HW116933   0.360   0.082   1.533  1.7557  0.0381 -0.6821
 5055SOL    HW216934   0.406  -0.056   1.575 -1.0681 -0.8953 -0.4501
 5056SOL     OW16935   1.833   1.359   4.843 -0.2839  0.6545 -0.4631
 5056SOL    HW116936   1.905   1.311   4.801 -0.1626 -0.3679  0.8393
 5056SOL    HW216937   1.877   1.428   4.893 -0.3221  0.9941 -0.8995
 5057SOL     OW16938   9.176   8.456   4.464 -0.6193  0.1452 -0.0431
 5057SOL    HW116939   9.087   8.422   4.451  0.0133 -1.1670 -1.1694
 5057SOL    HW216940   9.193   8.441   4.557 -1.3333 -0.2240  0.0368
 5058SOL     OW16941   7.595   1.696   3.837 -0.1425 -0.5029  0.4626
 5058SOL    HW116942   7.509   1.681   3.797  0.4547 -0.0774 -1.0439
 5058SOL    HW216943   7.635   1.609   3.842  0.0740 -0.4782 -0.6151
 5059SOL     OW16944   9.212   1.086   4.223 -0.3404 -0.3090 -0.4433
 5059SOL    HW116945   9.194   1.072   4.316  0.1176 -2.2328 -0.6155
 5059SOL    HW216946   9.301   1.053   4.210  0.0568  1.0267 -1.3565
 5060SOL     OW16947   1.503   9.206   5.872 -0.3890  0.1773 -0.7287
 5060SOL    HW116948   1.574   9.152   5.838  1.1208  2.6426 -1.7529
 5060SOL    HW216949   1.473   9.256   5.796 -0.8705  1.6508  0.3937
 5061SOL     OW16950   0.528   6.447   9.483  0.1874  0.2579 -0.5806
 5061SOL    HW116951   0.584   6.426   9.409  2.0422  2.1796  0.1722
 5061SOL    HW216952   0.446   6.478   9.444  0.8400  0.4773 -1.8192
 5062SOL     OW16953   2.485   6.164   3.937 -0.1868  0.0243 -0.0120
 5062SOL    HW116954   2.483   6.081   3.889  1.2062 -0.4230  0.6449
 5062SOL    HW216955   2.447   6.144   4.022 -1.1758  0.4277 -0.3465
 5063SOL     OW16956   9.557   7.298   2.722  0.0792  0.4553  0.0748
 5063SOL    HW116957   9.501   7.233   2.765  1.2705 -0.8375 -0.2654
 5063SOL    HW216958   9.519   7.307   2.634  0.4412 -0.5003 -0.1939
 5064SOL     OW16959   2.637   6.277   7.930 -0.1543  0.7710  0.4573
 5064SOL    HW116960   2.561   6.246   7.880 -0.0127 -0.6077  1.0308
 5064SOL    HW216961   2.711   6.269   7.870 -0.2959  1.0614  0.2455
 5065SOL     OW16962   7.879   0.782   3.945 -0.2411  0.6167 -0.2251
 5065SOL    HW116963   7.864   0.874   3.921 -1.6690  0.0827 -1.5468
 5065SOL    HW216964   7.967   0.782   3.984  0.0564  2.4392 -0.7669
 5066SOL     OW16965   5.458   7.402   9.140  0.3825 -0.2207 -1.1058
 5066SOL    HW116966   5.367   7.387   9.166 -0.0926  0.2344 -2.4503
 5066SOL    HW216967   5.478   7.489   9.172  0.2915 -0.2571 -0.9495
 5067SOL     OW16968   0.518   3.813   4.083 -0.2125  0.0705  0.0318
 5067SOL    HW116969   0.511   3.782   4.173 -1.1249  0.5749  0.1466
 5067SOL    HW216970   0.445   3.874   4.073 -0.5186 -0.4760 -1.2582
 5068SOL     OW16971   1.401   7.829   7.907 -0.1595 -0.4530  0.0102
 5068SOL    HW116972   1.454   7.824   7.987  1.0674 -1.3935 -0.8090
 5068SOL    HW216973   1.443   7.766   7.847 -1.9223 -0.8531 -0.8714
 5069SOL     OW16974   6.675   8.504   3.248  0.1141 -0.3160  0.0618
 5069SOL    HW116975   6.702   8.545   3.330 -1.4634 -0.4494  0.6891
 5069SOL    HW216976   6.710   8.415   3.252  1.7940  0.2864 -0.3742
 5070SOL     OW16977   5.087   9.380   1.155 -0.1799  0.5185 -0.2400
 5070SOL    HW116978   5.005   9.344   1.189 -0.1602  1.5127  0.9356
 5070SOL    HW216979   5.147   9.306   1.153 -1.4806 -0.5854 -2.5780
 5071SOL     OW16980   4.834   1.736   1.512  0.2169  1.0529 -1.3817
 5071SOL    HW116981   4.747   1.701   1.493  0.3595 -1.0920  1.2736
 5071SOL    HW216982   4.893   1.662   1.495  1.3893  2.0841 -1.9271
 5072SOL     OW16983   4.409   7.911   1.852  0.0157  0.2939  0.0145
 5072SOL    HW116984   4.361   7.898   1.771  1.5798  1.7715 -1.2219
 5072SOL    HW216985   4.399   8.005   1.871  0.6250  0.1974  0.9015
 5073SOL     OW16986   1.274   0.445   4.173 -0.0231 -0.1500  0.5286
 5073SOL    HW116987   1.203   0.446   4.237 -0.6262 -1.1999 -0.0986
 5073SOL    HW216988   1.270   0.358   4.134 -0.4913  0.8696 -1.8496
 5074SOL     OW16989   0.104   5.424   9.682  0.1569  0.5027  0.1417
 5074SOL    HW116990   0.139   5.337   9.664 -1.1362 -0.2005  0.8320
 5074SOL    HW216991   0.067   5.454   9.599  2.3433  1.2753 -0.6027
 5075SOL     OW16992   3.072   3.901   9.213  0.1467 -0.7124  0.1648
 5075SOL    HW116993   3.147   3.960   9.222  1.5864 -2.4153 -0.1396
 5075SOL    HW216994   3.008   3.950   9.162 -0.1984  1.8841  2.8476
 5076SOL     OW16995   1.138   4.858   3.093  0.9384 -0.6774  0.2213
 5076SOL    HW116996   1.057   4.875   3.045 -0.5573 -2.1960  2.0616
 5076SOL    HW216997   1.138   4.764   3.108  3.4336 -0.8271 -0.2972
 5077SOL     OW16998   1.545   8.455   5.986 -0.0951  0.0239 -0.1048
 5077SOL    HW116999   1.547   8.379   5.927  2.1317 -0.2357  0.2004
 5077SOL    HW217000   1.596   8.427   6.062 -0.6955  1.2592  0.7877
 5078SOL     OW17001   3.809   2.041   6.141 -0.1225 -0.6335 -0.0950
 5078SOL    HW117002   3.724   2.081   6.125  0.1524  0.3494  0.8204
 5078SOL    HW217003   3.818   1.975   6.072 -2.1217 -1.5774  0.4611
 5079SOL     OW17004   2.912   5.878   1.679 -0.0933  0.3788 -0.2420
 5079SOL    HW117005   2.970   5.811   1.643  0.5797 -0.6283  2.4685
 5079SOL    HW217006   2.957   5.909   1.758 -1.3222  2.6383 -0.3329
 5080SOL     OW17007   1.125   5.225   5.210  0.2820 -0.8212  0.2547
 5080SOL    HW117008   1.113   5.319   5.196  0.8917 -0.6980  0.5519
 5080SOL    HW217009   1.037   5.188   5.199  0.3589 -0.4860 -1.8913
 5081SOL     OW17010   3.846   5.186   0.262 -0.2091  0.5628  0.3647
 5081SOL    HW117011   3.916   5.251   0.265  0.1428  0.1443  2.4073
 5081SOL    HW217012   3.864   5.127   0.335 -2.1086 -0.1804  0.2924
 5082SOL     OW17013   3.621   6.055   9.826  0.1021  0.0255  0.6142
 5082SOL    HW117014   3.633   5.991   9.756 -0.2479  0.8027 -0.1763
 5082SOL    HW217015   3.675   6.130   9.800 -1.1420  0.8918  0.4127
 5083SOL     OW17016   9.435   1.231   2.330  0.6325 -0.0335  0.2343
 5083SOL    HW117017   9.365   1.172   2.360  2.2744 -2.1105  0.2054
 5083SOL    HW217018   9.488   1.177   2.272  1.5272  1.8904 -0.8128
 5084SOL     OW17019   5.867   5.699   3.653 -0.2099 -0.6215 -0.0090
 5084SOL    HW117020   5.961   5.717   3.659 -0.3532  0.4724 -0.8734
 5084SOL    HW217021   5.834   5.715   3.742  0.0555  1.2383 -0.2190
 5085SOL     OW17022   7.099   6.585   5.960  0.5573 -0.1119  0.4443
 5085SOL    HW117023   7.082   6.536   6.040  0.5647  0.6196  0.8987
 5085SOL    HW217024   7.192   6.570   5.942 -0.1433 -3.1923 -1.4242
 5086SOL     OW17025   3.998   7.038   2.053 -0.1683  0.1431 -0.0518
 5086SOL    HW117026   4.086   7.039   2.016  0.3077 -0.1101  1.0350
 5086SOL    HW217027   3.961   7.124   2.032  0.0760  0.0112 -1.0874
 5087SOL     OW17028   4.394   3.316   5.402 -0.2067 -0.5807 -0.0697
 5087SOL    HW117029   4.429   3.238   5.360 -1.0500 -1.4086  0.7098
 5087SOL    HW217030   4.305   3.291   5.429  0.1148  0.0592  1.7516
 5088SOL     OW17031   5.293   1.979   1.311  0.2147  0.0924 -0.0616
 5088SOL    HW117032   5.261   1.936   1.232 -1.6395 -0.6928  1.0590
 5088SOL    HW217033   5.389   1.972   1.305  0.0911 -0.3799 -1.9747
 5089SOL     OW17034   7.517   6.841   3.771 -1.0365 -0.1894 -0.0013
 5089SOL    HW117035   7.582   6.893   3.816 -2.1024  1.2992 -0.1067
 5089SOL    HW217036   7.563   6.803   3.696 -0.6377  2.1337 -0.9997
 5090SOL     OW17037   0.305   9.161   4.558  0.1586  0.6113 -0.2581
 5090SOL    HW117038   0.210   9.155   4.549  0.1705 -0.0207  0.0444
 5090SOL    HW217039   0.329   9.235   4.501 -0.3749  0.0111 -1.2920
 5091SOL     OW17040   1.351   9.111   6.839 -0.5446 -0.5741 -0.3158
 5091SOL    HW117041   1.345   9.152   6.925 -1.6731  1.2823 -1.2091
 5091SOL    HW217042   1.441   9.129   6.811 -0.5037 -0.2066  0.0348
 5092SOL     OW17043   5.036   6.627   1.337 -0.3910 -0.8996 -0.0520
 5092SOL    HW117044   5.114   6.571   1.345  0.0799 -0.2139  0.2558
 5092SOL    HW217045   4.963   6.566   1.347  0.0725 -1.1282  3.1988
 5093SOL     OW17046   7.168   3.574   1.600 -0.2527  0.0776  0.1224
 5093SOL    HW117047   7.087   3.537   1.566  0.2752 -2.4855  1.4027
 5093SOL    HW217048   7.150   3.591   1.692  0.6922 -0.7734  0.4898
 5094SOL     OW17049   8.050   1.518   0.052  0.0219  0.2077  0.0805
 5094SOL    HW117050   7.959   1.530   0.078  0.5769  0.1702  2.2267
 5094SOL    HW217051   8.048   1.445  -0.010 -1.2362 -1.1008  1.5686
 5095SOL     OW17052   2.928   2.008   2.572 -0.1423 -0.0619 -0.0765
 5095SOL    HW117053   2.917   2.100   2.595 -1.8521 -0.0525 -0.8197
 5095SOL    HW217054   2.869   1.961   2.631 -1.6786 -0.3637 -1.7512
 5096SOL     OW17055   5.061   5.167   0.113 -0.2121  0.5988 -0.1271
 5096SOL    HW117056   4.978   5.212   0.099 -0.3460  0.7305  1.0042
 5096SOL    HW217057   5.038   5.074   0.111 -0.1846  0.6062 -0.9760
 5097SOL     OW17058   2.651   3.772   4.641  0.3481 -0.4853  0.4700
 5097SOL    HW117059   2.658   3.802   4.550  0.1579 -2.2775 -0.1841
 5097SOL    HW217060   2.633   3.851   4.691 -1.6340  0.2985 -1.3182
 5098SOL     OW17061   3.702   2.366   9.621 -0.1830 -0.5562 -0.2449
 5098SOL    HW117062   3.726   2.386   9.530 -1.6496 -0.5747 -0.6561
 5098SOL    HW217063   3.728   2.445   9.670 -2.2113  0.7934 -1.2048
 5099SOL     OW17064   6.132   1.750   5.421  0.0062  0.4852  0.1987
 5099SOL    HW117065   6.165   1.837   5.444  0.6563  0.3215 -0.0732
 5099SOL    HW217066   6.198   1.690   5.455  0.8014  0.2182 -1.6914
 5100SOL     OW17067   8.317   7.363   7.541 -0.5643 -0.1177  0.3243
 5100SOL    HW117068   8.223   7.371   7.556 -0.8058 -1.0379 -0.5578
 5100SOL    HW217069   8.332   7.269   7.535  0.2549  0.0515 -0.4529
 5101SOL     OW17070   8.391   7.590   1.554 -0.1086 -0.2619 -0.1724
 5101SOL    HW117071   8.333   7.658   1.588 -2.3765 -1.5989 -1.1511
 5101SOL    HW217072   8.411   7.618   1.464 -0.1061 -0.3390 -0.1956
 5102SOL     OW17073   8.659   6.093   2.144 -0.5484 -0.3859  0.0564
 5102SOL    HW117074   8.649   6.106   2.050 -0.2457 -0.0817  0.0636
 5102SOL    HW217075   8.571   6.100   2.179 -0.3727  2.4110  0.1522
 5103SOL     OW17076   7.539   6.347   9.782  0.4318 -0.9082  0.3804
 5103SOL    HW117077   7.548   6.390   9.867 -1.1121 -0.4026  0.3076
 5103SOL    HW217078   7.496   6.412   9.727  2.9764 -0.5346 -1.3668
 5104SOL     OW17079   3.352   7.766   0.584 -0.5730 -0.0188 -0.2103
 5104SOL    HW117080   3.369   7.833   0.650 -3.2524  0.2116  0.3734
 5104SOL    HW217081   3.348   7.684   0.634 -1.4508  0.0050 -0.2102
 5105SOL     OW17082   3.081   9.309   8.573  0.0029 -0.3739  0.1286
 5105SOL    HW117083   2.997   9.275   8.541 -0.0566  0.2418 -0.3983
 5105SOL    HW217084   3.062   9.399   8.600  0.4850 -0.2473  0.0558
 5106SOL     OW17085   7.921   0.326   6.206  0.3479 -0.1538  0.4704
 5106SOL    HW117086   7.895   0.296   6.118  0.3711 -1.1034  0.7772
 5106SOL    HW217087   7.899   0.252   6.263  0.5611  0.3686  1.2285
 5107SOL     OW17088   7.925   4.553   1.699  0.3536  0.0310  0.7520
 5107SOL    HW117089   7.960   4.469   1.730 -0.3374  0.1253  1.8511
 5107SOL    HW217090   7.921   4.607   1.778 -0.2831  0.7173  0.2573
 5108SOL     OW17091   4.600   4.197   6.931  0.3392  0.1885  0.0631
 5108SOL    HW117092   4.522   4.240   6.897  0.7614  1.8854  1.1004
 5108SOL    HW217093   4.665   4.268   6.938  0.6932 -0.2985  3.0408
 5109SOL     OW17094   8.367   7.696   0.757  0.1866 -0.4344 -0.0626
 5109SOL    HW117095   8.279   7.714   0.792  0.2048  1.2049 -0.7674
 5109SOL    HW217096   8.425   7.712   0.831  0.0014  0.1414 -0.0326
 5110SOL     OW17097   7.522   7.402   8.932 -0.4404  0.3025 -0.2770
 5110SOL    HW117098   7.508   7.415   8.839 -1.1884 -0.6100 -0.3136
 5110SOL    HW217099   7.617   7.399   8.943 -0.3342 -1.7867 -1.3628
 5111SOL     OW17100   4.318   2.789   3.773  0.2174 -0.2156 -0.1088
 5111SOL    HW117101   4.227   2.798   3.799  0.5413 -0.8906  1.3696
 5111SOL    HW217102   4.365   2.772   3.854  1.9772  2.0914 -0.5311
 5112SOL     OW17103   1.927   1.801   6.732  0.5791  0.2326  0.1295
 5112SOL    HW117104   1.980   1.729   6.766  0.2986 -0.6092 -1.1506
 5112SOL    HW217105   1.849   1.758   6.696 -0.9679  1.4268  1.8657
 5113SOL     OW17106   6.049   1.199   2.769  0.3512 -0.0246  0.4436
 5113SOL    HW117107   6.006   1.284   2.777 -0.6171 -0.5433  0.8591
 5113SOL    HW217108   6.012   1.146   2.839  0.7268 -0.8907  0.0067
 5114SOL     OW17109   6.496   7.372   1.168  0.0658  0.2915  0.1977
 5114SOL    HW117110   6.566   7.316   1.135  0.6506  1.8587 -1.3611
 5114SOL    HW217111   6.417   7.339   1.126  0.4785  0.8991 -1.0817
 5115SOL     OW17112   8.573   2.831   5.412  1.0464 -0.4756 -0.4752
 5115SOL    HW117113   8.479   2.843   5.429  0.5701 -3.4716 -0.4826
 5115SOL    HW217114   8.616   2.895   5.469 -0.9669  0.7796 -0.2516
 5116SOL     OW17115   1.546   5.081   5.685 -0.2740  0.2842 -0.1986
 5116SOL    HW117116   1.593   5.027   5.749 -1.0270  0.0186  0.1412
 5116SOL    HW217117   1.520   5.020   5.616  0.4308  0.5493 -0.7008
 5117SOL     OW17118   4.701   8.767   3.141 -0.2854  0.2729 -0.1800
 5117SOL    HW117119   4.621   8.802   3.181 -2.1901 -0.7310 -2.8314
 5117SOL    HW217120   4.733   8.839   3.086  0.6967  0.6500  0.8258
 5118SOL     OW17121   3.969   9.842   3.578 -0.1469  0.2405 -0.4734
 5118SOL    HW117122   3.874   9.846   3.581 -0.2712 -0.3497 -2.3648
 5118SOL    HW217123   3.992   9.865   3.488  1.2158 -3.3452 -1.2321
 5119SOL     OW17124   7.809   7.654   3.958 -0.4253  0.2367 -0.7022
 5119SOL    HW117125   7.781   7.564   3.968  0.1112  0.1034 -0.3479
 5119SOL    HW217126   7.841   7.659   3.867  1.2368 -0.4263 -0.1881
 5120SOL     OW17127   5.466   0.269   1.751 -0.2513  0.5925 -0.0229
 5120SOL    HW117128   5.469   0.202   1.818 -0.8757  0.3538 -0.2308
 5120SOL    HW217129   5.542   0.251   1.695 -0.6815 -0.2308 -0.3494
 5121SOL     OW17130   8.296   8.534   2.733  0.6417  0.0480 -0.4525
 5121SOL    HW117131   8.247   8.605   2.691  0.4337  0.7893  0.9841
 5121SOL    HW217132   8.234   8.495   2.795  0.9815 -0.9278 -0.7083
 5122SOL     OW17133   2.713   2.145   4.860 -0.1099 -0.2636  0.3352
 5122SOL    HW117134   2.717   2.165   4.767 -0.2628  0.3059  0.4477
 5122SOL    HW217135   2.635   2.190   4.891  0.1621 -0.1157  0.8198
 5123SOL     OW17136   5.648   9.495   1.895  0.3506  0.0788 -0.1244
 5123SOL    HW117137   5.623   9.508   1.804  1.0324 -1.0037 -0.4914
 5123SOL    HW217138   5.728   9.546   1.906 -0.4115  1.2286  0.2418
 5124SOL     OW17139   7.331   3.219   0.549 -0.4170  0.0113  0.0115
 5124SOL    HW117140   7.378   3.296   0.582  1.9957 -0.4534 -2.0390
 5124SOL    HW217141   7.378   3.145   0.586 -0.8433 -0.4853 -0.4318
 5125SOL     OW17142   0.831   5.070   6.870  0.1644 -0.0417 -0.2595
 5125SOL    HW117143   0.843   5.091   6.778  1.3158 -1.2368 -0.4081
 5125SOL    HW217144   0.901   5.117   6.915  0.3663 -0.4617 -0.1359
 5126SOL     OW17145   6.482   8.046   7.466  0.4710  0.3273  0.2777
 5126SOL    HW117146   6.563   8.003   7.494 -0.6416 -1.6772  0.6825
 5126SOL    HW217147   6.413   7.989   7.501 -1.0749  0.5304 -2.2373
 5127SOL     OW17148   0.571   8.085   5.424  0.2286  0.5488 -0.3952
 5127SOL    HW117149   0.533   8.170   5.403 -1.5749  0.1760  1.0970
 5127SOL    HW217150   0.496   8.025   5.428  1.0620 -0.4625  1.5691
 5128SOL     OW17151   6.514   9.016   6.091 -0.0890 -0.1285 -0.1622
 5128SOL    HW117152   6.516   9.022   5.996  0.4113  1.2002 -0.0967
 5128SOL    HW217153   6.571   9.087   6.121 -2.2036  1.1489  1.1554
 5129SOL     OW17154   2.737   7.275   6.551 -0.6884  0.0477  0.5015
 5129SOL    HW117155   2.759   7.295   6.460 -1.6333  1.8314  0.6108
 5129SOL    HW217156   2.773   7.348   6.601 -0.7834 -0.5588  1.4869
 5130SOL     OW17157   5.587   2.874   4.082  0.3002 -0.0644  0.0217
 5130SOL    HW117158   5.669   2.840   4.047  0.5764 -0.8669  1.3505
 5130SOL    HW217159   5.519   2.821   4.040  0.6828 -1.7831  1.4530
 5131SOL     OW17160   5.888   6.119   6.923 -0.2345 -0.5454  0.1177
 5131SOL    HW117161   5.910   6.174   6.848 -0.3481 -0.4256  0.1712
 5131SOL    HW217162   5.945   6.042   6.914 -1.3404 -1.2831 -0.9710
 5132SOL     OW17163   6.313   7.961   0.750  0.6802 -0.2975 -0.3540
 5132SOL    HW117164   6.271   7.950   0.665 -0.4256 -0.8730  0.2375
 5132SOL    HW217165   6.366   7.882   0.762  0.7002 -0.2955 -0.4331
 5133SOL     OW17166   3.221   4.485   5.982 -0.5343 -0.0606 -0.5438
 5133SOL    HW117167   3.187   4.573   5.996 -2.1389 -0.8094  0.4979
 5133SOL    HW217168   3.219   4.472   5.887 -0.7889  0.8203 -0.6625
 5134SOL     OW17169   5.130   5.599   8.842 -0.4877  0.3895 -0.1393
 5134SOL    HW117170   5.152   5.558   8.926  0.8014  0.8818 -0.2062
 5134SOL    HW217171   5.074   5.673   8.866  1.1647  1.4981  0.4892
 5135SOL     OW17172   7.533   7.802   5.811  0.7964 -0.5158  0.0506
 5135SOL    HW117173   7.469   7.853   5.762 -0.8213 -0.5844  1.9391
 5135SOL    HW217174   7.599   7.778   5.747 -0.3340  0.7675 -1.6937
 5136SOL     OW17175   5.910   5.541   6.734 -0.0665  0.3195 -0.1537
 5136SOL    HW117176   5.924   5.446   6.733 -0.1143  0.2761  1.0780
 5136SOL    HW217177   5.830   5.552   6.786  0.4737  1.0815  0.5386
 5137SOL     OW17178   1.116   3.990   2.787 -0.1425  0.5109  0.0423
 5137SOL    HW117179   1.126   4.029   2.700 -0.9867  0.4012 -0.1162
 5137SOL    HW217180   1.021   3.985   2.800 -0.0243  0.5653  0.9894
 5138SOL     OW17181   3.693   6.241   0.760 -0.8857 -0.2186  0.0593
 5138SOL    HW117182   3.746   6.311   0.799  0.4015 -0.5591 -1.0242
 5138SOL    HW217183   3.756   6.170   0.743 -2.1413 -1.6463  1.0663
 5139SOL     OW17184   2.653   5.032   4.486 -0.4654  0.2940 -0.5181
 5139SOL    HW117185   2.565   5.014   4.520 -0.7661  0.3720 -1.2469
 5139SOL    HW217186   2.663   4.971   4.413  0.4164 -0.3053  0.0821
 5140SOL     OW17187   5.186   9.629   1.605 -0.7701 -0.5185 -0.2948
 5140SOL    HW117188   5.141   9.684   1.670 -0.2344  1.4342 -1.4682
 5140SOL    HW217189   5.278   9.633   1.630 -0.5220  0.4618 -1.2399
 5141SOL     OW17190   6.412   5.956   3.261  0.8113 -0.3810 -0.4243
 5141SOL    HW117191   6.446   6.025   3.204  1.2672 -1.7894 -1.9423
 5141SOL    HW217192   6.432   5.985   3.350  0.4225  1.7100 -0.9735
 5142SOL     OW17193   4.762   8.735   0.548  0.1076  0.5519 -0.7609
 5142SOL    HW117194   4.839   8.767   0.502  1.1429  0.1689  0.6529
 5142SOL    HW217195   4.796   8.682   0.620 -1.5039 -1.3075 -1.2694
 5143SOL     OW17196   4.364   4.271   1.934  0.1969  0.7307 -0.0374
 5143SOL    HW117197   4.449   4.228   1.937 -0.9487 -1.7003 -0.1659
 5143SOL    HW217198   4.375   4.351   1.986  2.4217  0.2879  0.2624
 5144SOL     OW17199   3.161   5.706   7.084 -0.0368  0.0736  0.4367
 5144SOL    HW117200   3.254   5.695   7.065 -0.1813 -0.4837  0.0407
 5144SOL    HW217201   3.116   5.674   7.006 -0.5339  1.6954  0.0289
 5145SOL     OW17202   1.569   4.760   0.886 -0.1373 -0.0480  0.2968
 5145SOL    HW117203   1.642   4.788   0.830 -1.1622 -0.6244 -1.4021
 5145SOL    HW217204   1.569   4.665   0.877 -1.0957 -0.0459  0.2634
 5146SOL     OW17205   9.037   1.610   2.195  0.0720 -0.1546  0.1750
 5146SOL    HW117206   9.104   1.543   2.182  0.2202 -0.1112  0.6705
 5146SOL    HW217207   8.977   1.572   2.259  1.1036  0.8235  1.8152
 5147SOL     OW17208   7.815   1.355   0.564 -0.0758 -0.2288  0.0319
 5147SOL    HW117209   7.883   1.419   0.544 -1.2006  0.4956 -1.6453
 5147SOL    HW217210   7.800   1.365   0.658 -0.2370  2.0108 -0.1911
 5148SOL     OW17211   9.318   3.148   5.599 -0.3846  0.1192  0.4936
 5148SOL    HW117212   9.335   3.181   5.511 -2.6929  2.0596  0.6700
 5148SOL    HW217213   9.251   3.081   5.586 -1.2704  0.9292  0.8101
 5149SOL     OW17214   2.413   9.093   5.201  0.6083  0.9211  0.2361
 5149SOL    HW117215   2.397   9.115   5.293  0.8412  1.8127  0.0730
 5149SOL    HW217216   2.489   9.034   5.204 -0.4726 -0.4871  0.7364
 5150SOL     OW17217   2.068   4.910   0.524  0.3855 -0.1249  0.4390
 5150SOL    HW117218   2.031   4.964   0.594 -2.2002 -3.0197  1.4818
 5150SOL    HW217219   2.075   4.823   0.561 -2.2054 -2.1066 -3.1136
 5151SOL     OW17220   0.328   8.822   8.701 -0.3739 -0.1035  0.0827
 5151SOL    HW117221   0.339   8.858   8.789  1.3137  1.3639 -0.6434
 5151SOL    HW217222   0.351   8.895   8.643 -1.2316 -1.0945 -1.5844
 5152SOL     OW17223   6.215   5.928   7.796  0.1228 -0.4600  0.3029
 5152SOL    HW117224   6.188   5.951   7.707 -1.3858 -0.8890  0.6201
 5152SOL    HW217225   6.157   5.980   7.853  0.7348 -0.5590  1.0292
 5153SOL     OW17226   8.513   8.006   3.343 -0.5438  0.3220 -0.2968
 5153SOL    HW117227   8.528   7.914   3.365 -1.2008  0.2467 -0.1466
 5153SOL    HW217228   8.424   8.008   3.309 -0.3492  0.8238 -0.7797
 5154SOL     OW17229   3.339   0.719   3.848 -0.1827 -0.0970 -0.5527
 5154SOL    HW117230   3.347   0.666   3.927 -1.4419 -1.6183 -1.3925
 5154SOL    HW217231   3.387   0.800   3.869 -0.0661 -0.6452  1.5624
 5155SOL     OW17232   7.253   9.337   6.180  0.1455 -0.7463  0.4483
 5155SOL    HW117233   7.227   9.386   6.102  4.6532  0.1053 -0.7884
 5155SOL    HW217234   7.204   9.378   6.251 -1.1359  1.1492 -1.3884
 5156SOL     OW17235   0.303   3.900   9.022 -0.6441 -0.1800  0.0145
 5156SOL    HW117236   0.210   3.909   9.042 -0.7118 -0.0379 -0.3687
 5156SOL    HW217237   0.344   3.975   9.065 -0.7546 -0.0290 -0.1438
 5157SOL     OW17238   0.897   2.262   9.604 -0.0470  0.6658  0.1286
 5157SOL    HW117239   0.880   2.260   9.698 -0.3776  3.5019  0.2156
 5157SOL    HW217240   0.988   2.232   9.596 -0.6175 -1.5276  1.0797
 5158SOL     OW17241   1.641   7.724   9.012 -0.5263  0.2308  0.2805
 5158SOL    HW117242   1.673   7.635   9.004 -0.8557  0.1269  0.0976
 5158SOL    HW217243   1.546   7.717   8.999 -0.3429  0.8389 -1.7458
 5159SOL     OW17244   3.274   5.017   1.381 -0.1144  0.0351  0.0498
 5159SOL    HW117245   3.179   5.011   1.394 -0.0700  0.4461  0.6163
 5159SOL    HW217246   3.307   5.056   1.463  0.6340 -0.8739  0.2029
 5160SOL     OW17247   3.070   7.039   3.782  0.7888 -0.0969 -0.3600
 5160SOL    HW117248   3.044   6.963   3.834 -2.4886  0.4318 -0.9852
 5160SOL    HW217249   3.048   7.115   3.837  2.0888  0.4442 -0.5469
 5161SOL     OW17250   6.401   5.689   8.256  1.1431  0.2288 -0.0525
 5161SOL    HW117251   6.430   5.598   8.263  3.4698  1.0143  1.6874
 5161SOL    HW217252   6.409   5.709   8.163 -0.7632 -1.6790 -0.7161
 5162SOL     OW17253   6.106   0.858   5.527  0.0769 -0.8482  0.3434
 5162SOL    HW117254   6.025   0.858   5.578 -0.8741  0.7859 -1.0663
 5162SOL    HW217255   6.113   0.947   5.493  2.6018 -0.8940  0.5752
 5163SOL     OW17256   4.430   2.801   4.975 -0.0738 -0.1691 -0.3040
 5163SOL    HW117257   4.491   2.799   5.048  0.3846  0.2527 -0.6674
 5163SOL    HW217258   4.481   2.768   4.901  0.1479  1.5082 -0.9299
 5164SOL     OW17259   8.271   9.263   7.872  0.9386 -0.1446 -0.6104
 5164SOL    HW117260   8.319   9.203   7.928  0.5366  0.3340  0.2661
 5164SOL    HW217261   8.204   9.301   7.929 -1.7119 -2.1134 -2.1860
 5165SOL     OW17262   9.189   8.874   6.586 -0.9691  0.0442 -0.1946
 5165SOL    HW117263   9.268   8.818   6.587 -0.8313  0.2119 -1.0083
 5165SOL    HW217264   9.176   8.895   6.493 -2.1873 -0.2741 -0.1045
 5166SOL     OW17265   1.458   4.935   0.705  1.0054 -0.1050 -0.0961
 5166SOL    HW117266   1.444   5.009   0.764 -0.4462 -1.3960  1.2821
 5166SOL    HW217267   1.481   4.863   0.763  0.4964 -1.1897 -1.2082
 5167SOL     OW17268   8.841   3.112   5.249 -0.3564  0.4964 -0.1980
 5167SOL    HW117269   8.746   3.114   5.257 -0.3696  0.2197 -0.2723
 5167SOL    HW217270   8.862   3.183   5.189 -0.6938 -0.7539 -1.8836
 5168SOL     OW17271   3.070   0.742   3.990 -0.0289 -0.3736  0.2713
 5168SOL    HW117272   3.051   0.718   3.899 -1.4581 -0.4413  0.5587
 5168SOL    HW217273   3.158   0.707   4.006  0.8945  0.9629 -1.5207
 5169SOL     OW17274   7.300   3.265   5.204 -0.3108 -0.2804 -0.0678
 5169SOL    HW117275   7.279   3.277   5.111 -0.7867  0.3377  0.1117
 5169SOL    HW217276   7.316   3.171   5.213  0.4671 -0.2456 -0.9245
 5170SOL     OW17277   3.110   9.027   9.414  0.1366 -0.4184  0.1083
 5170SOL    HW117278   3.115   8.936   9.444 -0.7910 -0.7721 -0.7654
 5170SOL    HW217279   3.028   9.060   9.452  0.1667 -0.1329 -0.0771
 5171SOL     OW17280   2.930   7.627   9.037  0.3830  0.3548  0.6652
 5171SOL    HW117281   2.885   7.699   8.994  0.0002 -0.9471 -1.2888
 5171SOL    HW217282   3.003   7.606   8.979  1.3392  0.0708  1.9214
 5172SOL     OW17283   6.248   9.479   6.907 -0.2350  0.2869 -0.0778
 5172SOL    HW117284   6.225   9.524   6.988  0.4655  1.6454 -0.6018
 5172SOL    HW217285   6.168   9.485   6.853  0.0805  1.5917 -0.4254
 5173SOL     OW17286   5.256   6.007   2.661 -0.2669 -0.6339 -0.1878
 5173SOL    HW117287   5.314   6.004   2.736  0.1847 -0.1128 -0.5104
 5173SOL    HW217288   5.168   6.001   2.698 -0.0630 -0.0106  0.4020
 5174SOL     OW17289   0.805   4.364   6.969  0.2002 -0.1575  0.5285
 5174SOL    HW117290   0.772   4.403   7.050 -0.0909 -0.5287  0.5888
 5174SOL    HW217291   0.892   4.403   6.958 -0.5752  1.4873 -0.0791
 5175SOL     OW17292   4.950   5.787   8.737 -0.1176  0.3207  0.0002
 5175SOL    HW117293   4.924   5.700   8.706  1.1903  0.2696 -1.0144
 5175SOL    HW217294   4.881   5.812   8.798 -1.6736 -0.5141 -1.3328
 5176SOL     OW17295   3.319   1.241   6.976 -0.1866 -0.1030 -0.1126
 5176SOL    HW117296   3.286   1.326   6.948 -0.5269 -0.7228 -1.7154
 5176SOL    HW217297   3.406   1.235   6.935 -0.6865 -1.0316 -1.0767
 5177SOL     OW17298   1.114   0.730   5.842 -0.1656  0.0408  0.3616
 5177SOL    HW117299   1.184   0.794   5.857  0.4102 -0.7638  1.2034
 5177SOL    HW217300   1.160   0.647   5.829 -0.9781 -0.8800  2.8475
 5178SOL     OW17301   8.972   4.884   7.057 -0.7389 -0.0706  0.1712
 5178SOL    HW117302   8.904   4.817   7.047 -0.8045 -0.1199  0.8761
 5178SOL    HW217303   8.954   4.924   7.142 -2.0154  2.3459 -1.1306
 5179SOL     OW17304   6.070   1.191   1.483 -0.1213 -0.0958  0.2111
 5179SOL    HW117305   6.005   1.239   1.432 -1.1702  0.3096  1.8574
 5179SOL    HW217306   6.050   1.099   1.467  0.0347  0.0126 -0.6613
 5180SOL     OW17307   5.155   0.599   3.735  0.3540  0.1215 -0.4507
 5180SOL    HW117308   5.077   0.602   3.790 -0.9206 -0.4658 -2.1466
 5180SOL    HW217309   5.192   0.687   3.741 -0.1212  0.2460  0.8041
 5181SOL     OW17310   7.987   5.436   0.197  0.4172  0.1440 -0.5635
 5181SOL    HW117311   7.938   5.361   0.166  1.4160 -0.7534 -0.0457
 5181SOL    HW217312   7.987   5.498   0.124  1.0178 -1.0679 -1.6121
 5182SOL     OW17313   4.224   6.972   1.652  0.5775 -0.5890 -0.1375
 5182SOL    HW117314   4.310   6.969   1.611  0.4935 -1.1737 -0.2805
 5182SOL    HW217315   4.197   6.880   1.657  0.0545 -0.4239  0.0963
 5183SOL     OW17316   0.535   0.621   3.097  0.4009  0.2225 -0.0601
 5183SOL    HW117317   0.460   0.675   3.071  0.1811  0.0186  0.1490
 5183SOL    HW217318   0.611   0.666   3.059  0.0664 -0.2239 -1.3290
 5184SOL     OW17319   6.127   5.597   3.258  0.3042 -0.4353 -0.1983
 5184SOL    HW117320   6.103   5.525   3.200  0.2246 -0.6548  0.1117
 5184SOL    HW217321   6.100   5.570   3.345 -0.6934  0.4126 -0.2264
 5185SOL     OW17322   4.583   6.719   6.129 -0.2693 -0.1567 -0.9723
 5185SOL    HW117323   4.544   6.635   6.153 -1.9964  0.8883  0.1593
 5185SOL    HW217324   4.636   6.743   6.204 -1.7741  0.8666 -0.1862
 5186SOL     OW17325   6.715   9.501   5.564 -0.5437 -0.0763  0.4509
 5186SOL    HW117326   6.632   9.454   5.549 -1.5007  1.2456  1.3663
 5186SOL    HW217327   6.740   9.532   5.477 -2.2009  1.3645  0.4270
 5187SOL     OW17328   1.994   5.545   5.444 -0.7513 -0.3724 -0.2674
 5187SOL    HW117329   2.066   5.574   5.389 -0.0946  0.1023  0.7968
 5187SOL    HW217330   2.036   5.521   5.527 -1.8026 -0.2099  0.3275
 5188SOL     OW17331   4.421   9.034   2.642 -0.1241  0.0490  0.4609
 5188SOL    HW117332   4.386   9.096   2.705 -0.9614 -0.4481  0.5080
 5188SOL    HW217333   4.374   8.953   2.659  0.8162 -0.5529  0.2782
 5189SOL     OW17334   6.496   6.676   7.833 -0.1687 -0.5785 -0.1402
 5189SOL    HW117335   6.410   6.714   7.812 -0.0239 -0.6581 -0.9346
 5189SOL    HW217336   6.508   6.693   7.926 -1.0038 -0.4791 -0.0416
 5190SOL     OW17337   2.698   4.883   8.360  0.3804  0.0935  0.2963
 5190SOL    HW117338   2.765   4.931   8.310 -0.3086  1.0151  0.2174
 5190SOL    HW217339   2.745   4.846   8.434  0.8973  1.2438  0.5780
 5191SOL     OW17340   4.908   1.520   9.042 -0.1707  0.3000 -0.4646
 5191SOL    HW117341   4.987   1.566   9.016  0.5955  0.5385  1.9749
 5191SOL    HW217342   4.923   1.429   9.015  1.0833  0.2868  0.1846
 5192SOL     OW17343   8.515   8.476   2.508  0.7703  0.3781  0.1157
 5192SOL    HW117344   8.504   8.528   2.429  2.2756 -0.9969 -1.0914
 5192SOL    HW217345   8.455   8.514   2.572  0.0772  2.0137 -1.4457
 5193SOL     OW17346   0.002   1.487   5.487 -0.2495  0.0730  0.0097
 5193SOL    HW117347   0.030   1.396   5.477  0.2213  0.2957 -0.7894
 5193SOL    HW217348   0.058   1.536   5.428 -1.4564  0.6977 -0.6585
 5194SOL     OW17349   9.137   3.881   7.706  0.4064  0.2488  0.2261
 5194SOL    HW117350   9.117   3.809   7.647  2.3746 -0.1961  0.0162
 5194SOL    HW217351   9.127   3.843   7.794  2.9312 -0.8265  0.1264
 5195SOL     OW17352   4.834   8.925   5.661  0.4389  0.1323  0.1013
 5195SOL    HW117353   4.877   8.876   5.591  1.1245  1.8491 -0.7296
 5195SOL    HW217354   4.906   8.959   5.714 -0.0463 -2.6680  2.8681
 5196SOL     OW17355   5.387   4.498   0.026 -0.4641  0.6964 -0.3418
 5196SOL    HW117356   5.413   4.434  -0.041  0.6589  0.1299  0.5950
 5196SOL    HW217357   5.441   4.476   0.102 -0.3570  2.5054  0.1512
 5197SOL     OW17358   8.027   1.911   1.383  0.0914  0.4060 -0.3772
 5197SOL    HW117359   7.938   1.892   1.353  0.1386 -0.2766 -0.0999
 5197SOL    HW217360   8.082   1.898   1.305  0.3297 -2.2447  0.1480
 5198SOL     OW17361   3.725   6.719   6.069  0.4822  0.3312  0.1661
 5198SOL    HW117362   3.696   6.665   6.142  0.2720 -0.4463 -0.4828
 5198SOL    HW217363   3.652   6.719   6.007 -0.5432  3.4038  1.2056
 5199SOL     OW17364   8.451   1.102   6.707  0.0273  0.2287 -0.4330
 5199SOL    HW117365   8.442   1.102   6.612 -0.7065 -1.8237 -0.4297
 5199SOL    HW217366   8.537   1.062   6.723 -0.3695 -0.5724 -0.2453
 5200SOL     OW17367   5.027   4.632   7.648  0.1987  0.1054  0.3600
 5200SOL    HW117368   5.028   4.627   7.743  1.4922 -0.4347  0.3381
 5200SOL    HW217369   4.979   4.554   7.620 -0.6428  0.5362  0.5637
 5201SOL     OW17370   9.812   8.132   2.470 -0.2098  0.1545 -0.3238
 5201SOL    HW117371   9.886   8.181   2.434 -0.4930 -0.8547 -2.4333
 5201SOL    HW217372   9.736   8.190   2.459 -0.1110  0.2865 -0.3068
 5202SOL     OW17373   7.979   4.755   4.225 -0.1722 -0.0056 -0.3476
 5202SOL    HW117374   7.978   4.670   4.183 -0.2237 -0.3582  0.3508
 5202SOL    HW217375   8.040   4.807   4.173 -0.6784 -0.2410 -1.1937
 5203SOL     OW17376   9.317   6.280   4.963 -0.1624  0.2340 -0.0889
 5203SOL    HW117377   9.385   6.224   4.999 -1.3716 -0.7230  0.7962
 5203SOL    HW217378   9.289   6.334   5.036 -1.2549 -0.3101 -0.0894
 5204SOL     OW17379   5.103   7.412   1.758  0.1819  0.3472 -0.5007
 5204SOL    HW117380   5.188   7.387   1.796 -0.8552 -1.3844  0.8078
 5204SOL    HW217381   5.108   7.381   1.667  1.1529  0.7754 -0.6035
 5205SOL     OW17382   6.661   7.561   3.426 -0.0846  0.1247 -0.0227
 5205SOL    HW117383   6.629   7.636   3.476  0.9876  1.4608 -1.2441
 5205SOL    HW217384   6.756   7.572   3.425 -0.0884  0.5207 -2.8395
 5206SOL     OW17385   8.468   7.756   0.990 -0.2422 -0.3225 -0.4699
 5206SOL    HW117386   8.562   7.746   0.976 -0.2570 -2.2750  0.5424
 5206SOL    HW217387   8.453   7.724   1.079 -1.5752  2.1254  0.2732
 5207SOL     OW17388   2.921   0.942   4.171  0.4134 -0.4427  0.2554
 5207SOL    HW117389   2.846   0.976   4.122  0.3758 -1.0875 -0.1427
 5207SOL    HW217390   2.965   0.882   4.110 -0.4559 -2.3887  1.4333
 5208SOL     OW17391   1.949   1.323   6.457  0.1773  0.0510 -0.0296
 5208SOL    HW117392   1.998   1.404   6.441 -1.0204  0.8330  0.0989
 5208SOL    HW217393   1.865   1.353   6.491 -0.5630 -1.2233 -0.6675
 5209SOL     OW17394   0.813   5.272   4.673 -0.3550 -0.2870  0.6740
 5209SOL    HW117395   0.827   5.361   4.705 -1.5527  0.2895 -0.3358
 5209SOL    HW217396   0.892   5.225   4.699  1.1276  1.5142 -0.3082
 5210SOL     OW17397   9.078   1.770   2.469 -0.3150 -0.1736 -0.2135
 5210SOL    HW117398   9.130   1.788   2.547  0.7363 -1.2569 -0.6317
 5210SOL    HW217399   9.135   1.716   2.414 -1.8062 -1.2514 -0.7764
 5211SOL     OW17400   3.711   2.662   4.204 -0.1048  0.6077 -0.1826
 5211SOL    HW117401   3.622   2.688   4.180 -0.0676 -0.7211 -2.0756
 5211SOL    HW217402   3.700   2.575   4.243  0.3255  0.4825 -0.3338
 5212SOL     OW17403   3.183   8.397   4.448  0.2671 -0.0013 -0.0579
 5212SOL    HW117404   3.188   8.480   4.401 -0.1395 -0.9701 -1.8768
 5212SOL    HW217405   3.090   8.372   4.443 -0.0360  0.3878  2.2720
 5213SOL     OW17406   7.529   4.592   5.992 -0.1003 -0.6164  0.1541
 5213SOL    HW117407   7.450   4.637   5.962  0.3056  0.4213  0.6293
 5213SOL    HW217408   7.582   4.582   5.913  0.2032  0.5464  0.2055
 5214SOL     OW17409   1.130   6.053   6.583  0.1240  0.0101 -0.1403
 5214SOL    HW117410   1.137   6.098   6.667  2.0192  0.1202 -0.3053
 5214SOL    HW217411   1.094   5.967   6.605  0.8854 -0.0783  0.8597
 5215SOL     OW17412   9.796   2.263   7.207 -0.4420  0.3680 -0.6377
 5215SOL    HW117413   9.879   2.261   7.159 -1.1420  2.5134 -2.0488
 5215SOL    HW217414   9.732   2.226   7.147 -1.2246  2.5846 -1.2649
 5216SOL     OW17415   4.044   2.032   9.505 -0.6971  0.5538 -0.0102
 5216SOL    HW117416   4.064   2.047   9.597 -0.5027 -0.5020  0.1264
 5216SOL    HW217417   4.081   2.109   9.460 -1.6334  1.5491  0.8686
 5217SOL     OW17418   2.559   5.204   7.985 -0.4623  0.1283 -0.1408
 5217SOL    HW117419   2.521   5.285   7.949 -1.1453  0.5053  1.3582
 5217SOL    HW217420   2.505   5.184   8.061  1.0944 -0.4663  0.8601
 5218SOL     OW17421   4.268   4.544   5.932  0.1963  0.0524 -0.3474
 5218SOL    HW117422   4.223   4.471   5.889 -1.6632  0.8928  0.0760
 5218SOL    HW217423   4.205   4.615   5.931  0.4283  0.4483  2.8352
 5219SOL     OW17424   6.390   6.549   6.752 -0.1989  0.3624 -0.0702
 5219SOL    HW117425   6.447   6.474   6.766 -1.1107 -0.3680 -0.1204
 5219SOL    HW217426   6.340   6.557   6.834 -1.3046 -0.1738 -0.6601
 5220SOL     OW17427   8.727   6.118   5.233 -0.3598  0.1667 -0.3524
 5220SOL    HW117428   8.683   6.112   5.148  0.3684 -0.3916 -0.7088
 5220SOL    HW217429   8.729   6.027   5.264 -0.9179  0.4174  0.4165
 5221SOL     OW17430   6.082   6.270   7.139 -0.5674  0.2441 -0.1183
 5221SOL    HW117431   5.999   6.247   7.098  0.4071 -0.0516 -2.0728
 5221SOL    HW217432   6.078   6.365   7.151 -0.6466  0.4539 -1.5897
 5222SOL     OW17433   9.408   4.247   3.839  0.3248 -0.0630  0.0457
 5222SOL    HW117434   9.501   4.231   3.824  0.1231 -0.0437 -1.3298
 5222SOL    HW217435   9.369   4.159   3.843  0.2470 -0.0573 -0.4948
 5223SOL     OW17436   5.694   3.197   3.200  0.6413 -0.3330  0.2776
 5223SOL    HW117437   5.685   3.263   3.269  0.4110  0.2628 -0.3130
 5223SOL    HW217438   5.624   3.135   3.217  0.0869  0.2401  0.1182
 5224SOL     OW17439   6.453   2.369   2.722  0.2507 -0.2713  0.3790
 5224SOL    HW117440   6.366   2.336   2.746 -0.3714 -0.7430 -2.2299
 5224SOL    HW217441   6.437   2.455   2.683  1.0264 -0.0979  0.4266
 5225SOL     OW17442   6.440   4.740   8.816  1.2748 -0.0283 -0.3993
 5225SOL    HW117443   6.406   4.726   8.728 -0.3414  0.1053  0.1810
 5225SOL    HW217444   6.497   4.664   8.832  0.2314 -0.9477 -0.9160
 5226SOL     OW17445   7.859   1.596   2.564 -0.4963 -0.2038  0.2477
 5226SOL    HW117446   7.942   1.643   2.552 -0.2687 -0.3602  1.1308
 5226SOL    HW217447   7.859   1.571   2.656 -1.8804  0.4570  0.4575
 5227SOL     OW17448   2.810   2.012   3.448 -0.0859  0.3368 -0.4588
 5227SOL    HW117449   2.846   2.048   3.367  0.4710 -1.1705 -0.8976
 5227SOL    HW217450   2.884   1.970   3.491 -0.4199  0.9257  0.7417
 5228SOL     OW17451   2.370   6.156   6.050 -0.7028  0.4172  0.6757
 5228SOL    HW117452   2.411   6.199   6.125  1.6026  1.0467 -0.8552
 5228SOL    HW217453   2.377   6.220   5.979  0.5807 -1.5212 -1.0440
 5229SOL     OW17454   2.064   9.330   2.075  0.0361 -0.0134  0.4662
 5229SOL    HW117455   2.147   9.345   2.030  0.6256  0.0273  1.5140
 5229SOL    HW217456   2.034   9.245   2.045 -1.2882  1.3762 -2.5000
 5230SOL     OW17457   7.595   4.651   4.144  0.1529 -0.4360 -0.4719
 5230SOL    HW117458   7.669   4.625   4.088 -1.1669  0.0367 -2.5262
 5230SOL    HW217459   7.552   4.722   4.097 -1.5953 -0.6608  0.6811
 5231SOL     OW17460   3.940   9.686   0.864 -0.0669  0.2362  0.0066
 5231SOL    HW117461   3.995   9.623   0.818 -1.1037 -0.9478  0.3416
 5231SOL    HW217462   3.970   9.682   0.955  0.5735  1.0296 -0.1574
 5232SOL     OW17463   6.075   2.521   8.010  0.1155 -0.0886 -0.3346
 5232SOL    HW117464   6.016   2.511   8.085  0.4727 -1.9040 -0.2617
 5232SOL    HW217465   6.102   2.613   8.013 -1.1039  0.2621  0.8267
 5233SOL     OW17466   4.974   8.703   3.017  0.2899 -0.5166  0.1173
 5233SOL    HW117467   5.064   8.725   2.992  0.2245  1.2499  1.2658
 5233SOL    HW217468   4.976   8.698   3.112 -0.4831 -2.1968  0.0679
 5234SOL     OW17469   6.139   2.658   3.085 -0.1418 -0.3458 -0.1672
 5234SOL    HW117470   6.055   2.619   3.059 -0.0587 -0.5333 -0.1565
 5234SOL    HW217471   6.132   2.750   3.060 -0.0640 -0.5193 -0.8592
 5235SOL     OW17472   3.804   6.007   4.881  0.3682 -0.7170  0.4973
 5235SOL    HW117473   3.776   6.081   4.826  2.2986 -0.9959 -0.9621
 5235SOL    HW217474   3.742   6.007   4.954 -0.5111  1.5086 -0.1532
 5236SOL     OW17475   5.986   0.869   2.358 -0.0830 -0.5094 -0.5554
 5236SOL    HW117476   6.003   0.949   2.407  0.4647 -0.7535 -0.3396
 5236SOL    HW217477   5.891   0.867   2.347 -0.2254 -0.5373  0.6427
 5237SOL     OW17478   5.322   3.941   3.347 -0.4979 -0.3899  0.1446
 5237SOL    HW117479   5.363   4.007   3.403 -0.7900  0.4326 -0.5864
 5237SOL    HW217480   5.292   3.873   3.408  2.9653 -1.6800  0.6618
 5238SOL     OW17481   7.881   2.598   4.073 -0.0231 -0.1102 -0.8209
 5238SOL    HW117482   7.975   2.583   4.087  0.0323  0.4899 -0.5477
 5238SOL    HW217483   7.839   2.523   4.116  0.3741 -1.0645 -2.0334
 5239SOL     OW17484   5.958   8.466   9.032  0.1531 -0.4637 -0.0520
 5239SOL    HW117485   5.876   8.422   9.054 -0.7413  1.2571  0.2320
 5239SOL    HW217486   5.934   8.529   8.964  1.2788 -0.0854 -0.1168
 5240SOL     OW17487   3.408   0.386   3.943 -0.0325  0.2773 -0.4419
 5240SOL    HW117488   3.494   0.418   3.917 -0.5863  2.0709 -0.2335
 5240SOL    HW217489   3.366   0.358   3.861  0.4473  0.1375 -0.6420
 5241SOL     OW17490   9.110   3.932   5.500 -0.0324  0.2933  0.0368
 5241SOL    HW117491   9.084   3.859   5.556 -1.6431  0.8804  0.1152
 5241SOL    HW217492   9.035   3.946   5.442  1.3160  0.1664 -1.8234
 5242SOL     OW17493   3.666   5.515   8.103  0.9286 -0.3072 -0.0209
 5242SOL    HW117494   3.687   5.586   8.042 -2.4746  1.1820  0.2652
 5242SOL    HW217495   3.716   5.440   8.072  3.0450  1.6310 -1.6497
 5243SOL     OW17496   2.924   1.500   4.912  0.0815 -0.2658 -0.1698
 5243SOL    HW117497   2.839   1.512   4.955  0.2076 -1.5802  0.4892
 5243SOL    HW217498   2.903   1.467   4.825 -0.0962 -0.2624 -0.1284
 5244SOL     OW17499   7.963   1.153   1.564 -0.1312 -0.0327 -0.0016
 5244SOL    HW117500   7.935   1.121   1.650  0.4317 -1.3976 -0.2956
 5244SOL    HW217501   8.029   1.219   1.584 -0.3774  0.0285  0.6326
 5245SOL     OW17502   3.507   1.556   0.029 -0.1173  0.3460 -0.0389
 5245SOL    HW117503   3.496   1.608  -0.051 -2.9178 -1.6764 -1.1098
 5245SOL    HW217504   3.439   1.588   0.088 -0.6870 -0.8353 -0.0285
 5246SOL     OW17505   7.246   5.460   3.251  0.2709  0.4085  0.2206
 5246SOL    HW117506   7.158   5.433   3.274  0.8828 -0.8358  1.2316
 5246SOL    HW217507   7.268   5.410   3.173  1.1868 -1.7258  1.7555
 5247SOL     OW17508   9.325   9.470   5.021 -0.4762  0.2448 -0.6004
 5247SOL    HW117509   9.345   9.518   5.101 -1.2017  0.2969 -0.4485
 5247SOL    HW217510   9.245   9.510   4.988 -0.3695 -0.0027 -1.1769
 5248SOL     OW17511   8.679   5.889   7.439 -0.0811 -0.3891  0.1210
 5248SOL    HW117512   8.682   5.944   7.360  1.8806  0.3896  0.6617
 5248SOL    HW217513   8.660   5.951   7.510 -1.2933 -0.9982  0.3452
 5249SOL     OW17514   3.978   6.607   9.082 -0.7040  0.7589  0.0165
 5249SOL    HW117515   3.891   6.568   9.075  0.3730 -1.9503  0.5844
 5249SOL    HW217516   4.027   6.570   9.009 -0.0059  2.2677 -0.3170
 5250SOL     OW17517   4.632   7.630   6.505  0.1114 -0.2036 -0.2052
 5250SOL    HW117518   4.700   7.620   6.438  1.1488  0.2787  0.7523
 5250SOL    HW217519   4.553   7.595   6.463  0.6902  0.2053 -1.7250
 5251SOL     OW17520   0.759   7.996   3.310 -0.1261 -0.4111 -0.1720
 5251SOL    HW117521   0.725   7.987   3.399 -0.5022 -0.3549 -0.3097
 5251SOL    HW217522   0.722   7.923   3.261  0.4787 -0.7281 -0.1643
 5252SOL     OW17523   2.483   0.608   3.777  0.1226  0.6433  0.1121
 5252SOL    HW117524   2.557   0.550   3.794 -0.1872  0.5363  1.1475
 5252SOL    HW217525   2.440   0.570   3.701  0.9873  0.5710 -0.3534
 5253SOL     OW17526   7.857   2.634   8.342  0.1160  0.7341  0.1654
 5253SOL    HW117527   7.809   2.717   8.341  0.5018  0.9579 -0.1052
 5253SOL    HW217528   7.942   2.657   8.379  0.0154  0.3381  0.6527
 5254SOL     OW17529   9.141   0.811   9.559 -0.3043 -0.5418  0.2748
 5254SOL    HW117530   9.224   0.823   9.512  0.6710 -1.6580  1.6598
 5254SOL    HW217531   9.075   0.805   9.489  0.7307  0.4675 -0.8478
 5255SOL     OW17532   1.914   7.771   2.307 -0.0653  0.3951  0.3068
 5255SOL    HW117533   1.885   7.684   2.336  0.1694 -0.4323 -1.7221
 5255SOL    HW217534   1.942   7.815   2.386  0.5286 -1.6719  1.3166
 5256SOL     OW17535   7.577   4.447   6.963 -0.3455  0.2735  0.1746
 5256SOL    HW117536   7.633   4.396   6.904 -0.8637  0.5387 -0.5515
 5256SOL    HW217537   7.626   4.528   6.978  0.2133 -0.1716  0.8701
 5257SOL     OW17538   4.645   8.450   6.411 -0.5585  0.0169  0.1478
 5257SOL    HW117539   4.681   8.384   6.471 -1.9671  1.2515  2.5364
 5257SOL    HW217540   4.552   8.452   6.432 -1.1108  0.5737 -2.1365
 5258SOL     OW17541   0.737   8.746   3.775  0.5897 -0.6228 -0.3689
 5258SOL    HW117542   0.752   8.837   3.800  0.0748 -0.6985  0.2316
 5258SOL    HW217543   0.670   8.750   3.706  0.8959 -0.5214 -0.6636
 5259SOL     OW17544   0.269   8.922   7.185  0.1286 -0.0400  0.2398
 5259SOL    HW117545   0.285   8.975   7.107 -0.1797  0.8729  0.7805
 5259SOL    HW217546   0.317   8.841   7.169  0.6095  0.3972 -0.6090
 5260SOL     OW17547   6.426   7.068   9.056  0.0104  0.0437  0.2276
 5260SOL    HW117548   6.433   7.161   9.078 -0.8846  0.6417 -1.7534
 5260SOL    HW217549   6.432   7.023   9.140  0.1794  1.9093  1.2733
 5261SOL     OW17550   1.880   3.495   6.217 -0.0817  0.2186 -0.2626
 5261SOL    HW117551   1.856   3.572   6.269  1.5206  0.4075  0.2450
 5261SOL    HW217552   1.808   3.433   6.232  0.2424  0.3145  2.1030
 5262SOL     OW17553   9.113   3.508   5.057  0.7225  0.3539  0.2811
 5262SOL    HW117554   9.074   3.508   5.145 -2.3462  1.5638 -0.9452
 5262SOL    HW217555   9.200   3.547   5.069  0.1135  1.1207  2.6664
 5263SOL     OW17556   3.764   9.239   0.668 -0.2024  0.2319  0.2379
 5263SOL    HW117557   3.725   9.276   0.588 -0.0225  0.3805  0.2177
 5263SOL    HW217558   3.837   9.185   0.636 -1.0654 -0.9453  0.1953
 5264SOL     OW17559   5.529   9.777   5.904 -0.1002 -0.4362 -0.6139
 5264SOL    HW117560   5.589   9.850   5.888 -0.6257  0.1405 -0.0222
 5264SOL    HW217561   5.483   9.764   5.821 -0.7155  0.5742 -0.4441
 5265SOL     OW17562   5.689   7.250   1.692  0.3397 -0.1365 -0.1822
 5265SOL    HW117563   5.699   7.244   1.787  0.1338 -1.2165 -0.2204
 5265SOL    HW217564   5.763   7.201   1.656  0.3779  0.2081 -0.5805
 5266SOL     OW17565   8.246   7.438   1.173 -0.1899 -0.0041 -0.5973
 5266SOL    HW117566   8.183   7.494   1.130  0.0509  2.9393  2.5022
 5266SOL    HW217567   8.194   7.380   1.229 -0.3156  2.0208  1.5062
 5267SOL     OW17568   5.938   6.840   8.233 -0.1404 -0.0779 -0.0357
 5267SOL    HW117569   5.927   6.895   8.311 -1.8415 -1.1925  0.5742
 5267SOL    HW217570   5.848   6.825   8.201  0.4824 -0.1077 -1.8920
 5268SOL     OW17571   5.467   8.162   3.500  0.0395  0.2902 -0.0859
 5268SOL    HW117572   5.543   8.155   3.442  0.1641 -0.4363  0.1500
 5268SOL    HW217573   5.442   8.254   3.496  1.5308  0.7555  0.6116
 5269SOL     OW17574   9.327   4.610   4.681 -0.7158 -0.5093 -0.1832
 5269SOL    HW117575   9.393   4.663   4.636 -1.1429  0.1431 -0.0537
 5269SOL    HW217576   9.333   4.637   4.773  0.4177 -2.1071  0.2617
 5270SOL     OW17577   9.269   7.396   5.957  0.8689 -0.2053 -0.3159
 5270SOL    HW117578   9.268   7.489   5.932  0.7420 -0.3319 -0.7889
 5270SOL    HW217579   9.195   7.358   5.911  1.4987 -0.7462 -0.9103
 5271SOL     OW17580   5.491   2.831   6.253 -0.2214  0.3351  0.0777
 5271SOL    HW117581   5.535   2.850   6.335 -0.8487 -0.7615  0.6935
 5271SOL    HW217582   5.528   2.748   6.224 -0.9094  0.0739 -0.0810
 5272SOL     OW17583   3.205   7.186   5.969 -0.7697 -0.7570  0.1575
 5272SOL    HW117584   3.161   7.108   5.935 -1.4890 -0.5896  0.6796
 5272SOL    HW217585   3.243   7.227   5.892 -1.6285 -0.8483 -0.3359
 5273SOL     OW17586   0.651   0.601   8.155 -0.5044  0.1811  0.4133
 5273SOL    HW117587   0.703   0.538   8.205  1.1483 -0.2829 -1.7638
 5273SOL    HW217588   0.560   0.575   8.171 -0.0273 -0.3544  2.5574
 5274SOL     OW17589   1.195   0.809   4.832  0.2158  0.4306  0.1174
 5274SOL    HW117590   1.149   0.794   4.914 -0.3996  0.3729 -0.2286
 5274SOL    HW217591   1.288   0.810   4.856  0.0497  0.3090  0.7901
 5275SOL     OW17592   8.290   0.958   9.624  0.3583 -0.1039 -0.5728
 5275SOL    HW117593   8.295   0.953   9.528  0.3658  1.2095 -0.6667
 5275SOL    HW217594   8.357   1.023   9.648  0.3430 -0.4076  0.3258
 5276SOL     OW17595   6.957   7.201   5.136  0.6088 -0.2724  0.4522
 5276SOL    HW117596   6.908   7.121   5.154 -0.3618  0.6889  2.3557
 5276SOL    HW217597   6.941   7.257   5.211  0.2952  2.2088 -1.3237
 5277SOL     OW17598   9.320   0.355   9.344 -0.4300 -0.8963  0.1343
 5277SOL    HW117599   9.355   0.406   9.417 -2.5729 -1.5511  1.7705
 5277SOL    HW217600   9.315   0.265   9.379 -1.9948 -1.1287 -0.5738
 5278SOL     OW17601   9.025   1.411   3.284 -0.1124  0.8223 -0.1327
 5278SOL    HW117602   9.093   1.351   3.254 -1.1747  0.1095 -1.1903
 5278SOL    HW217603   9.073   1.481   3.328  1.1910 -0.5291  0.6920
 5279SOL     OW17604   7.714   4.338   0.660 -0.8506  0.2847 -0.0444
 5279SOL    HW117605   7.746   4.423   0.688  0.2042  0.0571 -0.5339
 5279SOL    HW217606   7.659   4.308   0.733 -0.2106  0.8235  0.6694
 5280SOL     OW17607   0.477   0.416   1.779 -0.0977  0.2310  0.6627
 5280SOL    HW117608   0.520   0.409   1.864  0.4138  0.8055  0.4529
 5280SOL    HW217609   0.516   0.346   1.726  2.0284  1.9179 -0.1387
 5281SOL     OW17610   2.399   1.281   8.854 -0.5596 -0.4613  0.0549
 5281SOL    HW117611   2.376   1.226   8.930 -1.7602 -0.4678 -0.2934
 5281SOL    HW217612   2.488   1.312   8.873 -1.2032  0.3757  1.9635
 5282SOL     OW17613   1.247   8.941   7.355 -0.3148  0.4458  0.3951
 5282SOL    HW117614   1.329   8.918   7.311  0.2825 -0.1329  1.7601
 5282SOL    HW217615   1.201   8.996   7.292 -0.8166 -2.6139 -2.1409
 5283SOL     OW17616   4.313   1.855   4.044  0.1564 -0.2648  0.2385
 5283SOL    HW117617   4.252   1.896   4.105 -0.3396  0.4219 -0.7030
 5283SOL    HW217618   4.377   1.923   4.024 -1.1615  0.4246 -2.0026
 5284SOL     OW17619   6.253   7.407   3.001 -0.3813 -0.1455 -0.5920
 5284SOL    HW117620   6.276   7.314   2.996  1.0097  0.2061 -4.7347
 5284SOL    HW217621   6.338   7.452   3.007 -0.9722  0.9143  0.1536
 5285SOL     OW17622   3.159   4.763   9.496  0.8745 -0.5031 -0.1173
 5285SOL    HW117623   3.194   4.675   9.481  0.9252 -0.4011 -0.6151
 5285SOL    HW217624   3.123   4.789   9.412  0.7984 -0.0716  0.0461
 5286SOL     OW17625   8.494   5.277   6.586  0.4288  0.1239  0.3526
 5286SOL    HW117626   8.487   5.234   6.672 -0.8526  0.9139  0.6659
 5286SOL    HW217627   8.405   5.274   6.551  0.9314 -0.1418 -0.9384
 5287SOL     OW17628   9.649   8.658   7.350 -0.2068  0.2124 -0.3494
 5287SOL    HW117629   9.626   8.595   7.418  0.7404  1.3448  1.0698
 5287SOL    HW217630   9.741   8.640   7.331 -0.4415 -0.0421 -1.3018
 5288SOL     OW17631   6.657   7.207   1.045  0.4698  0.1736  0.4344
 5288SOL    HW117632   6.747   7.238   1.040  0.3370  0.3957 -1.1608
 5288SOL    HW217633   6.661   7.127   1.098  1.6054  0.1671  0.3496
 5289SOL     OW17634   1.217   3.602   4.566 -0.3218 -0.2694  0.2527
 5289SOL    HW117635   1.278   3.665   4.528  0.4099 -1.7966 -1.2561
 5289SOL    HW217636   1.195   3.543   4.493 -2.0220 -0.9714  1.2647
 5290SOL     OW17637   8.365   6.867   3.804  0.8289 -0.6565 -0.9762
 5290SOL    HW117638   8.334   6.777   3.816  2.4324 -1.3122 -1.4767
 5290SOL    HW217639   8.453   6.867   3.842  0.0776  1.2852  0.9507
 5291SOL     OW17640   7.230   8.370   3.607  0.6348  0.5097  0.2788
 5291SOL    HW117641   7.320   8.352   3.634 -0.2441 -2.2310  1.6667
 5291SOL    HW217642   7.176   8.325   3.671 -1.8029  2.3931 -0.2933
 5292SOL     OW17643   5.417   6.043   6.637  0.0773 -0.2061 -0.2894
 5292SOL    HW117644   5.423   5.992   6.718  1.6291  0.5048  0.0939
 5292SOL    HW217645   5.430   6.133   6.665  0.6648  0.0499 -1.3409
 5293SOL     OW17646   5.037   6.884   6.647 -0.0164  0.3959  0.2137
 5293SOL    HW117647   5.083   6.800   6.641 -0.1226  0.3685 -0.2647
 5293SOL    HW217648   5.098   6.947   6.609 -0.4798  0.3136 -0.7003
 5294SOL     OW17649   5.178   0.354   7.193 -0.4196 -0.0049 -0.6018
 5294SOL    HW117650   5.114   0.324   7.128 -2.5914  1.8177  0.5364
 5294SOL    HW217651   5.160   0.302   7.271 -1.1272  1.0458 -0.0328
 5295SOL     OW17652   8.560   2.263   8.690  0.1797  0.8037  0.0509
 5295SOL    HW117653   8.646   2.236   8.722 -0.3052  0.5411  1.1799
 5295SOL    HW217654   8.542   2.345   8.735 -1.2733 -0.4434  1.9221
 5296SOL     OW17655   7.614   4.387   8.802 -0.5563  0.2133  0.3733
 5296SOL    HW117656   7.665   4.466   8.820 -1.4091  0.8409  0.0919
 5296SOL    HW217657   7.665   4.341   8.736  1.5595 -1.0862  2.7074
 5297SOL     OW17658   3.521   3.123   3.293 -0.0773 -0.2258 -0.5170
 5297SOL    HW117659   3.500   3.207   3.334 -1.0239 -0.7621  0.1355
 5297SOL    HW217660   3.583   3.145   3.224 -0.3495  1.0206 -0.3909
 5298SOL     OW17661   6.054   8.217   7.555  0.0505 -0.3753  0.7867
 5298SOL    HW117662   6.060   8.240   7.462 -0.3818  0.4978  0.9633
 5298SOL    HW217663   5.962   8.229   7.577 -0.0895 -1.7781  1.0368
 5299SOL     OW17664   6.103   9.488   7.767  0.1298 -0.1397 -0.3255
 5299SOL    HW117665   6.183   9.465   7.815 -0.6009 -0.3609  0.8171
 5299SOL    HW217666   6.110   9.440   7.685  1.1633 -0.1662 -0.2408
 5300SOL     OW17667   1.146   9.738   4.154  0.3494  0.3922 -0.1043
 5300SOL    HW117668   1.177   9.772   4.070  0.7917  0.5228  0.1115
 5300SOL    HW217669   1.079   9.674   4.130  1.9121 -1.1262 -0.6534
 5301SOL     OW17670   4.980   2.479   5.894  0.1909 -0.4191  0.1414
 5301SOL    HW117671   4.959   2.403   5.949 -0.7636 -0.2784 -0.0132
 5301SOL    HW217672   5.003   2.442   5.809  2.1398 -0.6715  0.7160
 5302SOL     OW17673   7.563   9.632   7.029  0.0106  0.1946 -0.5081
 5302SOL    HW117674   7.653   9.650   7.059  0.6013 -3.1549  0.0775
 5302SOL    HW217675   7.543   9.546   7.066 -2.9878  0.2802 -1.7385
 5303SOL     OW17676   5.242   8.329   2.732  0.2229 -0.2243  0.1247
 5303SOL    HW117677   5.288   8.252   2.765  0.3839 -2.0133 -3.7116
 5303SOL    HW217678   5.149   8.307   2.740  0.2246 -0.0703  0.5832
 5304SOL     OW17679   2.184   4.006   6.054 -0.1068  0.2243  0.0948
 5304SOL    HW117680   2.248   4.076   6.039  0.6425 -0.7470 -1.5112
 5304SOL    HW217681   2.105   4.052   6.082  0.6391  1.6337  0.0148
 5305SOL     OW17682   3.368   5.386   6.478  0.0291 -0.4889 -0.2202
 5305SOL    HW117683   3.346   5.349   6.392  0.9790 -0.1521 -0.6236
 5305SOL    HW217684   3.454   5.426   6.465 -0.4526  0.8459  0.5028
 5306SOL     OW17685   5.769   2.023   8.447 -0.3625 -0.1390  0.0510
 5306SOL    HW117686   5.708   2.012   8.375 -0.1757 -0.5258 -0.0560
 5306SOL    HW217687   5.842   2.072   8.410  1.3589 -3.2189 -1.0474
 5307SOL     OW17688   1.840   5.886   2.516 -0.5486 -0.5370 -0.0102
 5307SOL    HW117689   1.906   5.882   2.585 -1.9268  0.3117  1.4255
 5307SOL    HW217690   1.889   5.911   2.438  1.0407 -1.4282  0.6465
 5308SOL     OW17691   4.137   3.671   5.798 -0.1565 -0.1608 -0.0217
 5308SOL    HW117692   4.048   3.656   5.832  0.0791 -0.8814  0.3002
 5308SOL    HW217693   4.195   3.644   5.869  0.3684 -2.6064 -1.2705
 5309SOL     OW17694   9.699   6.897   4.725  0.0690  0.5308  0.1245
 5309SOL    HW117695   9.741   6.959   4.785 -0.6559  1.6330 -0.4666
 5309SOL    HW217696   9.701   6.942   4.640 -0.9391 -0.0306 -0.2074
 5310SOL     OW17697   2.204   2.195   6.364 -0.1880  0.6192 -0.6510
 5310SOL    HW117698   2.190   2.132   6.435  1.2912 -0.6254 -1.4029
 5310SOL    HW217699   2.122   2.192   6.313 -0.0276 -1.0451 -0.8931
 5311SOL     OW17700   3.586   9.160   6.478 -0.0005  0.1208  0.3933
 5311SOL    HW117701   3.607   9.252   6.459 -0.3269 -0.1012 -1.2212
 5311SOL    HW217702   3.655   9.111   6.434 -1.0970 -0.4607 -0.7231
 5312SOL     OW17703   4.107   5.792   3.929  0.3744 -0.0710  0.3135
 5312SOL    HW117704   4.047   5.723   3.901  1.3657 -0.4603 -0.9110
 5312SOL    HW217705   4.089   5.801   4.023 -0.9233 -0.8302  0.1726
 5313SOL     OW17706   4.883   5.500   5.097 -0.4216 -0.2048 -0.4997
 5313SOL    HW117707   4.850   5.446   5.025  0.8881  0.2214 -1.4580
 5313SOL    HW217708   4.874   5.445   5.175  1.5522 -2.1361 -1.5340
 5314SOL     OW17709   7.782   1.303   0.821  0.5425  0.6242 -0.5277
 5314SOL    HW117710   7.716   1.257   0.872 -0.4447  0.4682 -1.8913
 5314SOL    HW217711   7.865   1.283   0.865 -0.1093 -0.6539  0.1763
 5315SOL     OW17712   0.363   6.994   0.418 -0.9328 -0.6998  0.1255
 5315SOL    HW117713   0.443   6.957   0.455 -0.3216  1.3890  1.0650
 5315SOL    HW217714   0.393   7.062   0.359 -1.9988  0.3525  0.7579
 5316SOL     OW17715   4.699   0.222   9.693  0.1683  0.3152  0.5052
 5316SOL    HW117716   4.692   0.197   9.601  0.1849 -0.6265  0.7514
 5316SOL    HW217717   4.678   0.316   9.693 -0.8065  0.1226 -0.3342
 5317SOL     OW17718   0.982   0.515   7.468  0.0760  0.0518  0.0526
 5317SOL    HW117719   0.901   0.566   7.472 -0.0903 -0.1166 -0.9470
 5317SOL    HW217720   0.997   0.486   7.558 -1.1855 -0.2388  0.1842
 5318SOL     OW17721   6.222   4.131   5.353  0.6547  0.0010  0.0054
 5318SOL    HW117722   6.189   4.045   5.380 -0.3827  0.6614  0.9243
 5318SOL    HW217723   6.228   4.181   5.435 -0.0352  1.2310 -0.6641
 5319SOL     OW17724   0.809   7.846   7.858  0.8439 -0.6424  0.4725
 5319SOL    HW117725   0.861   7.920   7.826 -0.2984 -0.3074 -0.7289
 5319SOL    HW217726   0.721   7.863   7.823 -0.4239 -0.5412  3.4068
 5320SOL     OW17727   7.689   5.772   9.031  0.0123  0.0688 -0.3017
 5320SOL    HW117728   7.670   5.823   8.953 -1.7272  0.4300  0.3319
 5320SOL    HW217729   7.785   5.768   9.033  0.1109  0.4032 -2.1997
 5321SOL     OW17730   9.119   8.473   2.758  0.1433 -0.3493 -0.6643
 5321SOL    HW117731   9.157   8.406   2.815 -0.7394 -0.1258  0.2018
 5321SOL    HW217732   9.147   8.556   2.796  0.2784 -0.2076 -1.0696
 5322SOL     OW17733   4.256   0.273   1.617  0.3067  0.4862 -0.2190
 5322SOL    HW117734   4.177   0.219   1.624 -0.5107  1.5441 -1.0495
 5322SOL    HW217735   4.273   0.302   1.707 -0.1294  0.0938 -0.0036
 5323SOL     OW17736   7.528   4.168   7.881  0.2541  0.4880 -0.0813
 5323SOL    HW117737   7.519   4.149   7.975 -1.7290 -2.1396 -0.6832
 5323SOL    HW217738   7.594   4.105   7.850 -1.2252 -0.7213 -0.9030
 5324SOL     OW17739   3.072   2.984   4.004 -0.1507  0.1244  0.2472
 5324SOL    HW117740   3.038   2.894   4.005  0.0090  0.0686  1.2625
 5324SOL    HW217741   3.010   3.033   4.057 -0.3635  0.6746 -0.4931
 5325SOL     OW17742   8.851   8.232   3.385 -0.2723 -0.3483  0.2555
 5325SOL    HW117743   8.897   8.281   3.317 -1.1095 -1.1483 -0.9204
 5325SOL    HW217744   8.851   8.142   3.354 -1.1048 -0.6509  1.0751
 5326SOL     OW17745   5.305   3.166   0.953  0.0277  0.1063 -0.2767
 5326SOL    HW117746   5.222   3.120   0.944 -0.6969  1.1279  0.8210
 5326SOL    HW217747   5.371   3.104   0.923 -1.1067 -0.8293 -0.8833
 5327SOL     OW17748   7.771   5.564   4.741  0.4804  0.1610 -0.2339
 5327SOL    HW117749   7.843   5.526   4.689  0.3265  0.3892 -0.6242
 5327SOL    HW217750   7.738   5.635   4.686  0.4161  0.5090  0.2526
 5328SOL     OW17751   3.943   1.040   8.556  0.1026  0.6577  0.4528
 5328SOL    HW117752   4.001   1.114   8.576  0.4043  0.2381  1.1739
 5328SOL    HW217753   3.922   1.050   8.463  2.0537  0.3283 -0.0714
 5329SOL     OW17754   6.838   5.966   8.305 -0.2184  0.6865 -0.4644
 5329SOL    HW117755   6.828   5.966   8.400  1.3988  1.6985 -0.2591
 5329SOL    HW217756   6.757   6.007   8.273 -1.0706 -0.2586  0.3987
 5330SOL     OW17757   7.889   0.897   4.594  0.6741  0.1196  0.8070
 5330SOL    HW117758   7.894   0.836   4.519  2.8513  0.5711  0.5195
 5330SOL    HW217759   7.818   0.862   4.648 -0.5374 -0.5904 -1.1388
 5331SOL     OW17760   3.721   4.265   4.257  0.0588  0.3398  0.5417
 5331SOL    HW117761   3.793   4.229   4.206 -0.9271  0.0748 -0.7092
 5331SOL    HW217762   3.646   4.264   4.198 -0.6892  1.7904  1.3936
 5332SOL     OW17763   3.957   5.500   8.402  0.1483 -0.1389 -0.6838
 5332SOL    HW117764   3.986   5.410   8.392 -1.9413 -0.6076 -3.8714
 5332SOL    HW217765   4.038   5.551   8.403  1.5814 -1.9775  3.7403
 5333SOL     OW17766   6.890   5.799   5.229 -0.0664 -0.0121 -0.1106
 5333SOL    HW117767   6.916   5.743   5.302  0.1618 -1.4341 -1.2361
 5333SOL    HW217768   6.958   5.867   5.226  0.8784 -0.9301 -0.0555
 5334SOL     OW17769   6.818   6.300   8.727 -0.4499 -0.4920  0.2012
 5334SOL    HW117770   6.788   6.384   8.762  0.4409 -0.3389  0.6221
 5334SOL    HW217771   6.773   6.235   8.780  0.5335 -0.2645  1.3694
 5335SOL     OW17772   5.927   6.220   5.947 -0.6006 -0.2720 -0.2636
 5335SOL    HW117773   5.836   6.213   5.917 -0.9601 -0.1716  0.7885
 5335SOL    HW217774   5.921   6.227   6.042  0.5990 -1.8415 -0.0385
 5336SOL     OW17775   4.501   4.491   3.849 -0.6339 -0.1811 -0.2136
 5336SOL    HW117776   4.487   4.398   3.864  0.8669 -0.5331 -0.7802
 5336SOL    HW217777   4.505   4.529   3.938 -1.0722 -0.6847  0.0221
 5337SOL     OW17778   1.196   5.066   4.155 -0.1026 -0.0526  0.1049
 5337SOL    HW117779   1.150   5.149   4.144  0.5867  0.3822  0.4214
 5337SOL    HW217780   1.180   5.042   4.247 -1.1466 -0.8000 -0.2528
 5338SOL     OW17781   3.826   5.059   9.099  0.5615  0.0597 -0.0935
 5338SOL    HW117782   3.798   5.150   9.111 -0.3000 -0.1855 -0.1538
 5338SOL    HW217783   3.747   5.007   9.117  0.4552 -0.5641 -2.1557
 5339SOL     OW17784   7.568   7.408   9.412 -0.1491  0.5127 -0.3118
 5339SOL    HW117785   7.490   7.449   9.373 -1.9053 -0.0726  2.3114
 5339SOL    HW217786   7.540   7.382   9.500  2.8153 -0.4852  0.4550
 5340SOL     OW17787   2.066   4.673   3.990  0.5616  0.1326 -0.7137
 5340SOL    HW117788   2.003   4.602   3.999 -1.0366  1.6282  0.5870
 5340SOL    HW217789   2.150   4.634   4.015 -0.4875 -0.9795  1.2842
 5341SOL     OW17790   3.474   9.102   3.568  0.4826  0.4401 -0.6912
 5341SOL    HW117791   3.533   9.171   3.539  0.3983  0.4907 -0.7433
 5341SOL    HW217792   3.479   9.104   3.663  0.0465  0.9010 -0.6713
 5342SOL     OW17793   2.513   3.612   6.218  0.1094 -0.5284 -0.2215
 5342SOL    HW117794   2.421   3.587   6.214 -0.0955 -0.5283  2.8333
 5342SOL    HW217795   2.519   3.692   6.166 -1.7290 -0.1903  0.0497
 5343SOL     OW17796   7.883   6.800   5.075 -0.0387  0.0288  0.1655
 5343SOL    HW117797   7.831   6.868   5.118 -0.3000 -0.9926  1.5037
 5343SOL    HW217798   7.959   6.848   5.040  0.5115  0.8471  2.2969
 5344SOL     OW17799   9.428   0.561   4.181 -0.5054 -0.4049  0.1032
 5344SOL    HW117800   9.452   0.489   4.239  0.0806 -1.3537 -1.2510
 5344SOL    HW217801   9.511   0.594   4.147 -0.8655 -0.7025 -1.1269
 5345SOL     OW17802   8.244   4.481   6.692  0.4494 -0.6083  0.7153
 5345SOL    HW117803   8.319   4.539   6.692  0.6324 -0.8410  0.5455
 5345SOL    HW217804   8.185   4.517   6.758  0.7493 -0.4756  0.9114
 5346SOL     OW17805   4.362   6.415   8.438 -0.4600  0.2094  0.5772
 5346SOL    HW117806   4.296   6.441   8.373  0.9646 -1.2673 -1.5987
 5346SOL    HW217807   4.404   6.339   8.400  2.2558  0.8375  2.0595
 5347SOL     OW17808   2.968   0.843   8.647 -0.2034 -0.6477 -0.5996
 5347SOL    HW117809   2.961   0.804   8.559  1.8304 -0.9367 -0.6746
 5347SOL    HW217810   2.989   0.935   8.631 -1.6524 -0.2450 -0.3859
 5348SOL     OW17811   0.797   8.875   8.270  0.0272 -0.6933 -0.3016
 5348SOL    HW117812   0.869   8.931   8.241 -0.0280 -0.1273  0.6326
 5348SOL    HW217813   0.794   8.805   8.204  1.0059 -0.3746 -0.7115
 5349SOL     OW17814   4.108   2.388   8.315 -0.8596 -0.2891 -0.0308
 5349SOL    HW117815   4.102   2.437   8.233 -1.3872 -0.4462 -0.0936
 5349SOL    HW217816   4.019   2.392   8.351 -1.2690 -2.3202 -0.6911
 5350SOL     OW17817   2.733   3.405   9.722 -0.0827 -0.7506 -0.1863
 5350SOL    HW117818   2.810   3.347   9.723  0.5146  0.0032  1.3832
 5350SOL    HW217819   2.679   3.374   9.795 -0.1614  0.1373  0.1371
 5351SOL     OW17820   5.959   2.570   6.826 -0.4441 -0.8103  0.0613
 5351SOL    HW117821   6.035   2.513   6.818  0.2183  0.0010  0.3970
 5351SOL    HW217822   5.884   2.515   6.803 -0.4006 -3.1646  4.5153
 5352SOL     OW17823   0.331   2.062   5.112  0.1344  0.0326  0.3764
 5352SOL    HW117824   0.281   2.081   5.033  0.8862  1.4669  0.2093
 5352SOL    HW217825   0.417   2.035   5.079 -0.2723 -1.7359  0.6736
 5353SOL     OW17826   6.220   6.763   0.155 -0.0291 -0.0956 -0.0212
 5353SOL    HW117827   6.244   6.670   0.151 -1.0712 -0.6285  3.2212
 5353SOL    HW217828   6.262   6.795   0.234 -0.8763  1.8459 -0.3024
 5354SOL     OW17829   9.303   8.966   2.586  0.3786 -0.3362 -0.4136
 5354SOL    HW117830   9.253   8.978   2.666  0.6624  3.1063 -0.5849
 5354SOL    HW217831   9.245   8.916   2.528 -0.5986 -1.1893  1.2254
 5355SOL     OW17832   9.812   1.262   8.219  0.3143  0.3049  0.1776
 5355SOL    HW117833   9.764   1.250   8.137  0.5492  1.2491 -0.1159
 5355SOL    HW217834   9.776   1.196   8.279  0.0438 -0.3007 -0.6391
 5356SOL     OW17835   4.288   2.255   6.814 -0.2570  0.6302  0.3685
 5356SOL    HW117836   4.210   2.284   6.765 -0.7386 -0.7095  0.2920
 5356SOL    HW217837   4.351   2.230   6.746 -0.5156 -0.1744  0.4092
 5357SOL     OW17838   2.351   5.736   6.615  0.3844  0.1722 -0.0711
 5357SOL    HW117839   2.262   5.700   6.617  0.1188  0.6806  3.0231
 5357SOL    HW217840   2.400   5.681   6.676  2.1318  0.1399 -1.4435
 5358SOL     OW17841   3.276   8.788   6.887  0.1000 -0.1364  0.0992
 5358SOL    HW117842   3.326   8.717   6.928  1.6751  0.9760  0.2108
 5358SOL    HW217843   3.329   8.866   6.901 -0.6949  0.7744 -1.5757
 5359SOL     OW17844   9.453   0.350   6.835 -0.4065 -0.4110  0.3004
 5359SOL    HW117845   9.396   0.350   6.758  1.2975  0.3651 -1.0413
 5359SOL    HW217846   9.397   0.381   6.907 -1.9844 -0.9352 -0.6488
 5360SOL     OW17847   3.061   7.743   0.535 -0.4183 -0.1199 -0.0221
 5360SOL    HW117848   3.147   7.782   0.523 -0.7252  0.6998  0.3369
 5360SOL    HW217849   3.075   7.649   0.527  0.2236  0.0940 -1.6224
 5361SOL     OW17850   8.306   8.809   4.097 -0.6947  0.3487  0.2239
 5361SOL    HW117851   8.228   8.756   4.110 -0.6909  0.1874 -0.3703
 5361SOL    HW217852   8.277   8.882   4.042 -0.6597  0.8761  0.8862
 5362SOL     OW17853   3.610   3.194   7.104  0.1457  0.2362  0.2026
 5362SOL    HW117854   3.629   3.239   7.187  2.9932 -1.0149  0.3402
 5362SOL    HW217855   3.570   3.261   7.049 -0.6433  1.4474  2.1357
 5363SOL     OW17856   4.732   3.451   2.266  0.8290  0.0159 -0.3190
 5363SOL    HW117857   4.731   3.546   2.275  0.1134 -0.1588  1.9755
 5363SOL    HW217858   4.691   3.435   2.180 -0.7912  1.7209  0.0715
 5364SOL     OW17859   1.087   1.190   1.371 -0.0976  0.2441 -0.1099
 5364SOL    HW117860   1.078   1.126   1.301  0.1027  0.1802 -0.0759
 5364SOL    HW217861   1.093   1.274   1.325 -1.3801  0.3450 -0.1214
 5365SOL     OW17862   5.139   6.131   1.817 -0.3418  0.1379  0.3481
 5365SOL    HW117863   5.131   6.105   1.908 -0.3275 -0.2199  0.2463
 5365SOL    HW217864   5.207   6.073   1.781  1.4092  1.8423  0.7203
 5366SOL     OW17865   8.274   4.201   7.968 -0.4603 -0.6220  1.0971
 5366SOL    HW117866   8.291   4.107   7.964  0.6895 -0.4251  0.8651
 5366SOL    HW217867   8.274   4.222   8.061  2.1052 -0.4128  1.1098
 5367SOL     OW17868   4.933   9.071   5.182  0.4170  0.2111  0.0059
 5367SOL    HW117869   4.944   9.008   5.111 -0.0381  0.1537 -0.0229
 5367SOL    HW217870   4.977   9.150   5.152  1.8096 -0.3684  0.4321
 5368SOL     OW17871   6.159   5.334   4.472 -0.8376 -0.1540  0.2282
 5368SOL    HW117872   6.233   5.337   4.533 -0.0626 -2.0044 -0.5467
 5368SOL    HW217873   6.187   5.389   4.399  0.4416 -1.9279 -0.6935
 5369SOL     OW17874   4.361   1.638   0.893  0.3325  0.1013 -0.0084
 5369SOL    HW117875   4.323   1.646   0.980  1.5160  0.7451  0.4684
 5369SOL    HW217876   4.367   1.543   0.879  1.1571 -0.0276  1.0824
 5370SOL     OW17877   8.617   6.073   5.507  0.5003  0.2140  0.0528
 5370SOL    HW117878   8.695   6.063   5.562  0.7257 -2.0209 -0.5575
 5370SOL    HW217879   8.650   6.111   5.425  1.2152 -1.7404 -0.6210
 5371SOL     OW17880   9.343   3.605   7.272  0.0982 -0.3138 -0.2192
 5371SOL    HW117881   9.375   3.554   7.197 -2.2380 -2.2664 -0.0092
 5371SOL    HW217882   9.253   3.629   7.249 -1.0783 -1.8894  2.2948
 5372SOL     OW17883   7.959   7.728   3.066  0.4108  0.0777  0.1903
 5372SOL    HW117884   7.950   7.757   2.975  3.1205  0.3515 -0.0612
 5372SOL    HW217885   7.952   7.633   3.062  0.2203  0.1089 -0.2545
 5373SOL     OW17886   4.965   9.079   0.637 -0.5515  0.3748  0.4842
 5373SOL    HW117887   4.934   9.009   0.695 -0.2489 -1.1866 -1.1383
 5373SOL    HW217888   5.056   9.091   0.661 -1.0922  1.6091  2.0584
 5374SOL     OW17889   5.077   1.608   7.474 -0.0994 -0.0588 -0.3998
 5374SOL    HW117890   5.154   1.551   7.469  1.1807  1.6448 -1.0682
 5374SOL    HW217891   5.059   1.614   7.568  0.5843 -0.4879 -0.2324
 5375SOL     OW17892   8.403   3.984   7.617  0.0735  0.0698 -0.0889
 5375SOL    HW117893   8.319   3.937   7.620 -0.6479  1.1919 -1.4651
 5375SOL    HW217894   8.386   4.059   7.560  1.8478  0.6893  0.1502
 5376SOL     OW17895   4.101   7.654   5.436 -0.2773 -0.1368 -0.1176
 5376SOL    HW117896   4.063   7.663   5.523 -0.2906 -0.7274 -0.0601
 5376SOL    HW217897   4.118   7.561   5.426 -1.1075 -0.2030 -1.0957
 5377SOL     OW17898   8.157   3.455   6.914 -0.0384 -0.0308  0.4527
 5377SOL    HW117899   8.116   3.530   6.871 -2.0102 -2.6882 -2.8937
 5377SOL    HW217900   8.251   3.470   6.904 -0.3233  2.2735  0.6082
 5378SOL     OW17901   1.603   3.701   4.576  0.0777 -0.2204 -0.3131
 5378SOL    HW117902   1.559   3.770   4.526  0.9532  0.8386  0.3359
 5378SOL    HW217903   1.692   3.699   4.540  0.8321  0.7941  1.3462
 5379SOL     OW17904   0.431   6.575   3.525 -0.2935  0.0830  0.1342
 5379SOL    HW117905   0.465   6.664   3.517 -0.4060  0.1134 -0.0192
 5379SOL    HW217906   0.489   6.532   3.587 -0.4377  0.3620  0.4639
 5380SOL     OW17907   8.651   8.760   9.354 -0.1669 -0.1391 -0.0984
 5380SOL    HW117908   8.561   8.743   9.324 -0.2875  1.3190 -0.6644
 5380SOL    HW217909   8.640   8.799   9.441 -0.1049  0.1537 -0.2189
 5381SOL     OW17910   8.086   2.441   4.835 -0.6000 -0.1807  0.1034
 5381SOL    HW117911   8.007   2.395   4.862  0.4073 -2.9159 -1.2877
 5381SOL    HW217912   8.111   2.401   4.752  2.0133  0.8938  0.2564
 5382SOL     OW17913   4.880   2.680   5.089 -0.1849 -0.7696  0.2007
 5382SOL    HW117914   4.933   2.614   5.045 -0.0009 -0.6138  0.1870
 5382SOL    HW217915   4.941   2.724   5.148 -0.5600 -1.3856  1.0657
 5383SOL     OW17916   2.191   0.674   9.698 -0.5650 -0.2795 -0.3038
 5383SOL    HW117917   2.250   0.610   9.657 -0.2087  0.4313 -0.9192
 5383SOL    HW217918   2.177   0.740   9.630  0.0656  0.9476  0.7211
 5384SOL     OW17919   7.097   9.630   2.708 -0.7065  0.2198 -0.7950
 5384SOL    HW117920   7.080   9.590   2.794 -0.2526  2.0734  0.2165
 5384SOL    HW217921   7.015   9.674   2.686 -0.5474  0.4723 -0.8837
 5385SOL     OW17922   3.355   8.364   0.986 -0.0245 -0.0379  0.1556
 5385SOL    HW117923   3.295   8.429   1.023 -0.2812 -0.6657  0.8518
 5385SOL    HW217924   3.380   8.309   1.059 -0.3594 -1.1577 -0.5499
 5386SOL     OW17925   5.268   2.596   4.069  0.5891 -0.1144 -0.4467
 5386SOL    HW117926   5.314   2.598   4.153 -0.3031 -0.6617  0.0775
 5386SOL    HW217927   5.231   2.684   4.061  0.3944 -0.1613 -0.0948
 5387SOL     OW17928   6.076   9.298   6.232  0.0777  0.0562 -0.3499
 5387SOL    HW117929   5.981   9.310   6.238 -0.1186 -1.6199  0.5494
 5387SOL    HW217930   6.111   9.350   6.305 -0.2626 -0.3567  0.1110
 5388SOL     OW17931   2.821   5.596   3.734 -0.3286 -0.5599 -0.3912
 5388SOL    HW117932   2.845   5.689   3.739  2.5262 -1.2685  1.9369
 5388SOL    HW217933   2.832   5.573   3.642  1.9342  0.7740 -0.5418
 5389SOL     OW17934   5.784   9.465   3.513 -0.0827 -0.0894 -0.0152
 5389SOL    HW117935   5.716   9.481   3.579  1.0207 -0.3152  1.2313
 5389SOL    HW217936   5.782   9.370   3.500 -1.5707  0.1308 -1.7794
 5390SOL     OW17937   4.200   6.370   3.550 -0.8532 -0.4041 -0.3091
 5390SOL    HW117938   4.151   6.412   3.621 -1.4251  0.4171 -1.1778
 5390SOL    HW217939   4.235   6.442   3.498  3.2737 -0.8091  1.4699
 5391SOL     OW17940   8.971   9.718   6.256  0.6040  0.2615 -0.0365
 5391SOL    HW117941   8.876   9.714   6.253  0.5889 -0.9352  1.2292
 5391SOL    HW217942   8.994   9.792   6.200 -0.9903 -0.1959 -1.3434
 5392SOL     OW17943   1.842   2.450   3.340 -0.6641 -0.4508 -0.0331
 5392SOL    HW117944   1.808   2.402   3.265 -0.2800 -0.4440 -0.2139
 5392SOL    HW217945   1.823   2.393   3.415 -1.9529 -0.0047 -0.0001
 5393SOL     OW17946   8.830   0.271   1.458 -0.6987  0.3411 -0.0892
 5393SOL    HW117947   8.760   0.306   1.403 -0.3177  0.1686 -0.6946
 5393SOL    HW217948   8.789   0.257   1.544 -1.4004  0.2370 -0.4361
 5394SOL     OW17949   2.852   2.741   4.998  0.3902 -0.2262 -0.4212
 5394SOL    HW117950   2.838   2.739   4.903  1.3211  0.2484 -0.5864
 5394SOL    HW217951   2.802   2.667   5.032 -1.1504  0.4457 -1.1101
 5395SOL     OW17952   9.688   5.683   7.600  0.4172 -0.0707 -0.0988
 5395SOL    HW117953   9.764   5.646   7.556 -0.0059  0.3384 -1.2083
 5395SOL    HW217954   9.706   5.777   7.603  1.4378 -0.2591  2.5988
 5396SOL     OW17955   5.685   8.652   4.170 -0.5993  0.4797  0.1408
 5396SOL    HW117956   5.738   8.681   4.244 -0.1160  0.2322 -0.1029
 5396SOL    HW217957   5.636   8.576   4.204 -0.6847  0.6129  0.3201
 5397SOL     OW17958   9.565   4.965   7.583  0.0813  0.5185 -0.0910
 5397SOL    HW117959   9.544   5.052   7.550 -1.1918 -0.2697 -1.5213
 5397SOL    HW217960   9.503   4.950   7.654 -0.0966  0.5503 -0.2401
 5398SOL     OW17961   5.882   9.149   7.270  0.2101 -0.0881 -0.0559
 5398SOL    HW117962   5.817   9.203   7.313  0.7339 -0.1107  0.8066
 5398SOL    HW217963   5.966   9.180   7.305  0.7183  0.3240 -1.5599
 5399SOL     OW17964   2.901   4.064   9.057  0.3465 -0.1815  0.2644
 5399SOL    HW117965   2.824   4.010   9.072  1.2537 -1.5145  0.3407
 5399SOL    HW217966   2.877   4.121   8.984 -1.2256  0.5589  1.2810
 5400SOL     OW17967   9.662   7.747   1.525 -0.6129 -0.6234 -0.7134
 5400SOL    HW117968   9.640   7.799   1.602 -0.9040 -3.0560  0.9559
 5400SOL    HW217969   9.578   7.711   1.496 -0.2105 -1.4939 -0.8062
 5401SOL     OW17970   8.224   6.586   3.761 -0.5622  0.0164 -0.1837
 5401SOL    HW117971   8.216   6.492   3.778 -0.4288  0.0510  0.0697
 5401SOL    HW217972   8.136   6.614   3.737 -0.8394  0.0381  0.8079
 5402SOL     OW17973   2.575   8.791   0.235 -0.7987 -0.2627  0.9732
 5402SOL    HW117974   2.557   8.850   0.162 -2.0721  0.4806  1.8473
 5402SOL    HW217975   2.637   8.839   0.290  1.5212 -1.4951 -0.3785
 5403SOL     OW17976   4.197   3.333   7.522  0.5921 -0.2711 -0.3271
 5403SOL    HW117977   4.275   3.368   7.565  0.5541 -1.2869  0.6068
 5403SOL    HW217978   4.203   3.366   7.432  2.5608 -1.0184 -0.5328
 5404SOL     OW17979   4.090   9.735   4.784 -0.0579 -0.3712  0.2585
 5404SOL    HW117980   4.040   9.661   4.750  1.9580 -2.3769  1.3421
 5404SOL    HW217981   4.092   9.798   4.712 -1.6729 -1.4504 -0.7860
 5405SOL     OW17982   6.393   5.824   3.696 -0.5999 -0.2993 -0.1566
 5405SOL    HW117983   6.481   5.825   3.735  0.1968  0.1821 -1.8690
 5405SOL    HW217984   6.387   5.739   3.653 -1.0637 -0.4109  0.1248
 5406SOL     OW17985   1.039   0.879   1.433  0.3363  0.3015 -0.2606
 5406SOL    HW117986   1.066   0.918   1.349  0.7578 -2.1709 -1.3465
 5406SOL    HW217987   1.114   0.895   1.491  0.4684  1.1406 -0.6400
 5407SOL     OW17988   3.998   1.706   2.601 -0.2551 -0.0241  0.5180
 5407SOL    HW117989   4.079   1.746   2.632  0.8718 -0.5243 -1.5766
 5407SOL    HW217990   3.938   1.779   2.590  0.2690  0.4989  1.0989
 5408SOL     OW17991   2.754   6.150   4.017  0.2787  0.1717 -0.6510
 5408SOL    HW117992   2.705   6.107   4.087  0.0332  0.9654 -0.3201
 5408SOL    HW217993   2.694   6.215   3.981  0.5259  0.0135 -1.3651
 5409SOL     OW17994   8.909   1.147   4.509  0.0009  0.2518 -0.1047
 5409SOL    HW117995   8.853   1.091   4.561  0.6845  0.1008  0.4814
 5409SOL    HW217996   8.853   1.176   4.437 -0.9653  0.4874  0.7155
 5410SOL     OW17997   4.332   0.264   3.689 -0.2116  0.1131  0.2750
 5410SOL    HW117998   4.240   0.265   3.663 -0.2442 -0.2726  0.3637
 5410SOL    HW217999   4.330   0.263   3.784 -0.1128  0.3397  0.2787
 5411SOL     OW18000   0.698   3.743   0.214 -0.0657  0.3668 -0.2947
 5411SOL    HW118001   0.731   3.698   0.292  0.5727  0.4102 -0.5306
 5411SOL    HW218002   0.776   3.761   0.162 -0.1280  2.8898  0.3727
 5412SOL     OW18003   0.988   1.315   5.174  0.3942  0.2588  0.1081
 5412SOL    HW118004   0.950   1.396   5.139  0.2702 -0.6249 -1.9094
 5412SOL    HW218005   0.924   1.247   5.153  1.8438 -0.8256 -0.9390
 5413SOL     OW18006   4.764   8.582   0.195  0.2826 -0.1281  0.1115
 5413SOL    HW118007   4.783   8.552   0.284 -0.8241 -1.0915  0.0488
 5413SOL    HW218008   4.798   8.514   0.138  0.8428  0.4100 -0.2067
 5414SOL     OW18009   3.542   8.424   8.976 -0.2234 -0.0574  0.3554
 5414SOL    HW118010   3.562   8.513   9.005 -2.5044  0.4115  0.6422
 5414SOL    HW218011   3.521   8.433   8.883 -2.5556  0.1180  0.8488
 5415SOL     OW18012   7.634   5.424   2.208 -0.1659  0.4585 -0.1718
 5415SOL    HW118013   7.655   5.353   2.269 -1.7976 -1.1591 -1.3772
 5415SOL    HW218014   7.711   5.433   2.153  0.2342 -0.0712  0.2953
 5416SOL     OW18015   1.561   9.416   0.773 -0.2395 -1.1756  0.5949
 5416SOL    HW118016   1.542   9.388   0.684 -0.5156  0.9844 -0.1045
 5416SOL    HW218017   1.515   9.500   0.782 -0.5230 -1.5170  2.9088
 5417SOL     OW18018   1.086   6.911   0.295 -0.1920  0.5091  0.1263
 5417SOL    HW118019   1.039   6.831   0.318 -1.0409  0.9465 -0.0856
 5417SOL    HW218020   1.021   6.966   0.252  0.0539  1.8627  1.4289
 5418SOL     OW18021   8.309   3.165   6.890 -0.2523  0.1517  0.0611
 5418SOL    HW118022   8.312   3.109   6.968  1.4092 -1.1022 -0.8536
 5418SOL    HW218023   8.223   3.147   6.852 -0.6039 -0.1320  0.9573
 5419SOL     OW18024   5.708   0.326   7.506  0.0943  0.0369  0.4437
 5419SOL    HW118025   5.712   0.422   7.507 -1.2000  0.1019  0.7733
 5419SOL    HW218026   5.635   0.305   7.449 -0.3915 -0.7216  1.3219
 5420SOL     OW18027   2.895   9.535   2.619 -0.0313 -0.0028  0.3096
 5420SOL    HW118028   2.912   9.466   2.682 -0.8559 -0.7433 -0.2593
 5420SOL    HW218029   2.802   9.529   2.600 -0.0371  0.9905 -0.0739
 5421SOL     OW18030   6.559   4.615   0.064 -0.3770  0.1109  0.0739
 5421SOL    HW118031   6.529   4.626   0.155 -1.6790 -0.6924 -0.2277
 5421SOL    HW218032   6.602   4.530   0.064 -0.7683 -0.0869 -0.1575
 5422SOL     OW18033   1.042   3.313   1.625 -0.2316 -0.1685 -0.4755
 5422SOL    HW118034   1.098   3.314   1.702 -0.0824  0.8130 -0.5825
 5422SOL    HW218035   0.953   3.321   1.659 -0.3240 -1.6209 -0.3119
 5423SOL     OW18036   2.899   3.433   5.476  0.1614  0.2921 -0.2628
 5423SOL    HW118037   2.979   3.418   5.425  0.5650 -1.6140  0.8503
 5423SOL    HW218038   2.925   3.496   5.543  0.5323  0.2356 -0.3507
 5424SOL     OW18039   9.148   9.072   3.277 -0.3779  0.4539 -0.6520
 5424SOL    HW118040   9.075   9.056   3.337 -1.0866  1.4851 -1.2205
 5424SOL    HW218041   9.219   9.102   3.334 -0.2677 -0.8168 -0.0637
 5425SOL     OW18042   7.045   5.515   4.074  0.1414 -0.5600  0.2626
 5425SOL    HW118043   7.077   5.438   4.121 -0.5963 -1.2876 -0.3772
 5425SOL    HW218044   6.950   5.505   4.073 -0.1211  1.2326  1.5898
 5426SOL     OW18045   1.361   4.759   2.939 -0.0584 -0.3703 -0.2837
 5426SOL    HW118046   1.440   4.806   2.967  1.3201 -2.4726 -0.3833
 5426SOL    HW218047   1.289   4.806   2.980  0.8850  3.3555 -2.3967
 5427SOL     OW18048   3.147   0.111   7.259 -0.2058 -0.1695  0.5724
 5427SOL    HW118049   3.058   0.145   7.262  0.0208  0.5202 -0.2211
 5427SOL    HW218050   3.169   0.111   7.166  0.8573  0.2827  0.8115
 5428SOL     OW18051   9.611   3.008   2.985  0.0626 -0.1135  0.2159
 5428SOL    HW118052   9.596   2.954   2.907 -3.0081 -0.8615  1.2112
 5428SOL    HW218053   9.593   3.097   2.956  1.8552  0.0460 -0.5850
 5429SOL     OW18054   5.143   8.835   9.409 -0.1249  0.2521  0.1800
 5429SOL    HW118055   5.115   8.759   9.460 -0.5624  0.5992  0.4677
 5429SOL    HW218056   5.209   8.878   9.464  0.6279 -0.2823 -0.2777
 5430SOL     OW18057   2.198   4.557   8.304  0.1287  0.4208  0.1467
 5430SOL    HW118058   2.114   4.579   8.344 -0.9445 -2.2298 -0.4545
 5430SOL    HW218059   2.181   4.476   8.255  2.5759  0.8620 -1.6105
 5431SOL     OW18060   4.838   4.442   0.611  0.0550 -0.2496  0.0443
 5431SOL    HW118061   4.766   4.394   0.571  0.3101 -1.3266  0.8354
 5431SOL    HW218062   4.894   4.374   0.649  1.3574  0.5808 -0.3323
 5432SOL     OW18063   2.214   3.798   4.711 -0.3958  0.2523 -0.0877
 5432SOL    HW118064   2.257   3.861   4.769  0.1537  0.5986 -0.8583
 5432SOL    HW218065   2.238   3.712   4.746  1.9025  0.3956 -1.1449
 5433SOL     OW18066   1.692   2.904   0.403 -0.2765 -0.0839 -0.1509
 5433SOL    HW118067   1.772   2.933   0.446 -0.0212 -1.3705  0.2671
 5433SOL    HW218068   1.697   2.942   0.315  0.8669 -0.2908 -0.1881
 5434SOL     OW18069   9.796   7.791   3.511  0.2734  0.3849 -0.1301
 5434SOL    HW118070   9.774   7.707   3.552 -0.1411  0.3072 -0.5126
 5434SOL    HW218071   9.755   7.788   3.425 -0.9481  1.5458  0.3850
 5435SOL     OW18072   3.612   4.447   8.263 -0.0814  0.1478 -0.6423
 5435SOL    HW118073   3.569   4.373   8.220  1.7482 -2.0590  1.0777
 5435SOL    HW218074   3.703   4.442   8.233 -0.4476  3.6003 -2.7940
 5436SOL     OW18075   0.553   9.561   1.849  0.1934  0.0348 -0.3684
 5436SOL    HW118076   0.596   9.631   1.897 -0.7165 -0.2739  0.9698
 5436SOL    HW218077   0.612   9.486   1.858  0.8512  0.4328 -1.2398
 5437SOL     OW18078   0.583   2.964   5.569 -0.6207  0.1240 -0.4118
 5437SOL    HW118079   0.596   2.931   5.658 -0.7533 -1.7632 -1.0652
 5437SOL    HW218080   0.653   2.923   5.518 -1.2859  0.2332 -1.4289
 5438SOL     OW18081   4.997   1.089   3.044  0.3542  0.0283 -0.7048
 5438SOL    HW118082   4.997   1.034   3.123 -1.9655 -2.1088 -2.0422
 5438SOL    HW218083   5.073   1.059   2.994  1.6884  1.2166  0.5163
 5439SOL     OW18084   1.589   6.818   8.059  0.7754  0.3331  0.0479
 5439SOL    HW118085   1.540   6.891   8.098  0.5158 -0.1285  0.5945
 5439SOL    HW218086   1.666   6.808   8.115  0.2316 -0.5530  0.6583
 5440SOL     OW18087   3.673   6.496   4.387 -0.0038  0.7484  0.0973
 5440SOL    HW118088   3.636   6.529   4.305  1.0073 -1.6603 -1.4391
 5440SOL    HW218089   3.624   6.415   4.405  1.4107 -0.0533  0.4974
 5441SOL     OW18090   2.890   8.786   1.110  0.0498  0.0164 -0.4353
 5441SOL    HW118091   2.872   8.716   1.173  1.2049  0.3857  0.3447
 5441SOL    HW218092   2.915   8.741   1.030  2.5743 -0.5658  0.5653
 5442SOL     OW18093   0.670   0.860   8.018  0.4473 -0.1489 -0.1556
 5442SOL    HW118094   0.734   0.882   7.950  0.0915 -0.0884 -0.4789
 5442SOL    HW218095   0.689   0.770   8.041 -1.3482 -1.2477 -2.5408
 5443SOL     OW18096   4.268   0.395   1.855  0.0827 -0.4873  0.5713
 5443SOL    HW118097   4.284   0.489   1.852 -1.2529 -0.2624 -1.0594
 5443SOL    HW218098   4.192   0.385   1.913 -1.4864 -0.2221 -1.3425
 5444SOL     OW18099   6.764   6.780   5.653  0.4309 -0.1153 -0.3092
 5444SOL    HW118100   6.805   6.711   5.705 -0.4043 -1.2742 -1.1552
 5444SOL    HW218101   6.833   6.808   5.592  0.1456 -1.8219 -1.4971
 5445SOL     OW18102   8.160   8.010   2.564 -0.0920  0.3249 -0.3642
 5445SOL    HW118103   8.205   7.992   2.647 -1.2248  0.9438  0.4089
 5445SOL    HW218104   8.165   8.104   2.554 -1.1141  0.3972 -0.3013
 5446SOL     OW18105   6.117   7.680   1.582 -0.2446  0.4881 -0.1721
 5446SOL    HW118106   6.138   7.767   1.548 -1.0771  0.1475 -1.6341
 5446SOL    HW218107   6.168   7.673   1.663 -0.2663  2.3751  0.0438
 5447SOL     OW18108   9.806   2.634   7.022 -0.0984 -0.0540  0.3160
 5447SOL    HW118109   9.837   2.599   6.938  0.6597  0.5866  0.3190
 5447SOL    HW218110   9.719   2.595   7.033  0.9668 -2.5109  0.6538
 5448SOL     OW18111   4.010   9.629   9.798  0.0722 -0.0187  0.1720
 5448SOL    HW118112   3.944   9.571   9.760 -0.2416  0.6473 -0.3104
 5448SOL    HW218113   4.094   9.586   9.779 -0.1248 -0.0516 -0.6562
 5449SOL     OW18114   6.629   2.709   4.963  0.1918  0.0747 -0.1527
 5449SOL    HW118115   6.562   2.687   5.028 -0.1624  1.2521 -0.0982
 5449SOL    HW218116   6.712   2.687   5.007 -0.1297 -1.2563 -0.1703
 5450SOL     OW18117   0.389   2.743   3.640 -0.0220 -0.3824 -0.0042
 5450SOL    HW118118   0.419   2.777   3.725  1.0874  0.1628 -0.6059
 5450SOL    HW218119   0.467   2.741   3.585 -0.9196  0.3191 -1.3626
 5451SOL     OW18120   6.767   6.906   3.191 -0.4743  0.8386 -0.2739
 5451SOL    HW118121   6.842   6.850   3.171 -1.0132  0.6693 -2.0349
 5451SOL    HW218122   6.697   6.846   3.214  0.0103  1.0170  1.8496
 5452SOL     OW18123   7.371   0.226   8.708  0.4362  0.0428  0.0724
 5452SOL    HW118124   7.467   0.216   8.710  0.3168 -1.3114  0.8560
 5452SOL    HW218125   7.342   0.158   8.648 -0.0037  0.9844 -0.7992
 5453SOL     OW18126   7.950   5.077   8.005  0.2675 -0.3886 -0.6090
 5453SOL    HW118127   7.929   5.024   8.082 -2.9909  1.6766  0.1027
 5453SOL    HW218128   7.969   5.164   8.039 -1.7014  0.6994 -2.0185
 5454SOL     OW18129   0.890   5.241   2.104  0.3913 -0.6178 -0.0477
 5454SOL    HW118130   0.953   5.174   2.078  0.0021 -0.8386 -0.4184
 5454SOL    HW218131   0.807   5.212   2.069  0.4356  0.6909 -1.3338
 5455SOL     OW18132   7.892   2.363   8.636  0.5410  0.1210 -0.0985
 5455SOL    HW118133   7.980   2.358   8.599  0.0045 -0.7395 -1.3009
 5455SOL    HW218134   7.901   2.325   8.723  1.6602  1.4589  0.4207
 5456SOL     OW18135   1.281   3.867   4.473  0.0137 -0.0483 -0.0738
 5456SOL    HW118136   1.350   3.892   4.534  0.0926  0.3618 -0.3245
 5456SOL    HW218137   1.203   3.912   4.505 -0.0393 -0.1633 -0.0400
 5457SOL     OW18138   6.843   1.225   8.358 -0.1213 -0.5366  0.0109
 5457SOL    HW118139   6.755   1.204   8.390 -0.0867 -0.0722  0.4171
 5457SOL    HW218140   6.855   1.167   8.283 -0.4725 -1.1653  0.4215
 5458SOL     OW18141   9.401   0.000   6.717 -0.0950 -0.0108  0.4957
 5458SOL    HW118142   9.478   0.050   6.746  1.7015 -1.5940 -1.2517
 5458SOL    HW218143   9.397  -0.073   6.778  0.0484 -0.1448  0.3458
 5459SOL     OW18144   7.236   0.560   3.179  0.0226 -0.5169  0.0518
 5459SOL    HW118145   7.231   0.486   3.239  1.4778  0.8448  1.9674
 5459SOL    HW218146   7.196   0.633   3.226  2.2432  0.8812 -0.0770
 5460SOL     OW18147   4.110   2.761   9.773 -1.0636 -0.0540 -0.2087
 5460SOL    HW118148   4.188   2.785   9.723 -1.5098 -0.0253 -0.9046
 5460SOL    HW218149   4.040   2.814   9.735 -1.4531 -0.1915  0.3076
 5461SOL     OW18150   5.417   5.449   5.704 -0.1415 -0.3134  0.1339
 5461SOL    HW118151   5.401   5.396   5.625  1.2675 -0.5500 -0.0116
 5461SOL    HW218152   5.512   5.444   5.718  0.1827  2.7170 -0.2717
 5462SOL     OW18153   0.871   3.577   0.977 -0.5666  0.1874  0.2696
 5462SOL    HW118154   0.872   3.488   0.941 -0.2794  0.8939 -1.6231
 5462SOL    HW218155   0.930   3.627   0.920  0.7461  1.2177  2.4056
 5463SOL     OW18156   3.144   3.853   7.632  0.1970 -0.2693 -0.2849
 5463SOL    HW118157   3.116   3.816   7.548 -0.4546  1.0018 -0.6700
 5463SOL    HW218158   3.094   3.806   7.698  2.0877 -2.6181 -0.3876
 5464SOL     OW18159   8.811   6.992   0.549 -0.2415 -0.3292 -0.1859
 5464SOL    HW118160   8.813   7.084   0.575 -1.5132  0.2622 -1.9566
 5464SOL    HW218161   8.882   6.951   0.598  1.7623  2.0496 -0.9182
 5465SOL     OW18162   2.495   6.103   0.381  0.6338  0.2738  0.3346
 5465SOL    HW118163   2.467   6.019   0.417  1.8272  0.1478  1.0058
 5465SOL    HW218164   2.590   6.103   0.389  0.7118  1.4034 -0.3000
 5466SOL     OW18165   9.260   5.457   4.746  0.0451  0.8026 -0.0601
 5466SOL    HW118166   9.329   5.501   4.697  1.0350  0.2838  0.8287
 5466SOL    HW218167   9.301   5.434   4.830 -0.4010 -1.8718 -0.4869
 5467SOL     OW18168   4.314   0.732   5.380  0.1834 -0.3361 -0.4566
 5467SOL    HW118169   4.311   0.798   5.450 -0.1759 -1.0850  0.2590
 5467SOL    HW218170   4.225   0.731   5.345  0.4623  0.3308 -1.2334
 5468SOL     OW18171   9.709   4.556   8.960  0.5415 -0.7259  0.1819
 5468SOL    HW118172   9.738   4.600   9.039  1.7311 -1.1446 -0.0105
 5468SOL    HW218173   9.788   4.544   8.908 -0.4202  0.9736 -1.8296
 5469SOL     OW18174   9.397   8.648   6.540  0.0287 -0.0680 -0.2298
 5469SOL    HW118175   9.447   8.678   6.463  0.6274 -0.7698 -0.1219
 5469SOL    HW218176   9.356   8.566   6.512 -1.5644  0.7744 -0.5049
 5470SOL     OW18177   1.214   3.724   7.027 -0.1686  0.4560  0.2057
 5470SOL    HW118178   1.228   3.631   7.042  1.5636  0.3887 -1.4068
 5470SOL    HW218179   1.203   3.761   7.114 -1.2582 -1.2784  0.8595
 5471SOL     OW18180   5.636   6.819   7.512  0.3158  0.2725  0.2721
 5471SOL    HW118181   5.623   6.857   7.426  2.2944 -1.5321 -0.9284
 5471SOL    HW218182   5.621   6.725   7.499 -1.2966  0.1535  2.3863
 5472SOL     OW18183   8.012   2.610   0.115 -0.6932 -0.3561 -0.6239
 5472SOL    HW118184   7.928   2.610   0.161 -0.3115 -0.2327  0.0809
 5472SOL    HW218185   8.031   2.517   0.100 -0.5137 -0.4335  0.0464
 5473SOL     OW18186   5.152   4.396   0.143  0.7553 -0.1963  0.0016
 5473SOL    HW118187   5.199   4.326   0.189 -0.2557 -0.1905  1.1052
 5473SOL    HW218188   5.205   4.474   0.159 -0.0182 -0.0204  1.9843
 5474SOL     OW18189   1.279   8.561   5.375  0.2265 -0.2907 -0.2931
 5474SOL    HW118190   1.201   8.568   5.320 -1.9283 -0.9915  2.4619
 5474SOL    HW218191   1.305   8.652   5.390 -2.1853  0.2116  1.4257
 5475SOL     OW18192   3.930   4.952   5.798 -0.2269 -0.3252  0.1615
 5475SOL    HW118193   3.932   5.046   5.779 -2.8940 -0.2020  0.2251
 5475SOL    HW218194   3.838   4.928   5.798  0.3956 -3.2581 -1.1694
 5476SOL     OW18195   4.671   3.056   4.800 -0.2232 -0.2367 -0.4320
 5476SOL    HW118196   4.612   3.012   4.739  0.1022 -0.9299 -0.2512
 5476SOL    HW218197   4.729   3.108   4.745 -0.4791 -0.1832 -0.6552
 5477SOL     OW18198   0.376   0.390   8.092  0.0206 -0.5024 -0.2554
 5477SOL    HW118199   0.440   0.360   8.027  0.7165  0.4770 -0.0473
 5477SOL    HW218200   0.388   0.330   8.166  0.8750 -0.1883 -0.1281
 5478SOL     OW18201   1.264   4.344   8.345 -0.4801 -0.1972  0.3078
 5478SOL    HW118202   1.190   4.313   8.293  0.3621 -1.1570 -0.3539
 5478SOL    HW218203   1.243   4.318   8.435 -1.5753  0.7733  0.3507
 5479SOL     OW18204   5.203   3.885   0.543  0.1986 -0.3538  0.0000
 5479SOL    HW118205   5.144   3.939   0.491 -0.9486 -0.4860  1.1448
 5479SOL    HW218206   5.192   3.796   0.507  0.0694 -0.2970 -0.1030
 5480SOL     OW18207   5.666   4.850   7.365  0.5306 -0.1165 -0.4089
 5480SOL    HW118208   5.746   4.902   7.358  1.3632 -0.9370  1.8911
 5480SOL    HW218209   5.665   4.795   7.287  2.1912 -0.0472 -0.5151
 5481SOL     OW18210   6.686   3.565   3.067  0.3644 -0.9789 -0.2633
 5481SOL    HW118211   6.654   3.617   2.993 -0.4983 -0.9915  0.0910
 5481SOL    HW218212   6.680   3.474   3.038  2.0588 -0.9054 -0.9563
 5482SOL     OW18213   3.546   7.807   5.209  0.4981 -0.3129 -0.1799
 5482SOL    HW118214   3.516   7.807   5.118 -1.2670  2.7930  0.2826
 5482SOL    HW218215   3.466   7.795   5.260  1.1422  0.2339  0.9819
 5483SOL     OW18216   4.093   3.381   3.129 -0.3062  0.0921  0.1819
 5483SOL    HW118217   4.103   3.292   3.160  0.1886  0.3534  0.7917
 5483SOL    HW218218   4.024   3.376   3.063  0.9674 -1.0472 -1.1188
 5484SOL     OW18219   2.229   7.545   8.930 -0.2055 -0.1749  0.5111
 5484SOL    HW118220   2.183   7.603   8.869  1.5202  0.8673  0.1401
 5484SOL    HW218221   2.257   7.471   8.876 -2.1203 -1.2741  0.9171
 5485SOL     OW18222   4.666   8.024   1.895 -0.0389 -0.1749 -0.2869
 5485SOL    HW118223   4.744   7.993   1.851 -1.0183 -1.8591 -0.9243
 5485SOL    HW218224   4.603   7.952   1.888 -1.2550  0.6512  1.2465
 5486SOL     OW18225   4.699   7.253   4.706 -0.4863 -0.2410 -0.2381
 5486SOL    HW118226   4.686   7.172   4.756 -0.7681  0.4989  0.9371
 5486SOL    HW218227   4.788   7.248   4.673 -1.0903 -1.8620 -1.7697
 5487SOL     OW18228   8.917   9.099   3.076  0.2126 -0.5889  0.1232
 5487SOL    HW118229   8.895   9.191   3.086 -2.5821 -1.3219  1.7899
 5487SOL    HW218230   9.002   9.090   3.119  0.4488  1.1688  0.0706
 5488SOL     OW18231   9.564   0.722   6.414 -0.3244  0.4789 -0.0763
 5488SOL    HW118232   9.552   0.660   6.343 -0.4633  1.5940 -1.0527
 5488SOL    HW218233   9.571   0.667   6.493  0.2779 -0.8049 -0.9797
 5489SOL     OW18234   7.610   7.136   3.628  0.3113 -0.0029  0.3525
 5489SOL    HW118235   7.628   7.105   3.717  0.0158 -2.2364 -0.2956
 5489SOL    HW218236   7.517   7.117   3.615  0.4489 -0.0747 -0.5740
 5490SOL     OW18237   6.779   9.726   9.752 -0.1864  0.4053  0.4868
 5490SOL    HW118238   6.692   9.706   9.787  1.1072 -0.5221  3.4541
 5490SOL    HW218239   6.783   9.822   9.750 -1.3214  0.4600  0.0691
 5491SOL     OW18240   2.318   4.229   2.690  0.0027 -0.1972 -0.6704
 5491SOL    HW118241   2.252   4.286   2.729  0.2247  0.5557 -1.3643
 5491SOL    HW218242   2.349   4.277   2.613  2.0679 -0.0564  0.1734
 5492SOL     OW18243   5.140   9.597   6.039  0.2414  0.0004  0.3262
 5492SOL    HW118244   5.049   9.585   6.067  0.1509  0.1145  0.0866
 5492SOL    HW218245   5.154   9.692   6.041  0.8701 -0.1030  1.9434
 5493SOL     OW18246   6.524   6.382   4.305  0.2084  0.6678 -0.5648
 5493SOL    HW118247   6.606   6.425   4.328  0.1251  0.7339 -0.3898
 5493SOL    HW218248   6.486   6.438   4.238 -0.1306  1.1281 -0.0003
 5494SOL     OW18249   6.583   9.398   1.874  0.7100  0.1574 -0.3980
 5494SOL    HW118250   6.519   9.365   1.937 -1.9089  3.0906 -1.2641
 5494SOL    HW218251   6.576   9.339   1.799 -0.1199 -0.2674  0.0019
 5495SOL     OW18252   6.191   7.153   4.822 -0.2558  0.2192  0.1589
 5495SOL    HW118253   6.169   7.188   4.909  0.8973 -0.3647  0.7066
 5495SOL    HW218254   6.260   7.089   4.839 -0.0714  0.0372 -1.1907
 5496SOL     OW18255   5.041   9.702   9.012  0.3862  0.5697  0.2432
 5496SOL    HW118256   5.103   9.725   9.082 -0.7860  0.4229  1.3805
 5496SOL    HW218257   5.092   9.647   8.952  0.8562 -1.4222  2.2953
 5497SOL     OW18258   4.479   2.046   0.596 -0.1838  0.1054 -0.3242
 5497SOL    HW118259   4.535   2.026   0.671  0.2880 -0.9268 -0.9298
 5497SOL    HW218260   4.448   1.960   0.565 -2.2880  0.6661  0.1227
 5498SOL     OW18261   6.679   2.395   2.198 -0.0829 -0.0515 -0.3177
 5498SOL    HW118262   6.755   2.452   2.186 -2.1982  3.2248  0.5734
 5498SOL    HW218263   6.651   2.373   2.110  0.9038  0.0526 -0.6762
 5499SOL     OW18264   2.416   6.074   9.439 -0.0900 -0.6291 -0.4666
 5499SOL    HW118265   2.371   6.056   9.522 -0.7202 -0.0506 -0.6755
 5499SOL    HW218266   2.504   6.037   9.452  0.0381  0.0200  0.7128
 5500SOL     OW18267   4.216   9.759   2.576  1.1460  0.7272  0.3632
 5500SOL    HW118268   4.196   9.790   2.488  1.0062 -1.8221 -0.5870
 5500SOL    HW218269   4.138   9.782   2.627  0.0025 -0.2282 -0.8778
 5501SOL     OW18270   4.401   4.410   2.419  0.2754 -0.3626  0.3544
 5501SOL    HW118271   4.345   4.443   2.488 -0.3810  0.2450 -0.4518
 5501SOL    HW218272   4.445   4.334   2.458 -1.3145 -1.0338  0.9174
 5502SOL     OW18273   8.608   7.868   4.182 -0.5870  0.0760  0.0680
 5502SOL    HW118274   8.680   7.813   4.151 -1.9143 -1.6816 -0.0587
 5502SOL    HW218275   8.529   7.822   4.154 -1.7870  1.5098  0.9385
 5503SOL     OW18276   4.745   0.906   5.507 -0.4647 -0.1820 -0.1546
 5503SOL    HW118277   4.681   0.835   5.494 -0.9430  0.1301  0.4513
 5503SOL    HW218278   4.727   0.938   5.595  0.0365  0.4162 -0.2671
 5504SOL     OW18279   8.656   5.028   6.071  0.1234  0.1075  0.0204
 5504SOL    HW118280   8.689   4.993   5.988 -0.5403 -0.3305 -0.0570
 5504SOL    HW218281   8.624   4.952   6.118 -3.2951  0.7556 -1.0197
 5505SOL     OW18282   4.811   9.219   0.484  0.1998  0.0399 -0.6598
 5505SOL    HW118283   4.887   9.172   0.518 -0.6912 -1.3789 -0.5188
 5505SOL    HW218284   4.736   9.163   0.507 -0.9202  1.4768 -0.6065
 5506SOL     OW18285   0.010   5.218   2.621  0.1657 -0.2753  0.3634
 5506SOL    HW118286  -0.063   5.159   2.641  1.5043 -2.0911  0.2407
 5506SOL    HW218287   0.023   5.208   2.527  0.5609  0.0220  0.3854
 5507SOL     OW18288   3.366   2.134   6.189  0.0138 -0.1789  0.5266
 5507SOL    HW118289   3.432   2.161   6.125  0.8311 -2.7854  0.1459
 5507SOL    HW218290   3.394   2.176   6.271  0.0924  1.5855 -0.3594
 5508SOL     OW18291   4.533   8.814   4.140 -0.7679  0.3828 -0.0005
 5508SOL    HW118292   4.535   8.737   4.197 -1.7982  0.1113 -0.3082
 5508SOL    HW218293   4.444   8.849   4.149 -0.1596  1.8798  0.5609
 5509SOL     OW18294   7.723   5.804   4.946  0.3435 -0.6387  0.0797
 5509SOL    HW118295   7.654   5.738   4.932 -1.2451  1.3314 -2.4048
 5509SOL    HW218296   7.683   5.867   5.006 -0.3556  0.7817 -1.7723
 5510SOL     OW18297   7.060   0.489   5.464  0.3971 -0.1818  0.5331
 5510SOL    HW118298   7.069   0.546   5.388  0.2763 -0.7014  0.1201
 5510SOL    HW218299   7.018   0.544   5.530  0.7316  0.3473  0.3082
 5511SOL     OW18300   0.966   0.908   7.205  0.1046  0.2415 -0.4231
 5511SOL    HW118301   0.919   0.989   7.227 -0.0538  0.2918 -0.9426
 5511SOL    HW218302   0.968   0.859   7.287 -0.3639  0.4853 -0.2627
 5512SOL     OW18303   3.739   9.247   5.371 -0.4718  0.0458  0.1904
 5512SOL    HW118304   3.791   9.182   5.418  1.0752  0.9752 -0.1596
 5512SOL    HW218305   3.784   9.330   5.387 -1.8887  0.9042 -0.1078
 5513SOL     OW18306   0.915   0.860   4.523  0.0146 -0.2509  0.4305
 5513SOL    HW118307   0.876   0.866   4.435 -1.5346  0.1347  1.1206
 5513SOL    HW218308   0.844   0.831   4.579  0.8878 -0.0891  1.6540
 5514SOL     OW18309   2.404   1.471   6.753 -0.0634  0.0495  0.9706
 5514SOL    HW118310   2.415   1.454   6.847  1.8575  1.4037  1.0650
 5514SOL    HW218311   2.436   1.561   6.742  1.2877 -0.6351 -1.2046
 5515SOL     OW18312   8.291   7.091   9.567  0.3146  0.6983  0.6005
 5515SOL    HW118313   8.248   7.027   9.624 -0.0001  0.6280  0.2941
 5515SOL    HW218314   8.279   7.055   9.479  0.3574  1.0514  0.4494
 5516SOL     OW18315   5.464   8.867   9.093  0.0035 -0.0025  0.1964
 5516SOL    HW118316   5.542   8.872   9.037 -0.9799 -2.0731 -1.4823
 5516SOL    HW218317   5.470   8.944   9.149  2.2440  0.9303 -1.1982
 5517SOL     OW18318   1.921   5.731   4.743 -0.2735  0.1331 -0.7931
 5517SOL    HW118319   1.858   5.687   4.800  0.0006  1.5706  0.6981
 5517SOL    HW218320   1.869   5.795   4.695 -0.0205  1.1281  0.2333
 5518SOL     OW18321   4.470   9.274   5.040 -0.7099  0.5645  0.1589
 5518SOL    HW118322   4.474   9.201   4.978 -0.5689 -0.0213  0.8454
 5518SOL    HW218323   4.559   9.308   5.043 -0.2683 -0.6128  1.4398
 5519SOL     OW18324   5.850   1.985   7.802  0.1304 -0.0360 -0.0099
 5519SOL    HW118325   5.815   1.968   7.714 -0.2699  0.8990 -0.0423
 5519SOL    HW218326   5.883   2.074   7.798 -1.4866  0.6585  1.2798
 5520SOL     OW18327   2.248   2.859   7.538  0.2340 -0.1465 -0.6133
 5520SOL    HW118328   2.215   2.922   7.474 -0.4710 -0.6141 -0.7202
 5520SOL    HW218329   2.312   2.908   7.590  0.3943  0.3897 -1.3072
 5521SOL     OW18330   0.746   9.467   9.345 -0.0708  0.1669  0.2197
 5521SOL    HW118331   0.746   9.380   9.385 -0.4833 -0.6059 -1.3507
 5521SOL    HW218332   0.795   9.522   9.405  0.2565 -1.1780  1.2184
 5522SOL     OW18333   1.904   1.083   3.941 -0.1494  0.3841 -0.0562
 5522SOL    HW118334   1.890   1.151   3.875 -1.2543  0.5145  0.2915
 5522SOL    HW218335   1.930   1.006   3.891  0.1507  0.7945 -0.5403
 5523SOL     OW18336   1.847   7.033   5.992 -0.3422 -0.0173 -0.0748
 5523SOL    HW118337   1.760   7.069   6.011 -0.6068 -1.3647  1.5875
 5523SOL    HW218338   1.832   6.939   5.983  0.7810 -0.1278 -1.0677
 5524SOL     OW18339   3.571   0.385   6.349 -0.0022 -0.6899  0.4551
 5524SOL    HW118340   3.493   0.372   6.403 -0.9509  1.5383 -0.2701
 5524SOL    HW218341   3.636   0.421   6.408 -1.0693  1.8407  0.2085
 5525SOL     OW18342   4.709   7.771   7.979 -0.5244 -0.5708  0.7910
 5525SOL    HW118343   4.683   7.708   8.046 -2.2117  1.9594  2.7018
 5525SOL    HW218344   4.791   7.808   8.012 -0.4190 -0.5678  0.5282
 5526SOL     OW18345   1.159   5.598   5.739  0.5914 -0.0324  0.0260
 5526SOL    HW118346   1.126   5.601   5.829 -0.6303 -1.0304 -0.3448
 5526SOL    HW218347   1.156   5.505   5.715  0.4463  0.2602 -1.1935
 5527SOL     OW18348   6.340   4.442   5.778 -0.2249  0.0905  0.2105
 5527SOL    HW118349   6.433   4.420   5.778  0.1509  1.5788  0.8008
 5527SOL    HW218350   6.308   4.410   5.694  1.0002  0.2549 -0.3365
 5528SOL     OW18351   2.558   8.879   8.703  0.5223 -0.2011 -0.5075
 5528SOL    HW118352   2.474   8.844   8.672  0.6772  0.0829 -1.2699
 5528SOL    HW218353   2.545   8.973   8.705  0.3303 -0.2311  0.8830
 5529SOL     OW18354   3.090   7.375   7.795 -0.1145 -0.0358 -0.4176
 5529SOL    HW118355   3.017   7.430   7.823 -1.2244 -1.1337 -1.0484
 5529SOL    HW218356   3.166   7.412   7.840 -1.1046  0.9142  0.5564
 5530SOL     OW18357   6.374   4.707   1.929  0.1091  0.3238  0.1946
 5530SOL    HW118358   6.402   4.624   1.966  1.0345  0.9322  0.9294
 5530SOL    HW218359   6.384   4.696   1.835 -0.6499 -0.6861  0.2221
 5531SOL     OW18360   8.172   9.729   5.278 -0.0018  0.1488 -0.1882
 5531SOL    HW118361   8.084   9.758   5.257 -0.4128  0.3008  1.5931
 5531SOL    HW218362   8.198   9.674   5.203 -2.3831 -1.5746  0.1400
 5532SOL     OW18363   9.466   8.170   3.650  0.2912  0.3531  0.7605
 5532SOL    HW118364   9.522   8.234   3.693 -0.0425  0.7008  0.6800
 5532SOL    HW218365   9.495   8.086   3.684 -0.3144  0.6477  2.0884
 5533SOL     OW18366   1.882   4.831   2.587 -0.5614 -0.2396  0.0999
 5533SOL    HW118367   1.800   4.849   2.633 -1.5690 -3.0688 -0.4000
 5533SOL    HW218368   1.857   4.820   2.496  0.4425 -0.7126 -0.1391
 5534SOL     OW18369   1.941   9.686   3.269 -0.0629 -0.6480  0.4073
 5534SOL    HW118370   1.893   9.763   3.300 -0.3795 -0.4769 -0.4760
 5534SOL    HW218371   2.030   9.698   3.300  0.0652  0.4452 -0.3347
 5535SOL     OW18372   9.504   8.900   5.344 -0.0670  0.0469 -0.0784
 5535SOL    HW118373   9.438   8.955   5.301  1.0743  1.1260 -0.4964
 5535SOL    HW218374   9.586   8.949   5.334  0.3796 -0.0125  2.6825
 5536SOL     OW18375   0.493   6.994   0.923 -0.4829 -0.4476  0.0667
 5536SOL    HW118376   0.412   6.958   0.887  0.3090 -3.0023  0.5809
 5536SOL    HW218377   0.556   6.986   0.852 -0.3405  0.2568  0.1049
 5537SOL     OW18378   0.768   6.212   4.490  0.0528  0.2578 -0.4701
 5537SOL    HW118379   0.763   6.125   4.450 -0.1378 -0.2970  0.7208
 5537SOL    HW218380   0.748   6.197   4.583 -2.0436  1.8493 -0.5956
 5538SOL     OW18381   2.488   8.656   3.121 -0.0291  0.4271 -0.6482
 5538SOL    HW118382   2.421   8.677   3.056 -1.0862  1.4529  0.7218
 5538SOL    HW218383   2.522   8.741   3.148 -0.2942  0.0820  0.8423
 5539SOL     OW18384   1.970   9.664   0.182 -0.1414  0.3094 -0.2787
 5539SOL    HW118385   1.894   9.619   0.144 -0.4664  0.6842 -0.0782
 5539SOL    HW218386   1.937   9.751   0.204  0.0945  0.1675  0.6723
 5540SOL     OW18387   6.699   4.183   7.325 -0.5698 -0.1730 -0.2118
 5540SOL    HW118388   6.622   4.158   7.376 -0.4622 -1.0879 -0.4781
 5540SOL    HW218389   6.664   4.216   7.243 -0.6820 -1.4583 -0.7120
 5541SOL     OW18390   5.620   8.004   8.229  0.0208  0.3084 -0.2747
 5541SOL    HW118391   5.693   8.061   8.251 -0.6837  1.6176 -1.1537
 5541SOL    HW218392   5.543   8.051   8.260 -0.5401 -0.4685 -0.4593
 5542SOL     OW18393   5.754   7.286   5.392  0.3370 -0.3432 -0.2349
 5542SOL    HW118394   5.764   7.359   5.331 -0.6300 -1.0234 -1.2301
 5542SOL    HW218395   5.662   7.288   5.418  0.4050 -0.9286  0.0771
 5543SOL     OW18396   5.233   5.744   1.661  0.2525  0.3366 -0.3802
 5543SOL    HW118397   5.145   5.745   1.623 -0.2072  1.1748  0.6613
 5543SOL    HW218398   5.230   5.676   1.728  0.0901  1.0420  0.3369
 5544SOL     OW18399   4.022   3.527   7.897  0.1788 -0.1065  0.2109
 5544SOL    HW118400   4.047   3.437   7.873 -3.3792 -0.8979 -1.1126
 5544SOL    HW218401   4.029   3.529   7.992 -2.1973 -2.7671  0.5724
 5545SOL     OW18402   4.366   7.161   7.608  0.2157 -0.3166 -0.1712
 5545SOL    HW118403   4.440   7.207   7.648 -1.0769  1.2310  0.5608
 5545SOL    HW218404   4.391   7.151   7.516  0.3425  2.4346 -0.5175
 5546SOL     OW18405   7.651   3.397   7.179  0.3909 -0.1171  0.1343
 5546SOL    HW118406   7.669   3.311   7.141 -0.9906  0.4132 -1.9024
 5546SOL    HW218407   7.690   3.459   7.117 -0.1429  0.7504  0.6464
 5547SOL     OW18408   9.084   3.035   8.870  0.2134  0.0023  0.5988
 5547SOL    HW118409   9.004   2.992   8.839 -0.2994  1.4162 -0.1770
 5547SOL    HW218410   9.096   3.002   8.959 -0.4455 -1.2865  0.2382
 5548SOL     OW18411   6.565   0.404   4.009 -0.1067 -0.3659 -0.3532
 5548SOL    HW118412   6.594   0.452   3.931 -0.6891 -0.7425 -0.8168
 5548SOL    HW218413   6.634   0.418   4.073 -0.5361  1.5602 -0.2765
 5549SOL     OW18414   0.439   2.757   7.357 -0.4028  0.5386 -0.5331
 5549SOL    HW118415   0.496   2.680   7.357 -0.3108  0.6019 -1.0993
 5549SOL    HW218416   0.477   2.816   7.422 -3.1077 -1.7680  3.6165
 5550SOL     OW18417   8.320   0.587   2.058 -0.0899 -0.5367  0.1214
 5550SOL    HW118418   8.411   0.568   2.082  0.9530 -1.8750 -4.1027
 5550SOL    HW218419   8.314   0.683   2.064  2.6045 -0.0942 -2.0555
 5551SOL     OW18420   3.972   2.700   4.133 -0.2459  0.0110 -0.2167
 5551SOL    HW118421   3.984   2.607   4.110  0.2404 -0.3825  1.4833
 5551SOL    HW218422   3.884   2.704   4.170 -0.2159  0.1867 -0.1648
 5552SOL     OW18423   3.500   8.148   3.982  0.3093  0.2717 -0.4612
 5552SOL    HW118424   3.422   8.181   4.025  0.5901 -1.6318  1.7284
 5552SOL    HW218425   3.501   8.054   4.003  2.5891  0.0346 -1.3236
 5553SOL     OW18426   1.037   8.257   2.282  0.2139  0.4133  0.2537
 5553SOL    HW118427   1.067   8.255   2.373  1.6461 -0.6468 -0.1927
 5553SOL    HW218428   0.957   8.309   2.284 -0.5477 -0.7179  2.3332
 5554SOL     OW18429   1.923   0.978   1.155  0.5745 -0.0100  0.0467
 5554SOL    HW118430   1.945   1.050   1.095 -0.2291  1.6351  1.6304
 5554SOL    HW218431   1.880   0.913   1.100 -1.1645  1.9357 -1.0408
 5555SOL     OW18432   8.123   5.178   8.733 -0.5455  0.0690  0.1864
 5555SOL    HW118433   8.207   5.205   8.770 -0.7744 -0.1366  0.8816
 5555SOL    HW218434   8.129   5.082   8.728 -0.7545  0.0521  0.2736
 5556SOL     OW18435   6.554   1.623   9.076 -0.1218 -0.0818  0.1040
 5556SOL    HW118436   6.540   1.555   9.010 -1.0633  1.5460 -1.4555
 5556SOL    HW218437   6.479   1.682   9.066 -0.1277  0.3984  2.4463
 5557SOL     OW18438   8.454   4.619   5.775 -0.6650 -0.1548  0.2531
 5557SOL    HW118439   8.535   4.669   5.777 -0.6500 -0.1911  0.6816
 5557SOL    HW218440   8.458   4.564   5.853 -2.4598  2.0020  2.0221
 5558SOL     OW18441   7.670   1.203   1.621  0.4145 -0.5247  0.1826
 5558SOL    HW118442   7.691   1.295   1.631  0.9295 -0.6311  0.1207
 5558SOL    HW218443   7.606   1.201   1.549  0.3949 -0.2160  0.1904
 5559SOL     OW18444   5.524   7.738   8.978 -0.1825  0.0781  0.2350
 5559SOL    HW118445   5.449   7.692   9.015 -0.6870  1.0910  0.4726
 5559SOL    HW218446   5.549   7.685   8.902  0.7729 -1.9562  1.8517
 5560SOL     OW18447   9.170   7.693   1.273  0.5622 -0.0211 -0.1248
 5560SOL    HW118448   9.213   7.777   1.290 -0.7147  0.7666 -0.5799
 5560SOL    HW218449   9.172   7.647   1.356 -0.1875  1.1781  0.5872
 5561SOL     OW18450   6.621   7.135   7.898 -0.1604 -0.6674  0.0527
 5561SOL    HW118451   6.541   7.083   7.902  0.1877 -1.1473  1.3283
 5561SOL    HW218452   6.640   7.157   7.989  1.2359 -0.6737 -0.2172
 5562SOL     OW18453   9.543   3.438   9.521  0.4945  0.2716 -0.0796
 5562SOL    HW118454   9.489   3.369   9.558 -1.9036  1.4991 -1.0705
 5562SOL    HW218455   9.569   3.405   9.435  1.1932 -0.2362  0.3155
 5563SOL     OW18456   7.803   6.195   7.013 -0.3220  0.0349 -0.5702
 5563SOL    HW118457   7.831   6.287   7.009 -2.0197  0.6875  1.2758
 5563SOL    HW218458   7.756   6.181   6.931  0.6288  0.5325 -1.2281
 5564SOL     OW18459   1.396   1.339   8.776 -0.4824  0.1299 -0.2340
 5564SOL    HW118460   1.328   1.347   8.710  1.1176  1.7585 -1.8159
 5564SOL    HW218461   1.412   1.245   8.783 -1.8338 -0.1708 -0.9346
 5565SOL     OW18462   4.074   5.817   8.594  0.1888  0.2610 -0.3857
 5565SOL    HW118463   3.992   5.851   8.557 -0.0374 -0.7551 -0.8610
 5565SOL    HW218464   4.064   5.829   8.689 -0.9515 -0.7237 -0.3464
 5566SOL     OW18465   5.955   2.766   8.690  0.0514  0.2029 -0.0826
 5566SOL    HW118466   6.039   2.790   8.729 -0.0944 -0.2881  0.5502
 5566SOL    HW218467   5.974   2.687   8.639  0.0426  0.2850 -0.2131
 5567SOL     OW18468   4.694   6.332   7.746  0.8417  0.2153 -0.4325
 5567SOL    HW118469   4.639   6.399   7.706  0.9459 -0.4883 -1.8463
 5567SOL    HW218470   4.681   6.254   7.691  2.7008 -0.1695 -0.4220
 5568SOL     OW18471   3.269   1.986   2.873  0.3939  0.1519 -0.0331
 5568SOL    HW118472   3.262   2.071   2.917 -0.5626 -0.4357  0.9963
 5568SOL    HW218473   3.311   1.929   2.937 -0.9159 -0.6856  0.1144
 5569SOL     OW18474   6.657   5.796   4.414  0.7614 -0.4090  0.5199
 5569SOL    HW118475   6.657   5.891   4.398 -0.7134 -0.3624  0.5981
 5569SOL    HW218476   6.572   5.780   4.456  0.3343 -1.9827 -0.8595
 5570SOL     OW18477   4.807   5.053   0.979 -0.0587 -0.2269  0.0783
 5570SOL    HW118478   4.766   5.139   0.985 -0.7078 -0.4980 -0.3491
 5570SOL    HW218479   4.898   5.071   0.954 -0.5033  0.2864 -1.2500
 5571SOL     OW18480   8.486   1.623   8.901  0.0431 -0.2562  0.1998
 5571SOL    HW118481   8.563   1.565   8.903 -0.6256 -1.2406 -1.0450
 5571SOL    HW218482   8.432   1.589   8.830 -1.4252  0.5956  0.8591
 5572SOL     OW18483   2.876   3.276   5.809  0.4078 -0.5473  0.1851
 5572SOL    HW118484   2.865   3.359   5.856 -1.4379 -0.4668 -0.3464
 5572SOL    HW218485   2.921   3.219   5.871 -1.1063 -0.1282  1.7315
 5573SOL     OW18486   0.073   2.382   6.488 -0.3319  0.1540 -0.0606
 5573SOL    HW118487   0.087   2.477   6.483 -1.4838  0.3195 -0.5335
 5573SOL    HW218488   0.035   2.359   6.404 -0.9110 -0.5610  0.3821
 5574SOL     OW18489   8.450   7.688   2.298  0.1941 -0.1926 -0.0054
 5574SOL    HW118490   8.374   7.745   2.313 -1.2388 -2.2561  1.2647
 5574SOL    HW218491   8.503   7.698   2.377  0.2001 -0.2092 -0.0072
 5575SOL     OW18492   8.939   6.782   0.392 -0.4333 -1.0947 -0.2136
 5575SOL    HW118493   8.987   6.783   0.475  1.5270 -1.3394 -1.2958
 5575SOL    HW218494   8.917   6.874   0.376  1.4183 -0.6818 -0.6251
 5576SOL     OW18495   2.734   2.896   5.946 -0.0808  0.6442  0.3103
 5576SOL    HW118496   2.741   2.897   5.850 -2.3106 -1.8846 -0.0360
 5576SOL    HW218497   2.682   2.973   5.967 -0.8817  0.4312 -0.7510
 5577SOL     OW18498   3.723   9.624   4.684 -0.9540 -0.5816 -0.4243
 5577SOL    HW118499   3.728   9.530   4.671 -2.0560 -0.7679  0.3452
 5577SOL    HW218500   3.688   9.634   4.772  1.1025  0.5687  0.3446
 5578SOL     OW18501   4.929   9.554   3.139  0.5515 -0.2009 -0.2110
 5578SOL    HW118502   4.883   9.525   3.218  1.3078  0.1186  0.3603
 5578SOL    HW218503   4.954   9.472   3.095  0.9227 -0.4035  0.3606
 5579SOL     OW18504   6.934   7.880   2.056  0.0289  0.4773  0.0965
 5579SOL    HW118505   6.934   7.861   1.962  1.9007 -1.5711  0.4446
 5579SOL    HW218506   6.842   7.873   2.082 -0.2357 -1.3557 -1.1690
 5580SOL     OW18507   9.564   4.459   6.250  0.7569 -0.1321 -0.0392
 5580SOL    HW118508   9.483   4.421   6.284  0.9525 -1.7847 -1.3106
 5580SOL    HW218509   9.613   4.483   6.329 -1.0465  1.2361  0.7651
 5581SOL     OW18510   2.818   7.531   9.700 -0.2455 -0.3389 -0.0022
 5581SOL    HW118511   2.785   7.476   9.629 -1.0130 -0.1894  0.2343
 5581SOL    HW218512   2.742   7.582   9.728  0.7843  2.1665 -1.4124
 5582SOL     OW18513   5.375   5.443   2.005  0.2575 -0.1670  0.1983
 5582SOL    HW118514   5.400   5.356   2.038  0.3230  0.0725  0.7982
 5582SOL    HW218515   5.374   5.498   2.083 -0.5705  0.1932 -0.0588
 5583SOL     OW18516   5.383   2.250   6.992 -0.2811  0.3931 -0.0833
 5583SOL    HW118517   5.337   2.257   6.908  1.5790 -0.6562 -1.2531
 5583SOL    HW218518   5.412   2.159   6.997  2.5948  1.2140  0.0266
 5584SOL     OW18519   9.222   2.917   4.978 -0.1055 -0.5632  0.5448
 5584SOL    HW118520   9.185   2.978   4.914 -0.3586 -0.0558  1.1708
 5584SOL    HW218521   9.275   2.971   5.036 -0.1738 -0.9601  0.9860
 5585SOL     OW18522   6.427   5.739   7.983 -0.9236 -0.0150 -0.3314
 5585SOL    HW118523   6.417   5.697   7.897  2.3197 -0.3877 -0.6896
 5585SOL    HW218524   6.448   5.830   7.962  0.7333 -0.2972 -0.0636
 5586SOL     OW18525   2.331   0.189   3.945 -0.0048  0.2846  0.2842
 5586SOL    HW118526   2.290   0.126   4.005  0.1830 -0.2165 -0.1091
 5586SOL    HW218527   2.274   0.265   3.948 -1.1011 -0.4699 -0.4092
 5587SOL     OW18528   7.555   0.531   6.832  0.2048 -0.0736 -0.2400
 5587SOL    HW118529   7.568   0.441   6.862 -2.0230  0.0797  1.3989
 5587SOL    HW218530   7.492   0.524   6.761 -1.8915  0.3325  1.5050
 5588SOL     OW18531   6.307   0.306   3.462  0.0445 -0.1572  0.1430
 5588SOL    HW118532   6.400   0.309   3.486  0.2651  0.9567 -0.7546
 5588SOL    HW218533   6.300   0.366   3.388 -1.6391  0.8213  1.0370
 5589SOL     OW18534   0.624   7.574   2.820 -0.0946 -0.5905 -0.3430
 5589SOL    HW118535   0.607   7.598   2.729  0.0858 -0.3144 -0.3067
 5589SOL    HW218536   0.580   7.642   2.872 -0.6893 -1.0725 -0.2108
 5590SOL     OW18537   8.658   2.291   2.984  0.1940  0.2878  0.4162
 5590SOL    HW118538   8.737   2.292   3.038  1.6479 -0.7319 -1.5639
 5590SOL    HW218539   8.680   2.344   2.908 -0.8769 -0.3803 -0.3918
 5591SOL     OW18540   1.458   1.055   9.084 -0.0127  0.7525  0.7223
 5591SOL    HW118541   1.490   1.086   8.999 -0.8849 -1.7174 -0.6286
 5591SOL    HW218542   1.372   1.097   9.094  0.8174  2.4151  1.2962
 5592SOL     OW18543   7.641   4.832   6.607 -0.0686  0.2009 -0.0997
 5592SOL    HW118544   7.581   4.764   6.575  0.5108 -1.4611  2.0823
 5592SOL    HW218545   7.714   4.783   6.646  1.0671  2.1291  0.3380
 5593SOL     OW18546   6.647   5.071   8.545  0.6474  0.0036  0.3056
 5593SOL    HW118547   6.598   5.061   8.627  0.8510  1.1447  0.5984
 5593SOL    HW218548   6.718   5.131   8.568  0.9102  0.0619 -0.6251
 5594SOL     OW18549   5.743   9.520   8.710 -0.1408  0.4776 -0.6923
 5594SOL    HW118550   5.788   9.439   8.732 -0.4802  0.0682 -1.4499
 5594SOL    HW218551   5.700   9.546   8.791  0.3851  0.1755 -0.3082
 5595SOL     OW18552   0.745   2.491   9.056 -0.0818 -0.1633  0.5049
 5595SOL    HW118553   0.705   2.488   8.969  0.4461  1.4182  0.1647
 5595SOL    HW218554   0.775   2.402   9.072 -2.4795 -1.1046  0.2121
 5596SOL     OW18555   4.064   5.469   4.343 -0.6203  0.2694 -0.4210
 5596SOL    HW118556   4.010   5.540   4.378  0.8934  1.3327 -0.1358
 5596SOL    HW218557   4.120   5.442   4.416 -0.1737 -0.2217 -0.9301
 5597SOL     OW18558   1.743   9.606   5.351  0.5679  0.1748 -0.1597
 5597SOL    HW118559   1.680   9.665   5.310 -0.1864 -0.4679  0.0387
 5597SOL    HW218560   1.694   9.566   5.422  1.3138 -0.0926  0.2114
 5598SOL     OW18561   0.147   6.525   7.240 -0.5126  0.8243 -0.6371
 5598SOL    HW118562   0.239   6.539   7.260 -0.4247  1.2810 -1.3126
 5598SOL    HW218563   0.119   6.606   7.196 -1.1766  0.6127 -0.6225
 5599SOL     OW18564   3.259   7.749   3.659  0.3702 -0.9504  0.4314
 5599SOL    HW118565   3.336   7.802   3.679 -0.1078  0.1097 -0.3705
 5599SOL    HW218566   3.268   7.671   3.713  1.3073 -0.2249  1.3755
 5600SOL     OW18567   6.616   4.610   2.633 -0.2237  0.2859 -0.3364
 5600SOL    HW118568   6.562   4.536   2.663  0.6681  0.0371  0.7228
 5600SOL    HW218569   6.706   4.580   2.642  0.1358  1.2099 -0.7023
 5601SOL     OW18570   8.767   6.352   6.633  0.5939  0.0268 -0.1769
 5601SOL    HW118571   8.697   6.381   6.575 -0.0471  0.1570  0.6343
 5601SOL    HW218572   8.738   6.266   6.664  0.7093  0.1580  0.3024
 5602SOL     OW18573   6.919   5.801   6.688  0.3122  0.1093 -0.0361
 5602SOL    HW118574   6.962   5.793   6.603  1.1560 -0.6537  0.4471
 5602SOL    HW218575   6.977   5.857   6.739 -0.1227  0.4530  0.0806
 5603SOL     OW18576   3.291   2.696   1.798  0.0787 -0.0083  0.2182
 5603SOL    HW118577   3.248   2.672   1.717  0.6915  1.0404 -0.4407
 5603SOL    HW218578   3.292   2.615   1.850  0.6927 -0.9928 -1.2630
 5604SOL     OW18579   8.176   7.623   1.966 -0.1176 -0.2907  0.0743
 5604SOL    HW118580   8.228   7.688   1.919 -0.7910 -0.5112 -1.0075
 5604SOL    HW218581   8.098   7.671   1.996  0.6567  0.0389  1.6876
 5605SOL     OW18582   8.164   9.612   8.920  0.0298  0.5338  0.3973
 5605SOL    HW118583   8.102   9.541   8.907  0.2112  0.2174  1.2078
 5605SOL    HW218584   8.228   9.602   8.849 -0.3468  0.3285  0.0866
 5606SOL     OW18585   9.752   1.516   3.589  1.0183 -0.7067  0.1535
 5606SOL    HW118586   9.725   1.492   3.500 -2.0412  1.0416  0.4792
 5606SOL    HW218587   9.787   1.604   3.580  0.5017 -0.4455  0.7139
 5607SOL     OW18588   3.209   2.143   6.989 -0.4013  0.4277  0.4002
 5607SOL    HW118589   3.215   2.218   7.047  0.5035  0.2289  0.5863
 5607SOL    HW218590   3.293   2.097   7.001 -0.9084 -0.5608  0.2329
 5608SOL     OW18591   8.220   8.777   0.502  0.1501 -0.3953 -0.1712
 5608SOL    HW118592   8.179   8.691   0.492 -1.9554  0.4260  0.7616
 5608SOL    HW218593   8.293   8.776   0.441  1.4781 -3.5845  1.2686
 5609SOL     OW18594   8.683   4.786   5.830 -0.3350 -0.0496  0.5239
 5609SOL    HW118595   8.717   4.738   5.905  0.9154 -0.8524 -0.5188
 5609SOL    HW218596   8.748   4.774   5.761 -0.8173  1.7466 -0.3125
 5610SOL     OW18597   4.049   4.110   0.941 -0.0489 -0.8562 -0.5413
 5610SOL    HW118598   4.070   4.023   0.975  2.0240 -0.3072 -0.2316
 5610SOL    HW218599   4.006   4.155   1.013  0.5381 -1.0513 -0.0587
 5611SOL     OW18600   4.586   4.775   4.734  0.2662 -0.6161 -0.2803
 5611SOL    HW118601   4.610   4.735   4.651 -1.4990 -1.6004 -0.3538
 5611SOL    HW218602   4.658   4.752   4.793  1.2976 -0.3169 -1.3846
 5612SOL     OW18603   2.992   1.215   2.121  0.2795  0.4304 -0.4114
 5612SOL    HW118604   3.074   1.175   2.149  0.6677  1.6978  0.3073
 5612SOL    HW218605   2.933   1.205   2.195 -0.0747 -0.0446 -0.7489
 5613SOL     OW18606   7.294   5.648   4.052  0.0643 -0.3914 -0.5441
 5613SOL    HW118607   7.218   5.590   4.043  1.1324 -1.8904 -0.1139
 5613SOL    HW218608   7.341   5.639   3.969 -0.2395  0.6041 -0.8444
 5614SOL     OW18609   2.038   3.821   0.498  0.3420 -0.3956 -0.6934
 5614SOL    HW118610   2.028   3.726   0.500  2.6168 -0.6828 -0.2447
 5614SOL    HW218611   2.045   3.847   0.590  1.0466  0.0091 -0.8513
 5615SOL     OW18612   5.199   2.738   8.517 -0.2203 -0.3634 -0.1816
 5615SOL    HW118613   5.294   2.748   8.509 -0.2202 -0.8821 -0.9096
 5615SOL    HW218614   5.186   2.644   8.534 -0.5071 -0.0206  1.6155
 5616SOL     OW18615   4.058   5.734   3.012 -0.0453  0.8292  0.4705
 5616SOL    HW118616   4.105   5.742   2.929 -0.1760 -0.1834  0.2895
 5616SOL    HW218617   4.126   5.713   3.076 -0.1297  0.1334  0.3447
 5617SOL     OW18618   3.122   3.454   5.355  0.2661  0.6429  0.1743
 5617SOL    HW118619   3.146   3.526   5.297  1.6008 -0.7597 -1.1259
 5617SOL    HW218620   3.198   3.396   5.353 -0.7757 -0.8228  1.1363
 5618SOL     OW18621   7.010   8.928   7.134  0.5531 -0.3174 -0.1162
 5618SOL    HW118622   6.931   8.924   7.080  0.9043  1.4962 -0.8490
 5618SOL    HW218623   7.071   8.867   7.092  0.1415 -0.4011 -0.6050
 5619SOL     OW18624   8.425   6.646   3.607  0.0451  0.1006 -0.1830
 5619SOL    HW118625   8.503   6.614   3.653  0.7095  1.0606 -0.6080
 5619SOL    HW218626   8.352   6.624   3.665  0.6833 -0.3791  0.4536
 5620SOL     OW18627   0.031   9.658   4.836 -0.2252  0.1509 -0.2505
 5620SOL    HW118628   0.051   9.688   4.925  0.8534  0.4744 -0.5836
 5620SOL    HW218629  -0.061   9.635   4.839 -0.5212  1.3258  0.6329
 5621SOL     OW18630   6.291   9.818   9.528  0.0963 -0.1252 -0.7567
 5621SOL    HW118631   6.246   9.736   9.507 -1.0648  0.4351 -0.5516
 5621SOL    HW218632   6.285   9.870   9.448  0.0283  0.1113 -0.5979
 5622SOL     OW18633   5.126   1.072   1.570  0.2598  0.4046 -0.2459
 5622SOL    HW118634   5.040   1.102   1.543  1.7367  3.3634 -2.1337
 5622SOL    HW218635   5.116   1.051   1.663 -2.5838 -0.0333 -0.5724
 5623SOL     OW18636   4.714   4.489   4.525  0.2355 -0.1514 -0.5852
 5623SOL    HW118637   4.740   4.403   4.492 -0.0805 -0.9569  1.1904
 5623SOL    HW218638   4.619   4.487   4.524  0.2263 -0.1506  0.2972
 5624SOL     OW18639   4.750   9.297   3.643  0.1887  0.6571 -0.3207
 5624SOL    HW118640   4.709   9.254   3.568  0.9819  2.2473 -1.7204
 5624SOL    HW218641   4.835   9.255   3.653 -0.3253 -0.2525  0.3690
 5625SOL     OW18642   0.167   4.244   0.177  0.5838  0.3381  0.1737
 5625SOL    HW118643   0.242   4.291   0.211  1.2658 -0.7738  0.2617
 5625SOL    HW218644   0.184   4.152   0.198 -1.0051  0.0900  0.5877
 5626SOL     OW18645   3.728   5.595   2.541 -0.6318  0.4026  0.1488
 5626SOL    HW118646   3.788   5.520   2.542  1.5324  1.9991 -1.3357
 5626SOL    HW218647   3.763   5.655   2.606 -2.2909  0.2291  1.2594
 5627SOL     OW18648   9.562   6.264   8.061  0.1418 -0.7152 -0.6079
 5627SOL    HW118649   9.587   6.202   7.993 -0.0907 -0.6379 -0.7648
 5627SOL    HW218650   9.490   6.313   8.023  0.3314 -0.3399 -0.4891
 5628SOL     OW18651   1.911   3.693   6.011  0.0587 -0.6020  0.0524
 5628SOL    HW118652   1.931   3.660   5.923 -2.4278 -1.4723 -0.2588
 5628SOL    HW218653   1.907   3.614   6.066  0.5623 -0.1661  0.7243
 5629SOL     OW18654   2.222   3.382   3.555  0.3804  0.7125 -0.3181
 5629SOL    HW118655   2.273   3.457   3.585 -0.5704  0.9611  0.7230
 5629SOL    HW218656   2.285   3.328   3.507  1.4173  1.4306  0.2056
 5630SOL     OW18657   4.631   4.467   7.831  0.2931 -0.0708  0.5615
 5630SOL    HW118658   4.627   4.502   7.742  0.6942  0.5120  0.7647
 5630SOL    HW218659   4.552   4.500   7.874 -1.3002 -2.4698 -0.2923
 5631SOL     OW18660   5.824   7.441   3.443  0.3229 -0.6183 -0.3430
 5631SOL    HW118661   5.869   7.524   3.460 -0.9945  0.2826 -0.9672
 5631SOL    HW218662   5.864   7.408   3.362 -1.4665  1.2806 -2.1450
 5632SOL     OW18663   4.707   4.506   6.676 -0.3246  0.3396  0.3235
 5632SOL    HW118664   4.612   4.508   6.687 -0.5326  1.7341 -1.2383
 5632SOL    HW218665   4.740   4.574   6.735 -0.5308  1.3033 -0.6343
 5633SOL     OW18666   5.650   2.505   9.661  0.2429 -0.3548  0.2137
 5633SOL    HW118667   5.702   2.425   9.669  1.7222  0.6411  1.2269
 5633SOL    HW218668   5.714   2.571   9.631  0.0733  1.3373  3.1916
 5634SOL     OW18669   5.868   1.494   6.224 -0.6511  0.6236  0.2216
 5634SOL    HW118670   5.820   1.413   6.243 -0.1408 -0.1644 -1.6289
 5634SOL    HW218671   5.843   1.553   6.295 -0.6265 -1.3081  1.9375
 5635SOL     OW18672   6.891   5.887   0.582  0.1281 -0.4748  0.5262
 5635SOL    HW118673   6.939   5.936   0.649 -0.5596  2.4073 -0.8806
 5635SOL    HW218674   6.881   5.799   0.618  3.8178 -0.4337  2.1244
 5636SOL     OW18675   1.582   1.138   0.588 -0.3035 -0.2707  0.2297
 5636SOL    HW118676   1.497   1.163   0.553  0.8736  2.5653 -0.9529
 5636SOL    HW218677   1.588   1.044   0.573 -2.4697 -0.2352 -1.3399
 5637SOL     OW18678   7.548   1.243   8.457 -0.1811 -0.0173  0.2673
 5637SOL    HW118679   7.532   1.278   8.544 -1.3032 -0.0593  0.0922
 5637SOL    HW218680   7.641   1.217   8.458 -0.2789 -0.3899  1.5748
 5638SOL     OW18681   6.840   3.812   2.142  0.7826 -0.0120 -0.2552
 5638SOL    HW118682   6.912   3.875   2.141 -0.7857  1.8613 -0.2688
 5638SOL    HW218683   6.767   3.858   2.101 -0.4505 -1.8526 -0.2566
 5639SOL     OW18684   3.145   3.283   6.021  0.7538  0.0726  0.2431
 5639SOL    HW118685   3.099   3.337   6.086 -2.2591  0.1638 -1.7487
 5639SOL    HW218686   3.094   3.202   6.016  3.0158 -1.4686  0.4706
 5640SOL     OW18687   4.959   5.109   9.654 -0.5179  0.1471 -0.4261
 5640SOL    HW118688   4.911   5.027   9.668  1.0693 -0.5861  1.0821
 5640SOL    HW218689   4.924   5.168   9.721  2.6894 -1.3921  2.9615
 5641SOL     OW18690   9.556   8.101   1.393 -0.1110 -0.0816 -0.0990
 5641SOL    HW118691   9.643   8.125   1.423  0.5990 -0.9090 -1.4180
 5641SOL    HW218692   9.531   8.170   1.332 -0.0718 -0.2099 -0.2622
 5642SOL     OW18693   5.712   5.515   2.974  0.1189 -0.2092  0.0267
 5642SOL    HW118694   5.785   5.557   2.929  0.0033  0.3288  0.3328
 5642SOL    HW218695   5.703   5.564   3.056 -2.4267  1.7002 -1.2203
 5643SOL     OW18696   9.679   4.858   2.763  0.6855  0.2879 -0.2823
 5643SOL    HW118697   9.612   4.805   2.806  1.3839  0.1777  0.6963
 5643SOL    HW218698   9.629   4.927   2.717 -0.1072  0.0598  0.2113
 5644SOL     OW18699   0.368   2.687   5.235 -0.5090 -0.0654 -0.7353
 5644SOL    HW118700   0.316   2.639   5.171 -1.2409  0.0890 -0.2583
 5644SOL    HW218701   0.346   2.779   5.219 -0.9850 -0.0481 -0.0137
 5645SOL     OW18702   1.792   0.410   4.381 -0.1661 -0.0130  0.3109
 5645SOL    HW118703   1.740   0.372   4.453  0.5120 -0.0747  0.7735
 5645SOL    HW218704   1.872   0.442   4.423 -0.0477  0.5472 -0.3178
 5646SOL     OW18705   7.017   2.408   7.356  0.2901  0.0679 -0.3832
 5646SOL    HW118706   7.094   2.464   7.344  0.2720 -0.0444 -1.0747
 5646SOL    HW218707   7.047   2.321   7.330  0.7666 -0.5813  2.1591
 5647SOL     OW18708   9.269   9.643   1.412 -0.3263  0.2497 -0.2253
 5647SOL    HW118709   9.270   9.554   1.376  0.2863 -0.0616  0.5422
 5647SOL    HW218710   9.273   9.631   1.507 -1.2350  1.0774 -0.0635
 5648SOL     OW18711   1.669   9.529   3.547 -0.8936 -0.8671 -0.2929
 5648SOL    HW118712   1.649   9.604   3.491  0.2494 -0.2546  0.0916
 5648SOL    HW218713   1.620   9.546   3.627 -0.9358 -0.7269 -0.3469
 5649SOL     OW18714   4.191   7.681   9.683  0.2097 -0.5211  0.5623
 5649SOL    HW118715   4.202   7.630   9.602 -1.7298  1.0376 -0.7778
 5649SOL    HW218716   4.241   7.761   9.668 -1.5043  0.5093  0.1626
 5650SOL     OW18717   1.014   7.404   1.132  0.0719  0.2521 -0.4141
 5650SOL    HW118718   0.998   7.485   1.180 -0.4356 -0.0903  0.0045
 5650SOL    HW218719   0.966   7.338   1.181  0.1948 -0.2413 -0.9573
 5651SOL     OW18720   2.543   8.745   9.551  0.4554 -0.2808 -0.1661
 5651SOL    HW118721   2.493   8.683   9.497  0.6878 -0.3032 -0.3589
 5651SOL    HW218722   2.632   8.740   9.516  1.4244 -2.7482  2.3210
 5652SOL     OW18723   8.662   3.091   1.132 -0.2363 -0.1355 -0.6287
 5652SOL    HW118724   8.720   3.116   1.061 -1.0657 -1.4008 -1.7857
 5652SOL    HW218725   8.710   3.025   1.181  0.3403  0.7468  0.0396
 5653SOL     OW18726   0.904   9.232   7.185 -0.6642  0.8662  0.0931
 5653SOL    HW118727   0.846   9.159   7.165  0.3482  0.5855 -2.0710
 5653SOL    HW218728   0.846   9.306   7.202 -1.6889  0.5319 -1.7357
 5654SOL     OW18729   0.444   9.646   7.666 -0.2695 -0.3225  0.2102
 5654SOL    HW118730   0.488   9.563   7.686 -0.8486 -1.4028 -2.4774
 5654SOL    HW218731   0.515   9.709   7.653  0.2049 -0.5599  1.4773
 5655SOL     OW18732   6.984   3.696   2.688 -0.1202  0.0395  0.1102
 5655SOL    HW118733   6.960   3.674   2.778  0.0055  1.1600  0.4328
 5655SOL    HW218734   7.042   3.625   2.660 -1.0526 -0.8961  0.5197
 5656SOL     OW18735   3.994   4.057   2.254 -0.5726  0.6850  0.1551
 5656SOL    HW118736   3.994   4.100   2.340 -1.4381 -0.5338  0.8111
 5656SOL    HW218737   4.063   3.991   2.260 -2.5527 -1.4913  1.1212
 5657SOL     OW18738   1.965   0.546   7.557 -0.8269  0.4316 -0.3817
 5657SOL    HW118739   2.059   0.545   7.574 -0.8537  0.3273 -0.2306
 5657SOL    HW218740   1.955   0.597   7.477 -0.7044  1.0648 -0.0057
 5658SOL     OW18741   3.185   5.197   7.004  0.7860 -0.0062  0.7248
 5658SOL    HW118742   3.217   5.133   7.067  1.6507 -0.3714 -0.0612
 5658SOL    HW218743   3.263   5.248   6.980  0.3860  0.4056  0.2802
 5659SOL     OW18744   8.448   8.309   5.753  0.3999 -0.3349 -0.0081
 5659SOL    HW118745   8.399   8.249   5.809 -0.3500  0.9849  0.8046
 5659SOL    HW218746   8.506   8.356   5.813 -0.2454  0.9417 -0.3665
 5660SOL     OW18747   0.350   7.251   2.258 -0.0589 -0.1588  0.4235
 5660SOL    HW118748   0.301   7.258   2.176  0.0058  0.8875  0.4497
 5660SOL    HW218749   0.441   7.240   2.231 -0.0774 -0.1558  0.3588
 5661SOL     OW18750   0.729   6.981   1.346 -0.1829 -0.5371 -0.7407
 5661SOL    HW118751   0.794   6.936   1.399  0.7291  0.5036 -0.9416
 5661SOL    HW218752   0.717   6.925   1.269  0.3442 -0.8163 -0.6214
 5662SOL     OW18753   6.347   8.007   4.010  0.3407  0.3146  0.3636
 5662SOL    HW118754   6.326   7.953   4.086  2.9415 -1.7966 -0.2556
 5662SOL    HW218755   6.424   8.057   4.036  0.8932  0.0289 -0.6499
 5663SOL     OW18756   4.758   2.239   1.379  0.1691 -0.5957 -0.2406
 5663SOL    HW118757   4.671   2.277   1.368  0.3298  0.2761  1.2396
 5663SOL    HW218758   4.772   2.190   1.298 -1.9804 -1.3553 -0.2336
 5664SOL     OW18759   7.069   5.319   1.513 -0.3159  0.1697  0.2816
 5664SOL    HW118760   7.101   5.266   1.586 -0.1365  0.6698  0.5776
 5664SOL    HW218761   7.149   5.346   1.467 -0.4917 -1.2405 -0.8991
 5665SOL     OW18762   5.631   2.646   6.110  0.1915 -0.2535 -0.1969
 5665SOL    HW118763   5.664   2.556   6.113 -0.6884 -0.5883 -0.1894
 5665SOL    HW218764   5.623   2.666   6.017  0.4578 -0.1540 -0.1993
 5666SOL     OW18765   1.695   0.981   9.780  0.2294  0.5002  0.5872
 5666SOL    HW118766   1.766   0.940   9.730 -1.6922 -1.2886 -0.8609
 5666SOL    HW218767   1.715   0.959   9.871  1.5108  0.0100  0.2139
 5667SOL     OW18768   1.467   8.713   4.265 -0.2298 -0.3229  0.1311
 5667SOL    HW118769   1.469   8.764   4.183 -1.1383  0.6167  0.6715
 5667SOL    HW218770   1.468   8.622   4.236 -1.2190 -0.0156 -0.9647
 5668SOL     OW18771   6.737   2.656   6.812 -0.1263 -0.1449  0.2698
 5668SOL    HW118772   6.755   2.737   6.765  1.2231 -0.3508  0.3757
 5668SOL    HW218773   6.654   2.624   6.777  0.3575  0.2155 -1.2419
 5669SOL     OW18774   7.174   6.810   1.773 -0.1495  0.0918  0.5152
 5669SOL    HW118775   7.098   6.821   1.715  0.0251 -1.0302  0.0453
 5669SOL    HW218776   7.138   6.810   1.861 -0.8378 -1.2823  0.2649
 5670SOL     OW18777   2.512   1.714   1.419 -0.2273 -0.0587  0.4665
 5670SOL    HW118778   2.556   1.702   1.503  1.1953  2.5377  0.2264
 5670SOL    HW218779   2.530   1.634   1.371  2.3757 -0.0470  1.2518
 5671SOL     OW18780   8.949   5.632   6.077 -0.2575  0.0794  0.2400
 5671SOL    HW118781   8.974   5.615   5.986 -2.3146  0.4498 -0.4447
 5671SOL    HW218782   8.910   5.719   6.075 -0.4367  0.0404  1.4521
 5672SOL     OW18783   1.222   3.740   8.318  0.1772  0.3773  0.2923
 5672SOL    HW118784   1.162   3.766   8.247  2.0913  0.3053 -1.4387
 5672SOL    HW218785   1.172   3.757   8.398 -1.5065  2.0259 -0.9954
 5673SOL     OW18786   5.581   3.123   1.896  0.1165  0.0578  0.1685
 5673SOL    HW118787   5.671   3.139   1.868  0.3207 -1.0182  0.1748
 5673SOL    HW218788   5.527   3.152   1.822  0.4012  1.6162  0.5500
 5674SOL     OW18789   1.024   8.656   3.179  0.6142  0.2694 -0.5502
 5674SOL    HW118790   0.949   8.620   3.131  0.7695  0.9031 -1.2952
 5674SOL    HW218791   1.066   8.716   3.116 -0.4101  2.8177  1.0572
 5675SOL     OW18792   7.108   4.476   5.141  0.3421 -0.1322 -0.5539
 5675SOL    HW118793   7.029   4.489   5.088  0.1828 -2.0172 -0.8535
 5675SOL    HW218794   7.084   4.405   5.201  2.2753 -1.9211 -1.7561
 5676SOL     OW18795   6.133   8.001   2.728 -0.0086 -0.3375 -0.0030
 5676SOL    HW118796   6.171   7.961   2.807 -1.2279  0.0015  0.7891
 5676SOL    HW218797   6.041   7.975   2.730 -0.0448 -0.3726 -1.3649
 5677SOL     OW18798   3.799   7.127   5.245 -0.3324  0.1523  0.0831
 5677SOL    HW118799   3.729   7.064   5.228  0.7384 -1.0266 -0.1287
 5677SOL    HW218800   3.864   7.110   5.177  1.0772 -0.1970  1.4422
 5678SOL     OW18801   7.813   7.551   8.416 -0.0409  0.1249  0.4862
 5678SOL    HW118802   7.859   7.623   8.372  0.3320 -0.1489  0.4209
 5678SOL    HW218803   7.838   7.473   8.367  1.6854 -0.4205  2.1041
 5679SOL     OW18804   7.065   7.925   8.041  0.4214 -0.9793 -0.0036
 5679SOL    HW118805   7.021   7.972   8.111  0.0475  0.6628 -1.2918
 5679SOL    HW218806   7.070   7.834   8.073  0.8089 -0.1927  2.3713
 5680SOL     OW18807   3.603   4.214   9.380  0.0810 -0.2008 -0.4491
 5680SOL    HW118808   3.522   4.264   9.368 -0.1352 -0.8285 -1.7445
 5680SOL    HW218809   3.662   4.248   9.313  0.6091 -0.3274 -0.0543
 5681SOL     OW18810   2.441   9.770   5.307 -0.7991  0.0496  0.0572
 5681SOL    HW118811   2.392   9.753   5.387  1.4506 -0.2600  1.4463
 5681SOL    HW218812   2.452   9.683   5.267  1.4938 -0.4438  1.5751
 5682SOL     OW18813   2.739   3.303   4.701 -0.3624 -0.2283  0.3943
 5682SOL    HW118814   2.683   3.240   4.747 -0.0035 -0.2899  0.7591
 5682SOL    HW218815   2.690   3.385   4.704 -0.1879 -0.1428  1.2222
 5683SOL     OW18816   2.400   4.167   6.318 -0.3522  0.4774  0.2564
 5683SOL    HW118817   2.492   4.155   6.340 -0.7099 -0.6027  1.1901
 5683SOL    HW218818   2.363   4.215   6.392 -0.6352  0.5408  0.0767
 5684SOL     OW18819   1.384   6.743   3.505  0.7450 -0.2064  0.3366
 5684SOL    HW118820   1.450   6.714   3.567  0.3598  0.5627  1.1194
 5684SOL    HW218821   1.304   6.750   3.556  0.0555 -1.0390 -0.5789
 5685SOL     OW18822   2.743   9.207   1.985 -0.0631 -1.1963 -0.3576
 5685SOL    HW118823   2.680   9.273   2.012 -0.2392 -2.1959  1.8700
 5685SOL    HW218824   2.690   9.128   1.973  0.5887 -1.7783  0.4986
 5686SOL     OW18825   0.805   9.282   3.467  0.7721 -0.0027 -0.6754
 5686SOL    HW118826   0.782   9.265   3.558  1.2927 -0.1106 -0.5592
 5686SOL    HW218827   0.723   9.310   3.426  0.6382  0.5203 -0.0600
 5687SOL     OW18828   2.021   0.745   7.374 -0.2150 -0.1429 -0.0916
 5687SOL    HW118829   2.028   0.710   7.285  1.2978 -0.4949  0.1400
 5687SOL    HW218830   2.104   0.792   7.388 -1.1651  1.4599  0.4940
 5688SOL     OW18831   9.096   6.256   2.341 -0.1191 -0.1358  0.4946
 5688SOL    HW118832   9.028   6.217   2.286 -0.4025  1.0875 -0.0579
 5688SOL    HW218833   9.177   6.246   2.291 -0.3378  0.7621 -0.0531
 5689SOL     OW18834   8.704   5.182   7.351  0.0795  0.0490  0.6711
 5689SOL    HW118835   8.619   5.139   7.358 -0.4593  1.1917  1.4820
 5689SOL    HW218836   8.691   5.253   7.288  1.0063 -1.0343 -0.7930
 5690SOL     OW18837   9.324   3.388   9.845 -0.3253 -0.2430 -0.0262
 5690SOL    HW118838   9.335   3.294   9.833 -0.0950 -0.5572  2.1508
 5690SOL    HW218839   9.242   3.397   9.893 -0.9884  0.7955 -1.2969
 5691SOL     OW18840   7.027   7.858   6.752 -0.6958 -0.7497 -0.1036
 5691SOL    HW118841   6.990   7.785   6.704 -0.5570 -0.4350 -0.6934
 5691SOL    HW218842   7.094   7.894   6.695 -0.6801 -0.2320  0.2247
 5692SOL     OW18843   3.367   8.861   8.722  0.1507 -0.2914  0.2081
 5692SOL    HW118844   3.332   8.791   8.776  0.3355 -0.1928  0.4629
 5692SOL    HW218845   3.356   8.831   8.632 -1.5154  0.1761  0.2318
 5693SOL     OW18846   9.029   1.574   7.881  0.0391  0.3025 -0.3074
 5693SOL    HW118847   9.061   1.653   7.836 -1.4358  0.3622 -1.3131
 5693SOL    HW218848   8.947   1.602   7.922  0.7188 -0.0988  1.4140
 5694SOL     OW18849   3.924   7.486   2.986  0.3524  0.2451 -0.1268
 5694SOL    HW118850   3.878   7.566   3.011 -0.1593 -0.1155  0.0962
 5694SOL    HW218851   3.995   7.516   2.930  0.3653  0.8896  0.2247
 5695SOL     OW18852   4.751   6.060   5.396 -0.4149 -0.0021 -0.4632
 5695SOL    HW118853   4.700   5.985   5.427 -1.1074  0.0455 -1.4140
 5695SOL    HW218854   4.839   6.026   5.383 -0.9427 -0.9430 -1.8365
 5696SOL     OW18855   1.391   3.691   2.209 -0.5443 -0.2955 -0.5972
 5696SOL    HW118856   1.412   3.758   2.274 -2.2753 -0.4120  0.1597
 5696SOL    HW218857   1.349   3.621   2.260 -1.0094 -0.8462 -1.6974
 5697SOL     OW18858   6.078   0.863   3.572 -0.7662  0.3168 -0.2338
 5697SOL    HW118859   6.136   0.939   3.566 -0.1602  0.0920  1.8909
 5697SOL    HW218860   5.992   0.900   3.591 -0.6510  0.5138 -0.0902
 5698SOL     OW18861   6.397   3.609   0.326 -0.0154  0.1726  0.0751
 5698SOL    HW118862   6.462   3.608   0.256 -1.1357  1.6601 -1.0343
 5698SOL    HW218863   6.443   3.648   0.400  0.1920  1.8912 -0.9165
 5699SOL     OW18864   1.543   3.445   1.348 -0.5569 -0.3011  0.1126
 5699SOL    HW118865   1.473   3.503   1.379 -1.4443  0.1623 -2.4982
 5699SOL    HW218866   1.617   3.466   1.404 -1.5155  1.7254  0.7481
 5700SOL     OW18867   6.617   6.677   1.005  0.4875  0.4269 -0.9095
 5700SOL    HW118868   6.526   6.694   1.030  0.1828  1.7999 -2.7143
 5700SOL    HW218869   6.653   6.764   0.985  2.1359 -0.1176 -0.5212
 5701SOL     OW18870   0.620   5.967   3.725  0.2302 -0.1371  0.4810
 5701SOL    HW118871   0.704   6.008   3.746  0.0186 -0.0179  1.1500
 5701SOL    HW218872   0.555   6.031   3.755 -0.1104 -1.0295  1.7274
 5702SOL     OW18873   0.658   8.311   6.179 -0.1321  0.6874  0.0234
 5702SOL    HW118874   0.618   8.273   6.257 -0.1328  0.9695  0.1572
 5702SOL    HW218875   0.699   8.236   6.135  1.8057  0.8507  1.4434
 5703SOL     OW18876   5.598   7.158   4.101 -0.2216 -0.1723  0.3094
 5703SOL    HW118877   5.557   7.145   4.015  0.3784  0.9319 -0.1608
 5703SOL    HW218878   5.690   7.173   4.082 -0.4561  2.4784  0.9004
 5704SOL     OW18879   5.507   3.054   4.975 -0.7230 -0.3283  0.2623
 5704SOL    HW118880   5.587   3.003   4.971 -0.0451  0.7584 -0.5448
 5704SOL    HW218881   5.473   3.053   4.885 -0.9030  0.2930  0.3168
 5705SOL     OW18882   8.547   3.347   3.758  0.1611 -0.1427 -0.4351
 5705SOL    HW118883   8.478   3.406   3.789  0.5230 -0.2195  0.5577
 5705SOL    HW218884   8.583   3.390   3.681 -0.5755  0.2021 -0.5984
 5706SOL     OW18885   6.398   3.018   6.926 -0.1490  0.0229 -0.5860
 5706SOL    HW118886   6.415   2.925   6.937 -2.6116 -0.5038 -0.7741
 5706SOL    HW218887   6.485   3.057   6.918  1.1948 -1.6863  3.3959
 5707SOL     OW18888   9.157   5.663   2.514  0.0199 -0.0357 -0.2771
 5707SOL    HW118889   9.086   5.703   2.564  0.3946  1.4007 -0.8688
 5707SOL    HW218890   9.223   5.641   2.580 -0.2857  0.0869  0.0759
 5708SOL     OW18891   4.702   2.736   6.934  0.0138 -0.1076  0.0338
 5708SOL    HW118892   4.711   2.646   6.966  0.8760  0.3495  1.1309
 5708SOL    HW218893   4.620   2.767   6.973 -0.3114 -0.4347 -0.3887
 5709SOL     OW18894   8.708   0.359   8.214  0.1636  0.1741  0.2565
 5709SOL    HW118895   8.614   0.342   8.209  0.0844  0.7947 -0.6906
 5709SOL    HW218896   8.716   0.443   8.257  0.3110 -0.0581  0.6897
 5710SOL     OW18897   9.775   5.183   9.389  0.1496 -0.0556  0.3433
 5710SOL    HW118898   9.714   5.110   9.381 -1.2122  0.8094  2.0441
 5710SOL    HW218899   9.826   5.164   9.468  1.8498 -0.5375 -0.8041
 5711SOL     OW18900   4.930   5.059   4.445 -0.0034  0.4267  0.1894
 5711SOL    HW118901   4.918   5.149   4.418 -2.7672 -0.0965 -0.5519
 5711SOL    HW218902   5.004   5.028   4.393  2.2030  2.6581  1.7268
 5712SOL     OW18903   5.816   3.063   9.212  0.4822  0.0269 -0.1224
 5712SOL    HW118904   5.910   3.050   9.200  0.0569 -1.0978 -2.8674
 5712SOL    HW218905   5.808   3.153   9.245  2.5169 -0.1958  1.1183
 5713SOL     OW18906   8.411   3.088   3.935 -0.6266 -0.0061  0.0685
 5713SOL    HW118907   8.496   3.131   3.921 -0.9650  0.2935 -1.2105
 5713SOL    HW218908   8.379   3.069   3.847 -1.2844 -1.3425  0.5729
 5714SOL     OW18909   0.483   1.142   6.082  0.4200 -0.5302 -0.0383
 5714SOL    HW118910   0.392   1.148   6.052  0.5832  1.7388 -0.2061
 5714SOL    HW218911   0.476   1.140   6.178  0.1524 -2.1507 -0.0636
 5715SOL     OW18912   6.067   8.487   0.982  0.5911  0.0068  0.0877
 5715SOL    HW118913   6.010   8.464   1.055  1.4932  0.1648  0.8626
 5715SOL    HW218914   6.155   8.488   1.019  0.9003  1.8556 -0.5717
 5716SOL     OW18915   6.086   4.587   8.846  0.1267  0.3364  0.2939
 5716SOL    HW118916   6.168   4.567   8.800  0.3318  0.1179  0.7446
 5716SOL    HW218917   6.098   4.677   8.878  0.4721  0.0706  0.9386
 5717SOL     OW18918   3.900   8.674   8.032  0.6411 -0.2544 -0.9436
 5717SOL    HW118919   3.811   8.657   8.062  0.1246  0.2465 -2.1363
 5717SOL    HW218920   3.891   8.743   7.967  2.0626  0.7562 -0.1370
 5718SOL     OW18921   8.220   5.839   6.753 -0.2565  0.3522  0.5269
 5718SOL    HW118922   8.179   5.753   6.763 -0.9398  0.2770 -2.2843
 5718SOL    HW218923   8.147   5.901   6.759 -0.1413  0.5482 -0.0884
 5719SOL     OW18924   5.579   8.740   5.632  0.5798  0.5226  0.2511
 5719SOL    HW118925   5.640   8.745   5.559  1.9902 -0.0960  1.3370
 5719SOL    HW218926   5.610   8.806   5.694  1.4860 -1.2078  1.7373
 5720SOL     OW18927   0.433   1.837   1.612 -0.2053  1.0957 -0.1840
 5720SOL    HW118928   0.527   1.825   1.596 -0.2804  0.8318 -0.4345
 5720SOL    HW218929   0.421   1.932   1.612  0.2652  1.1698  1.0320
 5721SOL     OW18930   9.673   0.850   9.845 -0.7917  0.0600  0.7080
 5721SOL    HW118931   9.711   0.885   9.764 -2.1231  1.1037  0.5079
 5721SOL    HW218932   9.632   0.925   9.887 -2.2934 -0.9338  1.1045
 5722SOL     OW18933   1.885   3.737   6.373 -0.4629 -0.5398  0.8341
 5722SOL    HW118934   1.888   3.789   6.293  1.9168  0.7339  1.6702
 5722SOL    HW218935   1.823   3.783   6.430 -2.2489 -1.5100 -0.2225
 5723SOL     OW18936   4.760   2.344   0.643 -0.1771  0.3804  0.4222
 5723SOL    HW118937   4.822   2.416   0.656 -0.1607  0.5223 -0.3624
 5723SOL    HW218938   4.691   2.360   0.707  0.5294  0.2884  1.2292
 5724SOL     OW18939   9.732   5.285   7.105  0.3557 -0.1271  0.0960
 5724SOL    HW118940   9.710   5.378   7.114 -0.0120 -0.0507 -1.3455
 5724SOL    HW218941   9.751   5.274   7.012  2.2818 -1.1054  0.5578
 5725SOL     OW18942   6.093   1.782   8.710  0.3611  0.3286 -0.4334
 5725SOL    HW118943   6.187   1.797   8.702  0.1269  0.8751 -3.8882
 5725SOL    HW218944   6.082   1.690   8.686  0.0498  0.1036  0.5533
 5726SOL     OW18945   6.502   6.598   2.997 -0.2714  0.2048  0.0015
 5726SOL    HW118946   6.543   6.635   3.075 -1.5710 -0.7996  1.2050
 5726SOL    HW218947   6.575   6.578   2.939  0.6926  1.3647  0.7793
 5727SOL     OW18948   9.497   5.478   3.956 -0.3086 -0.1956 -0.1681
 5727SOL    HW118949   9.472   5.485   3.864 -0.9921 -1.6638 -0.1175
 5727SOL    HW218950   9.417   5.452   4.001  0.1979 -0.2523  0.7288
 5728SOL     OW18951   0.299   3.729   2.756  0.0270  0.7027  0.0987
 5728SOL    HW118952   0.266   3.709   2.668  0.2385 -1.7240  0.5040
 5728SOL    HW218953   0.220   3.732   2.811  0.0220  0.7594  0.0893
 5729SOL     OW18954   0.864   1.782   6.724 -0.0964  0.0573  0.0848
 5729SOL    HW118955   0.784   1.731   6.740 -0.4895  1.0253  1.3380
 5729SOL    HW218956   0.931   1.737   6.775 -0.2059  0.1897  0.3457
 5730SOL     OW18957   4.108   2.006   0.598  0.3780 -0.2050  0.4016
 5730SOL    HW118958   4.025   1.980   0.638  0.2781 -0.0118  0.3242
 5730SOL    HW218959   4.174   1.951   0.640 -0.0670 -2.1429 -1.2619
 5731SOL     OW18960   0.199   6.141   6.000  0.4866  0.1681  0.3243
 5731SOL    HW118961   0.127   6.082   5.980  0.5682 -0.3139  1.3710
 5731SOL    HW218962   0.163   6.229   5.988  0.3900 -0.0705 -1.3281
 5732SOL     OW18963   4.032   0.270   1.344 -0.1130 -0.1068  0.3918
 5732SOL    HW118964   3.954   0.221   1.319  1.7101 -2.5558 -0.9968
 5732SOL    HW218965   4.048   0.246   1.436 -1.0912  0.5938  0.7530
 5733SOL     OW18966   3.707   2.047   6.900 -0.2676 -0.4525  0.0714
 5733SOL    HW118967   3.651   2.056   6.823 -0.3987 -1.2902  0.0598
 5733SOL    HW218968   3.788   2.090   6.876 -1.1700  1.5298  0.3836
 5734SOL     OW18969   3.190   4.523   6.662  0.2527 -0.1803  0.1343
 5734SOL    HW118970   3.211   4.479   6.745  0.3235  0.0727  0.2515
 5734SOL    HW218971   3.108   4.569   6.679  0.6441  0.4822  0.3005
 5735SOL     OW18972   4.435   5.386   1.125  0.2010 -0.2870 -0.4129
 5735SOL    HW118973   4.416   5.454   1.190  0.2283 -0.7563  0.0963
 5735SOL    HW218974   4.381   5.409   1.050 -0.2841 -0.0666 -0.0026
 5736SOL     OW18975   5.395   7.705   0.089  0.0911 -0.0104  0.1606
 5736SOL    HW118976   5.332   7.642   0.124  0.1011  0.0834  0.3501
 5736SOL    HW218977   5.481   7.669   0.112  0.0930  0.1888  0.4806
 5737SOL     OW18978   3.015   0.440   0.156 -0.5711  0.6123  0.1307
 5737SOL    HW118979   3.041   0.356   0.119 -0.2688  0.5600  0.4506
 5737SOL    HW218980   2.926   0.454   0.125 -0.9020 -0.1806  0.6962
 5738SOL     OW18981   7.661   2.751   2.095 -0.1821 -0.1144  0.1771
 5738SOL    HW118982   7.615   2.815   2.042  0.8802 -0.6827 -1.5306
 5738SOL    HW218983   7.597   2.681   2.110 -0.4100 -0.1081 -0.6977
 5739SOL     OW18984   6.408   0.032   7.232 -0.0989 -0.4533  0.1455
 5739SOL    HW118985   6.435  -0.003   7.317 -0.9407  0.8450  0.9818
 5739SOL    HW218986   6.347  -0.033   7.198  0.4616 -1.1252  0.3867
 5740SOL     OW18987   9.077   5.798   1.427 -0.0549  0.1202 -0.1297
 5740SOL    HW118988   9.167   5.780   1.452 -0.0346 -0.6104 -0.7266
 5740SOL    HW218989   9.027   5.724   1.462 -0.2764 -0.0017 -0.7034
 5741SOL     OW18990   5.848   1.891   6.221 -0.7593 -0.9407  0.4647
 5741SOL    HW118991   5.868   1.821   6.284 -0.6071 -0.6053  0.7927
 5741SOL    HW218992   5.777   1.941   6.262  2.0360  1.8316  2.4121
 5742SOL     OW18993   3.770   6.431   2.909  0.5621  0.3982 -0.0299
 5742SOL    HW118994   3.794   6.422   3.001  0.0207  1.9527  0.2954
 5742SOL    HW218995   3.850   6.460   2.865  0.8874 -0.5867 -0.1174
 5743SOL     OW18996   6.086   9.306   7.291 -0.3000 -0.6642 -0.4323
 5743SOL    HW118997   6.139   9.316   7.213 -0.3273  1.2908 -0.2617
 5743SOL    HW218998   6.063   9.396   7.316 -0.6228 -1.2467  1.5833
 5744SOL     OW18999   6.052   3.607   1.958  0.1685  0.0997  0.1678
 5744SOL    HW119000   6.107   3.583   2.032 -2.4888 -3.0550  1.3816
 5744SOL    HW219001   5.971   3.640   1.997 -1.7082 -2.5898 -1.0739
 5745SOL     OW19002   5.173   6.723   7.220 -0.1362 -0.1092  0.3466
 5745SOL    HW119003   5.205   6.760   7.303  0.3215 -2.7343  1.4245
 5745SOL    HW219004   5.083   6.756   7.213  0.0862  0.8049  1.4530
 5746SOL     OW19005   1.139   6.639   8.395  0.0495 -0.0811 -0.0577
 5746SOL    HW119006   1.115   6.693   8.319  0.8731  0.7928  0.2843
 5746SOL    HW219007   1.056   6.621   8.439 -0.3351  0.1685 -0.6688
 5747SOL     OW19008   8.630   0.949   3.840 -0.0639 -0.6382 -0.4273
 5747SOL    HW119009   8.628   0.937   3.745  1.8438  0.9528 -0.7344
 5747SOL    HW219010   8.712   0.908   3.868 -1.5334 -2.8776  0.8929
 5748SOL     OW19011   0.715   6.698   5.478 -0.2034  0.0719  0.0892
 5748SOL    HW119012   0.800   6.675   5.517 -0.8934 -0.3450  1.3977
 5748SOL    HW219013   0.678   6.762   5.538 -0.9048  0.0948 -0.3596
 5749SOL     OW19014   9.307   2.675   9.631 -0.1849  0.1870 -0.0716
 5749SOL    HW119015   9.400   2.672   9.610  0.1154  0.5728  1.1493
 5749SOL    HW219016   9.301   2.644   9.721 -1.1381  0.9154  0.1382
 5750SOL     OW19017   1.685   7.605   2.353 -0.7842 -0.1457  0.2247
 5750SOL    HW119018   1.616   7.644   2.300 -0.1642  0.0878 -0.4316
 5750SOL    HW219019   1.653   7.610   2.443 -0.6361  2.1070  0.2063
 5751SOL     OW19020   3.383   3.152   5.154 -0.8993 -0.2023 -0.0280
 5751SOL    HW119021   3.376   3.072   5.206  1.8419  0.5605  1.7307
 5751SOL    HW219022   3.459   3.137   5.097  0.0686  1.3279  0.8003
 5752SOL     OW19023   9.417   5.514   7.903  0.1707  0.5027 -0.6221
 5752SOL    HW119024   9.385   5.426   7.887 -0.1543  0.6765 -0.9562
 5752SOL    HW219025   9.512   5.505   7.908  0.0489 -0.1961  1.4882
 5753SOL     OW19026   0.937   7.596   4.805  0.2645  0.0299 -0.1111
 5753SOL    HW119027   0.901   7.678   4.838 -1.5670 -0.5161 -0.6278
 5753SOL    HW219028   0.883   7.576   4.728  1.8471 -0.7470 -1.0735
 5754SOL     OW19029   5.107   2.765   0.745  0.0641 -0.8273  0.1630
 5754SOL    HW119030   5.203   2.758   0.752  0.2977  1.8636  1.1151
 5754SOL    HW219031   5.075   2.747   0.833 -0.0667  0.4365  0.3915
 5755SOL     OW19032   0.109   3.064   1.089 -0.1194  0.7830 -0.0702
 5755SOL    HW119033   0.101   3.118   1.168 -0.4127  0.5595  0.0544
 5755SOL    HW219034   0.196   3.024   1.096 -1.1932 -1.5394  1.6392
 5756SOL     OW19035   5.049   6.839   3.642 -0.3440 -0.3820  0.6454
 5756SOL    HW119036   5.053   6.821   3.548 -1.2650 -0.7736  0.6685
 5756SOL    HW219037   5.141   6.845   3.669 -0.0670 -0.4577 -0.2380
 5757SOL     OW19038   7.545   7.062   1.699 -0.1742  0.2687 -0.1655
 5757SOL    HW119039   7.482   7.119   1.654 -0.3769  0.9333  0.9104
 5757SOL    HW219040   7.504   6.976   1.699 -0.7786  0.5469 -0.0817
 5758SOL     OW19041   9.762   1.291   7.277  0.1164 -0.2978  0.3793
 5758SOL    HW119042   9.708   1.370   7.288 -0.0542 -0.0247 -1.9501
 5758SOL    HW219043   9.820   1.312   7.205  1.0215 -1.8457  0.6204
 5759SOL     OW19044   4.273   8.485   0.824  0.5730  0.5318  0.2145
 5759SOL    HW119045   4.350   8.538   0.844  1.1177  0.0471 -0.5628
 5759SOL    HW219046   4.216   8.497   0.900  2.1797 -0.5239  1.6651
 5760SOL     OW19047   2.934   3.319   6.732  0.1493  0.1589 -0.1060
 5760SOL    HW119048   2.956   3.238   6.779  1.2168 -0.0987 -1.0299
 5760SOL    HW219049   2.870   3.292   6.667 -0.4958  0.3173  0.4467
 5761SOL     OW19050   5.744   9.464   0.540 -0.3162  0.3428 -0.5226
 5761SOL    HW119051   5.652   9.489   0.544 -0.0331  1.3280  0.3501
 5761SOL    HW219052   5.788   9.538   0.498 -0.2571 -1.2688 -3.6250
 5762SOL     OW19053   2.839   6.919   4.826 -0.0129  0.1606  0.1995
 5762SOL    HW119054   2.915   6.976   4.814  1.2950 -1.5364  0.2076
 5762SOL    HW219055   2.818   6.888   4.738 -1.0735  1.0290  0.1167
 5763SOL     OW19056   0.878   0.741   9.677 -0.1664 -0.3409  0.0868
 5763SOL    HW119057   0.972   0.744   9.697 -0.1726 -0.4818  0.1432
 5763SOL    HW219058   0.846   0.664   9.726 -0.4242  0.0534  0.5465
 5764SOL     OW19059   5.563   8.784   4.764 -0.3410 -0.2730 -0.0742
 5764SOL    HW119060   5.513   8.853   4.721  0.7250  1.0551  0.7472
 5764SOL    HW219061   5.504   8.750   4.832 -0.6577  0.2376 -0.0944
 5765SOL     OW19062   9.687   0.553   9.837 -0.0411  0.3375  0.2116
 5765SOL    HW119063   9.691   0.641   9.875  0.9008  0.4397 -0.0760
 5765SOL    HW219064   9.607   0.553   9.785 -0.1950  0.9330  0.4387
 5766SOL     OW19065   9.504   2.046   9.733  0.2685  0.4276  0.5315
 5766SOL    HW119066   9.438   1.976   9.732 -0.3227  0.9760  0.3613
 5766SOL    HW219067   9.572   2.013   9.792  2.7712 -2.7277 -3.5895
 5767SOL     OW19068   0.416   6.489   2.073 -0.4765 -0.2481  0.3980
 5767SOL    HW119069   0.342   6.541   2.102  0.4183  0.9316  0.6276
 5767SOL    HW219070   0.380   6.401   2.059 -1.7666  0.1468  1.1232
 5768SOL     OW19071   8.455   8.406   6.271 -0.0199  0.0942  0.0721
 5768SOL    HW119072   8.389   8.388   6.204  0.3956  1.3073 -0.6909
 5768SOL    HW219073   8.514   8.331   6.267 -0.4784 -0.2534 -0.3176
 5769SOL     OW19074   6.205   1.160   6.190  0.6176 -0.3742  0.1917
 5769SOL    HW119075   6.271   1.221   6.222  1.0551 -1.5563  1.6555
 5769SOL    HW219076   6.126   1.181   6.240  0.4836 -0.3514 -0.0270
 5770SOL     OW19077   8.646   5.635   3.828  0.2044 -0.2807  0.4985
 5770SOL    HW119078   8.587   5.710   3.835 -1.5245 -1.2955 -1.7175
 5770SOL    HW219079   8.667   5.630   3.735  1.2468 -1.8570  0.7777
 5771SOL     OW19080   5.132   2.886   7.765 -0.4587 -0.7856 -0.7353
 5771SOL    HW119081   5.150   2.893   7.859 -0.1759 -0.7896 -0.7889
 5771SOL    HW219082   5.088   2.801   7.755  1.1644 -1.6525 -0.8518
 5772SOL     OW19083   1.528   6.834   4.653 -0.0205 -0.3984  0.5847
 5772SOL    HW119084   1.449   6.889   4.657  0.5522  0.4488  0.5506
 5772SOL    HW219085   1.495   6.744   4.658 -1.1632 -0.1533 -1.3900
 5773SOL     OW19086   8.133   8.366   4.417  0.1340 -0.1940  0.0694
 5773SOL    HW119087   8.146   8.386   4.509  0.0658 -1.9184  0.4914
 5773SOL    HW219088   8.219   8.339   4.385 -0.2169 -1.4819  0.1564
 5774SOL     OW19089   4.290   8.056   0.885 -0.0830 -0.4516  0.5896
 5774SOL    HW119090   4.235   8.122   0.842 -0.5591  0.1110  2.0018
 5774SOL    HW219091   4.306   8.092   0.972  0.1547 -1.9385  1.1823
 5775SOL     OW19092   8.950   9.038   8.905  0.6839 -0.1731  0.1457
 5775SOL    HW119093   9.038   9.062   8.934  0.3330  0.0920  1.0063
 5775SOL    HW219094   8.903   9.014   8.985  0.2104 -1.1237 -0.3974
 5776SOL     OW19095   0.416   3.734   6.937  0.8771  0.2819 -0.2211
 5776SOL    HW119096   0.329   3.732   6.897  0.7433  1.1324  0.0132
 5776SOL    HW219097   0.456   3.815   6.904  0.4148  1.5027  2.0355
 5777SOL     OW19098   2.986   9.778   2.237 -0.4167 -0.6332 -0.2990
 5777SOL    HW119099   3.002   9.689   2.205  3.6911  0.5242 -2.0774
 5777SOL    HW219100   3.022   9.778   2.326 -0.3241 -0.7336 -0.3357
 5778SOL     OW19101   7.739   2.529   1.154  0.0645 -0.2281 -0.5023
 5778SOL    HW119102   7.713   2.439   1.174 -0.1807 -0.0620 -0.0628
 5778SOL    HW219103   7.658   2.573   1.128  0.1443 -0.0767 -0.4985
 5779SOL     OW19104   1.665   4.659   6.623 -0.1466 -0.0269 -0.0105
 5779SOL    HW119105   1.623   4.582   6.661 -0.7195  0.0647 -0.4468
 5779SOL    HW219106   1.647   4.730   6.685 -0.4862 -0.0259 -0.1106
 5780SOL     OW19107   1.552   2.042   2.490  0.2842  0.0230 -0.4876
 5780SOL    HW119108   1.583   2.078   2.573  0.2250  0.2157 -0.5466
 5780SOL    HW219109   1.502   2.114   2.450  0.4015 -0.0330 -0.7369
 5781SOL     OW19110   0.073   5.783   6.518 -0.1282  0.4381 -0.7268
 5781SOL    HW119111   0.006   5.820   6.461 -0.0458  0.4184 -0.8380
 5781SOL    HW219112   0.026   5.760   6.599 -0.6337 -1.1880 -1.4292
 5782SOL     OW19113   3.376   3.401   2.247  0.2640 -0.3566 -0.0828
 5782SOL    HW119114   3.430   3.425   2.322 -2.5047  2.1366  1.2823
 5782SOL    HW219115   3.335   3.318   2.274  0.0191  0.0261  0.7624
 5783SOL     OW19116   6.753   9.445   3.721 -0.0014  0.0780  0.3528
 5783SOL    HW119117   6.778   9.390   3.647 -1.2391  0.3519 -0.3020
 5783SOL    HW219118   6.836   9.470   3.762  0.8167  1.0337 -1.7655
 5784SOL     OW19119   4.645   6.184   5.884  0.1261  1.0080 -0.4357
 5784SOL    HW119120   4.595   6.139   5.816  0.3358 -0.3036  0.2334
 5784SOL    HW219121   4.723   6.129   5.896 -0.0853  0.9973  1.1077
 5785SOL     OW19122   9.238   5.676   2.232 -0.3095  0.2251 -0.1999
 5785SOL    HW119123   9.210   5.692   2.322  1.5528 -0.0328  0.4753
 5785SOL    HW219124   9.202   5.590   2.210  2.1188 -1.4006  1.6494
 5786SOL     OW19125   7.918   1.659   8.232 -0.0180 -0.3119 -0.0188
 5786SOL    HW119126   7.838   1.664   8.285 -0.5481 -1.2675 -0.7031
 5786SOL    HW219127   7.925   1.746   8.192 -0.7122 -0.2134  0.0577
 5787SOL     OW19128   1.018   2.022   9.335  0.5262 -0.7474 -0.0259
 5787SOL    HW119129   1.091   2.045   9.278 -1.5056 -0.4250 -2.6498
 5787SOL    HW219130   0.967   2.103   9.342 -0.4093 -1.3636  0.4779
 5788SOL     OW19131   3.399   2.387   1.439  0.3289 -0.3876  0.6651
 5788SOL    HW119132   3.483   2.348   1.463  1.0657  0.2720 -0.7695
 5788SOL    HW219133   3.420   2.453   1.374 -1.4819 -1.7587 -1.4875
 5789SOL     OW19134   2.671   6.213   8.293 -0.0637  0.0830  0.2341
 5789SOL    HW119135   2.752   6.198   8.343 -0.5389 -1.8960  0.4930
 5789SOL    HW219136   2.646   6.303   8.315  2.3620  0.9947 -0.3378
 5790SOL     OW19137   2.801   5.410   2.311  0.7930 -0.1827  0.6502
 5790SOL    HW119138   2.707   5.419   2.296  0.6647  3.8202  2.4059
 5790SOL    HW219139   2.839   5.400   2.223 -1.1692 -0.0576 -0.2618
 5791SOL     OW19140   9.187   5.252   6.798  0.5448 -0.0080 -0.1480
 5791SOL    HW119141   9.139   5.207   6.868  0.3886  1.9766  1.1013
 5791SOL    HW219142   9.277   5.254   6.830  0.4039  1.2459  0.2118
 5792SOL     OW19143   5.917   0.344   8.236  0.1572 -0.4474  0.1163
 5792SOL    HW119144   5.856   0.418   8.235 -0.4089 -0.8776  1.2848
 5792SOL    HW219145   5.980   0.365   8.167 -0.5279  0.6644 -0.2109
 5793SOL     OW19146   0.057   2.107   2.953  0.6039  0.5832 -0.1626
 5793SOL    HW119147   0.101   2.137   2.874 -0.0194  0.4462 -0.5674
 5793SOL    HW219148  -0.014   2.051   2.922  0.5610  0.2525  0.5081
 5794SOL     OW19149   8.735   3.312   9.536 -0.0543 -0.0389 -0.2590
 5794SOL    HW119150   8.681   3.386   9.509 -1.8562 -1.4890 -0.8645
 5794SOL    HW219151   8.726   3.309   9.631 -2.4902 -1.1849 -0.4277
 5795SOL     OW19152   7.984   1.677   0.777  0.2326  0.3004 -0.3230
 5795SOL    HW119153   8.018   1.626   0.703 -0.0756  1.7790 -1.5599
 5795SOL    HW219154   7.890   1.661   0.776  0.3163 -0.2209  0.1906
 5796SOL     OW19155   2.074   7.612   2.577  0.0361 -0.5277 -0.1239
 5796SOL    HW119156   2.104   7.568   2.657 -0.7462 -0.7084  0.0716
 5796SOL    HW219157   2.031   7.544   2.527 -0.1320 -0.2456 -0.3655
 5797SOL     OW19158   8.810   7.473   6.849  0.2508  0.0507  1.0255
 5797SOL    HW119159   8.769   7.538   6.906  1.7216  1.4240  0.5835
 5797SOL    HW219160   8.894   7.454   6.890  1.3707  1.1100 -0.6376
 5798SOL     OW19161   7.197   3.607   0.065  0.4442 -0.3001 -0.4382
 5798SOL    HW119162   7.250   3.602   0.145  1.3639  0.7350 -0.9625
 5798SOL    HW219163   7.256   3.642  -0.001 -0.1800 -1.5572 -1.7128
 5799SOL     OW19164   6.612   6.392   5.924  0.2459 -0.2245 -0.2263
 5799SOL    HW119165   6.609   6.301   5.895 -0.3552  0.2623 -1.7812
 5799SOL    HW219166   6.684   6.431   5.875  0.2463  0.2467  0.1301
 5800SOL     OW19167   1.183   4.685   5.621  0.1999  0.1469 -0.3648
 5800SOL    HW119168   1.132   4.761   5.648  0.6868 -0.1577  1.5795
 5800SOL    HW219169   1.269   4.698   5.660 -0.1862 -2.1538  1.4723
 5801SOL     OW19170   8.080   8.980   7.592  0.2999 -0.4803  0.0711
 5801SOL    HW119171   7.988   8.971   7.568  0.6174  1.8344 -2.5293
 5801SOL    HW219172   8.128   8.934   7.522  1.1211  0.4946 -0.0439
 5802SOL     OW19173   7.374   8.198   4.634 -0.2500 -0.5128 -0.0206
 5802SOL    HW119174   7.465   8.190   4.663 -0.0243 -1.4367 -0.9245
 5802SOL    HW219175   7.354   8.113   4.596 -1.0104  0.1608 -1.1701
 5803SOL     OW19176   9.595   1.545   6.196 -0.0986 -0.4688  0.4255
 5803SOL    HW119177   9.562   1.456   6.212 -2.2019 -0.2273 -1.9682
 5803SOL    HW219178   9.648   1.536   6.117  0.7953  0.2041  0.9384
 5804SOL     OW19179   9.146   6.675   6.820 -0.0299 -0.2249  0.2508
 5804SOL    HW119180   9.206   6.630   6.879  0.1255 -0.3098  0.0295
 5804SOL    HW219181   9.117   6.752   6.868  2.3413  1.3202 -0.6285
 5805SOL     OW19182   4.576   8.513   2.655  0.7953 -0.5444 -0.1854
 5805SOL    HW119183   4.642   8.555   2.711  1.3506 -0.5834 -0.8058
 5805SOL    HW219184   4.585   8.420   2.675  0.0851 -0.4568  0.6238
 5806SOL     OW19185   8.863   2.501   7.858 -0.0691  0.1587  0.1608
 5806SOL    HW119186   8.911   2.427   7.820 -3.1166 -1.4358 -0.9348
 5806SOL    HW219187   8.871   2.571   7.793  1.9809  0.5266  0.7331
 5807SOL     OW19188   6.683   9.233   7.242 -0.5391  0.6720  0.3444
 5807SOL    HW119189   6.726   9.149   7.256 -3.8166 -1.4300 -0.8890
 5807SOL    HW219190   6.649   9.258   7.329 -0.8979 -0.1333  0.4419
 5808SOL     OW19191   7.674   1.459   4.579  0.0203 -0.0353 -0.0908
 5808SOL    HW119192   7.679   1.467   4.484  0.1981 -1.4981 -0.2319
 5808SOL    HW219193   7.650   1.368   4.594 -0.3253  0.2598  1.2673
 5809SOL     OW19194   5.214   9.693   3.455  0.5787  0.4338 -0.2378
 5809SOL    HW119195   5.297   9.719   3.417  0.6442 -0.5801 -0.8091
 5809SOL    HW219196   5.236   9.624   3.517  0.2101  0.4596 -0.0722
 5810SOL     OW19197   2.481   6.101   7.606  0.1674 -0.3272 -0.2839
 5810SOL    HW119198   2.533   6.066   7.679 -0.6387 -2.4592 -0.6523
 5810SOL    HW219199   2.436   6.178   7.643 -0.2168 -1.3411  1.4940
 5811SOL     OW19200   7.811   3.235   9.420 -0.3805  0.3774  0.3870
 5811SOL    HW119201   7.897   3.267   9.392 -0.7375  0.9666 -0.0583
 5811SOL    HW219202   7.811   3.143   9.397  0.5719  0.0745  1.4464
 5812SOL     OW19203   2.267   0.919   9.096  0.7155  0.3863 -0.0897
 5812SOL    HW119204   2.283   1.011   9.119  0.4390 -0.2016  2.9339
 5812SOL    HW219205   2.315   0.869   9.162 -0.0305 -1.6350 -0.9941
 5813SOL     OW19206   0.497   8.022   5.052  0.6305  0.0570  0.4424
 5813SOL    HW119207   0.436   7.982   4.989  1.7195  0.6403 -1.0521
 5813SOL    HW219208   0.551   7.948   5.082  0.4709 -0.1403  0.2534
 5814SOL     OW19209   1.010   1.570   8.366 -0.4235 -0.0204  0.2525
 5814SOL    HW119210   1.030   1.659   8.336 -0.9932  0.2995  0.8068
 5814SOL    HW219211   1.029   1.515   8.290 -1.7797  0.7619 -0.6858
 5815SOL     OW19212   0.634   0.097   9.378 -0.2506  0.2366 -0.4286
 5815SOL    HW119213   0.642   0.177   9.325 -1.2913  0.9381  0.4251
 5815SOL    HW219214   0.565   0.117   9.441  0.0826 -1.0336  0.3762
 5816SOL     OW19215   6.895   7.891   1.778  0.1471  0.2246  0.5867
 5816SOL    HW119216   6.949   7.904   1.700  0.1143  3.3647  0.9387
 5816SOL    HW219217   6.806   7.909   1.748  0.1347  1.4419  1.2952
 5817SOL     OW19218   6.505   7.463   6.322 -0.3996  0.5842  0.1261
 5817SOL    HW119219   6.555   7.470   6.404 -1.1347  0.9732  0.5493
 5817SOL    HW219220   6.416   7.488   6.346 -1.3843 -2.3690 -0.0827
 5818SOL     OW19221   8.711   5.760   0.414  0.5655 -0.4914 -0.4062
 5818SOL    HW119222   8.784   5.814   0.385 -0.5320  1.3910  0.1444
 5818SOL    HW219223   8.638   5.788   0.359  0.1968 -2.2250 -0.8433
 5819SOL     OW19224   6.172   5.603   2.217  0.2848 -0.2838  0.5698
 5819SOL    HW119225   6.117   5.559   2.153 -0.5208  0.9835  0.3495
 5819SOL    HW219226   6.142   5.570   2.302 -0.7956  0.3397  0.4475
 5820SOL     OW19227   3.827   2.957   1.272  0.0029  0.1848 -0.6180
 5820SOL    HW119228   3.806   2.864   1.276 -1.4971  0.4750  3.5970
 5820SOL    HW219229   3.743   3.001   1.266  0.4422  1.2447  0.5182
 5821SOL     OW19230   2.228   6.411   9.072 -0.3482  1.0050 -0.5687
 5821SOL    HW119231   2.248   6.370   9.157 -0.1098  0.0586 -1.0744
 5821SOL    HW219232   2.200   6.338   9.016 -1.6032  1.7694 -0.9868
 5822SOL     OW19233   2.219   9.063   4.030  0.4351 -0.0097 -0.2277
 5822SOL    HW119234   2.280   9.004   4.075 -0.1359  0.1973  0.8574
 5822SOL    HW219235   2.227   9.040   3.938 -1.2543 -3.2780  0.2820
 5823SOL     OW19236   5.057   5.743   3.913  0.2071  0.3732 -0.0041
 5823SOL    HW119237   5.110   5.774   3.839  0.9145 -1.1695 -0.1920
 5823SOL    HW219238   5.045   5.820   3.968  3.6141  0.6487  0.5941
 5824SOL     OW19239   0.067   9.405   6.123 -0.8169  0.5495  0.1796
 5824SOL    HW119240   0.158   9.432   6.115 -0.0600 -0.4011  3.7056
 5824SOL    HW219241   0.017   9.479   6.088  1.2928  2.6311  1.2704
 5825SOL     OW19242   0.305   4.031   7.523  0.0758 -0.2099  0.2787
 5825SOL    HW119243   0.216   4.066   7.520 -0.5368 -1.1778  3.3727
 5825SOL    HW219244   0.295   3.938   7.504  0.9272  0.1305 -2.2619
 5826SOL     OW19245   7.310   2.863   3.794  0.2868 -0.2211  0.2041
 5826SOL    HW119246   7.350   2.837   3.710  0.0300  0.7336 -0.2214
 5826SOL    HW219247   7.234   2.915   3.769  0.8925  1.1067  1.0280
 5827SOL     OW19248   6.028   3.930   3.962  0.0530 -0.5544  0.4168
 5827SOL    HW119249   6.094   3.934   4.031  0.2484  0.6805  0.1746
 5827SOL    HW219250   5.980   3.849   3.980  2.5908 -2.3667 -0.2851
 5828SOL     OW19251   3.512   1.154   1.564 -0.0260  0.1525  0.0722
 5828SOL    HW119252   3.452   1.094   1.607 -0.0500 -0.5932 -0.9819
 5828SOL    HW219253   3.593   1.147   1.615 -0.4840  0.3691  0.8524
 5829SOL     OW19254   5.686   5.649   6.100 -0.0333 -0.2230 -0.3659
 5829SOL    HW119255   5.685   5.654   6.005  0.3020  0.9033 -0.3235
 5829SOL    HW219256   5.595   5.669   6.126  0.6502  3.6410 -0.3378
 5830SOL     OW19257   8.069   4.414   3.086  0.4512 -0.4241  0.7050
 5830SOL    HW119258   8.043   4.506   3.093  0.3255 -0.5738  2.5985
 5830SOL    HW219259   8.134   4.413   3.016  0.1670  1.0330  0.3846
 5831SOL     OW19260   1.316   3.590   1.510  0.4171  0.5075 -0.2111
 5831SOL    HW119261   1.355   3.671   1.544 -2.2224  1.4929  0.7121
 5831SOL    HW219262   1.299   3.538   1.588 -2.5755  1.3392 -0.1663
 5832SOL     OW19263   5.638   9.807   3.982 -0.4211  0.6216 -0.0507
 5832SOL    HW119264   5.730   9.819   3.960  0.4601 -3.3738  0.6460
 5832SOL    HW219265   5.601   9.762   3.906 -1.1808  0.1828  0.5578
 5833SOL     OW19266   4.076   0.155   2.760  0.2584 -0.5933 -0.2073
 5833SOL    HW119267   4.017   0.080   2.769 -0.2433 -0.2774 -0.8139
 5833SOL    HW219268   4.098   0.179   2.850  1.1655 -2.0344 -0.0131
 5834SOL     OW19269   8.080   7.959   1.094  0.6104 -0.1564 -0.3138
 5834SOL    HW119270   8.150   7.936   1.155  0.1012  1.5484  0.9876
 5834SOL    HW219271   8.001   7.922   1.133  0.2709  1.0046  0.1412
 5835SOL     OW19272   2.779   2.180   7.476 -0.4887  0.2442 -0.1961
 5835SOL    HW119273   2.788   2.266   7.516  0.5059 -0.7171  1.7900
 5835SOL    HW219274   2.733   2.128   7.542 -1.8377 -0.5737 -1.6933
 5836SOL     OW19275   7.722   7.024   3.875 -0.4050  0.0609 -0.3108
 5836SOL    HW119276   7.676   7.073   3.944 -0.5854 -0.1179 -0.3011
 5836SOL    HW219277   7.787   6.972   3.921 -0.8721 -0.4520 -0.2190
 5837SOL     OW19278   7.954   3.717   6.378 -0.3856  0.2941  0.4070
 5837SOL    HW119279   7.996   3.639   6.341  0.7267  0.9061  0.3659
 5837SOL    HW219280   8.006   3.790   6.345 -1.3167  1.0560  0.5908
 5838SOL     OW19281   6.718   1.377   2.207 -0.2658  0.0569 -0.5204
 5838SOL    HW119282   6.758   1.292   2.188  0.5644  0.2549  0.2790
 5838SOL    HW219283   6.792   1.435   2.222 -0.8434  0.5549  0.4778
 5839SOL     OW19284   1.715   9.626   4.706  0.1686 -0.1697  0.8588
 5839SOL    HW119285   1.680   9.600   4.621 -2.5439 -0.1867  1.8824
 5839SOL    HW219286   1.751   9.546   4.743 -1.4210 -0.8758  0.9430
 5840SOL     OW19287   3.208   1.909   6.678  0.3091 -0.2558 -0.1263
 5840SOL    HW119288   3.187   1.871   6.763  0.4812 -0.9910 -0.3995
 5840SOL    HW219289   3.272   1.978   6.697  0.8012 -0.8164  0.2840
 5841SOL     OW19290   2.256   5.882   1.651 -0.5425 -0.3607 -0.5100
 5841SOL    HW119291   2.337   5.932   1.643 -0.9138  0.3457  0.1097
 5841SOL    HW219292   2.217   5.911   1.733 -1.2885 -0.9025 -0.6585
 5842SOL     OW19293   6.333   8.979   8.389  0.0004  0.5063 -0.2639
 5842SOL    HW119294   6.356   8.949   8.477  1.4868 -0.4522 -0.9328
 5842SOL    HW219295   6.408   8.955   8.336  0.0521  2.9147 -1.4306
 5843SOL     OW19296   8.813   6.264   0.945  0.3422  0.0324  0.6002
 5843SOL    HW119297   8.786   6.199   1.010 -0.2694  0.5726  0.9040
 5843SOL    HW219298   8.891   6.227   0.904  0.2181 -0.7158  1.0299
 5844SOL     OW19299   7.239   2.187   6.977  0.1457 -0.4966 -0.4142
 5844SOL    HW119300   7.184   2.113   6.953  0.4038 -1.1520  0.9194
 5844SOL    HW219301   7.301   2.152   7.041  0.5703  0.7688 -0.0928
 5845SOL     OW19302   3.627   0.692   2.758  0.0912  0.0729 -0.4901
 5845SOL    HW119303   3.555   0.664   2.814  0.9245  0.4861  0.8400
 5845SOL    HW219304   3.706   0.677   2.811  0.8365  1.3956 -1.1759
 5846SOL     OW19305   2.063   8.441   3.838 -0.0766 -0.0595  0.2366
 5846SOL    HW119306   2.144   8.481   3.808 -0.0091  0.1232  0.6521
 5846SOL    HW219307   2.006   8.515   3.861 -0.4047 -0.1841 -0.1602
 5847SOL     OW19308   9.673   2.295   0.865 -0.1045 -0.4320  0.2697
 5847SOL    HW119309   9.669   2.226   0.799 -0.4386 -0.8474  0.7176
 5847SOL    HW219310   9.582   2.326   0.872  0.4300  2.0135 -1.9564
 5848SOL     OW19311   0.145   4.826   5.101 -0.4632  0.2234  0.4638
 5848SOL    HW119312   0.110   4.737   5.103 -0.4774  0.2038 -0.3054
 5848SOL    HW219313   0.150   4.852   5.193  1.7232 -1.4372  0.9128
 5849SOL     OW19314   4.847   1.738   7.141  0.2469 -0.0339  0.0308
 5849SOL    HW119315   4.852   1.721   7.047 -0.7116 -1.5568  0.2183
 5849SOL    HW219316   4.763   1.782   7.154  0.0238 -0.5095  0.2464
 5850SOL     OW19317   2.192   6.235   8.818  0.3658  0.2397  0.1576
 5850SOL    HW119318   2.159   6.202   8.735  0.7502 -1.5048  0.6592
 5850SOL    HW219319   2.135   6.195   8.884  0.5754  0.9440  0.7808
 5851SOL     OW19320   6.379   5.159   2.577  0.2783 -0.0791 -0.1396
 5851SOL    HW119321   6.378   5.101   2.500  1.0385 -0.1030 -0.1332
 5851SOL    HW219322   6.296   5.139   2.622  0.8352 -1.6948  0.2513
 5852SOL     OW19323   8.244   8.446   7.695 -0.0286 -0.4078 -0.0005
 5852SOL    HW119324   8.187   8.388   7.745  0.4837 -0.7003  0.2503
 5852SOL    HW219325   8.232   8.419   7.604 -2.4149  1.3657 -0.3093
 5853SOL     OW19326   8.737   0.373   4.783  0.5242 -0.2249  0.5483
 5853SOL    HW119327   8.807   0.381   4.718  0.4880  1.4567  0.6729
 5853SOL    HW219328   8.763   0.298   4.837  2.9028  1.0460  1.3253
 5854SOL     OW19329   1.706   7.469   7.799 -0.3499  0.5592 -0.2371
 5854SOL    HW119330   1.744   7.459   7.887  2.4607  1.0032 -1.2843
 5854SOL    HW219331   1.660   7.386   7.784 -0.4968  0.2888  1.4630
 5855SOL     OW19332   8.468   3.716   3.352 -1.1684 -0.6838  0.1443
 5855SOL    HW119333   8.447   3.747   3.440 -1.0763  1.0744 -0.4125
 5855SOL    HW219334   8.390   3.736   3.300 -1.0785 -1.3556 -0.2605
 5856SOL     OW19335   8.422   2.767   8.335  0.1873 -0.1551  0.2445
 5856SOL    HW119336   8.346   2.723   8.374 -0.5392 -0.0356 -0.9776
 5856SOL    HW219337   8.400   2.860   8.337  0.2120 -0.1350 -0.2847
 5857SOL     OW19338   3.018   7.297   9.817  0.5784  0.2415 -0.0061
 5857SOL    HW119339   3.057   7.258   9.738  0.1510 -1.1930  0.4585
 5857SOL    HW219340   2.943   7.347   9.784 -0.3995 -1.4192 -0.4372
 5858SOL     OW19341   8.104   7.784   8.503 -0.6431  0.1839  0.2362
 5858SOL    HW119342   8.107   7.690   8.491  0.5925  0.0949  0.9690
 5858SOL    HW219343   8.122   7.821   8.417  2.2185 -0.3330  0.5019
 5859SOL     OW19344   9.221   7.904   3.334 -0.3711  0.3344  0.0559
 5859SOL    HW119345   9.241   7.971   3.268 -1.8095  0.1429 -0.5959
 5859SOL    HW219346   9.249   7.943   3.417  0.2727  1.0894 -0.5021
 5860SOL     OW19347   4.575   8.443   1.003 -0.5066  0.3873  0.9168
 5860SOL    HW119348   4.665   8.451   0.972  0.4990  0.2935  3.5718
 5860SOL    HW219349   4.533   8.524   0.977 -0.1718 -0.2081 -1.7435
 5861SOL     OW19350   1.670   4.546   0.385 -0.9107  0.1281  0.5894
 5861SOL    HW119351   1.682   4.559   0.291 -1.3701 -0.0725  0.5006
 5861SOL    HW219352   1.737   4.601   0.426  0.5797 -1.2399  0.0950
 5862SOL     OW19353   3.701   0.203   4.994 -0.0151  0.0353  0.6398
 5862SOL    HW119354   3.741   0.116   4.991  1.0704  0.4394  2.0939
 5862SOL    HW219355   3.629   0.194   5.056 -0.8704 -0.1768 -0.3660
 5863SOL     OW19356   5.319   8.915   2.654  0.1573 -0.3951  0.1283
 5863SOL    HW119357   5.265   8.845   2.692  1.4208  1.0965  5.4691
 5863SOL    HW219358   5.408   8.882   2.659  0.6933  1.1505  2.0175
 5864SOL     OW19359   9.422   0.618   7.907  0.3219  0.6573  0.3833
 5864SOL    HW119360   9.463   0.538   7.874 -0.8950 -0.4399  1.3898
 5864SOL    HW219361   9.416   0.604   8.002 -2.0167  0.8881  0.3353
 5865SOL     OW19362   0.690   5.182   9.255  0.2941 -0.0238  0.0078
 5865SOL    HW119363   0.727   5.206   9.340  0.7650 -0.3197 -0.1061
 5865SOL    HW219364   0.643   5.260   9.225  0.8046  0.3492  0.1753
 5866SOL     OW19365   0.442   3.359   5.264  0.0979 -0.3932  0.2377
 5866SOL    HW119366   0.503   3.316   5.324  1.3183  1.1374  0.1237
 5866SOL    HW219367   0.495   3.384   5.189 -0.8322  0.2983 -0.2073
 5867SOL     OW19368   2.859   5.679   9.081  0.1845 -0.3562  0.0699
 5867SOL    HW119369   2.810   5.631   9.148  1.4708 -1.3421  0.3298
 5867SOL    HW219370   2.863   5.619   9.007  0.9016 -0.2457  0.0135
 5868SOL     OW19371   8.417   0.751   7.132 -0.7346 -0.5422 -0.0490
 5868SOL    HW119372   8.350   0.703   7.083  0.4676 -1.5920 -0.7124
 5868SOL    HW219373   8.461   0.805   7.066 -1.3864  0.7284  0.5161
 5869SOL     OW19374   9.061   6.713   8.427 -0.1107  0.1943 -0.3385
 5869SOL    HW119375   9.132   6.689   8.487 -0.4891 -0.5756 -0.1928
 5869SOL    HW219376   9.045   6.805   8.445 -0.4488 -0.1025  0.9853
 5870SOL     OW19377   8.774   0.037   9.074 -0.0292 -0.4440 -0.2797
 5870SOL    HW119378   8.737   0.104   9.017 -0.6295 -1.1041 -0.6689
 5870SOL    HW219379   8.704   0.016   9.135 -0.3910 -1.8720 -1.1680
 5871SOL     OW19380   0.409   8.423   9.338  0.5786  0.2945 -0.1158
 5871SOL    HW119381   0.327   8.429   9.387 -0.7453  0.1904 -2.2061
 5871SOL    HW219382   0.431   8.330   9.340  0.5330  0.2865  0.2339
 5872SOL     OW19383   6.451   3.411   2.227  0.4236  0.2268  0.8380
 5872SOL    HW119384   6.496   3.442   2.305  1.3997 -1.2078  0.8885
 5872SOL    HW219385   6.521   3.372   2.173  0.0209  2.3828 -1.4206
 5873SOL     OW19386   0.145   4.781   5.787  0.2966 -0.2322 -0.5302
 5873SOL    HW119387   0.206   4.849   5.814  1.1516 -1.0038 -0.4488
 5873SOL    HW219388   0.167   4.763   5.696 -0.2276 -0.1004 -0.6915
 5874SOL     OW19389   1.716   2.046   5.197 -0.6353 -0.3169  0.8242
 5874SOL    HW119390   1.800   2.052   5.151 -1.1334  1.8904  0.0692
 5874SOL    HW219391   1.731   2.092   5.280 -1.2510  0.6502  0.4077
 5875SOL     OW19392   4.906   9.181   2.452 -0.1876  0.5674  0.0563
 5875SOL    HW119393   4.817   9.176   2.485 -0.3083  1.4957 -0.0878
 5875SOL    HW219394   4.941   9.262   2.489  0.0660  1.0302 -1.1337
 5876SOL     OW19395   1.458   4.266   3.443 -0.6066 -0.4313 -0.2477
 5876SOL    HW119396   1.426   4.253   3.354 -0.7664 -1.5608 -0.0467
 5876SOL    HW219397   1.415   4.197   3.494 -2.1525  1.4631  1.1428
 5877SOL     OW19398   0.423   7.077   3.143  0.1911  0.3812  0.0518
 5877SOL    HW119399   0.351   7.108   3.197 -0.9776  0.2160 -1.3526
 5877SOL    HW219400   0.381   7.041   3.065  1.7738 -0.1670 -0.5937
 5878SOL     OW19401   8.850   2.896   6.628 -0.0109 -0.5028 -0.3643
 5878SOL    HW119402   8.906   2.843   6.685  0.0683 -0.4622 -0.4044
 5878SOL    HW219403   8.912   2.945   6.573 -0.0925 -1.0191 -0.9302
 5879SOL     OW19404   7.382   7.503   7.961  0.7532  0.2572 -0.0390
 5879SOL    HW119405   7.358   7.473   8.049 -0.3222  1.7655  0.2150
 5879SOL    HW219406   7.299   7.509   7.914  1.1339  1.1421 -0.6157
 5880SOL     OW19407   4.584   7.746   3.860 -0.2660 -0.0586  0.7336
 5880SOL    HW119408   4.672   7.763   3.826 -1.1173  0.0132 -1.6475
 5880SOL    HW219409   4.568   7.816   3.923  1.0401  0.4331  0.5457
 5881SOL     OW19410   7.928   1.779   1.036 -0.3948  0.0771  0.2597
 5881SOL    HW119411   7.931   1.757   0.943 -1.0995  0.5656  0.1154
 5881SOL    HW219412   7.941   1.695   1.081  1.6198  0.0484 -0.2524
 5882SOL     OW19413   3.138   9.113   2.800 -0.1793  0.3820  0.0651
 5882SOL    HW119414   3.173   9.150   2.719  0.1970  0.6250  0.3397
 5882SOL    HW219415   3.212   9.070   2.842 -0.0743  1.3432  0.9029
 5883SOL     OW19416   7.896   3.226   0.674  0.0613 -0.2771  0.0271
 5883SOL    HW119417   7.953   3.301   0.657 -1.0748  0.1679 -2.2753
 5883SOL    HW219418   7.841   3.254   0.747  1.6035 -0.0549  1.1460
 5884SOL     OW19419   4.425   0.577   8.366 -0.4368 -0.5542 -0.2103
 5884SOL    HW119420   4.439   0.553   8.275  1.9520 -1.7669  0.4194
 5884SOL    HW219421   4.485   0.650   8.382 -0.0818 -1.0156  0.6501
 5885SOL     OW19422   4.467   0.972   5.260 -0.7452  0.5736 -0.3686
 5885SOL    HW119423   4.499   1.058   5.287 -0.9333  0.1286  1.3774
 5885SOL    HW219424   4.468   0.920   5.340  0.6618 -1.4754 -1.6414
 5886SOL     OW19425   2.816   9.255   9.352 -0.3936 -0.0574  0.1352
 5886SOL    HW119426   2.829   9.194   9.425 -1.2073 -0.2625  0.1194
 5886SOL    HW219427   2.894   9.244   9.297 -0.1881 -0.5495  0.5175
 5887SOL     OW19428   3.522   2.119   5.794  0.0088  0.2905  0.0058
 5887SOL    HW119429   3.517   2.210   5.824  2.4593  0.7185 -0.6727
 5887SOL    HW219430   3.526   2.125   5.699  0.3458 -0.5065 -0.0396
 5888SOL     OW19431   3.490   2.647   9.313 -0.0596  0.7372  0.2796
 5888SOL    HW119432   3.557   2.704   9.349  2.4520 -1.7712 -0.0335
 5888SOL    HW219433   3.441   2.615   9.389  0.7300  0.7257  0.7879
 5889SOL     OW19434   6.613   6.970   4.235  0.1924 -0.2619  0.0948
 5889SOL    HW119435   6.552   6.942   4.304  1.3043 -1.5973  0.5669
 5889SOL    HW219436   6.678   7.023   4.281  0.6561 -0.7346 -0.0218
 5890SOL     OW19437   3.985   2.948   4.557  0.4988 -0.1141 -0.1272
 5890SOL    HW119438   3.936   3.019   4.516  1.8036 -0.2242 -2.0085
 5890SOL    HW219439   3.962   2.870   4.508  0.0843 -0.7840  1.0827
 5891SOL     OW19440   2.997   1.772   1.317  0.5889 -0.9666 -0.5456
 5891SOL    HW119441   2.941   1.695   1.326  0.9288 -1.0744  0.8023
 5891SOL    HW219442   3.085   1.740   1.336  0.9664 -0.5545 -1.5182
 5892SOL     OW19443   2.015   5.914   3.445  0.8815  0.4230 -0.6155
 5892SOL    HW119444   1.924   5.922   3.415  0.1382 -1.2233  0.9610
 5892SOL    HW219445   2.019   5.827   3.485  2.6990  1.1119  0.8693
 5893SOL     OW19446   1.398   6.297   6.858  0.0980  0.2162 -0.0164
 5893SOL    HW119447   1.481   6.288   6.811 -0.8799  0.3355 -1.8754
 5893SOL    HW219448   1.357   6.211   6.851  0.2887 -0.0072  1.3912
 5894SOL     OW19449   3.854   8.617   6.592 -0.2646  0.2504 -0.3193
 5894SOL    HW119450   3.854   8.526   6.622  0.5165  0.6366  0.9171
 5894SOL    HW219451   3.945   8.645   6.598 -0.8306  1.9064  1.8809
 5895SOL     OW19452   0.270   8.883   4.754 -0.2505  0.0821  0.0227
 5895SOL    HW119453   0.274   8.972   4.788 -0.6027  0.6552 -1.3708
 5895SOL    HW219454   0.358   8.866   4.719 -0.3033  0.0521 -0.0986
 5896SOL     OW19455   1.888   4.499   2.159  0.0867 -0.4128 -0.2628
 5896SOL    HW119456   1.848   4.529   2.077 -0.2189 -0.4514 -0.1311
 5896SOL    HW219457   1.864   4.407   2.165  0.2696 -0.4580 -0.2230
 5897SOL     OW19458   0.774   6.141   6.896 -0.2668 -0.4059 -0.2174
 5897SOL    HW119459   0.798   6.095   6.977  0.1319  0.9085  0.4409
 5897SOL    HW219460   0.802   6.081   6.826 -1.2671 -1.8844  0.5854
 5898SOL     OW19461   1.830   3.757   1.423  0.7003 -0.5407  0.4021
 5898SOL    HW119462   1.773   3.681   1.436 -0.9589  0.5789 -0.0717
 5898SOL    HW219463   1.797   3.823   1.484  2.3332 -0.2731  1.0624
 5899SOL     OW19464   6.448   9.447   4.226 -0.0803 -0.0068  0.6349
 5899SOL    HW119465   6.501   9.426   4.149  0.5248 -1.5023  1.4053
 5899SOL    HW219466   6.512   9.474   4.293 -0.4641  0.0263  0.9938
 5900SOL     OW19467   3.113   1.956   9.172 -0.4216 -0.3658 -0.1870
 5900SOL    HW119468   3.065   1.943   9.091 -0.7420  0.3297 -0.1184
 5900SOL    HW219469   3.069   1.901   9.236  0.0452 -1.1813 -0.5580
 5901SOL     OW19470   2.588   4.733   9.740  0.2129  0.2931  0.5081
 5901SOL    HW119471   2.637   4.815   9.754 -0.0652  0.5619 -0.0659
 5901SOL    HW219472   2.519   4.735   9.805  0.3796  0.3800  0.6835
 5902SOL     OW19473   6.532   3.329   6.054  0.1422 -0.0469 -0.0110
 5902SOL    HW119474   6.438   3.346   6.068  0.3200  0.5300  0.5199
 5902SOL    HW219475   6.556   3.271   6.126  0.4441  0.7349  0.5346
 5903SOL     OW19476   7.508   1.062   8.123 -0.0943 -0.9912 -0.0603
 5903SOL    HW119477   7.529   1.002   8.195 -0.7158 -1.7057 -0.4546
 5903SOL    HW219478   7.474   1.140   8.166  0.6907 -0.9181  0.4617
 5904SOL     OW19479   7.621   2.553   7.171  0.1471  0.4561 -0.1695
 5904SOL    HW119480   7.543   2.581   7.124  0.1506  1.1275  0.2191
 5904SOL    HW219481   7.690   2.610   7.140  0.4462 -0.0091 -0.3675
 5905SOL     OW19482   5.606   9.487   8.470  0.1425  0.1036  0.0420
 5905SOL    HW119483   5.639   9.518   8.385 -1.4297 -0.2650 -0.7384
 5905SOL    HW219484   5.644   9.548   8.533  1.1310  0.5559 -0.9479
 5906SOL     OW19485   7.073   7.088   3.476  0.6854  0.2256  0.1299
 5906SOL    HW119486   7.075   7.183   3.480 -1.3322  0.2487  1.6146
 5906SOL    HW219487   7.118   7.067   3.394  1.4632  2.4085 -0.0636
 5907SOL     OW19488   5.763   6.838   6.218  0.0500  0.7777 -0.5427
 5907SOL    HW119489   5.699   6.793   6.162  0.6363  1.4613 -1.8183
 5907SOL    HW219490   5.844   6.836   6.167  0.3318  2.4012 -0.2126
 5908SOL     OW19491   4.227   8.248   2.713 -0.5498  0.2831  0.1010
 5908SOL    HW119492   4.136   8.223   2.726 -1.0586  2.4762  1.1620
 5908SOL    HW219493   4.224   8.322   2.653  0.5732  0.1410 -0.1533
 5909SOL     OW19494   3.286   9.527   2.391  0.3830 -0.1639  0.4850
 5909SOL    HW119495   3.196   9.511   2.364  1.2907 -1.3035 -2.1959
 5909SOL    HW219496   3.313   9.604   2.341  1.8234 -1.7197 -1.2272
 5910SOL     OW19497   1.823   0.350   6.556 -0.0354  0.2464 -0.3737
 5910SOL    HW119498   1.831   0.423   6.494  1.5567 -0.5950 -1.2232
 5910SOL    HW219499   1.818   0.273   6.500  1.1580 -0.5167  0.5485
 5911SOL     OW19500   7.790   5.129   3.729 -0.4627  0.5924 -0.0158
 5911SOL    HW119501   7.797   5.068   3.655  0.0300  0.7387 -0.0957
 5911SOL    HW219502   7.829   5.081   3.803 -0.9167  0.4616  0.1407
 5912SOL     OW19503   5.764   5.842   3.097 -0.5431 -0.5754  0.2564
 5912SOL    HW119504   5.688   5.814   3.148 -0.7407  0.3283  0.4798
 5912SOL    HW219505   5.727   5.883   3.018 -0.3164  0.1447  0.5099
 5913SOL     OW19506   2.667   4.745   6.173 -0.6187  0.4024 -0.1266
 5913SOL    HW119507   2.750   4.753   6.220 -0.1193  0.2674 -0.9653
 5913SOL    HW219508   2.663   4.823   6.118 -1.0213  0.3747 -0.1419
 5914SOL     OW19509   2.471   3.282   4.127  0.6222 -0.0132 -1.0433
 5914SOL    HW119510   2.380   3.253   4.122  0.5547 -0.1975  0.6055
 5914SOL    HW219511   2.516   3.232   4.060 -0.2591 -0.9054 -0.9946
 5915SOL     OW19512   6.437   1.868   5.349  0.3018 -0.4331 -0.4228
 5915SOL    HW119513   6.499   1.841   5.417  0.2402 -0.9874 -0.5889
 5915SOL    HW219514   6.363   1.905   5.398  0.6212 -0.0514 -0.2161
 5916SOL     OW19515   7.387   7.793   3.193 -0.6666 -0.3491  0.2237
 5916SOL    HW119516   7.411   7.868   3.248  1.0120 -1.3377  0.8995
 5916SOL    HW219517   7.460   7.784   3.131 -1.2151 -0.9517 -0.3503
 5917SOL     OW19518   2.892   9.592   3.815  0.1839  0.3458 -0.1867
 5917SOL    HW119519   2.978   9.559   3.838  0.1295  0.2453 -0.1281
 5917SOL    HW219520   2.869   9.544   3.735  0.2421  0.4730 -0.2800
 5918SOL     OW19521   5.229   1.674   5.612 -0.0789  0.1911  0.1061
 5918SOL    HW119522   5.184   1.758   5.609  1.2719  0.9568  0.5563
 5918SOL    HW219523   5.180   1.618   5.551 -1.4653  1.0484  0.3989
 5919SOL     OW19524   4.085   2.825   0.813 -0.4915 -0.3460 -0.1675
 5919SOL    HW119525   4.051   2.888   0.876  1.0520  0.4807 -0.1226
 5919SOL    HW219526   4.174   2.807   0.842  0.6649  0.8550 -2.6728
 5920SOL     OW19527   8.074   3.025   3.749 -0.6285  0.3678 -0.0300
 5920SOL    HW119528   7.986   3.032   3.711 -0.7930 -1.3174 -0.0290
 5920SOL    HW219529   8.116   2.956   3.699  1.1448  1.9387 -0.8003
 5921SOL     OW19530   0.021   2.313   5.710 -0.0704 -0.0085  0.0315
 5921SOL    HW119531   0.010   2.223   5.679  0.0572 -0.2432  0.6512
 5921SOL    HW219532   0.108   2.338   5.680 -0.1168 -0.0835 -0.1660
 5922SOL     OW19533   8.755   1.315   7.722  0.0692 -0.1119  0.2717
 5922SOL    HW119534   8.812   1.238   7.717 -0.2945 -0.4061  0.5842
 5922SOL    HW219535   8.717   1.310   7.810  0.8434  0.9950  0.6941
 5923SOL     OW19536   7.234   8.149   8.845  0.3368 -0.4795 -0.5352
 5923SOL    HW119537   7.297   8.102   8.791  1.4867  0.0910  0.2584
 5923SOL    HW219538   7.262   8.241   8.840 -0.0990 -0.2928  0.2638
 5924SOL     OW19539   4.366   5.457   6.596  0.2242 -0.1788 -0.8880
 5924SOL    HW119540   4.290   5.515   6.590 -0.4210 -0.9744 -0.6772
 5924SOL    HW219541   4.441   5.515   6.604 -0.6200  0.6809  2.2607
 5925SOL     OW19542   0.516   1.527   5.523  0.0036 -0.6390  0.0749
 5925SOL    HW119543   0.562   1.491   5.447  0.9564 -0.9501  0.7818
 5925SOL    HW219544   0.490   1.615   5.496  1.5228 -0.2282 -0.1578
 5926SOL     OW19545   5.637   3.665   5.051  0.1418  0.2821  0.5479
 5926SOL    HW119546   5.679   3.597   4.997 -0.0264  1.3148 -0.9367
 5926SOL    HW219547   5.558   3.688   5.003  0.9840  2.6396  0.1604
 5927SOL     OW19548   9.760   8.922   8.032  0.3672 -0.2677  0.7843
 5927SOL    HW119549   9.692   8.948   8.095 -0.6715  0.5983 -0.6257
 5927SOL    HW219550   9.786   8.834   8.059 -2.3043 -1.1934  0.6311
 5928SOL     OW19551   7.783   1.463   6.089 -0.3211 -0.5040 -0.1094
 5928SOL    HW119552   7.709   1.410   6.058 -1.3443  1.1635 -0.6359
 5928SOL    HW219553   7.776   1.545   6.040  1.3218  0.0654  0.5486
 5929SOL     OW19554   8.542   0.534   9.644 -0.0422  0.3189  0.5685
 5929SOL    HW119555   8.571   0.515   9.555 -0.7476  1.3192  0.1022
 5929SOL    HW219556   8.469   0.595   9.632 -0.5955 -0.0714  1.8068
 5930SOL     OW19557   7.781   3.129   1.846  0.6379 -0.2934 -0.7548
 5930SOL    HW119558   7.687   3.131   1.862  0.9004 -0.5273  1.0559
 5930SOL    HW219559   7.790   3.123   1.751 -1.1556  0.2136 -0.9755
 5931SOL     OW19560   8.317   8.298   9.744 -0.0246 -0.2509  0.0258
 5931SOL    HW119561   8.289   8.388   9.731  0.9821  0.0920  0.1083
 5931SOL    HW219562   8.322   8.261   9.656 -0.2828 -0.1714 -0.0215
 5932SOL     OW19563   2.703   3.516   3.003 -0.6248  0.4719 -0.2439
 5932SOL    HW119564   2.650   3.572   2.946 -1.7606  0.8794  1.1355
 5932SOL    HW219565   2.650   3.436   3.013  0.2962 -0.2475 -1.0092
 5933SOL     OW19566   8.254   8.984   2.532 -0.1318 -0.1118 -0.1534
 5933SOL    HW119567   8.172   8.997   2.484  0.1837 -2.2638 -1.4075
 5933SOL    HW219568   8.229   8.928   2.606  0.2239 -1.0623 -0.7329
 5934SOL     OW19569   9.318   2.804   9.298 -0.3845 -0.2575 -0.1734
 5934SOL    HW119570   9.353   2.893   9.307 -1.6287  0.0896  1.9817
 5934SOL    HW219571   9.379   2.749   9.346 -0.6086 -0.2661  0.1074
 5935SOL     OW19572   3.637   1.030   6.229  0.1826  0.6474  0.1917
 5935SOL    HW119573   3.606   0.948   6.269 -0.1524  0.7296  0.1028
 5935SOL    HW219574   3.575   1.047   6.159 -0.4565  1.6263  0.9680
 5936SOL     OW19575   2.414   2.361   7.589 -0.1998 -0.3125  0.6839
 5936SOL    HW119576   2.509   2.373   7.584 -0.0383 -1.2791  1.2386
 5936SOL    HW219577   2.400   2.269   7.568 -1.0856 -0.0261 -0.0290
 5937SOL     OW19578   8.934   8.348   6.084  0.3246  0.0673  0.2022
 5937SOL    HW119579   8.950   8.255   6.097  1.7031  0.3993  1.0896
 5937SOL    HW219580   8.975   8.390   6.159 -0.5793  1.3813 -0.0036
 5938SOL     OW19581   4.273   0.434   3.044 -0.1326  0.3752 -0.0842
 5938SOL    HW119582   4.219   0.367   3.002  0.8347 -1.1423  0.9714
 5938SOL    HW219583   4.214   0.477   3.106 -0.6807  0.2424 -0.5045
 5939SOL     OW19584   8.665   1.426   1.204 -0.3027  0.3519 -0.0791
 5939SOL    HW119585   8.669   1.458   1.114 -1.3013 -1.5505 -0.8750
 5939SOL    HW219586   8.747   1.380   1.218 -0.6422 -0.3785 -0.4589
 5940SOL     OW19587   9.141   0.878   7.381  0.6155 -0.1935  0.1351
 5940SOL    HW119588   9.092   0.817   7.327  0.4256  1.0538 -1.1707
 5940SOL    HW219589   9.229   0.880   7.342  0.5550  0.5260  0.0112
 5941SOL     OW19590   2.527   7.798   1.763 -0.5498 -0.4694 -0.0333
 5941SOL    HW119591   2.531   7.726   1.700  0.0959 -2.6938  2.3998
 5941SOL    HW219592   2.618   7.829   1.769 -0.6306 -0.1839 -0.2535
 5942SOL     OW19593   0.689   7.721   5.492  0.0646  0.1373  0.4055
 5942SOL    HW119594   0.727   7.634   5.506 -0.7005 -0.1537  0.7183
 5942SOL    HW219595   0.717   7.772   5.568  0.2614  0.0768  0.3738
 5943SOL     OW19596   0.273   2.023   6.188  0.0576 -0.2142 -0.3500
 5943SOL    HW119597   0.215   1.948   6.176  0.8618 -0.5671 -2.2611
 5943SOL    HW219598   0.277   2.065   6.103  0.9646  1.0336  0.2711
 5944SOL     OW19599   0.769   9.262   0.361 -0.0775 -0.6619  0.2380
 5944SOL    HW119600   0.819   9.206   0.421 -2.8561 -2.3626  1.1407
 5944SOL    HW219601   0.716   9.318   0.418 -0.5933 -0.2070 -0.6622
 5945SOL     OW19602   8.042   2.010   3.514 -0.8532 -0.2721 -0.1793
 5945SOL    HW119603   8.121   1.991   3.463 -0.3414  0.0739  0.4587
 5945SOL    HW219604   8.073   2.068   3.584 -2.0584  1.5718 -1.1092
 5946SOL     OW19605   7.899   8.984   8.652  0.0149 -0.2419  0.0417
 5946SOL    HW119606   7.812   8.959   8.685  0.2180 -1.2973 -0.1772
 5946SOL    HW219607   7.960   8.930   8.703  0.6879  1.6571  1.3471
 5947SOL     OW19608   2.707   9.672   0.062  0.2450 -0.2984 -0.1789
 5947SOL    HW119609   2.754   9.590   0.073  0.8026  0.2827  2.6805
 5947SOL    HW219610   2.672   9.668  -0.026  1.2360 -3.0705 -0.5520
 5948SOL     OW19611   2.274   0.667   5.763  0.0640 -0.1606 -0.2524
 5948SOL    HW119612   2.299   0.742   5.708 -0.7063  1.5866  1.6359
 5948SOL    HW219613   2.351   0.648   5.816  0.5814 -1.3960 -1.3980
 5949SOL     OW19614   1.296   1.001   8.460 -0.3396  0.7158 -0.5001
 5949SOL    HW119615   1.203   1.014   8.477 -0.2949  0.9161 -0.4114
 5949SOL    HW219616   1.301   0.983   8.366 -0.4198  1.1298 -0.5831
 5950SOL     OW19617   1.318   5.735   0.769  0.6314  0.1152  0.3353
 5950SOL    HW119618   1.406   5.698   0.763  0.6550  0.3490 -1.2000
 5950SOL    HW219619   1.260   5.659   0.769  0.7010 -0.0468 -2.3825
 5951SOL     OW19620   9.451   6.227   5.220 -0.0542  0.0480 -0.1800
 5951SOL    HW119621   9.373   6.215   5.274  1.3644  0.2016  2.0137
 5951SOL    HW219622   9.522   6.191   5.272  1.0680 -2.6637 -3.2718
 5952SOL     OW19623   6.602   7.247   8.158 -0.1106  0.3517 -0.1049
 5952SOL    HW119624   6.508   7.264   8.157 -0.7914 -2.8880 -0.6230
 5952SOL    HW219625   6.622   7.228   8.250 -0.2401 -0.1608 -0.1786
 5953SOL     OW19626   2.253   9.377   8.036 -0.3191  0.5636 -0.0891
 5953SOL    HW119627   2.238   9.341   8.124 -0.9691  3.0975  0.9167
 5953SOL    HW219628   2.319   9.445   8.049  2.2067 -1.2808 -2.2210
 5954SOL     OW19629   8.617   5.659   4.175  0.9017 -0.4735  0.3737
 5954SOL    HW119630   8.612   5.577   4.225  0.8471 -1.1678 -0.7262
 5954SOL    HW219631   8.568   5.641   4.095  1.5646  0.3727 -0.2396
 5955SOL     OW19632   4.600   9.245   9.612 -0.4303  0.2463 -0.0907
 5955SOL    HW119633   4.543   9.319   9.589  0.7662  1.6445  1.2251
 5955SOL    HW219634   4.671   9.250   9.547 -1.0671 -0.6532 -0.8804
 5956SOL     OW19635   8.829   3.518   4.684 -0.1425  0.0117 -1.0184
 5956SOL    HW119636   8.895   3.451   4.666 -0.1154 -0.2742  0.0710
 5956SOL    HW219637   8.811   3.558   4.599  1.0528 -0.2543 -1.4056
 5957SOL     OW19638   8.028   3.510   9.158 -0.0641 -0.0763  0.1667
 5957SOL    HW119639   8.028   3.530   9.064  1.2106  1.3972  0.4470
 5957SOL    HW219640   8.058   3.590   9.200 -1.4609 -0.4081  1.9380
 5958SOL     OW19641   3.544   0.992   3.619  0.6261 -0.1518 -0.0067
 5958SOL    HW119642   3.631   0.957   3.637  0.3535 -0.8069  0.0861
 5958SOL    HW219643   3.507   0.931   3.554  0.2745  0.1731 -0.1166
 5959SOL     OW19644   0.814   6.420   2.896  0.4634  0.5835  0.5323
 5959SOL    HW119645   0.777   6.344   2.940 -1.5927  0.9647 -0.3999
 5959SOL    HW219646   0.768   6.495   2.934  0.5856  1.1317 -0.3704
 5960SOL     OW19647   4.204   7.766   7.549  0.3553 -0.2435 -0.1366
 5960SOL    HW119648   4.158   7.849   7.561 -0.1378 -0.3921 -0.9521
 5960SOL    HW219649   4.230   7.765   7.457  2.4361  0.0445  0.4032
 5961SOL     OW19650   5.860   1.419   2.703 -0.3277 -0.1307  0.7144
 5961SOL    HW119651   5.812   1.337   2.688  0.8000 -0.9902  1.6287
 5961SOL    HW219652   5.895   1.442   2.616 -1.0441 -0.3450  0.3601
 5962SOL     OW19653   8.465   1.948   7.326  0.3969  0.0192  0.5035
 5962SOL    HW119654   8.474   1.855   7.346  3.6383 -0.1932 -1.2930
 5962SOL    HW219655   8.547   1.987   7.355 -0.1166  1.9682 -0.4761
 5963SOL     OW19656   0.911   6.236   8.221 -0.0825  0.6143 -0.0137
 5963SOL    HW119657   0.939   6.175   8.153 -0.1449  2.0402 -1.3659
 5963SOL    HW219658   0.856   6.183   8.279  0.8152 -0.8767 -0.4553
 5964SOL     OW19659   6.753   2.974   6.375  0.1047 -0.5158  0.5028
 5964SOL    HW119660   6.727   2.918   6.302  0.1852 -0.3556  0.3522
 5964SOL    HW219661   6.848   2.964   6.380  0.2324  0.3373 -0.1221
 5965SOL     OW19662   6.839   0.696   3.660 -0.2517  0.0179  0.0840
 5965SOL    HW119663   6.910   0.687   3.596 -0.3928  2.4447 -0.4816
 5965SOL    HW219664   6.807   0.785   3.649 -3.4716 -0.9968  0.2984
 5966SOL     OW19665   1.416   2.817   6.190  0.3489 -0.0240  0.0382
 5966SOL    HW119666   1.379   2.785   6.108  0.3323 -0.1454  0.0934
 5966SOL    HW219667   1.339   2.837   6.244  0.3493  0.5739 -0.1736
 5967SOL     OW19668   0.238   5.105   1.892 -0.3323  0.3782  0.4757
 5967SOL    HW119669   0.259   5.100   1.799  0.4566  0.4150  0.6506
 5967SOL    HW219670   0.255   5.196   1.916 -0.9228  0.4711  0.5731
 5968SOL     OW19671   2.634   4.034   9.820 -0.1597  0.2094 -0.2706
 5968SOL    HW119672   2.702   4.049   9.754  0.3173 -0.5857  0.0147
 5968SOL    HW219673   2.589   3.955   9.790 -1.5242  1.1905 -0.8950
 5969SOL     OW19674   3.095   3.648   9.517  0.4794  0.2753  0.1983
 5969SOL    HW119675   3.035   3.653   9.442  0.2510  2.2814  0.4486
 5969SOL    HW219676   3.076   3.564   9.558  0.9624 -1.1374 -2.2427
 5970SOL     OW19677   1.299   4.666   8.977  0.1454  0.2724 -0.3502
 5970SOL    HW119678   1.309   4.711   8.892  0.4062  0.6413 -0.1303
 5970SOL    HW219679   1.389   4.648   9.004  0.0652  0.2581 -0.0953
 5971SOL     OW19680   7.291   8.456   0.992 -0.2081  0.6170 -0.2527
 5971SOL    HW119681   7.334   8.523   0.939  0.4366 -1.5397 -2.7341
 5971SOL    HW219682   7.201   8.455   0.959 -0.8235  1.6535  1.3052
 5972SOL     OW19683   3.781   2.036   2.831  0.0508 -0.0230 -0.5949
 5972SOL    HW119684   3.848   2.005   2.892  0.3364 -0.1190 -0.9533
 5972SOL    HW219685   3.803   2.129   2.817  0.3313 -0.1466 -0.9961
 5973SOL     OW19686   4.668   5.794   4.128  0.7097 -0.5615 -0.2385
 5973SOL    HW119687   4.683   5.711   4.082  1.5216 -0.3701 -0.3434
 5973SOL    HW219688   4.623   5.849   4.064  2.4327 -0.0660 -1.0892
 5974SOL     OW19689   5.314   2.594   1.575  0.0409  0.0217 -0.4273
 5974SOL    HW119690   5.297   2.684   1.547 -0.6420 -0.3014 -1.0973
 5974SOL    HW219691   5.378   2.561   1.513  0.8642  0.2768  0.2745
 5975SOL     OW19692   6.812   3.093   2.003  0.2191 -0.4354 -0.6562
 5975SOL    HW119693   6.799   3.010   1.957 -0.2881  0.6847 -2.6161
 5975SOL    HW219694   6.888   3.133   1.960  1.5609 -0.5910  1.4040
 5976SOL     OW19695   6.366   5.909   5.754  0.0499 -0.1329  0.1444
 5976SOL    HW119696   6.300   5.843   5.778  0.7079 -1.1685 -0.8050
 5976SOL    HW219697   6.370   5.904   5.658  1.9653 -0.5651  0.2124
 5977SOL     OW19698   5.601   0.981   4.852 -0.2795 -0.2339  0.4996
 5977SOL    HW119699   5.511   0.993   4.882 -1.1815 -0.9381 -1.7076
 5977SOL    HW219700   5.639   0.919   4.915 -0.9440  0.9311  2.1001
 5978SOL     OW19701   7.874   8.761   2.423 -0.6047  0.0083  0.3420
 5978SOL    HW119702   7.861   8.815   2.345 -0.8286 -0.5803 -0.0321
 5978SOL    HW219703   7.878   8.824   2.495 -1.6529  0.4751  0.0072
 5979SOL     OW19704   9.596   5.090   2.636 -0.0205  0.4104  0.0111
 5979SOL    HW119705   9.547   5.161   2.679 -1.1220 -0.1902 -0.2095
 5979SOL    HW219706   9.585   5.108   2.542  1.0744  0.8524 -0.0401
 5980SOL     OW19707   3.242   3.100   2.677 -0.0679 -0.3196  0.1306
 5980SOL    HW119708   3.291   3.182   2.683  2.3681 -1.6777  0.2093
 5980SOL    HW219709   3.302   3.041   2.631 -2.4815 -1.5563 -1.6203
 5981SOL     OW19710   4.664   8.923   1.169  0.4086 -0.2690  0.1840
 5981SOL    HW119711   4.715   9.000   1.191  1.2853 -0.8042  0.0541
 5981SOL    HW219712   4.681   8.861   1.240 -1.0215 -0.0272  0.7827
 5982SOL     OW19713   0.990   2.618   0.928 -0.1569 -0.4788 -0.1527
 5982SOL    HW119714   0.997   2.558   1.003  0.0656  0.9975  1.0583
 5982SOL    HW219715   0.973   2.704   0.967  1.9325  0.7201 -1.6531
 5983SOL     OW19716   4.416   2.081   6.175 -0.0116 -0.2040  0.1172
 5983SOL    HW119717   4.446   2.026   6.247 -0.4691 -2.0659 -1.0480
 5983SOL    HW219718   4.443   2.170   6.200  2.9332 -1.2188  0.9801
 5984SOL     OW19719   1.072   2.331   8.652 -0.3733 -0.1422  0.4072
 5984SOL    HW119720   0.995   2.283   8.680 -0.8722  0.8581  0.8142
 5984SOL    HW219721   1.051   2.358   8.562  1.0185 -2.9199 -0.8795
 5985SOL     OW19722   3.903   7.526   4.493 -0.2614  0.5620  0.1169
 5985SOL    HW119723   3.841   7.485   4.553  0.1455  0.8251  0.7307
 5985SOL    HW219724   3.860   7.607   4.465 -0.9722 -0.1408 -0.9244
 5986SOL     OW19725   3.378   9.745   4.034  0.2155 -0.8437  0.0582
 5986SOL    HW119726   3.356   9.818   4.093  0.4246 -0.0398 -0.8311
 5986SOL    HW219727   3.335   9.669   4.074  1.8549 -0.7248  2.2688
 5987SOL     OW19728   4.309   4.537   7.470  0.4945  0.1591  0.3020
 5987SOL    HW119729   4.261   4.473   7.416 -0.7805  0.0208  1.5516
 5987SOL    HW219730   4.304   4.618   7.419 -0.3227 -0.0674 -0.0094
 5988SOL     OW19731   6.560   0.646   1.568 -0.9834  0.6182  0.1538
 5988SOL    HW119732   6.519   0.603   1.493 -0.0727 -1.3700  0.7218
 5988SOL    HW219733   6.487   0.679   1.620 -1.7600 -0.7148 -0.0638
 5989SOL     OW19734   9.006   4.926   0.333  0.0068  0.1856  0.1566
 5989SOL    HW119735   9.042   5.012   0.357  0.1812  0.0278  0.4628
 5989SOL    HW219736   8.935   4.946   0.272 -0.0067  0.5537  0.2915
 5990SOL     OW19737   0.462   1.190   3.017  0.3090  0.4285 -0.2944
 5990SOL    HW119738   0.409   1.211   2.940 -1.0796  0.9875  0.7599
 5990SOL    HW219739   0.399   1.156   3.081  1.4820 -0.3688  0.4788
 5991SOL     OW19740   8.241   4.560   4.312  0.4480 -0.7391  0.2429
 5991SOL    HW119741   8.302   4.490   4.289  0.7735 -0.4339  0.1680
 5991SOL    HW219742   8.174   4.517   4.365  0.3283 -1.2196 -0.2854
 5992SOL     OW19743   5.963   8.545   3.057  0.5317 -0.5909  0.6119
 5992SOL    HW119744   5.875   8.520   3.084  0.3669 -2.1145 -1.1234
 5992SOL    HW219745   6.010   8.463   3.048  1.3625  0.0001 -0.9033
 5993SOL     OW19746   1.763   3.198   4.853  0.3684  0.2005  0.4479
 5993SOL    HW119747   1.679   3.158   4.830 -0.4338  3.4226 -3.4553
 5993SOL    HW219748   1.820   3.178   4.779  1.1625  2.6451  0.2885
 5994SOL     OW19749   8.092   1.192   0.164  0.5878 -0.2058  0.0401
 5994SOL    HW119750   8.097   1.171   0.070  0.0804 -2.6930  0.5007
 5994SOL    HW219751   8.013   1.246   0.172  1.4196  1.2804 -1.1080
 5995SOL     OW19752   4.223   5.991   3.767 -0.0788 -0.2254 -0.1647
 5995SOL    HW119753   4.211   5.952   3.680 -1.0232 -0.6330  0.1387
 5995SOL    HW219754   4.187   5.927   3.828 -0.6776  0.6385  0.4220
 5996SOL     OW19755   8.283   2.173   3.997 -0.1650  0.2300  0.6280
 5996SOL    HW119756   8.367   2.128   4.004  0.2056  0.8086  0.0779
 5996SOL    HW219757   8.230   2.138   4.068  0.2782 -0.7101  0.5043
 5997SOL     OW19758   5.477   8.010   9.069  0.0318 -0.2135 -0.0015
 5997SOL    HW119759   5.505   7.925   9.036  3.2611  0.7683 -0.1176
 5997SOL    HW219760   5.439   7.991   9.155 -2.0724 -2.0030 -1.2064
 5998SOL     OW19761   2.034   9.378   5.210 -0.2205  0.1657  0.3522
 5998SOL    HW119762   2.120   9.344   5.185 -0.0926  0.5357  0.2819
 5998SOL    HW219763   2.017   9.449   5.147 -0.3975  0.3594  0.6173
 5999SOL     OW19764   0.636   1.938   6.549 -0.2221 -0.4558 -0.4088
 5999SOL    HW119765   0.543   1.958   6.562 -0.0866 -0.9946  1.7496
 5999SOL    HW219766   0.660   1.886   6.626  2.1318  0.5831 -0.3662
 6000SOL     OW19767   9.362   9.383   4.764 -0.8730 -0.0087  0.4785
 6000SOL    HW119768   9.349   9.424   4.850 -1.5906 -0.5376  0.6350
 6000SOL    HW219769   9.321   9.297   4.773  1.2154 -1.0735  0.3991
 6001SOL     OW19770   7.496   6.282   4.900  0.4447 -0.0972 -0.5326
 6001SOL    HW119771   7.519   6.352   4.840  1.1278 -0.6825 -0.9731
 6001SOL    HW219772   7.579   6.236   4.916 -0.1072 -1.2578 -0.8610
 6002SOL     OW19773   1.054   3.521   2.509  0.3340  0.0948  0.1582
 6002SOL    HW119774   1.108   3.444   2.529 -0.0810  0.1521  1.6461
 6002SOL    HW219775   0.992   3.527   2.582 -2.8359 -0.9068 -2.1972
 6003SOL     OW19776   8.256   9.400   1.738 -0.2040  0.3201  0.3126
 6003SOL    HW119777   8.328   9.337   1.743  0.7406  1.3051 -0.5305
 6003SOL    HW219778   8.298   9.485   1.733 -1.4612  0.9968  0.8357
 6004SOL     OW19779   1.703   4.020   4.013  0.1070  0.6029  0.5135
 6004SOL    HW119780   1.615   4.054   3.993 -1.0644 -1.0850  2.3878
 6004SOL    HW219781   1.710   3.940   3.961 -0.8058 -0.9377  2.6257
 6005SOL     OW19782   7.823   1.282   1.344 -0.2030 -0.1517 -0.0825
 6005SOL    HW119783   7.797   1.367   1.379  0.6916  0.3223 -0.5506
 6005SOL    HW219784   7.861   1.236   1.419  0.3301  0.2863 -0.0796
 6006SOL     OW19785   1.680   1.856   7.037 -0.6194 -0.1558  0.4146
 6006SOL    HW119786   1.638   1.811   6.964 -2.7414  0.6318  1.0636
 6006SOL    HW219787   1.726   1.929   6.997 -0.5505 -0.5716 -0.2690
 6007SOL     OW19788   7.758   9.213   2.766 -0.0199  0.8195 -0.7580
 6007SOL    HW119789   7.814   9.155   2.817  0.1585  0.5085 -1.2943
 6007SOL    HW219790   7.809   9.233   2.687 -0.9024 -0.0015 -1.5700
 6008SOL     OW19791   4.320   6.099   2.088 -0.2295  0.1671 -0.0527
 6008SOL    HW119792   4.272   6.173   2.051 -1.9902 -1.0226 -0.2698
 6008SOL    HW219793   4.403   6.137   2.118 -0.2370  1.8462 -1.9256
 6009SOL     OW19794   1.201   9.381   2.408 -0.0600 -0.0214  0.4000
 6009SOL    HW119795   1.177   9.440   2.479  1.9013  0.5827  0.6037
 6009SOL    HW219796   1.133   9.395   2.342 -0.9834  0.6393  1.4522
 6010SOL     OW19797   8.918   5.811   8.260  0.2212 -0.1344  0.0627
 6010SOL    HW119798   9.003   5.841   8.291 -0.0678 -1.5344  2.4867
 6010SOL    HW219799   8.904   5.728   8.306 -1.4660 -1.1038 -2.0246
 6011SOL     OW19800   8.064   6.018   6.870 -0.2926 -0.0283 -0.3931
 6011SOL    HW119801   8.138   6.010   6.930 -0.3066  0.6555 -0.2844
 6011SOL    HW219802   7.994   5.967   6.911 -0.5369  1.0287  0.5373
 6012SOL     OW19803   5.411   3.912   4.117  0.2778 -0.1250  0.3039
 6012SOL    HW119804   5.410   3.819   4.139 -0.3199 -0.3906 -0.7998
 6012SOL    HW219805   5.477   3.950   4.176 -0.5202 -0.9722  1.7929
 6013SOL     OW19806   0.396   3.119   3.757  0.1571 -0.7264 -0.7130
 6013SOL    HW119807   0.318   3.073   3.726  0.0794 -1.8941  1.0795
 6013SOL    HW219808   0.374   3.145   3.847  0.9207  1.1842 -1.0329
 6014SOL     OW19809   6.860   0.633   1.353 -0.4373 -0.2537 -0.3736
 6014SOL    HW119810   6.859   0.714   1.404 -0.7471 -0.5177  0.0415
 6014SOL    HW219811   6.789   0.644   1.290  0.6242  0.5288 -1.4813
 6015SOL     OW19812   7.227   4.890   2.809  0.0028  0.0118  0.2343
 6015SOL    HW119813   7.213   4.805   2.851 -0.7664  0.7804  1.5951
 6015SOL    HW219814   7.287   4.871   2.737 -0.0214 -1.6554  0.6087
 6016SOL     OW19815   6.577   6.098   8.205  0.1961 -0.8226  0.5859
 6016SOL    HW119816   6.490   6.073   8.172 -0.3834  2.3713 -0.6525
 6016SOL    HW219817   6.634   6.091   8.129  0.6724 -1.2958  0.9823
 6017SOL     OW19818   9.422   6.641   0.510  0.7660  0.2315  0.4504
 6017SOL    HW119819   9.485   6.679   0.570  3.1566 -0.0648 -1.7129
 6017SOL    HW219820   9.405   6.710   0.446  0.5017 -0.3699 -0.1417
 6018SOL     OW19821   1.013   8.022   2.950  1.0016  0.0195 -0.1940
 6018SOL    HW119822   1.095   7.981   2.979  1.3888  0.0352 -1.2022
 6018SOL    HW219823   0.987   8.078   3.022  2.4873  0.8750 -0.2737
 6019SOL     OW19824   9.659   1.951   9.055 -0.2363 -0.5524 -0.1076
 6019SOL    HW119825   9.745   1.919   9.028  0.0736  0.5655 -0.5015
 6019SOL    HW219826   9.625   1.996   8.978 -1.1134 -0.8536  0.0991
 6020SOL     OW19827   0.297   5.915   3.779  0.3673 -0.0445 -0.1070
 6020SOL    HW119828   0.356   5.854   3.822  0.3314 -0.6919 -0.9520
 6020SOL    HW219829   0.347   5.996   3.772  0.6339 -0.1580  0.4683
 6021SOL     OW19830   2.783   9.589   6.687 -0.1389  0.0376 -0.7258
 6021SOL    HW119831   2.840   9.522   6.651  0.1251 -0.5508  0.7149
 6021SOL    HW219832   2.696   9.548   6.690  0.1602 -0.5588  0.8505
 6022SOL     OW19833   5.953   6.716   8.658 -0.5173  0.1175 -0.0883
 6022SOL    HW119834   5.940   6.623   8.678 -0.7208  0.6315  2.4010
 6022SOL    HW219835   5.936   6.762   8.740  2.4385  2.1226 -0.4076
 6023SOL     OW19836   1.734   1.445   6.619 -0.0280  0.1330 -0.8759
 6023SOL    HW119837   1.724   1.537   6.594 -0.7380  0.2630 -0.1689
 6023SOL    HW219838   1.764   1.448   6.710 -0.2958 -0.3282 -0.7691
 6024SOL     OW19839   3.830   4.622   4.181 -0.0341  0.0445 -0.1406
 6024SOL    HW119840   3.852   4.541   4.135 -2.1932 -0.0461 -1.1221
 6024SOL    HW219841   3.740   4.609   4.211 -0.2664  1.9163  0.0999
 6025SOL     OW19842   8.154   5.143   3.024 -0.3961  0.6096 -0.4105
 6025SOL    HW119843   8.245   5.115   3.017 -1.0617 -1.8665 -0.0992
 6025SOL    HW219844   8.150   5.189   3.108  0.5265  0.6079 -0.3550
 6026SOL     OW19845   6.261   7.257   0.231  0.0987 -0.6435 -0.1783
 6026SOL    HW119846   6.191   7.193   0.246 -0.3939  0.1815  1.2993
 6026SOL    HW219847   6.342   7.205   0.235 -0.3765 -1.4722 -1.0590
 6027SOL     OW19848   3.810   4.606   1.248  0.2874  0.2528  0.3996
 6027SOL    HW119849   3.720   4.575   1.263  0.4280 -0.2221  0.2807
 6027SOL    HW219850   3.799   4.687   1.199 -0.0918  0.4695  0.8246
 6028SOL     OW19851   2.960   0.325   9.101 -0.0769  0.6471 -0.1261
 6028SOL    HW119852   3.055   0.328   9.106 -0.0782  0.6706 -0.1182
 6028SOL    HW219853   2.932   0.291   9.186 -0.1488  1.9151  0.3818
 6029SOL     OW19854   2.953   6.188   8.340  0.1674  0.4318 -0.1234
 6029SOL    HW119855   3.013   6.254   8.375 -1.1858  1.8108 -0.2903
 6029SOL    HW219856   2.971   6.110   8.392 -0.5167  1.8888  2.5173
 6030SOL     OW19857   2.052   7.523   1.376  0.1066  0.3330 -0.1486
 6030SOL    HW119858   2.098   7.466   1.438  0.0588  0.0952 -0.3309
 6030SOL    HW219859   2.104   7.518   1.296 -0.6492 -0.5446 -0.6024
 6031SOL     OW19860   6.408   7.625   6.664  0.0843  0.2109  0.5240
 6031SOL    HW119861   6.424   7.535   6.635 -0.7463 -0.1798  1.2174
 6031SOL    HW219862   6.490   7.651   6.706 -0.1301 -0.7396  1.5790
 6032SOL     OW19863   1.738   4.930   3.599 -0.1569 -0.5820 -0.4768
 6032SOL    HW119864   1.707   5.021   3.601 -0.3460 -0.5616 -2.3725
 6032SOL    HW219865   1.815   4.932   3.543 -1.9399 -2.0038 -3.2074
 6033SOL     OW19866   4.318   4.887   2.841 -0.6673 -0.1221 -0.6942
 6033SOL    HW119867   4.232   4.845   2.835 -0.4418 -0.7756  0.3829
 6033SOL    HW219868   4.338   4.886   2.935  1.1538 -1.2890 -1.0522
 6034SOL     OW19869   3.366   5.662   1.140  0.4747 -0.5538  0.5161
 6034SOL    HW119870   3.459   5.674   1.121  0.7185 -3.0069 -0.2420
 6034SOL    HW219871   3.353   5.567   1.135 -2.0645 -0.2776  0.6400
 6035SOL     OW19872   8.472   7.160   3.037 -0.3717  0.6284 -0.7824
 6035SOL    HW119873   8.383   7.150   3.070 -1.4345 -1.5658 -3.8545
 6035SOL    HW219874   8.472   7.247   2.996 -0.6777  1.1579  0.3151
 6036SOL     OW19875   8.055   0.613   7.218 -0.1749 -0.5113  0.7138
 6036SOL    HW119876   8.125   0.553   7.245  0.3389 -0.0300  0.4716
 6036SOL    HW219877   8.092   0.662   7.145 -1.0359 -0.7656  0.0893
 6037SOL     OW19878   9.441   5.062   2.196 -0.4577  0.7047 -0.1893
 6037SOL    HW119879   9.464   4.971   2.213 -0.2538  0.4932 -1.5088
 6037SOL    HW219880   9.346   5.062   2.192 -0.4997  0.7183  0.6627
 6038SOL     OW19881   8.315   7.708   3.337  0.0625 -0.1689 -0.0122
 6038SOL    HW119882   8.273   7.793   3.323  0.5020 -0.1989 -1.7779
 6038SOL    HW219883   8.244   7.645   3.323  0.0388 -0.1305 -0.0686
 6039SOL     OW19884   2.361   5.544   3.666  0.4902  0.3122  0.4405
 6039SOL    HW119885   2.361   5.456   3.702 -2.2443 -0.3382 -0.9091
 6039SOL    HW219886   2.381   5.533   3.573 -0.5854  1.0151  0.1106
 6040SOL     OW19887   4.539   7.441   4.601 -0.9357  0.2377 -0.0908
 6040SOL    HW119888   4.511   7.500   4.671 -0.0447 -0.2297  0.6746
 6040SOL    HW219889   4.603   7.383   4.642 -0.5835 -0.2121 -1.2319
 6041SOL     OW19890   3.529   4.601   1.183 -0.1906 -0.3362  0.6330
 6041SOL    HW119891   3.513   4.541   1.110  0.8092  0.2895 -0.1346
 6041SOL    HW219892   3.488   4.683   1.156  1.6672  0.4174 -0.0597
 6042SOL     OW19893   4.658   7.068   3.941 -0.3211 -0.0455  0.2538
 6042SOL    HW119894   4.676   7.150   3.987 -0.2622  1.3712 -2.1285
 6042SOL    HW219895   4.743   7.040   3.907 -0.7441  0.3826 -1.2046
 6043SOL     OW19896   8.630   1.320   0.705 -0.3680  0.6101 -0.3634
 6043SOL    HW119897   8.689   1.327   0.780  1.0097 -1.1074 -1.2129
 6043SOL    HW219898   8.682   1.352   0.631 -0.8359 -0.0160 -0.9736
 6044SOL     OW19899   8.751   7.577   4.460  0.4013  0.0879  0.3859
 6044SOL    HW119900   8.683   7.641   4.438 -0.7152 -1.1657  0.1182
 6044SOL    HW219901   8.722   7.539   4.543  0.2002 -1.2122 -0.2585
 6045SOL     OW19902   5.980   3.590   5.032  0.3814  0.0229  0.1125
 6045SOL    HW119903   6.046   3.598   5.101  1.3866  0.7163 -0.8911
 6045SOL    HW219904   5.991   3.669   4.980 -0.7568 -0.2120 -0.5134
 6046SOL     OW19905   3.691   9.757   9.569 -0.1525 -0.5863  0.5423
 6046SOL    HW119906   3.689   9.705   9.489 -0.1823 -1.8358  1.3188
 6046SOL    HW219907   3.618   9.724   9.621  0.0499 -0.0140  1.2087
 6047SOL     OW19908   7.934   9.769   0.338 -0.7016  0.0327  0.1220
 6047SOL    HW119909   7.853   9.789   0.290 -0.1314 -0.2452 -0.9943
 6047SOL    HW219910   8.004   9.806   0.284  0.1393 -2.2347 -0.4603
 6048SOL     OW19911   7.853   6.090   4.775 -0.7648  0.3543  0.5841
 6048SOL    HW119912   7.920   6.109   4.841  0.5739  2.7739 -1.2978
 6048SOL    HW219913   7.774   6.072   4.825  0.4333  0.9668  2.8440
 6049SOL     OW19914   8.768   9.610   6.493  0.3156  0.1508  0.5567
 6049SOL    HW119915   8.774   9.582   6.585  0.8139  0.7677  0.7250
 6049SOL    HW219916   8.843   9.570   6.450  0.2335  0.0801  0.4800
 6050SOL     OW19917   1.516   2.305   5.366 -0.6545 -0.1942  0.1693
 6050SOL    HW119918   1.460   2.239   5.326 -0.7739 -0.3955  0.6634
 6050SOL    HW219919   1.582   2.255   5.413  1.0160  0.0011 -1.8087
 6051SOL     OW19920   9.430   4.468   9.147  0.3833  0.0775  0.3829
 6051SOL    HW119921   9.448   4.449   9.239  1.0347  2.5487  0.8459
 6051SOL    HW219922   9.500   4.529   9.121 -0.6148  0.5624 -1.3117
 6052SOL     OW19923   5.771   0.581   5.572 -0.1435 -0.1457 -0.0792
 6052SOL    HW119924   5.707   0.592   5.500  0.2875  0.6206 -0.3620
 6052SOL    HW219925   5.784   0.670   5.605  0.0073 -0.4369  0.6637
 6053SOL     OW19926   8.136   6.037   9.186  0.0247  0.3145 -0.1631
 6053SOL    HW119927   8.158   6.112   9.241 -1.1869  0.0359  0.7194
 6053SOL    HW219928   8.221   6.005   9.154  0.5681  1.9951 -0.4990
 6054SOL     OW19929   3.652   8.644   5.965  0.0216 -0.9358  0.8219
 6054SOL    HW119930   3.650   8.683   5.877 -0.8821 -0.4589  1.0477
 6054SOL    HW219931   3.744   8.653   5.992  0.0306  0.1650  0.4799
 6055SOL     OW19932   5.549   7.838   7.370  0.1988 -0.0339  0.0234
 6055SOL    HW119933   5.602   7.912   7.400  0.8031 -0.9018  1.1708
 6055SOL    HW219934   5.548   7.847   7.275 -1.7441  2.7977  0.1781
 6056SOL     OW19935   2.326   5.165   8.159  0.0842  0.2436 -0.5671
 6056SOL    HW119936   2.300   5.236   8.217  1.1387 -0.3236  0.6554
 6056SOL    HW219937   2.268   5.173   8.083  0.5022  2.7049 -0.7120
 6057SOL     OW19938   6.925   6.639   0.272 -0.0602  0.2298  0.2155
 6057SOL    HW119939   6.941   6.700   0.344  0.4442  0.4342 -0.0682
 6057SOL    HW219940   6.884   6.692   0.204 -0.1262  0.1335  0.1788
 6058SOL     OW19941   6.130   7.260   5.716  0.3000  0.4554 -0.4031
 6058SOL    HW119942   6.138   7.288   5.625 -0.9499  0.3676 -0.5575
 6058SOL    HW219943   6.116   7.340   5.766  1.1239  0.5177 -0.2609
 6059SOL     OW19944   3.216   6.388   7.587 -0.0607  0.0972  0.1230
 6059SOL    HW119945   3.221   6.379   7.491  1.6417 -3.6701  0.3577
 6059SOL    HW219946   3.154   6.320   7.613 -1.1076  1.6005  1.7065
 6060SOL     OW19947   2.514   5.964   1.571  0.0605  0.2876  0.1627
 6060SOL    HW119948   2.518   5.924   1.484  1.4561  0.8042 -0.0229
 6060SOL    HW219949   2.561   6.046   1.562  0.1873  0.3623  1.4046
 6061SOL     OW19950   7.484   4.939   7.419  0.4321 -0.5228  0.0028
 6061SOL    HW119951   7.452   4.887   7.346  0.2315  1.8648 -1.7592
 6061SOL    HW219952   7.411   4.997   7.441  1.3778  0.6027  0.2986
 6062SOL     OW19953   7.006   3.924   8.406 -0.0543  0.7219  0.0589
 6062SOL    HW119954   7.049   3.868   8.471 -1.1626 -0.2304  0.0131
 6062SOL    HW219955   7.058   3.913   8.327  0.3094  0.5307  0.3209
 6063SOL     OW19956   4.770   9.692   2.235  0.0291  0.1079  0.6138
 6063SOL    HW119957   4.783   9.665   2.326  0.7827  0.9020  0.7489
 6063SOL    HW219958   4.808   9.779   2.230  1.7674 -0.6740 -0.9305
 6064SOL     OW19959   7.248   6.649   7.637  0.1665 -0.3644  0.2796
 6064SOL    HW119960   7.235   6.691   7.722  2.4635  1.2523 -0.0914
 6064SOL    HW219961   7.207   6.707   7.574 -1.0781 -1.3039  0.1737
 6065SOL     OW19962   8.644   8.499   1.910  0.5173 -0.1645 -0.0648
 6065SOL    HW119963   8.603   8.539   1.833  0.5629  0.3239  0.1634
 6065SOL    HW219964   8.590   8.528   1.983  1.5388  0.8950  0.3022
 6066SOL     OW19965   1.224   8.466   3.238  0.3299  0.1911  0.2482
 6066SOL    HW119966   1.156   8.528   3.211 -0.1638 -0.3904  0.1389
 6066SOL    HW219967   1.287   8.519   3.287  0.5163  1.0054 -0.8368
 6067SOL     OW19968   2.969   6.247   2.565  0.1958 -0.2412 -0.3087
 6067SOL    HW119969   2.946   6.201   2.645  0.3115 -1.7849 -1.1305
 6067SOL    HW219970   2.884   6.272   2.526  0.1197 -0.1767 -0.1008
 6068SOL     OW19971   2.152   8.790   6.406 -0.1554 -0.1625  0.0503
 6068SOL    HW119972   2.196   8.852   6.463 -0.3108 -0.6498  0.7111
 6068SOL    HW219973   2.101   8.844   6.346  1.3590  0.4196 -0.7691
 6069SOL     OW19974   0.492   7.098   7.874  0.0544  0.2570  0.1411
 6069SOL    HW119975   0.460   7.176   7.829 -1.8314 -1.1343 -1.0708
 6069SOL    HW219976   0.587   7.103   7.865 -0.1340  0.4659 -3.4751
 6070SOL     OW19977   7.491   7.002   1.061  0.3992  0.0241  0.1243
 6070SOL    HW119978   7.484   6.998   0.965  0.6243 -0.1893  0.1165
 6070SOL    HW219979   7.473   6.913   1.091 -1.9678  0.5584  0.4449
 6071SOL     OW19980   4.751   3.524   2.907 -0.1579  0.4515  0.2976
 6071SOL    HW119981   4.715   3.593   2.850 -0.7904 -0.0949  0.0241
 6071SOL    HW219982   4.809   3.474   2.850 -1.9281 -1.0067 -0.2997
 6072SOL     OW19983   6.263   4.784   5.874  0.3578  0.2611  0.5250
 6072SOL    HW119984   6.274   4.825   5.789 -0.1047 -1.2771 -0.3099
 6072SOL    HW219985   6.352   4.774   5.908  0.4804  1.8878  0.7490
 6073SOL     OW19986   6.709   0.405   8.066 -0.3756  0.0499 -0.5404
 6073SOL    HW119987   6.727   0.447   8.150  0.3096 -0.1422 -0.5892
 6073SOL    HW219988   6.640   0.459   8.027 -0.9170 -0.0366  0.2796
 6074SOL     OW19989   2.012   3.991   1.743  0.2389  0.2959  0.0872
 6074SOL    HW119990   2.090   3.955   1.784 -1.5423 -4.1012  0.1246
 6074SOL    HW219991   1.975   4.051   1.809  1.1860 -1.1132  1.9772
 6075SOL     OW19992   7.385   5.573   8.682  0.1285  0.6642  0.7538
 6075SOL    HW119993   7.329   5.506   8.720 -0.5520  1.1649  0.6461
 6075SOL    HW219994   7.334   5.654   8.687 -0.0262  0.7393 -1.2485
 6076SOL     OW19995   6.517   2.125   4.166 -0.5261  0.0100 -0.3869
 6076SOL    HW119996   6.562   2.204   4.138 -1.7541  1.7181  1.9964
 6076SOL    HW219997   6.554   2.055   4.113  1.4148  2.0026 -1.8341
 6077SOL     OW19998   4.419   2.634   3.020  0.2406 -0.6127  0.0363
 6077SOL    HW119999   4.366   2.571   3.068 -0.2572  0.9281  1.6449
 6077SOL    HW220000   4.491   2.583   2.983  0.2899 -1.9965  1.9351
 6078SOL     OW20001   6.875   7.588   5.902  0.0045 -0.0088  0.3999
 6078SOL    HW120002   6.810   7.647   5.862 -0.1756  0.4060  1.2826
 6078SOL    HW220003   6.905   7.635   5.980  0.0763 -0.9664  0.9580
 6079SOL     OW20004   0.899   4.165   5.970  0.0061  0.3623  0.7955
 6079SOL    HW120005   0.954   4.168   5.891 -2.2092 -0.8783 -0.8882
 6079SOL    HW220006   0.853   4.249   5.969 -1.1597 -0.2565 -0.1581
 6080SOL     OW20007   4.873   1.913   2.918 -0.2154 -0.1331 -0.4103
 6080SOL    HW120008   4.859   1.954   3.003  1.2023  0.5299 -0.4737
 6080SOL    HW220009   4.821   1.832   2.922  0.9053 -0.8362  1.6438
 6081SOL     OW20010   1.530   1.570   9.700  0.6069 -0.6196  0.3088
 6081SOL    HW120011   1.507   1.495   9.645 -0.9567 -2.3592  3.1012
 6081SOL    HW220012   1.451   1.623   9.704  0.9377 -0.1139  0.3574
 6082SOL     OW20013   7.570   8.281   7.419 -0.2008 -0.0754  0.6013
 6082SOL    HW120014   7.651   8.307   7.375 -1.0386 -0.2738 -1.1085
 6082SOL    HW220015   7.560   8.344   7.491  0.1611  1.5207 -0.6957
 6083SOL     OW20016   5.214   0.440   8.135 -0.1239 -0.0973  0.0588
 6083SOL    HW120017   5.293   0.418   8.086 -1.2377  1.3127 -2.6350
 6083SOL    HW220018   5.224   0.533   8.155 -1.4975  0.3896 -1.3077
 6084SOL     OW20019   4.128   4.860   3.756  0.5267  0.7847  0.0637
 6084SOL    HW120020   4.113   4.935   3.699  0.9908  0.4079 -0.5594
 6084SOL    HW220021   4.221   4.862   3.775  0.6270  0.1179 -0.3170
 6085SOL     OW20022   4.615   2.322   8.633  0.3076 -0.7570 -0.4417
 6085SOL    HW120023   4.691   2.289   8.681 -0.2946  1.2540  2.1621
 6085SOL    HW220024   4.546   2.259   8.652  0.6220 -1.1115 -0.4652
 6086SOL     OW20025   6.348   6.228   1.449  0.2953 -0.6031  0.0562
 6086SOL    HW120026   6.255   6.246   1.454  0.1558 -1.4965  1.3157
 6086SOL    HW220027   6.375   6.212   1.540  2.0921  1.5185 -0.0155
 6087SOL     OW20028   2.443   1.962   1.731  0.1498 -0.0173  0.1087
 6087SOL    HW120029   2.518   1.941   1.786  1.0983  0.9936 -0.7422
 6087SOL    HW220030   2.454   1.906   1.654 -0.3748 -0.3899  0.3015
 6088SOL     OW20031   7.794   8.576   9.261  0.2944 -0.1353 -0.3272
 6088SOL    HW120032   7.714   8.589   9.311  0.0503 -1.9880 -0.1453
 6088SOL    HW220033   7.778   8.619   9.177 -0.6951 -0.0642 -0.1075
 6089SOL     OW20034   6.177   7.537   7.819  0.2718 -0.1962  0.4052
 6089SOL    HW120035   6.128   7.493   7.890  1.5093 -0.4508  1.1286
 6089SOL    HW220036   6.170   7.476   7.745 -0.2393 -0.3743  0.5901
 6090SOL     OW20037   4.051   2.036   3.683 -0.2402  0.3805 -0.3460
 6090SOL    HW120038   4.109   1.994   3.620  1.8415  1.4713  0.7685
 6090SOL    HW220039   3.999   1.964   3.719  2.3883 -1.1745  0.6342
 6091SOL     OW20040   2.635   7.335   2.090  0.2677 -0.4193 -0.2610
 6091SOL    HW120041   2.721   7.297   2.074  1.7789  1.7320  2.1022
 6091SOL    HW220042   2.624   7.400   2.021  0.2617 -1.0440 -0.8644
 6092SOL     OW20043   1.734   5.553   1.202  0.6302  0.3454 -0.4117
 6092SOL    HW120044   1.684   5.629   1.172  0.4725  0.6303  0.5364
 6092SOL    HW220045   1.703   5.481   1.147 -0.6585  0.5669 -0.0078
 6093SOL     OW20046   4.845   0.568   7.417 -0.0156  0.1980  0.4148
 6093SOL    HW120047   4.836   0.563   7.321  0.2966 -1.9820  0.4513
 6093SOL    HW220048   4.771   0.622   7.445 -1.2210 -0.6549 -0.9413
 6094SOL     OW20049   6.314   3.490   5.493 -0.3107 -0.2064  0.1260
 6094SOL    HW120050   6.325   3.400   5.522 -0.8285 -0.1572  0.4796
 6094SOL    HW220051   6.402   3.528   5.499 -0.3822 -0.2161  1.5680
 6095SOL     OW20052   7.064   4.994   7.859  0.4898 -0.1667 -0.5343
 6095SOL    HW120053   7.091   4.905   7.880  0.9463 -0.0704 -0.6936
 6095SOL    HW220054   6.988   5.010   7.915  1.1243 -0.2340  0.3668
 6096SOL     OW20055   2.067   6.692   2.303  1.1427 -0.2045  0.0169
 6096SOL    HW120056   1.979   6.710   2.338  1.0846  1.2760 -0.7825
 6096SOL    HW220057   2.082   6.600   2.323 -0.5451 -0.4661  0.2948
 6097SOL     OW20058   2.914   8.043   4.139  0.1780 -0.0991 -0.0477
 6097SOL    HW120059   2.820   8.058   4.131  0.2825  3.0516  2.4670
 6097SOL    HW220060   2.925   8.002   4.225  1.1655  0.8859  0.3205
 6098SOL     OW20061   6.897   1.590   2.205  0.2907 -0.4746  0.2036
 6098SOL    HW120062   6.914   1.683   2.219 -1.6507 -0.0582  0.0404
 6098SOL    HW220063   6.952   1.546   2.270  0.9513  0.7905  0.5362
 6099SOL     OW20064   6.069   6.214   9.157 -0.0623  0.9069 -0.8236
 6099SOL    HW120065   6.022   6.275   9.214  0.7653 -0.4947  1.5115
 6099SOL    HW220066   6.162   6.234   9.173  0.1916  0.3871 -1.6035
 6100SOL     OW20067   6.517   3.847   9.640  0.3550 -0.9425 -0.4667
 6100SOL    HW120068   6.535   3.923   9.584 -0.2418 -1.6394 -1.6313
 6100SOL    HW220069   6.576   3.858   9.715 -0.1612  1.0007 -0.2942
 6101SOL     OW20070   6.970   7.394   8.310  0.1765 -0.5038  0.0798
 6101SOL    HW120071   6.941   7.444   8.234 -0.4335  0.0903  0.6931
 6101SOL    HW220072   7.001   7.460   8.372 -0.1505 -0.9121  0.6869
 6102SOL     OW20073   9.573   5.604   3.653 -0.0125 -0.2490  0.1559
 6102SOL    HW120074   9.614   5.595   3.567  3.0551 -1.3104  1.6042
 6102SOL    HW220075   9.595   5.692   3.681 -1.6562  0.3704 -0.3814
 6103SOL     OW20076   3.490   3.810   1.330  0.4984 -0.0489  0.1458
 6103SOL    HW120077   3.451   3.812   1.417 -0.0568 -0.1321 -0.0963
 6103SOL    HW220078   3.425   3.767   1.275  1.7183 -1.9923  0.1192
 6104SOL     OW20079   7.803   9.725   8.362 -0.1125  0.5776 -0.2163
 6104SOL    HW120080   7.771   9.637   8.343  0.3339  0.3287  0.1890
 6104SOL    HW220081   7.775   9.742   8.452  1.2308  0.2046  0.2847
 6105SOL     OW20082   5.371   1.292   3.681  0.2300  0.0979 -0.4672
 6105SOL    HW120083   5.326   1.267   3.762 -0.5321  0.2451 -0.8397
 6105SOL    HW220084   5.320   1.365   3.646  0.3684 -0.1672 -1.2430
 6106SOL     OW20085   4.322   4.871   9.760 -0.9674  0.3858  0.7087
 6106SOL    HW120086   4.262   4.815   9.809  0.2198 -1.9457 -0.3544
 6106SOL    HW220087   4.288   4.869   9.670  0.4825 -0.7641  0.1427
 6107SOL     OW20088   4.994   2.429   4.911 -0.1376 -0.0864 -0.2090
 6107SOL    HW120089   4.964   2.341   4.933 -1.9645  0.8957  1.4996
 6107SOL    HW220090   5.076   2.440   4.959 -0.1011 -0.7118 -0.1296
 6108SOL     OW20091   7.615   3.538   8.937  0.0472 -0.4490 -0.2724
 6108SOL    HW120092   7.537   3.542   8.992  0.7434 -0.8835  0.7854
 6108SOL    HW220093   7.678   3.486   8.988  1.1604  0.2019 -0.9315
 6109SOL     OW20094   7.466   8.946   9.081 -0.6415 -0.5872  0.2350
 6109SOL    HW120095   7.529   8.953   9.010 -0.7831  0.8455  0.2269
 6109SOL    HW220096   7.420   9.030   9.081  0.4855  0.1471  3.0767
 6110SOL     OW20097   8.746   8.980   6.817 -0.2435  0.1568 -0.4972
 6110SOL    HW120098   8.834   8.960   6.787  1.0083  1.1507  2.1472
 6110SOL    HW220099   8.712   8.898   6.852  0.4410  0.1705  0.2283
 6111SOL     OW20100   4.344   0.652   2.811  0.0016  0.2487  0.6473
 6111SOL    HW120101   4.251   0.628   2.808  0.0891 -0.2201  1.3617
 6111SOL    HW220102   4.369   0.637   2.902  1.3829 -2.0500 -0.0203
 6112SOL     OW20103   2.484   9.229   4.827 -0.2182  0.3623 -0.3713
 6112SOL    HW120104   2.391   9.239   4.845 -0.1191  0.1228  0.3136
 6112SOL    HW220105   2.494   9.250   4.734 -1.1829 -1.0111 -0.8160
 6113SOL     OW20106   1.420   8.747   8.223  0.2201  0.2870  0.3765
 6113SOL    HW120107   1.378   8.827   8.254  0.3716  0.8718 -0.8524
 6113SOL    HW220108   1.514   8.762   8.234  0.3814  1.1199 -1.6267
 6114SOL     OW20109   6.157   7.692   3.280  0.0095 -0.5241  0.1104
 6114SOL    HW120110   6.177   7.732   3.364 -4.1097 -1.1649  1.6649
 6114SOL    HW220111   6.185   7.601   3.289 -1.8584 -1.0211  1.5651
 6115SOL     OW20112   5.458   5.133   1.825  0.2687 -0.0862  0.2740
 6115SOL    HW120113   5.550   5.111   1.807  0.8491  1.8966  0.5858
 6115SOL    HW220114   5.447   5.115   1.918  0.4934  0.1979  0.3545
 6116SOL     OW20115   0.446   3.119   2.612 -0.8166 -0.4591 -0.2244
 6116SOL    HW120116   0.522   3.176   2.624 -2.2607  1.9420 -1.5999
 6116SOL    HW220117   0.380   3.154   2.672 -1.0613 -2.1622  0.5539
 6117SOL     OW20118   1.644   9.089   2.597 -0.2906 -0.2917 -0.1019
 6117SOL    HW120119   1.664   9.027   2.527  0.7699  1.0061 -0.9914
 6117SOL    HW220120   1.574   9.143   2.562 -0.6119 -0.4159  0.3358
 6118SOL     OW20121   0.717   8.377   8.407 -0.0907 -0.4998  0.0522
 6118SOL    HW120122   0.771   8.451   8.435  0.9202 -1.3342  0.3729
 6118SOL    HW220123   0.645   8.375   8.470 -1.3671  1.5037 -1.2145
 6119SOL     OW20124   9.408   3.514   7.010  0.1077 -0.0843  1.0334
 6119SOL    HW120125   9.320   3.475   7.005  0.3398 -0.5551  0.5287
 6119SOL    HW220126   9.402   3.595   6.959 -0.2059  0.2168  1.5458
 6120SOL     OW20127   1.954   7.596   0.358  0.0774 -0.3193  0.0544
 6120SOL    HW120128   1.966   7.514   0.407 -0.4985  1.0693  2.6795
 6120SOL    HW220129   1.875   7.580   0.305 -0.6153 -1.1561  1.2787
 6121SOL     OW20130   5.383   4.065   0.004 -0.0141  0.0210 -0.1777
 6121SOL    HW120131   5.469   4.061  -0.039  0.2699  0.5821  0.3195
 6121SOL    HW220132   5.397   4.122   0.079 -0.4028 -1.2703  0.9063
 6122SOL     OW20133   5.291   7.986   8.853  0.6518 -0.5371  0.4338
 6122SOL    HW120134   5.202   7.964   8.880  0.3226  0.1334 -0.0799
 6122SOL    HW220135   5.332   8.021   8.931 -0.5515  2.1994 -0.0350
 6123SOL     OW20136   7.597   2.320   0.857 -0.6827  0.2793 -0.2437
 6123SOL    HW120137   7.571   2.326   0.765 -0.7504 -1.5692 -0.3861
 6123SOL    HW220138   7.691   2.336   0.857 -0.4208 -1.0996 -0.8680
 6124SOL     OW20139   7.306   7.943   1.619  0.3598 -0.6991  0.5325
 6124SOL    HW120140   7.333   7.947   1.711 -1.9645  1.7753  1.2494
 6124SOL    HW220141   7.367   8.001   1.573 -1.6592  2.6147  1.6465
 6125SOL     OW20142   7.596   1.230   5.057 -0.1559 -0.2732  0.2281
 6125SOL    HW120143   7.560   1.173   4.989  0.1913 -1.8242  1.2643
 6125SOL    HW220144   7.520   1.259   5.108 -0.2550 -0.7396  0.3530
 6126SOL     OW20145   2.729   8.883   9.729  0.0510 -0.6281 -0.3224
 6126SOL    HW120146   2.662   8.845   9.671  0.4297 -0.6597 -0.7451
 6126SOL    HW220147   2.687   8.961   9.765 -0.2338 -0.6707 -0.5506
 6127SOL     OW20148   2.487   1.017   6.843  0.1198 -0.0356 -0.0377
 6127SOL    HW120149   2.546   0.960   6.795 -0.5624  0.4073 -1.4548
 6127SOL    HW220150   2.400   0.985   6.822 -0.2739  1.4894 -0.8743
 6128SOL     OW20151   6.227   8.741   3.963  0.5844  0.5868 -0.7117
 6128SOL    HW120152   6.247   8.661   4.012  4.0468  1.6527 -0.1161
 6128SOL    HW220153   6.256   8.812   4.020 -0.7054  2.2240 -1.9831
 6129SOL     OW20154   2.758   7.564   6.564 -0.2043 -0.3941 -0.0282
 6129SOL    HW120155   2.725   7.639   6.614  0.4504  0.0170 -0.2040
 6129SOL    HW220156   2.723   7.577   6.476  0.7799  0.2936 -0.3350
 6130SOL     OW20157   3.254   1.212   5.058 -0.0486  0.0591  0.2962
 6130SOL    HW120158   3.301   1.275   5.003 -0.4351 -0.2468 -0.4044
 6130SOL    HW220159   3.318   1.143   5.075  0.8521  1.3290  2.3224
 6131SOL     OW20160   9.563   7.662   3.915  0.3947 -0.0724  0.1347
 6131SOL    HW120161   9.598   7.597   3.976  2.9557  2.3567  1.4815
 6131SOL    HW220162   9.560   7.743   3.965 -1.0132  1.2605 -1.9542
 6132SOL     OW20163   2.173   0.616   3.732 -0.6012 -0.1698  0.4234
 6132SOL    HW120164   2.097   0.665   3.764 -2.0693 -1.9931 -0.0667
 6132SOL    HW220165   2.232   0.612   3.807 -1.4233  0.4741  1.1300
 6133SOL     OW20166   0.106   0.037   8.142 -0.3604 -0.2050  0.0712
 6133SOL    HW120167   0.019   0.077   8.149 -0.7870 -1.0309 -0.3570
 6133SOL    HW220168   0.104  -0.010   8.058  1.4559  1.9866 -1.3196
 6134SOL     OW20169   2.782   5.698   0.947  0.3341 -0.7053 -0.2174
 6134SOL    HW120170   2.814   5.782   0.913 -0.0222 -0.2236  0.6270
 6134SOL    HW220171   2.799   5.702   1.041  2.3772 -2.4910 -0.4335
 6135SOL     OW20172   2.754   6.554   3.607 -0.0689  0.5544 -0.6214
 6135SOL    HW120173   2.785   6.618   3.671 -0.4396  0.4255 -0.3103
 6135SOL    HW220174   2.709   6.605   3.540 -0.6099  0.5908 -0.2279
 6136SOL     OW20175   5.731   5.171   4.158 -0.0744  0.3214 -0.4653
 6136SOL    HW120176   5.659   5.233   4.172 -0.0694  0.5517 -1.3896
 6136SOL    HW220177   5.805   5.227   4.134 -0.1234 -0.0396 -1.5049
 6137SOL     OW20178   0.570   0.257   7.942  0.3262 -0.0871 -0.5703
 6137SOL    HW120179   0.556   0.237   7.849 -0.1290 -1.1684 -0.2761
 6137SOL    HW220180   0.647   0.315   7.942 -1.4413  2.4676 -1.8694
 6138SOL     OW20181   4.481   7.631   4.400 -0.0837 -0.0521  0.1162
 6138SOL    HW120182   4.511   7.692   4.468 -0.6913  0.6468 -0.2262
 6138SOL    HW220183   4.515   7.546   4.427 -0.6906  0.1289  1.5299
 6139SOL     OW20184   7.071   2.082   8.336 -0.8246 -0.3495  0.2149
 6139SOL    HW120185   7.097   2.110   8.424 -1.3514 -0.2123  0.3337
 6139SOL    HW220186   7.000   2.019   8.351  0.1423 -1.5346 -0.0609
 6140SOL     OW20187   3.748   1.712   2.816  0.7004 -0.4890 -0.1772
 6140SOL    HW120188   3.768   1.702   2.909 -0.2315  1.9526  0.3461
 6140SOL    HW220189   3.797   1.790   2.790 -0.6013 -0.0006 -1.2277
 6141SOL     OW20190   3.237   2.434   9.333 -0.5274 -0.1001  0.0342
 6141SOL    HW120191   3.266   2.424   9.423 -1.1467  1.3828  0.4237
 6141SOL    HW220192   3.186   2.515   9.332 -1.5868 -0.7274 -1.3790
 6142SOL     OW20193   7.138   2.132   5.009 -0.0110 -0.0757  0.5382
 6142SOL    HW120194   7.202   2.180   4.957  0.7523 -0.0719  1.4575
 6142SOL    HW220195   7.069   2.196   5.028 -0.3912 -0.1288 -0.6048
 6143SOL     OW20196   0.960   3.028   7.200 -0.5876  0.5752  0.2475
 6143SOL    HW120197   1.037   3.032   7.143 -0.8173 -0.9133 -0.2041
 6143SOL    HW220198   0.915   3.111   7.184  1.5031  2.0518  1.4171
 6144SOL     OW20199   0.962   5.687   1.987 -0.7427  0.8367  0.7300
 6144SOL    HW120200   1.028   5.618   1.974 -2.0899 -0.2561 -0.7708
 6144SOL    HW220201   1.007   5.768   1.962  0.2669  0.2255  0.4858
 6145SOL     OW20202   0.153   3.181   5.429  0.0801  0.2734  0.1464
 6145SOL    HW120203   0.206   3.104   5.445 -3.1788 -2.2266  0.1001
 6145SOL    HW220204   0.127   3.211   5.516  1.3416  1.3905  0.1637
 6146SOL     OW20205   2.144   2.958   9.247 -0.1294  0.5919 -0.4978
 6146SOL    HW120206   2.167   2.883   9.192  0.7933  1.9695 -2.0885
 6146SOL    HW220207   2.182   2.938   9.333  0.0388 -0.7652 -0.8633
 6147SOL     OW20208   2.118   8.404   7.174 -0.1031  0.2190 -0.0915
 6147SOL    HW120209   2.097   8.428   7.084 -1.3452  0.2498  0.1892
 6147SOL    HW220210   2.108   8.308   7.176  0.7329  0.1237 -0.1802
 6148SOL     OW20211   9.250   3.358   1.085  0.3700 -0.3060 -0.2870
 6148SOL    HW120212   9.187   3.412   1.132  0.0120 -2.7181  2.2738
 6148SOL    HW220213   9.330   3.411   1.084 -0.1528  0.6019  1.4492
 6149SOL     OW20214   6.181   0.012   9.230 -0.2564  0.8217  0.1629
 6149SOL    HW120215   6.223  -0.054   9.175 -0.3147  0.9316 -0.0150
 6149SOL    HW220216   6.209   0.095   9.193 -1.6221  0.9087 -0.7480
 6150SOL     OW20217   8.042   5.520   9.006  0.0256  0.1280  1.0455
 6150SOL    HW120218   8.050   5.611   9.034 -0.4656  1.1921 -1.9101
 6150SOL    HW220219   8.061   5.521   8.912  0.5507 -2.9374  0.9918
 6151SOL     OW20220   2.797   2.292   2.699  0.3235 -0.3944 -0.7686
 6151SOL    HW120221   2.863   2.355   2.669 -0.8234  0.5086 -1.4604
 6151SOL    HW220222   2.727   2.345   2.735  0.2927 -1.3729  0.7452
 6152SOL     OW20223   2.848   2.188   6.058  0.1075 -0.2591 -0.1009
 6152SOL    HW120224   2.854   2.115   6.119  0.4902  0.6618  0.9953
 6152SOL    HW220225   2.933   2.231   6.064 -0.4562  0.8598  0.0250
 6153SOL     OW20226   5.176   5.129   5.502  0.3858  0.0014  0.2656
 6153SOL    HW120227   5.092   5.175   5.503  1.0020  1.1941 -0.9124
 6153SOL    HW220228   5.241   5.198   5.514  1.2292 -0.9041  1.1029
 6154SOL     OW20229   3.798   7.063   9.095  0.5936  0.1132 -0.0876
 6154SOL    HW120230   3.750   7.112   9.028  0.7230  0.0354 -0.2377
 6154SOL    HW220231   3.860   7.010   9.046  0.5360 -0.1125  0.0831
 6155SOL     OW20232   7.543   6.260   1.492 -0.3454 -0.5136 -0.0299
 6155SOL    HW120233   7.533   6.234   1.400  1.2035 -1.4899  0.0324
 6155SOL    HW220234   7.517   6.352   1.494  0.3869 -0.2316 -1.6432
 6156SOL     OW20235   6.348   8.483   0.564 -0.1332  0.0877  0.0298
 6156SOL    HW120236   6.323   8.391   0.561 -2.1541  0.6157 -2.0521
 6156SOL    HW220237   6.316   8.515   0.648 -2.8740 -0.3033 -0.7780
 6157SOL     OW20238   2.373   6.416   3.917 -0.1612  0.7210 -0.0291
 6157SOL    HW120239   2.423   6.335   3.911 -0.2251  0.7478 -1.3810
 6157SOL    HW220240   2.294   6.393   3.966 -0.0168  0.0482 -0.1118
 6158SOL     OW20241   6.602   5.278   5.261  0.6592  0.5278  0.4012
 6158SOL    HW120242   6.585   5.253   5.352  0.2914  1.6817  0.6618
 6158SOL    HW220243   6.516   5.285   5.221  0.8448 -0.9156 -0.3282
 6159SOL     OW20244   9.182   4.579   3.317 -0.5156  0.1955  0.3372
 6159SOL    HW120245   9.156   4.662   3.279 -0.3894  0.5697  1.0434
 6159SOL    HW220246   9.277   4.587   3.329 -0.2704 -0.6144 -0.9280
 6160SOL     OW20247   5.419   5.111   0.116  0.0590  0.1220  0.0347
 6160SOL    HW120248   5.329   5.136   0.094  0.6351  0.1717 -2.6484
 6160SOL    HW220249   5.467   5.194   0.114  0.2284  0.0714  1.2827
 6161SOL     OW20250   5.111   1.210   7.145 -0.6980  0.2877 -0.7267
 6161SOL    HW120251   5.172   1.216   7.071 -1.6545  2.6120 -1.4381
 6161SOL    HW220252   5.025   1.207   7.104 -1.2308  1.1738  0.2785
 6162SOL     OW20253   0.428   7.844   1.223  0.2764  0.2659  0.1546
 6162SOL    HW120254   0.343   7.853   1.266  0.1965 -0.3083  0.1226
 6162SOL    HW220255   0.456   7.755   1.243  0.2555 -0.0068 -0.9369
 6163SOL     OW20256   6.047   8.336   1.547 -0.2944  0.2342 -0.2370
 6163SOL    HW120257   6.095   8.334   1.630  0.1337 -1.7372 -0.4935
 6163SOL    HW220258   5.955   8.338   1.573 -0.1827 -0.8708  0.3128
 6164SOL     OW20259   3.629   2.422   2.460  0.4001  0.0724  0.6585
 6164SOL    HW120260   3.604   2.377   2.540  4.1021  0.7349  2.4023
 6164SOL    HW220261   3.694   2.365   2.419 -0.2594  0.4939 -1.0718
 6165SOL     OW20262   4.230   1.157   2.319  0.2605  0.6041 -0.6448
 6165SOL    HW120263   4.256   1.066   2.334  0.6513  0.5915 -1.3356
 6165SOL    HW220264   4.311   1.200   2.290  0.2769  1.3822  0.5026
 6166SOL     OW20265   2.566   3.154   3.638  0.0704  0.2397  0.1265
 6166SOL    HW120266   2.658   3.128   3.644 -0.3879 -1.5299  0.0720
 6166SOL    HW220267   2.543   3.137   3.546 -1.3373 -3.3103  0.9808
 6167SOL     OW20268   3.007   4.396   3.108 -0.4652 -0.0199  0.6190
 6167SOL    HW120269   2.963   4.481   3.104 -2.0817 -0.8243  0.6378
 6167SOL    HW220270   2.989   4.355   3.023  0.3429 -0.3437  0.5910
 6168SOL     OW20271   7.001   3.143   4.382 -0.3245  0.7776  0.0636
 6168SOL    HW120272   7.004   3.195   4.462  1.4938  1.6563 -0.5191
 6168SOL    HW220273   7.052   3.064   4.403 -2.9162 -0.8237  0.8866
 6169SOL     OW20274   6.372   9.066   9.515  0.2083  0.1635  0.0448
 6169SOL    HW120275   6.454   9.027   9.546 -0.3173 -1.0733 -0.0866
 6169SOL    HW220276   6.304   9.020   9.564 -0.3953  1.7811  0.8057
 6170SOL     OW20277   4.043   3.853   0.065  0.0685 -0.2663  0.1660
 6170SOL    HW120278   3.988   3.847   0.144  0.0820  0.4229  0.2344
 6170SOL    HW220279   3.986   3.893  -0.000  0.1237 -0.6489 -0.1169
 6171SOL     OW20280   2.648   6.974   0.456  0.0152  0.6001  0.2707
 6171SOL    HW120281   2.739   6.950   0.438 -0.2267  0.1109 -0.3786
 6171SOL    HW220282   2.606   6.969   0.370 -0.6109  0.8818  0.5596
 6172SOL     OW20283   3.084   5.302   5.228  0.4033 -0.1564 -0.0910
 6172SOL    HW120284   3.134   5.383   5.239 -1.1321  1.1559 -2.2191
 6172SOL    HW220285   3.072   5.270   5.318  2.6469  0.9103  0.6896
 6173SOL     OW20286   8.944   1.874   9.458 -0.3008 -0.2921  0.7536
 6173SOL    HW120287   8.917   1.813   9.389 -0.2136  0.8344 -0.3036
 6173SOL    HW220288   8.864   1.922   9.481 -0.0008  0.4365  0.2986
 6174SOL     OW20289   7.376   5.408   2.831 -0.1417 -0.0905  0.4738
 6174SOL    HW120290   7.435   5.367   2.767  0.8408  0.5162  0.9581
 6174SOL    HW220291   7.295   5.358   2.825  0.3477 -0.8086 -0.3804
 6175SOL     OW20292   9.192   2.566   9.254  0.3975 -0.2054 -0.2591
 6175SOL    HW120293   9.111   2.545   9.300  1.6946 -0.0758  2.3073
 6175SOL    HW220294   9.198   2.661   9.257 -0.7199  0.0418 -3.1220
 6176SOL     OW20295   0.763   6.199   4.755  0.0964  0.1081 -0.3722
 6176SOL    HW120296   0.835   6.138   4.769 -0.8816 -1.7139 -2.6680
 6176SOL    HW220297   0.739   6.229   4.843  3.1847  0.3311  0.5034
 6177SOL     OW20298   9.249   4.453   8.310  0.7467  0.3162 -0.1820
 6177SOL    HW120299   9.162   4.422   8.336  0.8436 -1.1363 -1.4150
 6177SOL    HW220300   9.270   4.400   8.233  1.7568  2.2540 -1.2964
 6178SOL     OW20301   1.937   5.820   1.793  0.6398  0.2686  0.0687
 6178SOL    HW120302   1.951   5.812   1.888  1.6487  1.4027  0.0284
 6178SOL    HW220303   1.866   5.883   1.784 -0.4906 -0.9658  0.0933
 6179SOL     OW20304   0.010   5.592   0.338  0.1013  0.4833  0.4103
 6179SOL    HW120305   0.092   5.574   0.384 -0.1730  0.0867  0.7411
 6179SOL    HW220306   0.036   5.596   0.246  0.3646 -0.4791  0.4295
 6180SOL     OW20307   6.484   7.421   8.432 -0.2419  0.4663  0.1131
 6180SOL    HW120308   6.486   7.406   8.527  2.3803  3.6718  0.7559
 6180SOL    HW220309   6.541   7.353   8.396  1.2558  1.0216  1.2957
 6181SOL     OW20310   9.810   8.155   8.452 -0.3820 -0.4994 -0.4329
 6181SOL    HW120311   9.729   8.114   8.483 -0.1749  0.2527  1.2158
 6181SOL    HW220312   9.870   8.148   8.527 -0.3897  2.9124  0.0277
 6182SOL     OW20313   2.344   7.880   5.404 -0.1350  1.1368 -0.1803
 6182SOL    HW120314   2.385   7.855   5.487  0.8600 -0.4044 -1.0827
 6182SOL    HW220315   2.281   7.948   5.427  0.4593  1.0706  1.7598
 6183SOL     OW20316   6.251   6.540   1.838  0.1103  0.1718 -0.3141
 6183SOL    HW120317   6.224   6.449   1.851 -0.5202  0.4460  0.3531
 6183SOL    HW220318   6.296   6.564   1.919  1.5488  0.0219 -1.0422
 6184SOL     OW20319   1.150   0.808   1.982 -0.7792  0.3256 -0.5473
 6184SOL    HW120320   1.128   0.822   2.074 -1.1491  1.0890 -0.7453
 6184SOL    HW220321   1.235   0.850   1.971  0.1162 -1.3306 -0.1359
 6185SOL     OW20322   1.518   2.331   7.217  0.2296  0.3381  0.3538
 6185SOL    HW120323   1.605   2.319   7.257  0.5742  2.2360  0.2842
 6185SOL    HW220324   1.478   2.401   7.268 -1.2695 -0.4555  0.3341
 6186SOL     OW20325   7.452   4.102   2.088 -0.2913 -0.1996 -0.3608
 6186SOL    HW120326   7.457   4.107   2.184 -0.1765 -0.3111 -0.3613
 6186SOL    HW220327   7.372   4.052   2.071 -1.3389  1.3815 -0.3525
 6187SOL     OW20328   5.333   9.137   0.412 -0.3032  0.0663 -0.4025
 6187SOL    HW120329   5.326   9.043   0.425 -3.5290  0.0662 -1.3890
 6187SOL    HW220330   5.355   9.172   0.499  0.5132 -1.5268  0.0658
 6188SOL     OW20331   0.909   8.799   5.337  0.1229 -0.1008  0.0963
 6188SOL    HW120332   0.951   8.719   5.307  3.1646  1.3281  0.1605
 6188SOL    HW220333   0.979   8.848   5.382 -2.1032  1.6907  1.8989
 6189SOL     OW20334   7.347   5.555   0.253  0.0355 -0.0451  0.0883
 6189SOL    HW120335   7.402   5.589   0.323  0.1810 -0.0296 -0.0343
 6189SOL    HW220336   7.406   5.543   0.179 -0.1560  0.1245 -0.0945
 6190SOL     OW20337   4.122   8.936   0.876 -0.3986 -0.3823 -0.1754
 6190SOL    HW120338   4.092   8.883   0.801  0.4209 -2.3247  0.8099
 6190SOL    HW220339   4.212   8.908   0.891  0.2354  1.6563  0.1389
 6191SOL     OW20340   0.762   4.581   0.250  0.1651  0.3183 -0.0482
 6191SOL    HW120341   0.780   4.586   0.344 -0.3639 -2.0727  0.2628
 6191SOL    HW220342   0.840   4.617   0.208  0.0549  2.2358  1.2727
 6192SOL     OW20343   6.453   6.527   0.614  0.2779  0.5805 -0.0482
 6192SOL    HW120344   6.508   6.454   0.588  0.5580  1.0525 -0.8012
 6192SOL    HW220345   6.397   6.491   0.684 -0.2060 -0.5969 -1.0074
 6193SOL     OW20346   0.224   8.352   0.066 -0.1064  0.3493 -0.2730
 6193SOL    HW120347   0.150   8.361   0.126  0.7142 -0.4597  0.9259
 6193SOL    HW220348   0.256   8.441   0.054 -0.2159  0.5221  0.6121
 6194SOL     OW20349   0.791   2.860   2.333  0.4120 -1.1075  0.1194
 6194SOL    HW120350   0.791   2.861   2.238 -0.8169  3.5101 -0.0263
 6194SOL    HW220351   0.877   2.894   2.358  0.2171 -0.9609  0.6053
 6195SOL     OW20352   6.902   4.689   8.369  0.3295  0.0871 -0.2344
 6195SOL    HW120353   6.975   4.746   8.392 -0.5836  0.5571  1.7075
 6195SOL    HW220354   6.824   4.740   8.391 -0.5249 -1.4955  0.5508
 6196SOL     OW20355   5.926   9.764   8.923 -0.1411  0.0299 -0.1371
 6196SOL    HW120356   5.953   9.755   8.832 -0.0984 -1.0868 -0.0307
 6196SOL    HW220357   5.973   9.841   8.954 -0.6742  0.8220 -1.2290
 6197SOL     OW20358   8.856   6.962   6.355 -0.0157 -0.1964 -0.3570
 6197SOL    HW120359   8.896   6.878   6.378 -0.0678  0.0839  0.8061
 6197SOL    HW220360   8.930   7.021   6.341  0.0096 -0.2963 -0.6558
 6198SOL     OW20361   5.902   7.232   8.858  0.4670  0.0494  0.0722
 6198SOL    HW120362   5.911   7.284   8.777  0.8002 -0.5864 -0.3091
 6198SOL    HW220363   5.838   7.280   8.910 -0.7866 -0.2311 -1.1417
 6199SOL     OW20364   3.981   3.959   6.650  0.6018  0.7338 -0.5878
 6199SOL    HW120365   4.000   4.051   6.667 -1.3225  1.0268  0.2801
 6199SOL    HW220366   4.005   3.914   6.731  0.8158  0.5840 -0.7340
 6200SOL     OW20367   6.184   8.827   2.680  0.2714  0.3583 -0.3074
 6200SOL    HW120368   6.150   8.773   2.751 -2.3571  2.3045  0.0505
 6200SOL    HW220369   6.237   8.766   2.628 -0.3553 -1.8875  1.5032
 6201SOL     OW20370   9.024   0.224   7.405  0.0449  0.1183  0.1762
 6201SOL    HW120371   9.003   0.191   7.492 -0.4905  1.5314  0.6030
 6201SOL    HW220372   9.098   0.169   7.376  0.9383  0.3080  1.9490
 6202SOL     OW20373   7.003   9.836   0.791 -0.3542  0.3354 -0.3043
 6202SOL    HW120374   6.930   9.791   0.748 -3.2087  2.2203  2.1276
 6202SOL    HW220375   7.010   9.920   0.745  0.2370  0.2103 -0.4523
 6203SOL     OW20376   1.882   7.819   4.350 -0.0078 -0.0569  0.1091
 6203SOL    HW120377   1.890   7.843   4.443 -0.2045  0.6831 -0.0625
 6203SOL    HW220378   1.906   7.726   4.348 -0.5469 -0.2311  0.9856
 6204SOL     OW20379   9.290   9.380   8.108  0.0994 -0.5713  0.0272
 6204SOL    HW120380   9.276   9.475   8.101 -1.5379 -0.6841  1.2053
 6204SOL    HW220381   9.330   9.356   8.025  0.2990  1.1116 -0.4088
 6205SOL     OW20382   3.389   7.433   1.646  0.1814 -0.2628 -0.3084
 6205SOL    HW120383   3.432   7.517   1.628  0.4724  0.0331  1.5642
 6205SOL    HW220384   3.458   7.378   1.682 -0.7048 -0.1560  1.6690
 6206SOL     OW20385   5.120   4.112   2.886 -0.4017  0.3391 -0.0321
 6206SOL    HW120386   5.063   4.037   2.872 -1.7173  1.5293 -1.4458
 6206SOL    HW220387   5.166   4.093   2.968 -0.6147 -2.0112 -0.3894
 6207SOL     OW20388   9.683   4.332   0.666 -0.6466 -0.0229  0.4231
 6207SOL    HW120389   9.674   4.425   0.648 -2.3336  0.1148  1.7401
 6207SOL    HW220390   9.618   4.290   0.609  0.5927 -0.5014 -0.6918
 6208SOL     OW20391   6.467   2.031   6.080  0.2287  0.1043 -0.3783
 6208SOL    HW120392   6.409   1.980   6.138  1.3176 -1.5634 -0.6956
 6208SOL    HW220393   6.451   1.995   5.993  1.0294  0.3026 -0.6108
 6209SOL     OW20394   0.973   0.045   1.953 -0.1590  0.3094  0.2534
 6209SOL    HW120395   0.933   0.130   1.971 -0.6069  0.6681 -2.1409
 6209SOL    HW220396   1.065   0.066   1.934 -0.3246  0.3292 -0.5828
 6210SOL     OW20397   8.395   3.036   1.455 -0.4186  0.4647 -0.0298
 6210SOL    HW120398   8.425   2.947   1.471 -0.8322  0.1508 -0.9547
 6210SOL    HW220399   8.475   3.089   1.457 -0.3040  0.2893  1.7828
 6211SOL     OW20400   1.407   1.721   2.658  0.0053  0.5478 -0.0977
 6211SOL    HW120401   1.419   1.681   2.744 -1.2319 -1.4131 -0.7740
 6211SOL    HW220402   1.485   1.775   2.646 -0.9879  3.1133  3.3431
 6212SOL     OW20403   3.694   9.438   1.421  0.3492  0.7086 -0.0327
 6212SOL    HW120404   3.670   9.398   1.505 -0.8195  1.8745  0.2186
 6212SOL    HW220405   3.741   9.369   1.375 -1.3858 -0.9083  0.4685
 6213SOL     OW20406   2.618   3.612   7.980 -0.2832 -0.6604 -0.2942
 6213SOL    HW120407   2.650   3.583   8.065  0.9647 -1.0226 -0.8675
 6213SOL    HW220408   2.671   3.689   7.960 -1.9575  0.6682  0.1447
 6214SOL     OW20409   9.066   0.118   4.648  0.1568  0.3065 -0.8242
 6214SOL    HW120410   9.051   0.049   4.582  3.6793  0.4791 -2.0261
 6214SOL    HW220411   9.066   0.071   4.731 -0.4023 -0.6201 -1.3232
 6215SOL     OW20412   2.050   9.699   0.517  0.2072 -0.4411  0.4549
 6215SOL    HW120413   2.068   9.743   0.601 -1.1318 -1.1349  1.1351
 6215SOL    HW220414   2.085   9.611   0.528  0.8139 -0.2707 -0.0537
 6216SOL     OW20415   7.790   0.502   5.854 -0.2864 -0.5910  0.0522
 6216SOL    HW120416   7.707   0.541   5.828 -0.1095  0.5010  0.9884
 6216SOL    HW220417   7.834   0.572   5.903  2.1002 -0.3639 -2.1737
 6217SOL     OW20418   2.987   3.367   0.667 -0.1633 -0.1250  0.0100
 6217SOL    HW120419   2.962   3.459   0.664 -0.0033 -0.0661  0.4267
 6217SOL    HW220420   2.910   3.322   0.701  0.3113  0.0732  1.4240
 6218SOL     OW20421   1.596   7.531   5.813 -0.3489 -0.4683  0.9520
 6218SOL    HW120422   1.671   7.573   5.856  1.0774 -2.7313  0.8502
 6218SOL    HW220423   1.548   7.489   5.885  0.9606 -2.6262  0.6615
 6219SOL     OW20424   1.543   3.654   8.499 -0.8444  0.0000 -0.6993
 6219SOL    HW120425   1.468   3.701   8.536 -1.2619 -3.0695  2.8957
 6219SOL    HW220426   1.508   3.569   8.472  0.6687 -0.0215 -2.8714
 6220SOL     OW20427   6.540   6.897   0.276  0.3415  0.1169 -0.0458
 6220SOL    HW120428   6.580   6.983   0.265  0.5127  0.0339 -0.0705
 6220SOL    HW220429   6.569   6.846   0.200  0.0051  0.1266 -0.1857
 6221SOL     OW20430   6.938   8.460   2.230 -0.4137  0.1807  0.6459
 6221SOL    HW120431   6.954   8.517   2.305 -2.1117 -1.1946  2.1554
 6221SOL    HW220432   6.908   8.519   2.161  0.1129  1.3497  1.3813
 6222SOL     OW20433   6.180   9.761   9.828  0.2813 -0.0465 -0.1949
 6222SOL    HW120434   6.265   9.791   9.860 -0.2910  0.4444  0.9206
 6222SOL    HW220435   6.121   9.835   9.843 -0.4255 -0.5177 -0.5874
 6223SOL     OW20436   2.853   4.043   2.527 -0.5059  0.4814 -0.3583
 6223SOL    HW120437   2.809   4.126   2.513 -0.9943  0.3276  0.2476
 6223SOL    HW220438   2.909   4.057   2.603  0.6257  0.7197 -1.2062
 6224SOL     OW20439   4.037   7.429   2.130  0.3042 -0.2011 -1.0478
 6224SOL    HW120440   3.961   7.376   2.106 -1.2300  0.4866  1.8493
 6224SOL    HW220441   4.098   7.367   2.169 -0.0039 -0.3589 -0.8125
 6225SOL     OW20442   5.797   6.383   2.357 -0.0633 -0.4052  0.6461
 6225SOL    HW120443   5.846   6.447   2.306 -0.2793 -0.6956  0.0743
 6225SOL    HW220444   5.814   6.407   2.448 -0.5563  0.7723  0.4387
 6226SOL     OW20445   2.552   3.771   9.793 -0.6789  0.1138  0.4292
 6226SOL    HW120446   2.587   3.735   9.712 -0.1767 -0.6642  0.9716
 6226SOL    HW220447   2.462   3.738   9.797 -0.4472 -0.5319  0.5704
 6227SOL     OW20448   2.200   2.382   2.162 -0.6262  0.1211 -0.5617
 6227SOL    HW120449   2.258   2.318   2.120  0.7133  0.4670  0.6992
 6227SOL    HW220450   2.113   2.344   2.152 -0.0554 -1.0617 -1.3523
 6228SOL     OW20451   7.628   3.086   9.103  0.0348 -0.0372  0.3677
 6228SOL    HW120452   7.561   3.140   9.062  0.9356 -0.1797 -1.4066
 6228SOL    HW220453   7.611   2.997   9.070 -0.8193 -0.7050  2.4561
 6229SOL     OW20454   5.345   8.791   9.675 -0.4701  0.1732  0.1516
 6229SOL    HW120455   5.357   8.855   9.746 -0.1573 -0.3607  0.5901
 6229SOL    HW220456   5.345   8.843   9.595  1.1629  0.6075  0.3923
 6230SOL     OW20457   0.508   4.830   4.087 -0.1008 -0.0331  0.0066
 6230SOL    HW120458   0.518   4.917   4.125  0.5128  0.1084 -0.4657
 6230SOL    HW220459   0.475   4.846   3.998 -3.3880 -0.4184  1.0285
 6231SOL     OW20460   9.376   9.248   0.207 -0.3754 -0.4852  0.3401
 6231SOL    HW120461   9.347   9.320   0.263  1.7800 -1.0818  2.4091
 6231SOL    HW220462   9.320   9.253   0.130 -0.9062  2.8326  0.7877
 6232SOL     OW20463   0.334   5.031   0.669 -0.0496 -0.0671  0.0834
 6232SOL    HW120464   0.296   5.118   0.684  0.1763  0.4372 -1.9014
 6232SOL    HW220465   0.262   4.970   0.682 -0.6786  0.5875 -0.2677
 6233SOL     OW20466   5.162   8.267   1.306  0.4963  0.1682  0.0576
 6233SOL    HW120467   5.113   8.348   1.289 -0.1910 -0.7731 -3.2805
 6233SOL    HW220468   5.250   8.296   1.330  0.5497  1.9766 -2.0008
 6234SOL     OW20469   5.978   6.270   8.394 -0.0996 -0.8009  0.2611
 6234SOL    HW120470   5.975   6.217   8.314 -1.6190 -0.2436 -0.0848
 6234SOL    HW220471   5.931   6.218   8.459 -1.4472  0.0058 -0.0352
 6235SOL     OW20472   0.863   2.262   6.839  0.2451  0.4015  0.0747
 6235SOL    HW120473   0.817   2.232   6.917 -0.3599  2.0493  0.3851
 6235SOL    HW220474   0.795   2.269   6.771  0.3969  0.8777 -0.0349
 6236SOL     OW20475   7.100   7.572   5.559  0.2745 -0.0348  0.3561
 6236SOL    HW120476   7.093   7.538   5.648 -0.1084  1.3204  0.8536
 6236SOL    HW220477   7.012   7.560   5.522  0.1979  0.2043  0.4584
 6237SOL     OW20478   4.143   0.206   3.017  0.4818 -0.5143  0.0371
 6237SOL    HW120479   4.136   0.110   3.020 -0.4193 -0.6204 -2.5400
 6237SOL    HW220480   4.073   0.238   3.073  1.6785 -1.2928  2.0871
 6238SOL     OW20481   2.975   2.392   3.944  0.2026  0.5567 -0.0788
 6238SOL    HW120482   2.884   2.397   3.913  0.9601 -1.1399 -2.9774
 6238SOL    HW220483   2.972   2.330   4.017 -1.0658  1.2434  0.4923
 6239SOL     OW20484   0.961   7.379   0.482 -0.1981  0.6323  0.5758
 6239SOL    HW120485   0.884   7.425   0.514  0.3810  2.5736 -0.6813
 6239SOL    HW220486   1.026   7.447   0.468  1.3345 -0.8071  0.3767
 6240SOL     OW20487   9.203   2.719   0.531  0.6848 -0.3604 -0.6248
 6240SOL    HW120488   9.218   2.800   0.579 -1.2802 -1.1620  1.5127
 6240SOL    HW220489   9.287   2.672   0.536  0.8770  0.0911  1.0872
 6241SOL     OW20490   2.281   7.046   1.106  0.3523  0.3117  0.4572
 6241SOL    HW120491   2.189   7.063   1.128  0.7570 -0.0267  2.6554
 6241SOL    HW220492   2.316   7.131   1.080 -0.8195  0.2497 -1.4802
 6242SOL     OW20493   7.476   3.240   5.908  0.2256  0.1514 -0.3934
 6242SOL    HW120494   7.436   3.161   5.946 -0.4452  0.6123 -0.1206
 6242SOL    HW220495   7.408   3.307   5.916  0.5399  0.5862 -1.2515
 6243SOL     OW20496   5.832   9.234   8.112  0.4889  0.6975  0.4908
 6243SOL    HW120497   5.860   9.310   8.062  2.7192 -0.5190 -0.2571
 6243SOL    HW220498   5.859   9.253   8.202  1.5984  0.5932  0.2013
 6244SOL     OW20499   8.394   3.551   3.989 -0.2087  0.0117  0.3450
 6244SOL    HW120500   8.408   3.643   3.967  1.1026 -0.6584 -2.0572
 6244SOL    HW220501   8.299   3.541   3.990 -0.3676  1.0441 -1.1435
 6245SOL     OW20502   1.601   8.077   3.749 -0.4578 -0.0803  0.0919
 6245SOL    HW120503   1.511   8.112   3.751 -0.4882 -0.1080  2.1960
 6245SOL    HW220504   1.653   8.146   3.790  0.3697 -0.3735 -0.4542
 6246SOL     OW20505   0.362   1.253   7.891 -0.0499  0.0893 -0.0165
 6246SOL    HW120506   0.410   1.233   7.971 -1.9701  0.4110  1.2766
 6246SOL    HW220507   0.350   1.169   7.848  0.6939 -0.1344  0.1982
 6247SOL     OW20508   9.780   4.263   4.549  0.0538  0.1644  0.1260
 6247SOL    HW120509   9.739   4.344   4.517  1.2644  1.7989  2.3722
 6247SOL    HW220510   9.872   4.285   4.559  0.5725 -1.7951  0.0338
 6248SOL     OW20511   2.243   7.243   0.827  0.1434 -0.9508 -1.1020
 6248SOL    HW120512   2.153   7.212   0.822  0.1043 -0.7454 -1.8281
 6248SOL    HW220513   2.284   7.212   0.747  0.3351  0.1154 -1.4337
 6249SOL     OW20514   2.745   6.588   7.336 -0.3407 -0.1238 -0.2410
 6249SOL    HW120515   2.804   6.517   7.309 -1.1802 -0.5989 -0.8383
 6249SOL    HW220516   2.783   6.667   7.297  0.8287 -0.1565  0.7606
 6250SOL     OW20517   3.422   0.707   8.570  0.5115 -0.0927  0.1967
 6250SOL    HW120518   3.515   0.728   8.555  0.1181  0.2696 -2.0678
 6250SOL    HW220519   3.380   0.792   8.579 -0.0470 -0.0450 -2.1433
 6251SOL     OW20520   2.551   9.610   1.188 -0.1320 -0.0655 -0.1687
 6251SOL    HW120521   2.503   9.530   1.205 -1.1255  0.2153 -1.5009
 6251SOL    HW220522   2.638   9.580   1.159  0.1868 -0.5833  1.2122
 6252SOL     OW20523   2.207   8.665   7.511 -0.8437  0.7059  0.0072
 6252SOL    HW120524   2.221   8.684   7.604 -0.9918  0.3827  0.0984
 6252SOL    HW220525   2.148   8.589   7.511 -1.1641  0.9521 -0.3539
 6253SOL     OW20526   2.784   7.940   3.309 -0.4788  0.1549 -0.2120
 6253SOL    HW120527   2.800   7.849   3.333  1.9306  0.2176 -1.3185
 6253SOL    HW220528   2.819   7.990   3.383 -0.6586  0.1968 -0.1556
 6254SOL     OW20529   3.822   6.567   3.865 -0.0156 -0.3500  0.3160
 6254SOL    HW120530   3.771   6.556   3.946  0.3353 -1.7517  0.3596
 6254SOL    HW220531   3.909   6.591   3.895  0.2415 -1.3510  0.3765
 6255SOL     OW20532   5.045   9.652   1.131  0.0950  0.3327 -0.2411
 6255SOL    HW120533   5.041   9.556   1.126 -0.3623  0.3367  0.0368
 6255SOL    HW220534   4.991   9.674   1.206 -0.2716  0.8508 -0.6530
 6256SOL     OW20535   3.244   4.887   6.652  0.2946 -0.2687  0.0956
 6256SOL    HW120536   3.173   4.898   6.715  1.4478 -1.0155  1.5780
 6256SOL    HW220537   3.199   4.877   6.568 -1.2755  1.0161  0.7171
 6257SOL     OW20538   6.267   6.520   9.095  0.5603 -0.0237  0.3781
 6257SOL    HW120539   6.332   6.527   9.166  0.6461  0.4655  0.2603
 6257SOL    HW220540   6.307   6.461   9.032  0.7300 -0.0175  0.4780
 6258SOL     OW20541   9.202   2.445   3.019 -0.4446  0.1329 -0.1792
 6258SOL    HW120542   9.119   2.492   3.019 -0.8827 -0.4630  2.6670
 6258SOL    HW220543   9.264   2.505   2.977 -1.9295  1.3303 -0.7176
 6259SOL     OW20544   5.808   6.266   7.274  0.2085  0.5009  0.0942
 6259SOL    HW120545   5.821   6.328   7.345  0.4013 -0.7895  1.2416
 6259SOL    HW220546   5.739   6.304   7.220 -0.6989  1.0317  1.5670
 6260SOL     OW20547   0.280   6.508   9.336 -0.6149 -0.3610 -0.0027
 6260SOL    HW120548   0.243   6.511   9.248 -0.0595  1.1124 -0.2161
 6260SOL    HW220549   0.292   6.600   9.360  0.6338 -0.7666  1.0271
 6261SOL     OW20550   0.878   7.830   4.497 -0.3533  0.2525 -0.2060
 6261SOL    HW120551   0.907   7.894   4.432 -0.6454  1.3910  0.7396
 6261SOL    HW220552   0.948   7.829   4.562 -0.5945  0.0056  0.0505
 6262SOL     OW20553   1.393   4.320   4.962  0.1397  0.2034  0.1065
 6262SOL    HW120554   1.344   4.376   4.902 -0.1616 -0.6779 -0.4824
 6262SOL    HW220555   1.448   4.266   4.906  3.2088  2.3568  0.7846
 6263SOL     OW20556   0.549   1.882   2.804  0.5554 -0.0509  0.6628
 6263SOL    HW120557   0.534   1.789   2.821  0.1443  0.1142  1.2109
 6263SOL    HW220558   0.487   1.927   2.860 -1.0513  0.5221 -1.4554
 6264SOL     OW20559   6.016   2.020   6.960  0.5016  0.2559  0.0698
 6264SOL    HW120560   6.066   1.955   6.911  0.1197  0.2224 -0.2738
 6264SOL    HW220561   5.929   2.019   6.920  0.0449 -0.1062  1.0521
 6265SOL     OW20562   0.520   6.279   1.320  0.3121 -0.4184  0.5078
 6265SOL    HW120563   0.557   6.247   1.402  0.9966 -0.2786  0.2544
 6265SOL    HW220564   0.473   6.359   1.344  1.2498  0.1111  0.6296
 6266SOL     OW20565   7.547   1.386   5.993 -0.5312  0.4376 -0.0918
 6266SOL    HW120566   7.512   1.350   5.912  0.6070  1.0510 -0.8795
 6266SOL    HW220567   7.510   1.474   5.999 -0.0049  0.6886 -0.3775
 6267SOL     OW20568   7.712   7.744   7.757 -0.2292 -0.0380  0.0378
 6267SOL    HW120569   7.631   7.788   7.781  0.7327  1.5951  0.4315
 6267SOL    HW220570   7.714   7.666   7.812 -0.5510  0.9761  1.5300
 6268SOL     OW20571   6.511   9.315   6.300  0.5800  0.5491  0.2296
 6268SOL    HW120572   6.445   9.328   6.369  0.3981  0.7397  0.0219
 6268SOL    HW220573   6.591   9.292   6.348  0.7328  1.7362  0.5715
 6269SOL     OW20574   5.617   5.450   1.344 -0.1615  0.3443  0.1728
 6269SOL    HW120575   5.640   5.486   1.259  0.3764  0.8114  0.5146
 6269SOL    HW220576   5.692   5.396   1.369 -0.8655 -0.8623 -0.2401
 6270SOL     OW20577   3.116   4.621   8.781  0.2045  0.5666 -0.2552
 6270SOL    HW120578   3.183   4.587   8.841 -0.3515 -0.0563  0.0220
 6270SOL    HW220579   3.124   4.716   8.789  1.0013  0.5023 -0.1659
 6271SOL     OW20580   8.032   9.283   6.232  0.1000 -0.0523  0.0948
 6271SOL    HW120581   8.091   9.293   6.307  0.1691 -1.5240  0.2654
 6271SOL    HW220582   7.981   9.204   6.252  0.1070 -0.4651 -1.4045
 6272SOL     OW20583   2.793   7.470   7.929  0.6653  0.1970  0.4473
 6272SOL    HW120584   2.758   7.482   7.841  0.9597 -2.3247 -0.0744
 6272SOL    HW220585   2.858   7.540   7.938 -0.2910  1.3016 -0.8054
 6273SOL     OW20586   9.418   4.411   0.846  0.2427 -0.1508  0.8577
 6273SOL    HW120587   9.357   4.399   0.919 -0.4334 -1.8909  0.0545
 6273SOL    HW220588   9.451   4.323   0.828  0.8138  0.3324 -0.5962
 6274SOL     OW20589   2.315   0.542   1.798 -0.0872 -0.4722 -0.4795
 6274SOL    HW120590   2.309   0.489   1.718  0.8750  2.1574 -2.4759
 6274SOL    HW220591   2.402   0.523   1.833 -0.9498 -2.5006  0.6629
 6275SOL     OW20592   8.473   8.659   6.377  0.8515 -0.3331  0.7388
 6275SOL    HW120593   8.485   8.571   6.343 -1.6904 -0.2402 -0.6552
 6275SOL    HW220594   8.497   8.717   6.304 -1.0654 -0.0272  0.2944
 6276SOL     OW20595   2.419   3.515   0.884  1.2045  0.1370 -0.3207
 6276SOL    HW120596   2.453   3.431   0.853 -0.9536 -0.2315 -1.9821
 6276SOL    HW220597   2.376   3.495   0.967  0.7107 -0.4210 -0.7053
 6277SOL     OW20598   3.492   4.123   4.173 -0.0741  0.6732 -0.2647
 6277SOL    HW120599   3.526   4.048   4.222 -0.6055  0.1541 -0.6759
 6277SOL    HW220600   3.412   4.148   4.219 -0.1882  0.6423 -0.4456
 6278SOL     OW20601   4.802   9.115   1.291  0.4339  0.4406  0.1189
 6278SOL    HW120602   4.896   9.099   1.299  0.7153  1.9389 -0.0512
 6278SOL    HW220603   4.795   9.194   1.238 -0.9983 -0.9699 -1.9685
 6279SOL     OW20604   9.150   1.700   3.773 -0.7274  0.6210 -0.3890
 6279SOL    HW120605   9.168   1.618   3.728 -0.4625  0.5265 -0.1179
 6279SOL    HW220606   9.095   1.675   3.847  2.2468  0.0880  1.8490
 6280SOL     OW20607   1.909   9.488   6.391  0.1010  0.1585  0.0508
 6280SOL    HW120608   1.853   9.499   6.468  0.1183  2.1069 -0.1671
 6280SOL    HW220609   1.857   9.521   6.318  0.2032 -1.3838 -0.7578
 6281SOL     OW20610   3.676   3.555   9.051  0.1463  0.0790 -0.1089
 6281SOL    HW120611   3.606   3.529   9.112  0.8409 -1.4091  0.0772
 6281SOL    HW220612   3.705   3.474   9.011  2.1897  0.5771  0.2560
 6282SOL     OW20613   2.868   5.743   2.043 -0.3258 -0.3215  0.1344
 6282SOL    HW120614   2.801   5.777   2.102  0.2774 -0.6625  1.0414
 6282SOL    HW220615   2.951   5.770   2.082  0.0781  0.6627 -1.3231
 6283SOL     OW20616   4.024   7.872   2.314  0.1601 -0.5252  0.3004
 6283SOL    HW120617   3.982   7.786   2.323 -0.1335 -0.3103  1.1054
 6283SOL    HW220618   3.975   7.915   2.244 -0.1091 -0.7764  0.3330
 6284SOL     OW20619   8.734   6.786   2.706  0.3054  0.3053  0.3689
 6284SOL    HW120620   8.671   6.835   2.757  1.5999  0.9573  1.4071
 6284SOL    HW220621   8.761   6.714   2.763  2.2649  1.4244  0.9574
 6285SOL     OW20622   5.853   5.071   8.680  0.3587 -0.2885  0.2480
 6285SOL    HW120623   5.818   4.986   8.704  0.6682 -0.2546  0.8283
 6285SOL    HW220624   5.776   5.122   8.655  0.1996 -0.8147 -0.3715
 6286SOL     OW20625   4.093   0.046   0.688 -0.2141  0.0445  0.1098
 6286SOL    HW120626   4.141   0.105   0.630  0.0239 -0.1025  0.1592
 6286SOL    HW220627   4.048  -0.015   0.630 -1.1808  0.8249  0.0174
 6287SOL     OW20628   4.532   7.011   5.372 -0.0357  0.0863 -0.3619
 6287SOL    HW120629   4.526   7.106   5.387 -0.2175  0.0715 -0.3438
 6287SOL    HW220630   4.620   6.988   5.402 -0.2615  0.1179  0.3460
 6288SOL     OW20631   3.358   3.369   3.854  0.0579  0.4672  0.4482
 6288SOL    HW120632   3.361   3.426   3.778  0.8746 -0.1889 -0.0206
 6288SOL    HW220633   3.271   3.329   3.851  0.6854 -0.8718 -1.1381
 6289SOL     OW20634   9.256   7.862   4.938  0.4775  0.6063 -0.4715
 6289SOL    HW120635   9.272   7.950   4.974  0.7807  0.3963 -0.0922
 6289SOL    HW220636   9.162   7.861   4.921  0.5280  1.1301 -0.8038
 6290SOL     OW20637   4.026   7.656   5.717  0.2372  0.1115  0.6157
 6290SOL    HW120638   4.093   7.596   5.749  0.4950 -0.7722 -1.4513
 6290SOL    HW220639   3.945   7.623   5.756  0.6313 -0.4564  0.9731
 6291SOL     OW20640   0.193   6.594   5.143 -0.0827 -0.5005 -0.8330
 6291SOL    HW120641   0.273   6.583   5.091 -0.6443 -1.8060 -1.4898
 6291SOL    HW220642   0.222   6.583   5.234  0.8996  1.7238 -0.8253
 6292SOL     OW20643   4.307   4.338   7.238  0.3581 -0.1202  0.2546
 6292SOL    HW120644   4.308   4.252   7.280  0.2576  0.3238  1.1767
 6292SOL    HW220645   4.219   4.346   7.201  1.3331 -1.7790 -2.7725
 6293SOL     OW20646   0.830   4.042   8.916 -0.2480  0.5347 -0.4656
 6293SOL    HW120647   0.745   4.029   8.957 -0.3001  0.8137 -0.4789
 6293SOL    HW220648   0.887   4.071   8.987  0.5126 -2.0994  0.0911
 6294SOL     OW20649   0.424   0.040   4.860 -0.5691 -0.5270 -0.8111
 6294SOL    HW120650   0.472  -0.004   4.790  2.4511  1.3409 -0.0932
 6294SOL    HW220651   0.438  -0.015   4.937  0.9303  0.2525 -0.4984
 6295SOL     OW20652   9.622   3.979   5.652  0.3799 -0.0002 -0.0150
 6295SOL    HW120653   9.610   4.021   5.567 -0.3887  1.6382  0.8431
 6295SOL    HW220654   9.696   4.025   5.692 -0.6844  0.8583  1.0788
 6296SOL     OW20655   6.788   9.680   2.417  0.0821  0.3462 -0.1783
 6296SOL    HW120656   6.704   9.707   2.380 -0.7166  0.5606  1.7082
 6296SOL    HW220657   6.853   9.727   2.365 -1.0957  2.5452  0.2350
 6297SOL     OW20658   8.208   3.303   6.115 -0.3390  0.3319 -0.4890
 6297SOL    HW120659   8.171   3.272   6.032 -1.6535  1.9211 -0.5675
 6297SOL    HW220660   8.289   3.347   6.089 -0.8251  0.9691 -1.0043
 6298SOL     OW20661   6.562   4.215   1.425 -0.5056  0.3650 -0.2492
 6298SOL    HW120662   6.636   4.245   1.371 -1.2790  2.7445 -0.1270
 6298SOL    HW220663   6.602   4.158   1.490  1.4760  2.4020  0.4916
 6299SOL     OW20664   9.416   5.879   7.588  0.1234  0.1315  0.9455
 6299SOL    HW120665   9.490   5.935   7.567  0.6204  0.7189  3.8856
 6299SOL    HW220666   9.432   5.799   7.537  0.9285  1.4836 -1.0618
 6300SOL     OW20667   1.374   8.130   5.528 -0.0916  0.4095  0.1122
 6300SOL    HW120668   1.345   8.220   5.534 -1.2333  0.1270 -0.8833
 6300SOL    HW220669   1.295   8.078   5.541  0.7373 -0.5094  1.8880
 6301SOL     OW20670   4.503   6.629   9.360 -0.9020  0.3823 -0.0845
 6301SOL    HW120671   4.532   6.542   9.332 -1.1895 -0.3796  1.8100
 6301SOL    HW220672   4.408   6.623   9.364 -0.8375 -0.0886  2.4503
 6302SOL     OW20673   0.040   2.292   0.564  0.3860 -0.1423 -0.0403
 6302SOL    HW120674   0.074   2.382   0.563  0.7616 -0.2823  0.0248
 6302SOL    HW220675  -0.022   2.291   0.638  1.5652 -0.3657  0.9686
 6303SOL     OW20676   8.737   9.508   5.281 -0.4418  0.1503 -0.5630
 6303SOL    HW120677   8.716   9.426   5.236 -0.9840  0.0329 -0.1104
 6303SOL    HW220678   8.756   9.481   5.371  2.8024  0.0895 -1.1401
 6304SOL     OW20679   1.144   7.884   7.443 -0.5816 -0.4403 -0.1483
 6304SOL    HW120680   1.128   7.867   7.535 -2.5049 -0.1991 -0.3979
 6304SOL    HW220681   1.089   7.960   7.422 -0.1152 -0.4311 -1.4760
 6305SOL     OW20682   5.210   7.277   8.809 -0.2663  0.5206 -0.3372
 6305SOL    HW120683   5.279   7.292   8.874 -1.2965  0.1838  0.8929
 6305SOL    HW220684   5.209   7.182   8.796  0.2683  0.6303 -1.2495
 6306SOL     OW20685   2.041   9.154   6.635  0.4282  0.1466  0.2962
 6306SOL    HW120686   2.033   9.117   6.723 -0.2496 -0.6625 -0.0918
 6306SOL    HW220687   1.970   9.218   6.629  1.0541  0.8915  0.6553
 6307SOL     OW20688   8.703   3.653   8.921  0.3920 -0.0137 -0.2704
 6307SOL    HW120689   8.692   3.738   8.963 -1.1021 -0.0176 -0.6070
 6307SOL    HW220690   8.787   3.621   8.953 -0.3801  0.2586  2.2245
 6308SOL     OW20691   2.506   5.217   0.605 -0.3586  0.4336  0.5904
 6308SOL    HW120692   2.521   5.202   0.698  1.3236 -0.4616  0.2109
 6308SOL    HW220693   2.495   5.130   0.567  1.9019  0.5273 -0.4621
 6309SOL     OW20694   8.344   2.764   3.032  0.2710  0.1799  0.1654
 6309SOL    HW120695   8.385   2.677   3.034  0.6242  0.3423  0.0675
 6309SOL    HW220696   8.376   2.807   3.112  1.8060  0.9836 -0.8198
 6310SOL     OW20697   4.407   3.477   1.022 -0.0947 -0.4982 -0.3116
 6310SOL    HW120698   4.495   3.454   0.994 -0.0360  0.1913 -0.7283
 6310SOL    HW220699   4.397   3.437   1.109  1.6746  1.7424  1.0452
 6311SOL     OW20700   4.715   7.355   3.943  0.3898  0.0615  0.3874
 6311SOL    HW120701   4.719   7.389   3.854 -1.3170  0.2156  0.3344
 6311SOL    HW220702   4.730   7.432   3.999  0.8978  0.0677  0.2492
 6312SOL     OW20703   4.846   1.198   1.498 -0.1404 -0.3668 -0.1089
 6312SOL    HW120704   4.847   1.270   1.435  4.1976 -0.0184  0.0396
 6312SOL    HW220705   4.795   1.231   1.572  0.4175  1.9640 -0.6762
 6313SOL     OW20706   3.299   5.022   6.011 -0.4480  0.2972  0.2143
 6313SOL    HW120707   3.346   5.088   5.960  1.0334 -1.0097 -0.2268
 6313SOL    HW220708   3.348   4.941   5.994 -1.3180 -0.6223  1.8836
 6314SOL     OW20709   1.917   2.356   0.083 -0.5267  0.6613 -0.1681
 6314SOL    HW120710   1.928   2.290   0.015  0.3868  1.1003 -0.4572
 6314SOL    HW220711   1.893   2.435   0.036 -0.1419  0.9036  0.0417
 6315SOL     OW20712   6.139   5.428   2.001 -0.4274  0.0451  0.2826
 6315SOL    HW120713   6.149   5.467   1.915 -0.6407  0.3208  0.3812
 6315SOL    HW220714   6.142   5.334   1.986  0.2570  0.0988  0.0637
 6316SOL     OW20715   3.076   8.696   6.193  0.0587  0.1826 -0.4354
 6316SOL    HW120716   3.159   8.743   6.183 -0.3874  0.7181 -1.8034
 6316SOL    HW220717   3.069   8.643   6.114 -0.2692 -0.9126  0.2998
 6317SOL     OW20718   1.929   8.310   0.103  0.0648  0.8222 -0.0483
 6317SOL    HW120719   2.006   8.319   0.048 -0.3070  0.0414 -0.7171
 6317SOL    HW220720   1.908   8.217   0.101 -0.9836  1.0407 -0.0017
 6318SOL     OW20721   8.908   4.733   1.265 -0.5099 -0.3622  0.7472
 6318SOL    HW120722   8.823   4.773   1.286 -0.9621 -0.8162 -0.1588
 6318SOL    HW220723   8.955   4.732   1.348 -0.0840  2.9064  0.6499
 6319SOL     OW20724   5.171   8.076   2.378 -0.2293 -0.9531  0.6651
 6319SOL    HW120725   5.243   8.035   2.330  0.4380 -1.3344  1.9554
 6319SOL    HW220726   5.093   8.029   2.349  0.1504 -1.1548 -0.0529
 6320SOL     OW20727   5.816   5.189   0.115  0.2222  0.1274  0.7705
 6320SOL    HW120728   5.902   5.226   0.136  0.5572 -0.2162  0.0228
 6320SOL    HW220729   5.754   5.254   0.148  0.6314 -0.9845  4.1841
 6321SOL     OW20730   6.516   7.744   7.745  0.5618  0.2987  0.5742
 6321SOL    HW120731   6.504   7.691   7.667 -2.1037 -1.6376  2.1246
 6321SOL    HW220732   6.605   7.724   7.775  0.7265 -0.8490 -0.6022
 6322SOL     OW20733   3.193   1.496   4.092  0.6260 -0.0642  0.4762
 6322SOL    HW120734   3.196   1.428   4.025 -0.7765  0.9028 -0.6298
 6322SOL    HW220735   3.195   1.448   4.175  3.1228 -1.2576 -0.1778
 6323SOL     OW20736   6.137   8.560   1.409 -0.1134 -0.0937  0.2957
 6323SOL    HW120737   6.093   8.485   1.449 -2.6281  0.6373 -0.9103
 6323SOL    HW220738   6.188   8.523   1.337 -0.4836 -0.7507  0.3683
 6324SOL     OW20739   6.617   7.878   8.562 -0.0265  0.2179  0.1594
 6324SOL    HW120740   6.575   7.795   8.585  1.5425 -0.2379  1.6265
 6324SOL    HW220741   6.554   7.945   8.589  0.8989 -0.3537  4.4331
 6325SOL     OW20742   1.658   8.007   4.800  0.3920  0.3243  0.5461
 6325SOL    HW120743   1.662   8.089   4.750  2.0980  0.1861  0.3862
 6325SOL    HW220744   1.679   7.939   4.736  2.2800  0.1122  1.3110
 6326SOL     OW20745   9.563   0.655   0.630 -0.5489  0.2546 -0.1458
 6326SOL    HW120746   9.552   0.690   0.541 -0.3731 -1.6832 -0.9676
 6326SOL    HW220747   9.529   0.566   0.625  1.5143 -0.6684  1.1333
 6327SOL     OW20748   8.140   2.974   4.208 -0.2622  0.0452 -0.0772
 6327SOL    HW120749   8.180   3.059   4.228 -0.5286  0.5571 -1.5643
 6327SOL    HW220750   8.046   2.991   4.211 -0.3156 -0.1743 -0.3946
 6328SOL     OW20751   3.543   4.957   7.357 -0.3658 -0.2295 -0.5359
 6328SOL    HW120752   3.489   5.003   7.294 -0.2057  1.1231  0.2882
 6328SOL    HW220753   3.552   5.017   7.431  2.0934 -0.4565 -0.5514
 6329SOL     OW20754   7.900   5.042   3.116 -0.1016  0.4659  0.2241
 6329SOL    HW120755   7.863   4.974   3.060 -0.1534 -1.3105  2.2867
 6329SOL    HW220756   7.990   5.053   3.084 -0.8688  1.3325 -1.7500
 6330SOL     OW20757   7.255   0.622   5.737  0.1401 -0.1433 -0.3048
 6330SOL    HW120758   7.160   0.633   5.735  0.3084  1.4404 -0.4078
 6330SOL    HW220759   7.290   0.708   5.759  1.5505 -0.8012  0.2084
 6331SOL     OW20760   7.189   2.591   1.919 -0.0486 -0.1370  0.3757
 6331SOL    HW120761   7.128   2.640   1.975 -0.9260 -1.2480  0.4458
 6331SOL    HW220762   7.132   2.541   1.860  0.8436  0.1557 -0.7797
 6332SOL     OW20763   3.789   5.355   6.322 -0.0450  0.2987 -0.3062
 6332SOL    HW120764   3.719   5.290   6.309 -0.2246  0.8547 -2.5186
 6332SOL    HW220765   3.747   5.425   6.371 -1.5073  1.1972 -2.6572
 6333SOL     OW20766   9.739   5.839   0.439  0.1606 -0.4980 -0.0183
 6333SOL    HW120767   9.645   5.823   0.439  0.0128  0.0561  2.0670
 6333SOL    HW220768   9.777   5.760   0.400 -1.0776 -1.5146  0.7481
 6334SOL     OW20769   3.572   9.313   5.688  0.1353 -0.4162  0.0414
 6334SOL    HW120770   3.525   9.293   5.607  1.8197 -1.1275 -0.8102
 6334SOL    HW220771   3.589   9.407   5.683 -1.3401 -0.1084  0.4648
 6335SOL     OW20772   8.371   0.398   3.186 -0.1008  0.7610  0.0293
 6335SOL    HW120773   8.405   0.484   3.163  1.0688  0.0925 -0.9236
 6335SOL    HW220774   8.368   0.397   3.282  2.4490  0.9691  0.1854
 6336SOL     OW20775   8.659   1.242   8.388 -0.2643 -0.1799  0.1773
 6336SOL    HW120776   8.665   1.291   8.306 -0.4781 -0.1485  0.1788
 6336SOL    HW220777   8.567   1.215   8.393 -0.0984 -0.7837  0.0618
 6337SOL     OW20778   5.773   3.593   1.375 -0.8582  0.5718 -0.6247
 6337SOL    HW120779   5.756   3.574   1.467 -1.2353 -1.0472 -1.0026
 6337SOL    HW220780   5.759   3.510   1.330 -1.1180  1.4305 -2.2079
 6338SOL     OW20781   3.864   8.134   7.479 -0.3945 -0.6553  0.1833
 6338SOL    HW120782   3.788   8.163   7.427 -0.6221 -1.0723  0.2863
 6338SOL    HW220783   3.923   8.210   7.478 -1.1462 -0.0449  0.7556
 6339SOL     OW20784   7.270   0.517   2.853 -0.4049 -0.0954 -1.0530
 6339SOL    HW120785   7.360   0.485   2.854  0.1861  1.4477 -1.1711
 6339SOL    HW220786   7.235   0.496   2.939  0.8353  1.2303 -0.1624
 6340SOL     OW20787   6.110   5.756   3.806  0.0639  0.2655  0.2573
 6340SOL    HW120788   6.201   5.725   3.802 -0.1159 -0.1646 -0.6186
 6340SOL    HW220789   6.087   5.749   3.899  0.5809 -0.6385  0.3281
 6341SOL     OW20790   9.222   4.442   2.256 -0.4957  0.1392 -0.1975
 6341SOL    HW120791   9.260   4.426   2.342 -0.9282 -0.2749 -0.0800
 6341SOL    HW220792   9.294   4.427   2.195 -0.7735 -1.9996 -0.0781
 6342SOL     OW20793   2.263   9.178   2.280  0.1602 -0.1886  0.1898
 6342SOL    HW120794   2.169   9.163   2.295 -0.3108  1.5624 -0.7312
 6342SOL    HW220795   2.290   9.104   2.224 -0.8237 -0.3796 -0.0599
 6343SOL     OW20796   4.500   8.567   2.009 -0.5320 -0.5762  0.0801
 6343SOL    HW120797   4.511   8.627   2.082 -0.3522 -0.3380 -0.1407
 6343SOL    HW220798   4.579   8.513   2.010  0.5153  0.8453 -1.2407
 6344SOL     OW20799   2.388   8.233   8.735 -0.0642  0.4088  0.0508
 6344SOL    HW120800   2.391   8.181   8.816 -4.3407 -1.0789 -0.4566
 6344SOL    HW220801   2.429   8.178   8.669 -1.5184 -0.9684  0.2189
 6345SOL     OW20802   0.140   5.446   5.300 -0.8184  0.1464 -0.0662
 6345SOL    HW120803   0.169   5.356   5.283  2.1311  0.6945  1.3304
 6345SOL    HW220804   0.079   5.438   5.374  0.4859 -0.6513  0.9743
 6346SOL     OW20805   0.862   7.927   8.607 -0.0992 -0.0996  0.1709
 6346SOL    HW120806   0.909   7.844   8.612 -1.6971 -0.9368  2.4433
 6346SOL    HW220807   0.842   7.949   8.697 -1.9221  1.4832 -0.5515
 6347SOL     OW20808   4.957   9.139   7.104 -0.1179  0.4661  0.0854
 6347SOL    HW120809   4.937   9.231   7.083 -2.6421 -0.0445 -0.1115
 6347SOL    HW220810   4.872   9.102   7.129  0.8046 -1.8859 -0.0891
 6348SOL     OW20811   3.502   0.957   2.014 -0.2711  0.7342 -0.0673
 6348SOL    HW120812   3.586   0.923   1.982 -0.3192 -0.8609  1.3463
 6348SOL    HW220813   3.439   0.889   1.989 -1.2376  2.0611 -1.3764
 6349SOL     OW20814   6.812   8.368   4.806  0.7687 -0.0059  0.0865
 6349SOL    HW120815   6.741   8.369   4.742  0.7586  2.1351  0.0519
 6349SOL    HW220816   6.801   8.285   4.853 -1.3435 -0.0403 -0.3519
 6350SOL     OW20817   0.905   9.622   9.511 -0.5637  0.1978  0.0980
 6350SOL    HW120818   0.937   9.704   9.550  2.2469 -0.0101 -1.5064
 6350SOL    HW220819   0.984   9.573   9.490 -1.9490 -0.8285 -3.4360
 6351SOL     OW20820   7.483   1.779   0.707 -0.0855 -0.1965  0.0397
 6351SOL    HW120821   7.486   1.873   0.687 -0.3222 -0.3032 -0.5095
 6351SOL    HW220822   7.389   1.759   0.713 -0.0290 -0.1887  1.1829
 6352SOL     OW20823   4.244   6.507   8.177  0.2834 -0.0925  0.1672
 6352SOL    HW120824   4.219   6.599   8.170  0.1766 -0.0755  0.7641
 6352SOL    HW220825   4.340   6.508   8.168  0.1783 -0.0734 -1.2342
 6353SOL     OW20826   5.242   4.394   6.288 -0.0374  0.1635  0.1426
 6353SOL    HW120827   5.260   4.486   6.272  1.8132 -0.4829 -1.8881
 6353SOL    HW220828   5.266   4.380   6.380 -2.1234  2.0170  1.0847
 6354SOL     OW20829   5.921   7.632   0.774  0.7085  0.7626 -0.0593
 6354SOL    HW120830   5.904   7.544   0.807  0.1819  0.7504 -0.3597
 6354SOL    HW220831   5.988   7.667   0.833  2.4823 -0.5810 -1.1568
 6355SOL     OW20832   9.708   5.797   9.215 -0.3503 -0.2721 -0.2242
 6355SOL    HW120833   9.685   5.705   9.225  0.5631 -1.0432 -3.8204
 6355SOL    HW220834   9.624   5.843   9.213 -0.8180 -0.9756  1.5198
 6356SOL     OW20835   5.340   7.086   7.494 -0.1281  0.0145 -0.0621
 6356SOL    HW120836   5.274   7.145   7.456  0.4239  0.9881  0.4393
 6356SOL    HW220837   5.415   7.093   7.434 -0.4929 -1.1404 -0.6684
 6357SOL     OW20838   2.787   3.496   8.523  0.2188 -0.1549 -0.1792
 6357SOL    HW120839   2.777   3.444   8.603 -0.3958  0.8391  0.4208
 6357SOL    HW220840   2.777   3.586   8.552  0.1969  0.2423 -1.3544
 6358SOL     OW20841   2.895   4.115   5.070  0.5809 -0.5408 -0.7013
 6358SOL    HW120842   2.826   4.092   5.009 -0.3842  1.2942 -0.3705
 6358SOL    HW220843   2.861   4.191   5.117  0.5660 -2.7147  3.2827
 6359SOL     OW20844   7.670   3.437   1.546  0.2531  0.2789 -0.5086
 6359SOL    HW120845   7.576   3.445   1.530 -0.0691  0.6678  1.3526
 6359SOL    HW220846   7.692   3.350   1.514 -0.7821  0.1144 -0.8076
 6360SOL     OW20847   1.594   7.074   6.053  0.5279  0.0318  0.6228
 6360SOL    HW120848   1.589   7.094   6.146 -0.7491  0.1540  0.5475
 6360SOL    HW220849   1.509   7.036   6.032  0.9009 -0.2473 -0.4376
 6361SOL     OW20850   3.650   6.560   0.231  0.1991 -0.1346 -0.2400
 6361SOL    HW120851   3.653   6.654   0.250 -1.8752  0.0101 -0.4087
 6361SOL    HW220852   3.556   6.539   0.229  0.5854 -2.6853  2.2043
 6362SOL     OW20853   5.406   4.160   4.652 -0.0036  1.0277 -0.9221
 6362SOL    HW120854   5.357   4.212   4.716  0.0411  0.3399 -0.3173
 6362SOL    HW220855   5.459   4.101   4.705 -0.2228  0.2083 -1.6013
 6363SOL     OW20856   9.674   4.829   3.634 -0.2835  0.6775  0.4784
 6363SOL    HW120857   9.680   4.881   3.554 -1.6415  1.3020  0.7574
 6363SOL    HW220858   9.639   4.890   3.700 -1.7950 -0.5278  0.8486
 6364SOL     OW20859   4.053   9.002   8.781  0.5417 -0.0340 -0.1927
 6364SOL    HW120860   3.975   8.985   8.727 -0.4537  1.5213  0.6418
 6364SOL    HW220861   4.097   9.074   8.735 -0.0490  0.9637  0.7391
 6365SOL     OW20862   1.049   4.891   4.266 -0.3609 -0.4423 -0.8639
 6365SOL    HW120863   1.069   4.930   4.181 -0.0479 -0.4886 -0.8151
 6365SOL    HW220864   1.055   4.797   4.250 -0.2344 -0.4495 -0.7773
 6366SOL     OW20865   9.072   9.410   0.187 -0.0601  0.0866  0.5390
 6366SOL    HW120866   9.133   9.413   0.114  0.6569  0.5388  1.1370
 6366SOL    HW220867   9.128   9.413   0.265 -0.8658  1.0395  1.0992
 6367SOL     OW20868   1.522   7.278   6.482  0.8619 -0.2387 -0.0414
 6367SOL    HW120869   1.584   7.289   6.554  0.6699  0.5213  0.0207
 6367SOL    HW220870   1.436   7.293   6.521  0.7900  0.6574 -0.5092
 6368SOL     OW20871   0.949   3.810   6.913  0.2194 -0.7671 -0.0599
 6368SOL    HW120872   1.032   3.815   6.960 -0.0362  0.2895  0.3217
 6368SOL    HW220873   0.883   3.796   6.981 -0.1609  0.8438 -0.0415
 6369SOL     OW20874   8.929   3.073   6.248 -0.1056  0.1988  0.5373
 6369SOL    HW120875   9.001   3.070   6.312 -0.3124  0.1862  0.7744
 6369SOL    HW220876   8.868   3.137   6.285 -0.4835 -0.2069  0.6320
 6370SOL     OW20877   1.479   6.060   5.055 -0.5169 -0.0385 -0.2288
 6370SOL    HW120878   1.562   6.027   5.089  0.2528  0.0092 -1.9354
 6370SOL    HW220879   1.476   6.028   4.965 -1.3747  1.6453 -0.8477
 6371SOL     OW20880   9.394   6.861   9.361  0.0937  0.1764 -0.6368
 6371SOL    HW120881   9.327   6.837   9.296  0.4882  0.5160 -1.1753
 6371SOL    HW220882   9.427   6.777   9.393  0.4053 -0.0102 -1.4135
 6372SOL     OW20883   4.888   7.021   3.809 -0.1136 -0.1416  0.3775
 6372SOL    HW120884   4.921   6.950   3.753 -1.8742 -1.0859  0.4563
 6372SOL    HW220885   4.930   7.100   3.775 -0.5068 -0.7942 -1.7992
 6373SOL     OW20886   4.220   4.609   5.260  0.4349  0.2582  0.0623
 6373SOL    HW120887   4.220   4.516   5.285  1.4396  0.2921  0.2277
 6373SOL    HW220888   4.258   4.610   5.172 -1.6606  0.3002 -0.9022
 6374SOL     OW20889   1.607   2.804   8.778  0.2433  0.5669 -0.3370
 6374SOL    HW120890   1.625   2.830   8.868  1.1890  0.8499 -0.5886
 6374SOL    HW220891   1.512   2.809   8.769  0.0742 -0.1752  0.8533
 6375SOL     OW20892   1.915   5.299   0.013 -0.4268  0.2606  0.2433
 6375SOL    HW120893   1.897   5.337  -0.073 -3.5117 -0.0120  0.6731
 6375SOL    HW220894   1.973   5.225  -0.006  0.1067  1.0464 -1.4167
 6376SOL     OW20895   2.437   1.609   7.920  0.4994  0.2596  0.3353
 6376SOL    HW120896   2.431   1.514   7.919  0.2404  0.2770  0.1576
 6376SOL    HW220897   2.469   1.632   7.832  2.8031  0.1959  1.0797
 6377SOL     OW20898   0.346   2.957   2.433  0.3518 -0.5028  0.1792
 6377SOL    HW120899   0.375   3.026   2.492 -0.6678  0.0947 -0.0054
 6377SOL    HW220900   0.383   2.877   2.470  0.1663 -0.0719  1.3172
 6378SOL     OW20901   8.562   1.413   7.549  0.3284 -0.3634  0.1096
 6378SOL    HW120902   8.631   1.394   7.612  0.5085  0.5330  0.1986
 6378SOL    HW220903   8.482   1.378   7.589 -0.6084  4.5378  3.4319
 6379SOL     OW20904   1.476   1.071   6.182  0.4519 -0.4809 -0.7057
 6379SOL    HW120905   1.550   1.071   6.242 -0.4732 -0.3963  0.4506
 6379SOL    HW220906   1.479   1.157   6.140  1.3860 -0.7215 -1.1677
 6380SOL     OW20907   1.895   6.866   3.201 -0.2240 -0.5498  0.6456
 6380SOL    HW120908   1.838   6.801   3.243 -0.8775 -0.9961 -0.8748
 6380SOL    HW220909   1.968   6.815   3.167 -0.8475 -0.5557 -0.7445
 6381SOL     OW20910   1.825   3.720   4.424  0.5976  0.1104 -0.3992
 6381SOL    HW120911   1.865   3.638   4.395 -0.9135 -0.0594 -2.1557
 6381SOL    HW220912   1.899   3.779   4.436  1.4940 -0.5325 -2.3700
 6382SOL     OW20913   4.176   3.298   7.819  0.1174 -0.4134  0.3715
 6382SOL    HW120914   4.151   3.322   7.730  0.4394  0.8478  0.5972
 6382SOL    HW220915   4.272   3.299   7.818  0.2914 -4.3338 -0.2575
 6383SOL     OW20916   2.104   5.998   9.674  0.0711  0.4332  0.2812
 6383SOL    HW120917   2.051   6.006   9.753 -2.0967 -1.3274 -0.8718
 6383SOL    HW220918   2.155   5.918   9.687 -1.3297 -0.6577 -0.5675
 6384SOL     OW20919   2.952   2.296   6.350  0.8367 -0.2475  0.1263
 6384SOL    HW120920   2.943   2.201   6.362  3.1401 -0.6383 -0.6998
 6384SOL    HW220921   2.993   2.326   6.431  1.3089 -0.1985 -0.1247
 6385SOL     OW20922   7.831   9.329   2.179  0.9943 -0.5790  0.5657
 6385SOL    HW120923   7.831   9.239   2.211  1.1616 -1.4567 -1.6969
 6385SOL    HW220924   7.907   9.333   2.121  0.2604  0.6096 -0.3561
 6386SOL     OW20925   7.803   4.174   9.157  0.3071 -0.5677 -0.6593
 6386SOL    HW120926   7.807   4.175   9.062  1.6055  0.6299 -0.6255
 6386SOL    HW220927   7.886   4.136   9.185 -0.0206 -0.8250 -0.0053
 6387SOL     OW20928   0.209   0.924   2.834  0.4529  0.3283  0.1452
 6387SOL    HW120929   0.194   0.959   2.747 -2.9668 -0.6926  0.1926
 6387SOL    HW220930   0.158   0.980   2.892 -0.5431 -1.2870  0.9214
 6388SOL     OW20931   5.484   0.981   7.423  0.7159 -0.3893 -0.1848
 6388SOL    HW120932   5.420   1.042   7.386  1.5110 -0.1564 -1.2019
 6388SOL    HW220933   5.432   0.907   7.453 -0.2617  0.6967  0.9375
 6389SOL     OW20934   8.783   1.840   3.177  0.5207  0.4679  0.1028
 6389SOL    HW120935   8.755   1.888   3.255 -2.2831  0.2793 -0.6696
 6389SOL    HW220936   8.701   1.819   3.131  2.0020 -0.1987 -2.4413
 6390SOL     OW20937   8.514   2.563   7.312 -0.1909 -0.2230  0.0742
 6390SOL    HW120938   8.536   2.585   7.402 -2.4040 -2.1655  1.1814
 6390SOL    HW220939   8.468   2.641   7.279 -0.3506  0.0811  0.9942
 6391SOL     OW20940   8.185   4.625   6.062  0.0499  0.0219 -0.6553
 6391SOL    HW120941   8.137   4.646   5.982  1.4070 -0.3103 -1.5951
 6391SOL    HW220942   8.277   4.630   6.037  0.5108 -0.0985  0.8933
 6392SOL     OW20943   9.403   9.188   3.856 -0.1905  0.2045  0.2462
 6392SOL    HW120944   9.460   9.169   3.930 -0.9641 -1.5973  0.4248
 6392SOL    HW220945   9.326   9.229   3.895 -0.8174 -1.1964  0.5479
 6393SOL     OW20946   8.083   4.443   4.510  0.2847  0.3624  0.0225
 6393SOL    HW120947   8.086   4.454   4.605 -1.5265  1.6814 -0.0242
 6393SOL    HW220948   7.992   4.419   4.492  0.3861  1.0095 -1.4446
 6394SOL     OW20949   2.866   8.517   8.993 -0.0209 -0.3707  0.3038
 6394SOL    HW120950   2.776   8.494   8.970  0.0422  0.1209 -0.4635
 6394SOL    HW220951   2.920   8.461   8.937  0.1847 -1.4527  1.5262
 6395SOL     OW20952   2.169   7.139   3.581  0.4761  0.4924  0.0751
 6395SOL    HW120953   2.206   7.227   3.585  0.8565  0.3491 -0.3333
 6395SOL    HW220954   2.180   7.111   3.491  0.0717  0.1433  0.1269
 6396SOL     OW20955   0.984   4.463   4.395  0.9509 -0.7177 -0.2661
 6396SOL    HW120956   0.962   4.501   4.481  2.1286 -0.8928  0.1225
 6396SOL    HW220957   0.937   4.380   4.394 -0.7169  0.1857 -0.6477
 6397SOL     OW20958   1.983   4.036   8.967  0.3144 -0.0119  0.2698
 6397SOL    HW120959   2.011   4.030   8.875 -0.9214  0.6897 -0.1763
 6397SOL    HW220960   1.902   3.985   8.970 -0.8196  1.7209  0.4496
 6398SOL     OW20961   3.697   2.024   2.223 -0.2820  0.3094 -0.1941
 6398SOL    HW120962   3.701   1.941   2.176 -0.1811  0.1440  0.1077
 6398SOL    HW220963   3.643   2.006   2.300  2.2065 -0.2851  1.5038
 6399SOL     OW20964   6.907   0.646   2.003  0.3608  0.1360  0.7264
 6399SOL    HW120965   6.869   0.579   2.061  0.4796  0.4255  1.1480
 6399SOL    HW220966   6.970   0.598   1.950 -0.7277 -0.3977 -0.1330
 6400SOL     OW20967   4.252   9.467   9.746  0.0001  0.0005 -0.0525
 6400SOL    HW120968   4.238   9.391   9.690 -2.0192 -0.1065  0.4858
 6400SOL    HW220969   4.282   9.431   9.829  0.8615 -0.0332 -0.3750
 6401SOL     OW20970   4.589   7.980   6.800  0.7751  1.0392 -0.4046
 6401SOL    HW120971   4.654   7.931   6.750 -0.8696 -1.4134 -0.3220
 6401SOL    HW220972   4.640   8.038   6.856  2.9413 -1.1198  0.0104
 6402SOL     OW20973   7.938   2.256   5.958 -0.1831 -1.0942  0.2158
 6402SOL    HW120974   7.972   2.307   6.032  1.1021  0.4366 -1.3250
 6402SOL    HW220975   7.905   2.323   5.897  1.7433 -2.0106 -1.9834
 6403SOL     OW20976   7.964   8.981   4.353  0.2992 -0.2099 -0.2499
 6403SOL    HW120977   7.984   8.894   4.386  0.0871 -0.9299 -1.9154
 6403SOL    HW220978   8.048   9.015   4.323  0.2493 -0.1919 -0.3728
 6404SOL     OW20979   7.125   4.954   1.250  0.0132  0.1548 -0.2212
 6404SOL    HW120980   7.080   4.893   1.309  0.5670 -0.3341 -0.3012
 6404SOL    HW220981   7.130   4.908   1.166 -0.1767  0.5871 -0.4753
 6405SOL     OW20982   2.558   7.458   0.755  0.5463 -0.2896 -0.0940
 6405SOL    HW120983   2.565   7.460   0.660  1.2946 -1.6438 -0.0948
 6405SOL    HW220984   2.466   7.436   0.772  0.9752 -2.7383 -0.6039
 6406SOL     OW20985   2.153   0.088   1.001 -0.0517  0.1721 -0.1811
 6406SOL    HW120986   2.137   0.134   1.083  0.2209  0.4615 -0.2904
 6406SOL    HW220987   2.165  -0.003   1.028  0.0876  0.2732  0.1052
 6407SOL     OW20988   3.959   5.762   7.442 -0.3149 -0.0479  0.1097
 6407SOL    HW120989   3.981   5.841   7.491  0.5611  0.6005 -1.2744
 6407SOL    HW220990   3.974   5.691   7.504  0.0045  0.7933  1.0190
 6408SOL     OW20991   2.804   0.614   2.109 -0.3039 -0.6737  0.2403
 6408SOL    HW120992   2.831   0.705   2.109 -1.5591 -0.2788 -0.0831
 6408SOL    HW220993   2.848   0.575   2.185 -2.2327  0.9856  2.3490
 6409SOL     OW20994   2.968   4.605   3.378 -0.0628  0.3120  0.0998
 6409SOL    HW120995   2.926   4.520   3.392 -1.0582  0.9003  0.7985
 6409SOL    HW220996   2.939   4.631   3.290  0.4988 -0.2078 -0.2421
 6410SOL     OW20997   3.923   6.700   0.216 -0.5514 -0.3260 -0.4190
 6410SOL    HW120998   3.869   6.626   0.191  0.3687 -1.5277  1.0070
 6410SOL    HW220999   3.984   6.711   0.143 -0.3364 -1.3448 -0.4068
 6411SOL     OW21000   0.581   5.605   7.976 -0.3889 -0.0651 -0.1268
 6411SOL    HW121001   0.572   5.653   7.894  1.0694 -0.2441 -0.4139
 6411SOL    HW221002   0.675   5.605   7.994 -0.6468 -0.3665  1.3432
 6412SOL     OW21003   2.261   9.717   6.266  0.2983  0.1198  0.0744
 6412SOL    HW121004   2.290   9.797   6.309 -0.8203  1.2699 -1.1730
 6412SOL    HW221005   2.208   9.672   6.332  0.9389  0.4053  0.7963
 6413SOL     OW21006   1.487   4.117   2.602  0.3300 -0.9336 -0.4023
 6413SOL    HW121007   1.573   4.084   2.575 -0.0690 -1.7835 -0.6739
 6413SOL    HW221008   1.500   4.211   2.615  0.8207 -0.6923 -2.3928
 6414SOL     OW21009   3.281   8.487   7.269 -0.4829  0.2173  0.3064
 6414SOL    HW121010   3.306   8.426   7.339  1.6773 -0.2860 -0.8046
 6414SOL    HW221011   3.323   8.569   7.294  0.1726  0.0730 -0.2806
 6415SOL     OW21012   7.240   7.761   6.308 -0.0666 -0.7499 -0.4025
 6415SOL    HW121013   7.330   7.735   6.286  0.6454 -0.2913  1.7445
 6415SOL    HW221014   7.230   7.847   6.268 -0.1725 -1.5152 -2.0883
 6416SOL     OW21015   2.944   0.801   7.795 -0.0683 -0.1166 -0.1812
 6416SOL    HW121016   2.879   0.786   7.864  0.1539 -0.4465 -0.0417
 6416SOL    HW221017   2.894   0.800   7.714 -0.2859 -0.0540 -0.0477
 6417SOL     OW21018   8.478   8.790   4.887 -0.1090  0.0614 -0.5594
 6417SOL    HW121019   8.571   8.808   4.870 -0.1866  0.9607 -0.0604
 6417SOL    HW221020   8.478   8.744   4.971  0.1701 -3.3212 -2.2249
 6418SOL     OW21021   8.727   1.354   4.370  0.0467 -0.0851 -0.3370
 6418SOL    HW121022   8.801   1.405   4.337  0.4461 -0.5647 -0.1927
 6418SOL    HW221023   8.716   1.383   4.460  0.5317 -0.5287 -0.1272
 6419SOL     OW21024   5.338   7.317   0.692 -0.1323  0.0287  0.2764
 6419SOL    HW121025   5.413   7.290   0.638 -0.7744 -2.4274  0.4949
 6419SOL    HW221026   5.355   7.409   0.712  2.4525 -0.2535 -0.2852
 6420SOL     OW21027   3.354   9.260   1.693 -0.2170 -0.7354  0.6363
 6420SOL    HW121028   3.303   9.181   1.704 -1.7915 -0.2403 -2.0470
 6420SOL    HW221029   3.295   9.331   1.719 -1.3695 -0.1180 -3.0177
 6421SOL     OW21030   9.056   1.063   5.960 -0.3446  0.2877  0.4470
 6421SOL    HW121031   8.967   1.078   5.992 -0.4796  2.6443 -0.7840
 6421SOL    HW221032   9.050   1.075   5.865  1.0724 -0.8395  0.1682
 6422SOL     OW21033   5.000   3.015   6.051  0.2507  0.3172  0.1030
 6422SOL    HW121034   4.987   3.099   6.006  0.3596  1.1126  1.5107
 6422SOL    HW221035   4.936   2.957   6.010  1.2992  0.5870 -2.0742
 6423SOL     OW21036   3.950   1.832   5.545 -0.0780 -0.2810 -0.2964
 6423SOL    HW121037   3.859   1.845   5.519 -0.6894 -2.1023  0.7708
 6423SOL    HW221038   3.993   1.916   5.525 -1.7123  0.2471 -1.8579
 6424SOL     OW21039   2.167   9.049   8.510  0.6227  0.0562  0.3846
 6424SOL    HW121040   2.135   8.964   8.539  0.6686 -0.1642 -0.1960
 6424SOL    HW221041   2.240   9.069   8.569  0.3640 -0.1223  0.7654
 6425SOL     OW21042   5.999   0.259   2.342 -0.1111  0.2630 -0.2441
 6425SOL    HW121043   6.042   0.251   2.256  0.2983 -0.0281 -0.0167
 6425SOL    HW221044   5.924   0.315   2.326 -0.6096 -0.5935 -1.0098
 6426SOL     OW21045   9.086   4.464   7.161  0.4227  0.3137 -0.0007
 6426SOL    HW121046   9.004   4.507   7.185 -0.5654 -1.6527  0.3306
 6426SOL    HW221047   9.125   4.522   7.095 -1.3004  1.1915 -0.3002
 6427SOL     OW21048   2.503   3.687   0.674 -0.6481  0.7655 -0.1713
 6427SOL    HW121049   2.507   3.673   0.768 -0.8576  0.7577 -0.1637
 6427SOL    HW221050   2.595   3.694   0.647 -0.6018  1.7383  0.1817
 6428SOL     OW21051   1.735   8.651   4.662  0.1935  0.0581 -0.0257
 6428SOL    HW121052   1.764   8.687   4.578 -0.2975  1.8928  0.5324
 6428SOL    HW221053   1.751   8.557   4.655  0.3395  0.1882 -2.0937
 6429SOL     OW21054   8.697   0.253   7.698 -0.7129 -0.6769 -0.2595
 6429SOL    HW121055   8.683   0.321   7.632 -0.5774 -2.0730 -1.7754
 6429SOL    HW221056   8.754   0.190   7.656  2.0866 -0.0836  2.3347
 6430SOL     OW21057   9.218   1.087   3.681  0.0336 -0.1216  0.3902
 6430SOL    HW121058   9.192   1.095   3.589  0.9208  0.9019  0.2168
 6430SOL    HW221059   9.308   1.054   3.678  0.0374 -0.1695  0.8922
 6431SOL     OW21060   8.987   5.986   2.796 -0.2617 -0.8757  0.0847
 6431SOL    HW121061   8.914   6.008   2.853 -0.9216  2.3911 -1.7367
 6431SOL    HW221062   9.060   6.039   2.829 -0.1590 -0.3090 -0.9906
 6432SOL     OW21063   7.637   0.422   0.559 -0.0693  0.3764 -0.5083
 6432SOL    HW121064   7.586   0.359   0.609  0.5883  0.2520  0.0238
 6432SOL    HW221065   7.631   0.503   0.610 -1.4356  0.9393 -1.5108
 6433SOL     OW21066   3.207   3.889   9.591  0.1176  0.5268 -0.3203
 6433SOL    HW121067   3.289   3.843   9.571  0.0420  0.2494  0.0036
 6433SOL    HW221068   3.139   3.821   9.586 -0.2108  0.9143 -1.4121
 6434SOL     OW21069   5.919   9.181   2.560  0.0120  0.0812  0.0963
 6434SOL    HW121070   5.905   9.173   2.466 -0.9374 -2.6179  0.3894
 6434SOL    HW221071   6.003   9.139   2.576 -0.4140 -0.6061  0.5838
 6435SOL     OW21072   0.798   8.828   8.556  0.0666  0.3170  0.2342
 6435SOL    HW121073   0.789   8.847   8.463  0.4804 -0.9556 -0.0879
 6435SOL    HW221074   0.891   8.838   8.574 -0.0591  0.8718  0.5884
 6436SOL     OW21075   3.818   4.224   7.770 -0.5519 -0.2019  0.0146
 6436SOL    HW121076   3.750   4.226   7.703  0.2616  1.3661 -0.8158
 6436SOL    HW221077   3.827   4.315   7.798 -1.3325 -0.9051  2.7902
 6437SOL     OW21078   5.691   9.427   9.389  0.0982 -0.4314 -0.5632
 6437SOL    HW121079   5.743   9.383   9.455  0.6904 -0.7232 -1.2123
 6437SOL    HW221080   5.653   9.357   9.336 -1.7717 -0.2695  0.4756
 6438SOL     OW21081   8.220   9.642   9.439 -0.2501 -0.0804 -0.2498
 6438SOL    HW121082   8.249   9.613   9.353  1.8079 -0.8598  0.6286
 6438SOL    HW221083   8.188   9.563   9.482 -0.0327  0.0317  0.1329
 6439SOL     OW21084   5.148   8.768   0.340  0.3068 -0.2842 -0.0185
 6439SOL    HW121085   5.140   8.746   0.247 -1.1182 -2.2593  0.5027
 6439SOL    HW221086   5.070   8.819   0.360  0.2266 -0.5140  0.2575
 6440SOL     OW21087   1.790   8.050   5.701  0.1817 -0.4423  0.6490
 6440SOL    HW121088   1.789   8.146   5.702 -1.0780 -0.4113 -0.3105
 6440SOL    HW221089   1.752   8.025   5.785  0.1502 -0.0948  0.7417
 6441SOL     OW21090   4.208   1.604   9.586  0.2283  0.1146 -0.5835
 6441SOL    HW121091   4.288   1.575   9.541  1.1271  1.9713 -0.2800
 6441SOL    HW221092   4.165   1.662   9.523 -0.0296  0.4042 -0.1418
 6442SOL     OW21093   5.689   3.892   2.388 -0.2008  0.7074  0.1992
 6442SOL    HW121094   5.665   3.872   2.297 -1.4674 -1.3066  0.9302
 6442SOL    HW221095   5.620   3.853   2.441  0.4908  1.8746  2.0753
 6443SOL     OW21096   3.824   7.710   7.732  0.0908 -0.0427 -0.4263
 6443SOL    HW121097   3.761   7.676   7.795  1.4528 -2.1487 -0.0915
 6443SOL    HW221098   3.813   7.805   7.736 -0.4159 -0.1312  2.4351
 6444SOL     OW21099   2.587   8.077   4.965  0.0948  0.2855 -0.8173
 6444SOL    HW121100   2.496   8.103   4.978 -0.3384 -0.9782 -1.2805
 6444SOL    HW221101   2.595   8.059   4.872  1.1284  1.4649 -0.9874
 6445SOL     OW21102   2.727   0.025   9.048  0.6853 -0.1904 -0.5326
 6445SOL    HW121103   2.675  -0.054   9.033  1.0188 -0.2939 -1.1475
 6445SOL    HW221104   2.772   0.007   9.131  0.1651 -0.3228 -0.2717
 6446SOL     OW21105   5.944   1.802   4.089  0.4083 -0.4374 -0.4776
 6446SOL    HW121106   5.927   1.756   4.171 -1.0848 -2.1457 -1.6665
 6446SOL    HW221107   5.859   1.839   4.065  0.9294  0.4082 -1.0760
 6447SOL     OW21108   9.178   6.907   2.789  0.4179  0.0857  0.3144
 6447SOL    HW121109   9.228   6.947   2.717  2.1375 -0.8134  0.9591
 6447SOL    HW221110   9.235   6.917   2.865  0.6279 -2.8998  0.6413
 6448SOL     OW21111   3.093   1.462   8.543  0.3315  0.2966  0.6336
 6448SOL    HW121112   3.117   1.523   8.474  0.9202  0.3571  0.8817
 6448SOL    HW221113   3.167   1.465   8.604  1.5836 -2.5190 -0.5871
 6449SOL     OW21114   3.326   8.976   7.873  0.2434  0.4655 -0.0135
 6449SOL    HW121115   3.246   8.984   7.924 -0.0173  0.3075 -0.3934
 6449SOL    HW221116   3.307   9.020   7.790  0.0986 -0.6807 -0.6153
 6450SOL     OW21117   6.042   9.484   6.723 -0.5656  0.3577 -0.2082
 6450SOL    HW121118   5.965   9.471   6.779 -0.5895  2.9095  0.4642
 6450SOL    HW221119   6.052   9.579   6.717  2.3988  0.1274 -0.4738
 6451SOL     OW21120   2.317   1.369   6.156  0.1115 -0.4081 -0.0116
 6451SOL    HW121121   2.393   1.426   6.167 -1.1979  1.4476  0.0177
 6451SOL    HW221122   2.338   1.290   6.206  1.9398  0.0949  0.0870
 6452SOL     OW21123   5.023   7.166   3.001 -0.1269  0.0303  0.1365
 6452SOL    HW121124   4.939   7.196   2.967 -0.6396 -1.0285  0.4025
 6452SOL    HW221125   5.009   7.160   3.096  0.9827  2.0316  0.4782
 6453SOL     OW21126   8.689   3.829   3.683 -0.5263  0.3442  0.1359
 6453SOL    HW121127   8.683   3.905   3.741  2.1872  0.1186  0.8446
 6453SOL    HW221128   8.599   3.814   3.654 -1.4823  2.4405  1.7344
 6454SOL     OW21129   3.254   2.220   4.908  0.4423  0.2623 -0.6549
 6454SOL    HW121130   3.270   2.301   4.860 -1.7531  1.5860  0.6498
 6454SOL    HW221131   3.160   2.205   4.899  0.2889 -0.5058  1.5452
 6455SOL     OW21132   3.744   7.323   6.349 -0.3797  0.9954 -0.3315
 6455SOL    HW121133   3.675   7.365   6.400 -0.4639  0.5591 -0.0744
 6455SOL    HW221134   3.825   7.349   6.393 -0.4468  0.6992 -0.0277
 6456SOL     OW21135   1.153   7.996   5.582 -0.2253 -0.2989  0.5204
 6456SOL    HW121136   1.222   7.945   5.625  0.1527  0.7039  1.1517
 6456SOL    HW221137   1.094   8.021   5.654 -1.0358 -0.8052  0.0463
 6457SOL     OW21138   6.581   0.085   7.016 -0.8245 -0.5054 -0.0149
 6457SOL    HW121139   6.634   0.135   7.079  1.1838 -1.4584 -0.8544
 6457SOL    HW221140   6.524   0.031   7.070  1.3364 -1.8265  1.0930
 6458SOL     OW21141   9.198   7.927   9.098  0.2079  0.1013  0.3409
 6458SOL    HW121142   9.126   7.961   9.045  1.5136 -0.3958 -1.8815
 6458SOL    HW221143   9.161   7.849   9.140 -0.7568  0.2683 -0.1547
 6459SOL     OW21144   7.897   8.880   9.847 -0.1577 -0.1251 -0.3111
 6459SOL    HW121145   7.937   8.837   9.922 -1.1426  1.4519  1.1967
 6459SOL    HW221146   7.892   8.812   9.780  1.0442 -1.5012  0.9277
 6460SOL     OW21147   6.585   4.760   2.885 -0.0572  0.0093  0.1125
 6460SOL    HW121148   6.555   4.850   2.872 -0.4359 -0.0575  0.5161
 6460SOL    HW221149   6.558   4.715   2.805 -1.0348 -0.0479  0.4613
 6461SOL     OW21150   0.018   0.342   8.260 -0.1826  0.5991  0.3761
 6461SOL    HW121151  -0.065   0.312   8.225 -0.3056  0.8928  0.4132
 6461SOL    HW221152   0.045   0.412   8.201  1.2911 -1.1608 -1.1567
 6462SOL     OW21153   3.953   4.842   0.650 -0.6841 -0.7746 -0.6437
 6462SOL    HW121154   3.928   4.758   0.611 -1.0584 -1.4354  0.9569
 6462SOL    HW221155   3.942   4.830   0.744  0.9931  0.4947 -0.2249
 6463SOL     OW21156   5.498   4.019   2.937  0.2212  0.2062 -0.1885
 6463SOL    HW121157   5.483   4.113   2.945  0.2529  0.1976 -0.0332
 6463SOL    HW221158   5.527   3.991   3.024  2.0210  0.3921 -0.6859
 6464SOL     OW21159   3.275   9.554   7.983 -0.6831  0.2704 -0.1625
 6464SOL    HW121160   3.222   9.512   8.050 -1.5000  0.8361 -0.4485
 6464SOL    HW221161   3.305   9.636   8.023  0.7120 -0.4340  0.3091
 6465SOL     OW21162   6.930   3.040   2.958 -0.1884 -0.0638 -0.1944
 6465SOL    HW121163   6.979   2.986   2.895  0.8393  1.5346 -0.8189
 6465SOL    HW221164   6.957   3.129   2.939 -1.6238  0.6660  1.0230
 6466SOL     OW21165   9.177   8.420   6.974  0.7883 -0.5618 -0.5625
 6466SOL    HW121166   9.125   8.378   6.906  0.2893  0.6955 -0.9868
 6466SOL    HW221167   9.177   8.357   7.046 -0.9855 -0.7838 -0.7067
 6467SOL     OW21168   4.279   7.944   0.357  0.5027 -0.9507 -0.4313
 6467SOL    HW121169   4.270   7.850   0.337  1.0887 -0.8045 -1.4570
 6467SOL    HW221170   4.324   7.946   0.442  0.9818 -1.6070 -0.6562
 6468SOL     OW21171   6.067   1.401   1.698 -0.0971 -0.6863  0.2870
 6468SOL    HW121172   6.093   1.352   1.620  0.0067 -1.4570  0.7932
 6468SOL    HW221173   5.983   1.440   1.674 -0.1716 -1.0905 -0.1404
 6469SOL     OW21174   2.282   4.167   5.165 -0.2267 -0.0147 -0.6082
 6469SOL    HW121175   2.271   4.082   5.208  2.2707  0.4864  1.2768
 6469SOL    HW221176   2.214   4.223   5.202 -1.4844 -0.9673 -1.3902
 6470SOL     OW21177   8.836   9.018   0.226 -0.4907  0.2779  0.2683
 6470SOL    HW121178   8.899   8.995   0.295 -0.6309 -0.4548  0.1590
 6470SOL    HW221179   8.825   8.938   0.176 -2.3951  0.0596  0.9722
 6471SOL     OW21180   6.287   2.868   5.014  0.3154 -0.0873  0.3531
 6471SOL    HW121181   6.332   2.851   5.097 -1.2011  0.1428  1.2717
 6471SOL    HW221182   6.270   2.962   5.015 -0.7220 -0.2585  0.3528
 6472SOL     OW21183   2.268   9.757   5.523  0.1768 -0.3657  0.3519
 6472SOL    HW121184   2.254   9.809   5.602  1.1088  0.0777  0.2453
 6472SOL    HW221185   2.186   9.711   5.509  0.2716 -1.1224  2.0663
 6473SOL     OW21186   2.933   9.666   5.476 -0.0916 -0.0354  0.0887
 6473SOL    HW121187   2.930   9.575   5.506 -1.0282  0.4863  1.6920
 6473SOL    HW221188   2.885   9.665   5.393  1.7283 -1.3454 -1.0350
 6474SOL     OW21189   3.318   6.469   3.861 -0.1678 -0.3406  0.6528
 6474SOL    HW121190   3.366   6.492   3.941 -0.4324 -1.7125  1.2286
 6474SOL    HW221191   3.363   6.391   3.828  0.0958  0.3583 -0.6983
 6475SOL     OW21192   1.692   9.309   1.313 -0.5928 -0.3881  0.1832
 6475SOL    HW121193   1.753   9.364   1.363 -0.6231  0.1126 -0.3188
 6475SOL    HW221194   1.664   9.364   1.240 -1.0442 -0.8885 -0.0318
 6476SOL     OW21195   8.495   8.236   3.835  0.3793  0.3776 -0.1887
 6476SOL    HW121196   8.590   8.233   3.846  0.4777  0.8876 -0.8596
 6476SOL    HW221197   8.477   8.176   3.763  0.0956 -0.3503  0.4715
 6477SOL     OW21198   1.288   7.967   0.630 -0.1626 -0.0311  0.2407
 6477SOL    HW121199   1.312   8.015   0.709  0.2409 -0.8843  0.6535
 6477SOL    HW221200   1.339   8.007   0.560  1.7199 -1.1193  0.9195
 6478SOL     OW21201   7.146   8.187   3.853 -0.1528 -0.2651  0.3746
 6478SOL    HW121202   7.193   8.117   3.898  0.3278 -0.1297  0.0943
 6478SOL    HW221203   7.146   8.260   3.914 -2.0956 -1.0050  1.3441
 6479SOL     OW21204   8.945   9.401   6.675  0.3514 -0.2633  0.0807
 6479SOL    HW121205   8.951   9.426   6.582  0.9289  2.0854  0.6763
 6479SOL    HW221206   8.851   9.392   6.691  0.2505 -0.8251 -0.7519
 6480SOL     OW21207   5.846   6.803   5.312 -0.5784 -0.7175 -0.2502
 6480SOL    HW121208   5.885   6.890   5.323  1.0565 -1.3477 -0.7279
 6480SOL    HW221209   5.754   6.820   5.295 -0.7324  0.8270  1.7123
 6481SOL     OW21210   3.926   1.073   2.245 -0.0362 -0.4891 -0.6012
 6481SOL    HW121211   3.891   1.152   2.202 -1.0384  0.3706  1.6548
 6481SOL    HW221212   3.999   1.105   2.297  1.8535 -1.6944 -2.3759
 6482SOL     OW21213   2.555   3.375   8.740 -0.0807  0.1591  0.0493
 6482SOL    HW121214   2.636   3.329   8.761 -0.3679 -0.2059  0.3716
 6482SOL    HW221215   2.518   3.328   8.666 -0.2570  0.0060  0.2321
 6483SOL     OW21216   7.666   6.217   0.519  0.3952  0.2135  0.3757
 6483SOL    HW121217   7.598   6.281   0.497 -0.5953 -1.0698 -0.4659
 6483SOL    HW221218   7.735   6.232   0.454  0.0053  0.2010 -0.0502
 6484SOL     OW21219   0.561   3.659   0.929 -0.2494 -0.1094  0.4454
 6484SOL    HW121220   0.642   3.612   0.953 -0.2625 -0.7699 -0.7308
 6484SOL    HW221221   0.491   3.608   0.970 -0.1195  0.0931  0.9249
 6485SOL     OW21222   5.085   2.460   5.614  0.5220  0.3752  0.0494
 6485SOL    HW121223   5.060   2.541   5.659 -0.1270  0.7206 -0.9093
 6485SOL    HW221224   5.108   2.488   5.526 -1.0280 -0.6358 -0.7239
 6486SOL     OW21225   7.553   3.162   2.875  0.5372 -0.1541 -0.6544
 6486SOL    HW121226   7.514   3.078   2.850 -0.2359  0.1745 -0.5897
 6486SOL    HW221227   7.567   3.155   2.970 -0.8970  0.3084 -0.3796
 6487SOL     OW21228   7.248   8.289   4.390 -0.1040 -0.2513 -0.2167
 6487SOL    HW121229   7.202   8.372   4.391  0.3830  0.0286 -0.6678
 6487SOL    HW221230   7.251   8.262   4.482 -1.0004 -0.1912 -0.1595
 6488SOL     OW21231   5.158   4.472   5.337  0.0987 -0.0361 -0.0527
 6488SOL    HW121232   5.228   4.512   5.388  0.8480 -0.1273 -0.9823
 6488SOL    HW221233   5.095   4.543   5.321 -0.6009 -0.2090  1.7174
 6489SOL     OW21234   1.936   1.909   3.049  0.1145  0.0170  0.2363
 6489SOL    HW121235   1.859   1.963   3.066  0.2474  1.2012 -2.4382
 6489SOL    HW221236   1.904   1.819   3.057 -1.9183  0.4572 -1.9039
 6490SOL     OW21237   6.350   6.229   6.120  0.0854 -0.0022  0.6255
 6490SOL    HW121238   6.332   6.280   6.041  0.7321 -0.2787  0.2901
 6490SOL    HW221239   6.342   6.138   6.092  2.1772 -0.1597  0.3780
 6491SOL     OW21240   2.208   6.095   5.166  0.1677  0.2804  0.0899
 6491SOL    HW121241   2.188   6.185   5.140 -2.0339 -0.1161  0.1663
 6491SOL    HW221242   2.183   6.091   5.259  0.2375 -0.4121  0.0836
 6492SOL     OW21243   3.199   8.358   8.391 -0.7488  0.3052 -0.0976
 6492SOL    HW121244   3.180   8.316   8.475 -3.0076  1.1529 -0.1102
 6492SOL    HW221245   3.129   8.423   8.380 -2.2308 -1.5793 -3.8712
 6493SOL     OW21246   8.162   3.047   1.614  0.6983  0.0417  0.0824
 6493SOL    HW121247   8.243   3.067   1.567  0.0215 -0.5208 -1.4142
 6493SOL    HW221248   8.110   2.999   1.550  0.0309 -1.4724  1.6919
 6494SOL     OW21249   7.511   5.387   8.489 -0.2513 -0.3650 -0.5443
 6494SOL    HW121250   7.535   5.447   8.418 -1.5313  0.4375 -0.3333
 6494SOL    HW221251   7.489   5.445   8.562 -0.7781 -1.1232 -0.0913
 6495SOL     OW21252   2.748   6.010   9.362 -0.3907  0.0025 -0.0536
 6495SOL    HW121253   2.764   6.103   9.344  0.7743 -0.4298 -1.4017
 6495SOL    HW221254   2.821   5.965   9.320 -0.7163 -1.5094  0.9453
 6496SOL     OW21255   7.415   2.859   8.035 -0.4046  0.3936 -0.7481
 6496SOL    HW121256   7.334   2.810   8.044 -0.1200 -0.0365 -0.4919
 6496SOL    HW221257   7.410   2.926   8.103  0.1899 -0.6748  0.3862
 6497SOL     OW21258   4.065   6.225   5.300  0.0400 -0.2472 -0.5133
 6497SOL    HW121259   4.039   6.246   5.210  1.0275 -1.3626 -1.0842
 6497SOL    HW221260   4.137   6.285   5.319 -1.0907  0.9691  0.0789
 6498SOL     OW21261   5.959   9.544   7.377  0.0683 -0.2036  0.1157
 6498SOL    HW121262   6.042   9.586   7.397  1.2872 -2.6656  0.6348
 6498SOL    HW221263   5.918   9.530   7.462 -1.8267  2.5979 -0.2199
 6499SOL     OW21264   8.144   5.571   4.339  0.6458  0.2361 -0.1984
 6499SOL    HW121265   8.079   5.527   4.394  1.5106  0.5457  1.1073
 6499SOL    HW221266   8.176   5.644   4.392  3.2794 -0.8794 -0.0657
 6500SOL     OW21267   4.828   4.379   2.533 -0.0998  0.0381  0.2458
 6500SOL    HW121268   4.780   4.297   2.549 -0.3993  0.4025  1.2888
 6500SOL    HW221269   4.761   4.447   2.534  0.2632  0.4000  0.2616
 6501SOL     OW21270   8.464   6.939   7.683  0.2476  0.6340  0.2103
 6501SOL    HW121271   8.373   6.959   7.664  0.3762 -0.0940 -1.4502
 6501SOL    HW221272   8.489   6.999   7.753 -1.6022  0.5669  0.9813
 6502SOL     OW21273   1.847   4.741   3.271  0.5198  0.7233  0.5136
 6502SOL    HW121274   1.860   4.835   3.282  2.6156  0.4964  0.3726
 6502SOL    HW221275   1.899   4.701   3.341  0.2507 -0.3433  0.1293
 6503SOL     OW21276   7.291   7.174   9.746 -0.2171  0.1709 -0.8671
 6503SOL    HW121277   7.204   7.138   9.732 -0.1843 -1.0064  1.4633
 6503SOL    HW221278   7.285   7.222   9.828  1.0513  1.0770 -1.2638
 6504SOL     OW21279   2.977   1.801   4.940 -0.1251 -0.5511 -0.0349
 6504SOL    HW121280   2.952   1.709   4.940 -1.9913 -0.1869  2.6208
 6504SOL    HW221281   2.893   1.848   4.939  0.7757  1.1362 -1.1209
 6505SOL     OW21282   4.532   3.668   3.327 -0.2513 -0.2016  0.3942
 6505SOL    HW121283   4.553   3.599   3.390  1.3226  1.2136  1.5345
 6505SOL    HW221284   4.475   3.626   3.263 -0.0803 -2.3014  1.5236
 6506SOL     OW21285   9.757   8.710   9.651  0.3499  0.3760  0.1886
 6506SOL    HW121286   9.840   8.674   9.682  0.6593 -0.4145 -1.4437
 6506SOL    HW221287   9.691   8.650   9.685  0.4558  0.7886  1.1660
 6507SOL     OW21288   2.075   0.626   6.133  0.6287  0.2855 -0.2003
 6507SOL    HW121289   2.080   0.699   6.072 -1.6445  1.2891  0.6926
 6507SOL    HW221290   2.040   0.554   6.081 -0.0326  0.7484 -0.4141
 6508SOL     OW21291   4.655   6.129   6.268 -0.0706  0.0336 -0.2718
 6508SOL    HW121292   4.668   6.082   6.186  0.0355 -0.1969 -0.1238
 6508SOL    HW221293   4.641   6.060   6.333  0.4018  0.1918  0.0036
 6509SOL     OW21294   8.776   6.378   7.661 -0.8037  0.2657 -0.4220
 6509SOL    HW121295   8.865   6.346   7.647 -0.1250  1.0955  1.6528
 6509SOL    HW221296   8.730   6.357   7.579  0.8980 -1.4331 -1.0149
 6510SOL     OW21297   8.972   6.957   7.223  0.2945 -0.1310  0.7271
 6510SOL    HW121298   9.037   6.967   7.154 -0.3034  0.8119  0.2814
 6510SOL    HW221299   8.955   7.046   7.254 -0.6827 -0.3663  0.9179
 6511SOL     OW21300   5.050   2.729   7.278 -0.3425  0.2361 -0.2353
 6511SOL    HW121301   5.081   2.672   7.348 -1.8378 -0.5911 -0.2128
 6511SOL    HW221302   5.043   2.673   7.202 -0.0550  0.8186 -0.6981
 6512SOL     OW21303   9.606   0.423   5.301 -0.4957 -0.5610 -0.1612
 6512SOL    HW121304   9.516   0.450   5.280 -0.0730  0.8037 -0.3028
 6512SOL    HW221305   9.656   0.504   5.304  0.2225 -0.9883  2.6311
 6513SOL     OW21306   8.811   4.655   7.329  0.7933 -0.2468  0.1970
 6513SOL    HW121307   8.892   4.618   7.364  0.6266  0.4598  1.3860
 6513SOL    HW221308   8.821   4.749   7.341  0.3099 -0.0566 -0.8107
 6514SOL     OW21309   8.174   2.166   3.013  0.1818  0.0051  0.1020
 6514SOL    HW121310   8.210   2.097   3.069 -1.0783 -0.6688  0.1002
 6514SOL    HW221311   8.079   2.161   3.026 -0.1984 -0.4937 -2.4567
 6515SOL     OW21312   4.484   1.013   8.757 -0.0315  0.1344  0.2239
 6515SOL    HW121313   4.457   1.004   8.665  0.2940  1.0268  0.0355
 6515SOL    HW221314   4.566   1.062   8.754 -0.6800  1.3140  1.0661
 6516SOL     OW21315   0.536   7.922   5.967 -0.2499  0.1220  0.2088
 6516SOL    HW121316   0.509   7.846   6.018  0.6036  0.4804  1.2178
 6516SOL    HW221317   0.478   7.921   5.890 -0.5308 -1.2908  0.4175
 6517SOL     OW21318   1.262   9.483   4.507  0.0230  0.2652 -0.2113
 6517SOL    HW121319   1.174   9.509   4.535  0.4372  1.4034  0.0707
 6517SOL    HW221320   1.248   9.402   4.458 -1.3441  1.1402 -1.3384
 6518SOL     OW21321   8.450   6.159   0.258  0.0023  0.1434 -0.3430
 6518SOL    HW121322   8.501   6.173   0.337  0.3638 -1.2851 -0.2857
 6518SOL    HW221323   8.445   6.063   0.250 -0.4008  0.2660 -1.7991
 6519SOL     OW21324   9.476   8.285   1.176 -0.3167 -0.1670 -0.3611
 6519SOL    HW121325   9.526   8.249   1.103  0.3166  1.0094 -0.5271
 6519SOL    HW221326   9.389   8.246   1.168 -0.4110  0.3475 -2.0631
 6520SOL     OW21327   0.370   3.903   2.061  0.3783 -0.6427 -0.6472
 6520SOL    HW121328   0.459   3.938   2.068  0.2387 -0.5792  1.6347
 6520SOL    HW221329   0.380   3.809   2.075  0.0162 -0.4953  0.7992
 6521SOL     OW21330   2.306   1.913   9.327 -0.2505 -0.2720 -0.0664
 6521SOL    HW121331   2.298   1.818   9.334  0.4068 -0.3050  0.3196
 6521SOL    HW221332   2.343   1.940   9.412 -1.3429  0.4380  0.2071
 6522SOL     OW21333   3.143   4.533   0.248 -0.6305  0.7302  0.4532
 6522SOL    HW121334   3.209   4.557   0.184 -0.6772  0.1668  0.1901
 6522SOL    HW221335   3.079   4.605   0.245 -1.8558 -0.3813 -1.8153
 6523SOL     OW21336   2.479   9.385   4.605 -0.7075 -0.4855 -0.3398
 6523SOL    HW121337   2.407   9.435   4.644  0.6651  0.1222  1.4924
 6523SOL    HW221338   2.455   9.379   4.512 -2.2257  1.2787 -0.1254
 6524SOL     OW21339   6.891   6.234   4.097 -0.4711  0.2414 -0.6936
 6524SOL    HW121340   6.836   6.271   4.028 -0.7189  2.1245  0.4418
 6524SOL    HW221341   6.915   6.309   4.151 -1.1278 -1.2857  1.8833
 6525SOL     OW21342   8.865   3.033   5.530 -0.6570  0.4277 -0.1296
 6525SOL    HW121343   8.780   3.073   5.546  0.7853  3.7299 -0.0169
 6525SOL    HW221344   8.880   3.046   5.436  0.6280  1.9346  0.2538
 6526SOL     OW21345   8.667   8.829   2.327 -0.4453 -0.0420  0.0990
 6526SOL    HW121346   8.618   8.901   2.287  0.6387 -0.0676 -1.3455
 6526SOL    HW221347   8.605   8.789   2.387 -2.2173 -0.0586 -1.6346
 6527SOL     OW21348   0.681   7.812   9.388  0.0621  0.1067  0.2792
 6527SOL    HW121349   0.706   7.721   9.373 -0.7268 -0.5875  2.7472
 6527SOL    HW221350   0.760   7.854   9.421  0.2888  0.2056 -0.3759
 6528SOL     OW21351   3.576   3.238   8.705 -0.4068 -0.7295  0.3921
 6528SOL    HW121352   3.533   3.211   8.786  0.1723 -0.1910  0.8995
 6528SOL    HW221353   3.565   3.333   8.703 -2.7112 -0.9546 -1.5300
 6529SOL     OW21354   4.611   8.288   5.931 -0.6059 -0.2691 -0.0094
 6529SOL    HW121355   4.565   8.370   5.917 -1.1730 -0.9689 -2.8146
 6529SOL    HW221356   4.685   8.290   5.871  1.9387 -0.1065  2.8724
 6530SOL     OW21357   8.780   0.377   4.339  0.0019 -0.1110 -0.3327
 6530SOL    HW121358   8.697   0.406   4.378  0.3254 -0.3663  0.5803
 6530SOL    HW221359   8.839   0.369   4.414 -0.0596 -3.1271 -0.5063
 6531SOL     OW21360   8.815   5.064   0.129 -0.6349 -0.6747  0.5488
 6531SOL    HW121361   8.747   5.120   0.168 -1.8874 -1.2983 -0.6498
 6531SOL    HW221362   8.844   5.112   0.051 -1.2521 -1.3649 -0.1223
 6532SOL     OW21363   6.817   1.983   5.352 -0.4913 -0.2123 -0.3830
 6532SOL    HW121364   6.813   1.979   5.448  0.2491 -0.0127 -0.3388
 6532SOL    HW221365   6.893   2.037   5.334  0.1192 -1.2775 -1.0956
 6533SOL     OW21366   2.504   0.677   2.091  0.4069  0.2036 -0.1806
 6533SOL    HW121367   2.484   0.595   2.046 -1.0399  0.4598 -0.0575
 6533SOL    HW221368   2.600   0.685   2.086  0.5515 -1.3905 -0.3370
 6534SOL     OW21369   0.462   5.632   5.183  0.5122 -0.1464 -0.1883
 6534SOL    HW121370   0.526   5.702   5.174  0.8583 -0.3353  0.7178
 6534SOL    HW221371   0.462   5.610   5.277 -1.8489  0.7824  0.1162
 6535SOL     OW21372   6.588   4.038   1.648 -0.1419  0.5807 -0.2667
 6535SOL    HW121373   6.577   3.967   1.711 -0.9233  1.1917  0.3089
 6535SOL    HW221374   6.581   3.996   1.562 -1.9944  0.1298  0.0628
 6536SOL     OW21375   8.159   2.315   6.911 -0.2129  0.8950 -0.2715
 6536SOL    HW121376   8.167   2.317   6.816  1.6307  0.3271 -0.1548
 6536SOL    HW221377   8.101   2.240   6.928  0.0039  0.5765 -0.9107
 6537SOL     OW21378   0.529   9.710   3.020  0.3185  0.4133 -0.5202
 6537SOL    HW121379   0.591   9.771   2.982  0.0684  2.1231  1.6144
 6537SOL    HW221380   0.575   9.675   3.097  0.4800 -2.2183 -1.7024
 6538SOL     OW21381   6.366   4.276   9.271 -0.3615  0.2060  0.3400
 6538SOL    HW121382   6.381   4.270   9.176  1.9106 -1.0650  0.6972
 6538SOL    HW221383   6.453   4.292   9.308 -1.4217  2.2632  2.1468
 6539SOL     OW21384   3.569   7.473   6.486 -0.1019  0.5109 -0.8144
 6539SOL    HW121385   3.598   7.515   6.567  1.3493 -1.4902 -0.2168
 6539SOL    HW221386   3.481   7.509   6.470  0.4065  2.4894  0.4830
 6540SOL     OW21387   1.008   7.862   2.312 -0.5763  0.3114 -0.9107
 6540SOL    HW121388   1.098   7.892   2.328 -0.4706 -0.4049 -0.0957
 6540SOL    HW221389   0.954   7.918   2.368 -0.3903 -0.8844  0.5171
 6541SOL     OW21390   8.650   8.445   2.235  0.5376 -0.1653  0.1148
 6541SOL    HW121391   8.571   8.392   2.225  0.3610  0.0431  0.3611
 6541SOL    HW221392   8.636   8.520   2.178 -0.2176  0.7350  1.4253
 6542SOL     OW21393   9.123   7.178   8.039  0.0749 -0.4260 -0.1808
 6542SOL    HW121394   9.070   7.140   8.110  1.6005 -1.1354  0.6293
 6542SOL    HW221395   9.091   7.134   7.960 -1.6361  0.3626  0.0182
 6543SOL     OW21396   5.809   9.823   0.945 -0.3939 -0.0947  0.4410
 6543SOL    HW121397   5.740   9.769   0.984  1.2596 -2.0244  0.8910
 6543SOL    HW221398   5.812   9.901   1.000 -0.2359 -1.3510  2.3310
 6544SOL     OW21399   3.997   8.874   5.131 -0.6437 -0.4975  0.9267
 6544SOL    HW121400   4.018   8.957   5.174 -0.0925 -0.3047  0.3077
 6544SOL    HW221401   4.050   8.874   5.051 -0.6176 -1.4544  0.9267
 6545SOL     OW21402   1.564   7.940   5.442 -0.4871 -0.2657 -0.1547
 6545SOL    HW121403   1.525   7.872   5.388  0.2648 -1.3346  0.6074
 6545SOL    HW221404   1.495   8.005   5.452 -0.9796 -0.5456 -1.5087
 6546SOL     OW21405   7.808   9.491   8.682 -0.5067 -0.1130  0.1139
 6546SOL    HW121406   7.835   9.476   8.772 -0.1060  3.0070  0.6313
 6546SOL    HW221407   7.852   9.423   8.632  1.5585 -0.2259  1.9478
 6547SOL     OW21408   1.857   2.378   6.769 -0.5568  0.1312  0.3361
 6547SOL    HW121409   1.830   2.462   6.732 -0.9150 -0.7049 -1.3976
 6547SOL    HW221410   1.788   2.317   6.742  0.9897 -1.2391 -0.7134
 6548SOL     OW21411   2.290   0.619   6.806  1.2011  0.3505 -0.4707
 6548SOL    HW121412   2.254   0.607   6.894 -1.1167  2.4464 -0.9903
 6548SOL    HW221413   2.265   0.540   6.759  1.9671 -0.5403  0.5995
 6549SOL     OW21414   1.257   0.770   9.130  0.0015  0.5759 -0.0634
 6549SOL    HW121415   1.232   0.858   9.104  0.2782  0.1927 -1.7548
 6549SOL    HW221416   1.349   0.763   9.106 -0.3048 -0.5320 -1.0350
 6550SOL     OW21417   2.068   5.218   0.365  0.2257  0.0274  0.0381
 6550SOL    HW121418   2.155   5.257   0.361  0.2735 -0.0410  0.3856
 6550SOL    HW221419   2.078   5.133   0.323  0.1235  0.3783 -0.7128
 6551SOL     OW21420   4.829   3.432   1.839 -0.2238 -0.1342  0.2682
 6551SOL    HW121421   4.914   3.435   1.797  0.0935 -2.3122  0.6328
 6551SOL    HW221422   4.766   3.449   1.769  0.3177 -3.0251 -1.0773
 6552SOL     OW21423   4.277   0.189   6.006 -0.2941 -0.2987  0.1031
 6552SOL    HW121424   4.209   0.234   5.956 -1.2258 -0.2617  1.3392
 6552SOL    HW221425   4.332   0.147   5.940 -0.4045  1.2324 -1.0067
 6553SOL     OW21426   3.607   2.409   7.768 -0.3894  0.2965 -0.5353
 6553SOL    HW121427   3.546   2.340   7.741  0.9271 -1.8317  1.5006
 6553SOL    HW221428   3.684   2.362   7.799  1.1899  2.7859 -0.4128
 6554SOL     OW21429   3.346   9.451   9.041 -0.4943 -0.1950  0.5608
 6554SOL    HW121430   3.265   9.405   9.020  0.0794 -0.8644 -0.2342
 6554SOL    HW221431   3.414   9.383   9.040  0.3026  0.5817 -0.2221
 6555SOL     OW21432   9.010   0.115   0.092 -0.4301  0.3413  0.4295
 6555SOL    HW121433   9.045   0.138   0.178  0.3066  3.5877 -0.6077
 6555SOL    HW221434   8.916   0.107   0.105 -0.1405 -1.6360  1.9105
 6556SOL     OW21435   6.851   5.400   2.908 -0.1185 -0.2145  0.3468
 6556SOL    HW121436   6.889   5.326   2.955  1.5660 -0.3983 -1.1889
 6556SOL    HW221437   6.767   5.416   2.952  0.4500 -1.6349  2.0702
 6557SOL     OW21438   9.214   1.064   2.884 -0.6922  0.0289 -0.4000
 6557SOL    HW121439   9.271   1.113   2.825 -0.6257 -0.8577 -1.0890
 6557SOL    HW221440   9.271   0.998   2.923 -1.2444 -0.8780 -1.1106
 6558SOL     OW21441   4.482   2.133   1.918 -0.2469 -0.2241  0.3818
 6558SOL    HW121442   4.433   2.124   1.836  1.2619  0.9916 -0.7229
 6558SOL    HW221443   4.473   2.047   1.961 -0.9889 -0.9295 -1.0972
 6559SOL     OW21444   7.772   2.827   8.694 -0.2245 -0.6496 -0.3667
 6559SOL    HW121445   7.863   2.849   8.673 -0.2022 -0.3650  0.0109
 6559SOL    HW221446   7.779   2.770   8.771 -0.4035  0.2471  0.3382
 6560SOL     OW21447   5.204   6.289   7.680  0.3050  0.1346 -0.0405
 6560SOL    HW121448   5.179   6.329   7.763  0.2461  0.8310 -0.3941
 6560SOL    HW221449   5.145   6.328   7.616 -1.4170 -2.2530 -0.0537
 6561SOL     OW21450   4.580   1.143   4.646 -0.1922  0.2139  0.5646
 6561SOL    HW121451   4.515   1.209   4.672  0.8191  0.8882  1.4523
 6561SOL    HW221452   4.662   1.191   4.641  0.3007 -0.6946 -0.2562
 6562SOL     OW21453   2.141   9.730   6.019  0.2893 -0.0010 -0.4656
 6562SOL    HW121454   2.171   9.745   6.108 -1.3651 -1.6683  0.4384
 6562SOL    HW221455   2.218   9.746   5.965  0.5427  4.4952  0.8300
 6563SOL     OW21456   3.058   6.125   9.086 -0.1112  0.0736 -0.9987
 6563SOL    HW121457   2.999   6.071   9.032 -0.9138  0.3803 -0.4477
 6563SOL    HW221458   2.999   6.171   9.146  0.8734 -1.8413  1.6201
 6564SOL     OW21459   4.845   5.501   1.732  0.1330 -0.1719  0.2316
 6564SOL    HW121460   4.768   5.553   1.756  0.2225  0.2999 -0.4561
 6564SOL    HW221461   4.877   5.465   1.815 -0.1898  0.5205  0.6688
 6565SOL     OW21462   5.989   8.067   4.137  0.0919 -0.4381 -0.5407
 6565SOL    HW121463   5.902   8.106   4.133  0.0360 -0.4126  0.6323
 6565SOL    HW221464   5.974   7.977   4.166  0.5359 -0.0479  0.9711
 6566SOL     OW21465   3.525   6.779   4.756  0.1353 -0.6770 -0.1315
 6566SOL    HW121466   3.512   6.802   4.664  0.6963 -1.5006 -0.4292
 6566SOL    HW221467   3.615   6.808   4.776 -0.3095  0.3582  0.4366
 6567SOL     OW21468   0.286   6.869   0.170 -0.2132  0.1683  0.0179
 6567SOL    HW121469   0.327   6.893   0.252  0.7841 -1.8051  0.1562
 6567SOL    HW221470   0.197   6.904   0.176 -0.1739  0.0117  1.9595
 6568SOL     OW21471   1.795   7.990   0.830  0.1371 -0.2468 -0.7345
 6568SOL    HW121472   1.775   7.912   0.778  1.5687 -0.3594 -1.1683
 6568SOL    HW221473   1.775   8.064   0.772  1.9149 -0.3742 -1.5706
 6569SOL     OW21474   8.451   2.223   1.329 -0.4319  0.4208 -0.1506
 6569SOL    HW121475   8.404   2.179   1.258 -1.2448 -0.8356  1.1108
 6569SOL    HW221476   8.425   2.175   1.408  1.3512  1.0261  0.8644
 6570SOL     OW21477   3.641   3.529   4.438  0.5279  0.1740  0.3718
 6570SOL    HW121478   3.633   3.472   4.361  0.8045 -0.8475  1.0878
 6570SOL    HW221479   3.720   3.580   4.421  1.9391 -1.6982  1.0043
 6571SOL     OW21480   1.618   2.725   0.087  0.5100 -0.2965  0.5427
 6571SOL    HW121481   1.654   2.805   0.048  0.6784 -0.3298  0.6297
 6571SOL    HW221482   1.671   2.711   0.165  0.7484 -0.7232  0.3069
 6572SOL     OW21483   1.114   1.841   5.935 -0.2708  0.1357  0.2317
 6572SOL    HW121484   1.069   1.756   5.942  0.0006  0.0157  0.5643
 6572SOL    HW221485   1.205   1.818   5.918 -0.2816  0.3732 -0.1582
 6573SOL     OW21486   2.423   9.689   2.250 -0.1972 -0.0683 -0.0083
 6573SOL    HW121487   2.365   9.613   2.251 -2.5724  1.6639  0.6799
 6573SOL    HW221488   2.393   9.742   2.177 -0.6288  1.6593  1.3619
 6574SOL     OW21489   2.518   2.611   5.394 -0.0114  0.1687 -0.7191
 6574SOL    HW121490   2.534   2.523   5.429 -0.3025 -0.7672 -2.7763
 6574SOL    HW221491   2.472   2.596   5.312  0.0898  2.2559 -1.2156
 6575SOL     OW21492   1.292   5.169   2.979  0.4789  0.6758  0.0806
 6575SOL    HW121493   1.339   5.160   3.062 -0.6487 -1.3690  0.5733
 6575SOL    HW221494   1.200   5.157   3.002  0.1999 -0.7491 -1.5335
 6576SOL     OW21495   4.593   3.462   5.842 -0.0613 -0.1712 -0.3209
 6576SOL    HW121496   4.563   3.499   5.759 -0.8555 -0.0553  0.0063
 6576SOL    HW221497   4.665   3.519   5.869  1.4455 -1.2425 -1.7920
 6577SOL     OW21498   6.641   2.503   7.117  0.5215 -0.4218  0.1158
 6577SOL    HW121499   6.691   2.437   7.164  1.5935  0.3087  0.0221
 6577SOL    HW221500   6.700   2.578   7.110 -0.5081  0.3791 -0.1950
 6578SOL     OW21501   6.256   0.462   5.302 -0.5831 -0.5148 -0.1093
 6578SOL    HW121502   6.185   0.499   5.354  0.0498 -0.2069  0.5550
 6578SOL    HW221503   6.324   0.530   5.301 -0.4669 -0.6251 -1.1106
 6579SOL     OW21504   8.085   9.827   0.850 -0.0180  0.6663  0.2959
 6579SOL    HW121505   8.073   9.814   0.756  1.9468  0.3476  0.0508
 6579SOL    HW221506   8.088   9.922   0.861 -2.0200  0.7634  0.3254
 6580SOL     OW21507   4.060   5.697   8.153 -0.0536  0.7433  0.3415
 6580SOL    HW121508   4.087   5.681   8.243  0.4992  1.2094  0.2572
 6580SOL    HW221509   4.062   5.610   8.112  3.6606  0.9718 -0.3155
 6581SOL     OW21510   6.440   9.708   6.590 -0.6206 -0.9675 -0.0865
 6581SOL    HW121511   6.432   9.652   6.668 -0.6630 -2.0040 -0.8079
 6581SOL    HW221512   6.489   9.654   6.528  3.0904  1.3302  0.5664
 6582SOL     OW21513   4.560   2.120   2.934 -0.4181 -0.8077  1.1259
 6582SOL    HW121514   4.497   2.075   2.877  0.9757 -1.3450 -0.0475
 6582SOL    HW221515   4.643   2.074   2.920  0.6568  0.9900  1.2667
 6583SOL     OW21516   5.759   5.544   3.280 -0.3872 -0.1375 -0.5030
 6583SOL    HW121517   5.779   5.628   3.322  1.3491 -1.2640  1.0785
 6583SOL    HW221518   5.676   5.517   3.320  0.6635 -0.6454  1.4641
 6584SOL     OW21519   2.766   5.997   5.069  0.1853 -0.3813  0.6082
 6584SOL    HW121520   2.704   5.995   4.996  0.4998  1.4091  0.2542
 6584SOL    HW221521   2.740   6.073   5.121  1.7317  0.0663  0.7684
 6585SOL     OW21522   2.634   4.184   3.211  0.7099  0.3040  0.4172
 6585SOL    HW121523   2.544   4.216   3.208  1.1170  1.4529 -1.9297
 6585SOL    HW221524   2.626   4.089   3.219 -0.7091  0.3901  0.2543
 6586SOL     OW21525   2.007   6.239   1.021  0.1139  0.6028  0.1967
 6586SOL    HW121526   2.076   6.191   0.975  1.7240  2.3764  0.6114
 6586SOL    HW221527   1.994   6.191   1.102 -1.0052 -1.1735 -0.9772
 6587SOL     OW21528   7.544   8.053   8.313 -0.7668 -0.5386 -0.1223
 6587SOL    HW121529   7.460   8.014   8.290 -1.1940  0.3744 -0.1257
 6587SOL    HW221530   7.587   8.069   8.229 -0.9951 -0.1382 -0.1683
 6588SOL     OW21531   3.599   8.413   0.317  0.1257  0.3789 -0.6444
 6588SOL    HW121532   3.630   8.373   0.398 -0.9203 -1.2542 -0.9949
 6588SOL    HW221533   3.653   8.374   0.249  0.0941  0.7016 -0.8557
 6589SOL     OW21534   8.370   7.991   2.201  0.1833 -0.5238 -0.0900
 6589SOL    HW121535   8.314   7.945   2.264 -1.2502  0.7865 -0.3342
 6589SOL    HW221536   8.459   7.978   2.233 -0.3233 -1.9049  0.8414
 6590SOL     OW21537   8.631   1.022   1.293 -0.3472  0.0339  0.1320
 6590SOL    HW121538   8.719   1.016   1.331 -0.5646 -0.4815  0.5729
 6590SOL    HW221539   8.586   1.086   1.348  0.0721  1.1131 -0.7527
 6591SOL     OW21540   4.706   6.721   3.221 -0.3789  0.0989  0.7442
 6591SOL    HW121541   4.751   6.783   3.164 -0.1980 -0.7593 -0.0642
 6591SOL    HW221542   4.766   6.648   3.230 -0.2376  0.3699  2.3728
 6592SOL     OW21543   7.920   9.451   9.342  0.8193  0.9178 -0.3208
 6592SOL    HW121544   7.913   9.411   9.256  3.5576  1.6423 -0.9781
 6592SOL    HW221545   7.952   9.381   9.399 -1.0416  0.4250  0.1744
 6593SOL     OW21546   3.380   2.360   1.020 -0.4908 -0.2705 -0.4624
 6593SOL    HW121547   3.294   2.398   1.003 -0.1315  1.4492  1.2870
 6593SOL    HW221548   3.371   2.314   1.103 -0.1597 -1.6415 -1.1567
 6594SOL     OW21549   0.888   6.355   3.258 -0.6005 -0.9284  0.2655
 6594SOL    HW121550   0.945   6.300   3.204 -1.5393 -0.8083 -0.8769
 6594SOL    HW221551   0.947   6.420   3.296 -0.2725  1.0162 -3.1667
 6595SOL     OW21552   5.254   4.343   8.372  0.6105  0.7242  0.3336
 6595SOL    HW121553   5.225   4.432   8.354  0.6659  0.1863 -2.9475
 6595SOL    HW221554   5.327   4.329   8.311  0.4446 -1.6334  0.6038
 6596SOL     OW21555   3.928   7.298   5.421  0.4283  0.3416 -0.3896
 6596SOL    HW121556   3.860   7.362   5.398 -0.4772 -0.4796 -0.0367
 6596SOL    HW221557   3.901   7.217   5.378 -0.8434 -1.0141  2.6945
 6597SOL     OW21558   4.425   1.323   2.212  0.2004  0.2910 -0.0309
 6597SOL    HW121559   4.499   1.369   2.251  1.4762  0.5306 -2.4832
 6597SOL    HW221560   4.465   1.252   2.162 -1.3126 -0.2468 -0.5414
 6598SOL     OW21561   4.092   8.041   7.625  0.1719 -0.2731  0.1277
 6598SOL    HW121562   4.123   8.069   7.539  0.4381 -0.8964  0.0117
 6598SOL    HW221563   3.997   8.052   7.620  0.3779  2.1553  0.6759
 6599SOL     OW21564   6.139   5.065   9.124 -0.7488 -0.1956 -0.5895
 6599SOL    HW121565   6.122   5.116   9.045  3.0334  0.5832 -1.0626
 6599SOL    HW221566   6.152   5.130   9.193 -1.1298 -0.7620  0.0328
 6600SOL     OW21567   7.208   7.772   4.324  0.1365  0.2128 -0.0565
 6600SOL    HW121568   7.206   7.774   4.228  1.1382 -0.7455 -0.1112
 6600SOL    HW221569   7.200   7.680   4.346 -0.7439  0.4852  0.8219
 6601SOL     OW21570   1.187   3.987   6.176  0.0192 -0.1342  0.2471
 6601SOL    HW121571   1.178   3.920   6.109 -0.3055  0.3251 -0.1812
 6601SOL    HW221572   1.129   3.959   6.246  0.1207 -0.4576  0.2033
 6602SOL     OW21573   3.073   2.819   8.389 -0.4630 -0.5762 -0.2309
 6602SOL    HW121574   3.117   2.853   8.467 -0.0288 -0.8108 -0.3700
 6602SOL    HW221575   3.095   2.726   8.388 -2.5742 -1.1536  0.7876
 6603SOL     OW21576   1.666   4.886   3.864  0.4249 -0.8737 -0.2311
 6603SOL    HW121577   1.668   4.872   3.769 -0.1514  1.3990 -0.6357
 6603SOL    HW221578   1.607   4.819   3.897 -1.5249 -0.0569 -1.8676
 6604SOL     OW21579   1.738   2.072   6.881  0.1327  0.7141 -0.1527
 6604SOL    HW121580   1.649   2.051   6.851 -0.5362 -0.4581  2.4071
 6604SOL    HW221581   1.793   2.056   6.804 -1.5873 -1.0235 -1.1208
 6605SOL     OW21582   6.818   3.811   1.327 -0.1751 -0.0291  0.1949
 6605SOL    HW121583   6.737   3.861   1.335 -0.6212 -0.8080  0.6670
 6605SOL    HW221584   6.840   3.787   1.417  0.8139  0.5329  0.1104
 6606SOL     OW21585   7.698   7.503   0.665 -0.4782 -0.8204 -0.1899
 6606SOL    HW121586   7.643   7.579   0.648 -0.6984 -1.3570 -2.0958
 6606SOL    HW221587   7.640   7.428   0.653  0.2971 -1.3432 -0.8096
 6607SOL     OW21588   8.827   3.730   9.460 -0.0077  0.0081  0.4706
 6607SOL    HW121589   8.853   3.710   9.369 -0.4622  0.3247  0.2666
 6607SOL    HW221590   8.905   3.711   9.512  0.1666 -0.4738  0.0503
 6608SOL     OW21591   2.119   4.659   0.683  0.3764 -0.5438 -0.4588
 6608SOL    HW121592   2.032   4.622   0.698  0.8258 -1.6436 -0.4989
 6608SOL    HW221593   2.164   4.649   0.767  1.3300 -2.4246 -1.1366
 6609SOL     OW21594   5.553   1.992   1.059 -0.7101  0.4744 -0.3197
 6609SOL    HW121595   5.578   1.957   1.145 -0.2951  0.5437 -0.4099
 6609SOL    HW221596   5.632   1.982   1.005 -1.3963 -0.8688 -1.1037
 6610SOL     OW21597   5.667   7.477   6.305 -0.3943  0.4988 -0.1415
 6610SOL    HW121598   5.753   7.483   6.347 -0.9058  0.1208  0.9950
 6610SOL    HW221599   5.645   7.568   6.284  0.9030  0.4676 -1.7716
 6611SOL     OW21600   0.223   7.216   4.909 -0.4038 -0.0760 -0.2281
 6611SOL    HW121601   0.147   7.217   4.968 -1.0871 -1.2790 -1.0451
 6611SOL    HW221602   0.264   7.302   4.922 -0.8250 -0.1099  1.5977
 6612SOL     OW21603   7.334   8.046   4.046  0.0043  0.8715  0.2386
 6612SOL    HW121604   7.264   8.102   4.081  0.9848  1.0955  1.9327
 6612SOL    HW221605   7.394   8.034   4.119 -0.3274 -2.7377  0.0761
 6613SOL     OW21606   0.929   9.753   7.024  0.4009  0.0035 -0.8786
 6613SOL    HW121607   0.995   9.817   7.052  1.0311 -1.4115  1.1032
 6613SOL    HW221608   0.920   9.769   6.930  1.6359  1.9766 -0.7411
 6614SOL     OW21609   8.501   5.801   2.910 -0.8386 -0.1524  0.1036
 6614SOL    HW121610   8.533   5.821   2.998 -1.5841  0.1358  0.3133
 6614SOL    HW221611   8.476   5.887   2.873 -1.6925 -0.4021  0.0760
 6615SOL     OW21612   2.050   5.870   2.682 -0.7016 -0.2053  0.2756
 6615SOL    HW121613   2.035   5.830   2.768  2.8908 -1.4188  0.4784
 6615SOL    HW221614   2.133   5.834   2.652 -0.1306  2.7374 -2.2344
 6616SOL     OW21615   5.120   1.695   3.359 -0.2830 -0.0291  0.7424
 6616SOL    HW121616   5.102   1.671   3.268 -1.1967 -0.4645  1.0267
 6616SOL    HW221617   5.036   1.681   3.404 -0.2982  1.7426  1.3301
 6617SOL     OW21618   2.246   8.357   0.919  0.5705  0.0372 -0.1498
 6617SOL    HW121619   2.225   8.415   0.846  2.1332  1.9491  0.8457
 6617SOL    HW221620   2.326   8.312   0.892  0.3858 -0.2973 -0.1522
 6618SOL     OW21621   9.826   2.812   0.291 -0.0482  0.0042  0.6615
 6618SOL    HW121622   9.901   2.841   0.343  1.1631 -2.7402  0.5827
 6618SOL    HW221623   9.853   2.825   0.201 -1.1096  2.2409  0.5887
 6619SOL     OW21624   3.464   9.510   1.239  0.1479 -0.3029 -0.1528
 6619SOL    HW121625   3.402   9.440   1.220  0.1477  0.2311 -2.4905
 6619SOL    HW221626   3.524   9.472   1.303 -1.9101 -1.1775  1.3735
 6620SOL     OW21627   5.350   5.701   4.211  0.1096  0.3195  0.4212
 6620SOL    HW121628   5.350   5.792   4.242  3.0481  0.6737 -0.3080
 6620SOL    HW221629   5.386   5.651   4.285  1.2149  0.2268 -0.1578
 6621SOL     OW21630   5.514   1.476   0.075 -0.4070 -1.1498 -0.1987
 6621SOL    HW121631   5.552   1.468  -0.012 -0.0479 -0.8209 -0.0711
 6621SOL    HW221632   5.432   1.524   0.062 -0.7667 -1.8066 -0.4624
 6622SOL     OW21633   6.053   5.980   6.168 -0.1318 -0.1476  0.0490
 6622SOL    HW121634   6.060   6.071   6.197 -0.9949  0.0722 -0.4040
 6622SOL    HW221635   6.121   5.934   6.218  0.9178  0.8903 -0.3565
 6623SOL     OW21636   5.703   1.453   0.245 -0.0380  0.1321 -0.3024
 6623SOL    HW121637   5.648   1.438   0.168  0.4009 -1.0876 -0.4012
 6623SOL    HW221638   5.679   1.383   0.306  0.9824 -0.0719 -0.1163
 6624SOL     OW21639   8.935   5.585   2.085  0.3732  0.6720 -0.2971
 6624SOL    HW121640   8.950   5.572   2.179 -1.3867  0.7920  0.0287
 6624SOL    HW221641   8.851   5.544   2.068  1.2124 -0.4147 -2.1131
 6625SOL     OW21642   5.976   2.191   8.394 -0.3367 -0.0300  0.1674
 6625SOL    HW121643   6.053   2.182   8.337 -0.8763 -1.8231 -0.3485
 6625SOL    HW221644   5.950   2.283   8.386 -0.1773 -0.1332 -2.2195
 6626SOL     OW21645   2.135   1.431   5.969  0.5871  0.7479  0.2185
 6626SOL    HW121646   2.212   1.441   6.025 -0.5605  2.0704  1.6652
 6626SOL    HW221647   2.062   1.428   6.031 -0.6387  0.9730 -1.1773
 6627SOL     OW21648   9.549   8.974   2.454  0.2543  0.1313  0.2016
 6627SOL    HW121649   9.461   8.958   2.490  0.7022 -0.5704  1.0094
 6627SOL    HW221650   9.579   8.888   2.424  1.0746  0.1644  0.8903
 6628SOL     OW21651   1.494   1.572   4.795 -0.1798  0.1381  0.2298
 6628SOL    HW121652   1.563   1.601   4.854 -2.2029 -0.8496  3.3068
 6628SOL    HW221653   1.443   1.651   4.777  0.0759  0.3290  0.3414
 6629SOL     OW21654   9.038   5.921   9.045  0.5905 -0.1724  0.1610
 6629SOL    HW121655   9.013   5.996   8.991 -2.1822 -1.7376 -0.9961
 6629SOL    HW221656   9.110   5.952   9.099  2.2907  2.1066 -3.0889
 6630SOL     OW21657   4.487   8.644   0.459 -0.1666  0.5909  0.3325
 6630SOL    HW121658   4.467   8.737   0.450  0.2093  0.5000 -2.1566
 6630SOL    HW221659   4.581   8.641   0.478  0.5693  0.7383 -2.7925
 6631SOL     OW21660   5.470   9.720   0.257  0.3201 -0.3985 -0.0346
 6631SOL    HW121661   5.520   9.758   0.185  2.1206  0.4616  1.5847
 6631SOL    HW221662   5.384   9.701   0.219  1.2205 -0.0684 -2.4067
 6632SOL     OW21663   4.289   7.705   3.936  0.1142 -0.5971 -0.1254
 6632SOL    HW121664   4.368   7.652   3.931 -0.3017 -1.2913  0.4646
 6632SOL    HW221665   4.294   7.747   4.022 -0.1923 -0.6982 -0.0573
 6633SOL     OW21666   1.161   4.820   3.803 -0.1513 -0.0078  0.3014
 6633SOL    HW121667   1.088   4.832   3.864  2.1929 -2.0731  3.7833
 6633SOL    HW221668   1.123   4.769   3.731 -2.2311 -0.6796  1.7744
 6634SOL     OW21669   0.869   4.116   7.044  0.8291  0.3458 -0.1067
 6634SOL    HW121670   0.832   4.193   7.001  0.8331 -0.0294 -0.7902
 6634SOL    HW221671   0.837   4.122   7.134 -0.1759  0.5011 -0.4561
 6635SOL     OW21672   6.119   0.035   7.833 -0.2050  0.3261 -0.1293
 6635SOL    HW121673   6.136   0.111   7.888  0.5877  0.4840 -0.5774
 6635SOL    HW221674   6.144  -0.040   7.887 -1.4189  0.3368  0.4805
 6636SOL     OW21675   0.982   0.990   3.747  0.6654 -0.2348 -0.1342
 6636SOL    HW121676   0.976   0.936   3.669 -0.6202 -2.0677  1.1332
 6636SOL    HW221677   1.075   1.010   3.756  0.9127 -0.5706 -1.7176
 6637SOL     OW21678   8.613   5.157   7.770  0.2332 -0.5019 -0.0028
 6637SOL    HW121679   8.518   5.168   7.770  0.2311 -0.5274  0.3123
 6637SOL    HW221680   8.636   5.137   7.860  0.2997 -2.5391 -0.4314
 6638SOL     OW21681   8.231   5.278   6.461 -0.2879 -0.1489 -0.9259
 6638SOL    HW121682   8.224   5.212   6.393  0.3115  1.1826 -2.3475
 6638SOL    HW221683   8.188   5.355   6.424 -3.4127 -0.3908  1.6864
 6639SOL     OW21684   4.813   5.866   5.673  0.0548  0.4913 -0.3634
 6639SOL    HW121685   4.847   5.934   5.731  0.6021  2.0631 -2.3875
 6639SOL    HW221686   4.854   5.884   5.589 -2.2314 -0.4191 -1.7801
 6640SOL     OW21687   7.792   9.435   1.533 -0.7027 -0.1677 -0.4512
 6640SOL    HW121688   7.788   9.403   1.623  0.5882 -0.4572 -0.4780
 6640SOL    HW221689   7.885   9.433   1.511 -0.7574  1.8939 -1.0764
 6641SOL     OW21690   0.770   7.114   7.863  0.3718 -0.3126  0.0743
 6641SOL    HW121691   0.763   7.203   7.829 -2.5569 -0.3109  0.4543
 6641SOL    HW221692   0.808   7.064   7.790 -0.5777  0.7187 -1.1775
 6642SOL     OW21693   9.800   5.730   4.603  0.1803  0.5918  0.0371
 6642SOL    HW121694   9.861   5.788   4.648 -1.9995  1.7021  1.7393
 6642SOL    HW221695   9.740   5.789   4.558 -2.4189 -0.2011  2.2355
 6643SOL     OW21696   2.534   0.644   8.074 -0.0704  0.0810  0.1976
 6643SOL    HW121697   2.534   0.657   8.169  3.1934  0.6397  0.2224
 6643SOL    HW221698   2.531   0.549   8.063  1.0411 -0.0522  0.9398
 6644SOL     OW21699   3.678   4.676   2.999  0.0681 -0.1287 -0.5461
 6644SOL    HW121700   3.700   4.711   2.912 -1.4950  2.0207 -0.1419
 6644SOL    HW221701   3.596   4.630   2.985 -1.2018  1.8410  0.0810
 6645SOL     OW21702   9.653   3.257   0.121  0.7243 -0.8040  0.2496
 6645SOL    HW121703   9.632   3.185   0.181  1.3322 -0.5400  0.7852
 6645SOL    HW221704   9.611   3.231   0.038 -0.2342 -1.1043  0.8115
 6646SOL     OW21705   0.693   7.706   4.211  0.3798  0.7367 -0.3336
 6646SOL    HW121706   0.720   7.677   4.124  0.3595  0.4122 -0.2334
 6646SOL    HW221707   0.771   7.693   4.266  0.4539  1.1265 -0.3460
 6647SOL     OW21708   1.573   0.684   3.402  0.6728 -0.3269 -0.4968
 6647SOL    HW121709   1.622   0.748   3.352  1.2647  0.4291  1.0030
 6647SOL    HW221710   1.483   0.718   3.404  0.0403 -1.5617 -2.9813
 6648SOL     OW21711   7.736   5.922   1.497 -0.1831 -0.4563  0.1437
 6648SOL    HW121712   7.709   5.963   1.414  0.0583  0.0578  0.3153
 6648SOL    HW221713   7.820   5.963   1.517 -0.1596 -0.7059  0.5574
 6649SOL     OW21714   9.504   2.432   7.333 -0.2256  0.1350  0.4809
 6649SOL    HW121715   9.443   2.375   7.286  0.1096 -0.7108  1.0570
 6649SOL    HW221716   9.448   2.485   7.389 -0.5025  0.0037  0.3312
 6650SOL     OW21717   8.636   8.226   9.761 -0.0700  0.2596  0.0349
 6650SOL    HW121718   8.592   8.173   9.696 -0.4107  0.7709 -0.1575
 6650SOL    HW221719   8.655   8.308   9.716  2.2811 -0.4000 -0.3164
 6651SOL     OW21720   3.103   3.621   3.867 -0.2853 -1.1560  0.3126
 6651SOL    HW121721   3.022   3.581   3.835 -0.5219 -0.6977  0.3176
 6651SOL    HW221722   3.172   3.582   3.814 -0.7024 -0.1009 -1.0727
 6652SOL     OW21723   3.273   3.256   6.737  0.2011  0.1691 -0.7171
 6652SOL    HW121724   3.210   3.191   6.705  0.2465 -0.2729  0.0695
 6652SOL    HW221725   3.336   3.205   6.789 -1.0586  1.0952  1.8736
 6653SOL     OW21726   6.630   0.989   1.655 -0.3223  0.1560  0.1816
 6653SOL    HW121727   6.671   0.937   1.724 -1.9295  0.4823  1.4535
 6653SOL    HW221728   6.703   1.022   1.602  0.9964  0.2586  1.9827
 6654SOL     OW21729   0.384   4.573   5.236  0.2303  0.1786 -0.2212
 6654SOL    HW121730   0.297   4.595   5.204  0.0224 -1.1940 -0.6719
 6654SOL    HW221731   0.435   4.653   5.225 -0.7200  0.7080 -0.8714
 6655SOL     OW21732   3.363   9.290   5.179  0.5272 -0.5894 -0.7152
 6655SOL    HW121733   3.287   9.303   5.122  0.0949  2.7610  0.4291
 6655SOL    HW221734   3.436   9.330   5.131  0.7761 -0.4115 -0.1903
 6656SOL     OW21735   7.038   4.320   9.448 -0.2657 -0.2831  0.1624
 6656SOL    HW121736   7.050   4.283   9.536 -0.6136 -0.2840  0.2121
 6656SOL    HW221737   7.120   4.365   9.430  0.1613 -1.0664  0.1047
 6657SOL     OW21738   3.426   0.390   9.519  0.0122 -0.0797 -0.1841
 6657SOL    HW121739   3.421   0.420   9.428  0.9725  0.5182 -0.0433
 6657SOL    HW221740   3.510   0.344   9.525 -0.2693 -0.5469  0.2856
 6658SOL     OW21741   2.392   9.382   2.640 -0.0940 -0.0851 -0.4061
 6658SOL    HW121742   2.411   9.455   2.699 -1.6904  0.7037 -0.7973
 6658SOL    HW221743   2.321   9.335   2.683  1.2293 -1.7498  0.0719
 6659SOL     OW21744   1.958   2.094   8.279  0.5341 -0.0371 -0.6757
 6659SOL    HW121745   2.019   2.079   8.352  0.3468 -0.0744 -0.5276
 6659SOL    HW221746   1.993   2.041   8.207  0.6457 -0.1028 -0.5738
 6660SOL     OW21747   2.441   2.563   7.916  0.2305  0.1590 -0.0811
 6660SOL    HW121748   2.457   2.520   8.000 -3.2840  0.9350  1.1653
 6660SOL    HW221749   2.494   2.642   7.919  1.2077 -0.5068  0.7906
 6661SOL     OW21750   6.446   2.243   9.161  0.3386  0.1514  0.0304
 6661SOL    HW121751   6.423   2.187   9.235  0.9724 -0.9097 -0.5546
 6661SOL    HW221752   6.533   2.277   9.182 -0.2415  1.3229  0.6050
 6662SOL     OW21753   7.055   7.960   1.480  0.8647 -0.1970  0.5440
 6662SOL    HW121754   7.030   7.876   1.441  1.3097 -0.7870  1.4903
 6662SOL    HW221755   7.148   7.952   1.498  0.8219  0.3309  1.0456
 6663SOL     OW21756   7.994   6.149   3.548  0.2097 -0.1475 -0.7987
 6663SOL    HW121757   8.057   6.208   3.506 -1.1327  1.1351 -1.1146
 6663SOL    HW221758   7.931   6.128   3.479  0.0587 -1.0808 -0.3912
 6664SOL     OW21759   8.450   8.561   8.300  0.1459  0.0493  0.2424
 6664SOL    HW121760   8.435   8.560   8.206 -1.6112  0.5573  0.4886
 6664SOL    HW221761   8.541   8.532   8.310  0.2778 -0.2693 -1.5773
 6665SOL     OW21762   0.840   2.261   9.122  0.1038  0.0834  0.1434
 6665SOL    HW121763   0.903   2.192   9.102 -0.6972 -1.0585  1.3781
 6665SOL    HW221764   0.869   2.296   9.206 -1.0027 -0.6354  0.8624
 6666SOL     OW21765   8.440   1.685   7.433 -0.2042  0.7265  0.0093
 6666SOL    HW121766   8.521   1.634   7.443  0.3995  1.5299 -0.7153
 6666SOL    HW221767   8.380   1.626   7.386 -0.2056 -0.0202  0.9039
 6667SOL     OW21768   0.010   1.415   2.439  0.1831  0.1322 -0.2823
 6667SOL    HW121769  -0.003   1.347   2.373  1.1561 -0.6891  0.3523
 6667SOL    HW221770  -0.061   1.401   2.502  0.8724 -0.8515  0.2944
 6668SOL     OW21771   5.838   7.384   0.905  0.0950 -0.7528  0.6621
 6668SOL    HW121772   5.910   7.322   0.896  0.4991 -0.3126  0.8343
 6668SOL    HW221773   5.761   7.330   0.921  0.4568 -1.2021  0.8783
 6669SOL     OW21774   3.975   8.035   4.354 -0.2497  0.2264  0.1403
 6669SOL    HW121775   4.061   8.020   4.394  0.0605 -0.5442 -0.7656
 6669SOL    HW221776   3.915   8.043   4.427  0.3873 -0.5450  0.7636
 6670SOL     OW21777   2.743   8.850   1.695 -0.2719  0.3336  0.1324
 6670SOL    HW121778   2.684   8.920   1.669 -1.5294 -0.2392  1.3079
 6670SOL    HW221779   2.689   8.771   1.691  0.8438 -0.4375 -0.2204
 6671SOL     OW21780   2.970   8.963   4.204  0.4753  0.0936  0.2448
 6671SOL    HW121781   3.049   8.973   4.256  1.5839 -1.8823 -0.9654
 6671SOL    HW221782   2.996   8.909   4.129 -1.5707  0.9820 -1.2250
 6672SOL     OW21783   5.702   1.946   4.738  0.4534  0.1908  0.4721
 6672SOL    HW121784   5.754   1.997   4.677  1.1447 -0.9523  0.0665
 6672SOL    HW221785   5.641   2.009   4.777  1.7119  1.4419  0.4951
 6673SOL     OW21786   2.752   6.859   2.473 -0.3680 -0.3021  0.1087
 6673SOL    HW121787   2.677   6.847   2.415  1.1967 -2.9860 -1.5145
 6673SOL    HW221788   2.759   6.777   2.522  1.7389 -0.2943 -0.0774
 6674SOL     OW21789   0.976   5.879   0.971  0.0591  0.0228  0.1266
 6674SOL    HW121790   1.035   5.807   0.994  1.1997  0.2108 -1.9284
 6674SOL    HW221791   0.898   5.864   1.024  0.3674 -2.5979 -0.0142
 6675SOL     OW21792   6.397   7.090   0.791 -0.4906  0.8319 -0.8197
 6675SOL    HW121793   6.485   7.067   0.762  0.0324  3.0162 -1.1332
 6675SOL    HW221794   6.389   7.183   0.772 -1.1315  1.8542  3.4593
 6676SOL     OW21795   2.547   0.379   8.040 -0.1369 -0.1871 -0.3569
 6676SOL    HW121796   2.637   0.352   8.021  0.1801 -0.1860  1.0440
 6676SOL    HW221797   2.499   0.363   7.958  1.0185 -0.6664 -0.9627
 6677SOL     OW21798   3.504   0.359   5.682 -0.3088  0.0457 -0.0240
 6677SOL    HW121799   3.557   0.329   5.608 -0.0523  0.6380 -0.0861
 6677SOL    HW221800   3.457   0.435   5.649 -3.3073 -1.9791 -0.8014
 6678SOL     OW21801   7.981   1.758   0.277  0.2736  0.3102  0.3044
 6678SOL    HW121802   8.000   1.685   0.336 -0.2232 -0.5244 -0.5495
 6678SOL    HW221803   7.897   1.736   0.236  0.6690  0.7936 -0.8186
 6679SOL     OW21804   1.865   6.568   3.306 -0.1099  0.3836  0.3814
 6679SOL    HW121805   1.841   6.475   3.306 -0.8979  0.4947 -2.1825
 6679SOL    HW221806   1.783   6.613   3.284 -0.1766  1.9146  3.2931
 6680SOL     OW21807   4.497   6.360   9.226  0.2743 -0.0397  0.5179
 6680SOL    HW121808   4.488   6.269   9.199  2.2392 -0.2773  0.4991
 6680SOL    HW221809   4.560   6.397   9.165  1.3619  0.6469  1.9784
 6681SOL     OW21810   4.972   7.513   9.356  0.6657  0.3326 -0.3249
 6681SOL    HW121811   4.888   7.553   9.377  0.5566  1.0477 -1.9268
 6681SOL    HW221812   4.989   7.452   9.427 -1.7496 -0.6696 -0.5119
 6682SOL     OW21813   3.165   4.153   3.998 -0.4902 -0.6603 -0.3015
 6682SOL    HW121814   3.189   4.245   4.002 -3.0074  0.0998 -0.6831
 6682SOL    HW221815   3.239   4.110   3.956  0.6085  1.2277 -0.3901
 6683SOL     OW21816   3.580   3.311   6.301  0.2257 -0.6442 -0.7272
 6683SOL    HW121817   3.570   3.386   6.243  1.0478 -1.1454 -1.5513
 6683SOL    HW221818   3.501   3.311   6.356 -0.9441 -0.5873 -2.3432
 6684SOL     OW21819   0.289   3.444   0.727  0.0623 -0.0278 -0.2264
 6684SOL    HW121820   0.238   3.366   0.751 -0.0913  0.0008 -0.4558
 6684SOL    HW221821   0.222   3.511   0.711  0.2211  0.6044  1.4921
 6685SOL     OW21822   6.993   8.969   0.422  0.4379 -0.3064 -0.5128
 6685SOL    HW121823   6.939   9.044   0.398  2.0516  0.3635 -2.3108
 6685SOL    HW221824   6.953   8.895   0.376 -0.7488 -0.4535  0.7066
 6686SOL     OW21825   1.508   5.732   5.051  0.3472  0.5809  0.6941
 6686SOL    HW121826   1.523   5.652   5.100  0.1970 -0.6276 -1.1287
 6686SOL    HW221827   1.574   5.793   5.083  0.0590 -0.0241  2.5577
 6687SOL     OW21828   5.849   6.286   4.291 -0.2121  0.1892 -0.4031
 6687SOL    HW121829   5.898   6.254   4.215 -0.1789 -0.0426 -0.2850
 6687SOL    HW221830   5.848   6.381   4.281  0.1440  0.1847 -0.4758
 6688SOL     OW21831   3.048   5.699   4.399  0.3728  0.3713  0.3710
 6688SOL    HW121832   2.985   5.663   4.462  0.0640  0.0717 -0.1082
 6688SOL    HW221833   2.995   5.732   4.327  0.7602  0.1459 -0.0224
 6689SOL     OW21834   2.593   8.185   6.227 -0.5858 -0.0656 -0.1034
 6689SOL    HW121835   2.634   8.167   6.143  0.0662 -1.4758  0.4930
 6689SOL    HW221836   2.657   8.156   6.292 -0.7237  1.7448  0.9184
 6690SOL     OW21837   8.971   2.542   2.746  0.0178 -0.1853 -0.5255
 6690SOL    HW121838   9.036   2.611   2.742 -1.7051  1.5722 -0.0627
 6690SOL    HW221839   8.965   2.519   2.839  0.8568 -1.2832 -0.7192
 6691SOL     OW21840   4.982   1.690   2.196 -0.3364  0.2287  0.1331
 6691SOL    HW121841   4.915   1.759   2.203  0.5617  1.1590 -0.1754
 6691SOL    HW221842   4.941   1.622   2.143 -0.9788  0.8608 -0.2012
 6692SOL     OW21843   0.632   8.437   7.810  0.8058  0.9051  0.1567
 6692SOL    HW121844   0.552   8.385   7.800  1.4482 -0.4460  1.6365
 6692SOL    HW221845   0.607   8.524   7.779 -0.9191  0.2486 -0.4356
 6693SOL     OW21846   5.273   9.114   5.137 -0.9223 -0.0251 -0.2609
 6693SOL    HW121847   5.314   9.108   5.051  1.3771  0.0038  0.7815
 6693SOL    HW221848   5.235   9.202   5.138 -0.0624  0.3748 -0.8700
 6694SOL     OW21849   5.675   1.622   9.710  0.4492  0.2051 -0.1257
 6694SOL    HW121850   5.751   1.584   9.665  0.0184 -0.3176 -0.4300
 6694SOL    HW221851   5.712   1.682   9.774  1.1328 -0.2516 -0.0826
 6695SOL     OW21852   8.819   0.425   0.239  0.8767 -0.4128  0.2369
 6695SOL    HW121853   8.872   0.493   0.197  2.6522 -2.2652 -0.7194
 6695SOL    HW221854   8.879   0.384   0.302  0.0006 -1.3849  0.4594
 6696SOL     OW21855   3.926   1.031   3.067 -0.0450  0.8042 -0.0267
 6696SOL    HW121856   3.941   1.109   3.121  0.7123  0.2796  0.5490
 6696SOL    HW221857   3.906   0.961   3.130 -0.9107  0.5600 -0.5446
 6697SOL     OW21858   4.280   2.020   7.029 -0.6809  0.0237 -0.7440
 6697SOL    HW121859   4.203   2.003   7.082  0.0075  1.1940  0.7227
 6697SOL    HW221860   4.270   2.111   7.001  0.4777  0.4564  0.1157
 6698SOL     OW21861   8.220   6.925   3.299  0.4510  0.2221 -0.1242
 6698SOL    HW121862   8.267   6.852   3.339 -0.4420 -1.3112 -1.7161
 6698SOL    HW221863   8.230   6.912   3.205 -0.8187  1.4348 -0.4710
 6699SOL     OW21864   2.056   0.291   4.616  0.1222  0.2090  0.7015
 6699SOL    HW121865   2.041   0.382   4.591  0.7234  0.3085  0.6971
 6699SOL    HW221866   1.976   0.266   4.663 -0.5858  0.3434 -0.3863
 6700SOL     OW21867   6.005   4.219   0.293  0.1323  0.1701 -0.0392
 6700SOL    HW121868   6.091   4.250   0.268  0.4417 -1.9177 -1.8837
 6700SOL    HW221869   5.944   4.272   0.243  0.1659  2.4656  2.1492
 6701SOL     OW21870   2.962   9.226   0.590  0.5159 -0.0297 -0.2513
 6701SOL    HW121871   3.006   9.190   0.668  1.2052  0.8458 -0.2156
 6701SOL    HW221872   3.006   9.185   0.516  0.0551 -0.6433 -0.1949
 6702SOL     OW21873   0.813   1.069   2.356 -0.5408  0.0743  0.8281
 6702SOL    HW121874   0.761   1.074   2.276  0.1675 -1.2618  0.2726
 6702SOL    HW221875   0.853   1.156   2.363 -2.0528  0.8125  0.7521
 6703SOL     OW21876   2.044   9.622   7.254  0.0129  0.4701 -0.2703
 6703SOL    HW121877   2.024   9.529   7.249 -0.0580  0.3602  1.3730
 6703SOL    HW221878   1.958   9.665   7.251 -0.1133  0.3427  0.9632
 6704SOL     OW21879   6.750   1.347   6.872 -0.3136 -0.2092  0.0705
 6704SOL    HW121880   6.721   1.305   6.791 -0.2098 -1.4758  0.6680
 6704SOL    HW221881   6.834   1.386   6.850 -0.7123  0.2625 -0.6681
 6705SOL     OW21882   6.869   1.697   8.074 -0.1970  1.0032 -0.2771
 6705SOL    HW121883   6.804   1.713   8.142 -1.5123 -0.6749 -1.0520
 6705SOL    HW221884   6.886   1.784   8.036  0.2286  1.8941  1.8084
 6706SOL     OW21885   8.506   8.096   6.605 -0.2345  0.5473 -0.4451
 6706SOL    HW121886   8.580   8.117   6.548 -0.4157  1.3068 -0.4183
 6706SOL    HW221887   8.521   8.006   6.633  0.6431  0.6759 -0.4877
 6707SOL     OW21888   8.754   3.215   6.446  0.9280 -0.1278 -0.2056
 6707SOL    HW121889   8.784   3.184   6.531  1.2857  0.6579 -0.0286
 6707SOL    HW221890   8.736   3.308   6.460  1.2996  0.0824 -1.0579
 6708SOL     OW21891   1.100   8.353   6.127 -0.9373 -0.0321  1.0751
 6708SOL    HW121892   1.162   8.301   6.179  0.1241 -0.2539 -0.3479
 6708SOL    HW221893   1.155   8.413   6.077 -1.9857  0.7292  0.7934
 6709SOL     OW21894   9.590   1.745   9.257 -0.4281 -0.0735  0.1498
 6709SOL    HW121895   9.624   1.813   9.198  1.3570 -0.6715  0.4164
 6709SOL    HW221896   9.638   1.758   9.339  0.5314 -2.0859 -0.0305
 6710SOL     OW21897   2.776   6.378   5.374  0.3888  0.3095  0.6372
 6710SOL    HW121898   2.816   6.334   5.449  0.9402  0.5141  0.4725
 6710SOL    HW221899   2.850   6.419   5.328  0.4054 -1.7214 -1.3237
 6711SOL     OW21900   6.982   1.747   8.953 -0.2292 -0.4259  0.2001
 6711SOL    HW121901   7.074   1.720   8.957 -0.3881 -0.8377  1.2602
 6711SOL    HW221902   6.980   1.833   8.994 -0.4011 -0.6664  0.7060
 6712SOL     OW21903   1.089   2.874   9.104 -0.2554 -0.3920 -0.2475
 6712SOL    HW121904   1.014   2.931   9.121  0.4854  0.4980  0.1415
 6712SOL    HW221905   1.051   2.794   9.067 -1.1950  1.0289 -2.5708
 6713SOL     OW21906   5.895   5.290   0.459  0.2108  0.3903  0.1263
 6713SOL    HW121907   5.984   5.302   0.492  0.3092 -1.6171  0.7345
 6713SOL    HW221908   5.893   5.199   0.430 -1.0390  1.0018 -1.8844
 6714SOL     OW21909   8.015   6.254   6.482 -0.6765 -0.0959  0.1937
 6714SOL    HW121910   8.066   6.249   6.564 -1.5273 -1.2122  0.6873
 6714SOL    HW221911   8.030   6.343   6.449  0.6813 -0.0393  0.9100
 6715SOL     OW21912   4.151   5.931   0.995 -0.0098 -0.2052  0.3508
 6715SOL    HW121913   4.077   5.887   0.953  0.0867 -0.2853  0.2656
 6715SOL    HW221914   4.181   5.994   0.930  1.2058 -1.4822 -0.3567
 6716SOL     OW21915   6.469   8.336   6.690 -0.1077 -0.0795 -0.5628
 6716SOL    HW121916   6.396   8.354   6.749 -1.5795 -0.9248 -2.0392
 6716SOL    HW221917   6.545   8.379   6.731 -1.4300  0.8861  0.9772
 6717SOL     OW21918   0.120   8.370   3.749 -0.1197  0.4916  0.1203
 6717SOL    HW121919   0.044   8.371   3.807 -0.6385 -0.5382 -0.5116
 6717SOL    HW221920   0.183   8.430   3.790 -1.2267  1.2840  0.7036
 6718SOL     OW21921   3.956   8.335   6.539 -0.1420 -0.2446  0.0531
 6718SOL    HW121922   3.938   8.269   6.473 -0.8964 -0.5287  0.5359
 6718SOL    HW221923   3.887   8.324   6.605  0.4887  0.1450  0.8025
 6719SOL     OW21924   6.504   2.536   6.768 -0.3389 -1.0785  0.2327
 6719SOL    HW121925   6.427   2.594   6.767  1.0042  0.8989  2.3627
 6719SOL    HW221926   6.476   2.462   6.821 -0.9813 -0.6503  0.5139
 6720SOL     OW21927   1.137   5.519   0.771 -0.3034  0.0695  0.3951
 6720SOL    HW121928   1.055   5.489   0.732  0.6882 -2.1222 -0.1846
 6720SOL    HW221929   1.142   5.473   0.855  0.1126  0.5585  0.6447
 6721SOL     OW21930   0.749   3.841   3.676 -0.2681 -0.5907 -0.0636
 6721SOL    HW121931   0.793   3.918   3.713 -1.7476  0.4085 -0.3058
 6721SOL    HW221932   0.659   3.869   3.664 -0.6920 -2.1810 -0.7689
 6722SOL     OW21933   9.795   8.375   7.382  0.2649 -0.2247 -0.5969
 6722SOL    HW121934   9.798   8.283   7.409  0.0840  0.0811  0.5380
 6722SOL    HW221935   9.883   8.408   7.398 -0.7300  0.9993  3.7135
 6723SOL     OW21936   0.030   4.351   7.216  0.7444 -0.0728  0.1614
 6723SOL    HW121937   0.098   4.284   7.206  1.1942  0.5270 -0.8679
 6723SOL    HW221938   0.012   4.352   7.311  1.1770 -1.1878  0.2772
 6724SOL     OW21939   4.916   3.515   5.735  0.0088 -0.1334 -0.2840
 6724SOL    HW121940   5.005   3.487   5.752  0.3240  0.7991 -0.3360
 6724SOL    HW221941   4.880   3.448   5.676  1.3967  0.6025 -2.0562
 6725SOL     OW21942   5.237   6.406   4.364 -0.1181  0.7848 -0.0449
 6725SOL    HW121943   5.323   6.389   4.403  0.5172 -0.2248 -1.7685
 6725SOL    HW221944   5.186   6.328   4.383  1.0367 -0.9371 -3.2748
 6726SOL     OW21945   0.587   5.136   1.716 -0.1883  0.3979 -0.3360
 6726SOL    HW121946   0.626   5.052   1.694  1.0709  0.3394  1.7659
 6726SOL    HW221947   0.496   5.130   1.687  0.3130 -1.0528 -1.6701
 6727SOL     OW21948   5.637   6.016   6.928  0.7095  0.2422  0.0107
 6727SOL    HW121949   5.594   6.078   6.869  0.2651  0.5501  0.6508
 6727SOL    HW221950   5.728   6.046   6.932  0.8157  0.0358 -0.7575
 6728SOL     OW21951   0.115   4.340   2.333 -0.0703 -0.2265  0.2840
 6728SOL    HW121952   0.082   4.417   2.380  0.2625 -0.0384  0.2189
 6728SOL    HW221953   0.043   4.278   2.334 -0.3673  0.1164  0.2755
 6729SOL     OW21954   2.729   7.186   2.835 -0.3045 -0.0402  0.1328
 6729SOL    HW121955   2.675   7.183   2.914  0.3431 -0.4882  0.5692
 6729SOL    HW221956   2.734   7.279   2.813 -2.0397 -0.0582 -0.4820
 6730SOL     OW21957   4.675   0.090   2.046  0.3942 -0.1842  0.2729
 6730SOL    HW121958   4.584   0.079   2.076  0.4089  1.1377  0.8670
 6730SOL    HW221959   4.723   0.116   2.125  1.3651 -1.1625  0.0285
 6731SOL     OW21960   9.710   0.658   2.652 -0.3277  0.3083  0.0196
 6731SOL    HW121961   9.686   0.569   2.680 -0.8848  1.2064  2.6458
 6731SOL    HW221962   9.643   0.681   2.587 -2.2110 -0.0318  1.7278
 6732SOL     OW21963   9.373   7.267   3.458  0.6591  0.5788 -0.5479
 6732SOL    HW121964   9.348   7.179   3.431 -0.2195  0.3875  0.8029
 6732SOL    HW221965   9.420   7.303   3.382  1.5810 -1.2543 -0.8958
 6733SOL     OW21966   3.397   8.573   2.745 -0.2015  0.0320  0.5784
 6733SOL    HW121967   3.406   8.606   2.655  2.0330  0.4033  0.8760
 6733SOL    HW221968   3.339   8.636   2.788  0.7143  1.2901  0.0348
 6734SOL     OW21969   0.591   2.256   9.625 -0.1573 -0.3044  0.0167
 6734SOL    HW121970   0.528   2.276   9.555 -0.1729 -1.6155 -0.3744
 6734SOL    HW221971   0.675   2.282   9.589 -0.1190 -1.2816 -0.6631
 6735SOL     OW21972   1.905   1.359   4.245 -0.5866  0.0753 -0.6924
 6735SOL    HW121973   1.843   1.408   4.191  0.2539 -0.0204 -1.7747
 6735SOL    HW221974   1.982   1.416   4.251 -0.2591 -0.3831 -0.5256
 6736SOL     OW21975   1.248   7.423   1.593 -0.3738  0.4752  0.4081
 6736SOL    HW121976   1.254   7.355   1.527 -1.9084 -0.1628  0.8673
 6736SOL    HW221977   1.329   7.416   1.643  0.0259 -0.1832 -0.3167
 6737SOL     OW21978   3.937   2.383   4.129  0.0258 -0.0247  0.2185
 6737SOL    HW121979   3.896   2.390   4.215 -0.3700 -0.2240  0.0494
 6737SOL    HW221980   3.865   2.399   4.067 -0.2290 -2.2005 -0.1229
 6738SOL     OW21981   5.128   5.092   9.066 -0.3129  0.6139  0.8192
 6738SOL    HW121982   5.075   5.172   9.067 -0.8966  0.2411  0.6584
 6738SOL    HW221983   5.091   5.041   8.994 -2.0104 -1.1429  2.7912
 6739SOL     OW21984   7.730   5.457   4.445 -0.4079 -0.0525 -0.5346
 6739SOL    HW121985   7.812   5.458   4.494 -0.4601  0.5654 -0.4598
 6739SOL    HW221986   7.718   5.364   4.422 -0.3125 -0.3354  0.4959
 6740SOL     OW21987   3.621   5.480   1.343 -0.1481 -0.0491  0.2103
 6740SOL    HW121988   3.526   5.490   1.347 -0.1640  0.0491 -0.4099
 6740SOL    HW221989   3.645   5.448   1.430 -0.6250  0.9614  0.7324
 6741SOL     OW21990   9.151   8.821   5.364  0.1196  0.3497 -0.4699
 6741SOL    HW121991   9.133   8.832   5.457 -0.9232  0.3614 -0.6650
 6741SOL    HW221992   9.171   8.728   5.354 -3.6375 -0.5667 -0.8127
 6742SOL     OW21993   4.810   6.313   5.494  0.0492 -0.4357  0.0035
 6742SOL    HW121994   4.716   6.331   5.491  0.3569  1.1117 -1.1678
 6742SOL    HW221995   4.820   6.231   5.446 -0.6463 -0.3897 -0.2361
 6743SOL     OW21996   7.209   4.166   2.688 -0.2635  0.3903  0.4072
 6743SOL    HW121997   7.154   4.193   2.615  1.5842  0.3330 -1.0713
 6743SOL    HW221998   7.173   4.082   2.715 -1.6347  0.9155  0.3148
 6744SOL     OW21999   2.754   6.773   3.400 -0.1088  0.1792 -0.8077
 6744SOL    HW122000   2.828   6.763   3.340  2.3045 -0.5500  2.0138
 6744SOL    HW222001   2.758   6.865   3.427 -1.0645  0.4548 -1.5432
 6745SOL     OW22002   2.851   3.067   0.428  0.1906  0.5526 -0.1052
 6745SOL    HW122003   2.819   3.157   0.423 -1.1677  0.0295 -1.8131
 6745SOL    HW222004   2.936   3.068   0.385 -1.3460  0.4592 -3.4239
 6746SOL     OW22005   0.949   3.267   2.173  0.1835  0.0859  0.3517
 6746SOL    HW122006   0.965   3.360   2.190 -0.2597 -0.0128  1.4298
 6746SOL    HW222007   1.036   3.227   2.176  0.5116  0.5993 -1.2152
 6747SOL     OW22008   5.282   6.508   8.014  0.6234 -0.4854 -0.0107
 6747SOL    HW122009   5.271   6.460   8.096  0.0634 -0.4646 -0.0672
 6747SOL    HW222010   5.231   6.458   7.950  1.0281 -0.4816 -0.3366
 6748SOL     OW22011   3.497   7.266   7.020  0.7063 -0.0643  0.3627
 6748SOL    HW122012   3.578   7.272   6.970  0.8305 -0.8923  0.4404
 6748SOL    HW222013   3.502   7.337   7.083  1.9867 -0.8774  1.2283
 6749SOL     OW22014   2.174   9.509   0.307  0.2111 -0.0292 -0.2216
 6749SOL    HW122015   2.118   9.583   0.283  1.3381  0.8108 -0.4139
 6749SOL    HW222016   2.262   9.547   0.310  0.7687 -1.2927  0.0716
 6750SOL     OW22017   3.004   0.602   6.635 -0.7587  0.3058 -0.3673
 6750SOL    HW122018   2.914   0.633   6.634 -0.2736  2.1268  2.4922
 6750SOL    HW222019   3.056   0.679   6.611  0.1287 -0.3463 -0.6126
 6751SOL     OW22020   8.684   7.451   5.023  0.2659 -0.3490 -0.1771
 6751SOL    HW122021   8.592   7.473   5.038  0.1089 -0.1453 -1.3410
 6751SOL    HW222022   8.703   7.381   5.086 -0.7166 -0.4902 -0.0219
 6752SOL     OW22023   8.051   3.375   8.860 -0.3673 -0.5806 -0.3976
 6752SOL    HW122024   8.065   3.373   8.766 -1.6684  0.6133 -0.6419
 6752SOL    HW222025   8.131   3.414   8.895  0.7235 -2.3202 -0.8292
 6753SOL     OW22026   4.723   9.351   2.865 -0.3382  0.6332  0.3594
 6753SOL    HW122027   4.789   9.317   2.925  0.9439  0.5531 -1.0226
 6753SOL    HW222028   4.703   9.277   2.807 -1.6464  0.6680  0.7450
 6754SOL     OW22029   8.925   1.769   4.782 -0.0377 -0.0380 -0.6534
 6754SOL    HW122030   8.985   1.718   4.727 -0.0631 -1.5276  0.6024
 6754SOL    HW222031   8.982   1.826   4.833  0.4127 -1.5620  0.6512
 6755SOL     OW22032   4.821   0.752   7.968  0.3720 -0.3513 -0.1906
 6755SOL    HW122033   4.824   0.845   7.946  1.4664 -1.0177 -3.2518
 6755SOL    HW222034   4.735   0.723   7.939 -0.4971 -0.1268  1.9493
 6756SOL     OW22035   9.824   0.621   0.546 -0.2922  0.0969  0.6696
 6756SOL    HW122036   9.882   0.683   0.591 -0.7971  2.6836 -1.9315
 6756SOL    HW222037   9.736   0.645   0.574 -0.4239 -0.2973  0.6005
 6757SOL     OW22038   4.187   3.911   3.822  0.4828 -0.5283  0.1434
 6757SOL    HW122039   4.192   4.000   3.787 -0.2356 -0.5377 -0.0000
 6757SOL    HW222040   4.193   3.855   3.745 -0.9380 -0.5533  0.0281
 6758SOL     OW22041   0.491   9.266   1.876 -0.3229 -0.0920  0.0898
 6758SOL    HW122042   0.526   9.265   1.786 -1.3743 -0.8922 -0.3317
 6758SOL    HW222043   0.422   9.333   1.874 -0.1413  0.1093  0.3987
 6759SOL     OW22044   2.529   1.388   9.369 -0.0727 -0.5894 -0.4796
 6759SOL    HW122045   2.527   1.333   9.290 -0.9236 -1.4018  0.0905
 6759SOL    HW222046   2.612   1.436   9.362 -1.2291  1.2557 -3.1156
 6760SOL     OW22047   1.137   7.305   0.267 -0.3692  0.5013 -0.0536
 6760SOL    HW122048   1.073   7.269   0.328  1.0813  0.8320  1.7384
 6760SOL    HW222049   1.221   7.295   0.311  0.7032  1.1645 -1.8288
 6761SOL     OW22050   1.828   7.115   9.155  0.3867  0.2053 -0.4572
 6761SOL    HW122051   1.776   7.174   9.209  1.7113  0.3219  0.7530
 6761SOL    HW222052   1.791   7.028   9.173  0.5714  0.2891  0.3743
 6762SOL     OW22053   1.156   1.082   5.039  0.2258 -0.0694 -0.5680
 6762SOL    HW122054   1.126   1.082   5.130  0.3649 -1.5142 -0.5023
 6762SOL    HW222055   1.077   1.065   4.988  0.2425  0.2159 -0.6935
 6763SOL     OW22056   5.032   3.723   5.194 -0.4231 -0.1776  0.7472
 6763SOL    HW122057   5.041   3.817   5.177 -0.1941 -0.4172 -0.5369
 6763SOL    HW222058   5.113   3.685   5.162 -1.9164 -1.2187 -2.1145
 6764SOL     OW22059   6.555   2.691   1.219 -0.2462  0.2448  0.2301
 6764SOL    HW122060   6.565   2.706   1.313  0.2637  1.5435 -0.0033
 6764SOL    HW222061   6.555   2.779   1.181 -0.6537 -0.2531 -0.9689
 6765SOL     OW22062   0.829   3.679   2.706 -0.2271  0.0509 -0.5016
 6765SOL    HW122063   0.783   3.735   2.768  1.7830 -1.0257  2.1301
 6765SOL    HW222064   0.920   3.707   2.712  0.3249 -1.4663 -1.4437
 6766SOL     OW22065   1.846   4.683   7.163 -0.2332  0.4130 -0.3374
 6766SOL    HW122066   1.771   4.692   7.104  0.0810 -0.2245 -0.8567
 6766SOL    HW222067   1.826   4.604   7.214 -0.0965  0.4652 -0.2024
 6767SOL     OW22068   5.531   2.518   2.266 -0.0633  0.1925  0.4353
 6767SOL    HW122069   5.566   2.604   2.246 -0.3828  0.6337  1.6980
 6767SOL    HW222070   5.476   2.531   2.344  0.2449 -1.2188  0.9311
 6768SOL     OW22071   6.120   3.334   1.517  0.2821  0.7447  0.4006
 6768SOL    HW122072   6.107   3.373   1.604 -0.4597  3.1528 -0.6769
 6768SOL    HW222073   6.172   3.399   1.469  1.1916 -0.8001 -0.8000
 6769SOL     OW22074   9.249   2.094   7.853 -0.9580  0.6511  0.0781
 6769SOL    HW122075   9.228   2.151   7.927 -1.6335  0.5122  0.0006
 6769SOL    HW222076   9.335   2.123   7.824 -0.9711  1.1345  0.5122
 6770SOL     OW22077   2.345   3.577   2.941  0.6722 -0.5246  0.0256
 6770SOL    HW122078   2.427   3.621   2.916  0.7369 -0.4077  0.4281
 6770SOL    HW222079   2.281   3.648   2.948  0.3126 -0.7235 -1.1662
 6771SOL     OW22080   2.298   6.522   4.608 -0.5343 -0.4950 -0.0357
 6771SOL    HW122081   2.210   6.539   4.575 -1.0761 -1.6290  0.7923
 6771SOL    HW222082   2.344   6.606   4.596 -1.7042  0.1067 -0.4780
 6772SOL     OW22083   1.024   5.679   1.152 -0.1837  0.0887  0.0268
 6772SOL    HW122084   1.101   5.656   1.205 -0.5724 -0.4216  0.3774
 6772SOL    HW222085   0.950   5.669   1.212 -0.5200  0.6486 -0.2888
 6773SOL     OW22086   0.581   1.172   9.674  0.1804 -0.1714 -0.4186
 6773SOL    HW122087   0.514   1.110   9.702  1.6608 -1.2452  0.9694
 6773SOL    HW222088   0.615   1.210   9.755  2.3488 -0.9094 -0.9015
 6774SOL     OW22089   5.721   4.107   5.348 -0.2326  0.0897 -0.5731
 6774SOL    HW122090   5.769   4.121   5.267 -0.7810  2.2756 -0.5949
 6774SOL    HW222091   5.682   4.192   5.368 -3.4902 -1.3367 -0.1708
 6775SOL     OW22092   0.894   8.926   0.380 -0.3201 -0.3867 -0.1040
 6775SOL    HW122093   0.842   8.923   0.460 -2.0136  1.8645 -1.0025
 6775SOL    HW222094   0.950   9.004   0.392 -1.4708  0.7189 -1.5318
 6776SOL     OW22095   5.505   4.229   6.159 -0.3047 -0.3838  0.6550
 6776SOL    HW122096   5.513   4.272   6.244  1.9740  0.0444  0.2983
 6776SOL    HW222097   5.460   4.292   6.104  0.7744  0.5530  0.8120
 6777SOL     OW22098   4.144   2.731   4.989 -0.4446  0.2558 -0.0731
 6777SOL    HW122099   4.200   2.807   5.005  0.9432 -0.5879 -0.6923
 6777SOL    HW222100   4.186   2.685   4.916 -1.3933 -0.9510  0.1027
 6778SOL     OW22101   6.291   7.105   2.349  0.1511  0.1698  0.0559
 6778SOL    HW122102   6.320   7.028   2.301  1.5873  0.2185  0.7800
 6778SOL    HW222103   6.212   7.077   2.394 -1.4236  0.2155 -2.4963
 6779SOL     OW22104   7.523   1.124   9.278  0.2541  1.0540 -0.6017
 6779SOL    HW122105   7.591   1.098   9.341 -1.0803  1.4335  1.0632
 6779SOL    HW222106   7.543   1.216   9.258  1.0418  0.7550 -1.2372
 6780SOL     OW22107   4.566   3.431   4.316 -0.3522  0.3614  0.1057
 6780SOL    HW122108   4.555   3.499   4.383 -2.3731 -0.3599  0.5763
 6780SOL    HW222109   4.503   3.454   4.248  1.5394  0.9751 -1.5243
 6781SOL     OW22110   4.974   5.961   4.079  0.2265 -0.0194  0.3392
 6781SOL    HW122111   4.969   5.880   4.130  0.7445  0.4018  1.0829
 6781SOL    HW222112   5.067   5.979   4.072  0.2242 -0.6672 -1.7576
 6782SOL     OW22113   6.986   7.758   3.603 -0.1262 -0.7415 -0.1087
 6782SOL    HW122114   7.048   7.707   3.654 -1.6120 -1.9247  0.6164
 6782SOL    HW222115   6.966   7.834   3.657  1.7468  0.4334 -0.9888
 6783SOL     OW22116   4.977   5.362   3.698 -0.4534 -0.2761 -0.0159
 6783SOL    HW122117   5.003   5.394   3.612 -1.0769 -0.0877 -0.1458
 6783SOL    HW222118   5.036   5.290   3.717 -1.6473 -1.7343 -1.5565
 6784SOL     OW22119   4.672   3.727   2.239  0.1167 -0.6810 -0.5507
 6784SOL    HW122120   4.646   3.795   2.176  0.0051 -0.3845 -0.1938
 6784SOL    HW222121   4.625   3.750   2.319  0.0482 -1.2079 -0.4359
 6785SOL     OW22122   9.193   1.232   6.719  0.5225  0.2227 -0.2186
 6785SOL    HW122123   9.150   1.301   6.770  1.8898  0.3241  0.8526
 6785SOL    HW222124   9.215   1.275   6.636 -2.0979 -0.0670 -1.1698
 6786SOL     OW22125   7.226   1.974   1.168 -0.0634  0.1810  0.4517
 6786SOL    HW122126   7.159   1.927   1.218 -2.0675  1.9902 -0.3266
 6786SOL    HW222127   7.214   2.066   1.193  1.6519  0.6512 -0.3029
 6787SOL     OW22128   1.023   8.649   9.114 -0.6508 -0.2193  0.4236
 6787SOL    HW122129   1.003   8.570   9.164 -0.3090 -0.0619  0.8198
 6787SOL    HW222130   1.119   8.648   9.105 -0.8140 -1.1530 -1.7628
 6788SOL     OW22131   7.339   9.145   7.609  0.1760 -0.4466  0.3237
 6788SOL    HW122132   7.281   9.207   7.653 -3.1584 -2.7092 -0.4704
 6788SOL    HW222133   7.319   9.060   7.649  1.2348 -1.6940 -1.6024
 6789SOL     OW22134   5.922   8.373   2.774  0.1010  0.2065 -0.1396
 6789SOL    HW122135   5.845   8.323   2.746  0.8229 -1.1068  0.0908
 6789SOL    HW222136   5.940   8.340   2.863  0.2427  1.3413  0.2595
 6790SOL     OW22137   2.273   7.783   0.492  0.3702  0.5995 -0.6142
 6790SOL    HW122138   2.242   7.814   0.577 -0.5378  0.0497 -0.7355
 6790SOL    HW222139   2.325   7.857   0.457  2.3976  0.1363  1.2139
 6791SOL     OW22140   5.643   2.665   5.829 -0.0727 -0.3896 -0.7337
 6791SOL    HW122141   5.700   2.638   5.757  0.1350  1.2430 -1.2357
 6791SOL    HW222142   5.622   2.757   5.809 -1.0438 -0.2847  0.6308
 6792SOL     OW22143   5.281   8.702   5.806  0.2051 -0.7072 -0.2690
 6792SOL    HW122144   5.338   8.767   5.846 -1.7185  1.1605 -0.4089
 6792SOL    HW222145   5.296   8.622   5.857  1.6376  0.1811  0.7719
 6793SOL     OW22146   1.677   5.815   1.395 -0.0931  0.3182 -0.2653
 6793SOL    HW122147   1.667   5.810   1.300 -1.4893 -1.7410 -0.0643
 6793SOL    HW222148   1.767   5.844   1.408  0.0235  0.9670 -2.2003
 6794SOL     OW22149   6.024   9.180   9.681 -0.2156  0.0818  0.3623
 6794SOL    HW122150   6.043   9.113   9.747  0.6059  0.4504  0.5177
 6794SOL    HW222151   5.996   9.130   9.604  0.1425 -0.4280  0.5544
 6795SOL     OW22152   5.818   8.811   6.765 -0.1270 -0.5773  0.0041
 6795SOL    HW122153   5.883   8.819   6.835 -1.0942 -0.3687  0.9059
 6795SOL    HW222154   5.771   8.894   6.765 -0.2228 -0.6233 -0.8127
 6796SOL     OW22155   5.281   9.129   6.166 -0.3641  0.5930  0.7693
 6796SOL    HW122156   5.242   9.050   6.203 -0.4255 -0.4825 -1.4205
 6796SOL    HW222157   5.226   9.150   6.091  1.2167  1.1222 -0.2918
 6797SOL     OW22158   9.596   8.470   4.535  0.5962 -0.1229 -0.4085
 6797SOL    HW122159   9.631   8.428   4.457 -0.9964  0.6613 -1.6225
 6797SOL    HW222160   9.635   8.557   4.536  2.7394 -1.0067  1.2754
 6798SOL     OW22161   6.681   1.235   6.627  0.3360  0.0312  0.8229
 6798SOL    HW122162   6.722   1.214   6.543  0.3307  0.1630  0.7869
 6798SOL    HW222163   6.590   1.257   6.604  0.0524 -0.9313  0.9798
 6799SOL     OW22164   6.064   3.102   1.367  0.2421  0.0543 -0.4786
 6799SOL    HW122165   6.082   3.179   1.421  0.7556  0.6118 -1.4019
 6799SOL    HW222166   6.143   3.048   1.376  0.5609  0.4122 -1.0985
 6800SOL     OW22167   2.777   8.351   3.744  0.4398 -0.0900 -0.0299
 6800SOL    HW122168   2.797   8.430   3.795  0.1226  0.5501 -0.8784
 6800SOL    HW222169   2.731   8.383   3.667 -0.1392 -1.1621 -0.1436
 6801SOL     OW22170   2.053   1.863   6.035  0.2066  0.0474  0.0112
 6801SOL    HW122171   2.079   1.943   5.990  0.7267  0.5948  1.2486
 6801SOL    HW222172   2.135   1.818   6.054 -0.0730 -0.6918 -0.5158
 6802SOL     OW22173   0.842   2.206   5.108 -0.3027 -0.0355 -0.6840
 6802SOL    HW122174   0.787   2.196   5.186 -1.5355 -0.2515 -1.5508
 6802SOL    HW222175   0.849   2.300   5.095 -0.1406  0.0007 -0.3577
 6803SOL     OW22176   4.085   4.661   2.820 -0.2805  0.0173  0.1159
 6803SOL    HW122177   4.014   4.715   2.785 -0.9488 -0.5261  0.5817
 6803SOL    HW222178   4.059   4.643   2.911  0.9768  0.6649  0.6324
 6804SOL     OW22179   5.594   0.098   2.613  0.3516  0.2638  0.0417
 6804SOL    HW122180   5.601   0.014   2.567  1.7543  0.6881 -0.5762
 6804SOL    HW222181   5.602   0.074   2.705  1.2549 -0.2673 -0.1488
 6805SOL     OW22182   3.034   4.430   7.470 -0.4117  0.0660  0.4133
 6805SOL    HW122183   3.053   4.336   7.468 -0.5633  0.0516 -0.2648
 6805SOL    HW222184   3.039   4.452   7.563  1.2509 -0.2767  0.4393
 6806SOL     OW22185   3.516   2.692   6.208 -0.2170 -0.0890 -0.2428
 6806SOL    HW122186   3.567   2.623   6.166 -2.1146 -1.0218 -1.1595
 6806SOL    HW222187   3.572   2.770   6.204  2.3618 -1.6919  1.6388
 6807SOL     OW22188   6.299   8.582   0.112 -0.2638 -0.1281 -0.6050
 6807SOL    HW122189   6.329   8.641   0.043  1.0160 -0.4915 -0.3904
 6807SOL    HW222190   6.258   8.639   0.176 -0.1213  0.3898 -0.9681
 6808SOL     OW22191   0.075   7.606   4.354  0.5022  0.6312 -0.1232
 6808SOL    HW122192   0.076   7.555   4.273  0.6883 -0.4784  0.5710
 6808SOL    HW222193  -0.006   7.579   4.398  0.6743  0.8345  0.3207
 6809SOL     OW22194   0.685   2.125   8.472 -0.1144 -0.7681 -0.3724
 6809SOL    HW122195   0.591   2.110   8.460 -0.0792 -1.3260  0.0154
 6809SOL    HW222196   0.723   2.037   8.478 -0.1379 -0.6835  3.9333
 6810SOL     OW22197   3.042   8.496   5.065  0.0360  0.2147  0.2876
 6810SOL    HW122198   3.076   8.409   5.042 -1.7985 -0.4064 -0.3119
 6810SOL    HW222199   3.082   8.516   5.149  1.5231 -0.6103 -0.1846
 6811SOL     OW22200   3.287   3.323   5.791  0.4075 -0.3411 -1.1125
 6811SOL    HW122201   3.287   3.416   5.769 -0.4607  0.0110  0.2537
 6811SOL    HW222202   3.230   3.317   5.868  2.6066 -1.5992  0.5395
 6812SOL     OW22203   0.352   4.651   3.528  0.7691 -0.0701 -0.0472
 6812SOL    HW122204   0.319   4.562   3.540  1.2304 -0.0657  1.4582
 6812SOL    HW222205   0.279   4.707   3.552  0.6961 -0.0503 -0.3192
 6813SOL     OW22206   0.514   2.101   0.814  0.1844  0.0098 -0.5568
 6813SOL    HW122207   0.561   2.030   0.771  1.2564 -0.1801  0.8353
 6813SOL    HW222208   0.568   2.179   0.799  0.7363 -0.1144  0.6338
 6814SOL     OW22209   9.334   1.780   0.648  0.0534  0.0950  0.7018
 6814SOL    HW122210   9.356   1.721   0.720 -1.7074  0.3241  1.4747
 6814SOL    HW222211   9.299   1.723   0.579 -0.6524  0.1024  1.0408
 6815SOL     OW22212   8.349   4.893   8.631 -0.2452  0.4267 -0.1039
 6815SOL    HW122213   8.284   4.839   8.587  0.9324  0.1977 -1.6387
 6815SOL    HW222214   8.399   4.934   8.560  1.5455  0.2708  1.0004
 6816SOL     OW22215   1.765   3.365   3.480 -0.0028 -0.0360  0.0548
 6816SOL    HW122216   1.727   3.284   3.445  2.1483 -0.0496 -2.6483
 6816SOL    HW222217   1.692   3.410   3.522 -1.6185 -2.6402  0.2594
 6817SOL     OW22218   3.073   8.451   2.984 -0.0584  0.3993  0.2087
 6817SOL    HW122219   3.063   8.463   2.889  0.9657  0.0730  0.0440
 6817SOL    HW222220   3.038   8.363   3.000  2.3738 -0.7465 -0.3613
 6818SOL     OW22221   2.625   0.051   7.953 -0.6978 -0.3076 -0.6030
 6818SOL    HW122222   2.692   0.083   7.893 -0.3641 -2.1520 -1.2833
 6818SOL    HW222223   2.548   0.036   7.898 -0.7632 -0.8904 -0.3610
 6819SOL     OW22224   1.471   0.568   3.783  0.4701  0.4781 -0.2779
 6819SOL    HW122225   1.431   0.519   3.712 -0.3247 -0.4145  0.7587
 6819SOL    HW222226   1.399   0.617   3.823  0.9195  1.0246 -0.1153
 6820SOL     OW22227   4.331   7.532   7.958  0.1166  0.4869 -0.0886
 6820SOL    HW122228   4.302   7.609   8.006  0.9172  0.6720  0.1223
 6820SOL    HW222229   4.257   7.507   7.904 -0.7087  0.4657  1.0112
 6821SOL     OW22230   3.990   7.152   3.426  0.4615 -0.1224 -0.0232
 6821SOL    HW122231   4.037   7.235   3.436  1.4404 -0.8823  2.5294
 6821SOL    HW222232   4.058   7.085   3.434 -0.3897 -1.2115 -1.5278
 6822SOL     OW22233   0.027   6.433   2.967 -0.1983  0.1909 -0.2462
 6822SOL    HW122234  -0.005   6.499   2.906  0.5172  1.1487  0.3770
 6822SOL    HW222235  -0.049   6.411   3.021 -0.4675  0.4544 -0.5127
 6823SOL     OW22236   0.263   4.029   9.785  0.0679  0.4729 -0.3658
 6823SOL    HW122237   0.301   3.944   9.765 -0.4359  0.6978 -2.5904
 6823SOL    HW222238   0.338   4.089   9.785  0.0785  0.5540 -2.4910
 6824SOL     OW22239   7.665   4.033   7.072  0.2595 -0.0950 -0.2483
 6824SOL    HW122240   7.597   4.016   7.007 -0.7231  0.5952  0.5844
 6824SOL    HW222241   7.628   4.100   7.129  0.7198 -1.3653  1.6082
 6825SOL     OW22242   4.669   2.897   2.948  0.2814 -0.3578 -0.0931
 6825SOL    HW122243   4.649   2.854   3.031 -1.4398  1.0823  0.3154
 6825SOL    HW222244   4.648   2.833   2.881  1.0676 -1.3168  0.5607
 6826SOL     OW22245   8.370   7.654   6.935 -0.6680  0.0724  0.6021
 6826SOL    HW122246   8.279   7.660   6.907 -0.9726  0.9447  1.6641
 6826SOL    HW222247   8.400   7.570   6.902 -1.8121 -0.1571  0.0843
 6827SOL     OW22248   6.858   4.327   6.338  0.6965 -0.4102  0.4309
 6827SOL    HW122249   6.783   4.343   6.280 -0.2607 -0.5572  1.5755
 6827SOL    HW222250   6.863   4.405   6.393  0.2078 -1.1635  1.5793
 6828SOL     OW22251   2.229   8.226   2.106 -0.5354  0.7548 -0.1917
 6828SOL    HW122252   2.258   8.184   2.026 -1.3138 -2.4287  1.0288
 6828SOL    HW222253   2.179   8.158   2.152  0.0307  2.3491  3.0746
 6829SOL     OW22254   2.787   8.708   9.454 -0.4051  0.0486  0.4928
 6829SOL    HW122255   2.797   8.711   9.359 -0.8968 -2.5681  0.2722
 6829SOL    HW222256   2.869   8.669   9.485 -1.0901 -1.1659  0.8642
 6830SOL     OW22257   4.973   2.127   4.854  0.0985 -0.2780 -0.2583
 6830SOL    HW122258   4.923   2.074   4.916  0.1476 -0.3098 -0.2463
 6830SOL    HW222259   5.054   2.147   4.899 -0.4670  0.9323  0.2640
 6831SOL     OW22260   8.492   2.789   3.886 -0.0797 -0.5675 -0.9276
 6831SOL    HW122261   8.583   2.761   3.887  0.6245  1.5507  0.5242
 6831SOL    HW222262   8.451   2.739   3.956  0.9820  1.2621  1.1209
 6832SOL     OW22263   6.132   9.626   8.238 -0.2069 -0.0637  0.5090
 6832SOL    HW122264   6.143   9.531   8.234  2.3712  0.1933 -0.1153
 6832SOL    HW222265   6.072   9.646   8.166 -0.8181 -1.2137  0.6803
 6833SOL     OW22266   3.473   8.881   1.662  0.3174  0.3579  0.3802
 6833SOL    HW122267   3.558   8.837   1.656  1.5499  2.7134 -1.7231
 6833SOL    HW222268   3.444   8.891   1.572 -2.5879 -0.8700  1.0535
 6834SOL     OW22269   8.509   4.508   2.574  0.5584 -0.3862 -0.3735
 6834SOL    HW122270   8.460   4.557   2.639  0.4713  0.3101 -0.9499
 6834SOL    HW222271   8.561   4.445   2.625  0.4580  0.1120  0.3550
 6835SOL     OW22272   1.670   4.435   4.351 -0.4969  0.0967 -0.2054
 6835SOL    HW122273   1.582   4.461   4.381 -0.3182  1.3912 -0.7379
 6835SOL    HW222274   1.655   4.391   4.267 -0.5730  1.1576 -0.7587
 6836SOL     OW22275   5.028   9.204   6.329 -0.1017 -0.4344 -0.6962
 6836SOL    HW122276   5.048   9.110   6.330  0.8299 -0.2444 -0.9720
 6836SOL    HW222277   4.932   9.208   6.336 -0.2211 -1.4320 -1.5255
 6837SOL     OW22278   9.815   2.483   4.784  0.2088 -0.1314 -0.1910
 6837SOL    HW122279   9.900   2.529   4.790  1.0372 -1.4498 -1.2396
 6837SOL    HW222280   9.838   2.395   4.755 -1.3384 -1.2756  1.8004
 6838SOL     OW22281   9.624   3.173   2.483  0.3526  0.1775  0.2696
 6838SOL    HW122282   9.581   3.090   2.504 -0.7858  0.8151  0.5183
 6838SOL    HW222283   9.688   3.150   2.416 -0.3340 -0.8098 -0.0729
 6839SOL     OW22284   1.756   9.669   1.881 -0.7411  0.1447  0.0141
 6839SOL    HW122285   1.797   9.611   1.946 -0.1879 -1.3872 -1.6156
 6839SOL    HW222286   1.670   9.631   1.866 -0.7010  0.2271 -0.4391
 6840SOL     OW22287   0.750   8.195   7.753 -0.0239  0.7801  0.0377
 6840SOL    HW122288   0.723   8.273   7.801 -0.3143  0.8995 -0.3154
 6840SOL    HW222289   0.688   8.188   7.681 -1.0471 -0.7114  1.0013
 6841SOL     OW22290   2.331   6.746   0.100 -0.0633 -0.2166  0.2809
 6841SOL    HW122291   2.250   6.696   0.105  0.0253 -0.2395  1.9718
 6841SOL    HW222292   2.340   6.768   0.007 -2.0537 -0.1031  0.0789
 6842SOL     OW22293   3.654   5.448   5.966  0.0171 -0.1361  0.2404
 6842SOL    HW122294   3.749   5.444   5.978  0.0873  0.3923 -0.1297
 6842SOL    HW222295   3.622   5.365   6.001  0.4759  0.2605  1.6729
 6843SOL     OW22296   6.873   7.259   3.013 -0.9101 -0.0191 -0.4588
 6843SOL    HW122297   6.895   7.212   3.094  1.8663  0.1779 -0.9829
 6843SOL    HW222298   6.868   7.351   3.040 -2.0555 -0.1568 -0.1745
 6844SOL     OW22299   8.087   7.267   1.373  0.1539 -0.4315  0.1961
 6844SOL    HW122300   8.005   7.272   1.324 -0.7660 -0.0824  1.7182
 6844SOL    HW222301   8.061   7.242   1.461  1.5009  1.3519  1.1553
 6845SOL     OW22302   9.644   6.738   3.072 -0.7204 -0.0344  0.1459
 6845SOL    HW122303   9.600   6.689   3.002  0.8795  0.0135 -0.9509
 6845SOL    HW222304   9.735   6.746   3.042 -0.4317  1.7027  1.3192
 6846SOL     OW22305   0.175   7.624   6.119 -0.2053 -0.5861 -0.5355
 6846SOL    HW122306   0.080   7.629   6.120 -0.1692  0.0907 -0.0042
 6846SOL    HW222307   0.196   7.551   6.177 -0.3111  1.2937  2.0116
 6847SOL     OW22308   2.873   0.669   4.830 -0.6213 -0.2799 -0.4945
 6847SOL    HW122309   2.817   0.608   4.782  0.3063 -1.4558 -0.1274
 6847SOL    HW222310   2.957   0.664   4.786 -0.6746  1.2082 -0.8171
 6848SOL     OW22311   0.639   7.192   8.410  0.2447 -0.0178  0.1994
 6848SOL    HW122312   0.622   7.150   8.494 -0.3654 -3.2619 -1.3747
 6848SOL    HW222313   0.728   7.165   8.388 -0.4730 -1.4167 -1.2426
 6849SOL     OW22314   8.865   6.940   9.766  0.0180 -0.1109  0.7797
 6849SOL    HW122315   8.798   6.906   9.825 -0.6738 -2.6531 -1.3207
 6849SOL    HW222316   8.825   6.936   9.679  1.4029  2.4519 -0.0964
 6850SOL     OW22317   9.575   6.687   5.852 -0.1992  0.3677  0.3587
 6850SOL    HW122318   9.490   6.655   5.882 -0.2535  3.0121  3.6222
 6850SOL    HW222319   9.554   6.758   5.791 -0.2703 -0.0568 -0.1152
 6851SOL     OW22320   8.238   2.691   4.492  0.0895  0.3158  0.0742
 6851SOL    HW122321   8.178   2.681   4.566 -0.5761  2.8277 -0.0311
 6851SOL    HW222322   8.325   2.674   4.528 -0.4453 -0.9808  0.8081
 6852SOL     OW22323   6.781   3.284   0.041  0.2930  0.2803  0.1158
 6852SOL    HW122324   6.717   3.267   0.110 -0.0322 -0.2156 -0.3011
 6852SOL    HW222325   6.854   3.328   0.086 -0.0735  0.2959  0.7017
 6853SOL     OW22326   2.931   4.790   5.753 -0.1787 -0.0359 -0.3270
 6853SOL    HW122327   2.991   4.771   5.825 -1.7706 -1.8052  0.6055
 6853SOL    HW222328   2.930   4.886   5.748  0.1660  0.1288  1.8283
 6854SOL     OW22329   7.240   5.696   4.617  0.3039 -0.2423  0.1499
 6854SOL    HW122330   7.226   5.652   4.533 -1.7455  0.1126  0.2510
 6854SOL    HW222331   7.284   5.631   4.671 -0.9292 -1.5043 -0.3139
 6855SOL     OW22332   1.320   7.852   7.253  0.4242  0.2521  0.4386
 6855SOL    HW122333   1.243   7.872   7.306 -1.1862 -1.6514 -1.0127
 6855SOL    HW222334   1.361   7.777   7.297  0.2283 -0.0719  0.0713
 6856SOL     OW22335   4.516   2.343   6.190  0.0827 -0.1712  0.0169
 6856SOL    HW122336   4.572   2.417   6.211 -2.7184  1.9145  0.8336
 6856SOL    HW222337   4.509   2.345   6.094 -1.4226  1.9728  0.0780
 6857SOL     OW22338   0.428   3.154   5.886  0.2018 -0.6893 -0.5788
 6857SOL    HW122339   0.501   3.092   5.878  0.8845 -0.1885  1.2859
 6857SOL    HW222340   0.365   3.110   5.942 -0.0426 -0.3389 -0.5725
 6858SOL     OW22341   1.212   3.106   9.755  0.7044  0.2809 -0.6244
 6858SOL    HW122342   1.140   3.096   9.817  1.1834  0.7393  0.0138
 6858SOL    HW222343   1.238   3.016   9.735  0.4410  0.1237 -0.2824
 6859SOL     OW22344   2.221   0.865   6.518 -0.1164 -0.4406  0.0974
 6859SOL    HW122345   2.267   0.857   6.434 -0.1174  1.0153 -0.0764
 6859SOL    HW222346   2.174   0.949   6.511  1.4262  0.6954  2.2694
 6860SOL     OW22347   2.360   9.385   3.119 -0.4247  0.5617 -0.4771
 6860SOL    HW122348   2.349   9.465   3.170 -1.9351 -0.2491  0.5446
 6860SOL    HW222349   2.425   9.335   3.167 -0.8939  0.3624 -0.0359
 6861SOL     OW22350   7.468   2.210   4.583  0.5422  0.4938  0.0722
 6861SOL    HW122351   7.444   2.125   4.619 -0.9153  0.8560  0.0056
 6861SOL    HW222352   7.539   2.241   4.640 -0.5412  0.2963  1.5796
 6862SOL     OW22353   7.960   3.815   4.442 -0.0245  0.1694 -0.0355
 6862SOL    HW122354   8.039   3.761   4.436 -0.9506 -1.4383  1.3534
 6862SOL    HW222355   7.972   3.868   4.521  1.2509  2.7686 -1.8286
 6863SOL     OW22356   7.940   1.001   1.232 -0.0232 -0.6473  0.0535
 6863SOL    HW122357   7.914   1.087   1.263  1.2121  1.0966 -3.2738
 6863SOL    HW222358   7.993   0.964   1.303 -0.2912  1.4600  1.4172
 6864SOL     OW22359   5.410   2.910   4.291  0.2824  0.2320  0.4158
 6864SOL    HW122360   5.328   2.952   4.267  0.7261  1.4425  0.9195
 6864SOL    HW222361   5.459   2.904   4.209 -0.0404  0.1083  0.2313
 6865SOL     OW22362   3.197   5.333   4.239 -0.0420  0.1842  0.3271
 6865SOL    HW122363   3.275   5.365   4.192  0.2737  0.9436  1.3346
 6865SOL    HW222364   3.200   5.378   4.323 -0.6762 -1.0471  1.0326
 6866SOL     OW22365   4.176   8.482   4.988 -0.0714 -0.2907 -0.3042
 6866SOL    HW122366   4.089   8.474   4.950 -0.1421 -1.0257 -0.0060
 6866SOL    HW222367   4.184   8.406   5.046  0.9872 -0.5642 -0.7814
 6867SOL     OW22368   2.318   9.338   5.863 -0.0919 -0.5763  0.2449
 6867SOL    HW122369   2.376   9.414   5.857 -1.4105  0.3520 -1.6134
 6867SOL    HW222370   2.255   9.361   5.932 -0.5727  0.0960 -0.4078
 6868SOL     OW22371   0.850   8.202   8.891 -0.0496  0.4009  0.5218
 6868SOL    HW122372   0.757   8.224   8.892 -0.3851 -0.6559 -1.6020
 6868SOL    HW222373   0.893   8.280   8.855 -0.6167 -0.3230 -1.9547
 6869SOL     OW22374   8.925   2.886   6.955 -0.2386 -0.3987 -0.8159
 6869SOL    HW122375   8.990   2.855   6.891 -0.7585 -2.3855 -0.4472
 6869SOL    HW222376   8.903   2.809   7.006 -2.4417  0.3593 -0.5149
 6870SOL     OW22377   3.785   2.428   2.087  0.0530 -0.0510 -0.0013
 6870SOL    HW122378   3.693   2.449   2.071  0.3887  0.7483 -1.0274
 6870SOL    HW222379   3.832   2.480   2.023  1.2186 -0.5996  0.3892
 6871SOL     OW22380   7.678   2.833   3.726 -0.3308 -0.2493  0.2628
 6871SOL    HW122381   7.634   2.850   3.809 -0.2589  0.8642  0.0896
 6871SOL    HW222382   7.768   2.863   3.739 -1.1168  3.1873 -1.2109
 6872SOL     OW22383   9.349   6.337   8.245 -0.5405  0.2355 -0.3521
 6872SOL    HW122384   9.361   6.431   8.256  1.2586 -0.0645  0.6663
 6872SOL    HW222385   9.429   6.307   8.201 -0.1530 -1.0735  1.1289
 6873SOL     OW22386   2.597   3.945   3.745 -0.0218  0.0211 -0.1551
 6873SOL    HW122387   2.563   3.912   3.828 -0.3969  0.9155  0.0622
 6873SOL    HW222388   2.666   4.007   3.770  1.4552 -1.3778 -0.5803
 6874SOL     OW22389   4.502   0.894   7.178  0.4531  0.1561 -0.2896
 6874SOL    HW122390   4.416   0.854   7.166  0.1065  1.0301 -0.8611
 6874SOL    HW222391   4.557   0.852   7.112 -0.1953  1.3624 -1.6764
 6875SOL     OW22392   6.758   0.561   4.913 -0.0585  0.1459  0.0439
 6875SOL    HW122393   6.749   0.553   4.818 -1.6508 -0.4627  0.2069
 6875SOL    HW222394   6.668   0.566   4.945  0.3706 -1.3434  1.6539
 6876SOL     OW22395   6.812   1.930   2.528 -0.1065 -0.5515 -0.4228
 6876SOL    HW122396   6.818   2.020   2.497 -0.5343 -0.4639 -0.2550
 6876SOL    HW222397   6.737   1.930   2.587 -0.0294 -0.9894 -0.3212
 6877SOL     OW22398   9.062   2.272   5.536  0.1873  0.2223  0.4353
 6877SOL    HW122399   8.983   2.294   5.486  1.4119 -2.6144 -3.0760
 6877SOL    HW222400   9.131   2.325   5.497  0.5819  0.5552  1.5474
 6878SOL     OW22401   8.386   2.463   4.722 -0.4820 -0.3006 -0.3908
 6878SOL    HW122402   8.306   2.422   4.689  0.5049 -0.5875 -2.6189
 6878SOL    HW222403   8.457   2.411   4.683  0.8054  0.0438  1.4002
 6879SOL     OW22404   2.765   0.858   0.810 -0.0475 -0.2471  0.6245
 6879SOL    HW122405   2.725   0.799   0.874 -1.4909  1.5967  1.5170
 6879SOL    HW222406   2.828   0.909   0.861  0.1508 -0.0420  0.1761
 6880SOL     OW22407   3.384   4.906   8.325 -0.0382  0.4244 -0.3198
 6880SOL    HW122408   3.345   4.973   8.269 -0.0807 -0.9180 -1.9919
 6880SOL    HW222409   3.435   4.852   8.265  0.3850 -0.7557  1.0544
 6881SOL     OW22410   1.434   8.742   8.877  0.2266  0.4753 -0.1829
 6881SOL    HW122411   1.462   8.801   8.946  0.6234  0.7041 -0.5385
 6881SOL    HW222412   1.349   8.776   8.849 -1.2187 -1.1216  1.9675
 6882SOL     OW22413   5.574   3.162   6.936  0.6514  1.0000 -0.3147
 6882SOL    HW122414   5.516   3.175   6.860  1.7876  0.7296 -1.2671
 6882SOL    HW222415   5.611   3.074   6.922 -0.5446  0.1350  1.5777
 6883SOL     OW22416   2.441   2.559   6.220 -0.1834  0.4049  0.6652
 6883SOL    HW122417   2.509   2.504   6.181  0.7196  0.9611  1.3866
 6883SOL    HW222418   2.490   2.633   6.258 -0.9361 -0.2605  3.1161
 6884SOL     OW22419   4.317   8.035   3.455  0.1191 -0.3089  0.0103
 6884SOL    HW122420   4.308   8.126   3.427 -0.1483 -0.2809  0.1779
 6884SOL    HW222421   4.407   8.011   3.434  0.1002 -0.0971 -0.3055
 6885SOL     OW22422   8.857   7.056   5.407  0.1890  0.2123 -0.7383
 6885SOL    HW122423   8.802   6.994   5.358  1.0987 -0.2876 -1.1673
 6885SOL    HW222424   8.888   7.117   5.340  0.3149  0.3651 -0.5383
 6886SOL     OW22425   0.531   6.715   0.464 -0.2184 -0.2341 -0.0994
 6886SOL    HW122426   0.597   6.764   0.415  0.6042 -0.1616  1.0231
 6886SOL    HW222427   0.557   6.624   0.455  0.5079 -0.1545  0.9536
 6887SOL     OW22428   8.517   9.291   1.717  0.7769 -0.1700 -0.6196
 6887SOL    HW122429   8.550   9.328   1.635  2.7951  1.2788  0.7471
 6887SOL    HW222430   8.589   9.239   1.751  0.2738 -0.0861  0.6406
 6888SOL     OW22431   2.250   1.709   6.133  0.2626  0.0809 -0.0125
 6888SOL    HW122432   2.304   1.744   6.203  1.5029 -0.4922 -0.6640
 6888SOL    HW222433   2.303   1.716   6.054 -1.2418  1.0422 -0.9939
 6889SOL     OW22434   2.632   2.018   2.679 -0.1113  0.3481 -0.2635
 6889SOL    HW122435   2.539   2.003   2.668  0.2055 -0.7588 -1.7714
 6889SOL    HW222436   2.668   1.932   2.702  0.5112  0.8023  0.5023
 6890SOL     OW22437   6.396   4.652   4.055  0.3039 -0.0453 -0.0785
 6890SOL    HW122438   6.487   4.628   4.033  0.5889  0.6738  0.2732
 6890SOL    HW222439   6.373   4.718   3.991 -0.8576 -1.9375 -1.7250
 6891SOL     OW22440   1.789   2.495   5.581  0.1427 -0.0538 -0.4832
 6891SOL    HW122441   1.783   2.423   5.519  0.4032  0.7011 -1.4041
 6891SOL    HW222442   1.775   2.574   5.528  0.8213  0.6289  0.3296
 6892SOL     OW22443   8.338   3.779   9.463 -0.1964  0.5216  0.2834
 6892SOL    HW122444   8.374   3.791   9.375  0.5865 -0.6361  0.4188
 6892SOL    HW222445   8.336   3.866   9.501  0.4667  0.8882 -0.4991
 6893SOL     OW22446   2.216   7.422   3.708 -0.5418 -0.1026 -0.1773
 6893SOL    HW122447   2.132   7.460   3.681 -1.2464 -1.5169 -0.0600
 6893SOL    HW222448   2.202   7.394   3.798  0.1996  0.0332 -0.0133
 6894SOL     OW22449   8.571   5.621   1.734 -0.5932  0.1746  0.3790
 6894SOL    HW122450   8.500   5.625   1.797 -0.7260  0.7031  0.2023
 6894SOL    HW222451   8.620   5.543   1.758  0.1681  1.0979  2.0036
 6895SOL     OW22452   6.594   8.297   8.112 -0.2557  0.3967 -0.0366
 6895SOL    HW122453   6.643   8.250   8.045 -0.7372  2.1219 -1.6648
 6895SOL    HW222454   6.658   8.355   8.153 -0.1266 -0.1117  0.4904
 6896SOL     OW22455   9.079   9.178   6.643 -0.2049  0.0594 -0.0559
 6896SOL    HW122456   9.023   9.255   6.654 -0.1307  0.1559 -0.3650
 6896SOL    HW222457   9.051   9.139   6.560  0.0443 -0.0109 -0.1061
 6897SOL     OW22458   6.284   6.302   5.857  0.1463 -0.1273  0.1841
 6897SOL    HW122459   6.237   6.231   5.812  0.2878  0.4470 -0.8882
 6897SOL    HW222460   6.376   6.276   5.853  0.5021  1.2677 -2.4444
 6898SOL     OW22461   2.330   7.816   5.013 -0.0217  0.1117 -0.4258
 6898SOL    HW122462   2.378   7.827   5.096  1.5120 -1.3232 -1.0648
 6898SOL    HW222463   2.247   7.861   5.028  0.7222  0.9985  1.4384
 6899SOL     OW22464   5.731   6.409   8.002  0.4064  0.4034 -0.3387
 6899SOL    HW122465   5.705   6.365   7.922 -0.9942 -0.4371  0.5375
 6899SOL    HW222466   5.682   6.492   8.001  0.6520  0.5489 -0.5022
 6900SOL     OW22467   3.514   0.629   7.055  0.1383  0.4898  0.0761
 6900SOL    HW122468   3.569   0.637   6.978 -0.2865  1.4538 -0.1379
 6900SOL    HW222469   3.522   0.714   7.099  0.3735 -0.0461  1.0948
 6901SOL     OW22470   2.201   0.196   1.958 -0.3860  0.0807  0.0827
 6901SOL    HW122471   2.176   0.287   1.966 -0.6510  0.0853 -0.6745
 6901SOL    HW222472   2.296   0.196   1.965 -0.3175  0.5226 -0.6912
 6902SOL     OW22473   9.351   2.075   0.317  0.1709  0.5107  0.0783
 6902SOL    HW122474   9.445   2.088   0.335  0.2890  0.8419 -0.7500
 6902SOL    HW222475   9.349   2.005   0.251 -0.0417  1.8223 -1.3577
 6903SOL     OW22476   4.967   7.431   2.444 -0.2033 -0.1956 -0.6624
 6903SOL    HW122477   4.914   7.355   2.464 -3.1447  1.7494 -0.4413
 6903SOL    HW222478   4.986   7.424   2.350 -0.3208 -1.2193 -0.6131
 6904SOL     OW22479   2.123   7.192   2.423  0.5436  0.0327  0.0507
 6904SOL    HW122480   2.190   7.192   2.492  1.5522  1.0830 -0.8840
 6904SOL    HW222481   2.068   7.268   2.443 -1.5160 -1.8158  1.8209
 6905SOL     OW22482   1.663   8.117   1.029 -0.3175  0.9429  0.5431
 6905SOL    HW122483   1.687   8.202   0.992  1.9468 -0.0322 -0.4053
 6905SOL    HW222484   1.705   8.053   0.972 -2.4928 -0.8932  0.8426
 6906SOL     OW22485   0.201   9.653   7.323  0.0809  0.3023 -0.6537
 6906SOL    HW122486   0.115   9.670   7.285  0.9521 -0.2896 -3.0958
 6906SOL    HW222487   0.244   9.738   7.325 -0.6610  0.6791  0.9948
 6907SOL     OW22488   0.936   5.439   0.371 -0.2883  0.5061  0.2838
 6907SOL    HW122489   1.015   5.424   0.320 -0.5768  0.3226 -0.1104
 6907SOL    HW222490   0.867   5.455   0.306 -0.4511  1.2996  0.6293
 6908SOL     OW22491   0.803   2.463   0.157  0.4271  0.3266 -0.4683
 6908SOL    HW122492   0.835   2.524   0.091 -0.2631  0.7321 -0.4345
 6908SOL    HW222493   0.882   2.422   0.192  0.7934  0.1018 -1.5410
 6909SOL     OW22494   3.360   1.810   3.521 -0.4858 -0.1704 -0.0442
 6909SOL    HW122495   3.270   1.803   3.489 -0.1359 -0.7589 -0.9484
 6909SOL    HW222496   3.358   1.884   3.581 -1.5499 -0.1073 -0.1279
 6910SOL     OW22497   1.807   4.366   6.644 -0.2300 -0.6575  0.3441
 6910SOL    HW122498   1.755   4.288   6.624  0.0452 -1.0226  1.0117
 6910SOL    HW222499   1.892   4.349   6.604 -0.0044 -0.9390  0.9266
 6911SOL     OW22500   2.079   2.309   7.594  0.4975  0.7137  0.3030
 6911SOL    HW122501   2.146   2.354   7.646  1.6376 -0.5564 -0.0185
 6911SOL    HW222502   2.123   2.284   7.513 -1.0933  2.1112 -1.0791
 6912SOL     OW22503   4.427   0.463   3.332 -0.5248  0.1231  0.3173
 6912SOL    HW122504   4.493   0.393   3.329 -2.0045 -1.3126 -0.1541
 6912SOL    HW222505   4.368   0.443   3.259 -1.1480  1.7191  0.3537
 6913SOL     OW22506   1.995   6.741   6.368  0.7465 -0.3707 -0.0087
 6913SOL    HW122507   1.963   6.781   6.449  1.5174  1.1867 -0.4351
 6913SOL    HW222508   1.918   6.701   6.329  0.0857  0.0924  0.7926
 6914SOL     OW22509   9.147   9.267   6.162 -0.0624 -0.5852 -0.0431
 6914SOL    HW122510   9.173   9.359   6.173 -2.2847  0.0651  0.3268
 6914SOL    HW222511   9.199   9.220   6.227 -1.1046  0.8996  1.9928
 6915SOL     OW22512   7.430   4.572   9.599  0.0846  0.1451 -0.2959
 6915SOL    HW122513   7.398   4.663   9.603 -3.2316 -0.8732 -0.6503
 6915SOL    HW222514   7.414   4.537   9.686 -1.6917 -0.9244 -0.9910
 6916SOL     OW22515   0.987   3.578   4.057 -0.6552 -0.3763 -0.0440
 6916SOL    HW122516   0.954   3.568   3.968 -0.6901  1.1813 -0.2362
 6916SOL    HW222517   1.082   3.572   4.048 -0.6991 -1.1871 -0.0323
 6917SOL     OW22518   9.371   5.542   9.452  0.1830 -0.4904  0.2222
 6917SOL    HW122519   9.333   5.461   9.417  0.2374 -0.3039 -0.2804
 6917SOL    HW222520   9.301   5.582   9.503  0.3210 -1.1193  0.9152
 6918SOL     OW22521   0.663   5.917   1.703 -0.4931 -0.5136  0.3806
 6918SOL    HW122522   0.579   5.901   1.662 -0.7059  1.8796 -0.2703
 6918SOL    HW222523   0.723   5.935   1.631 -0.7425  3.1884  0.9208
 6919SOL     OW22524   2.876   2.559   3.217 -0.2040 -0.1197 -0.3391
 6919SOL    HW122525   2.925   2.640   3.228  3.2624 -2.0498 -0.3305
 6919SOL    HW222526   2.891   2.510   3.298 -0.3518 -1.6873 -1.2214
 6920SOL     OW22527   5.059   3.500   9.782  0.1666 -0.1823 -0.0288
 6920SOL    HW122528   4.995   3.494   9.712  0.4854 -0.9277 -0.2663
 6920SOL    HW222529   5.125   3.561   9.750 -2.2112  3.6009  1.6864
 6921SOL     OW22530   5.965   9.736   1.506  0.9208  0.3660  0.0208
 6921SOL    HW122531   5.952   9.668   1.439  0.5302 -2.0893  2.4335
 6921SOL    HW222532   6.060   9.735   1.522  0.8971  0.2906  0.1564
 6922SOL     OW22533   1.007   5.701   5.423  0.1316 -0.6455 -0.2353
 6922SOL    HW122534   1.064   5.657   5.360 -0.0776 -0.3077 -0.6684
 6922SOL    HW222535   0.918   5.674   5.397  0.0031 -0.0292 -0.4690
 6923SOL     OW22536   9.081   8.904   1.148  0.0849  0.2637 -0.1143
 6923SOL    HW122537   9.141   8.891   1.074  0.0506 -0.2825 -0.0433
 6923SOL    HW222538   9.048   8.993   1.135 -0.4972 -0.0921 -1.1779
 6924SOL     OW22539   6.622   2.163   2.656 -0.2318  1.2041 -0.1952
 6924SOL    HW122540   6.604   2.247   2.698 -1.2446  1.5034 -1.1968
 6924SOL    HW222541   6.622   2.183   2.562 -0.6439  0.0624 -0.4489
 6925SOL     OW22542   2.833   0.854   1.293 -0.8311  0.9132  0.0390
 6925SOL    HW122543   2.742   0.870   1.268 -0.3149  1.3461 -1.7099
 6925SOL    HW222544   2.881   0.856   1.211  0.6087 -0.4967  0.7882
 6926SOL     OW22545   7.502   8.106   0.204  0.3181  0.4161  0.2062
 6926SOL    HW122546   7.471   8.041   0.140 -0.3160  0.5773  0.3398
 6926SOL    HW222547   7.476   8.190   0.167 -0.5519  0.4856  0.9208
 6927SOL     OW22548   8.174   9.210   1.311 -0.2416  0.0057  0.0410
 6927SOL    HW122549   8.116   9.266   1.259  2.1487  2.6461 -0.0231
 6927SOL    HW222550   8.249   9.194   1.253  1.1489  0.5428  1.6212
 6928SOL     OW22551   1.156   6.306   0.710  0.4967 -0.0220 -0.2141
 6928SOL    HW122552   1.089   6.238   0.708  0.2231  0.1897  0.8637
 6928SOL    HW222553   1.173   6.325   0.618  0.2138 -1.1806 -0.5327
 6929SOL     OW22554   9.097   0.815   0.950 -0.1346 -0.2356 -0.0439
 6929SOL    HW122555   9.020   0.775   0.991  0.1100 -0.0388  0.6212
 6929SOL    HW222556   9.150   0.740   0.921  0.4870 -0.4264  1.5026
 6930SOL     OW22557   0.635   5.833   2.002  0.1679  0.2400  0.3247
 6930SOL    HW122558   0.678   5.894   2.062 -0.4259  0.1595  0.8442
 6930SOL    HW222559   0.646   5.873   1.916  1.9711 -0.1729  0.3227
 6931SOL     OW22560   4.355   2.997   1.374 -0.1149 -0.0218  0.2453
 6931SOL    HW122561   4.402   2.917   1.400  0.4869  0.6358  1.2105
 6931SOL    HW222562   4.263   2.978   1.394  0.1259 -0.1697  1.2540
 6932SOL     OW22563   5.697   2.196   3.242 -0.0214 -0.3820  0.1244
 6932SOL    HW122564   5.667   2.110   3.272 -0.3738 -0.4109 -0.3040
 6932SOL    HW222565   5.619   2.252   3.247  0.2853  0.0020  0.7259
 6933SOL     OW22566   3.632   2.480   1.080  0.3368  0.1625 -0.2406
 6933SOL    HW122567   3.542   2.458   1.056  0.7825 -0.5922 -1.3287
 6933SOL    HW222568   3.630   2.487   1.176 -0.4739 -1.8633 -0.0446
 6934SOL     OW22569   0.018   6.821   5.489  1.0412 -0.1623 -0.1403
 6934SOL    HW122570  -0.005   6.737   5.528 -0.1224  0.3415  0.2834
 6934SOL    HW222571   0.016   6.805   5.394  0.3657 -0.4892 -0.0697
 6935SOL     OW22572   0.921   4.321   3.509  0.0712 -0.0725 -0.7165
 6935SOL    HW122573   0.826   4.308   3.505  0.1878 -0.8904 -1.2100
 6935SOL    HW222574   0.956   4.258   3.446  0.8174  1.6051 -2.0684
 6936SOL     OW22575   0.017   4.378   1.163 -0.2913 -0.2438 -0.0012
 6936SOL    HW122576   0.021   4.307   1.098  1.2405 -1.2708  1.1388
 6936SOL    HW222577  -0.073   4.410   1.157 -0.5858 -1.2249 -1.6529
 6937SOL     OW22578   7.290   1.442   1.737  0.1396 -0.4336 -0.0441
 6937SOL    HW122579   7.260   1.519   1.785 -0.5458 -0.9756  0.4271
 6937SOL    HW222580   7.364   1.409   1.787  2.0954  1.3002 -1.5752
 6938SOL     OW22581   6.207   6.709   8.115 -0.7324  0.4113  0.2303
 6938SOL    HW122582   6.117   6.730   8.140 -1.0779 -0.3671 -0.3153
 6938SOL    HW222583   6.235   6.644   8.179 -0.0585  1.6575  1.2385
 6939SOL     OW22584   2.068   3.397   7.415  0.4844 -0.0986  0.2870
 6939SOL    HW122585   2.048   3.490   7.426 -1.9306 -0.4317 -0.6057
 6939SOL    HW222586   2.074   3.384   7.320 -2.7534 -1.3700  0.1102
 6940SOL     OW22587   8.263   7.327   7.153  0.6247 -0.6193  0.6791
 6940SOL    HW122588   8.352   7.302   7.129  0.8471  0.7911 -0.1189
 6940SOL    HW222589   8.219   7.343   7.069 -0.1953 -0.7365  1.0780
 6941SOL     OW22590   4.358   9.422   1.348 -0.5931  0.1187  0.5709
 6941SOL    HW122591   4.407   9.386   1.422  0.3751 -0.7865 -0.4716
 6941SOL    HW222592   4.341   9.347   1.292 -0.9634  0.8491 -0.3151
 6942SOL     OW22593   6.073   4.637   6.357 -0.2519 -0.1945 -0.1143
 6942SOL    HW122594   6.003   4.619   6.420  1.0732  1.2370  1.8657
 6942SOL    HW222595   6.127   4.558   6.358 -1.0469 -0.7601 -0.6137
 6943SOL     OW22596   6.012   2.233   4.374  0.3239 -0.5839  0.6459
 6943SOL    HW122597   6.097   2.211   4.413  0.1953  0.7101  1.7534
 6943SOL    HW222598   6.035   2.271   4.289  0.9668  0.6530  1.3316
 6944SOL     OW22599   2.396   7.181   0.597  0.0351  0.4796  0.2234
 6944SOL    HW122600   2.450   7.259   0.584  0.2932  0.2252 -0.2943
 6944SOL    HW222601   2.460   7.110   0.607 -0.1980  0.1424 -0.6156
 6945SOL     OW22602   0.824   0.080   7.828  0.6470  0.6234 -0.2075
 6945SOL    HW122603   0.847   0.037   7.746  0.2121  2.0882 -1.1267
 6945SOL    HW222604   0.747   0.133   7.808  0.6283  1.1411  1.0965
 6946SOL     OW22605   2.885   8.353   4.167 -0.3057  0.4326  0.0079
 6946SOL    HW122606   2.902   8.325   4.257 -1.3638  0.9794  0.3975
 6946SOL    HW222607   2.896   8.273   4.114  0.3040  0.1071  0.6176
 6947SOL     OW22608   6.287   8.214   2.617  0.4481  0.3074  0.2085
 6947SOL    HW122609   6.245   8.152   2.676 -1.1986  1.2860  0.1285
 6947SOL    HW222610   6.308   8.163   2.539  0.3286 -0.4200  0.6416
 6948SOL     OW22611   7.471   8.655   2.127 -0.6192  0.1380 -0.1992
 6948SOL    HW122612   7.499   8.636   2.037 -1.6925 -0.4357 -0.4266
 6948SOL    HW222613   7.381   8.686   2.118 -1.6064 -2.2394  0.8708
 6949SOL     OW22614   2.709   7.840   5.048 -0.0334  0.3648  0.0220
 6949SOL    HW122615   2.645   7.825   5.118 -1.5009  0.6259 -1.2230
 6949SOL    HW222616   2.695   7.931   5.022  1.6557  0.7836  0.4884
 6950SOL     OW22617   8.391   4.659   1.754  0.4754 -0.1867  0.2284
 6950SOL    HW122618   8.387   4.634   1.847  1.2964 -3.3329 -0.4400
 6950SOL    HW222619   8.485   4.668   1.736  0.2606  1.9008 -0.0048
 6951SOL     OW22620   6.130   1.504   2.293  0.3246 -0.3149  0.0654
 6951SOL    HW122621   6.067   1.438   2.265 -1.0239  0.6554  0.6912
 6951SOL    HW222622   6.108   1.582   2.242  0.1501  0.4128  1.2020
 6952SOL     OW22623   2.173   8.818   9.349  0.1666 -0.5635 -0.8371
 6952SOL    HW122624   2.094   8.872   9.358  0.5875 -0.1463  0.4792
 6952SOL    HW222625   2.245   8.880   9.352  0.7157 -1.2364  1.8485
 6953SOL     OW22626   3.681   4.604   4.635  0.3403 -0.2014 -0.0088
 6953SOL    HW122627   3.631   4.676   4.598  1.3726 -0.6182 -2.4556
 6953SOL    HW222628   3.674   4.534   4.569  0.5100 -1.8290  1.6338
 6954SOL     OW22629   9.408   7.192   0.485  0.2824  0.2525 -0.6847
 6954SOL    HW122630   9.455   7.190   0.401 -1.1302  1.4136 -1.5601
 6954SOL    HW222631   9.339   7.126   0.475  1.3747 -1.1137  0.4150
 6955SOL     OW22632   1.481   3.789   6.583 -0.3486  0.3216  0.3678
 6955SOL    HW122633   1.482   3.766   6.675  1.8146 -0.0689  0.2911
 6955SOL    HW222634   1.461   3.707   6.538  0.2185  0.1556  0.4175
 6956SOL     OW22635   4.613   4.576   2.530 -0.1236  0.4814 -0.3277
 6956SOL    HW122636   4.571   4.642   2.585 -1.0306 -1.5777  1.6090
 6956SOL    HW222637   4.543   4.540   2.476 -0.5463 -1.4680  1.3783
 6957SOL     OW22638   2.123   9.175   7.228  0.1674 -0.0588 -0.1976
 6957SOL    HW122639   2.152   9.130   7.308  1.9930 -1.4796 -1.5689
 6957SOL    HW222640   2.099   9.105   7.168 -0.7718  0.9744 -1.0853
 6958SOL     OW22641   1.869   1.659   3.550  0.4954 -0.2807  0.2534
 6958SOL    HW122642   1.912   1.590   3.500 -0.0448 -1.2534  1.1163
 6958SOL    HW222643   1.873   1.736   3.492  2.9700 -0.4380  0.1279
 6959SOL     OW22644   3.654   3.874   0.588  0.0862  0.2600  0.4329
 6959SOL    HW122645   3.602   3.941   0.543 -2.0122  0.9292  3.5527
 6959SOL    HW222646   3.709   3.836   0.519 -1.4458  2.5050 -2.2215
 6960SOL     OW22647   7.866   3.538   1.692 -0.6741 -0.4084 -0.0680
 6960SOL    HW122648   7.922   3.465   1.719  0.6954  0.5200 -0.2986
 6960SOL    HW222649   7.792   3.496   1.648 -0.0871 -1.6736  0.0984
 6961SOL     OW22650   2.825   7.093   9.463 -0.0005  0.8020 -0.0531
 6961SOL    HW122651   2.819   7.031   9.535 -1.5773  0.2233 -0.6522
 6961SOL    HW222652   2.877   7.048   9.396  0.0764  0.6938  0.0794
 6962SOL     OW22653   3.174   4.319   2.748  0.3357 -0.3615  0.2362
 6962SOL    HW122654   3.224   4.289   2.824  2.5355  2.9211  0.2743
 6962SOL    HW222655   3.085   4.331   2.782  0.5264 -1.9676  1.4148
 6963SOL     OW22656   3.569   6.039   7.857 -0.1983  0.5225 -0.0500
 6963SOL    HW122657   3.561   6.058   7.951  1.3277 -0.0125  0.2214
 6963SOL    HW222658   3.567   6.125   7.815  0.0973  0.8434  0.5742
 6964SOL     OW22659   0.025   7.718   2.257  0.3317 -0.6790 -0.1684
 6964SOL    HW122660   0.101   7.766   2.223  0.2021 -1.4813 -1.6802
 6964SOL    HW222661  -0.020   7.782   2.312  0.5653  0.7436 -1.5296
 6965SOL     OW22662   6.196   6.956   8.545 -0.4276 -0.2348  0.0859
 6965SOL    HW122663   6.105   6.945   8.518 -0.5276  0.9387 -0.1193
 6965SOL    HW222664   6.235   7.010   8.476  0.0103  0.5494  0.9203
 6966SOL     OW22665   7.621   2.752   6.283  0.2296 -0.1547  0.3824
 6966SOL    HW122666   7.559   2.699   6.334  3.8729 -1.7454  3.7019
 6966SOL    HW222667   7.610   2.841   6.316 -2.1756  0.2612 -1.2808
 6967SOL     OW22668   9.089   3.937   1.407  0.1344  0.4936 -0.3890
 6967SOL    HW122669   9.162   3.999   1.412 -0.5370  1.3769 -1.1574
 6967SOL    HW222670   9.015   3.984   1.445  0.2877 -0.9893  1.9752
 6968SOL     OW22671   0.580   8.719   3.229  0.1278 -0.2249 -0.0727
 6968SOL    HW122672   0.490   8.734   3.258  0.2828 -1.3751  1.0574
 6968SOL    HW222673   0.571   8.682   3.141 -0.6520 -2.4641  0.8745
 6969SOL     OW22674   3.188   2.735   0.727 -0.4337  0.5061  0.2673
 6969SOL    HW122675   3.141   2.793   0.786 -0.3570  0.3616  0.4726
 6969SOL    HW222676   3.280   2.748   0.748 -0.4755 -0.6411  1.2184
 6970SOL     OW22677   1.121   4.921   2.394  0.1916  0.1633  0.0749
 6970SOL    HW122678   1.032   4.900   2.367  0.5003 -0.7766 -0.2511
 6970SOL    HW222679   1.136   5.009   2.359 -0.0005 -0.3701 -1.4199
 6971SOL     OW22680   2.297   4.221   3.458 -0.3727  0.3236 -0.1839
 6971SOL    HW122681   2.349   4.229   3.538 -0.0708 -0.1325 -0.3302
 6971SOL    HW222682   2.268   4.129   3.458  1.2224 -0.2334 -1.5504
 6972SOL     OW22683   2.657   2.005   0.727  0.3742 -0.4328 -0.0157
 6972SOL    HW122684   2.666   1.957   0.645 -0.9648 -1.1633  0.2311
 6972SOL    HW222685   2.577   2.057   0.716  0.4339 -0.1853  0.6560
 6973SOL     OW22686   5.115   5.011   0.356 -0.2732  0.3551 -0.4158
 6973SOL    HW122687   5.075   4.960   0.285  0.9295 -0.4622 -0.5495
 6973SOL    HW222688   5.174   5.072   0.311 -0.8933  1.1207 -0.2007
 6974SOL     OW22689   0.918   0.058   2.678 -0.6239 -0.1334  0.1297
 6974SOL    HW122690   0.952   0.050   2.589 -1.5818 -2.8497 -0.1051
 6974SOL    HW222691   0.900   0.151   2.690 -0.3903  0.3069 -2.4840
 6975SOL     OW22692   4.356   7.202   8.487 -0.1843  0.2909  0.0687
 6975SOL    HW122693   4.411   7.126   8.508  0.2393  0.3309 -0.8393
 6975SOL    HW222694   4.313   7.178   8.405 -2.0460 -0.0035  1.0640
 6976SOL     OW22695   0.806   0.196   7.289  0.8740 -0.2483  0.4188
 6976SOL    HW122696   0.733   0.256   7.303  0.8819 -0.6408  2.4805
 6976SOL    HW222697   0.862   0.240   7.225 -0.6575  0.4981 -0.4474
 6977SOL     OW22698   6.674   8.444   3.540 -0.4408 -0.3009 -0.1161
 6977SOL    HW122699   6.682   8.385   3.465  0.9126 -0.3178  0.0262
 6977SOL    HW222700   6.740   8.414   3.602  0.2398  1.2997 -0.0089
 6978SOL     OW22701   6.412   7.821   1.778 -0.1164 -0.0251 -0.5593
 6978SOL    HW122702   6.504   7.825   1.752 -0.0117 -0.6106 -0.2899
 6978SOL    HW222703   6.410   7.858   1.866 -0.0676 -0.4389 -0.3845
 6979SOL     OW22704   6.088   4.460   2.296 -0.3650  0.0225 -0.2807
 6979SOL    HW122705   6.180   4.466   2.270  0.4143 -2.1485  1.6158
 6979SOL    HW222706   6.058   4.377   2.260 -1.4296  0.4450 -0.4014
 6980SOL     OW22707   6.502   2.479   0.651  0.1195 -0.0629  0.3513
 6980SOL    HW122708   6.407   2.475   0.659  0.1194  0.5247  0.7369
 6980SOL    HW222709   6.531   2.388   0.663 -0.3394 -0.1248  1.0709
 6981SOL     OW22710   7.647   8.674   6.157  0.1026  0.0714  0.3882
 6981SOL    HW122711   7.650   8.647   6.065 -0.8622  1.4477 -0.0807
 6981SOL    HW222712   7.555   8.665   6.181  0.2265  0.4449  0.9961
 6982SOL     OW22713   2.610   0.189   3.950  0.0281 -0.1573 -0.2841
 6982SOL    HW122714   2.633   0.104   3.913 -2.4110 -0.4464 -1.3135
 6982SOL    HW222715   2.518   0.201   3.928  0.3295  2.8593 -0.3227
 6983SOL     OW22716   8.041   7.549   1.543 -0.6358  0.3885  0.4700
 6983SOL    HW122717   8.061   7.462   1.509  0.0400  0.7228 -0.0283
 6983SOL    HW222718   8.127   7.589   1.558 -0.9383  1.1108  0.3021
 6984SOL     OW22719   8.483   0.340   1.533  0.2396 -0.2583  0.1026
 6984SOL    HW122720   8.518   0.329   1.444  2.3514  0.3040  0.8061
 6984SOL    HW222721   8.544   0.400   1.575 -2.9764  2.8931  0.7105
 6985SOL     OW22722   9.301   2.858   7.405 -0.0531 -0.0314  0.1446
 6985SOL    HW122723   9.298   2.893   7.494 -0.1608 -0.8725  0.4822
 6985SOL    HW222724   9.320   2.934   7.350  1.8955  0.2087  1.0654
 6986SOL     OW22725   2.961   1.597   6.728 -0.4407  0.6887  0.2823
 6986SOL    HW122726   2.942   1.654   6.802 -0.1412  0.2762  0.6769
 6986SOL    HW222727   2.975   1.511   6.766  0.6394  0.6562 -0.1481
 6987SOL     OW22728   3.914   8.023   6.658 -0.0471 -0.0106 -0.0711
 6987SOL    HW122729   3.962   8.054   6.582  3.7479 -0.2596  1.9689
 6987SOL    HW222730   3.896   8.102   6.709  0.2886 -0.1519  0.2661
 6988SOL     OW22731   0.664   3.744   3.355  0.0063 -0.3051 -0.1695
 6988SOL    HW122732   0.758   3.745   3.372  0.0348 -1.1437 -0.2450
 6988SOL    HW222733   0.624   3.737   3.442  0.0296 -0.3470 -0.1618
 6989SOL     OW22734   8.670   8.982   1.141  0.0049 -0.1291 -0.2328
 6989SOL    HW122735   8.602   8.925   1.175  0.0486 -0.5853 -0.8727
 6989SOL    HW222736   8.733   8.991   1.213 -1.7894  2.1348  1.1643
 6990SOL     OW22737   7.968   8.014   5.658 -0.6075  0.2190  0.1978
 6990SOL    HW122738   7.890   8.061   5.629  0.5158  1.8800 -0.2622
 6990SOL    HW222739   7.985   7.949   5.589 -1.7334 -0.3944  0.4661
 6991SOL     OW22740   1.244   3.463   2.274  0.0382 -0.4354  0.3159
 6991SOL    HW122741   1.150   3.473   2.285 -0.2864  0.0960 -2.2085
 6991SOL    HW222742   1.276   3.435   2.360 -2.3390 -0.2436  1.3400
 6992SOL     OW22743   6.664   2.923   0.890  0.3275  0.1484 -0.6385
 6992SOL    HW122744   6.606   2.963   0.954 -1.0384 -0.8613 -1.1834
 6992SOL    HW222745   6.752   2.945   0.920 -0.3020  0.8727  0.7837
 6993SOL     OW22746   0.410   0.988   9.761 -0.4503  0.0110  0.8002
 6993SOL    HW122747   0.327   0.953   9.728 -0.8567  2.0243 -0.4427
 6993SOL    HW222748   0.444   0.918   9.818 -2.0294 -1.6579 -0.1921
 6994SOL     OW22749   0.869   4.209   4.402  0.1622  0.6548 -0.4351
 6994SOL    HW122750   0.816   4.178   4.475  0.3697 -0.0496 -0.5680
 6994SOL    HW222751   0.901   4.128   4.361 -0.2989  1.0220 -1.5537
 6995SOL     OW22752   3.834   5.950   3.582  0.2736  0.2915  0.4110
 6995SOL    HW122753   3.891   5.906   3.645 -0.0628  0.3623  0.7686
 6995SOL    HW222754   3.750   5.905   3.590  0.3317  0.0570 -0.2552
 6996SOL     OW22755   7.837   4.155   2.136 -0.6843  0.0438  0.0107
 6996SOL    HW122756   7.842   4.068   2.175  2.1415  0.7956  1.6269
 6996SOL    HW222757   7.858   4.141   2.044 -1.4070 -1.1076  0.0046
 6997SOL     OW22758   1.619   0.626   2.512  0.2671  0.3592  0.1459
 6997SOL    HW122759   1.644   0.559   2.575 -1.5244  0.3065  0.8611
 6997SOL    HW222760   1.660   0.598   2.430 -0.6278 -1.8017  0.3533
 6998SOL     OW22761   7.903   3.620   7.856  0.2288  0.1306 -0.3306
 6998SOL    HW122762   7.823   3.579   7.889 -0.6929  3.5901  2.3792
 6998SOL    HW222763   7.873   3.678   7.786  0.0209  2.2531  1.4088
 6999SOL     OW22764   6.686   2.971   4.842  0.3586  0.3564 -0.9192
 6999SOL    HW122765   6.677   2.879   4.866 -2.8599  0.1963 -2.3211
 6999SOL    HW222766   6.631   2.981   4.765  2.5913  2.9671 -2.3351
 7000SOL     OW22767   0.645   2.437   8.462  0.2056 -0.3092  0.1956
 7000SOL    HW122768   0.697   2.357   8.456  0.8091  0.0067  1.0353
 7000SOL    HW222769   0.554   2.407   8.452  0.4412 -1.0623  0.2332
 7001SOL     OW22770   0.251   5.672   2.339 -0.0893  0.5720 -0.7678
 7001SOL    HW122771   0.178   5.650   2.396  0.6351 -0.3997 -0.1878
 7001SOL    HW222772   0.260   5.596   2.281 -1.2110  1.7851 -2.6511
 7002SOL     OW22773   6.745   1.521   8.475  0.1879  0.7030  0.5364
 7002SOL    HW122774   6.810   1.515   8.545  1.0144  0.2450 -0.2576
 7002SOL    HW222775   6.765   1.448   8.416 -0.3980  1.1707 -0.2673
 7003SOL     OW22776   2.804   8.446   0.422 -0.1147  0.3247 -0.6120
 7003SOL    HW122777   2.890   8.484   0.404  0.1971 -0.2976 -0.4689
 7003SOL    HW222778   2.759   8.447   0.338 -0.3285  1.5176 -0.5073
 7004SOL     OW22779   5.197   3.768   6.090 -0.2302 -0.0351 -0.6158
 7004SOL    HW122780   5.173   3.831   6.159 -0.9670 -1.0439  0.0901
 7004SOL    HW222781   5.149   3.798   6.013 -0.4810  0.3301 -0.3251
 7005SOL     OW22782   4.413   6.734   6.437 -0.3398 -0.3328  0.3013
 7005SOL    HW122783   4.374   6.814   6.403  0.4801 -0.3466 -0.6952
 7005SOL    HW222784   4.507   6.745   6.424 -0.2897 -1.9897 -1.0497
 7006SOL     OW22785   5.985   6.885   6.817  0.2467  0.0092  0.6076
 7006SOL    HW122786   6.049   6.952   6.842  0.3027 -0.2764  1.2712
 7006SOL    HW222787   5.991   6.819   6.887  0.5217 -0.9220 -0.2658
 7007SOL     OW22788   9.795   1.451   7.790 -0.4061 -0.1685 -0.7944
 7007SOL    HW122789   9.841   1.442   7.706  0.9246  0.6580 -0.1882
 7007SOL    HW222790   9.747   1.533   7.781  0.4468  0.3853 -0.4530
 7008SOL     OW22791   2.153   9.661   5.150 -0.4542  0.2025 -0.1217
 7008SOL    HW122792   2.210   9.682   5.075 -1.2057  2.5463 -0.1104
 7008SOL    HW222793   2.213   9.632   5.218  0.3713 -0.6872 -1.1835
 7009SOL     OW22794   8.633   9.623   4.598 -0.4029 -0.0265 -0.8332
 7009SOL    HW122795   8.539   9.642   4.600 -0.5794 -0.9428  0.8279
 7009SOL    HW222796   8.674   9.709   4.606 -1.1667  0.1872  1.9344
 7010SOL     OW22797   9.342   9.238   3.488  0.2409 -0.1418  0.1293
 7010SOL    HW122798   9.377   9.324   3.511 -0.1115 -0.2309  1.0451
 7010SOL    HW222799   9.410   9.177   3.516 -0.7894 -0.3562  2.4313
 7011SOL     OW22800   1.137   2.313   0.148 -0.1150 -0.0460 -0.0889
 7011SOL    HW122801   1.116   2.337   0.238 -1.0372 -0.4761 -0.1730
 7011SOL    HW222802   1.140   2.217   0.149  2.5031 -0.0352  0.0273
 7012SOL     OW22803   6.474   7.957   2.854 -0.3370 -0.0657  0.3860
 7012SOL    HW122804   6.540   8.004   2.904  0.5262 -0.2174 -0.5582
 7012SOL    HW222805   6.396   7.959   2.908  0.9013 -1.4017  2.3681
 7013SOL     OW22806   2.180   2.710   1.446  0.1129 -0.0851 -0.0410
 7013SOL    HW122807   2.200   2.627   1.488 -0.5054 -0.0643  0.3099
 7013SOL    HW222808   2.217   2.702   1.358  0.2575 -0.6426  0.0684
 7014SOL     OW22809   6.412   2.544   3.748  0.2758 -0.2662  0.2661
 7014SOL    HW122810   6.354   2.615   3.774 -0.2178 -0.8371  0.7719
 7014SOL    HW222811   6.358   2.465   3.757  0.2609 -0.5683 -1.9343
 7015SOL     OW22812   3.050   0.659   8.962 -0.2411  0.0277  0.3097
 7015SOL    HW122813   3.055   0.748   8.926  1.0129 -0.7021 -1.4542
 7015SOL    HW222814   3.094   0.665   9.047 -1.7848  1.4387  1.0703
 7016SOL     OW22815   2.034   8.415   9.675 -0.3143  0.0028  0.0713
 7016SOL    HW122816   2.013   8.467   9.597 -1.2525 -0.8067 -0.2361
 7016SOL    HW222817   1.961   8.354   9.684 -1.4070  1.5445  2.9300
 7017SOL     OW22818   4.420   5.798   1.046 -0.2020  0.0726  0.2820
 7017SOL    HW122819   4.475   5.876   1.029 -0.3327 -0.1600 -1.4276
 7017SOL    HW222820   4.338   5.817   0.999 -1.5292  0.2838  2.5597
 7018SOL     OW22821   4.816   0.162   2.253 -0.1078  0.5608 -0.6898
 7018SOL    HW122822   4.830   0.255   2.272  1.7392  0.2998 -0.5961
 7018SOL    HW222823   4.879   0.116   2.309 -3.0437 -0.9982  1.6192
 7019SOL     OW22824   8.169   6.860   3.021  0.0584  0.5796  0.7615
 7019SOL    HW122825   8.104   6.912   3.069  0.9180  1.1578  1.3362
 7019SOL    HW222826   8.161   6.890   2.930 -0.9828  0.1048  0.6870
 7020SOL     OW22827   4.108   1.742   4.305  1.2677  0.3293 -0.3150
 7020SOL    HW122828   4.128   1.827   4.265 -1.0930  0.8577 -0.5075
 7020SOL    HW222829   4.056   1.763   4.382  0.9454 -0.9369 -0.1711
 7021SOL     OW22830   3.803   9.445   4.978 -0.3012  0.4531  0.3707
 7021SOL    HW122831   3.858   9.462   5.054 -1.3480  0.0996  1.2239
 7021SOL    HW222832   3.743   9.520   4.974 -0.0390  0.6383 -0.3151
 7022SOL     OW22833   8.709   3.208   3.930  0.0568 -0.2768 -0.1681
 7022SOL    HW122834   8.765   3.186   3.856 -0.3230 -0.9389 -0.2698
 7022SOL    HW222835   8.642   3.266   3.894 -0.9466 -1.6804 -0.6833
 7023SOL     OW22836   3.998   5.398   3.115  0.1463 -0.8322  0.4406
 7023SOL    HW122837   3.953   5.396   3.199  0.0762  1.1129  0.4822
 7023SOL    HW222838   4.077   5.346   3.129 -0.1672 -1.0430  1.5158
 7024SOL     OW22839   1.118   8.909   5.465  0.3334 -0.7145  0.2348
 7024SOL    HW122840   1.179   8.973   5.429 -0.4081  0.2487  0.6277
 7024SOL    HW222841   1.128   8.917   5.560 -0.3316 -0.5974  0.3010
 7025SOL     OW22842   2.732   6.035   7.243 -0.2982  0.3554  0.5408
 7025SOL    HW122843   2.650   6.035   7.291 -0.1160  1.3638  0.8800
 7025SOL    HW222844   2.710   6.075   7.158 -0.0162  1.4045  0.9371
 7026SOL     OW22845   1.027   7.253   4.621 -0.3353 -0.0284  0.2255
 7026SOL    HW122846   1.010   7.225   4.532  1.0745 -2.7712  0.7153
 7026SOL    HW222847   0.987   7.186   4.676  0.0336  0.8386  1.6176
 7027SOL     OW22848   5.898   3.438   8.476 -0.0098  0.0268 -0.0177
 7027SOL    HW122849   5.970   3.396   8.522 -0.5463 -0.8967  0.0060
 7027SOL    HW222850   5.913   3.532   8.489  1.2809 -0.1438 -0.1876
 7028SOL     OW22851   5.478   4.141   7.476  0.0241 -0.3464 -0.5368
 7028SOL    HW122852   5.573   4.145   7.484 -0.1864  0.4487  3.0534
 7028SOL    HW222853   5.452   4.230   7.452  0.1297 -0.5075 -1.2830
 7029SOL     OW22854   5.280   7.690   6.254 -0.6511 -0.2410 -0.2053
 7029SOL    HW122855   5.233   7.721   6.177 -0.4825 -1.4326 -0.8155
 7029SOL    HW222856   5.269   7.595   6.252 -0.1642 -0.3431  0.9321
 7030SOL     OW22857   7.727   7.807   7.321 -0.2795 -0.4653  0.0627
 7030SOL    HW122858   7.811   7.852   7.318  0.3045 -1.2966  2.2716
 7030SOL    HW222859   7.662   7.878   7.317  0.5264  0.2646 -0.4755
 7031SOL     OW22860   0.773   8.882   2.601 -0.3165  0.2128  0.0837
 7031SOL    HW122861   0.832   8.815   2.566  1.1956  1.6243 -0.2164
 7031SOL    HW222862   0.701   8.833   2.640  0.6296 -1.5664 -0.3044
 7032SOL     OW22863   1.676   7.861   7.228  0.0880 -0.7890 -0.4618
 7032SOL    HW122864   1.725   7.907   7.159  2.9883 -2.7027  0.1059
 7032SOL    HW222865   1.648   7.779   7.186  1.2275 -1.6263  0.3150
 7033SOL     OW22866   5.385   1.151   5.636 -0.1401 -0.3234 -0.2581
 7033SOL    HW122867   5.316   1.144   5.701 -0.2470 -2.0865 -0.4946
 7033SOL    HW222868   5.342   1.186   5.558 -0.8796 -1.6764 -0.4967
 7034SOL     OW22869   7.551   2.081   2.788 -0.4236  0.0010  0.4125
 7034SOL    HW122870   7.566   2.094   2.882 -0.4412  0.4526  0.3549
 7034SOL    HW222871   7.464   2.118   2.773  0.6362  2.4214 -0.2707
 7035SOL     OW22872   6.985   5.172   0.375  0.3089  0.3349  0.0177
 7035SOL    HW122873   6.978   5.077   0.383  1.2485  0.2177 -0.3753
 7035SOL    HW222874   7.055   5.197   0.436  0.7095  0.6437 -0.5526
 7036SOL     OW22875   1.567   7.187   2.616  0.3211 -0.3016 -0.0840
 7036SOL    HW122876   1.625   7.147   2.681 -0.7674 -0.8207  0.6020
 7036SOL    HW222877   1.610   7.169   2.532  0.6248 -1.6281  0.3225
 7037SOL     OW22878   3.909   8.013   7.145 -0.0384 -0.2769  0.7025
 7037SOL    HW122879   3.825   8.035   7.183 -0.6107  1.4388 -1.3573
 7037SOL    HW222880   3.905   8.047   7.056  2.7665 -0.3027  0.4677
 7038SOL     OW22881   8.250   1.216   9.115  0.0941  0.2878  0.1216
 7038SOL    HW122882   8.327   1.223   9.170  0.0290  0.3194  0.2101
 7038SOL    HW222883   8.278   1.164   9.040  0.0607 -0.1367  0.4022
 7039SOL     OW22884   9.308   1.858   8.682 -0.0540  0.4143 -0.4148
 7039SOL    HW122885   9.297   1.782   8.739  1.8523  0.2316 -0.2356
 7039SOL    HW222886   9.389   1.898   8.711 -1.6350  3.3496  0.3885
 7040SOL     OW22887   2.240   1.166   7.052 -0.0059 -0.1409 -0.2377
 7040SOL    HW122888   2.205   1.184   6.965  1.2610  1.0093 -0.5509
 7040SOL    HW222889   2.163   1.144   7.105 -1.0055  0.7671 -1.2527
 7041SOL     OW22890   7.491   7.503   6.580 -0.0853 -0.6180 -0.0883
 7041SOL    HW122891   7.517   7.554   6.503 -1.7180 -0.3788 -0.5329
 7041SOL    HW222892   7.422   7.555   6.621 -0.4824 -1.5878  0.5240
 7042SOL     OW22893   7.050   1.639   7.456 -0.0442 -0.4980  0.4866
 7042SOL    HW122894   7.080   1.730   7.447 -1.8668  0.1615  0.6616
 7042SOL    HW222895   7.068   1.600   7.370 -2.2379  1.0209 -0.7710
 7043SOL     OW22896   6.276   3.964   1.937 -0.1872 -0.0936 -0.2383
 7043SOL    HW122897   6.296   3.917   1.856  1.8509  0.4860 -0.1344
 7043SOL    HW222898   6.182   3.978   1.935 -0.0956  0.5486 -2.8677
 7044SOL     OW22899   8.920   5.368   5.568 -0.5942  0.3962  0.0717
 7044SOL    HW122900   8.885   5.334   5.650 -0.4261 -0.2741 -0.1278
 7044SOL    HW222901   8.967   5.294   5.529  0.6657  1.1400  0.1209
 7045SOL     OW22902   3.512   5.084   6.552  0.2870 -0.0852 -0.3229
 7045SOL    HW122903   3.528   5.002   6.598  1.3971  0.9980  1.2964
 7045SOL    HW222904   3.424   5.110   6.579  0.4314 -0.1083  0.1775
 7046SOL     OW22905   2.412   8.205   5.818  0.7165 -0.7102  0.3035
 7046SOL    HW122906   2.376   8.210   5.907  3.2111 -0.9889  1.4333
 7046SOL    HW222907   2.479   8.273   5.816  0.6726 -0.6906 -1.4123
 7047SOL     OW22908   3.792   3.062   9.306  0.0101  0.7923  0.0560
 7047SOL    HW122909   3.855   3.032   9.372 -1.6686 -0.9684  0.9387
 7047SOL    HW222910   3.817   3.016   9.226  0.3359  0.7226  0.1975
 7048SOL     OW22911   3.068   5.755   2.231  0.2786 -0.1313 -0.1698
 7048SOL    HW122912   3.156   5.793   2.234  0.7004 -1.1738  1.7299
 7048SOL    HW222913   3.027   5.781   2.313 -1.4663  0.8600 -1.2905
 7049SOL     OW22914   8.849   7.465   3.953 -0.4471  0.4983 -0.1033
 7049SOL    HW122915   8.763   7.502   3.972 -1.5600 -0.0781 -3.3446
 7049SOL    HW222916   8.902   7.541   3.928  0.0976  0.8661  1.9904
 7050SOL     OW22917   6.263   4.314   0.229 -0.8262  0.1258 -0.0762
 7050SOL    HW122918   6.256   4.404   0.197 -1.8550 -0.6590 -2.2205
 7050SOL    HW222919   6.333   4.276   0.176 -2.0071 -0.9882 -0.8769
 7051SOL     OW22920   2.076   9.246   1.099 -0.1806  0.3733 -0.3410
 7051SOL    HW122921   2.117   9.167   1.135 -0.2195  0.6312  0.2634
 7051SOL    HW222922   1.985   9.221   1.084 -0.0135  0.0650 -0.8893
 7052SOL     OW22923   2.972   7.926   2.201 -0.2162 -0.0647 -0.0288
 7052SOL    HW122924   2.948   7.850   2.149  2.6451 -0.9120 -0.2323
 7052SOL    HW222925   3.015   7.985   2.139  0.1841  0.4274  0.7027
 7053SOL     OW22926   3.251   0.959   3.370 -0.0714 -0.4518  0.3254
 7053SOL    HW122927   3.317   0.894   3.344  1.1904  0.8542  0.1683
 7053SOL    HW222928   3.174   0.906   3.393  0.8050 -1.9848 -0.0930
 7054SOL     OW22929   2.657   6.739   8.902  0.0328  0.0650  0.1967
 7054SOL    HW122930   2.593   6.810   8.912 -0.4748 -0.3493 -0.0510
 7054SOL    HW222931   2.630   6.673   8.967 -0.4354 -0.5733 -0.6298
 7055SOL     OW22932   1.172   0.677   8.826 -0.1094  0.2824  0.3428
 7055SOL    HW122933   1.159   0.685   8.921  0.6822  0.7554  0.4221
 7055SOL    HW222934   1.132   0.756   8.790 -1.4624 -0.4508  0.1515
 7056SOL     OW22935   6.654   9.429   0.220  0.1994  0.0089  0.1037
 7056SOL    HW122936   6.588   9.362   0.205 -1.2250  1.2544  0.5020
 7056SOL    HW222937   6.712   9.423   0.144 -1.0069 -0.4172 -0.8133
 7057SOL     OW22938   7.908   7.229   3.289  0.4228  0.5989  0.0429
 7057SOL    HW122939   7.950   7.243   3.374 -0.3848  1.6977  0.2797
 7057SOL    HW222940   7.822   7.270   3.297 -0.7102 -1.5024 -0.4526
 7058SOL     OW22941   6.127   9.471   8.654 -0.0542  0.4335 -0.6158
 7058SOL    HW122942   6.060   9.539   8.643 -0.2767  0.0238 -1.9386
 7058SOL    HW222943   6.081   9.399   8.697  0.3630  1.3370  1.5233
 7059SOL     OW22944   8.688   2.494   4.444 -0.2446 -0.2048  0.3217
 7059SOL    HW122945   8.671   2.437   4.519  2.3495 -1.0231  0.3754
 7059SOL    HW222946   8.658   2.444   4.368  0.4148 -0.9407  0.5302
 7060SOL     OW22947   0.606   3.934   0.653 -0.3903 -0.0787 -0.7490
 7060SOL    HW122948   0.631   3.932   0.561  0.6325  2.8932 -0.6409
 7060SOL    HW222949   0.685   3.905   0.700  0.5660  2.3269 -0.7231
 7061SOL     OW22950   8.184   7.546   5.675 -0.2188  0.2548 -0.2127
 7061SOL    HW122951   8.191   7.587   5.761 -1.8496  0.7170 -0.2778
 7061SOL    HW222952   8.124   7.602   5.626 -0.0453 -0.5161 -1.3564
 7062SOL     OW22953   0.062   6.924   3.060  0.1511 -0.3154 -0.3872
 7062SOL    HW122954   0.153   6.941   3.038  0.4810 -0.1493  1.0005
 7062SOL    HW222955   0.024   7.011   3.075  0.1834 -0.4509  0.5459
 7063SOL     OW22956   7.570   7.680   9.098 -0.1682  0.2508 -0.5921
 7063SOL    HW122957   7.655   7.674   9.054  0.7663 -0.8201  1.2325
 7063SOL    HW222958   7.523   7.602   9.068 -0.4013  0.6904 -1.3813
 7064SOL     OW22959   7.653   0.838   6.444  0.5456 -0.5615 -0.0758
 7064SOL    HW122960   7.558   0.828   6.437  0.1859  1.5099  1.1243
 7064SOL    HW222961   7.687   0.751   6.424 -1.7261 -1.9518  1.5882
 7065SOL     OW22962   2.319   9.833   7.204 -0.4747 -0.0369  0.1828
 7065SOL    HW122963   2.310   9.901   7.271 -0.7966 -0.7760  0.9023
 7065SOL    HW222964   2.252   9.854   7.139  1.2246  1.9306 -1.0439
 7066SOL     OW22965   2.059   5.520   3.917  0.8658 -0.7396  0.3730
 7066SOL    HW122966   1.985   5.460   3.928 -0.2459  0.8846  2.6280
 7066SOL    HW222967   2.120   5.494   3.986  0.8900 -0.0360  0.6244
 7067SOL     OW22968   1.757   3.057   0.901  0.4842 -0.5437 -0.3276
 7067SOL    HW122969   1.740   2.963   0.911 -2.5158 -0.2281 -1.3727
 7067SOL    HW222970   1.671   3.096   0.886  1.4873  2.5685  1.0540
 7068SOL     OW22971   8.023   0.407   7.618 -0.5293  0.1457 -0.9155
 7068SOL    HW122972   8.054   0.320   7.596 -2.6663 -1.2970  1.3427
 7068SOL    HW222973   7.948   0.393   7.676 -0.3736  3.4861  0.3354
 7069SOL     OW22974   9.341   1.544   3.482  0.0996 -0.7512 -0.1241
 7069SOL    HW122975   9.416   1.594   3.450  0.1118  1.2343  2.6011
 7069SOL    HW222976   9.266   1.579   3.433  0.4946 -0.0836 -0.2659
 7070SOL     OW22977   7.349   6.582   4.685  0.1739  0.2394  0.0249
 7070SOL    HW122978   7.352   6.506   4.627 -2.4961  0.6054 -0.7157
 7070SOL    HW222979   7.309   6.549   4.765 -0.0383  0.6428  0.0867
 7071SOL     OW22980   6.224   8.122   0.267 -0.7040  0.2023  0.3056
 7071SOL    HW122981   6.212   8.176   0.190  0.7593  1.7442  1.0959
 7071SOL    HW222982   6.145   8.068   0.271 -0.9000  0.1991 -2.1293
 7072SOL     OW22983   5.258   1.212   8.497 -0.3777  0.1585 -0.4621
 7072SOL    HW122984   5.252   1.214   8.592 -0.0151 -2.2985 -0.3320
 7072SOL    HW222985   5.349   1.235   8.477 -0.3906  0.4218 -0.2282
 7073SOL     OW22986   5.958   0.259   7.398 -0.2358  0.1365  0.1672
 7073SOL    HW122987   6.021   0.197   7.436  1.3677  1.2190 -0.6111
 7073SOL    HW222988   5.902   0.284   7.471  1.2517  0.3376  1.2900
 7074SOL     OW22989   0.610   2.440   5.170 -0.1848  0.3514 -0.6405
 7074SOL    HW122990   0.528   2.416   5.214  0.1321  1.0502  0.3787
 7074SOL    HW222991   0.611   2.387   5.090 -0.3061 -1.7506  0.6815
 7075SOL     OW22992   8.294   2.244   7.612  0.4029 -0.0368 -0.1224
 7075SOL    HW122993   8.342   2.201   7.683 -0.4337 -0.4007  0.2439
 7075SOL    HW222994   8.289   2.179   7.543  0.7754  0.1374 -0.3123
 7076SOL     OW22995   3.409   1.219   2.676  0.5596 -0.2873  0.1523
 7076SOL    HW122996   3.503   1.215   2.695  0.8180  3.6311  0.5266
 7076SOL    HW222997   3.401   1.183   2.587  2.6596  0.3750 -0.3654
 7077SOL     OW22998   6.649   3.781   4.706  0.5537 -0.2444  0.0639
 7077SOL    HW122999   6.677   3.858   4.657  2.0637 -1.3828 -0.9510
 7077SOL    HW223000   6.635   3.713   4.640 -1.0166 -0.7995  0.9063
 7078SOL     OW23001   4.114   7.753   4.984  0.0490 -0.2176  0.4282
 7078SOL    HW123002   4.151   7.672   4.949 -1.5765 -0.9116  0.2354
 7078SOL    HW223003   4.183   7.788   5.041  0.7018 -1.8535  0.7011
 7079SOL     OW23004   1.117   8.150   1.730 -0.4078 -0.0434 -0.1722
 7079SOL    HW123005   1.152   8.133   1.817  1.8017  2.7197 -0.3970
 7079SOL    HW223006   1.113   8.064   1.689  1.2209 -1.0871  1.6892
 7080SOL     OW23007   3.936   9.540   0.223 -0.0634  0.1346  0.0778
 7080SOL    HW123008   3.986   9.582   0.152  1.4959 -1.9872 -0.1794
 7080SOL    HW223009   3.845   9.544   0.193  0.1677  2.0503 -0.5427
 7081SOL     OW23010   6.368   1.426   4.104 -0.1132 -0.3903 -0.0933
 7081SOL    HW123011   6.392   1.462   4.190  2.2810 -1.2135 -0.3381
 7081SOL    HW223012   6.392   1.333   4.109 -1.6202 -0.8786 -1.0889
 7082SOL     OW23013   5.421   3.450   0.211  0.1680  0.2465  0.2806
 7082SOL    HW123014   5.371   3.531   0.204 -0.4694  0.0824  2.1971
 7082SOL    HW223015   5.418   3.412   0.123 -1.2687  1.3030 -0.1603
 7083SOL     OW23016   8.529   7.626   2.036  0.0944  0.1179  0.3818
 7083SOL    HW123017   8.477   7.689   1.985 -1.1586 -1.1079  0.0880
 7083SOL    HW223018   8.506   7.644   2.127 -0.4506 -0.0550  0.2849
 7084SOL     OW23019   1.233   8.654   5.808 -0.0058  0.5521 -0.0802
 7084SOL    HW123020   1.258   8.646   5.900 -0.7485  3.2697  0.4451
 7084SOL    HW223021   1.313   8.682   5.764 -0.0409  0.8603  0.0487
 7085SOL     OW23022   0.978   0.147   1.412 -0.3337  0.2584  0.6305
 7085SOL    HW123023   1.017   0.210   1.351 -0.9203  1.4224  1.4172
 7085SOL    HW223024   1.005   0.061   1.379 -2.6445  0.6409 -2.7082
 7086SOL     OW23025   4.551   4.012   2.140  0.0771 -0.1767  0.6530
 7086SOL    HW123026   4.550   3.988   2.047 -0.4857 -0.1250  0.6443
 7086SOL    HW223027   4.460   4.033   2.161  0.4682  1.5625  0.7726
 7087SOL     OW23028   4.892   6.889   1.146  0.1788 -0.0314  0.6946
 7087SOL    HW123029   4.886   6.799   1.115 -1.5144 -0.0385  0.9418
 7087SOL    HW223030   4.973   6.891   1.197  0.3500 -1.3571  0.5173
 7088SOL     OW23031   0.260   2.271   5.976 -0.1163  0.1135  0.1639
 7088SOL    HW123032   0.297   2.339   5.919  0.7912  0.5816  1.2850
 7088SOL    HW223033   0.181   2.242   5.930  0.6985  0.3162 -1.4420
 7089SOL     OW23034   2.599   4.367   2.329  0.1679  0.1877 -0.1923
 7089SOL    HW123035   2.650   4.300   2.284  0.5774  1.4997 -1.7993
 7089SOL    HW223036   2.622   4.448   2.285 -2.2016  1.0609  0.0118
 7090SOL     OW23037   7.186   9.128   4.256  0.3301 -0.0854  0.1611
 7090SOL    HW123038   7.252   9.064   4.285 -0.8022 -1.6531 -0.5632
 7090SOL    HW223039   7.146   9.159   4.337 -0.1695 -1.5232  0.5042
 7091SOL     OW23040   3.029   3.070   5.590 -0.4798  0.2120  0.5725
 7091SOL    HW123041   3.025   3.154   5.635  0.5963  0.8344 -0.4577
 7091SOL    HW223042   3.025   3.091   5.497  4.1877 -0.3758 -0.0282
 7092SOL     OW23043   9.379   7.008   7.967 -0.5608  0.3335 -0.2891
 7092SOL    HW123044   9.294   7.050   7.951 -0.2154  0.4758 -1.9139
 7092SOL    HW223045   9.443   7.076   7.947 -0.0386 -0.1195 -0.1630
 7093SOL     OW23046   8.649   6.797   4.017  0.6078 -0.2048 -0.3299
 7093SOL    HW123047   8.607   6.720   3.978  1.8996 -0.5688 -1.0989
 7093SOL    HW223048   8.670   6.770   4.106  1.3890 -0.9219 -0.7059
 7094SOL     OW23049   8.143   4.876   4.023  0.0533  0.0966 -0.1998
 7094SOL    HW123050   8.213   4.924   3.978  0.3089 -0.1388 -0.0513
 7094SOL    HW223051   8.137   4.793   3.976  1.0028 -0.5657  0.8133
 7095SOL     OW23052   0.022   3.373   4.511 -0.5508  0.1799  0.3896
 7095SOL    HW123053  -0.067   3.350   4.536 -0.2898 -2.6472 -0.8868
 7095SOL    HW223054   0.076   3.341   4.584 -0.4926  1.9634  1.2030
 7096SOL     OW23055   6.887   3.138   4.873  0.1530 -0.8630 -0.2609
 7096SOL    HW123056   6.927   3.084   4.941 -1.3168 -1.2667  0.3091
 7096SOL    HW223057   6.807   3.092   4.849 -0.0876  0.0213 -1.2491
 7097SOL     OW23058   4.497   3.098   6.346 -0.3928  0.4383  0.0867
 7097SOL    HW123059   4.411   3.138   6.344 -1.1994 -1.1955 -0.2701
 7097SOL    HW223060   4.510   3.065   6.257  0.8897  1.2076 -0.0363
 7098SOL     OW23061   1.334   8.936   1.858  0.1837  0.0238 -0.7214
 7098SOL    HW123062   1.290   8.916   1.775  2.0340 -1.0679 -1.5061
 7098SOL    HW223063   1.427   8.934   1.837  0.6689  1.2218  1.0920
 7099SOL     OW23064   4.799   2.506   7.508  0.2091  0.2680 -0.0883
 7099SOL    HW123065   4.708   2.506   7.536  0.2602  0.6417  0.0975
 7099SOL    HW223066   4.797   2.541   7.419  0.2638  1.2643  0.2866
 7100SOL     OW23067   7.161   4.072   4.702  0.0044  0.0372  0.1293
 7100SOL    HW123068   7.085   4.060   4.758  1.6230 -1.5084  2.1333
 7100SOL    HW223069   7.177   3.985   4.663  0.4946  0.4401 -0.6059
 7101SOL     OW23070   6.451   7.398   1.920 -0.1479  0.4119 -0.6630
 7101SOL    HW123071   6.361   7.413   1.888 -0.9951 -0.1994  1.2817
 7101SOL    HW223072   6.441   7.385   2.014  2.1154  1.2121 -0.2525
 7102SOL     OW23073   3.281   8.988   4.771  0.2263 -0.3248  0.1729
 7102SOL    HW123074   3.225   8.966   4.845  0.4106  1.1276  0.7662
 7102SOL    HW223075   3.269   8.915   4.710 -2.9826  0.3137 -0.1387
 7103SOL     OW23076   5.285   3.356   5.547 -0.1304 -0.3155 -0.3855
 7103SOL    HW123077   5.327   3.432   5.588  1.7360 -0.7251 -1.3875
 7103SOL    HW223078   5.246   3.390   5.467 -0.4770 -0.1767 -0.1575
 7104SOL     OW23079   4.449   8.780   7.749  0.5903 -0.1544 -0.4181
 7104SOL    HW123080   4.403   8.859   7.778  0.4255 -0.3415 -0.1668
 7104SOL    HW223081   4.533   8.812   7.716  0.8196  0.0609  0.3508
 7105SOL     OW23082   0.666   4.701   1.937  0.2883 -1.2898 -0.0359
 7105SOL    HW123083   0.703   4.696   1.849 -0.6895  1.6815 -0.7643
 7105SOL    HW223084   0.571   4.697   1.923  0.1439 -2.2161  1.0713
 7106SOL     OW23085   8.515   1.065   0.562  0.4397 -0.6277  0.1358
 7106SOL    HW123086   8.560   1.148   0.576 -0.5307  0.3640 -2.0477
 7106SOL    HW223087   8.575   0.999   0.596  1.2261  0.9443  1.9722
 7107SOL     OW23088   3.784   2.498   1.621  0.6246  0.4160  0.6366
 7107SOL    HW123089   3.693   2.515   1.642 -0.1042  1.9123 -3.0069
 7107SOL    HW223090   3.795   2.404   1.634 -1.4696  0.1801  0.9236
 7108SOL     OW23091   4.692   5.570   5.982  0.1048  0.0982 -0.3354
 7108SOL    HW123092   4.605   5.541   6.009  1.0143 -1.8795  0.6153
 7108SOL    HW223093   4.676   5.615   5.899 -1.8975  0.4158  0.1537
 7109SOL     OW23094   0.801   1.022   1.460 -0.7058  0.2958 -0.3171
 7109SOL    HW123095   0.883   0.973   1.457 -1.4598 -1.7308  3.7695
 7109SOL    HW223096   0.818   1.094   1.520 -1.4751  0.8909 -0.7945
 7110SOL     OW23097   9.756   5.069   2.942 -0.5010 -0.9504 -0.0663
 7110SOL    HW123098   9.751   5.003   2.873  0.2456  0.6481 -1.7207
 7110SOL    HW223099   9.699   5.140   2.911  0.5786  0.1940  0.5013
 7111SOL     OW23100   9.822   7.433   0.554  0.1726  0.3837  0.5876
 7111SOL    HW123101   9.824   7.527   0.573 -1.2936  0.5711 -0.0695
 7111SOL    HW223102   9.837   7.428   0.460  0.1060 -0.0397  0.6020
 7112SOL     OW23103   9.627   2.906   3.685  0.0613 -0.2646 -0.6526
 7112SOL    HW123104   9.565   2.905   3.758 -1.0430  0.0694 -1.5547
 7112SOL    HW223105   9.687   2.977   3.706  0.0051 -0.4448  0.1349
 7113SOL     OW23106   6.222   0.755   5.877  0.1155 -0.3562  0.9175
 7113SOL    HW123107   6.155   0.787   5.936  1.0171 -1.3686  2.5747
 7113SOL    HW223108   6.184   0.676   5.838 -0.1899 -0.1118  0.7120
 7114SOL     OW23109   7.357   2.598   5.918  0.1994  0.4280  0.5120
 7114SOL    HW123110   7.286   2.542   5.951  1.9030 -1.4556  1.1634
 7114SOL    HW223111   7.423   2.597   5.988  1.1224  1.7100 -0.2897
 7115SOL     OW23112   2.779   9.001   6.102 -0.4028  0.3509  0.0489
 7115SOL    HW123113   2.866   9.029   6.074  0.5800 -1.8132  0.6599
 7115SOL    HW223114   2.797   8.936   6.170 -2.5695  1.2778  1.6015
 7116SOL     OW23115   7.480   8.215   1.714  0.1882 -0.0038 -0.0657
 7116SOL    HW123116   7.487   8.220   1.810  0.6295 -1.6280  0.0103
 7116SOL    HW223117   7.503   8.125   1.693  0.3220  0.3964 -1.7415
 7117SOL     OW23118   8.508   1.010   2.359 -0.1469  0.2072  0.0619
 7117SOL    HW123119   8.574   0.952   2.323 -1.8438 -2.0793  0.4271
 7117SOL    HW223120   8.556   1.089   2.384  2.1599 -0.7946 -0.9510
 7118SOL     OW23121   3.347   3.614   7.644  0.3091  0.1491 -0.2343
 7118SOL    HW123122   3.286   3.679   7.680 -1.7388 -1.4837 -0.5258
 7118SOL    HW223123   3.361   3.642   7.554 -1.0265 -0.0514 -0.5354
 7119SOL     OW23124   6.078   5.841   1.466  0.0737 -0.0686  0.6526
 7119SOL    HW123125   6.026   5.890   1.402  0.0041  0.9468  1.4557
 7119SOL    HW223126   6.017   5.778   1.503  0.1063 -0.6333 -0.2529
 7120SOL     OW23127   8.218   2.079   2.076  0.0373  0.6583 -0.5782
 7120SOL    HW123128   8.268   2.060   2.156 -0.6161 -2.2407 -0.7394
 7120SOL    HW223129   8.141   2.126   2.108  0.1885  0.2697  0.4236
 7121SOL     OW23130   3.447   0.169   7.208  0.1299  0.1288  0.2281
 7121SOL    HW123131   3.397   0.088   7.221  0.7705 -0.1833  0.8017
 7121SOL    HW223132   3.382   0.239   7.218 -0.3411 -0.2902  0.1820
 7122SOL     OW23133   3.314   5.023   0.642 -0.4819 -0.1532  0.5982
 7122SOL    HW123134   3.310   4.929   0.662 -0.0701 -0.1588  0.6650
 7122SOL    HW223135   3.282   5.029   0.552  0.7839 -0.5388  0.0906
 7123SOL     OW23136   6.806   7.038   8.722  0.2226 -0.6489  0.3938
 7123SOL    HW123137   6.902   7.034   8.721  0.1982 -1.3459  0.5509
 7123SOL    HW223138   6.779   6.979   8.792 -0.2886  0.6407  1.3284
 7124SOL     OW23139   4.962   8.431   3.016 -0.1744  0.4751  0.0641
 7124SOL    HW123140   4.960   8.524   2.994 -0.8945  0.3615 -0.3632
 7124SOL    HW223141   4.881   8.415   3.063 -0.8568 -0.2702 -1.2995
 7125SOL     OW23142   1.809   0.961   7.824 -0.0549 -0.0616  0.6834
 7125SOL    HW123143   1.816   0.887   7.764  1.0099  0.0528  0.6432
 7125SOL    HW223144   1.851   0.930   7.904 -1.6972 -0.3094  1.4932
 7126SOL     OW23145   1.785   0.980   8.908  0.5662  0.2012  0.8959
 7126SOL    HW123146   1.758   0.901   8.860  0.5259  1.5623 -1.4495
 7126SOL    HW223147   1.877   0.964   8.929  0.8474 -0.1153 -0.4416
 7127SOL     OW23148   6.680   7.726   6.779 -0.1902 -0.2472  0.4949
 7127SOL    HW123149   6.694   7.660   6.847 -0.2111 -0.5467  0.2118
 7127SOL    HW223150   6.764   7.731   6.733 -0.5397 -0.9811 -0.2691
 7128SOL     OW23151   7.953   4.042   0.859 -0.3640 -0.2561  0.0572
 7128SOL    HW123152   7.961   4.136   0.844 -0.1431 -0.5423 -2.0121
 7128SOL    HW223153   8.036   4.017   0.901 -0.5492  0.4991  0.8956
 7129SOL     OW23154   0.923   0.479   5.935  0.1554 -0.8890  0.5046
 7129SOL    HW123155   0.848   0.462   5.877 -0.7181 -1.6908  1.8215
 7129SOL    HW223156   0.967   0.554   5.895  1.3031 -3.0982 -2.8575
 7130SOL     OW23157   1.085   3.713   0.455 -0.3071 -0.2401  0.1520
 7130SOL    HW123158   1.174   3.742   0.435 -0.7763 -0.2569 -2.1551
 7130SOL    HW223159   1.088   3.618   0.444 -0.7233 -0.1864 -0.4274
 7131SOL     OW23160   4.175   0.843   3.107  0.5355  0.0113  0.1392
 7131SOL    HW123161   4.144   0.884   3.027 -0.7785  1.0036  1.1238
 7131SOL    HW223162   4.230   0.910   3.149  0.9427 -0.3819  0.2480
 7132SOL     OW23163   6.519   9.008   8.160 -0.4002 -0.1387 -0.1648
 7132SOL    HW123164   6.593   9.047   8.205  0.1513 -0.8180 -0.4586
 7132SOL    HW223165   6.539   8.914   8.157 -0.2038 -0.0781 -2.1700
 7133SOL     OW23166   4.968   9.735   7.249 -0.3496 -0.1225  0.0359
 7133SOL    HW123167   4.993   9.803   7.187  1.7334 -1.7320 -1.0596
 7133SOL    HW223168   4.903   9.682   7.203 -0.3492 -0.1125  0.0249
 7134SOL     OW23169   3.695   1.702   3.937  0.0970 -0.0314 -0.1473
 7134SOL    HW123170   3.729   1.614   3.921  1.4118  0.5566 -0.7175
 7134SOL    HW223171   3.621   1.689   3.997  0.7096 -1.4587  0.3320
 7135SOL     OW23172   4.899   1.030   6.083 -0.9433  0.1243 -0.1251
 7135SOL    HW123173   4.852   1.113   6.080 -0.7905  0.1924 -1.1757
 7135SOL    HW223174   4.981   1.051   6.128 -0.6158  0.7118 -0.9693
 7136SOL     OW23175   7.713   1.335   9.832  0.3364 -0.3008 -0.3388
 7136SOL    HW123176   7.697   1.287   9.914 -2.2666  1.1488  0.1353
 7136SOL    HW223177   7.733   1.424   9.860 -1.1003  0.3417 -1.2328
 7137SOL     OW23178   0.565   5.330   5.512 -0.3502 -0.0937  0.4503
 7137SOL    HW123179   0.651   5.355   5.547 -0.0448 -2.0578  1.2052
 7137SOL    HW223180   0.583   5.298   5.424 -0.4608  0.3876  0.2479
 7138SOL     OW23181   8.712   9.110   6.302 -0.1411 -0.4171 -0.4226
 7138SOL    HW123182   8.652   9.082   6.233  0.1294 -1.3488 -0.2932
 7138SOL    HW223183   8.655   9.135   6.375 -0.4015 -0.1692 -0.7095
 7139SOL     OW23184   3.201   2.355   5.806  0.1038 -0.1310 -0.2366
 7139SOL    HW123185   3.295   2.364   5.822 -0.0456 -0.5158  0.9575
 7139SOL    HW223186   3.187   2.398   5.722  1.4138 -0.4501 -0.6452
 7140SOL     OW23187   7.386   9.773   8.130 -0.2148  0.4210  0.2976
 7140SOL    HW123188   7.297   9.803   8.144 -0.4186 -0.4262  0.9235
 7140SOL    HW223189   7.416   9.744   8.216  0.6654  0.6947  0.0939
 7141SOL     OW23190   5.887   3.808   2.552  0.0683  0.2274  0.0037
 7141SOL    HW123191   5.935   3.745   2.498  0.4756  1.3680 -1.0169
 7141SOL    HW223192   5.821   3.845   2.494 -0.0623  0.8530  0.5303
 7142SOL     OW23193   8.588   0.960   9.335  0.0862  0.2575  0.6709
 7142SOL    HW123194   8.493   0.956   9.327  0.1406  1.3235 -0.7733
 7142SOL    HW223195   8.605   1.042   9.382  0.2403 -1.1387  3.2648
 7143SOL     OW23196   3.781   9.733   1.143  0.4539  0.0610  0.1882
 7143SOL    HW123197   3.822   9.819   1.136  1.1341 -0.3452 -0.9393
 7143SOL    HW223198   3.850   9.671   1.122 -0.2593 -0.7298  0.1300
 7144SOL     OW23199   2.027   9.622   5.464  0.1366  0.5400  0.2198
 7144SOL    HW123200   1.958   9.624   5.397  0.7086 -0.4417 -0.4040
 7144SOL    HW223201   2.045   9.529   5.478  1.2476  0.7836  0.4748
 7145SOL     OW23202   9.202   0.973   8.446 -0.6281 -0.1189  0.6028
 7145SOL    HW123203   9.239   0.935   8.367  0.6141 -0.3733  1.2742
 7145SOL    HW223204   9.155   1.051   8.416 -0.8385 -0.6369 -0.4607
 7146SOL     OW23205   4.839   2.594   2.250 -0.1217 -0.3683  0.0065
 7146SOL    HW123206   4.788   2.668   2.283  0.3752 -0.8281  1.9143
 7146SOL    HW223207   4.774   2.535   2.212 -0.5949  0.6855 -0.8963
 7147SOL     OW23208   3.840   7.374   2.761  0.5077  0.1384  0.3329
 7147SOL    HW123209   3.846   7.281   2.784  2.4357 -0.0837 -0.8322
 7147SOL    HW223210   3.849   7.420   2.844 -1.8772 -0.6748  1.1274
 7148SOL     OW23211   6.443   2.078   7.818 -0.0176  0.3502 -0.2136
 7148SOL    HW123212   6.390   2.121   7.885 -1.1088 -0.4176 -0.5584
 7148SOL    HW223213   6.407   2.109   7.735 -0.4578 -0.7943 -0.4605
 7149SOL     OW23214   7.607   8.968   0.544  0.0933  0.6254 -0.4569
 7149SOL    HW123215   7.592   8.907   0.615 -1.7296  0.6002 -0.7975
 7149SOL    HW223216   7.575   8.922   0.466  0.9889  1.0805 -1.1036
 7150SOL     OW23217   3.531   8.114   9.479 -0.3804 -0.2251  0.2715
 7150SOL    HW123218   3.561   8.057   9.408  1.2718 -1.7054  2.0836
 7150SOL    HW223219   3.551   8.067   9.559 -0.4818  2.1892  1.8291
 7151SOL     OW23220   3.420   5.041   8.763 -0.0452 -0.2656  0.2526
 7151SOL    HW123221   3.398   5.070   8.675  2.3234 -0.6569 -0.5425
 7151SOL    HW223222   3.434   4.946   8.754  3.9492  0.1708  0.0566
 7152SOL     OW23223   4.170   1.708   1.529 -0.2643 -0.4322 -0.1483
 7152SOL    HW123224   4.240   1.645   1.512 -0.4169 -1.1283  1.6312
 7152SOL    HW223225   4.117   1.667   1.598 -1.2230  1.0083  0.0084
 7153SOL     OW23226   0.220   3.482   1.301  0.5529  0.4033 -0.2842
 7153SOL    HW123227   0.135   3.525   1.306 -1.0153 -2.4363 -0.4437
 7153SOL    HW223228   0.275   3.529   1.364 -0.7256  3.0231 -0.9913
 7154SOL     OW23229   2.145   4.415   2.798 -0.0729 -0.1731 -0.1488
 7154SOL    HW123230   2.130   4.498   2.754  1.1666 -0.0488 -0.3809
 7154SOL    HW223231   2.091   4.419   2.877 -1.4594  0.0580 -1.0719
 7155SOL     OW23232   0.972   6.929   9.847  0.0786  0.3135 -0.3250
 7155SOL    HW123233   0.995   6.842   9.879 -0.6517  0.1886 -0.1285
 7155SOL    HW223234   1.024   6.940   9.767  1.6466  0.4713  0.6739
 7156SOL     OW23235   0.864   7.287   3.083  0.6164  0.4983 -0.7027
 7156SOL    HW123236   0.873   7.291   3.179 -0.3141 -3.0616 -0.3292
 7156SOL    HW223237   0.954   7.289   3.051  1.1780 -1.8065  0.5635
 7157SOL     OW23238   2.205   5.813   1.250 -0.6549 -0.2064  0.4243
 7157SOL    HW123239   2.140   5.879   1.225 -0.7330 -0.4246  0.0272
 7157SOL    HW223240   2.279   5.863   1.284 -0.1228  0.1734 -1.2147
 7158SOL     OW23241   8.038   7.197   7.293  0.0058 -0.0005  0.4593
 7158SOL    HW123242   8.101   7.263   7.264 -0.4141 -0.2428 -1.0688
 7158SOL    HW223243   8.059   7.183   7.386  1.1461  1.0876  0.3867
 7159SOL     OW23244   4.166   0.353   7.347 -0.1591 -0.2841  0.8819
 7159SOL    HW123245   4.240   0.297   7.324 -0.5665 -0.6815  0.5190
 7159SOL    HW223246   4.103   0.341   7.276 -0.6011  0.0027  1.2127
 7160SOL     OW23247   8.130   1.331   4.528  0.1994 -0.1662  0.0556
 7160SOL    HW123248   8.179   1.250   4.543 -0.3425 -0.6285 -0.6290
 7160SOL    HW223249   8.046   1.302   4.493 -0.2859  0.6623  0.5054
 7161SOL     OW23250   8.673   2.901   0.333 -0.0775 -0.0007 -0.0579
 7161SOL    HW123251   8.754   2.941   0.300 -1.4312  1.6139 -1.6582
 7161SOL    HW223252   8.662   2.938   0.420  0.1733  0.9731 -0.4167
 7162SOL     OW23253   8.371   5.858   9.164 -0.5094 -0.0478 -0.4672
 7162SOL    HW123254   8.345   5.847   9.073 -0.1598 -0.2501 -0.5458
 7162SOL    HW223255   8.330   5.785   9.210 -1.0730  0.3206 -0.3777
 7163SOL     OW23256   6.805   8.132   3.954 -0.5736 -0.6835  0.2275
 7163SOL    HW123257   6.860   8.209   3.948 -0.8669 -0.4813  0.0714
 7163SOL    HW223258   6.769   8.134   4.042 -0.3137 -0.8299  0.3383
 7164SOL     OW23259   9.210   5.570   0.517 -0.3192  0.2469 -0.1356
 7164SOL    HW123260   9.133   5.582   0.573  0.9101  0.4408  1.5891
 7164SOL    HW223261   9.194   5.627   0.442 -1.6760  0.5629  0.3618
 7165SOL     OW23262   2.317   4.394   3.930 -0.4084  0.1654 -0.0630
 7165SOL    HW123263   2.230   4.364   3.904  0.0764 -1.1173 -0.2698
 7165SOL    HW223264   2.300   4.455   4.002 -1.5648  1.3227 -1.2674
 7166SOL     OW23265   5.454   2.246   1.752 -0.3423  0.0806  0.1167
 7166SOL    HW123266   5.548   2.261   1.747  0.0123 -1.3311  1.5700
 7166SOL    HW223267   5.424   2.245   1.661  0.9760  0.8689 -0.3509
 7167SOL     OW23268   5.485   5.544   0.618  0.6439  0.0235 -0.2541
 7167SOL    HW123269   5.572   5.528   0.581 -0.4259 -1.0412 -2.4925
 7167SOL    HW223270   5.427   5.483   0.572 -1.3148  0.6682  1.1916
 7168SOL     OW23271   8.843   3.806   5.705  0.3484 -0.3970  0.0969
 7168SOL    HW123272   8.933   3.801   5.673 -0.0822 -0.3191 -1.1931
 7168SOL    HW223273   8.821   3.715   5.727 -0.0450 -0.8371 -1.9309
 7169SOL     OW23274   4.160   8.546   4.115 -0.7697  0.0165  0.5595
 7169SOL    HW123275   4.236   8.524   4.168 -0.4560 -0.5703 -0.1226
 7169SOL    HW223276   4.085   8.526   4.171 -0.4244  0.9210  1.3559
 7170SOL     OW23277   4.928   4.931   5.354 -0.5844  0.0442  0.6075
 7170SOL    HW123278   4.873   4.924   5.276  0.5253  0.1910 -0.2155
 7170SOL    HW223279   4.885   4.996   5.409 -1.2267  0.1577 -0.0243
 7171SOL     OW23280   0.590   6.035   1.350  0.1189  0.2718  0.2265
 7171SOL    HW123281   0.497   6.021   1.336  0.4503 -1.4668 -0.5739
 7171SOL    HW223282   0.611   6.113   1.299 -0.6234 -0.2038 -0.8360
 7172SOL     OW23283   4.962   3.629   3.549  0.6171  0.2413  0.3921
 7172SOL    HW123284   5.041   3.605   3.599  0.1260 -0.4390  0.8647
 7172SOL    HW223285   4.996   3.670   3.470  1.4522 -0.0591  0.5769
 7173SOL     OW23286   2.974   7.035   9.252 -0.1588 -0.1674 -0.4348
 7173SOL    HW123287   2.927   6.992   9.180 -0.9485  0.5792 -0.3922
 7173SOL    HW223288   3.066   7.031   9.227 -0.4576  0.4542 -1.7210
 7174SOL     OW23289   4.760   0.444   3.008 -0.0382 -0.0844  0.4489
 7174SOL    HW123290   4.715   0.360   3.018 -1.1537  0.3542 -0.6147
 7174SOL    HW223291   4.764   0.458   2.914 -0.4157  1.3177  0.6133
 7175SOL     OW23292   0.927   3.438   3.488 -0.4890 -0.2062  0.1613
 7175SOL    HW123293   0.906   3.376   3.419 -1.5785  1.1596 -0.7846
 7175SOL    HW223294   0.879   3.407   3.564 -1.0617 -0.5026 -0.3141
 7176SOL     OW23295   0.461   4.646   8.583  0.2757  0.1895 -0.1392
 7176SOL    HW123296   0.522   4.713   8.614 -1.1291  1.2729  0.3874
 7176SOL    HW223297   0.405   4.693   8.520  0.1615 -0.8502 -0.8279
 7177SOL     OW23298   2.250   8.633   4.062 -0.5681  0.3106  0.0319
 7177SOL    HW123299   2.215   8.644   3.974  0.5561 -0.1201 -0.4871
 7177SOL    HW223300   2.227   8.543   4.086  0.2899 -0.0267 -0.3728
 7178SOL     OW23301   5.235   0.886   7.490  0.3955 -0.1001 -0.1723
 7178SOL    HW123302   5.219   0.802   7.532  0.3078 -0.3754 -0.7473
 7178SOL    HW223303   5.184   0.882   7.408  1.3619  0.0203 -0.7949
 7179SOL     OW23304   0.511   0.646   7.170  0.3707 -0.0954  0.3914
 7179SOL    HW123305   0.500   0.725   7.223  0.5939  2.8251 -3.4323
 7179SOL    HW223306   0.603   0.647   7.143  0.1217 -1.0504 -0.5774
 7180SOL     OW23307   9.820   9.798   3.107  0.0845 -0.2297  0.4256
 7180SOL    HW123308   9.841   9.731   3.042  0.6133  0.8681 -0.5820
 7180SOL    HW223309   9.785   9.871   3.055 -0.5823  0.2420  1.5042
 7181SOL     OW23310   8.652   6.660   6.437 -0.3016 -0.2730  0.5135
 7181SOL    HW123311   8.606   6.581   6.465  1.0100 -1.0548  0.5755
 7181SOL    HW223312   8.743   6.644   6.461 -0.1499  1.6948  1.4381
 7182SOL     OW23313   0.406   5.070   9.175 -0.9764  0.2708  0.8278
 7182SOL    HW123314   0.419   4.976   9.189 -0.2112 -0.3341 -2.8010
 7182SOL    HW223315   0.495   5.105   9.169 -1.2594  1.0706  1.1491
 7183SOL     OW23316   1.166   1.823   1.855 -0.0114 -0.8270  0.1082
 7183SOL    HW123317   1.141   1.743   1.900  0.3295 -1.4151 -0.7262
 7183SOL    HW223318   1.239   1.798   1.799 -0.4013 -0.1255 -0.7525
 7184SOL     OW23319   9.085   8.295   8.276 -0.6608 -0.0080 -0.2299
 7184SOL    HW123320   9.124   8.367   8.226  0.6023  0.5398  1.4572
 7184SOL    HW223321   9.140   8.287   8.354 -1.3070 -2.2199  0.0808
 7185SOL     OW23322   2.988   2.463   2.538 -0.4587  0.4974 -0.5647
 7185SOL    HW123323   3.012   2.556   2.532 -0.0550  0.5456  1.2434
 7185SOL    HW223324   3.068   2.417   2.513 -0.1434  0.6522  0.1370
 7186SOL     OW23325   3.511   4.899   3.857  0.0619  0.5683  0.8917
 7186SOL    HW123326   3.486   4.950   3.780  0.0843  0.5444  0.8686
 7186SOL    HW223327   3.489   4.956   3.931 -0.2769  0.4529  0.8796
 7187SOL     OW23328   7.600   8.331   4.118 -0.2609  0.5958 -0.4462
 7187SOL    HW123329   7.660   8.262   4.088  0.1677  0.6858  0.1751
 7187SOL    HW223330   7.536   8.285   4.172  0.2594  0.7371  0.2949
 7188SOL     OW23331   2.612   6.316   9.485 -0.0170  0.5823 -0.0999
 7188SOL    HW123332   2.659   6.284   9.561 -0.4969 -0.1436 -0.0966
 7188SOL    HW223333   2.519   6.301   9.505 -0.1881  0.9963 -0.5465
 7189SOL     OW23334   3.802   8.909   7.000  0.0703 -0.3081 -0.1565
 7189SOL    HW123335   3.851   8.830   6.976  0.3205 -0.2858  0.2786
 7189SOL    HW223336   3.870   8.975   7.015  0.0421 -0.7294  2.1747
 7190SOL     OW23337   1.763   7.406   1.076  0.8877 -0.0539 -1.0607
 7190SOL    HW123338   1.774   7.447   1.161 -0.4354 -0.8625 -0.4842
 7190SOL    HW223339   1.845   7.426   1.029  1.2555  1.1483  0.0564
 7191SOL     OW23340   1.682   2.647   6.967 -0.5697 -0.1655  0.3417
 7191SOL    HW123341   1.757   2.591   6.987  0.8762  0.9827 -1.5177
 7191SOL    HW223342   1.720   2.733   6.950 -2.4165  0.6754  0.2419
 7192SOL     OW23343   9.047   3.682   1.710 -0.0169 -0.3276 -0.5116
 7192SOL    HW123344   9.093   3.765   1.724  0.9437 -0.7814 -0.8744
 7192SOL    HW223345   9.071   3.657   1.620  0.1127 -1.2441 -0.2276
 7193SOL     OW23346   4.423   3.820   0.205 -0.4420  0.0292  0.4361
 7193SOL    HW123347   4.397   3.850   0.118 -3.7556 -1.9994  0.5509
 7193SOL    HW223348   4.430   3.900   0.257  0.4292  1.1842 -1.3670
 7194SOL     OW23349   9.826   3.296   6.946  0.1709 -0.1919 -0.2708
 7194SOL    HW123350   9.823   3.262   7.036  2.1321  0.3881  0.0687
 7194SOL    HW223351   9.800   3.387   6.954 -0.0601 -0.2494 -0.3629
 7195SOL     OW23352   5.260   1.062   4.468  0.4089 -0.3058  0.3140
 7195SOL    HW123353   5.328   1.104   4.415 -0.0329  2.0937  1.5284
 7195SOL    HW223354   5.182   1.063   4.411 -0.1561  2.5717  0.9992
 7196SOL     OW23355   7.509   1.397   9.275  0.4508  0.1266  0.1284
 7196SOL    HW123356   7.544   1.480   9.244  2.0425 -1.9148 -4.3052
 7196SOL    HW223357   7.554   1.381   9.358  1.8753  2.5203 -0.0944
 7197SOL     OW23358   2.977   3.898   4.712  0.0387 -0.0776  0.7901
 7197SOL    HW123359   2.886   3.911   4.740 -0.0650 -0.5823  0.7029
 7197SOL    HW223360   2.979   3.928   4.622 -0.3999 -1.3923  0.3162
 7198SOL     OW23361   0.348   7.015   8.422  0.2638  0.1292 -0.4087
 7198SOL    HW123362   0.282   7.039   8.357 -1.4927  1.9429  1.8828
 7198SOL    HW223363   0.307   6.945   8.473  1.7040 -1.4264 -1.2858
 7199SOL     OW23364   9.750   3.630   3.083 -0.1963  0.3944  0.4008
 7199SOL    HW123365   9.741   3.586   2.998 -0.4663  4.5521 -1.9732
 7199SOL    HW223366   9.844   3.650   3.089 -0.2591  0.5639  0.8242
 7200SOL     OW23367   9.472   2.064   7.444 -0.3286 -0.3798 -0.3946
 7200SOL    HW123368   9.420   2.073   7.364  1.4651 -0.0942 -1.5747
 7200SOL    HW223369   9.552   2.019   7.416 -0.0071 -1.0435  1.4155
 7201SOL     OW23370   2.614   0.147   7.462  0.2696 -0.1705  0.2889
 7201SOL    HW123371   2.610   0.174   7.371 -1.1290  1.5806  0.8048
 7201SOL    HW223372   2.579   0.058   7.462 -0.3766  0.0660 -0.7968
 7202SOL     OW23373   0.657   9.592   5.912  0.0431  0.1767 -0.0205
 7202SOL    HW123374   0.712   9.616   5.837 -0.3995  0.8759 -0.1350
 7202SOL    HW223375   0.711   9.613   5.988  0.9463 -1.6056 -0.1143
 7203SOL     OW23376   9.369   7.000   0.913  0.3306 -0.6100  0.0837
 7203SOL    HW123377   9.431   7.015   0.841  0.1438 -1.4462 -0.2753
 7203SOL    HW223378   9.290   7.047   0.888  0.5611 -0.1800  0.1658
 7204SOL     OW23379   1.486   8.351   1.396 -0.8578  0.3377 -0.1689
 7204SOL    HW123380   1.506   8.263   1.364  3.2357  1.1324 -0.3100
 7204SOL    HW223381   1.478   8.341   1.491 -1.2089 -0.2759 -0.2585
 7205SOL     OW23382   7.121   1.960   4.277  0.0221 -0.0349  0.5357
 7205SOL    HW123383   7.069   2.039   4.292 -0.1951 -0.3407  1.4320
 7205SOL    HW223384   7.075   1.913   4.207 -1.4017 -0.7090  1.8689
 7206SOL     OW23385   6.239   1.423   3.772 -0.1586  0.4094 -0.2449
 7206SOL    HW123386   6.273   1.513   3.768  0.2549  0.2484 -0.4842
 7206SOL    HW223387   6.272   1.389   3.855  0.7760  0.0607 -0.7469
 7207SOL     OW23388   0.359   1.384   4.166  0.5347 -0.0744  0.2040
 7207SOL    HW123389   0.364   1.475   4.196  0.7272 -0.3198  0.9560
 7207SOL    HW223390   0.444   1.368   4.124  0.1279  0.3816 -0.8063
 7208SOL     OW23391   5.779   4.565   4.418 -0.1620 -0.4031 -0.5320
 7208SOL    HW123392   5.856   4.594   4.466 -0.5978 -0.4840  0.2486
 7208SOL    HW223393   5.753   4.640   4.365 -0.4271  0.1472  0.3559
 7209SOL     OW23394   2.152   9.773   8.434 -0.8644 -0.0545 -0.1343
 7209SOL    HW123395   2.201   9.841   8.480 -1.8699  0.4807  0.1741
 7209SOL    HW223396   2.205   9.755   8.356 -1.4270  2.4233 -1.2158
 7210SOL     OW23397   8.749   5.996   3.311 -0.2303  0.3551  0.1165
 7210SOL    HW123398   8.718   5.985   3.401 -0.0525 -1.3756  0.0147
 7210SOL    HW223399   8.840   5.966   3.314  0.5967  2.6506 -0.1680
 7211SOL     OW23400   8.322   7.742   3.615  0.2800 -0.0406 -0.3649
 7211SOL    HW123401   8.328   7.745   3.520 -0.5166  0.5631 -0.4057
 7211SOL    HW223402   8.378   7.668   3.640  0.0083 -0.5991 -1.3465
 7212SOL     OW23403   3.666   8.007   1.876 -0.6403 -0.2706 -0.1229
 7212SOL    HW123404   3.642   7.915   1.878  0.1664 -0.5494  3.0360
 7212SOL    HW223405   3.593   8.052   1.920 -0.4447  0.3969 -0.4655
 7213SOL     OW23406   4.988   4.091   7.459  0.4557  0.1971 -0.1190
 7213SOL    HW123407   5.079   4.063   7.444  1.1379  1.0373  2.0357
 7213SOL    HW223408   4.937   4.011   7.458  1.0844 -0.2350 -1.9796
 7214SOL     OW23409   0.442   2.256   4.492  0.1329  0.1643  0.1593
 7214SOL    HW123410   0.425   2.252   4.398 -0.6510 -0.2580  0.3080
 7214SOL    HW223411   0.461   2.166   4.517  1.3322  0.4309  0.2381
 7215SOL     OW23412   9.049   9.007   0.620  0.4636 -0.2480 -0.3851
 7215SOL    HW123413   8.970   8.998   0.566 -0.4943 -0.6729  1.0090
 7215SOL    HW223414   9.098   8.927   0.604  0.2548 -0.3076 -0.7346
 7216SOL     OW23415   0.010   9.576   3.899 -0.2440 -0.2295 -0.2753
 7216SOL    HW123416  -0.009   9.497   3.948 -1.9758 -0.5479 -1.3772
 7216SOL    HW223417  -0.044   9.569   3.820  1.5416  0.8140 -1.6615
 7217SOL     OW23418   1.123   4.696   1.671 -0.2848 -0.8265  0.0103
 7217SOL    HW123419   1.096   4.783   1.702  0.8279 -0.8481  1.1058
 7217SOL    HW223420   1.042   4.657   1.638 -0.8116  0.6117 -0.4879
 7218SOL     OW23421   8.115   5.105   3.555 -0.1613  0.1123 -0.5075
 7218SOL    HW123422   8.043   5.042   3.560 -0.1845  0.2098  0.9425
 7218SOL    HW223423   8.165   5.090   3.636 -0.2913  2.0938 -0.0199
 7219SOL     OW23424   5.590   9.576   0.816  0.3658 -0.2303  0.6289
 7219SOL    HW123425   5.572   9.615   0.901  0.4089 -2.6630  1.8375
 7219SOL    HW223426   5.566   9.483   0.826 -0.2985 -0.4816 -2.2244
 7220SOL     OW23427   5.109   6.788   4.896  0.6630  0.2483 -0.2309
 7220SOL    HW123428   5.071   6.751   4.976  0.6548  1.8716  0.5494
 7220SOL    HW223429   5.189   6.832   4.925  1.7355 -0.8088 -1.4464
 7221SOL     OW23430   0.746   9.718   4.469  0.1053  0.6411 -0.8404
 7221SOL    HW123431   0.761   9.766   4.387  2.0571 -0.3102 -1.1179
 7221SOL    HW223432   0.745   9.626   4.442 -1.8151  0.4070 -0.0960
 7222SOL     OW23433   9.071   2.649   1.766  0.0893  0.6248 -0.0863
 7222SOL    HW123434   9.144   2.588   1.758  1.0839  1.9052 -1.2830
 7222SOL    HW223435   8.994   2.599   1.741  0.5048 -0.7800  1.2947
 7223SOL     OW23436   1.357   2.559   8.037 -0.0422  0.3988  0.1714
 7223SOL    HW123437   1.451   2.548   8.020 -0.0147 -0.0958  0.6193
 7223SOL    HW223438   1.326   2.471   8.060 -0.9931  0.1794 -1.7159
 7224SOL     OW23439   2.137   5.393   1.700 -0.9527  0.6928  0.0825
 7224SOL    HW123440   2.063   5.444   1.668 -0.7250 -0.1694 -1.9631
 7224SOL    HW223441   2.192   5.379   1.623 -0.1832 -1.2340  0.9194
 7225SOL     OW23442   2.734   7.878   1.139  0.4022  0.4144 -0.1410
 7225SOL    HW123443   2.810   7.842   1.185 -0.5986  0.7673  1.9432
 7225SOL    HW223444   2.668   7.810   1.146  0.3080  0.3654 -1.3684
 7226SOL     OW23445   3.644   5.690   1.159  0.5613  0.0856 -0.3606
 7226SOL    HW123446   3.736   5.715   1.149  0.2364  1.4087 -0.2642
 7226SOL    HW223447   3.646   5.611   1.213  1.7269 -0.9297 -1.7985
 7227SOL     OW23448   0.292   3.735   5.508 -0.2880  0.3042 -0.4521
 7227SOL    HW123449   0.375   3.773   5.481 -0.2360  0.1860 -0.4576
 7227SOL    HW223450   0.310   3.642   5.520 -0.5335  0.1879 -0.9377
 7228SOL     OW23451   9.511   4.601   2.613 -0.3147 -0.3215 -0.1421
 7228SOL    HW123452   9.534   4.605   2.520 -0.3988 -0.4595 -0.1688
 7228SOL    HW223453   9.582   4.552   2.654 -0.1365 -0.0241 -0.0885
 7229SOL     OW23454   9.042   5.034   6.009  0.3344 -0.1235 -0.3294
 7229SOL    HW123455   8.983   5.028   6.084 -0.2935 -0.6115 -0.8477
 7229SOL    HW223456   9.091   5.115   6.023 -0.6510  0.4324 -0.0271
 7230SOL     OW23457   1.821   6.068   9.056 -0.1138  0.2736 -0.3726
 7230SOL    HW123458   1.827   6.041   8.964 -1.9735  2.1674 -1.1343
 7230SOL    HW223459   1.744   6.022   9.090  0.0621  0.2358 -0.0256
 7231SOL     OW23460   9.096   1.655   7.328  0.3461  0.4425 -0.0600
 7231SOL    HW123461   9.127   1.576   7.373  0.4043  0.1679 -0.5758
 7231SOL    HW223462   9.067   1.713   7.399 -2.6209 -1.2317  0.2773
 7232SOL     OW23463   5.946   3.057   6.321 -0.0813 -0.7100  0.3047
 7232SOL    HW123464   5.908   3.019   6.400 -0.2652  0.2958  0.7139
 7232SOL    HW223465   6.021   3.107   6.352 -0.1837 -0.2662 -0.1485
 7233SOL     OW23466   2.284   9.154   0.181 -0.3979 -0.1635  0.2409
 7233SOL    HW123467   2.257   9.171   0.271 -0.7225 -0.9504  0.3012
 7233SOL    HW223468   2.214   9.189   0.127  0.0742  0.8405  0.2647
 7234SOL     OW23469   4.767   7.212   5.536 -0.0064  0.4158 -0.1477
 7234SOL    HW123470   4.843   7.161   5.506 -0.7558 -0.8533  0.0355
 7234SOL    HW223471   4.724   7.240   5.455  0.0811  0.2434 -0.2550
 7235SOL     OW23472   8.689   8.420   5.329 -0.1333  0.5303  0.2147
 7235SOL    HW123473   8.682   8.496   5.387 -1.7820 -0.9281  2.0635
 7235SOL    HW223474   8.690   8.344   5.387 -1.6821 -1.0134 -1.5931
 7236SOL     OW23475   8.491   1.193   1.459 -0.8070  0.7982  0.2365
 7236SOL    HW123476   8.528   1.196   1.547  3.9646  0.4880 -1.4153
 7236SOL    HW223477   8.485   1.285   1.433 -0.8572  0.8496  0.4281
 7237SOL     OW23478   3.660   8.760   9.619 -0.4843  0.1808  0.6018
 7237SOL    HW123479   3.668   8.763   9.523 -1.7408  1.7850  0.5032
 7237SOL    HW223480   3.663   8.667   9.641  0.0806 -0.2001 -0.9653
 7238SOL     OW23481   0.861   0.862   0.663  0.2639 -0.3148 -0.3389
 7238SOL    HW123482   0.788   0.919   0.640 -0.4121 -0.4333  1.3885
 7238SOL    HW223483   0.889   0.824   0.580 -1.8448 -0.4984 -1.0122
 7239SOL     OW23484   7.760   8.091   4.029 -0.2392 -0.4444 -0.1679
 7239SOL    HW123485   7.814   8.064   4.103 -0.1834  3.2798  1.4081
 7239SOL    HW223486   7.819   8.087   3.954  1.3763  0.5672  0.9692
 7240SOL     OW23487   4.961   3.237   6.530 -0.0475 -0.1672  0.1716
 7240SOL    HW123488   4.871   3.253   6.502  0.7750  3.3135 -1.0090
 7240SOL    HW223489   4.971   3.288   6.610  0.8177 -0.6184  0.3617
 7241SOL     OW23490   8.499   3.977   6.790 -0.5351 -0.4012  0.3711
 7241SOL    HW123491   8.582   4.022   6.777 -0.6261 -0.4545 -0.4448
 7241SOL    HW223492   8.478   3.990   6.882  0.2965 -0.2493  0.5389
 7242SOL     OW23493   2.284   1.678   2.043 -0.0835 -0.1346  0.1504
 7242SOL    HW123494   2.340   1.733   2.098 -0.6792  1.3579 -0.6456
 7242SOL    HW223495   2.261   1.735   1.969 -1.1878 -1.3049 -0.4506
 7243SOL     OW23496   2.238   0.984   0.733  0.1411 -0.2802 -0.1258
 7243SOL    HW123497   2.298   0.955   0.802 -0.2741  2.1106  1.3820
 7243SOL    HW223498   2.151   0.960   0.766 -0.2822  2.8256  1.4886
 7244SOL     OW23499   2.564   9.239   9.194  0.3880 -0.4544 -0.2370
 7244SOL    HW123500   2.640   9.231   9.252  0.4440  0.8956 -0.1065
 7244SOL    HW223501   2.600   9.269   9.111 -0.0789  0.9680  0.0584
 7245SOL     OW23502   3.457   1.482   3.393 -0.2373  0.1630 -0.0649
 7245SOL    HW123503   3.394   1.410   3.394  1.3753 -1.3477 -1.3024
 7245SOL    HW223504   3.460   1.513   3.484 -1.2497 -1.0863  0.4090
 7246SOL     OW23505   6.829   7.133   2.307  0.0846 -0.0239 -0.1143
 7246SOL    HW123506   6.919   7.112   2.284  0.4033  1.6753 -0.5229
 7246SOL    HW223507   6.782   7.050   2.297  1.3361 -0.6406 -1.1986
 7247SOL     OW23508   3.207   5.977   3.662 -0.1448  0.2617  0.3799
 7247SOL    HW123509   3.264   6.034   3.611  0.8599 -1.7333 -0.8365
 7247SOL    HW223510   3.237   5.986   3.752  0.9059  0.5988  0.0022
 7248SOL     OW23511   6.889   9.475   5.130 -0.0200 -0.0129 -0.1439
 7248SOL    HW123512   6.912   9.429   5.049 -0.2549 -0.7014  0.1677
 7248SOL    HW223513   6.818   9.534   5.105 -0.5422 -0.6989 -0.3156
 7249SOL     OW23514   0.888   7.700   1.073 -0.0402 -0.4918  0.2296
 7249SOL    HW123515   0.854   7.661   1.154 -0.8586  1.5445  0.9302
 7249SOL    HW223516   0.866   7.793   1.080  4.7236  0.9148  0.2773
 7250SOL     OW23517   8.976   5.520   2.358 -0.1475 -0.3812  0.4264
 7250SOL    HW123518   9.048   5.553   2.412  0.3465  0.1735 -0.5358
 7250SOL    HW223519   8.899   5.569   2.387  0.7992  2.7481 -1.8501
 7251SOL     OW23520   2.604   3.174   2.370 -0.4014 -0.0811 -0.5902
 7251SOL    HW123521   2.565   3.261   2.382  1.2999  0.8455 -1.3022
 7251SOL    HW223522   2.646   3.179   2.284  1.2788 -0.9651  0.1370
 7252SOL     OW23523   6.680   0.069   6.377 -0.8215  0.3441 -0.3504
 7252SOL    HW123524   6.625   0.120   6.318 -1.3256 -0.7436 -0.8507
 7252SOL    HW223525   6.647   0.089   6.465 -1.3880  0.4251 -0.5814
 7253SOL     OW23526   7.639   6.824   6.076 -0.2888  0.1949 -0.1343
 7253SOL    HW123527   7.709   6.862   6.129 -0.9004  1.8203 -0.4282
 7253SOL    HW223528   7.683   6.795   5.996  0.6173 -2.1493  1.1184
 7254SOL     OW23529   1.681   5.971   8.814 -0.2086 -0.4665 -0.0512
 7254SOL    HW123530   1.759   5.925   8.784  0.0937  1.1085 -1.8618
 7254SOL    HW223531   1.611   5.905   8.811  0.6886 -1.4360 -0.0827
 7255SOL     OW23532   1.184   4.790   6.121 -0.4491  0.0362  0.2015
 7255SOL    HW123533   1.170   4.835   6.204  2.1205  0.2296  0.6270
 7255SOL    HW223534   1.213   4.702   6.146  1.0761  0.3326 -0.4231
 7256SOL     OW23535   1.760   7.955   9.205  0.0809  0.2077 -0.0985
 7256SOL    HW123536   1.728   7.991   9.288 -0.5027  1.7443 -0.9600
 7256SOL    HW223537   1.704   7.880   9.187 -0.7375  0.7516  0.1691
 7257SOL     OW23538   7.364   3.909   3.577 -0.1478  0.4468 -0.2883
 7257SOL    HW123539   7.434   3.879   3.635 -1.6970 -0.9418  0.9468
 7257SOL    HW223540   7.409   3.928   3.494  1.7147 -0.1645  0.5096
 7258SOL     OW23541   2.538   8.031   8.002 -0.0396 -0.3927 -0.1643
 7258SOL    HW123542   2.451   8.054   7.971 -0.2051  0.1802  0.6920
 7258SOL    HW223543   2.546   7.937   7.985 -0.0367 -0.0939 -2.0918
 7259SOL     OW23544   7.867   8.653   9.717 -0.2845 -0.3380 -0.0378
 7259SOL    HW123545   7.907   8.569   9.741  0.2320 -0.0997 -0.0533
 7259SOL    HW223546   7.898   8.669   9.628 -0.1547  0.0015  0.0667
 7260SOL     OW23547   9.657   1.340   1.006  0.0850  0.0169 -0.1583
 7260SOL    HW123548   9.712   1.395   0.949 -0.1039 -1.2689 -1.6605
 7260SOL    HW223549   9.613   1.401   1.064  0.9193  1.3239 -0.8626
 7261SOL     OW23550   7.084   1.321   0.716  0.0199  0.2979  0.3295
 7261SOL    HW123551   7.052   1.256   0.779 -0.2140 -0.1932 -0.2848
 7261SOL    HW223552   7.070   1.281   0.630 -0.5496  1.3410 -0.0909
 7262SOL     OW23553   2.061   4.860   8.279 -0.0448  0.1695  0.3456
 7262SOL    HW123554   1.989   4.914   8.313  1.3589  2.7205 -0.4774
 7262SOL    HW223555   2.123   4.855   8.352 -0.0389 -0.1061  0.3217
 7263SOL     OW23556   3.305   9.701   1.956  0.1852  0.4862 -0.5034
 7263SOL    HW123557   3.356   9.660   1.886  0.1643  0.1459 -0.3211
 7263SOL    HW223558   3.260   9.775   1.913  1.3116  1.1738 -0.5258
 7264SOL     OW23559   0.118   4.861   0.706  0.1734 -0.0014 -0.3628
 7264SOL    HW123560   0.023   4.862   0.717  0.2863 -0.4987  0.8129
 7264SOL    HW223561   0.136   4.778   0.662  0.1811 -0.6462  0.8204
 7265SOL     OW23562   7.754   5.838   0.774  0.3008 -0.3054  0.3767
 7265SOL    HW123563   7.674   5.811   0.820 -0.2730 -1.7306 -1.3511
 7265SOL    HW223564   7.758   5.933   0.786 -3.5214  0.3872 -2.2270
 7266SOL     OW23565   3.109   6.130   7.649 -0.4390  0.0579 -0.6265
 7266SOL    HW123566   3.164   6.079   7.591  0.0019  1.7293 -1.7549
 7266SOL    HW223567   3.041   6.070   7.677  1.4537 -1.8439  0.1538
 7267SOL     OW23568   8.229   3.763   3.766  0.3705 -0.5254  0.1250
 7267SOL    HW123569   8.173   3.822   3.816 -0.4994 -0.6038 -0.7381
 7267SOL    HW223570   8.191   3.676   3.781 -0.7114 -0.4119 -1.6863
 7268SOL     OW23571   5.105   9.032   7.845 -0.2879  0.3819  0.1286
 7268SOL    HW123572   5.134   8.972   7.914 -0.2802  1.3968  1.0363
 7268SOL    HW223573   5.104   8.978   7.765  0.1532 -0.6978  0.8257
 7269SOL     OW23574   2.391   1.759   6.762 -0.6557 -0.0699  0.6012
 7269SOL    HW123575   2.379   1.843   6.718 -0.3750 -0.2186  0.2356
 7269SOL    HW223576   2.345   1.769   6.846 -2.5117 -0.3091 -0.3386
 7270SOL     OW23577   6.086   8.086   3.886 -0.1930  0.3599  0.5843
 7270SOL    HW123578   6.039   8.100   3.969  0.9682  3.0992  0.9036
 7270SOL    HW223579   6.166   8.040   3.912 -1.4591 -2.1009  0.3823
 7271SOL     OW23580   0.252   3.847   3.685  0.0848 -0.2921 -0.0998
 7271SOL    HW123581   0.199   3.769   3.700  0.0804  0.1606  2.5634
 7271SOL    HW223582   0.231   3.906   3.757  1.8166  1.2343 -0.7524
 7272SOL     OW23583   5.244   1.469   2.034  0.1062 -0.0270  0.2426
 7272SOL    HW123584   5.282   1.405   1.974  0.4288  1.6385 -1.4267
 7272SOL    HW223585   5.151   1.472   2.011  0.0583 -0.0221  0.4321
 7273SOL     OW23586   6.598   7.694   6.151 -0.0714  0.1642 -0.5785
 7273SOL    HW123587   6.526   7.662   6.097  0.3641  1.0734 -1.7436
 7273SOL    HW223588   6.636   7.616   6.190 -2.7386 -0.2552  1.5258
 7274SOL     OW23589   0.874   3.254   5.511 -0.3140  0.3728  0.0869
 7274SOL    HW123590   0.935   3.196   5.555  1.3849  0.7334 -1.6670
 7274SOL    HW223591   0.851   3.319   5.576  0.8894  0.0197  0.8933
 7275SOL     OW23592   3.356   8.938   1.150  0.0329 -0.2504  0.3863
 7275SOL    HW123593   3.276   8.966   1.107  0.6567  2.6447  0.9296
 7275SOL    HW223594   3.396   8.875   1.089 -0.9857  0.8355 -1.4506
 7276SOL     OW23595   8.585   0.286   1.285 -0.2450 -0.1747 -0.1587
 7276SOL    HW123596   8.629   0.243   1.212  0.1038  0.8960 -0.5938
 7276SOL    HW223597   8.579   0.378   1.258  1.1095  0.5102  1.7423
 7277SOL     OW23598   2.178   2.746   6.477 -0.8383  0.8756 -0.3656
 7277SOL    HW123599   2.147   2.745   6.386  0.5791  1.1890 -0.8758
 7277SOL    HW223600   2.207   2.836   6.492 -0.6505  0.7180  0.2568
 7278SOL     OW23601   3.736   6.385   4.866  0.1972  0.3141 -0.1549
 7278SOL    HW123602   3.715   6.436   4.787 -2.3787 -1.5194 -0.7883
 7278SOL    HW223603   3.703   6.438   4.938  0.2898  0.8742 -0.5138
 7279SOL     OW23604   7.975   4.377   6.448 -0.0848 -0.3107  0.6201
 7279SOL    HW123605   8.036   4.412   6.383  0.9627 -0.3779  1.5419
 7279SOL    HW223606   7.930   4.454   6.483 -0.7693 -0.2894 -0.2829
 7280SOL     OW23607   4.326   5.429   5.148  0.3174 -0.2741 -0.2475
 7280SOL    HW123608   4.360   5.382   5.224  2.1652 -0.1397 -0.9218
 7280SOL    HW223609   4.233   5.410   5.147  0.4420 -1.1473  1.4300
 7281SOL     OW23610   1.443   6.461   8.702 -0.0526  0.1685  0.5043
 7281SOL    HW123611   1.409   6.475   8.614 -0.3687  0.8086  0.7256
 7281SOL    HW223612   1.462   6.367   8.706  0.7768  0.2755 -0.5253
 7282SOL     OW23613   4.122   0.407   9.247  0.3356  0.2822 -0.1440
 7282SOL    HW123614   4.186   0.384   9.179 -0.0278 -1.5473  0.0723
 7282SOL    HW223615   4.083   0.323   9.272 -0.1747  1.0211  1.6905
 7283SOL     OW23616   3.859   9.835   9.775  0.2415  0.1946 -0.1619
 7283SOL    HW123617   3.804   9.808   9.701 -1.8183  0.1565  1.2720
 7283SOL    HW223618   3.904   9.755   9.802  0.4985  0.0644 -0.9665
 7284SOL     OW23619   8.621   5.071   5.707 -0.0415  0.3586  0.4537
 7284SOL    HW123620   8.629   5.074   5.612 -0.2635 -1.2261  0.3623
 7284SOL    HW223621   8.693   5.124   5.740  0.1185  0.7994 -0.5927
 7285SOL     OW23622   1.884   3.909   2.729  1.2073 -0.7835 -0.2500
 7285SOL    HW123623   1.970   3.952   2.730  1.7539 -1.8561  1.0600
 7285SOL    HW223624   1.851   3.921   2.817 -1.0308  1.5354 -1.2802
 7286SOL     OW23625   5.641   5.751   5.370 -0.7559 -0.4789  0.1065
 7286SOL    HW123626   5.678   5.763   5.458  0.9378 -0.5601 -0.5512
 7286SOL    HW223627   5.561   5.701   5.384  0.2610 -1.8183  1.5012
 7287SOL     OW23628   8.857   5.385   3.802  0.3414  0.1181 -0.2851
 7287SOL    HW123629   8.761   5.391   3.809  0.3751 -0.0115  0.3826
 7287SOL    HW223630   8.890   5.447   3.867  0.7282  1.3017 -1.5808
 7288SOL     OW23631   6.972   2.740   2.328  0.2020 -0.3193 -0.0810
 7288SOL    HW123632   6.877   2.743   2.323  0.2874  0.1636 -2.6214
 7288SOL    HW223633   6.993   2.647   2.316  0.0604 -0.4285  0.4996
 7289SOL     OW23634   8.477   3.612   5.745  0.8133  0.8277  0.1823
 7289SOL    HW123635   8.508   3.539   5.692  0.0689  1.6445 -1.4646
 7289SOL    HW223636   8.552   3.636   5.800  1.4648 -0.3621 -0.1660
 7290SOL     OW23637   4.281   5.279   6.848 -0.5278  0.5137 -0.7730
 7290SOL    HW123638   4.367   5.289   6.890 -0.5820  1.6266 -0.8945
 7290SOL    HW223639   4.219   5.281   6.921 -0.4873  0.3234 -0.7334
 7291SOL     OW23640   1.416   8.520   9.333  0.2222 -0.6119  0.6573
 7291SOL    HW123641   1.441   8.430   9.311  3.2046  0.3025 -0.1391
 7291SOL    HW223642   1.417   8.522   9.429  1.3265 -1.1702  0.6750
 7292SOL     OW23643   2.742   8.583   4.734  0.1001 -0.5311  0.3189
 7292SOL    HW123644   2.715   8.503   4.779  1.7398 -1.6319 -0.5439
 7292SOL    HW223645   2.676   8.648   4.758 -1.7280 -2.3296  0.4182
 7293SOL     OW23646   5.249   8.340   8.962 -0.4667 -0.3241  0.3684
 7293SOL    HW123647   5.182   8.397   8.923  0.0996 -0.8656 -1.4738
 7293SOL    HW223648   5.330   8.390   8.954 -0.5613  0.3765  2.6999
 7294SOL     OW23649   7.753   4.978   7.413 -0.2549  0.4272 -0.5987
 7294SOL    HW123650   7.661   4.961   7.433 -0.1494  0.1034 -0.3768
 7294SOL    HW223651   7.801   4.912   7.463  0.1665  1.3422  0.2433
 7295SOL     OW23652   7.528   5.918   7.113  0.3514 -0.1602 -0.1460
 7295SOL    HW123653   7.587   5.978   7.157 -1.4260  1.2766  0.4082
 7295SOL    HW223654   7.585   5.862   7.060  2.3060 -0.0843  1.7803
 7296SOL     OW23655   3.116   6.230   5.322  0.2884  0.4907 -0.5155
 7296SOL    HW123656   3.076   6.167   5.263 -1.0321  2.6830 -2.0851
 7296SOL    HW223657   3.104   6.192   5.409 -2.7870 -0.2729 -1.1641
 7297SOL     OW23658   6.967   6.741   7.524 -0.3189 -0.7228  0.3840
 7297SOL    HW123659   6.930   6.653   7.534  0.5783 -1.0939  0.5504
 7297SOL    HW223660   6.957   6.781   7.610 -0.1127 -0.9136  0.4984
 7298SOL     OW23661   2.661   9.618   4.379 -0.0635  0.0849 -0.5389
 7298SOL    HW123662   2.660   9.697   4.325  1.4870 -1.8071 -3.6286
 7298SOL    HW223663   2.577   9.575   4.361 -0.4225  0.4354  0.2465
 7299SOL     OW23664   6.919   6.752   3.471 -0.8891 -0.0333 -0.0863
 7299SOL    HW123665   6.949   6.774   3.382  2.5572 -0.6733  0.7664
 7299SOL    HW223666   6.879   6.665   3.462  2.2642 -1.5697 -0.6800
 7300SOL     OW23667   7.311   0.052   7.614  0.3570  0.4352 -0.0443
 7300SOL    HW123668   7.317   0.030   7.707 -0.1972  0.1480 -0.0741
 7300SOL    HW223669   7.280   0.143   7.613  3.1904  1.4837  0.0875
 7301SOL     OW23670   3.987   8.919   9.293  0.1192  0.0799 -0.5077
 7301SOL    HW123671   3.976   8.908   9.198 -0.1954 -0.1700 -0.4440
 7301SOL    HW223672   4.068   8.873   9.314 -0.6644 -1.2944 -0.3998
 7302SOL     OW23673   2.220   4.277   8.804 -0.1974 -0.3222 -0.2012
 7302SOL    HW123674   2.278   4.342   8.764 -0.3955  0.1424  0.2603
 7302SOL    HW223675   2.150   4.265   8.740 -1.0190  1.1226  0.3837
 7303SOL     OW23676   2.487   4.038   1.389 -1.3151  0.0770  0.3671
 7303SOL    HW123677   2.563   4.067   1.439  0.0873 -1.9746 -0.4245
 7303SOL    HW223678   2.427   4.002   1.454 -0.7667 -0.0050  0.8304
 7304SOL     OW23679   1.753   8.755   4.123 -0.6529  0.5449 -0.1912
 7304SOL    HW123680   1.715   8.788   4.041  0.2666  0.3281 -0.7157
 7304SOL    HW223681   1.810   8.683   4.097 -0.6973  0.1736  0.6909
 7305SOL     OW23682   8.371   5.975   7.916  0.4345 -0.2780 -0.7464
 7305SOL    HW123683   8.333   6.000   8.000 -0.3030 -1.2701 -0.7643
 7305SOL    HW223684   8.462   5.953   7.936  0.2003 -0.7367 -0.1649
 7306SOL     OW23685   3.624   1.993   3.840 -0.0066 -0.0375  0.6688
 7306SOL    HW123686   3.658   1.907   3.866 -1.4319 -0.8959 -0.1402
 7306SOL    HW223687   3.626   1.991   3.744  0.0907  0.9135  0.6388
 7307SOL     OW23688   7.434   4.203   2.391  0.1438 -0.5690 -0.0303
 7307SOL    HW123689   7.406   4.286   2.353 -0.4360  0.0333  1.6591
 7307SOL    HW223690   7.524   4.219   2.420 -0.5892  0.1220  2.0230
 7308SOL     OW23691   8.097   3.206   5.899  0.0654 -0.0805 -0.4736
 7308SOL    HW123692   8.040   3.271   5.857 -1.0809 -1.3243 -0.9197
 7308SOL    HW223693   8.135   3.157   5.826  0.0860 -0.5828 -0.1361
 7309SOL     OW23694   8.375   1.372   1.194 -0.3149 -0.3233 -0.0197
 7309SOL    HW123695   8.344   1.308   1.130 -1.8740  1.2931 -0.9889
 7309SOL    HW223696   8.470   1.372   1.184 -0.4287 -1.1095 -1.3647
 7310SOL     OW23697   6.019   4.514   1.362  0.0266  0.1426  0.2197
 7310SOL    HW123698   5.952   4.578   1.386 -0.6358 -1.0930  1.8676
 7310SOL    HW223699   6.016   4.450   1.433  1.5155 -1.0529 -0.7613
 7311SOL     OW23700   5.289   3.646   3.385  0.7269  0.1957  0.2557
 7311SOL    HW123701   5.255   3.572   3.434  1.1963 -0.0521  0.2101
 7311SOL    HW223702   5.383   3.646   3.403  0.8237  0.4065 -0.2384
 7312SOL     OW23703   7.974   2.742   2.492  0.3748  0.8088  0.0861
 7312SOL    HW123704   8.015   2.828   2.484  2.0391  0.2716  1.9359
 7312SOL    HW223705   7.979   2.722   2.586 -2.6296 -0.0825  0.1584
 7313SOL     OW23706   6.985   7.619   2.150 -0.5220  0.5020 -1.0958
 7313SOL    HW123707   6.962   7.710   2.134 -3.6375 -0.1166 -0.7338
 7313SOL    HW223708   6.905   7.579   2.184  1.0427 -2.1420 -0.1859
 7314SOL     OW23709   2.232   4.963   1.294  0.7291 -0.1503  0.2961
 7314SOL    HW123710   2.260   4.925   1.378 -0.9765 -0.1027  0.9257
 7314SOL    HW223711   2.310   4.960   1.239  1.6470 -1.0245  1.5923
 7315SOL     OW23712   7.843   1.286   0.272 -0.1738 -0.0846  1.0467
 7315SOL    HW123713   7.777   1.304   0.339 -1.7562  1.2186 -0.7550
 7315SOL    HW223714   7.864   1.372   0.235  0.2202 -0.7927 -0.4781
 7316SOL     OW23715   4.739   3.899   2.963  0.2748 -0.8225 -0.1836
 7316SOL    HW123716   4.830   3.880   2.941  1.3849  0.9809  2.4081
 7316SOL    HW223717   4.731   3.872   3.054 -2.0964 -1.7266 -0.5856
 7317SOL     OW23718   0.427   3.449   4.947 -0.0013  0.1130  0.2235
 7317SOL    HW123719   0.438   3.527   5.002  0.5100 -0.3491  0.7795
 7317SOL    HW223720   0.462   3.475   4.862  0.1033  0.5120  0.3852
 7318SOL     OW23721   8.792   8.559   4.675 -0.2169 -0.4553  0.0596
 7318SOL    HW123722   8.708   8.518   4.651 -1.0220  2.0104 -1.7864
 7318SOL    HW223723   8.858   8.493   4.654 -1.5557 -1.7602 -0.2449
 7319SOL     OW23724   5.342   8.805   1.246 -0.4810 -0.0140  0.4454
 7319SOL    HW123725   5.261   8.779   1.202 -1.1969  1.9121  0.5188
 7319SOL    HW223726   5.409   8.747   1.211 -1.9130 -1.8128  0.5478
 7320SOL     OW23727   2.989   0.660   1.114 -0.1912  0.4073  0.2015
 7320SOL    HW123728   2.977   0.746   1.073 -0.6122  0.8524  1.2438
 7320SOL    HW223729   3.068   0.670   1.167  0.1162 -0.0487 -0.1593
 7321SOL     OW23730   0.917   6.665   0.348  0.3706 -0.2430  0.4709
 7321SOL    HW123731   0.894   6.658   0.255 -1.2539  1.4497  0.6889
 7321SOL    HW223732   0.896   6.580   0.385 -0.8855 -0.3114 -0.3405
 7322SOL     OW23733   7.796   5.543   2.984  0.5068  0.0303  0.0021
 7322SOL    HW123734   7.705   5.572   2.992  0.4174 -0.2240 -0.0895
 7322SOL    HW223735   7.798   5.457   3.025  0.8025  0.2148  0.3868
 7323SOL     OW23736   2.192   5.735   7.328 -0.1898 -0.2899  0.5455
 7323SOL    HW123737   2.253   5.679   7.280  1.6126  1.3816  0.7297
 7323SOL    HW223738   2.198   5.820   7.284 -1.8392  0.1178  1.0500
 7324SOL     OW23739   4.497   5.274   7.049 -0.6603  0.1287  0.1312
 7324SOL    HW123740   4.451   5.218   7.112 -1.8973  1.1935  0.2071
 7324SOL    HW223741   4.542   5.339   7.103 -0.1088 -0.1230 -0.0128
 7325SOL     OW23742   1.989   0.571   7.965 -0.4595  0.5539  0.2154
 7325SOL    HW123743   2.082   0.569   7.943 -0.1814  0.6603  1.3218
 7325SOL    HW223744   1.986   0.602   8.056 -1.5657  0.4021  0.2494
 7326SOL     OW23745   9.290   6.140   8.458 -0.1541 -0.6714 -0.0943
 7326SOL    HW123746   9.377   6.109   8.483 -0.3071  0.6789  2.4630
 7326SOL    HW223747   9.302   6.179   8.372  2.2289  1.0907  0.9429
 7327SOL     OW23748   5.010   6.493   4.658 -0.2504 -0.3793 -0.5997
 7327SOL    HW123749   4.956   6.562   4.696  0.9637 -0.0710  0.6551
 7327SOL    HW223750   5.005   6.509   4.564 -0.4001  1.1373 -0.3725
 7328SOL     OW23751   6.650   4.587   0.751  0.3301 -0.2138 -0.0714
 7328SOL    HW123752   6.572   4.637   0.727 -0.1239 -0.1699  1.3666
 7328SOL    HW223753   6.720   4.652   0.755 -0.4200  0.5661  2.6025
 7329SOL     OW23754   9.757   7.892   3.223 -0.5061 -0.4207 -0.1982
 7329SOL    HW123755   9.691   7.943   3.270 -0.2312 -0.3456  0.1146
 7329SOL    HW223756   9.818   7.957   3.188 -0.2886 -0.5169 -0.0044
 7330SOL     OW23757   4.269   1.474   1.886 -0.0907  0.0058  0.4238
 7330SOL    HW123758   4.222   1.544   1.840 -1.3077 -0.9728  0.1055
 7330SOL    HW223759   4.285   1.408   1.818  0.2188 -0.4288  0.9112
 7331SOL     OW23760   0.391   1.925   0.045 -0.1691  0.0783 -0.5594
 7331SOL    HW123761   0.321   1.976   0.003 -0.0313 -0.1487 -1.0719
 7331SOL    HW223762   0.360   1.835   0.042 -0.4568  0.1292  0.4405
 7332SOL     OW23763   0.103   2.563   0.583 -0.3444  0.2853  0.0636
 7332SOL    HW123764   0.087   2.600   0.670 -0.6988  0.0828  0.0864
 7332SOL    HW223765   0.185   2.603   0.555 -0.7025  1.0744  0.1030
 7333SOL     OW23766   1.414   6.877   5.721  0.0030  0.2978 -0.3304
 7333SOL    HW123767   1.395   6.874   5.815  0.6597 -1.6009 -0.2038
 7333SOL    HW223768   1.429   6.785   5.697  1.1917  0.8809 -2.0065
 7334SOL     OW23769   8.437   2.827   9.001 -0.4244 -0.3260 -0.2436
 7334SOL    HW123770   8.516   2.873   8.971  0.3944 -0.5189  1.4709
 7334SOL    HW223771   8.453   2.735   8.979  0.3126 -0.5135  0.9645
 7335SOL     OW23772   4.673   5.668   5.752  0.4826 -0.8295  0.5426
 7335SOL    HW123773   4.588   5.711   5.758  1.0618  0.3283  0.6629
 7335SOL    HW223774   4.731   5.734   5.714  0.7417 -2.4716 -2.1530
 7336SOL     OW23775   2.138   1.919   7.550 -0.1715  0.2676  0.2116
 7336SOL    HW123776   2.050   1.884   7.561 -0.1149  0.2684  0.6762
 7336SOL    HW223777   2.188   1.847   7.510  0.5478 -1.0882  3.2643
 7337SOL     OW23778   0.811   4.391   1.715 -0.4398  0.3140 -0.3526
 7337SOL    HW123779   0.801   4.366   1.807  0.1947  1.8304  0.1645
 7337SOL    HW223780   0.864   4.321   1.677 -0.7267 -0.3427  0.4212
 7338SOL     OW23781   3.424   4.520   2.898  0.2844 -0.7038 -0.1036
 7338SOL    HW123782   3.371   4.598   2.912  1.6947 -0.0708  2.3320
 7338SOL    HW223783   3.424   4.507   2.803 -0.7732  1.6780 -0.4905
 7339SOL     OW23784   8.615   1.211   7.341  0.4974  0.3365  0.6152
 7339SOL    HW123785   8.690   1.252   7.297  0.4757 -0.7336 -0.4738
 7339SOL    HW223786   8.575   1.282   7.391  0.6050  1.5922 -0.9925
 7340SOL     OW23787   5.941   3.729   1.697 -0.1296 -0.2692 -0.0390
 7340SOL    HW123788   5.974   3.679   1.772 -0.6298 -0.3158  0.1559
 7340SOL    HW223789   5.984   3.691   1.621  3.5098  2.2923  0.4804
 7341SOL     OW23790   9.196   1.257   3.992 -0.0093  0.2825  0.1192
 7341SOL    HW123791   9.235   1.340   4.018  3.0450 -0.5717 -1.2951
 7341SOL    HW223792   9.162   1.220   4.074 -2.2756  3.2059  0.6436
 7342SOL     OW23793   2.978   5.828   2.497 -0.8111 -0.5272 -0.0139
 7342SOL    HW123794   2.954   5.743   2.535 -1.7791  0.7941  2.6453
 7342SOL    HW223795   2.912   5.888   2.531 -0.2126  1.3047 -1.9061
 7343SOL     OW23796   0.879   1.154   7.587  0.3173  0.2176 -0.1535
 7343SOL    HW123797   0.893   1.240   7.548 -0.2419  0.1129 -0.6055
 7343SOL    HW223798   0.895   1.166   7.680 -0.2835  0.9327 -0.1395
 7344SOL     OW23799   0.649   2.586   8.138  0.0883 -0.1575  0.0162
 7344SOL    HW123800   0.692   2.658   8.092 -0.9296  0.7176  0.4091
 7344SOL    HW223801   0.655   2.609   8.231 -0.5898 -0.3826  0.1196
 7345SOL     OW23802   0.442   0.562   0.287  0.3210 -0.0378  0.5753
 7345SOL    HW123803   0.424   0.514   0.206  2.9480  0.5066 -0.4660
 7345SOL    HW223804   0.357   0.592   0.317 -0.9871 -2.0757 -0.7931
 7346SOL     OW23805   8.513   0.983   9.083 -0.2307 -0.2676 -0.7167
 7346SOL    HW123806   8.554   0.958   9.166 -0.9823 -1.4771 -0.6807
 7346SOL    HW223807   8.534   1.075   9.072  1.8637 -0.6557 -0.3419
 7347SOL     OW23808   5.505   0.923   7.871 -0.0808  0.1559  0.4286
 7347SOL    HW123809   5.594   0.888   7.877  0.3948  1.4335  1.2797
 7347SOL    HW223810   5.513   1.013   7.903 -1.6855  0.2909  0.5038
 7348SOL     OW23811   3.557   0.604   8.000 -0.5437  0.1896 -0.6067
 7348SOL    HW123812   3.631   0.543   8.001  0.4850  1.3768 -1.7012
 7348SOL    HW223813   3.557   0.641   7.912 -1.1700  1.7456  0.0091
 7349SOL     OW23814   7.659   1.158   3.771 -0.1584  0.3329  0.2011
 7349SOL    HW123815   7.727   1.129   3.832 -1.3538 -0.0523  1.3958
 7349SOL    HW223816   7.668   1.253   3.769  1.0328  0.2329 -0.4361
 7350SOL     OW23817   5.102   7.974   0.217 -0.2312 -0.3089  0.5685
 7350SOL    HW123818   5.079   7.928   0.136  2.3329  1.5655 -1.4155
 7350SOL    HW223819   5.018   7.992   0.259 -1.7286 -0.9020 -1.9487
 7351SOL     OW23820   9.836   0.998   0.978  0.2415 -0.6552  0.1700
 7351SOL    HW123821   9.845   1.092   0.987 -3.5042  0.0213 -1.2885
 7351SOL    HW223822   9.885   0.977   0.898 -2.2210  0.9380 -1.9365
 7352SOL     OW23823   2.311   9.195   8.926  0.1879 -0.0068  0.3611
 7352SOL    HW123824   2.379   9.193   8.994  0.8986  0.1949 -0.3311
 7352SOL    HW223825   2.304   9.287   8.902  0.2346 -0.1274 -0.1216
 7353SOL     OW23826   1.705   8.520   8.541 -0.3458 -1.0139 -0.2619
 7353SOL    HW123827   1.692   8.598   8.487  0.2975 -1.0289 -0.4478
 7353SOL    HW223828   1.680   8.547   8.629 -0.0501 -0.5722 -0.3131
 7354SOL     OW23829   7.633   7.020   0.404 -0.0745  0.1265 -0.5934
 7354SOL    HW123830   7.585   6.939   0.385 -0.3764 -0.0313  0.7184
 7354SOL    HW223831   7.710   6.992   0.453 -0.2807  0.6345  0.0417
 7355SOL     OW23832   6.452   0.032   9.768  0.3482 -0.0070 -0.0648
 7355SOL    HW123833   6.410   0.001   9.688  2.0281 -2.2310 -0.2028
 7355SOL    HW223834   6.487   0.118   9.746  1.7954 -1.0601 -2.1595
 7356SOL     OW23835   1.779   0.780   6.912 -0.3078  0.3013 -0.3661
 7356SOL    HW123836   1.688   0.810   6.913 -0.9416 -1.3635 -1.9004
 7356SOL    HW223837   1.809   0.796   6.823  0.5767 -0.0512 -0.1422
 7357SOL     OW23838   4.875   5.208   9.361 -0.3777  0.7560 -0.0358
 7357SOL    HW123839   4.786   5.210   9.325 -0.3813 -0.9549 -0.2230
 7357SOL    HW223840   4.892   5.115   9.375  1.7894  0.9458 -1.0315
 7358SOL     OW23841   5.367   5.713   4.786 -0.0527  0.3510  0.5706
 7358SOL    HW123842   5.368   5.625   4.822 -0.1418 -1.0783 -2.6422
 7358SOL    HW223843   5.454   5.748   4.804  0.5411 -1.0278  0.4589
 7359SOL     OW23844   7.675   3.976   5.174 -0.2289 -0.2024 -0.3388
 7359SOL    HW123845   7.741   3.962   5.106  0.4658  0.5183  0.1613
 7359SOL    HW223846   7.711   3.931   5.251 -0.4184  0.0265 -0.1166
 7360SOL     OW23847   6.185   5.769   6.305 -0.1560  0.2428 -0.1015
 7360SOL    HW123848   6.100   5.765   6.262 -0.0853  1.6659 -0.4352
 7360SOL    HW223849   6.167   5.744   6.396 -0.7602 -0.3485 -0.3790
 7361SOL     OW23850   4.747   5.901   2.831  0.8636  0.4953 -0.1319
 7361SOL    HW123851   4.779   5.962   2.897  1.0378 -0.0310  0.2841
 7361SOL    HW223852   4.735   5.819   2.879  0.8784  0.1387 -0.7298
 7362SOL     OW23853   1.287   3.849   7.276 -0.5144  0.0286 -0.4131
 7362SOL    HW123854   1.222   3.919   7.271 -1.3141 -0.6999 -0.2590
 7362SOL    HW223855   1.371   3.896   7.281 -0.9277  0.9655 -1.6894
 7363SOL     OW23856   7.261   7.002   6.080  0.2250 -0.2957  0.5406
 7363SOL    HW123857   7.329   6.936   6.087  0.0457 -0.4023  1.3280
 7363SOL    HW223858   7.295   7.078   6.127  0.0878 -0.1075  0.3425
 7364SOL     OW23859   7.215   5.169   2.934 -0.1565 -0.1934 -0.0961
 7364SOL    HW123860   7.226   5.076   2.912 -1.4076 -1.3356  3.5026
 7364SOL    HW223861   7.128   5.174   2.973 -0.1652  2.5859 -0.3168
 7365SOL     OW23862   6.887   4.348   5.705  0.4779  0.2021  0.0048
 7365SOL    HW123863   6.910   4.441   5.709  0.2000  0.3404 -1.1595
 7365SOL    HW223864   6.956   4.304   5.753  1.3447  0.9003 -0.5776
 7366SOL     OW23865   4.653   9.308   7.533 -0.2418  0.0700  0.0487
 7366SOL    HW123866   4.652   9.272   7.621 -0.0857 -0.9854 -0.3640
 7366SOL    HW223867   4.730   9.366   7.531  0.5081 -0.8881  0.2399
 7367SOL     OW23868   8.388   3.512   6.394 -0.1031 -0.2375  0.4211
 7367SOL    HW123869   8.417   3.598   6.423  0.4727 -0.3924  0.3223
 7367SOL    HW223870   8.450   3.451   6.435  1.1601 -0.4241 -1.5935
 7368SOL     OW23871   1.369   5.472   9.106 -0.6233  0.0826 -0.0367
 7368SOL    HW123872   1.422   5.508   9.035  0.7398 -2.6033 -0.5013
 7368SOL    HW223873   1.310   5.410   9.063 -0.1579 -1.1772  1.1078
 7369SOL     OW23874   4.433   6.108   7.378 -0.0283 -0.4155  0.1964
 7369SOL    HW123875   4.465   6.123   7.467 -0.9165  2.6288  0.0885
 7369SOL    HW223876   4.355   6.053   7.389 -0.1832  0.0114  1.3170
 7370SOL     OW23877   4.565   5.974   4.536  0.8281  1.0994  0.8291
 7370SOL    HW123878   4.583   5.947   4.626 -1.0110  0.5735  1.0891
 7370SOL    HW223879   4.514   6.055   4.546 -1.4476 -0.2039  0.4101
 7371SOL     OW23880   4.275   5.477   5.512 -0.1466  0.5108 -0.7704
 7371SOL    HW123881   4.327   5.481   5.592 -0.0018  1.0227 -0.8848
 7371SOL    HW223882   4.337   5.446   5.445  0.0146  1.1017 -0.9023
 7372SOL     OW23883   4.870   8.269   4.118 -0.1512 -0.3971  0.2448
 7372SOL    HW123884   4.851   8.196   4.178 -0.2152  1.0153  2.0023
 7372SOL    HW223885   4.828   8.345   4.158  1.9561  1.1175 -0.2673
 7373SOL     OW23886   4.835   4.146   8.442  0.2597  0.6915  0.2681
 7373SOL    HW123887   4.767   4.175   8.503 -0.5635  0.6491 -0.6092
 7373SOL    HW223888   4.791   4.140   8.357  1.3922  0.7690 -0.3461
 7374SOL     OW23889   8.446   1.550   4.583 -0.3674  0.3974  0.6936
 7374SOL    HW123890   8.459   1.464   4.624  0.2812  0.0160 -0.2780
 7374SOL    HW223891   8.534   1.581   4.563 -0.6321  0.9847  0.4198
 7375SOL     OW23892   3.469   5.394   0.881 -0.0097  0.3003  0.4238
 7375SOL    HW123893   3.472   5.302   0.856 -0.3144  0.9499 -2.2900
 7375SOL    HW223894   3.413   5.396   0.959  0.4878 -1.8361  0.8962
 7376SOL     OW23895   9.802   8.018   2.735 -0.0791  0.4224  0.0489
 7376SOL    HW123896   9.861   8.036   2.809  1.6173 -0.3403 -1.0597
 7376SOL    HW223897   9.826   8.084   2.669 -1.6685  1.1791  0.1832
 7377SOL     OW23898   9.094   7.797   6.792  0.1524 -0.1522  0.1071
 7377SOL    HW123899   9.151   7.836   6.857  2.6270 -0.3665 -1.7967
 7377SOL    HW223900   9.153   7.752   6.731 -2.2025 -2.2466 -0.8198
 7378SOL     OW23901   0.365   5.693   8.116 -0.3865 -0.2030  0.3022
 7378SOL    HW123902   0.433   5.654   8.062 -1.3590 -2.2107  0.4170
 7378SOL    HW223903   0.408   5.765   8.161  0.8639  0.5127 -1.8856
 7379SOL     OW23904   9.316   3.878   4.540 -0.3286 -0.3254 -0.1459
 7379SOL    HW123905   9.337   3.851   4.630  0.5843 -0.7846 -0.4804
 7379SOL    HW223906   9.346   3.969   4.535  1.4200 -0.8673 -0.5127
 7380SOL     OW23907   6.324   3.178   6.503  0.1475  0.0126  0.2050
 7380SOL    HW123908   6.249   3.234   6.479 -0.1703  0.7955  2.7069
 7380SOL    HW223909   6.369   3.227   6.573  0.3471 -2.4291  1.9183
 7381SOL     OW23910   3.324   7.034   3.673  0.1603 -0.0683 -0.5373
 7381SOL    HW123911   3.339   6.969   3.604  0.6679  1.1361 -1.5982
 7381SOL    HW223912   3.234   7.018   3.701  0.3777 -1.4363 -0.5409
 7382SOL     OW23913   6.682   9.087   1.456  0.3379 -0.7154 -0.1612
 7382SOL    HW123914   6.598   9.050   1.427  0.0868 -0.3312  0.0807
 7382SOL    HW223915   6.746   9.019   1.433  0.1398 -0.4715 -1.5609
 7383SOL     OW23916   7.279   8.351   1.288 -0.1120 -0.0690 -0.2260
 7383SOL    HW123917   7.247   8.412   1.221 -0.4521 -0.2280 -0.2125
 7383SOL    HW223918   7.325   8.283   1.239 -1.4574 -0.8814 -0.4351
 7384SOL     OW23919   1.976   5.812   2.067 -0.8714 -0.1847  0.3567
 7384SOL    HW123920   1.960   5.879   2.133  0.6899  0.6394 -0.0433
 7384SOL    HW223921   1.999   5.734   2.117  1.3879  0.7121  0.8629
 7385SOL     OW23922   7.363   2.588   0.663  0.0553  0.7232  0.0196
 7385SOL    HW123923   7.344   2.534   0.740 -0.8236 -1.4735 -1.6240
 7385SOL    HW223924   7.288   2.646   0.656 -0.5898 -0.0867  0.0094
 7386SOL     OW23925   1.787   4.260   8.609  0.4087  0.0485 -0.4640
 7386SOL    HW123926   1.772   4.247   8.516 -3.1413 -1.7005  0.1939
 7386SOL    HW223927   1.789   4.172   8.646  1.6263  0.7010  1.1853
 7387SOL     OW23928   4.775   0.100   2.606  0.0828  0.1482  0.9139
 7387SOL    HW123929   4.841   0.089   2.673  0.4071 -0.5045  0.4926
 7387SOL    HW223930   4.696   0.125   2.653  0.4428  0.2108  1.4838
 7388SOL     OW23931   5.918   4.768   3.862 -0.6676 -0.4330  0.3595
 7388SOL    HW123932   5.984   4.790   3.797 -0.0306 -0.1830  1.0774
 7388SOL    HW223933   5.848   4.832   3.848 -1.8614 -2.0899 -1.9195
 7389SOL     OW23934   2.974   0.691   5.304  1.2627  0.3097 -0.4063
 7389SOL    HW123935   2.990   0.785   5.303  2.3689  0.1357 -1.3793
 7389SOL    HW223936   2.905   0.678   5.239 -0.6777  0.6756  1.4389
 7390SOL     OW23937   7.818   4.767   0.523 -0.0868  0.3399 -0.2613
 7390SOL    HW123938   7.873   4.844   0.525 -0.2678  0.4847 -0.7589
 7390SOL    HW223939   7.730   4.799   0.544  0.0586  0.0628  0.8442
 7391SOL     OW23940   1.699   2.538   9.548  0.4793 -0.7530 -0.3194
 7391SOL    HW123941   1.671   2.480   9.478 -2.4693  0.2643 -0.1300
 7391SOL    HW223942   1.767   2.593   9.509 -2.1359  0.8471 -3.0239
 7392SOL     OW23943   1.036   2.385   0.758  0.5111  0.4212  0.1133
 7392SOL    HW123944   0.984   2.452   0.803  0.6180  0.5499  0.0460
 7392SOL    HW223945   1.023   2.402   0.665  1.0341  0.7363  0.0963
 7393SOL     OW23946   0.362   7.736   5.159  0.7488  0.3320 -0.2250
 7393SOL    HW123947   0.298   7.668   5.179  1.0316  0.1256 -0.0192
 7393SOL    HW223948   0.326   7.780   5.082  0.9353 -0.5281 -0.8141
 7394SOL     OW23949   7.972   4.482   5.389 -0.4500 -0.0670  0.5616
 7394SOL    HW123950   7.985   4.435   5.307  1.1081  1.9542 -0.4548
 7394SOL    HW223951   8.058   4.521   5.408 -1.4032  1.5365  1.8343
 7395SOL     OW23952   3.361   3.745   1.602  0.3658 -0.3168  0.5970
 7395SOL    HW123953   3.453   3.770   1.613  0.7885 -2.0140  1.2559
 7395SOL    HW223954   3.313   3.828   1.601  2.2034  0.9904 -3.7792
 7396SOL     OW23955   2.862   3.513   3.797  0.1777 -0.2121 -0.1572
 7396SOL    HW123956   2.860   3.422   3.826 -0.1296  0.2068  1.2196
 7396SOL    HW223957   2.813   3.513   3.715 -0.5354 -1.1562  0.2532
 7397SOL     OW23958   8.848   1.223   9.136  0.0969  0.3897  0.3608
 7397SOL    HW123959   8.868   1.260   9.050  0.4507  3.1407  1.5142
 7397SOL    HW223960   8.768   1.172   9.122  1.0308 -0.6115 -1.8634
 7398SOL     OW23961   6.743   6.571   1.648 -0.0546 -0.0162 -0.2339
 7398SOL    HW123962   6.650   6.551   1.644  0.0063 -0.8330  1.5913
 7398SOL    HW223963   6.760   6.590   1.740  1.2531  1.9116 -0.8062
 7399SOL     OW23964   6.569   7.621   5.443 -0.2163 -0.1110 -0.6327
 7399SOL    HW123965   6.476   7.600   5.430 -0.3691  0.0640  0.1218
 7399SOL    HW223966   6.570   7.716   5.456 -0.0755 -0.2459  0.4591
 7400SOL     OW23967   9.075   4.199   2.382 -0.7144 -0.5141  0.1613
 7400SOL    HW123968   9.141   4.248   2.333 -1.6247 -0.2780 -0.8786
 7400SOL    HW223969   9.125   4.136   2.433  0.3106 -0.5057 -0.7907
 7401SOL     OW23970   1.885   5.046   5.731  0.3140  0.0746 -0.2853
 7401SOL    HW123971   1.955   5.093   5.776 -0.5494  1.2035 -0.0924
 7401SOL    HW223972   1.872   5.095   5.650  1.0895 -1.2903 -1.2957
 7402SOL     OW23973   2.592   2.725   4.572  0.4034  0.3492  0.0456
 7402SOL    HW123974   2.531   2.702   4.642 -0.8586 -1.4293 -1.5345
 7402SOL    HW223975   2.613   2.817   4.588  0.2780 -0.0112  2.7921
 7403SOL     OW23976   8.479   0.356   7.487  0.0550  0.2279  0.3199
 7403SOL    HW123977   8.430   0.288   7.533 -0.6868  0.4382 -0.1455
 7403SOL    HW223978   8.536   0.308   7.426  1.9893 -0.1332  2.2661
 7404SOL     OW23979   9.470   1.010   3.748  0.0096  0.1787  0.1810
 7404SOL    HW123980   9.561   0.983   3.762 -0.5989 -1.1642  2.1091
 7404SOL    HW223981   9.453   1.073   3.818 -0.7915 -0.3654  0.5043
 7405SOL     OW23982   0.964   9.771   6.748 -0.3371  0.5150 -0.3053
 7405SOL    HW123983   0.993   9.727   6.669  0.0795 -0.5758  0.4397
 7405SOL    HW223984   0.977   9.864   6.730  0.8294  0.2180 -1.0901
 7406SOL     OW23985   4.287   0.505   9.004  0.4330  0.1884  0.2364
 7406SOL    HW123986   4.313   0.547   8.922  1.1400  0.7423  0.7326
 7406SOL    HW223987   4.302   0.411   8.988 -2.5215 -0.1283 -1.3798
 7407SOL     OW23988   4.349   9.380   0.144  0.3204  0.4320  0.2326
 7407SOL    HW123989   4.393   9.346   0.221  0.8273 -0.4458 -0.4213
 7407SOL    HW223990   4.356   9.476   0.151  0.9426  0.3367  0.9293
 7408SOL     OW23991   0.469   5.932   4.118 -0.6900  0.0606 -0.8176
 7408SOL    HW123992   0.383   5.969   4.138 -0.8782 -1.4517  1.5678
 7408SOL    HW223993   0.455   5.838   4.118  0.5302 -0.1747 -2.8864
 7409SOL     OW23994   7.068   1.507   8.024 -0.5778 -0.7010 -0.6352
 7409SOL    HW123995   7.009   1.582   8.024 -1.2847 -1.2461 -0.2487
 7409SOL    HW223996   7.123   1.520   7.947  1.0740  1.5614  0.7827
 7410SOL     OW23997   7.617   7.679   2.922 -0.2090  0.4208  0.2464
 7410SOL    HW123998   7.596   7.745   2.857  1.2544 -0.9814 -1.7927
 7410SOL    HW223999   7.666   7.726   2.990  1.2129  1.3884 -1.3919
 7411SOL     OW24000   3.802   8.339   9.020 -0.0187 -0.5862 -0.4211
 7411SOL    HW124001   3.844   8.347   9.106  0.9597 -0.5491 -0.8856
 7411SOL    HW224002   3.718   8.385   9.030 -0.0115 -0.7624  0.5676
 7412SOL     OW24003   5.140   8.622   5.567 -0.0758 -0.1511  0.6511
 7412SOL    HW124004   5.216   8.604   5.511 -0.0964 -1.1647  0.9359
 7412SOL    HW224005   5.177   8.671   5.642 -0.0161  1.0157 -0.1080
 7413SOL     OW24006   1.320   0.420   6.096  0.2398  0.0569 -0.2750
 7413SOL    HW124007   1.226   0.409   6.110  0.4602 -1.8063 -0.0081
 7413SOL    HW224008   1.328   0.435   6.002 -0.3314  0.0943 -0.3222
 7414SOL     OW24009   9.209   2.231   0.654 -0.0026 -0.4915  0.8075
 7414SOL    HW124010   9.188   2.153   0.602  0.8596 -2.6371  3.4476
 7414SOL    HW224011   9.294   2.260   0.620 -0.8035  0.0107 -0.8862
 7415SOL     OW24012   3.482   5.443   9.276 -0.4406 -0.0191  0.2815
 7415SOL    HW124013   3.519   5.372   9.329 -0.3629 -0.2472 -0.0769
 7415SOL    HW224014   3.389   5.422   9.270 -0.9193  1.2316  2.2673
 7416SOL     OW24015   8.441   2.067   7.800  0.0609 -0.3809 -0.3034
 7416SOL    HW124016   8.477   2.023   7.877 -0.7517  1.0082  0.9040
 7416SOL    HW224017   8.370   2.009   7.770 -0.8357 -0.0473  1.1088
 7417SOL     OW24018   8.587   3.857   4.588  0.1527  0.1088  0.5997
 7417SOL    HW124019   8.665   3.885   4.540  0.4691 -2.2025 -0.3485
 7417SOL    HW224020   8.547   3.790   4.532 -1.7249  0.2109  1.7345
 7418SOL     OW24021   3.078   1.248   9.807  0.0419 -0.0926  0.2381
 7418SOL    HW124022   3.138   1.225   9.878 -0.1232 -1.1584  0.0558
 7418SOL    HW224023   3.087   1.343   9.797  0.0398  0.0820  1.6991
 7419SOL     OW24024   8.427   5.381   6.174  0.8099  0.6365 -0.2895
 7419SOL    HW124025   8.479   5.398   6.252  1.6140  2.9864 -1.2282
 7419SOL    HW224026   8.372   5.459   6.164  0.6573  0.3598 -1.9789
 7420SOL     OW24027   5.029   0.095   2.771  0.1476 -0.5928  0.0531
 7420SOL    HW124028   5.040   0.163   2.837 -0.3282 -0.0832 -0.3904
 7420SOL    HW224029   5.021   0.014   2.822  1.1440 -0.3805  0.5625
 7421SOL     OW24030   6.927   1.270   7.921 -0.1503  0.2330  0.7444
 7421SOL    HW124031   7.003   1.302   7.970 -1.3463  0.4296  2.5649
 7421SOL    HW224032   6.948   1.179   7.902  1.3327  0.7833 -0.4667
 7422SOL     OW24033   5.329   5.830   2.435 -0.9919  0.4796 -0.0551
 7422SOL    HW124034   5.285   5.873   2.508 -0.6632  0.3970  0.1953
 7422SOL    HW224035   5.346   5.900   2.373  1.3961  1.1476  1.2471
 7423SOL     OW24036   7.541   0.539   5.806 -0.6217  0.0140  0.6888
 7423SOL    HW124037   7.455   0.582   5.815 -0.8102 -0.0255 -0.7497
 7423SOL    HW224038   7.526   0.468   5.744  0.3361 -0.3717  0.8836
 7424SOL     OW24039   0.645   0.550   9.289  0.5198 -0.6665 -0.3445
 7424SOL    HW124040   0.558   0.571   9.323 -0.2915 -1.4071 -1.8695
 7424SOL    HW224041   0.678   0.633   9.253  0.8956 -0.1533  1.1176
 7425SOL     OW24042   7.758   7.476   5.121  0.4702  0.9437  0.9213
 7425SOL    HW124043   7.724   7.529   5.048  0.8371  0.9054  0.7180
 7425SOL    HW224044   7.700   7.496   5.194 -1.5314 -0.9647 -0.0243
 7426SOL     OW24045   0.616   4.313   0.370  0.2206  0.1259 -0.3568
 7426SOL    HW124046   0.654   4.330   0.284  0.3452 -1.0888 -0.5578
 7426SOL    HW224047   0.523   4.331   0.359  0.4489  1.4556 -0.3161
 7427SOL     OW24048   0.788   1.782   2.878 -0.0622  0.1992 -0.6049
 7427SOL    HW124049   0.705   1.828   2.866 -0.4459 -0.2452  0.2647
 7427SOL    HW224050   0.774   1.727   2.955  1.1687  0.4095 -0.2178
 7428SOL     OW24051   6.340   7.470   3.318  0.0771  0.4377 -0.3371
 7428SOL    HW124052   6.372   7.532   3.252  0.9110 -0.0236 -0.3707
 7428SOL    HW224053   6.373   7.385   3.289  1.0771  0.3283  1.0674
 7429SOL     OW24054   5.512   9.836   8.714  0.4301 -0.1852 -0.3747
 7429SOL    HW124055   5.476   9.880   8.637 -0.4160 -0.5482 -0.1949
 7429SOL    HW224056   5.590   9.792   8.682  1.3535  1.4733 -0.5508
 7430SOL     OW24057   2.255   9.323   2.873  0.1189 -0.1558 -0.1437
 7430SOL    HW124058   2.237   9.231   2.890  0.8196 -0.2194  0.3081
 7430SOL    HW224059   2.277   9.360   2.958 -1.6284  0.8014 -0.0611
 7431SOL     OW24060   7.067   1.963   0.750  0.6542  0.3440  0.4223
 7431SOL    HW124061   7.054   2.033   0.686 -0.6337 -1.2559 -1.1679
 7431SOL    HW224062   6.985   1.959   0.798  0.1482 -0.9839 -0.4968
 7432SOL     OW24063   6.958   9.285   6.981 -0.4873 -0.2265  0.4960
 7432SOL    HW124064   6.907   9.365   6.966  0.3043  0.7735  2.6520
 7432SOL    HW224065   6.970   9.282   7.076  1.5055 -1.6357  0.2614
 7433SOL     OW24066   1.760   5.475   9.240  0.6858  0.4482 -0.2273
 7433SOL    HW124067   1.829   5.506   9.298  0.0014  0.9565  0.3256
 7433SOL    HW224068   1.681   5.516   9.272  0.3870  1.3211 -1.9654
 7434SOL     OW24069   9.599   9.176   4.801 -0.0017 -0.1905  0.0407
 7434SOL    HW124070   9.621   9.085   4.781  0.1652 -0.4804  1.4573
 7434SOL    HW224071   9.527   9.196   4.741  1.1957 -0.6211 -1.6029
 7435SOL     OW24072   2.927   6.137   2.115 -0.5824  0.0878 -0.3853
 7435SOL    HW124073   3.006   6.188   2.095  0.0021 -0.5671  0.1879
 7435SOL    HW224074   2.950   6.087   2.194 -2.2687  1.4236  1.0517
 7436SOL     OW24075   7.293   4.089   8.090  0.0251  0.6355 -0.3668
 7436SOL    HW124076   7.348   4.041   8.152  1.4833  0.6342 -1.5909
 7436SOL    HW224077   7.270   4.025   8.023  1.0506  1.3280 -1.4223
 7437SOL     OW24078   6.643   9.724   3.693  0.5164 -0.1941  0.1374
 7437SOL    HW124079   6.715   9.677   3.735 -0.3086 -2.2772 -0.6737
 7437SOL    HW224080   6.583   9.655   3.664 -0.6561  1.3664 -1.3102
 7438SOL     OW24081   4.664   9.249   7.789  0.6480  0.0252 -0.3244
 7438SOL    HW124082   4.700   9.334   7.815 -0.3151  0.4267 -0.2563
 7438SOL    HW224083   4.715   9.185   7.838  4.0423  0.2188 -3.1282
 7439SOL     OW24084   6.510   4.504   6.590  0.1017  0.1006 -0.5033
 7439SOL    HW124085   6.512   4.509   6.495 -0.7705 -0.3442 -0.5550
 7439SOL    HW224086   6.541   4.416   6.611  0.5605  0.2942 -0.3608
 7440SOL     OW24087   7.717   4.372   7.712  0.2469 -0.1009 -0.6531
 7440SOL    HW124088   7.637   4.348   7.665 -0.5145  0.8231  0.1241
 7440SOL    HW224089   7.771   4.293   7.709 -1.0650 -1.0477 -0.4235
 7441SOL     OW24090   9.712   3.266   4.004  0.4474 -0.0979  1.1260
 7441SOL    HW124091   9.697   3.332   3.936  1.4430  2.5390  3.2468
 7441SOL    HW224092   9.626   3.251   4.042  0.4125  1.1909  1.5958
 7442SOL     OW24093   8.965   2.210   7.749 -0.3581 -0.1448  0.0389
 7442SOL    HW124094   9.052   2.188   7.784 -0.8774 -2.3093  0.0767
 7442SOL    HW224095   8.980   2.226   7.656  0.1412  0.0143  0.1395
 7443SOL     OW24096   9.229   9.534   6.761  0.0288 -0.0281  0.6020
 7443SOL    HW124097   9.140   9.523   6.726 -0.0256  2.1168 -0.0579
 7443SOL    HW224098   9.286   9.499   6.693 -0.2561  0.0963  0.2987
 7444SOL     OW24099   4.446   3.611   9.321  0.0243  0.0517  0.2368
 7444SOL    HW124100   4.504   3.673   9.365 -1.5628  1.3555  0.5861
 7444SOL    HW224101   4.410   3.661   9.248 -0.5781 -0.7679 -0.0354
 7445SOL     OW24102   5.371   4.941   5.131  0.1481  0.0884 -0.3445
 7445SOL    HW124103   5.419   5.020   5.155 -0.2581 -0.1428  1.3687
 7445SOL    HW224104   5.317   4.921   5.208  0.2640 -1.8602 -0.7119
 7446SOL     OW24105   9.558   6.669   4.699  0.2106  0.0446 -0.3322
 7446SOL    HW124106   9.593   6.758   4.699 -2.1445  1.0493 -0.2624
 7446SOL    HW224107   9.627   6.615   4.660  1.4769  1.9853 -0.8823
 7447SOL     OW24108   7.836   2.244   6.635  0.2065 -0.3990  0.3493
 7447SOL    HW124109   7.751   2.204   6.621  0.8011 -1.1255 -1.5177
 7447SOL    HW224110   7.844   2.309   6.564  1.3051 -0.5469  0.3136
 7448SOL     OW24111   8.811   2.923   1.266 -0.1056  0.0505 -0.7024
 7448SOL    HW124112   8.768   2.920   1.352 -2.3905  1.8831 -1.6879
 7448SOL    HW224113   8.871   2.997   1.271 -0.6176  0.4810 -0.8198
 7449SOL     OW24114   1.939   0.629   7.124  0.4604  0.0296 -0.1705
 7449SOL    HW124115   1.890   0.681   7.060 -0.4413 -0.4745  0.0924
 7449SOL    HW224116   2.020   0.604   7.078 -0.1337 -0.2642 -1.0951
 7450SOL     OW24117   1.550   4.265   7.222 -0.2818  0.3738 -0.3216
 7450SOL    HW124118   1.547   4.204   7.295  2.4311  0.5708  0.0636
 7450SOL    HW224119   1.537   4.211   7.144  0.9646 -0.5650  0.0831
 7451SOL     OW24120   4.952   9.083   0.087 -0.2987 -0.1228  0.0151
 7451SOL    HW124121   4.984   9.099   0.176 -0.4790 -0.9536  0.2295
 7451SOL    HW224122   4.886   9.151   0.073  0.6100  0.7887  0.0505
 7452SOL     OW24123   0.356   5.127   8.745  0.3626 -0.3503  0.1261
 7452SOL    HW124124   0.356   5.042   8.790  2.8750 -0.4273  0.1002
 7452SOL    HW224125   0.303   5.111   8.666 -1.6258 -1.0276  1.5269
 7453SOL     OW24126   2.459   0.344   5.171  0.7630 -0.4894 -0.0438
 7453SOL    HW124127   2.406   0.412   5.212 -0.7485 -1.6810  0.1055
 7453SOL    HW224128   2.547   0.380   5.168 -0.0093  1.5433 -0.1752
 7454SOL     OW24129   0.725   1.374   7.213  0.0306 -0.1249  0.0096
 7454SOL    HW124130   0.637   1.406   7.196 -0.2994 -0.9699  0.0792
 7454SOL    HW224131   0.713   1.283   7.241  1.0484 -0.9683 -2.0377
 7455SOL     OW24132   0.105   3.986   4.711  0.2093 -0.1222 -0.0294
 7455SOL    HW124133   0.104   3.895   4.683 -0.7760  0.1816 -1.0545
 7455SOL    HW224134   0.178   3.991   4.774 -1.5705 -2.2933  2.4347
 7456SOL     OW24135   7.272   1.333   2.050 -0.7168 -0.2282 -0.4226
 7456SOL    HW124136   7.368   1.329   2.054 -0.7392 -2.7571 -0.9851
 7456SOL    HW224137   7.243   1.325   2.140 -0.4300  0.3156 -0.2744
 7457SOL     OW24138   2.845   7.593   5.616 -0.2168  0.0205  0.7805
 7457SOL    HW124139   2.911   7.587   5.685  1.1931  1.0295 -0.4105
 7457SOL    HW224140   2.815   7.503   5.603  1.9081 -0.6970  0.4537
 7458SOL     OW24141   0.273   7.734   8.983 -0.1019  0.1380 -0.2773
 7458SOL    HW124142   0.337   7.671   8.949  0.0586  0.3677 -0.4102
 7458SOL    HW224143   0.326   7.798   9.030 -0.2808  0.0795  0.0103
 7459SOL     OW24144   0.897   6.400   0.355  0.8743 -0.1066  0.1316
 7459SOL    HW124145   0.899   6.331   0.422 -0.5361 -1.0824 -0.7764
 7459SOL    HW224146   0.922   6.355   0.274  1.9328  0.9248 -0.1406
 7460SOL     OW24147   7.563   1.126   1.866  0.1684 -0.1259  0.6392
 7460SOL    HW124148   7.604   1.118   1.780 -1.5331 -3.5876 -0.0213
 7460SOL    HW224149   7.550   1.220   1.877  2.6212  0.6458 -1.7424
 7461SOL     OW24150   2.040   3.402   4.734  0.2647  0.2249  0.2261
 7461SOL    HW124151   2.036   3.468   4.803  2.1621 -0.5951  1.2107
 7461SOL    HW224152   2.020   3.450   4.653 -0.6188  1.4993  1.1703
 7462SOL     OW24153   0.792   3.509   9.763 -0.2131 -0.3691 -0.1334
 7462SOL    HW124154   0.742   3.590   9.771  0.2770 -0.0457 -0.3116
 7462SOL    HW224155   0.796   3.474   9.852  0.6368  0.4494  0.1629
 7463SOL     OW24156   5.976   9.478   4.174 -0.1308  0.5006 -0.4577
 7463SOL    HW124157   5.941   9.524   4.250 -2.1839  0.7026 -1.4817
 7463SOL    HW224158   5.922   9.400   4.166  2.1255 -1.2541  0.1385
 7464SOL     OW24159   9.269   9.679   7.376  0.1433 -0.0668  0.6985
 7464SOL    HW124160   9.357   9.694   7.342  0.0187  1.1984  0.8763
 7464SOL    HW224161   9.216   9.660   7.298 -0.1218  2.7177  0.0733
 7465SOL     OW24162   2.893   3.951   3.190 -0.1044 -0.0048 -0.1642
 7465SOL    HW124163   2.933   3.927   3.106 -0.7155  1.5933 -0.9613
 7465SOL    HW224164   2.948   4.022   3.224 -0.1679 -0.2788  0.5209
 7466SOL     OW24165   3.930   3.240   6.471 -0.5747 -0.2138  0.7789
 7466SOL    HW124166   3.931   3.296   6.394 -0.3143  0.5905  1.3563
 7466SOL    HW224167   3.866   3.171   6.450  0.0167 -0.4223 -0.4328
 7467SOL     OW24168   4.311   6.770   9.141  0.7250 -0.4229  0.3407
 7467SOL    HW124169   4.321   6.741   9.051  0.2423 -1.9838  0.7546
 7467SOL    HW224170   4.386   6.827   9.157  0.5015  0.3444 -1.2079
 7468SOL     OW24171   7.664   4.930   7.147 -0.1493  0.1424  0.0241
 7468SOL    HW124172   7.675   4.946   7.240 -1.8057  0.1498  0.2572
 7468SOL    HW224173   7.610   5.003   7.117  0.4952  0.2241 -0.9797
 7469SOL     OW24174   9.210   5.795   6.907 -0.0797  0.4305 -0.0959
 7469SOL    HW124175   9.185   5.816   6.817 -0.6570  0.3197  0.0337
 7469SOL    HW224176   9.227   5.880   6.947 -2.6464  0.7393  0.4979
 7470SOL     OW24177   2.106   0.754   1.958 -0.2908  0.5754 -0.6362
 7470SOL    HW124178   2.130   0.751   1.866 -0.0117  3.2514 -0.7213
 7470SOL    HW224179   2.173   0.808   2.000 -1.0374  0.3844  0.9133
 7471SOL     OW24180   8.050   7.420   4.491 -0.3071 -0.0275 -0.0551
 7471SOL    HW124181   8.005   7.368   4.424  1.9362  0.0047 -1.7010
 7471SOL    HW224182   8.082   7.497   4.444  1.8959 -0.3187  0.8552
 7472SOL     OW24183   6.332   1.142   0.133  0.1388  0.2287  0.5130
 7472SOL    HW124184   6.262   1.148   0.198 -0.4464  0.6437 -0.1437
 7472SOL    HW224185   6.401   1.200   0.166 -0.4230  0.9412  0.4444
 7473SOL     OW24186   7.933   0.705   5.517  0.4835  0.3669 -0.6457
 7473SOL    HW124187   7.905   0.694   5.426 -1.7302 -0.0073  0.0281
 7473SOL    HW224188   7.861   0.752   5.559  1.1830 -0.0299  1.0699
 7474SOL     OW24189   7.181   1.708   3.670  0.3567 -0.3630  0.5274
 7474SOL    HW124190   7.272   1.691   3.644  0.5408 -1.1004  1.5956
 7474SOL    HW224191   7.180   1.802   3.691  1.1716 -0.5610  1.5701
 7475SOL     OW24192   2.644   9.530   0.515 -0.8473 -0.6525 -0.0772
 7475SOL    HW124193   2.618   9.468   0.446  1.1174 -1.6018 -0.0353
 7475SOL    HW224194   2.739   9.520   0.521 -0.5298  2.0605  0.2847
 7476SOL     OW24195   6.820   9.240   4.527 -0.1458  0.8672  0.7576
 7476SOL    HW124196   6.872   9.241   4.608  0.3508 -1.0606  0.5221
 7476SOL    HW224197   6.885   9.235   4.457 -0.5914  1.9532  0.2583
 7477SOL     OW24198   9.733   6.503   1.146  0.3903 -0.4080 -0.7985
 7477SOL    HW124199   9.736   6.594   1.116  1.7074 -0.0302  0.3561
 7477SOL    HW224200   9.825   6.479   1.156  0.0416 -1.2072  0.7944
 7478SOL     OW24201   8.178   3.816   3.088 -0.2377  0.2506 -0.0371
 7478SOL    HW124202   8.178   3.802   2.993  0.5923 -1.3577  0.1750
 7478SOL    HW224203   8.205   3.732   3.125 -0.2047  0.9567  1.6205
 7479SOL     OW24204   0.172   3.736   0.380  0.2815  0.1721  0.0778
 7479SOL    HW124205   0.205   3.823   0.402  0.5354  0.3792 -1.0278
 7479SOL    HW224206   0.233   3.676   0.421  1.1001  0.5452 -0.5617
 7480SOL     OW24207   8.684   7.858   4.462  0.1112 -0.1001  0.0830
 7480SOL    HW124208   8.674   7.868   4.367  0.7494  1.1032  0.1290
 7480SOL    HW224209   8.600   7.883   4.498  0.2812  0.7646 -0.0963
 7481SOL     OW24210   8.343   3.464   2.413  0.3582  0.5127  0.1257
 7481SOL    HW124211   8.373   3.520   2.485 -0.2238  1.0135 -0.0195
 7481SOL    HW224212   8.375   3.508   2.335 -0.9942  1.2222 -0.0538
 7482SOL     OW24213   7.502   7.618   4.128  0.1146  0.6469  0.2478
 7482SOL    HW124214   7.560   7.588   4.198  0.1762  0.8877  0.3019
 7482SOL    HW224215   7.561   7.657   4.063  0.3620 -2.0161 -1.2659
 7483SOL     OW24216   4.419   3.579   3.642  0.0014 -0.0070  0.2959
 7483SOL    HW124217   4.467   3.657   3.614 -0.4774 -0.2560 -1.3708
 7483SOL    HW224218   4.327   3.607   3.644 -0.2905 -0.7156 -1.2503
 7484SOL     OW24219   7.084   6.143   6.263  0.3451  0.1056  0.3131
 7484SOL    HW124220   7.051   6.067   6.216 -1.0198  0.4401  0.6991
 7484SOL    HW224221   7.041   6.218   6.221  0.2316  0.5158  1.1308
 7485SOL     OW24222   6.814   7.256   8.988 -0.7524 -0.0263 -0.9306
 7485SOL    HW124223   6.776   7.202   8.919 -1.0917  0.4423 -1.1141
 7485SOL    HW224224   6.851   7.331   8.943 -0.2534 -0.1167 -0.6795
 7486SOL     OW24225   0.638   6.014   5.384 -0.6743  0.3820 -0.4862
 7486SOL    HW124226   0.729   5.985   5.388 -0.1118  1.7973 -2.0815
 7486SOL    HW224227   0.594   5.962   5.452  1.3883 -0.0184  0.6477
 7487SOL     OW24228   6.930   8.711   8.510 -0.4800  0.1749 -0.4928
 7487SOL    HW124229   7.020   8.740   8.499 -0.2324 -0.4528 -0.1792
 7487SOL    HW224230   6.882   8.790   8.534  0.3197  0.2196  1.1096
 7488SOL     OW24231   7.753   3.425   8.652 -1.0708  0.0565  0.3065
 7488SOL    HW124232   7.676   3.469   8.687 -0.9740 -1.7929  3.1347
 7488SOL    HW224233   7.742   3.333   8.677  1.7673 -0.3697  0.3402
 7489SOL     OW24234   0.714   2.615   3.830  0.1094 -0.3553 -0.0090
 7489SOL    HW124235   0.693   2.570   3.912  0.3304  0.6847  0.6407
 7489SOL    HW224236   0.670   2.564   3.763 -1.3015 -0.4065  0.9110
 7490SOL     OW24237   1.060   7.672   5.489  0.4232 -0.2889  0.4101
 7490SOL    HW124238   1.068   7.733   5.416 -2.2550  0.5185  0.6915
 7490SOL    HW224239   1.088   7.588   5.453 -1.0786  0.0298 -1.6670
 7491SOL     OW24240   4.104   4.682   4.229  0.1787 -0.0323  0.3053
 7491SOL    HW124241   4.162   4.757   4.215  1.8341 -1.4091 -0.5505
 7491SOL    HW224242   4.022   4.706   4.186  0.0693  1.9486  1.5071
 7492SOL     OW24243   7.438   4.262   8.599  0.4312  0.3575 -0.2249
 7492SOL    HW124244   7.424   4.170   8.623 -1.0147  0.9940  1.5865
 7492SOL    HW224245   7.509   4.259   8.535  0.3537 -2.0252 -0.3058
 7493SOL     OW24246   2.300   3.289   4.750 -0.5291  0.0332  0.5643
 7493SOL    HW124247   2.332   3.247   4.670  0.9238 -0.8340  1.5568
 7493SOL    HW224248   2.205   3.273   4.748 -0.4124 -0.7098 -0.5513
 7494SOL     OW24249   5.837   5.591   9.404  0.5645 -0.1385  0.0152
 7494SOL    HW124250   5.839   5.610   9.498 -1.6497 -1.0047  0.2886
 7494SOL    HW224251   5.824   5.496   9.400 -1.9192  0.1741 -1.0824
 7495SOL     OW24252   2.138   1.811   9.622  0.0122 -0.2387  0.1708
 7495SOL    HW124253   2.092   1.742   9.574  0.3849 -0.4340  0.0871
 7495SOL    HW224254   2.227   1.776   9.634 -0.4653 -0.8579  2.3467
 7496SOL     OW24255   3.491   6.901   7.265  0.1209 -0.0599 -0.0479
 7496SOL    HW124256   3.521   6.961   7.197  1.1936  0.1300  0.5692
 7496SOL    HW224257   3.396   6.912   7.267 -0.1995 -1.5920 -2.9150
 7497SOL     OW24258   3.224   6.913   2.040  0.2139  0.2639  0.7407
 7497SOL    HW124259   3.240   6.989   1.985  0.3245  2.0515  3.0674
 7497SOL    HW224260   3.137   6.882   2.014  0.7087  0.3385 -1.1247
 7498SOL     OW24261   1.343   0.621   0.610  0.2102  0.1522  0.3785
 7498SOL    HW124262   1.408   0.559   0.576  0.0188  0.4239 -0.5082
 7498SOL    HW224263   1.263   0.601   0.561  0.4540  1.8548 -0.7716
 7499SOL     OW24264   4.235   4.634   3.191 -0.5329 -0.2952 -0.2020
 7499SOL    HW124265   4.264   4.674   3.273  2.7516  1.1406 -1.9133
 7499SOL    HW224266   4.162   4.689   3.163  0.1464  0.9357  0.3735
 7500SOL     OW24267   8.501   9.508   6.411 -0.0226 -0.4155  0.3453
 7500SOL    HW124268   8.590   9.544   6.418 -0.2145 -0.1137  1.2392
 7500SOL    HW224269   8.444   9.583   6.424 -0.4201 -0.9155  1.6236
 7501SOL     OW24270   2.168   6.064   0.610 -0.3021  0.0883 -0.1686
 7501SOL    HW124271   2.216   5.982   0.617  1.9523  1.3125 -0.0261
 7501SOL    HW224272   2.182   6.107   0.695 -0.8138  0.9211 -0.4908
 7502SOL     OW24273   6.728   5.178   9.322 -0.4902  0.0798  0.0604
 7502SOL    HW124274   6.678   5.098   9.337  0.2150  0.1110  3.4062
 7502SOL    HW224275   6.666   5.249   9.343 -0.4364  0.3419 -0.6306
 7503SOL     OW24276   2.529   0.777   0.082  0.4459 -0.3324  0.1574
 7503SOL    HW124277   2.624   0.784   0.095  0.3745 -2.0551  2.0941
 7503SOL    HW224278   2.514   0.684   0.065 -0.9876 -0.2265  0.6935
 7504SOL     OW24279   2.081   8.682   3.353 -0.2686  0.4223 -0.1109
 7504SOL    HW124280   2.058   8.749   3.418  1.3443  1.0761 -0.1672
 7504SOL    HW224281   2.086   8.730   3.270  0.4587  0.1566 -0.2298
 7505SOL     OW24282   3.423   0.048   5.854 -0.4644  0.0975 -0.1056
 7505SOL    HW124283   3.335   0.069   5.821 -0.2066  1.0201 -0.2307
 7505SOL    HW224284   3.474   0.029   5.776 -0.2393  0.7990 -0.1364
 7506SOL     OW24285   3.938   3.024   2.165  0.6812 -0.6113 -0.4400
 7506SOL    HW124286   3.888   3.101   2.191  1.2209  0.0561 -1.3076
 7506SOL    HW224287   3.890   2.989   2.090  1.2495 -0.2295 -0.9936
 7507SOL     OW24288   1.436   4.494   7.661 -0.3185  0.2605 -0.3183
 7507SOL    HW124289   1.489   4.526   7.588  0.3794  1.8228  0.7936
 7507SOL    HW224290   1.483   4.418   7.694 -1.1573 -1.0591 -2.0582
 7508SOL     OW24291   0.274   0.920   6.156  0.1492 -0.3586  0.0055
 7508SOL    HW124292   0.213   0.938   6.085 -0.0782  0.9315  0.4992
 7508SOL    HW224293   0.255   0.988   6.221  1.4666 -0.5131  0.5752
 7509SOL     OW24294   0.823   2.315   2.017 -0.6684  0.1374  0.0728
 7509SOL    HW124295   0.914   2.344   2.015 -0.6928  0.3260  1.2306
 7509SOL    HW224296   0.775   2.391   2.049 -0.8419 -0.8641  2.3459
 7510SOL     OW24297   8.720   9.584   4.315 -0.4725 -0.1587  0.6725
 7510SOL    HW124298   8.666   9.598   4.393  0.4529 -0.8649  1.4600
 7510SOL    HW224299   8.800   9.543   4.348  0.3270  0.3730 -0.5418
 7511SOL     OW24300   3.897   3.119   3.115  0.0576  0.0726 -0.1080
 7511SOL    HW124301   3.816   3.167   3.128 -2.0781 -1.8616 -4.3943
 7511SOL    HW224302   3.896   3.051   3.182 -1.6709  0.2951  0.1233
 7512SOL     OW24303   5.395   8.554   8.838 -0.3005 -0.5088 -0.2211
 7512SOL    HW124304   5.413   8.648   8.845  1.6717 -0.9093  0.6567
 7512SOL    HW224305   5.431   8.517   8.918 -1.3964 -1.9870 -0.3814
 7513SOL     OW24306   9.207   3.039   5.891 -0.1226  0.5637 -1.3990
 7513SOL    HW124307   9.257   3.107   5.846 -0.5845 -1.2664 -5.0094
 7513SOL    HW224308   9.157   2.996   5.822 -2.3897 -1.3392  1.2225
 7514SOL     OW24309   7.112   6.168   6.898  0.3068 -0.3817 -0.0568
 7514SOL    HW124310   7.089   6.079   6.870 -2.0780  0.2968 -0.4412
 7514SOL    HW224311   7.159   6.205   6.824  0.2141 -0.9053 -0.3856
 7515SOL     OW24312   1.208   9.619   7.207 -0.1648  0.3483  0.2474
 7515SOL    HW124313   1.199   9.708   7.172 -0.0675  0.2159 -0.1271
 7515SOL    HW224314   1.120   9.593   7.232 -0.3953  0.1145 -0.7442
 7516SOL     OW24315   9.291   8.445   4.752  0.1909  0.3594  0.3183
 7516SOL    HW124316   9.374   8.478   4.787  0.3189 -1.6759  2.0935
 7516SOL    HW224317   9.309   8.354   4.729 -1.3822  0.0603  0.1742
 7517SOL     OW24318   5.815   5.157   7.756 -0.1660  0.2655 -0.5278
 7517SOL    HW124319   5.908   5.177   7.768 -0.3378  0.0833  1.2383
 7517SOL    HW224320   5.774   5.243   7.746  0.2656  0.3221 -2.2640
 7518SOL     OW24321   7.860   8.473   5.388 -0.2262  0.0866 -0.0502
 7518SOL    HW124322   7.907   8.553   5.368  0.3165 -0.4234 -0.8705
 7518SOL    HW224323   7.768   8.495   5.373 -0.0241  0.3632 -0.9819
 7519SOL     OW24324   0.121   4.003   1.191  0.2011 -0.0406  0.5136
 7519SOL    HW124325   0.170   4.056   1.129  1.3689  0.3178  1.6819
 7519SOL    HW224326   0.139   3.913   1.166  2.0455  0.0630  1.2804
 7520SOL     OW24327   3.435   9.012   9.739  0.7092  0.3196  0.8955
 7520SOL    HW124328   3.420   9.004   9.833  0.1266  3.2211  1.1176
 7520SOL    HW224329   3.505   8.949   9.721 -1.0302 -2.3197  2.6759
 7521SOL     OW24330   3.642   2.861   2.197 -0.1466 -0.3160  0.5507
 7521SOL    HW124331   3.677   2.834   2.112 -0.4277 -0.0663  0.3545
 7521SOL    HW224332   3.548   2.842   2.192 -0.5268  1.4991  0.0699
 7522SOL     OW24333   4.777   3.624   5.988 -0.6515 -0.2888 -0.1676
 7522SOL    HW124334   4.847   3.602   5.927 -0.2299 -2.3942  0.9573
 7522SOL    HW224335   4.776   3.719   5.991 -0.4751 -0.0964 -3.1396
 7523SOL     OW24336   7.479   8.532   4.751  0.3073 -0.1021 -0.3351
 7523SOL    HW124337   7.547   8.579   4.798  0.1788  1.1380 -1.3438
 7523SOL    HW224338   7.423   8.496   4.820  1.4557 -0.3808  0.4792
 7524SOL     OW24339   0.159   0.738   7.238 -0.1091  0.5392  0.5035
 7524SOL    HW124340   0.175   0.709   7.149 -1.8262  1.7044 -0.2374
 7524SOL    HW224341   0.200   0.824   7.243 -0.7488  0.8502  0.5410
 7525SOL     OW24342   9.183   0.174   5.165  0.2897 -0.4320 -0.0030
 7525SOL    HW124343   9.121   0.108   5.134 -2.9915  1.7777  1.2104
 7525SOL    HW224344   9.212   0.142   5.250 -1.7273 -0.1568  0.8502
 7526SOL     OW24345   4.486   0.590   3.986  0.0093  0.3167 -0.2083
 7526SOL    HW124346   4.499   0.599   4.081  1.4162  0.6495 -0.4204
 7526SOL    HW224347   4.556   0.641   3.947 -0.8406  0.5764 -1.4493
 7527SOL     OW24348   2.489   1.308   6.989 -0.4915 -0.1395 -0.2647
 7527SOL    HW124349   2.408   1.279   7.031  0.4484 -1.6587  0.5837
 7527SOL    HW224350   2.512   1.236   6.930  0.6274 -0.0745  0.0758
 7528SOL     OW24351   9.423   5.081   3.150 -0.1726 -0.7061 -0.3992
 7528SOL    HW124352   9.349   5.048   3.099 -0.7610 -0.6659  0.4060
 7528SOL    HW224353   9.393   5.165   3.183 -0.1425 -1.1097  0.7070
 7529SOL     OW24354   7.482   8.705   8.731 -0.7212 -0.2105 -0.1101
 7529SOL    HW124355   7.491   8.726   8.638  0.0694 -0.2231 -0.0467
 7529SOL    HW224356   7.405   8.754   8.759 -2.7068 -2.3902 -1.4008
 7530SOL     OW24357   4.531   1.779   9.123 -0.6397 -0.2279  0.2954
 7530SOL    HW124358   4.477   1.769   9.202 -0.4064  1.8033  0.7672
 7530SOL    HW224359   4.618   1.750   9.150 -1.1489 -2.3641 -0.1238
 7531SOL     OW24360   2.134   2.567   9.522  0.3136  0.7196 -0.8687
 7531SOL    HW124361   2.111   2.474   9.532  2.7442 -0.3528 -3.6784
 7531SOL    HW224362   2.086   2.611   9.592 -0.8890 -2.6416  0.6566
 7532SOL     OW24363   0.892   3.327   9.239  0.4328 -0.0885  0.4501
 7532SOL    HW124364   0.892   3.400   9.301 -0.4842 -0.1959  0.5949
 7532SOL    HW224365   0.962   3.270   9.269  0.0592 -0.0905  1.3436
 7533SOL     OW24366   3.355   9.735   2.211 -0.1707  0.0058 -0.0625
 7533SOL    HW124367   3.352   9.720   2.116 -1.6913 -0.8047  0.0736
 7533SOL    HW224368   3.336   9.829   2.220  3.5284  0.9764 -0.6551
 7534SOL     OW24369   4.437   6.900   3.443  0.2637  0.4722  0.6474
 7534SOL    HW124370   4.479   6.948   3.515  1.5052  0.9204 -0.3373
 7534SOL    HW224371   4.476   6.938   3.364  0.2784 -1.2468 -0.2089
 7535SOL     OW24372   3.668   8.542   6.369  0.0680  0.2491 -0.0387
 7535SOL    HW124373   3.729   8.582   6.431  2.3000  0.1391 -2.0330
 7535SOL    HW224374   3.723   8.486   6.314 -2.2017 -1.6216 -0.5629
 7536SOL     OW24375   3.742   0.047   7.497 -0.2685  0.5273 -0.1324
 7536SOL    HW124376   3.712   0.008   7.578 -0.0344 -0.7446 -0.6395
 7536SOL    HW224377   3.758  -0.027   7.438 -0.2342  1.4001 -1.2715
 7537SOL     OW24378   9.631   6.550   7.825 -0.3368  0.2942  0.5203
 7537SOL    HW124379   9.585   6.582   7.903 -2.4806  0.0793 -0.5857
 7537SOL    HW224380   9.702   6.612   7.812 -1.7882  2.1376  0.9142
 7538SOL     OW24381   4.315   0.126   0.463 -0.3445 -0.1800  0.0469
 7538SOL    HW124382   4.272   0.045   0.435 -0.1807  0.2848 -1.7228
 7538SOL    HW224383   4.252   0.195   0.443  0.4699  0.3389 -0.8864
 7539SOL     OW24384   2.087   6.135   9.039  0.2161 -0.0834 -0.2121
 7539SOL    HW124385   2.135   6.078   9.099 -1.7198 -0.9279  0.6216
 7539SOL    HW224386   1.995   6.118   9.058 -0.4750  3.4210  0.1336
 7540SOL     OW24387   4.536   9.549   0.815 -0.0815 -0.4173 -0.8559
 7540SOL    HW124388   4.557   9.622   0.874 -1.8174 -1.1297  0.7869
 7540SOL    HW224389   4.479   9.587   0.749 -0.0447 -0.0400 -0.6723
 7541SOL     OW24390   6.586   1.024   6.217 -0.2639  0.5206 -0.0982
 7541SOL    HW124391   6.557   1.013   6.127  2.2298 -0.2099 -0.8946
 7541SOL    HW224392   6.574   0.938   6.256  0.4392  0.3213 -0.3142
 7542SOL     OW24393   1.745   3.091   2.365  0.3976  0.5894  0.3399
 7542SOL    HW124394   1.811   3.106   2.297 -0.1586 -1.0373 -0.6246
 7542SOL    HW224395   1.694   3.172   2.366  0.8705  0.9258 -0.6671
 7543SOL     OW24396   3.466   7.886   8.825 -0.3802 -0.0956  0.6865
 7543SOL    HW124397   3.464   7.978   8.798 -0.3592  0.4721  2.5093
 7543SOL    HW224398   3.558   7.868   8.846 -0.0693 -1.0688 -1.2347
 7544SOL     OW24399   6.374   3.789   7.981  0.1736 -0.3585 -0.0282
 7544SOL    HW124400   6.469   3.800   7.971  0.3978 -1.5466  0.5895
 7544SOL    HW224401   6.348   3.862   8.037  0.6280  0.3019 -0.6624
 7545SOL     OW24402   2.337   2.058   0.416 -0.1859  0.3931  0.0780
 7545SOL    HW124403   2.352   1.970   0.383  0.0541  0.3066  0.4101
 7545SOL    HW224404   2.310   2.045   0.507  1.6588  0.7310  0.7246
 7546SOL     OW24405   8.327   9.080   0.823  0.1633  0.4809  0.3355
 7546SOL    HW124406   8.341   8.986   0.817  1.2564  0.7043 -3.2259
 7546SOL    HW224407   8.401   9.113   0.874  1.6683 -0.3546 -1.2039
 7547SOL     OW24408   2.631   7.468   2.621 -0.2091  0.1169 -0.2816
 7547SOL    HW124409   2.708   7.496   2.671  0.5985 -0.0358 -1.3962
 7547SOL    HW224410   2.666   7.408   2.555 -1.1746  0.6456 -1.3043
 7548SOL     OW24411   3.181   2.472   4.215 -0.0681  0.3003 -1.0187
 7548SOL    HW124412   3.184   2.546   4.275 -1.5074 -0.2159 -0.2639
 7548SOL    HW224413   3.257   2.484   4.158  1.3795  0.8114  0.8975
 7549SOL     OW24414   4.815   0.049   3.309  0.2411  0.0198  0.3186
 7549SOL    HW124415   4.841   0.003   3.229 -0.0992 -2.5062  1.5641
 7549SOL    HW224416   4.881   0.024   3.374 -1.1919 -0.5637  1.6137
 7550SOL     OW24417   2.225   5.987   7.270  0.7108 -0.0324 -0.5385
 7550SOL    HW124418   2.189   6.019   7.188 -0.4667 -1.6589 -0.7027
 7550SOL    HW224419   2.282   6.058   7.301 -0.8712  1.7031 -1.4252
 7551SOL     OW24420   8.250   0.430   9.031 -0.7135  0.6006 -0.1450
 7551SOL    HW124421   8.249   0.513   8.982  0.6260  0.7061 -0.0401
 7551SOL    HW224422   8.274   0.364   8.966  0.1205  0.5989  0.1469
 7552SOL     OW24423   1.402   5.893   1.004  0.2015 -0.3905 -0.0607
 7552SOL    HW124424   1.390   5.980   0.964  1.4795 -0.6646 -1.1269
 7552SOL    HW224425   1.367   5.832   0.939  2.6470 -0.8666 -1.0702
 7553SOL     OW24426   7.827   0.489   6.777  0.1991 -0.1872 -0.1636
 7553SOL    HW124427   7.867   0.474   6.863 -0.5308  2.2596  0.6734
 7553SOL    HW224428   7.741   0.526   6.796  0.4003  1.3267 -1.9180
 7554SOL     OW24429   8.721   0.586   8.339  0.1467 -0.0728  0.6443
 7554SOL    HW124430   8.739   0.593   8.432  0.5516  1.7066  0.4714
 7554SOL    HW224431   8.700   0.676   8.312  0.3044 -0.5040 -1.0285
 7555SOL     OW24432   8.912   5.589   1.499  0.2614 -0.2960  0.5936
 7555SOL    HW124433   8.817   5.603   1.505  0.7044  2.6785  3.2091
 7555SOL    HW224434   8.932   5.525   1.566  0.2809  0.5917  1.4571
 7556SOL     OW24435   2.109   4.309   8.217 -0.1247  0.1768  0.2745
 7556SOL    HW124436   2.166   4.289   8.142  0.1955 -0.1261  0.5913
 7556SOL    HW224437   2.032   4.253   8.204  0.8351 -1.4500  1.2327
 7557SOL     OW24438   4.986   6.736   7.950 -0.3039  0.6265  0.4225
 7557SOL    HW124439   4.973   6.699   8.037  1.9693 -1.0285  0.1388
 7557SOL    HW224440   5.029   6.666   7.900  0.5785  2.3273 -1.3464
 7558SOL     OW24441   6.878   8.849   9.750 -0.3013 -0.1895 -0.1817
 7558SOL    HW124442   6.872   8.813   9.661  1.6493  0.5922 -0.6825
 7558SOL    HW224443   6.917   8.936   9.738 -0.3300  0.0732  1.4229
 7559SOL     OW24444   3.167   2.797   1.340 -0.1347  0.5776 -0.6291
 7559SOL    HW124445   3.113   2.871   1.369 -0.3615  0.8019 -1.5855
 7559SOL    HW224446   3.253   2.835   1.323  0.1901  0.3246  0.3345
 7560SOL     OW24447   1.737   4.831   5.101 -0.6085 -0.0589  0.0810
 7560SOL    HW124448   1.821   4.793   5.124 -0.8763 -0.4973  0.3399
 7560SOL    HW224449   1.722   4.898   5.168 -0.4306  0.0688 -0.0081
 7561SOL     OW24450   4.265   8.558   7.714 -0.1230  0.4158  0.5005
 7561SOL    HW124451   4.316   8.479   7.731 -0.3783  0.5564  2.0634
 7561SOL    HW224452   4.330   8.627   7.700  0.1044  0.1947  0.4602
 7562SOL     OW24453   9.356   2.635   1.986  0.1254  0.1343  0.5251
 7562SOL    HW124454   9.449   2.622   2.004  1.0955  0.1888 -3.4593
 7562SOL    HW224455   9.334   2.568   1.922 -2.4779  0.4333  0.9941
 7563SOL     OW24456   3.373   3.120   4.542  0.3736  0.4384 -0.3437
 7563SOL    HW124457   3.341   3.209   4.529 -1.0797  0.2985  1.8699
 7563SOL    HW224458   3.315   3.066   4.489  0.1937  0.6366 -0.3496
 7564SOL     OW24459   3.838   4.953   4.772  0.1111  1.0621  0.1505
 7564SOL    HW124460   3.842   4.950   4.676  0.0773 -0.1115  0.1758
 7564SOL    HW224461   3.921   4.992   4.798  1.2971 -1.0208 -0.2793
 7565SOL     OW24462   8.220   1.406   2.462 -0.0265  0.0649  0.2735
 7565SOL    HW124463   8.150   1.350   2.496 -0.5726  0.3072 -0.4179
 7565SOL    HW224464   8.191   1.496   2.481  1.0315  0.1182  1.7355
 7566SOL     OW24465   1.078   2.292   3.293 -0.0337  0.5982  0.2494
 7566SOL    HW124466   1.074   2.359   3.361 -2.9770  0.8956 -0.0642
 7566SOL    HW224467   1.070   2.340   3.211  1.2783  0.0757 -0.2123
 7567SOL     OW24468   3.609   1.875   0.712 -0.0086  0.6818 -0.6494
 7567SOL    HW124469   3.584   1.828   0.792  1.1975 -1.0554 -1.2340
 7567SOL    HW224470   3.559   1.831   0.643  1.5578 -0.1959 -1.2843
 7568SOL     OW24471   4.189   7.498   3.306 -0.5493 -0.1746 -0.3951
 7568SOL    HW124472   4.195   7.593   3.308 -1.2763 -0.0936 -1.3230
 7568SOL    HW224473   4.117   7.479   3.245 -0.6193 -1.3088  0.0005
 7569SOL     OW24474   0.077   2.472   7.358 -0.3900 -0.2546 -0.5207
 7569SOL    HW124475   0.134   2.431   7.424 -0.7977 -0.1809 -0.1148
 7569SOL    HW224476   0.025   2.400   7.323 -1.2050 -0.0846  0.2921
 7570SOL     OW24477   5.285   4.900   3.323  0.3511 -0.6921 -0.1645
 7570SOL    HW124478   5.280   4.851   3.406 -1.3163  2.5278  1.8400
 7570SOL    HW224479   5.194   4.922   3.302  0.9253  0.4617 -1.6268
 7571SOL     OW24480   9.376   2.773   5.300 -0.3937 -0.1687  0.1470
 7571SOL    HW124481   9.332   2.722   5.232 -0.6386  0.8340 -0.4663
 7571SOL    HW224482   9.420   2.707   5.354  1.4448 -0.9233 -2.0955
 7572SOL     OW24483   8.283   1.012   8.129  0.1873  0.3565  0.0396
 7572SOL    HW124484   8.314   0.930   8.167  0.9447  1.9738  3.2673
 7572SOL    HW224485   8.354   1.041   8.071  1.1013  0.0244  0.9710
 7573SOL     OW24486   9.098   5.346   1.466 -0.2606 -0.1829 -0.3485
 7573SOL    HW124487   9.067   5.258   1.486  0.6730 -0.3859  0.3000
 7573SOL    HW224488   9.047   5.373   1.390 -1.2641 -0.8842  0.0531
 7574SOL     OW24489   6.195   5.369   4.823  0.4212  0.1886 -0.7451
 7574SOL    HW124490   6.211   5.278   4.845  0.7232  0.6888  1.2871
 7574SOL    HW224491   6.109   5.369   4.782  0.3935 -0.9988 -0.7168
 7575SOL     OW24492   8.594   3.296   5.250  0.1728 -0.2402 -0.1723
 7575SOL    HW124493   8.538   3.256   5.317  0.1985  0.7187  0.4363
 7575SOL    HW224494   8.541   3.366   5.213 -0.7014 -2.1196 -2.7648
 7576SOL     OW24495   0.745   3.381   1.178 -0.0914  0.0097  0.4863
 7576SOL    HW124496   0.703   3.454   1.133  0.7023 -0.7352 -1.5856
 7576SOL    HW224497   0.807   3.345   1.114  0.9465 -1.2784  2.1117
 7577SOL     OW24498   1.300   8.094   3.032  0.2592 -0.7846  0.2671
 7577SOL    HW124499   1.271   8.024   2.973 -0.9300 -0.3195  0.2606
 7577SOL    HW224500   1.339   8.049   3.106 -0.0071 -1.4419  0.0133
 7578SOL     OW24501   6.201   1.610   0.231  0.3013 -0.4514  0.1557
 7578SOL    HW124502   6.144   1.540   0.199  0.0894 -1.0993  1.8212
 7578SOL    HW224503   6.283   1.600   0.183 -0.5154 -0.3584 -1.2982
 7579SOL     OW24504   6.332   2.587   0.919 -0.2488 -0.2158  0.3884
 7579SOL    HW124505   6.426   2.580   0.902 -0.2509 -0.7366  0.5691
 7579SOL    HW224506   6.291   2.536   0.848 -0.3294 -1.0785  1.0378
 7580SOL     OW24507   3.937   1.660   9.684  0.3450  0.2324 -0.0122
 7580SOL    HW124508   3.977   1.652   9.597 -1.1879 -0.8417 -0.6689
 7580SOL    HW224509   3.990   1.726   9.729  1.2038  0.7791 -1.7366
 7581SOL     OW24510   8.273   1.639   0.996 -0.3838 -0.0654  0.5445
 7581SOL    HW124511   8.183   1.605   0.985 -0.5310  0.1016  1.1945
 7581SOL    HW224512   8.329   1.564   0.974 -0.6746 -0.1065 -0.0865
 7582SOL     OW24513   6.038   0.716   8.927  0.4867  0.2851  0.7096
 7582SOL    HW124514   6.104   0.656   8.891 -1.7368 -1.9746  0.1114
 7582SOL    HW224515   6.061   0.723   9.020  1.6046 -0.3976  0.5078
 7583SOL     OW24516   5.533   0.053   1.896  0.8691 -0.2452  0.2814
 7583SOL    HW124517   5.515  -0.021   1.838  0.0898 -0.4128  0.7206
 7583SOL    HW224518   5.624   0.040   1.923  0.9529 -0.6701 -0.1787
 7584SOL     OW24519   5.580   1.121   3.669 -0.2198 -0.1385 -0.0896
 7584SOL    HW124520   5.561   1.051   3.731  1.2453  0.4680  1.0931
 7584SOL    HW224521   5.504   1.178   3.673 -1.1838 -1.3505 -0.6536
 7585SOL     OW24522   9.063   2.588   9.521 -0.1066 -0.4424 -0.1452
 7585SOL    HW124523   9.140   2.606   9.575 -0.9475 -0.4243  1.1078
 7585SOL    HW224524   9.029   2.675   9.499 -0.2256 -0.4518 -0.0016
 7586SOL     OW24525   2.287   9.749   1.998  0.4323  0.2450 -0.4534
 7586SOL    HW124526   2.204   9.762   2.044  0.5449 -1.6335  0.3598
 7586SOL    HW224527   2.265   9.762   1.906 -0.9832 -1.0461 -0.3369
 7587SOL     OW24528   5.670   1.159   8.909  0.0675 -0.5486  0.0679
 7587SOL    HW124529   5.696   1.248   8.886  0.0209 -0.4123  0.5285
 7587SOL    HW224530   5.672   1.111   8.826  0.6360 -0.2581 -0.0891
 7588SOL     OW24531   8.150   8.849   7.844  0.0305 -0.4663  0.4978
 7588SOL    HW124532   8.242   8.827   7.854 -0.0687 -1.1345  0.0401
 7588SOL    HW224533   8.144   8.894   7.760  0.1124  0.6438  1.0760
 7589SOL     OW24534   2.314   8.329   8.270 -0.3336  0.3231 -0.9218
 7589SOL    HW124535   2.341   8.239   8.284 -0.0700  0.5013 -0.2613
 7589SOL    HW224536   2.320   8.341   8.175  0.3054 -0.1396 -0.9472
 7590SOL     OW24537   8.457   5.470   0.080 -0.4313  0.0067  0.1068
 7590SOL    HW124538   8.400   5.467   0.157  0.4627 -1.0791  0.7410
 7590SOL    HW224539   8.537   5.426   0.107 -0.4700 -1.3086 -1.7390
 7591SOL     OW24540   5.940   6.369   9.347 -0.0208 -0.1952 -0.3068
 7591SOL    HW124541   6.024   6.375   9.392  0.1353  1.9109 -0.8003
 7591SOL    HW224542   5.881   6.423   9.399 -0.1556  1.2221 -1.8612
 7592SOL     OW24543   7.473   4.544   9.013  0.5158 -0.2101  0.2837
 7592SOL    HW124544   7.478   4.529   8.919 -1.0714 -1.2434  0.3274
 7592SOL    HW224545   7.508   4.464   9.052  0.6091 -0.0257  0.5864
 7593SOL     OW24546   2.110   5.135   6.793 -0.7142 -0.3257 -0.1737
 7593SOL    HW124547   2.094   5.218   6.838 -2.3826  0.1115 -1.4594
 7593SOL    HW224548   2.190   5.150   6.743 -0.4543  0.1523  0.3715
 7594SOL     OW24549   5.065   0.235   6.391  0.7565  0.3481 -0.3170
 7594SOL    HW124550   5.104   0.236   6.304  0.1005  1.5664 -0.6201
 7594SOL    HW224551   5.139   0.245   6.451  1.0281  1.5824 -0.8364
 7595SOL     OW24552   0.534   2.894   3.026 -0.7230 -0.5071 -0.2263
 7595SOL    HW124553   0.465   2.959   3.022  0.0369  0.2971 -0.4591
 7595SOL    HW224554   0.539   2.870   3.119 -2.3187 -1.6989 -0.4094
 7596SOL     OW24555   3.587   6.599   6.358 -0.0466  0.2507 -0.2740
 7596SOL    HW124556   3.668   6.587   6.408 -0.1456  0.5051 -0.0515
 7596SOL    HW224557   3.562   6.690   6.373  0.3795  0.5832 -1.4848
 7597SOL     OW24558   8.085   0.636   4.704  0.1670  0.2014 -0.1520
 7597SOL    HW124559   8.001   0.648   4.659 -0.4316  0.4260  1.0044
 7597SOL    HW224560   8.087   0.705   4.770 -0.6582 -2.2710  2.6479
 7598SOL     OW24561   1.300   8.448   6.818 -0.8289  0.4162  0.3742
 7598SOL    HW124562   1.364   8.381   6.841  1.2543  1.9940 -0.5227
 7598SOL    HW224563   1.245   8.456   6.897  0.6157 -0.3712  1.5256
 7599SOL     OW24564   4.848   7.567   5.573 -0.2981  0.4545 -0.3564
 7599SOL    HW124565   4.753   7.556   5.573 -0.5550  2.2142 -1.2515
 7599SOL    HW224566   4.880   7.503   5.636 -2.0863 -0.0522  0.0970
 7600SOL     OW24567   2.093   1.519   6.789  0.2832  0.2289  0.2333
 7600SOL    HW124568   2.178   1.554   6.817  0.1772 -0.1159  1.0068
 7600SOL    HW224569   2.102   1.424   6.796  0.3367  0.0979 -1.1959
 7601SOL     OW24570   5.723   9.558   1.226  0.2642 -0.1724  0.3821
 7601SOL    HW124571   5.641   9.544   1.273  0.8524 -1.1016  1.1769
 7601SOL    HW224572   5.716   9.500   1.150 -0.0199  0.1178  0.1863
 7602SOL     OW24573   2.500   0.606   1.164  0.0366 -0.1386  0.0706
 7602SOL    HW124574   2.528   0.606   1.072  0.8578 -0.7459  0.3067
 7602SOL    HW224575   2.556   0.540   1.206 -1.9355 -1.5866  0.5399
 7603SOL     OW24576   0.589   8.804   5.710 -0.0500 -0.2756  0.1131
 7603SOL    HW124577   0.573   8.884   5.660 -0.0170 -0.3717 -0.0519
 7603SOL    HW224578   0.611   8.738   5.644  2.8868  0.2804  0.3922
 7604SOL     OW24579   3.712   9.639   6.717 -0.3369 -0.0540 -0.0686
 7604SOL    HW124580   3.622   9.634   6.684 -0.9284 -1.8424  1.6115
 7604SOL    HW224581   3.724   9.558   6.767  1.5582  1.0495  1.4110
 7605SOL     OW24582   6.958   2.978   5.291 -0.3625 -0.5709  0.5422
 7605SOL    HW124583   7.017   3.018   5.355  0.9064 -0.6699 -0.5118
 7605SOL    HW224584   6.960   2.885   5.311 -0.4650 -0.5292  0.7494
 7606SOL     OW24585   8.975   8.921   3.549  0.1733 -0.2541 -0.0794
 7606SOL    HW124586   8.891   8.917   3.594  0.4645 -2.0594  0.3903
 7606SOL    HW224587   9.021   8.993   3.591 -1.0737  0.6875 -0.2674
 7607SOL     OW24588   9.562   6.312   5.820 -0.4307  0.1558 -0.3274
 7607SOL    HW124589   9.605   6.363   5.889  0.7410 -0.2978 -0.7041
 7607SOL    HW224590   9.470   6.308   5.848 -0.8401  3.3404 -0.7928
 7608SOL     OW24591   7.018   2.305   4.401 -0.5949  0.1029  0.0420
 7608SOL    HW124592   7.005   2.263   4.316  0.3391 -1.5971  0.6860
 7608SOL    HW224593   6.930   2.321   4.434 -0.9892 -1.1345 -0.3582
 7609SOL     OW24594   6.620   2.647   0.831 -0.2204  0.3377  0.9595
 7609SOL    HW124595   6.593   2.600   0.752  1.7933 -0.5325  0.7152
 7609SOL    HW224596   6.591   2.737   0.816 -2.1311 -0.3240  0.4067
 7610SOL     OW24597   1.257   1.987   2.636  0.2538  0.2849  0.4018
 7610SOL    HW124598   1.320   1.915   2.637  1.2087  1.1039  0.3567
 7610SOL    HW224599   1.202   1.970   2.559 -0.8815 -1.5021  1.5323
 7611SOL     OW24600   3.776   7.228   4.836  0.0266 -0.5078  0.3521
 7611SOL    HW124601   3.800   7.287   4.907  0.6070 -1.6153  1.1000
 7611SOL    HW224602   3.816   7.145   4.859 -0.2805 -1.0511 -0.9793
 7612SOL     OW24603   1.266   1.950   9.833  0.2565  1.1916 -0.1462
 7612SOL    HW124604   1.252   1.930   9.740 -0.5979 -0.0867  0.2436
 7612SOL    HW224605   1.308   1.872   9.868 -1.8695  0.5578  1.1200
 7613SOL     OW24606   8.437   6.315   3.497 -0.5822 -0.3176  0.4679
 7613SOL    HW124607   8.422   6.389   3.438  0.9488 -1.1410 -1.0811
 7613SOL    HW224608   8.355   6.304   3.544 -0.6174  2.8569  1.3932
 7614SOL     OW24609   1.171   0.293   9.469 -0.1006 -0.1495 -0.1191
 7614SOL    HW124610   1.238   0.263   9.530 -0.0796  1.5313  0.7472
 7614SOL    HW224611   1.088   0.274   9.512 -0.1193 -0.0705 -0.1198
 7615SOL     OW24612   6.620   3.033   7.987  0.4178 -0.5788 -0.1666
 7615SOL    HW124613   6.635   2.990   8.071  1.2383 -1.4151 -0.7279
 7615SOL    HW224614   6.581   2.965   7.931  0.0649 -0.0878 -0.5312
 7616SOL     OW24615   8.872   4.664   6.451  0.1195  0.5664 -0.6609
 7616SOL    HW124616   8.857   4.758   6.449  0.4938  0.6372 -0.3192
 7616SOL    HW224617   8.963   4.653   6.421  1.4808  0.6565  2.9052
 7617SOL     OW24618   5.125   1.540   5.936 -0.6976  0.3763 -0.5198
 7617SOL    HW124619   5.215   1.509   5.941 -0.5206  0.9770  0.1654
 7617SOL    HW224620   5.089   1.497   5.858  0.1714  0.1181 -0.7880
 7618SOL     OW24621   1.252   1.770   5.076 -0.2551  0.2817 -0.1008
 7618SOL    HW124622   1.223   1.734   5.160 -0.0435 -2.0775 -0.9644
 7618SOL    HW224623   1.218   1.859   5.075 -1.5388 -0.1283  1.8570
 7619SOL     OW24624   3.107   0.409   5.693  0.5970 -0.1735  0.4031
 7619SOL    HW124625   3.096   0.394   5.787 -0.5138  0.1637  0.3346
 7619SOL    HW224626   3.139   0.325   5.660 -2.0311 -1.3626  0.6080
 7620SOL     OW24627   2.482   2.744   9.707 -0.1359  0.2367 -0.3052
 7620SOL    HW124628   2.470   2.659   9.750 -0.5006 -0.1659 -1.1761
 7620SOL    HW224629   2.418   2.801   9.749 -2.0766 -0.7226 -1.7818
 7621SOL     OW24630   0.778   3.148   6.054  0.8191 -0.3215  0.5734
 7621SOL    HW124631   0.720   3.162   6.129 -0.3359 -1.5272 -0.0488
 7621SOL    HW224632   0.844   3.087   6.086  0.8704 -0.1183  0.8627
 7622SOL     OW24633   8.873   5.897   6.765 -0.4951  0.3094  0.4654
 7622SOL    HW124634   8.830   5.907   6.849 -0.3300  1.3568  0.4409
 7622SOL    HW224635   8.930   5.974   6.757 -0.0525 -0.0764 -0.3340
 7623SOL     OW24636   1.246   6.989   1.170 -0.0729  0.4308  0.1913
 7623SOL    HW124637   1.277   6.928   1.103  2.4813  1.2805  0.4932
 7623SOL    HW224638   1.281   6.955   1.252  1.4116  2.2114  0.3716
 7624SOL     OW24639   3.426   6.859   8.012 -0.5931  0.3355  0.5811
 7624SOL    HW124640   3.443   6.862   7.918 -0.4977  0.6013  0.6070
 7624SOL    HW224641   3.331   6.867   8.020 -0.7597 -1.1443  0.4364
 7625SOL     OW24642   1.186   4.272   1.204  0.1857  0.2790 -0.1011
 7625SOL    HW124643   1.262   4.227   1.240 -0.1374  0.5851  1.0160
 7625SOL    HW224644   1.223   4.347   1.156  0.6035  0.2051  0.0999
 7626SOL     OW24645   1.811   7.228   4.300 -0.1902 -0.5949 -0.2416
 7626SOL    HW124646   1.780   7.204   4.388  0.2443 -1.1137 -0.2243
 7626SOL    HW224647   1.905   7.239   4.311 -0.2914  0.4795 -0.3995
 7627SOL     OW24648   4.439   4.014   8.008 -0.0744  0.8132  0.1775
 7627SOL    HW124649   4.389   3.963   7.944 -0.0331  1.3463 -0.2942
 7627SOL    HW224650   4.377   4.080   8.040  0.1399  1.0756  0.0580
 7628SOL     OW24651   3.630   8.304   6.096 -0.0197  0.2392  0.0082
 7628SOL    HW124652   3.608   8.297   6.003 -2.1582  0.1150  0.4737
 7628SOL    HW224653   3.551   8.276   6.142  1.0261  0.1691  1.8892
 7629SOL     OW24654   6.304   0.360   4.430  0.6300 -0.2743 -0.5022
 7629SOL    HW124655   6.311   0.335   4.338  3.0744  0.5883 -0.6242
 7629SOL    HW224656   6.345   0.288   4.477 -2.5859 -1.8141  0.2241
 7630SOL     OW24657   5.675   9.074   6.659 -0.1479  0.7916 -0.2901
 7630SOL    HW124658   5.699   9.163   6.632  1.7289  0.4548  0.1429
 7630SOL    HW224659   5.707   9.018   6.588 -1.7947  0.4538 -0.8227
 7631SOL     OW24660   4.368   4.316   6.462  0.3191 -0.1211  0.4725
 7631SOL    HW124661   4.322   4.259   6.401  0.2182 -0.4631  0.8614
 7631SOL    HW224662   4.395   4.391   6.409 -2.3444  1.0400  0.6125
 7632SOL     OW24663   6.142   7.925   0.546  0.6059 -0.6481 -0.1287
 7632SOL    HW124664   6.067   7.982   0.527  1.4058  0.0797 -1.2591
 7632SOL    HW224665   6.107   7.836   0.537 -0.7220 -0.4060  1.8968
 7633SOL     OW24666   4.487   4.657   3.046  0.2654 -0.4092  0.0318
 7633SOL    HW124667   4.534   4.574   3.051 -0.0028 -0.8063 -2.5598
 7633SOL    HW224668   4.395   4.633   3.055  0.0035 -0.7792 -2.7601
 7634SOL     OW24669   8.176   1.068   4.562 -0.1289  0.2546 -0.1926
 7634SOL    HW124670   8.226   1.023   4.631  0.2089  1.7578  0.5882
 7634SOL    HW224671   8.085   1.044   4.579 -0.0733  0.7675  0.9267
 7635SOL     OW24672   5.506   3.012   2.127 -0.2772 -0.2910  0.0130
 7635SOL    HW124673   5.526   3.053   2.043  0.7142 -0.0605  0.3482
 7635SOL    HW224674   5.519   3.082   2.192 -0.7753 -0.5359  0.3873
 7636SOL     OW24675   0.689   0.773   4.633 -0.1800  0.1890  0.1839
 7636SOL    HW124676   0.614   0.810   4.679 -0.0866  0.3341  0.2181
 7636SOL    HW224677   0.650   0.724   4.560 -0.2375  2.1067 -1.1614
 7637SOL     OW24678   4.066   9.339   1.344  0.3606 -0.4246  0.0590
 7637SOL    HW124679   3.993   9.280   1.326 -0.7816  0.3468  1.8850
 7637SOL    HW224680   4.042   9.421   1.301 -0.3828  0.1354  1.4665
 7638SOL     OW24681   8.973   7.196   9.518  0.2845 -0.2761 -0.2516
 7638SOL    HW124682   8.968   7.289   9.500  0.1910 -0.2739 -0.2153
 7638SOL    HW224683   8.895   7.177   9.571  1.1906 -0.0300  1.2413
 7639SOL     OW24684   1.051   1.481   3.337  0.3110 -0.2234  0.6729
 7639SOL    HW124685   1.086   1.444   3.257 -1.6568 -0.5568 -0.0899
 7639SOL    HW224686   1.081   1.572   3.337 -1.5149  0.4797 -1.6911
 7640SOL     OW24687   8.073   3.349   1.701  0.4094  0.6880 -0.3309
 7640SOL    HW124688   8.083   3.262   1.663  1.8170  0.6652  0.0432
 7640SOL    HW224689   8.156   3.393   1.685  0.5063  1.2085  1.3421
 7641SOL     OW24690   9.461   6.524   3.819  0.0087 -0.0776  0.4611
 7641SOL    HW124691   9.430   6.528   3.909  0.3757  0.0857  0.5830
 7641SOL    HW224692   9.399   6.577   3.769 -0.7961 -1.0084  0.4371
 7642SOL     OW24693   1.727   6.717   9.613  0.2668  0.2358 -0.0233
 7642SOL    HW124694   1.693   6.766   9.688  0.8899 -1.2473  1.2994
 7642SOL    HW224695   1.821   6.710   9.630  0.2248 -1.2422 -0.2338
 7643SOL     OW24696   6.537   3.912   7.585 -0.3145 -0.2363  0.1296
 7643SOL    HW124697   6.622   3.949   7.606  0.8842 -3.1377  0.8789
 7643SOL    HW224698   6.512   3.864   7.664 -1.5495 -1.3091 -0.8598
 7644SOL     OW24699   4.353   9.650   0.127  0.4228  0.2869 -0.1288
 7644SOL    HW124700   4.288   9.713   0.095  1.2466  3.1407  3.1651
 7644SOL    HW224701   4.435   9.676   0.083  0.2316 -0.5022 -0.9958
 7645SOL     OW24702   2.344   9.505   7.400  0.4216  0.5923  0.5331
 7645SOL    HW124703   2.269   9.559   7.424  1.0828  1.6602  0.2664
 7645SOL    HW224704   2.320   9.468   7.315 -1.2281 -1.8871  1.9655
 7646SOL     OW24705   2.093   4.586   5.224 -0.2798 -0.1109 -0.5557
 7646SOL    HW124706   2.013   4.612   5.269 -1.2461  0.8568 -2.6758
 7646SOL    HW224707   2.090   4.633   5.141  2.1624 -0.6051 -1.0102
 7647SOL     OW24708   9.675   8.084   4.044  0.0459  0.3021 -0.3657
 7647SOL    HW124709   9.746   8.087   4.108  0.2288  0.3023 -0.5716
 7647SOL    HW224710   9.651   8.175   4.029  0.0836  0.3069 -0.3919
 7648SOL     OW24711   9.614   1.836   4.270 -0.1653 -0.5355  0.1752
 7648SOL    HW124712   9.684   1.775   4.295  0.1460 -0.3042 -0.1280
 7648SOL    HW224713   9.592   1.882   4.351 -1.1079 -1.7457  0.6468
 7649SOL     OW24714   9.513   4.660   6.855  0.3381 -0.0287  0.0932
 7649SOL    HW124715   9.493   4.619   6.939 -0.2014  0.6943  0.3295
 7649SOL    HW224716   9.484   4.751   6.865 -1.1161 -0.2847 -1.3723
 7650SOL     OW24717   8.720   2.225   1.745  0.0100  0.0652 -0.0745
 7650SOL    HW124718   8.735   2.283   1.670 -1.6141 -0.1491 -0.6167
 7650SOL    HW224719   8.808   2.205   1.778  0.7149  0.9595 -1.3094
 7651SOL     OW24720   8.036   3.545   2.666  0.3659 -0.3806  0.1344
 7651SOL    HW124721   8.059   3.621   2.612  0.6784  0.5333  1.5037
 7651SOL    HW224722   7.948   3.521   2.637  0.1558  0.6609 -0.1445
 7652SOL     OW24723   9.592   0.103   7.869 -0.2362  0.1062 -0.1289
 7652SOL    HW124724   9.506   0.108   7.826 -0.2730 -1.9525 -0.3669
 7652SOL    HW224725   9.632   0.024   7.834  0.2241 -1.0620  2.7647
 7653SOL     OW24726   9.480   1.056   3.215  0.1027  0.2061  0.5725
 7653SOL    HW124727   9.524   1.045   3.299  0.1634 -1.9315  0.3168
 7653SOL    HW224728   9.498   1.146   3.190  0.7902  0.6355  2.4391
 7654SOL     OW24729   9.493   1.254   9.738  0.1650  0.5522  0.5208
 7654SOL    HW124730   9.425   1.315   9.767  0.8340  0.7880  1.6570
 7654SOL    HW224731   9.446   1.186   9.690 -1.3378 -0.9334  3.7534
 7655SOL     OW24732   4.590   1.444   9.201  0.2452 -0.6085 -0.1575
 7655SOL    HW124733   4.584   1.418   9.109  0.4035 -0.0479 -0.3340
 7655SOL    HW224734   4.667   1.399   9.233  1.8032  1.2580 -1.0408
 7656SOL     OW24735   3.188   1.751   9.535  0.5655  0.3125 -0.4863
 7656SOL    HW124736   3.251   1.789   9.473  0.0912  1.3638 -0.3443
 7656SOL    HW224737   3.193   1.808   9.611  0.3769 -0.3659  0.0468
 7657SOL     OW24738   6.533   9.042   7.014 -0.2110 -0.2110 -0.0429
 7657SOL    HW124739   6.621   9.007   6.999  0.5890  1.3907  0.7165
 7657SOL    HW224740   6.535   9.130   6.976 -0.8656  0.5891  1.6688
 7658SOL     OW24741   2.644   9.477   2.537  0.1431 -0.1312 -0.4647
 7658SOL    HW124742   2.571   9.513   2.587  1.6000  0.6947  1.1689
 7658SOL    HW224743   2.604   9.412   2.480 -2.0114  1.0979 -0.4699
 7659SOL     OW24744   6.424   3.958   6.288  1.0907 -0.0722 -0.4715
 7659SOL    HW124745   6.371   4.003   6.222  0.8008  0.3453  0.0410
 7659SOL    HW224746   6.425   4.017   6.363  1.7198 -0.3812 -0.2276
 7660SOL     OW24747   0.304   1.488   2.069 -0.1534  0.2543 -0.4911
 7660SOL    HW124748   0.377   1.497   2.008  1.8640  0.0801  1.7582
 7660SOL    HW224749   0.334   1.424   2.134 -2.4008  0.0162  0.4174
 7661SOL     OW24750   4.909   6.111   8.304 -0.3040 -0.9093 -0.2996
 7661SOL    HW124751   4.992   6.145   8.339 -0.6227  0.5636 -0.8947
 7661SOL    HW224752   4.885   6.040   8.364  0.9633 -0.8097  0.3666
 7662SOL     OW24753   6.352   8.836   9.314 -0.1030 -0.0408  0.8567
 7662SOL    HW124754   6.344   8.754   9.363  0.7661 -0.5375  0.2000
 7662SOL    HW224755   6.422   8.819   9.251 -1.3537  0.4945 -0.7261
 7663SOL     OW24756   6.308   7.414   3.576  0.4843 -0.0700 -0.3151
 7663SOL    HW124757   6.283   7.478   3.510 -0.7801  0.8823  1.0260
 7663SOL    HW224758   6.378   7.363   3.535  0.7009  1.3847 -1.8557
 7664SOL     OW24759   8.858   6.332   3.306  0.0651  0.3689  0.2865
 7664SOL    HW124760   8.916   6.260   3.281 -0.3900  0.4687 -1.1333
 7664SOL    HW224761   8.800   6.294   3.372  1.0877  0.0008  1.0032
 7665SOL     OW24762   7.954   8.069   3.801  0.0496 -0.1757  0.0291
 7665SOL    HW124763   7.995   8.144   3.843  0.1200  1.4847 -2.7259
 7665SOL    HW224764   8.027   8.011   3.779  0.0207 -1.0043  1.9343
 7666SOL     OW24765   1.235   4.021   3.044  0.3263 -0.8273 -0.0642
 7666SOL    HW124766   1.179   4.018   2.966  1.7220 -1.8885 -1.1039
 7666SOL    HW224767   1.324   4.018   3.008  1.0313 -0.1245  1.5542
 7667SOL     OW24768   7.529   1.027   7.683  0.4516  0.2125  0.4393
 7667SOL    HW124769   7.438   1.010   7.658  0.1624  0.8410  1.0320
 7667SOL    HW224770   7.557   0.948   7.728  0.4542 -0.2864 -0.4045
 7668SOL     OW24771   7.169   9.149   3.215 -0.3542 -0.1551 -0.0985
 7668SOL    HW124772   7.208   9.071   3.254 -0.1027  0.6535  1.3425
 7668SOL    HW224773   7.215   9.222   3.256 -2.0622  0.7934  0.2459
 7669SOL     OW24774   8.559   6.135   5.031  0.2576  0.3011 -0.1543
 7669SOL    HW124775   8.496   6.205   5.016 -1.1002 -0.9689 -0.5380
 7669SOL    HW224776   8.559   6.084   4.951 -1.5434 -2.2400  1.3019
 7670SOL     OW24777   3.744   8.628   4.540 -1.0347 -0.0011  0.3060
 7670SOL    HW124778   3.653   8.621   4.567 -0.9265  1.1187  1.0700
 7670SOL    HW224779   3.742   8.686   4.464 -1.2363 -2.3984 -1.6411
 7671SOL     OW24780   5.247   0.724   2.936  0.0246  0.5208 -0.1714
 7671SOL    HW124781   5.227   0.795   2.875  1.0591 -0.8092 -2.1920
 7671SOL    HW224782   5.343   0.719   2.936 -0.0270 -1.1488 -0.4840
 7672SOL     OW24783   1.571   7.646   5.077  0.2108  0.3096  0.2236
 7672SOL    HW124784   1.552   7.558   5.043 -1.3352  0.9257 -0.5873
 7672SOL    HW224785   1.626   7.686   5.009  0.9113 -0.0147  0.5908
 7673SOL     OW24786   3.398   1.252   1.331  0.0420  0.3915 -0.3781
 7673SOL    HW124787   3.423   1.208   1.413 -1.7372 -1.6826 -0.8448
 7673SOL    HW224788   3.313   1.292   1.351 -0.0904  0.4218 -0.9966
 7674SOL     OW24789   6.477   8.802   0.908 -0.5024 -0.4343  0.6208
 7674SOL    HW124790   6.545   8.856   0.869  0.1788 -0.4514  1.7561
 7674SOL    HW224791   6.407   8.802   0.843 -0.9793  2.6729  0.9913
 7675SOL     OW24792   5.525   0.690   6.757  0.3073 -0.3605 -0.1381
 7675SOL    HW124793   5.490   0.716   6.672  0.9204 -0.0122 -0.2886
 7675SOL    HW224794   5.588   0.621   6.737  0.0335 -0.6854  0.0931
 7676SOL     OW24795   2.027   0.252   3.587 -0.1002 -0.4058 -0.3156
 7676SOL    HW124796   2.038   0.157   3.599  0.5525 -0.0845  2.4833
 7676SOL    HW224797   1.958   0.260   3.521 -1.2878 -2.8666  0.4858
 7677SOL     OW24798   9.255   6.865   2.094 -0.2626 -0.0809  0.3693
 7677SOL    HW124799   9.339   6.842   2.134 -0.3244 -1.8921 -0.4199
 7677SOL    HW224800   9.274   6.938   2.036  0.3828  0.7089  1.5199
 7678SOL     OW24801   1.854   4.841   1.222  0.5562 -0.7140  0.4030
 7678SOL    HW124802   1.934   4.879   1.185  0.6293 -1.8179 -0.6000
 7678SOL    HW224803   1.786   4.905   1.200  1.1787  0.3919  1.5329
 7679SOL     OW24804   8.422   8.983   7.754 -0.4425 -0.5344  0.0293
 7679SOL    HW124805   8.458   9.062   7.714  1.6223 -1.7513 -0.6391
 7679SOL    HW224806   8.401   9.009   7.844  5.0175 -0.2957  1.5813
 7680SOL     OW24807   2.703   2.995   4.503  0.5348  0.2987 -0.1246
 7680SOL    HW124808   2.703   3.029   4.414  1.0911 -0.0427 -0.2583
 7680SOL    HW224809   2.794   3.003   4.533  0.4915 -0.2173  0.1639
 7681SOL     OW24810   2.232   7.180   5.243  1.3807 -0.0207  0.9468
 7681SOL    HW124811   2.207   7.091   5.216  1.6482 -0.1332  1.0628
 7681SOL    HW224812   2.324   7.172   5.266  1.5211  0.3841  0.5442
 7682SOL     OW24813   0.673   2.913   5.867 -0.6633  0.0880 -0.2782
 7682SOL    HW124814   0.756   2.922   5.821 -1.7897  0.9683 -2.2691
 7682SOL    HW224815   0.697   2.884   5.955  1.5598 -2.2038 -1.5337
 7683SOL     OW24816   9.660   3.553   6.939 -0.2355 -0.5143 -0.1689
 7683SOL    HW124817   9.654   3.645   6.912  1.5755 -0.2559  0.2129
 7683SOL    HW224818   9.573   3.533   6.975 -0.5508  1.1509  0.0577
 7684SOL     OW24819   0.532   8.547   0.226  0.6624 -0.8925  0.1009
 7684SOL    HW124820   0.512   8.457   0.252  1.9885 -0.7421  1.8839
 7684SOL    HW224821   0.628   8.550   0.222  0.6902  0.6350  1.0076
 7685SOL     OW24822   1.176   9.573   0.076  0.4238 -0.4808 -0.2248
 7685SOL    HW124823   1.205   9.626   0.001 -1.6438  0.5163 -0.3913
 7685SOL    HW224824   1.087   9.547   0.054  0.5863 -2.1460  0.8992
 7686SOL     OW24825   8.277   3.542   1.970  0.7910  0.5185  0.3225
 7686SOL    HW124826   8.249   3.461   2.013  0.5936 -0.4668 -1.5801
 7686SOL    HW224827   8.346   3.515   1.909 -0.1169  1.5542 -1.2395
 7687SOL     OW24828   1.527   0.856   6.905 -0.3680 -0.5829  0.1688
 7687SOL    HW124829   1.453   0.868   6.964 -0.0265  0.6808  0.3701
 7687SOL    HW224830   1.491   0.812   6.828 -0.9790 -1.5140  0.9679
 7688SOL     OW24831   9.515   5.625   3.057  0.2854 -0.0054  0.4752
 7688SOL    HW124832   9.542   5.533   3.065  0.8983  0.1962  0.7339
 7688SOL    HW224833   9.508   5.657   3.147  1.1022  0.4926  0.3730
 7689SOL     OW24834   2.142   2.045   0.145 -0.4691 -0.5092 -0.2049
 7689SOL    HW124835   2.141   1.954   0.172  1.0405 -1.0138 -1.6521
 7689SOL    HW224836   2.200   2.088   0.207 -2.3337 -0.1656  1.3800
 7690SOL     OW24837   5.013   5.234   8.029 -0.2515  0.7320 -0.2429
 7690SOL    HW124838   4.966   5.197   7.954  1.3285  1.5903 -1.6970
 7690SOL    HW224839   5.019   5.327   8.010 -1.6333  1.3627  1.9940
 7691SOL     OW24840   4.719   5.084   0.496 -0.3171 -0.1169  0.6130
 7691SOL    HW124841   4.680   5.143   0.560 -0.1374  0.9520 -0.2357
 7691SOL    HW224842   4.774   5.025   0.548 -2.5862 -1.3358  1.7896
 7692SOL     OW24843   0.265   0.299   1.938 -0.2386 -0.2086  0.2178
 7692SOL    HW124844   0.346   0.320   1.891  0.0587 -1.0559  0.3411
 7692SOL    HW224845   0.206   0.265   1.872 -0.3321 -0.0400  0.2127
 7693SOL     OW24846   5.211   8.150   3.863 -0.2421  0.0274 -0.4693
 7693SOL    HW124847   5.297   8.133   3.825  0.5713 -0.6038  1.4879
 7693SOL    HW224848   5.230   8.209   3.937 -1.7966  1.6224 -1.2699
 7694SOL     OW24849   6.382   3.738   3.132  0.4071  0.4385  0.4641
 7694SOL    HW124850   6.294   3.774   3.119  0.7178  1.7195  1.6391
 7694SOL    HW224851   6.437   3.815   3.144  1.8152 -0.3243 -0.8396
 7695SOL     OW24852   0.323   0.617   6.951 -0.3420 -0.6192  0.2476
 7695SOL    HW124853   0.398   0.638   7.007 -0.4434 -0.3326  0.2758
 7695SOL    HW224854   0.349   0.649   6.864  0.9544 -3.4438 -0.5128
 7696SOL     OW24855   9.372   8.662   4.520 -0.2252  0.1948 -0.2445
 7696SOL    HW124856   9.386   8.568   4.527  0.8455  0.3563 -0.1326
 7696SOL    HW224857   9.285   8.670   4.480 -0.6427 -0.8289  0.4070
 7697SOL     OW24858   6.466   6.557   1.647 -0.0208  0.4038  0.7241
 7697SOL    HW124859   6.390   6.537   1.702 -0.5166 -1.0750 -0.4510
 7697SOL    HW224860   6.439   6.633   1.596 -1.0134 -0.5158 -0.1799
 7698SOL     OW24861   2.918   0.093   0.453 -0.2468  0.4717  0.3973
 7698SOL    HW124862   2.844   0.033   0.449 -1.4964  1.7665  2.2146
 7698SOL    HW224863   2.883   0.176   0.419  0.7822  0.7764  0.0341
 7699SOL     OW24864   9.664   8.658   6.688 -0.3608  0.0057 -0.3284
 7699SOL    HW124865   9.581   8.653   6.641 -0.5033  1.5597 -0.3114
 7699SOL    HW224866   9.662   8.745   6.729  1.3550  0.1424 -0.4881
 7700SOL     OW24867   1.161   8.291   1.454  0.2677  0.2857  0.1176
 7700SOL    HW124868   1.115   8.268   1.535  0.5411  2.3292  0.9146
 7700SOL    HW224869   1.247   8.249   1.463 -0.9501 -2.6742 -0.9131
 7701SOL     OW24870   5.397   0.512   2.602 -0.0232  0.2985  0.3846
 7701SOL    HW124871   5.304   0.488   2.607 -0.5934  2.2986  0.0467
 7701SOL    HW224872   5.429   0.467   2.523 -0.7811 -0.0974  0.2946
 7702SOL     OW24873   3.615   3.923   7.123  0.0015  0.1234  0.1655
 7702SOL    HW124874   3.705   3.891   7.134 -0.9761 -2.9117  0.3034
 7702SOL    HW224875   3.569   3.889   7.200 -1.8938 -1.0709 -1.4197
 7703SOL     OW24876   5.450   0.517   4.365 -0.3498 -0.9197  0.5704
 7703SOL    HW124877   5.436   0.609   4.344 -0.1658 -1.3569 -1.6765
 7703SOL    HW224878   5.538   0.515   4.402  0.2883 -0.3514 -0.8291
 7704SOL     OW24879   2.891   2.253   5.783  0.1623  0.3987 -0.5415
 7704SOL    HW124880   2.892   2.227   5.875  0.5788  1.1069 -0.3389
 7704SOL    HW224881   2.943   2.333   5.780 -0.1444  0.5787 -1.3365
 7705SOL     OW24882   4.451   0.231   1.234  0.3840  0.4177  0.4211
 7705SOL    HW124883   4.396   0.167   1.279  0.0023  0.5604  0.1707
 7705SOL    HW224884   4.444   0.207   1.141  0.0425  0.9622  0.2998
 7706SOL     OW24885   2.128   0.038   0.246  0.1979 -0.3484  0.1265
 7706SOL    HW124886   2.096  -0.030   0.186 -0.0091 -0.2027  0.0692
 7706SOL    HW224887   2.139  -0.007   0.330 -0.8549 -0.2561  0.3366
 7707SOL     OW24888   1.293   3.512   0.312 -0.5846 -0.1367 -0.8035
 7707SOL    HW124889   1.335   3.494   0.396 -1.6075 -2.2280 -0.6880
 7707SOL    HW224890   1.353   3.572   0.268 -0.2629  1.4400  1.5904
 7708SOL     OW24891   2.765   9.830   2.860  0.5871 -0.3847  0.0591
 7708SOL    HW124892   2.750   9.924   2.861  1.1555 -0.2706 -0.7300
 7708SOL    HW224893   2.796   9.812   2.771  2.5794 -0.9803  0.8203
 7709SOL     OW24894   0.059   5.993   9.079  0.4229  0.0031 -0.0868
 7709SOL    HW124895  -0.016   5.953   9.122  0.0437  1.3461  0.5609
 7709SOL    HW224896   0.134   5.939   9.105 -0.3047 -1.4448 -0.8744
 7710SOL     OW24897   1.180   2.018   4.115 -0.1781  0.2912  0.5610
 7710SOL    HW124898   1.113   1.975   4.062  1.1822 -0.9562 -0.2184
 7710SOL    HW224899   1.138   2.034   4.200 -2.2501  1.8993 -0.6942
 7711SOL     OW24900   1.042   2.034   8.524  0.6707 -0.1081 -0.2918
 7711SOL    HW124901   1.056   2.072   8.611  0.6480  1.2862 -0.8704
 7711SOL    HW224902   0.997   1.951   8.540  0.9042  0.0053  1.0307
 7712SOL     OW24903   7.134   8.986   1.549 -0.3511 -0.3896  0.5847
 7712SOL    HW124904   7.226   8.966   1.531  0.1510  0.2101  2.3244
 7712SOL    HW224905   7.118   9.069   1.504  0.6050  0.6123  2.0197
 7713SOL     OW24906   8.114   6.161   1.721 -0.2362 -0.1282  0.3609
 7713SOL    HW124907   8.101   6.233   1.658  0.1802 -0.3129  0.0605
 7713SOL    HW224908   8.184   6.191   1.778 -1.5860  0.6660  1.6875
 7714SOL     OW24909   5.134   0.345   8.480 -0.6377 -0.1223 -0.0852
 7714SOL    HW124910   5.169   0.327   8.393  1.2779 -2.4410  1.0304
 7714SOL    HW224911   5.173   0.429   8.504  0.1010 -0.2155 -0.8759
 7715SOL     OW24912   4.023   8.518   8.447 -0.3613  0.1269  0.2722
 7715SOL    HW124913   4.004   8.445   8.388 -2.7488  0.3137  0.7479
 7715SOL    HW224914   4.027   8.595   8.390  2.3506 -0.2994 -0.2590
 7716SOL     OW24915   9.121   7.631   3.324  0.2457 -0.0364 -0.1109
 7716SOL    HW124916   9.147   7.595   3.239  2.1160 -0.0388  0.4225
 7716SOL    HW224917   9.156   7.720   3.325 -0.9109  0.4343  0.1604
 7717SOL     OW24918   3.696   7.790   7.397  0.0346  0.1120  0.0539
 7717SOL    HW124919   3.633   7.721   7.415  1.0784 -1.1411 -0.9150
 7717SOL    HW224920   3.648   7.854   7.344 -0.9111  0.1255  0.8905
 7718SOL     OW24921   6.791   2.395   6.795 -0.0284 -0.4641 -0.1739
 7718SOL    HW124922   6.754   2.393   6.883  0.9426  2.5242  0.4104
 7718SOL    HW224923   6.757   2.475   6.756  1.3013 -0.5833 -1.6871
 7719SOL     OW24924   0.024   8.386   9.220  0.0966 -0.5788 -0.1384
 7719SOL    HW124925   0.100   8.339   9.255  1.2644  1.6938  0.5643
 7719SOL    HW224926   0.060   8.439   9.149 -0.8593  0.3392  0.0390
 7720SOL     OW24927   6.701   2.794   5.380  0.1474  0.3435  0.4986
 7720SOL    HW124928   6.751   2.787   5.462 -2.8395 -1.2319  2.3830
 7720SOL    HW224929   6.614   2.822   5.409 -0.8416  0.3633 -2.2627
 7721SOL     OW24930   2.434   7.033   6.541  0.1539 -0.0006  0.2521
 7721SOL    HW124931   2.498   7.030   6.469 -0.5128  0.8893 -0.3970
 7721SOL    HW224932   2.485   7.058   6.618  1.3056 -3.0706  0.6373
 7722SOL     OW24933   5.652   2.480   8.453  0.3731  0.0281  0.0809
 7722SOL    HW124934   5.734   2.472   8.403  0.1841 -0.4341 -0.1617
 7722SOL    HW224935   5.676   2.456   8.542  0.0520 -2.3716 -0.4135
 7723SOL     OW24936   2.956   3.525   8.081  0.3925  0.3483  0.4077
 7723SOL    HW124937   2.913   3.553   8.162 -1.1477  0.1272 -0.3139
 7723SOL    HW224938   2.902   3.453   8.048  1.0681  0.3507 -0.7613
 7724SOL     OW24939   5.998   6.287   6.723 -0.4030  0.0631  0.8039
 7724SOL    HW124940   6.073   6.285   6.783  0.8257 -3.0589 -0.6166
 7724SOL    HW224941   6.015   6.361   6.665 -0.1985  1.4275  2.5187
 7725SOL     OW24942   3.203   8.683   8.295  0.3637  0.2413 -0.9708
 7725SOL    HW124943   3.122   8.633   8.307  1.7439 -1.5535  1.9340
 7725SOL    HW224944   3.181   8.771   8.324 -0.7932  0.0403 -1.1832
 7726SOL     OW24945   0.755   8.267   2.656 -0.2871 -0.1120  0.0594
 7726SOL    HW124946   0.837   8.287   2.701 -1.2375  0.7784  1.4827
 7726SOL    HW224947   0.780   8.252   2.565  1.5870 -1.0020  0.6758
 7727SOL     OW24948   7.267   3.357   9.700 -0.4691  0.1908  0.0457
 7727SOL    HW124949   7.226   3.312   9.774 -0.7820  1.1440  0.4702
 7727SOL    HW224950   7.240   3.307   9.623 -2.8135  0.9949  0.2595
 7728SOL     OW24951   9.051   0.643   8.264  0.2505 -0.6239  0.1444
 7728SOL    HW124952   8.997   0.603   8.196 -1.1878  0.3136  0.7030
 7728SOL    HW224953   8.994   0.647   8.341  1.0805  0.4962  0.7292
 7729SOL     OW24954   5.471   7.090   1.620  0.9842 -0.5414 -0.4806
 7729SOL    HW124955   5.503   7.033   1.690 -0.1143  0.9471  1.3240
 7729SOL    HW224956   5.515   7.174   1.635 -1.7079  0.8154  0.5682
 7730SOL     OW24957   3.565   9.412   6.354 -0.6718 -0.3523  0.1982
 7730SOL    HW124958   3.631   9.479   6.336 -1.1510  0.0572 -0.0401
 7730SOL    HW224959   3.483   9.460   6.361 -0.7351 -0.6412  2.0940
 7731SOL     OW24960   2.094   2.384   4.719 -0.0100  0.0514  0.2166
 7731SOL    HW124961   2.154   2.401   4.792  0.7214 -0.4790 -0.2504
 7731SOL    HW224962   2.020   2.444   4.735  0.0472 -0.1834  1.4785
 7732SOL     OW24963   4.357   4.934   8.661  0.5723  0.7919  0.1866
 7732SOL    HW124964   4.309   5.008   8.698 -0.2380  0.1230  0.5085
 7732SOL    HW224965   4.306   4.858   8.687  1.3456  0.1261 -0.2222
 7733SOL     OW24966   8.328   4.576   1.034 -0.1870  0.1935 -0.2875
 7733SOL    HW124967   8.316   4.488   0.998 -1.4987  0.3423 -0.2713
 7733SOL    HW224968   8.325   4.563   1.128  0.4424  0.1548 -0.2722
 7734SOL     OW24969   0.242   3.463   0.041  0.3211 -0.2831 -0.3391
 7734SOL    HW124970   0.174   3.463  -0.027  0.2880  0.4261 -0.3158
 7734SOL    HW224971   0.307   3.401   0.011 -0.8391 -1.8076  0.1506
 7735SOL     OW24972   4.437   0.084   3.059 -1.0211  0.2595  0.3587
 7735SOL    HW124973   4.462   0.034   3.137  0.0833  2.1412  1.2848
 7735SOL    HW224974   4.347   0.112   3.076 -0.7353  0.7862  1.0453
 7736SOL     OW24975   9.090   4.202   7.746 -0.2062  0.5701  0.3068
 7736SOL    HW124976   9.043   4.175   7.825 -1.2648  1.1535 -0.1063
 7736SOL    HW224977   9.174   4.157   7.752 -0.5826 -0.0313  1.3627
 7737SOL     OW24978   2.258   2.931   4.951 -0.1158  0.4616 -0.5558
 7737SOL    HW124979   2.272   2.943   4.857 -0.4613  3.0731 -0.3682
 7737SOL    HW224980   2.306   3.004   4.991 -0.5615 -0.1895  1.2448
 7738SOL     OW24981   8.596   0.198   6.762 -0.1054  0.3230  0.2220
 7738SOL    HW124982   8.627   0.205   6.672  0.3123  1.2844  0.4342
 7738SOL    HW224983   8.501   0.208   6.756 -0.3579 -1.9157 -0.3468
 7739SOL     OW24984   1.516   1.299   0.092  0.0930  0.0702  0.0923
 7739SOL    HW124985   1.455   1.321   0.021 -1.8265 -0.0756  1.6255
 7739SOL    HW224986   1.504   1.205   0.106  0.6885  0.0367  0.4010
 7740SOL     OW24987   2.150   9.816   9.717  0.5568  0.5025  0.2452
 7740SOL    HW124988   2.228   9.777   9.756 -0.3829 -0.3918  1.3268
 7740SOL    HW224989   2.176   9.905   9.694  1.9748  0.1107  0.2655
 7741SOL     OW24990   9.301   5.536   5.974 -0.0993 -0.1625 -0.4066
 7741SOL    HW124991   9.396   5.532   5.983 -0.0587  0.7619 -0.3592
 7741SOL    HW224992   9.282   5.629   5.963 -0.9131 -0.4357 -1.4330
 7742SOL     OW24993   3.770   9.536   9.389  0.3213  0.4240 -0.3627
 7742SOL    HW124994   3.803   9.448   9.371  0.8772  0.7554 -1.0430
 7742SOL    HW224995   3.816   9.591   9.325 -1.5112  0.9228 -1.3099
 7743SOL     OW24996   8.475   0.174   9.660 -0.1204 -0.0780 -0.7956
 7743SOL    HW124997   8.439   0.085   9.659  0.1962 -0.2566  0.8048
 7743SOL    HW224998   8.412   0.225   9.710  0.0697  0.4268 -1.0650
 7744SOL     OW24999   7.273   0.980   7.553  0.6720 -0.0520 -0.1811
 7744SOL    HW125000   7.219   0.969   7.631  2.3282 -0.5541  0.9598
 7744SOL    HW225001   7.239   0.916   7.490  1.2990 -1.9497  1.3066
 7745SOL     OW25002   3.991   0.588   4.450 -0.2535 -0.1882 -0.1917
 7745SOL    HW125003   4.073   0.597   4.498 -1.0694 -0.6997  1.4022
 7745SOL    HW225004   3.923   0.604   4.516 -1.4434  0.7100 -1.5760
 7746SOL     OW25005   9.218   4.630   0.524 -0.3067 -0.7587 -0.7019
 7746SOL    HW125006   9.151   4.661   0.585 -0.8124 -1.2104 -1.0203
 7746SOL    HW225007   9.213   4.534   0.529 -0.1603 -0.7991 -1.2361
 7747SOL     OW25008   7.425   2.103   7.171 -0.1467 -0.0685  0.3254
 7747SOL    HW125009   7.482   2.155   7.115 -1.2464  1.2681  0.4023
 7747SOL    HW225010   7.482   2.036   7.209  0.8431 -0.3063 -1.4864
 7748SOL     OW25011   3.441   1.361   9.335 -0.5360 -0.0443  0.1922
 7748SOL    HW125012   3.502   1.301   9.378  0.8313  0.7223 -0.5961
 7748SOL    HW225013   3.378   1.384   9.403  0.2722 -0.5715  1.1433
 7749SOL     OW25014   8.655   4.572   1.677 -0.4642 -0.4146  0.3213
 7749SOL    HW125015   8.704   4.507   1.625  0.3334 -0.5702  1.2289
 7749SOL    HW225016   8.679   4.553   1.767 -0.0339  1.2792  0.6061
 7750SOL     OW25017   4.482   4.117   5.066 -0.0700 -0.5911  0.0007
 7750SOL    HW125018   4.545   4.121   4.994 -0.1330 -0.8983 -0.0723
 7750SOL    HW225019   4.396   4.117   5.024 -0.0980 -1.2841  0.0520
 7751SOL     OW25020   0.300   6.045   0.149  0.1898 -0.2691 -0.0867
 7751SOL    HW125021   0.336   5.974   0.096  1.4573 -0.3589  0.8346
 7751SOL    HW225022   0.220   6.071   0.104 -0.2110 -2.1672 -0.5447
 7752SOL     OW25023   6.646   4.872   7.225  0.3902  0.2109 -0.5523
 7752SOL    HW125024   6.701   4.797   7.247  0.4678  0.6292  0.7651
 7752SOL    HW225025   6.584   4.878   7.297  0.5079  1.5241 -0.5317
 7753SOL     OW25026   3.145   9.265   4.209 -0.4657 -0.5522  0.5731
 7753SOL    HW125027   3.194   9.194   4.250  1.8351  1.0870  0.8534
 7753SOL    HW225028   3.093   9.302   4.280  0.1265 -0.4850  0.9746
 7754SOL     OW25029   7.431   3.746   1.539  0.0194  0.3834  1.0193
 7754SOL    HW125030   7.361   3.810   1.555 -0.5723  0.5820 -1.8618
 7754SOL    HW225031   7.386   3.670   1.503  1.1275 -0.0744  0.5853
 7755SOL     OW25032   0.471   6.933   4.639 -0.3246 -0.1428 -0.6455
 7755SOL    HW125033   0.379   6.960   4.645 -1.0134 -2.3635 -0.1168
 7755SOL    HW225034   0.477   6.857   4.697  1.2803 -1.4239 -2.3858
 7756SOL     OW25035   3.973   6.510   0.432  0.2025 -0.0502  0.2294
 7756SOL    HW125036   3.936   6.585   0.387  0.9245 -0.1217 -0.5194
 7756SOL    HW225037   4.021   6.547   0.506  1.6350  0.3862 -0.8568
 7757SOL     OW25038   3.453   5.634   0.726  0.1392  0.1363  0.5579
 7757SOL    HW125039   3.443   5.554   0.778  2.1083  0.8092  2.1279
 7757SOL    HW225040   3.364   5.658   0.702 -0.5769 -2.0033  0.8487
 7758SOL     OW25041   5.940   4.008   0.511  0.1351 -0.5302 -0.0686
 7758SOL    HW125042   5.857   3.972   0.477  0.2353 -1.4771  0.6401
 7758SOL    HW225043   5.974   4.061   0.439 -0.0573 -1.8247 -1.1614
 7759SOL     OW25044   9.777   0.273   7.482 -0.5209  0.1050 -0.3277
 7759SOL    HW125045   9.806   0.202   7.540 -0.1908  0.7171  0.2607
 7759SOL    HW225046   9.693   0.300   7.518 -1.3692 -0.9410 -1.4037
 7760SOL     OW25047   6.047   5.688   2.478 -0.0722 -0.6876  0.3623
 7760SOL    HW125048   5.978   5.735   2.430 -1.6085 -1.4718  1.6995
 7760SOL    HW225049   6.047   5.727   2.565  0.4016 -1.4496  0.7187
 7761SOL     OW25050   2.578   2.433   4.797 -0.1192 -0.2210 -0.0239
 7761SOL    HW125051   2.536   2.474   4.872  1.1638  0.1133  0.5366
 7761SOL    HW225052   2.531   2.351   4.785  0.5756 -0.9840  2.0832
 7762SOL     OW25053   6.509   8.980   6.678 -0.1511  0.5794  0.2539
 7762SOL    HW125054   6.463   9.063   6.683  0.0210  0.6785  0.1886
 7762SOL    HW225055   6.600   9.003   6.665  0.1088  0.4097  1.5942
 7763SOL     OW25056   9.006   9.730   6.805  0.1488 -0.1992 -0.1236
 7763SOL    HW125057   8.957   9.808   6.780  1.8896  1.3096  0.9063
 7763SOL    HW225058   9.074   9.721   6.738 -0.0863 -0.8675 -0.2748
 7764SOL     OW25059   7.251   4.452   2.750 -0.8374  0.2270  0.5815
 7764SOL    HW125060   7.202   4.471   2.670 -0.9339 -1.4638  0.2168
 7764SOL    HW225061   7.342   4.448   2.722 -0.9361 -1.0301  0.4220
 7765SOL     OW25062   4.031   7.803   9.342 -0.4849 -0.0246 -0.1386
 7765SOL    HW125063   3.999   7.834   9.258 -1.1510 -1.8831 -0.6315
 7765SOL    HW225064   4.106   7.748   9.321 -1.4085 -1.5263  0.3131
 7766SOL     OW25065   0.303   8.853   7.745  0.0285  0.0679  0.1362
 7766SOL    HW125066   0.228   8.888   7.793 -1.8330  1.0761 -3.2081
 7766SOL    HW225067   0.273   8.768   7.713  0.2712  0.4897 -1.2537
 7767SOL     OW25068   3.910   6.809   6.327  0.0716 -0.2860 -0.0331
 7767SOL    HW125069   3.901   6.854   6.411 -1.3412 -1.6402  0.5873
 7767SOL    HW225070   3.851   6.856   6.268  1.9682  1.4312 -0.6624
 7768SOL     OW25071   8.166   3.865   8.187 -0.0240  0.1857 -0.2683
 7768SOL    HW125072   8.172   3.807   8.263 -0.8081 -0.0671 -0.3965
 7768SOL    HW225073   8.079   3.904   8.193 -0.7531 -1.0639 -1.8950
 7769SOL     OW25074   3.704   4.908   9.339 -0.1962 -0.6690  0.2915
 7769SOL    HW125075   3.735   4.818   9.349  0.5360 -0.3502  1.0153
 7769SOL    HW225076   3.610   4.903   9.355 -0.2022 -1.3483  0.0651
 7770SOL     OW25077   4.144   2.137   8.189  0.0150  0.2132  0.0232
 7770SOL    HW125078   4.054   2.104   8.195  0.2986 -0.5121  0.3729
 7770SOL    HW225079   4.141   2.222   8.232 -0.8467  0.9348 -1.3655
 7771SOL     OW25080   5.512   1.065   0.130 -0.5061 -0.0220  0.1889
 7771SOL    HW125081   5.488   1.098   0.216 -0.3070 -1.3070  0.7668
 7771SOL    HW225082   5.597   1.105   0.112 -0.4089  0.0261  0.7274
 7772SOL     OW25083   1.544   6.935   9.706 -0.2232  0.4038 -0.5964
 7772SOL    HW125084   1.612   6.993   9.672  1.0054 -0.2284  0.7095
 7772SOL    HW225085   1.500   6.986   9.774 -1.1321  0.8318 -1.4761
 7773SOL     OW25086   9.284   0.789   8.216  0.3437 -0.0634  0.2052
 7773SOL    HW125087   9.218   0.734   8.259 -0.5014  0.6120 -0.1898
 7773SOL    HW225088   9.360   0.732   8.206 -0.3559 -1.0217  0.1978
 7774SOL     OW25089   3.745   9.023   3.343  0.1789  0.1131 -0.4174
 7774SOL    HW125090   3.704   8.953   3.394 -0.0539  0.7811  0.3181
 7774SOL    HW225091   3.817   8.979   3.296 -0.9447 -0.9310 -1.2181
 7775SOL     OW25092   1.278   3.309   0.078 -0.3786 -0.4439  0.2366
 7775SOL    HW125093   1.366   3.342   0.064 -1.1111  1.2186 -0.7433
 7775SOL    HW225094   1.272   3.232   0.022  0.7847 -1.2458  1.1749
 7776SOL     OW25095   2.074   7.890   1.775 -0.5537  0.2618 -0.4624
 7776SOL    HW125096   2.053   7.809   1.727 -1.9942  0.8224 -0.8276
 7776SOL    HW225097   2.013   7.891   1.848 -0.3606  0.9007 -0.3060
 7777SOL     OW25098   1.498   4.491   5.952  0.0935 -0.3777  0.4356
 7777SOL    HW125099   1.514   4.413   5.899  0.3511 -0.4443  0.6068
 7777SOL    HW225100   1.557   4.482   6.027  0.2639  0.0776  0.3605
 7778SOL     OW25101   6.406   2.288   5.141 -0.6838 -0.3144 -0.2759
 7778SOL    HW125102   6.435   2.199   5.162 -0.0245  0.0695  0.4964
 7778SOL    HW225103   6.460   2.345   5.195 -1.4458  0.5428 -0.3784
 7779SOL     OW25104   7.256   0.398   0.796  0.7089 -0.3635 -0.3249
 7779SOL    HW125105   7.175   0.386   0.746  0.5403  1.8217 -0.6814
 7779SOL    HW225106   7.229   0.399   0.887  0.2710  0.5171 -0.4506
 7780SOL     OW25107   8.604   4.679   8.023 -0.2934  0.2775 -0.1276
 7780SOL    HW125108   8.532   4.618   8.041  0.3870 -0.3187  0.6602
 7780SOL    HW225109   8.613   4.678   7.928 -1.3994  0.4564 -0.2506
 7781SOL     OW25110   3.940   2.033   6.387 -0.1289 -0.7469  0.0511
 7781SOL    HW125111   3.897   2.026   6.302 -3.0213  0.0835  1.3236
 7781SOL    HW225112   3.901   2.111   6.427  0.4514 -1.6292  2.4917
 7782SOL     OW25113   5.301   0.204   6.516  0.4228  0.4118  0.0626
 7782SOL    HW125114   5.317   0.110   6.517 -0.9429  0.0738 -2.1148
 7782SOL    HW225115   5.387   0.244   6.508  0.8943 -0.8946 -2.7787
 7783SOL     OW25116   8.861   7.648   5.025  0.8263 -0.5839 -0.3386
 7783SOL    HW125117   8.834   7.680   5.111  2.1692  0.4885 -0.2780
 7783SOL    HW225118   8.803   7.574   5.008 -0.9762  0.5742  0.4731
 7784SOL     OW25119   4.092   3.614   2.066  0.1050 -0.1530  0.0597
 7784SOL    HW125120   4.171   3.568   2.093 -0.4866 -1.3772 -0.2048
 7784SOL    HW225121   4.088   3.691   2.123  0.9407 -0.6182  0.7726
 7785SOL     OW25122   4.589   6.276   0.977  0.2708  0.1686 -0.0206
 7785SOL    HW125123   4.517   6.336   0.993 -0.7681 -1.3958  1.5060
 7785SOL    HW225124   4.659   6.331   0.942 -1.2043  1.9412 -0.3259
 7786SOL     OW25125   9.626   9.289   8.704  0.1075  0.0948  0.5541
 7786SOL    HW125126   9.610   9.263   8.795 -1.8791 -1.8803 -0.2605
 7786SOL    HW225127   9.708   9.247   8.681 -0.7217 -1.7298  0.6981
 7787SOL     OW25128   4.776   2.670   0.357 -0.0412  0.0205 -0.0339
 7787SOL    HW125129   4.846   2.604   0.353 -1.2172 -1.2549 -0.3203
 7787SOL    HW225130   4.823   2.753   0.369  1.6337 -0.5500 -2.0676
 7788SOL     OW25131   4.568   7.304   0.301 -0.2389  0.4214  0.1036
 7788SOL    HW125132   4.533   7.309   0.212  1.1949 -0.7903 -0.5705
 7788SOL    HW225133   4.647   7.251   0.293 -0.8980 -1.0460  2.3487
 7789SOL     OW25134   1.950   4.111   6.340  0.6045 -0.0305  0.1613
 7789SOL    HW125135   1.919   4.038   6.287  2.6613 -0.8224 -0.0509
 7789SOL    HW225136   1.936   4.188   6.285 -0.2525 -0.4290 -0.1998
 7790SOL     OW25137   5.880   1.325   9.257  0.2215 -0.0969 -0.0602
 7790SOL    HW125138   5.931   1.284   9.187  0.2031  0.0669 -0.1688
 7790SOL    HW225139   5.789   1.320   9.226 -0.0503 -1.8650  0.8415
 7791SOL     OW25140   1.931   8.378   8.204 -0.0171  0.0187 -0.3025
 7791SOL    HW125141   1.868   8.332   8.260 -1.1321  0.6513 -0.9911
 7791SOL    HW225142   1.937   8.323   8.125  0.4986 -0.1773 -0.1253
 7792SOL     OW25143   9.741   4.128   6.770  0.5379 -0.1188 -0.7165
 7792SOL    HW125144   9.776   4.039   6.767  1.1705  0.1340 -0.9949
 7792SOL    HW225145   9.651   4.117   6.802  0.2840 -0.9468 -1.6595
 7793SOL     OW25146   5.405   1.072   0.422  0.0667 -0.1233  0.3154
 7793SOL    HW125147   5.347   1.064   0.498  0.8507 -0.6271  0.8796
 7793SOL    HW225148   5.375   1.152   0.378 -1.0014 -0.3285  0.6212
 7794SOL     OW25149   0.154   4.900   8.763  0.7039 -0.3115 -0.2047
 7794SOL    HW125150   0.243   4.887   8.795  0.4174 -0.5620  0.5171
 7794SOL    HW225151   0.104   4.826   8.799  0.1687 -0.0706 -0.4365
 7795SOL     OW25152   3.083   4.364   6.916 -0.2487 -0.5389 -0.0900
 7795SOL    HW125153   3.047   4.310   6.986  0.4622 -0.3187  0.4677
 7795SOL    HW225154   3.177   4.347   6.919  0.1556  1.4622  0.8005
 7796SOL     OW25155   9.594   8.708   7.738 -0.1530 -0.2505  0.2874
 7796SOL    HW125156   9.582   8.704   7.833  1.4298 -0.3849  0.5176
 7796SOL    HW225157   9.582   8.618   7.708  1.8341 -0.7305  0.7557
 7797SOL     OW25158   7.311   5.353   3.812 -0.1767  0.1673 -0.2092
 7797SOL    HW125159   7.268   5.292   3.872 -1.8522  0.6185 -0.8977
 7797SOL    HW225160   7.402   5.322   3.808 -0.8452 -1.9869 -0.1524
 7798SOL     OW25161   3.362   6.123   2.711 -0.2411 -0.2259 -0.2021
 7798SOL    HW125162   3.398   6.167   2.634 -3.3976 -0.4378 -1.9329
 7798SOL    HW225163   3.357   6.193   2.777  3.1282 -0.1941  0.2180
 7799SOL     OW25164   4.890   4.579   7.879 -0.0135 -0.0597 -0.2485
 7799SOL    HW125165   4.815   4.521   7.867  0.0169  0.0787 -1.1637
 7799SOL    HW225166   4.921   4.560   7.967 -1.0323 -0.2195  0.0802
 7800SOL     OW25167   1.076   6.751   1.024 -0.0164  0.1445  0.4272
 7800SOL    HW125168   1.154   6.696   1.012 -0.4434 -0.3304 -0.2711
 7800SOL    HW225169   1.003   6.691   1.011 -0.5187  0.4670  1.6268
 7801SOL     OW25170   2.885   3.669   9.802  0.6050 -0.1144 -0.2842
 7801SOL    HW125171   2.889   3.721   9.721 -0.8359 -0.0918 -0.3601
 7801SOL    HW225172   2.868   3.580   9.772  2.7558 -0.6320 -0.1326
 7802SOL     OW25173   6.335   5.921   9.228  0.2350  0.5706 -0.5539
 7802SOL    HW125174   6.333   5.848   9.291 -0.5590  1.2577  0.2492
 7802SOL    HW225175   6.302   5.883   9.147 -0.0005 -0.0226 -0.1934
 7803SOL     OW25176   4.517   3.310   8.257 -0.7381  0.4498  0.0065
 7803SOL    HW125177   4.500   3.218   8.277 -2.4622  0.3516 -1.6148
 7803SOL    HW225178   4.613   3.318   8.261 -0.4658 -1.7036 -0.9156
 7804SOL     OW25179   9.363   7.084   6.762  0.1734  0.7123  0.2187
 7804SOL    HW125180   9.427   7.125   6.704  0.2556  0.6254  0.2481
 7804SOL    HW225181   9.332   7.007   6.713  0.6917  0.2940  0.5430
 7805SOL     OW25182   9.519   3.754   5.236 -0.9630 -0.5678  0.3327
 7805SOL    HW125183   9.424   3.748   5.251 -1.0020  1.1494  1.0848
 7805SOL    HW225184   9.557   3.745   5.323 -0.6280  1.1231  0.4026
 7806SOL     OW25185   9.449   2.051   4.702  0.4162  0.4163  0.1101
 7806SOL    HW125186   9.377   2.016   4.754 -0.1234  1.9641  0.4300
 7806SOL    HW225187   9.413   2.129   4.660  1.4626  0.3627 -0.9479
 7807SOL     OW25188   9.598   2.337   3.273  0.1229 -0.5914 -0.0066
 7807SOL    HW125189   9.622   2.349   3.181 -0.6194 -0.9798 -0.2585
 7807SOL    HW225190   9.507   2.367   3.278  0.4083  0.1840  0.7743
 7808SOL     OW25191   7.771   3.095   2.284 -0.8685 -0.3631  0.2342
 7808SOL    HW125192   7.780   3.190   2.275  1.1698 -0.3302  1.8224
 7808SOL    HW225193   7.724   3.083   2.367  1.2702 -0.6475  1.5150
 7809SOL     OW25194   6.736   6.466   7.184 -0.2283 -0.1900 -0.1466
 7809SOL    HW125195   6.784   6.546   7.206 -0.8949 -0.5069  2.8814
 7809SOL    HW225196   6.781   6.397   7.233 -0.9867 -1.3142 -0.9871
 7810SOL     OW25197   5.470   4.844   4.550 -0.2822 -0.0739  0.2016
 7810SOL    HW125198   5.469   4.768   4.608 -2.9277 -0.2117  0.0966
 7810SOL    HW225199   5.481   4.919   4.609  0.2790 -0.4011  0.5196
 7811SOL     OW25200   5.702   8.103   4.143 -0.5463  0.2616  0.1649
 7811SOL    HW125201   5.632   8.149   4.095  0.4105 -0.1266 -1.7039
 7811SOL    HW225202   5.664   8.016   4.162 -0.6669  0.1316 -0.6335
 7812SOL     OW25203   0.098   4.383   5.923  0.2265 -0.1463  0.3105
 7812SOL    HW125204   0.130   4.353   5.838 -1.9197  1.6926 -1.2707
 7812SOL    HW225205   0.017   4.333   5.937 -0.4843  0.9672  0.2718
 7813SOL     OW25206   5.361   6.180   2.485 -0.5376  0.2695 -0.2704
 7813SOL    HW125207   5.301   6.245   2.449 -0.3113  0.1386 -0.8920
 7813SOL    HW225208   5.306   6.124   2.540 -0.5497  1.6779  1.2564
 7814SOL     OW25209   5.544   2.638   3.861  1.2867  0.6244 -0.2457
 7814SOL    HW125210   5.568   2.553   3.898  2.0713 -0.1835 -2.4149
 7814SOL    HW225211   5.449   2.634   3.852  1.4077 -0.5400 -1.3478
 7815SOL     OW25212   8.005   1.449   7.790  0.5385 -0.5665  0.0043
 7815SOL    HW125213   8.026   1.356   7.781  1.6272 -0.3764  0.4515
 7815SOL    HW225214   8.037   1.472   7.877  2.2173  0.6989 -0.8934
 7816SOL     OW25215   5.053   3.158   3.983 -0.4717  0.3940 -0.2453
 7816SOL    HW125216   5.006   3.094   3.929 -0.8353  0.8496 -0.4750
 7816SOL    HW225217   4.998   3.236   3.982 -0.8189  0.2118  1.3176
 7817SOL     OW25218   2.073   0.324   2.328  0.4197 -0.0111 -0.0404
 7817SOL    HW125219   2.101   0.242   2.287 -2.0193 -0.9600  0.0321
 7817SOL    HW225220   2.069   0.387   2.256  1.2390 -0.2316 -0.2904
 7818SOL     OW25221   3.913   0.403   4.886 -0.0805 -0.0610  1.0934
 7818SOL    HW125222   3.831   0.354   4.885  0.7636 -1.5179  0.0656
 7818SOL    HW225223   3.978   0.341   4.919  1.1496  0.0678 -0.9251
 7819SOL     OW25224   4.208   6.017   4.227  0.0287 -0.1448  0.0466
 7819SOL    HW125225   4.153   6.088   4.258 -0.2612  0.5442 -1.9147
 7819SOL    HW225226   4.150   5.940   4.228  0.2399 -0.3049  1.8258
 7820SOL     OW25227   6.174   8.701   2.291 -0.1031  0.0912 -0.3153
 7820SOL    HW125228   6.092   8.749   2.292  0.5118  1.2301 -1.2767
 7820SOL    HW225229   6.236   8.760   2.248  0.6543 -1.6187 -1.7274
 7821SOL     OW25230   5.197   2.662   6.895  0.0735  0.3209  0.0345
 7821SOL    HW125231   5.205   2.606   6.818 -0.7141 -1.0713  0.9249
 7821SOL    HW225232   5.267   2.727   6.885  2.8100 -2.3868  0.2668
 7822SOL     OW25233   5.315   2.525   4.648 -0.0029 -0.1046  0.7822
 7822SOL    HW125234   5.236   2.543   4.596 -0.6000 -0.7773  1.4326
 7822SOL    HW225235   5.312   2.590   4.718 -0.6998 -0.9517  1.5623
 7823SOL     OW25236   5.550   6.472   5.771  0.0481 -0.2392 -0.2641
 7823SOL    HW125237   5.467   6.518   5.780  0.3523  0.1960  0.3763
 7823SOL    HW225238   5.616   6.541   5.761  0.2195 -0.6031 -1.8579
 7824SOL     OW25239   3.545   2.383   6.415 -0.1849 -0.4352  0.2410
 7824SOL    HW125240   3.554   2.454   6.352 -3.1692  1.7184  1.9497
 7824SOL    HW225241   3.632   2.372   6.453  0.9391  0.3941 -1.9448
 7825SOL     OW25242   1.871   3.623   2.658 -0.2313 -0.2789  0.0071
 7825SOL    HW125243   1.853   3.630   2.565  1.7821 -1.7538 -0.5631
 7825SOL    HW225244   1.903   3.710   2.684  0.3151 -0.1782 -0.9706
 7826SOL     OW25245   5.796   9.733   1.768 -0.1106  0.2399 -0.0187
 7826SOL    HW125246   5.861   9.722   1.698  0.2787 -0.2259  0.4012
 7826SOL    HW225247   5.713   9.709   1.728  0.1100 -0.0156 -0.3307
 7827SOL     OW25248   2.390   3.235   8.565  0.2089 -0.0961  0.0714
 7827SOL    HW125249   2.415   3.148   8.597  1.7480  0.4159  0.3403
 7827SOL    HW225250   2.409   3.232   8.471  0.4866  0.0240  0.1237
 7828SOL     OW25251   6.020   8.967   6.566 -0.1157 -0.0357  0.5120
 7828SOL    HW125252   5.932   8.935   6.547 -0.3281 -0.3914  2.0118
 7828SOL    HW225253   6.054   8.907   6.632  0.2137  1.6394  1.9467
 7829SOL     OW25254   3.966   6.556   2.724  0.2081 -0.1948 -0.4534
 7829SOL    HW125255   3.997   6.630   2.776 -0.1086  0.0751 -0.6467
 7829SOL    HW225256   3.953   6.592   2.637  1.6485 -0.8676 -0.9683
 7830SOL     OW25257   7.598   5.865   5.710  0.2625  0.1711 -0.3514
 7830SOL    HW125258   7.575   5.801   5.777 -0.2116  0.3289 -0.3566
 7830SOL    HW225259   7.522   5.865   5.651 -0.4964  1.9180  0.5452
 7831SOL     OW25260   6.264   3.946   7.039 -0.1793 -0.0707  0.3067
 7831SOL    HW125261   6.261   3.887   7.113  0.2739 -0.0357  0.3555
 7831SOL    HW225262   6.177   3.984   7.035 -0.2557 -0.1998  0.7169
 7832SOL     OW25263   1.966   2.037   5.051 -0.1442  0.0840  0.0673
 7832SOL    HW125264   2.027   1.968   5.075 -0.6937 -0.5688 -0.3787
 7832SOL    HW225265   1.951   2.024   4.957 -2.6762 -1.1637  0.5805
 7833SOL     OW25266   6.433   2.214   1.646 -0.0264  0.4342 -0.5104
 7833SOL    HW125267   6.513   2.247   1.605  0.8312 -0.1738  0.6254
 7833SOL    HW225268   6.428   2.259   1.730  0.5996 -1.4384  0.6035
 7834SOL     OW25269   8.652   2.119   5.944  0.0553  0.2110 -0.3287
 7834SOL    HW125270   8.725   2.177   5.966  0.6076 -0.4141 -0.4993
 7834SOL    HW225271   8.692   2.043   5.902 -0.7566  0.2028 -1.1281
 7835SOL     OW25272   9.270   0.397   5.485 -0.7873  0.4603  0.0753
 7835SOL    HW125273   9.336   0.380   5.553 -0.9540  1.3395  0.4712
 7835SOL    HW225274   9.258   0.492   5.487 -1.6715  0.3653 -0.3639
 7836SOL     OW25275   3.667   5.322   6.705  0.2526 -0.8895 -0.5969
 7836SOL    HW125276   3.616   5.255   6.659 -3.3710  0.8596  0.5754
 7836SOL    HW225277   3.676   5.393   6.641  0.1378 -0.7074 -0.4121
 7837SOL     OW25278   0.622   6.934   8.249 -0.3331 -0.1473  0.3062
 7837SOL    HW125279   0.560   6.864   8.270  0.4762 -0.3569  2.2828
 7837SOL    HW225280   0.634   6.981   8.332  0.6499  1.0973 -0.4996
 7838SOL     OW25281   2.596   6.670   3.944 -0.9445  0.2299 -0.1560
 7838SOL    HW125282   2.524   6.620   3.984 -2.0345  1.2479 -0.7512
 7838SOL    HW225283   2.552   6.730   3.883  0.3833  1.1937 -0.2163
 7839SOL     OW25284   5.875   8.178   4.426 -0.2823  0.4636 -0.0121
 7839SOL    HW125285   5.920   8.221   4.353  0.0254 -0.7022 -0.5326
 7839SOL    HW225286   5.943   8.125   4.467 -0.7867  0.0233  0.2548
 7840SOL     OW25287   8.687   0.856   8.367 -0.2114  0.4224 -0.0388
 7840SOL    HW125288   8.639   0.902   8.436 -0.4077  1.1035 -0.6277
 7840SOL    HW225289   8.778   0.856   8.397 -0.3578  0.3436  0.4149
 7841SOL     OW25290   1.808   7.055   6.385  0.4332 -0.0241  0.3574
 7841SOL    HW125291   1.842   6.988   6.326 -1.0526 -0.4480 -0.0691
 7841SOL    HW225292   1.715   7.062   6.362  0.5380  2.1584  0.4262
 7842SOL     OW25293   5.233   3.163   0.473  0.2617 -0.1508 -0.3692
 7842SOL    HW125294   5.183   3.240   0.500 -2.1152 -1.0917 -1.7631
 7842SOL    HW225295   5.221   3.158   0.378 -1.1512 -3.1349 -0.1556
 7843SOL     OW25296   1.473   5.814   2.153 -0.1603  0.3899 -0.0190
 7843SOL    HW125297   1.454   5.721   2.140  1.1786 -0.1193  1.4481
 7843SOL    HW225298   1.387   5.856   2.148 -0.6048 -0.5831 -2.9068
 7844SOL     OW25299   2.269   5.615   5.693  0.5711 -0.7312 -0.3896
 7844SOL    HW125300   2.350   5.666   5.694  0.8905 -1.2482  0.6552
 7844SOL    HW225301   2.202   5.675   5.726  0.7753 -0.7132 -0.0119
 7845SOL     OW25302   2.722   3.705   9.568 -0.2852 -0.6217  0.2725
 7845SOL    HW125303   2.693   3.620   9.534  2.0262 -1.4859  0.2531
 7845SOL    HW225304   2.784   3.737   9.503 -0.6729  0.8394  0.5831
 7846SOL     OW25305   1.932   3.011   1.714  0.2359 -0.2539 -0.4035
 7846SOL    HW125306   1.844   3.043   1.696 -0.4795 -1.8701  0.0421
 7846SOL    HW225307   1.955   3.048   1.799 -0.1481 -0.0842 -0.3751
 7847SOL     OW25308   0.016   1.726   7.249  0.5166 -0.0249  0.1847
 7847SOL    HW125309   0.097   1.683   7.219  0.9605  1.5977 -1.0658
 7847SOL    HW225310  -0.045   1.714   7.177 -0.0361 -0.3413  0.7006
 7848SOL     OW25311   7.588   4.305   9.071  0.2976  0.4627 -0.2607
 7848SOL    HW125312   7.654   4.244   9.105  0.8038  1.1201 -0.0368
 7848SOL    HW225313   7.607   4.313   8.978  1.6877  2.0045  0.1031
 7849SOL     OW25314   6.649   0.929   6.646 -0.2919  0.0351  0.3069
 7849SOL    HW125315   6.602   0.944   6.728 -1.3283 -1.0790 -0.0492
 7849SOL    HW225316   6.686   1.014   6.623 -1.7710  0.8485  0.8460
 7850SOL     OW25317   9.812   6.458   9.727  0.0028  0.0504  0.2569
 7850SOL    HW125318   9.846   6.445   9.638  0.3746  0.5852  0.3119
 7850SOL    HW225319   9.729   6.504   9.715 -0.5013 -0.8708  0.1391
 7851SOL     OW25320   4.200   3.672   9.798 -0.3215 -0.2174 -0.1444
 7851SOL    HW125321   4.134   3.718   9.851 -0.6910 -0.9624  0.0586
 7851SOL    HW225322   4.214   3.729   9.723  0.8847  1.3214  1.1715
 7852SOL     OW25323   1.349   8.933   8.506 -0.4692  0.6318 -0.4532
 7852SOL    HW125324   1.428   8.967   8.547  0.4547 -0.8743 -0.8949
 7852SOL    HW225325   1.332   8.994   8.434  0.0952  1.1615 -0.1499
 7853SOL     OW25326   4.118   5.961   7.069 -0.0535  0.8006 -0.2716
 7853SOL    HW125327   4.075   5.914   6.997 -1.5879 -0.5467  1.4164
 7853SOL    HW225328   4.211   5.953   7.051 -0.1491 -3.3506  0.0616
 7854SOL     OW25329   0.339   2.856   9.116  0.2199 -0.1495 -0.4437
 7854SOL    HW125330   0.257   2.899   9.090  0.3470 -0.0282 -0.6514
 7854SOL    HW225331   0.316   2.805   9.193  0.0509  0.2485 -0.2267
 7855SOL     OW25332   0.326   9.081   7.425  0.0470 -0.2675 -0.1633
 7855SOL    HW125333   0.266   9.145   7.462  0.7189 -1.0331  2.4883
 7855SOL    HW225334   0.272   9.003   7.409  0.0672 -0.5171  0.9473
 7856SOL     OW25335   2.372   1.616   9.684  0.1149  0.1253  0.2500
 7856SOL    HW125336   2.299   1.554   9.679  0.6472 -0.4529 -1.0774
 7856SOL    HW225337   2.430   1.579   9.750  0.7686 -1.2326 -1.0234
 7857SOL     OW25338   8.783   4.385   5.026  0.3808  0.5814  0.2300
 7857SOL    HW125339   8.730   4.398   5.105 -2.5726 -4.0044 -0.5757
 7857SOL    HW225340   8.729   4.421   4.956  0.3626 -0.2505 -0.1901
 7858SOL     OW25341   1.914   5.424   0.263 -0.5029  0.0599  0.1027
 7858SOL    HW125342   1.964   5.367   0.322  2.8016  1.4090 -1.1430
 7858SOL    HW225343   1.924   5.384   0.177  0.9947  1.8661 -0.6214
 7859SOL     OW25344   1.277   9.204   5.165  0.1258  0.6551 -0.2015
 7859SOL    HW125345   1.285   9.297   5.141 -0.0790  0.8221  0.3678
 7859SOL    HW225346   1.279   9.203   5.260  2.3534 -0.1456 -0.2137
 7860SOL     OW25347   2.745   5.449   7.543  0.2995  0.5123 -0.1369
 7860SOL    HW125348   2.757   5.440   7.448  2.6766 -0.5704  0.1891
 7860SOL    HW225349   2.707   5.366   7.570 -0.1259  0.7199 -0.0833
 7861SOL     OW25350   7.357   3.783   9.180 -0.3261  0.2930 -0.0698
 7861SOL    HW125351   7.323   3.715   9.122  0.0006 -1.1305  1.3255
 7861SOL    HW225352   7.375   3.737   9.263  1.1750  1.8090  0.5074
 7862SOL     OW25353   9.532   0.132   5.487 -0.1767  0.0466 -0.0501
 7862SOL    HW125354   9.520   0.214   5.534  0.5244  0.3493 -0.3965
 7862SOL    HW225355   9.444   0.110   5.454 -0.4093  0.5250  0.2397
 7863SOL     OW25356   4.428   3.863   5.032 -0.0924  0.0426 -0.2368
 7863SOL    HW125357   4.433   3.957   5.050  1.6453 -0.1196  0.3162
 7863SOL    HW225358   4.497   3.847   4.968 -0.2435 -0.8875 -0.1849
 7864SOL     OW25359   8.727   6.811   9.007 -0.7322  0.2060 -0.7767
 7864SOL    HW125360   8.650   6.837   9.057 -0.8054  0.1811 -0.8765
 7864SOL    HW225361   8.801   6.849   9.055 -0.7532 -0.3096 -0.3217
 7865SOL     OW25362   5.538   4.519   2.326  0.0493  0.0115  0.2140
 7865SOL    HW125363   5.570   4.519   2.416 -0.6666 -1.1777  0.4831
 7865SOL    HW225364   5.461   4.462   2.327 -0.9716  1.3005 -0.8150
 7866SOL     OW25365   7.042   2.627   0.407 -0.1719  0.5268  0.4618
 7866SOL    HW125366   7.045   2.532   0.400 -1.5860  0.5953 -2.3735
 7866SOL    HW225367   6.967   2.644   0.464 -1.2846 -0.0974 -0.7564
 7867SOL     OW25368   5.229   2.502   5.046  0.2601  0.6853  0.1982
 7867SOL    HW125369   5.174   2.552   5.106  1.1050  0.1505  1.4586
 7867SOL    HW225370   5.268   2.568   4.988 -0.7747  1.1849  0.0510
 7868SOL     OW25371   4.706   7.331   9.801  0.4171  0.0353 -0.4250
 7868SOL    HW125372   4.631   7.387   9.783  0.9696  1.8158  2.1986
 7868SOL    HW225373   4.669   7.250   9.834 -0.3949  0.5624 -0.0163
 7869SOL     OW25374   5.277   7.652   9.040 -0.0277  0.2900 -0.0493
 7869SOL    HW125375   5.197   7.675   8.993 -0.5098 -2.1183 -0.5495
 7869SOL    HW225376   5.250   7.646   9.132 -0.1488  0.6155 -0.0624
 7870SOL     OW25377   8.466   9.728   8.952  0.0815  0.8353  0.0937
 7870SOL    HW125378   8.551   9.744   8.911 -0.5269 -0.8924 -2.0379
 7870SOL    HW225379   8.477   9.646   8.999 -1.0238 -0.9599 -2.5225
 7871SOL     OW25380   0.354   0.878   3.865  0.3276  0.2372  0.6603
 7871SOL    HW125381   0.269   0.914   3.891  0.4137  1.1946 -0.3380
 7871SOL    HW225382   0.334   0.793   3.826 -0.0618  0.0071  1.3495
 7872SOL     OW25383   0.670   6.251   2.552 -0.2790  0.0164 -0.4388
 7872SOL    HW125384   0.591   6.297   2.580 -0.1025  0.9879 -1.4510
 7872SOL    HW225385   0.644   6.159   2.550 -1.2587  0.2747 -0.3385
 7873SOL     OW25386   6.657   6.122   9.300 -0.3238 -0.0513  0.2812
 7873SOL    HW125387   6.664   6.049   9.362  2.0381  0.1471  0.3325
 7873SOL    HW225388   6.671   6.200   9.353  0.7409  0.1864 -0.3257
 7874SOL     OW25389   0.515   1.105   8.092  0.0275 -0.2102 -0.3209
 7874SOL    HW125390   0.448   1.101   8.160  0.0210 -0.4816 -0.3427
 7874SOL    HW225391   0.536   1.013   8.073  1.0083 -0.1264  0.2902
 7875SOL     OW25392   7.303   7.352   5.681  0.2194 -0.4524 -0.1107
 7875SOL    HW125393   7.294   7.265   5.642 -0.2563 -0.2501 -0.4646
 7875SOL    HW225394   7.213   7.383   5.690  0.3370 -0.3497  0.8286
 7876SOL     OW25395   9.306   4.319   4.659 -0.4747 -0.3218 -0.8671
 7876SOL    HW125396   9.270   4.299   4.745 -0.5768 -0.3018 -0.9051
 7876SOL    HW225397   9.344   4.406   4.668  1.6288 -1.2439 -0.1724
 7877SOL     OW25398   7.160   7.229   2.401  0.3985 -0.0395  0.0641
 7877SOL    HW125399   7.195   7.193   2.482 -1.1902  0.4635  1.0069
 7877SOL    HW225400   7.157   7.155   2.341  0.2324 -0.7487  0.9272
 7878SOL     OW25401   4.741   5.299   5.296 -0.1139  0.0495 -0.0596
 7878SOL    HW125402   4.760   5.283   5.204  1.1251 -1.2423  0.3878
 7878SOL    HW225403   4.709   5.214   5.328  3.8824 -1.0230  1.7265
 7879SOL     OW25404   7.925   1.228   6.554  0.4658  0.2108  0.3153
 7879SOL    HW125405   7.964   1.190   6.633  3.0132  0.4592 -0.7273
 7879SOL    HW225406   7.998   1.271   6.509 -1.2975  1.8979 -1.1574
 7880SOL     OW25407   7.055   9.511   4.740  0.3510 -0.4774 -0.0247
 7880SOL    HW125408   7.116   9.580   4.714  1.1791  0.0962  3.1305
 7880SOL    HW225409   6.978   9.525   4.684  1.0085  2.1730 -0.3736
 7881SOL     OW25410   1.045   0.620   9.219  0.1212 -0.2133 -0.3008
 7881SOL    HW125411   1.128   0.647   9.180 -0.2099  1.3424  0.0039
 7881SOL    HW225412   1.043   0.525   9.208  1.4621 -0.1603 -1.2363
 7882SOL     OW25413   5.218   0.043   6.887  0.1563 -0.2035 -0.3871
 7882SOL    HW125414   5.255   0.127   6.860  1.2844 -0.3699  0.5665
 7882SOL    HW225415   5.167   0.014   6.811  2.9935 -0.5607 -2.3061
 7883SOL     OW25416   0.588   5.144   2.015  0.0726 -0.1206  0.5127
 7883SOL    HW125417   0.549   5.167   1.931  0.2108 -1.4228  0.0742
 7883SOL    HW225418   0.646   5.070   1.996  0.2477 -0.3210  1.7203
 7884SOL     OW25419   0.435   8.689   2.282 -0.0028  0.9669  0.0567
 7884SOL    HW125420   0.360   8.647   2.240  1.3026 -0.5853 -0.8317
 7884SOL    HW225421   0.459   8.760   2.222 -0.2210  0.9325 -0.0744
 7885SOL     OW25422   0.448   7.404   5.317  0.7618  0.3206  0.0189
 7885SOL    HW125423   0.455   7.316   5.279 -0.9683 -0.3508  1.1479
 7885SOL    HW225424   0.504   7.458   5.262  3.8467 -1.9093  0.6809
 7886SOL     OW25425   9.631   5.288   5.228 -0.7002 -0.5710  0.3254
 7886SOL    HW125426   9.621   5.245   5.313 -1.1704 -0.1793  0.4690
 7886SOL    HW225427   9.632   5.381   5.247  2.4697 -0.4811  0.2507
 7887SOL     OW25428   1.895   5.245   0.566  0.2981  0.1730 -0.4186
 7887SOL    HW125429   1.940   5.228   0.483 -0.8475  0.5913 -1.1609
 7887SOL    HW225430   1.830   5.175   0.573  1.2274 -0.6142  0.7974
 7888SOL     OW25431   3.489   1.429   3.102 -0.1530  0.1583 -0.2190
 7888SOL    HW125432   3.527   1.342   3.115  0.1257 -0.0064 -1.8423
 7888SOL    HW225433   3.497   1.472   3.186  1.4772 -0.7201  0.1145
 7889SOL     OW25434   6.401   6.492   8.725 -0.0341 -0.1318  0.1512
 7889SOL    HW125435   6.466   6.540   8.672 -0.9858  0.4745 -0.4992
 7889SOL    HW225436   6.319   6.540   8.711 -1.4454 -2.8406 -1.8422
 7890SOL     OW25437   8.485   6.441   2.410  0.1738  0.0237 -0.0019
 7890SOL    HW125438   8.554   6.375   2.399 -1.3305 -1.9195  1.3931
 7890SOL    HW225439   8.450   6.454   2.322  0.0622 -1.6203 -0.2384
 7891SOL     OW25440   1.752   3.442   6.814 -0.2490  1.1718  0.1653
 7891SOL    HW125441   1.815   3.513   6.814  1.7433 -0.4972 -1.1628
 7891SOL    HW225442   1.735   3.425   6.907 -1.6199  3.9544  0.5405
 7892SOL     OW25443   9.052   0.056   1.725 -0.3317  0.3608  0.2191
 7892SOL    HW125444   9.127   0.114   1.717  1.1909 -1.6049 -0.4560
 7892SOL    HW225445   9.021   0.044   1.635 -2.5734  2.4072  0.5969
 7893SOL     OW25446   8.699   5.364   1.322  0.1639  0.1756 -0.7114
 7893SOL    HW125447   8.663   5.439   1.368  0.1304  0.5435 -1.3308
 7893SOL    HW225448   8.784   5.393   1.290  1.4976 -0.9669  1.5081
 7894SOL     OW25449   8.608   9.539   1.155  0.1621 -0.1159 -0.2835
 7894SOL    HW125450   8.644   9.577   1.075  0.6978  0.6194  0.2977
 7894SOL    HW225451   8.676   9.478   1.184 -0.1212 -0.5365 -0.4945
 7895SOL     OW25452   2.696   2.530   0.082 -0.1695 -0.0372  0.2159
 7895SOL    HW125453   2.605   2.546   0.105 -0.4830 -1.2074 -0.1269
 7895SOL    HW225454   2.697   2.439   0.053  1.4526 -0.6667  2.0225
 7896SOL     OW25455   8.579   7.889   7.894  0.1383 -0.4868  0.4427
 7896SOL    HW125456   8.621   7.948   7.956 -0.6598 -0.7840  1.2805
 7896SOL    HW225457   8.601   7.801   7.925  0.1888 -0.6389 -0.0102
 7897SOL     OW25458   3.227   6.303   8.371 -0.0086  0.9416  0.0433
 7897SOL    HW125459   3.292   6.344   8.429  0.8179  0.4054 -0.4899
 7897SOL    HW225460   3.187   6.377   8.325 -1.0582  1.4335  1.6428
 7898SOL     OW25461   3.264   7.457   6.444  0.3760  0.4100 -0.4145
 7898SOL    HW125462   3.217   7.518   6.500  1.8355  1.3391 -0.1391
 7898SOL    HW225463   3.227   7.472   6.357 -0.9939 -0.1092  0.0483
 7899SOL     OW25464   1.475   0.970   7.794  0.2626 -0.6958 -0.4859
 7899SOL    HW125465   1.439   0.886   7.766 -0.9023 -0.6385  0.7176
 7899SOL    HW225466   1.566   0.951   7.817 -0.3059 -1.9158  0.8770
 7900SOL     OW25467   3.223   6.435   2.551  0.0500  0.0782 -0.0229
 7900SOL    HW125468   3.135   6.471   2.543  0.1576  0.2432 -0.4656
 7900SOL    HW225469   3.211   6.356   2.604 -0.6075 -0.7808 -1.3964
 7901SOL     OW25470   9.399   4.462   7.030 -0.2483 -0.3993 -0.0835
 7901SOL    HW125471   9.350   4.434   7.108  1.4335  2.8357  2.3664
 7901SOL    HW225472   9.491   4.453   7.055  0.3372  2.0367 -1.1077
 7902SOL     OW25473   1.455   3.026   2.303  0.2055  0.4509 -0.1035
 7902SOL    HW125474   1.494   2.968   2.238  1.0487  0.2483  0.5751
 7902SOL    HW225475   1.519   3.031   2.374 -1.1542 -0.2064  1.2309
 7903SOL     OW25476   1.077   6.362   7.626  0.0983 -0.2464 -0.4803
 7903SOL    HW125477   1.094   6.268   7.622  0.3376 -0.3589  1.9339
 7903SOL    HW225478   0.982   6.370   7.625  0.0789 -0.4924 -0.6745
 7904SOL     OW25479   3.861   2.966   7.601 -0.0354 -0.4676 -0.1055
 7904SOL    HW125480   3.770   2.995   7.609  0.1278 -0.1550  0.6718
 7904SOL    HW225481   3.905   3.002   7.678  0.3110 -2.2443  0.5661
 7905SOL     OW25482   0.243   1.431   1.178  0.4110 -0.2752  0.2229
 7905SOL    HW125483   0.217   1.436   1.086 -0.1887  0.2924  0.4147
 7905SOL    HW225484   0.313   1.496   1.186 -1.0947  1.3967  0.6493
 7906SOL     OW25485   8.867   2.014   7.544  0.2227  0.3555  0.0738
 7906SOL    HW125486   8.877   1.932   7.593  1.4482 -0.4179 -1.3932
 7906SOL    HW225487   8.951   2.059   7.555  0.2242  0.5371 -0.6505
 7907SOL     OW25488   0.909   6.401   6.455 -0.3818  0.5399 -0.0045
 7907SOL    HW125489   0.882   6.466   6.519 -1.7653  1.4712 -1.4308
 7907SOL    HW225490   0.851   6.417   6.380  1.1036 -0.5366 -1.4465
 7908SOL     OW25491   3.507   6.258   2.515  0.0190  0.7261  0.5976
 7908SOL    HW125492   3.478   6.312   2.442  1.5345  2.5441  1.2866
 7908SOL    HW225493   3.549   6.318   2.576  1.6316 -1.1868  1.5082
 7909SOL     OW25494   4.565   6.640   8.505 -0.2168 -0.1890 -0.2039
 7909SOL    HW125495   4.532   6.563   8.458 -1.3722 -0.1779  0.5494
 7909SOL    HW225496   4.647   6.662   8.461 -1.1818 -0.2603 -2.1395
 7910SOL     OW25497   9.577   5.731   9.537  0.2514  0.0511  0.4848
 7910SOL    HW125498   9.505   5.668   9.530  0.7733 -0.4854 -0.1113
 7910SOL    HW225499   9.533   5.816   9.547 -0.4608 -0.3534  0.9013
 7911SOL     OW25500   3.425   0.401   9.063 -0.4838 -0.2894  0.2096
 7911SOL    HW125501   3.346   0.390   9.115 -0.4387  0.0141  0.3487
 7911SOL    HW225502   3.492   0.425   9.126 -0.0306 -1.5571  0.2312
 7912SOL     OW25503   4.439   1.134   1.069  0.4969  0.1478 -0.1768
 7912SOL    HW125504   4.494   1.171   0.999  1.2542 -1.7398 -0.6285
 7912SOL    HW225505   4.405   1.053   1.033 -0.2930 -0.1334  1.1457
 7913SOL     OW25506   8.521   0.122   8.418 -0.0970  0.1563 -0.4971
 7913SOL    HW125507   8.485   0.115   8.330 -0.6705  0.6692 -0.3015
 7913SOL    HW225508   8.609   0.158   8.405 -0.3101  0.5574 -0.8302
 7914SOL     OW25509   8.969   1.058   7.506 -0.2637  0.3121  0.3239
 7914SOL    HW125510   8.919   1.069   7.424  0.8976  1.8041 -0.2451
 7914SOL    HW225511   9.048   1.011   7.479  0.5116  1.5285  0.3825
 7915SOL     OW25512   4.113   5.903   2.606 -0.0767 -0.0208  0.5094
 7915SOL    HW125513   4.168   5.830   2.633 -1.3139 -0.3787  2.1904
 7915SOL    HW225514   4.098   5.953   2.686 -1.4662  0.5548 -0.0815
 7916SOL     OW25515   0.443   2.937   7.801  0.5268 -0.2235 -0.3773
 7916SOL    HW125516   0.445   2.851   7.843 -0.4016  0.7717  1.8542
 7916SOL    HW225517   0.500   2.991   7.855  0.5096  0.7539 -1.3082
 7917SOL     OW25518   9.569   2.557   7.105 -0.3924  0.3868  0.4523
 7917SOL    HW125519   9.480   2.593   7.101 -0.3303  0.7161  1.4967
 7917SOL    HW225520   9.573   2.515   7.191  1.0012  1.8938  1.1782
 7918SOL     OW25521   1.100   8.872   5.757  0.1374 -0.4172 -0.6752
 7918SOL    HW125522   1.153   8.797   5.785 -0.0680 -0.0115  0.8712
 7918SOL    HW225523   1.078   8.917   5.838 -0.3543  0.9184 -1.5271
 7919SOL     OW25524   6.903   1.028   0.217  0.3604  0.0746 -0.1925
 7919SOL    HW125525   6.984   1.045   0.169 -0.2322 -0.5696 -1.4840
 7919SOL    HW225526   6.835   1.067   0.162 -0.2958 -0.1781  0.4266
 7920SOL     OW25527   3.874   8.323   2.696 -0.0273  0.0250 -0.2746
 7920SOL    HW125528   3.815   8.370   2.637 -1.0489 -0.9673 -0.0738
 7920SOL    HW225529   3.942   8.387   2.718  0.2941  0.4943 -2.3658
 7921SOL     OW25530   3.468   8.268   2.996  0.2559  0.4256 -0.5623
 7921SOL    HW125531   3.380   8.233   3.008  0.6946 -0.6529 -0.3117
 7921SOL    HW225532   3.482   8.326   3.070  0.1918 -0.3558  0.0772
 7922SOL     OW25533   8.662   8.586   0.036 -0.1138 -0.0266 -0.3420
 7922SOL    HW125534   8.604   8.523   0.079 -1.0784  1.2158  0.2448
 7922SOL    HW225535   8.749   8.549   0.047 -0.1678  0.5964  3.5317
 7923SOL     OW25536   3.294   7.556   2.026 -0.4060 -0.3988 -0.2212
 7923SOL    HW125537   3.224   7.490   2.029 -0.6312 -0.1248  0.9503
 7923SOL    HW225538   3.265   7.617   1.959 -1.6728  0.0981  0.7385
 7924SOL     OW25539   6.680   1.778   4.591 -0.4355 -0.3376  0.1476
 7924SOL    HW125540   6.678   1.706   4.654 -2.2549 -2.9674 -2.5939
 7924SOL    HW225541   6.732   1.743   4.517  2.2555  2.8582  0.2961
 7925SOL     OW25542   5.307   8.825   8.333 -0.4695  0.3188 -0.3075
 7925SOL    HW125543   5.381   8.765   8.320  0.0717  0.9451 -0.1893
 7925SOL    HW225544   5.284   8.815   8.425 -0.2560  0.4224 -0.2409
 7926SOL     OW25545   0.331   0.061   2.715  0.4289 -0.1383 -0.2346
 7926SOL    HW125546   0.393   0.133   2.725  0.0298 -0.0597  3.1078
 7926SOL    HW225547   0.385  -0.015   2.694  1.3157  0.4606 -0.1919
 7927SOL     OW25548   1.042   8.148   6.634 -0.2650  0.5637 -0.0555
 7927SOL    HW125549   1.110   8.134   6.569 -1.7174  2.6294 -2.1846
 7927SOL    HW225550   1.063   8.086   6.705  2.3916 -0.5331 -1.6558
 7928SOL     OW25551   4.585   1.502   7.424  0.1521 -0.5122 -0.1266
 7928SOL    HW125552   4.535   1.500   7.343  0.1860  0.0717 -0.1705
 7928SOL    HW225553   4.545   1.573   7.475 -1.7577 -2.6787  1.6100
 7929SOL     OW25554   5.343   0.656   1.477  0.0832 -0.2444 -0.7347
 7929SOL    HW125555   5.317   0.570   1.510  1.4552  0.3414  2.2525
 7929SOL    HW225556   5.285   0.717   1.521  1.7693  0.5621  0.5139
 7930SOL     OW25557   0.028   6.324   5.456  0.4598 -0.3188  0.3302
 7930SOL    HW125558  -0.034   6.388   5.490  0.4123  0.4563 -1.1177
 7930SOL    HW225559   0.056   6.274   5.533 -1.3349 -0.1659  1.1312
 7931SOL     OW25560   5.054   1.052   8.388 -0.0062  0.2346 -0.5958
 7931SOL    HW125561   4.998   1.023   8.459 -1.9663  1.7389 -1.4153
 7931SOL    HW225562   5.122   1.104   8.430  0.6245 -1.3415  0.3964
 7932SOL     OW25563   3.102   7.226   8.970  0.2572 -0.1065  0.4438
 7932SOL    HW125564   3.089   7.134   8.948  0.9144 -0.2876  0.7870
 7932SOL    HW225565   3.166   7.257   8.906 -1.6981  0.7695 -1.2230
 7933SOL     OW25566   5.185   8.137   5.862 -0.4250 -0.4648 -0.4434
 7933SOL    HW125567   5.198   8.160   5.770 -0.2091  1.8349  0.0975
 7933SOL    HW225568   5.272   8.149   5.902 -1.1835  1.8515  0.6489
 7934SOL     OW25569   9.685   2.976   1.248 -0.2563  0.4757  1.1717
 7934SOL    HW125570   9.775   2.962   1.218 -0.4110  0.9261  0.4515
 7934SOL    HW225571   9.694   3.018   1.333  0.2364  1.4216  0.6710
 7935SOL     OW25572   4.587   0.587   5.028 -1.0524  0.1201  0.4098
 7935SOL    HW125573   4.496   0.556   5.027 -1.8241  2.1682  0.5507
 7935SOL    HW225574   4.592   0.642   5.107 -0.1674  1.2557 -0.4038
 7936SOL     OW25575   2.641   7.444   2.933 -0.1300 -0.4158  0.5643
 7936SOL    HW125576   2.573   7.512   2.941 -0.4046 -0.8160  1.6920
 7936SOL    HW225577   2.723   7.493   2.934 -0.2976 -0.1271  2.0465
 7937SOL     OW25578   1.202   8.405   8.138 -0.5000  0.1543  0.5461
 7937SOL    HW125579   1.217   8.312   8.121  1.7651  0.4275  0.7542
 7937SOL    HW225580   1.195   8.412   8.233 -1.2261  0.1494  0.5010
 7938SOL     OW25581   8.214   7.875   3.973  0.2070  0.2790 -0.3275
 7938SOL    HW125582   8.152   7.856   4.043  0.5154  0.4840  0.0056
 7938SOL    HW225583   8.225   7.791   3.928 -2.0939  0.7162 -1.8809
 7939SOL     OW25584   1.931   5.627   7.290  0.3917 -0.1294  0.6465
 7939SOL    HW125585   1.863   5.688   7.319  1.8433  3.4735 -2.5621
 7939SOL    HW225586   2.012   5.660   7.329  1.2046 -0.0315 -1.0329
 7940SOL     OW25587   2.609   2.690   3.836  0.1281 -0.0211 -0.0937
 7940SOL    HW125588   2.631   2.703   3.928  1.4714 -0.1636 -0.3622
 7940SOL    HW225589   2.598   2.595   3.827  0.2994 -0.0379 -0.1345
 7941SOL     OW25590   0.959   3.945   9.780  0.0721 -0.1128  0.6123
 7941SOL    HW125591   0.944   4.038   9.800 -3.4457 -0.6041  1.0309
 7941SOL    HW225592   0.972   3.904   9.866  2.6694  0.0294  0.3630
 7942SOL     OW25593   8.490   9.803   2.866 -0.0486  0.1938 -0.0529
 7942SOL    HW125594   8.576   9.820   2.904 -0.0685 -0.1205  0.1380
 7942SOL    HW225595   8.440   9.882   2.883 -0.2572 -0.1737  1.1410
 7943SOL     OW25596   7.539   0.336   5.589  0.3183  1.1647 -0.3955
 7943SOL    HW125597   7.499   0.255   5.557  2.3095  0.0365 -0.1856
 7943SOL    HW225598   7.553   0.388   5.510 -0.3990  1.0562 -0.6074
 7944SOL     OW25599   4.704   8.344   1.907 -0.0735 -0.0094 -0.0156
 7944SOL    HW125600   4.697   8.363   1.814 -0.6853  0.3263  0.0961
 7944SOL    HW225601   4.744   8.257   1.910 -3.5074 -1.7539 -0.7094
 7945SOL     OW25602   0.633   3.221   3.999 -0.0635 -0.1733  0.2509
 7945SOL    HW125603   0.616   3.161   4.072  0.4299 -1.6373 -0.7896
 7945SOL    HW225604   0.558   3.280   3.998 -1.8817 -2.3322 -0.1815
 7946SOL     OW25605   6.278   8.645   3.715 -0.6930  0.0590  0.1177
 7946SOL    HW125606   6.247   8.686   3.796 -1.3108 -0.7683  0.3135
 7946SOL    HW225607   6.361   8.605   3.738 -0.2300  0.9273  0.0008
 7947SOL     OW25608   3.009   9.506   2.335  0.0914  0.4749  0.2880
 7947SOL    HW125609   2.963   9.484   2.416  0.2012  0.5943  0.3822
 7947SOL    HW225610   2.954   9.469   2.266  1.2478 -1.8277  0.5183
 7948SOL     OW25611   6.657   5.575   9.399 -0.0726 -0.1962  0.3124
 7948SOL    HW125612   6.646   5.538   9.311  0.0697  0.2459  0.1101
 7948SOL    HW225613   6.597   5.523   9.453  0.1469 -0.7526  0.0362
 7949SOL     OW25614   7.896   2.811   3.388  0.0630  0.5044 -0.8762
 7949SOL    HW125615   7.865   2.777   3.472  1.1873  0.0020 -0.6449
 7949SOL    HW225616   7.821   2.803   3.329 -0.3806 -0.2519 -0.2243
 7950SOL     OW25617   6.134   2.391   7.558 -0.2330 -0.0017 -0.0332
 7950SOL    HW125618   6.064   2.403   7.495 -1.2287  0.1079  1.0715
 7950SOL    HW225619   6.118   2.455   7.626  0.3439 -0.6638  0.7577
 7951SOL     OW25620   0.177   2.120   3.224  0.7299  0.0904  0.2080
 7951SOL    HW125621   0.111   2.118   3.154 -0.0751 -0.5670  0.9449
 7951SOL    HW225622   0.178   2.030   3.257 -1.0932  0.9500  2.9701
 7952SOL     OW25623   8.742   2.398   4.017 -0.0242  0.5264 -0.2981
 7952SOL    HW125624   8.697   2.377   3.935  0.3169 -2.1279  0.1032
 7952SOL    HW225625   8.729   2.320   4.072  1.0764  1.6036  1.5851
 7953SOL     OW25626   0.389   4.861   8.889  0.1682  0.5973 -0.3364
 7953SOL    HW125627   0.475   4.835   8.923  0.7865 -0.5986 -2.5921
 7953SOL    HW225628   0.328   4.837   8.959  1.3665 -1.4314  0.1060
 7954SOL     OW25629   7.296   5.161   1.791  0.4706 -0.9841  0.6797
 7954SOL    HW125630   7.278   5.252   1.814 -4.0299 -1.8499  1.4708
 7954SOL    HW225631   7.322   5.165   1.699 -2.9450  0.9961 -0.3837
 7955SOL     OW25632   0.935   8.861   6.608 -0.3448 -0.1472 -0.2953
 7955SOL    HW125633   1.016   8.902   6.639 -0.6955 -0.7203  1.4993
 7955SOL    HW225634   0.911   8.911   6.530  0.8219  1.1237  0.1233
 7956SOL     OW25635   9.616   0.071   0.320 -0.3289  0.5375 -0.0775
 7956SOL    HW125636   9.687   0.019   0.283  0.5203  1.4156  0.2775
 7956SOL    HW225637   9.626   0.158   0.281 -0.5949  0.9467  0.7388
 7957SOL     OW25638   3.417   0.649   2.925  0.0266  0.1055 -0.2723
 7957SOL    HW125639   3.325   0.670   2.906 -0.1978 -0.1457  0.4699
 7957SOL    HW225640   3.444   0.717   2.987  0.0043 -0.4368  0.3416
 7958SOL     OW25641   7.409   7.371   5.436  0.1059  0.2350  0.8256
 7958SOL    HW125642   7.371   7.396   5.520  0.7923  0.4183  1.0859
 7958SOL    HW225643   7.445   7.283   5.451  1.5335  0.8662  1.1481
 7959SOL     OW25644   1.232   9.460   3.008 -0.4373  0.3244 -0.4397
 7959SOL    HW125645   1.290   9.486   2.937  1.2926 -1.2672  0.3125
 7959SOL    HW225646   1.170   9.400   2.968  1.1455 -1.3637 -0.5028
 7960SOL     OW25647   5.262   6.878   3.338 -0.1127 -0.0777 -0.2991
 7960SOL    HW125648   5.296   6.914   3.256 -0.7740 -0.8161 -0.9222
 7960SOL    HW225649   5.273   6.948   3.402 -0.8861  1.0553 -1.3534
 7961SOL     OW25650   0.724   0.538   0.322 -0.2738  0.0594 -0.0582
 7961SOL    HW125651   0.789   0.468   0.327  0.2048  0.5686  1.1188
 7961SOL    HW225652   0.640   0.491   0.321  0.0809 -0.6073 -1.8951
 7962SOL     OW25653   8.442   3.380   2.900 -0.7120  0.0815 -0.0736
 7962SOL    HW125654   8.445   3.334   2.984  0.3892  1.6209  0.8034
 7962SOL    HW225655   8.369   3.341   2.853 -1.5417 -0.6276  1.7271
 7963SOL     OW25656   1.013   0.927   5.257  0.3240 -0.1499  0.3047
 7963SOL    HW125657   1.001   0.886   5.171  0.4058  1.5310 -0.5445
 7963SOL    HW225658   1.091   0.884   5.293  1.8710  0.8950 -1.6031
 7964SOL     OW25659   6.590   8.339   1.817  0.0409 -0.2792  0.5954
 7964SOL    HW125660   6.563   8.430   1.828  0.6928 -0.0410  0.2647
 7964SOL    HW225661   6.643   8.320   1.895  0.0449 -0.3251  0.5816
 7965SOL     OW25662   4.972   7.844   9.134 -0.2909  0.2563 -0.5675
 7965SOL    HW125663   5.050   7.828   9.187 -1.3469 -0.4457  0.8608
 7965SOL    HW225664   4.939   7.928   9.165 -1.1846 -0.3870  0.2601
 7966SOL     OW25665   3.249   0.312   6.389  0.0368  0.2371 -0.3434
 7966SOL    HW125666   3.270   0.230   6.345 -2.5871 -0.0784 -1.2009
 7966SOL    HW225667   3.172   0.291   6.443  1.7008  1.2082  2.6111
 7967SOL     OW25668   0.689   5.066   7.784  0.7463 -0.0682  0.0322
 7967SOL    HW125669   0.604   5.035   7.755  0.7354 -0.6063  0.6218
 7967SOL    HW225670   0.673   5.108   7.868  1.6046 -3.9199  2.3468
 7968SOL     OW25671   4.923   9.445   2.590  0.2186  0.0776  0.4218
 7968SOL    HW125672   4.993   9.477   2.647  0.3269 -0.0873  0.3819
 7968SOL    HW225673   4.891   9.523   2.545  0.7213  0.0768  0.0570
 7969SOL     OW25674   1.333   0.812   3.046 -0.1044  0.0717  0.1383
 7969SOL    HW125675   1.384   0.745   3.002 -0.8140  0.0386 -0.6599
 7969SOL    HW225676   1.279   0.764   3.109  1.0014  0.1324  1.1795
 7970SOL     OW25677   1.508   8.761   1.504 -0.0587 -0.1424  0.5395
 7970SOL    HW125678   1.434   8.720   1.549  1.1071 -0.7359  1.9918
 7970SOL    HW225679   1.534   8.832   1.561  0.5693 -0.0018  0.0832
 7971SOL     OW25680   3.182   2.665   5.118 -0.8907 -0.0079 -0.3727
 7971SOL    HW125681   3.272   2.693   5.098 -0.9064 -0.0322 -0.4779
 7971SOL    HW225682   3.147   2.636   5.034 -1.0077  0.0289 -0.3363
 7972SOL     OW25683   5.790   0.762   8.828 -0.0657 -0.6570 -0.6249
 7972SOL    HW125684   5.881   0.744   8.852 -0.6065 -1.6661  0.7941
 7972SOL    HW225685   5.785   0.858   8.822  1.0649 -0.5891 -0.6571
 7973SOL     OW25686   8.065   7.368   7.583  0.5341  0.2404 -0.2554
 7973SOL    HW125687   8.009   7.435   7.545  0.4278 -0.1756 -0.8490
 7973SOL    HW225688   8.005   7.314   7.635  0.5103  0.2412 -0.2819
 7974SOL     OW25689   7.089   5.806   8.879  0.1373  0.9683  0.1929
 7974SOL    HW125690   7.061   5.894   8.854  0.9196  0.9345 -0.8978
 7974SOL    HW225691   7.171   5.793   8.831 -1.7693 -1.7516 -2.6906
 7975SOL     OW25692   9.396   3.294   4.901 -0.2344  0.4266  0.2223
 7975SOL    HW125693   9.309   3.270   4.869 -0.4081  0.3768  0.7184
 7975SOL    HW225694   9.451   3.218   4.881 -0.3225  0.4290 -0.0293
 7976SOL     OW25695   8.327   2.907   5.615  0.4012 -0.7815 -0.2036
 7976SOL    HW125696   8.377   2.915   5.697 -0.5304  0.9888  0.2516
 7976SOL    HW225697   8.268   2.983   5.616  0.6237 -0.4950 -2.7028
 7977SOL     OW25698   1.721   1.495   0.026  0.2310 -0.0395 -0.1820
 7977SOL    HW125699   1.687   1.405   0.030 -0.4925  0.2267 -0.2468
 7977SOL    HW225700   1.666   1.538  -0.039  0.5617  0.4584 -0.1319
 7978SOL     OW25701   4.239   6.985   2.375  0.5390 -0.3406  0.1193
 7978SOL    HW125702   4.223   7.006   2.466 -0.4742 -1.0439  0.1208
 7978SOL    HW225703   4.271   6.895   2.376  0.6923 -0.2935 -0.2053
 7979SOL     OW25704   4.486   8.514   5.734  0.0903 -0.4138  0.1351
 7979SOL    HW125705   4.433   8.446   5.692 -0.2856  0.1533 -0.3088
 7979SOL    HW225706   4.423   8.574   5.772  0.3778  0.6623 -1.0147
 7980SOL     OW25707   4.004   5.455   7.996  0.5268  0.2366 -0.8047
 7980SOL    HW125708   3.952   5.382   8.029  0.3856  0.6390 -0.1271
 7980SOL    HW225709   3.940   5.513   7.955  0.5792  0.2032 -0.9336
 7981SOL     OW25710   5.476   4.504   4.876 -0.7506 -0.0479  0.2589
 7981SOL    HW125711   5.404   4.495   4.938  0.2724  2.2963  1.9071
 7981SOL    HW225712   5.531   4.427   4.892 -3.1979 -2.4198 -1.7026
 7982SOL     OW25713   3.499   2.754   1.025 -0.0119 -0.7681  0.4098
 7982SOL    HW125714   3.448   2.835   1.029  0.1464 -0.7061  2.0528
 7982SOL    HW225715   3.500   2.730   0.932  0.0541  1.1730 -0.1317
 7983SOL     OW25716   8.100   9.440   4.580 -0.2993  0.4353  0.3482
 7983SOL    HW125717   8.137   9.491   4.652  0.2104 -0.8434  1.0271
 7983SOL    HW225718   8.170   9.381   4.554 -0.5483  0.7414 -1.0826
 7984SOL     OW25719   9.223   4.732   3.948 -0.0107  0.3715 -0.0003
 7984SOL    HW125720   9.280   4.795   3.991 -0.6174  1.8655 -1.2712
 7984SOL    HW225721   9.216   4.764   3.858 -4.0330  1.1828  0.4129
 7985SOL     OW25722   6.925   6.013   2.909  0.2719 -0.1846 -0.1404
 7985SOL    HW125723   6.916   6.107   2.896 -0.5865 -0.3389 -0.7703
 7985SOL    HW225724   6.844   5.976   2.872  1.3249 -1.3033 -1.4258
 7986SOL     OW25725   7.449   8.978   5.361 -0.1616  0.3432 -0.2284
 7986SOL    HW125726   7.538   9.012   5.370  0.1162 -0.2126 -0.8024
 7986SOL    HW225727   7.394   9.042   5.406  0.4408  1.0921 -0.5353
 7987SOL     OW25728   3.873   2.740   8.283  0.1604  0.0822 -0.3553
 7987SOL    HW125729   3.891   2.833   8.300 -0.3783 -0.1356  1.7435
 7987SOL    HW225730   3.806   2.741   8.215  0.2520  1.2389 -0.4496
 7988SOL     OW25731   9.669   7.362   2.315 -0.1630 -0.5174 -0.1234
 7988SOL    HW125732   9.618   7.430   2.358 -0.9765 -1.8814  1.1796
 7988SOL    HW225733   9.760   7.386   2.330 -0.4331 -0.3137  1.3827
 7989SOL     OW25734   9.367   7.288   8.989 -0.7844 -0.3571  0.5875
 7989SOL    HW125735   9.450   7.242   8.980 -0.8874 -0.4564  0.1074
 7989SOL    HW225736   9.378   7.344   9.066 -0.8041 -1.4732  1.4197
 7990SOL     OW25737   3.246   8.330   2.681  0.4261 -0.5061 -0.2409
 7990SOL    HW125738   3.304   8.393   2.723  1.2516 -1.0256 -0.5842
 7990SOL    HW225739   3.282   8.319   2.593  0.7827 -2.0681  0.0766
 7991SOL     OW25740   6.566   1.422   8.876  0.5350  0.2696 -0.3153
 7991SOL    HW125741   6.547   1.343   8.927 -2.1372  0.5198 -0.7723
 7991SOL    HW225742   6.628   1.394   8.809  0.9642 -1.0027  0.5868
 7992SOL     OW25743   5.400   9.242   9.668 -0.2248  0.0844 -0.4210
 7992SOL    HW125744   5.392   9.323   9.618 -0.5931  0.4492  0.2250
 7992SOL    HW225745   5.313   9.226   9.702  0.1363  0.1269  0.5492
 7993SOL     OW25746   0.315   9.849   8.304 -0.1987 -0.0304 -0.2789
 7993SOL    HW125747   0.234   9.857   8.255  0.3992  0.6636 -1.1906
 7993SOL    HW225748   0.289   9.812   8.389 -1.3403 -0.6029 -0.8561
 7994SOL     OW25749   9.171   1.537   4.831 -0.1667  0.1613  0.0406
 7994SOL    HW125750   9.137   1.587   4.758 -0.1093  1.0530  0.6055
 7994SOL    HW225751   9.258   1.575   4.847 -0.3969  0.3378  0.9039
 7995SOL     OW25752   9.674   4.052   4.244 -0.2288  0.3722 -0.1157
 7995SOL    HW125753   9.601   4.030   4.302 -0.2250  1.8945  0.5030
 7995SOL    HW225754   9.663   3.992   4.169 -1.0710 -0.6282  0.7679
 7996SOL     OW25755   7.380   1.622   7.522 -0.0004  0.1358  0.0770
 7996SOL    HW125756   7.461   1.583   7.553  0.7428  0.8728 -0.8711
 7996SOL    HW225757   7.362   1.693   7.584 -0.4249 -0.5983  0.8094
 7997SOL     OW25758   7.067   1.902   1.360  0.0847  0.1491  0.6563
 7997SOL    HW125759   7.014   1.977   1.388 -1.8379 -0.8049 -0.2126
 7997SOL    HW225760   7.065   1.842   1.434  0.1977  0.2308  0.7264
 7998SOL     OW25761   3.324   1.569   8.914 -0.1744  0.4305 -0.0939
 7998SOL    HW125762   3.241   1.616   8.911 -1.4215 -1.6853 -2.6797
 7998SOL    HW225763   3.365   1.587   8.830  1.1278 -0.0455  0.4070
 7999SOL     OW25764   9.700   3.243   3.326 -0.0739 -0.2077 -0.3216
 7999SOL    HW125765   9.686   3.335   3.303  2.6593  0.6145  0.7762
 7999SOL    HW225766   9.739   3.247   3.414  1.0143 -2.3277 -0.6459
 8000SOL     OW25767   0.040   1.367   3.794  0.2693  0.0688  0.2103
 8000SOL    HW125768  -0.009   1.410   3.724  0.9534  1.9785  0.8670
 8000SOL    HW225769   0.128   1.402   3.788  0.1446  0.9908  2.5668
 8001SOL     OW25770   0.273   1.492   2.498 -0.6600 -0.3127 -0.5837
 8001SOL    HW125771   0.316   1.558   2.445 -0.8239  0.9045  0.7384
 8001SOL    HW225772   0.193   1.470   2.450 -1.5792  1.8727 -0.1684
 8002SOL     OW25773   6.214   3.879   0.009  0.1319  0.5653  0.1541
 8002SOL    HW125774   6.256   3.807  -0.037  1.1029  1.4820 -0.4579
 8002SOL    HW225775   6.230   3.861   0.101  1.8268  0.8068 -0.0437
 8003SOL     OW25776   5.227   9.050   0.695 -0.4679 -0.4144 -0.6259
 8003SOL    HW125777   5.263   9.041   0.783 -2.0403  0.1459  0.1040
 8003SOL    HW225778   5.290   9.005   0.639  1.3456  0.4800  0.5717
 8004SOL     OW25779   0.796   5.498   7.385  0.0164 -0.2935 -0.3049
 8004SOL    HW125780   0.758   5.418   7.349  1.7337 -0.3479 -2.1359
 8004SOL    HW225781   0.860   5.467   7.450 -0.4874 -0.3194  0.1901
 8005SOL     OW25782   8.930   2.008   5.554 -0.3464  0.3539 -0.2964
 8005SOL    HW125783   8.954   2.099   5.574  0.2957  0.0127  0.5213
 8005SOL    HW225784   9.009   1.970   5.517 -0.5293  0.0404 -0.3652
 8006SOL     OW25785   7.855   3.341   2.161  0.2520 -0.1595 -0.5976
 8006SOL    HW125786   7.803   3.403   2.110 -0.0199 -1.2748 -1.7012
 8006SOL    HW225787   7.911   3.397   2.216 -0.0906  1.0634 -1.4468
 8007SOL     OW25788   1.284   4.575   0.869  0.0382 -0.1185 -0.3669
 8007SOL    HW125789   1.374   4.544   0.878  0.5745  0.6360 -2.3561
 8007SOL    HW225790   1.250   4.580   0.958  1.7119 -1.1308  0.3693
 8008SOL     OW25791   9.168   6.611   3.929  0.1527 -0.8903  0.2044
 8008SOL    HW125792   9.199   6.668   3.859  0.8254 -1.6834 -0.1736
 8008SOL    HW225793   9.122   6.540   3.883 -2.4608  0.3393  0.7544
 8009SOL     OW25794   8.693   1.654   4.980 -0.1461  0.2589 -0.1715
 8009SOL    HW125795   8.763   1.709   4.944  1.1525 -1.0823  0.2056
 8009SOL    HW225796   8.735   1.569   4.994 -1.1313  0.1490  2.5810
 8010SOL     OW25797   3.094   0.467   3.626  0.3993 -0.3798 -0.0342
 8010SOL    HW125798   3.116   0.447   3.535  1.2604 -0.0346  0.0919
 8010SOL    HW225799   3.142   0.402   3.677 -1.8095 -2.0252  0.1215
 8011SOL     OW25800   1.204   6.795   0.696 -0.2194 -0.2693  0.3946
 8011SOL    HW125801   1.261   6.844   0.637 -0.9064  1.9401  1.4326
 8011SOL    HW225802   1.231   6.704   0.687  1.5072  0.3547 -1.2523
 8012SOL     OW25803   5.836   4.035   6.376 -0.6344 -0.2988 -0.1137
 8012SOL    HW125804   5.802   4.020   6.288 -2.8195  0.2292  0.5698
 8012SOL    HW225805   5.759   4.032   6.433  0.5933  0.1777  1.6856
 8013SOL     OW25806   0.971   8.510   4.409 -0.9546  0.1386 -0.2265
 8013SOL    HW125807   0.937   8.552   4.488  1.0836 -0.8653  1.2957
 8013SOL    HW225808   1.001   8.583   4.355 -1.0029  0.8089  0.6227
 8014SOL     OW25809   2.355   7.431   1.398 -0.0360  0.5850  0.6698
 8014SOL    HW125810   2.335   7.339   1.414  0.9296  0.4882  1.4523
 8014SOL    HW225811   2.412   7.430   1.321  0.6172  0.4271  1.1349
 8015SOL     OW25812   4.564   3.480   5.243  0.0429 -0.7889  0.2298
 8015SOL    HW125813   4.600   3.558   5.285  0.2028  0.4700 -2.0812
 8015SOL    HW225814   4.505   3.443   5.308  0.1313  1.1439  1.4977
 8016SOL     OW25815   2.842   0.118   7.816  1.2353  0.5635  0.3643
 8016SOL    HW125816   2.866   0.139   7.725  0.3987 -0.5317 -0.1325
 8016SOL    HW225817   2.911   0.059   7.846  0.4739 -0.6922 -0.2668
 8017SOL     OW25818   7.317   0.151   9.648  0.5732 -0.9382  0.3318
 8017SOL    HW125819   7.240   0.208   9.647  0.7883 -0.6265 -0.8319
 8017SOL    HW225820   7.317   0.111   9.735  0.5457  0.9992  1.2754
 8018SOL     OW25821   5.523   6.723   6.093  0.0386  0.0732 -0.1117
 8018SOL    HW125822   5.541   6.630   6.082 -1.4075 -0.3354  0.6719
 8018SOL    HW225823   5.491   6.752   6.008  2.6162  0.4433 -1.0455
 8019SOL     OW25824   7.149   4.020   5.756 -0.5334  0.6831  0.0412
 8019SOL    HW125825   7.147   4.115   5.752 -0.8344  0.7208  0.9556
 8019SOL    HW225826   7.058   3.993   5.749 -0.3862  0.4097 -1.0340
 8020SOL     OW25827   3.090   6.916   9.522 -0.8029  0.5318  0.7977
 8020SOL    HW125828   3.003   6.878   9.538  0.0652 -1.7805  0.4224
 8020SOL    HW225829   3.101   6.912   9.427  0.1418 -0.3152  0.9199
 8021SOL     OW25830   7.520   4.309   9.543 -0.0972 -0.6494 -0.1718
 8021SOL    HW125831   7.469   4.389   9.535 -0.7663 -1.2249 -2.5451
 8021SOL    HW225832   7.592   4.320   9.480  1.0019 -1.0758  0.9738
 8022SOL     OW25833   7.994   3.493   2.334  0.2976 -0.4068  0.0379
 8022SOL    HW125834   7.942   3.483   2.414 -0.5756  1.1581 -0.2884
 8022SOL    HW225835   8.055   3.564   2.354 -0.2642  0.3381 -0.8288
 8023SOL     OW25836   0.528   1.943   4.960  0.2482  0.1295 -0.4596
 8023SOL    HW125837   0.614   1.980   4.939 -0.3770  1.2433 -1.1996
 8023SOL    HW225838   0.508   1.886   4.886  0.0295  0.4681 -0.6652
 8024SOL     OW25839   2.163   7.173   7.128  0.4446  0.3560 -0.3632
 8024SOL    HW125840   2.248   7.139   7.102  1.1965  0.4154  1.8090
 8024SOL    HW225841   2.100   7.110   7.094  1.3802  0.0198 -1.5390
 8025SOL     OW25842   7.461   9.243   5.185 -0.6450  0.0914  0.3568
 8025SOL    HW125843   7.543   9.221   5.229 -0.7264  0.1725  0.5524
 8025SOL    HW225844   7.469   9.336   5.164  0.4388 -0.4699 -2.0560
 8026SOL     OW25845   0.944   7.899   9.442 -0.2388  0.0429  0.7353
 8026SOL    HW125846   1.004   7.919   9.370 -0.3194 -0.3093  0.5698
 8026SOL    HW225847   0.983   7.822   9.484 -0.9675 -0.6596  0.1618
 8027SOL     OW25848   6.484   2.091   7.213 -0.1069 -0.2177  0.4863
 8027SOL    HW125849   6.408   2.148   7.226  0.3986  0.4798  0.4377
 8027SOL    HW225850   6.477   2.063   7.121 -0.1305  0.1070  0.3872
 8028SOL     OW25851   8.329   3.008   0.516 -0.2486  0.1872  0.4099
 8028SOL    HW125852   8.407   3.060   0.537 -1.2261  1.3689  1.2877
 8028SOL    HW225853   8.344   2.978   0.426  0.8033  1.1618  0.2315
 8029SOL     OW25854   2.169   0.163   6.823  0.1495 -0.2857  0.0473
 8029SOL    HW125855   2.186   0.096   6.756  3.4874  1.2771 -0.8955
 8029SOL    HW225856   2.152   0.243   6.773  2.2001  0.8119  1.0039
 8030SOL     OW25857   5.588   6.299   2.228  0.9233  0.1776 -0.0360
 8030SOL    HW125858   5.567   6.209   2.254  1.1554 -0.3538 -1.6059
 8030SOL    HW225859   5.671   6.317   2.272  0.2100  0.1463  1.3901
 8031SOL     OW25860   1.185   1.396   1.206  0.1413 -0.0408  0.3369
 8031SOL    HW125861   1.175   1.418   1.113 -2.9981  0.6997  0.7523
 8031SOL    HW225862   1.178   1.481   1.251  0.4429 -0.5282  1.3202
 8032SOL     OW25863   6.087   9.028   9.417 -0.3151  0.2758 -0.2980
 8032SOL    HW125864   6.156   9.043   9.353  0.0127  0.2057  0.0366
 8032SOL    HW225865   6.132   8.998   9.496 -0.5395  2.0805  0.5677
 8033SOL     OW25866   5.926   7.824   7.347 -0.3681 -0.2157  0.6177
 8033SOL    HW125867   6.017   7.852   7.337 -0.1724 -0.8156  0.6661
 8033SOL    HW225868   5.883   7.852   7.266 -0.2839  0.6127  0.8568
 8034SOL     OW25869   1.087   0.959   6.848  0.6130  0.5921 -0.3889
 8034SOL    HW125870   1.071   0.888   6.786  0.7545 -0.2312  0.4920
 8034SOL    HW225871   1.011   1.018   6.837 -0.6781 -0.8454  0.4204
 8035SOL     OW25872   4.943   7.309   0.098  0.3225  0.4227 -0.1337
 8035SOL    HW125873   4.945   7.390   0.148 -0.3093 -0.5437  1.5156
 8035SOL    HW225874   4.862   7.314   0.047  0.0190  0.5842  0.3659
 8036SOL     OW25875   5.077   5.388   0.290 -1.1749  0.2921  0.0142
 8036SOL    HW125876   4.999   5.432   0.324 -0.5681  1.2472  0.2118
 8036SOL    HW225877   5.043   5.309   0.248 -2.1699  0.2939  0.7616
 8037SOL     OW25878   9.820   2.636   2.293  0.5584 -0.3893  0.0250
 8037SOL    HW125879   9.874   2.600   2.363  2.0705 -0.1496 -0.9733
 8037SOL    HW225880   9.879   2.642   2.217 -0.9356 -0.3575 -1.1954
 8038SOL     OW25881   8.402   4.009   1.223 -0.1634  0.8102  0.2670
 8038SOL    HW125882   8.352   4.061   1.160  0.8252  0.6752 -0.6694
 8038SOL    HW225883   8.386   3.918   1.198  1.7499  0.7732 -1.1049
 8039SOL     OW25884   9.409   0.731   3.511 -0.4817  0.2199  0.3080
 8039SOL    HW125885   9.351   0.760   3.582 -1.6652 -0.3284 -0.4108
 8039SOL    HW225886   9.408   0.636   3.517 -0.9011  0.1580 -0.6886
 8040SOL     OW25887   4.818   6.687   7.648 -0.1825  0.5159 -0.4851
 8040SOL    HW125888   4.858   6.773   7.664  2.5587 -0.7073 -0.0965
 8040SOL    HW225889   4.755   6.702   7.578  1.9883  2.4622 -2.2040
 8041SOL     OW25890   7.757   7.578   6.144 -0.9787 -0.6059 -0.1815
 8041SOL    HW125891   7.774   7.616   6.058 -0.2656  0.6643  0.4904
 8041SOL    HW225892   7.712   7.495   6.126 -1.5398  0.0110 -1.7375
 8042SOL     OW25893   0.846   7.864   2.811 -0.0694 -0.2345  0.0250
 8042SOL    HW125894   0.888   7.779   2.798  1.1050  0.4933 -1.2190
 8042SOL    HW225895   0.917   7.920   2.845 -1.0249  0.0676  1.6315
 8043SOL     OW25896   3.963   7.301   0.826  0.3276  0.1091  0.2029
 8043SOL    HW125897   4.028   7.232   0.814  0.1879  0.1175 -0.6260
 8043SOL    HW225898   3.887   7.271   0.776 -0.1115  0.3617  0.7098
 8044SOL     OW25899   6.249   2.280   4.693 -0.3770  0.2304 -0.1206
 8044SOL    HW125900   6.235   2.201   4.745  1.0693  0.2528  0.3394
 8044SOL    HW225901   6.244   2.251   4.602 -0.0386 -0.3550  0.0443
 8045SOL     OW25902   6.397   3.455   8.593 -0.1158 -0.1515  0.0119
 8045SOL    HW125903   6.448   3.466   8.513  0.0811 -1.7514 -0.1331
 8045SOL    HW225904   6.306   3.463   8.565 -0.0699 -1.1840 -0.4961
 8046SOL     OW25905   4.561   3.626   7.502  0.1976 -0.3433 -0.0969
 8046SOL    HW125906   4.560   3.561   7.432  0.1862 -2.2970  1.6316
 8046SOL    HW225907   4.506   3.698   7.468  0.5964 -0.9851 -2.2470
 8047SOL     OW25908   3.366   4.242   3.672  0.1596 -0.1512  0.2145
 8047SOL    HW125909   3.340   4.246   3.764  0.5038 -1.2140  0.3671
 8047SOL    HW225910   3.284   4.247   3.623 -0.0631 -0.1188  0.5891
 8048SOL     OW25911   0.257   4.733   5.543 -0.2356 -0.2437 -0.7455
 8048SOL    HW125912   0.241   4.652   5.495 -2.1135 -0.9687  0.9493
 8048SOL    HW225913   0.257   4.801   5.477 -2.2521 -1.2490 -1.8846
 8049SOL     OW25914   7.747   5.902   8.624  0.1280 -0.5761  0.3125
 8049SOL    HW125915   7.721   5.815   8.654 -1.4560  0.1178  1.0546
 8049SOL    HW225916   7.731   5.959   8.699 -3.4080  1.1388 -1.5054
 8050SOL     OW25917   0.425   2.589   6.907  0.1917 -0.4132  0.3283
 8050SOL    HW125918   0.512   2.568   6.940  0.3893 -1.9642 -1.0765
 8050SOL    HW225919   0.366   2.564   6.977  0.8109 -0.2623  0.9132
 8051SOL     OW25920   1.909   3.084   2.130  0.4726  0.0794 -0.1944
 8051SOL    HW125921   1.963   3.158   2.156  1.0603  0.0762 -1.3505
 8051SOL    HW225922   1.967   3.029   2.078 -0.2247 -0.6988 -0.1761
 8052SOL     OW25923   0.716   6.763   8.451  0.3470 -0.2064  0.0879
 8052SOL    HW125924   0.633   6.757   8.404 -0.1251  0.9691  0.7257
 8052SOL    HW225925   0.769   6.821   8.397  1.1315 -1.6867 -0.8025
 8053SOL     OW25926   6.293   5.246   6.172 -0.5216 -0.1708 -0.0816
 8053SOL    HW125927   6.342   5.176   6.131 -0.0656 -0.1570  0.4295
 8053SOL    HW225928   6.321   5.325   6.127  0.1173 -0.1322  0.3800
 8054SOL     OW25929   0.922   5.400   2.718  0.6565  0.1903 -0.2762
 8054SOL    HW125930   0.981   5.344   2.667  2.2376  0.1897  1.4529
 8054SOL    HW225931   0.958   5.488   2.708  1.7748  0.0210  1.7980
 8055SOL     OW25932   0.042   8.076   4.215 -0.4084 -0.0627 -0.6925
 8055SOL    HW125933   0.023   8.052   4.306 -0.9216  0.0984 -0.7518
 8055SOL    HW225934   0.088   8.000   4.179  0.1248  0.0243 -0.1950
 8056SOL     OW25935   6.351   6.953   1.978 -0.4251 -0.2376  0.8662
 8056SOL    HW125936   6.411   7.008   2.029  0.3443 -0.3012  0.0577
 8056SOL    HW225937   6.276   7.010   1.960  0.0535  0.3340  0.6320
 8057SOL     OW25938   6.110   3.369   8.639 -0.1388  0.0815 -0.2345
 8057SOL    HW125939   6.193   3.326   8.664  0.1296  0.1414 -1.0037
 8057SOL    HW225940   6.124   3.461   8.661 -0.4337 -0.0801  0.7015
 8058SOL     OW25941   6.664   7.685   2.853 -0.0774  0.3585  0.8190
 8058SOL    HW125942   6.623   7.762   2.812  1.0882  0.0577 -1.0062
 8058SOL    HW225943   6.757   7.705   2.854  0.0757 -0.3294  1.9308
 8059SOL     OW25944   3.162   7.385   0.162 -0.4621 -0.3057 -0.2031
 8059SOL    HW125945   3.229   7.425   0.106 -0.4434 -0.4286 -0.2691
 8059SOL    HW225946   3.088   7.369   0.104 -0.4863 -0.3245 -0.1673
 8060SOL     OW25947   4.101   8.177   3.967  0.4163 -0.2619  0.1680
 8060SOL    HW125948   4.029   8.227   3.927  0.5804 -1.0134 -1.1098
 8060SOL    HW225949   4.081   8.086   3.947  0.9697 -0.6012  1.0893
 8061SOL     OW25950   1.049   4.052   0.272 -0.2256  0.0968 -0.0948
 8061SOL    HW125951   1.100   4.078   0.349 -0.3584 -1.0400  0.3976
 8061SOL    HW225952   0.964   4.094   0.283 -0.3038 -0.2015  0.4862
 8062SOL     OW25953   3.544   7.515   2.151  0.0990  0.5055 -0.0554
 8062SOL    HW125954   3.457   7.519   2.109 -0.5913  0.2430  1.2941
 8062SOL    HW225955   3.566   7.607   2.166  0.6204  0.6338 -1.4827
 8063SOL     OW25956   1.966   8.724   7.337  0.1004 -0.3695 -0.3264
 8063SOL    HW125957   1.952   8.777   7.415  1.4811  0.0881 -0.3606
 8063SOL    HW225958   1.885   8.733   7.286 -0.3131  0.3576  0.4503
 8064SOL     OW25959   6.616   6.486   4.948  0.0108  0.0292  0.1606
 8064SOL    HW125960   6.630   6.433   4.870 -0.0193  3.8802 -2.7963
 8064SOL    HW225961   6.598   6.423   5.018 -2.4804 -3.6998 -3.3699
 8065SOL     OW25962   6.263   6.301   6.524  0.2734 -0.5577 -0.0495
 8065SOL    HW125963   6.335   6.340   6.573  0.3139 -0.1209 -0.4498
 8065SOL    HW225964   6.239   6.223   6.575  1.0168 -0.7030  0.0947
 8066SOL     OW25965   4.831   0.674   4.870 -0.0670  1.1841  0.2783
 8066SOL    HW125966   4.807   0.603   4.929 -0.9776  0.4109 -0.9816
 8066SOL    HW225967   4.770   0.745   4.890  1.2716  1.9289  2.0076
 8067SOL     OW25968   8.847   3.719   9.197  0.4661  0.0631  0.4645
 8067SOL    HW125969   8.920   3.777   9.173  0.7367  0.6846  2.5332
 8067SOL    HW225970   8.866   3.637   9.152  0.5655  1.2410 -1.8104
 8068SOL     OW25971   0.387   3.791   5.986 -0.8480  0.0123 -1.0358
 8068SOL    HW125972   0.326   3.815   5.917 -1.4637  0.1801 -0.4377
 8068SOL    HW225973   0.467   3.767   5.939 -1.8692 -1.8175 -1.9340
 8069SOL     OW25974   0.431   2.244   8.779  0.1206  0.1442  0.1475
 8069SOL    HW125975   0.462   2.213   8.694 -1.1871 -0.9046  0.0211
 8069SOL    HW225976   0.439   2.340   8.774 -0.4873  0.1417 -1.3812
 8070SOL     OW25977   0.528   5.992   7.773 -0.2947  0.3036  0.3193
 8070SOL    HW125978   0.539   6.084   7.749  0.9030  0.1043  0.0277
 8070SOL    HW225979   0.471   5.994   7.850  0.7987  1.3901  1.1455
 8071SOL     OW25980   3.313   7.519   7.352 -0.0166  0.2039 -0.0621
 8071SOL    HW125981   3.328   7.432   7.317  0.7280  0.3373 -0.1023
 8071SOL    HW225982   3.249   7.507   7.422  0.6762 -0.5004  0.4728
 8072SOL     OW25983   6.622   6.569   8.582  0.0567 -0.0694  0.1494
 8072SOL    HW125984   6.580   6.525   8.508 -2.9230  1.3906  0.8097
 8072SOL    HW225985   6.711   6.589   8.552  0.1992 -2.8530 -1.5787
 8073SOL     OW25986   3.873   9.461   8.819 -0.1838 -0.0099  0.0444
 8073SOL    HW125987   3.928   9.443   8.743  1.1963  2.0941  0.4883
 8073SOL    HW225988   3.818   9.535   8.792  0.0752  0.5289  0.9806
 8074SOL     OW25989   3.340   4.450   7.072  0.4545  0.1660 -0.3634
 8074SOL    HW125990   3.388   4.483   6.996  2.2390 -1.0050  0.1949
 8074SOL    HW225991   3.321   4.358   7.050 -2.2846  0.7540 -0.8841
 8075SOL     OW25992   1.406   7.000   8.180 -0.0602  0.5643  0.1590
 8075SOL    HW125993   1.314   6.996   8.157 -0.6323  1.0042  2.1726
 8075SOL    HW225994   1.415   7.081   8.230  1.5555  0.8335 -0.4928
 8076SOL     OW25995   6.257   2.011   2.178  0.5035  0.4246  0.3142
 8076SOL    HW125996   6.268   2.093   2.226  0.4006  0.7577 -0.2203
 8076SOL    HW225997   6.346   1.976   2.168  0.8056  1.5302 -1.2643
 8077SOL     OW25998   4.732   7.905   7.626  0.0362  0.0020  0.1826
 8077SOL    HW125999   4.779   7.822   7.630  1.2103  0.0373 -5.0740
 8077SOL    HW226000   4.642   7.884   7.648  0.5794 -2.3772  0.3405
 8078SOL     OW26001   5.879   0.551   3.621  0.2301 -0.0943  0.1585
 8078SOL    HW126002   5.886   0.615   3.692  0.9831 -1.2065  1.1180
 8078SOL    HW226003   5.958   0.564   3.569  1.1476 -1.2408  1.2285
 8079SOL     OW26004   7.338   7.919   8.209 -0.3116 -0.0818 -0.5749
 8079SOL    HW126005   7.258   7.969   8.193 -1.2528 -1.4027 -0.1907
 8079SOL    HW226006   7.364   7.887   8.123 -0.5033 -0.0778 -0.6348
 8080SOL     OW26007   8.706   4.541   1.941  0.6096 -0.2760  0.1855
 8080SOL    HW126008   8.659   4.601   1.999 -0.2295  0.4529 -1.2026
 8080SOL    HW226009   8.765   4.493   1.999 -1.2072 -0.6052  1.8784
 8081SOL     OW26010   8.963   8.361   1.459 -0.1082 -0.0433  0.2819
 8081SOL    HW126011   9.050   8.323   1.475 -0.7684 -0.9124  2.2445
 8081SOL    HW226012   8.966   8.447   1.501  0.1917  0.4900 -0.8054
 8082SOL     OW26013   0.009   5.792   6.018  0.0882 -0.0230 -0.1506
 8082SOL    HW126014  -0.030   5.790   6.106 -0.6114 -1.3581 -0.4549
 8082SOL    HW226015   0.001   5.883   5.990 -1.0065  0.1345  0.6022
 8083SOL     OW26016   2.902   7.859   7.941  0.1382 -0.2570 -0.8208
 8083SOL    HW126017   2.910   7.953   7.952  0.3621 -0.0839 -2.2259
 8083SOL    HW226018   2.831   7.848   7.877  1.9787 -0.8540 -2.8722
 8084SOL     OW26019   4.645   8.046   3.551  0.2510 -0.7983  0.2920
 8084SOL    HW126020   4.721   7.989   3.536 -0.8445 -2.0358 -0.8379
 8084SOL    HW226021   4.600   8.048   3.467  0.1487  1.6667  0.3383
 8085SOL     OW26022   6.577   0.071   8.423  0.0095 -0.6931 -0.7117
 8085SOL    HW126023   6.504   0.131   8.441  0.5504  0.3471 -1.8209
 8085SOL    HW226024   6.535  -0.011   8.399 -0.7768 -0.4730 -0.1314
 8086SOL     OW26025   2.307   2.311   5.302 -0.0973  0.3906 -0.0869
 8086SOL    HW126026   2.393   2.309   5.344 -0.0203 -2.4360 -0.1609
 8086SOL    HW226027   2.320   2.364   5.223  1.2050  1.0903  0.5554
 8087SOL     OW26028   7.785   8.053   6.938 -0.1238 -0.7207 -0.1319
 8087SOL    HW126029   7.704   8.099   6.915 -0.7671 -1.6624  0.1972
 8087SOL    HW226030   7.791   7.982   6.874 -0.0324 -1.2003  0.4011
 8088SOL     OW26031   3.809   8.626   8.851 -0.1899  0.2727  0.3924
 8088SOL    HW126032   3.901   8.642   8.873 -0.3730  0.7408  0.8226
 8088SOL    HW226033   3.810   8.541   8.806  0.7195  1.1421 -1.3372
 8089SOL     OW26034   6.214   4.594   8.145 -0.5642 -0.4929 -0.0902
 8089SOL    HW126035   6.211   4.679   8.101  0.6033 -0.7040 -0.6291
 8089SOL    HW226036   6.307   4.581   8.166 -0.8659 -1.1743  0.9117
 8090SOL     OW26037   6.411   4.049   3.982  0.7456  0.1191  0.1517
 8090SOL    HW126038   6.340   4.005   4.030  1.4072  1.1856  2.2599
 8090SOL    HW226039   6.409   4.010   3.895 -0.2482 -2.3295  1.1732
 8091SOL     OW26040   3.865   8.412   6.205  0.0368 -0.2783  0.2798
 8091SOL    HW126041   3.785   8.368   6.177  0.5402 -0.0942 -1.6057
 8091SOL    HW226042   3.929   8.392   6.137  1.6220 -0.4183  1.7371
 8092SOL     OW26043   8.257   2.343   3.470 -0.4035 -0.0520  0.5952
 8092SOL    HW126044   8.287   2.269   3.521  1.2925  1.0318  1.2483
 8092SOL    HW226045   8.267   2.316   3.379  0.6621 -0.4520  0.8265
 8093SOL     OW26046   3.684   1.295   6.327 -0.0380  0.0549 -0.4659
 8093SOL    HW126047   3.673   1.207   6.290  0.6031  0.4590 -1.7043
 8093SOL    HW226048   3.667   1.353   6.253 -1.6146  1.0261  0.6316
 8094SOL     OW26049   5.300   5.602   6.758  0.5906  0.6352  0.0918
 8094SOL    HW126050   5.335   5.526   6.805 -2.0932  0.1029  1.3717
 8094SOL    HW226051   5.278   5.567   6.671  0.8914  0.3863  0.1106
 8095SOL     OW26052   7.748   4.392   4.918  0.2344  0.2111  0.2234
 8095SOL    HW126053   7.700   4.311   4.934 -0.5096  0.6427  0.1906
 8095SOL    HW226054   7.682   4.454   4.888  0.6286  1.1317  1.2150
 8096SOL     OW26055   2.003   1.012   6.994  0.2169 -0.2766  0.2028
 8096SOL    HW126056   1.959   1.083   6.949 -0.6328 -1.9093 -1.6684
 8096SOL    HW226057   2.010   0.942   6.929  4.1902 -0.7245  0.8164
 8097SOL     OW26058   5.745   0.579   8.173 -0.0140  0.2348 -0.0584
 8097SOL    HW126059   5.661   0.580   8.219 -0.5234  0.6065 -0.9583
 8097SOL    HW226060   5.727   0.533   8.091  0.9370 -0.6407  0.2064
 8098SOL     OW26061   6.961   5.220   3.078  0.1054 -0.6756  0.8619
 8098SOL    HW126062   6.872   5.193   3.099  0.3934 -0.9569  1.7959
 8098SOL    HW226063   6.991   5.266   3.156  0.7320 -0.4726  0.5082
 8099SOL     OW26064   2.583   4.668   4.151  0.1017  0.2505 -0.1007
 8099SOL    HW126065   2.587   4.616   4.231  0.8244  0.5221  0.0507
 8099SOL    HW226066   2.520   4.738   4.171  1.4728  1.2701  0.8310
 8100SOL     OW26067   6.948   0.603   7.051 -0.0116  0.0514 -0.3144
 8100SOL    HW126068   6.892   0.542   7.100 -0.3385  1.1651  0.7544
 8100SOL    HW226069   6.887   0.649   6.993  0.0231  0.2492 -0.1943
 8101SOL     OW26070   8.264   4.011   2.864 -0.0723 -0.1640  0.3514
 8101SOL    HW126071   8.271   3.965   2.781 -1.2300 -0.6111  0.4934
 8101SOL    HW226072   8.348   4.056   2.873  0.9616 -1.9351  0.0452
 8102SOL     OW26073   8.201   9.204   8.844 -0.0157  0.1451 -0.1158
 8102SOL    HW126074   8.237   9.125   8.804 -0.0624  0.7897 -1.4937
 8102SOL    HW226075   8.271   9.270   8.834 -0.2624  0.4852  0.3410
 8103SOL     OW26076   2.181   2.708   3.752 -0.3657  0.1843 -0.0400
 8103SOL    HW126077   2.124   2.754   3.690 -1.0851  0.1869  0.5978
 8103SOL    HW226078   2.159   2.615   3.740 -0.3493  0.1677  0.0607
 8104SOL     OW26079   3.122   5.292   8.778  0.1863 -0.4899 -0.0358
 8104SOL    HW126080   3.186   5.220   8.783 -0.7100 -1.3474 -0.4676
 8104SOL    HW226081   3.087   5.286   8.689 -0.5269 -0.0735  0.2097
 8105SOL     OW26082   3.447   5.666   6.703 -0.4340  0.3641 -0.1118
 8105SOL    HW126083   3.521   5.614   6.673  0.6847  1.6566  0.3305
 8105SOL    HW226084   3.486   5.738   6.751 -2.0445  0.2613  1.4554
 8106SOL     OW26085   7.355   5.143   1.534  0.0722  0.4742 -0.3114
 8106SOL    HW126086   7.317   5.195   1.464 -0.1832 -1.1157 -1.3974
 8106SOL    HW226087   7.449   5.163   1.530 -0.0389  0.9426 -0.6317
 8107SOL     OW26088   1.442   0.225   1.409  0.2191  0.0995 -0.8612
 8107SOL    HW126089   1.348   0.235   1.429  0.1752 -0.9883 -0.4931
 8107SOL    HW226090   1.452   0.269   1.325 -0.2817  1.7144 -0.1306
 8108SOL     OW26091   1.181   8.202   7.091  1.0677 -0.4213  0.3829
 8108SOL    HW126092   1.088   8.179   7.099  1.3204 -1.0851  1.8470
 8108SOL    HW226093   1.183   8.297   7.106  0.1599  0.6417 -4.4883
 8109SOL     OW26094   1.233   5.989   8.238  0.7266 -0.5160  0.7111
 8109SOL    HW126095   1.159   5.995   8.178  0.7932  0.6781  0.7238
 8109SOL    HW226096   1.196   6.006   8.324  1.1627  1.2311  0.5909
 8110SOL     OW26097   9.074   9.466   4.185  0.2860  0.0535  0.2500
 8110SOL    HW126098   9.052   9.513   4.265 -0.2911 -0.8677  0.6359
 8110SOL    HW226099   9.082   9.375   4.211 -2.4927 -0.7020 -1.1776
 8111SOL     OW26100   0.151   7.275   8.247 -1.0120 -0.2475  0.2057
 8111SOL    HW126101   0.144   7.277   8.151 -1.2480 -0.8744  0.2045
 8111SOL    HW226102   0.225   7.332   8.267  1.3128 -2.7510 -0.5866
 8112SOL     OW26103   5.847   5.032   6.133  0.0817  0.2821  0.0586
 8112SOL    HW126104   5.832   5.063   6.222 -2.6271  0.0859 -0.2592
 8112SOL    HW226105   5.818   4.940   6.134  2.2307 -0.4812 -0.5101
 8113SOL     OW26106   0.286   7.840   4.641 -0.3867 -0.4124  0.3858
 8113SOL    HW126107   0.281   7.846   4.546  1.7011 -0.3182  0.2371
 8113SOL    HW226108   0.197   7.855   4.671 -0.9845  0.0806 -1.5317
 8114SOL     OW26109   4.111   6.117   2.405  0.0478  0.4003  0.4350
 8114SOL    HW126110   4.036   6.059   2.420 -1.7332  2.1171 -1.1780
 8114SOL    HW226111   4.137   6.146   2.492 -1.0503 -0.3928  1.0561
 8115SOL     OW26112   6.834   2.952   5.566  0.0486  0.4554 -0.0324
 8115SOL    HW126113   6.827   2.923   5.657 -0.6167  1.1982  0.1586
 8115SOL    HW226114   6.927   2.941   5.545 -0.2564 -2.4539 -0.2128
 8116SOL     OW26115   2.580   9.829   6.265 -0.5053 -0.1354  0.0686
 8116SOL    HW126116   2.507   9.879   6.301  1.3068  1.8217  1.2310
 8116SOL    HW226117   2.643   9.822   6.337  0.8198 -1.0436 -1.1085
 8117SOL     OW26118   7.219   1.168   7.973 -0.3536  0.0286  0.5803
 8117SOL    HW126119   7.238   1.214   8.055  0.2602 -0.7489  0.8792
 8117SOL    HW226120   7.177   1.086   8.000  0.2962 -0.4510  0.1500
 8118SOL     OW26121   5.992   5.840   5.695  0.0440  0.5348  0.3809
 8118SOL    HW126122   5.910   5.822   5.648  0.7512  1.2532 -1.2369
 8118SOL    HW226123   5.964   5.873   5.780 -1.2977 -1.6314  0.8399
 8119SOL     OW26124   2.008   1.685   7.655 -0.5058 -0.6695  0.0158
 8119SOL    HW126125   2.103   1.673   7.647 -0.5941 -0.7351 -1.1267
 8119SOL    HW226126   1.986   1.646   7.740  0.1906 -2.5512 -0.6158
 8120SOL     OW26127   1.882   5.269   4.006 -0.1700 -0.4161 -0.2973
 8120SOL    HW126128   1.789   5.250   3.993 -1.1530  1.8344  2.3280
 8120SOL    HW226129   1.928   5.202   3.955 -3.1932 -1.7515 -1.5195
 8121SOL     OW26130   1.098   1.277   3.496  0.0402 -0.2798 -0.0823
 8121SOL    HW126131   1.184   1.313   3.519  2.0714 -2.6444 -3.1513
 8121SOL    HW226132   1.053   1.350   3.453  1.0756  0.6235  0.2931
 8122SOL     OW26133   3.107   2.652   1.098 -0.3072 -0.0136  0.4873
 8122SOL    HW126134   3.019   2.675   1.127 -0.1715  0.6056  0.4076
 8122SOL    HW226135   3.164   2.674   1.173 -0.3199 -1.2936  0.9044
 8123SOL     OW26136   2.833   4.953   9.644 -0.0214 -0.1489 -0.1584
 8123SOL    HW126137   2.792   4.927   9.727 -1.9979  0.3791 -0.9117
 8123SOL    HW226138   2.924   4.973   9.667 -0.9045  1.5465  2.2014
 8124SOL     OW26139   3.068   8.489   7.463 -0.6604 -0.4715 -0.2010
 8124SOL    HW126140   3.059   8.497   7.368 -0.4673 -1.8773 -0.3584
 8124SOL    HW226141   3.154   8.448   7.476  0.4859  2.0110  0.7352
 8125SOL     OW26142   4.922   3.000   7.607  0.4979 -0.0934 -0.0474
 8125SOL    HW126143   4.911   3.023   7.699  2.4401 -2.4857  0.9060
 8125SOL    HW226144   4.994   2.937   7.607  1.0113  0.3156 -3.3095
 8126SOL     OW26145   1.438   3.663   8.949  0.0665 -0.2120 -0.0067
 8126SOL    HW126146   1.432   3.672   8.854 -0.2690 -0.1435  0.0172
 8126SOL    HW226147   1.350   3.635   8.976 -0.2537  1.1373  0.4348
 8127SOL     OW26148   9.688   0.595   8.567  0.5185 -0.2096  0.5837
 8127SOL    HW126149   9.765   0.630   8.612  0.2381 -1.6211  2.3118
 8127SOL    HW226150   9.712   0.505   8.545 -0.2872 -0.3576  0.2614
 8128SOL     OW26151   7.372   4.244   4.652 -0.1190 -0.2606  0.4581
 8128SOL    HW126152   7.324   4.161   4.658  0.4479 -0.6591 -0.3820
 8128SOL    HW226153   7.306   4.310   4.674 -1.1606 -0.7749 -0.9620
 8129SOL     OW26154   0.060   4.547   1.732 -0.0074 -0.3142  0.0408
 8129SOL    HW126155  -0.023   4.539   1.685  0.2822  0.5985 -0.6592
 8129SOL    HW226156   0.086   4.456   1.749  0.8654 -0.8836 -3.4502
 8130SOL     OW26157   7.497   3.546   9.671 -0.3537 -0.4998 -0.3357
 8130SOL    HW126158   7.446   3.466   9.679 -0.4615 -0.4557 -0.5567
 8130SOL    HW226159   7.571   3.534   9.731 -0.6231 -0.5626 -0.0130
 8131SOL     OW26160   1.294   6.100   2.261 -0.1073 -0.1946  0.1843
 8131SOL    HW126161   1.219   6.159   2.255  0.3632  0.4064  0.1872
 8131SOL    HW226162   1.318   6.101   2.353  0.8395  0.8005 -0.0563
 8132SOL     OW26163   1.164   5.041   3.297 -0.0248 -0.1496  0.3654
 8132SOL    HW126164   1.150   4.997   3.213 -0.2776 -1.2097  0.9527
 8132SOL    HW226165   1.252   5.079   3.290  0.1192 -0.5834 -0.2227
 8133SOL     OW26166   0.565   3.950   7.142  0.4731  0.2401 -0.4230
 8133SOL    HW126167   0.541   3.925   7.231 -0.3131 -1.2086 -1.0008
 8133SOL    HW226168   0.604   3.870   7.104 -0.4601  0.3859 -1.7834
 8134SOL     OW26169   3.755   5.404   4.591  0.2975  0.4422 -0.0914
 8134SOL    HW126170   3.834   5.452   4.615 -0.5330  1.4604  0.6648
 8134SOL    HW226171   3.700   5.409   4.669  0.0006 -1.3744 -0.1528
 8135SOL     OW26172   9.718   5.066   4.323 -0.5445 -0.1464  0.5266
 8135SOL    HW126173   9.801   5.023   4.342  0.3275  0.6646 -1.1795
 8135SOL    HW226174   9.737   5.160   4.333 -1.1272  0.0660 -0.2467
 8136SOL     OW26175   6.373   7.201   3.317  0.0384 -0.3250 -0.1890
 8136SOL    HW126176   6.455   7.199   3.365  0.3434  1.1037 -0.5841
 8136SOL    HW226177   6.344   7.110   3.314  1.2454 -0.7571  0.5552
 8137SOL     OW26178   1.057   2.777   5.372  0.6280  0.2889 -0.2172
 8137SOL    HW126179   1.067   2.690   5.412 -1.7973  0.8801  1.9156
 8137SOL    HW226180   1.136   2.824   5.398  1.3316 -0.8454 -0.2341
 8138SOL     OW26181   3.858   4.719   2.433 -0.0134 -0.2056 -0.3653
 8138SOL    HW126182   3.813   4.681   2.509  0.3435 -1.0270 -0.5585
 8138SOL    HW226183   3.867   4.812   2.455  0.8390 -0.5793  0.9841
 8139SOL     OW26184   0.529   8.164   3.332  0.3953 -0.0570  0.1959
 8139SOL    HW126185   0.480   8.099   3.382 -0.9162  0.4998 -0.3014
 8139SOL    HW226186   0.550   8.120   3.250  2.4310 -0.9251  1.1239
 8140SOL     OW26187   8.835   3.820   0.564 -0.1589  0.2953 -0.2375
 8140SOL    HW126188   8.836   3.804   0.658  0.1799  0.2996 -0.2413
 8140SOL    HW226189   8.876   3.906   0.553  0.8933 -0.2238 -0.4864
 8141SOL     OW26190   5.602   5.277   8.559  0.5853  0.3288  0.2904
 8141SOL    HW126191   5.587   5.338   8.487  0.8167  0.9119  0.7276
 8141SOL    HW226192   5.543   5.204   8.542  1.0337  0.1950 -0.7914
 8142SOL     OW26193   8.992   3.054   4.507  0.0910 -0.1889 -0.3115
 8142SOL    HW126194   9.010   2.979   4.449 -2.3158 -1.0978 -0.0104
 8142SOL    HW226195   8.898   3.049   4.524  0.1876  1.8645  1.2257
 8143SOL     OW26196   7.496   9.497   4.800  0.2413 -0.1060 -0.0243
 8143SOL    HW126197   7.495   9.533   4.711 -1.4000  0.5718  0.2315
 8143SOL    HW226198   7.585   9.513   4.831  2.0130 -3.4996 -2.7136
 8144SOL     OW26199   6.886   0.886   9.434 -0.3332 -0.1681  0.0051
 8144SOL    HW126200   6.795   0.914   9.441 -0.4179 -0.3903 -0.2084
 8144SOL    HW226201   6.935   0.953   9.481 -0.5937  0.0234  0.0067
 8145SOL     OW26202   6.626   6.934   3.557  0.4865  0.3978  0.4031
 8145SOL    HW126203   6.659   6.992   3.625  0.8820  2.3503 -1.3492
 8145SOL    HW226204   6.704   6.890   3.523  0.4606  0.3733  0.3749
 8146SOL     OW26205   4.286   3.659   4.438  0.4782 -0.1831 -0.4432
 8146SOL    HW126206   4.319   3.671   4.350 -1.2834 -1.1322 -1.3006
 8146SOL    HW226207   4.336   3.586   4.473 -0.5198 -1.5044 -1.6557
 8147SOL     OW26208   9.582   7.093   4.088 -0.2878  0.1792  0.0330
 8147SOL    HW126209   9.664   7.125   4.052 -0.6145 -0.3475 -1.2038
 8147SOL    HW226210   9.514   7.134   4.034 -0.8020 -0.2854  0.3124
 8148SOL     OW26211   3.984   2.152   4.800 -0.0870  0.5922 -0.0042
 8148SOL    HW126212   3.940   2.215   4.857 -0.9449 -0.2990  0.3426
 8148SOL    HW226213   4.009   2.080   4.858  0.8715  0.5831 -0.4014
 8149SOL     OW26214   4.744   5.203   5.029  0.6148 -0.3440 -0.3371
 8149SOL    HW126215   4.730   5.176   4.938  0.1503  0.9343 -0.6638
 8149SOL    HW226216   4.665   5.252   5.052  1.2761  0.4445  0.3321
 8150SOL     OW26217   8.685   0.646   4.166  0.1484  0.3298  0.3321
 8150SOL    HW126218   8.712   0.645   4.075  2.6829 -0.9556  1.0044
 8150SOL    HW226219   8.589   0.639   4.163  0.1371  0.8025 -2.1987
 8151SOL     OW26220   5.213   2.029   6.103 -0.0121  0.6316 -0.1933
 8151SOL    HW126221   5.290   2.076   6.072  0.1111 -0.2344 -1.3098
 8151SOL    HW226222   5.194   1.967   6.032 -1.0982  0.1089  0.5327
 8152SOL     OW26223   1.907   4.073   2.351 -0.3372 -0.3231  0.1874
 8152SOL    HW126224   1.889   4.106   2.263 -2.3738 -0.5713  0.4598
 8152SOL    HW226225   1.994   4.107   2.372 -0.4440  1.0097 -1.3156
 8153SOL     OW26226   3.238   0.118   9.461  0.1109 -0.0198  0.1946
 8153SOL    HW126227   3.229   0.104   9.555 -0.9240 -1.6475 -0.1137
 8153SOL    HW226228   3.149   0.137   9.431  0.2824 -0.3946 -0.5835
 8154SOL     OW26229   1.757   6.048   7.253 -0.3074  0.0066  0.1648
 8154SOL    HW126230   1.759   6.110   7.180 -1.3562 -0.2343 -0.0951
 8154SOL    HW226231   1.794   6.097   7.327 -1.2567  1.0168  0.0060
 8155SOL     OW26232   0.583   9.621   0.894  0.2598 -0.1841  0.3392
 8155SOL    HW126233   0.565   9.674   0.816 -4.2800 -0.0042  1.2372
 8155SOL    HW226234   0.580   9.683   0.967 -1.6253 -1.0582  1.0861
 8156SOL     OW26235   8.342   3.878   1.548  0.8143  0.2294  0.0700
 8156SOL    HW126236   8.301   3.800   1.511 -0.0026  0.4206  0.5504
 8156SOL    HW226237   8.291   3.951   1.512  1.1123  0.5032  0.2022
 8157SOL     OW26238   5.680   0.671   0.350  0.3600 -0.0704 -0.5163
 8157SOL    HW126239   5.658   0.762   0.370 -0.8710 -0.4690  0.0353
 8157SOL    HW226240   5.736   0.643   0.423  2.4604  0.8022 -1.6836
 8158SOL     OW26241   8.518   1.046   5.910 -0.1299  0.3999  0.1863
 8158SOL    HW126242   8.591   0.999   5.871 -1.7028 -2.3376  0.2926
 8158SOL    HW226243   8.441   1.013   5.864 -1.4525  2.0015  1.1502
 8159SOL     OW26244   0.013   1.453   6.479 -0.0501  0.0675  0.5165
 8159SOL    HW126245   0.043   1.544   6.480  0.1881  0.0040 -0.1469
 8159SOL    HW226246  -0.081   1.459   6.464  0.1385  0.1848 -0.7433
 8160SOL     OW26247   8.063   6.335   6.014  0.4030 -0.1284 -0.1908
 8160SOL    HW126248   8.020   6.251   6.033  0.5907 -0.5474 -1.4731
 8160SOL    HW226249   8.131   6.313   5.950  0.8333  0.9222 -0.1127
 8161SOL     OW26250   9.480   8.805   4.297 -0.0603 -0.3680  0.2704
 8161SOL    HW126251   9.406   8.840   4.247  0.5251 -1.6816 -1.6380
 8161SOL    HW226252   9.441   8.741   4.356 -0.5106 -0.7507 -0.4292
 8162SOL     OW26253   3.115   5.603   0.216  0.4284 -0.1074  0.1036
 8162SOL    HW126254   3.071   5.615   0.300  0.1165  0.3245 -0.1202
 8162SOL    HW226255   3.045   5.591   0.152  0.5914  1.3763 -0.3793
 8163SOL     OW26256   6.469   6.510   7.464 -0.0675 -0.0523  0.2732
 8163SOL    HW126257   6.487   6.460   7.543  1.9005  0.4938  0.2027
 8163SOL    HW226258   6.392   6.563   7.486  0.8203  0.5648  2.0464
 8164SOL     OW26259   8.211   0.365   6.917 -0.0050  0.2629  0.5860
 8164SOL    HW126260   8.205   0.293   6.980  0.7134  0.5708  1.0280
 8164SOL    HW226261   8.121   0.395   6.906 -0.1409  0.2353  1.5112
 8165SOL     OW26262   0.142   4.632   6.002  0.6146  0.0570  0.0174
 8165SOL    HW126263   0.111   4.544   5.983  0.9291  0.1441 -0.9468
 8165SOL    HW226264   0.146   4.675   5.917  0.0847  1.1369  0.5124
 8166SOL     OW26265   5.299   5.700   7.598  0.0157  0.2408  0.1109
 8166SOL    HW126266   5.346   5.703   7.514 -0.4294  1.6870 -0.1106
 8166SOL    HW226267   5.364   5.670   7.661 -0.0436 -2.4410 -0.9860
 8167SOL     OW26268   9.255   9.641   7.628  0.4417  0.1728  0.2081
 8167SOL    HW126269   9.186   9.575   7.638  0.0295  0.7109  1.0622
 8167SOL    HW226270   9.265   9.652   7.534 -1.4170  0.8454  0.0454
 8168SOL     OW26271   4.344   5.575   3.327 -0.8874  0.4070 -0.2705
 8168SOL    HW126272   4.322   5.525   3.248 -1.0255  0.4802 -0.2803
 8168SOL    HW226273   4.340   5.666   3.299  2.2883  0.4031 -1.0168
 8169SOL     OW26274   1.755   7.093   3.235  0.0931  0.3699  0.2611
 8169SOL    HW126275   1.824   7.148   3.271 -1.6949  2.0284  1.3494
 8169SOL    HW226276   1.791   7.005   3.236  1.7059  0.9972  2.0264
 8170SOL     OW26277   7.967   3.001   1.430 -0.5257 -0.4452 -0.8262
 8170SOL    HW126278   7.886   2.987   1.479 -0.0090 -0.1986  0.1228
 8170SOL    HW226279   7.940   3.051   1.353 -1.2578 -0.2808 -0.4740
 8171SOL     OW26280   9.170   1.448   0.622 -0.0983  0.3437  0.1038
 8171SOL    HW126281   9.251   1.464   0.573 -0.0600  1.7022  0.5600
 8171SOL    HW226282   9.189   1.370   0.674  1.3014  1.1836  0.9239
 8172SOL     OW26283   8.068   6.969   1.579  0.1504  0.0351  0.4674
 8172SOL    HW126284   8.048   7.063   1.585  1.5990  0.3766  0.1478
 8172SOL    HW226285   7.985   6.927   1.602 -1.2465  1.3791 -1.6807
 8173SOL     OW26286   2.624   9.351   8.072  0.0416  0.1683  0.1986
 8173SOL    HW126287   2.623   9.268   8.121  2.3407  0.1104  0.2747
 8173SOL    HW226288   2.653   9.326   7.984  2.8615  1.0492  0.7805
 8174SOL     OW26289   4.672   9.570   0.325  0.4277  0.3626 -0.1256
 8174SOL    HW126290   4.687   9.594   0.234  0.8102  0.6192  0.0041
 8174SOL    HW226291   4.622   9.643   0.362 -1.4060 -0.5846 -0.6147
 8175SOL     OW26292   7.035   3.104   9.254  0.2740  0.0505  0.6067
 8175SOL    HW126293   7.043   3.160   9.331 -1.8673  1.1307  0.1199
 8175SOL    HW226294   6.952   3.130   9.214  0.9771 -0.9819 -1.6803
 8176SOL     OW26295   6.487   5.390   6.294 -0.4018 -0.0918  0.4393
 8176SOL    HW126296   6.407   5.347   6.265 -0.9862 -0.2482  2.1862
 8176SOL    HW226297   6.467   5.484   6.289 -0.2241 -0.0922 -0.3730
 8177SOL     OW26298   3.258   3.176   7.075  0.4563 -0.5203 -0.3769
 8177SOL    HW126299   3.198   3.120   7.124  2.1955 -1.1005  1.2233
 8177SOL    HW226300   3.305   3.117   7.017  1.4083 -0.5686  0.4069
 8178SOL     OW26301   6.430   2.304   8.883  0.2087 -0.2893 -0.1250
 8178SOL    HW126302   6.340   2.273   8.879  0.2843 -0.5926  0.4926
 8178SOL    HW226303   6.463   2.273   8.967  0.9012 -0.2075 -0.3593
 8179SOL     OW26304   6.449   3.123   2.239 -0.0822 -0.1490 -0.4570
 8179SOL    HW126305   6.540   3.101   2.220  0.0974  1.3077 -1.4987
 8179SOL    HW226306   6.446   3.219   2.231 -2.1117 -0.3025 -2.5494
 8180SOL     OW26307   4.458   1.927   2.133  0.1450  0.9236  0.2336
 8180SOL    HW126308   4.496   1.880   2.207  1.3421  1.7995  0.2033
 8180SOL    HW226309   4.420   1.858   2.078  2.9019 -0.2265 -0.4219
 8181SOL     OW26310   6.518   9.671   1.863 -0.2796  0.9613 -0.4406
 8181SOL    HW126311   6.542   9.600   1.923  0.9840  0.8284 -1.0652
 8181SOL    HW226312   6.448   9.718   1.908  0.0503  0.3563  0.7517
 8182SOL     OW26313   0.202   2.804   4.187  0.5798 -0.2895  0.4897
 8182SOL    HW126314   0.198   2.769   4.276  2.8935 -2.3396 -0.0985
 8182SOL    HW226315   0.176   2.730   4.131 -0.4885  0.8492 -0.6017
 8183SOL     OW26316   1.839   5.765   6.817  0.1329 -0.0987  0.9229
 8183SOL    HW126317   1.884   5.723   6.890  0.3429 -1.6610 -0.0531
 8183SOL    HW226318   1.830   5.857   6.843  0.7190 -0.4988  2.6379
 8184SOL     OW26319   2.196   2.989   7.812 -0.4110 -0.6508 -0.7872
 8184SOL    HW126320   2.110   3.015   7.778 -1.0359 -0.1047  1.0799
 8184SOL    HW226321   2.176   2.918   7.873  0.1505  0.9762  1.3817
 8185SOL     OW26322   7.817   3.022   5.710  0.5061  0.2292 -0.0813
 8185SOL    HW126323   7.726   3.034   5.681  0.1094 -0.9869  0.6102
 8185SOL    HW226324   7.869   3.033   5.630 -0.3992 -0.9241 -0.8552
 8186SOL     OW26325   0.316   9.057   6.164 -0.1385  0.1571  0.2269
 8186SOL    HW126326   0.225   9.080   6.183 -0.3977 -1.5428  1.3046
 8186SOL    HW226327   0.310   9.001   6.086 -0.2381 -1.3174  1.2578
 8187SOL     OW26328   1.648   3.787   0.572  0.0945  0.3333  0.0980
 8187SOL    HW126329   1.695   3.705   0.578  0.3303  0.4480 -0.1446
 8187SOL    HW226330   1.698   3.849   0.625  0.0502  0.3803  0.0858
 8188SOL     OW26331   9.427   8.376   9.358  0.0434  0.3009 -0.7437
 8188SOL    HW126332   9.405   8.292   9.318 -1.4130 -0.4702  1.5027
 8188SOL    HW226333   9.494   8.354   9.423 -1.8324  0.4138  1.3393
 8189SOL     OW26334   9.736   5.057   7.933  0.9925 -0.1679  0.3933
 8189SOL    HW126335   9.768   4.969   7.913  1.7203  0.1463  0.1297
 8189SOL    HW226336   9.644   5.045   7.957  1.1367 -1.0192  0.5398
 8190SOL     OW26337   5.099   2.662   3.114 -0.3371 -0.4096 -0.0792
 8190SOL    HW126338   5.075   2.603   3.185 -1.0958 -0.3651 -0.2895
 8190SOL    HW226339   5.183   2.629   3.082 -0.3860 -0.9131  0.3011
 8191SOL     OW26340   3.382   5.620   7.925  0.1397  0.3544  0.3221
 8191SOL    HW126341   3.364   5.708   7.893  1.3231  0.8845  1.0607
 8191SOL    HW226342   3.426   5.576   7.852 -1.0426  0.1393 -0.2831
 8192SOL     OW26343   7.173   3.261   7.368 -0.1961  0.5259 -0.0824
 8192SOL    HW126344   7.249   3.204   7.381 -0.9952 -0.4458  0.4190
 8192SOL    HW226345   7.193   3.308   7.287 -0.0303 -1.3362 -1.1778
 8193SOL     OW26346   8.689   2.459   6.861 -0.1453 -0.3744  0.4315
 8193SOL    HW126347   8.594   2.453   6.864 -0.2426  0.3902 -0.5459
 8193SOL    HW226348   8.714   2.404   6.787  0.2092 -0.8183  0.8700
 8194SOL     OW26349   8.640   3.278   8.504 -0.3027 -0.2006 -0.5471
 8194SOL    HW126350   8.632   3.372   8.487 -2.3858 -0.0471  0.8991
 8194SOL    HW226351   8.631   3.237   8.417 -0.2029  0.8933 -1.0902
 8195SOL     OW26352   1.674   0.777   8.372 -0.8443  0.1513  0.1381
 8195SOL    HW126353   1.751   0.833   8.362 -0.6923 -0.3682 -2.2077
 8195SOL    HW226354   1.706   0.701   8.421  0.3334 -0.3334 -1.3218
 8196SOL     OW26355   9.387   3.540   5.038 -0.2953  0.0995 -0.3237
 8196SOL    HW126356   9.411   3.474   4.974 -0.5687  0.3864 -0.7253
 8196SOL    HW226357   9.471   3.572   5.072 -0.1316 -2.0860  1.6210
 8197SOL     OW26358   6.841   6.224   1.659  0.0128 -0.1026  0.3149
 8197SOL    HW126359   6.898   6.250   1.587 -2.1579  1.8037 -0.8889
 8197SOL    HW226360   6.854   6.291   1.726  2.2933 -2.0628  2.0069
 8198SOL     OW26361   6.773   6.489   4.357  0.3884  0.2650 -0.0134
 8198SOL    HW126362   6.741   6.544   4.429  0.4394  1.7745 -1.1089
 8198SOL    HW226363   6.858   6.457   4.389  0.0855  0.3117  0.8842
 8199SOL     OW26364   0.492   8.244   2.741  0.3205  0.0726  0.2281
 8199SOL    HW126365   0.486   8.161   2.790 -1.6720  0.1308  0.1608
 8199SOL    HW226366   0.575   8.237   2.693  2.1652 -0.2108  3.1631
 8200SOL     OW26367   5.195   6.531   2.851  0.1940 -0.3731 -1.0687
 8200SOL    HW126368   5.224   6.502   2.765  0.9554 -0.3219 -0.8366
 8200SOL    HW226369   5.272   6.574   2.889 -0.3457  0.2170 -0.6394
 8201SOL     OW26370   4.949   7.073   2.722 -0.1686  0.2125 -0.0009
 8201SOL    HW126371   4.926   6.987   2.759 -0.1962  0.5447  0.7637
 8201SOL    HW226372   5.045   7.077   2.728 -0.1104 -0.0299 -0.6489
 8202SOL     OW26373   5.702   8.996   3.274  0.2754  0.4757 -0.0780
 8202SOL    HW126374   5.740   9.069   3.323 -0.0385  0.2599  0.5043
 8202SOL    HW226375   5.776   8.950   3.236  0.6500 -0.2402  1.4610
 8203SOL     OW26376   8.500   9.358   8.466  0.0859 -0.4141  0.1632
 8203SOL    HW126377   8.489   9.276   8.418  1.8650  0.6005 -2.1888
 8203SOL    HW226378   8.412   9.395   8.470 -0.6107 -1.9854  0.5219
 8204SOL     OW26379   8.189   1.981   6.915  0.5822 -0.3159 -0.1958
 8204SOL    HW126380   8.179   1.923   6.991 -1.2288  0.7934  0.4820
 8204SOL    HW226381   8.099   1.996   6.885  1.0346  1.7226 -0.6553
 8205SOL     OW26382   3.452   0.750   6.404  0.1059 -0.3521  0.5236
 8205SOL    HW126383   3.403   0.692   6.461  1.0921 -0.8937  0.8418
 8205SOL    HW226384   3.481   0.694   6.331 -0.2487  0.0932  0.0293
 8206SOL     OW26385   9.391   7.178   2.868  0.5011  0.1949 -0.1646
 8206SOL    HW126386   9.340   7.233   2.927  0.3063 -1.4070  1.2431
 8206SOL    HW226387   9.362   7.089   2.888  2.7543 -0.6437 -0.3919
 8207SOL     OW26388   0.886   1.966   0.297  0.3418  0.4160 -0.4753
 8207SOL    HW126389   0.830   1.976   0.221 -0.2187 -0.2246 -0.1617
 8207SOL    HW226390   0.828   1.977   0.372  0.7511  0.3493 -0.1430
 8208SOL     OW26391   1.388   1.659   6.537  0.7202 -0.6785  0.1856
 8208SOL    HW126392   1.331   1.734   6.551  0.2105 -1.1572  0.7496
 8208SOL    HW226393   1.414   1.664   6.445 -1.1909 -1.0989 -0.4133
 8209SOL     OW26394   6.444   8.592   1.295  0.3095  0.2901  0.1227
 8209SOL    HW126395   6.503   8.652   1.342  0.6654 -0.6405  0.8983
 8209SOL    HW226396   6.456   8.508   1.338 -1.0490 -0.0934 -0.1971
 8210SOL     OW26397   1.842   1.955   7.483 -0.2727 -0.0437 -0.2057
 8210SOL    HW126398   1.802   1.877   7.520 -1.1929  1.2558  1.6793
 8210SOL    HW226399   1.829   2.023   7.549 -0.5196  2.0048 -2.2143
 8211SOL     OW26400   9.442   2.817   3.906  0.2478  0.2158 -0.3169
 8211SOL    HW126401   9.408   2.900   3.874 -3.9151 -1.8299 -1.9419
 8211SOL    HW226402   9.398   2.751   3.854  2.6728 -3.1280  1.4585
 8212SOL     OW26403   7.736   3.204   6.760 -0.0742 -0.4904  0.2112
 8212SOL    HW126404   7.673   3.192   6.690  0.0010  0.2024  0.0205
 8212SOL    HW226405   7.798   3.270   6.726 -0.3650  0.2830  1.1355
 8213SOL     OW26406   0.414   2.820   1.475  0.5326  0.5070 -0.6754
 8213SOL    HW126407   0.500   2.790   1.448  0.0030 -1.0159 -0.7727
 8213SOL    HW226408   0.412   2.807   1.570  0.3253  0.2689 -0.7091
 8214SOL     OW26409   0.042   6.601   7.790 -0.0397  0.1060  0.2694
 8214SOL    HW126410   0.123   6.651   7.799  0.1018  0.0304 -0.4960
 8214SOL    HW226411   0.054   6.549   7.710 -0.2489 -1.0381  0.9564
 8215SOL     OW26412   3.568   5.147   2.987 -0.5725  0.3175  0.1004
 8215SOL    HW126413   3.474   5.137   3.003 -0.4653  1.0559  1.3312
 8215SOL    HW226414   3.574   5.220   2.924 -0.8163  0.5153  0.3035
 8216SOL     OW26415   9.256   3.290   1.977  0.3103 -0.2351 -0.0796
 8216SOL    HW126416   9.347   3.296   2.008 -0.3605  0.7236  1.8400
 8216SOL    HW226417   9.225   3.380   1.976 -0.9851 -0.6594  0.4572
 8217SOL     OW26418   6.319   8.594   6.120 -0.1315 -0.0783 -0.3014
 8217SOL    HW126419   6.260   8.662   6.086  0.4578  0.4323 -0.3187
 8217SOL    HW226420   6.363   8.636   6.193  1.0381 -0.0788 -0.9885
 8218SOL     OW26421   1.755   1.156   5.560 -0.7936  0.4579 -0.3849
 8218SOL    HW126422   1.845   1.128   5.541 -0.6443  0.2321  0.5979
 8218SOL    HW226423   1.718   1.177   5.474  0.2112  0.5977 -0.8000
 8219SOL     OW26424   1.538   6.076   0.610  0.3262 -0.3583  0.0515
 8219SOL    HW126425   1.611   6.127   0.575  0.3890 -0.6889 -0.3041
 8219SOL    HW226426   1.579   5.996   0.644 -0.0979 -1.5713 -2.1549
 8220SOL     OW26427   1.461   8.136   8.029  0.3517 -0.0986  0.3562
 8220SOL    HW126428   1.395   8.202   8.011  0.1483  0.1406  1.8275
 8220SOL    HW226429   1.413   8.065   8.073  1.0037 -0.0177  1.2441
 8221SOL     OW26430   5.440   6.394   6.363  0.0597 -0.1248  0.0481
 8221SOL    HW126431   5.353   6.377   6.401 -0.1763 -0.7547 -0.7481
 8221SOL    HW226432   5.499   6.393   6.438 -0.5262 -0.4216  0.5165
 8222SOL     OW26433   7.494   0.205   8.132 -0.6173 -0.4090 -0.3104
 8222SOL    HW126434   7.405   0.228   8.107 -0.1288  3.0724  0.6244
 8222SOL    HW226435   7.500   0.227   8.225  1.1181 -0.9801 -0.2406
 8223SOL     OW26436   3.104   9.683   6.173  0.3106  0.5853 -0.6326
 8223SOL    HW126437   3.176   9.620   6.167 -0.2180 -0.5387  2.6901
 8223SOL    HW226438   3.138   9.755   6.226 -0.9181  0.0434  0.9793
 8224SOL     OW26439   5.891   7.456   6.466 -0.0809 -0.1467 -0.3805
 8224SOL    HW126440   5.903   7.379   6.522 -0.0961 -1.2252 -1.8020
 8224SOL    HW226441   5.867   7.527   6.526  0.3212 -1.1536  1.0052
 8225SOL     OW26442   4.640   0.408   4.622 -0.0707 -0.2859 -0.4707
 8225SOL    HW126443   4.601   0.351   4.688 -2.1953  0.3626 -1.0726
 8225SOL    HW226444   4.587   0.488   4.625  2.3126  1.3913 -0.2113
 8226SOL     OW26445   2.718   5.347   6.100  0.0464 -0.4957 -0.5142
 8226SOL    HW126446   2.638   5.318   6.144 -0.7439  0.6648 -1.1241
 8226SOL    HW226447   2.733   5.436   6.133 -1.1407  0.8243 -3.1773
 8227SOL     OW26448   5.262   6.999   8.750 -0.6635 -0.0311 -0.3307
 8227SOL    HW126449   5.344   6.978   8.706 -0.4066 -0.0447  0.1525
 8227SOL    HW226450   5.208   6.921   8.738 -0.1578 -0.5035  0.3997
 8228SOL     OW26451   1.847   6.534   2.068 -0.3648 -0.3187 -0.4800
 8228SOL    HW126452   1.886   6.510   2.152  1.3110 -0.2216 -1.1909
 8228SOL    HW226453   1.834   6.451   2.023  1.6348 -0.2321 -1.3172
 8229SOL     OW26454   5.017   4.284   6.922 -0.1999  0.5860  0.2735
 8229SOL    HW126455   5.076   4.210   6.934  1.1093  1.2133 -1.8075
 8229SOL    HW226456   4.993   4.282   6.830 -2.7156  0.9374  0.8435
 8230SOL     OW26457   7.558   7.426   1.838 -0.0627 -0.4884 -0.1370
 8230SOL    HW126458   7.481   7.380   1.870 -0.9122  0.8610 -0.1525
 8230SOL    HW226459   7.602   7.457   1.916 -0.8497  0.7726 -0.1676
 8231SOL     OW26460   1.383   2.969   3.619 -0.4011  0.7927 -0.2527
 8231SOL    HW126461   1.382   2.985   3.713  0.0566  0.2895 -0.1599
 8231SOL    HW226462   1.380   2.873   3.611  1.9180  0.6996 -0.6953
 8232SOL     OW26463   9.368   7.131   7.669 -0.1590 -0.1896 -0.0721
 8232SOL    HW126464   9.396   7.047   7.634  0.6199 -0.4054  1.0210
 8232SOL    HW226465   9.285   7.114   7.711 -0.4990 -0.1859 -0.7254
 8233SOL     OW26466   4.999   2.721   8.324 -0.1447  0.4643 -0.3477
 8233SOL    HW126467   5.036   2.654   8.266  0.0428 -0.8550  1.2385
 8233SOL    HW226468   5.068   2.740   8.387 -0.8372  0.8169  0.3209
 8234SOL     OW26469   9.823   6.368   7.984  0.5881 -0.1384 -0.3074
 8234SOL    HW126470   9.835   6.454   7.944  1.1735  0.2656  0.6993
 8234SOL    HW226471   9.734   6.370   8.020  0.9319  0.4060  0.5340
 8235SOL     OW26472   5.312   3.296   1.352 -0.0408 -0.3791 -0.0928
 8235SOL    HW126473   5.365   3.231   1.306 -0.4584  0.0498 -1.2040
 8235SOL    HW226474   5.369   3.327   1.423  1.3084  0.2414 -1.3818
 8236SOL     OW26475   8.160   9.475   0.353  0.1731 -0.2414  0.0157
 8236SOL    HW126476   8.149   9.499   0.444  2.2225 -0.1063  0.2643
 8236SOL    HW226477   8.091   9.411   0.337 -1.0833  0.7317  1.2380
 8237SOL     OW26478   1.482   5.527   4.558 -0.0910  0.1808  0.3561
 8237SOL    HW126479   1.467   5.616   4.589  1.0362  0.4136  0.3079
 8237SOL    HW226480   1.423   5.517   4.484 -1.2032  0.3999  1.1957
 8238SOL     OW26481   2.145   2.163   7.374 -0.7926 -1.0679 -0.0141
 8238SOL    HW126482   2.117   2.112   7.450  1.0691 -0.3139  1.2438
 8238SOL    HW226483   2.212   2.108   7.333 -2.2222 -1.7598 -1.5592
 8239SOL     OW26484   2.590   8.681   7.710  0.8859  0.2996  0.2017
 8239SOL    HW126485   2.670   8.629   7.716  0.5931 -0.3084 -0.8103
 8239SOL    HW226486   2.519   8.616   7.713  0.5005  0.6594 -0.6427
 8240SOL     OW26487   2.789   3.174   3.366 -0.5722 -0.4805  0.2252
 8240SOL    HW126488   2.797   3.122   3.446  2.8992  0.4720  0.6611
 8240SOL    HW226489   2.761   3.112   3.299  1.5379 -2.5481  1.1231
 8241SOL     OW26490   7.308   8.518   4.994 -0.5475 -0.5874 -0.0334
 8241SOL    HW126491   7.321   8.476   5.079  1.6879 -0.9700 -0.4840
 8241SOL    HW226492   7.215   8.505   4.975 -0.8190 -1.6716  1.7363
 8242SOL     OW26493   9.165   2.454   4.207  0.5935 -0.1057 -0.4312
 8242SOL    HW126494   9.102   2.439   4.277  0.7023  3.2082  0.5348
 8242SOL    HW226495   9.110   2.469   4.129  0.2351  0.6115 -0.0570
 8243SOL     OW26496   1.692   3.503   3.217 -0.4306 -0.3944  0.3278
 8243SOL    HW126497   1.747   3.435   3.256  0.4338 -0.8488 -1.5801
 8243SOL    HW226498   1.722   3.585   3.258  3.7932 -0.1842 -2.5600
 8244SOL     OW26499   1.011   7.937   4.732 -0.5122  0.2112  0.7293
 8244SOL    HW126500   1.088   7.994   4.735 -0.1162 -0.0472 -1.9048
 8244SOL    HW226501   1.028   7.870   4.798  2.0669 -0.3926 -0.4139
 8245SOL     OW26502   9.378   6.369   9.458 -0.3882  0.2817  0.1694
 8245SOL    HW126503   9.372   6.311   9.533 -1.8030 -0.8363 -0.7670
 8245SOL    HW226504   9.336   6.450   9.487 -1.3775 -0.3123  0.4393
 8246SOL     OW26505   3.790   4.914   8.135  0.9672  0.3574 -0.3540
 8246SOL    HW126506   3.698   4.934   8.152  0.7816 -0.4060 -0.4394
 8246SOL    HW226507   3.814   4.970   8.061  0.4305  0.1937 -0.6541
 8247SOL     OW26508   6.501   0.258   9.602  0.2028 -0.0446 -0.5248
 8247SOL    HW126509   6.466   0.270   9.514 -0.1687  0.5195 -0.3030
 8247SOL    HW226510   6.576   0.317   9.606 -0.0239  0.2338 -0.3309
 8248SOL     OW26511   9.205   7.156   8.340  0.2798  0.8171 -0.1737
 8248SOL    HW126512   9.210   7.251   8.328  0.6145  0.7095 -1.0046
 8248SOL    HW226513   9.294   7.125   8.319  0.3215  0.3746  0.6388
 8249SOL     OW26514   9.733   5.027   8.694  0.2415  0.1494 -0.2792
 8249SOL    HW126515   9.690   4.953   8.652 -0.7107 -0.0888  1.0440
 8249SOL    HW226516   9.820   4.994   8.718  0.7470  0.2517 -1.8705
 8250SOL     OW26517   1.065   5.174   9.174 -0.1346  0.4428 -0.3343
 8250SOL    HW126518   0.997   5.113   9.147 -0.2668 -0.1573  1.2259
 8250SOL    HW226519   1.123   5.122   9.230  0.0088  1.6055  0.6591
 8251SOL     OW26520   5.686   2.774   5.232 -0.0947 -0.4465  0.0979
 8251SOL    HW126521   5.592   2.763   5.244 -0.1260  0.4532  0.7991
 8251SOL    HW226522   5.710   2.708   5.168 -0.9049 -1.8668  1.1989
 8252SOL     OW26523   1.714   4.396   2.932  0.3324  1.2456 -0.2293
 8252SOL    HW126524   1.622   4.369   2.929  0.4569  0.6237  1.0077
 8252SOL    HW226525   1.716   4.469   2.993  0.7231  0.9240  0.1532
 8253SOL     OW26526   8.558   4.898   7.655 -0.2849 -0.5738 -0.1382
 8253SOL    HW126527   8.532   4.912   7.564 -0.2411  0.9820  0.0618
 8253SOL    HW226528   8.559   4.985   7.693 -1.4937 -1.2972  1.6922
 8254SOL     OW26529   3.660   8.886   8.290 -0.0542 -0.1113 -0.0153
 8254SOL    HW126530   3.631   8.889   8.199  0.8386  1.0008 -0.2824
 8254SOL    HW226531   3.706   8.803   8.299 -1.6441 -1.0382 -0.0882
 8255SOL     OW26532   3.553   8.157   8.766 -0.2411 -0.1708 -0.0684
 8255SOL    HW126533   3.622   8.126   8.707  1.7334  2.5659  0.5917
 8255SOL    HW226534   3.510   8.227   8.717 -1.3443 -0.6293  0.2251
 8256SOL     OW26535   1.271   9.181   1.947 -0.0495 -0.1721  0.0544
 8256SOL    HW126536   1.271   9.086   1.936 -1.2136 -0.0890 -0.7485
 8256SOL    HW226537   1.178   9.205   1.952  0.2096  1.0052 -0.4916
 8257SOL     OW26538   4.784   6.151   6.798  0.0899  0.1632  0.0482
 8257SOL    HW126539   4.833   6.072   6.823  0.3378  0.4659  0.5261
 8257SOL    HW226540   4.716   6.160   6.865 -1.7109 -1.1807 -1.4920
 8258SOL     OW26541   5.418   4.384   7.915  0.4723  0.4014  0.1597
 8258SOL    HW126542   5.365   4.306   7.901 -0.6791  1.3776 -1.1853
 8258SOL    HW226543   5.505   4.360   7.884 -0.2492  0.1134 -1.7927
 8259SOL     OW26544   4.031   9.075   5.307 -0.1091 -0.3161  0.5843
 8259SOL    HW126545   4.097   9.141   5.329 -0.9921  0.5198  0.7814
 8259SOL    HW226546   3.962   9.086   5.373 -0.6136 -0.9377  0.1801
 8260SOL     OW26547   8.327   2.101   8.715 -0.1546 -0.3828  0.2474
 8260SOL    HW126548   8.401   2.155   8.742  0.6592 -1.7038  0.7537
 8260SOL    HW226549   8.312   2.043   8.789 -1.4653 -0.3941 -0.0079
 8261SOL     OW26550   0.079   0.227   1.722 -0.3688 -0.3935  0.3185
 8261SOL    HW126551   0.124   0.289   1.664 -2.2899  0.3546 -0.4684
 8261SOL    HW226552   0.063   0.151   1.666  1.0954 -1.2435  0.9994
 8262SOL     OW26553   7.891   3.571   6.781 -0.3369 -0.1135  0.3550
 8262SOL    HW126554   7.892   3.495   6.722 -1.3598 -1.3913  1.9014
 8262SOL    HW226555   7.942   3.637   6.735 -0.8526 -1.1352 -1.8375
 8263SOL     OW26556   7.917   6.889   6.168 -0.3911 -0.1173  0.0401
 8263SOL    HW126557   7.974   6.946   6.218 -1.3376  0.9541 -0.0624
 8263SOL    HW226558   7.944   6.900   6.077 -0.6039  0.2045  0.0158
 8264SOL     OW26559   9.585   4.701   1.416 -0.4191  0.4736 -0.0253
 8264SOL    HW126560   9.498   4.728   1.446 -0.5262 -0.2995  0.3801
 8264SOL    HW226561   9.596   4.744   1.331 -1.3155  0.3454 -0.2161
 8265SOL     OW26562   0.983   4.853   4.524 -0.0602 -0.2385  0.5285
 8265SOL    HW126563   1.008   4.860   4.432  2.2322  3.3329  1.2288
 8265SOL    HW226564   1.046   4.791   4.562  1.1919  0.8166  0.2517
 8266SOL     OW26565   5.464   6.632   2.486 -0.1180  0.1870  0.1423
 8266SOL    HW126566   5.471   6.553   2.538 -0.7872  0.8622  1.2942
 8266SOL    HW226567   5.493   6.606   2.398  0.1206 -1.1974  0.6154
 8267SOL     OW26568   2.087   4.232   3.850 -0.8345  0.3053 -0.1286
 8267SOL    HW126569   2.024   4.183   3.903 -1.8930  1.8809  0.1611
 8267SOL    HW226570   2.147   4.166   3.816 -1.9243 -1.1131  0.5894
 8268SOL     OW26571   8.101   5.948   5.265 -0.2651 -0.2440 -0.8137
 8268SOL    HW126572   8.069   5.860   5.288  2.3430 -1.2980 -0.9483
 8268SOL    HW226573   8.179   5.933   5.212  1.9382  2.0696  1.4694
 8269SOL     OW26574   7.032   2.697   6.104 -0.2393 -0.1640 -0.4613
 8269SOL    HW126575   7.124   2.680   6.124 -0.0714  1.0349 -0.1535
 8269SOL    HW226576   6.985   2.625   6.146  0.5686 -0.9435 -0.8558
 8270SOL     OW26577   8.136   6.203   4.942 -0.1484  0.0023 -0.1419
 8270SOL    HW126578   8.132   6.291   4.905  0.6557  0.0588 -0.1129
 8270SOL    HW226579   8.208   6.206   5.005  0.9154 -1.0817 -1.2542
 8271SOL     OW26580   2.544   7.415   7.297  0.0467  0.3691  0.4565
 8271SOL    HW126581   2.489   7.395   7.373  2.1801  0.8443  2.2170
 8271SOL    HW226582   2.618   7.355   7.305  0.0976  0.1069 -1.5486
 8272SOL     OW26583   9.173   5.217   2.163  0.0897 -0.0211 -0.2450
 8272SOL    HW126584   9.235   5.279   2.125  0.9992 -1.9447 -2.1194
 8272SOL    HW226585   9.177   5.141   2.105 -2.5636 -1.0138  0.7196
 8273SOL     OW26586   4.468   1.693   7.594 -0.5785 -0.0900  0.2470
 8273SOL    HW126587   4.424   1.774   7.572  0.1287  0.4407  0.7479
 8273SOL    HW226588   4.398   1.629   7.605 -1.0871  0.2282 -1.0142
 8274SOL     OW26589   5.637   2.801   6.769 -1.0279 -0.3021  0.0386
 8274SOL    HW126590   5.667   2.718   6.804  0.6723  1.0111  1.9067
 8274SOL    HW226591   5.711   2.861   6.783 -1.2218  0.9973 -3.4750
 8275SOL     OW26592   4.091   1.039   4.179 -0.5377  0.0140 -0.1970
 8275SOL    HW126593   4.156   0.989   4.228 -0.0607  0.2110 -0.6155
 8275SOL    HW226594   4.022   1.058   4.242 -0.6642 -1.0662 -0.0041
 8276SOL     OW26595   7.004   2.031   2.790 -0.8689 -0.0298  0.1645
 8276SOL    HW126596   6.998   1.937   2.775  0.4341 -0.0531 -0.3863
 8276SOL    HW226597   7.038   2.067   2.708 -1.7811  0.9887  0.2102
 8277SOL     OW26598   5.570   2.419   0.399 -0.8094 -0.6281 -0.1690
 8277SOL    HW126599   5.623   2.361   0.344 -0.1666 -0.5755  0.3830
 8277SOL    HW226600   5.595   2.397   0.488 -1.1800 -0.0779  0.0765
 8278SOL     OW26601   8.921   9.091   5.978  0.0033 -0.7839  0.5894
 8278SOL    HW126602   8.976   9.119   6.052 -0.8151 -1.4594  1.4697
 8278SOL    HW226603   8.866   9.167   5.960  0.4964 -0.4655  0.3762
 8279SOL     OW26604   4.200   4.073   1.847  0.2787 -0.3176 -0.0629
 8279SOL    HW126605   4.157   4.093   1.764 -0.5230  0.1235  0.4508
 8279SOL    HW226606   4.243   4.155   1.871 -1.4252  0.2743  1.0993
 8280SOL     OW26607   3.364   2.943   4.063  0.1757  0.1086 -0.1834
 8280SOL    HW126608   3.335   2.981   4.146  1.5857 -0.1255  0.4647
 8280SOL    HW226609   3.289   2.950   4.004 -1.9556 -2.4115  1.9612
 8281SOL     OW26610   9.234   6.204   7.398 -0.5835  0.6200  0.1125
 8281SOL    HW126611   9.297   6.175   7.332 -1.1504  2.2455 -1.2216
 8281SOL    HW226612   9.230   6.299   7.387 -3.9645  0.5385 -0.6020
 8282SOL     OW26613   8.675   5.687   4.805 -0.1470 -0.1494  0.7661
 8282SOL    HW126614   8.677   5.593   4.824 -0.3253 -0.6032 -1.2196
 8282SOL    HW226615   8.582   5.711   4.810  0.0722  0.4599  3.3737
 8283SOL     OW26616   3.107   1.535   9.779 -0.4207 -0.1293 -0.6530
 8283SOL    HW126617   3.060   1.562   9.857  0.6791 -1.5029  0.5404
 8283SOL    HW226618   3.172   1.604   9.764 -1.4957  0.8032 -1.1814
 8284SOL     OW26619   5.861   6.897   3.869  0.3297 -0.4370 -0.0698
 8284SOL    HW126620   5.892   6.946   3.792  2.1898 -0.9664  0.2878
 8284SOL    HW226621   5.894   6.808   3.855 -0.3559 -0.8387  0.7856
 8285SOL     OW26622   2.750   8.553   4.467  0.3691 -0.1650  0.7485
 8285SOL    HW126623   2.768   8.647   4.462 -0.9058  0.0474 -0.8095
 8285SOL    HW226624   2.714   8.540   4.554 -1.8130  1.3098  0.1630
 8286SOL     OW26625   5.485   3.382   7.067 -0.1342  0.1136  0.1594
 8286SOL    HW126626   5.390   3.383   7.064 -0.1429 -0.5440  0.1315
 8286SOL    HW226627   5.510   3.297   7.032  0.4365 -0.0345  0.8911
 8287SOL     OW26628   7.475   4.585   3.453 -0.1351  0.2062 -0.3878
 8287SOL    HW126629   7.487   4.606   3.361 -1.9145 -1.1037 -0.9527
 8287SOL    HW226630   7.517   4.500   3.464 -1.0976 -0.2588 -0.3007
 8288SOL     OW26631   4.750   2.814   8.450 -0.3707  0.5072  0.0243
 8288SOL    HW126632   4.809   2.769   8.388 -0.5875 -0.1277  0.2751
 8288SOL    HW226633   4.744   2.903   8.416 -1.7115 -0.2124 -1.7691
 8289SOL     OW26634   0.270   9.481   5.807 -0.8184  0.0287  0.1258
 8289SOL    HW126635   0.190   9.436   5.780  0.4512 -3.5427  1.6095
 8289SOL    HW226636   0.335   9.459   5.740 -0.4378  0.6158  0.2909
 8290SOL     OW26637   5.387   1.079   3.351  0.5671  0.1112 -0.4870
 8290SOL    HW126638   5.339   0.996   3.348  0.8820 -0.0947 -0.0670
 8290SOL    HW226639   5.451   1.073   3.280  1.8432 -0.8152  0.6757
 8291SOL     OW26640   9.723   8.789   3.457  0.0415  0.5157  0.2884
 8291SOL    HW126641   9.761   8.703   3.475 -0.3801  0.7497  2.6021
 8291SOL    HW226642   9.630   8.778   3.477 -0.7737  0.5795 -2.9938
 8292SOL     OW26643   6.793   3.612   6.323  0.0835  0.5142  0.4155
 8292SOL    HW126644   6.821   3.547   6.386 -0.2234  0.3084  0.3426
 8292SOL    HW226645   6.839   3.589   6.242 -0.3775  0.1061  0.2633
 8293SOL     OW26646   7.607   2.931   9.496 -0.9176  0.4254 -0.4409
 8293SOL    HW126647   7.628   2.940   9.589  0.6612 -1.7712 -0.5079
 8293SOL    HW226648   7.511   2.931   9.493 -0.9993  1.6319  1.0270
 8294SOL     OW26649   8.082   3.767   1.982 -0.2620  0.2523  0.1153
 8294SOL    HW126650   8.129   3.683   1.974 -2.1766 -0.7520 -1.2866
 8294SOL    HW226651   8.086   3.805   1.895 -0.4866  1.0373  0.4453
 8295SOL     OW26652   3.138   0.362   0.395  0.3639  0.8699  0.4203
 8295SOL    HW126653   3.105   0.355   0.306 -0.0750 -0.0440  0.6379
 8295SOL    HW226654   3.122   0.453   0.421 -1.0015  0.7222  0.1391
 8296SOL     OW26655   3.621   7.090   3.686 -0.3522 -0.3390 -0.0075
 8296SOL    HW126656   3.528   7.106   3.699 -0.4511 -1.7468  1.2308
 8296SOL    HW226657   3.649   7.042   3.764  1.2135 -0.7301 -0.7647
 8297SOL     OW26658   6.489   9.597   3.325 -0.4606  0.3916 -0.2409
 8297SOL    HW126659   6.402   9.561   3.345 -0.8370  0.5960 -1.4442
 8297SOL    HW226660   6.549   9.524   3.336 -0.7062  0.3558  1.0626
 8298SOL     OW26661   8.855   0.334   8.721  0.5263 -0.3136  0.2702
 8298SOL    HW126662   8.923   0.345   8.654  0.1167  1.8155  0.1219
 8298SOL    HW226663   8.897   0.363   8.802 -0.6449  3.0094 -0.1434
 8299SOL     OW26664   8.908   9.711   3.619 -0.1973 -0.1441 -0.9064
 8299SOL    HW126665   8.869   9.797   3.605  1.5643  1.1053  1.2453
 8299SOL    HW226666   8.840   9.661   3.663  0.4045  2.0622  3.0195
 8300SOL     OW26667   4.523   8.313   4.011 -0.5763  0.5234 -0.0007
 8300SOL    HW126668   4.572   8.275   3.938  0.1181  1.9226 -0.3010
 8300SOL    HW226669   4.440   8.267   4.010 -0.4613  0.2783 -1.4879
 8301SOL     OW26670   0.508   8.508   0.509 -0.2070 -0.1748  0.1703
 8301SOL    HW126671   0.439   8.538   0.569 -0.2829 -0.9958  0.5135
 8301SOL    HW226672   0.482   8.541   0.423 -0.0071  1.1738  0.6052
 8302SOL     OW26673   1.407   4.578   8.415 -0.1561 -0.3692 -0.0974
 8302SOL    HW126674   1.368   4.659   8.382 -0.2878 -0.3984 -0.0157
 8302SOL    HW226675   1.354   4.509   8.376  0.4727 -0.4504 -0.8492
 8303SOL     OW26676   1.496   2.885   5.413  0.4325  0.1744 -0.0826
 8303SOL    HW126677   1.441   2.874   5.490 -0.7465 -1.0596 -1.0626
 8303SOL    HW226678   1.495   2.980   5.396  0.8283  0.4805  1.4674
 8304SOL     OW26679   9.731   3.994   3.424  0.2935  0.0879  0.0807
 8304SOL    HW126680   9.791   3.939   3.374  0.1585  0.7954 -0.8941
 8304SOL    HW226681   9.651   3.995   3.373  0.8104  2.4838 -0.8361
 8305SOL     OW26682   6.279   1.139   7.936 -0.4140 -0.0341 -0.6578
 8305SOL    HW126683   6.189   1.138   7.905 -0.6945 -1.7978  0.1109
 8305SOL    HW226684   6.274   1.116   8.028  0.7780  0.6124 -0.4011
 8306SOL     OW26685   3.298   4.381   3.995 -0.2544  0.7997 -0.1526
 8306SOL    HW126686   3.379   4.406   3.951  0.9645 -1.9692  0.3248
 8306SOL    HW226687   3.289   4.443   4.067  2.9083 -0.2981  1.3656
 8307SOL     OW26688   4.803   2.778   7.870  0.4528  0.1342  0.3073
 8307SOL    HW126689   4.795   2.871   7.887  0.3859 -0.0681  1.4956
 8307SOL    HW226690   4.738   2.759   7.803 -0.3275  0.7378  0.8872
 8308SOL     OW26691   9.653   1.525   5.265 -0.3026 -0.2468  0.0071
 8308SOL    HW126692   9.729   1.500   5.319  0.5434 -0.0883 -1.0616
 8308SOL    HW226693   9.619   1.604   5.306  0.0456 -0.3808  0.5707
 8309SOL     OW26694   3.990   8.213   8.874 -0.1730 -0.9348 -0.2184
 8309SOL    HW126695   4.027   8.299   8.854  1.4136 -1.4515  0.3341
 8309SOL    HW226696   3.898   8.230   8.895 -0.5610  0.2983 -2.5556
 8310SOL     OW26697   5.992   5.989   8.225  0.2460 -0.3916  0.0968
 8310SOL    HW126698   5.919   5.930   8.241 -0.8457  0.3704 -1.7517
 8310SOL    HW226699   5.953   6.064   8.179  2.0659  0.3884 -0.2732
 8311SOL     OW26700   3.448   5.689   1.705 -0.1554  0.3492  0.4601
 8311SOL    HW126701   3.470   5.676   1.797 -0.6357  0.4144  0.5904
 8311SOL    HW226702   3.455   5.601   1.667 -1.0918  0.1018  0.8227
 8312SOL     OW26703   6.740   6.871   8.318 -0.0997  0.1772  0.6109
 8312SOL    HW126704   6.765   6.956   8.281 -2.8178  0.6308 -0.4066
 8312SOL    HW226705   6.671   6.892   8.382 -0.5064 -1.2240  0.6712
 8313SOL     OW26706   2.354   0.606   0.668  0.0291  0.1263  0.0238
 8313SOL    HW126707   2.402   0.559   0.737 -0.6041  1.3172  1.3244
 8313SOL    HW226708   2.407   0.684   0.651 -0.5818  0.6046  0.2761
 8314SOL     OW26709   3.342   7.768   4.612 -0.0626 -0.5075  0.0671
 8314SOL    HW126710   3.311   7.798   4.698 -0.5281  0.2683 -0.3645
 8314SOL    HW226711   3.268   7.779   4.554  0.5761  0.0093 -0.6709
 8315SOL     OW26712   7.854   6.447   0.016 -0.4422 -0.1272  0.0785
 8315SOL    HW126713   7.839   6.468  -0.076 -0.4714  0.8179  0.2831
 8315SOL    HW226714   7.767   6.437   0.054 -0.4339 -0.3283  0.0454
 8316SOL     OW26715   4.725   5.456   6.387  0.2002  0.7930  0.1526
 8316SOL    HW126716   4.770   5.481   6.307  1.6932 -1.1315  0.3161
 8316SOL    HW226717   4.640   5.424   6.357  0.5081  0.6565 -0.6107
 8317SOL     OW26718   2.272   9.753   8.173  0.3109 -0.1168  0.1453
 8317SOL    HW126719   2.364   9.748   8.200  0.8996  0.5226 -1.6404
 8317SOL    HW226720   2.261   9.680   8.112  0.5395  1.5637 -2.0506
 8318SOL     OW26721   7.244   2.180   5.275  0.9737  0.4321 -0.1683
 8318SOL    HW126722   7.318   2.121   5.264  0.4772 -0.1267 -0.5708
 8318SOL    HW226723   7.226   2.213   5.187  1.0035  0.8861 -0.0079
 8319SOL     OW26724   7.548   1.439   0.258 -0.0491  0.1272  0.2445
 8319SOL    HW126725   7.461   1.475   0.280 -0.7108  0.3110 -2.3219
 8319SOL    HW226726   7.598   1.515   0.228  0.8623 -0.0735  1.1904
 8320SOL     OW26727   9.418   2.334   0.880 -0.0467 -0.2479  0.1927
 8320SOL    HW126728   9.359   2.403   0.849 -1.2717 -0.1662  2.5165
 8320SOL    HW226729   9.368   2.253   0.871  1.2840 -0.9056 -2.2528
 8321SOL     OW26730   6.257   3.562   8.377  0.3777 -0.5413  0.4790
 8321SOL    HW126731   6.304   3.641   8.350  1.1090 -0.9447  0.5532
 8321SOL    HW226732   6.194   3.546   8.307 -0.3515  0.5763  0.8576
 8322SOL     OW26733   3.622   2.662   3.760 -0.2459 -0.5579  0.3205
 8322SOL    HW126734   3.603   2.745   3.803  0.6360  0.4875 -1.1982
 8322SOL    HW226735   3.539   2.614   3.762 -0.8174  0.4377  1.0725
 8323SOL     OW26736   6.066   6.123   0.815 -0.7013 -0.6200 -0.1186
 8323SOL    HW126737   5.974   6.125   0.839 -1.0831 -1.0843 -1.4468
 8323SOL    HW226738   6.066   6.127   0.719  0.6577 -0.5467 -0.1341
 8324SOL     OW26739   6.986   4.518   9.847 -0.1338 -0.5020  0.1072
 8324SOL    HW126740   7.019   4.517   9.937  0.2442  0.4227 -0.0059
 8324SOL    HW226741   6.999   4.608   9.818 -0.1273 -0.8207 -0.9195
 8325SOL     OW26742   5.282   9.381   3.010  0.1878  0.4794 -0.3628
 8325SOL    HW126743   5.260   9.409   2.921  0.8553  0.1550 -0.6304
 8325SOL    HW226744   5.375   9.361   3.008  0.1183  0.0276  0.2962
 8326SOL     OW26745   3.474   9.446   2.015  0.0109  0.7040 -0.4637
 8326SOL    HW126746   3.550   9.460   1.958  0.9860 -1.1265  0.2967
 8326SOL    HW226747   3.486   9.507   2.088  0.2130  1.1290 -0.8527
 8327SOL     OW26748   1.578   3.495   5.524 -0.0276  0.0214 -0.2686
 8327SOL    HW126749   1.633   3.447   5.462  1.8852  1.5485  0.1812
 8327SOL    HW226750   1.630   3.571   5.550 -0.9231 -0.3003  2.8835
 8328SOL     OW26751   0.247   2.336   2.291 -0.4433  0.7514  0.2177
 8328SOL    HW126752   0.251   2.241   2.280 -3.5850  0.6168 -0.7653
 8328SOL    HW226753   0.257   2.371   2.202  3.1544  1.6263  0.8091
 8329SOL     OW26754   6.865   6.090   4.380  0.2502 -0.1158 -0.2498
 8329SOL    HW126755   6.859   6.037   4.459  0.4958 -1.5419 -1.1515
 8329SOL    HW226756   6.788   6.147   4.383  0.2541 -0.1510  0.9965
 8330SOL     OW26757   6.125   0.607   3.544 -0.9114  0.5803  0.2610
 8330SOL    HW126758   6.094   0.695   3.566  0.3037  0.8938  0.8154
 8330SOL    HW226759   6.212   0.621   3.506 -1.5152 -0.2431 -1.4999
 8331SOL     OW26760   9.516   8.347   3.920  0.0066  0.3036 -0.5197
 8331SOL    HW126761   9.433   8.387   3.946  0.6799  0.4901  1.5468
 8331SOL    HW226762   9.576   8.420   3.907  0.0041  0.1450 -1.5086
 8332SOL     OW26763   6.665   4.697   6.380 -0.5910  0.6461 -0.8233
 8332SOL    HW126764   6.647   4.788   6.400  0.2392  0.7608 -0.5802
 8332SOL    HW226765   6.706   4.699   6.293  2.2753  0.8318  0.4312
 8333SOL     OW26766   6.456   7.964   0.173 -0.0630 -0.0704 -0.0379
 8333SOL    HW126767   6.541   7.987   0.210  0.3420  0.1072 -1.0513
 8333SOL    HW226768   6.393   8.018   0.222  0.5238  0.6129 -0.0332
 8334SOL     OW26769   1.453   8.271   4.752  0.5502  0.7116  0.6349
 8334SOL    HW126770   1.496   8.345   4.796  2.8675 -0.8127  1.0967
 8334SOL    HW226771   1.408   8.224   4.823  1.1432  0.3267  0.7583
 8335SOL     OW26772   6.948   9.557   9.603 -0.5988 -0.0087  0.0804
 8335SOL    HW126773   6.876   9.606   9.644 -0.6439  1.6279 -1.7639
 8335SOL    HW226774   6.904   9.495   9.544 -0.5579  1.0509 -1.1110
 8336SOL     OW26775   2.128   3.631   4.493  0.1050  0.0957  0.3257
 8336SOL    HW126776   2.119   3.633   4.588 -0.2899 -0.5563  0.3041
 8336SOL    HW226777   2.117   3.539   4.470  0.5041  0.2070 -0.3223
 8337SOL     OW26778   7.166   1.370   6.902  1.2525  0.8442  0.3754
 8337SOL    HW126779   7.173   1.296   6.962  2.0098  2.1866  2.0400
 8337SOL    HW226780   7.138   1.443   6.958 -0.3973  1.6281 -1.3775
 8338SOL     OW26781   1.942   2.811   9.575  0.3240 -0.2959  0.6375
 8338SOL    HW126782   1.984   2.896   9.559  2.5025 -1.4239  0.0260
 8338SOL    HW226783   1.920   2.778   9.488  0.3162 -0.7698  0.8162
 8339SOL     OW26784   1.506   6.954   8.986  0.3118 -0.4052 -0.3152
 8339SOL    HW126785   1.446   6.963   9.060 -0.5285 -2.0050 -0.7420
 8339SOL    HW226786   1.562   7.031   8.990 -1.7157  1.1299  0.1683
 8340SOL     OW26787   1.498   2.080   1.378 -0.4413 -0.0405 -0.4105
 8340SOL    HW126788   1.412   2.114   1.404 -0.1008 -1.0153  2.3634
 8340SOL    HW226789   1.481   1.988   1.356 -0.3824  0.2795 -1.9409
 8341SOL     OW26790   8.808   7.378   1.286 -0.2792 -0.2550 -0.8036
 8341SOL    HW126791   8.819   7.313   1.216  2.0236 -1.2806  0.4295
 8341SOL    HW226792   8.730   7.349   1.334 -0.9979 -0.3817 -1.9942
 8342SOL     OW26793   5.544   4.354   5.762 -0.1766 -0.2131  0.1545
 8342SOL    HW126794   5.593   4.402   5.828  0.4220  1.6914 -1.5600
 8342SOL    HW226795   5.477   4.416   5.732  0.5211 -0.4036 -2.0199
 8343SOL     OW26796   4.635   7.956   6.166  0.1447  0.1291 -0.5545
 8343SOL    HW126797   4.630   7.923   6.076 -1.7163 -3.5889  0.7324
 8343SOL    HW226798   4.551   8.000   6.179 -0.9158 -2.0006  0.1899
 8344SOL     OW26799   8.138   2.541   7.142  0.0401 -0.0316  0.1997
 8344SOL    HW126800   8.112   2.627   7.109  1.1564  0.2246 -0.0367
 8344SOL    HW226801   8.187   2.502   7.070 -0.4812 -0.8898  0.2947
 8345SOL     OW26802   3.820   8.823   6.279 -0.6950 -0.2842 -0.2737
 8345SOL    HW126803   3.795   8.915   6.278 -1.9632 -0.5941  0.7193
 8345SOL    HW226804   3.749   8.778   6.326  0.6422 -1.5356  0.6798
 8346SOL     OW26805   3.209   1.352   9.188 -0.3703  0.0928  0.6622
 8346SOL    HW126806   3.172   1.398   9.264  0.8874  1.5476  0.4617
 8346SOL    HW226807   3.301   1.339   9.211 -0.7769 -3.0412  0.9824
 8347SOL     OW26808   1.462   2.891   1.588  0.0153  0.2678  0.0151
 8347SOL    HW126809   1.406   2.959   1.549 -0.2156 -1.0078 -2.0187
 8347SOL    HW226810   1.549   2.909   1.554 -0.1603 -0.7832 -1.0260
 8348SOL     OW26811   3.135   2.657   3.509  0.2924 -0.2054 -0.2022
 8348SOL    HW126812   3.218   2.653   3.557  0.6041  1.7127 -0.4828
 8348SOL    HW226813   3.160   2.676   3.419 -0.4407 -0.0540 -0.3798
 8349SOL     OW26814   5.887   1.404   7.160  0.3294  0.0052  0.2961
 8349SOL    HW126815   5.866   1.475   7.098  0.2828  0.6221  1.0012
 8349SOL    HW226816   5.869   1.324   7.112 -1.2807  0.4882  0.0499
 8350SOL     OW26817   6.635   9.374   3.377 -0.2870 -0.4944  0.0104
 8350SOL    HW126818   6.635   9.300   3.437  0.9977 -1.1208 -0.7356
 8350SOL    HW226819   6.596   9.341   3.297 -0.4824 -0.1162 -0.0562
 8351SOL     OW26820   6.712   5.352   7.039  0.3435 -0.1585 -0.1404
 8351SOL    HW126821   6.697   5.257   7.040  0.2626 -0.1581 -0.6976
 8351SOL    HW226822   6.795   5.362   6.994  1.4524 -0.0798  1.8182
 8352SOL     OW26823   3.403   8.736   2.101  0.8607 -0.4730 -0.6270
 8352SOL    HW126824   3.491   8.773   2.096  0.4982  0.4718 -0.3183
 8352SOL    HW226825   3.390   8.719   2.194  1.0847 -1.5848 -0.7786
 8353SOL     OW26826   1.446   4.492   7.137  0.2515 -0.2276 -0.1252
 8353SOL    HW126827   1.491   4.407   7.139  0.3993 -0.1780 -1.1807
 8353SOL    HW226828   1.414   4.503   7.227 -0.7418 -1.9251 -0.2096
 8354SOL     OW26829   0.656   0.652   3.335  0.7989  0.1896  0.0323
 8354SOL    HW126830   0.620   0.627   3.250  1.3005  2.0051 -0.7561
 8354SOL    HW226831   0.748   0.626   3.330  1.1588  1.4919 -0.5335
 8355SOL     OW26832   6.146   8.008   8.350 -0.2828  0.1259 -0.4731
 8355SOL    HW126833   6.087   7.934   8.343 -0.1600  0.0426 -0.6324
 8355SOL    HW226834   6.234   7.971   8.339 -0.0143 -0.0921  1.8495
 8356SOL     OW26835   0.917   7.343   6.326 -0.3640 -0.0880  0.1951
 8356SOL    HW126836   1.007   7.312   6.320 -0.3536 -0.7843  2.9460
 8356SOL    HW226837   0.864   7.265   6.310 -0.4062 -0.4139  1.8232
 8357SOL     OW26838   5.192   2.210   1.235  0.6560 -0.7434 -0.4719
 8357SOL    HW126839   5.182   2.125   1.279  1.2128  0.4864  2.2687
 8357SOL    HW226840   5.286   2.219   1.222  0.6268 -0.4226 -0.4578
 8358SOL     OW26841   1.615   5.627   6.044 -0.0332  0.2455  0.4281
 8358SOL    HW126842   1.586   5.703   6.095  0.4772  0.5149  0.3257
 8358SOL    HW226843   1.636   5.662   5.958  0.6473  0.0745  0.5181
 8359SOL     OW26844   1.332   2.293   4.186 -0.5705  0.2609 -0.5156
 8359SOL    HW126845   1.387   2.218   4.210 -0.3018 -0.0410 -1.9468
 8359SOL    HW226846   1.257   2.289   4.245  0.0122 -0.4537  0.1895
 8360SOL     OW26847   5.827   2.739   2.654 -0.2844 -0.2979 -0.0900
 8360SOL    HW126848   5.828   2.701   2.742  2.6936  0.3552  0.2602
 8360SOL    HW226849   5.888   2.812   2.659 -0.1589 -0.1465 -2.6630
 8361SOL     OW26850   9.758   2.916   8.177  0.0782 -0.1200  0.3045
 8361SOL    HW126851   9.683   2.875   8.219  0.6870 -0.9785  0.5837
 8361SOL    HW226852   9.783   2.987   8.236 -0.7545  0.4373  0.0028
 8362SOL     OW26853   6.356   9.101   7.386 -0.0724  0.3056 -0.1501
 8362SOL    HW126854   6.393   9.183   7.419 -3.1453  0.9890  2.1101
 8362SOL    HW226855   6.326   9.121   7.297 -0.7669  1.6942  0.3657
 8363SOL     OW26856   3.184   2.606   1.547  0.3331  0.5718 -0.2090
 8363SOL    HW126857   3.165   2.674   1.482  0.2309 -1.4598 -2.4319
 8363SOL    HW226858   3.169   2.524   1.501  1.9699 -1.0196  1.8930
 8364SOL     OW26859   4.064   1.967   7.182  0.1969  0.1683  0.1389
 8364SOL    HW126860   3.985   2.021   7.182 -0.2519 -0.4731 -0.5998
 8364SOL    HW226861   4.057   1.913   7.261 -1.1470 -1.3514 -0.9639
 8365SOL     OW26862   2.183   6.561   1.894  0.1666 -0.3845 -0.0984
 8365SOL    HW126863   2.152   6.650   1.876 -0.4781 -0.6143 -0.1351
 8365SOL    HW226864   2.160   6.511   1.815  0.7973 -0.5232 -0.2052
 8366SOL     OW26865   0.811   2.590   2.787  0.3685  0.3259 -0.0856
 8366SOL    HW126866   0.892   2.640   2.781  1.5031 -1.5673 -1.6595
 8366SOL    HW226867   0.760   2.618   2.710  0.1009  0.5375  0.1650
 8367SOL     OW26868   2.323   4.680   3.824  0.3293  0.0176 -0.4012
 8367SOL    HW126869   2.297   4.598   3.867 -0.1744  0.2068 -0.3276
 8367SOL    HW226870   2.242   4.732   3.823  0.7321  0.6596 -0.1102
 8368SOL     OW26871   9.282   9.717   9.176 -0.6791  0.4423 -0.0077
 8368SOL    HW126872   9.332   9.789   9.214 -1.5186  1.3917 -0.6570
 8368SOL    HW226873   9.197   9.755   9.156 -0.9614 -0.5917 -0.8538
 8369SOL     OW26874   4.674   6.592   7.857  0.5559 -0.0200 -0.2140
 8369SOL    HW126875   4.762   6.589   7.893  0.5466 -3.4099 -0.0988
 8369SOL    HW226876   4.685   6.625   7.768  1.6590  1.2640  0.3761
 8370SOL     OW26877   2.938   7.055   6.320  0.1782  0.1005  0.4104
 8370SOL    HW126878   2.985   7.132   6.287  0.7186  0.0961  1.1523
 8370SOL    HW226879   2.947   7.060   6.415 -1.0881 -0.0655  0.5576
 8371SOL     OW26880   8.909   0.679   4.744  0.4089  0.2572  0.3909
 8371SOL    HW126881   8.881   0.770   4.740 -0.2282  0.0226 -2.3547
 8371SOL    HW226882   8.868   0.644   4.824  0.1629  2.1803  1.1504
 8372SOL     OW26883   5.698   9.421   3.871 -0.8464  0.9360  0.2297
 8372SOL    HW126884   5.790   9.416   3.847 -0.3161 -0.8109  2.3843
 8372SOL    HW226885   5.696   9.475   3.949 -1.3699 -0.5390  1.2712
 8373SOL     OW26886   9.721   3.440   2.218  0.7732  1.1879  0.4803
 8373SOL    HW126887   9.719   3.479   2.305 -1.2757 -0.5839  1.3083
 8373SOL    HW226888   9.771   3.359   2.230  0.8054  1.1196 -0.0998
 8374SOL     OW26889   1.285   6.490   7.017 -0.2780  0.2418  0.0327
 8374SOL    HW126890   1.347   6.424   6.986 -0.7791 -1.6369  2.6210
 8374SOL    HW226891   1.333   6.539   7.084 -0.6427  0.9119 -0.1860
 8375SOL     OW26892   5.390   8.414   5.927 -0.0373  0.3308 -0.3616
 8375SOL    HW126893   5.407   8.320   5.938 -0.1141  0.4924  1.6452
 8375SOL    HW226894   5.463   8.456   5.974  0.8686  1.3457 -2.5513
 8376SOL     OW26895   1.177   3.331   7.598  0.2269  0.3612  0.1594
 8376SOL    HW126896   1.145   3.324   7.508  1.0077 -3.5577  0.0286
 8376SOL    HW226897   1.110   3.287   7.651  0.0554  2.1106  1.4793
 8377SOL     OW26898   1.564   6.657   7.856  0.2284  0.0996  0.2202
 8377SOL    HW126899   1.560   6.570   7.896  0.9571 -0.6934 -1.3423
 8377SOL    HW226900   1.591   6.715   7.928  0.3808 -1.0563  1.1374
 8378SOL     OW26901   5.427   2.084   5.577  0.0190  0.1785 -0.6884
 8378SOL    HW126902   5.371   2.131   5.639  0.1326  0.9586 -1.1599
 8378SOL    HW226903   5.367   2.058   5.506 -0.2804 -1.4557  0.1215
 8379SOL     OW26904   7.069   1.942   0.414  0.4030  0.2724  0.1410
 8379SOL    HW126905   7.032   2.022   0.452 -0.5264 -0.0002 -0.1707
 8379SOL    HW226906   7.141   1.974   0.358  0.8155  0.7852  0.9451
 8380SOL     OW26907   7.550   9.547   3.985 -0.0663  0.5270  0.5039
 8380SOL    HW126908   7.496   9.600   4.045 -0.5290  0.0249  0.5441
 8380SOL    HW226909   7.489   9.520   3.917  0.7193  2.0936 -0.8865
 8381SOL     OW26910   9.362   2.756   0.933  0.8681  0.2350 -0.7219
 8381SOL    HW126911   9.391   2.848   0.932 -0.7751  0.7869 -0.9218
 8381SOL    HW226912   9.307   2.748   0.854 -1.5732  0.0035  0.8946
 8382SOL     OW26913   6.818   0.689   6.300 -0.3243  0.0729  0.5556
 8382SOL    HW126914   6.827   0.754   6.230 -0.4509 -0.5027 -0.0056
 8382SOL    HW226915   6.903   0.691   6.345 -0.6855  1.3766  1.2240
 8383SOL     OW26916   4.096   9.229   7.266  0.1767  0.6026 -0.4244
 8383SOL    HW126917   4.056   9.200   7.184  1.0455 -1.7593 -0.0893
 8383SOL    HW226918   4.093   9.325   7.261 -1.0554  0.5271 -2.5577
 8384SOL     OW26919   7.550   4.383   6.581  0.0689 -0.0780  0.0592
 8384SOL    HW126920   7.550   4.389   6.677 -2.2626 -0.0871  0.1285
 8384SOL    HW226921   7.508   4.464   6.552  0.0414 -0.4198 -0.9066
 8385SOL     OW26922   3.552   3.953   3.333  0.0550  0.1261 -0.2160
 8385SOL    HW126923   3.595   4.011   3.396 -0.9533 -0.3928  1.0137
 8385SOL    HW226924   3.582   3.866   3.357  0.0449 -0.0343 -0.7876
 8386SOL     OW26925   9.173   5.012   7.844  0.1827 -0.2534 -0.4576
 8386SOL    HW126926   9.092   5.027   7.794  0.0045 -0.9867 -0.4091
 8386SOL    HW226927   9.178   5.086   7.904 -0.1062  0.1436 -0.9172
 8387SOL     OW26928   5.642   5.707   6.769 -0.3541  0.2215 -0.0035
 8387SOL    HW126929   5.651   5.741   6.680 -2.3035  1.8360  0.3458
 8387SOL    HW226930   5.624   5.614   6.757  1.7743 -0.0922 -1.1518
 8388SOL     OW26931   1.446   3.220   1.696 -0.0005 -0.3894  0.5890
 8388SOL    HW126932   1.440   3.170   1.615  2.2062  1.1965 -0.6282
 8388SOL    HW226933   1.398   3.301   1.678  1.5282  0.5037  0.3756
 8389SOL     OW26934   8.734   3.695   3.289 -0.2031 -0.7154  0.0904
 8389SOL    HW126935   8.733   3.787   3.264  0.0535 -1.3155 -2.4167
 8389SOL    HW226936   8.642   3.672   3.302 -0.1852  0.1858  2.2195
 8390SOL     OW26937   1.804   0.831   3.314 -0.1540 -0.6049  0.3205
 8390SOL    HW126938   1.818   0.794   3.227  2.0192 -1.5875  1.0136
 8390SOL    HW226939   1.880   0.802   3.365 -0.4050  1.5045  2.0360
 8391SOL     OW26940   5.244   2.447   7.150  0.0398  0.3006 -0.1436
 8391SOL    HW126941   5.301   2.497   7.208  1.0979  1.3308 -1.9724
 8391SOL    HW226942   5.300   2.377   7.116 -1.1194 -1.5488  1.5349
 8392SOL     OW26943   9.243   9.387   1.882 -0.2514 -0.3422  0.2095
 8392SOL    HW126944   9.233   9.294   1.901 -0.3565 -0.3961 -0.1087
 8392SOL    HW226945   9.337   9.401   1.878 -0.2397 -0.5353 -0.2357
 8393SOL     OW26946   1.180   0.274   1.232  0.2172 -0.1385  0.1272
 8393SOL    HW126947   1.167   0.369   1.239  2.2247  0.1268  0.7856
 8393SOL    HW226948   1.189   0.258   1.138 -0.2131  0.2852  0.0051
 8394SOL     OW26949   8.260   3.527   4.657 -0.1145  0.0686  0.2546
 8394SOL    HW126950   8.304   3.606   4.687 -0.4567 -0.0025  0.9818
 8394SOL    HW226951   8.329   3.475   4.616  0.5686 -0.1673  1.6233
 8395SOL     OW26952   9.753   2.177   8.849  0.3114 -0.4460 -0.4731
 8395SOL    HW126953   9.843   2.196   8.823  0.4708  1.1728  1.0882
 8395SOL    HW226954   9.699   2.237   8.797  0.3726  0.4274  0.4352
 8396SOL     OW26955   3.598   6.038   0.606  0.2083  0.4012  0.2147
 8396SOL    HW126956   3.582   6.103   0.675  0.1277 -1.8305  2.4532
 8396SOL    HW226957   3.513   5.996   0.594  0.4037  0.2677 -0.7295
 8397SOL     OW26958   0.525   7.136   1.388 -0.0074  0.5818 -0.7138
 8397SOL    HW126959   0.593   7.070   1.378 -0.2222  0.2637 -0.1280
 8397SOL    HW226960   0.443   7.086   1.389 -0.1905  0.8822 -0.5242
 8398SOL     OW26961   6.739   1.442   5.909 -0.4235 -0.1210 -0.3452
 8398SOL    HW126962   6.814   1.473   5.960  0.1686 -2.2883  0.2083
 8398SOL    HW226963   6.775   1.424   5.822  0.0361 -2.2587  0.2349
 8399SOL     OW26964   2.932   8.258   4.427 -0.0111 -0.2800 -0.3203
 8399SOL    HW126965   2.973   8.194   4.485 -1.4874 -1.6222 -0.6636
 8399SOL    HW226966   2.894   8.323   4.486  1.5937  0.3677  0.0324
 8400SOL     OW26967   8.419   7.652   1.261 -0.2553 -0.1829 -0.3185
 8400SOL    HW126968   8.505   7.611   1.249 -0.6921 -1.3358  0.2832
 8400SOL    HW226969   8.358   7.578   1.259 -1.2147  0.6126 -0.5966
 8401SOL     OW26970   6.325   9.731   4.746 -0.0174  0.2449 -0.2725
 8401SOL    HW126971   6.371   9.684   4.676 -1.1573  1.0116 -1.5856
 8401SOL    HW226972   6.342   9.823   4.728  0.4572  0.4270  1.0420
 8402SOL     OW26973   3.922   7.924   9.139 -0.7211  0.0572 -0.0913
 8402SOL    HW126974   3.957   7.870   9.068 -0.2823 -0.1979  0.3136
 8402SOL    HW226975   3.840   7.959   9.104  0.3837  1.4115 -1.3986
 8403SOL     OW26976   8.422   8.555   2.071 -0.5612 -0.2980 -0.4010
 8403SOL    HW126977   8.413   8.596   2.157 -0.5847  1.3029 -1.1352
 8403SOL    HW226978   8.342   8.503   2.060  0.0056 -1.5472  1.0304
 8404SOL     OW26979   3.552   9.176   2.626  0.4007 -0.2962  0.1951
 8404SOL    HW126980   3.624   9.136   2.578 -0.4537 -0.0203 -1.3897
 8404SOL    HW226981   3.583   9.181   2.717  1.7550 -1.5752 -0.1624
 8405SOL     OW26982   0.906   7.051   6.042 -0.1012 -0.3115 -0.1035
 8405SOL    HW126983   0.990   7.041   5.997 -0.8632 -0.7399 -1.5126
 8405SOL    HW226984   0.842   7.018   5.979 -1.4792  1.4864  0.2815
 8406SOL     OW26985   2.058   0.187   1.711 -0.3261 -0.9244 -0.5792
 8406SOL    HW126986   1.971   0.225   1.726 -0.4993 -1.5879  0.1125
 8406SOL    HW226987   2.100   0.189   1.797 -0.3359 -2.2811 -0.5217
 8407SOL     OW26988   4.038   1.376   1.712 -0.2427 -0.2569  0.6464
 8407SOL    HW126989   3.956   1.381   1.761 -0.1831 -0.7129  0.8010
 8407SOL    HW226990   4.018   1.418   1.628 -0.1485  1.1676  1.3035
 8408SOL     OW26991   5.670   0.251   1.533  0.3436 -0.3035  0.2193
 8408SOL    HW126992   5.620   0.295   1.464  0.0383  1.7153  1.6297
 8408SOL    HW226993   5.757   0.238   1.495 -0.5221 -1.6939 -1.4350
 8409SOL     OW26994   3.755   0.254   5.787 -0.2603  0.7699  0.0106
 8409SOL    HW126995   3.817   0.253   5.714  0.5078 -0.9303  0.6386
 8409SOL    HW226996   3.681   0.305   5.755 -0.2483 -0.4738 -2.2021
 8410SOL     OW26997   7.723   4.762   3.858 -0.2474  0.7750 -0.0664
 8410SOL    HW126998   7.767   4.846   3.875 -1.3181  1.4764 -0.6784
 8410SOL    HW226999   7.630   4.782   3.865 -0.6537  0.2860 -2.8965
 8411SOL     OW27000   4.451   5.216   7.947 -0.0891 -0.4553 -0.2239
 8411SOL    HW127001   4.488   5.302   7.967 -0.2286 -0.3872 -0.2606
 8411SOL    HW227002   4.520   5.154   7.971 -0.0090 -0.3359 -0.1486
 8412SOL     OW27003   4.076   7.070   4.107 -0.5493  0.0569 -0.0962
 8412SOL    HW127004   4.134   7.038   4.176  0.4541  0.0159 -0.9275
 8412SOL    HW227005   4.123   7.146   4.070 -1.3932  0.5004 -0.2678
 8413SOL     OW27006   5.086   6.158   6.771  0.0700  0.1209 -0.1596
 8413SOL    HW127007   5.056   6.244   6.798 -3.1057 -1.3670  1.5535
 8413SOL    HW227008   5.059   6.150   6.679 -1.4708  0.2403  0.2647
 8414SOL     OW27009   3.761   6.289   6.850 -0.0141 -0.1518  0.3113
 8414SOL    HW127010   3.758   6.194   6.837 -0.2114 -0.2650  1.1157
 8414SOL    HW227011   3.780   6.299   6.944 -0.0379  0.6023  0.2359
 8415SOL     OW27012   8.107   3.629   3.488 -0.5628 -0.2498  0.2124
 8415SOL    HW127013   8.161   3.619   3.566 -2.3807 -0.0716  1.5439
 8415SOL    HW227014   8.106   3.542   3.448  2.1124  0.1075 -0.9010
 8416SOL     OW27015   0.107   1.219   6.592  0.6258 -0.0604 -0.1574
 8416SOL    HW127016   0.094   1.311   6.571  3.6137  0.2328 -1.1517
 8416SOL    HW227017   0.163   1.219   6.670 -0.1078 -1.0904  0.4118
 8417SOL     OW27018   8.739   7.839   9.407  0.3157  1.0870 -0.6344
 8417SOL    HW127019   8.788   7.837   9.489 -2.2035 -0.7186  0.9748
 8417SOL    HW227020   8.790   7.784   9.347  0.9852  0.4452  0.4951
 8418SOL     OW27021   1.542   7.803   8.174  0.1948 -0.3125 -0.4052
 8418SOL    HW127022   1.616   7.864   8.170 -0.9151  1.0311 -1.5922
 8418SOL    HW227023   1.571   7.735   8.234  2.3855  0.1702 -0.8201
 8419SOL     OW27024   3.813   9.241   1.271  0.1509  0.1354  0.1821
 8419SOL    HW127025   3.770   9.158   1.292 -0.5571  0.6069  0.6441
 8419SOL    HW227026   3.787   9.259   1.181  1.4184 -0.8066 -0.4073
 8420SOL     OW27027   0.634   7.954   9.737 -0.3636  0.4108 -0.2847
 8420SOL    HW127028   0.597   8.021   9.795 -1.1392  0.2087 -0.5316
 8420SOL    HW227029   0.716   7.992   9.706 -0.2466  0.7827  0.4469
 8421SOL     OW27030   9.435   1.638   7.689  0.0683  0.4633  0.4311
 8421SOL    HW127031   9.438   1.646   7.784  2.3820 -0.4094  0.5169
 8421SOL    HW227032   9.450   1.727   7.656 -0.2353  0.6824  0.8824
 8422SOL     OW27033   1.598   8.560   1.863  0.7662 -0.1283 -0.0004
 8422SOL    HW127034   1.612   8.475   1.904 -1.1906 -1.0202 -1.0258
 8422SOL    HW227035   1.504   8.578   1.876  1.1014  1.8325  0.0905
 8423SOL     OW27036   9.069   7.885   6.479  0.1778  0.3152 -0.0031
 8423SOL    HW127037   9.133   7.911   6.545  0.4553  0.2057 -0.2272
 8423SOL    HW227038   9.121   7.843   6.411 -0.1035  0.4514 -0.3041
 8424SOL     OW27039   6.170   9.245   1.607 -0.2395 -0.2847  0.0821
 8424SOL    HW127040   6.171   9.172   1.545  1.4909 -1.2426  1.1319
 8424SOL    HW227041   6.237   9.305   1.575 -1.0159  0.4153 -0.2663
 8425SOL     OW27042   5.965   5.499   5.112 -0.2419  0.4150 -0.1926
 8425SOL    HW127043   5.967   5.583   5.157 -1.9367 -0.0110  0.7602
 8425SOL    HW227044   5.883   5.500   5.062  0.9376  0.3164 -2.2285
 8426SOL     OW27045   1.356   6.810   0.945 -0.2288 -0.0095  0.0530
 8426SOL    HW127046   1.315   6.791   0.860 -0.6539 -0.0906  0.2736
 8426SOL    HW227047   1.395   6.897   0.934 -0.6588  0.1665 -0.0864
 8427SOL     OW27048   1.437   2.092   6.949  0.5334  0.3542 -0.1751
 8427SOL    HW127049   1.432   2.054   7.037 -0.0290  0.2391 -0.2523
 8427SOL    HW227050   1.353   2.136   6.937  0.8215  0.8413 -0.4464
 8428SOL     OW27051   6.410   0.859   9.074  0.0833  0.2502 -0.2097
 8428SOL    HW127052   6.495   0.850   9.117 -0.6510 -2.3469  0.8748
 8428SOL    HW227053   6.425   0.827   8.985 -0.1745 -2.4698  0.6420
 8429SOL     OW27054   4.788   4.918   3.958  0.0509  0.2909 -0.1391
 8429SOL    HW127055   4.744   4.938   3.875  1.2835 -1.5572 -1.3065
 8429SOL    HW227056   4.881   4.922   3.937  0.3907 -0.0358  1.2222
 8430SOL     OW27057   0.078   3.871   4.321 -0.4132 -0.4026  0.3394
 8430SOL    HW127058   0.120   3.801   4.371  1.4539  0.2718 -0.1809
 8430SOL    HW227059  -0.016   3.855   4.330 -0.0540 -2.1792  1.3259
 8431SOL     OW27060   2.905   5.282   3.764 -0.2109 -0.1829 -0.0235
 8431SOL    HW127061   2.970   5.352   3.765 -0.5178  0.1858  2.9210
 8431SOL    HW227062   2.867   5.285   3.676  1.4562  1.7213 -0.7516
 8432SOL     OW27063   6.542   6.125   5.808 -0.2382 -0.1072  0.2923
 8432SOL    HW127064   6.474   6.062   5.785 -0.5717 -0.2159  1.5144
 8432SOL    HW227065   6.624   6.082   5.783 -0.5288 -0.5444  0.0769
 8433SOL     OW27066   0.526   5.292   9.675  0.3752 -0.1002  0.1642
 8433SOL    HW127067   0.504   5.258   9.761  0.3684 -3.0360 -0.8987
 8433SOL    HW227068   0.600   5.239   9.646  2.0022  2.4268 -0.7172
 8434SOL     OW27069   7.690   2.930   9.772  0.0545  0.5567 -0.0220
 8434SOL    HW127070   7.626   2.960   9.837  0.9998  0.7284  0.8449
 8434SOL    HW227071   7.770   2.977   9.793  0.8333 -0.6037 -0.2993
 8435SOL     OW27072   7.964   3.814   1.121  0.3180 -0.6442 -0.2766
 8435SOL    HW127073   7.973   3.842   1.212 -0.9616 -0.4360 -0.1920
 8435SOL    HW227074   8.041   3.849   1.077  0.1221  0.6859  0.3934
 8436SOL     OW27075   8.486   3.686   4.390  0.3626  0.1150 -0.0425
 8436SOL    HW127076   8.473   3.597   4.359  1.9573  0.2904 -1.3338
 8436SOL    HW227077   8.549   3.724   4.329  0.7244  1.7141  1.2565
 8437SOL     OW27078   3.937   5.667   4.485 -0.4816 -0.0703 -0.4321
 8437SOL    HW127079   3.848   5.652   4.515 -0.7926 -1.1426 -1.7695
 8437SOL    HW227080   3.986   5.691   4.564 -2.0631  1.2035  0.2141
 8438SOL     OW27081   6.476   9.658   0.688  0.3292 -0.1481 -0.4821
 8438SOL    HW127082   6.565   9.624   0.696  0.0201 -0.6444  1.3386
 8438SOL    HW227083   6.460   9.661   0.594  1.7348 -1.4433 -0.8064
 8439SOL     OW27084   5.508   7.200   1.266  0.4937  0.4944  0.0666
 8439SOL    HW127085   5.460   7.270   1.311 -0.7849 -0.1926 -0.1839
 8439SOL    HW227086   5.441   7.136   1.243  1.1525  0.6213 -2.4633
 8440SOL     OW27087   9.848   1.221   3.471 -0.6304  0.3258  0.0625
 8440SOL    HW127088   9.760   1.236   3.506  0.0345  2.5380  0.9567
 8440SOL    HW227089   9.880   1.308   3.449  0.3295 -0.6573 -2.8913
 8441SOL     OW27090   9.669   2.468   9.322 -0.3822 -0.2809 -0.2428
 8441SOL    HW127091   9.686   2.377   9.299  0.0830 -0.4557  0.7422
 8441SOL    HW227092   9.754   2.501   9.353 -0.5492  0.4841 -0.5751
 8442SOL     OW27093   3.010   0.323   6.904  0.3838 -0.7875 -0.4940
 8442SOL    HW127094   2.931   0.375   6.916  1.9522  1.5973  0.2693
 8442SOL    HW227095   2.982   0.232   6.915 -2.0672  0.0328  0.6016
 8443SOL     OW27096   7.052   7.920   8.995 -0.2326 -0.4338 -0.3824
 8443SOL    HW127097   7.104   7.882   9.065 -0.9980  0.0427  0.4640
 8443SOL    HW227098   7.109   7.984   8.953  0.3689 -1.0275 -0.4745
 8444SOL     OW27099   3.181   6.543   0.493 -0.7439  0.5847 -0.0708
 8444SOL    HW127100   3.272   6.519   0.509 -0.0604  2.4390 -0.9245
 8444SOL    HW227101   3.151   6.481   0.427 -0.1557 -0.1109  0.3028
 8445SOL     OW27102   7.686   6.061   9.272 -0.4134  0.0204  0.1094
 8445SOL    HW127103   7.656   6.058   9.363  1.5029 -0.2476  0.7715
 8445SOL    HW227104   7.607   6.045   9.221 -1.1716 -2.1276  1.7987
 8446SOL     OW27105   6.668   1.785   5.245  0.2569 -0.2180  0.4696
 8446SOL    HW127106   6.581   1.813   5.272  0.5990  2.5005 -0.9292
 8446SOL    HW227107   6.728   1.852   5.279  1.2919  0.2413 -2.0240
 8447SOL     OW27108   1.821   0.656   3.078 -0.5542  0.1676  0.4528
 8447SOL    HW127109   1.738   0.617   3.049  0.2354 -1.6219  0.4614
 8447SOL    HW227110   1.874   0.581   3.106  0.6526  1.3721  1.5502
 8448SOL     OW27111   2.343   8.584   9.424 -0.1988  0.3363 -0.3700
 8448SOL    HW127112   2.303   8.671   9.423 -0.3433  0.2768 -0.0805
 8448SOL    HW227113   2.325   8.551   9.512 -0.0849  0.0405 -0.4565
 8449SOL     OW27114   4.294   6.057   5.164  0.2185 -0.5531 -0.1442
 8449SOL    HW127115   4.320   6.094   5.080 -0.7267  3.2097  1.0189
 8449SOL    HW227116   4.201   6.037   5.153 -0.5484  2.1968  0.5384
 8450SOL     OW27117   3.497   8.626   2.491  0.3024 -0.4299 -0.0219
 8450SOL    HW127118   3.589   8.651   2.487  0.9152 -2.3925  0.6725
 8450SOL    HW227119   3.450   8.700   2.453  2.1178  0.8240  0.0653
 8451SOL     OW27120   0.725   0.216   4.839  0.0751 -0.7587 -0.3193
 8451SOL    HW127121   0.807   0.241   4.881  0.6515 -1.0026 -1.2641
 8451SOL    HW227122   0.708   0.127   4.869 -0.1785 -0.4797  0.3703
 8452SOL     OW27123   3.235   1.349   5.622 -0.3142 -0.3441  1.1723
 8452SOL    HW127124   3.330   1.349   5.638 -0.2396  1.4135  0.9513
 8452SOL    HW227125   3.197   1.375   5.706 -0.4627  0.8071  0.7589
 8453SOL     OW27126   9.592   4.018   5.378  0.3235 -0.3978  0.0775
 8453SOL    HW127127   9.512   4.062   5.348  1.3536  0.6903 -1.2609
 8453SOL    HW227128   9.575   3.925   5.363 -0.4776 -0.1398 -0.7552
 8454SOL     OW27129   3.430   9.636   6.743 -0.4283 -0.0992  0.2969
 8454SOL    HW127130   3.430   9.700   6.814 -0.1177  1.0093 -0.6638
 8454SOL    HW227131   3.353   9.659   6.690 -1.3950 -1.7106  0.9323
 8455SOL     OW27132   5.793   8.097   3.747  0.2233 -0.0820 -0.2751
 8455SOL    HW127133   5.872   8.088   3.801  0.4795  0.6242 -0.5158
 8455SOL    HW227134   5.775   8.191   3.748 -0.3809 -0.1912 -0.5606
 8456SOL     OW27135   3.284   7.741   7.200 -0.3652  0.4015 -0.0500
 8456SOL    HW127136   3.195   7.753   7.168 -0.4655 -0.3334 -0.0780
 8456SOL    HW227137   3.277   7.669   7.264  0.3080 -0.1128 -0.5333
 8457SOL     OW27138   5.250   2.033   4.908 -0.7156  0.3752 -0.6229
 8457SOL    HW127139   5.230   1.971   4.978 -2.0516 -0.2849 -1.5302
 8457SOL    HW227140   5.310   2.096   4.947 -1.5678  0.1351  1.1564
 8458SOL     OW27141   4.317   8.862   9.588  0.2288 -0.1642  0.0471
 8458SOL    HW127142   4.265   8.864   9.507 -0.4100  0.3604  0.4617
 8458SOL    HW227143   4.393   8.917   9.569 -0.1041  0.2632 -0.0843
 8459SOL     OW27144   0.762   4.175   7.437 -0.2688  0.3096 -0.0039
 8459SOL    HW127145   0.694   4.108   7.441  0.9407 -1.0396 -0.9424
 8459SOL    HW227146   0.764   4.213   7.525 -0.0377 -1.8951  1.0025
 8460SOL     OW27147   2.107   3.021   3.550  0.1410 -0.2974  0.5985
 8460SOL    HW127148   2.195   3.006   3.515  0.0224 -0.8849  0.5260
 8460SOL    HW227149   2.086   3.111   3.525  0.9408  0.0449  1.1126
 8461SOL     OW27150   7.360   4.486   1.098 -0.4075  0.3951 -0.0875
 8461SOL    HW127151   7.287   4.442   1.055  1.1656 -1.8218 -0.6407
 8461SOL    HW227152   7.363   4.449   1.186  0.9672 -0.7442 -0.5736
 8462SOL     OW27153   7.569   4.292   0.909 -0.3658  0.4744  0.1172
 8462SOL    HW127154   7.552   4.386   0.908 -0.4801  0.4550  0.2045
 8462SOL    HW227155   7.488   4.253   0.942 -0.0533  0.4028  0.8241
 8463SOL     OW27156   2.264   4.792   4.876 -0.6410  0.3328  0.1795
 8463SOL    HW127157   2.359   4.807   4.866 -0.7644  1.2350  0.2720
 8463SOL    HW227158   2.229   4.805   4.788 -0.6265 -0.5162  0.0369
 8464SOL     OW27159   5.297   2.530   3.777 -0.1099  0.9782  0.1805
 8464SOL    HW127160   5.282   2.556   3.868  0.2916 -0.9181  0.8323
 8464SOL    HW227161   5.231   2.464   3.760  0.6308  0.3929 -0.4938
 8465SOL     OW27162   3.791   5.431   5.434  0.1849 -0.0059 -0.1071
 8465SOL    HW127163   3.699   5.418   5.454 -0.0607  1.1812 -0.3688
 8465SOL    HW227164   3.791   5.496   5.364  1.2377  0.5364  0.3715
 8466SOL     OW27165   7.075   0.930   8.047  0.3179  0.3156 -0.2634
 8466SOL    HW127166   7.093   0.859   7.985  1.7686 -0.7536  1.2720
 8466SOL    HW227167   7.078   0.888   8.133 -2.4488  1.5941  0.5489
 8467SOL     OW27168   4.626   3.134   3.146 -0.6379 -0.0203 -0.3656
 8467SOL    HW127169   4.581   3.213   3.118 -1.5846 -1.2119 -2.4735
 8467SOL    HW227170   4.665   3.098   3.066  0.1568 -1.4352  0.6002
 8468SOL     OW27171   8.920   0.336   9.603 -0.0747 -0.2467 -0.8307
 8468SOL    HW127172   8.912   0.414   9.658  1.4090 -0.0808 -0.8209
 8468SOL    HW227173   8.869   0.357   9.524 -0.2166  0.4683 -0.5529
 8469SOL     OW27174   1.828   0.312   1.849  0.8405  0.4482 -0.4096
 8469SOL    HW127175   1.846   0.386   1.908  0.4516  1.0289 -1.0107
 8469SOL    HW227176   1.819   0.351   1.763  2.1987 -0.4939 -1.0059
 8470SOL     OW27177   4.668   0.339   9.282 -0.1564  0.0497 -0.5579
 8470SOL    HW127178   4.683   0.264   9.340  0.2329  0.1451 -0.5301
 8470SOL    HW227179   4.696   0.415   9.333  1.1557  0.0441 -1.2135
 8471SOL     OW27180   3.898   7.604   6.689 -0.8218  0.0589  0.3449
 8471SOL    HW127181   3.968   7.601   6.755  0.3647  0.1858 -0.8726
 8471SOL    HW227182   3.936   7.564   6.611 -2.6584 -1.3482  0.0964
 8472SOL     OW27183   4.025   3.384   4.566 -0.5682 -0.2674  0.6370
 8472SOL    HW127184   4.091   3.314   4.567  0.7953  0.9647  0.3460
 8472SOL    HW227185   3.963   3.357   4.499  1.5145  0.1147 -1.5978
 8473SOL     OW27186   9.324   3.581   2.671 -0.4435 -0.1839 -0.5612
 8473SOL    HW127187   9.236   3.582   2.633  0.1378  0.3229 -1.9196
 8473SOL    HW227188   9.362   3.498   2.642 -0.3623 -0.2729 -0.2085
 8474SOL     OW27189   6.274   0.749   1.606  0.8715  0.2356  0.2256
 8474SOL    HW127190   6.219   0.729   1.530 -0.7115 -0.3347  1.4536
 8474SOL    HW227191   6.251   0.681   1.670  0.8718  1.6989  1.8397
 8475SOL     OW27192   7.897   6.860   4.036 -0.3088  0.2890 -0.0148
 8475SOL    HW127193   7.971   6.911   4.069  1.3360 -0.5058 -2.2108
 8475SOL    HW227194   7.932   6.771   4.029 -2.4454 -0.7872  1.7004
 8476SOL     OW27195   4.463   2.138   3.596  0.7251  0.0977  0.2641
 8476SOL    HW127196   4.545   2.174   3.561  2.0467 -1.7790  1.2381
 8476SOL    HW227197   4.450   2.184   3.679  3.2297 -2.4614  2.2647
 8477SOL     OW27198   4.562   3.839   6.097  0.4024  0.1317 -0.0421
 8477SOL    HW127199   4.482   3.858   6.146  1.1863  2.2344  0.5218
 8477SOL    HW227200   4.589   3.924   6.062  3.1695 -0.2291  1.0091
 8478SOL     OW27201   3.578   7.252   1.320  0.2229 -0.1656 -0.3167
 8478SOL    HW127202   3.574   7.207   1.405 -0.8140  0.4840 -0.0025
 8478SOL    HW227203   3.671   7.248   1.296  0.4841 -0.6636  0.6826
 8479SOL     OW27204   7.183   1.325   4.939 -0.2939 -0.0313 -0.5832
 8479SOL    HW127205   7.228   1.397   4.983  0.2466 -0.3140 -0.6651
 8479SOL    HW227206   7.091   1.348   4.943 -0.3599 -0.5068  1.5483
 8480SOL     OW27207   3.131   3.982   3.506 -0.1592 -0.0602 -0.1384
 8480SOL    HW127208   3.176   4.066   3.499 -0.9573  0.3975  0.1699
 8480SOL    HW227209   3.190   3.920   3.462 -0.1891  0.8846 -1.5702
 8481SOL     OW27210   5.270   2.840   1.483 -0.6494 -0.3814 -0.3972
 8481SOL    HW127211   5.291   2.885   1.401  0.4004 -1.1373 -0.5668
 8481SOL    HW227212   5.175   2.844   1.488 -0.6365  0.9582 -0.9058
 8482SOL     OW27213   2.686   3.355   9.469  0.0155  0.7838 -0.5603
 8482SOL    HW127214   2.712   3.263   9.476 -1.9024  0.2607  0.1286
 8482SOL    HW227215   2.699   3.390   9.557  0.9729  1.2674 -0.8765
 8483SOL     OW27216   4.340   7.894   9.549  0.1956  0.0886 -0.2601
 8483SOL    HW127217   4.312   7.979   9.582 -1.7807 -0.7412  0.3172
 8483SOL    HW227218   4.330   7.901   9.454 -3.2881 -0.5033 -0.0705
 8484SOL     OW27219   6.302   6.663   6.530 -0.0538  0.2397 -0.0112
 8484SOL    HW127220   6.212   6.649   6.561  0.2510  1.6207  1.7028
 8484SOL    HW227221   6.356   6.609   6.588  0.2884 -0.0085 -0.5539
 8485SOL     OW27222   4.913   2.115   7.766 -0.5236  0.0366  0.4394
 8485SOL    HW127223   5.000   2.115   7.805 -0.1509 -0.8126 -0.3673
 8485SOL    HW227224   4.855   2.091   7.839 -0.0220  0.0212  0.8404
 8486SOL     OW27225   3.395   4.380   9.378 -0.0228 -0.0411  0.6097
 8486SOL    HW127226   3.301   4.376   9.361 -0.2821 -0.9691  2.0689
 8486SOL    HW227227   3.401   4.391   9.473  1.3517  0.2296  0.5056
 8487SOL     OW27228   7.826   8.826   6.911  0.1362  0.5479  0.6024
 8487SOL    HW127229   7.896   8.890   6.917  0.6593 -0.0871  1.5287
 8487SOL    HW227230   7.850   8.757   6.973  1.7424 -2.6693 -3.1395
 8488SOL     OW27231   3.778   0.643   0.596  0.5207  0.3532 -0.1821
 8488SOL    HW127232   3.698   0.608   0.636  0.8041  0.4352  0.4608
 8488SOL    HW227233   3.755   0.732   0.569  0.4799  0.4721  0.2485
 8489SOL     OW27234   0.480   6.872   2.320  0.3520 -0.0044  0.3838
 8489SOL    HW127235   0.463   6.865   2.226  2.5122 -0.9975 -0.0003
 8489SOL    HW227236   0.474   6.782   2.353 -1.1556  0.4232  1.3962
 8490SOL     OW27237   7.044   5.125   2.080 -0.4151 -0.1142 -0.0589
 8490SOL    HW127238   7.019   5.035   2.060  1.4527 -0.3907 -1.3148
 8490SOL    HW227239   7.028   5.134   2.174 -0.3743 -1.8363  0.1396
 8491SOL     OW27240   0.272   1.981   4.345  0.2058 -0.2809  0.3420
 8491SOL    HW127241   0.246   2.031   4.267  1.7262 -0.6558 -0.4482
 8491SOL    HW227242   0.191   1.940   4.375 -0.2003 -1.2643 -1.8926
 8492SOL     OW27243   6.324   7.793   7.187 -0.5380 -0.5441 -0.1251
 8492SOL    HW127244   6.276   7.714   7.162  0.6067 -1.3233  0.0346
 8492SOL    HW227245   6.395   7.798   7.123  0.5417 -0.7581  1.0296
 8493SOL     OW27246   2.453   4.853   2.122  0.2942 -0.2044  0.7951
 8493SOL    HW127247   2.547   4.843   2.113  0.2590  0.4973 -0.5523
 8493SOL    HW227248   2.440   4.882   2.213  1.3705 -0.1839  0.9526
 8494SOL     OW27249   3.367   8.023   8.175  0.4018 -0.2304  0.1369
 8494SOL    HW127250   3.359   8.086   8.104  1.5917  2.2939  2.0656
 8494SOL    HW227251   3.453   7.982   8.162  0.7662  0.4739  0.2344
 8495SOL     OW27252   8.517   7.222   4.514  0.0947  0.3087 -0.2183
 8495SOL    HW127253   8.583   7.209   4.581  0.0761 -0.5824 -0.3638
 8495SOL    HW227254   8.565   7.218   4.431 -0.1972 -0.8670 -0.3490
 8496SOL     OW27255   7.305   3.835   7.886  0.4118 -0.1559 -0.2441
 8496SOL    HW127256   7.270   3.841   7.797  4.2026 -0.6750 -1.9517
 8496SOL    HW227257   7.395   3.804   7.875  0.4410 -2.2548  3.9751
 8497SOL     OW27258   1.031   4.941   1.728 -0.2973  0.6419 -0.5400
 8497SOL    HW127259   1.031   5.017   1.669 -0.8518  0.5686 -0.6402
 8497SOL    HW227260   1.056   4.976   1.813  1.2601  0.6307 -0.9555
 8498SOL     OW27261   1.144   3.503   9.579 -0.2014  0.5091 -0.7990
 8498SOL    HW127262   1.056   3.516   9.544  0.3342 -0.7190 -2.7821
 8498SOL    HW227263   1.165   3.412   9.559  0.2414 -0.3397  2.8373
 8499SOL     OW27264   2.705   1.873   4.877 -0.0476 -0.3475 -0.1105
 8499SOL    HW127265   2.614   1.892   4.900  0.3291  0.5078  0.7385
 8499SOL    HW227266   2.744   1.958   4.857  1.8926  0.1675  4.5712
 8500SOL     OW27267   6.607   8.625   6.982  0.4271  0.0642  0.0020
 8500SOL    HW127268   6.627   8.693   7.047 -0.0517  1.0970 -0.8966
 8500SOL    HW227269   6.546   8.667   6.921  0.4435 -1.0471 -0.8122
 8501SOL     OW27270   2.238   2.946   9.812 -0.3116  0.3541 -0.0440
 8501SOL    HW127271   2.174   2.980   9.749 -1.1367 -0.5630  0.2783
 8501SOL    HW227272   2.260   3.022   9.866 -0.6216  0.8352 -0.5809
 8502SOL     OW27273   8.728   7.679   5.298 -0.2934 -0.1391  0.2328
 8502SOL    HW127274   8.754   7.732   5.373  1.3585 -0.4710 -0.0688
 8502SOL    HW227275   8.718   7.590   5.333 -3.7500  0.3375  0.8877
 8503SOL     OW27276   6.802   6.974   6.427 -0.4631 -0.4937  0.6742
 8503SOL    HW127277   6.877   7.023   6.393 -0.3122  0.0157  1.7135
 8503SOL    HW227278   6.828   6.947   6.514 -1.1590 -1.0833  0.7061
 8504SOL     OW27279   9.715   2.192   4.082  0.1689 -0.0840  0.1551
 8504SOL    HW127280   9.697   2.284   4.102  0.4638  0.1850 -0.7683
 8504SOL    HW227281   9.634   2.147   4.104  0.2268  0.2876  1.2316
 8505SOL     OW27282   4.338   7.899   0.640 -0.3829  0.2347  0.3535
 8505SOL    HW127283   4.406   7.900   0.707  0.3808  0.4644 -0.4071
 8505SOL    HW227284   4.259   7.928   0.686  0.0012 -0.1512  1.2755
 8506SOL     OW27285   2.246   4.241   4.905  0.1327  0.7138 -0.1956
 8506SOL    HW127286   2.272   4.332   4.899 -0.0808  0.7678 -0.3085
 8506SOL    HW227287   2.237   4.224   4.999 -0.1350  0.8949 -0.1879
 8507SOL     OW27288   7.891   1.338   4.878  0.6301  0.4467  0.2128
 8507SOL    HW127289   7.850   1.291   4.805  1.0023  0.3567  0.0582
 8507SOL    HW227290   7.858   1.294   4.956 -0.7143  1.3062  0.1556
 8508SOL     OW27291   4.164   7.028   3.122  0.4258 -0.6958 -0.1227
 8508SOL    HW127292   4.248   7.062   3.151  1.6777 -1.9979 -1.9632
 8508SOL    HW227293   4.137   6.968   3.192  2.5936 -2.6025 -0.8032
 8509SOL     OW27294   6.525   5.650   0.668  0.0859 -1.0158  0.5075
 8509SOL    HW127295   6.531   5.556   0.686 -0.1949 -0.6495  2.9812
 8509SOL    HW227296   6.504   5.689   0.753  2.0037  1.4844 -0.0443
 8510SOL     OW27297   9.509   3.271   4.396 -0.3326  0.2045 -0.4806
 8510SOL    HW127298   9.514   3.195   4.455  0.0785  0.9686  0.4868
 8510SOL    HW227299   9.427   3.314   4.421 -0.9428 -0.3175 -1.5359
 8511SOL     OW27300   2.188   5.781   6.234 -0.5030  0.2309 -0.7119
 8511SOL    HW127301   2.179   5.828   6.317  0.7219 -0.2122 -0.3072
 8511SOL    HW227302   2.280   5.789   6.211  0.0328 -2.7935 -0.0983
 8512SOL     OW27303   8.107   8.791   6.658 -0.5840  0.2375  0.0541
 8512SOL    HW127304   8.199   8.770   6.644 -0.3483  1.5642 -0.4835
 8512SOL    HW227305   8.092   8.870   6.607 -1.7095  0.7649  1.1478
 8513SOL     OW27306   6.539   8.185   8.644  0.5251 -1.4167 -0.3144
 8513SOL    HW127307   6.590   8.209   8.566 -0.9387  1.7600 -0.4514
 8513SOL    HW227308   6.451   8.168   8.610  0.0572 -0.7711  0.5601
 8514SOL     OW27309   7.991   4.753   6.322 -0.3543  0.1107  0.0330
 8514SOL    HW127310   8.073   4.800   6.332 -0.9346  1.3890 -0.9966
 8514SOL    HW227311   8.016   4.667   6.288  0.6089  0.1040  0.7018
 8515SOL     OW27312   7.969   2.327   0.142  0.3902 -0.0857 -0.0908
 8515SOL    HW127313   7.978   2.260   0.210  0.0842  0.1321  0.1623
 8515SOL    HW227314   8.044   2.311   0.084 -0.1976 -1.2706 -0.5631
 8516SOL     OW27315   0.626   2.001   6.286 -0.2967  0.0895 -0.2230
 8516SOL    HW127316   0.552   1.953   6.250 -1.0893  0.6137  0.6641
 8516SOL    HW227317   0.619   1.989   6.381 -0.4388  1.8324  0.0211
 8517SOL     OW27318   3.944   8.655   2.327 -0.4747  0.1453 -0.5090
 8517SOL    HW127319   4.027   8.650   2.375 -0.3365  2.0010 -0.4812
 8517SOL    HW227320   3.966   8.696   2.244 -0.9684 -1.7214 -1.6154
 8518SOL     OW27321   8.091   2.118   4.741  0.0224 -0.1363 -0.5816
 8518SOL    HW127322   8.092   2.022   4.742  2.2285 -0.1626 -0.4149
 8518SOL    HW227323   8.056   2.142   4.827 -0.1848 -0.7733 -0.4770
 8519SOL     OW27324   1.571   8.630   7.953 -0.1949  0.1018 -0.1625
 8519SOL    HW127325   1.650   8.636   8.007 -1.5628  3.8376  1.7555
 8519SOL    HW227326   1.602   8.643   7.864  1.5441 -0.8077  0.2612
 8520SOL     OW27327   1.519   7.325   8.535 -0.0427 -0.9625 -0.6935
 8520SOL    HW127328   1.509   7.293   8.445  0.8587 -2.1569 -0.3947
 8520SOL    HW227329   1.583   7.266   8.574  0.2829  0.1178  0.4630
 8521SOL     OW27330   0.723   1.343   5.820 -0.3776  0.0916 -0.0155
 8521SOL    HW127331   0.748   1.412   5.880 -1.3232 -0.1218  0.6566
 8521SOL    HW227332   0.730   1.262   5.871 -0.7976 -0.1364 -0.3031
 8522SOL     OW27333   3.981   5.223   5.779 -0.0417  0.3300  0.1354
 8522SOL    HW127334   4.004   5.287   5.711  0.3156 -0.5573 -0.6000
 8522SOL    HW227335   3.998   5.269   5.861 -0.1808  1.3176 -0.3738
 8523SOL     OW27336   4.063   0.569   1.654  0.2708 -0.6479 -0.3526
 8523SOL    HW127337   4.095   0.489   1.695  0.1723  0.1649  1.4188
 8523SOL    HW227338   4.028   0.621   1.726  0.2845  0.9843 -1.4504
 8524SOL     OW27339   5.840   0.767   4.690 -0.7249 -0.0600  0.4239
 8524SOL    HW127340   5.916   0.736   4.640  0.0714 -1.5521  2.4104
 8524SOL    HW227341   5.856   0.735   4.779 -3.1392  0.6036  1.1619
 8525SOL     OW27342   8.015   3.159   2.040 -0.0299 -0.2780 -0.2017
 8525SOL    HW127343   7.968   3.195   2.115  0.1442  1.4692 -0.8930
 8525SOL    HW227344   7.953   3.167   1.967  0.4073 -0.3809 -0.5878
 8526SOL     OW27345   0.172   0.508   8.651 -0.3108  0.2679  0.3329
 8526SOL    HW127346   0.191   0.431   8.598  0.0655  0.5122  0.1063
 8526SOL    HW227347   0.253   0.559   8.649 -0.6579  0.8252  0.2046
 8527SOL     OW27348   4.058   5.653   0.895 -0.4020 -0.0871 -0.0462
 8527SOL    HW127349   4.010   5.732   0.871  1.1486  0.4875 -1.4987
 8527SOL    HW227350   3.997   5.582   0.876 -1.4155  0.6852  0.1888
 8528SOL     OW27351   9.323   7.116   5.721 -0.5599 -0.0837  0.4052
 8528SOL    HW127352   9.254   7.164   5.767  0.2045  1.4918 -0.0079
 8528SOL    HW227353   9.321   7.151   5.632  0.8831  0.1399  0.4421
 8529SOL     OW27354   9.241   4.084   0.700  0.2398 -0.3935  0.8119
 8529SOL    HW127355   9.164   4.132   0.732  0.6455  0.5146  0.4555
 8529SOL    HW227356   9.213   3.993   0.700 -1.3288  0.0222 -0.5787
 8530SOL     OW27357   8.878   7.622   8.352 -0.6533  0.5497  0.5162
 8530SOL    HW127358   8.799   7.675   8.363 -1.7978 -0.2176 -2.9203
 8530SOL    HW227359   8.845   7.532   8.340  0.9936 -0.3169  2.0073
 8531SOL     OW27360   7.283   6.410   8.090 -0.1499  0.4652  0.0379
 8531SOL    HW127361   7.208   6.431   8.146 -0.1349  0.3055  0.1189
 8531SOL    HW227362   7.270   6.463   8.011 -1.4925 -1.1381 -0.8889
 8532SOL     OW27363   5.449   5.612   8.847  0.2905  0.4234 -0.1477
 8532SOL    HW127364   5.456   5.685   8.785 -1.4036  0.2797 -0.5702
 8532SOL    HW227365   5.419   5.653   8.928 -0.1817  0.2681 -0.2413
 8533SOL     OW27366   2.004   9.011   2.113 -0.2647 -0.1427  0.5850
 8533SOL    HW127367   1.910   8.993   2.114 -0.3754  0.4117  1.1851
 8533SOL    HW227368   2.043   8.940   2.164 -0.0407 -1.8888 -1.9045
 8534SOL     OW27369   1.383   7.334   2.449 -0.1944  0.1816 -0.0729
 8534SOL    HW127370   1.411   7.266   2.510 -0.1939  0.2955  0.0546
 8534SOL    HW227371   1.460   7.391   2.439  0.5504 -1.0301 -1.8662
 8535SOL     OW27372   2.893   2.340   0.415  0.2879  0.3345  0.0855
 8535SOL    HW127373   2.895   2.413   0.354  1.8777 -0.2299 -0.5858
 8535SOL    HW227374   2.915   2.379   0.500  0.8606  0.6725 -0.2157
 8536SOL     OW27375   1.693   0.915   3.701  0.2159 -0.4769 -0.2855
 8536SOL    HW127376   1.753   0.869   3.642  0.1370 -1.3053  0.2510
 8536SOL    HW227377   1.669   0.849   3.766 -2.5927 -0.7205 -1.4170
 8537SOL     OW27378   5.355   5.402   6.011 -0.2957  0.2816  0.2356
 8537SOL    HW127379   5.433   5.347   6.019 -0.2068  0.6646  2.5608
 8537SOL    HW227380   5.374   5.458   5.935 -0.1909 -2.4545 -1.9185
 8538SOL     OW27381   8.218   3.679   8.374  0.5269 -0.7703  0.6380
 8538SOL    HW127382   8.177   3.641   8.451 -0.6679 -2.0515 -0.5827
 8538SOL    HW227383   8.305   3.638   8.370  1.2416  0.5125  2.1582
 8539SOL     OW27384   3.644   2.814   9.462 -0.3091 -0.4782  0.1307
 8539SOL    HW127385   3.738   2.827   9.446 -0.6653  0.8958 -0.9924
 8539SOL    HW227386   3.610   2.902   9.478 -1.5848 -0.8446 -0.4856
 8540SOL     OW27387   1.397   0.932   9.796 -0.0915 -0.2042 -0.0161
 8540SOL    HW127388   1.472   0.951   9.740 -0.5880 -0.3755 -0.7475
 8540SOL    HW227389   1.407   0.992   9.870  0.6794 -0.1201 -0.1780
 8541SOL     OW27390   3.204   7.661   8.954 -0.1171 -0.6002  0.4493
 8541SOL    HW127391   3.184   7.626   8.868 -0.8124  1.3957 -0.2445
 8541SOL    HW227392   3.298   7.647   8.965  0.4700  1.1783 -1.6611
 8542SOL     OW27393   6.469   6.834   6.986 -0.6827  0.1070 -0.2565
 8542SOL    HW127394   6.493   6.916   7.030 -0.1875 -0.8652  1.3922
 8542SOL    HW227395   6.432   6.779   7.056 -3.3003 -0.2357 -1.7686
 8543SOL     OW27396   2.434   4.711   4.548 -0.1295 -0.5797  0.1741
 8543SOL    HW127397   2.366   4.775   4.523 -1.2426 -1.5223  0.7013
 8543SOL    HW227398   2.497   4.763   4.599 -2.3241 -0.3009  2.8501
 8544SOL     OW27399   3.546   3.038   2.383  0.1507  0.0189  0.5076
 8544SOL    HW127400   3.518   3.108   2.324  0.5435  0.5636  0.9437
 8544SOL    HW227401   3.601   2.981   2.329  0.4707  0.4853  0.3362
 8545SOL     OW27402   6.376   8.064   4.967 -0.4973  0.1522 -0.9145
 8545SOL    HW127403   6.454   8.025   5.008 -0.5060  0.9727 -0.0853
 8545SOL    HW227404   6.324   8.095   5.041 -2.1187 -1.2751 -1.3861
 8546SOL     OW27405   3.212   3.961   1.634  0.0830  0.5200  0.1062
 8546SOL    HW127406   3.175   3.935   1.718 -0.4251  2.2454  0.4437
 8546SOL    HW227407   3.137   3.982   1.579  0.3061 -2.0607 -1.3794
 8547SOL     OW27408   1.002   1.612   1.628 -0.9683  0.0590 -0.5598
 8547SOL    HW127409   1.009   1.549   1.556  0.2163 -1.7251  1.0180
 8547SOL    HW227410   0.993   1.697   1.584 -0.9633 -1.0107 -2.7969
 8548SOL     OW27411   5.375   1.695   1.178  0.6806  0.6377 -0.1497
 8548SOL    HW127412   5.445   1.688   1.243 -0.8488  0.2981  1.5420
 8548SOL    HW227413   5.372   1.608   1.137  0.9153  0.4859  0.1466
 8549SOL     OW27414   2.618   8.152   0.277  0.4734 -0.3712  0.1919
 8549SOL    HW127415   2.592   8.080   0.219  1.4235 -0.4783 -0.1164
 8549SOL    HW227416   2.569   8.228   0.244  0.3998 -0.6062 -0.2456
 8550SOL     OW27417   8.322   7.779   8.907 -0.0184 -0.3010  0.1670
 8550SOL    HW127418   8.247   7.719   8.911 -0.3817  0.1324 -0.0392
 8550SOL    HW227419   8.395   7.724   8.878  0.1870 -1.1274  2.0851
 8551SOL     OW27420   7.955   5.916   8.328 -0.2366 -0.0542 -0.3122
 8551SOL    HW127421   7.943   5.822   8.340 -0.4893  0.1974  1.6959
 8551SOL    HW227422   7.867   5.949   8.308  0.1185 -0.4168 -2.8069
 8552SOL     OW27423   5.655   7.839   4.218 -0.3631 -0.4653  0.2636
 8552SOL    HW127424   5.750   7.827   4.227 -0.0357  2.0340  0.8793
 8552SOL    HW227425   5.618   7.789   4.290  0.3543 -2.4439 -0.6688
 8553SOL     OW27426   7.249   4.338   3.377 -0.3103 -0.5567 -0.1211
 8553SOL    HW127427   7.180   4.386   3.423 -0.3283  0.6403 -1.3529
 8553SOL    HW227428   7.328   4.356   3.429 -0.1263  1.6484 -1.0522
 8554SOL     OW27429   9.185   3.642   8.801  0.6817 -0.2003  0.1826
 8554SOL    HW127430   9.172   3.703   8.874 -0.2141 -0.3188  0.1313
 8554SOL    HW227431   9.265   3.595   8.824  0.3592 -0.3060  1.1504
 8555SOL     OW27432   1.838   7.526   8.282 -0.1916 -0.2106  0.2637
 8555SOL    HW127433   1.767   7.541   8.345  0.4363  0.3768  0.8522
 8555SOL    HW227434   1.889   7.607   8.285 -0.1285 -0.1933 -0.9820
 8556SOL     OW27435   2.153   2.709   0.071 -0.0911  0.3725 -0.4247
 8556SOL    HW127436   2.076   2.700   0.016  0.3859 -0.0615 -1.0293
 8556SOL    HW227437   2.201   2.783   0.033  1.0501 -0.9115 -1.6203
 8557SOL     OW27438   0.338   7.210   8.656  0.5502 -0.1875 -0.3105
 8557SOL    HW127439   0.342   7.167   8.571 -0.3108  0.1741 -0.5466
 8557SOL    HW227440   0.334   7.303   8.636  1.5000 -0.0297  0.1680
 8558SOL     OW27441   3.305   0.645   1.273  0.1282  0.2939  0.0304
 8558SOL    HW127442   3.340   0.714   1.329 -0.8249 -0.1970  1.3009
 8558SOL    HW227443   3.277   0.577   1.335  2.4848 -1.9719 -1.2032
 8559SOL     OW27444   0.240   5.239   4.409 -0.3450 -0.1231 -0.2900
 8559SOL    HW127445   0.319   5.206   4.452 -1.5540 -3.7462 -0.4376
 8559SOL    HW227446   0.175   5.246   4.479 -0.6154  0.1176 -0.5621
 8560SOL     OW27447   4.979   6.167   2.764  0.7726  0.2032  0.4129
 8560SOL    HW127448   4.891   6.199   2.783  0.5009 -0.3931  0.1886
 8560SOL    HW227449   5.020   6.238   2.715  0.1373  0.1695 -0.1964
 8561SOL     OW27450   2.416   1.350   9.620 -0.4787 -0.0668 -0.3311
 8561SOL    HW127451   2.430   1.322   9.530 -0.2649 -0.8621 -0.0569
 8561SOL    HW227452   2.321   1.360   9.628 -0.6673 -1.7130 -0.1636
 8562SOL     OW27453   1.758   3.049   2.645  0.3312  0.1972  0.1568
 8562SOL    HW127454   1.818   2.975   2.644  1.1558  0.8544 -0.4387
 8562SOL    HW227455   1.745   3.072   2.553 -1.2110 -0.2111  0.2396
 8563SOL     OW27456   5.391   6.686   3.887  0.7080  0.2769  0.1345
 8563SOL    HW127457   5.355   6.624   3.824 -1.1888  1.1895  0.2495
 8563SOL    HW227458   5.457   6.636   3.935  0.7724 -1.0022 -1.2125
 8564SOL     OW27459   8.067   2.135   7.226 -0.1588  0.3263  0.0025
 8564SOL    HW127460   8.034   2.219   7.258  1.4845  0.4812  1.4375
 8564SOL    HW227461   8.132   2.158   7.160  0.2676  0.2021  0.3712
 8565SOL     OW27462   0.315   6.357   7.543  0.5326  0.0431 -0.2110
 8565SOL    HW127463   0.336   6.440   7.586  1.9201  0.4735 -1.6209
 8565SOL    HW227464   0.224   6.367   7.515  0.9352  1.4831 -1.1331
 8566SOL     OW27465   6.824   6.213   7.304 -0.4494  0.3652 -0.3388
 8566SOL    HW127466   6.890   6.235   7.370 -0.1983  0.0384 -0.4719
 8566SOL    HW227467   6.768   6.148   7.347  0.3359 -0.6331 -0.7749
 8567SOL     OW27468   1.282   3.568   7.694 -0.4959 -0.1619 -0.0688
 8567SOL    HW127469   1.229   3.490   7.681 -0.7580 -0.0452  0.2796
 8567SOL    HW227470   1.225   3.628   7.742 -0.3795  0.3353 -0.5406
 8568SOL     OW27471   3.003   6.783   6.900  0.1445  0.2068 -0.3144
 8568SOL    HW127472   3.012   6.725   6.975  2.1137 -0.2172 -0.8232
 8568SOL    HW227473   2.948   6.735   6.838  0.1234 -0.2614  0.0633
 8569SOL     OW27474   6.736   5.968   6.898 -0.1386 -0.1916  0.1269
 8569SOL    HW127475   6.753   5.877   6.874  0.0584  0.2021 -1.3338
 8569SOL    HW227476   6.776   5.978   6.984 -1.6965 -1.9497  1.1457
 8570SOL     OW27477   5.634   7.492   3.619  0.7249 -0.4497  0.0889
 8570SOL    HW127478   5.615   7.437   3.543  1.9306 -1.1269  0.2526
 8570SOL    HW227479   5.725   7.519   3.607  0.6296  0.2419  0.8085
 8571SOL     OW27480   1.846   2.297   5.081 -0.8153 -0.4032  1.0595
 8571SOL    HW127481   1.924   2.346   5.109 -1.3418  0.2316  1.4173
 8571SOL    HW227482   1.881   2.214   5.049 -0.0243 -0.3152  1.6611
 8572SOL     OW27483   8.437   6.685   2.704 -0.7795  0.4259 -0.0054
 8572SOL    HW127484   8.431   6.713   2.795  0.3287  0.4434  0.0735
 8572SOL    HW227485   8.480   6.600   2.708 -0.7587  0.4072 -0.5175
 8573SOL     OW27486   9.401   0.348   1.541 -0.0127  0.0497  0.0002
 8573SOL    HW127487   9.444   0.362   1.626  2.3694 -3.1684 -0.4577
 8573SOL    HW227488   9.460   0.389   1.478 -0.7389  0.6873 -0.2763
 8574SOL     OW27489   9.578   4.327   1.089 -0.2009  0.0603 -0.0175
 8574SOL    HW127490   9.502   4.354   1.039  1.1633  0.8110 -1.8096
 8574SOL    HW227491   9.639   4.293   1.023  2.3385  2.5867  0.7906
 8575SOL     OW27492   8.766   7.953   6.409 -0.6198  0.1420 -0.5629
 8575SOL    HW127493   8.812   7.873   6.436 -0.1783  0.4682 -0.3242
 8575SOL    HW227494   8.833   8.021   6.414 -1.4156  0.8798  1.0594
 8576SOL     OW27495   0.259   9.115   0.701 -0.2201 -0.1159  0.0872
 8576SOL    HW127496   0.248   9.201   0.742  0.5910  0.4849 -0.8826
 8576SOL    HW227497   0.191   9.111   0.634  1.3655  0.9832 -1.7206
 8577SOL     OW27498   0.751   3.932   6.445  0.5087 -0.0468 -0.5721
 8577SOL    HW127499   0.742   3.920   6.540  0.1784 -1.7636 -0.7839
 8577SOL    HW227500   0.846   3.932   6.429  0.6200  1.6744 -0.1203
 8578SOL     OW27501   0.729   1.016   1.798 -0.4329  0.1544 -0.3933
 8578SOL    HW127502   0.817   0.978   1.795 -0.0492  0.9172  0.5425
 8578SOL    HW227503   0.711   1.043   1.708 -0.4424 -1.5956 -0.9445
 8579SOL     OW27504   3.996   7.966   8.775 -0.2820 -0.0361 -0.0603
 8579SOL    HW127505   3.935   7.904   8.817 -0.5749  0.2503 -0.0626
 8579SOL    HW227506   3.979   8.049   8.818 -1.5106  0.5732 -1.6209
 8580SOL     OW27507   2.082   5.838   6.474 -0.1747 -0.0148 -0.1301
 8580SOL    HW127508   2.071   5.755   6.520 -1.0741  0.0419 -0.2193
 8580SOL    HW227509   2.114   5.898   6.542 -1.7390  0.1341  0.5094
 8581SOL     OW27510   0.050   6.270   7.281  0.0560  0.0022  0.1792
 8581SOL    HW127511   0.074   6.363   7.279 -2.2731  0.6802  0.3187
 8581SOL    HW227512   0.134   6.224   7.287  1.3011  2.0639 -0.1937
 8582SOL     OW27513   2.008   7.953   6.919  0.2391  0.3616 -0.1768
 8582SOL    HW127514   2.073   7.917   6.979  1.4940  0.9342 -1.1540
 8582SOL    HW227515   2.033   7.918   6.834 -0.4589  0.9735 -0.6379
 8583SOL     OW27516   7.341   5.427   5.977  0.2483  0.2495 -0.2773
 8583SOL    HW127517   7.271   5.472   5.929 -0.1291  1.0051  0.9409
 8583SOL    HW227518   7.296   5.357   6.025  0.7584 -1.1339 -1.7332
 8584SOL     OW27519   9.158   1.947   1.534 -0.3385 -0.0280  0.0691
 8584SOL    HW127520   9.094   2.000   1.486  0.9900 -0.6997 -2.6565
 8584SOL    HW227521   9.242   1.969   1.493  0.8396 -1.0953  1.7828
 8585SOL     OW27522   9.752   0.363   9.078 -0.7485 -0.6440  0.0019
 8585SOL    HW127523   9.824   0.302   9.093 -1.0710 -1.4987 -1.6612
 8585SOL    HW227524   9.700   0.322   9.008 -0.9365  1.5621 -1.2325
 8586SOL     OW27525   4.780   9.766   7.761  0.2213 -0.0061  0.0777
 8586SOL    HW127526   4.800   9.761   7.668 -1.6930  1.0764 -0.4349
 8586SOL    HW227527   4.862   9.795   7.802  1.1042 -0.5975 -1.2404
 8587SOL     OW27528   1.052   2.517   6.667 -0.0333 -0.4498 -0.5307
 8587SOL    HW127529   1.032   2.596   6.716 -1.2653 -0.5703 -0.8171
 8587SOL    HW227530   1.108   2.466   6.727 -0.1443  0.1322  0.0833
 8588SOL     OW27531   1.060   7.334   5.246  0.5657 -0.3624 -0.4950
 8588SOL    HW127532   1.058   7.358   5.338 -0.2181 -1.6198 -0.1636
 8588SOL    HW227533   1.073   7.417   5.200  1.8336  0.1941  0.7646
 8589SOL     OW27534   3.676   3.886   4.553  0.1513  0.2783 -0.8534
 8589SOL    HW127535   3.756   3.835   4.537 -0.0615 -0.2526 -0.2856
 8589SOL    HW227536   3.690   3.925   4.640 -0.5224 -0.4618 -0.3989
 8590SOL     OW27537   7.533   2.011   3.259 -0.2128  0.2470  0.1918
 8590SOL    HW127538   7.453   1.965   3.283  0.9970 -2.3177 -0.3250
 8590SOL    HW227539   7.595   1.989   3.328  1.1326 -1.1168 -1.3506
 8591SOL     OW27540   2.559   7.392   3.908 -0.0434 -0.7266 -0.4479
 8591SOL    HW127541   2.617   7.318   3.927  0.4827  0.0544  1.1305
 8591SOL    HW227542   2.547   7.436   3.992 -0.5399  0.8417 -1.2944
 8592SOL     OW27543   2.181   4.627   0.950 -0.1403  0.5611 -0.2196
 8592SOL    HW127544   2.098   4.604   0.993 -1.4417  1.7092 -1.9583
 8592SOL    HW227545   2.245   4.568   0.989 -1.7804 -0.4360  1.1356
 8593SOL     OW27546   8.585   3.507   9.162  0.1903 -0.2601  0.3088
 8593SOL    HW127547   8.518   3.439   9.176  2.3513 -2.4652  0.5904
 8593SOL    HW227548   8.583   3.522   9.067  0.3065 -1.4492  0.0945
 8594SOL     OW27549   2.052   0.112   2.892  0.1662 -0.0013  0.0426
 8594SOL    HW127550   2.081   0.039   2.946 -1.1522 -1.5960 -1.3107
 8594SOL    HW227551   2.061   0.081   2.802 -2.9124  0.4115 -0.5150
 8595SOL     OW27552   5.640   3.948   2.123  0.6739 -0.3623 -0.1886
 8595SOL    HW127553   5.686   3.932   2.041  0.6969  2.5118 -0.8293
 8595SOL    HW227554   5.551   3.969   2.097  0.2088 -1.1758  0.6949
 8596SOL     OW27555   3.331   0.447   3.431  0.9705  0.0380  0.0476
 8596SOL    HW127556   3.329   0.520   3.494  2.2932  2.2955 -2.3609
 8596SOL    HW227557   3.392   0.384   3.470 -0.5218 -0.1104  2.3865
 8597SOL     OW27558   9.118   8.678   5.856  0.7457  0.0122  0.0828
 8597SOL    HW127559   9.192   8.623   5.881 -0.2143 -1.1781  0.4326
 8597SOL    HW227560   9.041   8.625   5.878 -0.2065  0.0317 -2.8159
 8598SOL     OW27561   9.328   4.045   8.143  0.1558  0.6086  0.5643
 8598SOL    HW127562   9.318   3.952   8.125 -0.3739  0.5998  0.8826
 8598SOL    HW227563   9.374   4.048   8.227 -0.4766  0.6275  0.9124
 8599SOL     OW27564   6.351   7.651   0.772 -0.3583  0.0069  0.0777
 8599SOL    HW127565   6.261   7.675   0.794 -0.0670  1.4251 -0.1512
 8599SOL    HW227566   6.402   7.681   0.847 -0.0205 -0.4177  0.0226
 8600SOL     OW27567   5.153   2.040   6.359  0.1013  0.1204  0.6062
 8600SOL    HW127568   5.166   2.047   6.264  0.9931  2.6502  0.8494
 8600SOL    HW227569   5.227   2.087   6.397 -0.3184 -0.7418  2.5784
 8601SOL     OW27570   0.396   7.456   4.026  0.4771 -0.1601 -0.0400
 8601SOL    HW127571   0.479   7.440   3.981  0.3111  0.2987 -0.5172
 8601SOL    HW227572   0.332   7.402   3.981  0.3427  0.1739 -0.2529
 8602SOL     OW27573   3.257   1.062   7.698 -0.3893 -0.6381  0.3567
 8602SOL    HW127574   3.284   1.012   7.621  1.4845  1.5751 -0.5457
 8602SOL    HW227575   3.327   1.048   7.762  0.9779  1.8471 -0.4595
 8603SOL     OW27576   1.477   6.660   7.203 -0.5025 -0.4359 -0.3649
 8603SOL    HW127577   1.478   6.753   7.178 -0.7573 -0.2084  0.4191
 8603SOL    HW227578   1.501   6.661   7.296 -2.0668 -1.0043  0.0703
 8604SOL     OW27579   5.035   7.936   8.589 -0.3963  0.1115  0.6881
 8604SOL    HW127580   5.002   7.940   8.678 -0.9896 -2.4942  0.6817
 8604SOL    HW227581   4.989   7.862   8.550  1.4845 -0.2222 -1.0673
 8605SOL     OW27582   7.179   5.682   6.183 -0.2545 -0.2195  0.3932
 8605SOL    HW127583   7.166   5.589   6.161  1.2635 -0.1120 -1.1359
 8605SOL    HW227584   7.274   5.694   6.183 -0.2951  0.8009  3.1213
 8606SOL     OW27585   5.226   4.231   5.775 -0.5664  0.3098  0.2620
 8606SOL    HW127586   5.241   4.196   5.687  0.9837  2.0508 -0.2403
 8606SOL    HW227587   5.231   4.155   5.833  3.8697 -0.3902 -0.6347
 8607SOL     OW27588   0.208   0.405   2.723  0.9791 -0.5549 -0.3805
 8607SOL    HW127589   0.275   0.411   2.791  1.5578  0.8077 -1.0219
 8607SOL    HW227590   0.128   0.439   2.765  0.6613 -2.1274  0.3651
 8608SOL     OW27591   1.965   3.422   9.292  0.4008 -0.1037  0.4298
 8608SOL    HW127592   1.932   3.507   9.265  0.5957  0.4363  1.7920
 8608SOL    HW227593   2.006   3.385   9.214  0.8044  1.2974 -0.0407
 8609SOL     OW27594   3.833   0.040   4.694 -0.1329 -0.7460  0.4794
 8609SOL    HW127595   3.921   0.042   4.656 -0.2345 -0.1334  0.2683
 8609SOL    HW227596   3.806  -0.052   4.688  0.1135 -0.7713 -0.3219
 8610SOL     OW27597   1.336   2.879   8.862 -0.4924 -0.3787 -0.0680
 8610SOL    HW127598   1.338   2.946   8.793 -0.9407 -0.3234 -0.0339
 8610SOL    HW227599   1.251   2.891   8.904 -0.6610 -1.0968 -0.1890
 8611SOL     OW27600   0.797   1.579   3.418 -0.6253  0.0162 -0.0571
 8611SOL    HW127601   0.891   1.598   3.419 -0.7095  0.4514 -0.5893
 8611SOL    HW227602   0.781   1.541   3.332 -0.4005 -2.8445  1.0262
 8612SOL     OW27603   0.585   9.022   6.601  0.3288 -0.0577  0.4893
 8612SOL    HW127604   0.619   8.955   6.660  0.4156  1.2673  2.0303
 8612SOL    HW227605   0.594   8.984   6.513  0.5662 -1.9489  1.2754
 8613SOL     OW27606   9.333   6.381   6.341  0.0197  0.6924  0.0641
 8613SOL    HW127607   9.292   6.465   6.319 -0.3595  0.4755 -0.0658
 8613SOL    HW227608   9.404   6.404   6.402  0.5132  1.2053 -0.6905
 8614SOL     OW27609   4.938   7.236   4.569  0.1508 -0.2304  0.4642
 8614SOL    HW127610   4.885   7.236   4.489  0.3906 -0.4351  0.3057
 8614SOL    HW227611   5.010   7.176   4.551  0.9044  0.6612  0.3679
 8615SOL     OW27612   3.134   9.751   8.315 -0.5679 -0.4541  0.4455
 8615SOL    HW127613   3.097   9.791   8.394 -1.0187 -1.6373  0.8562
 8615SOL    HW227614   3.140   9.658   8.336  2.9803 -0.3382  0.5300
 8616SOL     OW27615   0.634   6.314   3.619 -0.3158  0.4568  0.3621
 8616SOL    HW127616   0.560   6.263   3.654 -0.2191  0.0546 -0.0086
 8616SOL    HW227617   0.704   6.250   3.609 -1.1052 -0.0630 -2.9929
 8617SOL     OW27618   5.348   9.020   9.522  0.0227 -0.4275  0.4952
 8617SOL    HW127619   5.349   9.049   9.430  0.4227 -0.7934  0.3827
 8617SOL    HW227620   5.354   9.101   9.573 -0.2262 -0.2208  0.1991
 8618SOL     OW27621   9.786   4.841   4.769  0.0817  0.2744  0.1354
 8618SOL    HW127622   9.836   4.768   4.733  0.4585  1.0789 -1.0259
 8618SOL    HW227623   9.850   4.912   4.778 -0.5352  0.8626  0.0100
 8619SOL     OW27624   2.834   5.328   5.422  0.8244  0.0026  0.0634
 8619SOL    HW127625   2.768   5.268   5.456  1.2091 -0.8894 -0.6982
 8619SOL    HW227626   2.792   5.372   5.348  0.6288  0.4902  0.4585
 8620SOL     OW27627   1.432   7.759   5.291 -0.1651  0.0242  0.1972
 8620SOL    HW127628   1.353   7.706   5.277  0.3544 -0.7479  0.1453
 8620SOL    HW227629   1.498   7.720   5.233  0.4371  0.2679  0.7125
 8621SOL     OW27630   9.396   4.844   8.134  0.2152 -0.1110 -0.1857
 8621SOL    HW127631   9.320   4.801   8.173 -0.9669  1.5040 -0.6178
 8621SOL    HW227632   9.421   4.787   8.061 -0.2350 -0.9118  0.2681
 8622SOL     OW27633   6.040   1.437   3.297 -0.0105  0.4254  0.3794
 8622SOL    HW127634   6.107   1.506   3.296  0.8815 -0.4191 -0.6223
 8622SOL    HW227635   6.043   1.400   3.209 -1.0235 -0.3791  0.6698
 8623SOL     OW27636   5.748   0.334   5.646  0.6009  0.3619 -0.0236
 8623SOL    HW127637   5.758   0.422   5.610  0.2576  0.4895  0.1909
 8623SOL    HW227638   5.755   0.276   5.570  1.6725  0.5141 -0.0671
 8624SOL     OW27639   8.813   0.217   5.790  0.0029 -0.0030 -0.3557
 8624SOL    HW127640   8.908   0.217   5.777  0.0941  0.0370  0.2908
 8624SOL    HW227641   8.778   0.246   5.706  0.6133  1.0195 -0.2824
 8625SOL     OW27642   6.475   9.650   0.082  0.2868  0.4132  0.0383
 8625SOL    HW127643   6.460   9.580   0.019  1.6472  1.1165 -1.1258
 8625SOL    HW227644   6.480   9.729   0.028  1.9054  0.9858  0.9704
 8626SOL     OW27645   9.694   3.158   8.616 -0.1434 -0.2621 -0.4049
 8626SOL    HW127646   9.774   3.204   8.642 -0.3615  0.7787 -1.5052
 8626SOL    HW227647   9.627   3.192   8.674  0.1951 -1.2224  0.6001
 8627SOL     OW27648   4.793   6.372   9.784 -0.0970  0.4640  0.2866
 8627SOL    HW127649   4.788   6.468   9.782 -1.7604  0.4141  0.2936
 8627SOL    HW227650   4.748   6.348   9.865  1.0845 -0.3018  0.7263
 8628SOL     OW27651   9.634   5.372   9.029  0.2152 -0.0853 -0.0540
 8628SOL    HW127652   9.594   5.305   8.973  0.2898  0.0795 -0.3062
 8628SOL    HW227653   9.667   5.438   8.968  0.8346 -0.1933  0.1522
 8629SOL     OW27654   7.019   6.888   0.341  0.7757  0.1229 -0.0389
 8629SOL    HW127655   7.094   6.893   0.282 -1.0228  1.8357 -2.3604
 8629SOL    HW227656   7.006   6.978   0.370 -0.6379 -0.0694 -0.0301
 8630SOL     OW27657   8.462   3.633   3.002 -0.0968 -0.4892  0.1599
 8630SOL    HW127658   8.535   3.674   2.955 -1.2363 -0.7499 -1.9612
 8630SOL    HW227659   8.436   3.560   2.947 -2.4669  0.0714  0.4430
 8631SOL     OW27660   1.159   0.491   0.333 -0.0161 -0.7699 -0.0649
 8631SOL    HW127661   1.160   0.574   0.285 -2.0021 -0.3853  0.4859
 8631SOL    HW227662   1.105   0.508   0.410  0.5363 -2.2489  0.6952
 8632SOL     OW27663   4.647   7.185   9.068  0.5305  0.3008 -0.3752
 8632SOL    HW127664   4.615   7.169   8.979  0.0546 -0.6416 -0.0529
 8632SOL    HW227665   4.649   7.280   9.077  0.5224  0.4004 -1.3707
 8633SOL     OW27666   7.629   9.475   6.745 -0.2170 -0.0913 -0.2131
 8633SOL    HW127667   7.595   9.388   6.725 -0.2575  0.1128 -1.0878
 8633SOL    HW227668   7.577   9.534   6.691 -0.0778  0.4581  0.2483
 8634SOL     OW27669   2.346   6.403   9.596 -0.3406  0.5294 -0.1162
 8634SOL    HW127670   2.258   6.364   9.592  0.2689 -0.8519 -1.1871
 8634SOL    HW227671   2.370   6.398   9.688 -0.0437 -2.3918 -0.2429
 8635SOL     OW27672   9.482   8.241   3.158 -0.3516 -0.2978 -0.1646
 8635SOL    HW127673   9.458   8.327   3.126 -1.4148 -0.3107  0.5564
 8635SOL    HW227674   9.440   8.234   3.244 -0.9197 -1.8215 -0.5313
 8636SOL     OW27675   8.136   9.844   8.282 -0.0183  0.1559  0.0576
 8636SOL    HW127676   8.068   9.903   8.316 -0.4924 -0.3610  0.0236
 8636SOL    HW227677   8.189   9.899   8.226 -1.3321  0.2591 -1.1512
 8637SOL     OW27678   0.189   5.843   2.128 -0.3057  0.6612 -0.6525
 8637SOL    HW127679   0.127   5.906   2.165 -0.7677 -0.2863  0.2228
 8637SOL    HW227680   0.217   5.790   2.203  0.2798  0.0028 -1.3263
 8638SOL     OW27681   7.888   5.600   6.538 -0.1222 -0.2470  0.6283
 8638SOL    HW127682   7.913   5.543   6.466  2.3629 -0.0454  1.2215
 8638SOL    HW227683   7.883   5.687   6.499  1.0090 -0.1708  0.6152
 8639SOL     OW27684   8.769   5.198   2.037 -0.4349 -0.3316 -0.3429
 8639SOL    HW127685   8.806   5.138   1.973 -0.0325 -1.1805  0.6492
 8639SOL    HW227686   8.833   5.199   2.108 -1.6083 -0.7005  0.7599
 8640SOL     OW27687   3.612   3.077   7.714  0.3303 -0.3150 -0.0463
 8640SOL    HW127688   3.591   3.139   7.645 -0.5532  0.3371  0.7911
 8640SOL    HW227689   3.611   3.129   7.794  0.2296 -1.2769  0.5894
 8641SOL     OW27690   8.843   4.238   1.028 -0.1953 -0.3652 -0.1663
 8641SOL    HW127691   8.748   4.252   1.025 -0.2832 -0.9108 -0.1398
 8641SOL    HW227692   8.880   4.325   1.036 -0.8358 -0.2681  3.2813
 8642SOL     OW27693   7.566   5.265   5.896 -0.2241 -0.6010 -0.0643
 8642SOL    HW127694   7.632   5.316   5.849  0.4174 -2.6804 -1.5715
 8642SOL    HW227695   7.483   5.311   5.879  0.3604  0.0976 -1.1115
 8643SOL     OW27696   9.318   8.122   5.008 -0.3232  0.5720  0.0364
 8643SOL    HW127697   9.338   8.136   4.916  0.8222  0.4582  0.2474
 8643SOL    HW227698   9.262   8.196   5.032  1.2862  1.9242 -0.1813
 8644SOL     OW27699   1.089   7.054   5.850  0.2055 -0.9808  0.0273
 8644SOL    HW127700   1.119   6.965   5.838  2.7716 -0.4496  1.7907
 8644SOL    HW227701   1.057   7.080   5.764  0.6596 -3.1329 -0.8512
 8645SOL     OW27702   1.092   1.586   2.006  0.7097 -0.1799 -0.4701
 8645SOL    HW127703   1.164   1.523   2.001 -0.4781 -1.4839 -2.7445
 8645SOL    HW227704   1.013   1.532   1.997 -0.4334  1.4359 -0.4133
 8646SOL     OW27705   3.781   0.139   1.385  0.8951  0.3788 -0.0456
 8646SOL    HW127706   3.733   0.059   1.407  1.1875 -0.0947 -1.1154
 8646SOL    HW227707   3.736   0.207   1.436  0.0505 -0.2996  0.1530
 8647SOL     OW27708   1.842   3.423   4.360 -0.1852 -0.3275 -0.2134
 8647SOL    HW127709   1.765   3.381   4.400 -1.3185  1.9708  0.2073
 8647SOL    HW227710   1.833   3.405   4.266 -0.9265 -0.5798 -0.1027
 8648SOL     OW27711   0.318   8.702   3.811  0.2519  0.5243 -0.0424
 8648SOL    HW127712   0.299   8.728   3.901 -0.3515  0.2513 -0.0885
 8648SOL    HW227713   0.387   8.636   3.819 -1.6432 -1.5390  0.4444
 8649SOL     OW27714   6.294   0.934   2.685 -0.3056 -0.3511  0.1869
 8649SOL    HW127715   6.265   0.853   2.728 -3.2737  0.7220  0.4259
 8649SOL    HW227716   6.267   0.923   2.593 -1.3134  0.5578  0.3517
 8650SOL     OW27717   1.092   7.248   7.754 -0.0913  0.0798  0.4060
 8650SOL    HW127718   1.171   7.193   7.752  0.2331  0.5401  0.1951
 8650SOL    HW227719   1.067   7.257   7.662  0.4092  1.0499  0.3514
 8651SOL     OW27720   5.955   0.727   2.875 -0.0059 -0.4513  0.5701
 8651SOL    HW127721   5.904   0.650   2.899  0.3566 -0.6883  0.5939
 8651SOL    HW227722   6.021   0.734   2.945 -0.1871  0.0184  0.6953
 8652SOL     OW27723   8.520   7.091   4.974  0.2797  0.8460 -0.1473
 8652SOL    HW127724   8.548   6.999   4.972  0.8378  1.0091 -2.2905
 8652SOL    HW227725   8.425   7.087   4.967 -0.0541  0.4155  2.9767
 8653SOL     OW27726   2.868   5.508   4.102 -0.0235  0.7185 -0.2884
 8653SOL    HW127727   2.805   5.505   4.030  0.9616  2.0620 -1.2477
 8653SOL    HW227728   2.946   5.549   4.065  1.3889 -0.7574  0.9125
 8654SOL     OW27729   6.618   6.703   9.579 -0.1173 -0.5769  0.5363
 8654SOL    HW127730   6.523   6.715   9.567  0.0178  1.9740  1.3942
 8654SOL    HW227731   6.656   6.737   9.498  0.1120 -0.1088  0.8399
 8655SOL     OW27732   5.224   5.430   7.455 -0.0903  0.6039 -0.0678
 8655SOL    HW127733   5.319   5.439   7.442 -0.0392 -1.0960 -1.2454
 8655SOL    HW227734   5.212   5.338   7.480 -1.4815  0.6632 -0.4440
 8656SOL     OW27735   7.274   9.176   1.737  0.1897  0.0356  0.4841
 8656SOL    HW127736   7.264   9.271   1.742 -1.0352  0.0723 -1.5977
 8656SOL    HW227737   7.201   9.141   1.787  1.3073  0.1426  2.2538
 8657SOL     OW27738   8.858   5.114   6.238 -0.1329 -0.0669 -0.4588
 8657SOL    HW127739   8.872   5.204   6.270  0.8268 -0.3782  0.0419
 8657SOL    HW227740   8.778   5.120   6.186 -2.1264  0.3867  2.3867
 8658SOL     OW27741   2.989   6.494   2.227  0.3044 -0.0656  0.7509
 8658SOL    HW127742   2.899   6.462   2.228 -0.0454  0.8391  0.0401
 8658SOL    HW227743   3.035   6.432   2.171 -0.2693  0.3999 -0.2712
 8659SOL     OW27744   5.614   6.219   4.963 -0.0062 -0.5050 -0.1757
 8659SOL    HW127745   5.556   6.146   4.983  1.8902 -1.7840  0.9480
 8659SOL    HW227746   5.698   6.178   4.942  0.5186  1.2577 -1.8590
 8660SOL     OW27747   2.217   6.835   6.130  0.0703  0.0610 -0.3839
 8660SOL    HW127748   2.259   6.791   6.056  1.7654  0.7959  0.0765
 8660SOL    HW227749   2.205   6.925   6.100  1.7143  0.6315  0.5146
 8661SOL     OW27750   5.042   5.048   2.452  0.0593 -0.7567  0.6430
 8661SOL    HW127751   4.948   5.033   2.438  0.1792 -0.3272 -0.6894
 8661SOL    HW227752   5.052   5.042   2.547 -1.2839 -1.0044  0.7974
 8662SOL     OW27753   8.458   4.994   8.415 -1.2120  0.6307  0.7508
 8662SOL    HW127754   8.511   4.974   8.338 -1.9157 -1.8221  0.8420
 8662SOL    HW227755   8.388   5.051   8.382 -1.6853 -0.6260 -0.5036
 8663SOL     OW27756   3.502   2.539   5.391 -0.2433  0.4029  0.5125
 8663SOL    HW127757   3.424   2.547   5.445  0.7470 -0.3790  2.1376
 8663SOL    HW227758   3.471   2.503   5.308 -2.0473  3.1858 -0.1429
 8664SOL     OW27759   1.521   3.471   4.703 -0.3453  0.6495  0.2979
 8664SOL    HW127760   1.583   3.461   4.775  0.9596 -0.8488 -0.9432
 8664SOL    HW227761   1.552   3.547   4.654 -1.3369  1.7767  1.3697
 8665SOL     OW27762   4.111   0.780   8.208 -0.1343 -0.4669 -0.0749
 8665SOL    HW127763   4.111   0.686   8.193  1.5352 -0.6158  0.6124
 8665SOL    HW227764   4.109   0.789   8.303  0.1644  0.1824 -0.1250
 8666SOL     OW27765   4.752   9.647   8.778  0.4269 -0.7177  0.0635
 8666SOL    HW127766   4.820   9.580   8.770  1.2901  0.0232  0.9077
 8666SOL    HW227767   4.785   9.721   8.727  0.9873  0.1691  1.6158
 8667SOL     OW27768   1.149   1.410   6.331  0.0514  0.5084  0.3444
 8667SOL    HW127769   1.238   1.399   6.366 -0.1054  0.4406  0.7230
 8667SOL    HW227770   1.104   1.464   6.396 -0.0404  0.9628 -0.0906
 8668SOL     OW27771   6.047   6.639   6.608 -0.3802 -0.6637 -0.1025
 8668SOL    HW127772   5.972   6.688   6.576 -1.1019 -1.6153  0.0870
 8668SOL    HW227773   6.041   6.645   6.703  0.2650 -0.0601 -0.0851
 8669SOL     OW27774   5.794   0.726   0.084  0.6057  0.2658 -0.6030
 8669SOL    HW127775   5.704   0.735   0.053 -0.1706  0.7866  1.6037
 8669SOL    HW227776   5.786   0.714   0.179  2.8099 -1.1700 -0.5171
 8670SOL     OW27777   8.320   5.603   1.900 -0.6507  0.0881  0.2762
 8670SOL    HW127778   8.325   5.539   1.971  1.4211 -1.0441 -0.7626
 8670SOL    HW227779   8.242   5.579   1.850 -0.8932 -0.4933  0.9285
 8671SOL     OW27780   3.362   0.196   0.376 -0.5237 -0.4676 -0.1699
 8671SOL    HW127781   3.372   0.102   0.362 -0.3175 -0.5355  0.3978
 8671SOL    HW227782   3.271   0.207   0.405 -0.3009 -0.6061  0.6104
 8672SOL     OW27783   2.564   0.525   9.128 -0.3148 -0.1083 -0.0693
 8672SOL    HW127784   2.646   0.573   9.120  0.4790 -1.2310  0.8530
 8672SOL    HW227785   2.589   0.441   9.167 -1.6309 -1.2955 -1.6432
 8673SOL     OW27786   4.553   7.845   0.799  0.2086 -0.4019 -0.2645
 8673SOL    HW127787   4.588   7.851   0.888  0.6181 -1.2898 -0.3512
 8673SOL    HW227788   4.535   7.752   0.787 -1.7733 -0.0257 -0.4072
 8674SOL     OW27789   4.789   8.249   2.303 -0.2133  0.4433  0.2624
 8674SOL    HW127790   4.715   8.214   2.352 -0.6469  0.1855 -0.5494
 8674SOL    HW227791   4.786   8.343   2.318 -1.3605  0.5716 -0.5981
 8675SOL     OW27792   9.299   8.553   2.009  1.0117 -0.3427 -0.5927
 8675SOL    HW127793   9.213   8.539   2.047  1.1687 -0.0625 -0.1174
 8675SOL    HW227794   9.317   8.474   1.958  0.0845 -0.0102 -1.4579
 8676SOL     OW27795   0.966   6.837   5.243  0.6858  0.0501 -0.4328
 8676SOL    HW127796   0.950   6.929   5.262  1.6779  0.2357 -0.4146
 8676SOL    HW227797   1.005   6.836   5.156 -0.4442 -0.4749 -0.9555
 8677SOL     OW27798   8.195   1.294   1.565  0.6495  0.0920  0.0462
 8677SOL    HW127799   8.254   1.351   1.516  1.4145 -0.1772  0.6351
 8677SOL    HW227800   8.235   1.287   1.652 -1.4836  1.8334  1.2499
 8678SOL     OW27801   0.265   7.170   4.408  1.0286 -0.7939  0.0309
 8678SOL    HW127802   0.282   7.262   4.430  1.0141 -0.8402  0.2304
 8678SOL    HW227803   0.259   7.126   4.492 -1.7377 -0.5000  0.0781
 8679SOL     OW27804   5.013   0.873   3.215  0.8604  0.0012 -0.8145
 8679SOL    HW127805   5.014   0.819   3.293  1.2773  1.2023  0.0429
 8679SOL    HW227806   4.952   0.829   3.155 -0.8873  0.0204  0.8676
 8680SOL     OW27807   9.467   3.089   7.299 -0.6835 -0.3620  0.1504
 8680SOL    HW127808   9.498   3.066   7.386 -1.2753 -0.6528  0.2887
 8680SOL    HW227809   9.505   3.176   7.282  1.3983 -1.3033 -0.2890
 8681SOL     OW27810   5.520   0.298   7.314  0.9818  0.0281  0.0584
 8681SOL    HW127811   5.482   0.258   7.236 -1.4177  1.2447  0.5143
 8681SOL    HW227812   5.445   0.334   7.362  2.7540  3.0989  0.7793
 8682SOL     OW27813   1.709   5.388   7.146  0.6485 -0.4321 -0.2294
 8682SOL    HW127814   1.795   5.347   7.156  1.3306  1.1151  0.5265
 8682SOL    HW227815   1.698   5.440   7.225 -0.0848  1.0024 -1.2341
 8683SOL     OW27816   8.897   3.420   5.259  0.2913  0.3815  0.0533
 8683SOL    HW127817   8.868   3.449   5.346  1.2991 -0.3420  0.6587
 8683SOL    HW227818   8.816   3.392   5.216 -0.0997 -0.3736  1.2072
 8684SOL     OW27819   0.282   5.417   2.242 -0.4485  0.5092 -0.2749
 8684SOL    HW127820   0.196   5.398   2.206 -0.2136 -2.0559  0.3165
 8684SOL    HW227821   0.337   5.345   2.211  1.3722  1.7961 -0.2059
 8685SOL     OW27822   5.031   8.815   1.324  0.6624  0.0131 -0.6236
 8685SOL    HW127823   5.053   8.908   1.322 -0.7447  0.4281  1.1805
 8685SOL    HW227824   5.111   8.772   1.355  1.1032  0.6722 -0.8164
 8686SOL     OW27825   2.490   5.046   0.128 -0.1097 -0.1688  0.0982
 8686SOL    HW127826   2.500   5.125   0.076 -0.6060  0.1271  0.4490
 8686SOL    HW227827   2.518   5.071   0.216 -1.4449 -0.0231  0.5035
 8687SOL     OW27828   2.237   3.777   6.251 -0.0680 -0.0161 -0.4371
 8687SOL    HW127829   2.214   3.848   6.191 -0.3729 -0.4159 -0.8042
 8687SOL    HW227830   2.285   3.819   6.322  0.8385  0.3804 -1.2708
 8688SOL     OW27831   8.490   5.253   1.713  0.2067 -0.5869 -0.0401
 8688SOL    HW127832   8.564   5.309   1.734  0.8751 -1.5137  0.1345
 8688SOL    HW227833   8.467   5.276   1.623 -0.4810  0.9801  0.4961
 8689SOL     OW27834   9.164   4.733   0.240 -0.0949 -0.2318 -0.7877
 8689SOL    HW127835   9.192   4.686   0.319 -2.1243 -1.2257 -0.5854
 8689SOL    HW227836   9.099   4.796   0.271 -1.1666 -0.8663 -1.6630
 8690SOL     OW27837   4.423   8.802   2.927  0.2004 -0.1434 -0.3788
 8690SOL    HW127838   4.405   8.890   2.960 -0.3279 -1.2706  2.6196
 8690SOL    HW227839   4.389   8.804   2.837 -2.3518  1.9187  0.4871
 8691SOL     OW27840   1.123   4.623   4.205  0.1407  0.2494  0.4197
 8691SOL    HW127841   1.066   4.568   4.259 -1.0149  1.8031  0.8232
 8691SOL    HW227842   1.128   4.576   4.122  0.1157 -1.0318  1.0981
 8692SOL     OW27843   3.023   9.177   2.030  0.0302 -0.1575 -0.1503
 8692SOL    HW127844   2.934   9.212   2.035 -0.0309 -0.4149  0.8734
 8692SOL    HW227845   3.045   9.178   1.937 -1.3498 -0.8322 -0.5113
 8693SOL     OW27846   6.574   9.546   5.254  0.6620  0.0913  0.4006
 8693SOL    HW127847   6.620   9.510   5.179 -1.3038 -0.0998 -0.7635
 8693SOL    HW227848   6.603   9.638   5.258  0.3671  0.2530 -0.9370
 8694SOL     OW27849   0.324   6.807   3.710  0.1603  0.6304 -0.0118
 8694SOL    HW127850   0.294   6.869   3.644  0.8145  0.3246 -0.6112
 8694SOL    HW227851   0.249   6.751   3.727 -0.3088  1.3192  0.2302
 8695SOL     OW27852   2.764   3.240   1.248 -0.0940  0.1570  0.3791
 8695SOL    HW127853   2.843   3.268   1.202 -1.7254  4.3327 -0.2579
 8695SOL    HW227854   2.733   3.164   1.198  2.0357  0.0811 -0.9547
 8696SOL     OW27855   3.475   4.477   8.494  0.2736  0.2308  0.5679
 8696SOL    HW127856   3.502   4.553   8.545 -0.1416  0.9526 -0.2503
 8696SOL    HW227857   3.524   4.484   8.412 -0.3638  0.0726  0.1637
 8697SOL     OW27858   4.918   2.713   6.705  0.4630 -0.2004 -0.1317
 8697SOL    HW127859   4.889   2.652   6.638 -1.5811  1.2765 -0.6964
 8697SOL    HW227860   4.997   2.673   6.742 -0.7525 -3.1203 -0.4647
 8698SOL     OW27861   8.403   8.652   2.318 -0.0129  0.2738 -0.0205
 8698SOL    HW127862   8.348   8.583   2.354 -1.5228  0.6252 -1.5576
 8698SOL    HW227863   8.347   8.730   2.320  1.7545  1.6009  1.9951
 8699SOL     OW27864   6.980   4.464   8.647 -0.1596  0.2496  0.1061
 8699SOL    HW127865   6.923   4.478   8.572 -0.4802 -1.1698  0.0414
 8699SOL    HW227866   7.060   4.428   8.610 -0.3636 -0.5732  0.4289
 8700SOL     OW27867   5.596   6.804   1.504  0.4515 -0.0669  0.7147
 8700SOL    HW127868   5.641   6.726   1.536  1.6218 -0.2509 -1.2167
 8700SOL    HW227869   5.666   6.870   1.495 -0.0159  0.2947 -0.3784
 8701SOL     OW27870   1.118   4.192   1.722 -0.1871 -0.3395  0.3564
 8701SOL    HW127871   1.139   4.234   1.805 -0.5504  0.9228 -0.1685
 8701SOL    HW227872   1.031   4.226   1.699 -0.0365 -0.5672 -0.5990
 8702SOL     OW27873   9.386   0.172   4.178  0.9364 -0.1602  0.0785
 8702SOL    HW127874   9.473   0.200   4.148  0.4411  1.4161  0.0839
 8702SOL    HW227875   9.374   0.086   4.136  1.8869  0.2491 -1.1068
 8703SOL     OW27876   6.013   5.831   2.734 -0.1621 -0.4139  0.2010
 8703SOL    HW127877   5.939   5.888   2.717  1.2498  1.6352  0.5818
 8703SOL    HW227878   6.089   5.889   2.731  1.4026 -2.3614  0.1867
 8704SOL     OW27879   4.058   5.234   8.348  0.1176  0.3974 -0.1088
 8704SOL    HW127880   4.093   5.190   8.271 -0.8296  0.9699 -0.8875
 8704SOL    HW227881   4.132   5.239   8.409  1.1253  0.7408 -1.3272
 8705SOL     OW27882   0.656   5.834   5.099 -0.7571 -0.3840 -0.3326
 8705SOL    HW127883   0.577   5.880   5.071  0.2568  1.8513  0.3124
 8705SOL    HW227884   0.716   5.841   5.025  0.0415  0.9603  0.4101
 8706SOL     OW27885   2.314   8.679   5.990 -0.2628  0.2850  0.0767
 8706SOL    HW127886   2.378   8.747   6.007 -1.1201  1.0383  0.3783
 8706SOL    HW227887   2.302   8.636   6.075  2.3987 -2.2142 -0.6549
 8707SOL     OW27888   1.110   0.379   2.545 -0.2194 -0.0344  0.0832
 8707SOL    HW127889   1.022   0.415   2.555 -0.7284 -1.3278  0.3860
 8707SOL    HW227890   1.152   0.394   2.630 -0.2982  0.1589  0.0888
 8708SOL     OW27891   4.846   6.217   4.141 -0.7049  0.0760  0.3296
 8708SOL    HW127892   4.934   6.252   4.156 -1.2453  0.2323  4.0435
 8708SOL    HW227893   4.859   6.123   4.131 -0.1119  0.0453  1.2567
 8709SOL     OW27894   2.161   1.561   0.104  0.4690 -0.6675 -0.0696
 8709SOL    HW127895   2.230   1.502   0.134 -1.7594 -1.6007  3.8639
 8709SOL    HW227896   2.096   1.503   0.064  0.0441 -0.3595  0.1715
 8710SOL     OW27897   5.500   9.418   7.516  0.5497 -0.3094 -0.3080
 8710SOL    HW127898   5.430   9.366   7.478  1.1725 -1.4521  0.0612
 8710SOL    HW227899   5.455   9.491   7.559 -0.2748 -0.0086 -1.6135
 8711SOL     OW27900   6.099   3.830   5.674 -0.2819  0.4958  0.0656
 8711SOL    HW127901   6.173   3.859   5.621 -0.2798 -0.6681 -0.6006
 8711SOL    HW227902   6.090   3.737   5.654 -0.3948  0.0470  1.9950
 8712SOL     OW27903   7.969   3.583   6.003 -0.0857 -0.5645  0.6849
 8712SOL    HW127904   8.029   3.604   6.075  1.6989 -2.0490 -0.2599
 8712SOL    HW227905   7.923   3.505   6.031  0.1310 -0.7657  0.4849
 8713SOL     OW27906   2.465   4.980   0.468 -0.3471 -0.0323  0.3024
 8713SOL    HW127907   2.400   4.967   0.538  1.4553 -1.0066  1.8997
 8713SOL    HW227908   2.415   4.975   0.387 -2.0256 -2.9328  1.3557
 8714SOL     OW27909   5.999   2.307   1.501 -0.1251 -0.6190 -0.0616
 8714SOL    HW127910   6.002   2.217   1.469  2.1263 -0.6761  0.2026
 8714SOL    HW227911   6.083   2.344   1.476 -0.7030  1.1831  0.5491
 8715SOL     OW27912   9.337   5.129   9.527 -0.3309  0.1399  0.3820
 8715SOL    HW127913   9.405   5.196   9.517  0.5237 -0.7849 -0.1651
 8715SOL    HW227914   9.384   5.046   9.518 -1.2745 -0.5622  1.5983
 8716SOL     OW27915   2.357   1.821   4.719  0.0937 -0.1154  0.0980
 8716SOL    HW127916   2.441   1.808   4.677  0.2141  1.6581 -0.3030
 8716SOL    HW227917   2.319   1.896   4.673 -0.7337  0.4957  1.7092
 8717SOL     OW27918   1.370   2.048   3.134 -0.2313 -0.3789 -0.1267
 8717SOL    HW127919   1.382   2.131   3.087  0.5549  0.3019  1.2111
 8717SOL    HW227920   1.459   2.018   3.153 -0.5291 -0.4406  1.2256
 8718SOL     OW27921   9.631   2.623   2.861  0.3240 -0.1373  0.6295
 8718SOL    HW127922   9.711   2.657   2.902  0.0800  0.3304  0.7352
 8718SOL    HW227923   9.659   2.592   2.775  0.4526  0.9986  0.2333
 8719SOL     OW27924   0.818   5.092   3.749 -0.0224 -0.0797  0.0011
 8719SOL    HW127925   0.786   5.130   3.831 -1.1954 -1.8601  0.4384
 8719SOL    HW227926   0.784   5.002   3.750 -2.2573  0.5236 -3.5907
 8720SOL     OW27927   3.652   9.831   8.929 -0.6437  0.3747 -0.1864
 8720SOL    HW127928   3.673   9.796   8.842 -1.7464 -0.2554 -0.2227
 8720SOL    HW227929   3.684   9.764   8.990 -1.8317 -0.2488 -0.2150
 8721SOL     OW27930   9.047   4.971   9.414  0.0381 -0.0983 -0.3427
 8721SOL    HW127931   9.048   5.032   9.488  1.6035  0.4444 -0.7736
 8721SOL    HW227932   9.057   5.027   9.336 -0.2994 -0.7596 -0.8734
 8722SOL     OW27933   6.340   3.777   2.131 -0.1704 -0.5711 -0.1752
 8722SOL    HW127934   6.341   3.860   2.083  0.5513  1.0945  2.5348
 8722SOL    HW227935   6.375   3.713   2.068  0.0584  1.3042 -2.0687
 8723SOL     OW27936   9.308   8.207   3.418 -0.0216 -0.1870  0.8041
 8723SOL    HW127937   9.358   8.206   3.500 -0.8091  0.8390  1.3143
 8723SOL    HW227938   9.299   8.300   3.397  0.6410 -0.4551 -0.7530
 8724SOL     OW27939   8.800   8.191   3.019 -0.5315  0.0897 -0.5168
 8724SOL    HW127940   8.835   8.277   2.996  1.4603  0.0053  1.8470
 8724SOL    HW227941   8.718   8.210   3.064  0.0990  0.8065  0.3596
 8725SOL     OW27942   9.740   2.585   0.389 -0.0228  0.0630 -0.2058
 8725SOL    HW127943   9.796   2.547   0.457 -0.4425  2.0190  1.3310
 8725SOL    HW227944   9.786   2.664   0.362 -0.0354 -0.5021 -2.0216
 8726SOL     OW27945   8.522   8.817   8.919  0.3141  0.4746  0.5218
 8726SOL    HW127946   8.605   8.777   8.943  0.0687  0.0070  0.6116
 8726SOL    HW227947   8.455   8.761   8.959 -0.0239  2.6121  3.2604
 8727SOL     OW27948   9.733   8.781   6.987  0.0395 -0.1560  0.0851
 8727SOL    HW127949   9.815   8.734   6.974  1.1066  1.1736  1.7323
 8727SOL    HW227950   9.674   8.716   7.026  0.9115 -0.6248  0.6586
 8728SOL     OW27951   5.514   2.325   4.681  0.5634  0.4127  0.4562
 8728SOL    HW127952   5.475   2.267   4.616  2.7585  0.5217 -1.0410
 8728SOL    HW227953   5.459   2.404   4.679  0.4105  0.2928 -1.0505
 8729SOL     OW27954   0.858   5.325   5.620 -0.4145 -0.3152  0.3843
 8729SOL    HW127955   0.953   5.328   5.612 -0.5636  0.1149 -1.6295
 8729SOL    HW227956   0.833   5.413   5.649 -0.3376  0.3507 -1.4425
 8730SOL     OW27957   5.764   7.860   7.560  0.2511 -0.5704  0.0562
 8730SOL    HW127958   5.837   7.883   7.616  0.3219  0.5846 -0.4743
 8730SOL    HW227959   5.802   7.853   7.472 -0.5008  1.7324 -0.5252
 8731SOL     OW27960   9.028   9.476   5.171 -0.8411 -0.1146 -0.1084
 8731SOL    HW127961   8.997   9.387   5.184  1.0251 -0.8494 -0.3507
 8731SOL    HW227962   9.056   9.479   5.080  0.3398  0.2938  0.2512
 8732SOL     OW27963   1.659   7.834   7.513 -0.2562  0.1460 -0.3418
 8732SOL    HW127964   1.659   7.814   7.420 -1.7397 -0.2606 -0.2877
 8732SOL    HW227965   1.660   7.930   7.517 -0.3273  0.1657 -0.7864
 8733SOL     OW27966   8.229   8.935   4.885  0.0404  0.2827  0.0910
 8733SOL    HW127967   8.203   8.912   4.796 -1.0285 -0.7961  0.6644
 8733SOL    HW227968   8.293   8.868   4.909 -0.8398 -0.3606  0.6834
 8734SOL     OW27969   5.932   4.138   2.273  0.2851  0.3946  0.2522
 8734SOL    HW127970   5.920   4.049   2.306  0.3002 -0.1095 -1.0488
 8734SOL    HW227971   5.880   4.192   2.332  2.1093 -0.1330  2.5221
 8735SOL     OW27972   6.872   5.194   1.323 -0.6359  0.1325 -0.0218
 8735SOL    HW127973   6.904   5.232   1.404  0.0681 -0.2642 -0.1058
 8735SOL    HW227974   6.948   5.148   1.286 -1.1702 -0.4002 -0.4790
 8736SOL     OW27975   1.765   2.698   3.727  0.4265  0.4834 -0.1514
 8736SOL    HW127976   1.740   2.605   3.730  0.9773  0.0675 -3.7350
 8736SOL    HW227977   1.699   2.742   3.781 -1.3484 -1.7501 -0.3274
 8737SOL     OW27978   3.772   2.639   7.988 -0.1198 -0.3306 -0.0127
 8737SOL    HW127979   3.728   2.682   8.062 -2.0166 -0.3617 -1.0662
 8737SOL    HW227980   3.720   2.663   7.912  0.8844 -1.5710 -1.1350
 8738SOL     OW27981   3.601   2.028   7.820  0.0550 -0.0815  0.1394
 8738SOL    HW127982   3.508   2.041   7.799 -0.2071  0.2910  1.4660
 8738SOL    HW227983   3.610   1.934   7.834 -0.1887 -0.0740  0.3426
 8739SOL     OW27984   9.119   3.361   9.359 -0.3383  0.2880  0.5409
 8739SOL    HW127985   9.165   3.389   9.280 -0.4273 -0.0877  0.3560
 8739SOL    HW227986   9.188   3.330   9.417 -0.4778 -2.1973 -0.5001
 8740SOL     OW27987   7.941   0.479   5.091  0.2026 -0.0877 -0.0890
 8740SOL    HW127988   7.943   0.530   5.172 -1.0895  0.0609 -0.1259
 8740SOL    HW227989   8.033   0.469   5.066  0.5061  1.8427  0.1420
 8741SOL     OW27990   4.922   0.770   0.975 -0.1983 -0.3931 -0.2990
 8741SOL    HW127991   4.952   0.745   1.063 -2.3722 -0.7381  0.4227
 8741SOL    HW227992   4.919   0.687   0.927 -0.2732 -0.4083 -0.2689
 8742SOL     OW27993   2.709   2.943   8.151 -0.1303 -0.1516 -0.1259
 8742SOL    HW127994   2.766   2.966   8.078  0.4722 -0.0521  0.3701
 8742SOL    HW227995   2.720   3.015   8.213 -0.7854 -0.1425 -0.0168
 8743SOL     OW27996   4.971   1.124   4.713  0.0645 -0.2473  0.8623
 8743SOL    HW127997   4.923   1.190   4.662  0.9829 -0.0567  0.2221
 8743SOL    HW227998   4.918   1.045   4.707 -0.6612  0.2253  0.9863
 8744SOL     OW27999   8.010   1.069   7.588  0.1683 -0.4301 -0.1923
 8744SOL    HW128000   7.925   1.068   7.632  0.0895  0.1887 -0.3291
 8744SOL    HW228001   7.992   1.106   7.502  0.9151  1.6481  0.4948
 8745SOL     OW28002   4.253   2.574   6.250  0.1428 -0.5698 -0.1349
 8745SOL    HW128003   4.304   2.500   6.282  0.0483  0.1171  1.7447
 8745SOL    HW228004   4.283   2.648   6.303 -0.2171  0.6023 -1.5292
 8746SOL     OW28005   9.044   7.645   5.330  0.2965  0.3449  0.3149
 8746SOL    HW128006   9.038   7.738   5.305  3.5746  0.7133  0.3521
 8746SOL    HW228007   9.086   7.604   5.254  0.8567 -0.6459  1.1449
 8747SOL     OW28008   9.289   3.044   4.245 -0.5729  0.0151 -0.2122
 8747SOL    HW128009   9.244   3.128   4.237 -0.0007  0.3382 -0.0749
 8747SOL    HW228010   9.364   3.050   4.186 -1.3273 -0.9537 -1.3134
 8748SOL     OW28011   0.895   4.584   1.550 -0.0632  0.4909 -0.6692
 8748SOL    HW128012   0.823   4.642   1.576  1.0643  0.7213  2.3695
 8748SOL    HW228013   0.875   4.500   1.592  0.7850  0.1728 -0.8770
 8749SOL     OW28014   0.195   9.064   8.483 -0.2566 -0.2054 -0.4702
 8749SOL    HW128015   0.281   9.025   8.499  0.0114 -0.0373 -1.4705
 8749SOL    HW228016   0.181   9.055   8.389 -1.4247 -0.4039 -0.2917
 8750SOL     OW28017   4.552   2.921   4.586 -0.4829 -0.9403 -0.0497
 8750SOL    HW128018   4.459   2.908   4.603 -0.9451  2.0342  0.1229
 8750SOL    HW228019   4.561   2.903   4.492 -1.0457 -1.9206  0.0628
 8751SOL     OW28020   4.857   6.980   8.947 -1.3305  0.3212 -0.2849
 8751SOL    HW128021   4.880   7.011   8.859  1.7347  0.3939  0.4375
 8751SOL    HW228022   4.866   7.057   9.003  0.6370 -0.5072  0.6347
 8752SOL     OW28023   2.181   7.799   1.470  0.3212 -0.0610  0.3226
 8752SOL    HW128024   2.088   7.820   1.481  0.2750  0.4391 -0.8960
 8752SOL    HW228025   2.188   7.707   1.495 -0.6290 -0.3014 -0.2552
 8753SOL     OW28026   2.330   2.021   9.061 -0.1035  0.0311  0.0921
 8753SOL    HW128027   2.314   1.973   9.142  0.5913 -1.0292 -0.3800
 8753SOL    HW228028   2.245   2.024   9.017 -0.3864  0.2238  0.6345
 8754SOL     OW28029   8.687   3.049   2.515 -0.8032 -0.9403  0.0656
 8754SOL    HW128030   8.691   3.145   2.511  0.9536 -1.0151 -1.4906
 8754SOL    HW228031   8.594   3.029   2.512 -1.1644  0.6952 -2.1590
 8755SOL     OW28032   1.193   3.006   2.656  0.6533 -0.0298 -0.0850
 8755SOL    HW128033   1.225   3.083   2.704 -0.8997  1.2838 -1.0511
 8755SOL    HW228034   1.146   3.042   2.581 -2.5981 -1.7599  0.9182
 8756SOL     OW28035   7.064   6.492   5.379  0.4959  0.0931  0.1407
 8756SOL    HW128036   7.132   6.497   5.311  1.7694  0.8278  1.4259
 8756SOL    HW228037   7.112   6.474   5.460 -0.6043  2.4769  1.4257
 8757SOL     OW28038   7.413   4.523   6.257  0.0097  0.1712 -0.5012
 8757SOL    HW128039   7.404   4.581   6.332 -0.3237 -0.2285 -0.2233
 8757SOL    HW228040   7.323   4.502   6.232  0.1055 -1.3670  0.3181
 8758SOL     OW28041   8.032   6.307   5.663 -0.2149 -0.1453 -0.0809
 8758SOL    HW128042   7.944   6.322   5.697 -0.6626 -0.8095 -0.9069
 8758SOL    HW228043   8.020   6.244   5.592  1.1316 -1.6170  0.9255
 8759SOL     OW28044   5.445   1.479   4.483  0.6476  0.5282  0.2248
 8759SOL    HW128045   5.389   1.407   4.456  0.9789 -0.6595  2.4353
 8759SOL    HW228046   5.482   1.513   4.402 -1.1534 -0.4039 -1.0523
 8760SOL     OW28047   3.380   9.722   8.567  0.8359 -0.2781 -0.0114
 8760SOL    HW128048   3.337   9.649   8.521  1.3976 -0.5708 -0.0908
 8760SOL    HW228049   3.393   9.690   8.656  1.3886 -0.4039 -0.1371
 8761SOL     OW28050   1.935   9.484   3.471 -0.0752  0.0788  0.2290
 8761SOL    HW128051   1.943   9.545   3.398 -0.0332 -0.1706  0.0274
 8761SOL    HW228052   1.841   9.485   3.492 -0.3995 -1.2320 -1.0130
 8762SOL     OW28053   1.780   0.062   9.103  0.0901  0.1669  0.1933
 8762SOL    HW128054   1.861   0.091   9.145  1.3199 -0.3047 -1.7108
 8762SOL    HW228055   1.712   0.074   9.169  1.6319  1.0609  1.6738
 8763SOL     OW28056   0.441   1.963   9.549 -0.3082  0.7241 -0.1965
 8763SOL    HW128057   0.370   2.018   9.582 -0.9161  0.3386 -0.8138
 8763SOL    HW228058   0.408   1.873   9.559  0.3416  0.5099  0.0720
 8764SOL     OW28059   7.366   4.742   2.004 -0.3426 -0.3828  0.0371
 8764SOL    HW128060   7.366   4.837   2.018  0.9583 -0.2526 -0.6750
 8764SOL    HW228061   7.294   4.710   2.058 -1.6208  1.1350 -0.6598
 8765SOL     OW28062   1.819   7.417   8.975  0.8466  0.8816 -0.3933
 8765SOL    HW128063   1.905   7.394   8.940  0.7968  1.2083 -0.7371
 8765SOL    HW228064   1.834   7.433   9.068  1.1591  0.9263 -0.4511
 8766SOL     OW28065   3.053   9.371   7.067  0.7867  0.0925 -0.1731
 8766SOL    HW128066   3.091   9.434   7.005  0.4151 -1.2799 -1.8561
 8766SOL    HW228067   2.961   9.364   7.040  0.1923  0.6762  1.5904
 8767SOL     OW28068   1.874   6.986   5.669 -0.6069 -0.2070 -0.3103
 8767SOL    HW128069   1.860   6.958   5.760  2.3142  0.5740  0.4751
 8767SOL    HW228070   1.969   6.994   5.661 -0.7807 -0.3430 -3.5039
 8768SOL     OW28071   8.845   2.583   8.270 -0.3911  0.6554 -0.6328
 8768SOL    HW128072   8.878   2.494   8.263  0.5786  0.8454  0.9859
 8768SOL    HW228073   8.894   2.632   8.204  2.6507  0.9050  1.6032
 8769SOL     OW28074   8.612   9.489   3.515 -0.0319 -0.1358 -0.0811
 8769SOL    HW128075   8.571   9.487   3.601  0.7902  1.7543  0.3970
 8769SOL    HW228076   8.601   9.579   3.484 -2.8312 -1.3429 -3.2656
 8770SOL     OW28077   7.198   5.225   6.402  0.2360 -0.0833  0.3186
 8770SOL    HW128078   7.149   5.158   6.450 -0.9928  0.2529 -0.4193
 8770SOL    HW228079   7.131   5.274   6.354  1.2004  1.0884  0.1113
 8771SOL     OW28080   2.310   5.607   4.459  0.1804  0.6205 -0.0650
 8771SOL    HW128081   2.349   5.523   4.485 -0.0635 -0.7945 -3.6350
 8771SOL    HW228082   2.223   5.606   4.499 -0.7470 -2.0701 -1.8377
 8772SOL     OW28083   0.566   1.364   9.066  0.2240 -0.0546  0.1720
 8772SOL    HW128084   0.553   1.435   9.128 -1.0915 -0.0004 -0.1390
 8772SOL    HW228085   0.481   1.353   9.023  0.4674 -1.6228  0.0145
 8773SOL     OW28086   5.834   9.064   1.069  0.3495 -1.0178  0.9214
 8773SOL    HW128087   5.804   8.988   1.018 -0.0049 -1.9252  2.4373
 8773SOL    HW228088   5.918   9.088   1.029 -1.1597  0.1098 -1.9194
 8774SOL     OW28089   6.539   3.330   9.442 -0.4575  0.2344 -0.3127
 8774SOL    HW128090   6.604   3.284   9.390  0.0274  0.3333  0.2025
 8774SOL    HW228091   6.541   3.287   9.527 -0.0646  1.1435  0.1449
 8775SOL     OW28092   4.157   1.454   4.701 -0.0859 -0.2802 -0.2574
 8775SOL    HW128093   4.112   1.501   4.771  2.9346  0.0019  1.7042
 8775SOL    HW228094   4.089   1.433   4.638 -2.4470  2.1760  1.2733
 8776SOL     OW28095   8.951   6.904   9.109 -0.5093 -0.0359 -0.1547
 8776SOL    HW128096   8.973   6.861   9.192 -2.9103 -1.7904 -0.3333
 8776SOL    HW228097   8.943   6.996   9.132  3.1970  0.2497  0.5776
 8777SOL     OW28098   4.195   5.591   1.972 -0.2881  0.1202  0.0770
 8777SOL    HW128099   4.255   5.524   1.941 -0.9015  0.0600 -1.0543
 8777SOL    HW228100   4.220   5.606   2.063 -0.4509 -1.9812  0.5109
 8778SOL     OW28101   0.261   0.628   1.216 -0.2638  0.5266 -0.7026
 8778SOL    HW128102   0.282   0.534   1.221 -0.7987  0.4644  0.9070
 8778SOL    HW228103   0.185   0.632   1.158 -0.1781 -0.0243 -0.8622
 8779SOL     OW28104   8.019   0.967   0.747  0.2639  0.3435 -0.2123
 8779SOL    HW128105   8.002   0.989   0.656  0.6239 -2.7301 -1.1146
 8779SOL    HW228106   8.107   0.931   0.747 -0.4952 -1.6573  0.9322
 8780SOL     OW28107   5.447   5.751   7.112 -0.4743 -0.3536 -0.3065
 8780SOL    HW128108   5.398   5.833   7.111  0.9870  0.5678 -2.3407
 8780SOL    HW228109   5.381   5.684   7.092 -1.0674  0.7923 -2.4830
 8781SOL     OW28110   2.191   0.855   3.960  0.0031  0.1420 -0.4769
 8781SOL    HW128111   2.211   0.802   4.036  1.3919 -1.3067 -1.7846
 8781SOL    HW228112   2.258   0.923   3.959 -0.5199  0.6793  0.0295
 8782SOL     OW28113   1.964   6.128   6.342  0.3092  0.0207 -0.4626
 8782SOL    HW128114   2.058   6.135   6.361  0.0180  2.5102  0.5312
 8782SOL    HW228115   1.938   6.218   6.321 -2.1862 -0.2651  1.0342
 8783SOL     OW28116   3.056   0.114   1.239 -0.9606  0.1348 -0.0312
 8783SOL    HW128117   2.978   0.138   1.290 -1.1482  0.0544 -0.2776
 8783SOL    HW228118   3.111   0.065   1.300 -1.0825  0.2312  0.1575
 8784SOL     OW28119   5.237   0.841   7.087  0.1312  0.3450 -0.4188
 8784SOL    HW128120   5.201   0.889   7.161  0.0992  0.2486 -0.3709
 8784SOL    HW228121   5.196   0.755   7.093  2.0886 -0.5820  1.0092
 8785SOL     OW28122   6.977   3.391   6.139  0.5277  0.2219  0.7142
 8785SOL    HW128123   6.935   3.360   6.219  0.6469 -0.1883  0.6204
 8785SOL    HW228124   6.991   3.485   6.154 -3.6671  1.2861 -0.6031
 8786SOL     OW28125   8.120   8.388   2.888 -0.1194 -0.3270 -0.6033
 8786SOL    HW128126   8.037   8.381   2.840 -1.1381  2.9794  0.3953
 8786SOL    HW228127   8.110   8.327   2.961 -2.2164  0.7498  0.1023
 8787SOL     OW28128   8.106   3.740   2.841 -0.0703  0.3893 -0.4176
 8787SOL    HW128129   8.086   3.673   2.776 -2.0782  0.7695 -0.2431
 8787SOL    HW228130   8.132   3.816   2.790  0.4403  0.0376 -0.6842
 8788SOL     OW28131   8.674   8.833   4.658 -0.3472  0.0143 -0.0509
 8788SOL    HW128132   8.739   8.799   4.720 -0.2339 -0.2382 -0.3059
 8788SOL    HW228133   8.665   8.764   4.592  0.5062  0.8202 -1.0409
 8789SOL     OW28134   8.631   4.915   4.427  0.2580 -0.1033 -0.0173
 8789SOL    HW128135   8.631   5.007   4.455  0.0198 -0.3517  0.8443
 8789SOL    HW228136   8.696   4.874   4.484 -0.6401 -0.7390  0.5656
 8790SOL     OW28137   2.493   7.272   1.719 -0.5027 -0.2483  0.6090
 8790SOL    HW128138   2.403   7.240   1.726 -1.2323  1.5611  0.1659
 8790SOL    HW228139   2.520   7.249   1.630 -0.7155 -0.3511  0.5709
 8791SOL     OW28140   5.880   6.983   0.167  0.1686 -0.6658 -0.2145
 8791SOL    HW128141   5.796   6.940   0.182 -0.1607  0.2779  0.8917
 8791SOL    HW228142   5.868   7.032   0.086 -1.4797  1.9088  1.4200
 8792SOL     OW28143   3.330   0.357   7.425  0.2903  0.1457 -1.1419
 8792SOL    HW128144   3.320   0.416   7.351  0.2618 -0.9044 -1.9878
 8792SOL    HW228145   3.341   0.415   7.500  1.4341  1.2183 -2.1130
 8793SOL     OW28146   0.623   8.660   4.836  0.1187  0.5762 -0.6305
 8793SOL    HW128147   0.579   8.715   4.901  0.1377 -0.3709  0.1984
 8793SOL    HW228148   0.574   8.674   4.755 -1.5802 -0.2719  0.2205
 8794SOL     OW28149   4.637   4.427   5.210  0.6589 -0.0208  0.3931
 8794SOL    HW128150   4.636   4.337   5.243  0.7244 -0.1523  0.0351
 8794SOL    HW228151   4.629   4.418   5.115  3.2086  0.2032  0.0782
 8795SOL     OW28152   5.853   7.941   2.032 -0.5179 -0.3354 -0.0316
 8795SOL    HW128153   5.883   7.851   2.046 -1.7101 -0.5557  1.2992
 8795SOL    HW228154   5.929   7.985   1.994  0.6789 -1.4672  0.9289
 8796SOL     OW28155   5.131   3.710   5.598  0.1947  0.2959  0.8109
 8796SOL    HW128156   5.090   3.793   5.573 -0.3341  0.0638  0.8951
 8796SOL    HW228157   5.062   3.662   5.643  1.0609  0.6334  2.5782
 8797SOL     OW28158   1.054   2.961   4.793  0.6257  0.5276 -0.3756
 8797SOL    HW128159   0.980   2.976   4.851 -0.5036 -0.2584 -1.5700
 8797SOL    HW228160   1.079   2.870   4.809  0.8387  0.5575 -0.5383
 8798SOL     OW28161   4.353   8.181   1.893 -0.4618  0.8645  0.3723
 8798SOL    HW128162   4.406   8.244   1.941 -0.2368  1.3330 -0.4721
 8798SOL    HW228163   4.360   8.208   1.801  1.0235 -1.3798 -0.2500
 8799SOL     OW28164   6.433   7.822   2.268 -0.4374  0.3025 -0.5573
 8799SOL    HW128165   6.474   7.811   2.354  0.4219 -0.0894 -1.0084
 8799SOL    HW228166   6.427   7.917   2.256  2.0190  0.4200 -1.2478
 8800SOL     OW28167   0.223   4.178   7.259  0.4141  0.3637 -0.1685
 8800SOL    HW128168   0.235   4.091   7.221  0.6073  0.3379 -0.0553
 8800SOL    HW228169   0.190   4.161   7.347 -1.1802  0.4584 -0.7286
 8801SOL     OW28170   2.927   3.709   2.159  0.5923  0.2472  0.5823
 8801SOL    HW128171   3.013   3.667   2.155  0.4788  0.0479  0.2501
 8801SOL    HW228172   2.918   3.736   2.251  0.7991 -0.1636  0.7233
 8802SOL     OW28173   6.773   2.927   6.702 -0.3498  0.2353  0.1189
 8802SOL    HW128174   6.812   2.889   6.623 -0.6839  1.4615 -0.6733
 8802SOL    HW228175   6.768   3.021   6.683  0.6023  0.7388  2.0455
 8803SOL     OW28176   0.485   3.453   8.446 -0.2438 -0.0993 -0.3893
 8803SOL    HW128177   0.455   3.525   8.501  0.6047 -0.8434  1.1031
 8803SOL    HW228178   0.411   3.392   8.444 -0.3575  0.0334 -0.2606
 8804SOL     OW28179   6.732   8.215   3.229  0.8052  0.4165 -0.3232
 8804SOL    HW128180   6.714   8.144   3.167 -0.1482  0.4625 -0.1258
 8804SOL    HW228181   6.820   8.198   3.261  0.9759 -0.0990 -1.0452
 8805SOL     OW28182   1.650   2.834   9.036  0.6512 -0.4241  0.0259
 8805SOL    HW128183   1.689   2.919   9.056  1.5377 -0.7163 -0.4146
 8805SOL    HW228184   1.571   2.830   9.090 -0.6063  1.5771 -1.5449
 8806SOL     OW28185   7.609   4.618   2.083  0.1270 -0.6861  0.2056
 8806SOL    HW128186   7.649   4.662   2.158 -0.5162 -1.4930  1.0535
 8806SOL    HW228187   7.528   4.666   2.068  0.1821 -0.6184  0.1222
 8807SOL     OW28188   7.666   1.916   4.334 -0.2661  0.0824 -0.4060
 8807SOL    HW128189   7.755   1.883   4.352 -0.2852 -0.2513 -0.9204
 8807SOL    HW228190   7.609   1.858   4.384 -0.1947  0.3130 -0.0534
 8808SOL     OW28191   4.167   4.346   7.875 -0.4540 -0.6264 -0.5552
 8808SOL    HW128192   4.192   4.258   7.848 -0.0570 -0.4907 -0.6385
 8808SOL    HW228193   4.138   4.388   7.794 -0.5765 -0.6584 -0.5279
 8809SOL     OW28194   2.991   6.909   2.313 -0.3712  0.0192  0.3327
 8809SOL    HW128195   2.977   6.861   2.231 -0.2014 -1.1463  0.9741
 8809SOL    HW228196   2.907   6.901   2.360  0.0013 -0.5794  0.9098
 8810SOL     OW28197   4.713   6.369   8.910 -0.0021  0.0280  0.1608
 8810SOL    HW128198   4.733   6.412   8.993 -0.1960  1.1730 -0.3720
 8810SOL    HW228199   4.638   6.418   8.875  0.2693 -0.2501 -0.8361
 8811SOL     OW28200   0.947   2.281   6.531 -0.5550 -0.1913  0.2615
 8811SOL    HW128201   0.872   2.240   6.574  0.7967 -2.6546  0.4977
 8811SOL    HW228202   0.954   2.367   6.570 -3.0975  0.0405  0.3813
 8812SOL     OW28203   9.123   5.304   6.081  0.3580  0.4224  0.3161
 8812SOL    HW128204   9.119   5.302   6.177  1.2946  0.7175  0.3705
 8812SOL    HW228205   9.156   5.392   6.060 -1.5430  1.0252 -0.3596
 8813SOL     OW28206   4.159   8.151   2.234 -0.2039 -0.3164 -0.3064
 8813SOL    HW128207   4.151   8.137   2.140 -0.5448 -0.6356 -0.2322
 8813SOL    HW228208   4.073   8.182   2.262 -0.0784 -0.1338 -0.1133
 8814SOL     OW28209   9.501   5.548   4.911  0.3448 -0.1765 -0.4155
 8814SOL    HW128210   9.516   5.516   4.822  1.4217 -1.4040  0.1635
 8814SOL    HW228211   9.588   5.544   4.952 -0.1360  0.3583  0.6893
 8815SOL     OW28212   2.797   6.603   7.870 -0.0609 -0.8082 -0.3177
 8815SOL    HW128213   2.842   6.557   7.941 -0.1175  0.7755  0.7812
 8815SOL    HW228214   2.794   6.694   7.898 -3.0264 -0.6665 -0.8345
 8816SOL     OW28215   2.237   8.353   3.047  0.1598 -0.0633 -0.4970
 8816SOL    HW128216   2.181   8.282   3.018 -0.1364 -0.3724  0.7622
 8816SOL    HW228217   2.297   8.313   3.111  1.9303  0.2305 -1.8789
 8817SOL     OW28218   2.384   6.486   4.194 -0.3968 -0.1167 -0.1992
 8817SOL    HW128219   2.321   6.439   4.138 -0.8942 -1.0009  1.0624
 8817SOL    HW228220   2.331   6.553   4.238 -0.2946 -0.3218  0.2415
 8818SOL     OW28221   7.166   2.169   7.285  0.6281  0.4601  0.0617
 8818SOL    HW128222   7.256   2.162   7.254  0.6536  0.4379  0.1422
 8818SOL    HW228223   7.116   2.110   7.228  0.4989  1.2384 -0.6584
 8819SOL     OW28224   9.810   2.059   6.724 -0.3147 -0.5363 -0.2713
 8819SOL    HW128225   9.762   2.002   6.785  1.9351 -0.5625  1.6155
 8819SOL    HW228226   9.773   2.146   6.739 -0.6859 -0.7638  0.1558
 8820SOL     OW28227   5.383   5.671   3.450 -0.3852 -0.4511 -0.5076
 8820SOL    HW128228   5.288   5.666   3.465 -0.7321 -0.3175 -2.4061
 8820SOL    HW228229   5.405   5.586   3.413  0.4666 -0.8633  0.8634
 8821SOL     OW28230   0.454   3.151   9.571 -0.0162 -0.0228 -0.1926
 8821SOL    HW128231   0.384   3.215   9.578  1.0095  0.9041  3.4286
 8821SOL    HW228232   0.523   3.196   9.522 -0.9821 -0.1341 -1.7485
 8822SOL     OW28233   6.344   1.181   2.812  0.3314  0.6558 -0.1829
 8822SOL    HW128234   6.252   1.195   2.790  0.2200 -0.1621 -0.2562
 8822SOL    HW228235   6.365   1.095   2.776  0.1905 -0.6872  2.6306
 8823SOL     OW28236   5.436   8.354   2.544 -0.2555 -0.3634 -0.0655
 8823SOL    HW128237   5.382   8.341   2.466 -1.1051  1.6687  0.1282
 8823SOL    HW228238   5.374   8.354   2.617  0.1888  0.3533  0.3290
 8824SOL     OW28239   2.341   3.001   1.723  0.0492  0.5191  0.0830
 8824SOL    HW128240   2.259   2.976   1.680  0.8469  0.0667 -1.2747
 8824SOL    HW228241   2.380   3.065   1.663  1.1125  0.0313  0.2425
 8825SOL     OW28242   3.542   3.838   0.127 -0.6337  0.0349 -0.7998
 8825SOL    HW128243   3.518   3.930   0.139 -0.3697 -0.1237  1.3431
 8825SOL    HW228244   3.613   3.823   0.191 -0.5302 -1.5956 -1.2559
 8826SOL     OW28245   1.859   9.221   2.692  0.4297 -0.1877 -0.8112
 8826SOL    HW128246   1.779   9.190   2.650  0.2897 -1.2548  0.1929
 8826SOL    HW228247   1.890   9.292   2.636 -0.6598 -0.4462 -1.7692
 8827SOL     OW28248   3.092   2.743   9.266  0.2736  0.0937  0.1162
 8827SOL    HW128249   3.129   2.798   9.197 -2.9282  1.5928 -0.5982
 8827SOL    HW228250   3.046   2.673   9.218  0.8227 -0.7958  0.8746
 8828SOL     OW28251   8.747   9.102   4.766  0.4677  0.5850 -0.4910
 8828SOL    HW128252   8.719   9.015   4.736  2.2713 -0.3294  0.2921
 8828SOL    HW228253   8.669   9.157   4.758 -1.2189 -1.5049  0.5881
 8829SOL     OW28254   3.383   7.027   8.679 -0.1710  0.2830 -0.0490
 8829SOL    HW128255   3.420   7.067   8.600  0.0421  0.2685  0.0432
 8829SOL    HW228256   3.293   7.060   8.683 -1.0052 -1.6054 -1.6369
 8830SOL     OW28257   4.513   6.639   1.953  0.4989 -0.0748 -0.2185
 8830SOL    HW128258   4.577   6.633   1.883  1.9935  2.4277  0.8113
 8830SOL    HW228259   4.484   6.730   1.952  1.5680  0.4357  3.1655
 8831SOL     OW28260   3.101   5.921   6.140 -0.4847  0.2439  0.1799
 8831SOL    HW128261   3.101   5.973   6.220  0.9499 -0.3636  0.6099
 8831SOL    HW228262   3.132   5.981   6.072  1.0021  0.0174  0.6387
 8832SOL     OW28263   5.205   0.158   3.170  0.4673  0.7865  0.1429
 8832SOL    HW128264   5.172   0.070   3.190 -0.0052  0.9497  0.0923
 8832SOL    HW228265   5.260   0.180   3.245  0.2190  0.6304  0.3732
 8833SOL     OW28266   3.867   6.029   4.030 -0.1280  0.0969  0.0707
 8833SOL    HW128267   3.952   6.054   3.994  0.4547 -0.2359  1.1979
 8833SOL    HW228268   3.803   6.064   3.967  0.8651 -0.8144 -1.5074
 8834SOL     OW28269   2.729   1.925   6.329  0.2219 -0.4728  0.2895
 8834SOL    HW128270   2.805   1.973   6.298 -2.0736  2.5520 -1.1759
 8834SOL    HW228271   2.716   1.956   6.419  0.9397 -1.3757  0.7226
 8835SOL     OW28272   3.240   2.289   7.443 -0.4837 -0.2023  0.5941
 8835SOL    HW128273   3.241   2.215   7.383  2.6095  1.3163 -1.4525
 8835SOL    HW228274   3.228   2.249   7.529 -0.7766 -2.8759 -0.5781
 8836SOL     OW28275   5.971   3.788   6.362  0.4738  0.5930 -0.2881
 8836SOL    HW128276   6.002   3.825   6.280 -1.7855  2.5531 -0.3582
 8836SOL    HW228277   5.914   3.855   6.399  1.8624  0.0747  3.2368
 8837SOL     OW28278   2.877   2.797   4.171 -0.1738  0.3090 -0.0557
 8837SOL    HW128279   2.947   2.816   4.233  0.4435 -0.5467 -0.4642
 8837SOL    HW228280   2.920   2.747   4.101 -1.3654 -1.1159  0.1693
 8838SOL     OW28281   7.528   3.297   5.413 -0.3203 -0.3504 -0.0146
 8838SOL    HW128282   7.477   3.309   5.333 -1.6743  1.6703  1.0733
 8838SOL    HW228283   7.593   3.368   5.411 -0.4421 -0.2075  0.7311
 8839SOL     OW28284   7.985   2.933   7.164  0.2338 -0.1605  0.5270
 8839SOL    HW128285   8.069   2.978   7.166 -0.1433  0.7338 -1.6149
 8839SOL    HW228286   7.931   2.980   7.228  0.1092  2.0442 -1.0653
 8840SOL     OW28287   4.971   7.805   8.123  0.3437 -0.5896 -0.1560
 8840SOL    HW128288   5.052   7.831   8.078 -0.7843  3.1126 -0.4359
 8840SOL    HW228289   4.987   7.826   8.215  0.0329 -0.7868 -0.0563
 8841SOL     OW28290   0.393   7.733   9.819  0.3562 -0.2681  0.0048
 8841SOL    HW128291   0.370   7.778   9.737 -2.4179 -0.7027  0.4535
 8841SOL    HW228292   0.419   7.804   9.878 -0.2820  0.3680 -0.4480
 8842SOL     OW28293   5.325   0.488   9.108  0.6531  0.4502  0.6180
 8842SOL    HW128294   5.266   0.516   9.038  2.8874 -0.0880 -1.5931
 8842SOL    HW228295   5.269   0.483   9.186 -1.3258  4.1389 -0.3463
 8843SOL     OW28296   3.355   3.077   0.728  0.5087 -0.1136  0.0978
 8843SOL    HW128297   3.370   3.151   0.669  0.5069 -0.6030 -0.5295
 8843SOL    HW228298   3.261   3.079   0.747  0.8717  1.4345  1.9781
 8844SOL     OW28299   4.649   6.069   7.062  0.0179  0.0116  0.0629
 8844SOL    HW128300   4.649   6.143   7.124  1.8523  0.3617 -0.2943
 8844SOL    HW228301   4.557   6.042   7.057 -0.2952  0.4111  2.4095
 8845SOL     OW28302   5.550   9.781   6.769  0.3991 -0.1156 -0.2050
 8845SOL    HW128303   5.583   9.699   6.732  1.1165  0.9060 -1.9463
 8845SOL    HW228304   5.611   9.801   6.840 -0.3922 -1.5827  0.9546
 8846SOL     OW28305   6.841   2.720   5.157  0.1989  0.0021 -0.1463
 8846SOL    HW128306   6.771   2.757   5.212  0.4373 -1.0623  0.9163
 8846SOL    HW228307   6.913   2.704   5.218  0.6719 -0.7096 -0.8746
 8847SOL     OW28308   0.664   1.362   2.923  0.2472  0.4064  1.0510
 8847SOL    HW128309   0.750   1.322   2.912  0.2406  0.6519  0.0580
 8847SOL    HW228310   0.602   1.290   2.912  0.1250  0.9327 -2.8614
 8848SOL     OW28311   7.827   5.840   1.839  0.1555 -0.2154  0.2933
 8848SOL    HW128312   7.747   5.810   1.881 -0.0286  0.8141  0.7251
 8848SOL    HW228313   7.816   5.935   1.833  1.0407 -0.1348 -0.2906
 8849SOL     OW28314   6.980   9.617   2.147  0.1378  0.3821 -0.2321
 8849SOL    HW128315   6.899   9.610   2.096  0.1122  1.6771 -0.3985
 8849SOL    HW228316   6.972   9.700   2.194  0.9097  0.0151  0.5802
 8850SOL     OW28317   4.444   5.396   6.317 -0.0211 -0.2454  0.1028
 8850SOL    HW128318   4.428   5.401   6.411 -0.5462  2.1363 -0.0584
 8850SOL    HW228319   4.369   5.348   6.282  1.1196 -2.8965  1.0361
 8851SOL     OW28320   9.370   6.308   6.076  0.0856  0.4545 -0.9001
 8851SOL    HW128321   9.283   6.269   6.086  0.4919 -0.0220  0.9661
 8851SOL    HW228322   9.383   6.360   6.155  3.2008 -2.9186  1.0750
 8852SOL     OW28323   6.835   4.985   2.636 -0.1304  0.0840  0.1168
 8852SOL    HW128324   6.856   4.967   2.728  1.0220  0.6092 -0.0262
 8852SOL    HW228325   6.888   4.922   2.587 -2.1704 -1.5065 -0.1733
 8853SOL     OW28326   8.702   5.714   0.686  0.1662 -0.6850 -0.3387
 8853SOL    HW128327   8.700   5.724   0.591  0.4282  0.6509 -0.2228
 8853SOL    HW228328   8.675   5.799   0.720  2.1842 -0.4168  0.7886
 8854SOL     OW28329   0.376   4.358   9.616  0.4364 -0.1972  0.1436
 8854SOL    HW128330   0.357   4.284   9.559  2.4811 -0.3258 -0.4473
 8854SOL    HW228331   0.391   4.320   9.702  0.0941 -0.3097  0.1538
 8855SOL     OW28332   9.765   3.421   2.889 -0.4832 -0.0304  0.2490
 8855SOL    HW128333   9.718   3.341   2.865 -2.1340  0.8793  0.3021
 8855SOL    HW228334   9.811   3.398   2.970  0.0688 -1.2740 -0.3968
 8856SOL     OW28335   8.367   7.920   0.575 -0.2329  0.1960  0.2976
 8856SOL    HW128336   8.373   7.852   0.642  0.7143 -0.6924 -0.6424
 8856SOL    HW228337   8.333   7.996   0.621  1.4719 -0.0129  2.0468
 8857SOL     OW28338   1.265   8.191   1.047 -0.3786  0.4159 -0.7137
 8857SOL    HW128339   1.225   8.113   1.085 -3.6029  2.6764  0.9958
 8857SOL    HW228340   1.221   8.202   0.963  1.0883 -0.2806 -1.6133
 8858SOL     OW28341   2.447   1.891   8.458  0.1567  0.1197  0.0093
 8858SOL    HW128342   2.386   1.819   8.478  0.0799  0.0595 -0.4191
 8858SOL    HW228343   2.458   1.937   8.541  2.1170 -1.8046  0.9351
 8859SOL     OW28344   9.151   8.837   5.635  0.0495 -0.4607 -0.5004
 8859SOL    HW128345   9.104   8.915   5.664  1.6267  0.6299 -0.7473
 8859SOL    HW228346   9.123   8.768   5.694 -1.8436  0.1249 -0.6510
 8860SOL     OW28347   2.804   4.341   1.655 -0.1091  0.2980 -0.5321
 8860SOL    HW128348   2.795   4.389   1.737 -0.2356  1.5852 -1.2853
 8860SOL    HW228349   2.885   4.374   1.617 -0.6804  0.6139 -1.5051
 8861SOL     OW28350   9.817   3.116   1.440  0.5474 -0.1611 -0.0736
 8861SOL    HW128351   9.879   3.153   1.377  0.0006  0.0217 -0.5114
 8861SOL    HW228352   9.852   3.142   1.525  1.1053 -0.1083 -0.3118
 8862SOL     OW28353   3.984   0.982   2.638  0.1379  0.0568  0.6808
 8862SOL    HW128354   4.029   0.954   2.558 -0.5209 -0.6484  0.5417
 8862SOL    HW228355   3.945   1.067   2.615 -1.0690 -0.6950 -0.1683
 8863SOL     OW28356   4.192   6.407   0.258  0.2104  0.3383  0.5646
 8863SOL    HW128357   4.166   6.403   0.350 -0.0329 -1.0345  0.4470
 8863SOL    HW228358   4.188   6.500   0.236 -2.5863  0.4093  1.1219
 8864SOL     OW28359   8.517   8.404   6.667  0.1098  0.3443 -0.2320
 8864SOL    HW128360   8.541   8.396   6.759 -1.9303  2.8379  0.6474
 8864SOL    HW228361   8.498   8.314   6.638 -0.7325 -0.3389  2.2491
 8865SOL     OW28362   8.214   8.613   0.856  0.6864 -0.2847 -0.1109
 8865SOL    HW128363   8.223   8.702   0.822  0.8511 -0.3498 -0.2363
 8865SOL    HW228364   8.131   8.582   0.819  1.3921 -0.7492 -1.3443
 8866SOL     OW28365   7.127   2.947   5.527 -0.3454  0.0196  0.0647
 8866SOL    HW128366   7.158   2.857   5.524  0.2984  0.1494  1.5874
 8866SOL    HW228367   7.170   2.984   5.604 -2.9405  0.7534  1.2671
 8867SOL     OW28368   3.388   9.755   7.660  0.1451 -0.0693 -0.4804
 8867SOL    HW128369   3.350   9.840   7.639 -1.6234 -0.3887  1.1691
 8867SOL    HW228370   3.472   9.775   7.702  1.2185  0.6988 -2.8162
 8868SOL     OW28371   7.674   8.961   8.394  0.2866 -0.0976 -0.0702
 8868SOL    HW128372   7.766   8.943   8.375  0.5578 -0.1451  1.2097
 8868SOL    HW228373   7.645   9.017   8.322  1.2950 -0.1461 -0.5225
 8869SOL     OW28374   5.851   6.105   6.511  0.2945 -0.1026 -0.2193
 8869SOL    HW128375   5.942   6.118   6.482 -0.0165 -1.7263 -2.1559
 8869SOL    HW228376   5.858   6.042   6.583  0.9072  2.4909  2.2082
 8870SOL     OW28377   8.733   6.019   4.408 -0.0709  0.3307  0.0557
 8870SOL    HW128378   8.814   6.069   4.422  0.1916 -0.6065  2.3746
 8870SOL    HW228379   8.741   5.945   4.468 -1.6940 -0.9937 -1.2755
 8871SOL     OW28380   1.952   3.614   5.745 -0.0097  0.1449  0.1468
 8871SOL    HW128381   1.882   3.636   5.683  0.5784 -0.2362 -0.6771
 8871SOL    HW228382   1.976   3.524   5.722  0.0253 -0.1067  1.1313
 8872SOL     OW28383   4.203   4.342   3.177 -0.0672  0.3110  0.2793
 8872SOL    HW128384   4.211   4.437   3.186  1.2593  0.4166 -1.5819
 8872SOL    HW228385   4.111   4.327   3.158 -0.7435  0.9766  2.5955
 8873SOL     OW28386   4.971   7.721   7.432 -0.0902  0.9336  0.3911
 8873SOL    HW128387   4.941   7.758   7.349 -1.0949  2.6351  1.4647
 8873SOL    HW228388   5.039   7.658   7.407 -0.8211  0.9212 -1.7491
 8874SOL     OW28389   4.759   0.125   5.534 -0.7733 -0.3325 -0.2974
 8874SOL    HW128390   4.795   0.134   5.622 -1.0358 -1.0808 -0.1111
 8874SOL    HW228391   4.762   0.031   5.516  0.5038 -0.0821 -1.6014
 8875SOL     OW28392   6.665   5.629   7.057 -0.4386  1.2041  0.4489
 8875SOL    HW128393   6.603   5.630   6.984 -1.7980  1.9676  1.5693
 8875SOL    HW228394   6.694   5.538   7.063  0.0002  1.1909 -1.2603
 8876SOL     OW28395   9.194   8.528   8.178 -0.2413  0.1131 -0.5287
 8876SOL    HW128396   9.136   8.600   8.204  0.5531  0.9459 -1.0102
 8876SOL    HW228397   9.198   8.534   8.082 -2.0280 -2.0497 -0.8148
 8877SOL     OW28398   0.003   5.590   2.458  0.1857 -0.2461  0.5749
 8877SOL    HW128399  -0.052   5.547   2.523 -0.8598 -2.4390 -1.6101
 8877SOL    HW228400  -0.044   5.670   2.436  0.5433  0.5187  2.4013
 8878SOL     OW28401   7.596   4.114   4.308  0.1415  0.3847 -0.0726
 8878SOL    HW128402   7.649   4.041   4.340 -1.4267 -1.6502 -1.8390
 8878SOL    HW228403   7.581   4.094   4.215 -2.2289  1.7864 -0.0705
 8879SOL     OW28404   2.930   0.018   3.275 -0.2292  0.3689  0.3662
 8879SOL    HW128405   2.967  -0.061   3.315 -2.6371 -0.4086  1.2459
 8879SOL    HW228406   2.986   0.035   3.199  0.1789 -2.3794 -0.0598
 8880SOL     OW28407   1.679   5.587   6.640 -0.1937  0.2395 -0.2525
 8880SOL    HW128408   1.730   5.652   6.688 -1.2430  0.9188 -0.0268
 8880SOL    HW228409   1.613   5.557   6.703  1.5661 -2.6906  0.3865
 8881SOL     OW28410   3.551   2.507   1.993  0.7356 -0.2544  0.4067
 8881SOL    HW128411   3.471   2.525   2.042  0.8835 -0.2412  0.6497
 8881SOL    HW228412   3.527   2.441   1.929  1.0109 -1.8306  1.8527
 8882SOL     OW28413   0.236   5.565   1.289 -0.4474  0.2759 -0.5363
 8882SOL    HW128414   0.321   5.542   1.253 -0.0835  1.0856 -0.2224
 8882SOL    HW228415   0.192   5.481   1.304 -0.0947 -0.1105 -1.6069
 8883SOL     OW28416   5.845   0.101   7.976  0.8825  0.0718  0.0600
 8883SOL    HW128417   5.902   0.157   7.923  1.9973 -0.7393  0.3719
 8883SOL    HW228418   5.770   0.084   7.919  0.6843  1.5573 -0.1737
 8884SOL     OW28419   5.348   0.846   9.362  0.4291 -0.5208 -0.1794
 8884SOL    HW128420   5.443   0.851   9.367  0.3264  0.9347  0.8991
 8884SOL    HW228421   5.325   0.767   9.410  0.9354  0.9828  2.7579
 8885SOL     OW28422   3.188   6.928   1.381 -0.3545  0.1998 -0.1198
 8885SOL    HW128423   3.272   6.916   1.425 -0.7381 -1.1939  0.2828
 8885SOL    HW228424   3.186   7.021   1.358  0.3739  0.7285  1.7616
 8886SOL     OW28425   4.689   5.303   7.760 -0.3289  0.7258  0.1995
 8886SOL    HW128426   4.706   5.298   7.666 -0.6270 -2.0603  0.2077
 8886SOL    HW228427   4.718   5.219   7.794 -0.2389  1.6650  2.6320
 8887SOL     OW28428   2.572   4.417   2.025  0.0715 -0.0725  0.2672
 8887SOL    HW128429   2.555   4.336   2.073  0.2756  0.2574  0.9042
 8887SOL    HW228430   2.580   4.484   2.093  1.1182  0.2759 -0.1803
 8888SOL     OW28431   3.991   9.723   9.489  0.0484 -0.0428  0.0027
 8888SOL    HW128432   3.905   9.705   9.528  0.8006 -1.4904  1.0706
 8888SOL    HW228433   4.004   9.817   9.504 -2.1240  0.6470 -1.8659
 8889SOL     OW28434   8.477   1.331   2.335  0.3059 -0.2066  0.4436
 8889SOL    HW128435   8.440   1.400   2.391 -0.2748 -0.3471  0.2355
 8889SOL    HW228436   8.401   1.287   2.298  0.5541  2.1677 -3.4094
 8890SOL     OW28437   8.976   7.418   2.842 -0.1794  0.0440  0.1491
 8890SOL    HW128438   8.929   7.481   2.896 -2.9554 -0.7501 -1.1512
 8890SOL    HW228439   8.942   7.333   2.869 -1.1496 -0.4143 -2.2788
 8891SOL     OW28440   1.672   6.053   0.032 -0.1356  0.7212  0.1112
 8891SOL    HW128441   1.661   6.099  -0.051  1.2622  0.6738 -0.1297
 8891SOL    HW228442   1.609   6.094   0.091 -1.5462  0.3766 -1.1076
 8892SOL     OW28443   8.576   0.541   9.303  0.2739  0.0385 -0.3776
 8892SOL    HW128444   8.535   0.456   9.322  2.0810 -0.1345  3.8135
 8892SOL    HW228445   8.502   0.601   9.293 -1.0300 -1.4222  0.0387
 8893SOL     OW28446   1.792   3.058   8.570 -0.2191  0.3074 -0.3889
 8893SOL    HW128447   1.846   2.986   8.602  0.2240 -0.1033 -1.9615
 8893SOL    HW228448   1.703   3.025   8.571 -0.0354 -0.2242 -0.9393
 8894SOL     OW28449   3.795   2.040   5.809  0.1525 -0.4278 -0.6646
 8894SOL    HW128450   3.704   2.065   5.822  0.7875  1.5253  0.3366
 8894SOL    HW228451   3.833   2.111   5.758  1.2367 -0.9857 -0.6656
 8895SOL     OW28452   8.760   8.928   9.140 -0.2391 -0.1553 -0.0991
 8895SOL    HW128453   8.717   8.867   9.199  0.0676 -0.3590 -0.0850
 8895SOL    HW228454   8.688   8.979   9.101 -0.4724 -0.3418  0.0898
 8896SOL     OW28455   1.642   2.896   3.426  0.2470  0.7127  1.1947
 8896SOL    HW128456   1.579   2.829   3.402  1.6411  0.8516 -3.9957
 8896SOL    HW228457   1.721   2.848   3.449 -0.2238  0.6145  2.7085
 8897SOL     OW28458   7.856   3.341   3.626 -0.7980  0.1936  0.2606
 8897SOL    HW128459   7.856   3.338   3.722  1.2726  0.6468  0.3287
 8897SOL    HW228460   7.859   3.435   3.605 -2.4560  0.1502 -0.3110
 8898SOL     OW28461   6.260   7.944   3.019 -0.5583  0.1610 -0.1045
 8898SOL    HW128462   6.301   7.941   3.105 -0.8901 -3.2529  0.0922
 8898SOL    HW228463   6.171   7.911   3.033 -1.5431  2.0448 -1.4051
 8899SOL     OW28464   4.801   4.104   2.158  0.3788 -0.1054 -0.1917
 8899SOL    HW128465   4.810   4.093   2.253 -0.8897  1.3128  0.1280
 8899SOL    HW228466   4.723   4.054   2.135  1.3927 -1.5151 -0.7498
 8900SOL     OW28467   1.452   1.821   1.302  0.6715  0.2763  0.2899
 8900SOL    HW128468   1.534   1.792   1.262  0.5059 -0.4680  0.4676
 8900SOL    HW228469   1.419   1.743   1.348 -0.3716  0.4248 -0.1744
 8901SOL     OW28470   3.982   1.258   6.090 -0.0594 -0.1902  0.1692
 8901SOL    HW128471   3.934   1.175   6.098 -1.1484  0.5117  1.3343
 8901SOL    HW228472   3.948   1.298   6.011  0.7617 -1.0175 -0.6246
 8902SOL     OW28473   0.131   7.986   3.453  0.3572 -0.3805  0.0268
 8902SOL    HW128474   0.083   7.904   3.465 -0.0240 -0.2462 -0.4913
 8902SOL    HW228475   0.219   7.960   3.429 -0.0026 -0.6537 -1.0392
 8903SOL     OW28476   7.214   8.651   3.448 -0.3410  0.0386  0.1820
 8903SOL    HW128477   7.157   8.627   3.375  1.1758  2.1865 -1.8702
 8903SOL    HW228478   7.262   8.571   3.468 -0.6719 -0.5723 -1.3340
 8904SOL     OW28479   2.562   8.852   8.055  0.0111 -0.1230  0.0488
 8904SOL    HW128480   2.538   8.870   7.964 -2.5571 -2.6136  0.1037
 8904SOL    HW228481   2.637   8.794   8.049  0.1618  0.1172 -0.4470
 8905SOL     OW28482   3.771   7.498   5.316 -0.1344  0.0895 -0.7262
 8905SOL    HW128483   3.745   7.450   5.237 -0.2072 -0.1664 -0.5482
 8905SOL    HW228484   3.791   7.586   5.285 -0.4022  0.0580 -0.9939
 8906SOL     OW28485   1.276   7.327   7.112 -0.2571  0.0608  0.2575
 8906SOL    HW128486   1.277   7.380   7.191  1.5147  0.6124 -0.0804
 8906SOL    HW228487   1.303   7.240   7.141  0.5826  0.3103  0.2624
 8907SOL     OW28488   4.817   8.939   9.189 -0.5513  0.1443 -0.3058
 8907SOL    HW128489   4.790   9.011   9.131 -2.8489 -0.0704  0.3726
 8907SOL    HW228490   4.840   8.868   9.129  0.1692  0.9082 -0.9659
 8908SOL     OW28491   9.779   7.271   6.425  0.4229  0.4168 -0.4974
 8908SOL    HW128492   9.772   7.242   6.334 -0.3590 -1.1726  0.0417
 8908SOL    HW228493   9.871   7.258   6.447  0.6823  1.1008 -1.1449
 8909SOL     OW28494   0.311   6.342   4.302 -0.6284  0.4678  0.1165
 8909SOL    HW128495   0.307   6.380   4.215 -1.4992  2.2334  0.8870
 8909SOL    HW228496   0.400   6.309   4.310 -0.7549 -0.4515 -1.7019
 8910SOL     OW28497   4.392   1.989   3.266  0.1022  0.1749 -0.3937
 8910SOL    HW128498   4.432   1.980   3.353 -0.2925 -0.5286 -0.2744
 8910SOL    HW228499   4.387   2.083   3.252  1.8348  0.3001 -0.4419
 8911SOL     OW28500   8.520   3.445   4.546 -0.3309  0.6333  0.0182
 8911SOL    HW128501   8.605   3.485   4.526 -1.5948  2.9893 -1.0902
 8911SOL    HW228502   8.511   3.376   4.480  0.4211  0.8318 -0.3113
 8912SOL     OW28503   4.805   0.540   2.743  0.2617 -0.2658 -0.6089
 8912SOL    HW128504   4.788   0.626   2.704 -1.0552 -0.0422  0.3698
 8912SOL    HW228505   4.786   0.478   2.673  1.3048  0.2173 -1.3513
 8913SOL     OW28506   6.134   7.348   7.315 -0.1056 -0.6100  0.1770
 8913SOL    HW128507   6.186   7.317   7.389  0.2049  2.7250  1.5539
 8913SOL    HW228508   6.059   7.391   7.354  0.8504  2.6476 -1.1864
 8914SOL     OW28509   6.832   4.659   8.824 -0.4744  0.6502  0.3013
 8914SOL    HW128510   6.855   4.623   8.739 -0.8851 -0.5638  0.6816
 8914SOL    HW228511   6.781   4.590   8.866 -1.3836  1.7344  1.0304
 8915SOL     OW28512   8.812   2.364   2.526 -0.0570 -0.2338  0.5010
 8915SOL    HW128513   8.892   2.365   2.578  0.2909 -1.8771  0.0445
 8915SOL    HW228514   8.747   2.321   2.582 -0.0757 -0.6795  0.1471
 8916SOL     OW28515   3.453   6.412   1.062  0.0086 -0.1879  0.0796
 8916SOL    HW128516   3.525   6.369   1.109 -1.0635 -1.2010  0.8475
 8916SOL    HW228517   3.484   6.416   0.971  1.7428  1.0037  0.6793
 8917SOL     OW28518   7.609   3.497   9.289 -0.2298  0.4493 -0.3286
 8917SOL    HW128519   7.534   3.538   9.247  0.4488  2.1222  0.0023
 8917SOL    HW228520   7.583   3.486   9.381  1.0082  4.3164  0.6969
 8918SOL     OW28521   3.557   4.853   0.306  0.3584  0.0982 -0.4091
 8918SOL    HW128522   3.586   4.766   0.334 -0.1273 -0.0688 -0.4093
 8918SOL    HW228523   3.628   4.886   0.250  0.8120 -0.0478  0.0792
 8919SOL     OW28524   4.989   6.474   4.166  0.3977 -0.3027  0.0712
 8919SOL    HW128525   5.021   6.470   4.256  1.8669  0.0112 -0.4137
 8919SOL    HW228526   5.064   6.506   4.115 -0.0121 -1.6580 -1.4557
 8920SOL     OW28527   1.951   3.915   8.018  0.9482 -0.0178 -0.0467
 8920SOL    HW128528   1.891   3.858   7.969  0.6074 -0.0730  0.4245
 8920SOL    HW228529   2.017   3.856   8.053  0.0344 -0.2889  1.2879
 8921SOL     OW28530   1.359   8.439   2.470  0.6418 -0.1028  0.1037
 8921SOL    HW128531   1.335   8.526   2.504 -1.2991 -0.2712 -0.7174
 8921SOL    HW228532   1.379   8.455   2.377  0.8263 -0.4500  0.0840
 8922SOL     OW28533   8.085   0.406   8.331  0.1912  0.3782 -0.6069
 8922SOL    HW128534   8.118   0.494   8.350 -1.8197  0.7666  1.5417
 8922SOL    HW228535   8.160   0.359   8.295  1.5745  2.6819 -0.9030
 8923SOL     OW28536   7.447   2.309   7.608  0.2567  0.0399  0.0696
 8923SOL    HW128537   7.500   2.332   7.532  1.5216 -1.3121  0.4852
 8923SOL    HW228538   7.451   2.213   7.612 -1.5133 -0.0510  0.6447
 8924SOL     OW28539   4.491   5.853   5.007  0.5268 -0.4571  0.0320
 8924SOL    HW128540   4.548   5.810   5.071  0.8887 -0.2357 -0.1346
 8924SOL    HW228541   4.411   5.873   5.054  1.5030  1.4763  0.9637
 8925SOL     OW28542   1.199   0.642   1.053 -0.4876 -0.3363 -0.2654
 8925SOL    HW128543   1.240   0.721   1.087  0.1010 -0.3486 -0.9317
 8925SOL    HW228544   1.269   0.577   1.052 -0.3734 -0.2230 -1.8690
 8926SOL     OW28545   2.836   5.377   9.413 -0.7235 -0.4140  0.5196
 8926SOL    HW128546   2.793   5.337   9.488  1.2016 -1.9096  0.9052
 8926SOL    HW228547   2.892   5.445   9.451  1.1774 -1.9669  0.6714
 8927SOL     OW28548   6.619   8.454   2.171  0.5061  0.9029  0.0193
 8927SOL    HW128549   6.555   8.402   2.221 -0.9485  2.3178 -0.2769
 8927SOL    HW228550   6.671   8.389   2.125  0.9973 -0.4129  2.2616
 8928SOL     OW28551   3.899   3.683   4.458  0.1346  0.2999 -0.0853
 8928SOL    HW128552   3.958   3.672   4.383  2.9378 -0.7341  2.1032
 8928SOL    HW228553   3.933   3.623   4.524 -1.3729  2.1292  2.5185
 8929SOL     OW28554   0.766   3.527   8.389 -0.2315 -0.0368 -0.1069
 8929SOL    HW128555   0.682   3.492   8.417 -0.2667  0.9331  1.0675
 8929SOL    HW228556   0.752   3.621   8.385 -0.4075 -0.0754 -4.0721
 8930SOL     OW28557   0.553   4.001   3.129 -0.0356 -0.3339 -0.0796
 8930SOL    HW128558   0.561   4.073   3.192 -2.0883 -0.4030  0.3252
 8930SOL    HW228559   0.540   3.923   3.182 -0.1149 -0.6589 -0.5631
 8931SOL     OW28560   5.141   8.437   7.171 -0.2578  0.0351 -0.1314
 8931SOL    HW128561   5.179   8.397   7.249 -1.5119 -0.3842  0.2961
 8931SOL    HW228562   5.157   8.374   7.101  1.6835  0.8203 -0.4558
 8932SOL     OW28563   8.718   6.307   8.390  0.2433  0.1047 -0.6305
 8932SOL    HW128564   8.634   6.318   8.345 -0.6122  0.3983  0.9437
 8932SOL    HW228565   8.759   6.393   8.386  0.5450 -0.0775 -1.5371
 8933SOL     OW28566   6.748   5.284   3.806 -0.6091 -0.8404  0.3662
 8933SOL    HW128567   6.693   5.274   3.883 -2.8175  0.4773 -0.9205
 8933SOL    HW228568   6.783   5.372   3.812 -1.2744 -0.5113 -0.3921
 8934SOL     OW28569   7.687   7.170   4.747  0.4968  0.3673  0.2812
 8934SOL    HW128570   7.596   7.173   4.776 -0.0350  0.3030 -1.2702
 8934SOL    HW228571   7.682   7.143   4.655  2.0525  0.9081  0.0048
 8935SOL     OW28572   3.871   0.179   0.267 -0.0520 -0.1616  0.3257
 8935SOL    HW128573   3.813   0.154   0.340 -0.0237 -1.3345 -0.0285
 8935SOL    HW228574   3.818   0.236   0.212 -0.8830 -1.1778  0.0353
 8936SOL     OW28575   1.407   6.940   5.047  0.1431 -0.1133  1.1063
 8936SOL    HW128576   1.394   7.030   5.077  1.0854  0.4040  0.0508
 8936SOL    HW228577   1.373   6.939   4.957 -0.7913 -1.0974  1.4437
 8937SOL     OW28578   0.755   3.903   7.951 -0.1419  0.2025 -0.2044
 8937SOL    HW128579   0.801   3.972   7.903 -0.2475  0.3685 -0.0682
 8937SOL    HW228580   0.663   3.914   7.927 -0.6956  2.2845  2.3772
 8938SOL     OW28581   6.239   2.080   6.412  0.1035 -0.4697 -0.7077
 8938SOL    HW128582   6.314   2.051   6.361 -0.9441 -2.6758 -1.1355
 8938SOL    HW228583   6.215   2.004   6.465 -0.0789  1.1106  1.6245
 8939SOL     OW28584   0.685   6.985   9.791  0.2620 -0.3729  0.0636
 8939SOL    HW128585   0.666   6.892   9.782 -0.7252 -0.2173  0.4500
 8939SOL    HW228586   0.777   6.988   9.818  0.8075 -1.1614 -1.5416
 8940SOL     OW28587   1.005   3.161   5.752 -0.2974 -0.2628 -0.5008
 8940SOL    HW128588   1.023   3.068   5.765 -0.4729 -0.4340 -1.4029
 8940SOL    HW228589   1.092   3.202   5.747 -0.1869 -0.5905 -1.4789
 8941SOL     OW28590   3.453   9.650   9.617  0.4386 -0.4485  0.1632
 8941SOL    HW128591   3.424   9.686   9.533 -1.4821 -0.2546  0.8585
 8941SOL    HW228592   3.453   9.556   9.604  1.7430 -0.3769 -0.5167
 8942SOL     OW28593   8.030   8.538   6.769 -0.0885 -0.0031  0.3132
 8942SOL    HW128594   8.061   8.539   6.860  0.4942 -1.0308  0.1418
 8942SOL    HW228595   8.049   8.626   6.737 -0.6173  0.4807  1.2861
 8943SOL     OW28596   6.894   3.636   1.143 -0.5567  0.8906 -0.3419
 8943SOL    HW128597   6.921   3.558   1.191 -0.1716  1.0764 -0.2537
 8943SOL    HW228598   6.877   3.702   1.210 -1.8788  0.5887 -0.3551
 8944SOL     OW28599   6.445   1.375   1.806 -0.2171  0.5477  0.6652
 8944SOL    HW128600   6.529   1.421   1.804 -0.4532  0.9583 -1.4002
 8944SOL    HW228601   6.387   1.427   1.751 -1.3313 -0.6869  0.6046
 8945SOL     OW28602   3.946   1.923   1.604  0.5807 -0.3646  0.6356
 8945SOL    HW128603   4.017   1.969   1.650  2.9498 -3.1123  0.0397
 8945SOL    HW228604   3.983   1.902   1.519 -0.6829 -2.5301  0.5596
 8946SOL     OW28605   1.501   8.785   6.963 -0.7220 -0.0187 -0.1645
 8946SOL    HW128606   1.450   8.843   7.020  0.2895  0.5001  0.2406
 8946SOL    HW228607   1.591   8.793   6.995  0.2759  1.8284 -3.0786
 8947SOL     OW28608   8.321   6.018   3.034  0.2966 -0.2715  0.3863
 8947SOL    HW128609   8.273   5.935   3.027 -1.9376  0.7138  2.4802
 8947SOL    HW228610   8.398   5.996   3.088 -0.4120 -0.9590  1.1429
 8948SOL     OW28611   9.483   5.896   7.838  0.5633 -0.1875 -0.0960
 8948SOL    HW128612   9.444   5.880   7.752 -1.1914  1.6365  0.2869
 8948SOL    HW228613   9.534   5.976   7.828 -1.5206  1.3791  1.0039
 8949SOL     OW28614   2.959   9.323   7.798  0.9032  0.5267  1.0688
 8949SOL    HW128615   3.010   9.402   7.781  1.4344  0.2021  1.1062
 8949SOL    HW228616   2.968   9.271   7.718  0.7613  0.3999  1.1354
 8950SOL     OW28617   7.987   7.788   4.119  0.0396 -0.1338  0.2129
 8950SOL    HW128618   7.935   7.740   4.055  1.5392 -0.2889 -0.9398
 8950SOL    HW228619   7.923   7.835   4.172 -1.3511 -1.9020  0.1532
 8951SOL     OW28620   4.955   1.527   9.385  0.1521 -0.3289 -0.2788
 8951SOL    HW128621   4.987   1.479   9.308  0.4824 -0.9173  0.2148
 8951SOL    HW228622   4.918   1.459   9.441  1.9397 -0.2226  1.1029
 8952SOL     OW28623   1.503   2.388   4.763  0.0156 -0.0290 -0.0829
 8952SOL    HW128624   1.486   2.410   4.854 -1.3397  1.7360 -0.7075
 8952SOL    HW228625   1.443   2.316   4.744  0.6571 -0.7400  0.5364
 8953SOL     OW28626   9.104   4.807   0.730 -0.1334  0.1614 -0.0641
 8953SOL    HW128627   9.060   4.805   0.815 -0.3442 -0.2298 -0.1779
 8953SOL    HW228628   9.092   4.896   0.698 -0.4472  0.1858  0.1180
 8954SOL     OW28629   1.878   1.152   9.433  0.0426  0.1315  0.2876
 8954SOL    HW128630   1.942   1.180   9.368  0.2044 -0.1771  0.3143
 8954SOL    HW228631   1.798   1.138   9.383  0.5197 -1.4244 -0.0711
 8955SOL     OW28632   7.213   9.473   7.496 -0.6392  0.2144  0.1478
 8955SOL    HW128633   7.233   9.474   7.589 -1.4470  0.1058  0.3241
 8955SOL    HW228634   7.294   9.503   7.454 -0.1372 -0.1391  0.8514
 8956SOL     OW28635   9.389   9.457   6.558  0.0500  0.1451 -0.1372
 8956SOL    HW128636   9.476   9.467   6.595 -0.3139  2.5539  0.2763
 8956SOL    HW228637   9.381   9.530   6.496 -1.7029  0.0634 -0.0685
 8957SOL     OW28638   7.986   6.689   3.675 -0.3209 -0.2004 -0.0946
 8957SOL    HW128639   7.973   6.780   3.703 -0.5672 -0.6331  1.2489
 8957SOL    HW228640   7.971   6.691   3.580 -2.3412  0.7929  0.2069
 8958SOL     OW28641   3.820   4.315   6.454 -0.3935 -0.1531 -0.3098
 8958SOL    HW128642   3.905   4.314   6.497 -0.0421  1.3744 -0.9087
 8958SOL    HW228643   3.760   4.353   6.518 -0.3689 -0.1164 -0.3081
 8959SOL     OW28644   3.806   7.063   3.191 -0.3396  0.4054  0.1217
 8959SOL    HW128645   3.792   7.134   3.128  0.9550  0.2412 -0.3711
 8959SOL    HW228646   3.868   7.099   3.254 -0.0483 -0.1287  0.1439
 8960SOL     OW28647   7.422   1.384   5.226  0.2778 -0.1752  0.1834
 8960SOL    HW128648   7.492   1.449   5.227 -1.1182  1.4481  2.5297
 8960SOL    HW228649   7.342   1.435   5.213 -0.5621 -1.9412 -2.1346
 8961SOL     OW28650   1.279   2.311   6.047  0.6379  0.0461  0.1934
 8961SOL    HW128651   1.330   2.333   6.125  1.1040  0.7862 -0.3150
 8961SOL    HW228652   1.226   2.236   6.074  1.3443 -0.1791  0.9933
 8962SOL     OW28653   6.186   9.626   3.645 -0.6793  0.2604  0.0605
 8962SOL    HW128654   6.155   9.641   3.734 -0.0941 -0.6063  0.4334
 8962SOL    HW228655   6.257   9.562   3.655 -0.3810  0.3973 -0.9954
 8963SOL     OW28656   6.216   6.662   7.566 -0.1044 -0.2467  0.3456
 8963SOL    HW128657   6.139   6.641   7.513  0.7793 -1.9120 -0.3424
 8963SOL    HW228658   6.237   6.752   7.543 -1.1706 -0.1493 -0.3115
 8964SOL     OW28659   5.282   3.687   8.668 -0.2620  0.1341  0.5547
 8964SOL    HW128660   5.213   3.637   8.624  0.7615  0.5688 -1.6819
 8964SOL    HW228661   5.362   3.662   8.623  0.6768  1.6588  1.2886
 8965SOL     OW28662   5.300   6.425   0.101  0.4376  0.3209  0.0999
 8965SOL    HW128663   5.372   6.464   0.050  0.8494  0.8002  1.0260
 8965SOL    HW228664   5.230   6.413   0.037  1.1292  0.4117 -0.6988
 8966SOL     OW28665   7.650   1.504   7.379  0.0524  0.0874 -0.2196
 8966SOL    HW128666   7.669   1.596   7.399  2.3514 -0.1170 -1.1469
 8966SOL    HW228667   7.708   1.454   7.437  0.4599 -0.6890 -1.2605
 8967SOL     OW28668   1.566   8.954   1.682  0.6244  0.1853  0.7618
 8967SOL    HW128669   1.562   9.029   1.623 -2.5644  1.8579  2.7950
 8967SOL    HW228670   1.595   8.990   1.765  0.9842 -1.2514  1.3004
 8968SOL     OW28671   4.444   8.773   9.121 -0.3237  0.3796 -0.1810
 8968SOL    HW128672   4.519   8.801   9.068  0.2781  0.2816  0.6115
 8968SOL    HW228673   4.368   8.808   9.073  0.3331  2.6943  0.3081
 8969SOL     OW28674   0.392   2.413   4.012 -0.2138  0.3821  0.4144
 8969SOL    HW128675   0.387   2.410   3.917 -1.5162 -0.4009  0.4775
 8969SOL    HW228676   0.323   2.475   4.037 -0.6627 -0.2827  0.8702
 8970SOL     OW28677   7.209   7.936   6.563  0.0143 -0.2640 -0.0538
 8970SOL    HW128678   7.294   7.977   6.579 -0.3407  0.1697  0.7574
 8970SOL    HW228679   7.213   7.907   6.472  0.3240  1.4632 -0.6268
 8971SOL     OW28680   8.992   5.211   1.186 -0.3283 -0.0987  0.3288
 8971SOL    HW128681   8.980   5.298   1.148  1.0918  0.2476  0.6339
 8971SOL    HW228682   9.033   5.160   1.116 -1.0988 -0.5192  0.1708
 8972SOL     OW28683   3.736   2.465   3.946 -0.6044 -0.1721  0.0747
 8972SOL    HW128684   3.724   2.412   3.868  1.9327 -0.7563 -0.0170
 8972SOL    HW228685   3.741   2.555   3.913  0.6181 -0.4277 -0.4892
 8973SOL     OW28686   6.215   2.109   4.178  0.4289  0.2782  0.0908
 8973SOL    HW128687   6.294   2.056   4.166  0.9280  1.1667 -0.7713
 8973SOL    HW228688   6.160   2.088   4.103  1.0158  1.5875 -0.7460
 8974SOL     OW28689   6.818   4.688   7.925 -0.2220  0.2517  0.7345
 8974SOL    HW128690   6.775   4.745   7.990 -1.8391 -0.0262 -0.0428
 8974SOL    HW228691   6.880   4.636   7.976 -0.7022  0.7840  1.8985
 8975SOL     OW28692   3.550   4.704   7.300  0.0993 -0.5765  0.1879
 8975SOL    HW128693   3.603   4.706   7.220  1.9590 -0.2090  1.3492
 8975SOL    HW228694   3.527   4.796   7.314  1.7453 -0.2729  1.2386
 8976SOL     OW28695   6.783   6.506   6.591  1.0623 -0.8106  0.2800
 8976SOL    HW128696   6.772   6.547   6.676  0.7316 -0.2159 -0.0424
 8976SOL    HW228697   6.770   6.412   6.607  0.2259 -0.6261  0.7513
 8977SOL     OW28698   6.336   6.515   0.167 -0.5528  0.0154 -0.0813
 8977SOL    HW128699   6.364   6.424   0.162 -2.6295 -0.9445  2.7537
 8977SOL    HW228700   6.365   6.544   0.254  0.8333  2.4283 -1.2385
 8978SOL     OW28701   0.973   5.870   9.129 -0.0383 -0.2752  0.5766
 8978SOL    HW128702   1.066   5.864   9.150  0.4332  0.4142 -1.1253
 8978SOL    HW228703   0.944   5.949   9.174  0.0922 -0.6842  1.4042
 8979SOL     OW28704   3.580   0.298   1.646 -0.2215 -0.2247 -0.0723
 8979SOL    HW128705   3.549   0.361   1.711  0.3276 -1.4603  1.4264
 8979SOL    HW228706   3.639   0.241   1.694  1.6051 -0.1093 -2.0646
 8980SOL     OW28707   3.160   1.899   7.972  0.1333  0.1771  0.5271
 8980SOL    HW128708   3.228   1.833   7.980 -1.1964 -1.3472 -0.2421
 8980SOL    HW228709   3.082   1.859   8.011 -0.3304  1.9373  1.5615
 8981SOL     OW28710   9.792   4.197   8.953 -0.0425 -0.0567  0.5410
 8981SOL    HW128711   9.873   4.155   8.922  1.4595  3.8267 -1.4425
 8981SOL    HW228712   9.767   4.256   8.882 -2.3169  1.9132  2.7948
 8982SOL     OW28713   6.699   4.912   9.558 -0.2072 -0.3744 -0.6900
 8982SOL    HW128714   6.775   4.866   9.524  0.5924  0.1723  0.2948
 8982SOL    HW228715   6.709   4.908   9.654  0.1791  2.1853 -0.5268
 8983SOL     OW28716   2.395   5.379   4.610 -0.6596  0.2979 -0.8652
 8983SOL    HW128717   2.333   5.307   4.595  0.8075 -1.3780  0.5536
 8983SOL    HW228718   2.355   5.431   4.680 -0.5952 -0.6350 -0.1177
 8984SOL     OW28719   1.200   1.335   3.119  0.0742 -0.7208 -0.3437
 8984SOL    HW128720   1.190   1.242   3.096 -1.5657 -0.3018 -1.5025
 8984SOL    HW228721   1.248   1.372   3.045  0.5785 -0.6056  0.0397
 8985SOL     OW28722   1.116   0.710   0.157  0.1080 -0.1578 -0.2660
 8985SOL    HW128723   1.048   0.774   0.178 -1.6839 -0.5836 -4.0533
 8985SOL    HW228724   1.151   0.739   0.072 -0.3459 -3.7552 -1.8600
 8986SOL     OW28725   8.240   4.756   9.458 -0.6590 -0.0693  0.0753
 8986SOL    HW128726   8.293   4.775   9.535 -0.4910  2.1938 -0.5214
 8986SOL    HW228727   8.149   4.767   9.487 -0.6318 -0.0964  0.1692
 8987SOL     OW28728   7.806   7.536   9.470 -0.6362 -0.1162  0.5809
 8987SOL    HW128729   7.726   7.517   9.420 -0.7038  0.2376  0.5500
 8987SOL    HW228730   7.783   7.611   9.524  0.2492  1.2556 -0.8596
 8988SOL     OW28731   2.600   6.444   2.429 -0.2468 -0.3571 -0.2033
 8988SOL    HW128732   2.548   6.420   2.352 -0.3000 -0.6547 -0.0766
 8988SOL    HW228733   2.564   6.528   2.457 -0.9391 -0.7579  0.1297
 8989SOL     OW28734   9.424   2.733   4.936 -0.4178 -0.4418 -0.2714
 8989SOL    HW128735   9.347   2.784   4.965  0.8037  1.9887 -0.9934
 8989SOL    HW228736   9.497   2.771   4.986  0.4860 -1.9745 -0.3872
 8990SOL     OW28737   3.597   9.617   2.188  0.2141  0.3900 -0.2387
 8990SOL    HW128738   3.523   9.676   2.199  2.3576  3.0497  1.1127
 8990SOL    HW228739   3.586   9.552   2.258 -0.4186  1.2333  0.4623
 8991SOL     OW28740   7.663   5.280   5.278 -0.0213 -0.1800  0.5048
 8991SOL    HW128741   7.687   5.196   5.237 -1.1535  0.2594 -1.1794
 8991SOL    HW228742   7.687   5.270   5.370  3.2094 -1.0328 -0.3084
 8992SOL     OW28743   1.246   0.007   1.671 -0.3883  0.1726 -0.1024
 8992SOL    HW128744   1.241  -0.079   1.713  0.2122  0.6537  1.0228
 8992SOL    HW228745   1.248  -0.011   1.578 -0.4366 -1.0268  0.1153
 8993SOL     OW28746   6.842   4.421   3.167 -0.3809  0.0391  0.0295
 8993SOL    HW128747   6.840   4.495   3.107  0.6063  1.6653  1.8756
 8993SOL    HW228748   6.859   4.345   3.111 -1.7608  1.1187 -1.9745
 8994SOL     OW28749   8.689   2.503   2.762 -0.5683  0.0816 -0.1936
 8994SOL    HW128750   8.776   2.525   2.731 -0.6925 -0.6278 -1.0932
 8994SOL    HW228751   8.630   2.559   2.711 -0.6041  1.4992  1.3093
 8995SOL     OW28752   5.160   3.498   2.088  0.4510 -0.3888 -0.6025
 8995SOL    HW128753   5.237   3.443   2.073  0.1384 -1.1930  0.6275
 8995SOL    HW228754   5.087   3.436   2.096 -0.0892  0.2746 -0.2869
 8996SOL     OW28755   6.787   8.895   6.935 -0.5343 -0.5263  0.0682
 8996SOL    HW128756   6.766   8.917   6.844 -0.5669  0.0346  0.2086
 8996SOL    HW228757   6.773   8.800   6.940 -1.0522 -0.4824 -0.3757
 8997SOL     OW28758   5.934   9.408   5.954  0.3946 -0.3037  0.2707
 8997SOL    HW128759   6.019   9.443   5.928  0.7928 -0.8526  0.8049
 8997SOL    HW228760   5.883   9.485   5.980  1.6848 -0.1454  2.6758
 8998SOL     OW28761   7.228   2.750   4.038  0.2973 -0.4550 -0.2448
 8998SOL    HW128762   7.167   2.676   4.036 -0.2933  0.0477 -0.6414
 8998SOL    HW228763   7.257   2.759   3.947  0.6775 -0.4465 -0.1247
 8999SOL     OW28764   1.362   3.357   3.028  0.0151  0.4663 -0.5679
 8999SOL    HW128765   1.394   3.432   3.078 -1.5840  0.9306 -0.1980
 8999SOL    HW228766   1.414   3.283   3.061  0.5470  1.1491  0.1691
 9000SOL     OW28767   5.569   2.718   1.162  0.2570  0.2221 -0.2752
 9000SOL    HW128768   5.480   2.683   1.153  0.4485 -0.1889 -0.5966
 9000SOL    HW228769   5.590   2.754   1.076 -0.0229  1.3697  0.1080
 9001SOL     OW28770   8.057   4.996   2.321  0.6774  0.6932 -0.2120
 9001SOL    HW128771   8.035   4.905   2.299 -2.9761  1.6685 -1.2764
 9001SOL    HW228772   8.126   5.019   2.259 -0.9752 -0.3155 -2.6022
 9002SOL     OW28773   3.680   6.578   7.752  0.4709 -0.7291 -0.1826
 9002SOL    HW128774   3.732   6.640   7.702  2.7157 -1.8715  0.5787
 9002SOL    HW228775   3.595   6.575   7.707  0.7419  1.8167 -1.0054
 9003SOL     OW28776   1.688   6.481   9.332 -0.5599  0.1721  0.3847
 9003SOL    HW128777   1.716   6.409   9.276  0.5685 -0.6900  1.9700
 9003SOL    HW228778   1.730   6.558   9.296 -0.1278 -0.3086 -0.1588
 9004SOL     OW28779   2.924   1.737   8.026 -0.1908 -0.0914  0.3429
 9004SOL    HW128780   2.939   1.739   8.120 -0.2938  0.8276  0.3518
 9004SOL    HW228781   2.911   1.645   8.005  1.0180 -0.4285  1.0333
 9005SOL     OW28782   8.771   4.338   4.596 -0.4218  0.8524 -0.6292
 9005SOL    HW128783   8.863   4.351   4.575 -0.3984  3.8712  0.8485
 9005SOL    HW228784   8.764   4.245   4.617  1.8811  0.1866 -2.4261
 9006SOL     OW28785   3.144   7.877   4.771  0.2575 -0.6388  0.3999
 9006SOL    HW128786   3.061   7.890   4.816 -0.3550  1.4938 -1.1871
 9006SOL    HW228787   3.208   7.868   4.841 -1.2509 -2.3075  1.6729
 9007SOL     OW28788   1.320   4.137   5.492 -0.1218  0.0241  0.3257
 9007SOL    HW128789   1.364   4.077   5.432  3.5266  0.5273  2.1624
 9007SOL    HW228790   1.365   4.221   5.478 -1.3883  0.9409  1.5369
 9008SOL     OW28791   7.489   8.151   4.289 -0.1884 -0.2496 -0.1934
 9008SOL    HW128792   7.400   8.170   4.319 -0.8895 -0.0749 -2.2246
 9008SOL    HW228793   7.495   8.056   4.286 -1.3034 -0.3057 -2.6201
 9009SOL     OW28794   0.410   4.393   5.479 -0.2733  0.2067 -0.2391
 9009SOL    HW128795   0.413   4.454   5.405 -0.7349  1.1205  0.4789
 9009SOL    HW228796   0.401   4.307   5.438  1.6979  0.4509 -1.3363
 9010SOL     OW28797   7.757   6.716   0.619  0.4559  0.1765  0.7552
 9010SOL    HW128798   7.781   6.655   0.549  0.1538  0.4368  0.4258
 9010SOL    HW228799   7.796   6.800   0.592 -0.2903  0.4573  0.5231
 9011SOL     OW28800   3.947   3.322   4.106  0.1375  0.0527  0.2517
 9011SOL    HW128801   4.035   3.321   4.144  0.9681 -0.2234 -1.5987
 9011SOL    HW228802   3.961   3.335   4.013 -1.7641 -0.6615 -0.1748
 9012SOL     OW28803   5.315   4.950   5.869  0.2799 -0.1326  0.2429
 9012SOL    HW128804   5.411   4.952   5.874  0.2764 -0.2556  0.3783
 9012SOL    HW228805   5.286   4.983   5.954  0.1813  2.0315 -0.5730
 9013SOL     OW28806   5.656   9.216   4.698 -0.0658 -0.0222  0.0145
 9013SOL    HW128807   5.683   9.199   4.788 -2.4831  0.4049  0.9005
 9013SOL    HW228808   5.620   9.133   4.667  1.2551 -0.3234 -0.7988
 9014SOL     OW28809   7.719   7.240   8.566  0.4775 -0.4127 -0.2604
 9014SOL    HW128810   7.797   7.258   8.514  0.1917 -0.2743 -0.6414
 9014SOL    HW228811   7.700   7.323   8.610  0.2806 -0.3200 -0.5204
 9015SOL     OW28812   2.032   1.659   8.109  0.2007 -0.3433  0.6617
 9015SOL    HW128813   2.037   1.747   8.073  1.6712 -0.5828  0.1753
 9015SOL    HW228814   2.040   1.602   8.032  1.7782 -0.8692  1.1679
 9016SOL     OW28815   6.887   0.664   7.594 -0.4039 -0.0625 -0.1711
 9016SOL    HW128816   6.841   0.585   7.566 -1.5728  0.1455  1.0415
 9016SOL    HW228817   6.959   0.633   7.649 -0.2974 -0.3239 -0.4626
 9017SOL     OW28818   0.008   1.803   9.652  0.0466 -0.2344 -0.5735
 9017SOL    HW128819   0.011   1.709   9.670 -0.5070  0.1257  1.6867
 9017SOL    HW228820   0.003   1.809   9.557 -0.6261 -2.5175 -0.7391
 9018SOL     OW28821   0.247   1.118   3.137 -0.2661 -0.0156 -0.6692
 9018SOL    HW128822   0.197   1.199   3.143  2.1583  1.5951 -0.7127
 9018SOL    HW228823   0.227   1.071   3.218 -0.9468  1.0801 -0.1791
 9019SOL     OW28824   6.117   7.877   5.108 -0.4288 -0.1657 -0.2239
 9019SOL    HW128825   6.068   7.938   5.164 -0.9150 -1.2404  0.5654
 9019SOL    HW228826   6.192   7.851   5.161 -0.2197 -0.2535 -0.5591
 9020SOL     OW28827   0.641   4.832   8.633 -0.1772  0.0267  0.0989
 9020SOL    HW128828   0.663   4.911   8.683  1.3924  0.5555 -1.3213
 9020SOL    HW228829   0.617   4.865   8.547 -1.8389 -0.9313  0.1657
 9021SOL     OW28830   7.986   0.482   9.139 -0.3470 -0.6309  0.3134
 9021SOL    HW128831   7.973   0.558   9.082 -0.3299 -0.6608  0.2698
 9021SOL    HW228832   8.080   0.466   9.139 -0.5882 -2.7280 -2.4005
 9022SOL     OW28833   1.776   0.495   0.389  0.2154 -0.0874  0.2217
 9022SOL    HW128834   1.735   0.447   0.317  0.4069  0.0236  0.0374
 9022SOL    HW228835   1.853   0.536   0.349  0.1701  0.1976  0.4276
 9023SOL     OW28836   9.065   7.749   2.000 -0.0248  0.1216 -0.9636
 9023SOL    HW128837   9.053   7.838   2.032 -0.2602 -0.0950 -0.4316
 9023SOL    HW228838   8.992   7.699   2.038 -0.2457 -0.1746 -1.7527
 9024SOL     OW28839   8.032   7.733   7.141 -0.0504  0.5891  0.1310
 9024SOL    HW128840   8.083   7.756   7.064 -0.8709 -0.6163 -0.8195
 9024SOL    HW228841   8.093   7.742   7.214  1.1976  0.2326 -0.8300
 9025SOL     OW28842   4.241   5.395   2.905  0.1922  0.5024 -0.8822
 9025SOL    HW128843   4.219   5.346   2.825 -1.1492  0.8889 -0.7834
 9025SOL    HW228844   4.222   5.486   2.884  2.0009  0.9280 -0.8272
 9026SOL     OW28845   5.550   6.852   7.756  0.3419 -0.0992 -0.3132
 9026SOL    HW128846   5.466   6.879   7.719  1.4048  2.2728 -1.1840
 9026SOL    HW228847   5.605   6.835   7.680  0.9041 -0.8098  0.2423
 9027SOL     OW28848   6.349   1.755   4.526 -0.0765 -0.2418 -0.4558
 9027SOL    HW128849   6.326   1.684   4.586 -0.7248  0.2082 -0.1619
 9027SOL    HW228850   6.419   1.802   4.570 -1.0585  0.5454  0.3307
 9028SOL     OW28851   1.271   4.947   5.900  0.1431 -0.7162 -0.1156
 9028SOL    HW128852   1.194   4.975   5.852 -0.3480 -0.0445  1.0325
 9028SOL    HW228853   1.237   4.892   5.971  0.6951 -0.2734  0.5083
 9029SOL     OW28854   9.843   3.004   9.722 -0.1252 -0.2071  0.4268
 9029SOL    HW128855   9.763   3.056   9.721  0.4859  0.8288  2.0465
 9029SOL    HW228856   9.863   2.988   9.629 -1.1961  1.0852 -0.0464
 9030SOL     OW28857   5.788   1.776   2.190  0.3272  0.3903  0.3063
 9030SOL    HW128858   5.882   1.776   2.174  0.1865  0.2693 -0.6114
 9030SOL    HW228859   5.749   1.794   2.104 -0.5852 -3.2687 -0.2641
 9031SOL     OW28860   2.666   7.762   5.921 -0.2528  0.9149  0.4318
 9031SOL    HW128861   2.596   7.697   5.917  0.9161 -0.3671 -0.0654
 9031SOL    HW228862   2.635   7.834   5.866 -0.4159 -0.4416 -1.3324
 9032SOL     OW28863   0.856   0.183   5.657 -0.5715  0.3465 -0.5046
 9032SOL    HW128864   0.813   0.263   5.686  0.5927  0.9550 -0.3947
 9032SOL    HW228865   0.830   0.118   5.722 -1.7737  0.5368 -0.7635
 9033SOL     OW28866   4.927   2.127   1.541 -0.0370 -0.4975 -0.2648
 9033SOL    HW128867   4.897   2.096   1.626  0.3757  2.6215  1.1571
 9033SOL    HW228868   4.847   2.145   1.492 -0.3491  0.0315  0.4253
 9034SOL     OW28869   1.821   9.316   6.694 -0.4593 -0.2408 -0.4788
 9034SOL    HW128870   1.735   9.275   6.702 -0.9401  0.5657 -1.3319
 9034SOL    HW228871   1.803   9.404   6.660  0.8161 -0.7064 -2.5029
 9035SOL     OW28872   6.156   7.313   1.309  0.2278  0.0446 -0.1401
 9035SOL    HW128873   6.074   7.326   1.262 -1.1052 -2.9882  1.0677
 9035SOL    HW228874   6.213   7.270   1.247 -0.2197 -0.6136 -0.1072
 9036SOL     OW28875   0.554   5.351   0.705  0.0618  0.0865 -0.5767
 9036SOL    HW128876   0.553   5.359   0.610  0.8006 -2.1255 -0.8166
 9036SOL    HW228877   0.597   5.267   0.722  0.2837  0.5957  1.7257
 9037SOL     OW28878   9.437   3.304   8.213 -0.0086  0.1704 -0.3756
 9037SOL    HW128879   9.512   3.356   8.241 -0.9031  0.8721  0.7935
 9037SOL    HW228880   9.364   3.365   8.210 -0.8047 -0.7473 -0.3029
 9038SOL     OW28881   4.172   6.861   5.228 -0.3989 -0.5718  0.4989
 9038SOL    HW128882   4.131   6.923   5.167  0.6264  0.7215  1.0840
 9038SOL    HW228883   4.099   6.828   5.281 -0.7646  1.5945  1.4336
 9039SOL     OW28884   8.534   3.424   0.951  0.1076  0.7706 -0.3688
 9039SOL    HW128885   8.501   3.441   1.039  0.7084 -2.1775  0.5382
 9039SOL    HW228886   8.629   3.432   0.958  0.2380 -0.4334 -0.4342
 9040SOL     OW28887   9.666   4.414   7.072  0.2993  0.4152  0.0955
 9040SOL    HW128888   9.709   4.449   6.995  0.9455  1.8621  1.0808
 9040SOL    HW228889   9.737   4.385   7.129 -0.0703  1.0758  0.9250
 9041SOL     OW28890   0.030   8.325   4.484  0.6679  0.4939 -0.2704
 9041SOL    HW128891   0.100   8.314   4.419 -1.0718  0.6466 -2.2906
 9041SOL    HW228892  -0.021   8.244   4.477  0.2708  0.6453  0.7328
 9042SOL     OW28893   5.733   3.392   6.814 -0.1562  0.6799  0.0593
 9042SOL    HW128894   5.677   3.324   6.851  0.6284 -0.0717 -0.0794
 9042SOL    HW228895   5.821   3.370   6.845  0.1628  1.4443 -0.2646
 9043SOL     OW28896   9.610   8.555   0.934 -0.2923 -0.2169 -0.0635
 9043SOL    HW128897   9.627   8.462   0.918 -0.0567 -0.1502 -0.1866
 9043SOL    HW228898   9.598   8.561   1.029 -0.9507 -0.4822 -0.1214
 9044SOL     OW28899   1.375   4.720   0.180 -0.0696 -0.5126 -0.3688
 9044SOL    HW128900   1.369   4.762   0.265 -0.0849  0.1242 -0.6794
 9044SOL    HW228901   1.351   4.788   0.117  1.3340 -0.5453 -0.9875
 9045SOL     OW28902   2.130   6.183   0.370 -0.5755 -0.0481  0.0664
 9045SOL    HW128903   2.147   6.093   0.342  0.6630  1.2265 -4.0074
 9045SOL    HW228904   2.161   6.186   0.461  2.1574 -3.0281 -0.5661
 9046SOL     OW28905   0.135   1.099   6.340  0.6227  0.0264 -0.3055
 9046SOL    HW128906   0.123   1.143   6.424 -0.7690  0.5854 -0.7580
 9046SOL    HW228907   0.071   1.028   6.341  0.4771  0.1430 -0.9536
 9047SOL     OW28908   8.174   8.078   1.539  0.1516  0.2251  0.3499
 9047SOL    HW128909   8.183   8.085   1.444  0.3605  1.4519  0.4529
 9047SOL    HW228910   8.251   8.122   1.575 -0.5510  0.8710  1.0996
 9048SOL     OW28911   9.651   4.430   5.781 -0.1772  0.1328  0.2087
 9048SOL    HW128912   9.692   4.514   5.803  2.3462 -0.2073 -2.5047
 9048SOL    HW228913   9.661   4.377   5.860  0.6354  1.5682  1.1076
 9049SOL     OW28914   0.605   1.705   5.798 -0.0107  0.5174 -0.2395
 9049SOL    HW128915   0.575   1.690   5.888 -0.2042 -0.2264 -0.4210
 9049SOL    HW228916   0.553   1.644   5.745  3.5983 -2.9196 -0.3273
 9050SOL     OW28917   9.466   0.273   4.914 -0.1199 -0.1937  0.1671
 9050SOL    HW128918   9.437   0.363   4.896 -0.1476 -0.2410 -0.0266
 9050SOL    HW228919   9.452   0.262   5.008  1.5785  0.6194  0.5519
 9051SOL     OW28920   7.199   5.321   8.499 -0.3155  0.4031 -0.2324
 9051SOL    HW128921   7.197   5.396   8.440 -2.3675 -0.2696 -1.1034
 9051SOL    HW228922   7.194   5.245   8.442 -0.2646 -0.3492  0.7298
 9052SOL     OW28923   8.428   7.494   6.291  0.5134 -1.0120  0.0665
 9052SOL    HW128924   8.463   7.516   6.205  2.0743  0.1475  0.9522
 9052SOL    HW228925   8.492   7.434   6.329  0.1925 -0.9737  0.6854
 9053SOL     OW28926   0.976   8.671   8.751 -0.7230  0.5946 -0.3161
 9053SOL    HW128927   0.964   8.628   8.667 -0.2383 -2.8556  1.1936
 9053SOL    HW228928   0.888   8.693   8.780 -0.9818  0.7337 -1.1832
 9054SOL     OW28929   3.827   5.910   8.475 -0.5329  0.2142  0.0063
 9054SOL    HW128930   3.811   5.987   8.422  1.2035 -0.0409 -0.9615
 9054SOL    HW228931   3.789   5.838   8.424 -0.2291  0.1574 -0.1380
 9055SOL     OW28932   3.310   6.270   6.653  0.5822 -0.3282 -0.3293
 9055SOL    HW128933   3.378   6.298   6.591 -0.0314  0.1070 -0.8096
 9055SOL    HW228934   3.327   6.176   6.665  1.2211 -0.2426 -0.5009
 9056SOL     OW28935   2.502   7.870   3.307  0.3484 -0.1949 -0.4956
 9056SOL    HW128936   2.571   7.917   3.354  0.2820 -1.2742  0.7438
 9056SOL    HW228937   2.505   7.905   3.218  0.0970  2.3590  0.4272
 9057SOL     OW28938   3.271   3.229   1.404 -0.1625  0.4902  0.2978
 9057SOL    HW128939   3.210   3.299   1.428 -0.1514  0.7324 -0.3355
 9057SOL    HW228940   3.356   3.272   1.399 -0.3051  0.6755 -1.0667
 9058SOL     OW28941   8.172   0.914   8.549  0.0172 -0.0624  0.2407
 9058SOL    HW128942   8.083   0.926   8.516  0.0908  2.5788  0.8029
 9058SOL    HW228943   8.227   0.966   8.489  0.7208  1.0034  1.7447
 9059SOL     OW28944   3.112   5.761   0.630  0.2073  0.6052  0.1928
 9059SOL    HW128945   3.079   5.829   0.571 -1.6470 -1.4633 -1.3143
 9059SOL    HW228946   3.140   5.690   0.573 -0.4775 -0.9874  1.7262
 9060SOL     OW28947   8.222   5.267   9.188  0.2421  0.0958  0.3321
 9060SOL    HW128948   8.276   5.192   9.208  0.2889 -0.0518 -0.3188
 9060SOL    HW228949   8.284   5.339   9.175  0.3448 -0.2064 -1.0062
 9061SOL     OW28950   7.011   1.562   1.100 -0.0258 -0.3334  0.1559
 9061SOL    HW128951   7.013   1.569   1.004  1.9072 -0.1500  0.1721
 9061SOL    HW228952   7.000   1.468   1.116 -0.4199 -0.3591 -0.2379
 9062SOL     OW28953   6.834   0.953   7.326  0.9063 -0.0040 -0.0142
 9062SOL    HW128954   6.838   0.966   7.231  0.6101  2.1398  0.2116
 9062SOL    HW228955   6.745   0.977   7.350  1.0442 -0.2955  0.8254
 9063SOL     OW28956   2.615   3.937   2.193  0.4688  0.5263  0.0752
 9063SOL    HW128957   2.696   3.983   2.172  0.4740  0.6407  0.3479
 9063SOL    HW228958   2.598   3.882   2.116  1.0861  0.0993  0.2334
 9064SOL     OW28959   0.279   6.670   2.821  0.0207  0.0920 -0.0916
 9064SOL    HW128960   0.265   6.684   2.914 -0.5943 -1.7028  0.1226
 9064SOL    HW228961   0.366   6.705   2.804 -0.0401  0.8379  1.0471
 9065SOL     OW28962   0.987   0.707   8.502 -0.2669 -0.1903  0.0092
 9065SOL    HW128963   1.073   0.678   8.533  0.7771  2.5927 -0.0157
 9065SOL    HW228964   0.933   0.710   8.581 -0.5086 -2.3209 -0.0318
 9066SOL     OW28965   7.588   8.547   5.359  0.2722  0.0614 -0.3271
 9066SOL    HW128966   7.603   8.469   5.412  0.5532 -0.5899 -1.3337
 9066SOL    HW228967   7.528   8.600   5.412  1.4712  0.0108  1.1667
 9067SOL     OW28968   5.131   1.884   1.109  0.2909 -0.3748  0.3347
 9067SOL    HW128969   5.145   1.804   1.058 -0.0492 -1.5749  2.0341
 9067SOL    HW228970   5.132   1.954   1.044  0.9322 -1.7129 -1.1734
 9068SOL     OW28971   8.336   4.676   2.062  0.0863  0.0246 -0.3907
 9068SOL    HW128972   8.329   4.581   2.053 -1.4879  0.1340 -0.6055
 9068SOL    HW228973   8.425   4.691   2.093  0.1337 -1.5727  0.3440
 9069SOL     OW28974   1.619   0.958   1.020 -0.4865 -0.6222 -0.4301
 9069SOL    HW128975   1.701   0.929   0.982 -0.4011  0.7153 -1.3220
 9069SOL    HW228976   1.617   1.052   1.006 -0.5910 -0.0595  2.6468
 9070SOL     OW28977   7.875   0.663   7.397 -0.2152  0.2746 -0.3599
 9070SOL    HW128978   7.918   0.698   7.474 -0.1752 -1.5756  0.5125
 9070SOL    HW228979   7.945   0.652   7.332  0.1356 -0.0948  0.0747
 9071SOL     OW28980   7.417   6.900   2.739 -0.4640  0.0568 -0.2066
 9071SOL    HW128981   7.481   6.875   2.805 -0.6567 -1.8018 -0.6768
 9071SOL    HW228982   7.467   6.902   2.657 -0.7422 -0.0896 -0.3800
 9072SOL     OW28983   5.883   1.013   2.007 -0.4654  0.1073 -0.1753
 9072SOL    HW128984   5.866   1.048   1.919  0.9925  0.4847 -0.3268
 9072SOL    HW228985   5.870   1.087   2.066  1.3676  0.6201 -0.3723
 9073SOL     OW28986   4.118   3.186   7.049  0.0658 -0.1463 -0.2418
 9073SOL    HW128987   4.178   3.164   7.121 -1.1206  4.6122  2.7068
 9073SOL    HW228988   4.175   3.221   6.981  0.9861 -0.4902  0.3269
 9074SOL     OW28989   4.787   1.451   6.647 -0.4550 -0.1115 -0.1361
 9074SOL    HW128990   4.766   1.544   6.644 -1.1282 -0.2846 -2.0473
 9074SOL    HW228991   4.828   1.432   6.563 -1.0764 -1.6957 -0.1318
 9075SOL     OW28992   7.057   1.451   0.283  0.0422  0.1705  0.1119
 9075SOL    HW128993   7.020   1.530   0.246 -1.3054 -0.4391  0.1123
 9075SOL    HW228994   6.991   1.420   0.346  1.4474  0.1799  1.6706
 9076SOL     OW28995   0.529   0.366   0.972 -0.3601 -0.0074 -0.1796
 9076SOL    HW128996   0.472   0.357   1.048  0.7758  0.2579  0.7106
 9076SOL    HW228997   0.615   0.385   1.007  0.3767 -0.7464 -1.5100
 9077SOL     OW28998   8.104   8.801   4.685  0.2791 -0.2476  0.1553
 9077SOL    HW128999   8.127   8.769   4.598 -0.8221  1.9918 -1.0570
 9077SOL    HW229000   8.030   8.747   4.711  0.5751 -0.9020 -0.3331
 9078SOL     OW29001   5.245   5.864   6.522  0.2799 -0.3766  0.4661
 9078SOL    HW129002   5.311   5.928   6.548  1.6060 -1.8340  0.8711
 9078SOL    HW229003   5.296   5.785   6.501 -1.2168 -1.0265 -0.8937
 9079SOL     OW29004   0.202   4.561   6.270 -0.0027 -0.5415  0.2920
 9079SOL    HW129005   0.183   4.587   6.180  0.9030 -0.3250  0.1493
 9079SOL    HW229006   0.290   4.524   6.266 -0.5417 -1.9427  0.8316
 9080SOL     OW29007   1.120   4.158   6.932  0.4766 -0.0655 -0.4110
 9080SOL    HW129008   1.107   4.248   6.902  0.0190  0.0110 -0.0103
 9080SOL    HW229009   1.061   4.149   7.007  1.5573 -0.2491  0.4580
 9081SOL     OW29010   1.414   9.307   9.480  0.2940 -1.1457 -0.0168
 9081SOL    HW129011   1.381   9.274   9.397 -1.7354  1.9588 -0.5994
 9081SOL    HW229012   1.338   9.349   9.521  2.2936  1.7236  1.0694
 9082SOL     OW29013   7.805   4.780   7.836 -0.0035  0.5046  0.5040
 9082SOL    HW129014   7.768   4.819   7.915  0.4557  0.3657  0.7918
 9082SOL    HW229015   7.891   4.821   7.826 -0.3733  1.1065 -0.3770
 9083SOL     OW29016   5.484   3.959   6.305 -0.5117  0.1390 -0.0349
 9083SOL    HW129017   5.443   3.883   6.345 -1.2627  0.9074  0.6758
 9083SOL    HW229018   5.518   4.010   6.378 -3.4035  2.4381 -0.1197
 9084SOL     OW29019   3.415   1.025   6.065 -0.0859 -0.3015 -0.3650
 9084SOL    HW129020   3.358   0.952   6.041 -0.5048  0.3488 -1.3850
 9084SOL    HW229021   3.358   1.101   6.064  0.3573  0.0642  0.6687
 9085SOL     OW29022   0.073   3.846   3.256 -0.3155 -0.1426 -0.2620
 9085SOL    HW129023   0.133   3.811   3.190  1.2549 -2.0441  2.0005
 9085SOL    HW229024   0.126   3.908   3.305 -0.7923 -0.3442  0.5184
 9086SOL     OW29025   4.290   8.184   1.140 -0.2501 -0.1061 -0.0389
 9086SOL    HW129026   4.296   8.143   1.227  2.0361  0.9526  0.3693
 9086SOL    HW229027   4.203   8.224   1.138 -0.9310 -1.4219  1.1441
 9087SOL     OW29028   6.396   7.509   0.542  0.1464 -0.0039 -0.1265
 9087SOL    HW129029   6.446   7.581   0.503 -1.6184  1.3638 -0.0029
 9087SOL    HW229030   6.365   7.544   0.626 -0.8868 -0.8520 -0.1328
 9088SOL     OW29031   1.584   9.429   1.781  1.2855  0.2230  0.2973
 9088SOL    HW129032   1.496   9.391   1.780  0.5327  1.8566  0.1457
 9088SOL    HW229033   1.576   9.508   1.728  3.1302 -0.1313 -0.5872
 9089SOL     OW29034   4.283   5.417   2.606 -0.2370 -0.2283 -0.4144
 9089SOL    HW129035   4.373   5.389   2.624 -0.2308  1.2386  2.3593
 9089SOL    HW229036   4.275   5.501   2.652 -3.2185 -0.6061 -0.0800
 9090SOL     OW29037   0.411   8.374   6.422 -0.0872 -0.3145  0.3280
 9090SOL    HW129038   0.495   8.328   6.434  0.5982  1.0116  0.7434
 9090SOL    HW229039   0.370   8.372   6.508  0.1258  0.2015  0.4411
 9091SOL     OW29040   8.299   1.658   8.239 -0.2242  0.5036  0.3581
 9091SOL    HW129041   8.362   1.710   8.189 -0.4763 -0.1492 -0.6679
 9091SOL    HW229042   8.227   1.719   8.258 -1.5420  0.0782 -2.6961
 9092SOL     OW29043   1.970   2.206   7.833 -0.1723  0.2088 -0.0632
 9092SOL    HW129044   1.991   2.250   7.750  3.1333 -0.8994  0.0340
 9092SOL    HW229045   2.015   2.258   7.899  1.0504 -1.4092  0.4367
 9093SOL     OW29046   1.343   4.482   8.697  0.5198  0.0897 -0.1523
 9093SOL    HW129047   1.343   4.574   8.724  0.0474 -0.3986  1.6765
 9093SOL    HW229048   1.379   4.483   8.609  3.0034  1.7704  0.7719
 9094SOL     OW29049   5.546   2.312   2.089 -0.3015 -0.2443  0.1978
 9094SOL    HW129050   5.473   2.257   2.116  0.5425 -0.7694  1.5031
 9094SOL    HW229051   5.560   2.372   2.161  1.5301 -1.1901  0.6960
 9095SOL     OW29052   6.720   2.304   1.901  0.3781  0.4811 -0.1906
 9095SOL    HW129053   6.762   2.251   1.833  3.5949  1.5728  0.7712
 9095SOL    HW229054   6.627   2.302   1.878  0.6565 -3.1926 -1.7729
 9096SOL     OW29055   7.971   2.239   7.515 -0.5640  0.1785 -0.0364
 9096SOL    HW129056   7.897   2.247   7.455  0.6140  0.9735 -1.4432
 9096SOL    HW229057   8.047   2.264   7.463  0.4473  1.5264  1.9551
 9097SOL     OW29058   8.434   3.791   3.594 -0.5518 -0.3999 -0.4736
 9097SOL    HW129059   8.420   3.878   3.556 -0.3607 -0.3436 -0.4167
 9097SOL    HW229060   8.362   3.781   3.657 -0.5197 -0.2427 -0.4110
 9098SOL     OW29061   1.671   5.693   2.659 -0.7081 -0.2423 -0.3092
 9098SOL    HW129062   1.727   5.615   2.658  0.3104  0.4614 -0.5484
 9098SOL    HW229063   1.727   5.762   2.623 -1.5203  0.6445  0.0941
 9099SOL     OW29064   1.401   8.702   0.675  0.1963 -0.3443  0.6711
 9099SOL    HW129065   1.421   8.760   0.601 -2.6010 -0.5174 -0.3469
 9099SOL    HW229066   1.306   8.688   0.669  0.4090 -3.1585  2.2580
 9100SOL     OW29067   5.819   1.139   7.961  0.4053 -0.0975  0.1167
 9100SOL    HW129068   5.800   1.086   8.039 -1.4471 -2.3707 -1.7397
 9100SOL    HW229069   5.735   1.180   7.940  1.3446  2.1136  0.3406
 9101SOL     OW29070   6.314   1.440   5.003  0.0837  0.5246 -0.8098
 9101SOL    HW129071   6.357   1.356   5.020  0.1283  0.3795 -1.5828
 9101SOL    HW229072   6.275   1.464   5.087  2.0100  0.8670  0.0429
 9102SOL     OW29073   6.533   5.026   5.572 -0.2828 -0.2053  0.4983
 9102SOL    HW129074   6.562   5.013   5.662 -1.5737 -0.5107  0.8928
 9102SOL    HW229075   6.471   4.955   5.556  2.3520 -2.2241 -1.8007
 9103SOL     OW29076   3.240   6.381   3.308  0.2789  0.0063 -0.1435
 9103SOL    HW129077   3.239   6.473   3.334  0.7760  0.1904 -0.7397
 9103SOL    HW229078   3.203   6.334   3.383 -1.6046  0.8452 -0.4801
 9104SOL     OW29079   1.004   3.860   6.343 -0.2849  0.2547 -0.0924
 9104SOL    HW129080   0.991   3.765   6.338 -3.1114  0.4698  1.2208
 9104SOL    HW229081   0.973   3.893   6.259  1.2249  0.0242 -0.7709
 9105SOL     OW29082   4.422   5.432   9.752 -0.2529 -0.1498 -0.3500
 9105SOL    HW129083   4.437   5.399   9.664  0.3269  0.9552 -0.6847
 9105SOL    HW229084   4.455   5.364   9.810 -2.5923 -1.8728 -0.8993
 9106SOL     OW29085   2.633   8.964   5.316 -0.1297  0.9363  0.0451
 9106SOL    HW129086   2.653   8.871   5.305 -0.4234  0.7037  1.3483
 9106SOL    HW229087   2.660   8.985   5.405 -2.4665  1.4270  0.7154
 9107SOL     OW29088   0.929   1.980   5.360  0.0539  0.1992  0.1174
 9107SOL    HW129089   0.863   2.049   5.362 -1.0221 -0.7947 -0.1671
 9107SOL    HW229090   0.884   1.902   5.394  1.1341 -0.4541  0.1028
 9108SOL     OW29091   4.523   0.135   0.074 -0.0917 -0.2939  0.3214
 9108SOL    HW129092   4.541   0.041   0.072  0.2853 -0.2195  0.2320
 9108SOL    HW229093   4.581   0.172   0.008 -0.7872 -0.0879 -0.1907
 9109SOL     OW29094   5.479   7.396   9.468  0.2567 -0.2147 -0.0887
 9109SOL    HW129095   5.572   7.399   9.492  0.4285  0.3082 -0.7970
 9109SOL    HW229096   5.473   7.329   9.400  0.3576  0.6977 -1.0197
 9110SOL     OW29097   1.499   9.815   6.991  0.3315  0.5702 -0.0149
 9110SOL    HW129098   1.476   9.857   7.074 -1.6966  0.0638 -0.2624
 9110SOL    HW229099   1.422   9.763   6.968  0.8698  0.6066 -2.1717
 9111SOL     OW29100   6.701   2.288   7.285 -0.2716  0.0015  0.1938
 9111SOL    HW129101   6.787   2.248   7.273  0.2384  1.5357 -1.8512
 9111SOL    HW229102   6.639   2.218   7.262  0.5084 -0.4265 -0.6715
 9112SOL     OW29103   0.747   0.768   3.654 -0.5981  0.0373 -0.1706
 9112SOL    HW129104   0.669   0.727   3.618  1.3426 -1.9073 -2.5302
 9112SOL    HW229105   0.761   0.846   3.600 -0.4057 -0.1303 -0.3639
 9113SOL     OW29106   0.279   7.963   6.854 -0.5559  0.6958 -0.5631
 9113SOL    HW129107   0.190   7.979   6.884 -0.8189  1.2758 -1.6098
 9113SOL    HW229108   0.270   7.940   6.762  0.5331  3.3333 -1.4228
 9114SOL     OW29109   9.634   9.069   4.478  0.4544 -0.1692  0.4178
 9114SOL    HW129110   9.562   9.100   4.423  2.3880  1.4866 -1.3431
 9114SOL    HW229111   9.593   9.007   4.539 -2.5245  1.1179 -0.1121
 9115SOL     OW29112   8.741   2.712   3.963  0.4890  0.5336  0.0076
 9115SOL    HW129113   8.674   2.643   3.960 -1.9232  2.7100  0.1752
 9115SOL    HW229114   8.787   2.696   4.045 -0.0323 -0.8497  0.0676
 9116SOL     OW29115   3.895   5.854   9.843 -0.1453 -0.2357  0.0910
 9116SOL    HW129116   3.936   5.896   9.918  0.6891  0.0573 -0.5117
 9116SOL    HW229117   3.825   5.800   9.880 -0.4209  0.7123  0.9822
 9117SOL     OW29118   3.533   0.173   5.414  0.3759 -0.0154  0.2140
 9117SOL    HW129119   3.447   0.215   5.409  0.6912  0.7118  0.7536
 9117SOL    HW229120   3.550   0.142   5.326  0.0988  0.9189 -0.1809
 9118SOL     OW29121   3.509   2.440   0.490 -0.6285 -0.3781  0.0668
 9118SOL    HW129122   3.511   2.380   0.415  1.0070 -0.7393  0.3560
 9118SOL    HW229123   3.477   2.523   0.454 -0.5689 -0.7440 -0.8649
 9119SOL     OW29124   7.076   4.481   3.523 -0.8934 -0.2736  0.5398
 9119SOL    HW129125   7.109   4.564   3.556  0.0774 -1.1405  1.8568
 9119SOL    HW229126   6.995   4.503   3.477 -0.1707  1.5031  0.0389
 9120SOL     OW29127   6.681   1.866   0.288 -0.2260 -0.2803 -0.1425
 9120SOL    HW129128   6.773   1.892   0.301 -0.0340 -0.4596 -1.1259
 9120SOL    HW229129   6.653   1.837   0.375  0.7412 -0.5261  0.1081
 9121SOL     OW29130   6.658   5.402   2.326 -0.3697  0.0384 -0.5506
 9121SOL    HW129131   6.644   5.361   2.241  2.5459 -0.8537 -0.7136
 9121SOL    HW229132   6.696   5.332   2.380  2.4404  1.7634 -0.0661
 9122SOL     OW29133   1.187   3.282   5.271  0.3758 -0.4122 -0.1103
 9122SOL    HW129134   1.151   3.330   5.196  0.5360 -0.2720 -0.0969
 9122SOL    HW229135   1.228   3.205   5.232 -0.1103 -0.6755 -0.1094
 9123SOL     OW29136   2.092   4.625   2.624  0.0654  0.0599 -0.2590
 9123SOL    HW129137   2.049   4.710   2.617  1.0342  0.6427  0.5215
 9123SOL    HW229138   2.050   4.571   2.557 -1.4536  0.7564  0.0889
 9124SOL     OW29139   9.430   4.954   7.811  0.1981  0.0032 -0.1377
 9124SOL    HW129140   9.339   4.981   7.820  0.2753  0.0693  0.5071
 9124SOL    HW229141   9.472   4.986   7.891  1.1606  1.4799 -1.1857
 9125SOL     OW29142   1.722   8.221   0.665  0.1669  0.1269 -0.3467
 9125SOL    HW129143   1.766   8.191   0.586  0.1811  0.1682 -0.3546
 9125SOL    HW229144   1.631   8.193   0.654  0.2363 -0.1405 -0.2364
 9126SOL     OW29145   6.253   2.175   7.655 -0.1960 -0.0489  0.7339
 9126SOL    HW129146   6.238   2.124   7.575 -0.5826  0.8606  0.2189
 9126SOL    HW229147   6.211   2.259   7.639 -1.3113 -0.2592  2.3634
 9127SOL     OW29148   1.361   9.067   8.869  0.7610  0.1546  0.2595
 9127SOL    HW129149   1.400   9.119   8.939  0.4393  0.0498  0.5195
 9127SOL    HW229150   1.423   9.074   8.796  1.9601 -1.0861  1.0971
 9128SOL     OW29151   7.942   0.205   1.223 -0.1940  0.4810 -0.1887
 9128SOL    HW129152   7.912   0.295   1.209  0.3833  0.7235  0.0772
 9128SOL    HW229153   8.037   0.213   1.232 -0.1208 -0.1813 -0.3476
 9129SOL     OW29154   7.184   7.843   1.160  0.2165  0.0481 -0.3826
 9129SOL    HW129155   7.251   7.775   1.165  1.0762  0.9003  0.0981
 9129SOL    HW229156   7.224   7.919   1.203 -1.1033  0.5490  0.0215
 9130SOL     OW29157   4.688   1.673   2.913  0.4465  0.0428  0.6154
 9130SOL    HW129158   4.599   1.693   2.884  0.2701  0.7731  1.6016
 9130SOL    HW229159   4.711   1.592   2.867 -1.2298 -0.9104  1.3859
 9131SOL     OW29160   8.680   4.423   7.774 -0.4267  0.2240 -0.0844
 9131SOL    HW129161   8.610   4.361   7.792  0.1880 -0.8463 -1.2174
 9131SOL    HW229162   8.636   4.502   7.743 -1.2005  0.2476  1.0335
 9132SOL     OW29163   4.471   1.537   3.242 -0.0742  0.0487 -0.2605
 9132SOL    HW129164   4.432   1.485   3.313  0.0242 -0.1460 -0.3484
 9132SOL    HW229165   4.563   1.511   3.241 -0.2113 -0.4115 -0.8745
 9133SOL     OW29166   3.167   1.411   5.887  0.1090 -0.0813  0.2756
 9133SOL    HW129167   3.128   1.333   5.927 -2.5006  0.0406 -1.7724
 9133SOL    HW229168   3.147   1.482   5.948  2.5665 -0.8870  2.1919
 9134SOL     OW29169   0.027   8.918   1.901 -0.4418 -0.2705  0.0378
 9134SOL    HW129170  -0.021   9.000   1.909  0.2113  0.0662  0.7224
 9134SOL    HW229171   0.011   8.889   1.812  0.3320  1.2632 -0.6469
 9135SOL     OW29172   3.397   0.169   1.101 -0.0762  0.4875 -0.1427
 9135SOL    HW129173   3.427   0.200   1.015 -0.4681  1.6642  0.1187
 9135SOL    HW229174   3.459   0.206   1.163 -0.8282  1.1706  0.2217
 9136SOL     OW29175   7.870   6.359   7.294 -0.3837 -0.3666 -0.5246
 9136SOL    HW129176   7.921   6.431   7.257 -0.8125  1.0113  1.3778
 9136SOL    HW229177   7.930   6.285   7.295  0.5474  0.3537 -1.2422
 9137SOL     OW29178   0.686   6.533   5.844 -0.0068  0.3236 -0.1570
 9137SOL    HW129179   0.608   6.570   5.804 -0.2631  2.3250  2.0098
 9137SOL    HW229180   0.655   6.458   5.894 -0.2758  0.1111 -0.6450
 9138SOL     OW29181   9.328   0.225   7.973 -0.1090  0.3484  0.0300
 9138SOL    HW129182   9.267   0.215   7.899 -0.2746  1.0961  0.0539
 9138SOL    HW229183   9.275   0.267   8.041  0.8475  2.6859 -0.5617
 9139SOL     OW29184   9.084   7.641   8.123 -0.3429  0.0810  0.2623
 9139SOL    HW129185   9.027   7.673   8.193 -0.4997  1.9787 -0.6804
 9139SOL    HW229186   9.037   7.662   8.042  0.9682  0.2226 -0.4869
 9140SOL     OW29187   2.718   6.106   5.855 -0.4844 -0.1232 -0.5714
 9140SOL    HW129188   2.632   6.092   5.895  0.2157 -0.0582  1.0273
 9140SOL    HW229189   2.779   6.060   5.912  0.8334  1.8811 -0.2548
 9141SOL     OW29190   5.127   0.450   9.299 -0.2152 -0.1657  0.3090
 9141SOL    HW129191   5.067   0.521   9.323  1.1135  0.9507  0.4642
 9141SOL    HW229192   5.073   0.388   9.250 -1.3264  1.1473 -0.1752
 9142SOL     OW29193   6.236   5.740   9.050  0.0195  0.5042 -0.4108
 9142SOL    HW129194   6.219   5.688   9.128  0.1046  0.0362 -0.6982
 9142SOL    HW229195   6.168   5.714   8.988  1.1503 -0.6688 -1.2228
 9143SOL     OW29196   0.548   4.624   0.505  0.4565 -0.3189 -0.1870
 9143SOL    HW129197   0.528   4.595   0.594  0.3737  1.3509  0.3841
 9143SOL    HW229198   0.627   4.576   0.481  0.1765 -1.1927  0.5631
 9144SOL     OW29199   5.897   8.406   1.169 -0.5197  0.2602  0.0169
 9144SOL    HW129200   5.881   8.483   1.223 -0.5743  0.6969 -0.6049
 9144SOL    HW229201   5.820   8.351   1.183 -0.9495  0.7693 -0.2834
 9145SOL     OW29202   9.575   8.783   1.812 -0.2102  0.2400 -0.0260
 9145SOL    HW129203   9.486   8.809   1.787 -0.2762 -0.7753 -0.8806
 9145SOL    HW229204   9.629   8.806   1.736 -0.0517 -0.8275 -0.2506
 9146SOL     OW29205   0.239   3.258   9.250  0.1977 -0.1194 -0.0460
 9146SOL    HW129206   0.325   3.294   9.228  0.8316 -1.6214 -0.1333
 9146SOL    HW229207   0.182   3.335   9.257  1.4531  0.8741 -0.3620
 9147SOL     OW29208   6.531   7.035   4.680 -0.3802  0.3945  0.1250
 9147SOL    HW129209   6.490   7.042   4.593  0.7256  0.1284 -0.4301
 9147SOL    HW229210   6.508   6.948   4.711 -0.3984  0.3230 -0.0924
 9148SOL     OW29211   1.127   8.472   0.390  0.6813 -0.1234 -0.0266
 9148SOL    HW129212   1.086   8.399   0.436  0.4103  0.7029  1.0857
 9148SOL    HW229213   1.108   8.549   0.443 -2.0163  1.4158 -2.8885
 9149SOL     OW29214   1.647   1.805   2.566  0.4133  0.0861 -0.0771
 9149SOL    HW129215   1.696   1.857   2.630  0.0110 -0.2319  0.4846
 9149SOL    HW229216   1.627   1.868   2.496 -0.6121  0.8700  0.8828
 9150SOL     OW29217   8.551   4.983   2.071  0.4956 -0.0435 -0.0002
 9150SOL    HW129218   8.497   5.003   1.994  1.6491 -0.4883 -0.9476
 9150SOL    HW229219   8.610   5.058   2.079  2.1160 -1.1430 -1.1357
 9151SOL     OW29220   7.335   8.501   7.061  0.0061 -0.1561 -0.2665
 9151SOL    HW129221   7.273   8.565   7.097  1.1778  0.9174 -0.0704
 9151SOL    HW229222   7.342   8.524   6.968  1.1995  0.7115  0.0057
 9152SOL     OW29223   4.702   8.314   8.367  0.5972  0.5220  0.0033
 9152SOL    HW129224   4.715   8.232   8.319  1.8940 -0.0432  1.2159
 9152SOL    HW229225   4.702   8.382   8.300  2.4545 -0.2205 -0.8386
 9153SOL     OW29226   2.823   1.394   1.721  0.1569  0.0295  0.3040
 9153SOL    HW129227   2.786   1.315   1.759 -1.0741  0.4185 -0.0461
 9153SOL    HW229228   2.871   1.436   1.793  1.1658 -1.2077  0.3956
 9154SOL     OW29229   2.738   3.186   5.183  0.1636 -0.6516  0.1125
 9154SOL    HW129230   2.733   3.262   5.125 -1.4104  0.2606  1.3449
 9154SOL    HW229231   2.722   3.111   5.126  0.5342  0.0422 -0.9369
 9155SOL     OW29232   4.296   6.562   0.753  0.1845  0.0028  0.4109
 9155SOL    HW129233   4.250   6.644   0.769  2.2820  1.0894  1.2384
 9155SOL    HW229234   4.293   6.551   0.658 -0.2124  0.9643  0.3007
 9156SOL     OW29235   5.722   4.999   8.211 -0.0600  0.3473  0.0685
 9156SOL    HW129236   5.685   5.084   8.185  2.3564  1.6046  0.4645
 9156SOL    HW229237   5.719   4.946   8.132 -2.2554  0.4868 -0.0131
 9157SOL     OW29238   2.448   5.464   7.896 -0.4844  0.5157 -0.7837
 9157SOL    HW129239   2.373   5.524   7.898 -0.0945  1.0429 -1.5553
 9157SOL    HW229240   2.523   5.518   7.923 -0.3646  0.0089 -0.0854
 9158SOL     OW29241   5.344   9.438   5.406 -0.2473 -0.3204  0.1106
 9158SOL    HW129242   5.252   9.417   5.392 -0.4239  0.8451 -0.5984
 9158SOL    HW229243   5.356   9.524   5.365  1.3334 -0.8032 -0.5404
 9159SOL     OW29244   9.595   1.008   6.522  0.3556  0.1360 -0.1564
 9159SOL    HW129245   9.611   0.978   6.611 -0.2022 -1.8296 -0.6701
 9159SOL    HW229246   9.642   0.945   6.467 -3.9271 -2.2918 -1.4669
 9160SOL     OW29247   3.414   6.835   4.221 -0.0771  0.2635  0.1844
 9160SOL    HW129248   3.452   6.752   4.193  0.0637  0.4776 -0.2728
 9160SOL    HW229249   3.405   6.885   4.140  0.2856  0.8776  0.5195
 9161SOL     OW29250   1.004   3.329   0.269 -0.2369  0.2852 -0.2528
 9161SOL    HW129251   1.019   3.237   0.248 -3.5113  0.0401 -2.0898
 9161SOL    HW229252   0.971   3.328   0.359  0.2637 -0.2380 -0.0673
 9162SOL     OW29253   6.153   5.737   9.517  0.3326  0.3336  0.7092
 9162SOL    HW129254   6.245   5.761   9.526  0.9421 -1.0347 -1.0982
 9162SOL    HW229255   6.133   5.686   9.595  1.1750  0.4371  0.9994
 9163SOL     OW29256   6.807   8.760   2.959 -0.2461  0.6206 -0.2311
 9163SOL    HW129257   6.838   8.789   2.874 -0.4753 -1.7261 -1.2105
 9163SOL    HW229258   6.832   8.667   2.963 -0.2807  0.6498  2.2492
 9164SOL     OW29259   1.209   9.719   6.356  0.3346 -0.2328 -0.4764
 9164SOL    HW129260   1.136   9.694   6.413  1.2843  0.8660  1.3361
 9164SOL    HW229261   1.169   9.776   6.290 -0.5693 -0.2762  0.0171
 9165SOL     OW29262   7.660   6.844   3.412  0.2475 -0.0466 -0.3448
 9165SOL    HW129263   7.613   6.923   3.386  0.7837  0.9421  1.5061
 9165SOL    HW229264   7.726   6.833   3.344  0.7103  1.6257 -0.2224
 9166SOL     OW29265   9.687   2.395   0.207 -0.4067  0.2289  0.4871
 9166SOL    HW129266   9.684   2.458   0.279  0.1408  0.4194  0.3395
 9166SOL    HW229267   9.673   2.447   0.128 -0.0552  0.1552  0.3743
 9167SOL     OW29268   2.667   4.094   7.853 -1.1357 -0.2698  0.2044
 9167SOL    HW129269   2.657   4.070   7.945 -1.4699 -1.2393 -0.0714
 9167SOL    HW229270   2.662   4.011   7.806  2.5797 -0.3181 -0.4621
 9168SOL     OW29271   3.662   7.685   5.922 -0.2085 -0.3065 -0.4149
 9168SOL    HW129272   3.717   7.763   5.929 -1.1807  0.4468 -0.8374
 9168SOL    HW229273   3.721   7.617   5.889  0.2622  0.7403 -1.8545
 9169SOL     OW29274   8.498   4.441   4.500  0.3894  0.2810  0.1493
 9169SOL    HW129275   8.520   4.444   4.407 -0.0889  2.7376  0.0607
 9169SOL    HW229276   8.581   4.422   4.544  1.0474  1.1589 -0.6763
 9170SOL     OW29277   7.687   5.953   8.349  0.4256 -0.6099  0.1284
 9170SOL    HW129278   7.708   5.953   8.442 -0.6781  0.0247  0.3918
 9170SOL    HW229279   7.593   5.966   8.345  0.5203 -0.1224 -1.0898
 9171SOL     OW29280   9.088   0.180   0.361  0.4248 -0.5332  0.2186
 9171SOL    HW129281   9.060   0.233   0.435  0.8388 -0.4009  0.2875
 9171SOL    HW229282   9.180   0.160   0.379  0.6978 -0.0181 -0.5299
 9172SOL     OW29283   3.773   8.747   0.736 -0.3882 -0.4580  0.2579
 9172SOL    HW129284   3.723   8.769   0.657 -0.1138 -0.1462  0.1697
 9172SOL    HW229285   3.864   8.764   0.713 -0.4405  1.2946  1.1770
 9173SOL     OW29286   8.214   7.691   9.323  0.1541  0.4773 -0.0137
 9173SOL    HW129287   8.231   7.645   9.405  1.6271 -0.8515 -1.0141
 9173SOL    HW229288   8.301   7.718   9.293 -0.3397  0.6794 -1.2989
 9174SOL     OW29289   0.967   8.469   9.469  0.4165 -0.6729 -0.2408
 9174SOL    HW129290   0.895   8.532   9.456  0.4113 -0.9151 -1.5155
 9174SOL    HW229291   0.924   8.384   9.469  0.7752 -0.8924 -2.0434
 9175SOL     OW29292   4.788   7.688   9.758 -0.4911  0.2026 -0.0039
 9175SOL    HW129293   4.751   7.772   9.785 -1.8765 -0.2330 -0.4813
 9175SOL    HW229294   4.719   7.625   9.776  1.1518 -1.1453  2.0102
 9176SOL     OW29295   5.706   7.603   8.642 -0.1834  0.0863 -0.6954
 9176SOL    HW129296   5.766   7.580   8.570 -1.1433 -1.7809 -0.9341
 9176SOL    HW229297   5.661   7.522   8.663 -0.9747  0.9395  1.0689
 9177SOL     OW29298   9.333   7.827   6.394  0.3051  0.2083  0.2915
 9177SOL    HW129299   9.355   7.745   6.438 -0.4563 -0.6947 -0.9480
 9177SOL    HW229300   9.409   7.845   6.337  0.1276 -0.0659 -0.0323
 9178SOL     OW29301   8.137   8.614   3.093  0.0296  0.5146  0.4141
 9178SOL    HW129302   8.204   8.671   3.056  1.2516  0.2862  2.1444
 9178SOL    HW229303   8.147   8.531   3.046  0.3018  0.7842 -0.0069
 9179SOL     OW29304   5.841   3.041   3.042  0.2237 -0.3776  0.0342
 9179SOL    HW129305   5.775   3.051   2.973  0.4125 -1.6619 -0.3571
 9179SOL    HW229306   5.800   3.079   3.120 -0.0770  0.9012 -0.7124
 9180SOL     OW29307   5.734   4.442   2.163 -0.4478  0.2914 -0.2470
 9180SOL    HW129308   5.720   4.353   2.194  0.3799  0.7292  1.4697
 9180SOL    HW229309   5.668   4.495   2.208  1.1289  1.0260  1.3153
 9181SOL     OW29310   7.719   9.430   2.929 -0.2631 -0.1257  0.5646
 9181SOL    HW129311   7.673   9.494   2.874 -0.0055  0.1346  0.6475
 9181SOL    HW229312   7.733   9.355   2.872  0.2678  0.2585  0.1737
 9182SOL     OW29313   7.135   6.272   5.879  0.7037  0.4433  0.0463
 9182SOL    HW129314   7.162   6.182   5.898 -1.1188 -0.0995  0.2401
 9182SOL    HW229315   7.116   6.310   5.964  1.2629  0.9728 -0.0527
 9183SOL     OW29316   9.281   1.064   2.476  0.2968  0.3814 -0.1809
 9183SOL    HW129317   9.241   0.977   2.483 -3.3463  1.8589 -0.6391
 9183SOL    HW229318   9.332   1.073   2.556 -0.7324 -1.5069  0.7658
 9184SOL     OW29319   7.373   4.962   9.136 -0.0738  0.2817 -0.6063
 9184SOL    HW129320   7.354   5.043   9.089  0.5455  0.9419  0.2566
 9184SOL    HW229321   7.434   4.915   9.079  0.8592  1.1826 -0.3717
 9185SOL     OW29322   5.972   1.921   8.956 -0.5852  0.0102 -0.4085
 9185SOL    HW129323   6.011   1.858   9.016  0.8037  0.5389 -0.7127
 9185SOL    HW229324   5.949   1.869   8.878  1.0597 -0.0754 -0.8843
 9186SOL     OW29325   4.893   5.399   7.356  0.0467  0.3271 -0.2120
 9186SOL    HW129326   4.950   5.351   7.296  1.7699 -2.0448  2.9527
 9186SOL    HW229327   4.948   5.414   7.433 -1.9176  3.4429  0.7371
 9187SOL     OW29328   6.052   1.008   7.036 -0.2562 -0.1048  0.4066
 9187SOL    HW129329   6.090   0.963   6.961 -0.8093  0.7253 -0.3874
 9187SOL    HW229330   6.127   1.042   7.085  0.0901 -0.2879  0.0025
 9188SOL     OW29331   1.665   6.582   8.402  0.4556 -0.8992 -0.1873
 9188SOL    HW129332   1.690   6.521   8.333  0.5328 -0.3829 -0.6183
 9188SOL    HW229333   1.575   6.559   8.423  0.2743 -0.7520 -0.7927
 9189SOL     OW29334   1.694   8.712   6.762 -0.3044  0.1953 -0.3946
 9189SOL    HW129335   1.607   8.720   6.801 -0.7521  0.1946 -1.3448
 9189SOL    HW229336   1.726   8.628   6.793 -0.6316  0.2084 -0.0046
 9190SOL     OW29337   2.554   8.514   8.153 -0.3458 -0.5974 -0.0437
 9190SOL    HW129338   2.614   8.439   8.157  1.6210  0.8746 -0.3386
 9190SOL    HW229339   2.608   8.589   8.178 -1.7835  0.9746 -1.4123
 9191SOL     OW29340   9.259   9.332   2.950  0.2132 -0.0785 -0.6632
 9191SOL    HW129341   9.308   9.338   2.868 -0.9184  0.7081 -1.3150
 9191SOL    HW229342   9.195   9.403   2.945 -1.1072 -1.1600  0.0569
 9192SOL     OW29343   2.083   3.598   8.654  0.0228 -0.2592  0.4060
 9192SOL    HW129344   2.040   3.551   8.583  0.6688  0.9229 -0.8373
 9192SOL    HW229345   2.157   3.542   8.678 -0.6789 -1.0622  0.7531
 9193SOL     OW29346   9.019   4.338   5.838 -0.0080  0.0334  0.1674
 9193SOL    HW129347   9.016   4.286   5.758 -1.7877  0.9014 -0.3876
 9193SOL    HW229348   9.097   4.393   5.827 -0.3054  0.2522 -1.0575
 9194SOL     OW29349   9.749   6.064   0.813  0.2038 -0.1746 -0.3517
 9194SOL    HW129350   9.757   6.119   0.734 -0.0594  0.0059 -0.2556
 9194SOL    HW229351   9.674   6.008   0.795  0.2625 -0.2671 -0.3078
 9195SOL     OW29352   9.275   8.163   3.951  0.2623  0.6882 -0.0017
 9195SOL    HW129353   9.358   8.208   3.938 -0.3935  2.3697  1.2739
 9195SOL    HW229354   9.227   8.176   3.868  1.0265  0.1951 -0.5312
 9196SOL     OW29355   2.786   8.096   9.770  0.1397  0.1800  0.0321
 9196SOL    HW129356   2.809   8.121   9.860  2.0981  0.8167 -0.5972
 9196SOL    HW229357   2.789   8.179   9.722 -3.4876  0.3248 -0.2030
 9197SOL     OW29358   7.963   4.487   4.775 -0.0610 -0.3953  0.0744
 9197SOL    HW129359   7.880   4.449   4.805 -0.5799 -0.6266 -1.5604
 9197SOL    HW229360   7.950   4.582   4.786 -0.7713 -0.3927 -0.6761
 9198SOL     OW29361   5.400   0.901   6.880 -0.1446  0.0046  0.6693
 9198SOL    HW129362   5.364   0.869   6.963  0.5522  0.0033  0.9729
 9198SOL    HW229363   5.433   0.822   6.836 -2.1076 -0.2666 -0.4295
 9199SOL     OW29364   8.312   1.812   0.775  0.0016 -0.4982 -0.6126
 9199SOL    HW129365   8.288   1.765   0.855 -1.9067  0.4390 -0.5646
 9199SOL    HW229366   8.342   1.744   0.715 -1.7654 -1.7015 -0.2164
 9200SOL     OW29367   9.441   8.144   8.148  0.2777 -0.2724 -0.6804
 9200SOL    HW129368   9.480   8.193   8.221 -1.3775  2.1534 -1.3126
 9200SOL    HW229369   9.456   8.199   8.071 -0.8995 -1.1786 -1.5979
 9201SOL     OW29370   7.474   6.246   1.208 -0.0843 -0.1920 -0.4362
 9201SOL    HW129371   7.488   6.340   1.216  2.9479 -0.6259  0.4169
 9201SOL    HW229372   7.541   6.216   1.148 -0.5273 -1.9179 -0.1298
 9202SOL     OW29373   9.630   0.517   0.304 -0.5618  0.5669  0.0751
 9202SOL    HW129374   9.631   0.491   0.396  1.3726  0.3984  0.0325
 9202SOL    HW229375   9.651   0.436   0.256 -0.3920  0.9145 -0.4473
 9203SOL     OW29376   5.674   8.321   8.328  0.7966  0.1690  0.7434
 9203SOL    HW129377   5.598   8.274   8.294  0.7854  0.4589  0.3583
 9203SOL    HW229378   5.749   8.266   8.305  0.7553  0.1773  0.5868
 9204SOL     OW29379   9.464   3.046   0.919  0.2832  0.0997  0.6099
 9204SOL    HW129380   9.450   3.065   1.011 -0.2894  0.7016  0.4059
 9204SOL    HW229381   9.469   3.132   0.877 -0.3647 -0.1773 -0.0465
 9205SOL     OW29382   9.471   1.322   3.138 -0.0403 -0.1212  0.3790
 9205SOL    HW129383   9.560   1.312   3.105 -0.5652 -0.8417 -0.8849
 9205SOL    HW229384   9.423   1.362   3.066 -0.7987  0.0440  0.9643
 9206SOL     OW29385   3.622   4.280   5.464  0.1592 -0.3691 -0.4109
 9206SOL    HW129386   3.593   4.276   5.373 -0.8353  1.3281 -0.1984
 9206SOL    HW229387   3.684   4.353   5.467  1.7034 -1.6208 -0.0744
 9207SOL     OW29388   3.145   6.822   8.024 -0.1751  0.0915  0.4307
 9207SOL    HW129389   3.137   6.728   8.006 -0.7382 -0.1349  1.7402
 9207SOL    HW229390   3.079   6.863   7.967 -0.2117 -0.3493  0.1552
 9208SOL     OW29391   8.877   9.763   9.643  0.6207  0.6127 -0.6879
 9208SOL    HW129392   8.826   9.826   9.693 -0.7149  0.2141 -1.5187
 9208SOL    HW229393   8.923   9.817   9.578 -2.1344  0.6260 -2.7849
 9209SOL     OW29394   7.965   4.655   3.177  0.2878  0.1064  0.4417
 9209SOL    HW129395   7.995   4.707   3.252  1.1111  0.8634 -0.3889
 9209SOL    HW229396   7.890   4.703   3.144 -0.5027 -0.5934  1.1698
 9210SOL     OW29397   3.452   0.493   5.407  0.1896  0.2305 -0.3013
 9210SOL    HW129398   3.398   0.414   5.409  0.1911  0.2282  1.2032
 9210SOL    HW229399   3.513   0.480   5.335 -0.7041 -0.5257 -0.9325
 9211SOL     OW29400   0.906   0.325   4.283  0.0995  0.0029  0.1071
 9211SOL    HW129401   0.969   0.274   4.232 -1.3331 -1.3534 -0.3729
 9211SOL    HW229402   0.837   0.348   4.220 -0.0986  1.1268  0.7088
 9212SOL     OW29403   3.431   7.320   1.089  0.0083 -0.5241  0.4004
 9212SOL    HW129404   3.409   7.231   1.114  0.5541 -0.6157  0.5625
 9212SOL    HW229405   3.477   7.356   1.164 -0.7575  0.1043  0.5768
 9213SOL     OW29406   9.259   2.072   5.934 -0.3970 -0.3565 -0.5120
 9213SOL    HW129407   9.213   2.073   6.018 -0.9234 -0.3088 -0.7964
 9213SOL    HW229408   9.280   1.979   5.920 -0.2670 -0.3578 -0.3037
 9214SOL     OW29409   3.336   5.354   0.367  0.4421  1.1120 -0.7219
 9214SOL    HW129410   3.357   5.264   0.392 -0.3988  1.7726  2.9329
 9214SOL    HW229411   3.420   5.400   0.367  0.6126  0.8234  0.0308
 9215SOL     OW29412   2.067   3.505   2.814  0.1325 -0.5070  0.4502
 9215SOL    HW129413   2.075   3.419   2.773 -1.8892 -1.4129  1.8094
 9215SOL    HW229414   2.098   3.492   2.904  1.7679  0.7404  0.1143
 9216SOL     OW29415   6.429   5.669   6.268  0.3117  0.5740  0.0217
 9216SOL    HW129416   6.350   5.720   6.285 -0.1441  0.1171 -0.6336
 9216SOL    HW229417   6.500   5.732   6.271  0.4564  0.4824  4.2781
 9217SOL     OW29418   2.300   3.588   3.299  0.2343 -0.2660 -0.2727
 9217SOL    HW129419   2.371   3.544   3.347  0.9788  0.3711 -0.7658
 9217SOL    HW229420   2.341   3.617   3.217 -1.2598 -2.2879 -1.8481
 9218SOL     OW29421   7.344   8.008   3.606 -0.3008  0.3480 -0.2439
 9218SOL    HW129422   7.396   8.075   3.650  0.1884 -0.1630 -0.0442
 9218SOL    HW229423   7.259   8.050   3.591 -0.1187  0.8892  0.2149
 9219SOL     OW29424   7.117   7.940   0.671 -0.1846 -0.3737 -0.6956
 9219SOL    HW129425   7.194   7.958   0.616  0.3731  1.6778  0.6351
 9219SOL    HW229426   7.154   7.910   0.754 -0.6603  2.2700  0.5555
 9220SOL     OW29427   7.588   8.752   4.192  0.5804  0.5748 -0.3048
 9220SOL    HW129428   7.504   8.729   4.232  0.8643 -1.8182 -0.8818
 9220SOL    HW229429   7.565   8.793   4.109 -0.1367 -1.9146 -1.4362
 9221SOL     OW29430   5.357   5.120   8.654 -0.2570 -0.1283  0.2348
 9221SOL    HW129431   5.356   5.026   8.669  2.1773 -0.5768 -1.6851
 9221SOL    HW229432   5.300   5.133   8.579  0.6282 -0.3540 -0.4995
 9222SOL     OW29433   8.841   1.992   9.186  0.0788 -0.0224  0.0381
 9222SOL    HW129434   8.834   2.061   9.253 -1.5308 -1.5889  1.6102
 9222SOL    HW229435   8.750   1.966   9.169  0.5600 -0.8010 -1.5838
 9223SOL     OW29436   4.291   7.199   3.704  0.0744 -0.3085 -0.0235
 9223SOL    HW129437   4.334   7.115   3.687 -0.5326 -0.7719  0.6770
 9223SOL    HW229438   4.200   7.186   3.679 -0.2404 -0.1754  0.9794
 9224SOL     OW29439   5.613   5.872   1.689  0.2846 -0.4346  0.3007
 9224SOL    HW129440   5.698   5.887   1.730 -0.1080  0.7490  0.7159
 9224SOL    HW229441   5.625   5.792   1.637  2.0889  0.4805 -0.8007
 9225SOL     OW29442   1.151   7.391   5.524  0.4431  0.4189  0.9301
 9225SOL    HW129443   1.240   7.358   5.532  0.1449 -0.3686  1.1012
 9225SOL    HW229444   1.124   7.409   5.614  1.0362  2.3770  0.7692
 9226SOL     OW29445   7.056   6.021   5.194 -0.2383  0.0174 -0.4679
 9226SOL    HW129446   7.068   5.962   5.120  0.4491  0.9492 -1.1323
 9226SOL    HW229447   7.021   6.101   5.156 -1.5708 -0.0887  0.4755
 9227SOL     OW29448   8.519   8.159   3.555 -0.6169 -0.0141 -0.3737
 9227SOL    HW129449   8.518   8.121   3.467 -0.7217 -0.1442 -0.3165
 9227SOL    HW229450   8.430   8.145   3.588 -0.2636 -1.0289  0.1998
 9228SOL     OW29451   9.517   4.597   6.023  1.1835 -0.3522  0.5376
 9228SOL    HW129452   9.606   4.597   5.989  1.9649 -0.5844  2.4356
 9228SOL    HW229453   9.523   4.549   6.106 -0.0945  2.1278  2.1796
 9229SOL     OW29454   8.910   3.529   7.790 -0.6990  0.7037 -0.3283
 9229SOL    HW129455   8.987   3.472   7.789  0.3787  2.1136 -0.7062
 9229SOL    HW229456   8.882   3.533   7.698 -2.1780 -0.9992  0.0033
 9230SOL     OW29457   4.213   4.558   0.588  0.0072 -0.1670 -0.0886
 9230SOL    HW129458   4.129   4.542   0.631  0.5142 -0.5853  0.7789
 9230SOL    HW229459   4.276   4.507   0.639  0.8446  0.4195 -0.5100
 9231SOL     OW29460   1.062   0.840   3.535  0.2657  0.2667  0.2764
 9231SOL    HW129461   1.147   0.813   3.571 -0.3972  0.5252  2.1374
 9231SOL    HW229462   1.001   0.772   3.565 -0.4714  0.9856  0.4239
 9232SOL     OW29463   8.192   7.314   0.232 -0.1306 -0.4747 -0.3584
 9232SOL    HW129464   8.281   7.322   0.267 -0.5146 -1.3284  0.8784
 9232SOL    HW229465   8.159   7.404   0.232  0.5476 -0.2170 -0.3157
 9233SOL     OW29466   9.050   0.674   7.186  0.1174 -0.4805  0.2004
 9233SOL    HW129467   9.132   0.678   7.137 -0.4987  1.4227 -0.7859
 9233SOL    HW229468   9.006   0.757   7.166 -0.6076  0.0099  3.2584
 9234SOL     OW29469   0.134   0.214   9.117  0.4271 -0.8152  0.3105
 9234SOL    HW129470   0.203   0.240   9.056  0.9797 -1.4173  0.6640
 9234SOL    HW229471   0.146   0.120   9.128 -0.5170 -0.9458  0.3061
 9235SOL     OW29472   7.063   6.392   8.601  0.0036  0.2009 -0.2490
 9235SOL    HW129473   6.974   6.380   8.634 -0.2662 -0.1299 -1.0782
 9235SOL    HW229474   7.119   6.347   8.665 -0.4183  0.3504  0.2344
 9236SOL     OW29475   2.184   5.200   4.518 -0.2240  0.1832  0.0520
 9236SOL    HW129476   2.100   5.157   4.531 -0.4680  0.7305  0.3491
 9236SOL    HW229477   2.211   5.176   4.429 -1.2752  0.9579 -0.4995
 9237SOL     OW29478   6.185   1.983   3.123 -0.1812  0.1295 -0.0071
 9237SOL    HW129479   6.274   1.967   3.154  0.6780  1.2868 -1.6987
 9237SOL    HW229480   6.132   1.985   3.203  1.0451 -1.9323  0.9298
 9238SOL     OW29481   1.212   5.115   3.827 -0.5119 -0.1528  0.0728
 9238SOL    HW129482   1.178   5.027   3.839  2.7858 -1.7162 -0.9140
 9238SOL    HW229483   1.229   5.146   3.916  1.1019 -1.8187  0.4149
 9239SOL     OW29484   0.150   8.503   3.997 -0.5070  0.5373 -0.0746
 9239SOL    HW129485   0.167   8.585   4.043  0.2118 -0.4077  1.4380
 9239SOL    HW229486   0.055   8.502   3.983 -0.6392  1.2136  0.7112
 9240SOL     OW29487   0.933   6.726   6.532  0.0934 -0.1362  0.0490
 9240SOL    HW129488   1.016   6.680   6.541  0.2012 -0.3010 -1.5262
 9240SOL    HW229489   0.950   6.794   6.466 -0.9832 -0.0909 -0.1994
 9241SOL     OW29490   0.107   1.177   9.281 -0.2063  0.0666  0.2156
 9241SOL    HW129491   0.132   1.269   9.283 -2.2032  0.7078 -1.2797
 9241SOL    HW229492   0.110   1.150   9.373 -0.9943  2.0322  0.8672
 9242SOL     OW29493   3.335   9.123   6.576 -0.2364 -0.0880  0.1107
 9242SOL    HW129494   3.399   9.149   6.510  0.2102 -1.2554  0.0612
 9242SOL    HW229495   3.260   9.091   6.525 -0.6484  0.7536  0.1721
 9243SOL     OW29496   9.485   5.925   6.266 -0.4220 -0.7393 -0.1609
 9243SOL    HW129497   9.444   5.839   6.266  0.3860 -1.1364 -0.6214
 9243SOL    HW229498   9.434   5.976   6.329 -0.1385 -1.9386  1.0884
 9244SOL     OW29499   1.937   6.278   4.681 -0.6228 -0.0698  0.3801
 9244SOL    HW129500   2.025   6.286   4.717 -0.0418  3.5750 -1.3633
 9244SOL    HW229501   1.950   6.259   4.588 -1.6552  0.1585  0.1643
 9245SOL     OW29502   4.177   1.020   1.465 -0.5374  0.2602  0.1266
 9245SOL    HW129503   4.205   0.940   1.510 -2.3148 -1.2949 -1.3268
 9245SOL    HW229504   4.168   1.085   1.535  0.5222 -0.9294  1.4308
 9246SOL     OW29505   2.452   4.953   1.131 -0.1060 -0.2473  0.9562
 9246SOL    HW129506   2.490   4.866   1.145  1.4573  0.3484  0.6580
 9246SOL    HW229507   2.518   5.013   1.165  1.0654  1.0313 -3.0313
 9247SOL     OW29508   6.998   5.599   8.469  0.3487 -0.4023  0.4442
 9247SOL    HW129509   7.001   5.644   8.385  1.8812 -0.2139  0.5571
 9247SOL    HW229510   6.959   5.513   8.450  1.0656 -0.5268 -0.5480
 9248SOL     OW29511   7.913   2.873   4.882  0.0396 -0.1473 -0.2113
 9248SOL    HW129512   7.903   2.858   4.976 -0.8961 -0.5683 -0.3688
 9248SOL    HW229513   8.002   2.909   4.873  0.4912 -0.9674  0.7344
 9249SOL     OW29514   9.051   6.013   8.501 -0.4303  0.2595 -0.0484
 9249SOL    HW129515   9.095   5.936   8.466  1.2615  1.0399  0.2479
 9249SOL    HW229516   9.118   6.082   8.497 -1.3865  1.2969  1.1682
 9250SOL     OW29517   4.490   5.398   4.905 -0.4008 -0.3288  0.5524
 9250SOL    HW129518   4.441   5.400   4.988 -2.5736 -3.9371 -0.4091
 9250SOL    HW229519   4.428   5.429   4.840  0.4575  0.1602 -0.0516
 9251SOL     OW29520   2.591   1.720   1.682 -0.1932 -0.0602 -0.0105
 9251SOL    HW129521   2.679   1.756   1.692 -0.6287  1.2045 -0.5826
 9251SOL    HW229522   2.590   1.642   1.738  1.1654  0.1253  0.2870
 9252SOL     OW29523   3.084   0.475   4.354 -0.4708 -0.0568  0.2677
 9252SOL    HW129524   3.019   0.405   4.358  0.2876 -0.7945  0.0435
 9252SOL    HW229525   3.131   0.467   4.437  0.2005 -0.4053 -0.1379
 9253SOL     OW29526   9.275   1.369   1.514  0.0306  0.1464 -0.2642
 9253SOL    HW129527   9.367   1.341   1.515  0.2169  0.7103  1.1752
 9253SOL    HW229528   9.274   1.449   1.566 -1.3278 -0.0047 -0.0311
 9254SOL     OW29529   7.077   4.513   0.239 -0.3446 -0.0958  0.6225
 9254SOL    HW129530   7.064   4.426   0.276 -0.8860  0.2608  1.2906
 9254SOL    HW229531   7.007   4.566   0.276 -0.0214  0.6296  0.2271
 9255SOL     OW29532   0.114   6.995   8.210  0.2426 -0.2818  0.4762
 9255SOL    HW129533   0.036   7.050   8.218  0.0659 -0.4429 -0.1032
 9255SOL    HW229534   0.181   7.054   8.175  0.1524 -0.3400  0.1998
 9256SOL     OW29535   5.637   6.332   0.457 -0.0045  0.5952 -0.2473
 9256SOL    HW129536   5.700   6.289   0.399  0.9580  2.3559 -0.5854
 9256SOL    HW229537   5.555   6.334   0.407  0.1968  0.0303 -0.6023
 9257SOL     OW29538   0.423   7.516   0.541  0.3021 -0.0406  0.5708
 9257SOL    HW129539   0.470   7.433   0.543 -0.1215 -0.2812  1.9357
 9257SOL    HW229540   0.340   7.495   0.496  1.4207  0.3856 -1.8269
 9258SOL     OW29541   8.757   9.256   0.526  0.5161 -0.1074 -0.1644
 9258SOL    HW129542   8.714   9.263   0.441 -1.1499 -2.3844  0.4167
 9258SOL    HW229543   8.777   9.163   0.536 -2.7183 -0.6885  3.3999
 9259SOL     OW29544   4.346   4.582   4.997 -0.0588 -0.1554 -0.5672
 9259SOL    HW129545   4.434   4.555   4.971 -0.1987 -1.7527  0.5008
 9259SOL    HW229546   4.340   4.674   4.971  1.6660 -0.2172 -1.2767
 9260SOL     OW29547   3.749   8.494   9.626  0.3877  0.0543 -0.4677
 9260SOL    HW129548   3.785   8.406   9.617  0.0226 -0.0416 -0.9866
 9260SOL    HW229549   3.722   8.519   9.538 -1.4756 -0.1546  0.0030
 9261SOL     OW29550   2.766   1.893   9.099  0.2215  0.0487 -0.2163
 9261SOL    HW129551   2.722   1.935   9.173  1.4023 -0.5399  0.8577
 9261SOL    HW229552   2.730   1.804   9.096 -0.4894  0.3436 -0.9511
 9262SOL     OW29553   1.627   5.078   8.543  0.3252 -0.0738 -0.2507
 9262SOL    HW129554   1.685   5.077   8.467  0.7694  1.1693  0.0493
 9262SOL    HW229555   1.540   5.088   8.506  0.4593 -0.2703 -0.6303
 9263SOL     OW29556   2.940   6.910   7.493 -0.0961 -0.5233 -0.1147
 9263SOL    HW129557   2.909   6.902   7.402 -1.0611 -3.7181  0.3738
 9263SOL    HW229558   3.023   6.863   7.494 -0.7059 -1.6268  0.8751
 9264SOL     OW29559   6.230   4.356   8.638 -0.3181 -0.2754  0.6863
 9264SOL    HW129560   6.308   4.390   8.595 -0.2997  0.3794  1.2236
 9264SOL    HW229561   6.159   4.377   8.577 -0.2463  0.3327  0.8027
 9265SOL     OW29562   2.090   3.696   9.247  0.2179 -0.5809 -0.1893
 9265SOL    HW129563   1.995   3.704   9.242  0.2926 -0.1251 -1.1362
 9265SOL    HW229564   2.105   3.620   9.303 -0.7012 -0.8040 -0.2357
 9266SOL     OW29565   0.569   7.982   2.762  0.1189  0.0308  0.0982
 9266SOL    HW129566   0.527   7.910   2.808  0.5724  0.8751  1.9485
 9266SOL    HW229567   0.662   7.965   2.770  0.1995  0.0374 -0.7918
 9267SOL     OW29568   0.729   6.869   6.710 -0.0549  0.4543  0.0990
 9267SOL    HW129569   0.782   6.818   6.650  0.2842  0.9635 -0.0425
 9267SOL    HW229570   0.751   6.835   6.797  0.5597  0.7060  0.0467
 9268SOL     OW29571   0.393   9.437   6.399  0.1765 -0.4636 -0.6996
 9268SOL    HW129572   0.379   9.345   6.422  0.3470  0.0689  1.8290
 9268SOL    HW229573   0.488   9.446   6.394  0.1431 -0.6727 -2.3064
 9269SOL     OW29574   1.026   8.394   9.215 -0.1118 -0.0091 -0.4038
 9269SOL    HW129575   1.031   8.298   9.222 -1.8942 -0.1269 -0.2201
 9269SOL    HW229576   1.034   8.425   9.305 -0.3114 -0.0471 -0.3718
 9270SOL     OW29577   4.471   9.497   4.818  0.1091  0.0787  0.2065
 9270SOL    HW129578   4.452   9.416   4.866  0.6311 -0.7615 -0.9503
 9270SOL    HW229579   4.566   9.507   4.825 -0.2022  2.1290  2.6643
 9271SOL     OW29580   6.373   2.070   9.802  0.1565 -0.1700  0.2091
 9271SOL    HW129581   6.356   2.120   9.882 -0.9587 -1.3484  0.7430
 9271SOL    HW229582   6.463   2.040   9.812  1.4266  2.9188 -0.8321
 9272SOL     OW29583   4.661   6.155   5.111 -0.5876  0.1133  0.7063
 9272SOL    HW129584   4.723   6.084   5.094 -1.4591 -0.4411 -0.2473
 9272SOL    HW229585   4.648   6.154   5.206  0.1157 -0.3894  0.8045
 9273SOL     OW29586   7.299   5.381   1.384  1.0102  0.1822  0.0893
 9273SOL    HW129587   7.365   5.368   1.317  1.2030  0.5919  0.1971
 9273SOL    HW229588   7.288   5.476   1.388 -0.9348  0.0849 -1.2558
 9274SOL     OW29589   3.857   1.750   1.141 -0.4797  0.0894  0.0355
 9274SOL    HW129590   3.770   1.710   1.135  0.1259 -1.3979  0.8495
 9274SOL    HW229591   3.847   1.820   1.205 -0.8325 -0.7948  0.9662
 9275SOL     OW29592   9.549   6.866   4.221 -0.2907  0.5140 -0.5335
 9275SOL    HW129593   9.573   6.936   4.160 -1.8767  0.6283 -1.0790
 9275SOL    HW229594   9.463   6.892   4.255 -1.1518 -1.3668 -1.1228
 9276SOL     OW29595   2.643   1.568   8.122 -0.3756 -0.0593 -0.4634
 9276SOL    HW129596   2.723   1.583   8.071 -0.9944  0.0269 -1.4305
 9276SOL    HW229597   2.577   1.624   8.081 -1.3139 -1.2520 -0.6318
 9277SOL     OW29598   2.256   8.040   3.584  0.0269 -0.1044 -0.0176
 9277SOL    HW129599   2.192   8.083   3.641 -1.1462 -2.7079  0.7694
 9277SOL    HW229600   2.217   8.045   3.497 -0.7776 -0.7898  0.2967
 9278SOL     OW29601   0.145   3.172   5.709  0.2411  0.6292 -0.4474
 9278SOL    HW129602   0.174   3.096   5.760  3.5633  0.5008 -2.2483
 9278SOL    HW229603   0.187   3.246   5.753 -0.8538  1.1427 -0.2363
 9279SOL     OW29604   7.327   1.787   8.627 -0.4715 -0.1675 -0.5780
 9279SOL    HW129605   7.380   1.711   8.649 -0.7168 -0.2788 -0.3626
 9279SOL    HW229606   7.256   1.752   8.572 -1.0743 -0.2390  0.2331
 9280SOL     OW29607   9.651   4.556   1.647 -0.0770 -0.1719  0.1831
 9280SOL    HW129608   9.625   4.468   1.621 -0.2575 -0.5906  1.6577
 9280SOL    HW229609   9.633   4.611   1.571 -0.2112 -1.3649 -0.6613
 9281SOL     OW29610   8.270   1.206   8.684  0.2670 -0.8090  0.2400
 9281SOL    HW129611   8.191   1.161   8.711  0.2536 -0.3154  1.0372
 9281SOL    HW229612   8.342   1.153   8.720  0.2413  0.1709  1.8244
 9282SOL     OW29613   5.399   5.578   7.851  0.0221 -0.6629 -0.1814
 9282SOL    HW129614   5.432   5.629   7.925  0.4034 -1.1483 -0.0153
 9282SOL    HW229615   5.304   5.578   7.863 -0.0136  0.2589 -0.3489
 9283SOL     OW29616   5.265   8.673   5.212  0.3536 -0.2078 -0.5616
 9283SOL    HW129617   5.220   8.757   5.208  0.1804 -0.0482  2.2770
 9283SOL    HW229618   5.196   8.608   5.208  0.0353 -0.0347  1.2354
 9284SOL     OW29619   8.553   1.025   0.282  0.6743  0.2069 -0.4935
 9284SOL    HW129620   8.531   1.013   0.374 -3.5966  0.4829 -1.2710
 9284SOL    HW229621   8.568   1.119   0.272  0.1876  0.3107 -0.2407
 9285SOL     OW29622   2.210   3.129   7.104 -0.1727 -0.5697 -0.1139
 9285SOL    HW129623   2.231   3.063   7.038 -2.1167  0.1048 -1.4810
 9285SOL    HW229624   2.294   3.149   7.145  0.7438 -2.5903 -0.8581
 9286SOL     OW29625   7.136   5.743   5.786 -0.1943 -0.9172 -0.1134
 9286SOL    HW129626   7.189   5.806   5.738  0.7943  0.7250  2.8500
 9286SOL    HW229627   7.113   5.676   5.722  1.0202  1.0427 -2.7598
 9287SOL     OW29628   0.833   1.375   6.285  0.1374 -0.0374  0.3472
 9287SOL    HW129629   0.891   1.358   6.359  0.3884 -1.2358 -0.0938
 9287SOL    HW229630   0.843   1.298   6.229 -0.4998  0.5700 -0.6387
 9288SOL     OW29631   6.270   0.761   7.840  0.2782 -0.2868  0.3446
 9288SOL    HW129632   6.338   0.815   7.880  1.5536 -3.0363  2.2711
 9288SOL    HW229633   6.301   0.746   7.751  0.8965  0.5208  0.4072
 9289SOL     OW29634   1.085   8.044   0.463  0.0509 -0.1292 -0.5311
 9289SOL    HW129635   1.155   8.024   0.525 -2.3762  0.9670  2.8980
 9289SOL    HW229636   1.030   7.966   0.462 -0.3600  0.1564 -0.6272
 9290SOL     OW29637   6.864   2.024   2.164 -0.6270  0.8460 -0.3564
 9290SOL    HW129638   6.913   2.104   2.183 -0.2806  0.9708 -1.6978
 9290SOL    HW229639   6.909   1.956   2.215 -2.2810  1.8125  2.6328
 9291SOL     OW29640   6.298   2.943   3.552 -0.0121 -0.6245 -0.0943
 9291SOL    HW129641   6.373   2.943   3.492 -0.3617  0.5069 -0.5580
 9291SOL    HW229642   6.222   2.959   3.495 -0.9602 -4.0168  0.0079
 9292SOL     OW29643   8.072   6.818   2.352  0.2984 -0.3202 -0.2553
 9292SOL    HW129644   8.070   6.738   2.300 -0.1092 -0.2498 -0.3520
 9292SOL    HW229645   8.132   6.799   2.423  1.8190 -0.0181 -1.4104
 9293SOL     OW29646   7.807   1.406   6.340 -0.3077  0.0718  0.4426
 9293SOL    HW129647   7.804   1.425   6.246 -1.6741 -0.6555  0.3009
 9293SOL    HW229648   7.899   1.413   6.364  0.1504 -0.3392 -1.0976
 9294SOL     OW29649   8.215   0.932   1.132 -0.1769 -0.2252 -0.1266
 9294SOL    HW129650   8.138   0.881   1.158 -0.9941  1.5484  1.1090
 9294SOL    HW229651   8.217   1.005   1.194  1.4335  0.7925 -1.3218
 9295SOL     OW29652   5.419   7.035   2.005 -0.0459  0.7962 -0.1464
 9295SOL    HW129653   5.472   6.986   2.067  0.8731  0.9089 -0.8241
 9295SOL    HW229654   5.411   6.978   1.929 -1.6385  0.4290  0.2597
 9296SOL     OW29655   8.902   0.785   6.869 -0.0574 -0.2129 -0.0654
 9296SOL    HW129656   8.978   0.810   6.817 -0.7934  2.5543  0.0001
 9296SOL    HW229657   8.934   0.781   6.959  0.6906 -2.5687 -0.3772
 9297SOL     OW29658   8.790   5.835   5.177 -0.0407 -0.1693  0.3227
 9297SOL    HW129659   8.869   5.818   5.126 -0.1693  0.0821  0.0349
 9297SOL    HW229660   8.729   5.766   5.152  0.8759 -1.7751  2.2803
 9298SOL     OW29661   9.658   2.494   8.947 -0.2856 -0.0402  0.3787
 9298SOL    HW129662   9.631   2.448   8.868  1.0201 -0.3241  0.0693
 9298SOL    HW229663   9.719   2.434   8.990  1.7580  1.5038 -0.2390
 9299SOL     OW29664   5.721   3.276   1.420  0.5073 -0.4264  0.2149
 9299SOL    HW129665   5.632   3.250   1.441  0.6576 -1.9913 -0.8676
 9299SOL    HW229666   5.741   3.348   1.480 -1.7347  0.4980 -0.0540
 9300SOL     OW29667   8.077   5.230   5.479 -0.0328  1.3551 -0.7442
 9300SOL    HW129668   8.099   5.321   5.457  0.5009  0.5116 -4.1752
 9300SOL    HW229669   7.983   5.224   5.462 -0.3223  1.5004  0.6571
 9301SOL     OW29670   3.107   7.727   4.038 -0.0055  0.4604 -0.4981
 9301SOL    HW129671   3.076   7.789   3.972 -0.5831 -1.1445 -1.8353
 9301SOL    HW229672   3.147   7.781   4.106 -0.2112  2.2447 -1.7259
 9302SOL     OW29673   3.112   2.852   7.792  0.0599  0.5934  0.4637
 9302SOL    HW129674   3.165   2.792   7.738 -0.6069  1.6682 -1.4962
 9302SOL    HW229675   3.133   2.939   7.758  1.1502  1.5753  3.3724
 9303SOL     OW29676   1.257   7.925   2.660 -0.4030 -0.0789 -0.3584
 9303SOL    HW129677   1.299   7.840   2.651 -0.1400  0.1626 -1.6999
 9303SOL    HW229678   1.330   7.987   2.665 -0.5670  0.1978 -1.1064
 9304SOL     OW29679   1.107   4.602   5.051 -0.1946 -0.6013  0.1937
 9304SOL    HW129680   1.165   4.660   5.101 -1.9965  0.6547  0.9224
 9304SOL    HW229681   1.023   4.608   5.096 -1.1562 -1.6331 -1.3728
 9305SOL     OW29682   2.683   4.753   3.625  0.3319 -0.6350  0.5703
 9305SOL    HW129683   2.668   4.698   3.548  0.0278  0.4561 -0.1716
 9305SOL    HW229684   2.750   4.706   3.675 -0.2265 -1.8882  0.1903
 9306SOL     OW29685   3.588   5.413   9.758 -0.4730  0.6982 -0.3763
 9306SOL    HW129686   3.494   5.428   9.763 -0.6406  0.3180 -1.8506
 9306SOL    HW229687   3.601   5.367   9.674  1.1481  1.8010 -0.7830
 9307SOL     OW29688   5.274   2.259   8.483 -0.1700 -0.0489  0.0501
 9307SOL    HW129689   5.252   2.249   8.390 -2.6117  0.1450  0.5270
 9307SOL    HW229690   5.280   2.170   8.516  1.4083 -0.1314 -0.4119
 9308SOL     OW29691   6.098   6.028   7.585 -0.1726 -0.7370 -0.1239
 9308SOL    HW129692   6.143   6.037   7.502 -0.2220  1.6421  0.0531
 9308SOL    HW229693   6.013   5.990   7.563 -0.9488  1.6003 -1.4760
 9309SOL     OW29694   1.225   4.145   0.481  0.0557 -0.2636  0.2194
 9309SOL    HW129695   1.292   4.098   0.532  1.8055  0.9256 -0.8668
 9309SOL    HW229696   1.198   4.217   0.539  2.9713  1.8599 -0.7976
 9310SOL     OW29697   7.915   8.538   1.576  0.0355 -0.6302  0.1229
 9310SOL    HW129698   7.969   8.497   1.509  0.2922  1.0607 -0.7648
 9310SOL    HW229699   7.917   8.477   1.650 -0.1220 -2.4766 -1.3158
 9311SOL     OW29700   4.332   9.476   1.840  0.7483  0.1240  0.3154
 9311SOL    HW129701   4.268   9.405   1.846  0.0986  0.8179  2.3446
 9311SOL    HW229702   4.376   9.476   1.925  2.3353  0.7098 -0.4616
 9312SOL     OW29703   7.935   5.585   2.732  0.1870  0.5327 -0.1904
 9312SOL    HW129704   7.965   5.534   2.807  1.4879 -0.3432 -1.2741
 9312SOL    HW229705   7.840   5.580   2.736  0.2698 -0.9402  0.4406
 9313SOL     OW29706   1.597   6.756   7.452 -0.5311 -1.0689 -0.0253
 9313SOL    HW129707   1.550   6.736   7.533 -1.4721 -0.7722 -0.4734
 9313SOL    HW229708   1.689   6.744   7.473 -0.5454  1.2599  1.7764
 9314SOL     OW29709   4.430   9.657   9.688  0.0235 -0.0306  0.6636
 9314SOL    HW129710   4.400   9.568   9.707  0.0127 -0.5457 -1.5451
 9314SOL    HW229711   4.352   9.712   9.700 -0.3198 -0.5132  0.6603
 9315SOL     OW29712   1.200   0.266   3.278 -0.6003 -0.2444 -0.0320
 9315SOL    HW129713   1.173   0.353   3.248  0.4770 -0.6838 -2.4773
 9315SOL    HW229714   1.123   0.232   3.324 -1.3049  1.6771  0.3186
 9316SOL     OW29715   2.716   1.545   2.522 -0.3103 -0.2079 -0.0731
 9316SOL    HW129716   2.760   1.571   2.440  0.0780 -0.9317 -0.1000
 9316SOL    HW229717   2.767   1.471   2.554 -0.0437  0.4920  1.1880
 9317SOL     OW29718   8.158   1.671   2.505  0.0434 -0.0675 -0.1024
 9317SOL    HW129719   8.248   1.688   2.476 -0.4888  0.4107 -1.5549
 9317SOL    HW229720   8.127   1.756   2.537 -0.4738  0.2242 -1.3178
 9318SOL     OW29721   2.455   8.595   2.174 -0.5683 -0.2770 -0.1813
 9318SOL    HW129722   2.456   8.570   2.081 -2.6082  0.0886 -0.3630
 9318SOL    HW229723   2.440   8.512   2.220  3.9826 -1.1020  0.2321
 9319SOL     OW29724   6.368   9.432   7.286  0.0880  0.3110  0.2703
 9319SOL    HW129725   6.311   9.500   7.250  1.5849  0.9791 -1.0058
 9319SOL    HW229726   6.371   9.365   7.218  1.7831  0.8901 -0.2869
 9320SOL     OW29727   4.573   4.097   8.795 -0.5250  0.5450 -0.4316
 9320SOL    HW129728   4.579   4.166   8.729  0.2769  2.5211  1.5739
 9320SOL    HW229729   4.481   4.095   8.820 -0.4482  1.3775 -0.0508
 9321SOL     OW29730   7.883   9.297   2.540 -0.6067 -0.0682 -0.7082
 9321SOL    HW129731   7.918   9.355   2.473 -1.4426  2.2539  0.7381
 9321SOL    HW229732   7.960   9.273   2.593 -0.3889  0.7084 -0.6501
 9322SOL     OW29733   0.870   4.082   4.049 -0.3099 -0.2486 -0.3399
 9322SOL    HW129734   0.835   3.995   4.032 -0.3181 -0.0812 -1.1956
 9322SOL    HW229735   0.950   4.066   4.100  0.4629 -0.8538 -1.6939
 9323SOL     OW29736   4.515   7.350   6.611  0.2018  0.2525  0.8417
 9323SOL    HW129737   4.594   7.315   6.650  1.2772  0.9231 -0.6421
 9323SOL    HW229738   4.465   7.273   6.584  2.0626 -0.2525 -1.4509
 9324SOL     OW29739   3.872   5.032   8.367  0.0449 -0.5076  0.3800
 9324SOL    HW129740   3.876   4.976   8.290  1.4903  0.7108 -0.4894
 9324SOL    HW229741   3.942   5.096   8.354 -0.0568  0.1015  2.4256
 9325SOL     OW29742   1.531   1.567   1.870 -0.7556  0.3001 -0.3175
 9325SOL    HW129743   1.520   1.516   1.790  0.2366 -1.4064  0.5686
 9325SOL    HW229744   1.471   1.526   1.933 -0.2921  0.5185  0.2831
 9326SOL     OW29745   4.658   8.988   0.241  0.1949 -0.4154 -0.0747
 9326SOL    HW129746   4.638   9.062   0.184  1.2864 -0.5087 -0.6235
 9326SOL    HW229747   4.651   8.911   0.184  0.6266 -0.5768  0.0853
 9327SOL     OW29748   0.193   8.669   9.709 -1.1800 -0.2521  0.8285
 9327SOL    HW129749   0.249   8.651   9.784  0.7448  1.2833 -0.1535
 9327SOL    HW229750   0.155   8.756   9.727  0.1395  0.6253 -0.3723
 9328SOL     OW29751   8.491   8.459   0.246 -0.2202 -0.2168 -0.1488
 9328SOL    HW129752   8.475   8.531   0.308 -0.7117 -2.1538  2.1029
 9328SOL    HW229753   8.404   8.424   0.227  0.1812 -1.9764  1.0595
 9329SOL     OW29754   2.178   9.566   6.490 -0.5418  0.0964  0.2181
 9329SOL    HW129755   2.218   9.488   6.529 -0.6336 -1.0130 -1.7447
 9329SOL    HW229756   2.089   9.540   6.469 -0.7479  0.9160  0.0277
 9330SOL     OW29757   4.921   3.300   5.276  0.6003 -0.0564 -0.1810
 9330SOL    HW129758   5.006   3.340   5.258  0.7755 -0.7829 -1.0351
 9330SOL    HW229759   4.863   3.334   5.208  0.4659 -0.3620 -0.2201
 9331SOL     OW29760   2.538   1.089   0.032 -0.0805 -0.1193  0.4481
 9331SOL    HW129761   2.626   1.104  -0.003 -0.1616 -0.0094  0.2932
 9331SOL    HW229762   2.500   1.024  -0.026 -1.2362  2.0454 -1.3817
 9332SOL     OW29763   1.953   8.217   7.992 -0.6809  0.2142  0.0961
 9332SOL    HW129764   1.997   8.132   7.998 -1.1229 -0.0472 -0.3141
 9332SOL    HW229765   1.944   8.232   7.898 -1.5649  0.2184  0.1751
 9333SOL     OW29766   9.275   7.130   9.571  0.2196 -0.2843  0.4522
 9333SOL    HW129767   9.199   7.155   9.517  1.6012  0.5636 -1.1959
 9333SOL    HW229768   9.260   7.037   9.591 -0.6266 -0.4750 -0.9260
 9334SOL     OW29769   2.300   9.632   4.732 -0.1102  0.2841  0.7387
 9334SOL    HW129770   2.221   9.584   4.759 -0.8602 -1.0768 -3.2422
 9334SOL    HW229771   2.280   9.723   4.751 -1.6409 -0.2392  1.9256
 9335SOL     OW29772   7.299   2.469   4.638  0.1726 -0.2986  0.4970
 9335SOL    HW129773   7.330   2.413   4.566 -0.2597 -1.6902  1.3688
 9335SOL    HW229774   7.318   2.419   4.717  0.5099  1.1564  1.3644
 9336SOL     OW29775   5.263   9.699   0.970  0.2146 -0.0381  0.4344
 9336SOL    HW129776   5.188   9.672   1.023  0.3867  0.0881  0.7476
 9336SOL    HW229777   5.298   9.775   1.016 -0.7233  1.2250 -0.8363
 9337SOL     OW29778   5.580   6.639   7.939  0.2701  0.1991  0.6570
 9337SOL    HW129779   5.598   6.714   7.882 -0.1019  1.1862  1.7725
 9337SOL    HW229780   5.497   6.604   7.909  0.2655  0.4681  0.3545
 9338SOL     OW29781   1.732   4.026   3.413  0.0933 -0.7464 -0.4771
 9338SOL    HW129782   1.819   4.049   3.383 -0.5677  1.8439 -0.6413
 9338SOL    HW229783   1.686   3.997   3.334  0.4293 -0.8146 -0.6462
 9339SOL     OW29784   7.020   8.456   4.968  0.8694  0.1008 -0.2952
 9339SOL    HW129785   6.945   8.430   4.913 -0.5908  2.9751  0.1417
 9339SOL    HW229786   7.040   8.377   5.018 -0.0254 -1.5913 -2.3976
 9340SOL     OW29787   0.047   9.546   2.687 -0.6973 -0.2705  0.1737
 9340SOL    HW129788   0.091   9.485   2.746  1.3550  0.4107 -0.5737
 9340SOL    HW229789   0.062   9.632   2.726  0.1175  0.1222 -0.9813
 9341SOL     OW29790   2.756   0.477   0.056 -0.4720 -0.3729 -0.5099
 9341SOL    HW129791   2.760   0.459  -0.038 -0.0156  1.4843 -0.8911
 9341SOL    HW229792   2.666   0.456   0.081 -0.8663  0.0021 -1.5693
 9342SOL     OW29793   7.032   8.488   7.176 -0.0108 -0.2849 -0.2689
 9342SOL    HW129794   7.056   8.400   7.147 -1.1466 -0.4116 -0.8942
 9342SOL    HW229795   6.951   8.507   7.128 -0.1273  0.8383  0.3545
 9343SOL     OW29796   4.327   2.772   6.397  0.1726  0.1301  0.4518
 9343SOL    HW129797   4.247   2.821   6.380 -0.2765 -0.3398  1.1569
 9343SOL    HW229798   4.330   2.763   6.493 -0.9655 -3.1368  0.2967
 9344SOL     OW29799   6.871   0.821   3.357 -0.0823 -0.5720  0.5454
 9344SOL    HW129800   6.858   0.895   3.416  0.4078 -1.6542  2.0722
 9344SOL    HW229801   6.784   0.804   3.320 -0.3661  0.2311  0.8253
 9345SOL     OW29802   4.254   3.176   0.490 -0.0719 -0.2714 -0.3670
 9345SOL    HW129803   4.234   3.103   0.548  0.7635  0.7336  1.2822
 9345SOL    HW229804   4.192   3.245   0.517 -0.3680 -0.1253 -1.3980
 9346SOL     OW29805   8.159   1.748   9.447 -0.1582 -0.8987 -0.4874
 9346SOL    HW129806   8.228   1.748   9.513  0.6034 -0.7212 -1.2608
 9346SOL    HW229807   8.078   1.736   9.496  0.2612  0.5424  0.6048
 9347SOL     OW29808   5.031   8.119   1.815  0.3423 -0.1081  0.4906
 9347SOL    HW129809   5.080   8.179   1.760  0.3184  0.0745  0.6649
 9347SOL    HW229810   5.084   8.110   1.894  0.0271  0.2096  0.7423
 9348SOL     OW29811   0.328   1.238   7.101  0.2143 -0.0332 -0.1304
 9348SOL    HW129812   0.408   1.187   7.113  0.5929  0.7425  0.8196
 9348SOL    HW229813   0.355   1.329   7.114 -0.9847  0.1764  1.2374
 9349SOL     OW29814   8.597   3.918   8.095  0.6645 -0.6763  0.6997
 9349SOL    HW129815   8.645   3.981   8.040  0.6208 -0.4539  0.9136
 9349SOL    HW229816   8.509   3.918   8.059  1.4674 -3.2411 -1.5583
 9350SOL     OW29817   3.537   4.266   1.504 -0.1877  0.2057  0.1237
 9350SOL    HW129818   3.632   4.281   1.497 -0.2139 -0.0582 -1.1799
 9350SOL    HW229819   3.498   4.342   1.463 -0.4415 -0.8646 -1.7575
 9351SOL     OW29820   4.849   1.455   1.669 -0.4516  0.3522  0.1926
 9351SOL    HW129821   4.899   1.510   1.730 -0.3181  1.5416 -0.9524
 9351SOL    HW229822   4.906   1.446   1.593 -1.6957  1.1660 -0.8676
 9352SOL     OW29823   1.659   3.516   1.771 -0.5457 -0.1019 -0.3762
 9352SOL    HW129824   1.727   3.576   1.742 -0.8719  0.3031 -0.3048
 9352SOL    HW229825   1.700   3.466   1.842 -0.5646  0.6795  0.2015
 9353SOL     OW29826   7.285   7.502   2.725 -0.6246 -0.0848 -0.9329
 9353SOL    HW129827   7.247   7.589   2.721  0.0459  0.3275  0.7934
 9353SOL    HW229828   7.213   7.445   2.753 -0.4311  0.4243  0.7391
 9354SOL     OW29829   7.970   6.064   2.383 -0.1481  0.2627 -0.5040
 9354SOL    HW129830   7.904   6.032   2.443  0.5494  0.0533  0.1638
 9354SOL    HW229831   7.925   6.069   2.298 -1.1723  0.6738  0.0447
 9355SOL     OW29832   2.334   5.880   3.498 -0.4740  0.5133 -0.0695
 9355SOL    HW129833   2.318   5.968   3.463  2.0597  0.8696 -0.5362
 9355SOL    HW229834   2.342   5.824   3.420 -0.3212  0.2235  0.1526
 9356SOL     OW29835   9.573   1.295   7.491 -0.1295 -0.0260  0.0566
 9356SOL    HW129836   9.659   1.290   7.449 -0.8282 -2.5523 -1.3103
 9356SOL    HW229837   9.591   1.282   7.584  1.3063  4.1834  0.5806
 9357SOL     OW29838   6.490   3.882   8.539 -0.5056 -0.2018  0.5083
 9357SOL    HW129839   6.556   3.951   8.536 -1.4026  0.6810 -2.3826
 9357SOL    HW229840   6.414   3.923   8.580 -0.6638  0.2290 -0.1887
 9358SOL     OW29841   6.090   7.781   9.247 -0.1340  0.3525 -0.5218
 9358SOL    HW129842   6.081   7.861   9.298 -0.3627 -0.6521  1.0563
 9358SOL    HW229843   6.008   7.734   9.260  0.8065 -1.1196  0.3213
 9359SOL     OW29844   0.302   7.746   2.099 -0.2309  0.3792 -0.2702
 9359SOL    HW129845   0.347   7.670   2.137  0.2001 -0.7633 -2.8400
 9359SOL    HW229846   0.368   7.814   2.096 -0.9155  1.3635  3.0970
 9360SOL     OW29847   5.627   6.946   1.068 -0.2178 -0.1041 -0.5519
 9360SOL    HW129848   5.612   6.994   0.987 -0.0841  1.8237  0.5158
 9360SOL    HW229849   5.718   6.964   1.091 -0.1395 -0.9410 -0.1470
 9361SOL     OW29850   6.524   1.963   0.961  0.0743  0.7062 -0.1137
 9361SOL    HW129851   6.454   1.910   0.924  0.6989 -0.7899  0.7400
 9361SOL    HW229852   6.494   1.985   1.049  1.0283 -0.7796  0.6292
 9362SOL     OW29853   2.969   3.840   8.696  0.3689  0.6444  0.2471
 9362SOL    HW129854   3.050   3.892   8.695  1.7329 -1.3156 -2.0447
 9362SOL    HW229855   2.917   3.876   8.624  0.8758 -0.4204 -0.6847
 9363SOL     OW29856   7.276   1.253   7.678  0.6203  0.0403  0.0586
 9363SOL    HW129857   7.271   1.224   7.769  2.9619  0.7733  0.4931
 9363SOL    HW229858   7.310   1.176   7.631  1.3450  0.2776  0.1835
 9364SOL     OW29859   6.846   8.335   5.808  0.1081  0.0841 -0.1578
 9364SOL    HW129860   6.809   8.395   5.743 -0.1696  1.8689  1.5555
 9364SOL    HW229861   6.818   8.371   5.893  0.9388 -1.8193  0.9948
 9365SOL     OW29862   5.594   1.006   5.910 -0.3906  0.4565  0.9046
 9365SOL    HW129863   5.666   0.952   5.878 -1.1742 -0.2797  0.3407
 9365SOL    HW229864   5.594   1.081   5.850 -1.0359 -0.2880 -0.0603
 9366SOL     OW29865   9.306   1.524   8.317 -0.4840  0.5761  0.1986
 9366SOL    HW129866   9.401   1.538   8.325  0.0951 -2.9055  1.0339
 9366SOL    HW229867   9.275   1.600   8.268  2.8399  1.5088 -0.7489
 9367SOL     OW29868   6.456   1.589   8.407 -0.1807 -0.1394  0.2315
 9367SOL    HW129869   6.457   1.556   8.497 -0.1088 -1.1344 -0.1231
 9367SOL    HW229870   6.459   1.510   8.352  0.7933  0.4860 -0.6498
 9368SOL     OW29871   9.221   1.208   5.718 -0.1644  1.3438 -0.9870
 9368SOL    HW129872   9.291   1.145   5.697  1.0236  1.2913  2.5511
 9368SOL    HW229873   9.206   1.254   5.636  0.3704 -2.0893 -3.2505
 9369SOL     OW29874   3.428   5.269   6.874 -0.2295  0.4037 -0.1054
 9369SOL    HW129875   3.497   5.315   6.826 -0.2743 -0.0865 -0.6522
 9369SOL    HW229876   3.367   5.239   6.806 -1.1075  1.0239  0.3850
 9370SOL     OW29877   4.418   1.829   0.395 -0.1284 -0.1899 -0.4248
 9370SOL    HW129878   4.325   1.812   0.413 -0.0252  0.4398  0.8297
 9370SOL    HW229879   4.463   1.749   0.423 -0.2806 -0.4720 -0.9776
 9371SOL     OW29880   5.367   7.851   6.490  0.0619 -0.1122 -0.2625
 9371SOL    HW129881   5.325   7.789   6.431  0.4862 -1.2404  0.6033
 9371SOL    HW229882   5.295   7.906   6.522 -0.2838 -0.0074 -1.1910
 9372SOL     OW29883   8.199   7.420   4.735  0.0096 -0.3507 -0.6917
 9372SOL    HW129884   8.122   7.389   4.687 -0.5598 -1.0761  0.6228
 9372SOL    HW229885   8.165   7.486   4.795 -0.0500 -2.2049  1.4564
 9373SOL     OW29886   6.895   9.282   3.560 -0.5203 -0.2179 -0.3005
 9373SOL    HW129887   6.876   9.230   3.483  1.0966 -2.1594  0.5259
 9373SOL    HW229888   6.957   9.230   3.610 -0.6555  1.4648  1.7878
 9374SOL     OW29889   0.400   7.314   1.848 -0.3815  0.3014  0.4843
 9374SOL    HW129890   0.369   7.227   1.875 -0.9987  0.0636 -0.8838
 9374SOL    HW229891   0.320   7.362   1.828  0.0230  0.0894 -1.9322
 9375SOL     OW29892   7.090   3.230   3.799  0.4719 -0.3814 -0.0083
 9375SOL    HW129893   7.172   3.222   3.849  0.7532 -1.6448 -0.6280
 9375SOL    HW229894   7.110   3.295   3.731  0.9023 -0.5499 -0.0462
 9376SOL     OW29895   7.306   8.385   2.768  0.6632 -0.3322 -0.4514
 9376SOL    HW129896   7.286   8.431   2.686 -1.8112 -1.6424 -0.6537
 9376SOL    HW229897   7.283   8.447   2.837  0.0764 -0.2329 -0.7336
 9377SOL     OW29898   6.626   7.295   2.345  0.0750  0.2619 -0.0398
 9377SOL    HW129899   6.706   7.248   2.322  0.3407  1.4214 -1.7536
 9377SOL    HW229900   6.637   7.382   2.306 -1.1547  1.1537  1.4530
 9378SOL     OW29901   9.769   2.162   9.644  0.2347 -0.0035 -0.1509
 9378SOL    HW129902   9.723   2.114   9.713  0.5368 -0.5520 -0.3310
 9378SOL    HW229903   9.731   2.250   9.647 -0.3541 -0.2653  0.1478
 9379SOL     OW29904   7.971   2.441   3.663  0.0277 -0.2307 -0.0468
 9379SOL    HW129905   8.047   2.425   3.606 -0.3748  1.1004 -1.0159
 9379SOL    HW229906   7.935   2.524   3.631 -1.9695 -0.9388  0.2600
 9380SOL     OW29907   4.221   8.769   8.618 -0.1381  0.1426  0.0757
 9380SOL    HW129908   4.244   8.861   8.615 -1.8111  0.5909 -0.0977
 9380SOL    HW229909   4.295   8.723   8.578 -0.0806  1.5602 -1.5199
 9381SOL     OW29910   3.196   6.248   4.658 -0.7104  0.2330  0.0905
 9381SOL    HW129911   3.147   6.171   4.685 -2.8936  0.8568 -1.7711
 9381SOL    HW229912   3.182   6.254   4.563 -0.1805  2.6139  0.0904
 9382SOL     OW29913   6.595   3.990   6.634  0.4361 -0.0200  0.7240
 9382SOL    HW129914   6.635   3.955   6.713  1.3406  0.0387  0.3059
 9382SOL    HW229915   6.639   3.945   6.563 -0.3043 -0.0063  0.2481
 9383SOL     OW29916   0.052   7.687   7.724  0.0753 -0.1193  0.1693
 9383SOL    HW129917   0.021   7.601   7.752 -0.2348 -0.0512  0.0341
 9383SOL    HW229918  -0.026   7.732   7.692  0.5470 -0.5254 -1.6652
 9384SOL     OW29919   3.852   0.990   4.056  0.7852  0.3104  0.3591
 9384SOL    HW129920   3.942   1.015   4.076 -0.0673  3.0020  1.1480
 9384SOL    HW229921   3.805   0.999   4.139 -0.4190 -0.1247 -0.2491
 9385SOL     OW29922   7.868   0.954   6.815  0.2633 -0.1120  0.4202
 9385SOL    HW129923   7.809   0.980   6.744  0.3397 -1.0987 -0.0213
 9385SOL    HW229924   7.945   1.011   6.804 -0.2271  0.5592  0.4461
 9386SOL     OW29925   7.073   4.415   7.213 -0.0592 -0.2189  0.4557
 9386SOL    HW129926   7.052   4.500   7.176 -1.5098 -1.2202 -1.1659
 9386SOL    HW229927   7.159   4.394   7.177 -0.7717 -0.4874 -1.1357
 9387SOL     OW29928   8.072   5.772   1.381  0.0792  0.1889  0.0939
 9387SOL    HW129929   8.080   5.857   1.339  0.6328  0.1321  0.0707
 9387SOL    HW229930   8.149   5.766   1.438 -0.7398  0.3307  1.2483
 9388SOL     OW29931   4.833   7.656   0.904  0.2221 -0.0140 -0.5725
 9388SOL    HW129932   4.749   7.610   0.901 -0.6000  1.3493  0.4058
 9388SOL    HW229933   4.898   7.587   0.915 -0.9281 -0.9727  0.5242
 9389SOL     OW29934   2.285   8.027   6.042  0.4564  0.0786  0.3498
 9389SOL    HW129935   2.219   8.078   6.090  0.3709  1.1415 -0.8256
 9389SOL    HW229936   2.235   7.978   5.977  0.5108 -1.7958  1.6441
 9390SOL     OW29937   3.268   2.278   2.893  0.3826 -0.0351  0.3638
 9390SOL    HW129938   3.178   2.298   2.868  0.9138  0.7571 -1.0184
 9390SOL    HW229939   3.308   2.363   2.913  0.9948 -0.3112  0.3636
 9391SOL     OW29940   0.389   1.658   3.704 -0.0028 -0.1440  0.2581
 9391SOL    HW129941   0.333   1.660   3.782 -0.0679 -1.2891  0.2490
 9391SOL    HW229942   0.393   1.566   3.680  1.5284 -0.0292  0.0005
 9392SOL     OW29943   3.002   4.921   1.483 -0.3218 -0.5808 -0.5737
 9392SOL    HW129944   2.992   4.947   1.574 -0.3552  1.1542 -1.0412
 9392SOL    HW229945   3.059   4.844   1.486  1.8078  0.9300  0.7532
 9393SOL     OW29946   2.561   2.412   3.343 -0.3430  0.1685  0.5534
 9393SOL    HW129947   2.615   2.375   3.274  0.8495  0.6044  1.2118
 9393SOL    HW229948   2.621   2.420   3.418 -0.8841  2.1833  0.8174
 9394SOL     OW29949   4.423   5.767   5.705 -0.5498 -0.5585 -0.5354
 9394SOL    HW129950   4.376   5.684   5.717 -1.2454 -0.1283 -0.2888
 9394SOL    HW229951   4.368   5.817   5.645 -0.5659  0.0769  0.0098
 9395SOL     OW29952   9.742   3.778   0.415  0.1929 -0.7148  0.9316
 9395SOL    HW129953   9.835   3.768   0.396 -0.0371 -0.9004 -0.1580
 9395SOL    HW229954   9.717   3.694   0.455 -0.6418 -2.9692 -3.6887
 9396SOL     OW29955   3.448   5.882   7.371 -0.2679  0.1402 -0.3736
 9396SOL    HW129956   3.412   5.909   7.455 -0.2747  1.1372 -0.6811
 9396SOL    HW229957   3.494   5.800   7.389 -2.1757 -0.8939  0.1433
 9397SOL     OW29958   2.641   1.906   8.859  0.8473  0.1869  0.0714
 9397SOL    HW129959   2.670   1.887   8.948 -1.6023  0.2966  0.9472
 9397SOL    HW229960   2.619   1.821   8.821 -0.0282  0.3101  0.2892
 9398SOL     OW29961   9.015   4.970   8.548  0.3619  0.0585 -0.0836
 9398SOL    HW129962   9.031   4.998   8.458  0.2371  1.3571  0.2836
 9398SOL    HW229963   9.014   4.874   8.543  1.6731  0.0659 -1.2331
 9399SOL     OW29964   5.973   7.241   7.599 -0.0816 -0.1370  0.2310
 9399SOL    HW129965   6.068   7.252   7.604 -0.0305 -1.1801  2.5229
 9399SOL    HW229966   5.952   7.175   7.665 -2.4642  0.3321  0.0488
 9400SOL     OW29967   8.894   6.148   5.902  0.1559 -0.5781  0.2395
 9400SOL    HW129968   8.952   6.178   5.971  0.1284 -2.7920  1.3113
 9400SOL    HW229969   8.814   6.122   5.947 -0.8450  0.3150 -0.9483
 9401SOL     OW29970   9.324   8.204   5.380 -1.1601 -0.1422 -0.4377
 9401SOL    HW129971   9.352   8.187   5.290 -1.5444  2.5124 -1.1649
 9401SOL    HW229972   9.232   8.177   5.382 -1.1132 -0.3318 -0.8027
 9402SOL     OW29973   7.026   2.459   2.285  0.5339  0.3378 -0.0603
 9402SOL    HW129974   7.114   2.430   2.261  0.0314 -0.5208 -0.9453
 9402SOL    HW229975   6.972   2.438   2.209 -1.0614 -2.0700  1.6015
 9403SOL     OW29976   4.899   1.408   6.415 -0.0421  0.4718  0.1499
 9403SOL    HW129977   4.849   1.328   6.398 -1.3184  1.2446  0.0868
 9403SOL    HW229978   4.872   1.468   6.346  1.2708  0.8064 -0.0905
 9404SOL     OW29979   3.009   9.469   7.326 -0.2091  0.1125 -0.4161
 9404SOL    HW129980   2.992   9.467   7.231  0.0425  1.6344 -0.5185
 9404SOL    HW229981   3.029   9.560   7.344  2.5550 -0.6314  0.6515
 9405SOL     OW29982   8.680   6.201   3.144 -0.8058 -0.5089 -0.1312
 9405SOL    HW129983   8.684   6.150   3.225  1.6951  1.1982  0.9606
 9405SOL    HW229984   8.747   6.269   3.155 -1.5863  0.8824 -2.9267
 9406SOL     OW29985   1.078   2.951   1.361 -0.2960  0.1776  0.1089
 9406SOL    HW129986   1.094   2.979   1.451 -1.7583  0.2281  0.3660
 9406SOL    HW229987   1.109   3.024   1.307 -2.2779  1.5315  0.7017
 9407SOL     OW29988   2.726   0.708   1.684  0.3353  0.0591 -0.1150
 9407SOL    HW129989   2.777   0.668   1.754 -2.5643 -0.0491  2.1304
 9407SOL    HW229990   2.775   0.787   1.661  1.4254  0.0777  2.0123
 9408SOL     OW29991   2.641   4.067   6.885 -0.2644  0.0745 -0.1652
 9408SOL    HW129992   2.714   4.016   6.850 -1.5318 -1.8039 -0.2150
 9408SOL    HW229993   2.678   4.154   6.902  1.5765 -0.3722 -1.6067
 9409SOL     OW29994   1.980   5.975   6.070 -0.5856  0.1803 -0.1361
 9409SOL    HW129995   2.029   5.901   6.106  2.1140  1.4051 -1.0656
 9409SOL    HW229996   1.991   6.045   6.134 -1.5921  0.3613 -0.1376
 9410SOL     OW29997   9.066   1.766   6.778  0.5031 -0.4256 -0.5073
 9410SOL    HW129998   8.990   1.785   6.834 -0.3822 -0.1111 -1.7631
 9410SOL    HW229999   9.058   1.827   6.706  2.1483 -0.2047 -0.5213
 9411SOL     OW30000   2.796   2.114   4.379  0.2059 -0.8318  0.0833
 9411SOL    HW130001   2.767   2.034   4.334 -0.1851 -0.6449  0.0044
 9411SOL    HW230002   2.740   2.183   4.345  0.9605 -0.4017 -0.3228
 9412SOL     OW30003   7.289   3.518   2.217 -0.6562  0.0964 -0.3446
 9412SOL    HW130004   7.347   3.543   2.145 -1.4289  0.0339 -1.0044
 9412SOL    HW230005   7.341   3.455   2.268  1.0088  2.3290  0.8974
 9413SOL     OW30006   5.155   6.958   5.145 -0.3698  0.3205 -0.4191
 9413SOL    HW130007   5.092   6.886   5.149 -0.0382 -0.0122 -1.0600
 9413SOL    HW230008   5.239   6.918   5.168 -0.3417  0.7083  0.1821
 9414SOL     OW30009   1.795   5.165   5.085  0.2457 -0.1636 -0.2076
 9414SOL    HW130010   1.790   5.130   5.174  0.0953  1.5555  0.4989
 9414SOL    HW230011   1.850   5.243   5.093  0.5211 -0.1773 -1.6984
 9415SOL     OW30012   5.854   0.471   9.728  0.0052  0.7647  0.2504
 9415SOL    HW130013   5.763   0.492   9.750 -0.3955 -1.8893  1.4440
 9415SOL    HW230014   5.853   0.459   9.633 -0.3426  2.9606 -0.0786
 9416SOL     OW30015   1.560   2.286   6.741 -0.3088 -0.2838 -0.0648
 9416SOL    HW130016   1.586   2.378   6.742  1.2619 -0.7000  0.2887
 9416SOL    HW230017   1.503   2.276   6.817 -0.5255  0.3921 -0.1304
 9417SOL     OW30018   4.671   5.718   2.437  0.4463 -0.1427  0.0471
 9417SOL    HW130019   4.673   5.654   2.508  0.7862 -0.0106  0.1564
 9417SOL    HW230020   4.578   5.725   2.415  0.3406 -0.2152  0.4496
 9418SOL     OW30021   0.783   5.278   7.639 -0.0342  0.1860 -0.0355
 9418SOL    HW130022   0.740   5.204   7.682 -0.5988 -0.2229 -1.2598
 9418SOL    HW230023   0.716   5.347   7.638 -0.3213 -0.0941 -0.9982
 9419SOL     OW30024   8.567   4.960   1.001 -0.2329  0.2055 -0.2075
 9419SOL    HW130025   8.599   4.911   0.925  2.3038 -0.4871  1.2218
 9419SOL    HW230026   8.644   5.004   1.036 -1.0619 -0.4161  2.6455
 9420SOL     OW30027   7.192   4.125   3.740  0.1223  0.5668 -0.1418
 9420SOL    HW130028   7.240   4.206   3.723  0.5034  0.4517  0.3769
 9420SOL    HW230029   7.234   4.060   3.682 -0.7299  0.9156 -1.1859
 9421SOL     OW30030   4.986   0.529   1.515  0.4201  0.8143 -0.2801
 9421SOL    HW130031   4.955   0.569   1.434  1.5206  0.2761 -0.9829
 9421SOL    HW230032   5.064   0.578   1.539  1.8956 -0.9395 -1.2561
 9422SOL     OW30033   4.392   8.320   2.917 -0.8757  0.1532  0.3398
 9422SOL    HW130034   4.321   8.307   2.854 -0.4577  0.9486 -0.3073
 9422SOL    HW230035   4.361   8.278   2.997 -2.2099  0.7578  0.1596
 9423SOL     OW30036   7.762   6.450   5.816  0.6424  0.5364  0.0506
 9423SOL    HW130037   7.706   6.419   5.746  0.9899  0.2007 -0.0813
 9423SOL    HW230038   7.750   6.387   5.887 -0.8914  1.7093  0.8922
 9424SOL     OW30039   7.111   9.756   8.171  0.2690  0.1201 -0.1766
 9424SOL    HW130040   7.040   9.703   8.206 -0.3466  0.4329 -0.9425
 9424SOL    HW230041   7.069   9.837   8.141  0.9026  0.1947 -0.8896
 9425SOL     OW30042   7.546   3.248   7.856  0.9214 -0.1951 -0.2105
 9425SOL    HW130043   7.472   3.241   7.915 -1.3298 -1.0560 -2.9198
 9425SOL    HW230044   7.589   3.162   7.861  0.5419 -0.3769 -0.0666
 9426SOL     OW30045   9.791   7.464   4.537 -0.5871 -0.2895  1.2877
 9426SOL    HW130046   9.818   7.372   4.532  1.2176  0.2777 -1.2240
 9426SOL    HW230047   9.870   7.510   4.564 -0.6074  0.7978 -0.3786
 9427SOL     OW30048   4.535   9.324   7.083 -0.0171  0.3630  0.1625
 9427SOL    HW130049   4.617   9.325   7.132 -0.2068  1.7826  0.5099
 9427SOL    HW230050   4.470   9.294   7.147  0.1183 -0.1662  0.0600
 9428SOL     OW30051   3.836   2.361   8.383  0.3507 -0.0770  0.0221
 9428SOL    HW130052   3.785   2.393   8.309 -1.2588 -0.7221  0.7798
 9428SOL    HW230053   3.775   2.365   8.457  1.3016 -1.2019  0.9157
 9429SOL     OW30054   8.134   4.585   7.889  0.1454  0.0492 -0.0484
 9429SOL    HW130055   8.188   4.650   7.845  0.6813 -0.2530  0.1576
 9429SOL    HW230056   8.117   4.624   7.976 -1.9043  1.1889 -0.8887
 9430SOL     OW30057   0.749   3.485   5.318 -0.4472 -0.0094  0.1467
 9430SOL    HW130058   0.748   3.537   5.399  2.6866  1.7307 -0.7714
 9430SOL    HW230059   0.782   3.400   5.346  1.2383  0.7738  0.7024
 9431SOL     OW30060   2.485   0.651   4.768  0.0811 -0.3783  0.1050
 9431SOL    HW130061   2.423   0.605   4.712 -1.4495 -0.6500  1.9072
 9431SOL    HW230062   2.564   0.597   4.767  0.1492 -0.3082 -1.8181
 9432SOL     OW30063   4.586   9.737   0.035 -0.2419  0.5190  0.3656
 9432SOL    HW130064   4.662   9.679   0.034  0.9033  1.9055 -1.5648
 9432SOL    HW230065   4.548   9.727  -0.052 -3.0456 -1.0002  1.6558
 9433SOL     OW30066   5.291   1.098   9.813 -0.0108 -0.6941  0.2954
 9433SOL    HW130067   5.360   1.096   9.880 -0.2668 -1.2204  0.5462
 9433SOL    HW230068   5.210   1.082   9.862 -0.5306  1.5291  0.2689
 9434SOL     OW30069   0.151   4.923   5.353 -0.1742 -0.2551  0.0908
 9434SOL    HW130070   0.206   4.995   5.382 -0.1188  0.9590 -2.7002
 9434SOL    HW230071   0.084   4.915   5.421  1.2730  0.7032  1.7048
 9435SOL     OW30072   5.339   3.038   9.007  0.4701  0.5643 -0.2533
 9435SOL    HW130073   5.283   2.962   9.022  1.1694 -0.2630 -1.5863
 9435SOL    HW230074   5.419   3.019   9.058  0.3549  0.7760  0.0115
 9436SOL     OW30075   0.948   4.896   7.449 -1.0106  0.1599 -0.0314
 9436SOL    HW130076   0.962   4.937   7.535 -0.9415 -0.0809  0.0744
 9436SOL    HW230077   1.036   4.891   7.410 -1.0940  0.6291 -0.2836
 9437SOL     OW30078   5.099   9.797   3.957 -0.3590 -0.0214  0.0293
 9437SOL    HW130079   5.103   9.862   3.887  1.3508 -0.4001 -0.2898
 9437SOL    HW230080   5.084   9.714   3.912  0.6587 -0.2552  0.0830
 9438SOL     OW30081   4.406   0.963   1.820  0.6645 -0.4081 -0.0461
 9438SOL    HW130082   4.344   0.900   1.782 -0.2757  0.3690  0.1778
 9438SOL    HW230083   4.446   1.005   1.744  0.9042 -0.8800 -0.1896
 9439SOL     OW30084   5.368   6.469   2.186 -0.2384  0.0305 -0.0115
 9439SOL    HW130085   5.306   6.415   2.236  0.2660 -0.2327  0.3455
 9439SOL    HW230086   5.448   6.416   2.183 -0.6369 -0.5380 -2.2376
 9440SOL     OW30087   9.445   9.493   4.527 -0.0468 -0.2224  0.4523
 9440SOL    HW130088   9.491   9.437   4.464 -0.1284  0.2602 -0.0429
 9440SOL    HW230089   9.412   9.432   4.593 -0.6301 -0.8303 -0.3818
 9441SOL     OW30090   1.032   3.060   8.827 -1.0615  0.4274  0.0876
 9441SOL    HW130091   0.962   2.996   8.835 -1.0027  0.4328  0.7768
 9441SOL    HW230092   1.007   3.131   8.887 -0.1526  0.1186  0.8668
 9442SOL     OW30093   5.097   7.285   6.743 -0.3305  0.2518  0.5339
 9442SOL    HW130094   5.021   7.312   6.793 -0.7098  1.2869 -0.5559
 9442SOL    HW230095   5.078   7.194   6.718 -0.5616  0.0452  1.4264
 9443SOL     OW30096   7.687   5.544   9.808 -0.0538  0.0013  0.1520
 9443SOL    HW130097   7.782   5.539   9.806 -0.1335 -1.7105 -0.7441
 9443SOL    HW230098   7.663   5.508   9.894  0.0973  0.5109  0.4121
 9444SOL     OW30099   3.061   9.553   1.986  0.0340 -0.0136 -0.5095
 9444SOL    HW130100   3.090   9.516   1.903 -1.3685 -2.4208  0.0049
 9444SOL    HW230101   3.143   9.577   2.031  0.9898 -1.7803 -1.2209
 9445SOL     OW30102   7.975   4.074   5.828 -0.6451 -0.2904 -0.2468
 9445SOL    HW130103   7.979   4.059   5.734  0.4291 -0.1911 -0.2277
 9445SOL    HW230104   8.064   4.058   5.859 -0.5258  1.5105  0.4750
 9446SOL     OW30105   0.133   9.585   8.954 -0.9468 -0.1538  0.3786
 9446SOL    HW130106   0.137   9.540   9.039  0.7038 -0.2193  0.2915
 9446SOL    HW230107   0.040   9.604   8.942 -1.2113 -0.1093  2.2144
 9447SOL     OW30108   1.765   3.032   4.353 -0.2447  0.4811  0.2636
 9447SOL    HW130109   1.708   3.027   4.429  0.0510  0.0431  0.4620
 9447SOL    HW230110   1.711   3.000   4.281  0.2839 -1.7063  0.7692
 9448SOL     OW30111   5.511   4.963   9.747 -0.0740  0.2363  0.0577
 9448SOL    HW130112   5.469   5.007   9.821  1.0065  0.2183  0.6913
 9448SOL    HW230113   5.530   4.875   9.779 -0.5597 -0.1170 -0.5999
 9449SOL     OW30114   5.729   1.532   2.011  0.7962 -0.2480 -0.0099
 9449SOL    HW130115   5.654   1.547   2.068  1.0931 -0.3449  0.4129
 9449SOL    HW230116   5.774   1.457   2.049  1.1834 -0.1049 -0.1735
 9450SOL     OW30117   5.545   7.890   5.964 -0.3916  0.7046  0.5787
 9450SOL    HW130118   5.515   7.801   5.944  3.0561 -0.4478 -0.3675
 9450SOL    HW230119   5.629   7.897   5.918  0.3401  3.8436  2.1004
 9451SOL     OW30120   0.079   0.407   6.300  0.2902  0.5998 -0.0515
 9451SOL    HW130121   0.119   0.487   6.268  1.4044  0.4097  0.7932
 9451SOL    HW230122   0.152   0.357   6.338 -0.0666 -1.5352 -1.9553
 9452SOL     OW30123   3.015   0.716   2.611 -0.1859  0.0760  0.0059
 9452SOL    HW130124   3.074   0.733   2.684 -0.7537 -0.3986  0.5787
 9452SOL    HW230125   3.027   0.624   2.591 -0.6700  0.0003  0.0647
 9453SOL     OW30126   2.242   6.610   7.783 -0.3728  0.1680  0.3641
 9453SOL    HW130127   2.301   6.667   7.831 -1.7618  2.5236 -0.5308
 9453SOL    HW230128   2.256   6.633   7.691 -1.3479 -0.5771  0.0121
 9454SOL     OW30129   9.391   4.834   5.248  0.0174  0.2526 -0.0999
 9454SOL    HW130130   9.424   4.916   5.212  0.5960 -0.1681 -0.5579
 9454SOL    HW230131   9.297   4.848   5.259 -0.1662  0.4370 -1.6936
 9455SOL     OW30132   8.204   5.573   8.367  0.2691  0.3414 -0.0332
 9455SOL    HW130133   8.108   5.568   8.369  0.2743 -0.4711 -0.9098
 9455SOL    HW230134   8.225   5.602   8.278  0.8575 -0.8123 -0.2964
 9456SOL     OW30135   1.170   9.114   7.683 -0.0273  0.8282 -0.0827
 9456SOL    HW130136   1.149   9.088   7.593 -1.0031 -1.0543  0.6215
 9456SOL    HW230137   1.215   9.038   7.720 -0.6886  1.0977  1.3529
 9457SOL     OW30138   2.921   7.345   3.294 -0.3822 -0.1965 -1.0357
 9457SOL    HW130139   2.854   7.312   3.355  1.6664 -0.4476  1.2260
 9457SOL    HW230140   2.928   7.277   3.227 -0.2709 -1.6658  0.4118
 9458SOL     OW30141   4.036   0.355   4.042 -0.2903  0.2647  0.3144
 9458SOL    HW130142   4.045   0.441   4.084 -2.3619 -0.2378  2.0145
 9458SOL    HW230143   3.947   0.354   4.008 -0.2324 -1.1406  0.1355
 9459SOL     OW30144   0.561   9.749   8.912  0.0795 -0.4292 -0.2380
 9459SOL    HW130145   0.597   9.778   8.996 -0.4272  2.1773 -0.8240
 9459SOL    HW230146   0.618   9.677   8.885  1.5961  0.1221  1.3021
 9460SOL     OW30147   8.098   0.180   7.489  0.0595 -0.6120 -0.0579
 9460SOL    HW130148   8.189   0.152   7.502 -0.5662 -2.9699 -0.3392
 9460SOL    HW230149   8.046   0.103   7.513 -1.8045  0.2731 -1.0945
 9461SOL     OW30150   9.423   1.915   7.659  0.4126  0.0167  0.0952
 9461SOL    HW130151   9.449   1.977   7.591  2.9121 -2.2553 -1.1791
 9461SOL    HW230152   9.460   1.951   7.740  0.3069  1.0240 -0.2844
 9462SOL     OW30153   0.299   0.063   5.338  0.6311 -0.2320  0.0718
 9462SOL    HW130154   0.351   0.136   5.304  1.7856 -1.1438 -0.1931
 9462SOL    HW230155   0.220   0.104   5.374 -0.0598  0.9025 -2.5339
 9463SOL     OW30156   5.658   4.727   4.756  0.3437 -0.0082  0.5386
 9463SOL    HW130157   5.664   4.711   4.850 -1.0953 -0.3975  0.5902
 9463SOL    HW230158   5.614   4.649   4.722 -0.1857  0.6428 -0.2944
 9464SOL     OW30159   4.843   2.266   2.876  0.0159  0.1736 -0.0696
 9464SOL    HW130160   4.884   2.182   2.894 -0.3284  0.0798  0.2923
 9464SOL    HW230161   4.888   2.328   2.934 -0.5804  0.0086  0.5789
 9465SOL     OW30162   1.099   6.522   3.371  0.0785  0.1421 -0.5092
 9465SOL    HW130163   1.100   6.558   3.283 -2.1573  0.1674 -0.5967
 9465SOL    HW230164   1.124   6.595   3.428 -0.3641  0.6843 -0.9962
 9466SOL     OW30165   6.872   0.321   5.218  0.0428  0.1272 -0.2180
 9466SOL    HW130166   6.820   0.365   5.286  0.1313 -0.2248  0.0828
 9466SOL    HW230167   6.810   0.263   5.174 -0.6610  2.2403 -2.2010
 9467SOL     OW30168   8.500   4.947   8.107  0.2535  0.3774  0.4301
 9467SOL    HW130169   8.510   4.991   8.022 -0.1604  0.2570  0.3173
 9467SOL    HW230170   8.544   4.863   8.095 -1.6444 -0.5513 -0.3729
 9468SOL     OW30171   3.074   4.840   3.504  0.2297  0.0791  0.1340
 9468SOL    HW130172   3.038   4.757   3.474 -1.1262  0.6637  0.0780
 9468SOL    HW230173   3.013   4.870   3.571  0.3920  1.2949 -0.2419
 9469SOL     OW30174   9.649   0.176   9.734 -0.1446 -0.4700 -0.2308
 9469SOL    HW130175   9.585   0.216   9.675 -1.6851 -2.1077  0.2234
 9469SOL    HW230176   9.659   0.087   9.700  0.5707 -0.7705  0.7384
 9470SOL     OW30177   6.122   9.558   7.129 -0.6986 -0.2177  0.0892
 9470SOL    HW130178   6.127   9.650   7.154 -0.7432 -0.9450  3.0361
 9470SOL    HW230179   6.033   9.546   7.098 -0.5136  0.8283 -0.9210
 9471SOL     OW30180   6.069   0.869   0.805  0.2383  0.0775 -0.2476
 9471SOL    HW130181   6.161   0.893   0.804  0.1205  0.5502 -0.1837
 9471SOL    HW230182   6.061   0.800   0.739  0.7440 -0.3862  0.1662
 9472SOL     OW30183   5.861   2.013   9.588  0.5117  0.1102 -0.7482
 9472SOL    HW130184   5.864   1.938   9.529  1.6927 -1.5129  1.2179
 9472SOL    HW230185   5.952   2.031   9.609  0.1384 -0.5657  1.8778
 9473SOL     OW30186   2.655   5.063   0.896  0.4306  0.0394 -0.4840
 9473SOL    HW130187   2.598   5.009   0.951  1.3625 -1.2452 -0.7593
 9473SOL    HW230188   2.601   5.139   0.874 -0.6715 -0.4377  0.4631
 9474SOL     OW30189   0.738   2.989   4.879  1.1308  0.4648  0.2059
 9474SOL    HW130190   0.742   2.957   4.969  3.0008 -0.3007 -0.1002
 9474SOL    HW230191   0.729   3.084   4.887  2.3203  0.5096  1.2242
 9475SOL     OW30192   6.272   7.419   3.852  0.7634 -0.1717  0.7460
 9475SOL    HW130193   6.273   7.435   3.758 -0.3715  3.2408  1.1725
 9475SOL    HW230194   6.350   7.463   3.885 -0.6469  1.7757  1.6874
 9476SOL     OW30195   9.674   0.822   4.429  0.9715  0.5659 -0.1948
 9476SOL    HW130196   9.703   0.910   4.452  1.9402 -0.1688  1.6756
 9476SOL    HW230197   9.585   0.816   4.464  0.7432  0.9373 -0.7085
 9477SOL     OW30198   1.992   0.881   4.243 -0.0102  0.3695 -0.0221
 9477SOL    HW130199   1.904   0.851   4.218  0.5663 -0.8488 -0.6791
 9477SOL    HW230200   1.988   0.976   4.233 -1.3563  0.3700  0.2964
 9478SOL     OW30201   9.706   4.298   3.835  0.1083  0.4901  0.1827
 9478SOL    HW130202   9.653   4.378   3.839 -2.1922 -0.8710 -1.1291
 9478SOL    HW230203   9.766   4.306   3.908 -1.2598  2.6152  1.1751
 9479SOL     OW30204   6.891   9.617   4.178  0.2068  0.4072  0.0680
 9479SOL    HW130205   6.875   9.691   4.237 -0.2487  0.0200  0.4372
 9479SOL    HW230206   6.928   9.549   4.234 -1.3605 -0.3992  0.1847
 9480SOL     OW30207   5.735   7.035   4.612  0.5563  0.4434 -0.3725
 9480SOL    HW130208   5.818   7.079   4.629 -0.4075  2.4706 -0.5874
 9480SOL    HW230209   5.673   7.106   4.598 -1.3349 -0.9986  0.2521
 9481SOL     OW30210   0.383   1.798   5.567 -0.3848  0.9383 -0.5009
 9481SOL    HW130211   0.467   1.833   5.597 -0.5983  1.7236 -0.8034
 9481SOL    HW230212   0.360   1.853   5.492 -1.6041  1.3066  0.1242
 9482SOL     OW30213   3.745   8.919   6.624  0.3406 -0.4469 -0.1560
 9482SOL    HW130214   3.823   8.865   6.637 -0.3708 -1.5724 -0.4682
 9482SOL    HW230215   3.683   8.889   6.690  0.0418  0.1974 -0.1368
 9483SOL     OW30216   5.308   1.268   0.268  0.0214  0.6787 -0.1395
 9483SOL    HW130217   5.227   1.283   0.220  0.4508 -0.4099 -1.2611
 9483SOL    HW230218   5.343   1.355   0.286 -1.2151  1.1483  0.0583
 9484SOL     OW30219   2.510   2.229   5.018 -0.0519 -0.4231 -0.0850
 9484SOL    HW130220   2.566   2.223   5.095 -0.2881  0.5620  0.1683
 9484SOL    HW230221   2.487   2.321   5.011 -0.9575 -0.6745 -0.6757
 9485SOL     OW30222   0.558   1.477   8.131  0.1456  0.0780 -0.0489
 9485SOL    HW130223   0.644   1.506   8.101  0.6335 -1.0229  0.2461
 9485SOL    HW230224   0.503   1.483   8.053  0.6058  0.3067 -0.3609
 9486SOL     OW30225   4.388   2.020   5.784 -0.1448  0.0252 -0.4701
 9486SOL    HW130226   4.452   2.045   5.849 -1.6910  0.0194  1.1246
 9486SOL    HW230227   4.303   2.029   5.828 -1.1291 -2.2482 -1.6947
 9487SOL     OW30228   4.209   1.717   6.293  0.6336  0.4726 -0.0065
 9487SOL    HW130229   4.168   1.779   6.233 -0.0439  0.2863  0.2529
 9487SOL    HW230230   4.185   1.631   6.259  0.8287  0.3622  0.1325
 9488SOL     OW30231   6.895   8.501   2.937 -0.0519  0.0323  0.0744
 9488SOL    HW130232   6.945   8.436   2.986  1.6384 -0.4638 -2.1111
 9488SOL    HW230233   6.890   8.465   2.848 -2.4375  1.1451 -0.3231
 9489SOL     OW30234   3.707   8.817   4.336  0.8212  0.2364  1.1930
 9489SOL    HW130235   3.797   8.847   4.346  0.2025  2.9176 -0.4949
 9489SOL    HW230236   3.684   8.838   4.246 -0.8693 -2.3473  0.9186
 9490SOL     OW30237   8.662   9.435   1.501  0.0072 -0.0960  0.2141
 9490SOL    HW130238   8.602   9.390   1.442 -1.2071  0.0154  1.3319
 9490SOL    HW230239   8.748   9.425   1.459 -0.6987 -0.6792 -1.1633
 9491SOL     OW30240   7.594   7.798   8.433 -0.5652 -0.2953 -0.5978
 9491SOL    HW130241   7.581   7.888   8.403  0.8472  0.7076  1.5255
 9491SOL    HW230242   7.686   7.779   8.413  0.1809  0.1075  1.9989
 9492SOL     OW30243   2.093   8.585   0.080 -0.0871  0.1526  0.1670
 9492SOL    HW130244   2.058   8.551  -0.002 -0.7185  1.1969 -0.0131
 9492SOL    HW230245   2.146   8.513   0.115  2.0339  0.4181 -2.2251
 9493SOL     OW30246   8.939   2.025   3.627 -0.2663 -0.1420  0.1056
 9493SOL    HW130247   9.012   2.073   3.666  1.1817 -0.1837 -2.3306
 9493SOL    HW230248   8.896   1.981   3.701  1.2855  1.0316  1.7914
 9494SOL     OW30249   3.966   0.742   6.894 -0.1950  0.4443  0.1787
 9494SOL    HW130250   3.993   0.738   6.802 -0.0533 -2.5980  0.2382
 9494SOL    HW230251   4.027   0.682   6.938 -1.1505  0.7788  2.0040
 9495SOL     OW30252   0.930   1.958   2.524 -0.5133  0.0244 -0.5387
 9495SOL    HW130253   0.920   2.053   2.530 -1.8525 -0.0255 -1.5478
 9495SOL    HW230254   0.933   1.940   2.430  1.8245 -0.7718 -0.3858
 9496SOL     OW30255   1.939   2.002   0.795 -0.0585 -0.4416 -0.5069
 9496SOL    HW130256   1.969   1.937   0.859  0.3668  0.1189 -0.1307
 9496SOL    HW230257   1.892   2.068   0.847  2.0678  1.1219 -0.4376
 9497SOL     OW30258   4.367   2.211   3.865  0.0025  0.0455  0.0830
 9497SOL    HW130259   4.419   2.221   3.944 -0.4626 -2.0900  0.7197
 9497SOL    HW230260   4.283   2.177   3.895  0.3131 -2.3077 -1.3669
 9498SOL     OW30261   0.712   8.851   0.594 -0.2591 -0.1857  0.6783
 9498SOL    HW130262   0.645   8.916   0.615 -1.2689 -1.0522  0.2769
 9498SOL    HW230263   0.709   8.789   0.667 -0.8665 -0.9565  0.0228
 9499SOL     OW30264   7.386   8.687   8.999  0.2718  0.0527 -0.2891
 9499SOL    HW130265   7.333   8.720   8.926 -0.5670 -0.5806  0.0111
 9499SOL    HW230266   7.388   8.759   9.062 -0.7909 -0.1251 -0.0299
 9500SOL     OW30267   7.224   7.052   0.553 -0.2026  0.0073 -0.2241
 9500SOL    HW130268   7.266   6.977   0.594 -0.8552 -0.1899  0.0889
 9500SOL    HW230269   7.137   7.056   0.592 -0.0850  1.0900 -0.0266
 9501SOL     OW30270   1.413   8.798   0.230  0.1072 -0.3357  0.1743
 9501SOL    HW130271   1.508   8.801   0.223  0.0182  1.0289 -0.8751
 9501SOL    HW230272   1.393   8.707   0.252  1.6171 -0.7341 -0.0113
 9502SOL     OW30273   6.308   8.562   8.267 -0.1559  0.5517  0.1871
 9502SOL    HW130274   6.307   8.472   8.299  1.4312  0.9045  1.3273
 9502SOL    HW230275   6.235   8.566   8.204  1.9140 -2.5051 -2.7452
 9503SOL     OW30276   5.451   5.728   6.182  0.1705 -0.1685 -0.2878
 9503SOL    HW130277   5.472   5.816   6.211  1.4264 -0.2334 -0.9345
 9503SOL    HW230278   5.399   5.740   6.102 -1.4036 -0.0246  0.6983
 9504SOL     OW30279   7.696   9.778   2.614  0.0226 -0.1176 -0.1050
 9504SOL    HW130280   7.717   9.715   2.545  0.8794  0.1486 -0.0910
 9504SOL    HW230281   7.636   9.731   2.672 -0.4233 -0.4644 -0.8313
 9505SOL     OW30282   0.482   0.994   2.118 -0.5259 -0.1486  0.2075
 9505SOL    HW130283   0.387   0.980   2.113 -0.6103  0.2370  0.6308
 9505SOL    HW230284   0.520   0.923   2.066 -1.0099 -0.7988  0.7200
 9506SOL     OW30285   0.585   9.125   2.090 -0.3816  0.0718  0.2148
 9506SOL    HW130286   0.525   9.161   2.025 -0.4613  0.0147  0.2575
 9506SOL    HW230287   0.538   9.052   2.129 -0.6645  0.6284  0.9419
 9507SOL     OW30288   4.034   1.372   1.233  0.0374  0.8034  0.2748
 9507SOL    HW130289   4.032   1.277   1.247  1.5573  1.2157  4.5091
 9507SOL    HW230290   3.966   1.387   1.167  0.1633 -3.2300 -1.0562
 9508SOL     OW30291   1.681   4.902   2.109 -0.6500  0.3974  0.1772
 9508SOL    HW130292   1.743   4.916   2.038  2.1938 -0.7039  2.2868
 9508SOL    HW230293   1.680   4.985   2.157 -2.0653  0.9156 -0.6620
 9509SOL     OW30294   7.193   9.806   6.465  0.3029 -0.8699  0.1219
 9509SOL    HW130295   7.286   9.783   6.476  0.9523 -0.4358 -3.1943
 9509SOL    HW230296   7.188   9.899   6.487  0.9684 -0.5829 -0.8702
 9510SOL     OW30297   0.384   0.265   9.030 -0.8819 -0.5590 -0.1326
 9510SOL    HW130298   0.432   0.240   8.951 -0.6993 -0.5069 -0.0381
 9510SOL    HW230299   0.410   0.356   9.046  1.3096 -1.4091  1.6114
 9511SOL     OW30300   3.689   7.873   4.762  0.2024  0.1364 -0.0352
 9511SOL    HW130301   3.764   7.818   4.741  0.3899  0.5047 -0.3399
 9511SOL    HW230302   3.687   7.939   4.692  1.3596  1.9437  1.5325
 9512SOL     OW30303   2.352   5.371   5.638  0.1403  0.1979 -0.0505
 9512SOL    HW130304   2.304   5.443   5.679 -1.3887 -0.6718 -0.2072
 9512SOL    HW230305   2.353   5.393   5.545 -0.9888 -0.3060 -0.2014
 9513SOL     OW30306   2.075   6.838   9.390  0.6300 -0.5089  0.6328
 9513SOL    HW130307   2.062   6.854   9.484  0.1199 -1.2644  0.6994
 9513SOL    HW230308   2.149   6.894   9.366  1.5360 -1.1895  1.7505
 9514SOL     OW30309   1.480   9.628   5.855 -0.0895 -0.1385 -0.0420
 9514SOL    HW130310   1.459   9.543   5.894 -0.1008 -0.9789 -1.7845
 9514SOL    HW230311   1.575   9.630   5.852 -0.0990 -0.8034 -1.4217
 9515SOL     OW30312   2.852   0.457   8.886  0.9525  0.6524 -0.0662
 9515SOL    HW130313   2.889   0.388   8.941  0.9002  0.1021 -0.7068
 9515SOL    HW230314   2.898   0.537   8.912  2.4488  0.0267 -0.7041
 9516SOL     OW30315   1.186   9.562   2.616 -0.2822 -0.4862  0.2488
 9516SOL    HW130316   1.208   9.611   2.538  1.6556 -0.5509  0.7120
 9516SOL    HW230317   1.140   9.625   2.672 -1.0374 -0.2474 -0.6106
 9517SOL     OW30318   6.396   8.973   6.342  0.3085  0.0237  0.3350
 9517SOL    HW130319   6.430   8.988   6.253 -0.9810 -0.1944 -0.2187
 9517SOL    HW230320   6.396   8.877   6.352  1.9170  0.0764  1.1933
 9518SOL     OW30321   8.110   6.217   7.444 -0.5906  0.1235 -0.2188
 9518SOL    HW130322   8.066   6.140   7.408 -0.9878 -0.2024  0.9170
 9518SOL    HW230323   8.126   6.195   7.535 -1.2575  1.6227  0.2869
 9519SOL     OW30324   0.811   4.896   5.287  0.4267  0.3885 -0.2342
 9519SOL    HW130325   0.831   4.968   5.227  1.9593 -0.0766 -0.3347
 9519SOL    HW230326   0.827   4.931   5.374  0.8303  0.2737 -0.2619
 9520SOL     OW30327   2.909   3.231   1.488  0.2457 -0.1774 -0.1035
 9520SOL    HW130328   2.880   3.226   1.397 -2.0016  0.6566  0.4861
 9520SOL    HW230329   2.906   3.141   1.520 -0.6804 -0.2687 -0.4108
 9521SOL     OW30330   1.204   3.397   3.550 -0.0823  0.7959 -0.4826
 9521SOL    HW130331   1.130   3.447   3.516 -0.2775  0.6312 -0.3005
 9521SOL    HW230332   1.175   3.306   3.550 -0.4089  0.8721  0.9288
 9522SOL     OW30333   1.395   9.424   2.766 -0.0961 -0.1884 -0.4601
 9522SOL    HW130334   1.489   9.443   2.776 -0.0967 -0.7044  0.7553
 9522SOL    HW230335   1.355   9.507   2.743  0.5804  0.1779 -0.3301
 9523SOL     OW30336   3.006   8.460   2.726  0.3392  1.3376  0.0173
 9523SOL    HW130337   2.978   8.532   2.669  1.0236  0.9709 -0.7986
 9523SOL    HW230338   3.091   8.433   2.691  0.7117  1.0067  1.1321
 9524SOL     OW30339   3.268   1.503   5.253  0.0983  0.0015 -0.2834
 9524SOL    HW130340   3.347   1.459   5.225  1.4060  2.3928 -0.6178
 9524SOL    HW230341   3.292   1.595   5.259 -2.0605  0.5532  1.7678
 9525SOL     OW30342   0.488   5.997   4.926  0.0526 -0.1705 -0.3302
 9525SOL    HW130343   0.538   6.063   4.974  0.4645 -0.9390  0.3302
 9525SOL    HW230344   0.530   5.993   4.840  1.4972 -1.1622  0.3757
 9526SOL     OW30345   4.747   0.287   1.310  0.0915 -0.1066 -0.0125
 9526SOL    HW130346   4.698   0.318   1.234 -0.4554  0.3662  0.5104
 9526SOL    HW230347   4.747   0.362   1.370 -0.6448 -0.8722  0.9927
 9527SOL     OW30348   3.714   0.075   8.536  0.1058  0.4087 -0.1831
 9527SOL    HW130349   3.705   0.152   8.480  0.7905  0.3474 -0.3872
 9527SOL    HW230350   3.630   0.067   8.580 -0.2503  0.7871 -0.7868
 9528SOL     OW30351   0.826   0.843   7.730  0.4559 -0.2461 -0.0082
 9528SOL    HW130352   0.902   0.852   7.789  0.3121  0.0007  0.1409
 9528SOL    HW230353   0.851   0.892   7.652 -0.5062  1.9486  0.9775
 9529SOL     OW30354   4.608   7.419   2.756  0.0659  0.9110  0.2240
 9529SOL    HW130355   4.646   7.486   2.698  0.2577  0.6786  0.0808
 9529SOL    HW230356   4.677   7.355   2.767 -0.2951  0.4583 -0.0778
 9530SOL     OW30357   9.216   1.371   2.162  0.2266 -0.2439 -0.3036
 9530SOL    HW130358   9.217   1.346   2.255 -1.4604 -1.4744 -0.5666
 9530SOL    HW230359   9.266   1.303   2.118 -1.2827 -1.2260 -0.5814
 9531SOL     OW30360   9.434   7.378   7.546  0.7373 -0.2082  0.0056
 9531SOL    HW130361   9.404   7.364   7.456  1.1379  0.5087 -0.2560
 9531SOL    HW230362   9.447   7.290   7.582 -1.0316 -0.5217 -0.0742
 9532SOL     OW30363   6.965   7.494   6.972 -0.5162  0.4487  0.4671
 9532SOL    HW130364   6.966   7.474   6.879  0.9814  0.4835  0.4446
 9532SOL    HW230365   7.046   7.544   6.987 -1.1379  1.1483  1.6315
 9533SOL     OW30366   3.018   8.266   7.704  0.2114 -0.1081  0.9354
 9533SOL    HW130367   3.099   8.310   7.730  0.3697  0.6678 -0.7332
 9533SOL    HW230368   3.046   8.199   7.643 -0.2139 -1.4273  2.1368
 9534SOL     OW30369   4.619   9.584   5.123  0.0021  0.1891 -0.3360
 9534SOL    HW130370   4.627   9.672   5.161 -0.2230  0.0040  0.1449
 9534SOL    HW230371   4.675   9.587   5.045  0.6637  0.5055  0.1427
 9535SOL     OW30372   2.635   9.546   7.120 -0.1452 -0.1186 -0.1492
 9535SOL    HW130373   2.687   9.480   7.074 -1.3792  0.9396 -3.3426
 9535SOL    HW230374   2.563   9.496   7.159 -1.3432 -0.7460 -2.9438
 9536SOL     OW30375   8.249   9.321   9.171  0.0140 -0.0231 -0.0469
 9536SOL    HW130376   8.166   9.275   9.183 -0.5293  0.8342 -0.4245
 9536SOL    HW230377   8.313   9.268   9.218 -0.3316 -1.8855 -1.5493
 9537SOL     OW30378   8.073   0.272   2.631 -0.2880  0.4760  0.5056
 9537SOL    HW130379   8.023   0.222   2.695 -0.1228 -1.6280 -0.8961
 9537SOL    HW230380   8.159   0.282   2.671 -0.7647  1.0308  1.4450
 9538SOL     OW30381   1.590   8.482   4.829 -0.2036 -0.2700  0.2914
 9538SOL    HW130382   1.673   8.507   4.869  0.0903 -0.2079 -0.3410
 9538SOL    HW230383   1.529   8.549   4.859  0.3373  0.6023 -0.5030
 9539SOL     OW30384   4.175   2.699   4.366 -0.1310 -0.0569 -0.4734
 9539SOL    HW130385   4.239   2.628   4.372  0.4222  0.2764 -2.0931
 9539SOL    HW230386   4.118   2.675   4.293 -1.3534  0.0868  0.3810
 9540SOL     OW30387   1.611   6.606   2.506 -0.0022 -0.2904  0.1494
 9540SOL    HW130388   1.683   6.558   2.546 -0.5738 -1.9113 -0.6423
 9540SOL    HW230389   1.579   6.548   2.437 -0.2745  1.5769 -1.3794
 9541SOL     OW30390   1.570   1.129   3.967 -0.6280 -0.9253  0.9911
 9541SOL    HW130391   1.664   1.112   3.980 -0.3084  0.3248  0.4981
 9541SOL    HW230392   1.549   1.085   3.885  0.3956  1.5542 -0.7389
 9542SOL     OW30393   8.965   9.504   9.745  0.3530  0.2969 -0.4094
 9542SOL    HW130394   8.969   9.600   9.746  0.9299  0.2876 -1.1217
 9542SOL    HW230395   9.033   9.478   9.684  1.0902 -0.6295  0.7597
 9543SOL     OW30396   3.044   5.096   9.096  0.2916 -0.1146  0.2384
 9543SOL    HW130397   2.989   5.102   9.018 -1.7885 -1.6126  1.4881
 9543SOL    HW230398   3.036   5.182   9.138 -0.6276 -0.1224  0.0926
 9544SOL     OW30399   2.906   2.837   6.189  1.3737  0.6002  0.4313
 9544SOL    HW130400   2.857   2.868   6.113  2.4153  1.0437 -0.0867
 9544SOL    HW230401   2.839   2.811   6.252  0.3998 -2.2759 -1.5848
 9545SOL     OW30402   8.755   4.524   4.081  0.1806 -0.5309 -0.4207
 9545SOL    HW130403   8.810   4.593   4.043  1.0559 -1.1700 -0.3373
 9545SOL    HW230404   8.814   4.451   4.095 -0.6964 -1.2297 -0.2894
 9546SOL     OW30405   5.143   5.989   7.945  0.3210 -0.1404 -0.6912
 9546SOL    HW130406   5.141   6.084   7.950  0.8309 -0.1323 -0.5648
 9546SOL    HW230407   5.208   5.969   7.878 -0.0749 -0.3957 -1.0005
 9547SOL     OW30408   6.864   8.979   8.108  0.6338  1.0095 -0.2438
 9547SOL    HW130409   6.856   9.070   8.081  1.2744  0.2255 -3.4381
 9547SOL    HW230410   6.785   8.937   8.074  0.6730  0.2092  0.6150
 9548SOL     OW30411   1.639   1.364   7.566 -0.2720 -0.0945 -0.0222
 9548SOL    HW130412   1.639   1.304   7.491 -1.1054  0.1355 -0.2135
 9548SOL    HW230413   1.585   1.437   7.537 -0.3455  0.1356  0.6974
 9549SOL     OW30414   5.866   9.110   7.605 -0.4819  0.1918  0.0834
 9549SOL    HW130415   5.877   9.204   7.617 -1.0107  0.3363 -0.5097
 9549SOL    HW230416   5.789   9.102   7.548  1.1379 -0.4844 -2.1706
 9550SOL     OW30417   3.486   2.122   2.705  0.1817  0.2402  0.0600
 9550SOL    HW130418   3.563   2.132   2.761 -0.3966  4.2888  0.4126
 9550SOL    HW230419   3.414   2.101   2.765  0.5025 -1.0555  0.0290
 9551SOL     OW30420   0.952   1.240   4.703  0.2996  0.3340  0.6463
 9551SOL    HW130421   0.915   1.262   4.618 -1.2361 -1.7289  0.7038
 9551SOL    HW230422   1.019   1.174   4.684  0.1068  0.0265  1.0276
 9552SOL     OW30423   0.803   2.841   6.092 -0.2889 -0.2647  0.5214
 9552SOL    HW130424   0.897   2.831   6.078 -0.4108 -1.5206  0.4975
 9552SOL    HW230425   0.784   2.783   6.166 -0.6877  1.6465  1.9795
 9553SOL     OW30426   7.117   9.217   4.497 -0.1814  0.0423  0.0864
 9553SOL    HW130427   7.176   9.273   4.547 -1.4669  0.7391  0.8569
 9553SOL    HW230428   7.076   9.160   4.562 -1.3614  0.4877 -0.2366
 9554SOL     OW30429   3.903   5.044   7.555  0.0631 -0.2396 -1.1390
 9554SOL    HW130430   3.903   5.052   7.459  1.4593 -2.4370 -1.3808
 9554SOL    HW230431   3.964   5.112   7.584  1.0402 -0.7271 -1.9695
 9555SOL     OW30432   1.064   2.487   5.738 -0.4231 -0.2699  0.2495
 9555SOL    HW130433   1.045   2.567   5.688 -0.0415 -0.2526  0.1279
 9555SOL    HW230434   1.015   2.419   5.692 -0.2167 -0.2222 -0.0430
 9556SOL     OW30435   2.289   1.516   8.752 -0.5508 -0.0350  0.1228
 9556SOL    HW130436   2.329   1.429   8.756 -2.3127 -0.8718  0.6395
 9556SOL    HW230437   2.195   1.499   8.753 -0.9476  1.9170  1.1546
 9557SOL     OW30438   7.784   9.836   1.276  0.1423  0.0579 -0.4887
 9557SOL    HW130439   7.829   9.918   1.255 -0.8235  0.3853 -1.3787
 9557SOL    HW230440   7.801   9.822   1.369 -0.5336  1.8259 -0.0640
 9558SOL     OW30441   3.657   2.805   7.768  0.1764  0.5665  0.1396
 9558SOL    HW130442   3.565   2.819   7.790  0.4919  0.1196  1.8744
 9558SOL    HW230443   3.688   2.892   7.739 -0.2495  1.2686  1.6920
 9559SOL     OW30444   4.101   1.258   2.783 -0.1036 -0.4077 -0.0155
 9559SOL    HW130445   4.108   1.235   2.690  1.5111  2.8467 -0.8460
 9559SOL    HW230446   4.033   1.325   2.787 -0.3836 -0.7400  1.2410
 9560SOL     OW30447   7.532   8.199   2.710 -0.3307 -0.1486 -0.5475
 9560SOL    HW130448   7.474   8.276   2.712 -0.3662 -0.1800 -0.4147
 9560SOL    HW230449   7.590   8.215   2.635 -0.1980  0.1082 -0.3903
 9561SOL     OW30450   6.749   3.324   3.890 -0.3101 -0.4362 -0.8077
 9561SOL    HW130451   6.809   3.382   3.936  0.2656 -2.2452  0.8544
 9561SOL    HW230452   6.663   3.344   3.927 -0.3508  0.3483 -1.3071
 9562SOL     OW30453   0.300   3.158   7.933 -0.1159 -0.3276  0.0613
 9562SOL    HW130454   0.349   3.084   7.896  0.1553 -0.7692  1.2509
 9562SOL    HW230455   0.367   3.209   7.979  0.1569  2.0148 -2.6763
 9563SOL     OW30456   4.533   5.252   0.637  0.5912 -0.1874 -0.2876
 9563SOL    HW130457   4.560   5.332   0.681  1.2127 -0.4423 -0.1986
 9563SOL    HW230458   4.452   5.276   0.592  1.1228  0.6831 -0.8107
 9564SOL     OW30459   3.988   7.728   4.214  0.5310 -0.1197 -0.6230
 9564SOL    HW130460   3.968   7.783   4.138 -0.1319  2.5164  1.3125
 9564SOL    HW230461   4.084   7.725   4.215  0.6291  1.6417 -0.4297
 9565SOL     OW30462   9.515   5.955   7.011  0.2029 -0.5284  0.1046
 9565SOL    HW130463   9.603   5.965   7.048 -0.5447  3.0824  1.3521
 9565SOL    HW230464   9.527   5.972   6.918  0.7345  1.8987  0.5200
 9566SOL     OW30465   2.165   2.970   5.677  0.1759 -0.2898 -0.2383
 9566SOL    HW130466   2.096   2.960   5.611  0.6033  0.3571 -0.7989
 9566SOL    HW230467   2.175   2.883   5.715 -1.2367 -0.3088  0.1458
 9567SOL     OW30468   1.186   6.370   0.437  0.1262  0.3193  0.1060
 9567SOL    HW130469   1.161   6.296   0.380 -1.9742 -0.5356  1.9921
 9567SOL    HW230470   1.130   6.442   0.408 -0.9396 -0.1147  1.0179
 9568SOL     OW30471   2.973   9.076   0.297  0.4234  0.1006  0.2073
 9568SOL    HW130472   3.047   9.119   0.254  1.7904 -0.8742  1.4874
 9568SOL    HW230473   3.011   9.034   0.374 -1.2003 -1.7408  0.0750
 9569SOL     OW30474   2.862   9.106   2.703 -0.3573  0.1193 -0.2793
 9569SOL    HW130475   2.951   9.112   2.669  1.1213 -2.4360  2.6864
 9569SOL    HW230476   2.852   9.182   2.759  1.4115 -1.2456  2.0916
 9570SOL     OW30477   5.659   4.754   2.544  0.4235  0.0304  0.9975
 9570SOL    HW130478   5.724   4.804   2.496 -0.8566  0.1352 -0.7336
 9570SOL    HW230479   5.610   4.819   2.594 -0.2188  0.3449 -0.0113
 9571SOL     OW30480   5.522   0.465   2.830 -0.3926 -0.4637 -0.2848
 9571SOL    HW130481   5.462   0.503   2.765  0.2549 -1.0251 -1.2195
 9571SOL    HW230482   5.473   0.391   2.867 -0.5635 -0.4574 -0.4952
 9572SOL     OW30483   0.606   3.794   7.624 -0.0807  0.0612 -0.2113
 9572SOL    HW130484   0.568   3.706   7.613 -0.6417  0.3715 -0.8180
 9572SOL    HW230485   0.699   3.781   7.607  0.4446 -1.0129  2.8540
 9573SOL     OW30486   6.638   2.957   8.243  0.5089  0.1976  0.0732
 9573SOL    HW130487   6.680   2.959   8.328  0.4578  2.1100  0.1039
 9573SOL    HW230488   6.545   2.973   8.262  0.6171  1.4730 -0.3652
 9574SOL     OW30489   5.755   9.792   6.975 -0.8231  0.0057  0.8717
 9574SOL    HW130490   5.778   9.844   7.052 -1.0848 -0.4799  1.2803
 9574SOL    HW230491   5.784   9.703   6.995 -0.7689 -0.1009  0.3553
 9575SOL     OW30492   8.364   4.072   9.399 -0.7189  0.2120 -0.0828
 9575SOL    HW130493   8.285   4.072   9.345 -0.2289 -0.3362 -0.8185
 9575SOL    HW230494   8.426   4.127   9.351 -0.7677  0.9784  0.6947
 9576SOL     OW30495   9.814   5.572   8.089  0.0307 -0.3622  0.0438
 9576SOL    HW130496   9.777   5.658   8.110 -1.0835 -0.3448 -1.7101
 9576SOL    HW230497   9.807   5.567   7.993 -2.5001 -3.4858  0.2326
 9577SOL     OW30498   2.463   1.015   2.718 -0.1176 -0.0601 -0.4770
 9577SOL    HW130499   2.429   1.089   2.667 -0.9959  0.1484  0.3806
 9577SOL    HW230500   2.396   0.946   2.708  1.1266 -1.1122 -2.0362
 9578SOL     OW30501   6.847   1.216   0.872 -0.4809  0.2247  0.7482
 9578SOL    HW130502   6.831   1.125   0.849  3.2025 -0.4095  0.1071
 9578SOL    HW230503   6.836   1.220   0.967 -0.6844 -0.8651  0.7765
 9579SOL     OW30504   9.170   3.031   8.203 -0.3814 -0.3686 -0.4305
 9579SOL    HW130505   9.075   3.019   8.197 -0.4307  0.3414 -1.3177
 9579SOL    HW230506   9.182   3.084   8.282 -0.5691 -1.8272  0.6096
 9580SOL     OW30507   4.312   4.685   6.403 -0.0303 -0.5005  0.0652
 9580SOL    HW130508   4.262   4.726   6.332 -0.2350  0.3916  0.6923
 9580SOL    HW230509   4.359   4.613   6.362  0.7895  0.7127 -1.2194
 9581SOL     OW30510   8.497   3.581   5.422 -0.3729 -0.0631  0.3852
 9581SOL    HW130511   8.517   3.498   5.465  2.9825 -0.8481 -2.2224
 9581SOL    HW230512   8.459   3.556   5.338  1.3503  0.9100 -0.7506
 9582SOL     OW30513   9.742   6.008   9.545 -0.0047 -0.7928  0.1802
 9582SOL    HW130514   9.667   6.048   9.500  1.0072  1.1627  0.1344
 9582SOL    HW230515   9.769   5.937   9.487 -0.4123 -0.0572 -0.9460
 9583SOL     OW30516   8.012   5.844   9.322  0.3689 -0.4680  0.3633
 9583SOL    HW130517   7.990   5.910   9.387  0.9597 -0.4074  0.5092
 9583SOL    HW230518   8.043   5.894   9.247 -1.4493 -0.4816 -0.4373
 9584SOL     OW30519   4.197   8.988   7.758  0.3521  0.2153  0.1592
 9584SOL    HW130520   4.185   8.977   7.663  1.9390 -1.1859  0.0868
 9584SOL    HW230521   4.276   9.041   7.766  0.8143 -0.5316  0.6853
 9585SOL     OW30522   2.231   6.155   8.424 -0.4356 -0.3846  0.0248
 9585SOL    HW130523   2.304   6.094   8.436  0.2192 -0.0653 -2.0810
 9585SOL    HW230524   2.257   6.210   8.350 -2.5555  0.1298 -0.3894
 9586SOL     OW30525   1.960   2.449   1.672 -0.0838  1.0273 -0.0044
 9586SOL    HW130526   1.912   2.519   1.716 -1.5427  0.2848 -0.3502
 9586SOL    HW230527   1.997   2.396   1.742 -1.7215  0.3061  0.3406
 9587SOL     OW30528   5.029   9.334   7.711  0.1135 -0.1884  0.7714
 9587SOL    HW130529   5.051   9.333   7.804  1.7809  1.3802  0.4582
 9587SOL    HW230530   4.953   9.392   7.705  0.0227 -0.2671  1.1519
 9588SOL     OW30531   0.358   6.157   7.061  0.0971 -0.2498  0.5325
 9588SOL    HW130532   0.409   6.236   7.043 -1.4302  0.9560  1.2523
 9588SOL    HW230533   0.407   6.087   7.018 -0.0417  1.4870 -2.7906
 9589SOL     OW30534   8.758   8.926   3.211 -0.2052 -0.5173 -0.0851
 9589SOL    HW130535   8.801   8.840   3.214  0.3647 -0.2146  1.6022
 9589SOL    HW230536   8.815   8.980   3.158  1.0575 -0.3882  1.3442
 9590SOL     OW30537   5.023   4.664   4.123  0.1005 -0.4523 -0.3296
 9590SOL    HW130538   5.069   4.583   4.101 -0.6949 -1.1505  0.5144
 9590SOL    HW230539   4.938   4.636   4.155 -0.2895  0.7387 -0.2614
 9591SOL     OW30540   5.446   9.317   1.569  0.2814 -0.1114 -0.1432
 9591SOL    HW130541   5.417   9.324   1.478  0.0471  0.3669 -0.0350
 9591SOL    HW230542   5.495   9.398   1.585  3.5591 -1.7653 -0.9638
 9592SOL     OW30543   6.584   9.341   5.009 -0.2020 -0.1599 -0.3381
 9592SOL    HW130544   6.577   9.247   5.029 -1.3367  0.2141  1.2743
 9592SOL    HW230545   6.672   9.352   4.974 -0.5483 -2.0505 -1.9761
 9593SOL     OW30546   2.035   6.240   7.781  0.5315 -0.3996  0.0346
 9593SOL    HW130547   2.115   6.225   7.831  1.1804 -0.3363 -0.9491
 9593SOL    HW230548   1.965   6.245   7.847  1.3935 -0.0219  0.9371
 9594SOL     OW30549   9.635   0.361   2.833 -0.1197 -0.1070  0.2761
 9594SOL    HW130550   9.581   0.388   2.907 -0.5601  0.4548 -0.2435
 9594SOL    HW230551   9.716   0.411   2.844  0.9518 -2.0416  1.8856
 9595SOL     OW30552   1.588   5.738   1.639  0.0524  0.1355 -0.2218
 9595SOL    HW130553   1.592   5.643   1.645 -0.8561  0.1001 -0.0140
 9595SOL    HW230554   1.621   5.758   1.551  0.0934 -0.3752 -0.3270
 9596SOL     OW30555   2.904   9.430   3.095  0.4541 -0.3889  0.8012
 9596SOL    HW130556   2.851   9.506   3.070  0.9253 -0.9924 -2.4557
 9596SOL    HW230557   2.966   9.464   3.159  0.3056  1.8454 -0.1588
 9597SOL     OW30558   4.482   9.282   3.126 -0.0899  0.2328  0.2375
 9597SOL    HW130559   4.423   9.239   3.064  1.3424 -1.3376 -0.1278
 9597SOL    HW230560   4.530   9.210   3.167  1.3005  1.4120  0.7682
 9598SOL     OW30561   0.171   5.399   6.695 -0.1476  0.6555 -0.4906
 9598SOL    HW130562   0.167   5.420   6.788 -0.6338  0.1528 -0.3914
 9598SOL    HW230563   0.162   5.304   6.692  0.2085  0.6340 -1.0320
 9599SOL     OW30564   5.036   4.821   3.901  0.2929 -0.0066 -0.5225
 9599SOL    HW130565   5.020   4.764   3.976 -1.2742 -0.9552 -1.5212
 9599SOL    HW230566   5.049   4.760   3.828  1.5029  0.9028 -1.1086
 9600SOL     OW30567   7.332   5.009   2.017  0.4362  0.2348 -0.0879
 9600SOL    HW130568   7.273   5.024   2.091  1.8138  0.2998  1.0456
 9600SOL    HW230569   7.316   5.082   1.957 -0.1249  0.6330  0.5396
 9601SOL     OW30570   0.417   4.777   6.455  0.3294 -0.1124 -0.1392
 9601SOL    HW130571   0.484   4.831   6.496 -0.8492  0.9869  0.4232
 9601SOL    HW230572   0.428   4.792   6.361 -0.4857  1.8298  0.0198
 9602SOL     OW30573   9.547   3.119   8.026  0.4839  0.2766 -0.0755
 9602SOL    HW130574   9.528   3.030   8.055  0.1557  0.4669  0.3123
 9602SOL    HW230575   9.481   3.173   8.070  0.7797  0.7306 -0.1802
 9603SOL     OW30576   7.691   5.106   0.194  0.1243  0.2998  0.5115
 9603SOL    HW130577   7.662   5.137   0.280  0.0595 -0.7755  0.8950
 9603SOL    HW230578   7.736   5.023   0.213  0.0568  0.0233 -0.5012
 9604SOL     OW30579   0.057   3.922   5.320  0.4731 -0.0546 -0.1726
 9604SOL    HW130580   0.116   3.876   5.260  0.1961 -1.0323  0.2771
 9604SOL    HW230581  -0.025   3.931   5.272  0.4458 -0.2744 -0.1673
 9605SOL     OW30582   1.189   8.321   4.431  0.1087  0.5809  0.0345
 9605SOL    HW130583   1.124   8.368   4.378 -0.8902  1.2117  1.7335
 9605SOL    HW230584   1.198   8.374   4.510  1.8947 -0.0871  0.3260
 9606SOL     OW30585   3.449   7.163   5.324 -0.0320 -0.5682 -0.1496
 9606SOL    HW130586   3.484   7.077   5.304 -1.1804 -1.2066  0.4380
 9606SOL    HW230587   3.383   7.147   5.392 -2.4493  0.3461 -2.1237
 9607SOL     OW30588   7.185   2.469   6.289  0.3179 -0.3283  0.3025
 9607SOL    HW130589   7.244   2.432   6.223  1.4518 -1.5141  1.8887
 9607SOL    HW230590   7.098   2.448   6.256  0.8486 -1.1323 -0.7012
 9608SOL     OW30591   9.633   1.002   7.638  0.1211  0.6571  0.5954
 9608SOL    HW130592   9.548   0.960   7.654  0.5799 -0.4159  0.3125
 9608SOL    HW230593   9.624   1.090   7.675 -1.1846  0.6344  0.3590
 9609SOL     OW30594   3.000   8.285   7.245  0.1553 -0.2552 -0.4335
 9609SOL    HW130595   3.089   8.279   7.281 -0.0427 -0.2628  0.0648
 9609SOL    HW230596   3.012   8.283   7.151  0.7281  0.3041 -0.3759
 9610SOL     OW30597   4.733   9.593   3.873  0.2555 -0.5819 -0.0390
 9610SOL    HW130598   4.742   9.686   3.896 -0.7063 -0.4533 -0.1402
 9610SOL    HW230599   4.719   9.549   3.957  0.3185 -0.5859 -0.0304
 9611SOL     OW30600   0.160   9.080   1.145 -0.0526 -0.4894 -0.6074
 9611SOL    HW130601   0.244   9.079   1.098  0.7402  0.0953  0.7402
 9611SOL    HW230602   0.102   9.026   1.092  1.5737 -2.0725 -0.8641
 9612SOL     OW30603   3.949   3.640   7.515  0.2698  0.3936  0.3232
 9612SOL    HW130604   3.918   3.634   7.424  0.6605 -0.3699  0.2292
 9612SOL    HW230605   3.887   3.586   7.564  0.3068  0.4659  0.4494
 9613SOL     OW30606   8.827   0.921   6.545 -0.0575 -0.0417  0.5394
 9613SOL    HW130607   8.917   0.944   6.570 -0.1805  0.6639  0.3468
 9613SOL    HW230608   8.793   1.000   6.504 -1.6430  0.5993  2.8876
 9614SOL     OW30609   0.134   9.634   9.436  0.0762  0.0264 -0.0519
 9614SOL    HW130610   0.141   9.637   9.532 -1.2019  0.0308  0.0626
 9614SOL    HW230611   0.224   9.625   9.405  0.5753  0.7916  1.1241
 9615SOL     OW30612   7.131   7.930   0.041 -0.6624  0.1747  0.3692
 9615SOL    HW130613   7.127   7.912   0.135  0.6199 -2.3679  0.0392
 9615SOL    HW230614   7.040   7.929   0.012 -1.2001  2.4823  1.7487
 9616SOL     OW30615   7.005   0.306   5.923 -1.3396 -0.0872 -0.0080
 9616SOL    HW130616   6.968   0.286   6.009 -0.5953 -1.4684  0.0336
 9616SOL    HW230617   7.008   0.221   5.878 -2.4849  0.7353 -1.7356
 9617SOL     OW30618   2.048   4.920   7.515 -0.0470 -0.0419 -0.3333
 9617SOL    HW130619   2.075   4.860   7.585 -1.1948 -0.0259  0.1616
 9617SOL    HW230620   2.086   4.883   7.435  0.3649 -0.6836  0.1464
 9618SOL     OW30621   7.498   4.133   3.730  0.5507 -0.2558 -0.2486
 9618SOL    HW130622   7.588   4.100   3.726  0.2282 -0.9955 -2.6011
 9618SOL    HW230623   7.454   4.077   3.794  1.2465 -1.2498 -0.6274
 9619SOL     OW30624   4.792   5.513   0.003 -0.2003 -0.3339  0.2303
 9619SOL    HW130625   4.802   5.521  -0.092 -0.5481 -0.4617  0.1793
 9619SOL    HW230626   4.755   5.597   0.030 -0.1091 -0.3005  0.2490
 9620SOL     OW30627   9.197   5.707   9.615  0.4595  0.4709 -0.1571
 9620SOL    HW130628   9.162   5.727   9.702  2.5090 -0.9830  1.0953
 9620SOL    HW230629   9.278   5.759   9.610  0.9420 -0.3048 -0.6994
 9621SOL     OW30630   9.610   8.566   0.223  0.3531  0.0008 -0.2810
 9621SOL    HW130631   9.557   8.563   0.303  1.8463 -0.4795  0.7541
 9621SOL    HW230632   9.608   8.657   0.196  0.4966  0.3484  0.8167
 9622SOL     OW30633   1.978   5.624   7.039  0.3418 -0.7823  0.0484
 9622SOL    HW130634   1.992   5.529   7.037 -0.6840 -0.9398  0.0352
 9622SOL    HW230635   1.939   5.641   7.125 -2.2987 -0.8095 -1.0553
 9623SOL     OW30636   5.842   1.165   7.060 -0.2296  0.1479 -0.6330
 9623SOL    HW130637   5.919   1.124   7.020 -0.1209  0.7847 -1.0947
 9623SOL    HW230638   5.795   1.093   7.101  1.0346 -0.1434  0.3669
 9624SOL     OW30639   5.178   2.809   5.960  0.0935  0.1745 -0.2495
 9624SOL    HW130640   5.132   2.893   5.955 -1.9806 -0.8157  1.0037
 9624SOL    HW230641   5.248   2.824   6.024 -1.1412  0.6004  1.0461
 9625SOL     OW30642   6.608   2.437   5.449  0.0076 -0.0913 -0.7404
 9625SOL    HW130643   6.673   2.404   5.388  0.3056 -1.8236  0.4504
 9625SOL    HW230644   6.647   2.517   5.484  0.2087  0.4427 -2.1052
 9626SOL     OW30645   1.514   0.290   3.946 -0.2191  0.1570 -0.0134
 9626SOL    HW130646   1.494   0.373   3.902 -2.1232  0.2878  1.0361
 9626SOL    HW230647   1.504   0.224   3.878  1.0633  0.7233 -0.7979
 9627SOL     OW30648   9.786   7.214   8.386 -0.1216  0.2771  0.9255
 9627SOL    HW130649   9.724   7.267   8.336 -1.7356 -1.3240  1.1281
 9627SOL    HW230650   9.871   7.253   8.367 -1.1650  2.5709  0.6567
 9628SOL     OW30651   6.248   0.835   0.267 -0.2411 -0.5947  0.1163
 9628SOL    HW130652   6.299   0.760   0.235 -0.4151 -2.0199  2.8931
 9628SOL    HW230653   6.315   0.900   0.292  0.0594 -1.0105  0.4096
 9629SOL     OW30654   6.801   1.006   7.829 -0.3938 -0.8293 -0.6212
 9629SOL    HW130655   6.808   0.942   7.900 -1.1060  1.1959  1.3817
 9629SOL    HW230656   6.727   1.061   7.854 -0.4497  0.1594 -2.7989
 9630SOL     OW30657   2.398   7.954   2.417 -0.4015 -0.0857 -0.6273
 9630SOL    HW130658   2.449   8.004   2.353 -0.4910  0.6063 -0.1703
 9630SOL    HW230659   2.421   7.863   2.400  2.6102  0.2783  0.9102
 9631SOL     OW30660   9.428   3.818   2.056 -0.0649 -0.2452 -0.2598
 9631SOL    HW130661   9.518   3.839   2.081 -0.3382 -1.9922  2.6803
 9631SOL    HW230662   9.377   3.894   2.081  0.2064 -0.5169  1.1992
 9632SOL     OW30663   2.735   9.548   8.571  0.4156  0.3158 -0.5071
 9632SOL    HW130664   2.703   9.635   8.549  0.6816  0.8856  1.2166
 9632SOL    HW230665   2.773   9.514   8.489  0.0956  1.7104 -1.2511
 9633SOL     OW30666   1.186   6.782   9.341  0.3841 -0.4090  0.1283
 9633SOL    HW130667   1.246   6.832   9.286  1.4932  0.2646  1.8446
 9633SOL    HW230668   1.186   6.830   9.424 -2.5232 -0.4133  0.2230
 9634SOL     OW30669   3.204   9.619   6.943  0.2321 -0.2722  0.6301
 9634SOL    HW130670   3.290   9.648   6.973 -0.0491  1.3690 -0.0630
 9634SOL    HW230671   3.142   9.663   7.001 -0.1713 -0.6978  0.5253
 9635SOL     OW30672   3.125   0.478   1.383  0.2842 -0.2131  0.4808
 9635SOL    HW130673   3.061   0.541   1.416  0.6166  0.3863 -0.0143
 9635SOL    HW230674   3.117   0.403   1.443 -0.7129 -0.0562  0.5654
 9636SOL     OW30675   7.042   6.143   0.169  0.4173 -0.5071  0.1050
 9636SOL    HW130676   6.986   6.216   0.140  0.3066 -0.8745 -0.6330
 9636SOL    HW230677   7.015   6.126   0.259  1.5788  1.4551  0.8988
 9637SOL     OW30678   0.020   1.339   6.191  0.4518  0.0298  0.1332
 9637SOL    HW130679   0.005   1.368   6.281  0.7341  0.3108  0.0919
 9637SOL    HW230680  -0.068   1.318   6.157  0.4391 -0.9728  0.7679
 9638SOL     OW30681   8.978   4.202   0.741  0.3135 -0.5879 -0.6142
 9638SOL    HW130682   8.936   4.190   0.826  2.2880 -1.5059  0.2928
 9638SOL    HW230683   8.929   4.146   0.681 -1.2994  0.3145 -0.1892
 9639SOL     OW30684   6.988   3.400   1.308  1.1056 -0.1213 -0.1801
 9639SOL    HW130685   6.932   3.356   1.244  0.8804  0.8214 -0.6516
 9639SOL    HW230686   7.017   3.330   1.366  1.2543 -0.9908 -1.2619
 9640SOL     OW30687   8.136   4.332   7.786  0.3512  0.1142  0.0713
 9640SOL    HW130688   8.194   4.280   7.840  0.0239 -0.2632  0.0690
 9640SOL    HW230689   8.115   4.409   7.839  0.1186 -0.1998  0.4387
 9641SOL     OW30690   1.057   1.003   0.926  0.8405 -0.2722  0.1857
 9641SOL    HW130691   1.143   1.045   0.917 -0.1227  2.0504  0.9329
 9641SOL    HW230692   1.032   0.979   0.837  1.4634  0.7393 -0.2795
 9642SOL     OW30693   6.552   7.609   4.888  0.5163 -0.5427 -0.3320
 9642SOL    HW130694   6.552   7.689   4.835  4.3552 -0.7593 -0.9623
 9642SOL    HW230695   6.596   7.544   4.832 -0.9455 -2.6526  0.8294
 9643SOL     OW30696   6.453   3.262   3.592  0.3796 -0.0188  0.6304
 9643SOL    HW130697   6.453   3.199   3.664 -0.1533  0.0310  0.6798
 9643SOL    HW230698   6.545   3.276   3.572  0.4955 -0.9153  0.5264
 9644SOL     OW30699   7.776   8.261   0.359 -0.2412 -1.0503 -0.6835
 9644SOL    HW130700   7.700   8.316   0.381  0.1767 -0.8245  0.2598
 9644SOL    HW230701   7.745   8.171   0.372 -0.6086 -0.9933 -1.1620
 9645SOL     OW30702   7.563   2.479   6.076 -0.1886 -0.3154 -0.3954
 9645SOL    HW130703   7.615   2.429   6.138  0.0617 -0.6086 -0.8363
 9645SOL    HW230704   7.584   2.441   5.990 -0.3943  0.1935 -0.6783
 9646SOL     OW30705   0.681   5.524   1.110  0.1881 -0.4538 -0.6147
 9646SOL    HW130706   0.678   5.612   1.147  0.7350 -0.8146  0.3305
 9646SOL    HW230707   0.742   5.531   1.037  0.8576 -0.2077 -0.0470
 9647SOL     OW30708   8.144   6.276   9.343 -0.4020 -0.5778  0.3686
 9647SOL    HW130709   8.124   6.364   9.310  1.3299 -0.5594 -0.7378
 9647SOL    HW230710   8.129   6.282   9.437  0.0685  1.0222  0.3691
 9648SOL     OW30711   2.776   0.556   7.648 -0.2069 -0.1211 -0.2809
 9648SOL    HW130712   2.809   0.552   7.558  0.7067 -0.2613  0.0538
 9648SOL    HW230713   2.721   0.635   7.650  0.7180  0.5558 -0.6554
 9649SOL     OW30714   8.275   7.045   6.592  0.2465 -0.5019  0.5638
 9649SOL    HW130715   8.249   7.106   6.523  0.9125 -0.2698  0.5067
 9649SOL    HW230716   8.294   6.963   6.546 -1.8034 -1.1426  0.7697
 9650SOL     OW30717   0.461   6.376   5.154 -0.2437 -0.3748 -0.0691
 9650SOL    HW130718   0.531   6.419   5.203 -0.9491  2.9003 -1.6303
 9650SOL    HW230719   0.426   6.311   5.214  0.3576  1.8732  2.9346
 9651SOL     OW30720   5.192   5.857   9.550  0.5186  0.1210  0.2639
 9651SOL    HW130721   5.272   5.808   9.533  1.8134  2.8268 -2.2926
 9651SOL    HW230722   5.197   5.881   9.642  0.4311 -3.2400  1.2937
 9652SOL     OW30723   1.901   5.742   4.170 -0.4240 -0.0941 -0.4510
 9652SOL    HW130724   1.942   5.772   4.089 -1.5169 -0.0397 -0.9869
 9652SOL    HW230725   1.857   5.819   4.205  2.2531  0.6556  1.6684
 9653SOL     OW30726   5.078   1.670   3.072  0.2064  0.3822 -0.0291
 9653SOL    HW130727   5.063   1.613   2.996  1.5325 -1.4811  1.0329
 9653SOL    HW230728   5.131   1.742   3.038 -2.1228  1.5128 -1.5669
 9654SOL     OW30729   7.419   5.992   7.932  0.0783 -0.6074  0.2498
 9654SOL    HW130730   7.429   5.985   7.837 -0.5020  0.8561  0.0532
 9654SOL    HW230731   7.462   6.075   7.954  0.1798 -0.9173  1.2758
 9655SOL     OW30732   6.964   0.483   3.861 -0.0137 -0.6140 -0.2501
 9655SOL    HW130733   6.965   0.555   3.797 -0.3955 -2.6807 -2.7247
 9655SOL    HW230734   6.873   0.452   3.861 -0.1452 -0.3633  1.7420
 9656SOL     OW30735   9.434   0.736   9.768 -0.1808  0.2482 -0.0197
 9656SOL    HW130736   9.515   0.776   9.800 -0.0504  0.5332 -0.7087
 9656SOL    HW230737   9.378   0.810   9.745 -0.2320  0.0430 -0.5596
 9657SOL     OW30738   1.044   9.031   2.944  0.0781 -0.0892 -0.1608
 9657SOL    HW130739   1.007   9.117   2.963  0.9210  0.8252 -2.2717
 9657SOL    HW230740   1.114   9.021   3.009 -2.2283 -0.8163  2.3572
 9658SOL     OW30741   7.994   6.823   3.436  0.8055 -0.9023  0.3490
 9658SOL    HW130742   8.061   6.877   3.393 -2.2901  2.3352 -0.8946
 9658SOL    HW230743   7.958   6.880   3.504 -2.3450 -1.4709 -0.7005
 9659SOL     OW30744   3.182   1.842   6.415  0.0992  0.7005  0.3802
 9659SOL    HW130745   3.195   1.873   6.504 -1.2228  2.6070 -0.0471
 9659SOL    HW230746   3.252   1.884   6.364 -0.7385  1.7938  0.0858
 9660SOL     OW30747   7.346   4.170   6.464 -0.4980  0.2161  0.1448
 9660SOL    HW130748   7.361   4.171   6.559 -2.8530  1.0090  0.5858
 9660SOL    HW230749   7.373   4.258   6.435  2.0208 -0.6335 -0.3253
 9661SOL     OW30750   5.622   5.383   2.334 -0.5283 -0.2747 -0.3201
 9661SOL    HW130751   5.603   5.290   2.341  0.7761 -0.5558 -0.1746
 9661SOL    HW230752   5.619   5.414   2.425  1.5727 -0.7444 -0.0472
 9662SOL     OW30753   3.342   9.323   4.590 -0.0786  0.3304 -0.2289
 9662SOL    HW130754   3.330   9.413   4.621 -1.1052  0.4411 -0.8923
 9662SOL    HW230755   3.417   9.329   4.530 -1.6212  1.2809 -2.1910
 9663SOL     OW30756   1.962   3.503   2.092  0.2747  0.2911  0.4331
 9663SOL    HW130757   1.978   3.590   2.056  0.3465 -0.7787 -2.3434
 9663SOL    HW230758   1.871   3.484   2.067  1.3953 -1.8864 -2.5937
 9664SOL     OW30759   5.655   8.967   9.506  0.0150  0.6059 -0.1076
 9664SOL    HW130760   5.633   8.930   9.592  0.1754 -1.9436 -1.0698
 9664SOL    HW230761   5.572   8.997   9.470 -0.5376 -0.8567 -0.1370
 9665SOL     OW30762   4.526   6.480   8.150 -0.0391  0.2684 -0.6678
 9665SOL    HW130763   4.597   6.447   8.205 -1.0029 -2.4114 -0.9110
 9665SOL    HW230764   4.562   6.481   8.062  0.3729  1.1328 -0.5061
 9666SOL     OW30765   4.146   9.680   7.996 -0.2168  0.9370 -0.2806
 9666SOL    HW130766   4.228   9.690   8.045  0.3531  0.5462 -1.1259
 9666SOL    HW230767   4.078   9.671   8.063  0.8634 -2.5216  0.5146
 9667SOL     OW30768   3.377   7.008   1.718  0.1470  0.2654  0.3580
 9667SOL    HW130769   3.419   6.947   1.778 -0.1424  0.8176  1.1449
 9667SOL    HW230770   3.285   6.981   1.717  0.5054 -1.0405 -1.4819
 9668SOL     OW30771   9.092   9.793   4.869  0.2847 -0.6240  0.3558
 9668SOL    HW130772   9.054   9.787   4.957 -1.0680  0.3796 -0.1181
 9668SOL    HW230773   9.184   9.813   4.884 -0.1832  0.8438  1.5476
 9669SOL     OW30774   1.493   0.185   8.428  0.1483  0.0316 -0.4281
 9669SOL    HW130775   1.491   0.147   8.340  1.1055 -1.9375  0.3319
 9669SOL    HW230776   1.586   0.190   8.450 -0.0946  0.1051  0.6405
 9670SOL     OW30777   0.228   6.062   4.171 -0.3263 -0.9182  0.1336
 9670SOL    HW130778   0.186   6.105   4.097  0.2089 -0.7436 -0.0697
 9670SOL    HW230779   0.230   6.128   4.240  0.0772 -0.7667 -0.0252
 9671SOL     OW30780   4.405   0.843   0.109  0.0236  0.6548  0.2386
 9671SOL    HW130781   4.405   0.809   0.020 -0.7417  1.2968 -0.0201
 9671SOL    HW230782   4.498   0.857   0.129  0.1321  1.8864 -0.9969
 9672SOL     OW30783   4.407   3.461   7.660  0.6302  0.2447 -0.3703
 9672SOL    HW130784   4.403   3.459   7.756  0.0126  0.6504 -0.3815
 9672SOL    HW230785   4.476   3.523   7.639  0.1116  0.8925 -0.1870
 9673SOL     OW30786   6.970   2.198   4.158 -0.0644  0.3391  0.6789
 9673SOL    HW130787   6.882   2.220   4.127 -0.2956 -3.1388 -1.5569
 9673SOL    HW230788   7.026   2.206   4.081  0.9197 -0.7350  1.2545
 9674SOL     OW30789   3.876   5.041   3.348 -0.2930 -0.2642 -0.2647
 9674SOL    HW130790   3.792   5.055   3.305 -1.2118 -0.1366  1.4959
 9674SOL    HW230791   3.883   5.112   3.412  1.5953  0.2586 -0.9738
 9675SOL     OW30792   1.991   4.239   2.660 -0.0329 -0.0027 -0.3845
 9675SOL    HW130793   2.018   4.313   2.714 -0.1291 -0.0496 -0.2728
 9675SOL    HW230794   2.061   4.230   2.595  1.3271 -1.4838  1.2000
 9676SOL     OW30795   3.419   0.229   0.849 -0.2514  0.1585 -0.1931
 9676SOL    HW130796   3.357   0.244   0.777 -0.6159 -0.9016 -0.1182
 9676SOL    HW230797   3.438   0.135   0.845  0.0190  0.1582  0.8585
 9677SOL     OW30798   2.565   2.831   2.282  0.3370  0.2187  0.2312
 9677SOL    HW130799   2.640   2.888   2.299  0.5544  0.1499 -0.4727
 9677SOL    HW230800   2.555   2.780   2.363  2.2325 -1.1033 -0.3044
 9678SOL     OW30801   0.989   4.319   0.535 -0.1521  0.4372 -0.3374
 9678SOL    HW130802   1.053   4.354   0.597 -2.3440  1.0037  1.7775
 9678SOL    HW230803   0.979   4.227   0.561 -1.2885  0.7498  0.3900
 9679SOL     OW30804   1.507   3.157   9.623  0.7686  0.3614 -1.1659
 9679SOL    HW130805   1.503   3.215   9.700  0.0208 -0.3009 -0.6943
 9679SOL    HW230806   1.600   3.158   9.598  0.6270  2.6689 -1.8878
 9680SOL     OW30807   1.893   8.573   1.252  0.0726  0.0725 -0.2051
 9680SOL    HW130808   1.814   8.571   1.306 -0.8339 -0.9780 -1.5085
 9680SOL    HW230809   1.897   8.662   1.218 -1.4557 -0.2640 -1.3689
 9681SOL     OW30810   3.427   2.858   1.341  0.0927 -0.3584  0.1948
 9681SOL    HW130811   3.485   2.909   1.285 -1.1488  1.6073  0.6163
 9681SOL    HW230812   3.450   2.884   1.430 -0.0410 -1.1247  0.4610
 9682SOL     OW30813   1.398   7.004   3.984  0.3172 -0.5278  0.0897
 9682SOL    HW130814   1.397   7.092   3.945  0.4654 -0.4391  0.2802
 9682SOL    HW230815   1.411   7.020   4.078 -1.5415 -0.6702  0.4012
 9683SOL     OW30816   6.636   7.752   5.797 -0.4710 -0.1154  0.3179
 9683SOL    HW130817   6.632   7.755   5.702 -0.8395 -1.0320  0.2909
 9683SOL    HW230818   6.586   7.673   5.821  1.5644 -1.2225  1.1435
 9684SOL     OW30819   6.557   8.511   1.567  0.0890 -0.2064 -0.0051
 9684SOL    HW130820   6.482   8.535   1.621 -1.4009 -0.1004 -2.0050
 9684SOL    HW230821   6.527   8.437   1.515  1.2177  0.0824 -1.1365
 9685SOL     OW30822   4.072   8.936   1.437 -0.5554 -0.0786  0.0240
 9685SOL    HW130823   4.102   8.924   1.347 -0.0421 -0.4636  0.2434
 9685SOL    HW230824   4.124   9.009   1.470 -1.0344  0.3326 -0.1185
 9686SOL     OW30825   7.311   3.194   2.290 -1.0742 -0.2197  0.0323
 9686SOL    HW130826   7.233   3.213   2.238  0.6617  0.9198 -2.3733
 9686SOL    HW230827   7.361   3.132   2.235 -0.4490 -1.2780  1.7111
 9687SOL     OW30828   1.184   1.296   6.862  0.4220  0.0725  0.1627
 9687SOL    HW130829   1.252   1.358   6.838 -0.2735  0.3835 -1.0998
 9687SOL    HW230830   1.121   1.300   6.790 -1.2539  0.2482  1.5762
 9688SOL     OW30831   9.703   7.493   5.186  0.4213  0.0779  0.1690
 9688SOL    HW130832   9.654   7.514   5.265 -1.2416 -1.2110 -0.4824
 9688SOL    HW230833   9.757   7.418   5.210  2.3446  1.5806  0.9278
 9689SOL     OW30834   5.629   4.542   3.488  0.3211  0.0768 -0.1830
 9689SOL    HW130835   5.576   4.550   3.408 -0.3258 -1.0619  0.1156
 9689SOL    HW230836   5.661   4.631   3.504 -0.2723  0.4953 -1.2054
 9690SOL     OW30837   1.518   7.053   4.236 -0.0004  0.0826  0.0230
 9690SOL    HW130838   1.509   7.141   4.273 -2.9357 -0.5458  1.0601
 9690SOL    HW230839   1.541   6.997   4.310 -0.9871 -0.4190 -0.0241
 9691SOL     OW30840   1.463   7.079   2.004 -0.0174 -0.2065 -0.2658
 9691SOL    HW130841   1.419   7.082   2.089 -0.1414 -0.1700 -0.3322
 9691SOL    HW230842   1.553   7.106   2.023  0.1253 -0.8316 -0.0302
 9692SOL     OW30843   6.867   1.041   8.765 -0.0615 -0.4962  0.1607
 9692SOL    HW130844   6.858   1.045   8.861 -0.9747 -1.5020  0.1383
 9692SOL    HW230845   6.868   0.948   8.745  0.4925 -0.2953 -0.7916
 9693SOL     OW30846   9.554   8.664   8.001  0.0170 -0.5805 -0.5414
 9693SOL    HW130847   9.576   8.595   8.063 -0.6203  0.3544  0.7812
 9693SOL    HW230848   9.552   8.744   8.054  1.2721  0.5631 -2.1267
 9694SOL     OW30849   7.214   5.275   0.693 -0.2408  0.9635 -0.4185
 9694SOL    HW130850   7.158   5.345   0.660 -0.5368  0.3800 -1.1961
 9694SOL    HW230851   7.248   5.308   0.776  3.5953  4.1686 -2.8632
 9695SOL     OW30852   8.779   3.007   9.166 -0.0357 -0.0244  0.5857
 9695SOL    HW130853   8.861   2.960   9.179 -0.7137 -0.6949  2.7237
 9695SOL    HW230854   8.791   3.089   9.214  0.1997  0.9387 -1.0322
 9696SOL     OW30855   2.520   4.023   2.788  0.1081 -0.1115  0.3654
 9696SOL    HW130856   2.576   4.095   2.815  1.3041 -0.1608 -1.7545
 9696SOL    HW230857   2.458   4.062   2.727  0.9386 -0.8860 -1.0098
 9697SOL     OW30858   9.592   4.805   1.167 -0.0859  0.0932 -0.2234
 9697SOL    HW130859   9.539   4.885   1.164 -0.3515 -0.0995 -0.8793
 9697SOL    HW230860   9.560   4.753   1.093 -0.1818 -0.7877  0.4211
 9698SOL     OW30861   0.677   5.336   3.694  0.3258 -0.1845  0.4124
 9698SOL    HW130862   0.676   5.371   3.605  1.7955  0.8462  0.7595
 9698SOL    HW230863   0.750   5.274   3.695  0.7529  0.3114  1.0592
 9699SOL     OW30864   4.267   0.951   4.886 -0.2522  1.0803  0.0707
 9699SOL    HW130865   4.332   0.893   4.846 -1.2597  1.4863 -2.3276
 9699SOL    HW230866   4.307   0.978   4.969  1.6406 -0.4342 -0.2771
 9700SOL     OW30867   2.936   2.714   0.558 -0.4312  0.4263  0.6213
 9700SOL    HW130868   3.008   2.668   0.602 -1.6075 -0.6156  1.5501
 9700SOL    HW230869   2.974   2.798   0.533  1.3487 -0.4078  0.2988
 9701SOL     OW30870   6.798   2.449   7.506  0.5584 -0.1641 -0.0108
 9701SOL    HW130871   6.879   2.428   7.458  0.1634  0.9070 -1.2130
 9701SOL    HW230872   6.730   2.401   7.460  0.5255 -1.3214  1.2022
 9702SOL     OW30873   4.657   3.845   4.835 -0.0592 -0.2133 -0.5761
 9702SOL    HW130874   4.671   3.808   4.748  0.4285 -2.3234  0.3470
 9702SOL    HW230875   4.669   3.771   4.895 -3.4234  0.4428  1.1275
 9703SOL     OW30876   8.279   0.467   7.234 -0.2689  0.3413  0.1953
 9703SOL    HW130877   8.332   0.491   7.309  0.4864  1.6296 -0.7274
 9703SOL    HW230878   8.320   0.387   7.200 -1.3205 -0.9627  1.7981
 9704SOL     OW30879   5.772   4.554   7.622  0.4809  0.2055 -0.3441
 9704SOL    HW130880   5.828   4.631   7.612 -0.1666  0.5428 -1.5672
 9704SOL    HW230881   5.688   4.581   7.586 -0.3143 -0.4871  0.9223
 9705SOL     OW30882   5.610   3.080   7.533  0.5230  0.3173 -0.0398
 9705SOL    HW130883   5.582   3.080   7.625 -1.4038  0.3176 -0.5775
 9705SOL    HW230884   5.685   3.020   7.530 -1.6541 -2.6944  0.9334
 9706SOL     OW30885   6.737   7.601   0.867 -0.4682 -0.2362  0.5319
 9706SOL    HW130886   6.832   7.607   0.854 -0.3980 -0.7958  0.7470
 9706SOL    HW230887   6.728   7.569   0.957 -0.7913 -2.6541 -0.2917
 9707SOL     OW30888   0.718   7.396   0.720  0.3693  0.1459 -0.3039
 9707SOL    HW130889   0.715   7.470   0.779 -1.0643 -0.3477  0.2895
 9707SOL    HW230890   0.777   7.333   0.762 -0.5731 -0.1679  0.6084
 9708SOL     OW30891   0.084   0.004   5.791 -0.3077 -0.9066 -0.0002
 9708SOL    HW130892   0.130  -0.065   5.744 -0.4724 -1.1572  0.2001
 9708SOL    HW230893  -0.006  -0.002   5.759 -0.3847 -0.9743  0.2245
 9709SOL     OW30894   9.003   2.928   7.763  0.4848  0.3886  0.2070
 9709SOL    HW130895   8.944   2.855   7.745 -0.4876  0.7744  1.7204
 9709SOL    HW230896   8.980   2.994   7.698  0.7078 -0.2531 -0.5444
 9710SOL     OW30897   0.062   1.034   0.723  0.0796 -0.4317  0.3127
 9710SOL    HW130898   0.030   1.069   0.640  2.1457 -0.7385 -0.6934
 9710SOL    HW230899   0.134   1.093   0.747 -0.3734 -0.4490  1.8242
 9711SOL     OW30900   0.522   1.411   0.078 -0.3396 -0.1596 -0.1291
 9711SOL    HW130901   0.605   1.405   0.032 -1.1092 -0.3366 -1.5535
 9711SOL    HW230902   0.546   1.433   0.168  1.1671  0.9472 -0.7587
 9712SOL     OW30903   0.179   2.629   8.582 -0.0712 -0.0733  0.1022
 9712SOL    HW130904   0.095   2.613   8.624 -0.1539  0.6703  0.2403
 9712SOL    HW230905   0.157   2.658   8.494  0.0609 -0.5097 -0.0737
 9713SOL     OW30906   5.764   7.899   1.375  0.1475 -0.0386  0.0288
 9713SOL    HW130907   5.681   7.911   1.420 -0.5216  1.8113 -1.5484
 9713SOL    HW230908   5.787   7.808   1.390 -0.7630  0.1006  2.7854
 9714SOL     OW30909   5.992   6.580   5.348 -0.4176  0.3559 -1.0372
 9714SOL    HW130910   5.937   6.651   5.316 -0.8835  0.0909 -0.8517
 9714SOL    HW230911   5.939   6.539   5.417  1.1568  1.8893  1.2063
 9715SOL     OW30912   2.320   0.272   4.606 -0.2206  0.0484  0.0390
 9715SOL    HW130913   2.225   0.271   4.611 -0.2184  0.9448  0.6192
 9715SOL    HW230914   2.341   0.360   4.572  0.4138  0.1439  0.6447
 9716SOL     OW30915   3.127   4.405   6.401  1.0290 -0.5205  0.0010
 9716SOL    HW130916   3.166   4.431   6.485  0.0579  1.7387 -0.1737
 9716SOL    HW230917   3.039   4.376   6.424  0.4522  0.9266 -0.2733
 9717SOL     OW30918   6.535   3.577   7.745  0.8562  0.0987  0.0572
 9717SOL    HW130919   6.566   3.610   7.829  1.5532  1.1026 -0.5705
 9717SOL    HW230920   6.612   3.582   7.688  1.0752 -2.8392 -0.0439
 9718SOL     OW30921   6.676   0.799   5.640 -0.2898 -0.0050 -0.1418
 9718SOL    HW130922   6.658   0.893   5.645 -0.7083 -0.1148  0.4315
 9718SOL    HW230923   6.601   0.763   5.593  0.0923  0.0050 -0.7704
 9719SOL     OW30924   6.676   7.937   9.130  0.5606 -0.3675 -0.5409
 9719SOL    HW130925   6.659   7.908   9.040  0.2377 -0.7532 -0.3605
 9719SOL    HW230926   6.752   7.887   9.158 -0.8619 -2.1754  0.2736
 9720SOL     OW30927   0.086   4.273   6.336  0.4715  0.2773 -0.0073
 9720SOL    HW130928   0.094   4.351   6.281  2.5628 -0.6707 -1.1303
 9720SOL    HW230929   0.174   4.236   6.338 -0.3021 -1.5997  1.1961
 9721SOL     OW30930   5.086   8.115   6.781 -0.9036 -0.1363  0.6929
 9721SOL    HW130931   5.117   8.076   6.700  1.9760  0.8720  1.1942
 9721SOL    HW230932   5.121   8.058   6.850  1.2118  1.7969  1.3303
 9722SOL     OW30933   9.577   8.292   7.008 -0.1449 -0.2719  0.5806
 9722SOL    HW130934   9.569   8.259   7.097  1.0155  1.2743  1.2966
 9722SOL    HW230935   9.671   8.290   6.989 -0.2902  0.2574 -0.2671
 9723SOL     OW30936   6.521   1.966   4.444  0.1137 -0.2108 -0.6048
 9723SOL    HW130937   6.555   2.037   4.390  1.9115  0.0913  0.8146
 9723SOL    HW230938   6.527   1.888   4.389  1.2065  0.2169 -1.1096
 9724SOL     OW30939   2.910   8.244   2.021 -0.1429  0.1306 -0.0923
 9724SOL    HW130940   2.850   8.234   1.947  0.4340 -0.1263 -0.5431
 9724SOL    HW230941   2.860   8.215   2.097 -0.1525 -1.4236 -0.6525
 9725SOL     OW30942   9.202   8.560   5.266 -0.4464 -0.1011 -0.3633
 9725SOL    HW130943   9.196   8.616   5.189  0.3248 -0.6768 -0.8529
 9725SOL    HW230944   9.290   8.522   5.262 -0.1440  0.3508  1.1375
 9726SOL     OW30945   8.879   1.438   3.672 -0.5850  0.4699 -0.0021
 9726SOL    HW130946   8.949   1.446   3.608  1.3544 -0.1265  1.9062
 9726SOL    HW230947   8.852   1.346   3.668 -1.7388  0.8262 -1.1403
 9727SOL     OW30948   9.754   2.357   5.943  0.2124 -0.1014 -0.0370
 9727SOL    HW130949   9.797   2.359   5.858  0.6228 -0.1683  0.1704
 9727SOL    HW230950   9.720   2.268   5.952  0.4397 -0.1823  0.0074
 9728SOL     OW30951   7.967   5.646   4.073 -0.1169 -0.0958  0.2220
 9728SOL    HW130952   7.929   5.722   4.116  0.0367 -0.1356  0.4255
 9728SOL    HW230953   7.990   5.586   4.144  1.8951  0.6247  0.2429
 9729SOL     OW30954   7.366   5.777   8.057 -0.4109  0.6878  0.1755
 9729SOL    HW130955   7.297   5.724   8.015 -0.4796  2.1095 -1.5982
 9729SOL    HW230956   7.388   5.844   7.993  1.8457  0.9871  1.1697
 9730SOL     OW30957   6.959   6.495   2.269 -0.5303 -0.8832 -0.2065
 9730SOL    HW130958   7.033   6.437   2.290 -1.2681 -1.9326 -0.3828
 9730SOL    HW230959   6.965   6.566   2.332 -0.3746 -1.8711  0.9326
 9731SOL     OW30960   2.738   4.873   4.267 -0.1797 -0.2911  0.5758
 9731SOL    HW130961   2.826   4.891   4.234 -0.1620  0.4395  0.9874
 9731SOL    HW230962   2.690   4.842   4.191  0.4058 -0.5855  0.3215
 9732SOL     OW30963   5.407   8.576   4.419  0.4454 -0.6347 -0.6553
 9732SOL    HW130964   5.453   8.538   4.344  1.1349 -0.5750 -0.2650
 9732SOL    HW230965   5.446   8.534   4.495  0.6518  0.2569 -0.2563
 9733SOL     OW30966   3.403   2.009   8.123  0.4821 -0.4746 -0.5832
 9733SOL    HW130967   3.409   1.932   8.067 -0.6142 -0.2854 -0.9785
 9733SOL    HW230968   3.454   1.986   8.201  2.8690 -0.3824 -2.0059
 9734SOL     OW30969   5.074   2.906   2.415 -0.1595 -0.1247 -0.3183
 9734SOL    HW130970   5.079   2.981   2.355 -0.1673  0.8241  0.8361
 9734SOL    HW230971   4.983   2.904   2.443  0.2012  0.4965  0.9567
 9735SOL     OW30972   6.099   1.872   4.525  0.0330 -1.0766  0.2199
 9735SOL    HW130973   6.168   1.821   4.566  1.2216 -0.4996 -0.9914
 9735SOL    HW230974   6.135   1.961   4.517 -2.3480  0.3568  3.2442
 9736SOL     OW30975   5.746   8.802   1.196 -0.0447  0.1074  0.9093
 9736SOL    HW130976   5.756   8.774   1.105 -1.5924 -2.6239  1.4733
 9736SOL    HW230977   5.708   8.890   1.190  1.0413  0.4966 -1.0406
 9737SOL     OW30978   9.719   4.842   0.792  0.0771  0.1190 -0.0970
 9737SOL    HW130979   9.631   4.806   0.805 -0.8045  1.6435 -1.4405
 9737SOL    HW230980   9.734   4.897   0.869  0.9176 -2.0000  1.3448
 9738SOL     OW30981   9.182   6.933   6.558 -0.2542 -0.1902  0.3195
 9738SOL    HW130982   9.188   6.837   6.560  0.1566 -0.1524  1.2336
 9738SOL    HW230983   9.174   6.954   6.465 -1.2981 -1.1617  0.1669
 9739SOL     OW30984   6.334   6.023   8.101 -0.0344 -0.4179 -0.3330
 9739SOL    HW130985   6.291   6.103   8.071  1.1532 -0.3192 -1.9224
 9739SOL    HW230986   6.299   6.008   8.188  0.9083  2.7740  0.7561
 9740SOL     OW30987   6.883   1.439   4.235  0.5900  0.1563 -0.0254
 9740SOL    HW130988   6.820   1.412   4.168  2.6156 -1.1340 -1.5578
 9740SOL    HW230989   6.954   1.481   4.185  0.9009  1.6971  1.6288
 9741SOL     OW30990   0.292   2.870   1.923 -0.1695  0.2389 -0.0198
 9741SOL    HW130991   0.313   2.849   2.014  0.0981  0.0454 -0.1233
 9741SOL    HW230992   0.354   2.819   1.872  0.0727  0.7910 -0.2940
 9742SOL     OW30993   8.814   2.143   9.840  0.5158 -0.4745  0.7644
 9742SOL    HW130994   8.864   2.212   9.797 -0.7600 -1.1865 -2.0523
 9742SOL    HW230995   8.868   2.118   9.915  2.1724  1.8362  0.4541
 9743SOL     OW30996   0.615   8.337   1.672  0.1328  0.1726 -0.4329
 9743SOL    HW130997   0.547   8.401   1.692 -1.4987 -1.5522 -0.2486
 9743SOL    HW230998   0.689   8.390   1.642 -0.1247  2.3416  2.3742
 9744SOL     OW30999   9.471   8.037   2.464  0.2730 -0.5237  0.0984
 9744SOL    HW131000   9.427   8.122   2.460 -0.9814 -1.0876  0.9975
 9744SOL    HW231001   9.491   8.025   2.557 -0.6691 -1.7142  0.1793
 9745SOL     OW31002   3.737   9.084   5.159  0.8296  0.0239  0.5232
 9745SOL    HW131003   3.729   9.129   5.242  0.7064 -1.4167  1.3294
 9745SOL    HW231004   3.672   9.125   5.103 -0.9915 -0.7291  1.9830
 9746SOL     OW31005   4.180   2.486   6.975 -0.4534  0.6141 -0.7005
 9746SOL    HW131006   4.228   2.411   6.940 -1.1015  0.1856 -0.6940
 9746SOL    HW231007   4.161   2.462   7.066 -1.0988  0.5628 -0.8428
 9747SOL     OW31008   6.528   6.492   3.488 -0.4192  0.1306 -0.1414
 9747SOL    HW131009   6.478   6.562   3.530 -1.3358  0.5238 -1.8034
 9747SOL    HW231010   6.612   6.493   3.533 -1.2564  0.6368  1.5325
 9748SOL     OW31011   1.575   9.693   2.518  0.2154 -0.0271 -0.4778
 9748SOL    HW131012   1.537   9.693   2.605  0.7915  1.2861 -0.1991
 9748SOL    HW231013   1.542   9.774   2.478  1.2466  0.2087 -0.8758
 9749SOL     OW31014   0.650   3.278   4.961  0.1578  0.2886  0.1583
 9749SOL    HW131015   0.627   3.213   5.028 -1.1520 -2.3583 -2.5612
 9749SOL    HW231016   0.565   3.310   4.929  0.4734 -1.2061 -2.4933
 9750SOL     OW31017   6.840   5.078   7.351 -0.2291 -0.0992 -0.3766
 9750SOL    HW131018   6.834   5.065   7.446  0.1624 -2.6911 -0.6485
 9750SOL    HW231019   6.749   5.084   7.322 -0.3695  2.7448  0.3031
 9751SOL     OW31020   2.231   6.015   7.965 -0.1372  0.3303 -0.3743
 9751SOL    HW131021   2.139   5.993   7.947 -0.2229 -0.5179  0.9195
 9751SOL    HW231022   2.226   6.100   8.009 -0.2367  0.6380 -0.9755
 9752SOL     OW31023   3.418   3.558   6.788  0.0798 -0.0106  0.0247
 9752SOL    HW131024   3.463   3.640   6.807  1.1825 -0.6191  0.1148
 9752SOL    HW231025   3.432   3.544   6.694 -0.5432  0.1449 -0.1000
 9753SOL     OW31026   0.371   4.892   6.903 -0.5383  0.6620  0.2560
 9753SOL    HW131027   0.415   4.813   6.872 -0.7634  0.7850 -0.3911
 9753SOL    HW231028   0.317   4.920   6.829  0.2247  1.9137  0.1436
 9754SOL     OW31029   1.532   4.183   8.460  0.1550  0.7188 -0.2258
 9754SOL    HW131030   1.458   4.221   8.508  0.3874  2.4027 -1.1412
 9754SOL    HW231031   1.492   4.116   8.404 -0.3239 -0.1154  1.0712
 9755SOL     OW31032   6.588   9.163   1.732  0.1047 -0.0279  0.0497
 9755SOL    HW131033   6.627   9.128   1.653 -0.4089 -2.6226  0.8633
 9755SOL    HW231034   6.498   9.130   1.732  0.6267 -1.7546  2.5807
 9756SOL     OW31035   7.336   7.654   1.499  0.1006 -0.1141 -0.5133
 9756SOL    HW131036   7.298   7.732   1.540  0.6495 -0.1580  0.0892
 9756SOL    HW231037   7.384   7.687   1.424  0.8118  0.1996  0.0708
 9757SOL     OW31038   6.662   1.498   6.373  0.1129 -0.1376  0.3592
 9757SOL    HW131039   6.663   1.403   6.378  2.0757 -0.0912  1.8995
 9757SOL    HW231040   6.754   1.524   6.373 -0.3581  1.7564 -0.5786
 9758SOL     OW31041   0.143   5.772   1.009  0.5178 -0.6182  0.4023
 9758SOL    HW131042   0.141   5.867   1.020  0.1982 -0.3886 -1.4133
 9758SOL    HW231043   0.233   5.753   0.982  0.2751 -0.6955 -0.3497
 9759SOL     OW31044   1.634   6.853   4.041 -0.3264  0.0984  0.0700
 9759SOL    HW131045   1.600   6.895   4.120  1.4246  1.1405  0.3300
 9759SOL    HW231046   1.580   6.888   3.970 -2.7626 -1.8138  0.8442
 9760SOL     OW31047   0.965   2.705   4.180 -0.2042  0.2757 -0.3058
 9760SOL    HW131048   0.892   2.754   4.217 -1.0425  0.7569 -2.4422
 9760SOL    HW231049   0.978   2.744   4.094  1.7640 -0.6496 -0.4746
 9761SOL     OW31050   8.510   6.739   9.523  0.1977 -0.6386  0.2876
 9761SOL    HW131051   8.470   6.754   9.608 -0.7728  2.3777 -0.5558
 9761SOL    HW231052   8.582   6.802   9.519 -0.0613 -0.3990 -1.2707
 9762SOL     OW31053   7.341   0.298   7.385  0.6514 -0.7692 -0.2771
 9762SOL    HW131054   7.268   0.250   7.346 -0.0444 -0.2518  0.3482
 9762SOL    HW231055   7.418   0.244   7.367  0.1409 -1.2418 -1.0996
 9763SOL     OW31056   5.915   8.457   3.511 -0.1102 -0.9635  0.2993
 9763SOL    HW131057   5.823   8.446   3.534 -0.6117 -0.8716 -1.5004
 9763SOL    HW231058   5.924   8.409   3.428  1.6644 -1.6629  0.8480
 9764SOL     OW31059   2.224   4.867   0.320  0.2291  0.3597 -0.0212
 9764SOL    HW131060   2.176   4.897   0.398 -0.5233 -0.7519 -0.0288
 9764SOL    HW231061   2.168   4.893   0.247  0.7178  1.0039 -0.1702
 9765SOL     OW31062   7.435   0.877   6.980 -0.2222  0.2066 -0.4814
 9765SOL    HW131063   7.403   0.790   7.005  0.0148  0.8508  2.4954
 9765SOL    HW231064   7.530   0.871   6.990 -0.2771  1.0392  0.8514
 9766SOL     OW31065   1.607   1.933   4.040 -0.1413  0.9172 -0.1547
 9766SOL    HW131066   1.669   1.950   4.111  0.3098  0.7137 -0.4941
 9766SOL    HW231067   1.656   1.878   3.979 -1.3751 -1.2665  0.6727
 9767SOL     OW31068   7.793   5.233   9.517  0.1909  0.5752  0.9059
 9767SOL    HW131069   7.848   5.199   9.588  0.3866 -2.4663 -0.5623
 9767SOL    HW231070   7.854   5.250   9.445 -0.3885  0.2811  0.3318
 9768SOL     OW31071   5.366   6.838   1.114  0.4279  0.1214  0.4594
 9768SOL    HW131072   5.329   6.890   1.186 -0.7840  0.1619 -0.1658
 9768SOL    HW231073   5.433   6.895   1.075  0.3801  0.4946  0.9167
 9769SOL     OW31074   6.131   3.675   5.955  0.0565 -0.1387  0.6206
 9769SOL    HW131075   6.183   3.660   5.876 -1.0416  0.2860 -0.1987
 9769SOL    HW231076   6.196   3.696   6.022  1.0876 -1.4148  0.0818
 9770SOL     OW31077   4.036   8.125   1.369 -0.2625  0.4669 -0.2364
 9770SOL    HW131078   4.053   8.043   1.321 -3.1874 -0.6933  0.4906
 9770SOL    HW231079   4.030   8.191   1.301  1.5106  0.0154 -0.8992
 9771SOL     OW31080   1.817   6.183   0.588  0.1813 -0.0680 -0.6942
 9771SOL    HW131081   1.831   6.117   0.520 -0.8358  2.3151 -3.4632
 9771SOL    HW231082   1.883   6.250   0.570 -0.9018  1.1804 -0.1476
 9772SOL     OW31083   1.113   1.796   8.149  0.1950  0.2025 -0.0425
 9772SOL    HW131084   1.102   1.883   8.187  1.0015  0.2311  0.1457
 9772SOL    HW231085   1.207   1.780   8.153  0.1953 -0.1721 -1.2235
 9773SOL     OW31086   0.325   0.367   7.181  0.2013 -0.3908 -0.1227
 9773SOL    HW131087   0.399   0.311   7.158  0.6414  0.6571 -1.3023
 9773SOL    HW231088   0.354   0.456   7.162 -0.0065  0.4516  2.9192
 9774SOL     OW31089   5.599   5.016   0.309  0.3069  0.3232  1.1503
 9774SOL    HW131090   5.675   4.991   0.255  0.6328 -0.0340  1.7650
 9774SOL    HW231091   5.537   5.055   0.246  0.5827 -0.2944  0.4760
 9775SOL     OW31092   0.053   6.175   2.822 -0.2718 -0.5516  0.2703
 9775SOL    HW131093   0.079   6.267   2.812 -2.1609 -0.1127 -1.2504
 9775SOL    HW231094   0.048   6.142   2.732  0.6153 -2.2471  0.8053
 9776SOL     OW31095   8.340   0.981   2.686 -0.5648 -0.3145  0.0616
 9776SOL    HW131096   8.307   1.070   2.677 -2.4867 -1.0226 -0.4856
 9776SOL    HW231097   8.428   0.983   2.649 -0.4923  1.3737  0.2589
 9777SOL     OW31098   3.262   9.608   4.237  0.7447  0.4711 -0.3530
 9777SOL    HW131099   3.188   9.562   4.277  0.0640  1.3249 -0.5910
 9777SOL    HW231100   3.320   9.628   4.310 -0.3874  1.8290  0.2134
 9778SOL     OW31101   3.505   7.283   9.403  0.1868  0.6702 -0.1948
 9778SOL    HW131102   3.453   7.314   9.329 -0.0744  0.7520  0.0209
 9778SOL    HW231103   3.596   7.296   9.375  0.0898  1.6832 -0.0935
 9779SOL     OW31104   3.677   8.266   3.428  0.0909 -0.4702 -0.7202
 9779SOL    HW131105   3.770   8.268   3.450 -0.0158 -0.4181 -0.2707
 9779SOL    HW231106   3.632   8.264   3.512 -0.3058 -1.1694 -0.9455
 9780SOL     OW31107   1.292   5.513   4.323  0.1701 -0.1649  0.0527
 9780SOL    HW131108   1.222   5.577   4.306 -0.5239 -0.7602  0.6046
 9780SOL    HW231109   1.373   5.559   4.299 -0.3701  0.7012 -0.1524
 9781SOL     OW31110   7.219   6.531   2.990 -0.3861 -0.1839 -0.2244
 9781SOL    HW131111   7.207   6.618   2.952  0.2253  0.2283  0.5050
 9781SOL    HW231112   7.173   6.472   2.929  3.1217  0.0286 -3.4445
 9782SOL     OW31113   7.042   6.923   4.886 -0.4325  0.0172  0.6951
 9782SOL    HW131114   7.016   6.985   4.954  0.6855 -0.6220  1.7400
 9782SOL    HW231115   7.051   6.840   4.932  1.2776 -0.2318 -0.0258
 9783SOL     OW31116   8.153   1.869   0.525 -0.0645 -0.4552  0.2846
 9783SOL    HW131117   8.190   1.879   0.612 -0.1300 -0.7296  0.3429
 9783SOL    HW231118   8.157   1.775   0.507  0.8683 -0.2908 -0.4188
 9784SOL     OW31119   4.095   4.393   1.381  0.6866  0.5976 -0.2426
 9784SOL    HW131120   4.059   4.381   1.293  0.4058 -0.2364 -0.0271
 9784SOL    HW231121   4.133   4.481   1.380  0.2979  0.7657 -1.0583
 9785SOL     OW31122   5.973   9.612   1.230  0.4758 -0.5411 -0.3395
 9785SOL    HW131123   5.878   9.605   1.224  0.0860  0.9049  2.4261
 9785SOL    HW231124   5.995   9.687   1.175 -0.4951  1.1675  1.4479
 9786SOL     OW31125   5.691   7.605   1.111 -0.5806 -0.3104 -0.1153
 9786SOL    HW131126   5.752   7.563   1.050  0.1918  1.6623 -0.8161
 9786SOL    HW231127   5.688   7.696   1.081 -3.1268 -0.1197  0.5421
 9787SOL     OW31128   4.351   6.406   2.452  0.1091 -0.5118  0.3501
 9787SOL    HW131129   4.412   6.385   2.523  0.7559 -1.2560 -0.4068
 9787SOL    HW231130   4.270   6.432   2.497  1.1284  1.0648  1.3828
 9788SOL     OW31131   9.557   1.834   5.839  0.2078  0.2054  0.2238
 9788SOL    HW131132   9.608   1.802   5.765 -1.0300  0.8133 -0.9449
 9788SOL    HW231133   9.469   1.847   5.803 -0.0891  1.8597  1.4553
 9789SOL     OW31134   4.016   1.287   6.417  0.0894  1.0567 -0.5172
 9789SOL    HW131135   3.937   1.315   6.465  0.2857 -0.4469  0.7750
 9789SOL    HW231136   3.982   1.248   6.337 -0.5753 -0.2030  0.3398
 9790SOL     OW31137   8.343   8.963   6.644 -0.1105 -0.3710 -0.2239
 9790SOL    HW131138   8.298   9.032   6.692 -2.0707 -1.5270 -0.3158
 9790SOL    HW231139   8.390   8.914   6.711 -1.0128 -0.6389  0.2152
 9791SOL     OW31140   5.118   9.736   3.193 -0.2369 -0.3602 -0.3036
 9791SOL    HW131141   5.157   9.705   3.274 -0.8440  0.4446  0.3142
 9791SOL    HW231142   5.063   9.663   3.163 -0.5083 -0.4301  0.3468
 9792SOL     OW31143   1.806   2.609   9.013  0.6443  0.4145  0.0702
 9792SOL    HW131144   1.743   2.681   9.020  1.0927  0.9181 -0.7760
 9792SOL    HW231145   1.891   2.653   9.003  0.8986 -0.2200 -0.7023
 9793SOL     OW31146   9.396   0.117   3.401 -0.2038  0.4907 -0.0316
 9793SOL    HW131147   9.450   0.063   3.458 -1.2043 -0.9981 -0.4373
 9793SOL    HW231148   9.456   0.147   3.332 -0.4385 -4.2880 -2.7357
 9794SOL     OW31149   2.780   0.715   9.149  0.4272  0.1993 -0.0095
 9794SOL    HW131150   2.779   0.775   9.224  0.5683  1.6903 -1.1473
 9794SOL    HW231151   2.872   0.703   9.129  0.3878  1.8683 -1.4633
 9795SOL     OW31152   7.322   7.280   4.147 -0.2035  0.4783  0.1939
 9795SOL    HW131153   7.355   7.320   4.228  1.1734  0.4873 -0.3521
 9795SOL    HW231154   7.243   7.330   4.126 -3.1750 -2.0999  3.7589
 9796SOL     OW31155   2.778   4.249   4.065  0.1414  0.3821 -0.4697
 9796SOL    HW131156   2.774   4.343   4.049  0.0428  0.5852  0.7111
 9796SOL    HW231157   2.866   4.233   4.098  0.4565 -0.0900 -1.4837
 9797SOL     OW31158   8.362   6.337   5.169 -0.4602 -0.2017 -0.0204
 9797SOL    HW131159   8.352   6.431   5.183  1.4846  0.4154 -2.0579
 9797SOL    HW231160   8.377   6.301   5.256 -0.5265  1.4946  0.7329
 9798SOL     OW31161   6.709   8.365   4.203  0.1807 -0.2935 -0.2321
 9798SOL    HW131162   6.645   8.379   4.272  0.6930 -1.0018  0.4054
 9798SOL    HW231163   6.749   8.280   4.224  0.5834 -0.3619 -1.2060
 9799SOL     OW31164   0.856   2.616   4.957  0.4653 -0.0901 -0.3940
 9799SOL    HW131165   0.806   2.575   4.887 -0.7530  1.9590 -0.7833
 9799SOL    HW231166   0.903   2.543   4.998 -0.9467 -1.7331 -1.5488
 9800SOL     OW31167   6.526   1.744   0.599 -0.4329 -0.5393 -0.1647
 9800SOL    HW131168   6.540   1.685   0.673 -1.4313 -0.1680  0.3381
 9800SOL    HW231169   6.435   1.772   0.608 -0.2548  0.3285 -0.9430
 9801SOL     OW31170   3.846   6.562   5.868 -0.2552  0.3222 -0.3060
 9801SOL    HW131171   3.836   6.625   5.940 -0.0224  0.2885 -0.2442
 9801SOL    HW231172   3.930   6.521   5.884 -0.6810 -0.4502 -0.0064
 9802SOL     OW31173   0.079   9.048   9.052 -0.2320 -0.3203  0.5657
 9802SOL    HW131174   0.167   9.069   9.021 -1.5253  1.4603 -2.2616
 9802SOL    HW231175   0.064   9.110   9.123  0.7194 -0.5424  0.9768
 9803SOL     OW31176   4.966   9.003   8.911  1.0339  0.0284  0.7062
 9803SOL    HW131177   4.894   9.052   8.951  0.9403  0.5135 -0.0331
 9803SOL    HW231178   5.020   8.974   8.984 -0.7300 -1.6843  1.4015
 9804SOL     OW31179   0.948   7.809   0.714  0.3185 -0.0101  0.2705
 9804SOL    HW131180   1.014   7.849   0.771  1.9466 -0.9786 -0.8576
 9804SOL    HW231181   0.931   7.876   0.647 -1.0522  0.8370  1.3840
 9805SOL     OW31182   5.920   9.133   0.281  0.0319  0.5638 -0.2700
 9805SOL    HW131183   5.906   9.228   0.286  1.0084  0.7719 -1.2042
 9805SOL    HW231184   5.988   9.122   0.215  0.0940 -0.7840 -0.0099
 9806SOL     OW31185   6.692   3.695   8.671 -0.0785  0.0853 -1.0341
 9806SOL    HW131186   6.743   3.769   8.704 -0.2072  0.6260 -2.0105
 9806SOL    HW231187   6.621   3.735   8.621 -0.5998 -0.6910 -0.9325
 9807SOL     OW31188   3.030   3.717   0.196 -0.5732  0.4794  0.2854
 9807SOL    HW131189   3.055   3.717   0.103  1.8806  0.6455  0.8589
 9807SOL    HW231190   3.012   3.625   0.215  0.6347  0.1559  0.0033
 9808SOL     OW31191   6.943   0.067   1.563 -0.2544 -0.0801 -0.7432
 9808SOL    HW131192   6.880   0.062   1.491 -0.0743 -0.7571 -0.8584
 9808SOL    HW231193   6.899   0.122   1.629 -0.1312  1.1522 -1.6387
 9809SOL     OW31194   0.264   1.678   0.058  0.5719  0.3179  0.6477
 9809SOL    HW131195   0.182   1.715   0.091 -1.2246 -0.3673 -2.6166
 9809SOL    HW231196   0.290   1.615   0.124 -1.5253  0.5824  1.8087
 9810SOL     OW31197   9.356   5.437   3.703  0.2160  0.4977  0.4995
 9810SOL    HW131198   9.342   5.358   3.650 -1.5163  1.0460  0.0723
 9810SOL    HW231199   9.430   5.481   3.661 -0.1247  0.1224 -0.5342
 9811SOL     OW31200   6.480   5.318   6.686 -0.2930  0.3916  0.3065
 9811SOL    HW131201   6.401   5.358   6.650 -0.2699 -1.0119 -1.4774
 9811SOL    HW231202   6.538   5.391   6.706 -1.3859  1.3600  0.0383
 9812SOL     OW31203   8.637   8.238   8.807 -0.0304  0.1183  0.0595
 9812SOL    HW131204   8.624   8.143   8.803  3.9295 -0.6312  0.1633
 9812SOL    HW231205   8.634   8.266   8.715 -1.5509  0.0100  0.0536
 9813SOL     OW31206   6.916   7.100   8.221 -0.4964  0.8291  0.1386
 9813SOL    HW131207   6.932   7.076   8.130  2.5029 -0.3553  0.8548
 9813SOL    HW231208   6.921   7.196   8.222 -0.4802  0.8502 -0.8866
 9814SOL     OW31209   8.707   3.496   2.323  0.2232  0.1678 -0.3309
 9814SOL    HW131210   8.627   3.489   2.270  0.5325 -2.2929 -0.6147
 9814SOL    HW231211   8.769   3.437   2.280  2.2710  2.0963 -0.1612
 9815SOL     OW31212   3.659   0.696   0.319 -0.2123 -0.2960 -0.8864
 9815SOL    HW131213   3.588   0.665   0.375  0.3837  1.3572  0.8931
 9815SOL    HW231214   3.670   0.627   0.253 -2.1406 -1.4787 -0.0531
 9816SOL     OW31215   7.841   0.577   4.534 -0.0761 -0.5996 -0.3743
 9816SOL    HW131216   7.813   0.511   4.471 -0.2875 -0.9752  0.1037
 9816SOL    HW231217   7.761   0.597   4.584 -0.0356  0.0787 -0.5700
 9817SOL     OW31218   4.624   7.321   5.312 -0.0647  0.5155 -0.1143
 9817SOL    HW131219   4.553   7.385   5.313  0.6271  1.3043 -0.4455
 9817SOL    HW231220   4.693   7.362   5.260 -0.4432 -1.4481 -2.3212
 9818SOL     OW31221   0.454   9.635   1.462  0.1469  0.0487  0.2132
 9818SOL    HW131222   0.419   9.567   1.519  1.5713  0.0196  1.1125
 9818SOL    HW231223   0.396   9.634   1.385 -1.9978  0.3158  1.7520
 9819SOL     OW31224   3.971   7.787   9.816 -0.6389 -0.2168 -0.0252
 9819SOL    HW131225   3.986   7.765   9.908 -0.7115  0.4136  0.1415
 9819SOL    HW231226   4.030   7.730   9.768 -0.1706 -0.1369  0.4431
 9820SOL     OW31227   1.227   2.470   1.734  0.0209  0.0138  0.3119
 9820SOL    HW131228   1.192   2.544   1.684 -0.3689 -0.8392 -0.7174
 9820SOL    HW231229   1.314   2.456   1.697  0.3187  0.3007  0.8919
 9821SOL     OW31230   6.263   3.417   2.483  0.2342  0.5437  0.5226
 9821SOL    HW131231   6.314   3.342   2.512  0.0352  0.3249  0.3161
 9821SOL    HW231232   6.301   3.441   2.398  0.8991  1.2642  1.0194
 9822SOL     OW31233   2.365   8.340   0.535 -0.4121  0.0150  0.7298
 9822SOL    HW131234   2.359   8.422   0.585  0.4551 -0.3328  1.4512
 9822SOL    HW231235   2.458   8.318   0.538 -0.2401  0.2218 -1.4904
 9823SOL     OW31236   8.795   4.008   0.278 -0.4825  0.2552 -0.0652
 9823SOL    HW131237   8.836   4.021   0.364 -0.8730  0.2469  0.1227
 9823SOL    HW231238   8.858   3.954   0.230 -1.0827 -1.2956  0.8416
 9824SOL     OW31239   9.602   3.409   3.785  0.6600  0.5632 -0.1209
 9824SOL    HW131240   9.672   3.408   3.719 -0.2999 -0.2971 -1.1677
 9824SOL    HW231241   9.523   3.385   3.737 -0.2568  0.8864  1.1645
 9825SOL     OW31242   8.225   7.827   2.366 -0.3742  0.5295  0.2713
 9825SOL    HW131243   8.212   7.878   2.445 -0.3141 -0.6196  1.0456
 9825SOL    HW231244   8.151   7.767   2.363 -0.0542  0.1493 -0.2156
 9826SOL     OW31245   0.200   9.350   1.901 -1.4831 -0.0747 -0.8293
 9826SOL    HW131246   0.246   9.425   1.862 -0.1127 -1.0837 -1.2379
 9826SOL    HW231247   0.114   9.385   1.926 -0.2516  2.1086  0.7275
 9827SOL     OW31248   5.514   4.382   0.248  0.2545  0.4263 -0.0167
 9827SOL    HW131249   5.543   4.426   0.328 -1.6665  0.4756  0.7122
 9827SOL    HW231250   5.485   4.296   0.277 -0.7962  0.5749 -0.5802
 9828SOL     OW31251   0.022   4.837   6.644  0.2376  0.6383 -0.1010
 9828SOL    HW131252   0.007   4.807   6.554 -2.4272 -0.9742  0.7400
 9828SOL    HW231253  -0.054   4.891   6.663  0.0342 -0.1822  1.5771
 9829SOL     OW31254   9.775   6.664   8.377  0.2851 -0.4174 -0.1057
 9829SOL    HW131255   9.753   6.756   8.395 -1.2321 -0.5279 -1.2194
 9829SOL    HW231256   9.692   6.618   8.385  0.7211 -1.4315 -1.1609
 9830SOL     OW31257   2.504   3.698   5.423  0.2253  0.1068 -0.6469
 9830SOL    HW131258   2.579   3.663   5.375  0.6107  4.0329 -3.4733
 9830SOL    HW231259   2.539   3.773   5.471 -1.1595 -0.7106  1.7785
 9831SOL     OW31260   1.877   4.609   4.376 -0.5593  0.4423  0.0400
 9831SOL    HW131261   1.936   4.566   4.314  0.7370  0.8579  0.9441
 9831SOL    HW231262   1.796   4.558   4.371  0.0738 -0.5301 -0.7730
 9832SOL     OW31263   0.484   6.580   2.363  0.2804 -0.1191  0.4422
 9832SOL    HW131264   0.475   6.507   2.425  2.1438 -0.0396  0.8816
 9832SOL    HW231265   0.509   6.539   2.281  0.1383 -0.0528  0.3651
 9833SOL     OW31266   7.137   3.585   0.941  0.0712  0.1502  0.2553
 9833SOL    HW131267   7.174   3.672   0.927 -0.5583  0.2537 -0.8209
 9833SOL    HW231268   7.059   3.601   0.994 -1.0168  0.4632 -1.3719
 9834SOL     OW31269   1.713   5.576   5.344  0.1876  0.0927  0.0205
 9834SOL    HW131270   1.667   5.561   5.262  0.0383 -0.9178  0.2702
 9834SOL    HW231271   1.805   5.561   5.323  0.3232  1.2401 -0.2748
 9835SOL     OW31272   3.710   2.057   5.275 -0.1504  0.1349  0.2408
 9835SOL    HW131273   3.788   2.003   5.259  1.3811  2.9292 -3.2017
 9835SOL    HW231274   3.672   2.070   5.189 -3.1523  0.8074  1.5532
 9836SOL     OW31275   7.086   5.914   3.678  0.0824 -0.0341  0.4583
 9836SOL    HW131276   7.080   5.834   3.731 -2.3759  1.1813  2.1740
 9836SOL    HW231277   7.004   5.916   3.628  0.4586  1.0414 -0.1490
 9837SOL     OW31278   8.440   3.771   6.581  0.3237  0.0460  0.0367
 9837SOL    HW131279   8.464   3.820   6.659 -0.3062  0.7004 -0.1712
 9837SOL    HW231280   8.494   3.809   6.511 -0.0066  0.3029 -0.0817
 9838SOL     OW31281   6.173   9.424   2.693 -0.3220  0.1114 -0.2771
 9838SOL    HW131282   6.117   9.365   2.745 -1.0528  0.3303 -0.7980
 9838SOL    HW231283   6.180   9.381   2.608  0.7596 -0.1762 -0.0634
 9839SOL     OW31284   9.381   5.282   5.826 -0.3221 -0.1461  0.1673
 9839SOL    HW131285   9.399   5.287   5.920  1.0366  0.5708 -0.0956
 9839SOL    HW231286   9.373   5.189   5.808 -0.7025 -0.2816  1.0195
 9840SOL     OW31287   8.678   4.196   5.663  0.1515  0.3388 -0.3143
 9840SOL    HW131288   8.682   4.167   5.571  1.3472  0.4041 -0.3014
 9840SOL    HW231289   8.719   4.283   5.662 -0.6013  0.7022  0.1531
 9841SOL     OW31290   6.972   8.712   0.313 -0.0053  0.3101 -0.3973
 9841SOL    HW131291   7.029   8.721   0.236 -1.0966  1.6225 -1.0867
 9841SOL    HW231292   7.007   8.635   0.359 -0.2531 -1.4646 -2.9711
 9842SOL     OW31293   9.725   8.759   4.207 -0.4785  0.0910  0.3899
 9842SOL    HW131294   9.800   8.817   4.193 -0.3390 -0.4235 -1.2311
 9842SOL    HW231295   9.660   8.814   4.250 -0.6473  1.7630 -1.7892
 9843SOL     OW31296   6.227   7.436   8.464  0.2481 -0.4020  0.1185
 9843SOL    HW131297   6.183   7.438   8.380 -1.1460  2.3504  0.7831
 9843SOL    HW231298   6.319   7.455   8.444 -0.0168 -0.0556 -0.8208
 9844SOL     OW31299   0.573   4.946   6.571 -0.4124 -0.6544  0.7639
 9844SOL    HW131300   0.634   4.935   6.645  2.5503 -0.7931 -1.5041
 9844SOL    HW231301   0.561   5.041   6.565 -0.2633 -0.6075  1.1201
 9845SOL     OW31302   7.939   6.498   6.847 -0.0058 -0.1853 -0.0995
 9845SOL    HW131303   7.885   6.543   6.783 -0.4888 -0.5058  0.0813
 9845SOL    HW231304   7.968   6.418   6.802 -0.9306 -0.7708  0.3077
 9846SOL     OW31305   2.803   4.981   4.927  0.2924  0.4402 -0.1138
 9846SOL    HW131306   2.880   4.937   4.890 -0.2808 -0.1250 -0.6619
 9846SOL    HW231307   2.836   5.023   5.006  1.1862  0.2821 -0.3835
 9847SOL     OW31308   8.396   6.844   5.394  0.4059 -0.2014 -0.2610
 9847SOL    HW131309   8.434   6.806   5.314  0.9964  1.0140 -0.5726
 9847SOL    HW231310   8.464   6.901   5.428 -0.4956  0.6416  0.1564
 9848SOL     OW31311   6.329   5.607   5.486  0.0587 -1.1867 -0.5394
 9848SOL    HW131312   6.379   5.687   5.504  0.3626 -1.3704 -0.5593
 9848SOL    HW231313   6.248   5.618   5.536 -0.2489 -0.5081 -1.1786
 9849SOL     OW31314   7.818   2.047   9.084 -0.5788  0.1843 -0.4328
 9849SOL    HW131315   7.879   2.020   9.015 -0.9975 -0.7077 -0.4785
 9849SOL    HW231316   7.776   2.126   9.050  1.9198  2.0119  0.4258
 9850SOL     OW31317   8.361   1.117   3.553 -0.2680 -0.1898 -0.5737
 9850SOL    HW131318   8.350   1.156   3.640  1.3975  1.6787 -1.1366
 9850SOL    HW231319   8.279   1.137   3.508 -0.9190 -0.6765  0.3575
 9851SOL     OW31320   1.885   5.125   1.518  0.0114 -0.1475  0.2005
 9851SOL    HW131321   1.805   5.160   1.479 -0.1867 -0.9102 -0.1091
 9851SOL    HW231322   1.950   5.130   1.448  0.1146  0.0511  0.3092
 9852SOL     OW31323   0.166   2.173   3.725 -0.0985 -0.1614 -0.2113
 9852SOL    HW131324   0.178   2.263   3.695 -0.9013 -0.3659 -1.1938
 9852SOL    HW231325   0.079   2.172   3.765 -0.5972 -0.7474 -1.2571
 9853SOL     OW31326   9.311   7.342   4.158 -0.1444 -0.0332  0.0327
 9853SOL    HW131327   9.309   7.422   4.105 -3.1380 -0.2279 -0.3144
 9853SOL    HW231328   9.277   7.370   4.243  1.7257 -0.3720  0.9540
 9854SOL     OW31329   1.082   3.544   5.396 -0.1357  0.3845 -0.6345
 9854SOL    HW131330   1.118   3.574   5.313 -1.8873  0.7973 -1.2797
 9854SOL    HW231331   1.065   3.451   5.384 -1.0920  0.5988 -1.0234
 9855SOL     OW31332   8.614   2.557   5.417  0.1826  0.7634  0.0881
 9855SOL    HW131333   8.635   2.650   5.413 -1.0250  1.1495  1.6445
 9855SOL    HW231334   8.520   2.553   5.399  0.4041 -0.2889 -1.0045
 9856SOL     OW31335   5.984   4.660   7.091  0.9401  0.2876 -0.3074
 9856SOL    HW131336   6.067   4.612   7.090  0.2434 -0.9755 -0.2140
 9856SOL    HW231337   5.955   4.659   7.000  0.4415 -0.3624 -0.1482
 9857SOL     OW31338   2.362   8.952   2.130  0.0480 -0.1720 -0.0936
 9857SOL    HW131339   2.442   8.917   2.171  0.0946 -1.0176 -0.8773
 9857SOL    HW231340   2.292   8.898   2.166  0.2392 -1.9363 -2.1855
 9858SOL     OW31341   8.024   1.660   9.216 -0.0624  0.3919 -0.1099
 9858SOL    HW131342   8.051   1.578   9.174 -0.1208  0.9674 -1.3103
 9858SOL    HW231343   8.084   1.670   9.290  0.2738 -0.4745 -0.2547
 9859SOL     OW31344   3.823   7.899   6.348  0.2646 -0.0582  0.7399
 9859SOL    HW131345   3.770   7.837   6.397 -0.3116  0.0476  0.2523
 9859SOL    HW231346   3.874   7.845   6.287  0.2565 -0.1044  0.7744
 9860SOL     OW31347   7.248   0.007   2.657  0.0181  0.0434  0.0982
 9860SOL    HW131348   7.217   0.079   2.712 -1.2348 -0.5138  0.1593
 9860SOL    HW231349   7.200  -0.069   2.689  0.2567 -0.5408 -0.8996
 9861SOL     OW31350   4.496   2.176   7.616 -0.4894  0.5738 -0.3233
 9861SOL    HW131351   4.467   2.165   7.707  1.6023  2.1419  0.6154
 9861SOL    HW231352   4.577   2.126   7.610 -0.1908  1.1335 -1.0905
 9862SOL     OW31353   3.930   5.909   7.687 -0.1044 -0.4183 -0.0216
 9862SOL    HW131354   3.838   5.882   7.686  0.7935 -3.9915  1.1095
 9862SOL    HW231355   3.955   5.906   7.779  1.6952 -1.8044 -0.5081
 9863SOL     OW31356   9.189   1.735   8.176  0.9108  0.1236  0.1380
 9863SOL    HW131357   9.152   1.822   8.192 -1.6742 -0.7415 -0.6806
 9863SOL    HW231358   9.192   1.727   8.081  0.4313 -0.9283  0.1979
 9864SOL     OW31359   4.902   8.132   4.675  0.4190 -0.3900  0.4212
 9864SOL    HW131360   4.864   8.174   4.752  0.1158 -0.1540  0.1497
 9864SOL    HW231361   4.836   8.145   4.607  0.8030 -0.3605  0.0528
 9865SOL     OW31362   4.466   8.547   6.953  0.2423  0.2965  0.4537
 9865SOL    HW131363   4.491   8.633   6.918  0.1600  1.7714  3.6105
 9865SOL    HW231364   4.518   8.485   6.903  0.1760  2.1295 -2.0997
 9866SOL     OW31365   3.070   8.104   1.609 -0.2918  0.3385 -0.0280
 9866SOL    HW131366   3.011   8.160   1.558  0.5052  0.1286 -1.2219
 9866SOL    HW231367   3.074   8.145   1.695  0.4037  2.2383 -0.9162
 9867SOL     OW31368   5.716   2.057   0.639  0.0431 -0.1944  0.2840
 9867SOL    HW131369   5.680   2.145   0.644  1.0716  0.1748  1.7684
 9867SOL    HW231370   5.723   2.039   0.545  0.3984  1.5564 -0.0621
 9868SOL     OW31371   3.810   4.929   4.025 -0.8633  0.3950 -0.2097
 9868SOL    HW131372   3.757   4.905   4.101 -0.6031  0.5178  0.0128
 9868SOL    HW231373   3.783   5.019   4.004  0.3559  1.0390  0.8698
 9869SOL     OW31374   6.264   3.006   3.826 -0.5378  0.5817 -0.2229
 9869SOL    HW131375   6.254   2.974   3.736 -1.6623  3.0905 -1.0804
 9869SOL    HW231376   6.338   2.957   3.861 -0.9896 -1.5081 -2.0106
 9870SOL     OW31377   3.464   7.307   8.578  0.2909  0.9381  0.4693
 9870SOL    HW131378   3.558   7.300   8.592  0.1796 -0.2131  0.6867
 9870SOL    HW231379   3.445   7.246   8.507 -0.5821 -0.4476  1.8177
 9871SOL     OW31380   4.686   2.468   4.411 -0.4037 -0.5523  0.2539
 9871SOL    HW131381   4.770   2.501   4.378 -0.3234 -0.9386  0.0628
 9871SOL    HW231382   4.670   2.388   4.360 -1.5844  0.2763 -0.7197
 9872SOL     OW31383   7.564   9.462   6.018 -0.1465  0.4933 -0.0430
 9872SOL    HW131384   7.647   9.451   5.971 -1.2803 -0.3687 -2.0186
 9872SOL    HW231385   7.512   9.385   5.992 -1.2436  0.5138  1.8825
 9873SOL     OW31386   5.870   4.968   2.158 -0.2196  0.0704 -0.5835
 9873SOL    HW131387   5.805   4.900   2.143 -1.6965  1.2295  0.3478
 9873SOL    HW231388   5.844   5.040   2.102 -1.2816  1.4906  1.5969
 9874SOL     OW31389   3.845   7.999   3.647  0.1560 -0.1903 -0.2811
 9874SOL    HW131390   3.932   8.038   3.653  0.4638 -0.8653 -0.3052
 9874SOL    HW231391   3.789   8.057   3.699  0.4876  0.6009 -0.7801
 9875SOL     OW31392   4.235   7.480   7.342  0.2846  0.3533 -0.1773
 9875SOL    HW131393   4.294   7.473   7.417  0.2359 -0.9470 -0.2396
 9875SOL    HW231394   4.212   7.573   7.338 -0.1627  0.3672  1.7667
 9876SOL     OW31395   1.417   3.623   6.240 -0.0616 -0.1410 -0.3140
 9876SOL    HW131396   1.359   3.635   6.316 -1.0047  1.1816 -1.2101
 9876SOL    HW231397   1.362   3.580   6.175  0.2773  0.1692 -0.8110
 9877SOL     OW31398   1.490   3.077   8.569 -0.1336 -0.0776  0.5907
 9877SOL    HW131399   1.418   3.120   8.615 -1.0932  0.9804 -1.7408
 9877SOL    HW231400   1.456   3.062   8.481  2.4120  0.2802 -0.5390
 9878SOL     OW31401   2.784   7.013   1.612 -0.0914 -0.7546 -0.1844
 9878SOL    HW131402   2.857   6.970   1.567  0.6006  0.4379 -0.2364
 9878SOL    HW231403   2.711   7.007   1.551 -0.2833 -2.6362  0.1737
 9879SOL     OW31404   8.792   9.324   3.410 -0.5511 -0.3540 -0.0657
 9879SOL    HW131405   8.722   9.363   3.462  0.7918  1.0723  0.7533
 9879SOL    HW231406   8.871   9.371   3.436  0.6698 -1.6306 -1.2521
 9880SOL     OW31407   9.820   8.884   9.464 -0.2153  0.4692  0.6301
 9880SOL    HW131408   9.789   8.809   9.516  0.1442 -0.2104 -0.1173
 9880SOL    HW231409   9.795   8.863   9.374  1.0380  0.6219  0.2242
 9881SOL     OW31410   1.502   5.097   9.048  0.5969  0.0020 -0.3469
 9881SOL    HW131411   1.547   5.139   8.975  0.6780 -0.0514 -0.3273
 9881SOL    HW231412   1.552   5.017   9.064  1.0426  0.3963  0.2726
 9882SOL     OW31413   2.827   9.569   5.768  0.1112  0.3616  0.0615
 9882SOL    HW131414   2.858   9.524   5.846 -1.6852 -1.2312 -0.0532
 9882SOL    HW231415   2.856   9.514   5.695 -1.0570  0.0204 -0.1643
 9883SOL     OW31416   8.487   6.319   8.640 -0.0934  0.0423  0.5814
 9883SOL    HW131417   8.527   6.346   8.723 -2.0731  0.1297  1.5406
 9883SOL    HW231418   8.500   6.395   8.582  2.2126 -0.4007  0.4055
 9884SOL     OW31419   7.026   9.842   7.572  0.4038 -0.3983 -0.4420
 9884SOL    HW131420   7.111   9.855   7.531  1.0519 -1.3447  0.5512
 9884SOL    HW231421   7.046   9.806   7.658 -0.9909 -0.2228 -0.0122
 9885SOL     OW31422   4.441   4.552   8.232 -0.8005  0.3136 -0.3285
 9885SOL    HW131423   4.443   4.602   8.150 -1.1723 -1.2104 -1.3001
 9885SOL    HW231424   4.348   4.531   8.244 -0.6526 -0.0941  0.1010
 9886SOL     OW31425   9.031   8.466   7.450 -0.2748 -0.5386  0.5397
 9886SOL    HW131426   9.010   8.494   7.361 -0.2289  2.6985  1.4232
 9886SOL    HW231427   8.956   8.494   7.503 -0.3233 -2.4264  1.5581
 9887SOL     OW31428   3.415   4.090   3.909  0.1711 -0.1745 -0.1325
 9887SOL    HW131429   3.442   4.164   3.965 -0.5527  0.4096 -0.5456
 9887SOL    HW231430   3.496   4.041   3.895  0.4744 -0.0303  0.9799
 9888SOL     OW31431   2.684   5.348   8.246 -0.3817 -0.6270  0.4253
 9888SOL    HW131432   2.668   5.399   8.167 -0.5199 -1.0420  0.1841
 9888SOL    HW231433   2.776   5.321   8.239  0.1422  0.8038  1.2648
 9889SOL     OW31434   3.546   3.224   7.503 -0.7668  0.1700 -0.0243
 9889SOL    HW131435   3.479   3.285   7.532 -1.1968 -0.7921  1.0538
 9889SOL    HW231436   3.590   3.269   7.431 -2.0129  1.1510 -0.1936
 9890SOL     OW31437   4.802   2.397   5.534  0.1877  0.2178  0.0701
 9890SOL    HW131438   4.761   2.467   5.483  1.2355  1.6358  1.1059
 9890SOL    HW231439   4.894   2.422   5.540  1.3666 -2.8256 -2.1378
 9891SOL     OW31440   6.677   7.265   7.686  0.5346  0.0401 -0.2069
 9891SOL    HW131441   6.663   7.226   7.772 -0.5203 -1.8097 -1.1689
 9891SOL    HW231442   6.690   7.191   7.628 -0.0341  1.1840 -1.8543
 9892SOL     OW31443   8.288   8.869   6.365  0.3021 -0.7872  0.4455
 9892SOL    HW131444   8.342   8.791   6.379 -0.6980 -1.3811  1.1206
 9892SOL    HW231445   8.282   8.909   6.452  0.1954 -0.3785  0.2483
 9893SOL     OW31446   9.589   0.794   7.151 -0.0773  0.1634 -0.7287
 9893SOL    HW131447   9.594   0.711   7.102  0.9251 -0.0760 -0.2354
 9893SOL    HW231448   9.636   0.777   7.232 -0.5978  0.9671 -0.2456
 9894SOL     OW31449   4.197   3.398   0.643 -0.0890 -0.2360 -0.0794
 9894SOL    HW131450   4.191   3.361   0.731  1.3068  0.8901  0.5260
 9894SOL    HW231451   4.108   3.427   0.623 -0.4022 -0.4099  1.0049
 9895SOL     OW31452   9.554   1.582   8.303 -0.3828 -0.1488  0.3068
 9895SOL    HW131453   9.621   1.562   8.368 -0.7203 -0.1187  0.6673
 9895SOL    HW231454   9.602   1.589   8.220  0.1283  0.3322  0.6325
 9896SOL     OW31455   9.355   7.732   9.307  0.0752  0.2981  0.0258
 9896SOL    HW131456   9.427   7.736   9.370  0.4095 -2.0809 -0.1149
 9896SOL    HW231457   9.276   7.726   9.362  0.1817  0.4405  0.1952
 9897SOL     OW31458   9.606   9.398   3.793  0.4178  0.0427 -0.4879
 9897SOL    HW131459   9.561   9.318   3.767  0.1285  0.4924 -1.4435
 9897SOL    HW231460   9.687   9.398   3.742  1.5282 -0.7414  1.1897
 9898SOL     OW31461   1.876   4.754   8.085 -0.5791 -0.4500  0.1902
 9898SOL    HW131462   1.922   4.669   8.088 -0.4033 -0.3801  3.4474
 9898SOL    HW231463   1.933   4.813   8.135 -1.6501  1.0635 -0.3382
 9899SOL     OW31464   2.313   8.570   6.256 -0.5507 -0.4204  0.0468
 9899SOL    HW131465   2.300   8.634   6.326  1.1828  0.2910 -0.2374
 9899SOL    HW231466   2.253   8.498   6.278 -0.6765  0.1716  1.7768
 9900SOL     OW31467   5.950   4.752   7.549 -0.1577 -0.0585  0.0279
 9900SOL    HW131468   5.906   4.836   7.548 -0.0832  0.1006  2.4590
 9900SOL    HW231469   6.042   4.772   7.530  0.0592  0.6108  1.6369
 9901SOL     OW31470   5.046   7.790   4.504  0.0067 -0.0246 -0.4052
 9901SOL    HW131471   5.132   7.797   4.461  0.0667 -0.2941 -0.3336
 9901SOL    HW231472   5.006   7.712   4.465  0.6331 -1.0944  0.9965
 9902SOL     OW31473   3.546   2.595   7.131  0.0149 -0.1437 -0.0510
 9902SOL    HW131474   3.479   2.537   7.169  1.1844 -0.7509  1.1663
 9902SOL    HW231475   3.581   2.643   7.206 -0.6856  1.9365 -0.9937
 9903SOL     OW31476   3.934   7.903   8.292  0.4367 -0.1731 -0.1833
 9903SOL    HW131477   3.980   7.982   8.318  0.1372 -0.1709  0.3478
 9903SOL    HW231478   4.002   7.846   8.255  0.7961 -0.0216  0.2512
 9904SOL     OW31479   0.060   1.726   4.266  0.2365 -0.2121 -0.6557
 9904SOL    HW131480   0.153   1.706   4.257  0.2376 -0.7373  0.3336
 9904SOL    HW231481   0.053   1.771   4.350 -0.4426 -0.4876 -0.5552
 9905SOL     OW31482   6.367   0.484   3.705 -0.2893  0.2168  0.2073
 9905SOL    HW131483   6.338   0.538   3.778  0.0752 -0.2548  0.7104
 9905SOL    HW231484   6.292   0.428   3.686 -0.1765 -0.0877  0.6366
 9906SOL     OW31485   1.378   8.859   3.737  0.3064  0.3501  0.1624
 9906SOL    HW131486   1.435   8.782   3.730 -0.2834 -0.1657  0.8879
 9906SOL    HW231487   1.302   8.837   3.683  0.1011  0.3893  0.4356
 9907SOL     OW31488   1.108   6.646   5.412  0.1255 -0.0738  0.1861
 9907SOL    HW131489   1.129   6.723   5.466  1.8435 -0.8645  0.7244
 9907SOL    HW231490   1.031   6.672   5.361  0.6537  1.9923  0.3665
 9908SOL     OW31491   5.329   8.164   0.759 -0.2289 -0.4301  0.0575
 9908SOL    HW131492   5.292   8.087   0.717 -1.9955  0.2368  0.3258
 9908SOL    HW231493   5.254   8.210   0.797  0.9512  0.6329  1.2238
 9909SOL     OW31494   3.966   2.995   6.166 -0.0587 -0.2461 -0.0507
 9909SOL    HW131495   3.917   3.074   6.141  0.1485  0.0123  0.3515
 9909SOL    HW231496   4.018   3.022   6.241  0.9234 -0.4413 -0.6518
 9910SOL     OW31497   2.136   6.646   6.826 -0.5349 -0.3057 -0.1384
 9910SOL    HW131498   2.101   6.719   6.775  0.3742 -0.2067 -0.6459
 9910SOL    HW231499   2.064   6.618   6.882 -0.3626  2.1989  1.4493
 9911SOL     OW31500   5.623   1.116   4.201 -0.1599 -0.4997  0.6027
 9911SOL    HW131501   5.631   1.023   4.183  0.9444 -0.2260 -0.4349
 9911SOL    HW231502   5.711   1.151   4.186 -0.6389  0.7631  0.6284
 9912SOL     OW31503   4.791   5.682   9.382  0.5503 -0.3253  0.3398
 9912SOL    HW131504   4.747   5.737   9.317  0.4481 -0.5839  0.1889
 9912SOL    HW231505   4.720   5.653   9.440  0.3904 -1.3918 -0.3696
 9913SOL     OW31506   0.228   0.299   1.524  0.6360  0.3065  0.3232
 9913SOL    HW131507   0.321   0.306   1.502  1.0807 -1.0345  1.6020
 9913SOL    HW231508   0.199   0.220   1.477  0.2359  0.4939  0.2538
 9914SOL     OW31509   0.687   2.764   9.228  0.4169  0.4161  0.0316
 9914SOL    HW131510   0.661   2.833   9.168 -1.1845 -0.8842 -0.8519
 9914SOL    HW231511   0.731   2.699   9.173  1.1221  0.3274  0.6872
 9915SOL     OW31512   6.188   0.516   1.759  0.5776 -0.1048 -1.1059
 9915SOL    HW131513   6.242   0.446   1.722  0.4079 -1.2931  0.7324
 9915SOL    HW231514   6.098   0.486   1.747  0.4886  0.0328 -0.7967
 9916SOL     OW31515   4.730   3.810   6.919 -0.2613  0.6334  0.9842
 9916SOL    HW131516   4.684   3.889   6.947 -1.6302  0.7663 -1.3946
 9916SOL    HW231517   4.662   3.754   6.883  0.7443 -1.5005  2.2141
 9917SOL     OW31518   4.746   9.141   9.018  0.2702  0.2122 -0.3790
 9917SOL    HW131519   4.766   9.235   9.025 -1.2185  0.4512  1.1946
 9917SOL    HW231520   4.654   9.139   8.993 -0.0118 -0.8281  0.7018
 9918SOL     OW31521   5.109   0.789   2.590 -0.0269 -0.1432 -0.4652
 9918SOL    HW131522   5.095   0.708   2.639 -0.6823  1.0895  1.4946
 9918SOL    HW231523   5.024   0.833   2.590  0.4269  0.7631 -1.0667
 9919SOL     OW31524   6.182   2.783   8.032 -0.2039  0.0447 -0.0589
 9919SOL    HW131525   6.125   2.854   8.002  0.7042  0.6077 -0.4835
 9919SOL    HW231526   6.161   2.772   8.124 -1.5660 -0.2977 -0.3861
 9920SOL     OW31527   6.782   0.711   4.036  0.2569  0.1873  0.0170
 9920SOL    HW131528   6.711   0.758   4.079 -1.0323 -1.3202 -0.3406
 9920SOL    HW231529   6.737   0.652   3.975  1.8715 -0.1856 -0.8632
 9921SOL     OW31530   0.741   4.655   8.873  0.0869 -0.3630  0.2464
 9921SOL    HW131531   0.743   4.723   8.805 -0.1489  0.4465  1.0199
 9921SOL    HW231532   0.692   4.695   8.945 -0.6926 -1.6389  0.4456
 9922SOL     OW31533   7.806   7.787   0.229 -0.2590 -0.2369 -0.1114
 9922SOL    HW131534   7.759   7.710   0.262  0.4160 -1.0374 -0.9738
 9922SOL    HW231535   7.886   7.752   0.191 -0.3625  0.7883 -1.3494
 9923SOL     OW31536   1.701   7.160   8.700  0.0998 -0.3289  0.2787
 9923SOL    HW131537   1.706   7.168   8.795 -0.3034  1.0877  0.2064
 9923SOL    HW231538   1.765   7.224   8.667 -1.3345  0.7978 -0.4026
 9924SOL     OW31539   6.550   0.832   4.145 -0.5084 -0.1640  0.1447
 9924SOL    HW131540   6.519   0.742   4.136 -2.2747  0.2315  1.6831
 9924SOL    HW231541   6.470   0.885   4.144  0.4260  1.2998  0.2535
 9925SOL     OW31542   1.062   8.460   7.270  0.0933 -0.6914 -0.1596
 9925SOL    HW131543   1.146   8.451   7.315 -0.3516  0.0471  0.8591
 9925SOL    HW231544   0.996   8.437   7.336 -0.6016  0.8796 -0.2573
 9926SOL     OW31545   7.190   6.016   5.660  0.5061 -0.6347  0.0486
 9926SOL    HW131546   7.170   6.095   5.611  1.8125  0.0091  0.5100
 9926SOL    HW231547   7.231   5.958   5.596 -1.4692 -1.4507 -0.5777
 9927SOL     OW31548   9.000   8.486   2.512  0.3430 -0.6847  0.0372
 9927SOL    HW131549   9.000   8.402   2.466  2.0536 -0.4431 -0.4720
 9927SOL    HW231550   9.027   8.465   2.601  1.4774 -0.6154 -0.2742
 9928SOL     OW31551   0.244   8.189   9.072 -0.4083 -0.1120  0.1364
 9928SOL    HW131552   0.281   8.273   9.046  1.6993 -1.6741 -2.3244
 9928SOL    HW231553   0.183   8.166   9.002 -1.2571 -0.4951  0.9683
 9929SOL     OW31554   3.261   2.233   1.821  0.4491 -0.4997 -0.4147
 9929SOL    HW131555   3.193   2.174   1.855  0.6857  0.5549  2.1698
 9929SOL    HW231556   3.343   2.190   1.843  0.6453  1.0378  2.3018
 9930SOL     OW31557   0.834   5.093   5.068 -0.7403  0.0469  0.3702
 9930SOL    HW131558   0.746   5.118   5.040 -0.9711  0.5146  1.4445
 9930SOL    HW231559   0.891   5.120   4.996 -1.3511  0.7630  0.1409
 9931SOL     OW31560   3.440   3.373   1.256 -0.1850  0.5912  0.4417
 9931SOL    HW131561   3.458   3.445   1.318 -1.6855  1.5863 -0.2184
 9931SOL    HW231562   3.430   3.417   1.172  3.0760 -0.8696 -0.8331
 9932SOL     OW31563   5.974   1.299   3.073  0.7428  0.0546 -0.9458
 9932SOL    HW131564   5.998   1.208   3.059 -0.3716 -0.4504  0.3244
 9932SOL    HW231565   5.890   1.310   3.027 -0.4529 -0.3015  1.0565
 9933SOL     OW31566   8.677   1.195   3.972  0.1166 -0.3610 -0.0036
 9933SOL    HW131567   8.763   1.232   3.953  0.3583 -1.1223 -0.4247
 9933SOL    HW231568   8.665   1.127   3.906 -1.4833  0.7610 -0.9555
 9934SOL     OW31569   3.024   4.586   4.771  0.1088  0.0226 -0.7682
 9934SOL    HW131570   3.007   4.492   4.772  2.5338 -0.4935  0.8919
 9934SOL    HW231571   3.050   4.605   4.681  2.0672 -1.4617 -0.5702
 9935SOL     OW31572   0.617   0.093   1.764  0.1748  0.0182  0.0724
 9935SOL    HW131573   0.674   0.095   1.687 -0.3626  0.9536 -0.3312
 9935SOL    HW231574   0.532   0.064   1.730  0.1784 -0.5152  0.5036
 9936SOL     OW31575   9.353   5.772   2.878 -0.7876  0.0625 -0.6983
 9936SOL    HW131576   9.358   5.735   2.790 -2.4360 -2.9126  0.3454
 9936SOL    HW231577   9.406   5.714   2.932 -2.1718  0.0985  0.7590
 9937SOL     OW31578   3.824   8.669   2.740 -0.2743  0.2740 -0.2300
 9937SOL    HW131579   3.824   8.744   2.800 -1.5632  1.5092 -1.6807
 9937SOL    HW231580   3.756   8.611   2.775  3.0518 -2.1615  2.9775
 9938SOL     OW31581   7.473   0.733   3.171 -0.5201  0.5112  0.7464
 9938SOL    HW131582   7.446   0.727   3.262 -1.3548 -1.7366  0.4221
 9938SOL    HW231583   7.424   0.663   3.127  2.0281 -0.4297 -0.8325
 9939SOL     OW31584   8.089   9.654   4.254  0.3675  0.0304 -0.1893
 9939SOL    HW131585   8.066   9.716   4.323 -0.7387 -0.6379  0.0685
 9939SOL    HW231586   8.185   9.650   4.255  0.3604 -0.1723  1.4995
 9940SOL     OW31587   5.049   6.331   9.786  0.2010 -1.0560  0.0308
 9940SOL    HW131588   5.079   6.316   9.696 -1.0324 -0.5885 -0.4876
 9940SOL    HW231589   4.955   6.314   9.782  0.5448 -4.1246  1.9448
 9941SOL     OW31590   5.203   8.427   0.833 -0.1440  0.1578  0.0289
 9941SOL    HW131591   5.235   8.491   0.769 -0.8904 -0.1409 -0.6709
 9941SOL    HW231592   5.210   8.471   0.917  0.8355  0.5747 -0.2530
 9942SOL     OW31593   4.289   2.879   7.786 -0.1714  0.4352  0.3477
 9942SOL    HW131594   4.305   2.932   7.708 -0.2929  0.3919  0.2939
 9942SOL    HW231595   4.203   2.840   7.772  0.0176  0.0315  0.2733
 9943SOL     OW31596   3.921   1.885   2.019 -0.5402  0.1441  0.4165
 9943SOL    HW131597   3.910   1.973   1.984 -1.5837 -0.6569 -1.4374
 9943SOL    HW231598   3.832   1.849   2.022 -0.2992 -0.4170  2.4405
 9944SOL     OW31599   9.335   9.468   9.298 -0.3972 -0.6479  0.2274
 9944SOL    HW131600   9.295   9.424   9.223 -0.5760  0.1598 -0.1709
 9944SOL    HW231601   9.331   9.561   9.275 -0.2652 -0.4055  1.1518
 9945SOL     OW31602   1.405   2.978   6.956 -0.1644 -0.5496  0.4728
 9945SOL    HW131603   1.471   3.046   6.944  1.4733 -1.4274  3.3410
 9945SOL    HW231604   1.449   2.897   6.932 -0.4939 -1.0392  1.4479
 9946SOL     OW31605   5.753   5.457   7.085  0.2795  0.3683 -0.0636
 9946SOL    HW131606   5.801   5.421   7.011 -0.1475  0.9658 -0.6350
 9946SOL    HW231607   5.662   5.438   7.066  0.1538  0.6686  0.2316
 9947SOL     OW31608   0.361   1.985   2.996  0.8199 -0.3844 -0.1911
 9947SOL    HW131609   0.292   1.920   3.009  0.6434 -0.5798 -1.8258
 9947SOL    HW231610   0.315   2.066   2.977  1.0295 -0.3524 -0.5849
 9948SOL     OW31611   9.518   2.562   5.404 -0.3478  0.9561  0.5631
 9948SOL    HW131612   9.548   2.508   5.332 -1.2156  0.8476  0.2632
 9948SOL    HW231613   9.536   2.510   5.483 -1.0094  0.2949  0.2894
 9949SOL     OW31614   4.248   3.464   8.485  0.1388 -0.1919 -0.7054
 9949SOL    HW131615   4.236   3.499   8.573 -2.0989 -1.4165 -0.4435
 9949SOL    HW231616   4.300   3.530   8.440  0.9637  0.6679  1.3962
 9950SOL     OW31617   3.199   5.499   0.574 -0.0717 -0.0498 -0.1474
 9950SOL    HW131618   3.124   5.505   0.515  0.3853  0.0558 -0.7224
 9950SOL    HW231619   3.270   5.464   0.520  0.5210  0.6098  0.1885
 9951SOL     OW31620   8.327   1.437   8.078 -0.1502 -0.0914  0.0563
 9951SOL    HW131621   8.383   1.475   8.010 -0.4986  0.2474 -0.0391
 9951SOL    HW231622   8.329   1.501   8.149 -0.6767  0.0697 -0.0752
 9952SOL     OW31623   7.238   4.344   8.231  0.4651  0.3496  0.4781
 9952SOL    HW131624   7.281   4.265   8.198  1.0057  1.0760 -0.5917
 9952SOL    HW231625   7.148   4.316   8.250  0.1990 -0.1712 -1.3861
 9953SOL     OW31626   0.981   5.000   7.724 -0.0530  0.2425  0.0305
 9953SOL    HW131627   1.058   5.055   7.737 -0.3900  0.4063  1.4675
 9953SOL    HW231628   0.907   5.056   7.749 -0.6826  0.1720 -1.5633
 9954SOL     OW31629   0.601   0.393   7.354 -0.2061  0.0629  0.2394
 9954SOL    HW131630   0.589   0.434   7.268  0.6577  0.5247  0.3277
 9954SOL    HW231631   0.630   0.464   7.410 -0.6661 -0.2604  0.9016
 9955SOL     OW31632   2.200   0.115   5.735  0.4566 -0.2679  0.8251
 9955SOL    HW131633   2.259   0.104   5.809  2.7530 -0.0637 -0.8459
 9955SOL    HW231634   2.222   0.202   5.700 -0.0172 -0.6646 -0.5071
 9956SOL     OW31635   3.363   5.805   2.210 -0.1519 -0.3095 -0.9343
 9956SOL    HW131636   3.395   5.885   2.251 -1.6622 -0.3346  0.4272
 9956SOL    HW231637   3.435   5.743   2.219  1.1592  0.9363 -2.2859
 9957SOL     OW31638   0.564   0.794   1.975 -0.6884 -0.9440  0.2536
 9957SOL    HW131639   0.640   0.781   1.919 -0.0148 -0.3961  1.0093
 9957SOL    HW231640   0.490   0.801   1.915 -0.5599 -4.0325 -0.4088
 9958SOL     OW31641   9.527   5.185   8.537  0.0778  0.1234 -0.1424
 9958SOL    HW131642   9.480   5.120   8.485 -1.0570  0.1978  0.7366
 9958SOL    HW231643   9.619   5.160   8.531 -0.2745 -1.1715 -0.3560
 9959SOL     OW31644   3.362   5.499   3.237 -0.2134 -0.5362 -0.3584
 9959SOL    HW131645   3.327   5.587   3.253 -0.7143 -1.1176  1.9908
 9959SOL    HW231646   3.454   5.505   3.265 -0.3052 -0.8037  0.0083
 9960SOL     OW31647   2.858   4.956   3.649 -0.0863 -0.4233  0.1873
 9960SOL    HW131648   2.829   5.028   3.593  0.0540 -0.6985 -0.2462
 9960SOL    HW231649   2.805   4.881   3.623  0.5871 -0.7776 -0.2019
 9961SOL     OW31650   6.991   8.377   9.734 -0.3166  0.4619 -0.0998
 9961SOL    HW131651   7.065   8.438   9.738  1.3481 -1.1922 -2.9046
 9961SOL    HW231652   7.013   8.308   9.796  0.1930  0.2719 -0.4943
 9962SOL     OW31653   4.601   1.528   4.822  0.2568 -0.1366  0.2814
 9962SOL    HW131654   4.619   1.577   4.742  2.1860 -1.0918  0.0749
 9962SOL    HW231655   4.516   1.561   4.852 -0.2990  0.5534 -1.8944
 9963SOL     OW31656   8.964   6.694   6.236  0.2940 -0.4340  0.1833
 9963SOL    HW131657   9.021   6.622   6.209  1.0718  0.4139 -0.5654
 9963SOL    HW231658   8.906   6.708   6.161 -0.6089 -0.9950  0.7665
 9964SOL     OW31659   0.290   5.813   5.697  0.3334  0.6039 -0.2256
 9964SOL    HW131660   0.237   5.830   5.774  1.7980 -2.5925  1.7176
 9964SOL    HW231661   0.269   5.723   5.672  1.2805  0.9146 -2.4404
 9965SOL     OW31662   4.801   7.587   0.557  0.2012 -0.5399  0.1515
 9965SOL    HW131663   4.796   7.536   0.637 -0.6151  0.6830  0.9070
 9965SOL    HW231664   4.725   7.559   0.505  0.4606 -0.9827  0.0057
 9966SOL     OW31665   0.845   0.837   4.263 -0.2737  0.7567 -0.0231
 9966SOL    HW131666   0.844   0.904   4.194  0.7003  0.6956 -0.1147
 9966SOL    HW231667   0.773   0.778   4.241  0.2112  0.5681 -1.1620
 9967SOL     OW31668   5.223   1.105   1.261  0.7008 -0.5439  0.1764
 9967SOL    HW131669   5.165   1.056   1.320 -1.9754 -0.5717 -2.2307
 9967SOL    HW231670   5.305   1.056   1.261 -0.8768 -3.3909  0.1609
 9968SOL     OW31671   6.655   8.794   7.974  0.0032  0.0772  0.0673
 9968SOL    HW131672   6.617   8.707   7.985 -2.0762  0.8302 -0.6937
 9968SOL    HW231673   6.731   8.780   7.918 -0.2988 -1.2630 -0.0370
 9969SOL     OW31674   7.482   2.067   5.267  0.3848 -0.0732  0.4281
 9969SOL    HW131675   7.539   2.110   5.331  1.5242  0.3783 -0.8502
 9969SOL    HW231676   7.540   2.043   5.195 -0.5830 -1.9721  0.1990
 9970SOL     OW31677   4.282   5.111   7.330  0.4858 -0.2285 -0.2687
 9970SOL    HW131678   4.241   5.028   7.305  2.2882 -1.2958  0.2043
 9970SOL    HW231679   4.210   5.174   7.328 -1.5182 -2.2433  1.8090
 9971SOL     OW31680   3.467   3.540   1.048  0.2834  0.0178  0.1676
 9971SOL    HW131681   3.414   3.594   0.990 -0.5298  0.2493  1.0919
 9971SOL    HW231682   3.557   3.552   1.017 -0.0004  1.0451 -0.3105
 9972SOL     OW31683   0.887   7.151   2.428  0.3824 -0.5096  0.6075
 9972SOL    HW131684   0.867   7.134   2.336 -1.0513 -1.0325  0.9879
 9972SOL    HW231685   0.869   7.244   2.439 -0.8070 -0.7288  0.6613
 9973SOL     OW31686   5.494   3.633   8.534  0.5656 -0.6999  0.1201
 9973SOL    HW131687   5.512   3.546   8.498  0.8846  0.0515 -1.6033
 9973SOL    HW231688   5.563   3.689   8.499 -0.9598  0.7334 -0.7663
 9974SOL     OW31689   0.099   1.115   2.625  0.2057  0.8086  0.2243
 9974SOL    HW131690   0.070   1.155   2.707 -0.5393  1.1360 -0.1801
 9974SOL    HW231691   0.018   1.084   2.584  0.5383  0.8646 -0.4929
 9975SOL     OW31692   0.685   2.126   7.472  0.9082 -0.4080  0.0031
 9975SOL    HW131693   0.591   2.111   7.478  0.5110  0.5295 -2.4902
 9975SOL    HW231694   0.717   2.055   7.416  1.3222  0.2754 -0.6555
 9976SOL     OW31695   3.505   7.907   2.760  0.1358  0.6566 -0.1473
 9976SOL    HW131696   3.422   7.954   2.770  0.2298  1.0483 -1.1596
 9976SOL    HW231697   3.544   7.910   2.848 -1.5173 -0.7110  0.6927
 9977SOL     OW31698   7.943   6.823   9.601  0.0930  0.0825 -0.3830
 9977SOL    HW131699   8.005   6.872   9.655  0.7136 -1.6923  0.5886
 9977SOL    HW231700   7.889   6.775   9.663 -1.4362  0.6067 -1.2673
 9978SOL     OW31701   3.559   8.993   6.161  0.1894 -0.2050 -0.0008
 9978SOL    HW131702   3.567   8.928   6.091  1.3441  1.1284 -1.1794
 9978SOL    HW231703   3.601   9.072   6.125  1.4029  0.3578  2.4248
 9979SOL     OW31704   3.804   9.459   9.713 -0.4258  0.8693  0.2623
 9979SOL    HW131705   3.817   9.448   9.619 -0.1179  1.4032  0.2407
 9979SOL    HW231706   3.790   9.370   9.746 -1.4253  0.7600 -0.4172
 9980SOL     OW31707   7.542   5.222   3.772 -0.5540 -0.4913  0.1792
 9980SOL    HW131708   7.507   5.224   3.683 -0.2733  0.4494  0.0696
 9980SOL    HW231709   7.632   5.193   3.762 -0.6017 -0.6461  0.1915
 9981SOL     OW31710   4.037   0.692   5.296 -0.1160 -0.7905 -0.1490
 9981SOL    HW131711   3.975   0.714   5.365  0.0866  1.1235 -0.5413
 9981SOL    HW231712   3.982   0.662   5.224 -0.7587  1.9573 -0.9033
 9982SOL     OW31713   4.646   5.173   8.870 -0.2728  0.3151  0.5822
 9982SOL    HW131714   4.623   5.093   8.823 -0.3968  0.1782  0.8717
 9982SOL    HW231715   4.666   5.144   8.959 -2.0804  0.8004  1.1983
 9983SOL     OW31716   2.226   8.726   7.775  0.3126  0.1421  0.2130
 9983SOL    HW131717   2.189   8.724   7.863 -0.3627  0.6282 -0.0512
 9983SOL    HW231718   2.319   8.744   7.788  0.0750  0.9942  0.7913
 9984SOL     OW31719   3.226   1.478   9.461 -0.0992  0.4771 -0.0890
 9984SOL    HW131720   3.243   1.572   9.461  0.0488  0.4503  0.3235
 9984SOL    HW231721   3.178   1.462   9.542  2.9849 -0.3642  1.7228
 9985SOL     OW31722   5.996   8.501   7.137 -0.3166 -0.9402 -0.1301
 9985SOL    HW131723   6.040   8.583   7.158 -0.2139 -1.1597  0.5267
 9985SOL    HW231724   5.941   8.482   7.214 -1.1921 -0.9233 -0.7277
 9986SOL     OW31725   9.560   6.460   7.338 -0.1638  0.3122  0.1475
 9986SOL    HW131726   9.596   6.543   7.305 -2.1095  0.6245 -1.4080
 9986SOL    HW231727   9.467   6.463   7.313 -0.8973 -1.2178  2.3475
 9987SOL     OW31728   0.882   9.770   8.946  0.0077 -0.4252 -0.1168
 9987SOL    HW131729   0.978   9.779   8.945  0.0304 -0.6107  0.2326
 9987SOL    HW231730   0.851   9.842   9.000 -0.2579  1.2907 -2.3843
 9988SOL     OW31731   2.657   8.222   2.461 -0.2070 -0.5130 -0.0566
 9988SOL    HW131732   2.684   8.142   2.416 -0.4184  0.4177 -1.9682
 9988SOL    HW231733   2.738   8.274   2.468 -0.4132 -0.1007 -0.6182
 9989SOL     OW31734   5.002   9.390   4.249  0.1244  0.2378  0.1578
 9989SOL    HW131735   5.040   9.449   4.315 -0.2945 -1.6027  2.1328
 9989SOL    HW231736   4.908   9.389   4.268  0.1088 -0.9758  0.0990
 9990SOL     OW31737   9.058   3.743   4.518 -0.0204  0.1139 -0.0990
 9990SOL    HW131738   8.989   3.756   4.583  0.2373  1.0575 -0.0032
 9990SOL    HW231739   9.139   3.763   4.566  0.5287 -2.6174  0.3069
 9991SOL     OW31740   9.656   7.288   8.973  0.1554  0.6664  0.5718
 9991SOL    HW131741   9.727   7.338   8.933  1.6792  0.6861  3.0572
 9991SOL    HW231742   9.645   7.212   8.916  2.9581  0.1170  0.6263
 9992SOL     OW31743   8.048   9.625   0.125 -0.0543  0.3803  0.6703
 9992SOL    HW131744   8.117   9.683   0.092 -0.2302  0.1680 -0.0656
 9992SOL    HW231745   8.067   9.618   0.219  0.8077  0.4838  0.5152
 9993SOL     OW31746   6.581   7.303   3.489 -0.0259  0.4559 -0.3192
 9993SOL    HW131747   6.644   7.267   3.551  0.6350  0.0309 -1.2044
 9993SOL    HW231748   6.623   7.382   3.455  0.0557  0.1516 -0.9424
 9994SOL     OW31749   9.055   4.206   0.237  0.1450  0.1704 -0.2394
 9994SOL    HW131750   9.103   4.129   0.206 -1.2996 -0.1998 -1.7034
 9994SOL    HW231751   9.065   4.270   0.166 -1.2305  0.1826 -0.4527
 9995SOL     OW31752   3.069   4.929   4.845  0.4238 -0.5694  0.2444
 9995SOL    HW131753   3.087   4.871   4.771 -0.2547 -0.1252 -0.2827
 9995SOL    HW231754   3.136   4.997   4.838  0.1761 -0.3623 -0.1463
 9996SOL     OW31755   9.672   9.093   0.268  0.0665 -0.5576 -0.2934
 9996SOL    HW131756   9.698   9.175   0.310 -0.1690 -1.5193  1.8844
 9996SOL    HW231757   9.576   9.092   0.276  0.1251 -1.3738  0.3957
 9997SOL     OW31758   6.100   9.569   9.629  0.7915  0.5125 -0.4076
 9997SOL    HW131759   6.160   9.558   9.555  0.4796  2.0956 -0.9419
 9997SOL    HW231760   6.132   9.647   9.674  0.9141 -0.3805  1.0976
 9998SOL     OW31761   6.470   5.810   9.492  0.0766  0.7520  0.0607
 9998SOL    HW131762   6.467   5.720   9.524 -0.7701  1.1506  1.1739
 9998SOL    HW231763   6.563   5.830   9.486  0.2613  0.2961  1.2586
 9999SOL     OW31764   8.093   7.049   4.421 -0.9182  0.0022  0.4072
 9999SOL    HW131765   8.126   7.111   4.486 -2.2048 -0.5909  1.6940
 9999SOL    HW231766   8.171   7.019   4.374 -0.1703  1.8313  0.4124
10000SOL     OW31767   9.008   7.961   0.520  0.3131  0.0462  0.0177
10000SOL    HW131768   9.061   8.010   0.457 -0.0624  0.9098  0.3572
10000SOL    HW231769   8.918   7.991   0.504  0.2847  0.8010  1.4095
10001SOL     OW31770   6.765   2.883   5.840  0.3238  0.5262  0.0596
10001SOL    HW131771   6.766   2.881   5.936  0.7613  1.7490  0.0960
10001SOL    HW231772   6.697   2.821   5.816 -1.1357  1.5946  1.2251
10002SOL     OW31773   1.261   1.842   2.919  0.6842 -0.2440  0.5872
10002SOL    HW131774   1.218   1.844   2.834  0.0927 -2.3740  0.7719
10002SOL    HW231775   1.263   1.933   2.947  0.3275  0.4292 -1.4117
10003SOL     OW31776   3.624   7.838   7.997 -0.3032  0.3928 -0.0903
10003SOL    HW131777   3.645   7.882   8.079  0.6851  0.4601 -0.3715
10003SOL    HW231778   3.677   7.882   7.931 -0.6191 -0.0670 -0.6671
10004SOL     OW31779   8.521   6.825   7.307  0.4216  0.2714  0.0518
10004SOL    HW131780   8.543   6.912   7.274  0.8401  0.2590  0.2873
10004SOL    HW231781   8.590   6.768   7.271  0.2171  0.0574 -0.0045
10005SOL     OW31782   7.479   6.676   5.279 -0.0124 -0.3910 -0.0481
10005SOL    HW131783   7.530   6.614   5.226  0.9109  0.8167 -0.6356
10005SOL    HW231784   7.434   6.731   5.215  1.3490  1.2789  0.3372
10006SOL     OW31785   5.775   0.049   0.300 -0.5571 -0.5365 -0.7929
10006SOL    HW131786   5.766   0.034   0.206  2.4877 -1.3473 -1.0636
10006SOL    HW231787   5.760   0.142   0.311 -2.2609 -0.6438 -1.8303
10007SOL     OW31788   5.476   5.999   4.980 -0.3014 -0.5370 -0.3848
10007SOL    HW131789   5.392   5.955   4.967 -1.3478  0.8440  1.2614
10007SOL    HW231790   5.532   5.932   5.020 -2.6374  0.0273  4.5681
10008SOL     OW31791   5.984   7.622   8.849 -0.6993 -0.0503 -0.3067
10008SOL    HW131792   5.970   7.706   8.807  0.3309  0.1878 -0.2025
10008SOL    HW231793   5.924   7.621   8.923  1.0804  1.7234  1.2551
10009SOL     OW31794   8.706   9.805   2.142  0.1194 -0.1698  0.1282
10009SOL    HW131795   8.689   9.738   2.076  0.4229  0.1112 -0.2392
10009SOL    HW231796   8.769   9.765   2.202 -0.2779 -0.4822  0.3413
10010SOL     OW31797   3.925   2.499   2.625  0.1768 -0.3265 -0.2265
10010SOL    HW131798   3.891   2.545   2.702 -0.4785 -1.9372  0.5102
10010SOL    HW231799   3.849   2.490   2.567  0.7548  1.2262 -1.2858
10011SOL     OW31800   6.819   4.053   3.618  0.5684  0.0209  0.4401
10011SOL    HW131801   6.857   4.130   3.660  0.2087 -0.3876  1.5465
10011SOL    HW231802   6.878   3.982   3.640 -0.1892 -0.3973  1.1823
10012SOL     OW31803   4.587   7.098   5.068  0.9801  0.1134 -0.4713
10012SOL    HW131804   4.575   7.105   5.163  0.8654  0.7385 -0.5231
10012SOL    HW231805   4.617   7.185   5.042 -0.3161  0.3648 -1.1976
10013SOL     OW31806   3.504   9.822   1.722  0.2710 -1.0676 -0.0886
10013SOL    HW131807   3.437   9.867   1.774  1.0510  0.5647 -0.4238
10013SOL    HW231808   3.488   9.852   1.632  1.0826 -1.1238 -0.2552
10014SOL     OW31809   5.829   0.218   6.884  0.3063 -0.6662 -0.6091
10014SOL    HW131810   5.736   0.232   6.900  0.6688  0.4628  0.7623
10014SOL    HW231811   5.832   0.167   6.803 -1.4709  0.0551 -1.1962
10015SOL     OW31812   8.892   4.815   0.997  0.4275  0.1004  0.3183
10015SOL    HW131813   8.880   4.908   0.977 -0.7791 -0.2576 -0.7850
10015SOL    HW231814   8.904   4.812   1.092  1.3960  1.4537  0.2598
10016SOL     OW31815   1.836   4.703   2.867 -0.1302  0.4806 -0.0329
10016SOL    HW131816   1.740   4.699   2.865 -0.2204  1.5911  1.2020
10016SOL    HW231817   1.861   4.709   2.775 -1.3085  1.2657 -0.3231
10017SOL     OW31818   0.024   0.302   5.778 -0.2587 -0.0855 -0.5905
10017SOL    HW131819  -0.023   0.302   5.694  0.7355  1.2574 -1.1942
10017SOL    HW231820   0.096   0.240   5.765 -2.4506 -3.1209  0.7642
10018SOL     OW31821   0.300   9.236   1.515  0.0742 -0.4158  0.1823
10018SOL    HW131822   0.381   9.264   1.557 -0.7594  0.4181  1.3013
10018SOL    HW231823   0.254   9.187   1.583  0.4230 -2.4969 -1.0108
10019SOL     OW31824   0.821   2.232   8.695  0.7544  0.2190 -0.0117
10019SOL    HW131825   0.767   2.186   8.631  2.3949 -0.7701 -0.7549
10019SOL    HW231826   0.758   2.274   8.754 -0.8389 -2.0691  0.0487
10020SOL     OW31827   3.000   5.417   9.771  0.1372  0.2542  0.2265
10020SOL    HW131828   3.073   5.371   9.813 -0.1084 -1.3047 -0.9580
10020SOL    HW231829   2.949   5.453   9.844  0.5641 -1.0498  1.2121
10021SOL     OW31830   1.191   3.620   5.152  0.3362  0.5911  0.5672
10021SOL    HW131831   1.135   3.689   5.117 -1.0277 -0.7101  0.0621
10021SOL    HW231832   1.178   3.546   5.092  2.0199 -0.0193  0.8831
10022SOL     OW31833   6.445   3.610   9.449 -0.7796  0.6529 -0.0250
10022SOL    HW131834   6.496   3.666   9.507 -0.2129 -0.5049  0.6238
10022SOL    HW231835   6.502   3.535   9.430 -1.4090  0.4099 -1.0968
10023SOL     OW31836   7.540   9.366   8.283 -0.1253 -0.0106 -0.3968
10023SOL    HW131837   7.579   9.316   8.212  0.2547  0.4054 -0.4863
10023SOL    HW231838   7.513   9.301   8.347  1.7575 -0.2588  0.1959
10024SOL     OW31839   9.503   5.110   1.918  0.5951  0.0940  0.1053
10024SOL    HW131840   9.453   5.115   1.999 -0.9176  0.9835 -0.8260
10024SOL    HW231841   9.483   5.023   1.883 -1.8009  0.9976 -1.0781
10025SOL     OW31842   2.034   4.918   5.391 -0.7524  0.0558 -0.4398
10025SOL    HW131843   2.044   5.007   5.426  0.3953 -0.2431  0.0291
10025SOL    HW231844   1.948   4.890   5.421  0.1667 -0.1991  2.2426
10026SOL     OW31845   0.574   5.641   1.585 -0.0124  0.2711  0.2964
10026SOL    HW131846   0.501   5.694   1.615 -0.2586  0.8852 -1.2781
10026SOL    HW231847   0.635   5.639   1.659 -0.5761  1.7008  0.8261
10027SOL     OW31848   2.879   8.137   5.241  0.2590  0.6013 -0.5575
10027SOL    HW131849   2.847   8.214   5.288 -0.3985 -0.0758  0.1245
10027SOL    HW231850   2.970   8.129   5.268  0.4639  1.3911 -0.9771
10028SOL     OW31851   9.775   7.143   4.617 -0.3969 -0.4613  0.2269
10028SOL    HW131852   9.695   7.174   4.659 -0.0228  0.2403  0.4274
10028SOL    HW231853   9.746   7.110   4.532 -0.7049  1.1273 -0.3080
10029SOL     OW31854   3.788   2.742   2.699 -0.3085  0.6804 -0.2761
10029SOL    HW131855   3.785   2.696   2.615 -0.3484 -0.6776  0.4471
10029SOL    HW231856   3.697   2.767   2.716 -0.6315 -0.8179  0.2990
10030SOL     OW31857   9.348   4.122   9.192 -0.5141 -0.2294  0.2967
10030SOL    HW131858   9.323   4.050   9.133 -0.2730 -0.3614  0.3569
10030SOL    HW231859   9.441   4.135   9.176 -0.9913  1.5830 -1.3732
10031SOL     OW31860   2.191   1.232   8.555  0.1472  0.2522 -0.7592
10031SOL    HW131861   2.107   1.193   8.579 -0.2074  1.0929 -0.6257
10031SOL    HW231862   2.255   1.162   8.573 -0.3254  0.1744  0.7637
10032SOL     OW31863   9.768   4.792   4.472  0.2180 -0.0217  0.4538
10032SOL    HW131864   9.766   4.842   4.553  2.8035  0.2565  0.4370
10032SOL    HW231865   9.843   4.827   4.424  1.2920 -2.9236 -0.1891
10033SOL     OW31866   1.333   6.941   0.310 -0.2066 -0.1220  0.1452
10033SOL    HW131867   1.242   6.916   0.298  0.3012 -1.8925 -0.3122
10033SOL    HW231868   1.342   6.957   0.404 -1.5506  2.6561 -0.1029
10034SOL     OW31869   2.394   6.329   6.850  0.6329 -0.2126 -0.3756
10034SOL    HW131870   2.387   6.345   6.944  0.1657 -0.1359 -0.4207
10034SOL    HW231871   2.448   6.251   6.842 -0.7462 -1.2422  0.0359
10035SOL     OW31872   8.483   4.511   6.261 -0.1077  0.3463  0.1850
10035SOL    HW131873   8.518   4.426   6.233 -1.3938 -0.5971  1.2734
10035SOL    HW231874   8.519   4.524   6.348  0.4771  1.1801 -0.1751
10036SOL     OW31875   9.357   6.043   8.160  0.4523  0.2182 -0.3783
10036SOL    HW131876   9.335   6.136   8.154  0.9975  0.3964  0.2047
10036SOL    HW231877   9.451   6.040   8.143  0.1696 -0.4275 -2.0376
10037SOL     OW31878   6.243   2.436   1.466  0.0473  0.3787 -0.2048
10037SOL    HW131879   6.280   2.459   1.551 -0.8956  1.3280 -0.0221
10037SOL    HW231880   6.215   2.520   1.429 -0.7389 -0.1609 -0.8680
10038SOL     OW31881   9.026   1.829   9.053  0.7570  0.9991  0.1364
10038SOL    HW131882   9.039   1.755   9.113 -0.5453 -0.4205 -1.2611
10038SOL    HW231883   8.971   1.890   9.102  2.0079  1.1973  1.3765
10039SOL     OW31884   1.860   0.866   2.912 -0.0352  0.1356  0.2160
10039SOL    HW131885   1.851   0.787   2.966 -0.2225 -0.6073 -0.8685
10039SOL    HW231886   1.791   0.858   2.847  0.2536  0.9592 -0.2030
10040SOL     OW31887   2.446   6.667   1.107  0.5197 -0.1806 -0.4703
10040SOL    HW131888   2.493   6.652   1.025 -0.3830  0.6315 -1.1588
10040SOL    HW231889   2.423   6.580   1.138  1.6175 -0.5438 -0.6208
10041SOL     OW31890   7.264   2.641   8.607 -0.2532 -0.5323  0.3299
10041SOL    HW131891   7.351   2.624   8.643  0.0189 -0.1452 -0.1265
10041SOL    HW231892   7.227   2.554   8.592  1.2418 -0.8445 -2.2872
10042SOL     OW31893   7.347   6.813   5.077 -0.4710 -0.1776 -0.5375
10042SOL    HW131894   7.253   6.796   5.086 -0.6780  0.6035 -1.0709
10042SOL    HW231895   7.358   6.903   5.108  0.3818 -0.7949  1.0604
10043SOL     OW31896   9.564   3.545   0.474 -0.4703  0.2413  0.3005
10043SOL    HW131897   9.520   3.472   0.517  0.9153 -1.7277 -1.3928
10043SOL    HW231898   9.657   3.529   0.490 -0.0395  0.5873 -1.5984
10044SOL     OW31899   4.431   0.340   5.104  0.4042 -0.0249 -0.5790
10044SOL    HW131900   4.379   0.303   5.175 -2.4083  0.0565 -2.4187
10044SOL    HW231901   4.467   0.263   5.059 -0.3265 -0.2515 -0.7969
10045SOL     OW31902   8.718   5.768   8.498 -0.6145  0.6282 -0.3312
10045SOL    HW131903   8.799   5.813   8.522  0.5850 -0.3606 -2.2861
10045SOL    HW231904   8.651   5.836   8.499  0.5100  1.7677 -0.0310
10046SOL     OW31905   2.198   4.769   8.053  0.7672 -0.2407  0.2285
10046SOL    HW131906   2.240   4.689   8.085 -1.3346 -1.1277  0.9856
10046SOL    HW231907   2.189   4.824   8.131  0.8363  0.0826  0.0084
10047SOL     OW31908   2.075   8.416   7.453  0.3956  0.3063  0.3492
10047SOL    HW131909   1.987   8.381   7.464  1.3146 -2.1268  0.4877
10047SOL    HW231910   2.081   8.438   7.360 -0.5478  1.0940  0.4663
10048SOL     OW31911   3.074   7.499   8.713 -0.5426 -0.0243  0.3705
10048SOL    HW131912   3.047   7.446   8.639 -0.2441  0.4744 -0.1038
10048SOL    HW231913   2.993   7.540   8.744 -0.8866 -1.2348  1.1488
10049SOL     OW31914   7.398   5.151   6.739  0.3756 -0.6886 -0.1327
10049SOL    HW131915   7.436   5.147   6.651  1.0341 -1.8808  0.1824
10049SOL    HW231916   7.389   5.060   6.765 -0.0083 -0.3527  0.9568
10050SOL     OW31917   7.954   9.703   6.970 -0.1434  0.2064 -0.7531
10050SOL    HW131918   7.921   9.650   6.897 -2.6814 -1.8059  1.6538
10050SOL    HW231919   8.001   9.641   7.025 -0.3253  1.1499  0.4985
10051SOL     OW31920   1.482   7.365   5.041  0.0251 -0.4626 -0.2126
10051SOL    HW131921   1.399   7.322   5.020  0.7759 -2.3844  0.5363
10051SOL    HW231922   1.507   7.329   5.126  1.6866 -0.0295 -0.4844
10052SOL     OW31923   6.404   1.846   5.864 -0.0676  0.5133 -0.2921
10052SOL    HW131924   6.464   1.771   5.871  0.5172  0.8707 -1.3613
10052SOL    HW231925   6.317   1.806   5.859  0.1220 -0.0373  0.4899
10053SOL     OW31926   6.382   2.259   3.812  0.1383  0.5154  0.7269
10053SOL    HW131927   6.424   2.173   3.818 -1.3863 -0.3822 -0.8189
10053SOL    HW231928   6.334   2.268   3.894  1.9966  0.8823  1.8409
10054SOL     OW31929   3.746   6.551   4.646 -0.3312 -0.0643 -0.1398
10054SOL    HW131930   3.713   6.553   4.556 -1.9664 -0.3643  0.4249
10054SOL    HW231931   3.727   6.638   4.681 -0.0855 -0.0879  0.0623
10055SOL     OW31932   2.199   2.419   3.653  0.5108 -0.2351 -0.4015
10055SOL    HW131933   2.142   2.344   3.634  1.5114 -1.1385  0.0837
10055SOL    HW231934   2.250   2.431   3.573  1.1341 -0.7900 -0.0926
10056SOL     OW31935   9.621   7.356   4.265  0.7181 -0.1599 -0.1158
10056SOL    HW131936   9.581   7.271   4.247  1.3237 -0.6898  0.9318
10056SOL    HW231937   9.714   7.337   4.279  1.0429  0.8121 -0.7925
10057SOL     OW31938   1.022   0.328   9.218  0.3354  0.2564 -0.2028
10057SOL    HW131939   1.045   0.297   9.305  0.2873 -0.3912 -0.4172
10057SOL    HW231940   1.106   0.345   9.175  0.3576  1.5077  0.2841
10058SOL     OW31941   8.524   7.869   6.300 -0.8381 -0.5318  0.0325
10058SOL    HW131942   8.607   7.902   6.335 -1.5606  1.2850  0.1531
10058SOL    HW231943   8.496   7.803   6.364 -1.0417  1.1396  1.7551
10059SOL     OW31944   7.540   6.156   3.902  0.1367 -0.6926 -0.2179
10059SOL    HW131945   7.611   6.220   3.896 -1.5523  1.4566  1.1879
10059SOL    HW231946   7.584   6.073   3.923  2.2220  0.5741  0.7322
10060SOL     OW31947   1.431   2.168   2.732 -0.5490  0.2053  0.0322
10060SOL    HW131948   1.365   2.112   2.691  1.1029  1.0094 -4.2217
10060SOL    HW231949   1.385   2.250   2.750 -1.8225 -0.8470  1.9149
10061SOL     OW31950   6.480   1.442   6.012 -0.1256 -0.7004 -0.1277
10061SOL    HW131951   6.452   1.389   5.938 -0.1708  0.6256 -1.0845
10061SOL    HW231952   6.572   1.462   5.994 -0.1878 -0.2203  0.0897
10062SOL     OW31953   2.581   3.119   3.910 -0.1601 -0.8305  0.2884
10062SOL    HW131954   2.565   3.026   3.927 -1.5982 -0.8184 -0.7695
10062SOL    HW231955   2.540   3.135   3.825 -0.0980  0.8101  0.5343
10063SOL     OW31956   9.005   2.291   6.671 -0.3097 -0.4940  0.3379
10063SOL    HW131957   9.071   2.287   6.740 -1.1813  0.0287  1.2315
10063SOL    HW231958   8.950   2.215   6.687 -0.1228 -0.7478 -0.2074
10064SOL     OW31959   5.348   5.207   6.738 -0.5342 -0.6999  0.2502
10064SOL    HW131960   5.278   5.271   6.727 -0.8456 -0.9966  0.4803
10064SOL    HW231961   5.302   5.126   6.760 -0.0761 -0.7123  1.2031
10065SOL     OW31962   8.827   7.070   8.808  0.8043  0.0236  0.2616
10065SOL    HW131963   8.905   7.017   8.790  0.8395 -0.8054  2.4537
10065SOL    HW231964   8.853   7.159   8.783  1.5890 -0.6077 -1.2839
10066SOL     OW31965   8.777   7.408   0.117  0.0745 -0.4495 -0.4926
10066SOL    HW131966   8.743   7.498   0.124 -0.1768 -0.5784  0.0072
10066SOL    HW231967   8.699   7.354   0.105  0.2498 -0.5787 -1.1071
10067SOL     OW31968   2.942   1.042   7.019  0.5290  0.2563  0.1841
10067SOL    HW131969   2.900   1.077   7.097 -1.4928  1.0627 -1.1689
10067SOL    HW231970   2.901   1.090   6.947  1.2069 -1.5024 -1.4612
10068SOL     OW31971   9.387   5.288   7.354 -0.3072 -0.2725 -0.0423
10068SOL    HW131972   9.315   5.349   7.374 -0.1840  0.0219 -0.4754
10068SOL    HW231973   9.433   5.277   7.437 -0.1943  0.4082 -0.0109
10069SOL     OW31974   8.836   1.813   7.780  0.3014  0.0777 -0.0088
10069SOL    HW131975   8.898   1.871   7.823  0.5989  0.0522 -0.3956
10069SOL    HW231976   8.750   1.842   7.811  0.5636 -0.8578  1.7316
10070SOL     OW31977   0.113   1.820   3.073  0.1237  0.0582 -0.3338
10070SOL    HW131978   0.033   1.854   3.032 -0.2699 -0.9596 -0.4486
10070SOL    HW231979   0.093   1.818   3.167  0.4236  0.8180 -0.2403
10071SOL     OW31980   3.826   5.188   3.584  0.4847  0.0422  0.2282
10071SOL    HW131981   3.775   5.264   3.613  0.1684  0.1094 -0.5055
10071SOL    HW231982   3.865   5.155   3.665 -0.6892 -0.0025  0.8008
10072SOL     OW31983   2.132   4.902   9.574  0.5427 -0.0139  0.5295
10072SOL    HW131984   2.171   4.956   9.504  0.0210 -1.6193 -1.0651
10072SOL    HW231985   2.055   4.862   9.533 -0.9261  0.5083  2.6445
10073SOL     OW31986   4.866   9.478   4.596 -0.3066  0.2657 -0.1191
10073SOL    HW131987   4.840   9.454   4.507 -0.4183  0.8001 -0.2370
10073SOL    HW231988   4.828   9.410   4.651 -2.2637  1.1839 -0.2589
10074SOL     OW31989   1.973   0.444   9.400 -0.5002  0.2106  0.4523
10074SOL    HW131990   1.993   0.507   9.331  0.0879  1.0678  1.3964
10074SOL    HW231991   2.031   0.370   9.383 -1.0547 -0.0142 -0.5395
10075SOL     OW31992   3.794   2.573   7.653  0.3970 -0.1615  0.2377
10075SOL    HW131993   3.737   2.512   7.699  1.5779 -1.0568  0.5634
10075SOL    HW231994   3.767   2.660   7.685 -0.7036 -0.5704  0.4471
10076SOL     OW31995   0.170   5.283   3.398 -0.1326  0.0024 -0.2646
10076SOL    HW131996   0.264   5.265   3.401 -0.2368 -0.6348 -0.6433
10076SOL    HW231997   0.147   5.277   3.305 -0.7426 -0.9187 -0.0762
10077SOL     OW31998   9.002   9.570   1.110 -0.2323  0.1265 -0.0200
10077SOL    HW131999   8.985   9.660   1.082  1.9618  0.5562 -0.1248
10077SOL    HW232000   9.018   9.523   1.028  2.1543  0.4852  0.1707
10078SOL     OW32001   0.409   0.794   7.984 -0.2810 -0.3878 -0.1336
10078SOL    HW132002   0.499   0.808   8.012 -0.2746  0.4741 -0.5463
10078SOL    HW232003   0.376   0.724   8.040  1.0002 -1.4897 -0.7287
10079SOL     OW32004   5.919   7.028   4.281  0.3544  0.0788  0.8327
10079SOL    HW132005   5.877   7.086   4.218  0.2280  0.7316  1.5108
10079SOL    HW232006   5.990   7.079   4.318  2.5179 -1.3593 -1.0660
10080SOL     OW32007   6.964   9.700   3.777 -0.2352 -0.1234 -0.4405
10080SOL    HW132008   7.001   9.625   3.824  1.7363  0.4159 -1.0062
10080SOL    HW232009   6.926   9.755   3.845  1.8924  0.2708  0.5056
10081SOL     OW32010   4.959   9.245   5.672 -0.2136 -0.0484 -0.0753
10081SOL    HW132011   4.966   9.197   5.590  0.7416  1.6461 -1.0359
10081SOL    HW232012   4.980   9.180   5.740 -1.0370 -1.4766 -1.1339
10082SOL     OW32013   9.246   0.338   3.918 -0.0736  0.4551  0.4712
10082SOL    HW132014   9.216   0.313   3.831  0.6368  1.1391  0.0091
10082SOL    HW232015   9.305   0.412   3.902 -0.2537  0.8520  1.5682
10083SOL     OW32016   5.288   7.877   1.758  0.3838  0.2217  0.0149
10083SOL    HW132017   5.329   7.876   1.844 -0.9064  0.1538  0.6497
10083SOL    HW232018   5.196   7.899   1.775 -0.0856 -0.6140 -1.2508
10084SOL     OW32019   8.802   8.714   6.000  0.0470 -0.0023  0.2957
10084SOL    HW132020   8.852   8.637   5.972  1.4211  0.7378  0.6054
10084SOL    HW232021   8.868   8.783   6.009 -1.1851  1.3089 -0.2874
10085SOL     OW32022   4.875   8.413   0.003 -0.9513 -0.3314 -0.3357
10085SOL    HW132023   4.949   8.410   0.063 -0.7719  1.6227 -0.3798
10085SOL    HW232024   4.912   8.391  -0.082 -0.6652 -0.5522 -0.1556
10086SOL     OW32025   1.384   6.721   9.706  0.1477 -0.8563 -0.2022
10086SOL    HW132026   1.449   6.653   9.720  0.1104 -0.4159  2.7564
10086SOL    HW232027   1.434   6.796   9.674  0.5004 -1.6163 -1.4676
10087SOL     OW32028   7.313   7.324   6.816  0.4694  0.4976 -0.0194
10087SOL    HW132029   7.340   7.279   6.737  2.4515  0.8855  0.3775
10087SOL    HW232030   7.231   7.283   6.841  1.0570 -1.3107 -0.9147
10088SOL     OW32031   0.678   9.541   6.410 -0.0469 -0.4490 -0.0346
10088SOL    HW132032   0.700   9.485   6.484  0.3589  0.4530  0.5452
10088SOL    HW232033   0.729   9.506   6.337  1.3270  0.0026  0.6661
10089SOL     OW32034   1.769   0.125   7.000 -0.1193  0.3038 -0.1546
10089SOL    HW132035   1.757   0.030   7.008 -0.2166  0.4004  1.1686
10089SOL    HW232036   1.681   0.160   6.991 -0.0855  0.2693 -0.6145
10090SOL     OW32037   2.353   1.888   5.919  0.5043 -0.2275 -0.7397
10090SOL    HW132038   2.444   1.918   5.923  0.4396 -0.1024  0.0710
10090SOL    HW232039   2.303   1.965   5.891  0.4534  0.1866  0.4332
10091SOL     OW32040   8.327   7.882   0.291 -0.2052  0.2898 -0.1741
10091SOL    HW132041   8.343   7.908   0.382 -0.4745  0.9167 -0.3066
10091SOL    HW232042   8.388   7.934   0.240 -1.4618  1.4918 -0.5341
10092SOL     OW32043   0.160   1.461   3.432 -0.7380 -0.0326  0.2059
10092SOL    HW132044   0.177   1.555   3.433 -3.0941  0.5651 -2.4687
10092SOL    HW232045   0.172   1.433   3.522  1.5402  2.4866  0.7999
10093SOL     OW32046   4.844   2.848   6.302 -0.4332  0.5390 -0.3477
10093SOL    HW132047   4.853   2.911   6.231  0.6616 -2.7081 -3.3599
10093SOL    HW232048   4.754   2.816   6.295  0.0549 -0.7306 -1.2484
10094SOL     OW32049   5.468   3.236   0.028  0.6136  0.2085 -0.2384
10094SOL    HW132050   5.452   3.248  -0.066 -0.1612  0.6747 -0.0550
10094SOL    HW232051   5.564   3.233   0.036  0.6909 -1.8084 -1.2707
10095SOL     OW32052   2.578   7.280   7.611  0.6345  0.1329 -0.0094
10095SOL    HW132053   2.508   7.322   7.661  0.3434 -0.5127  0.1290
10095SOL    HW232054   2.554   7.188   7.607  1.4288 -0.0816 -0.0471
10096SOL     OW32055   1.977   8.332   1.210  0.0111  0.0454  0.2202
10096SOL    HW132056   1.943   8.269   1.274  0.7349 -2.4670 -1.7140
10096SOL    HW232057   1.938   8.416   1.236 -0.8064 -1.0945  3.0791
10097SOL     OW32058   2.542   9.769   8.221 -0.8015  0.0074  0.4054
10097SOL    HW132059   2.575   9.682   8.244 -1.2851 -0.2560  0.1127
10097SOL    HW232060   2.577   9.786   8.134 -3.3166 -1.2840 -0.9419
10098SOL     OW32061   2.305   8.556   4.412  0.5673 -0.7816 -0.2838
10098SOL    HW132062   2.381   8.607   4.441  0.5490  0.0045 -1.5779
10098SOL    HW232063   2.343   8.481   4.367  0.5796 -0.6919 -0.4227
10099SOL     OW32064   7.897   1.913   8.101 -0.4602  0.6437  0.0284
10099SOL    HW132065   7.984   1.877   8.083 -0.9612 -0.8812  0.5134
10099SOL    HW232066   7.873   1.959   8.021  0.3084  0.0642 -0.5482
10100SOL     OW32067   8.743   9.107   2.115  0.1700 -0.0244  0.2121
10100SOL    HW132068   8.830   9.136   2.086  0.6774 -0.7110  1.0035
10100SOL    HW232069   8.704   9.184   2.157 -0.3241  0.8058 -1.6532
10101SOL     OW32070   5.741   0.187   3.807  0.2432 -0.0868 -0.3271
10101SOL    HW132071   5.777   0.229   3.884 -1.8349 -0.5541  0.9804
10101SOL    HW232072   5.762   0.094   3.817 -1.8168 -0.4945  0.8576
10102SOL     OW32073   7.557   2.881   2.459 -0.0065  0.4301  0.2300
10102SOL    HW132074   7.489   2.878   2.392  0.9072  2.3703 -0.9014
10102SOL    HW232075   7.618   2.811   2.434 -0.5864 -0.0422  0.1116
10103SOL     OW32076   6.863   3.489   4.713  0.1656  0.2850  0.3353
10103SOL    HW132077   6.943   3.509   4.762  0.4346  0.3260 -0.1208
10103SOL    HW232078   6.863   3.551   4.640 -0.4376  0.4876  0.4923
10104SOL     OW32079   2.868   3.471   5.072  0.1736  0.5082  0.8869
10104SOL    HW132080   2.884   3.558   5.034 -0.0551  0.7190  1.2570
10104SOL    HW232081   2.955   3.434   5.086  0.3599  1.4570  2.4721
10105SOL     OW32082   3.667   1.978   8.961  0.0384  0.1364 -0.8130
10105SOL    HW132083   3.688   1.961   8.869 -0.3281  0.6267 -0.9884
10105SOL    HW232084   3.586   2.028   8.959  0.0798  0.2389 -0.2218
10106SOL     OW32085   4.077   5.209   7.680 -0.0199 -0.4776 -0.0470
10106SOL    HW132086   4.155   5.249   7.641 -1.3536  2.1745 -0.2529
10106SOL    HW232087   4.103   5.187   7.769  1.0363  0.1093 -0.1888
10107SOL     OW32088   2.455   2.578   1.547  0.8135 -0.1571  0.1194
10107SOL    HW132089   2.390   2.508   1.540  0.6322 -0.0785  0.9427
10107SOL    HW232090   2.537   2.538   1.520  0.3792 -0.1615 -1.3071
10108SOL     OW32091   0.370   7.931   1.812 -0.0374  0.2888  0.6594
10108SOL    HW132092   0.301   7.980   1.857 -1.9795 -1.0396 -0.6825
10108SOL    HW232093   0.401   7.989   1.743 -0.7062  0.4637  0.5026
10109SOL     OW32094   6.563   7.971   9.769  1.2308  0.3054  0.1646
10109SOL    HW132095   6.529   7.990   9.856  0.5027  1.1164 -0.2681
10109SOL    HW232096   6.606   8.053   9.742 -0.2843  0.7775 -0.9968
10110SOL     OW32097   3.726   4.759   6.568  0.3218  0.2804 -0.7019
10110SOL    HW132098   3.773   4.719   6.641 -0.8165  1.7815  0.9388
10110SOL    HW232099   3.646   4.794   6.607  1.0941  3.9232 -1.9480
10111SOL     OW32100   0.913   5.946   5.420  0.3763  0.3122 -0.2467
10111SOL    HW132101   0.991   5.997   5.400  0.5922 -0.5001 -1.6386
10111SOL    HW232102   0.946   5.858   5.438 -0.2365 -0.2345 -1.6289
10112SOL     OW32103   9.777   5.314   6.238 -0.1170 -0.1587  0.3455
10112SOL    HW132104   9.713   5.380   6.265 -0.7038 -1.1282  1.4141
10112SOL    HW232105   9.723   5.243   6.202  0.4058 -0.6913  0.6097
10113SOL     OW32106   4.317   4.714   1.107 -0.0436  0.2350  0.0643
10113SOL    HW132107   4.309   4.771   1.183 -1.9408 -1.0724  0.9235
10113SOL    HW232108   4.256   4.750   1.043 -0.5621 -0.2495  0.2674
10114SOL     OW32109   7.201   8.508   2.559 -0.5196 -0.1390  0.6951
10114SOL    HW132110   7.159   8.594   2.566  1.3662  0.7470  1.9879
10114SOL    HW232111   7.220   8.499   2.465 -0.4063  1.0320  0.5897
10115SOL     OW32112   4.606   1.622   5.947  0.2171  0.4015 -0.5593
10115SOL    HW132113   4.557   1.704   5.953 -0.4252 -0.0454  0.6325
10115SOL    HW232114   4.694   1.644   5.976 -0.0552  0.5993  0.1301
10116SOL     OW32115   1.741   9.740   9.620  0.3296  0.0668  0.0457
10116SOL    HW132116   1.691   9.817   9.646 -0.6931 -0.3408 -0.6730
10116SOL    HW232117   1.794   9.769   9.546  1.2999  0.5366  0.8972
10117SOL     OW32118   6.935   7.569   4.929 -0.0981  0.4521 -0.6762
10117SOL    HW132119   6.865   7.603   4.873  0.0357 -0.0846 -1.1784
10117SOL    HW232120   7.015   7.599   4.887  0.0519 -1.0354 -1.5241
10118SOL     OW32121   7.715   6.549   2.449  0.1645 -0.5055 -0.1506
10118SOL    HW132122   7.638   6.555   2.505 -0.6774  2.1908 -1.3896
10118SOL    HW232123   7.788   6.569   2.506 -0.5883  1.3656  0.2438
10119SOL     OW32124   2.529   0.054   2.605  0.1243  0.5702 -0.1737
10119SOL    HW132125   2.486   0.019   2.682  0.1717  2.3992  0.7355
10119SOL    HW232126   2.553  -0.023   2.554 -0.6864 -0.6438  1.2006
10120SOL     OW32127   7.873   8.561   8.814 -0.1284 -0.0829 -0.1530
10120SOL    HW132128   7.944   8.602   8.764  0.6800 -0.7671  0.4098
10120SOL    HW232129   7.819   8.518   8.747  1.8818 -2.4354 -0.4025
10121SOL     OW32130   7.665   8.534   5.106  0.0156 -0.1348 -0.3221
10121SOL    HW132131   7.612   8.546   5.184 -1.4369 -2.2746 -0.8858
10121SOL    HW232132   7.714   8.616   5.097  0.2899  0.1679  2.8098
10122SOL     OW32133   4.304   9.215   1.149  0.2015  0.3268 -0.1219
10122SOL    HW132134   4.260   9.237   1.067  0.9538  0.7566 -0.4169
10122SOL    HW232135   4.256   9.140   1.183 -1.1333  1.1358 -0.1362
10123SOL     OW32136   6.175   9.515   6.369  0.2653  0.5871 -0.5498
10123SOL    HW132137   6.235   9.466   6.425 -1.4547 -1.8187 -0.6569
10123SOL    HW232138   6.232   9.558   6.305  1.9427 -0.7547 -0.0499
10124SOL     OW32139   6.892   1.956   7.941  0.6521 -0.1175  0.7445
10124SOL    HW132140   6.893   1.966   7.845  0.1729 -1.9620  0.5006
10124SOL    HW232141   6.799   1.960   7.965  0.6814 -0.7155  0.9799
10125SOL     OW32142   1.585   6.815   9.369  0.0156  0.3723 -0.1825
10125SOL    HW132143   1.524   6.888   9.383 -3.1847 -2.2920  1.0057
10125SOL    HW232144   1.597   6.777   9.456  1.2999 -0.7606 -0.8184
10126SOL     OW32145   4.854   6.962   9.604 -0.4786 -0.5625 -0.2667
10126SOL    HW132146   4.767   7.002   9.603 -0.0023  0.5152 -0.1868
10126SOL    HW232147   4.837   6.868   9.608 -1.6396 -0.4006 -0.8593
10127SOL     OW32148   9.665   8.070   5.362 -0.2200 -0.4181 -0.0587
10127SOL    HW132149   9.573   8.057   5.339 -0.3209  0.7382 -0.3582
10127SOL    HW232150   9.693   7.984   5.395 -1.8330 -0.4021  1.5656
10128SOL     OW32151   5.653   1.307   6.295 -1.2422 -0.5787 -0.4076
10128SOL    HW132152   5.608   1.359   6.362 -1.1441 -0.2853 -0.5648
10128SOL    HW232153   5.655   1.218   6.331  0.0117 -0.1848  0.6086
10129SOL     OW32154   9.562   1.269   1.457 -0.2605  0.4357 -0.8131
10129SOL    HW132155   9.594   1.357   1.434  0.6394 -0.0029 -1.3006
10129SOL    HW232156   9.642   1.217   1.468 -0.7286 -0.0287  0.7366
10130SOL     OW32157   3.929   7.762   4.705  0.7517 -0.1240  0.2843
10130SOL    HW132158   3.946   7.671   4.730  3.3073 -0.3691 -1.8309
10130SOL    HW232159   3.911   7.758   4.611  1.6641  1.5737 -0.0176
10131SOL     OW32160   6.798   3.310   2.479 -0.0962 -0.4910 -0.3427
10131SOL    HW132161   6.756   3.225   2.489 -0.0402 -0.3100  1.9939
10131SOL    HW232162   6.889   3.294   2.504 -0.4209  0.5201  1.6231
10132SOL     OW32163   3.726   2.244   4.610 -0.0329  0.0099  0.0549
10132SOL    HW132164   3.804   2.241   4.666 -0.0313 -0.0716  0.0490
10132SOL    HW232165   3.710   2.337   4.595  0.1008  0.0244  0.0036
10133SOL     OW32166   2.722   8.231   1.780  0.5349 -0.1914 -0.8424
10133SOL    HW132167   2.766   8.310   1.749  0.5133 -0.6756 -2.1702
10133SOL    HW232168   2.631   8.241   1.752  1.2428 -2.3573 -4.6497
10134SOL     OW32169   0.336   1.632   4.292 -0.1530  0.1005 -0.0054
10134SOL    HW132170   0.331   1.567   4.362  0.0275  1.6505  1.5284
10134SOL    HW232171   0.421   1.675   4.305 -0.7487  1.3991 -0.2206
10135SOL     OW32172   4.419   1.815   5.332 -0.1918 -0.1562 -0.1114
10135SOL    HW132173   4.426   1.810   5.236 -4.0172 -1.6613 -0.4939
10135SOL    HW232174   4.454   1.731   5.362  0.1318 -0.0782 -0.2610
10136SOL     OW32175   1.838   2.608   4.665  0.6305 -0.4446 -0.3056
10136SOL    HW132176   1.789   2.687   4.687  0.2990 -0.9837  0.9850
10136SOL    HW232177   1.901   2.636   4.598 -0.5894  0.5275 -1.0685
10137SOL     OW32178   7.305   7.915   5.693  0.0324  1.0908 -0.2998
10137SOL    HW132179   7.300   7.906   5.598  1.0252  0.4842 -0.3089
10137SOL    HW232180   7.268   7.833   5.726  1.6614  0.3563 -0.2209
10138SOL     OW32181   4.659   7.176   7.124  0.1389  0.0845  0.1085
10138SOL    HW132182   4.623   7.252   7.078 -3.3911  0.2366  2.6993
10138SOL    HW232183   4.622   7.101   7.076  2.2376 -0.0807 -1.4023
10139SOL     OW32184   8.205   3.350   2.733 -0.4553  0.4101  0.2568
10139SOL    HW132185   8.135   3.414   2.734 -0.6072  0.3664 -2.0099
10139SOL    HW232186   8.177   3.285   2.669  1.7868  0.5867 -0.9918
10140SOL     OW32187   8.011   0.604   0.233 -0.4290  0.1974  0.1336
10140SOL    HW132188   7.982   0.572   0.148  0.9299  0.5936 -0.5080
10140SOL    HW232189   8.073   0.674   0.213  0.1542  0.0883  1.4426
10141SOL     OW32190   0.500   3.963   5.063 -0.4727 -0.6624 -0.3736
10141SOL    HW132191   0.407   3.976   5.083 -0.2649  1.5079 -0.6301
10141SOL    HW232192   0.546   3.998   5.140  0.1634  0.7087 -1.3462
10142SOL     OW32193   2.690   1.222   5.945  0.2205  0.2308 -0.4671
10142SOL    HW132194   2.675   1.149   5.885 -0.8532  0.3859 -0.4124
10142SOL    HW232195   2.640   1.294   5.908 -0.8579  0.1907  0.8497
10143SOL     OW32196   1.274   4.973   0.148 -0.3224  0.2565 -0.6396
10143SOL    HW132197   1.313   5.037   0.089 -0.2986  0.9252  0.0921
10143SOL    HW232198   1.182   4.999   0.155 -0.9159 -1.1988 -2.2046
10144SOL     OW32199   5.755   7.464   2.638  0.3563  0.4076 -0.7255
10144SOL    HW132200   5.771   7.544   2.688  0.8438  0.9149 -1.6658
10144SOL    HW232201   5.842   7.435   2.611  0.1343 -0.1179 -0.8847
10145SOL     OW32202   1.064   1.423   6.049  0.5444 -0.0426  0.2896
10145SOL    HW132203   1.101   1.414   6.137  1.3486 -1.5069 -0.1580
10145SOL    HW232204   1.138   1.443   5.993 -0.2216  2.7133  0.1470
10146SOL     OW32205   2.655   8.499   2.439 -0.0515 -0.4700  0.4883
10146SOL    HW132206   2.680   8.587   2.466 -2.8305  0.9395 -1.0769
10146SOL    HW232207   2.723   8.472   2.378 -0.0499  1.3659 -0.3755
10147SOL     OW32208   8.769   2.852   2.646 -0.2773  0.0433  0.0289
10147SOL    HW132209   8.741   2.933   2.603 -0.4225  0.8387  1.5713
10147SOL    HW232210   8.789   2.878   2.736 -0.7427 -1.7086  0.6777
10148SOL     OW32211   0.907   5.122   0.687 -0.0832  0.5090  0.2163
10148SOL    HW132212   0.894   5.027   0.683  1.0579  0.2773  1.5449
10148SOL    HW232213   0.946   5.144   0.603  0.1498 -0.2795  0.1121
10149SOL     OW32214   8.971   7.278   7.212 -0.5818 -0.5337  0.0436
10149SOL    HW132215   9.013   7.302   7.130  0.9243 -0.5657  0.7784
10149SOL    HW232216   8.888   7.325   7.211  0.1219  0.7371 -0.7766
10150SOL     OW32217   3.051   8.958   0.553 -1.0989  0.3102  0.4083
10150SOL    HW132218   3.045   8.943   0.647  0.7626  1.1825  0.7098
10150SOL    HW232219   3.096   8.881   0.519 -2.1012 -0.1785  0.1503
10151SOL     OW32220   0.609   3.977   9.068  0.1032 -0.1657  0.0236
10151SOL    HW132221   0.531   4.033   9.075 -0.2821 -0.7726  0.7227
10151SOL    HW232222   0.638   3.965   9.158  0.2261 -1.0347 -0.1239
10152SOL     OW32223   1.549   7.663   7.699  0.1924 -0.5797  0.0003
10152SOL    HW132224   1.588   7.724   7.635  0.9054  0.7093  1.5852
10152SOL    HW232225   1.624   7.625   7.744 -0.3132 -1.1603  0.3578
10153SOL     OW32226   5.905   9.352   1.374 -0.3306  0.1884  0.0029
10153SOL    HW132227   5.863   9.435   1.398 -0.0770 -0.0293  1.2601
10153SOL    HW232228   5.857   9.285   1.422 -0.4417 -0.4011 -0.8932
10154SOL     OW32229   1.451   2.866   7.969  0.5623  0.5712  0.1087
10154SOL    HW132230   1.497   2.788   7.998  2.0478  1.1125 -0.6979
10154SOL    HW232231   1.407   2.899   8.047  1.4302 -0.0553  0.8753
10155SOL     OW32232   0.592   4.484   5.980 -0.6362  0.1151 -0.0733
10155SOL    HW132233   0.645   4.516   5.907  1.8967 -0.8773  1.1813
10155SOL    HW232234   0.512   4.452   5.940  0.3575  0.2744 -2.3276
10156SOL     OW32235   7.908   5.017   4.700  0.2702  0.4991 -0.2081
10156SOL    HW132236   7.868   5.005   4.614 -1.1575 -1.8793  0.6991
10156SOL    HW232237   7.911   4.930   4.738  0.1738  1.5697  2.4697
10157SOL     OW32238   8.393   9.221   5.214  0.1397  0.3059  0.1552
10157SOL    HW132239   8.444   9.158   5.164 -0.4104 -0.5372  0.6159
10157SOL    HW232240   8.332   9.259   5.151  2.2074  2.3739 -0.7249
10158SOL     OW32241   7.981   2.199   8.862  0.0306  0.0616 -0.6784
10158SOL    HW132242   8.023   2.136   8.805 -0.5945 -1.8321  0.8576
10158SOL    HW232243   8.050   2.228   8.921 -0.0176 -0.4094 -0.3834
10159SOL     OW32244   0.713   6.366   8.935 -0.0236 -0.4612 -0.6999
10159SOL    HW132245   0.720   6.394   8.843  0.4993  0.5059 -0.3872
10159SOL    HW232246   0.791   6.403   8.977 -0.5673 -0.3737  0.2594
10160SOL     OW32247   2.720   1.628   9.034  0.4223 -0.4213  0.8711
10160SOL    HW132248   2.724   1.609   9.128  2.1861 -3.4428  0.3514
10160SOL    HW232249   2.724   1.541   8.993 -1.8538  0.7028 -2.0221
10161SOL     OW32250   3.220   7.380   4.533 -0.2548  0.2700  0.3079
10161SOL    HW132251   3.174   7.447   4.584 -0.3380 -0.6442  1.4680
10161SOL    HW232252   3.276   7.335   4.596 -0.8430 -1.3253 -0.2342
10162SOL     OW32253   0.895   7.528   8.501 -0.0081  0.0926 -0.7947
10162SOL    HW132254   0.956   7.462   8.468  0.0348 -1.1245  1.4811
10162SOL    HW232255   0.850   7.560   8.423  1.6632 -0.8808 -2.2502
10163SOL     OW32256   9.087   3.412   0.174  0.2841 -0.3632  0.2134
10163SOL    HW132257   9.014   3.473   0.184  0.2247 -0.4812  0.4888
10163SOL    HW232258   9.046   3.327   0.160  0.3580 -0.2284 -0.9282
10164SOL     OW32259   3.919   0.291   2.028 -0.2550 -0.1082 -0.0562
10164SOL    HW132260   3.940   0.203   1.996 -1.1007 -0.0941 -0.7004
10164SOL    HW232261   3.936   0.287   2.122  0.9030 -0.5822 -0.2657
10165SOL     OW32262   7.977   8.731   9.507 -0.0838 -0.2116 -0.0096
10165SOL    HW132263   8.034   8.674   9.456 -0.9019 -1.5231  0.4804
10165SOL    HW232264   7.965   8.808   9.452  3.1830  0.7552  0.4141
10166SOL     OW32265   3.589   1.504   0.700 -0.1015 -0.0001  0.1342
10166SOL    HW132266   3.542   1.423   0.678 -1.7582  1.0724 -0.4250
10166SOL    HW232267   3.527   1.555   0.751  0.4592  1.4295 -0.5588
10167SOL     OW32268   5.353   6.951   7.152  0.0296  0.1975 -0.1796
10167SOL    HW132269   5.403   6.914   7.224  1.9028 -0.9503 -1.9783
10167SOL    HW232270   5.364   7.046   7.162  2.5074  0.0006 -0.3952
10168SOL     OW32271   9.280   1.829   5.830 -0.0551 -0.0387 -0.2832
10168SOL    HW132272   9.230   1.857   5.752 -1.4351 -1.1872  0.1484
10168SOL    HW232273   9.286   1.734   5.822  1.1486 -0.0202  0.2477
10169SOL     OW32274   2.825   1.312   2.615 -0.1197 -0.0320 -0.1988
10169SOL    HW132275   2.905   1.293   2.664  1.2638  2.4122 -1.3234
10169SOL    HW232276   2.820   1.243   2.549  1.2127 -0.0574 -0.2902
10170SOL     OW32277   2.032   8.990   2.724 -0.1004 -0.4886  0.1803
10170SOL    HW132278   2.010   8.951   2.809  0.0729  0.2132  0.5550
10170SOL    HW232279   1.990   9.076   2.725 -0.0462 -0.4491 -0.4247
10171SOL     OW32280   5.942   9.690   7.674 -0.1427  0.1456  0.1562
10171SOL    HW132281   6.000   9.623   7.710  0.9450  0.5725 -0.7469
10171SOL    HW232282   5.989   9.773   7.688 -1.0119  0.6177  0.3498
10172SOL     OW32283   6.878   2.124   9.403 -0.0080  0.2237  0.1649
10172SOL    HW132284   6.961   2.154   9.367  0.1815 -0.6705 -0.1647
10172SOL    HW232285   6.889   2.029   9.415 -2.0322 -0.5746 -3.0107
10173SOL     OW32286   2.389   6.620   2.082 -0.1132 -0.0319  0.3766
10173SOL    HW132287   2.361   6.682   2.148  0.5270  0.3290  0.3135
10173SOL    HW232288   2.316   6.616   2.020 -0.8020 -0.5247  1.1950
10174SOL     OW32289   8.236   1.380   7.042  0.2093 -0.5426  0.0653
10174SOL    HW132290   8.260   1.381   6.949 -0.2797  0.6971 -0.0718
10174SOL    HW232291   8.144   1.353   7.043  0.4180 -1.2479  0.2461
10175SOL     OW32292   2.288   2.791   5.206 -0.4189  0.1455 -0.4265
10175SOL    HW132293   2.331   2.706   5.201  2.4339  1.5187 -1.2275
10175SOL    HW232294   2.278   2.819   5.115 -2.7447  0.1068 -0.2591
10176SOL     OW32295   9.258   3.759   5.340 -0.3126 -0.2165 -0.6106
10176SOL    HW132296   9.223   3.816   5.408 -0.5026 -0.2625 -0.6681
10176SOL    HW232297   9.240   3.670   5.371 -0.7335 -0.2344 -0.8873
10177SOL     OW32298   9.304   4.077   6.151 -0.3658  0.5668  0.5251
10177SOL    HW132299   9.338   4.165   6.169  1.8922  0.4321 -2.3449
10177SOL    HW232300   9.367   4.039   6.089 -1.8916 -2.6639  0.7540
10178SOL     OW32301   1.316   7.682   4.141  0.5502  0.3669 -0.0442
10178SOL    HW132302   1.352   7.709   4.225  1.6054 -1.4587  0.1364
10178SOL    HW232303   1.374   7.720   4.075  0.3155  0.9349  0.0658
10179SOL     OW32304   0.850   2.369   2.994 -0.1395 -0.6062 -0.7981
10179SOL    HW132305   0.794   2.312   3.046  0.6709  0.1696  1.0344
10179SOL    HW232306   0.791   2.416   2.936 -1.4008  0.1279  1.0072
10180SOL     OW32307   2.543   2.800   1.717  0.1937 -0.8616  0.2180
10180SOL    HW132308   2.471   2.860   1.702  0.0551 -1.4269 -1.6070
10180SOL    HW232309   2.521   2.722   1.667  2.0641 -1.0449 -0.4190
10181SOL     OW32310   6.906   5.303   8.417 -0.5680  0.2165  0.0551
10181SOL    HW132311   6.858   5.333   8.340  0.4314 -1.0782 -1.1312
10181SOL    HW232312   6.891   5.208   8.419  0.4843  0.0505  0.7021
10182SOL     OW32313   8.585   5.126   5.130 -0.4010  0.4804 -0.3981
10182SOL    HW132314   8.508   5.077   5.101 -0.1594  1.0705 -2.1402
10182SOL    HW232315   8.631   5.150   5.049 -0.0600  2.8461  0.4168
10183SOL     OW32316   7.659   0.229   6.428 -0.4652 -0.2443 -0.2665
10183SOL    HW132317   7.673   0.152   6.373  1.7427  0.8097 -1.3087
10183SOL    HW232318   7.727   0.224   6.495 -1.5516 -0.1961  0.8757
10184SOL     OW32319   1.943   7.172   1.919  0.1876 -0.0970 -0.2929
10184SOL    HW132320   1.958   7.262   1.892 -1.4131 -0.0742 -1.2522
10184SOL    HW232321   2.008   7.155   1.987  1.8070  1.1275 -1.4782
10185SOL     OW32322   7.818   2.386   0.425  0.3185 -0.3136  0.3413
10185SOL    HW132323   7.901   2.433   0.437  0.4808 -0.5780  0.2742
10185SOL    HW232324   7.835   2.298   0.461 -0.0767 -0.2268  0.7452
10186SOL     OW32325   1.446   3.195   5.945 -0.0282 -0.3607 -0.0263
10186SOL    HW132326   1.460   3.123   5.884  0.6915 -0.5135  0.3034
10186SOL    HW232327   1.440   3.273   5.890  2.0427 -0.2939 -0.2600
10187SOL     OW32328   4.615   1.694   0.797  0.0861  0.0253  0.2468
10187SOL    HW132329   4.535   1.668   0.843  1.6203 -1.5495  2.2598
10187SOL    HW232330   4.653   1.762   0.852  1.0816 -0.6272  0.3865
10188SOL     OW32331   5.832   4.170   0.706  0.4655 -0.3846 -0.5773
10188SOL    HW132332   5.801   4.250   0.663  0.7322 -0.4291 -0.8493
10188SOL    HW232333   5.865   4.116   0.635  0.7872 -0.5118 -0.3298
10189SOL     OW32334   6.411   4.324   1.670  0.0796  0.4231 -0.7065
10189SOL    HW132335   6.396   4.376   1.591  1.6649  0.4976 -0.9820
10189SOL    HW232336   6.412   4.233   1.640  0.5272  0.4416 -0.7513
10190SOL     OW32337   5.582   1.540   9.040  0.3299  0.2050  0.0873
10190SOL    HW132338   5.612   1.528   8.950  0.3357 -0.4187  0.1697
10190SOL    HW232339   5.655   1.582   9.084  0.3724  0.4029 -0.1628
10191SOL     OW32340   8.599   5.781   2.338 -0.7267 -0.0613  0.1668
10191SOL    HW132341   8.563   5.858   2.294  2.0311  1.1846 -0.0764
10191SOL    HW232342   8.691   5.801   2.351 -0.5383 -2.1262  2.8229
10192SOL     OW32343   1.842   6.325   8.542 -0.2691 -0.7075  1.2532
10192SOL    HW132344   1.849   6.350   8.634  0.5829  0.7205  0.8294
10192SOL    HW232345   1.749   6.307   8.529 -0.1105 -3.3795  2.9446
10193SOL     OW32346   9.580   1.407   5.032  0.0274 -0.3799  0.4195
10193SOL    HW132347   9.595   1.440   5.120 -2.0106  1.3518  0.2096
10193SOL    HW232348   9.653   1.440   4.981 -0.2101  0.9880  0.9290
10194SOL     OW32349   1.110   8.423   5.748  0.3005 -0.3909 -0.3540
10194SOL    HW132350   1.032   8.478   5.750 -0.2828 -1.1887  1.9041
10194SOL    HW232351   1.182   8.484   5.764 -0.1834 -0.0455  0.5823
10195SOL     OW32352   4.903   2.954   1.220  0.2872  0.4618 -0.6302
10195SOL    HW132353   4.934   2.898   1.149  0.6607 -0.0916 -0.0426
10195SOL    HW232354   4.821   2.915   1.248  1.1960 -0.6068  0.6654
10196SOL     OW32355   7.063   3.562   8.434 -0.2652  0.0291 -0.7212
10196SOL    HW132356   7.040   3.625   8.502  1.0068 -0.4445  0.1792
10196SOL    HW232357   7.135   3.602   8.387  0.9067 -0.9323  0.1903
10197SOL     OW32358   4.975   0.480   7.809  0.9988  0.2691 -0.1059
10197SOL    HW132359   4.896   0.429   7.825  0.3959  1.2036 -0.0554
10197SOL    HW232360   5.047   0.422   7.835  0.4927 -1.4045 -2.1367
10198SOL     OW32361   6.658   2.311   1.555 -0.2373 -0.0517  0.7345
10198SOL    HW132362   6.734   2.259   1.582 -0.6040  0.0989  2.1620
10198SOL    HW232363   6.695   2.381   1.501  0.5224 -0.5297  0.6262
10199SOL     OW32364   2.977   4.589   4.143  0.0519  0.4436 -0.2921
10199SOL    HW132365   2.901   4.548   4.101 -1.2519  1.3406  1.0779
10199SOL    HW232366   2.968   4.567   4.236  0.8291  1.5460  0.0655
10200SOL     OW32367   5.759   0.901   5.608  0.2242  0.1915  0.8469
10200SOL    HW132368   5.789   0.941   5.526  0.4142 -1.2379  0.1992
10200SOL    HW232369   5.735   0.976   5.663  0.7002  1.2028 -0.2684
10201SOL     OW32370   9.609   7.392   7.773  0.1285  0.0510 -0.1653
10201SOL    HW132371   9.544   7.441   7.722 -0.1304 -1.7200 -1.6373
10201SOL    HW232372   9.607   7.433   7.860 -4.1984 -0.9275  0.4401
10202SOL     OW32373   6.938   4.807   6.609  0.6541  0.0967  0.2564
10202SOL    HW132374   7.026   4.840   6.591  1.0526  0.4398  2.5415
10202SOL    HW232375   6.881   4.862   6.556  1.6790  1.2693  0.3268
10203SOL     OW32376   4.646   4.442   8.394 -0.0715  0.0236 -0.6767
10203SOL    HW132377   4.623   4.373   8.332  1.4274 -0.3053 -0.9053
10203SOL    HW232378   4.587   4.514   8.373 -1.2559 -0.9711 -0.8239
10204SOL     OW32379   5.245   7.617   7.231  0.4011 -0.3243  0.0136
10204SOL    HW132380   5.302   7.565   7.173  2.1707  0.3666  1.0334
10204SOL    HW232381   5.183   7.553   7.266  1.1808 -1.3393 -0.3814
10205SOL     OW32382   6.165   9.390   8.395  0.2961  0.3297 -0.0503
10205SOL    HW132383   6.181   9.392   8.490 -0.1299 -1.0305  0.0742
10205SOL    HW232384   6.076   9.423   8.385 -0.7032 -2.0706  0.3324
10206SOL     OW32385   1.802   1.571   1.368 -0.4343 -0.1149  0.4633
10206SOL    HW132386   1.706   1.573   1.373 -0.4003  1.1852  0.8951
10206SOL    HW232387   1.824   1.478   1.367 -1.6356 -0.4344  1.6164
10207SOL     OW32388   4.388   1.106   2.039 -0.2088  0.5506  0.0321
10207SOL    HW132389   4.403   1.068   1.953 -2.0793  1.4637 -0.7462
10207SOL    HW232390   4.319   1.051   2.078 -0.3474  0.9649  0.3794
10208SOL     OW32391   3.848   6.590   1.718 -0.2769  0.2331  0.1337
10208SOL    HW132392   3.772   6.615   1.770 -0.4072  1.5236 -0.6462
10208SOL    HW232393   3.919   6.580   1.783 -0.7170  0.6437  0.6876
10209SOL     OW32394   3.066   9.842   8.564  0.9315 -0.3317 -0.0672
10209SOL    HW132395   3.012   9.911   8.526  1.0327 -0.7527 -1.0077
10209SOL    HW232396   3.092   9.876   8.649 -2.0455 -0.7284  1.1172
10210SOL     OW32397   6.118   0.103   7.537  0.1537 -0.3352  0.0446
10210SOL    HW132398   6.110   0.102   7.632 -0.5168  1.4448  0.0378
10210SOL    HW232399   6.193   0.160   7.520 -0.5464  0.4418 -0.5124
10211SOL     OW32400   7.258   7.890   2.070  0.0994 -0.4756  0.5529
10211SOL    HW132401   7.203   7.943   2.011  1.4373 -0.3044 -0.5893
10211SOL    HW232402   7.239   7.924   2.157  0.9525  2.0035 -0.1370
10212SOL     OW32403   0.057   7.508   4.072  0.0477  0.3224 -0.6218
10212SOL    HW132404   0.145   7.490   4.039  0.4389  1.8147 -0.4981
10212SOL    HW232405   0.033   7.592   4.032 -0.8353  0.5221  0.2604
10213SOL     OW32406   0.754   1.187   8.201  0.1640  0.2710  0.6784
10213SOL    HW132407   0.680   1.153   8.150 -0.3644  1.5213  0.5618
10213SOL    HW232408   0.829   1.138   8.170 -0.5035 -0.5233  0.2733
10214SOL     OW32409   1.686   4.989   6.350 -0.6073  0.2504 -0.2015
10214SOL    HW132410   1.674   5.075   6.391 -0.1435  0.0774  0.3104
10214SOL    HW232411   1.705   4.931   6.423  0.1552 -0.0811 -0.6617
10215SOL     OW32412   0.144   5.925   1.522  0.3999  0.0511  0.2457
10215SOL    HW132413   0.061   5.959   1.488  0.2973 -0.3012  0.1412
10215SOL    HW232414   0.191   5.895   1.444 -0.3900 -2.0100  0.4970
10216SOL     OW32415   0.008   4.834   8.305  0.1634  0.1889  0.8087
10216SOL    HW132416   0.005   4.927   8.280 -1.1942 -0.1412 -0.4120
10216SOL    HW232417  -0.053   4.827   8.378  0.3516  0.2617  0.9762
10217SOL     OW32418   0.160   7.254   6.575  0.2277 -0.5105  0.4751
10217SOL    HW132419   0.227   7.225   6.512  0.6501  0.2730  0.5574
10217SOL    HW232420   0.173   7.197   6.651 -0.3186 -1.5014 -0.1413
10218SOL     OW32421   0.951   8.571   6.573  0.2516 -0.4055  0.0612
10218SOL    HW132422   0.882   8.636   6.564 -0.2282 -1.0102 -0.7152
10218SOL    HW232423   1.010   8.608   6.638 -0.5335  0.3511  0.3613
10219SOL     OW32424   9.127   7.366   7.573  0.3980 -0.5824 -0.4233
10219SOL    HW132425   9.051   7.308   7.584  0.6138 -0.7413  0.2864
10219SOL    HW232426   9.183   7.320   7.511 -0.0937 -0.4546 -0.9648
10220SOL     OW32427   7.938   3.244   6.348  0.1193  0.6749  0.0893
10220SOL    HW132428   7.976   3.202   6.426 -0.5762 -0.1875 -0.0152
10220SOL    HW232429   7.938   3.176   6.281  2.8423  2.0393 -1.4453
10221SOL     OW32430   3.340   1.950   4.876 -0.2061  0.1219  0.4671
10221SOL    HW132431   3.295   1.889   4.818  1.0416  1.0269 -1.5627
10221SOL    HW232432   3.279   2.023   4.886  0.1190  0.6108 -0.9368
10222SOL     OW32433   1.900   4.062   5.885 -0.2826 -0.0255  0.0691
10222SOL    HW132434   1.821   4.011   5.899 -1.3030  1.5395  0.2650
10222SOL    HW232435   1.958   4.005   5.835 -1.6649 -1.0768 -0.3668
10223SOL     OW32436   4.849   0.488   3.346 -0.0316 -0.2606 -0.2418
10223SOL    HW132437   4.925   0.485   3.287 -0.2872 -1.0847 -0.5303
10223SOL    HW232438   4.860   0.571   3.394  0.9508 -0.2809 -0.4100
10224SOL     OW32439   4.323   9.138   3.471  0.0001  0.1121 -0.2381
10224SOL    HW132440   4.283   9.226   3.472 -3.3682 -1.2640  0.0510
10224SOL    HW232441   4.274   9.091   3.403  0.0919 -2.1952  1.2009
10225SOL     OW32442   5.263   9.459   4.038 -0.2670  0.5095 -0.5474
10225SOL    HW132443   5.186   9.421   4.080 -1.4182  2.4640 -0.7799
10225SOL    HW232444   5.233   9.485   3.951  1.0270  0.1278 -1.1358
10226SOL     OW32445   2.834   3.580   0.630  0.4038  0.6437  0.3852
10226SOL    HW132446   2.805   3.573   0.721 -1.2264  0.9347 -0.0689
10226SOL    HW232447   2.799   3.664   0.600 -0.1582 -0.0036 -0.8507
10227SOL     OW32448   9.006   7.554   0.711 -0.7352 -0.3610 -0.4106
10227SOL    HW132449   8.949   7.544   0.787  0.7174  0.2557  0.8118
10227SOL    HW232450   9.002   7.469   0.667 -0.6759 -1.1510  1.0300
10228SOL     OW32451   4.141   3.381   3.525 -0.4247  0.4760 -0.2555
10228SOL    HW132452   4.225   3.336   3.536  0.2313  1.7262 -0.0484
10228SOL    HW232453   4.085   3.315   3.484  0.6323 -0.4075 -0.3410
10229SOL     OW32454   9.128   8.717   9.302  0.5211  0.1703  0.2617
10229SOL    HW132455   9.199   8.782   9.300  1.0415 -0.3902 -1.7461
10229SOL    HW232456   9.088   8.722   9.215 -0.0276 -1.5537  0.3750
10230SOL     OW32457   2.729   3.561   5.271 -0.3031  0.2326  0.0665
10230SOL    HW132458   2.783   3.534   5.196 -0.2738  1.7384 -0.4774
10230SOL    HW232459   2.772   3.521   5.346  1.7003  1.4789 -0.3312
10231SOL     OW32460   1.734   8.496   5.451 -0.1204  0.4912  0.2134
10231SOL    HW132461   1.737   8.582   5.494  0.1591  0.8394 -0.4896
10231SOL    HW232462   1.699   8.514   5.364  1.3227  0.1201 -0.4682
10232SOL     OW32463   3.381   0.989   9.394  0.3426 -0.1985 -0.2876
10232SOL    HW132464   3.288   1.006   9.411  0.2079 -1.2794  0.1347
10232SOL    HW232465   3.427   1.057   9.443 -0.1926 -0.4173  0.5396
10233SOL     OW32466   1.331   8.580   1.881 -0.0638 -0.0402  0.3139
10233SOL    HW132467   1.252   8.527   1.892  0.4625 -1.0611 -0.5583
10233SOL    HW232468   1.328   8.607   1.789 -0.0423  1.0082  0.6125
10234SOL     OW32469   2.972   5.520   1.885  0.2137 -0.0597  0.2393
10234SOL    HW132470   3.045   5.571   1.850 -0.0377  0.2006  0.0943
10234SOL    HW232471   2.918   5.584   1.931 -0.8368  0.0601 -1.1177
10235SOL     OW32472   7.201   7.738   2.770 -0.2054  0.2193 -0.5328
10235SOL    HW132473   7.233   7.804   2.708 -0.8554  1.5012  0.4461
10235SOL    HW232474   7.209   7.780   2.856  1.4790 -1.8213  0.4006
10236SOL     OW32475   3.829   0.389   0.512  0.0525 -0.6141 -0.2855
10236SOL    HW132476   3.822   0.483   0.524 -0.1935 -0.5278 -1.0561
10236SOL    HW232477   3.740   0.356   0.526 -0.1201 -0.5780 -1.2446
10237SOL     OW32478   2.802   6.922   3.710 -0.2467  0.9571 -0.3136
10237SOL    HW132479   2.809   6.961   3.797 -0.4420 -0.2161  0.2554
10237SOL    HW232480   2.881   6.868   3.701 -0.9399 -0.1012 -0.2340
10238SOL     OW32481   8.089   0.836   3.627 -0.3332  0.0101 -0.2011
10238SOL    HW132482   8.181   0.811   3.636 -0.4759  0.0053  1.5116
10238SOL    HW232483   8.079   0.914   3.682 -1.2482  0.3038 -0.7609
10239SOL     OW32484   5.222   1.163   2.552 -0.7247 -0.6829  0.3755
10239SOL    HW132485   5.143   1.213   2.531 -0.9896 -1.3950 -0.3670
10239SOL    HW232486   5.285   1.229   2.580 -2.0247 -0.2200  2.4888
10240SOL     OW32487   1.221   3.751   9.487  0.1895  0.7364 -0.1598
10240SOL    HW132488   1.315   3.764   9.504 -0.3725  3.7697  1.5665
10240SOL    HW232489   1.199   3.671   9.534  1.6693  0.7131  0.5638
10241SOL     OW32490   2.306   5.852   0.692  0.7855 -0.4472 -0.2694
10241SOL    HW132491   2.295   5.872   0.785  2.8281  2.8454 -0.5657
10241SOL    HW232492   2.401   5.846   0.679  0.5372 -1.1026 -2.0920
10242SOL     OW32493   5.372   0.584   2.095 -0.5788 -0.0312  0.2509
10242SOL    HW132494   5.356   0.676   2.072 -2.1758 -0.6149 -1.2118
10242SOL    HW232495   5.286   0.552   2.123  0.4367 -0.5290  2.9813
10243SOL     OW32496   7.671   3.342   5.722 -0.5116 -0.6803  0.1189
10243SOL    HW132497   7.586   3.374   5.752 -0.9130 -1.4453 -0.1739
10243SOL    HW232498   7.650   3.271   5.661  0.2024  2.1949 -3.8223
10244SOL     OW32499   4.541   6.583   4.364  0.5965  0.0274  0.4469
10244SOL    HW132500   4.483   6.518   4.326  1.5990 -0.8795  0.4241
10244SOL    HW232501   4.627   6.541   4.365  0.6707  0.0044  3.6218
10245SOL     OW32502   0.033   4.753   9.832 -0.8843 -0.2764  0.0345
10245SOL    HW132503   0.077   4.674   9.801  0.8174  0.6528 -0.0333
10245SOL    HW232504   0.033   4.745   9.928  2.1487  0.9934  0.2552
10246SOL     OW32505   7.025   7.587   7.435  0.1729 -0.6261 -0.2084
10246SOL    HW132506   7.023   7.552   7.346  0.3179  0.9665 -0.8810
10246SOL    HW232507   7.047   7.512   7.490  1.6716 -1.3435 -1.6865
10247SOL     OW32508   7.866   5.993   7.561  0.2217  0.0220 -0.2373
10247SOL    HW132509   7.814   5.945   7.497 -0.4883 -0.3659  0.6039
10247SOL    HW232510   7.894   5.926   7.624  2.3030  0.1057 -1.0089
10248SOL     OW32511   0.813   0.740   6.188 -0.2600 -0.2442 -0.0230
10248SOL    HW132512   0.875   0.797   6.143  0.1532 -1.7536 -1.4473
10248SOL    HW232513   0.791   0.673   6.123 -0.8583 -1.6134  1.5380
10249SOL     OW32514   3.578   9.025   8.683 -0.4162  0.6538 -0.6330
10249SOL    HW132515   3.535   9.095   8.732  0.2913  1.4986 -1.1699
10249SOL    HW232516   3.517   8.952   8.686 -0.8913  1.0728  0.5019
10250SOL     OW32517   8.538   1.935   6.441 -0.1008  0.4594 -0.4190
10250SOL    HW132518   8.449   1.912   6.414 -0.4427  1.2996 -0.0360
10250SOL    HW232519   8.546   2.028   6.421  1.5689 -0.1078 -2.7635
10251SOL     OW32520   5.543   3.032   0.891  0.0787  0.1575 -0.7696
10251SOL    HW132521   5.583   3.032   0.804  0.2971 -0.1242 -0.6702
10251SOL    HW232522   5.578   2.954   0.934 -3.1114 -2.1082 -1.8358
10252SOL     OW32523   1.557   0.707   7.679 -0.4400 -0.1971 -0.7038
10252SOL    HW132524   1.633   0.740   7.630  0.6286  1.8240  2.0275
10252SOL    HW232525   1.595   0.660   7.753 -1.9186 -1.2322 -0.5722
10253SOL     OW32526   0.341   5.395   9.500 -0.4845  0.1171 -0.0217
10253SOL    HW132527   0.397   5.351   9.564 -0.5766  0.5101  0.3367
10253SOL    HW232528   0.335   5.334   9.426 -1.4802 -0.9344  0.8922
10254SOL     OW32529   6.593   0.682   8.635 -1.4260  0.6069 -0.1471
10254SOL    HW132530   6.598   0.773   8.604  1.7901  0.2550 -0.9922
10254SOL    HW232531   6.576   0.631   8.556  3.1510  0.0423 -1.0323
10255SOL     OW32532   5.942   0.753   8.270 -0.3030  0.2066 -0.0965
10255SOL    HW132533   5.894   0.685   8.223  0.8302 -0.1250 -0.8137
10255SOL    HW232534   6.034   0.735   8.251  0.0862  1.1052  0.8589
10256SOL     OW32535   0.887   0.324   3.647 -0.3157  0.0360  0.0361
10256SOL    HW132536   0.833   0.246   3.658  1.0870 -0.7329  2.3654
10256SOL    HW232537   0.888   0.340   3.553 -4.2765 -0.0239 -0.1649
10257SOL     OW32538   6.603   7.332   9.174 -0.8171  0.3025 -0.2695
10257SOL    HW132539   6.679   7.295   9.130 -0.6158  0.5197 -0.1043
10257SOL    HW232540   6.592   7.279   9.252 -0.8540  0.2532 -0.3071
10258SOL     OW32541   2.939   6.071   3.144 -0.2280  0.1666  0.9929
10258SOL    HW132542   2.957   6.019   3.066  0.5444 -0.6058  1.6671
10258SOL    HW232543   3.019   6.123   3.157 -1.0524  1.7053  0.2221
10259SOL     OW32544   8.532   5.518   7.525 -0.1188 -0.1976 -0.2361
10259SOL    HW132545   8.594   5.448   7.549 -2.5624 -3.1004 -1.7397
10259SOL    HW232546   8.528   5.515   7.430 -1.1913  1.2382 -0.2672
10260SOL     OW32547   1.370   0.808   0.339  0.0793  0.5909 -0.4166
10260SOL    HW132548   1.281   0.821   0.307 -1.0531 -2.6746  0.9704
10260SOL    HW232549   1.416   0.769   0.264  0.2515  1.8221 -0.9771
10261SOL     OW32550   7.219   3.228   6.105 -0.6224 -0.5855 -0.2352
10261SOL    HW132551   7.200   3.159   6.041 -0.4488 -0.5170 -0.3598
10261SOL    HW232552   7.145   3.288   6.098 -1.3699 -1.3577  0.6968
10262SOL     OW32553   0.396   8.272   2.465  0.0152 -0.5881 -0.2649
10262SOL    HW132554   0.470   8.213   2.452  0.5069 -0.0302 -0.0759
10262SOL    HW232555   0.428   8.336   2.529 -0.8317 -0.6758  0.2607
10263SOL     OW32556   0.444   6.655   5.683  0.0063 -0.4465 -0.0151
10263SOL    HW132557   0.479   6.595   5.618  0.4469 -0.0055 -0.1849
10263SOL    HW232558   0.480   6.740   5.660  3.4834 -0.8010  3.0356
10264SOL     OW32559   3.771   3.269   9.778 -0.1588  0.6513  0.4310
10264SOL    HW132560   3.794   3.301   9.691 -0.4078  2.0777  0.8588
10264SOL    HW232561   3.787   3.344   9.836 -2.8170  0.7141  1.2016
10265SOL     OW32562   8.820   3.738   1.999  0.4586 -0.4202 -0.5358
10265SOL    HW132563   8.793   3.796   1.927  1.1538  2.4156  1.3021
10265SOL    HW232564   8.849   3.658   1.956  0.1080  0.8406 -3.3430
10266SOL     OW32565   7.705   0.809   5.608  0.3147  0.5177 -0.0409
10266SOL    HW132566   7.660   0.887   5.574  0.2527  0.8433  0.7488
10266SOL    HW232567   7.636   0.743   5.612  0.0016  0.8733  0.7052
10267SOL     OW32568   1.563   8.326   6.872  0.3593  0.1277 -0.2225
10267SOL    HW132569   1.585   8.273   6.948 -0.0229  1.1337  0.6143
10267SOL    HW232570   1.642   8.377   6.855  0.0830  0.7045  0.1953
10268SOL     OW32571   0.050   2.047   5.710  0.6403  0.6156 -0.8399
10268SOL    HW132572   0.009   2.012   5.631  0.2096  0.2086 -0.4412
10268SOL    HW232573   0.121   1.987   5.730 -0.6104 -0.5478  0.3143
10269SOL     OW32574   1.595   8.126   0.226 -0.3710  0.0944  0.0867
10269SOL    HW132575   1.632   8.110   0.139 -1.1858  0.5734 -0.3594
10269SOL    HW232576   1.671   8.125   0.285  0.1070 -0.9038 -0.5271
10270SOL     OW32577   2.225   0.642   1.483  0.0461 -0.6722  0.3429
10270SOL    HW132578   2.166   0.686   1.544  0.1160  1.0914 -0.8159
10270SOL    HW232579   2.300   0.700   1.475  0.2305 -1.0629 -1.1005
10271SOL     OW32580   0.736   4.749   6.405  0.0395 -0.2915  0.1443
10271SOL    HW132581   0.668   4.804   6.441 -0.5032  0.0001 -1.2565
10271SOL    HW232582   0.706   4.659   6.420 -0.3254 -0.1722  0.1134
10272SOL     OW32583   2.871   7.384   0.461 -0.1236 -0.7500 -0.3243
10272SOL    HW132584   2.863   7.341   0.376 -0.1779 -1.0809 -0.1498
10272SOL    HW232585   2.943   7.447   0.449 -0.2118 -0.7105 -0.6492
10273SOL     OW32586   4.436   6.293   1.833 -0.1147 -0.0675  0.7672
10273SOL    HW132587   4.364   6.332   1.883 -1.1676 -0.1314 -0.6395
10273SOL    HW232588   4.394   6.227   1.777  0.9818  0.1054 -0.3070
10274SOL     OW32589   3.313   2.275   6.462  0.0443 -0.2461 -0.6125
10274SOL    HW132590   3.399   2.313   6.447 -0.9506  1.6649 -1.8348
10274SOL    HW232591   3.296   2.291   6.555  0.4695  0.5311 -0.6621
10275SOL     OW32592   3.021   9.119   7.539 -0.2074  0.3823  0.5204
10275SOL    HW132593   2.956   9.184   7.514  0.7357  0.9074 -0.6556
10275SOL    HW232594   2.978   9.035   7.527 -0.6028  0.7169 -0.4743
10276SOL     OW32595   0.585   5.720   3.581 -0.0686 -0.5761  0.0665
10276SOL    HW132596   0.605   5.799   3.630 -0.8934  0.3257 -0.9966
10276SOL    HW232597   0.669   5.692   3.545  0.3448 -0.5992  1.0239
10277SOL     OW32598   2.983   5.258   6.570 -0.2989 -0.1961 -0.2299
10277SOL    HW132599   2.929   5.258   6.649 -0.2142 -0.7955 -0.1680
10277SOL    HW232600   2.946   5.328   6.516  0.5670  1.2099  0.9549
10278SOL     OW32601   3.213   6.076   7.345 -0.1361 -0.2268 -0.1533
10278SOL    HW132602   3.204   6.170   7.331 -0.4641 -0.4331 -1.5281
10278SOL    HW232603   3.303   6.056   7.318 -0.6380 -0.5631 -1.7135
10279SOL     OW32604   7.243   8.907   8.799  0.1646  0.0243 -0.0223
10279SOL    HW132605   7.275   8.996   8.811 -0.1398  0.2687 -0.9392
10279SOL    HW232606   7.151   8.918   8.774 -0.0812 -0.5854  0.5662
10280SOL     OW32607   5.389   6.021   0.825 -0.1491  0.4393 -0.2858
10280SOL    HW132608   5.316   5.977   0.782 -0.0639 -0.0633  0.0708
10280SOL    HW232609   5.355   6.108   0.847 -1.6880 -0.7608  2.5812
10281SOL     OW32610   3.382   6.048   4.200  0.0660  0.3505  0.4015
10281SOL    HW132611   3.440   6.024   4.272  0.3076  1.1376  0.4755
10281SOL    HW232612   3.339   6.129   4.229  0.4696  0.9028 -0.4977
10282SOL     OW32613   9.034   7.394   6.952  0.1633 -0.2403  0.8234
10282SOL    HW132614   9.092   7.463   6.984  1.3512 -0.0182 -1.6198
10282SOL    HW232615   9.092   7.333   6.905 -1.5131  0.0274 -1.7731
10283SOL     OW32616   5.888   7.724   4.540 -0.0993  0.7300 -0.2365
10283SOL    HW132617   5.835   7.776   4.600  0.6694  0.1343  0.9897
10283SOL    HW232618   5.856   7.635   4.549  0.5057  0.5144 -0.1592
10284SOL     OW32619   4.903   8.082   2.490 -0.5339  0.0536 -0.1368
10284SOL    HW132620   4.963   8.137   2.540  1.2873 -0.8009 -1.2670
10284SOL    HW232621   4.864   8.142   2.426 -1.8089  0.8502  1.3271
10285SOL     OW32622   4.906   4.022   0.902 -0.2357 -0.3736 -0.6964
10285SOL    HW132623   4.856   4.032   0.821 -0.7286 -1.0683 -0.4876
10285SOL    HW232624   4.849   3.971   0.960 -1.4431  3.0352  1.4350
10286SOL     OW32625   4.174   4.440   6.212  0.2519  0.8844  0.1160
10286SOL    HW132626   4.170   4.496   6.134 -0.4037  1.1369  0.3251
10286SOL    HW232627   4.201   4.354   6.178  0.3967  1.1011 -0.3283
10287SOL     OW32628   6.286   5.634   0.454  0.2834  0.3891  0.4360
10287SOL    HW132629   6.367   5.605   0.413 -1.2841 -1.7032 -1.3968
10287SOL    HW232630   6.216   5.603   0.396 -1.8632  2.4413  1.7106
10288SOL     OW32631   7.083   9.741   7.116 -0.5694  0.2091 -0.4973
10288SOL    HW132632   7.164   9.724   7.067 -0.1395 -1.1548  0.6012
10288SOL    HW232633   7.015   9.748   7.049  0.1840 -0.3583 -1.3558
10289SOL     OW32634   4.497   0.175   8.095  0.2752 -0.1396 -0.4458
10289SOL    HW132635   4.456   0.123   8.163 -0.7887 -1.3160 -1.9137
10289SOL    HW232636   4.447   0.257   8.092  1.2139  0.5271  1.0783
10290SOL     OW32637   8.254   4.918   3.350  0.2548 -0.4020 -0.4253
10290SOL    HW132638   8.339   4.944   3.386 -1.1283  1.5337  1.6902
10290SOL    HW232639   8.221   4.996   3.306 -0.0215 -1.4564 -2.1683
10291SOL     OW32640   1.501   8.607   3.784 -0.7587 -0.5161 -0.1468
10291SOL    HW132641   1.427   8.546   3.779 -0.3162 -1.1500  0.7365
10291SOL    HW232642   1.569   8.557   3.830 -0.4412  0.6968  0.7413
10292SOL     OW32643   6.051   3.373   0.515 -0.2312  0.2237  0.2715
10292SOL    HW132644   6.072   3.447   0.458  0.8257 -0.8579 -0.7915
10292SOL    HW232645   5.965   3.344   0.485 -0.5469  0.8614  0.5389
10293SOL     OW32646   1.641   0.101   1.097 -0.7740  0.4464 -0.2807
10293SOL    HW132647   1.628   0.034   1.163  0.2517  1.5817  1.1233
10293SOL    HW232648   1.593   0.177   1.129  1.1887  1.5786  0.0996
10294SOL     OW32649   9.720   6.991   1.540 -0.3235 -0.3352  0.7293
10294SOL    HW132650   9.764   7.013   1.622 -1.6139  1.0767  1.0975
10294SOL    HW232651   9.689   6.901   1.552  2.0432 -1.2438  0.5880
10295SOL     OW32652   2.297   2.131   6.944  0.5200 -0.2225 -0.2275
10295SOL    HW132653   2.215   2.112   6.897  0.8905  1.3728 -1.5778
10295SOL    HW232654   2.363   2.139   6.875  1.4605  0.2979  0.7118
10296SOL     OW32655   6.296   4.551   0.699  0.1536  0.3813 -0.1475
10296SOL    HW132656   6.223   4.584   0.751  0.7860  0.7374  0.5328
10296SOL    HW232657   6.346   4.629   0.675 -0.1863  0.2358 -1.4022
10297SOL     OW32658   5.350   9.146   7.799  0.1948  0.5562 -0.2390
10297SOL    HW132659   5.354   9.122   7.706  0.3665  2.4883 -0.7774
10297SOL    HW232660   5.259   9.130   7.824 -0.0504  0.7910 -0.9691
10298SOL     OW32661   2.809   9.304   6.918 -0.6118  0.4112  0.1028
10298SOL    HW132662   2.862   9.286   6.840  0.2845 -0.4855  0.8957
10298SOL    HW232663   2.753   9.227   6.927  0.4700 -0.2534  1.2862
10299SOL     OW32664   1.630   9.328   8.220  0.6918 -0.0751  0.3794
10299SOL    HW132665   1.725   9.339   8.230  0.8128  0.5060 -1.1936
10299SOL    HW232666   1.605   9.392   8.154 -0.8083 -0.2361  0.7544
10300SOL     OW32667   9.088   4.500   0.112  0.0893 -0.3235 -0.0660
10300SOL    HW132668   9.166   4.458   0.076 -0.6354 -0.8826 -1.0562
10300SOL    HW232669   9.115   4.589   0.132  1.6555 -1.1579  2.0005
10301SOL     OW32670   3.569   7.056   1.508 -0.1451 -0.0290 -0.0132
10301SOL    HW132671   3.501   7.030   1.570 -0.2296 -0.6457 -0.3560
10301SOL    HW232672   3.633   6.985   1.513 -0.3439 -0.2859 -0.9242
10302SOL     OW32673   4.963   7.115   8.707 -0.3470  0.3622 -0.0673
10302SOL    HW132674   5.058   7.121   8.710 -0.3415  0.0041  0.7387
10302SOL    HW232675   4.933   7.205   8.721 -0.1247  0.4436 -0.1154
10303SOL     OW32676   4.962   8.056   5.974  0.7902 -0.3749  0.4700
10303SOL    HW132677   5.046   8.066   5.929 -0.6375  0.5022 -2.2504
10303SOL    HW232678   4.921   7.981   5.932  0.0945 -0.6297  1.5631
10304SOL     OW32679   3.891   0.783   1.427  0.5075 -0.0715  0.1446
10304SOL    HW132680   3.925   0.696   1.406  1.0022  0.1103  0.1725
10304SOL    HW232681   3.901   0.791   1.522  1.2851  0.3484  0.0384
10305SOL     OW32682   3.155   2.258   7.726 -0.3020 -0.4427 -0.7591
10305SOL    HW132683   3.162   2.352   7.747  1.3475 -0.9023  0.9862
10305SOL    HW232684   3.071   2.232   7.763  1.1817 -0.5486  2.9196
10306SOL     OW32685   7.105   0.897   8.901 -0.2201 -0.1931 -0.0255
10306SOL    HW132686   7.050   0.861   8.831  0.0891  0.7665 -0.7898
10306SOL    HW232687   7.172   0.947   8.855 -0.5738  1.2622  0.9721
10307SOL     OW32688   0.242   5.357   8.839 -0.0078 -0.8049 -0.2140
10307SOL    HW132689   0.281   5.273   8.816 -2.6772 -2.4978  0.9389
10307SOL    HW232690   0.149   5.346   8.820 -0.7371  1.1657  1.7975
10308SOL     OW32691   9.325   7.711   8.051 -0.5776  0.9325  0.1845
10308SOL    HW132692   9.332   7.797   8.092  0.0531  0.0824  1.9643
10308SOL    HW232693   9.235   7.684   8.067 -0.7415  1.1859 -0.2724
10309SOL     OW32694   2.334   1.190   9.170 -0.0621 -0.0327 -0.0462
10309SOL    HW132695   2.288   1.273   9.156 -0.7458 -0.9064 -4.4376
10309SOL    HW232696   2.427   1.214   9.171 -0.2714  0.8607 -0.7489
10310SOL     OW32697   3.566   3.120   1.283  0.6821 -0.4567  0.4415
10310SOL    HW132698   3.582   3.144   1.374  1.0429 -1.7359  0.7367
10310SOL    HW232699   3.507   3.188   1.250 -0.0506 -0.3666  1.8500
10311SOL     OW32700   7.988   8.313   4.198  0.2605  0.2517 -0.0789
10311SOL    HW132701   8.053   8.322   4.267  0.3253 -0.0391 -0.1008
10311SOL    HW232702   7.922   8.380   4.218  0.0102 -0.1800  0.5601
10312SOL     OW32703   5.483   7.958   7.983  0.2454  0.1718  0.3182
10312SOL    HW132704   5.539   7.990   7.912  1.1168 -0.8633  0.5091
10312SOL    HW232705   5.536   7.969   8.062  0.9118 -2.3613  0.3076
10313SOL     OW32706   6.367   5.696   3.344 -0.0799 -0.0055 -0.0326
10313SOL    HW132707   6.384   5.779   3.299 -0.8911 -0.0567 -0.4531
10313SOL    HW232708   6.277   5.674   3.320  0.0039 -0.8237  0.3775
10314SOL     OW32709   7.455   3.981   8.988  0.9837  0.1262  0.3930
10314SOL    HW132710   7.363   4.007   8.987  0.6662 -0.8610 -2.0224
10314SOL    HW232711   7.463   3.923   9.064 -0.8676 -1.3078 -0.4377
10315SOL     OW32712   8.965   0.193   8.236  0.2585  0.4549  0.2677
10315SOL    HW132713   9.032   0.259   8.217  1.3994 -0.7639 -0.1360
10315SOL    HW232714   8.882   0.241   8.234  1.0238  1.8078 -0.2740
10316SOL     OW32715   8.356   3.298   0.596  0.4164  0.0608  0.0413
10316SOL    HW132716   8.289   3.360   0.568 -0.1610 -1.1149 -1.2368
10316SOL    HW232717   8.434   3.352   0.611 -0.5080  1.2980  0.5530
10317SOL     OW32718   6.975   3.914   4.850  0.0622 -0.3613  0.1951
10317SOL    HW132719   6.907   3.969   4.810  0.7464 -0.2002 -0.7824
10317SOL    HW232720   6.928   3.835   4.877 -0.3905 -0.6012 -1.2059
10318SOL     OW32721   0.352   7.456   1.017 -0.0045 -0.3403 -0.3363
10318SOL    HW132722   0.443   7.469   0.991 -0.0616  0.1912 -0.2884
10318SOL    HW232723   0.316   7.545   1.022  0.2767 -0.3101  2.5700
10319SOL     OW32724   1.020   6.736   2.464  0.2141  0.4611 -0.0806
10319SOL    HW132725   0.993   6.691   2.384  2.7056 -1.3803 -0.0162
10319SOL    HW232726   1.085   6.800   2.434  1.9745 -0.9701  0.4520
10320SOL     OW32727   3.056   2.237   9.292 -0.0426  0.0930  0.2886
10320SOL    HW132728   3.134   2.292   9.296 -0.6459  0.8913  1.6049
10320SOL    HW232729   3.082   2.164   9.236  1.6167  0.3825  0.6126
10321SOL     OW32730   8.594   4.399   1.031  0.2649 -0.1874  0.0275
10321SOL    HW132731   8.614   4.432   1.119 -0.3741 -0.0601  0.1302
10321SOL    HW232732   8.506   4.361   1.039  0.3080 -0.4051 -0.4972
10322SOL     OW32733   1.463   7.264   7.613  0.0828 -0.0017 -0.5226
10322SOL    HW132734   1.428   7.353   7.612  1.3623  0.5391 -1.6360
10322SOL    HW232735   1.399   7.212   7.565 -0.8986  0.2006  0.5289
10323SOL     OW32736   5.099   2.510   7.434  0.8409 -0.4275 -0.0462
10323SOL    HW132737   5.112   2.423   7.395 -1.8667 -0.6525 -0.6707
10323SOL    HW232738   5.018   2.501   7.485  1.5424  1.2512  1.4514
10324SOL     OW32739   5.926   7.768   2.399  0.0665 -0.3002  0.5338
10324SOL    HW132740   5.952   7.822   2.325  1.7300 -2.0165 -0.2237
10324SOL    HW232741   6.000   7.709   2.412 -1.4341 -2.0321  1.6323
10325SOL     OW32742   7.193   3.405   4.622 -0.4785 -0.1985 -0.1100
10325SOL    HW132743   7.217   3.434   4.710 -0.1763 -1.3926  0.2236
10325SOL    HW232744   7.157   3.317   4.635  0.1537 -0.6405 -1.2357
10326SOL     OW32745   6.307   0.274   5.113  0.5308  0.1089 -0.0950
10326SOL    HW132746   6.276   0.278   5.023  0.6463 -0.1336 -0.1480
10326SOL    HW232747   6.238   0.315   5.165  0.6439  0.6042 -0.3371
10327SOL     OW32748   9.067   4.255   4.502 -0.4702 -0.0768  0.0197
10327SOL    HW132749   9.074   4.314   4.427 -0.0867 -0.0938  0.0415
10327SOL    HW232750   9.141   4.278   4.558 -0.2648 -0.6325 -0.0119
10328SOL     OW32751   6.109   2.772   8.316 -0.2797 -0.5999 -0.4105
10328SOL    HW132752   6.024   2.727   8.308 -0.0017 -1.1342 -0.4427
10328SOL    HW232753   6.087   2.863   8.335 -0.9095 -0.2114 -2.7383
10329SOL     OW32754   1.941   9.628   0.901  0.5640 -0.3355  0.4485
10329SOL    HW132755   1.883   9.702   0.883  1.8934  0.9673  1.2290
10329SOL    HW232756   1.903   9.555   0.853 -0.5156  0.9734 -0.7784
10330SOL     OW32757   1.954   5.034   9.325  0.2787  0.1648 -0.4340
10330SOL    HW132758   1.986   4.956   9.280  0.1610  0.5647 -1.2189
10330SOL    HW232759   1.884   5.068   9.270 -1.9159 -0.9520  1.4757
10331SOL     OW32760   1.017   3.340   6.052 -0.5913  0.3082  0.3953
10331SOL    HW132761   1.005   3.259   6.003 -0.9691  1.2761 -1.2012
10331SOL    HW232762   0.952   3.335   6.123 -3.8103  1.0765 -2.2716
10332SOL     OW32763   8.987   2.374   5.799 -0.3832  0.5192 -0.0364
10332SOL    HW132764   9.020   2.331   5.720 -0.8204 -0.8568  0.5076
10332SOL    HW232765   9.063   2.422   5.832  0.8791 -1.7567  0.6231
10333SOL     OW32766   7.656   4.352   2.202 -0.4673 -0.2435 -0.6253
10333SOL    HW132767   7.708   4.274   2.183 -1.2993 -1.0181  0.2117
10333SOL    HW232768   7.701   4.393   2.276 -0.6208 -0.5113 -0.3809
10334SOL     OW32769   1.418   5.405   9.377  0.3848 -0.1855  0.2299
10334SOL    HW132770   1.378   5.418   9.291  0.0638  0.5724  0.4827
10334SOL    HW232771   1.359   5.452   9.437  2.0434  1.6474  0.5284
10335SOL     OW32772   0.885   9.446   8.540 -0.0978  0.2238 -0.5336
10335SOL    HW132773   0.864   9.405   8.455  0.4273 -0.3125 -0.4096
10335SOL    HW232774   0.963   9.498   8.523 -0.0370  0.1777 -0.3894
10336SOL     OW32775   0.323   1.252   5.253  0.0771 -0.8671  0.1996
10336SOL    HW132776   0.372   1.232   5.173  0.8841  1.8474 -0.0715
10336SOL    HW232777   0.390   1.272   5.318 -0.5782  1.3403  0.2654
10337SOL     OW32778   5.396   5.354   9.241 -0.1075  0.0280 -0.4116
10337SOL    HW132779   5.427   5.433   9.196 -0.0081 -0.5444 -1.3557
10337SOL    HW232780   5.302   5.369   9.253  0.0157  0.5524 -0.0229
10338SOL     OW32781   4.741   9.069   6.633 -0.5060  0.0464  0.0575
10338SOL    HW132782   4.771   9.147   6.680 -0.7584 -0.1049  0.4738
10338SOL    HW232783   4.652   9.089   6.606 -0.8789 -0.4113  0.9008
10339SOL     OW32784   6.481   3.016   3.046  0.1377  0.4546 -0.1428
10339SOL    HW132785   6.498   2.930   3.008  0.8890 -0.1112  1.3998
10339SOL    HW232786   6.559   3.035   3.098  0.3835  2.4956 -1.1405
10340SOL     OW32787   0.752   9.275   6.223 -0.1143  0.1646  0.1007
10340SOL    HW132788   0.748   9.270   6.319 -0.9735 -1.2380  0.0168
10340SOL    HW232789   0.661   9.283   6.195  0.0498 -0.4381 -0.6422
10341SOL     OW32790   5.262   9.009   3.591  0.6471  0.4993 -0.7469
10341SOL    HW132791   5.240   8.921   3.623 -0.1233  1.4050  1.4290
10341SOL    HW232792   5.307   8.994   3.508  1.8203 -2.0307  0.2417
10342SOL     OW32793   5.533   4.474   4.512 -0.3712 -0.2326 -0.4027
10342SOL    HW132794   5.555   4.383   4.536  0.4419  0.2013  0.5742
10342SOL    HW232795   5.617   4.515   4.496 -0.8112 -0.2187 -3.2070
10343SOL     OW32796   0.437   5.036   5.749 -0.0461  0.1182  0.5006
10343SOL    HW132797   0.419   5.095   5.822  2.5768  2.0550 -0.2831
10343SOL    HW232798   0.466   4.954   5.790 -0.3644  0.5468  1.6133
10344SOL     OW32799   1.026   8.031   5.088 -0.1166  0.4020 -0.2731
10344SOL    HW132800   0.986   8.115   5.109  0.0413  0.4288 -0.0621
10344SOL    HW232801   1.031   7.986   5.173  1.2381  0.8173 -0.1045
10345SOL     OW32802   4.226   7.885   2.085  0.1187  0.2786 -0.1308
10345SOL    HW132803   4.301   7.891   2.026  0.8521  0.6257  0.8228
10345SOL    HW232804   4.189   7.798   2.067  1.3532 -0.3183  0.1036
10346SOL     OW32805   7.727   5.813   4.623  0.1896 -0.2916 -0.1048
10346SOL    HW132806   7.638   5.850   4.620 -0.6185 -2.1735 -1.0016
10346SOL    HW232807   7.766   5.851   4.702 -1.2952  0.8405  0.1320
10347SOL     OW32808   7.791   5.282   3.035 -0.7445 -0.2001  0.3381
10347SOL    HW132809   7.862   5.222   3.013 -0.8999 -0.3448  0.2181
10347SOL    HW232810   7.711   5.231   3.016 -0.8948 -0.4929  1.6659
10348SOL     OW32811   6.517   8.246   4.809 -0.5940 -0.2546  0.1664
10348SOL    HW132812   6.474   8.330   4.823 -1.2914 -0.5034 -0.4375
10348SOL    HW232813   6.467   8.183   4.862 -1.5702 -0.7077 -1.2447
10349SOL     OW32814   1.248   4.994   2.671 -0.3793  0.0482  0.4741
10349SOL    HW132815   1.341   4.991   2.690  0.0466 -0.0068 -1.3749
10349SOL    HW232816   1.239   4.944   2.590 -2.0662 -0.1932  0.7781
10350SOL     OW32817   6.633   1.972   9.836  0.0665  0.3511 -0.2520
10350SOL    HW132818   6.622   1.935   9.923 -1.1788  0.2545 -0.4376
10350SOL    HW232819   6.700   1.917   9.795  1.1412  0.7914  0.8406
10351SOL     OW32820   3.180   9.453   6.738  0.4041 -0.3204  0.1872
10351SOL    HW132821   3.226   9.503   6.671  0.4880  0.4072  0.7752
10351SOL    HW232822   3.180   9.510   6.815 -1.8014 -0.1485  0.1006
10352SOL     OW32823   2.878   1.492   3.964 -0.0699  0.2052 -0.7255
10352SOL    HW132824   2.812   1.536   3.910 -0.3661  1.3210  0.4806
10352SOL    HW232825   2.870   1.534   4.050  1.0901 -0.7921 -0.0997
10353SOL     OW32826   8.439   9.579   3.205  0.2084 -0.1533  0.3855
10353SOL    HW132827   8.361   9.536   3.240 -0.5531  1.4099  0.7071
10353SOL    HW232828   8.487   9.608   3.282  1.2511 -1.2843  0.1934
10354SOL     OW32829   2.293   3.166   0.154 -0.1342  0.5996 -0.3299
10354SOL    HW132830   2.383   3.174   0.186 -0.0662  0.4149 -0.4664
10354SOL    HW232831   2.243   3.231   0.203  0.2815  1.4800 -1.0447
10355SOL     OW32832   0.525   9.358   0.953 -0.4161 -0.8926  0.3944
10355SOL    HW132833   0.537   9.453   0.953 -1.5097 -0.7271  1.7360
10355SOL    HW232834   0.502   9.337   0.863 -0.0916  0.0928  0.0631
10356SOL     OW32835   3.425   6.509   5.393  0.2412  0.6072  0.0147
10356SOL    HW132836   3.384   6.437   5.440  0.6359 -0.8464 -1.7583
10356SOL    HW232837   3.488   6.546   5.455  1.8943 -2.2551  0.1883
10357SOL     OW32838   5.116   1.795   6.979 -0.1653  0.4454  0.4050
10357SOL    HW132839   5.158   1.865   6.928  0.7407  0.1704  0.7619
10357SOL    HW232840   5.151   1.714   6.943  0.7224  0.2526  1.6431
10358SOL     OW32841   1.721   3.978   2.509  0.5003 -0.1095 -0.4207
10358SOL    HW132842   1.786   4.015   2.449  1.2279 -1.0628 -0.2405
10358SOL    HW232843   1.772   3.949   2.584 -0.1201 -0.9829 -0.3278
10359SOL     OW32844   7.725   8.436   7.027  0.4232  0.0646  0.2511
10359SOL    HW132845   7.798   8.496   7.039  0.7861  0.3283 -2.5692
10359SOL    HW232846   7.753   8.376   6.958 -1.6740 -0.4043 -0.2871
10360SOL     OW32847   8.170   1.276   9.450 -0.3833  0.6712  0.6951
10360SOL    HW132848   8.141   1.331   9.377 -2.0721  0.1097  0.9150
10360SOL    HW232849   8.205   1.197   9.408 -2.0195  0.0346  0.4895
10361SOL     OW32850   1.105   2.557   0.012 -0.5974 -0.2079  0.0492
10361SOL    HW132851   1.191   2.599   0.014 -0.9125  0.4170  0.5469
10361SOL    HW232852   1.119   2.471   0.053 -0.4293  0.2912  1.0436
10362SOL     OW32853   7.077   7.164   2.845  0.1870  0.0928  0.0582
10362SOL    HW132854   7.003   7.188   2.901  0.6623 -0.2301  0.8521
10362SOL    HW232855   7.142   7.232   2.861  0.1599  0.2382 -0.4454
10363SOL     OW32856   9.136   0.094   5.711 -0.1346 -0.2436 -0.0150
10363SOL    HW132857   9.161   0.003   5.693  2.3027  0.2452  0.5566
10363SOL    HW232858   9.125   0.097   5.806  1.3599  0.3422  0.1787
10364SOL     OW32859   8.087   7.860   9.741  0.0522  0.3910  0.4886
10364SOL    HW132860   8.163   7.918   9.742 -0.1949  0.7317  0.2507
10364SOL    HW232861   8.092   7.815   9.657 -0.6207  1.2684 -0.0469
10365SOL     OW32862   6.928   7.613   3.400  0.0076 -0.8716  0.3623
10365SOL    HW132863   6.996   7.631   3.335 -1.1529 -1.1208 -0.9507
10365SOL    HW232864   6.947   7.674   3.472  0.9339 -0.1358 -0.4826
10366SOL     OW32865   3.878   5.462   9.431  1.0198  0.2002 -0.0861
10366SOL    HW132866   3.816   5.533   9.448  1.7856  0.7290  0.5373
10366SOL    HW232867   3.958   5.489   9.474  1.8011 -0.3186 -1.1609
10367SOL     OW32868   1.602   1.138   6.849 -0.2664 -0.1561 -0.0250
10367SOL    HW132869   1.589   1.045   6.867 -2.7018  0.0993 -0.0780
10367SOL    HW232870   1.679   1.162   6.900 -1.1539 -1.6094  2.1621
10368SOL     OW32871   8.579   2.567   9.167 -0.1422  0.0144  0.1901
10368SOL    HW132872   8.572   2.570   9.072  1.3689 -1.6132 -0.0250
10368SOL    HW232873   8.627   2.646   9.190  2.1003 -0.9896 -0.7537
10369SOL     OW32874   6.315   5.883   0.566 -0.2118 -0.6825  0.5840
10369SOL    HW132875   6.242   5.923   0.518  1.4817 -0.0238 -1.6039
10369SOL    HW232876   6.321   5.794   0.530  1.5737  0.0721 -1.1775
10370SOL     OW32877   1.192   0.954   8.781 -0.1723  0.5415  0.6573
10370SOL    HW132878   1.284   0.942   8.759 -0.3938 -2.3649  0.9318
10370SOL    HW232879   1.155   0.997   8.704  1.2768  1.3535  0.3637
10371SOL     OW32880   6.674   0.762   0.912 -0.0779 -0.1971  0.4678
10371SOL    HW132881   6.643   0.676   0.885 -1.6411  0.8340 -1.2648
10371SOL    HW232882   6.610   0.791   0.977  0.6010 -0.4363  1.2558
10372SOL     OW32883   9.211   9.101   1.819  0.3422 -0.2048 -1.0431
10372SOL    HW132884   9.145   9.051   1.867  1.0164 -0.8334 -0.7499
10372SOL    HW232885   9.222   9.054   1.737  0.4471 -0.1138 -1.0822
10373SOL     OW32886   4.938   0.245   8.633 -0.4454  0.1633  0.4930
10373SOL    HW132887   4.988   0.296   8.569 -0.6251  1.6407  1.4737
10373SOL    HW232888   5.002   0.187   8.673  0.4224  1.6121  1.3120
10374SOL     OW32889   3.027   6.659   2.461 -0.2430 -0.3114  0.6596
10374SOL    HW132890   2.992   6.744   2.432  0.2084  0.4480  2.2408
10374SOL    HW232891   3.024   6.604   2.382 -2.0835  0.6449 -0.0034
10375SOL     OW32892   0.444   7.046   9.672 -0.5814  0.3069 -0.5295
10375SOL    HW132893   0.534   7.029   9.699 -0.1371  0.8851 -1.5919
10375SOL    HW232894   0.391   6.989   9.728  0.3174  1.0679  1.1550
10376SOL     OW32895   5.955   3.723   3.198  0.2498  0.3420 -0.5246
10376SOL    HW132896   5.885   3.721   3.264 -0.3369  1.8401 -1.0548
10376SOL    HW232897   5.909   3.721   3.114  0.7625  1.8981 -0.8882
10377SOL     OW32898   5.986   7.681   2.068 -0.4400  0.5605 -0.4557
10377SOL    HW132899   5.937   7.601   2.089  0.4444  0.5228  1.7700
10377SOL    HW232900   6.076   7.661   2.097  0.5719  1.2051 -2.9230
10378SOL     OW32901   3.006   9.429   5.573  0.0861 -0.1278 -0.0363
10378SOL    HW132902   3.101   9.438   5.561  0.1433 -2.2062 -1.9671
10378SOL    HW232903   2.994   9.337   5.595 -1.4670  0.2813  0.9577
10379SOL     OW32904   8.174   1.632   5.978 -0.2649  0.1140  0.6997
10379SOL    HW132905   8.140   1.547   6.005  1.1426 -0.9347 -0.6836
10379SOL    HW232906   8.269   1.620   5.975 -0.1047  1.4287 -0.4808
10380SOL     OW32907   1.132   3.163   9.300  0.1292 -0.1506  0.2651
10380SOL    HW132908   1.173   3.181   9.385  1.0712 -2.4058  0.3494
10380SOL    HW232909   1.193   3.103   9.256 -0.9737 -0.0534 -1.4725
10381SOL     OW32910   6.126   7.500   4.236 -0.2775 -0.1808  0.0234
10381SOL    HW132911   6.162   7.555   4.165  0.2996  1.7058  1.6700
10381SOL    HW232912   6.161   7.540   4.316 -1.9283 -1.4649  1.4414
10382SOL     OW32913   6.896   8.054   1.273 -0.1606 -0.0426  0.3167
10382SOL    HW132914   6.914   7.996   1.199 -1.4460  0.5184 -0.4527
10382SOL    HW232915   6.960   8.028   1.340  2.0573  0.4173 -1.4949
10383SOL     OW32916   3.549   9.075   4.154  0.0198  0.4452 -0.0491
10383SOL    HW132917   3.488   9.006   4.129 -0.2753  0.1971  1.3071
10383SOL    HW232918   3.627   9.058   4.101 -1.0508  0.7493 -1.7750
10384SOL     OW32919   8.022   0.580   3.762 -0.1463 -0.8784  0.7601
10384SOL    HW132920   8.071   0.634   3.823  1.2549 -0.1676 -0.9068
10384SOL    HW232921   7.966   0.643   3.716  0.2284 -1.0897  0.0054
10385SOL     OW32922   4.474   6.021   2.727 -0.3434 -0.2596  0.2334
10385SOL    HW132923   4.535   5.970   2.780 -1.2879 -1.3531  0.3005
10385SOL    HW232924   4.388   5.982   2.744 -1.1653  1.5842  0.5610
10386SOL     OW32925   7.946   5.381   8.754  0.5359 -0.3915 -0.1621
10386SOL    HW132926   7.987   5.466   8.739  0.7381 -0.7609 -1.9569
10386SOL    HW232927   8.015   5.317   8.732  0.4090 -1.0430  1.2044
10387SOL     OW32928   2.148   6.155   7.044  0.2577  0.0249 -0.2631
10387SOL    HW132929   2.094   6.206   7.104  1.7001 -1.1664  2.2345
10387SOL    HW232930   2.217   6.216   7.017 -0.7214  0.7387 -1.2630
10388SOL     OW32931   3.869   6.374   7.857 -0.7075  0.1103 -0.5316
10388SOL    HW132932   3.811   6.440   7.820  0.6593  0.6132 -1.8536
10388SOL    HW232933   3.892   6.318   7.783  1.7349  0.8728 -0.4093
10389SOL     OW32934   6.705   6.040   0.889 -0.2334  0.0540  0.4893
10389SOL    HW132935   6.663   6.104   0.831 -0.9729 -0.9548 -0.1367
10389SOL    HW232936   6.764   6.091   0.944 -0.1073  1.1470 -0.6269
10390SOL     OW32937   8.452   3.584   2.199  0.0087  0.9961 -0.4034
10390SOL    HW132938   8.501   3.664   2.178  0.0357  1.0816 -0.0225
10390SOL    HW232939   8.396   3.570   2.123  0.0839  1.3172 -0.5215
10391SOL     OW32940   3.358   4.823   1.231  0.8083  0.1656  0.1260
10391SOL    HW132941   3.289   4.835   1.167  0.0917 -1.0379  0.6599
10391SOL    HW232942   3.342   4.891   1.296  1.0307  0.8378 -0.5034
10392SOL     OW32943   6.667   8.789   5.691 -0.6480  0.1393 -0.0846
10392SOL    HW132944   6.714   8.782   5.774 -0.3809 -1.9952 -0.3678
10392SOL    HW232945   6.692   8.875   5.657  2.4865 -0.5758  0.1441
10393SOL     OW32946   6.750   7.456   7.386  0.1596 -0.4542 -0.3390
10393SOL    HW132947   6.787   7.429   7.470  0.0496  0.6160  0.0671
10393SOL    HW232948   6.823   7.449   7.324  1.0481  1.4962  0.4213
10394SOL     OW32949   9.796   9.683   7.242 -0.4954  0.2685  0.4775
10394SOL    HW132950   9.794   9.738   7.164 -1.9656  0.9763  0.9689
10394SOL    HW232951   9.705   9.683   7.273 -0.1876 -1.0519  1.4587
10395SOL     OW32952   7.575   7.485   2.703  0.1662 -0.2948 -0.7460
10395SOL    HW132953   7.608   7.525   2.783 -0.2267  0.3440 -0.8945
10395SOL    HW232954   7.481   7.475   2.719 -0.2878  1.6643 -1.8472
10396SOL     OW32955   1.391   2.289   3.011 -0.0490  0.5206  0.3442
10396SOL    HW132956   1.377   2.297   2.917 -1.8096 -1.5885  0.3528
10396SOL    HW232957   1.323   2.344   3.050  0.3945  1.0336  0.4102
10397SOL     OW32958   3.192   2.344   2.401 -0.1467  0.1717  0.2030
10397SOL    HW132959   3.235   2.259   2.403 -2.3229 -0.9665  1.8656
10397SOL    HW232960   3.194   2.369   2.309  1.1493 -1.3145 -0.2221
10398SOL     OW32961   4.361   5.702   9.483  0.6658  0.2725  0.0425
10398SOL    HW132962   4.348   5.711   9.577  1.6178  0.1928  0.1886
10398SOL    HW232963   4.427   5.634   9.474  1.6696  1.2909 -0.6052
10399SOL     OW32964   7.122   3.431   7.142  0.4332  0.4668  0.5950
10399SOL    HW132965   7.110   3.524   7.123 -0.4717  0.3370  0.5009
10399SOL    HW232966   7.113   3.387   7.057  1.3988  0.3282  0.5480
10400SOL     OW32967   6.514   0.921   3.547  0.3249 -0.2277 -0.1228
10400SOL    HW132968   6.580   0.980   3.511 -1.1649  1.9616  0.5495
10400SOL    HW232969   6.542   0.905   3.637  0.2238  0.2628 -0.0033
10401SOL     OW32970   6.672   2.512   3.824 -0.0026  0.0619  0.1035
10401SOL    HW132971   6.685   2.582   3.887  0.2792 -0.4303  0.5996
10401SOL    HW232972   6.581   2.521   3.795  0.5253  1.7428 -1.2047
10402SOL     OW32973   2.163   9.842   3.632  0.0788 -0.4808 -0.0355
10402SOL    HW132974   2.105   9.795   3.693 -2.0822  0.6643 -1.0835
10402SOL    HW232975   2.251   9.826   3.666 -0.8062 -2.4325  1.5793
10403SOL     OW32976   8.070   6.762   6.963 -0.3992 -0.6088  0.2246
10403SOL    HW132977   8.014   6.685   6.971  1.5779 -2.0015  1.2177
10403SOL    HW232978   8.038   6.822   7.031 -1.1570 -1.0646  0.2759
10404SOL     OW32979   4.266   7.116   2.629 -0.1961  0.5846  0.5391
10404SOL    HW132980   4.318   7.196   2.626  1.8779 -0.7306 -0.4511
10404SOL    HW232981   4.219   7.122   2.713  0.5233  2.4307  0.8659
10405SOL     OW32982   0.160   5.465   1.695 -0.5929  0.3782 -0.0388
10405SOL    HW132983   0.233   5.447   1.635 -0.8100  0.4230 -0.3182
10405SOL    HW232984   0.153   5.386   1.749 -1.7140 -0.5335 -1.4349
10406SOL     OW32985   2.599   6.593   0.155 -0.1623  0.6124  0.1946
10406SOL    HW132986   2.551   6.531   0.211  0.5845 -0.5766 -0.4245
10406SOL    HW232987   2.540   6.667   0.145 -0.8648  0.2476  1.4275
10407SOL     OW32988   0.148   1.670   5.316 -1.0857  0.4967 -0.1320
10407SOL    HW132989   0.237   1.702   5.300 -1.2446  1.8454  1.3833
10407SOL    HW232990   0.093   1.719   5.255 -1.0325  1.3338  0.4767
10408SOL     OW32991   1.608   7.239   5.280 -0.2132 -0.5681 -0.3112
10408SOL    HW132992   1.693   7.277   5.259  0.0308  0.0890  1.6393
10408SOL    HW232993   1.629   7.165   5.338 -0.9751  0.3619  1.2258
10409SOL     OW32994   0.209   1.411   8.718 -1.0501  0.8486 -0.3079
10409SOL    HW132995   0.247   1.326   8.698  2.0334  2.2939 -1.1836
10409SOL    HW232996   0.115   1.400   8.702 -0.3900 -1.5718 -3.3756
10410SOL     OW32997   0.986   6.610   7.487  0.6121  0.5374  0.2173
10410SOL    HW132998   1.066   6.662   7.479  0.2841  0.8192 -1.4674
10410SOL    HW232999   1.015   6.527   7.526  1.6346  0.8196  0.0773
10411SOL     OW33000   0.391   7.426   7.357 -0.1886 -0.1960  0.5253
10411SOL    HW133001   0.437   7.343   7.342 -1.5485 -0.6407 -1.5725
10411SOL    HW233002   0.439   7.490   7.303 -1.0161 -0.3371 -0.4185
10412SOL     OW33003   7.029   4.153   6.212  0.6183 -0.7997  0.3595
10412SOL    HW133004   6.964   4.222   6.227 -0.2581 -1.7933  1.3171
10412SOL    HW233005   7.111   4.200   6.196  0.4680  0.5084  2.8512
10413SOL     OW33006   5.993   8.674   5.757 -0.7202  0.4957 -0.0774
10413SOL    HW133007   5.906   8.644   5.732 -1.1731  1.0756  0.7786
10413SOL    HW233008   5.980   8.763   5.790  0.1510  0.4867  0.3200
10414SOL     OW33009   1.307   2.866   0.706  0.2998 -0.5438  0.5751
10414SOL    HW133010   1.397   2.892   0.683  0.4938 -0.0437  1.8275
10414SOL    HW233011   1.297   2.779   0.668  0.1127  0.7328 -2.5561
10415SOL     OW33012   7.816   9.636   9.811 -0.6645 -0.3931 -0.3669
10415SOL    HW133013   7.798   9.720   9.769 -1.7996  0.7612  2.2069
10415SOL    HW233014   7.899   9.648   9.857 -0.5839 -0.8436 -0.3867
10416SOL     OW33015   5.820   3.328   7.856  0.1099 -0.0221  0.0673
10416SOL    HW133016   5.851   3.239   7.842 -1.0342 -0.7113  1.5856
10416SOL    HW233017   5.855   3.353   7.941  1.5319  1.5260 -0.9255
10417SOL     OW33018   2.313   6.315   9.318 -0.0105  0.2862  0.0509
10417SOL    HW133019   2.328   6.224   9.347 -1.9123 -0.1670 -0.2569
10417SOL    HW233020   2.344   6.368   9.391 -1.3769 -0.7298  1.4357
10418SOL     OW33021   2.615   9.366   3.008  0.3078  0.4279  0.4793
10418SOL    HW133022   2.657   9.450   2.996 -0.7157  0.9117  0.1627
10418SOL    HW233023   2.521   9.385   3.007 -0.0039 -0.8843 -1.1048
10419SOL     OW33024   4.451   3.278   8.001 -0.2038 -0.1559 -1.2960
10419SOL    HW133025   4.494   3.316   8.077 -1.3682  0.4405 -0.9070
10419SOL    HW233026   4.466   3.184   8.009 -0.6617 -0.1496 -0.0789
10420SOL     OW33027   4.395   0.878   6.821  0.2219 -0.2204  0.1521
10420SOL    HW133028   4.470   0.909   6.772  1.1270 -0.8081  1.1214
10420SOL    HW233029   4.429   0.806   6.874 -0.9453 -0.2813  0.8559
10421SOL     OW33030   5.257   0.627   9.493 -0.4718 -0.1846  0.4137
10421SOL    HW133031   5.273   0.536   9.520  1.1472 -0.1752 -0.4036
10421SOL    HW233032   5.173   0.624   9.447 -0.3980 -1.2904  0.3220
10422SOL     OW33033   9.203   3.083   0.499 -0.2502 -0.1500  0.7468
10422SOL    HW133034   9.164   3.143   0.562  0.7888  1.6447 -0.2198
10422SOL    HW233035   9.298   3.091   0.513 -0.0656 -1.1317  0.1795
10423SOL     OW33036   9.594   1.257   7.767 -0.0470 -0.1082  0.1448
10423SOL    HW133037   9.509   1.283   7.801 -0.6867  0.8670 -2.0380
10423SOL    HW233038   9.648   1.336   7.774  0.5557 -0.5770  1.0467
10424SOL     OW33039   4.873   8.514   5.684  0.2658 -0.0821 -0.3808
10424SOL    HW133040   4.952   8.550   5.643  0.9238 -1.3987 -0.2996
10424SOL    HW233041   4.902   8.433   5.726 -1.0850 -0.4686 -0.1458
10425SOL     OW33042   9.298   2.637   3.766  0.0845  0.2020  0.7834
10425SOL    HW133043   9.353   2.564   3.736 -0.7493  0.1088 -0.5853
10425SOL    HW233044   9.291   2.695   3.691 -0.5955  0.8960  1.3574
10426SOL     OW33045   2.779   4.033   8.113  0.5229 -0.4029 -0.2886
10426SOL    HW133046   2.720   4.016   8.187  2.0013 -0.8589  0.8185
10426SOL    HW233047   2.861   3.991   8.138  1.1086 -0.4078 -2.1301
10427SOL     OW33048   3.847   4.561   2.036  0.0306  0.0423 -0.4143
10427SOL    HW133049   3.816   4.540   1.948  2.8194 -0.5621 -1.3676
10427SOL    HW233050   3.904   4.488   2.059 -0.2071  0.4629  1.6915
10428SOL     OW33051   0.893   7.044   4.122  0.3233  0.1434  0.6314
10428SOL    HW133052   0.962   6.995   4.167 -0.0875  0.1157  1.2404
10428SOL    HW233053   0.832   6.976   4.091  0.7905  0.1336 -0.3047
10429SOL     OW33054   3.701   3.650   7.961  0.3226  0.3537  0.2769
10429SOL    HW133055   3.774   3.684   7.909  1.6715 -0.6874  1.4149
10429SOL    HW233056   3.728   3.664   8.052  0.2507 -2.2833  0.7728
10430SOL     OW33057   4.868   2.772   5.936 -0.6812  0.3295  0.1905
10430SOL    HW133058   4.919   2.692   5.924  0.8575  1.3155 -0.2083
10430SOL    HW233059   4.783   2.742   5.968 -0.3691 -1.4994 -0.5447
10431SOL     OW33060   2.208   1.294   5.523 -0.1024  0.1251  0.6151
10431SOL    HW133061   2.143   1.247   5.470 -0.8966 -1.0084  2.5174
10431SOL    HW233062   2.263   1.226   5.560  0.2893  0.8667  1.4355
10432SOL     OW33063   4.984   0.902   9.518 -0.1936 -0.2181 -0.0444
10432SOL    HW133064   4.955   0.872   9.432  0.8002  0.3718 -0.6014
10432SOL    HW233065   4.991   0.822   9.570 -2.7706 -0.4003  0.1424
10433SOL     OW33066   8.636   8.111   5.946 -0.6803 -0.2091 -0.0422
10433SOL    HW133067   8.658   8.196   5.986  1.8780 -1.2157  0.9192
10433SOL    HW233068   8.712   8.091   5.891 -0.9478 -2.1599  0.2514
10434SOL     OW33069   7.522   5.894   0.479 -0.0418 -0.2459  0.3848
10434SOL    HW133070   7.607   5.939   0.485 -0.7769  1.2810 -0.1618
10434SOL    HW233071   7.486   5.923   0.395 -1.7406  0.2999  1.2550
10435SOL     OW33072   8.836   7.975   8.006  0.5412 -0.6041  0.2992
10435SOL    HW133073   8.861   7.971   7.913  1.5986  1.3143  0.4497
10435SOL    HW233074   8.917   7.996   8.052 -0.3907  0.8069  1.3762
10436SOL     OW33075   7.171   3.592   6.473  0.1471  0.0812  0.1664
10436SOL    HW133076   7.105   3.555   6.532  1.2372 -1.6997  0.3223
10436SOL    HW233077   7.208   3.666   6.522  0.9129 -1.2666  1.7130
10437SOL     OW33078   6.451   4.362   0.430 -0.0326 -0.2538  0.3567
10437SOL    HW133079   6.383   4.410   0.478  0.2480 -0.3629  0.8663
10437SOL    HW233080   6.404   4.320   0.358 -0.4350  0.0168  0.4573
10438SOL     OW33081   5.844   3.648   8.856 -0.0052 -0.5455 -0.4587
10438SOL    HW133082   5.804   3.566   8.885 -0.4096  0.0977  0.8960
10438SOL    HW233083   5.799   3.670   8.775 -1.2428 -0.6830  0.1737
10439SOL     OW33084   8.834   8.493   0.383 -0.0054 -0.0812 -0.0751
10439SOL    HW133085   8.769   8.517   0.449 -0.6388 -2.0418  0.0877
10439SOL    HW233086   8.901   8.445   0.432  0.6136  0.2967 -0.5414
10440SOL     OW33087   0.462   9.845   1.015 -0.5502  0.0636  0.1320
10440SOL    HW133088   0.533   9.877   1.070 -1.4043  0.9088  0.7733
10440SOL    HW233089   0.464   9.901   0.937 -0.8102  0.4032  0.3675
10441SOL     OW33090   2.421   9.059   4.299 -0.0051 -0.3148 -0.1264
10441SOL    HW133091   2.388   8.977   4.263  0.9960  0.2351 -2.4243
10441SOL    HW233092   2.428   9.118   4.224  3.4824  0.4699  0.6306
10442SOL     OW33093   6.204   3.854   0.267 -0.2888 -0.0338  0.0862
10442SOL    HW133094   6.225   3.766   0.297  1.9349  0.6975  0.9544
10442SOL    HW233095   6.125   3.878   0.314 -1.3223 -1.7700 -0.6818
10443SOL     OW33096   8.138   5.037   0.937 -0.3841  0.3751  0.1454
10443SOL    HW133097   8.205   5.106   0.940 -0.5380  0.5293  0.0626
10443SOL    HW233098   8.184   4.958   0.966  0.2760  0.1277 -1.4688
10444SOL     OW33099   6.285   0.692   2.818  0.0337 -0.1549  0.3440
10444SOL    HW133100   6.264   0.687   2.911 -1.6645  0.0959  0.0018
10444SOL    HW233101   6.360   0.633   2.807  0.6197  0.2465  1.9465
10445SOL     OW33102   8.440   0.118   0.442  0.2984  0.4024  0.1906
10445SOL    HW133103   8.525   0.104   0.483  0.0924  0.5158  0.6651
10445SOL    HW233104   8.452   0.198   0.390  1.0393 -0.6473 -1.3257
10446SOL     OW33105   3.683   6.153   9.305  0.3103 -0.4467  0.3902
10446SOL    HW133106   3.637   6.194   9.379 -1.6702 -0.9865 -0.4712
10446SOL    HW233107   3.698   6.225   9.243 -1.7491 -0.6353 -0.4273
10447SOL     OW33108   9.573   7.844   6.262  0.0401 -0.3385  0.2025
10447SOL    HW133109   9.601   7.775   6.202 -0.7516 -1.4644  1.0877
10447SOL    HW233110   9.645   7.907   6.261 -0.2412  0.0655 -2.4635
10448SOL     OW33111   2.120   4.377   5.900  0.0962  0.4351  0.3857
10448SOL    HW133112   2.136   4.310   5.833  0.7494  1.7076 -0.7961
10448SOL    HW233113   2.145   4.459   5.857  0.8864  1.2596  2.3367
10449SOL     OW33114   9.162   6.226   1.538  0.0149 -0.0664  0.1638
10449SOL    HW133115   9.108   6.304   1.529  1.2097  0.5523 -3.0958
10449SOL    HW233116   9.100   6.153   1.537 -0.9189  0.6956 -1.7130
10450SOL     OW33117   9.513   1.714   3.345 -0.1236  0.0471 -0.6052
10450SOL    HW133118   9.531   1.777   3.276  1.0321  1.6093  1.0079
10450SOL    HW233119   9.581   1.647   3.335  0.3666  0.5462 -0.6689
10451SOL     OW33120   3.965   5.144   8.621 -0.0244  0.0388 -0.0216
10451SOL    HW133121   3.993   5.104   8.539  0.7704  0.9942 -0.2382
10451SOL    HW233122   3.877   5.110   8.636 -1.1085  1.5306 -2.4330
10452SOL     OW33123   4.950   3.088   2.250 -0.0162  0.1178 -0.2006
10452SOL    HW133124   4.880   3.132   2.202  1.7447  0.8311 -2.2884
10452SOL    HW233125   5.019   3.154   2.257  0.9381 -0.9344  0.6854
10453SOL     OW33126   5.906   4.183   8.352  0.2630 -0.4678  0.2967
10453SOL    HW133127   5.951   4.246   8.296  0.3125 -0.2424  0.5861
10453SOL    HW233128   5.838   4.234   8.396 -0.9654 -1.0105 -0.8956
10454SOL     OW33129   4.119   7.206   7.656  0.3407  0.6303  0.5469
10454SOL    HW133130   4.207   7.187   7.624  0.5564  3.1337 -0.5392
10454SOL    HW233131   4.075   7.248   7.582 -1.3072  0.7340  1.5311
10455SOL     OW33132   8.619   6.683   6.135  0.7062  0.2634 -0.0192
10455SOL    HW133133   8.523   6.676   6.132  0.5134  2.1215  0.8746
10455SOL    HW233134   8.639   6.698   6.227  1.8675  0.0696 -0.2304
10456SOL     OW33135   3.328   0.672   3.240  0.3160  0.3137  0.3230
10456SOL    HW133136   3.393   0.741   3.254 -0.0294  0.8957 -0.8434
10456SOL    HW233137   3.370   0.593   3.276  1.7027  0.6623 -0.4416
10457SOL     OW33138   3.962   0.209   3.359  0.3151 -0.5304 -0.3138
10457SOL    HW133139   4.043   0.221   3.408 -0.8027 -0.0204  1.5081
10457SOL    HW233140   3.967   0.272   3.287  0.1822  1.8142  1.6306
10458SOL     OW33141   4.037   8.354   7.389 -0.3922 -0.0894 -0.2837
10458SOL    HW133142   4.095   8.280   7.373 -2.1755 -1.5090 -0.5381
10458SOL    HW233143   4.070   8.423   7.331  2.2866 -0.0338  1.1287
10459SOL     OW33144   6.868   5.776   4.155  0.6749  0.3932 -0.5672
10459SOL    HW133145   6.956   5.746   4.133 -0.0614 -2.6342  0.1257
10459SOL    HW233146   6.810   5.714   4.111 -1.0354  0.6427  1.2060
10460SOL     OW33147   3.540   1.107   8.220 -0.5771 -0.0808 -0.4803
10460SOL    HW133148   3.503   1.081   8.304 -0.2115  0.0083 -0.2869
10460SOL    HW233149   3.474   1.164   8.180  0.0099  1.4062  0.5798
10461SOL     OW33150   1.651   1.453   4.619  0.1593 -0.1608  0.6435
10461SOL    HW133151   1.579   1.490   4.670  1.0030  0.3020  1.5447
10461SOL    HW233152   1.699   1.399   4.681  0.3783 -0.7686 -0.0408
10462SOL     OW33153   5.084   3.016   0.904  0.1780  0.4507  0.3384
10462SOL    HW133154   5.023   2.974   0.964 -0.1577 -0.2851 -0.4847
10462SOL    HW233155   5.128   2.943   0.859 -0.7995  0.9254 -1.5128
10463SOL     OW33156   8.181   2.841   3.966 -0.4354 -0.4179  0.1170
10463SOL    HW133157   8.267   2.857   3.929 -1.3738  2.0204 -1.2025
10463SOL    HW233158   8.188   2.870   4.057 -0.0103  0.3600 -0.1548
10464SOL     OW33159   5.766   3.870   6.743 -0.2682  0.5233 -1.0415
10464SOL    HW133160   5.727   3.902   6.662 -2.0327  0.0113 -0.4201
10464SOL    HW233161   5.742   3.936   6.808  0.5639  0.5764 -0.7677
10465SOL     OW33162   7.702   3.856   4.371 -0.1526 -0.2687  0.0084
10465SOL    HW133163   7.793   3.850   4.399 -0.3230  1.4910  1.0807
10465SOL    HW233164   7.656   3.890   4.448 -1.1336  1.9943 -1.4875
10466SOL     OW33165   4.857   6.026   5.889  0.2781 -0.0786  0.0730
10466SOL    HW133166   4.899   5.979   5.962  0.6008  0.3943  0.1946
10466SOL    HW233167   4.896   6.113   5.891  0.6275 -0.2062 -0.9676
10467SOL     OW33168   1.763   4.722   2.350 -0.0197 -0.0073  0.5585
10467SOL    HW133169   1.668   4.728   2.355  0.1368  1.4489  3.0437
10467SOL    HW233170   1.782   4.736   2.257 -2.1804  0.7813  0.1643
10468SOL     OW33171   5.908   5.897   5.939 -0.3136 -0.0464 -0.6087
10468SOL    HW133172   5.813   5.910   5.940 -0.5358 -1.5862 -0.4705
10468SOL    HW233173   5.939   5.945   6.015 -1.0850 -0.2447 -0.1573
10469SOL     OW33174   5.503   4.070   3.776 -0.3396 -0.0495  0.1574
10469SOL    HW133175   5.539   4.120   3.702  1.0364 -0.0600  0.7983
10469SOL    HW233176   5.579   4.046   3.828 -1.2453 -0.5173  1.2993
10470SOL     OW33177   9.153   3.573   0.415  0.5068 -0.0056  0.2936
10470SOL    HW133178   9.240   3.533   0.420  0.2855 -0.3455  2.4361
10470SOL    HW233179   9.102   3.513   0.361  0.8510 -1.3679  1.4224
10471SOL     OW33180   6.231   0.811   2.458  0.0769  0.1435 -0.4031
10471SOL    HW133181   6.153   0.826   2.404 -0.4492 -1.5043 -0.1543
10471SOL    HW233182   6.208   0.736   2.513  1.7356 -0.1648 -0.0832
10472SOL     OW33183   7.071   3.306   2.531 -0.4617 -0.0312 -0.3500
10472SOL    HW133184   7.137   3.275   2.468 -0.7761  0.0532 -0.7257
10472SOL    HW233185   7.108   3.386   2.566 -0.9996  0.8336 -1.6600
10473SOL     OW33186   4.893   7.008   1.620  0.0869  0.0048  0.2014
10473SOL    HW133187   4.973   7.045   1.584 -0.0085  0.3250  0.3062
10473SOL    HW233188   4.883   7.052   1.705 -0.1608 -0.0813  0.2185
10474SOL     OW33189   3.832   8.838   4.037 -0.6425 -0.1582 -0.3248
10474SOL    HW133190   3.890   8.875   4.105  0.5170 -1.3802 -0.6181
10474SOL    HW233191   3.809   8.913   3.983  1.9745  0.1655 -1.1410
10475SOL     OW33192   3.214   3.277   0.521  0.0004  0.0708 -0.1119
10475SOL    HW133193   3.246   3.364   0.498 -0.7065  0.3495 -0.0707
10475SOL    HW233194   3.122   3.291   0.546  0.0126 -0.6150  0.3427
10476SOL     OW33195   1.497   9.776   0.914  0.1107 -0.6416 -0.7907
10476SOL    HW133196   1.538   9.851   0.956  1.6526 -0.7750 -1.9510
10476SOL    HW233197   1.411   9.768   0.956  1.3147 -0.4724  1.8973
10477SOL     OW33198   9.827   0.826   7.759 -0.2239 -0.3750  0.5996
10477SOL    HW133199   9.769   0.896   7.730  2.2675  1.4066 -0.4553
10477SOL    HW233200   9.897   0.871   7.805 -1.0693 -2.6757  4.5771
10478SOL     OW33201   2.627   2.221   3.145  0.4920 -0.4271  0.2165
10478SOL    HW133202   2.718   2.195   3.137  0.1036 -1.4321 -1.4130
10478SOL    HW233203   2.589   2.156   3.205  1.0051  0.5175  1.6107
10479SOL     OW33204   2.605   7.455   4.570 -0.7720 -0.3898  0.4787
10479SOL    HW133205   2.684   7.438   4.519 -1.0749 -1.0366  0.2153
10479SOL    HW233206   2.616   7.402   4.649 -1.2609 -1.0589  0.1126
10480SOL     OW33207   6.692   4.250   9.038  0.1930  0.1981 -0.5407
10480SOL    HW133208   6.689   4.321   9.102 -0.5733  1.1388 -1.5571
10480SOL    HW233209   6.766   4.271   8.982  0.7377 -0.5097 -0.1007
10481SOL     OW33210   0.877   4.038   1.928  0.1911  0.7858  0.3914
10481SOL    HW133211   0.822   4.017   1.852  0.0644 -1.3393  0.9935
10481SOL    HW233212   0.962   3.998   1.907  0.2577  0.4769  1.2072
10482SOL     OW33213   1.270   1.143   0.859 -0.1372 -0.4081 -0.5291
10482SOL    HW133214   1.227   1.219   0.818 -0.4521 -0.9370 -1.2017
10482SOL    HW233215   1.353   1.177   0.892 -1.5941  0.9741  2.0280
10483SOL     OW33216   5.681   1.799   5.412 -0.3802  0.0838  0.0324
10483SOL    HW133217   5.595   1.815   5.450 -1.0528  0.5618 -1.5942
10483SOL    HW233218   5.707   1.883   5.375 -0.0383 -0.4678 -1.0343
10484SOL     OW33219   8.544   5.898   3.180  0.4820  0.4602  0.5188
10484SOL    HW133220   8.631   5.913   3.218 -0.0268  0.3311  1.7825
10484SOL    HW233221   8.498   5.846   3.246 -0.0682 -0.7656 -0.7936
10485SOL     OW33222   4.907   4.785   8.302  0.2062 -0.0631 -0.1535
10485SOL    HW133223   4.968   4.839   8.251 -0.4277 -0.0632 -0.9207
10485SOL    HW233224   4.820   4.816   8.277 -0.1387 -0.7369  0.1834
10486SOL     OW33225   7.211   2.877   2.404 -0.3196  0.2164  0.0794
10486SOL    HW133226   7.120   2.861   2.430  0.1475 -0.7116  1.2430
10486SOL    HW233227   7.207   2.888   2.309 -1.8764  2.0298  0.2995
10487SOL     OW33228   1.233   1.536   0.953  0.1931  0.3392  0.4751
10487SOL    HW133229   1.328   1.543   0.952  0.2639 -0.1118 -1.7686
10487SOL    HW233230   1.212   1.480   0.878 -1.8734  0.8667  0.5840
10488SOL     OW33231   9.240   3.395   0.764  0.0409  0.4595  0.7883
10488SOL    HW133232   9.231   3.333   0.837  0.5967  0.2935  0.7156
10488SOL    HW233233   9.322   3.371   0.721  0.3337  1.3300  0.8417
10489SOL     OW33234   1.871   5.506   2.589  0.5077 -0.6804 -0.2124
10489SOL    HW133235   1.967   5.511   2.589  0.5156 -0.8226 -0.1827
10489SOL    HW233236   1.850   5.460   2.670  0.4077 -0.5380 -0.1577
10490SOL     OW33237   4.306   0.020   1.321  0.1966  0.1418 -0.1616
10490SOL    HW133238   4.217   0.019   1.355 -0.7131  1.8626 -2.2302
10490SOL    HW233239   4.312  -0.058   1.266  0.3281 -0.5087  0.7602
10491SOL     OW33240   9.712   7.962   3.811  0.7051  0.4921  0.0319
10491SOL    HW133241   9.624   7.931   3.792  1.4099 -2.6954  1.4587
10491SOL    HW233242   9.704   8.009   3.894  0.6919 -2.1030  1.5748
10492SOL     OW33243   4.880   6.546   3.470  0.0080 -0.2820  0.2937
10492SOL    HW133244   4.937   6.614   3.436 -0.8412  0.9775  1.2760
10492SOL    HW233245   4.877   6.479   3.401  1.9014  0.0310 -0.1416
10493SOL     OW33246   4.664   4.866   3.011  0.0698 -0.0634  0.5556
10493SOL    HW133247   4.682   4.885   3.103  1.3527 -2.3997  0.8835
10493SOL    HW233248   4.612   4.785   3.013  0.1652 -0.1815 -0.7735
10494SOL     OW33249   4.635   5.609   3.717 -0.0005  0.1131 -0.3350
10494SOL    HW133250   4.581   5.664   3.774  1.0937  1.6526 -0.7095
10494SOL    HW233251   4.724   5.645   3.726  0.3828 -0.2325 -2.2411
10495SOL     OW33252   7.481   3.313   6.909  0.0325  0.3401 -0.4589
10495SOL    HW133253   7.560   3.324   6.856  1.1095  0.3782  1.0611
10495SOL    HW233254   7.493   3.228   6.952 -0.9989  0.1232 -0.5802
10496SOL     OW33255   2.640   7.874   0.462  0.2596  0.1888 -0.1538
10496SOL    HW133256   2.606   7.950   0.415  0.0276 -0.7025 -1.4677
10496SOL    HW233257   2.603   7.799   0.416  1.1216 -0.7344  0.6295
10497SOL     OW33258   4.696   2.813   2.318 -0.0971  0.5629 -0.2728
10497SOL    HW133259   4.746   2.870   2.377  0.8359  0.8238 -1.2999
10497SOL    HW233260   4.640   2.873   2.268  0.5954  0.5495 -1.0744
10498SOL     OW33261   3.608   6.910   3.450 -0.1725  0.1561 -0.9140
10498SOL    HW133262   3.631   6.957   3.530  0.5917  0.6198 -1.3965
10498SOL    HW233263   3.593   6.979   3.385 -1.0789 -0.2051 -1.1011
10499SOL     OW33264   9.100   5.597   6.315  0.7403 -0.4483  0.5521
10499SOL    HW133265   9.059   5.630   6.234  2.8919 -1.2980 -0.9861
10499SOL    HW233266   9.074   5.659   6.382 -1.1237  0.3141 -0.7936
10500SOL     OW33267   6.958   1.307   9.066 -0.0127  0.0805 -0.1225
10500SOL    HW133268   6.920   1.390   9.039  0.7503  0.2563 -0.7103
10500SOL    HW233269   7.033   1.332   9.121 -0.5913 -0.2518  0.8482
10501SOL     OW33270   7.627   5.491   1.533 -0.3206 -0.2096 -0.2621
10501SOL    HW133271   7.713   5.531   1.522  0.3838 -1.8381 -1.1158
10501SOL    HW233272   7.596   5.475   1.444 -2.2968  1.8150 -0.0332
10502SOL     OW33273   2.419   4.450   8.724  0.5753 -0.0375 -0.2675
10502SOL    HW133274   2.407   4.545   8.724 -1.7579 -0.2476  0.5683
10502SOL    HW233275   2.415   4.425   8.632  0.7152  0.6406 -0.4573
10503SOL     OW33276   0.008   3.684   5.514 -0.3338 -0.5078  0.4935
10503SOL    HW133277   0.060   3.764   5.512 -0.4373 -0.4475  0.0294
10503SOL    HW233278   0.073   3.613   5.507 -0.0395 -0.5779  3.1087
10504SOL     OW33279   4.149   3.825   2.241  0.9477 -0.1456  0.8285
10504SOL    HW133280   4.151   3.825   2.337  0.0739 -2.2102  0.8963
10504SOL    HW233281   4.237   3.799   2.215  1.2272  0.5528  1.0392
10505SOL     OW33282   7.901   8.582   8.355 -0.0315 -0.0702 -0.0901
10505SOL    HW133283   7.996   8.584   8.366  0.2336 -2.4685 -1.1742
10505SOL    HW233284   7.883   8.644   8.284  0.7309  0.3768  0.1045
10506SOL     OW33285   5.124   8.382   0.122 -0.5905 -0.6990 -0.1007
10506SOL    HW133286   5.180   8.442   0.072  0.2464  0.8906  2.4855
10506SOL    HW233287   5.179   8.305   0.137 -0.4680 -0.7391 -0.7516
10507SOL     OW33288   8.962   6.406   4.247 -0.8150 -0.0766  0.6191
10507SOL    HW133289   9.058   6.404   4.250 -0.8541 -1.7252  2.8949
10507SOL    HW233290   8.942   6.460   4.170  1.9169  0.0420 -0.1151
10508SOL     OW33291   6.756   4.599   5.238  0.4155  0.5037 -0.2298
10508SOL    HW133292   6.811   4.581   5.161  0.3894  0.6203 -0.2755
10508SOL    HW233293   6.696   4.524   5.241  3.0630 -1.7663  2.1115
10509SOL     OW33294   1.689   7.194   8.112  0.0151  0.1162  0.3070
10509SOL    HW133295   1.776   7.228   8.090  0.3175  0.0781  1.3535
10509SOL    HW233296   1.654   7.160   8.030  1.2152 -0.3495 -0.0335
10510SOL     OW33297   2.366   4.105   8.954  0.2102  0.4330 -0.3664
10510SOL    HW133298   2.328   4.021   8.928  0.3015 -0.1246  1.1982
10510SOL    HW233299   2.311   4.171   8.911 -2.4213 -0.3311  1.5793
10511SOL     OW33300   7.760   1.163   4.694  0.1303  0.1716  0.1374
10511SOL    HW133301   7.705   1.086   4.711 -2.5183  1.6348 -1.0603
10511SOL    HW233302   7.820   1.135   4.624 -0.6917 -0.8694 -0.1818
10512SOL     OW33303   5.327   4.973   4.864 -0.1804  0.3078  0.0603
10512SOL    HW133304   5.409   5.010   4.831  0.8928 -2.0004 -0.0227
10512SOL    HW233305   5.342   4.958   4.957 -1.0590  1.2119  0.3661
10513SOL     OW33306   7.435   6.211   6.834 -0.2947 -0.2228  0.4533
10513SOL    HW133307   7.522   6.208   6.794 -0.2987 -1.0460  0.4845
10513SOL    HW233308   7.450   6.248   6.921 -0.0652  0.1773  0.2445
10514SOL     OW33309   6.666   6.413   0.311  0.6026 -0.4849 -0.3829
10514SOL    HW133310   6.730   6.454   0.370  1.7503 -2.6505  0.0187
10514SOL    HW233311   6.710   6.410   0.226 -0.4822  1.3364 -1.0462
10515SOL     OW33312   6.393   3.122   8.753  0.0854 -0.4686 -0.0129
10515SOL    HW133313   6.383   3.217   8.764  1.2645 -0.0549 -2.0807
10515SOL    HW233314   6.454   3.097   8.822 -0.3433  0.2499  0.6464
10516SOL     OW33315   0.409   0.602   2.088  0.0774  0.4609 -0.0151
10516SOL    HW133316   0.429   0.550   2.010  0.5339 -1.5725  1.3694
10516SOL    HW233317   0.463   0.680   2.080  1.6134 -0.6268 -0.8084
10517SOL     OW33318   9.817   2.857   2.822  0.0994 -0.6410  0.1754
10517SOL    HW133319   9.776   2.817   2.745 -0.8385  1.8554 -0.7288
10517SOL    HW233320   9.910   2.854   2.803  0.0255 -1.7616 -0.1443
10518SOL     OW33321   5.876   1.200   4.086 -0.3041 -0.4646 -0.0636
10518SOL    HW133322   5.909   1.269   4.028 -1.1289 -1.0434 -1.2717
10518SOL    HW233323   5.947   1.185   4.148 -0.3031  1.8433  0.6024
10519SOL     OW33324   2.077   5.778   9.110 -0.3118  0.1027 -0.0937
10519SOL    HW133325   2.092   5.683   9.115 -2.9084 -0.3349  1.1054
10519SOL    HW233326   2.130   5.814   9.181 -0.4849 -0.6446  0.4332
10520SOL     OW33327   2.603   5.681   8.041  0.0590  0.1943  0.3690
10520SOL    HW133328   2.656   5.673   7.962  1.1066 -0.5263  1.1196
10520SOL    HW233329   2.577   5.773   8.043  1.1571  0.5369 -0.1087
10521SOL     OW33330   4.207   3.972   4.870 -0.5607 -0.5211 -0.0732
10521SOL    HW133331   4.196   3.900   4.808 -0.1798 -0.9299  0.3208
10521SOL    HW233332   4.122   3.980   4.912 -0.4110 -1.2399  0.3978
10522SOL     OW33333   8.700   6.272   3.525 -0.4681  0.2828 -0.0202
10522SOL    HW133334   8.693   6.260   3.619 -0.8907  2.6950  0.3015
10522SOL    HW233335   8.610   6.287   3.496 -0.2479  0.3021 -0.7072
10523SOL     OW33336   8.363   4.786   2.921  0.0697 -0.5561 -0.6035
10523SOL    HW133337   8.372   4.861   2.981 -0.4417 -0.2509 -0.8990
10523SOL    HW233338   8.452   4.769   2.890 -0.0420  1.3155 -2.1740
10524SOL     OW33339   7.456   4.482   7.311 -0.7656 -0.4726 -0.1091
10524SOL    HW133340   7.505   4.562   7.331  1.4156 -1.1402 -2.2328
10524SOL    HW233341   7.419   4.498   7.224 -0.8327 -1.5270 -0.2908
10525SOL     OW33342   9.666   9.727   3.315 -0.1069  0.4785  0.5408
10525SOL    HW133343   9.595   9.740   3.252  0.1618 -0.0683  0.1187
10525SOL    HW233344   9.745   9.749   3.266  0.0695  0.4961  0.8317
10526SOL     OW33345   2.288   8.840   5.745 -0.3411  0.7002 -0.5954
10526SOL    HW133346   2.320   8.926   5.773  2.6533 -0.3137 -0.5621
10526SOL    HW233347   2.264   8.796   5.826 -0.3279  0.9084 -0.4767
10527SOL     OW33348   2.647   6.523   7.006  0.7083  0.2745  0.2450
10527SOL    HW133349   2.599   6.504   7.087  0.6946  1.6039  0.5615
10527SOL    HW233350   2.666   6.436   6.969  0.9735 -0.3561  1.8114
10528SOL     OW33351   7.022   4.844   3.042  0.2801  0.5164 -0.2241
10528SOL    HW133352   7.064   4.789   2.976 -0.4155 -0.4122  0.0813
10528SOL    HW233353   7.061   4.816   3.125 -0.9739 -0.4541  0.0792
10529SOL     OW33354   0.334   4.911   0.231 -0.1548  0.1131 -0.0577
10529SOL    HW133355   0.267   4.911   0.299  2.1192  0.4840  2.3311
10529SOL    HW233356   0.379   4.995   0.241  0.5783 -0.0229 -1.7389
10530SOL     OW33357   6.294   2.313   3.239 -0.3487  0.3691  0.3531
10530SOL    HW133358   6.320   2.237   3.291  1.2544  0.1222 -0.7341
10530SOL    HW233359   6.204   2.330   3.265 -0.5607 -1.5505  1.0449
10531SOL     OW33360   5.306   9.749   4.142  0.5132 -0.1011  0.3701
10531SOL    HW133361   5.247   9.752   4.066 -0.2388  0.6805  0.9633
10531SOL    HW233362   5.354   9.667   4.132  0.1009 -0.2288 -0.7113
10532SOL     OW33363   8.687   7.966   8.304 -0.0043  0.5820  0.1032
10532SOL    HW133364   8.760   8.014   8.263  0.4958 -1.3387 -1.4473
10532SOL    HW233365   8.624   7.953   8.233 -0.3235 -0.6165  0.5735
10533SOL     OW33366   5.127   5.455   0.825 -0.2199 -0.7659  0.8848
10533SOL    HW133367   5.093   5.375   0.785  0.3539 -0.4485 -0.2717
10533SOL    HW233368   5.146   5.513   0.751  1.1255 -0.2582  1.5917
10534SOL     OW33369   5.626   6.921   1.813  0.3037 -0.3645 -0.2849
10534SOL    HW133370   5.685   6.866   1.762  0.0496 -0.9028 -0.0086
10534SOL    HW233371   5.543   6.874   1.813  0.2119 -0.2176  0.3555
10535SOL     OW33372   1.350   8.117   9.067 -0.2591 -0.4641 -0.1677
10535SOL    HW133373   1.305   8.033   9.076 -0.2428 -0.7160 -2.0729
10535SOL    HW233374   1.427   8.097   9.014 -0.2836  0.7633 -0.6873
10536SOL     OW33375   1.899   2.891   1.374  0.1800 -0.0430  0.0658
10536SOL    HW133376   1.832   2.959   1.385  0.2516  0.0575 -0.1218
10536SOL    HW233377   1.950   2.920   1.298 -0.2133 -0.6587 -0.4379
10537SOL     OW33378   2.852   9.797   2.562 -0.3543  0.0304  0.3516
10537SOL    HW133379   2.788   9.801   2.491  0.9582 -1.4000 -0.9817
10537SOL    HW233380   2.869   9.704   2.574  0.9773  0.3500  1.1441
10538SOL     OW33381   8.419   0.519   4.515  0.6682  0.7351  0.3674
10538SOL    HW133382   8.506   0.554   4.531  1.1280 -0.9766  2.0204
10538SOL    HW233383   8.397   0.548   4.426  3.1474  0.7694 -0.3026
10539SOL     OW33384   1.719   4.318   3.512  0.1418  0.2958  0.5915
10539SOL    HW133385   1.770   4.238   3.501  1.8686  1.6560 -2.2073
10539SOL    HW233386   1.632   4.296   3.480 -0.3924 -1.2628  2.8453
10540SOL     OW33387   3.502   2.890   3.567 -0.0886 -0.2255  0.2226
10540SOL    HW133388   3.553   2.814   3.538 -0.2214 -0.3863  0.4108
10540SOL    HW233389   3.569   2.955   3.590  0.0435 -0.5854  0.8727
10541SOL     OW33390   1.893   2.733   2.069  0.1383  0.0955 -0.0239
10541SOL    HW133391   1.982   2.727   2.104  0.6466  0.3289 -1.2434
10541SOL    HW233392   1.837   2.706   2.142  1.2980 -2.0270  0.1624
10542SOL     OW33393   2.267   1.589   5.766  0.8119 -0.3437 -0.0830
10542SOL    HW133394   2.212   1.530   5.817  0.3848 -0.6827 -0.9071
10542SOL    HW233395   2.272   1.669   5.818 -0.1405 -0.4543  0.1969
10543SOL     OW33396   9.053   4.463   8.714  0.3440  0.0865  0.3343
10543SOL    HW133397   9.126   4.401   8.704 -1.2073 -2.2920  2.4083
10543SOL    HW233398   9.038   4.497   8.626  1.7157 -2.0257 -0.8190
10544SOL     OW33399   6.920   7.317   1.655  0.2235  0.2125 -0.1425
10544SOL    HW133400   6.831   7.345   1.675 -0.2719 -1.6263  0.4671
10544SOL    HW233401   6.955   7.289   1.740  0.5754 -1.1346 -0.7023
10545SOL     OW33402   4.168   6.699   1.670 -0.6473  0.1803 -0.0613
10545SOL    HW133403   4.139   6.662   1.753  0.8933  1.2598  1.0083
10545SOL    HW233404   4.217   6.628   1.628  1.0580  0.4619  1.3253
10546SOL     OW33405   5.475   9.531   0.512 -0.2400  0.3309  0.2519
10546SOL    HW133406   5.406   9.575   0.560 -0.5111 -1.2389  1.3767
10546SOL    HW233407   5.443   9.527   0.421 -1.7595 -0.5441  0.7879
10547SOL     OW33408   4.373   6.163   6.701  0.2518 -0.8560  0.3712
10547SOL    HW133409   4.278   6.171   6.694  0.3332  0.1851  0.4026
10547SOL    HW233410   4.397   6.223   6.772  1.0023 -0.6268 -0.0731
10548SOL     OW33411   9.125   9.410   8.765  0.8844  0.0957  0.2356
10548SOL    HW133412   9.140   9.480   8.829  1.6789  0.9275 -0.8339
10548SOL    HW233413   9.170   9.439   8.686 -1.1361 -0.3000 -1.1380
10549SOL     OW33414   3.232   2.692   7.560 -0.3992 -0.2006 -0.5276
10549SOL    HW133415   3.313   2.641   7.563 -1.0828 -1.3190 -0.4369
10549SOL    HW233416   3.251   2.765   7.501  0.6106 -0.5516 -0.6482
10550SOL     OW33417   3.136   8.207   5.024  0.1123 -0.1377  0.3965
10550SOL    HW133418   3.144   8.180   5.115  0.8931 -0.3528  0.2633
10550SOL    HW233419   3.215   8.175   4.981 -0.3923 -0.3230 -0.4342
10551SOL     OW33420   2.016   6.018   6.849 -0.3019  0.0467  0.1048
10551SOL    HW133421   2.069   6.067   6.912 -2.3479  1.7492  0.6106
10551SOL    HW233422   2.063   5.936   6.837  0.5333 -0.0821  3.3481
10552SOL     OW33423   4.854   7.770   8.415  0.2900  0.0578 -0.4900
10552SOL    HW133424   4.770   7.814   8.430 -0.0980 -0.4916 -0.9942
10552SOL    HW233425   4.868   7.717   8.493 -0.4272 -0.7710 -0.9114
10553SOL     OW33426   2.254   0.894   6.773 -0.2609 -0.2126 -0.2525
10553SOL    HW133427   2.267   0.898   6.678  0.3170 -0.5037 -0.1926
10553SOL    HW233428   2.246   0.801   6.793 -0.6254 -0.1388 -0.0436
10554SOL     OW33429   4.920   9.315   6.051 -0.1925 -0.1934 -0.1561
10554SOL    HW133430   4.895   9.266   6.130  0.1991  1.5712  1.1231
10554SOL    HW233431   5.002   9.274   6.023  0.7065  0.3120  1.5216
10555SOL     OW33432   9.327   7.404   3.083 -0.2802 -0.0183 -0.2020
10555SOL    HW133433   9.300   7.494   3.062  1.1628  0.0305 -2.0329
10555SOL    HW233434   9.251   7.367   3.129 -1.0220  2.0285  0.3542
10556SOL     OW33435   1.728   5.465   2.317 -1.1380 -0.0821 -0.3809
10556SOL    HW133436   1.761   5.521   2.387 -1.1367 -1.9170  1.1916
10556SOL    HW233437   1.805   5.421   2.282 -1.4200 -1.7220  0.8858
10557SOL     OW33438   5.570   6.643   3.246 -0.0884  0.2316  0.2630
10557SOL    HW133439   5.595   6.638   3.339  1.3841  3.0755  0.1287
10557SOL    HW233440   5.484   6.600   3.242 -0.2133  0.0613  2.9253
10558SOL     OW33441   4.117   0.607   5.928  0.1272 -0.0670 -0.8732
10558SOL    HW133442   4.178   0.670   5.889 -0.4007 -0.0431 -1.6814
10558SOL    HW233443   4.118   0.532   5.869  0.2787 -0.5728 -0.2465
10559SOL     OW33444   6.976   6.767   9.438  0.2452 -0.4728 -0.4914
10559SOL    HW133445   6.980   6.673   9.455  0.4273 -0.7145 -1.7355
10559SOL    HW233446   7.068   6.796   9.442  0.0984 -0.1424  0.8651
10560SOL     OW33447   6.950   4.502   5.999 -0.2916  0.0565  0.4773
10560SOL    HW133448   6.910   4.588   6.013 -1.0112 -0.2992  0.6873
10560SOL    HW233449   6.879   4.440   6.018 -1.3266 -0.5553 -4.0951
10561SOL     OW33450   0.650   0.268   4.398 -0.1876  0.1434 -0.5707
10561SOL    HW133451   0.716   0.314   4.346 -0.3994 -1.5788 -2.5091
10561SOL    HW233452   0.696   0.243   4.478  1.1950 -0.0040 -1.3694
10562SOL     OW33453   9.548   9.314   5.484 -0.3472  0.2794 -0.0088
10562SOL    HW133454   9.554   9.264   5.402 -1.2626 -1.1269  0.7446
10562SOL    HW233455   9.602   9.391   5.469 -1.4106  0.6652 -2.3862
10563SOL     OW33456   8.344   9.820   8.031  0.5684  0.6400  0.1050
10563SOL    HW133457   8.379   9.740   8.069  1.1026  0.5569 -0.5455
10563SOL    HW233458   8.392   9.831   7.949 -0.7544  0.6390 -0.7153
10564SOL     OW33459   6.418   6.989   4.428  0.0556  0.2130  0.2167
10564SOL    HW133460   6.370   7.060   4.472  0.4573  0.3101  0.5081
10564SOL    HW233461   6.351   6.926   4.404 -0.2236  0.3519  0.6127
10565SOL     OW33462   3.639   4.582   0.066  0.1238  0.1049 -0.5765
10565SOL    HW133463   3.639   4.603  -0.028  1.0001 -0.1990 -0.6540
10565SOL    HW233464   3.725   4.611   0.097 -0.3738  0.7233  0.2657
10566SOL     OW33465   3.124   8.542   4.136  0.0658  0.3628  0.2245
10566SOL    HW133466   3.049   8.488   4.113  0.7547 -1.2497  1.5452
10566SOL    HW233467   3.102   8.580   4.220  0.4247  0.4568  0.2801
10567SOL     OW33468   7.176   1.569   1.966  0.4453  0.5380 -0.1952
10567SOL    HW133469   7.195   1.478   1.991 -1.0470 -0.4925 -2.4662
10567SOL    HW233470   7.083   1.569   1.944 -0.1046  3.1535  1.6568
10568SOL     OW33471   0.616   4.210   7.174 -0.3530  0.5771  0.3280
10568SOL    HW133472   0.617   4.122   7.137 -1.8935  0.8410 -0.4238
10568SOL    HW233473   0.657   4.200   7.260 -1.3690 -1.0910  0.6703
10569SOL     OW33474   8.071   4.066   5.349 -0.8067 -0.7172 -0.1156
10569SOL    HW133475   8.117   4.114   5.418  1.7105 -2.5075 -0.3836
10569SOL    HW233476   8.014   4.005   5.395 -0.7827 -0.3951  0.3386
10570SOL     OW33477   9.264   9.780   8.346  0.2877 -0.1632 -0.3895
10570SOL    HW133478   9.196   9.733   8.299 -0.7080  1.5381 -0.7540
10570SOL    HW233479   9.310   9.831   8.279  0.9748 -0.1922  0.0483
10571SOL     OW33480   8.328   0.920   9.343  0.8584  0.3488 -0.0744
10571SOL    HW133481   8.329   0.825   9.351 -0.6123  0.4694  2.4350
10571SOL    HW233482   8.285   0.936   9.259  0.7676 -1.1788 -0.3481
10572SOL     OW33483   7.263   1.995   8.783  0.2597 -0.5774 -0.2078
10572SOL    HW133484   7.239   1.958   8.868 -2.8417  1.8713  0.1658
10572SOL    HW233485   7.272   1.919   8.726 -0.6015 -2.1414  1.6190
10573SOL     OW33486   9.834   4.638   4.176 -0.0377  0.0336  0.3432
10573SOL    HW133487   9.826   4.625   4.270  1.2932  0.7004  0.5681
10573SOL    HW233488   9.890   4.715   4.166 -2.1870  1.5178 -1.0003
10574SOL     OW33489   9.201   1.046   1.102 -0.2973  0.1103 -0.0716
10574SOL    HW133490   9.116   1.003   1.112 -0.0526 -0.1661  0.8937
10574SOL    HW233491   9.253   0.985   1.049  0.3347 -1.2560  1.9992
10575SOL     OW33492   9.700   5.439   8.359 -0.1528 -0.5469 -0.2556
10575SOL    HW133493   9.678   5.522   8.316 -0.7771 -0.6331 -0.1082
10575SOL    HW233494   9.747   5.465   8.439  1.1866 -0.3915 -1.0718
10576SOL     OW33495   1.690   5.931   2.282  0.2309  0.1999 -0.1330
10576SOL    HW133496   1.595   5.924   2.282  0.2205  0.2312 -0.9472
10576SOL    HW233497   1.717   5.897   2.367 -0.5500  0.8539  0.3836
10577SOL     OW33498   1.552   1.549   4.107  0.3125  0.5926  0.0863
10577SOL    HW133499   1.518   1.462   4.087  1.2223  0.7606 -2.4991
10577SOL    HW233500   1.645   1.544   4.086  0.5140  2.0230  0.5241
10578SOL     OW33501   0.154   4.275   5.682  0.1540 -0.1338  0.2447
10578SOL    HW133502   0.177   4.269   5.590 -0.5764  0.3750  0.0171
10578SOL    HW233503   0.114   4.191   5.703  0.6903 -0.3998  0.2079
10579SOL     OW33504   8.717   0.950   8.098 -0.1738  0.1146  0.4910
10579SOL    HW133505   8.751   0.908   8.177  4.6933 -1.6770 -2.1024
10579SOL    HW233506   8.767   1.030   8.089 -1.4898  0.8953 -0.2538
10580SOL     OW33507   7.693   2.428   1.913 -0.0223  0.4218 -0.6090
10580SOL    HW133508   7.783   2.434   1.881  0.5991  0.4214  1.0136
10580SOL    HW233509   7.673   2.517   1.942 -0.0240  0.1326  0.3098
10581SOL     OW33510   1.962   2.694   6.222 -0.1119 -0.6757 -0.4650
10581SOL    HW133511   1.940   2.625   6.160 -1.6315 -0.1810 -0.5185
10581SOL    HW233512   1.879   2.718   6.263  0.4957  0.5761  0.1169
10582SOL     OW33513   9.476   3.261   4.119  0.2919 -0.7742 -0.3735
10582SOL    HW133514   9.386   3.293   4.113  0.3554 -0.6477 -0.7129
10582SOL    HW233515   9.499   3.271   4.211 -0.0266 -0.7626 -0.2945
10583SOL     OW33516   9.814   1.588   1.044  0.2874  0.2758 -0.2384
10583SOL    HW133517   9.890   1.550   0.999  0.2940 -1.0563  0.8001
10583SOL    HW233518   9.850   1.620   1.128 -0.2474 -0.1971  0.1796
10584SOL     OW33519   8.633   0.033   0.591 -0.7038 -0.0893 -0.8358
10584SOL    HW133520   8.570  -0.022   0.638 -1.8452 -0.7714 -3.0215
10584SOL    HW233521   8.691  -0.028   0.546  0.6164  0.5385 -0.0410
10585SOL     OW33522   6.064   9.700   2.104 -0.3554  0.0461  0.1889
10585SOL    HW133523   6.040   9.627   2.047 -1.2621  2.8678 -3.4139
10585SOL    HW233524   5.983   9.724   2.148  0.1061 -1.4421  1.9787
10586SOL     OW33525   3.973   8.128   9.316 -0.3549  0.2069  0.0673
10586SOL    HW133526   3.937   8.058   9.370 -0.9500  0.6336  0.2374
10586SOL    HW233527   3.987   8.088   9.230 -0.7073 -0.1196  0.1587
10587SOL     OW33528   7.594   3.235   8.759 -0.0281 -0.5939 -0.3692
10587SOL    HW133529   7.571   3.144   8.740  0.2927 -0.9745  0.9822
10587SOL    HW233530   7.522   3.286   8.722 -0.7328 -1.4661 -0.2230
10588SOL     OW33531   0.879   3.631   7.610 -0.5534 -0.0118  0.4379
10588SOL    HW133532   0.914   3.718   7.624  0.2282 -0.0532 -1.0302
10588SOL    HW233533   0.944   3.588   7.553 -1.8673 -0.8846 -0.4445
10589SOL     OW33534   3.162   6.739   0.661 -0.1093 -0.2818 -0.5270
10589SOL    HW133535   3.067   6.753   0.650  0.1856  0.9024 -2.0071
10589SOL    HW233536   3.184   6.675   0.594  0.0642 -0.9595  0.1719
10590SOL     OW33537   4.437   5.523   6.066 -0.2121 -1.0687  0.1422
10590SOL    HW133538   4.379   5.598   6.082  1.2701  0.2626 -0.3918
10590SOL    HW233539   4.466   5.497   6.153  1.8788  1.2222  0.2423
10591SOL     OW33540   1.715   8.666   7.720 -0.0046  0.1120  0.0210
10591SOL    HW133541   1.785   8.692   7.779  0.1536 -0.7602  0.2435
10591SOL    HW233542   1.731   8.715   7.640  1.0803 -0.3447 -0.0545
10592SOL     OW33543   9.017   4.195   5.597 -0.3362  0.1939 -0.3088
10592SOL    HW133544   9.069   4.253   5.542  0.8080 -0.5825 -0.0835
10592SOL    HW233545   8.964   4.145   5.536 -0.8052  0.9687 -0.5447
10593SOL     OW33546   9.745   8.768   3.767 -0.1678  0.4714  0.0788
10593SOL    HW133547   9.836   8.780   3.742 -0.0155  0.7830  0.7558
10593SOL    HW233548   9.711   8.704   3.705  0.3144  0.8795 -0.6141
10594SOL     OW33549   2.011   7.456   0.957 -0.3047  0.4071  0.3232
10594SOL    HW133550   1.977   7.541   0.930  2.0176  1.2960 -0.0491
10594SOL    HW233551   2.091   7.476   1.005  0.4624 -1.5614 -0.0261
10595SOL     OW33552   4.414   6.112   7.805  0.0086  0.1215  0.0172
10595SOL    HW133553   4.473   6.151   7.870  0.5941 -0.2313 -0.2888
10595SOL    HW233554   4.472   6.087   7.733 -0.2794 -1.6779  0.3682
10596SOL     OW33555   4.490   5.754   0.204  0.1536 -0.0040 -0.2352
10596SOL    HW133556   4.581   5.727   0.189  0.3445  0.5738 -0.1453
10596SOL    HW233557   4.462   5.791   0.120  0.3557  0.7960  0.0407
10597SOL     OW33558   9.666   4.232   9.189  0.0130  0.2505  0.6015
10597SOL    HW133559   9.715   4.237   9.106  1.2051  1.0511  1.3294
10597SOL    HW233560   9.699   4.152   9.231 -0.2352  0.1076  0.5251
10598SOL     OW33561   5.717   3.372   3.403 -0.3042  0.2969  0.1808
10598SOL    HW133562   5.632   3.373   3.448 -0.2523  0.1559  0.2834
10598SOL    HW233563   5.713   3.446   3.342 -0.6681  0.0438 -0.1148
10599SOL     OW33564   4.118   8.935   6.703 -0.0691 -0.2110  0.6361
10599SOL    HW133565   4.123   8.853   6.653 -0.6886 -0.0373  0.2800
10599SOL    HW233566   4.183   8.924   6.772  0.1463 -0.8382  0.3493
10600SOL     OW33567   7.539   5.455   7.842  0.0849  0.1461  0.2732
10600SOL    HW133568   7.449   5.462   7.810  0.3696  2.7092 -0.2130
10600SOL    HW233569   7.531   5.438   7.936 -0.8565 -0.5731  0.0791
10601SOL     OW33570   0.015   2.195   4.642 -0.1575  0.7810 -0.4407
10601SOL    HW133571   0.068   2.206   4.562 -1.9598 -0.2081 -1.8452
10601SOL    HW233572  -0.075   2.212   4.613 -1.0068 -0.8909  1.0710
10602SOL     OW33573   8.124   0.432   1.938  0.8385  0.3026  0.0782
10602SOL    HW133574   8.209   0.469   1.960  0.5592  0.7136  0.4782
10602SOL    HW233575   8.074   0.506   1.904 -0.2968  0.7087  2.4327
10603SOL     OW33576   1.443   8.073   0.445  0.5917  0.8385 -0.1999
10603SOL    HW133577   1.437   8.161   0.483  0.8616  0.9837 -0.4839
10603SOL    HW233578   1.484   8.087   0.359  0.3102  0.4735 -0.3933
10604SOL     OW33579   9.414   4.419   8.692 -0.0484 -0.1739  0.3736
10604SOL    HW133580   9.435   4.374   8.774 -0.9492 -0.5956  0.3863
10604SOL    HW233581   9.350   4.362   8.649 -0.7952  0.8181  0.1259
10605SOL     OW33582   4.217   1.677   6.584  0.6576  0.5536 -0.0900
10605SOL    HW133583   4.253   1.594   6.553  1.3177 -0.2643  2.5487
10605SOL    HW233584   4.224   1.736   6.509  2.5780 -1.0537 -1.2939
10606SOL     OW33585   3.939   8.454   3.127  0.3587 -0.1763  0.4040
10606SOL    HW133586   3.927   8.359   3.124  2.2496 -0.4705  0.6684
10606SOL    HW233587   3.982   8.470   3.211  2.6069  0.5390 -0.7935
10607SOL     OW33588   3.524   9.832   0.774 -0.2263  0.2266  0.3822
10607SOL    HW133589   3.517   9.789   0.689  0.7128 -0.8751  0.8415
10607SOL    HW233590   3.523   9.760   0.838 -0.5226  1.0094  1.2799
10608SOL     OW33591   8.768   6.395   0.706  0.5769 -0.4377  0.1758
10608SOL    HW133592   8.772   6.319   0.764 -0.9215  0.6985  1.8470
10608SOL    HW233593   8.809   6.466   0.755  0.3695  0.2630 -0.6369
10609SOL     OW33594   2.369   6.573   5.237  0.2092  0.7377 -0.1272
10609SOL    HW133595   2.460   6.583   5.207  0.0045 -2.3778 -2.2655
10609SOL    HW233596   2.367   6.488   5.280 -1.8560  0.3797 -0.8397
10610SOL     OW33597   8.295   7.388   0.594  0.2649 -0.2822 -0.0533
10610SOL    HW133598   8.250   7.471   0.610 -0.6754 -0.5910 -0.9875
10610SOL    HW233599   8.228   7.332   0.554  0.9405 -1.4293  0.3797
10611SOL     OW33600   1.869   3.323   3.776 -0.1371 -0.9060 -0.2858
10611SOL    HW133601   1.802   3.297   3.838 -1.6996  0.3678 -1.3329
10611SOL    HW233602   1.836   3.294   3.691  0.0618  0.6905 -0.9567
10612SOL     OW33603   3.063   3.487   8.443 -0.0130  0.4586  0.5266
10612SOL    HW133604   2.970   3.506   8.457 -0.1400  0.4020 -0.2235
10612SOL    HW233605   3.080   3.413   8.501 -0.1623  1.1519  1.4806
10613SOL     OW33606   4.692   8.170   5.567  0.1894  0.0655 -0.5672
10613SOL    HW133607   4.633   8.099   5.591  1.2089 -0.9550 -1.0211
10613SOL    HW233608   4.773   8.152   5.616 -0.0176  1.7360  0.4743
10614SOL     OW33609   8.866   7.119   3.415  0.2603 -0.2690  0.3288
10614SOL    HW133610   8.937   7.115   3.351 -1.4019  0.1534 -1.6321
10614SOL    HW233611   8.787   7.103   3.364 -1.2170  0.7643  2.1732
10615SOL     OW33612   2.506   2.536   7.337 -0.2701 -0.2176  0.6499
10615SOL    HW133613   2.485   2.591   7.412  1.5330  0.4419  0.7103
10615SOL    HW233614   2.423   2.494   7.314 -1.2911  1.1451  1.7159
10616SOL     OW33615   0.876   1.913   3.484 -0.3293  0.0792 -0.2340
10616SOL    HW133616   0.787   1.887   3.460  0.1071 -1.7887 -0.0171
10616SOL    HW233617   0.864   1.979   3.553 -1.5350  0.1849 -0.5185
10617SOL     OW33618   1.966   0.079   7.815 -0.1723  0.1906  0.5508
10617SOL    HW133619   2.020   0.070   7.893 -1.4513  0.9212  1.5464
10617SOL    HW233620   2.000   0.156   7.770  0.2013  0.0912  0.6571
10618SOL     OW33621   5.752   2.336   1.886  0.3386  0.0265  0.5386
10618SOL    HW133622   5.831   2.346   1.940  1.8933 -2.8284 -0.9731
10618SOL    HW233623   5.682   2.318   1.949  1.6290 -0.9717  1.7745
10619SOL     OW33624   2.049   7.759   3.713 -0.5829 -0.4978  0.5039
10619SOL    HW133625   2.004   7.709   3.645 -0.4978 -0.5039  0.4534
10619SOL    HW233626   2.142   7.746   3.696 -0.5375  0.5591 -0.1618
10620SOL     OW33627   2.313   0.622   8.299  0.4871  0.3449  0.0760
10620SOL    HW133628   2.273   0.686   8.359 -1.2574 -0.2164 -0.4344
10620SOL    HW233629   2.278   0.538   8.327 -0.2026  0.0491 -1.5893
10621SOL     OW33630   3.811   9.702   3.062  0.1273  0.2066 -0.0794
10621SOL    HW133631   3.840   9.768   2.999  1.2347  0.7642  0.9807
10621SOL    HW233632   3.885   9.691   3.122 -0.2247 -1.6360  0.0737
10622SOL     OW33633   6.359   9.168   6.546 -0.0326 -0.4615  0.0864
10622SOL    HW133634   6.353   9.076   6.520 -1.4846 -0.4991  0.4507
10622SOL    HW233635   6.269   9.201   6.541  0.3076  0.6811  0.8681
10623SOL     OW33636   9.029   6.628   5.416 -0.0637 -0.3474 -0.2910
10623SOL    HW133637   9.001   6.649   5.327 -2.4556 -0.1412  0.4254
10623SOL    HW233638   9.046   6.713   5.457 -2.5626 -0.1246  0.4537
10624SOL     OW33639   1.639   8.639   2.295  0.0929  0.7505 -0.4105
10624SOL    HW133640   1.700   8.647   2.368  0.5805  0.1258 -0.7469
10624SOL    HW233641   1.652   8.551   2.261 -1.5412  0.3121 -0.0070
10625SOL     OW33642   2.805   9.334   4.004 -0.2141  0.4811  0.1413
10625SOL    HW133643   2.801   9.284   4.086 -0.8763 -0.0986 -0.2315
10625SOL    HW233644   2.750   9.411   4.022 -0.6870  0.1551  0.1161
10626SOL     OW33645   3.029   6.060   5.851  0.6793 -0.5116  0.3552
10626SOL    HW133646   2.965   6.083   5.784  1.6615  0.0587 -0.4132
10626SOL    HW233647   3.022   6.130   5.916  1.1759  0.0657 -0.2026
10627SOL     OW33648   1.098   4.040   4.559  0.8609  0.5224  0.3412
10627SOL    HW133649   1.116   4.106   4.626  0.9585  1.6711 -0.7677
10627SOL    HW233650   1.003   4.030   4.561  0.8604  0.5774  0.6320
10628SOL     OW33651   0.110   6.384   5.916 -0.5677  0.0652  0.1484
10628SOL    HW133652   0.160   6.455   5.956 -0.6852 -0.6669  1.6739
10628SOL    HW233653   0.133   6.388   5.823 -0.6637  2.1410  0.1702
10629SOL     OW33654   6.463   8.494   5.917  0.9490 -0.2712 -0.0716
10629SOL    HW133655   6.409   8.487   5.838  0.6428  1.7889 -0.1010
10629SOL    HW233656   6.402   8.521   5.985  1.2026 -2.0718  0.9496
10630SOL     OW33657   7.453   4.221   3.142  0.3244  0.0306 -0.1777
10630SOL    HW133658   7.510   4.145   3.153 -1.4841 -1.3079  0.5898
10630SOL    HW233659   7.511   4.291   3.112  2.5321 -0.8995  1.6433
10631SOL     OW33660   4.628   8.572   4.279 -0.6182 -0.3834 -0.1864
10631SOL    HW133661   4.696   8.579   4.212 -0.0257 -1.4000  0.2846
10631SOL    HW233662   4.676   8.553   4.360 -1.3342  0.6419  0.5058
10632SOL     OW33663   3.261   1.639   1.252 -0.0638 -0.0305 -0.0416
10632SOL    HW133664   3.228   1.563   1.299  1.7835 -1.6007 -1.1556
10632SOL    HW233665   3.356   1.627   1.250  0.0847  1.0665 -2.2942
10633SOL     OW33666   3.043   1.329   8.962  0.4143 -0.4479 -0.4862
10633SOL    HW133667   3.098   1.302   8.888  1.5655  0.3349  0.0407
10633SOL    HW233668   3.101   1.323   9.038 -1.2404 -2.9005  0.6751
10634SOL     OW33669   0.919   0.454   7.206 -0.6074 -0.4958 -0.6139
10634SOL    HW133670   1.004   0.462   7.163 -0.8942  1.0281 -0.9814
10634SOL    HW233671   0.938   0.464   7.299 -0.2729 -1.1934 -0.6040
10635SOL     OW33672   2.063   1.726   2.724 -0.2870 -0.3694  0.0910
10635SOL    HW133673   2.045   1.727   2.630  1.3216  0.2181 -0.2454
10635SOL    HW233674   2.117   1.648   2.737  0.4637  0.1766  0.3129
10636SOL     OW33675   6.547   4.497   7.982  0.0395 -0.0606  0.3241
10636SOL    HW133676   6.529   4.456   7.898  1.7202 -0.8814  0.3311
10636SOL    HW233677   6.516   4.587   7.972  0.6459 -0.0138 -1.3398
10637SOL     OW33678   0.562   5.716   4.369  0.7811  0.3992 -0.0227
10637SOL    HW133679   0.497   5.696   4.437  0.0756 -1.1560 -1.0999
10637SOL    HW233680   0.514   5.708   4.287  1.7538  1.7278 -0.7512
10638SOL     OW33681   6.186   5.061   4.459 -0.1825  0.5361  0.2762
10638SOL    HW133682   6.170   5.155   4.464  0.9830  0.6721  2.0703
10638SOL    HW233683   6.232   5.040   4.539 -2.3869 -1.9835  1.0304
10639SOL     OW33684   8.484   7.296   2.320  0.2537 -0.1040  0.5757
10639SOL    HW133685   8.555   7.288   2.256 -0.1886  1.3348 -0.1559
10639SOL    HW233686   8.430   7.219   2.305  1.2646 -0.8383  0.6360
10640SOL     OW33687   6.857   3.483   3.386 -0.1111  0.2817 -0.1503
10640SOL    HW133688   6.813   3.432   3.455 -0.2107  1.7400  0.9146
10640SOL    HW233689   6.890   3.560   3.432 -1.0680  1.8039 -1.9322
10641SOL     OW33690   0.058   9.035   0.191  0.2118  0.1022  0.0709
10641SOL    HW133691   0.100   9.119   0.170  1.8363 -0.3241  1.3709
10641SOL    HW233692  -0.035   9.056   0.198  0.4860  1.6397 -0.4263
10642SOL     OW33693   5.770   2.039   1.521 -0.1888 -0.4753 -0.0272
10642SOL    HW133694   5.853   2.066   1.480 -0.3731  0.0281 -0.0752
10642SOL    HW233695   5.736   2.119   1.561 -2.1476  0.1169 -2.5644
10643SOL     OW33696   8.361   5.650   2.514 -0.2033  0.5285  0.1435
10643SOL    HW133697   8.291   5.622   2.455 -1.7733  0.1198  2.0609
10643SOL    HW233698   8.403   5.569   2.542 -0.0451  0.6487  0.2595
10644SOL     OW33699   7.913   5.897   4.201 -0.1310  0.8996 -0.0710
10644SOL    HW133700   8.000   5.927   4.227  0.2464  1.2181 -1.5773
10644SOL    HW233701   7.852   5.953   4.249  0.5185  1.5942 -0.0352
10645SOL     OW33702   6.152   3.112   6.779  0.8382 -0.1556  1.1434
10645SOL    HW133703   6.194   3.146   6.700  1.2670  2.1720  2.2798
10645SOL    HW233704   6.221   3.063   6.823  0.1770 -2.8419 -0.5899
10646SOL     OW33705   9.601   8.085   6.067  0.4641 -0.8992  0.2061
10646SOL    HW133706   9.599   8.150   5.997  2.9723 -1.5020 -0.5366
10646SOL    HW233707   9.517   8.041   6.061 -1.1784  1.9662  0.5108
10647SOL     OW33708   3.253   7.005   7.775 -0.2454 -0.2126  0.1900
10647SOL    HW133709   3.276   6.981   7.685 -0.7585 -0.6032  0.1634
10647SOL    HW233710   3.158   6.996   7.780 -0.0827 -1.8286  1.2328
10648SOL     OW33711   3.689   8.232   7.295  0.2588 -0.2862  0.2468
10648SOL    HW133712   3.739   8.313   7.295  1.8249 -1.2084 -0.7168
10648SOL    HW233713   3.614   8.249   7.238  0.5976  0.4622  0.0189
10649SOL     OW33714   5.867   5.523   8.315 -0.4570 -0.1737  0.3598
10649SOL    HW133715   5.878   5.458   8.385 -2.0299  0.4316  1.2151
10649SOL    HW233716   5.773   5.523   8.297 -0.1336 -0.0955 -1.5835
10650SOL     OW33717   7.737   1.502   5.508  0.4026  0.0687 -0.3026
10650SOL    HW133718   7.716   1.570   5.571 -0.4233 -0.9832  0.6063
10650SOL    HW233719   7.784   1.436   5.559 -1.2928 -1.3379 -0.4628
10651SOL     OW33720   9.554   6.818   2.571  0.0634 -0.0283 -0.3250
10651SOL    HW133721   9.618   6.805   2.502 -0.7679 -1.0055 -0.9459
10651SOL    HW233722   9.495   6.886   2.538  1.0564  1.2516  0.4676
10652SOL     OW33723   0.646   4.315   5.583  0.7291  0.5367  0.4532
10652SOL    HW133724   0.557   4.349   5.592  0.6645  0.5504 -0.2269
10652SOL    HW233725   0.699   4.392   5.559  0.6626  0.2557 -0.6279
10653SOL     OW33726   3.087   9.657   9.441 -0.0364 -0.2333  0.1132
10653SOL    HW133727   3.114   9.581   9.492  1.7134  1.1226  1.3416
10653SOL    HW233728   3.150   9.662   9.370 -0.2654 -0.0408 -0.0784
10654SOL     OW33729   4.378   1.859   4.674  0.4597  0.1614 -0.2964
10654SOL    HW133730   4.427   1.924   4.725  1.1556  0.5319 -1.3992
10654SOL    HW233731   4.309   1.829   4.734  0.4353  1.5409  0.4202
10655SOL     OW33732   8.028   9.846   2.516  0.0654 -0.2199 -0.5315
10655SOL    HW133733   8.004   9.787   2.588 -0.1104  1.4449  0.8275
10655SOL    HW233734   7.959   9.913   2.515  2.1055  2.0411  0.4040
10656SOL     OW33735   6.456   5.243   1.741  0.1283 -0.2279  0.2327
10656SOL    HW133736   6.531   5.219   1.686 -0.6656 -3.4865  0.3538
10656SOL    HW233737   6.389   5.270   1.678  0.5943  0.3377 -0.0384
10657SOL     OW33738   8.482   6.368   4.183 -0.1651 -0.4445  0.3717
10657SOL    HW133739   8.554   6.431   4.184  0.3952 -1.0430 -0.5856
10657SOL    HW233740   8.510   6.298   4.242 -0.7242  0.0996  1.3211
10658SOL     OW33741   6.211   1.452   5.264  0.3411 -0.4480  0.0482
10658SOL    HW133742   6.120   1.435   5.240  0.1242  0.4744  0.1636
10658SOL    HW233743   6.240   1.372   5.308  0.0834 -1.3507 -1.3718
10659SOL     OW33744   3.943   2.644   0.663 -0.0016  0.0437 -0.3068
10659SOL    HW133745   3.885   2.602   0.727  0.0525 -0.3333 -0.5018
10659SOL    HW233746   3.983   2.716   0.711 -2.1545  1.5943 -0.7453
10660SOL     OW33747   1.566   5.517   0.812  0.2663 -0.2778  0.0980
10660SOL    HW133748   1.648   5.481   0.777  0.9790  0.3194  1.0839
10660SOL    HW233749   1.539   5.452   0.878  0.0971 -0.3341 -0.0270
10661SOL     OW33750   8.246   7.508   2.919 -0.3674 -0.0487 -0.0114
10661SOL    HW133751   8.176   7.505   2.985 -0.4812  1.5708 -0.0301
10661SOL    HW233752   8.221   7.580   2.861 -0.0690 -1.1800 -1.6335
10662SOL     OW33753   2.033   4.482   7.958 -0.0683 -0.1347  0.5616
10662SOL    HW133754   2.103   4.538   7.925 -0.3643 -0.7085 -1.1587
10662SOL    HW233755   2.052   4.395   7.921 -2.4125 -0.0009 -1.1538
10663SOL     OW33756   1.699   4.153   4.240  0.5180 -0.1560 -0.5624
10663SOL    HW133757   1.719   4.088   4.173  0.4434 -0.8552  0.0775
10663SOL    HW233758   1.657   4.225   4.193  1.1267 -0.3181 -1.3633
10664SOL     OW33759   4.595   3.734   1.967 -0.7189 -0.3921 -0.7738
10664SOL    HW133760   4.642   3.692   2.039 -1.3320 -3.0349 -1.7864
10664SOL    HW233761   4.663   3.761   1.905 -0.3407 -0.6497 -0.4683
10665SOL     OW33762   8.865   4.988   2.780  0.1772  0.4799 -0.2686
10665SOL    HW133763   8.842   4.900   2.750 -0.9568  0.8281 -0.4522
10665SOL    HW233764   8.792   5.043   2.753 -0.4507  1.0018  2.2476
10666SOL     OW33765   3.406   8.208   2.445  0.1155  0.1343  0.7456
10666SOL    HW133766   3.361   8.128   2.419  0.2495  0.1183  0.5586
10666SOL    HW233767   3.483   8.178   2.493  1.4667  0.0566 -1.3535
10667SOL     OW33768   7.238   8.674   7.306  0.0398  0.3573  0.0896
10667SOL    HW133769   7.171   8.623   7.262 -0.4945  1.1944 -0.0973
10667SOL    HW233770   7.219   8.662   7.400  0.6540 -0.7332  0.0864
10668SOL     OW33771   0.109   3.936   6.697  0.5369  0.4886 -0.2911
10668SOL    HW133772   0.104   3.866   6.763 -0.4279  0.6817 -0.1436
10668SOL    HW233773   0.106   3.889   6.614  1.4310  0.2640 -0.2098
10669SOL     OW33774   8.481   3.818   3.966 -1.1147  0.4780 -0.0418
10669SOL    HW133775   8.518   3.887   3.911  1.9840  1.1098  2.5480
10669SOL    HW233776   8.438   3.866   4.037  0.4085 -0.1611  1.3710
10670SOL     OW33777   2.084   3.910   7.342 -0.4426  0.3497 -0.3607
10670SOL    HW133778   2.174   3.884   7.322 -0.3799 -0.9560  1.3307
10670SOL    HW233779   2.045   3.930   7.257  0.4899 -2.3352 -1.5537
10671SOL     OW33780   9.314   3.891   9.683 -0.8099  0.1020  0.2692
10671SOL    HW133781   9.299   3.797   9.693  2.5090 -0.6667 -0.7897
10671SOL    HW233782   9.338   3.921   9.770  1.6906 -0.9047  0.0178
10672SOL     OW33783   0.868   9.082   4.666  0.0900 -0.1479 -0.5459
10672SOL    HW133784   0.844   9.036   4.586  0.1654 -2.9415  0.9126
10672SOL    HW233785   0.785   9.098   4.710  0.0618  1.2362 -1.0675
10673SOL     OW33786   2.134   1.967   8.091 -0.1423  0.1039  0.1296
10673SOL    HW133787   2.169   2.048   8.053 -2.1020  0.0722 -2.0234
10673SOL    HW233788   2.205   1.904   8.084  0.9826  1.2955  0.5931
10674SOL     OW33789   7.528   6.630   7.865 -0.1383  0.1584  0.1363
10674SOL    HW133790   7.517   6.724   7.852  0.9009  0.3657  0.6104
10674SOL    HW233791   7.441   6.593   7.852 -0.4651  1.1300 -0.5282
10675SOL     OW33792   0.443   4.216   9.843  0.0496 -0.2396 -0.3227
10675SOL    HW133793   0.483   4.294   9.882  0.6250 -0.9090  0.4917
10675SOL    HW233794   0.518   4.161   9.819 -0.3106 -1.8976  2.0105
10676SOL     OW33795   6.202   9.796   2.374 -0.3222  0.3509 -0.5685
10676SOL    HW133796   6.140   9.778   2.445  0.3896 -1.2725 -0.3326
10676SOL    HW233797   6.158   9.764   2.295  1.1571 -3.3364 -0.0880
10677SOL     OW33798   0.567   3.301   6.524 -0.2806 -0.2594  0.4602
10677SOL    HW133799   0.473   3.307   6.511 -0.3862  2.0979  1.7315
10677SOL    HW233800   0.605   3.350   6.451 -0.1524  0.2992  0.8934
10678SOL     OW33801   0.408   0.879   1.310  0.0397 -0.0957  0.3857
10678SOL    HW133802   0.398   0.786   1.291  0.1701  0.5242 -3.4524
10678SOL    HW233803   0.323   0.917   1.290  0.6053  0.8746 -0.2141
10679SOL     OW33804   2.357   5.808   9.614 -0.2719  0.0443  0.0984
10679SOL    HW133805   2.284   5.756   9.580 -0.2052  0.4848 -0.7436
10679SOL    HW233806   2.435   5.769   9.575 -0.3369  1.7821 -1.9605
10680SOL     OW33807   2.310   6.409   7.139 -0.0305 -0.6194  0.1044
10680SOL    HW133808   2.284   6.418   7.231 -1.1285 -0.2388 -0.2297
10680SOL    HW233809   2.382   6.471   7.129 -0.1326 -0.4032  0.6307
10681SOL     OW33810   4.780   2.055   7.528  0.5104  1.0518  0.4265
10681SOL    HW133811   4.832   2.075   7.606  0.3651 -1.0777  1.1214
10681SOL    HW233812   4.792   1.961   7.514 -1.2112  0.9699 -0.8375
10682SOL     OW33813   5.038   7.416   6.131  0.6036 -0.1997 -0.2527
10682SOL    HW133814   5.042   7.383   6.221  0.6207 -0.2351 -0.2665
10682SOL    HW233815   4.945   7.437   6.117 -0.0553 -3.2754 -1.3119
10683SOL     OW33816   4.012   7.423   7.053  0.1555 -0.0497  0.1248
10683SOL    HW133817   4.095   7.391   7.088  1.0132 -0.8370 -2.4292
10683SOL    HW233818   4.034   7.506   7.010 -1.3867  2.3759  3.5828
10684SOL     OW33819   2.732   6.640   6.220  0.1885  0.0467  0.0435
10684SOL    HW133820   2.787   6.718   6.233 -1.2884  1.1021  0.2148
10684SOL    HW233821   2.687   6.656   6.137 -0.6317 -0.2946  0.4080
10685SOL     OW33822   5.460   6.260   6.805  0.2851 -0.1624  0.9428
10685SOL    HW133823   5.391   6.324   6.789 -0.0987 -0.8886 -0.5368
10685SOL    HW233824   5.542   6.309   6.798 -0.0465  0.7026  2.6804
10686SOL     OW33825   9.080   0.891   3.084 -0.1319 -0.0212  0.3621
10686SOL    HW133826   9.153   0.899   3.145 -0.3578  3.1460  0.3956
10686SOL    HW233827   9.111   0.934   3.004 -0.6424 -2.1067 -1.0300
10687SOL     OW33828   4.663   9.491   2.096 -0.1017 -0.6704 -0.1401
10687SOL    HW133829   4.571   9.514   2.106  0.7493  2.2930  2.6270
10687SOL    HW233830   4.710   9.554   2.151  3.6222 -1.9589 -1.4919
10688SOL     OW33831   7.546   8.304   4.972  0.4562 -0.1478 -0.0045
10688SOL    HW133832   7.613   8.307   4.904  1.8897 -2.5399  1.1325
10688SOL    HW233833   7.578   8.364   5.040 -0.4717  1.4793 -0.9512
10689SOL     OW33834   2.690   4.227   6.327  0.2444 -0.0885 -0.0378
10689SOL    HW133835   2.727   4.187   6.248  2.3969  0.0537  0.8287
10689SOL    HW233836   2.690   4.321   6.308  0.6245 -0.0657  0.0643
10690SOL     OW33837   6.913   5.455   5.740  0.2424  0.2896 -0.5004
10690SOL    HW133838   7.002   5.431   5.767 -0.8016 -1.6561  1.5170
10690SOL    HW233839   6.903   5.417   5.653  1.3245  0.4095 -0.6921
10691SOL     OW33840   5.292   5.461   3.065  0.3309  0.6449 -0.0588
10691SOL    HW133841   5.200   5.480   3.047  0.1634  0.8833  0.9780
10691SOL    HW233842   5.297   5.366   3.067  0.1570  0.6282 -0.3477
10692SOL     OW33843   5.119   9.776   7.779 -0.5167 -0.5479 -0.1973
10692SOL    HW133844   5.177   9.722   7.725 -1.0957 -1.3096 -0.0733
10692SOL    HW233845   5.098   9.722   7.855  0.9507  0.8145  1.2574
10693SOL     OW33846   5.892   5.366   8.523  0.3720 -0.4482  0.1928
10693SOL    HW133847   5.839   5.293   8.556  0.0488 -0.3734 -0.1491
10693SOL    HW233848   5.939   5.398   8.599 -0.7372  0.0449  0.6906
10694SOL     OW33849   7.074   8.452   3.973  0.4261  0.0847  0.4454
10694SOL    HW133850   7.028   8.515   4.028  0.8745 -0.2733  1.2528
10694SOL    HW233851   7.116   8.506   3.905 -0.4918  0.4848  0.1859
10695SOL     OW33852   6.237   1.550   5.678 -0.1594  0.7508 -0.8388
10695SOL    HW133853   6.174   1.505   5.735 -1.4720  0.2943 -2.5812
10695SOL    HW233854   6.242   1.639   5.714 -0.0778  0.1775  0.6523
10696SOL     OW33855   4.433   4.824   5.349 -0.2210 -0.3361  0.2629
10696SOL    HW133856   4.513   4.773   5.349 -0.0398 -0.0788 -0.8483
10696SOL    HW233857   4.362   4.759   5.351  0.0103 -0.6231 -0.5243
10697SOL     OW33858   5.729   7.966   5.050 -0.9228  0.5890  0.2342
10697SOL    HW133859   5.790   8.006   5.112 -1.2373  0.0763  0.8938
10697SOL    HW233860   5.662   7.926   5.106 -0.1374 -1.6512 -0.3682
10698SOL     OW33861   6.952   6.092   0.409 -0.3146 -0.1431  0.1893
10698SOL    HW133862   6.956   6.153   0.482 -2.0272  0.9708 -0.5910
10698SOL    HW233863   6.935   6.007   0.450  1.4788 -0.0496  1.2414
10699SOL     OW33864   5.762   3.907   5.582  0.5114  0.2552  0.7504
10699SOL    HW133865   5.732   3.973   5.520  1.0036  0.9854  1.2779
10699SOL    HW233866   5.847   3.879   5.548  0.9136  0.8624  1.2339
10700SOL     OW33867   0.952   4.900   6.540  0.1171  0.6614 -0.8253
10700SOL    HW133868   0.999   4.839   6.597 -0.1806 -0.0853 -1.3614
10700SOL    HW233869   0.893   4.845   6.489 -1.3278  1.5571 -0.2006
10701SOL     OW33870   1.288   8.386   6.545  0.5207  0.1963 -0.0420
10701SOL    HW133871   1.198   8.396   6.512  0.9552  0.2095 -1.2813
10701SOL    HW233872   1.279   8.384   6.640 -0.6779  1.4155 -0.0976
10702SOL     OW33873   6.543   2.236   6.260 -0.1012  0.0192 -0.5525
10702SOL    HW133874   6.463   2.250   6.210  0.9283  0.5951 -2.1202
10702SOL    HW233875   6.553   2.141   6.262  0.0016 -0.0096 -1.7563
10703SOL     OW33876   3.623   8.031   2.980  0.5754 -0.3469 -0.1737
10703SOL    HW133877   3.577   8.113   2.995  1.9642  0.7940 -1.8043
10703SOL    HW233878   3.570   7.965   3.025 -2.2646  0.9568 -1.4065
10704SOL     OW33879   6.775   2.383   5.256 -0.0742 -0.4725 -0.6000
10704SOL    HW133880   6.818   2.406   5.174 -1.6384 -0.7942 -1.5367
10704SOL    HW233881   6.844   2.338   5.306  1.1996  0.6384 -1.2733
10705SOL     OW33882   6.342   5.803   2.199  0.3733  0.1543  0.2427
10705SOL    HW133883   6.300   5.859   2.134  0.7377 -0.0540 -0.1765
10705SOL    HW233884   6.284   5.727   2.208  0.7128 -0.1878 -0.4185
10706SOL     OW33885   1.404   1.138   5.777 -0.8850 -0.2723  0.1700
10706SOL    HW133886   1.316   1.176   5.776 -1.1943 -0.8877  1.4630
10706SOL    HW233887   1.444   1.168   5.696 -1.7464  1.2957  0.2838
10707SOL     OW33888   4.659   6.249   1.377  0.2366 -0.0842  0.2245
10707SOL    HW133889   4.659   6.175   1.316 -1.4066 -1.2436  1.5202
10707SOL    HW233890   4.648   6.326   1.322  1.2981 -0.8475 -1.1145
10708SOL     OW33891   9.507   8.640   4.069  0.3761  0.0936  0.3370
10708SOL    HW133892   9.512   8.713   4.007 -0.5306 -0.2156 -0.1172
10708SOL    HW233893   9.492   8.681   4.154 -0.0489  0.4522  0.0931
10709SOL     OW33894   9.575   3.906   4.035  0.6178 -0.8648  0.2737
10709SOL    HW133895   9.514   3.834   4.050  0.8213 -0.7182  2.0940
10709SOL    HW233896   9.584   3.912   3.940 -1.8594 -1.1443 -0.0213
10710SOL     OW33897   5.078   5.036   7.808 -0.4059  0.6439  0.0792
10710SOL    HW133898   5.147   5.099   7.786  1.3963 -1.1826  0.1246
10710SOL    HW233899   5.109   4.995   7.889 -2.0978  0.4855  0.6715
10711SOL     OW33900   8.260   1.844   8.539  0.3196 -0.2299  0.5325
10711SOL    HW133901   8.212   1.910   8.590 -0.2335 -0.9426  0.9556
10711SOL    HW233902   8.350   1.848   8.573  0.8908  1.8624 -0.9995
10712SOL     OW33903   6.518   9.832   8.841  0.0142 -0.1265 -0.1626
10712SOL    HW133904   6.586   9.767   8.852  0.1056 -0.1023 -0.5697
10712SOL    HW233905   6.493   9.826   8.749 -0.7513 -0.3519  0.0533
10713SOL     OW33906   6.225   8.416   5.230  0.3993 -0.0129  0.3647
10713SOL    HW133907   6.242   8.484   5.166  0.1631  0.1937  0.5171
10713SOL    HW233908   6.244   8.334   5.184 -1.1544  0.0380 -0.4615
10714SOL     OW33909   8.188   0.912   5.426 -0.0032  0.2670 -0.1124
10714SOL    HW133910   8.107   0.952   5.460  0.0177  0.5126 -0.3480
10714SOL    HW233911   8.235   0.884   5.504  0.4101  1.5409  0.1129
10715SOL     OW33912   7.789   8.389   8.183  0.0975 -0.4222 -0.9838
10715SOL    HW133913   7.824   8.465   8.230 -0.9329 -0.8041  0.4757
10715SOL    HW233914   7.696   8.406   8.175  0.0748 -0.9019 -1.9014
10716SOL     OW33915   8.503   5.260   9.272 -0.2562  0.0872  0.4826
10716SOL    HW133916   8.575   5.249   9.211 -1.1382  1.5506 -0.9169
10716SOL    HW233917   8.451   5.332   9.235 -2.7967 -1.3214  1.0592
10717SOL     OW33918   2.194   9.472   3.500 -0.5075  0.1473 -0.3803
10717SOL    HW133919   2.099   9.477   3.496 -0.5653  0.9439  1.1070
10717SOL    HW233920   2.225   9.554   3.462 -0.5442  1.0200  1.3567
10718SOL     OW33921   0.127   1.894   2.426  0.4042  0.1922  0.0652
10718SOL    HW133922   0.213   1.854   2.411  0.3341  0.0314  0.0862
10718SOL    HW233923   0.071   1.857   2.357 -0.4086 -2.0320  1.7981
10719SOL     OW33924   1.074   9.451   3.576  0.4556 -0.0666 -0.2004
10719SOL    HW133925   1.069   9.373   3.521  1.5416  0.0951 -0.5633
10719SOL    HW233926   1.012   9.512   3.537 -0.1069 -0.6074 -0.1554
10720SOL     OW33927   4.166   4.715   0.126  0.1603  0.2696  0.0023
10720SOL    HW133928   4.141   4.807   0.134  4.0815  1.7601 -1.9396
10720SOL    HW233929   4.199   4.691   0.213 -0.2386  0.9139  0.3347
10721SOL     OW33930   1.977   6.904   8.543 -0.0446 -0.4156 -0.3407
10721SOL    HW133931   2.012   6.993   8.538  1.7716 -1.1232 -0.8983
10721SOL    HW233932   1.885   6.917   8.564 -0.3041  1.6850 -2.2503
10722SOL     OW33933   4.934   3.347   2.078  0.1315  0.5855  0.6972
10722SOL    HW133934   4.882   3.373   2.003 -1.9305 -1.1558  1.4085
10722SOL    HW233935   4.893   3.391   2.153  1.2600  1.1791  0.9772
10723SOL     OW33936   6.057   2.038   3.933  0.1201 -0.1808  0.1646
10723SOL    HW133937   6.064   2.042   3.838 -0.2714  1.0354  0.1645
10723SOL    HW233938   6.048   1.945   3.953  0.2112 -0.4488 -0.9869
10724SOL     OW33939   4.901   3.600   3.167 -0.2030 -0.2723  0.1430
10724SOL    HW133940   4.877   3.530   3.107 -0.1995  1.6034 -2.2149
10724SOL    HW233941   4.996   3.609   3.159 -0.1518 -0.2447  0.7182
10725SOL     OW33942   5.726   1.620   2.829 -0.1148  0.9161 -0.1576
10725SOL    HW133943   5.774   1.552   2.781 -0.9978 -0.1110  0.3504
10725SOL    HW233944   5.665   1.570   2.884 -0.1855  2.1069  0.8768
10726SOL     OW33945   0.311   5.692   0.778  0.2835 -0.0570 -0.1712
10726SOL    HW133946   0.219   5.704   0.754  0.2506  0.3668  0.1487
10726SOL    HW233947   0.340   5.617   0.726 -0.0160  0.3044 -0.8677
10727SOL     OW33948   4.823   4.226   7.307 -0.0574  0.6615  0.1161
10727SOL    HW133949   4.890   4.204   7.372  1.2508 -0.2333 -1.4596
10727SOL    HW233950   4.848   4.313   7.275  0.0049  0.5783 -0.0598
10728SOL     OW33951   3.692   9.573   3.730 -0.0354 -0.3597 -0.4188
10728SOL    HW133952   3.752   9.499   3.741 -1.4845 -1.7016 -1.0069
10728SOL    HW233953   3.632   9.566   3.804 -0.6012 -0.2241 -0.8519
10729SOL     OW33954   3.221   1.445   0.880 -0.2791  0.3040  0.4205
10729SOL    HW133955   3.145   1.455   0.824 -0.5648  1.9735  1.0505
10729SOL    HW233956   3.296   1.452   0.821 -0.5675  2.2426  0.2107
10730SOL     OW33957   1.655   8.076   9.434  0.0384  0.2338  0.4325
10730SOL    HW133958   1.590   8.009   9.451 -0.8537  1.1243  0.6517
10730SOL    HW233959   1.698   8.091   9.518  1.6283 -1.4294 -0.0286
10731SOL     OW33960   8.762   5.532   0.055  0.1047  0.3409 -0.1257
10731SOL    HW133961   8.844   5.483   0.063 -1.2924 -2.1876 -0.2364
10731SOL    HW233962   8.732   5.513  -0.034 -1.6159 -0.5198  0.6111
10732SOL     OW33963   1.329   9.351   1.748  0.1678 -0.1102  0.0908
10732SOL    HW133964   1.279   9.296   1.808 -0.4835 -1.9029 -1.9696
10732SOL    HW233965   1.332   9.302   1.666 -0.2958  2.8536 -1.8791
10733SOL     OW33966   1.768   6.265   6.052 -0.6635 -0.5071  0.2377
10733SOL    HW133967   1.851   6.305   6.076 -1.4670  2.0819 -0.8799
10733SOL    HW233968   1.792   6.192   5.995  0.9456  1.8191 -2.3607
10734SOL     OW33969   4.464   3.166   1.595 -0.8027 -0.0805  0.6586
10734SOL    HW133970   4.453   3.085   1.545  0.4924 -0.4115  0.8596
10734SOL    HW233971   4.380   3.180   1.638 -1.3809 -0.7280 -0.2411
10735SOL     OW33972   5.728   7.457   9.525  0.1752 -0.1485  0.1194
10735SOL    HW133973   5.770   7.395   9.465  0.1821 -0.2791  0.2577
10735SOL    HW233974   5.798   7.486   9.582  0.1603 -0.0550  0.0896
10736SOL     OW33975   5.546   9.768   1.029 -0.0946 -0.0094  0.0879
10736SOL    HW133976   5.464   9.764   1.079  0.2880  0.5914  0.7967
10736SOL    HW233977   5.552   9.859   0.999  1.2825  0.5346  1.7996
10737SOL     OW33978   7.880   9.242   8.288 -0.0929 -0.3563 -0.0080
10737SOL    HW133979   7.906   9.150   8.299 -1.0291 -0.8710 -1.6668
10737SOL    HW233980   7.811   9.256   8.353  0.2850 -0.7316  0.4785
10738SOL     OW33981   7.307   1.526   0.347  0.0748  0.7817 -0.1134
10738SOL    HW133982   7.288   1.584   0.421 -1.1736 -1.1485  1.1594
10738SOL    HW233983   7.226   1.479   0.331  1.5802 -2.3103  0.5179
10739SOL     OW33984   6.489   0.771   4.863 -0.6455  0.3937 -0.0722
10739SOL    HW133985   6.467   0.678   4.878 -2.4539  0.8493  0.3865
10739SOL    HW233986   6.437   0.795   4.786 -0.2708  1.0667 -0.1198
10740SOL     OW33987   2.347   5.765   8.354  0.4189 -0.4053  0.1469
10740SOL    HW133988   2.409   5.694   8.370  0.1847 -0.4683  0.8372
10740SOL    HW233989   2.391   5.843   8.387  0.7690 -0.1784 -0.8195
10741SOL     OW33990   0.121   4.312   0.533 -0.4047 -0.5890 -0.4833
10741SOL    HW133991   0.096   4.395   0.574  0.0697  0.5324 -2.3209
10741SOL    HW233992   0.040   4.278   0.495 -0.4249 -0.4949 -0.5242
10742SOL     OW33993   2.587   8.180   6.503 -0.1861 -0.2313  0.2508
10742SOL    HW133994   2.671   8.203   6.544 -0.4465 -0.0132  0.6715
10742SOL    HW233995   2.570   8.252   6.441  0.5846 -0.9494 -0.8234
10743SOL     OW33996   0.341   4.506   2.134 -0.7799  0.2251 -0.6955
10743SOL    HW133997   0.309   4.419   2.158  2.0501 -0.5614  0.7784
10743SOL    HW233998   0.371   4.544   2.217 -1.1062  2.2552 -1.4421
10744SOL     OW33999   0.779   0.618   1.494  0.0050 -0.2480  0.1891
10744SOL    HW134000   0.757   0.637   1.403 -1.2278  0.2739  0.5900
10744SOL    HW234001   0.781   0.522   1.498  0.0008 -0.2764 -0.3644
10745SOL     OW34002   6.419   0.412   8.878  0.1584  0.2092  0.0193
10745SOL    HW134003   6.479   0.365   8.819 -0.0943 -0.2021  0.0848
10745SOL    HW234004   6.468   0.421   8.960  0.2687  0.2054 -0.0461
10746SOL     OW34005   7.616   6.944   6.651  1.0868 -0.1316 -0.1376
10746SOL    HW134006   7.694   6.960   6.705  1.3046  0.1735 -0.5423
10746SOL    HW234007   7.647   6.954   6.561 -0.0561  3.1469 -0.3092
10747SOL     OW34008   8.712   6.103   9.441 -0.1854 -0.4671 -0.3359
10747SOL    HW134009   8.618   6.089   9.432 -0.1902 -1.2903  0.7602
10747SOL    HW234010   8.725   6.195   9.417 -1.4412  0.0036  0.6637
10748SOL     OW34011   9.639   4.073   7.781  0.2528  0.0153 -0.4758
10748SOL    HW134012   9.688   4.136   7.833 -0.5162  0.5992 -0.4421
10748SOL    HW234013   9.677   3.988   7.804  0.2915  0.3203  0.6348
10749SOL     OW34014   5.923   9.161   2.285  0.3990 -0.3598 -0.6528
10749SOL    HW134015   5.841   9.132   2.246  0.1917  1.2807 -1.5670
10749SOL    HW234016   5.992   9.116   2.235  0.0804 -1.0366 -0.4888
10750SOL     OW34017   2.409   0.833   0.334  0.5451 -0.1527 -0.5818
10750SOL    HW134018   2.318   0.863   0.334  0.8881  1.0026 -2.3011
10750SOL    HW234019   2.422   0.792   0.249  1.5951 -0.4167 -0.3173
10751SOL     OW34020   4.787   4.109   3.726 -0.6757  0.5917 -0.2961
10751SOL    HW134021   4.779   4.014   3.711 -2.1528  0.8546 -1.4077
10751SOL    HW234022   4.789   4.117   3.822  2.4113 -0.7053 -0.1096
10752SOL     OW34023   1.279   6.792   8.000 -0.3783  0.0093  0.4323
10752SOL    HW134024   1.277   6.847   7.922 -0.5132  0.0590  0.4695
10752SOL    HW234025   1.370   6.796   8.030 -0.2858 -0.1505  0.1785
10753SOL     OW34026   1.543   8.434   4.223 -0.2443 -0.6987  0.9240
10753SOL    HW134027   1.513   8.352   4.185  0.1667 -1.4299  2.1299
10753SOL    HW234028   1.607   8.408   4.289  1.0765  0.6830  0.2356
10754SOL     OW34029   3.756   7.270   3.536  0.4373 -0.0341  0.3232
10754SOL    HW134030   3.723   7.195   3.585 -0.0914 -0.3098 -0.4322
10754SOL    HW234031   3.844   7.246   3.510  0.9433  0.3464  1.6083
10755SOL     OW34032   0.109   1.802   6.132 -0.1698  0.3924  0.2427
10755SOL    HW134033   0.110   1.713   6.168 -1.1933  0.7848  1.3202
10755SOL    HW234034   0.073   1.792   6.044  2.2171 -0.5690 -0.7057
10756SOL     OW34035   1.329   4.553   6.870 -0.5220  0.0621  0.2492
10756SOL    HW134036   1.369   4.633   6.904 -1.2072 -0.2727  1.8921
10756SOL    HW234037   1.380   4.482   6.909  0.3585 -0.3628 -1.5282
10757SOL     OW34038   0.122   5.527   3.488  0.4198  0.2113  0.8296
10757SOL    HW134039   0.115   5.437   3.456  0.7371  0.5090 -0.1074
10757SOL    HW234040   0.039   5.568   3.461 -0.2566 -0.1128  2.3275
10758SOL     OW34041   9.058   1.972   8.103  0.2556 -0.2394  0.1431
10758SOL    HW134042   9.019   1.941   8.185  0.8863 -1.7146 -0.0764
10758SOL    HW234043   9.105   2.052   8.127 -3.3221  2.0813  0.3020
10759SOL     OW34044   5.796   8.792   0.937 -0.2409  0.0598 -0.3159
10759SOL    HW134045   5.883   8.778   0.900 -0.1666  1.0488 -0.5450
10759SOL    HW234046   5.738   8.799   0.861 -0.6192 -1.1461 -0.1517
10760SOL     OW34047   0.544   2.676   1.758 -0.4609  0.3868  0.1230
10760SOL    HW134048   0.602   2.669   1.683  0.4750  0.4743  0.8248
10760SOL    HW234049   0.601   2.669   1.834 -1.3228  0.8129  0.8365
10761SOL     OW34050   0.038   4.600   3.414 -0.0103 -0.2816  0.2510
10761SOL    HW134051  -0.041   4.588   3.360  0.3273 -0.0521 -0.2999
10761SOL    HW234052   0.088   4.520   3.400  0.3260  0.0046 -0.1978
10762SOL     OW34053   2.472   6.033   8.436 -0.2557 -0.0474  0.1865
10762SOL    HW134054   2.536   5.993   8.496 -0.3536  0.5642  0.7102
10762SOL    HW234055   2.521   6.102   8.392 -1.2585  2.5869  2.8767
10763SOL     OW34056   5.964   1.726   6.421  0.2888 -0.0658  0.0950
10763SOL    HW134057   5.915   1.703   6.499  0.6281 -0.9427  0.0639
10763SOL    HW234058   6.055   1.707   6.444  0.2966 -1.2800 -0.8201
10764SOL     OW34059   1.506   0.573   8.579  0.1445  0.0966  0.4448
10764SOL    HW134060   1.450   0.526   8.517 -2.0293 -1.5824  3.4089
10764SOL    HW234061   1.595   0.548   8.556 -0.5523 -0.5112 -1.8643
10765SOL     OW34062   9.186   0.456   4.495  0.0468  0.7360 -0.0764
10765SOL    HW134063   9.202   0.430   4.404  0.3233  0.7668 -0.0362
10765SOL    HW234064   9.266   0.431   4.542 -0.1506  0.5909  0.1851
10766SOL     OW34065   4.227   9.015   3.255  0.1725 -0.3151  0.1361
10766SOL    HW134066   4.142   8.970   3.247  1.3958 -2.8091  0.0172
10766SOL    HW234067   4.260   9.019   3.165  0.4426  0.0650  0.2536
10767SOL     OW34068   5.621   2.452   2.664 -0.8467 -0.1074  0.3877
10767SOL    HW134069   5.615   2.388   2.735  1.5673 -1.3034 -0.3734
10767SOL    HW234070   5.584   2.532   2.700 -1.8392 -1.3048  2.1685
10768SOL     OW34071   1.245   5.208   1.096 -0.6001 -0.0609  0.0381
10768SOL    HW134072   1.336   5.233   1.080 -0.4341 -0.0676  0.9107
10768SOL    HW234073   1.194   5.284   1.069 -0.3107  0.0560 -0.1797
10769SOL     OW34074   4.977   5.504   7.957  0.4910  0.1031 -0.3497
10769SOL    HW134075   4.972   5.572   7.890 -0.9363  1.7568  1.3181
10769SOL    HW234076   5.046   5.533   8.016  0.8912 -0.6865 -0.4221
10770SOL     OW34077   8.544   6.077   0.823  0.1062 -0.3907  0.3797
10770SOL    HW134078   8.484   6.097   0.751 -0.0926  1.2667  0.9546
10770SOL    HW234079   8.503   6.117   0.900  0.3676 -2.0297  1.4179
10771SOL     OW34080   4.459   2.768   8.201 -0.0712 -0.6056 -0.6054
10771SOL    HW134081   4.391   2.751   8.137  0.2247 -2.0265 -0.5625
10771SOL    HW234082   4.538   2.731   8.163  0.4280 -0.1060 -0.0889
10772SOL     OW34083   7.498   7.229   9.598  0.0344 -0.3146  0.1522
10772SOL    HW134084   7.432   7.176   9.641 -0.1550 -0.0666  0.1695
10772SOL    HW234085   7.581   7.184   9.616  0.0270  0.0932  1.2693
10773SOL     OW34086   0.676   3.753   9.592  0.6122 -0.0712 -0.0685
10773SOL    HW134087   0.747   3.760   9.529  1.2903  2.3120  0.8688
10773SOL    HW234088   0.620   3.829   9.574 -0.9416 -1.1030  0.1623
10774SOL     OW34089   6.632   0.055   2.011 -0.3912 -0.3314  0.6066
10774SOL    HW134090   6.558   0.115   2.002 -0.0780 -0.0023  0.1894
10774SOL    HW234091   6.604  -0.023   1.962  0.5302  0.7440 -1.8077
10775SOL     OW34092   0.716   1.703   0.306  0.2001  0.4887  0.5625
10775SOL    HW134093   0.638   1.701   0.362  0.3820 -0.5418  0.8101
10775SOL    HW234094   0.717   1.791   0.270 -1.6612  0.2258 -0.2638
10776SOL     OW34095   3.493   1.771   9.711 -0.2967 -0.0388  0.0531
10776SOL    HW134096   3.423   1.824   9.750 -1.0820  1.4966 -3.1172
10776SOL    HW234097   3.561   1.835   9.688  0.2453 -0.9086 -0.7949
10777SOL     OW34098   0.337   2.509   9.709  0.0326  0.1140 -0.2696
10777SOL    HW134099   0.262   2.552   9.750 -0.3277 -0.9636  0.2383
10777SOL    HW234100   0.411   2.531   9.766 -0.2038 -0.1805  0.1602
10778SOL     OW34101   4.105   5.859   1.961 -0.7904 -0.3523  0.3926
10778SOL    HW134102   4.166   5.915   1.913 -1.5342 -2.3272 -3.1735
10778SOL    HW234103   4.141   5.771   1.952 -2.2261 -1.1008  1.5226
10779SOL     OW34104   6.272   6.570   6.990  0.3106 -0.1704  0.2671
10779SOL    HW134105   6.205   6.582   7.058 -0.0234 -1.0237  0.1020
10779SOL    HW234106   6.347   6.534   7.036  0.9547  1.4907  0.5865
10780SOL     OW34107   1.796   9.585   4.380 -0.1680 -0.1495 -0.5452
10780SOL    HW134108   1.706   9.557   4.364 -0.2095 -0.4315  0.1713
10780SOL    HW234109   1.849   9.508   4.357 -0.3386 -1.2239  2.3164
10781SOL     OW34110   3.003   8.805   7.817  0.8635 -0.2891  0.0875
10781SOL    HW134111   3.038   8.726   7.860 -0.4653 -1.1811 -0.3993
10781SOL    HW234112   2.988   8.866   7.889  0.7628 -0.9366  0.6268
10782SOL     OW34113   4.195   1.673   3.874 -0.2028  0.1196 -0.1248
10782SOL    HW134114   4.245   1.752   3.892 -0.8910  0.2238  1.4806
10782SOL    HW234115   4.188   1.629   3.958 -1.4716 -0.6810 -0.6134
10783SOL     OW34116   2.373   3.026   2.512 -0.5076 -0.1999  0.6897
10783SOL    HW134117   2.452   3.055   2.467 -0.8399  1.1166  0.9209
10783SOL    HW234118   2.310   3.009   2.442  0.3627 -2.6135  0.4046
10784SOL     OW34119   3.951   3.370   5.575  0.1241  0.7225  0.0748
10784SOL    HW134120   3.877   3.342   5.628 -0.5165  2.2419  0.0251
10784SOL    HW234121   3.942   3.321   5.492 -0.1577  0.0585  0.4888
10785SOL     OW34122   9.678   5.616   5.909  0.2908  0.2677 -0.6158
10785SOL    HW134123   9.601   5.644   5.860 -1.0107  0.9708  1.6472
10785SOL    HW234124   9.733   5.693   5.915 -1.1698  1.2427  1.7870
10786SOL     OW34125   2.762   3.961   5.775  0.1981 -0.3149  0.3592
10786SOL    HW134126   2.698   4.027   5.802  1.2950  1.4428 -1.0555
10786SOL    HW234127   2.846   4.004   5.786  0.8973 -1.0284 -1.6883
10787SOL     OW34128   8.857   3.212   0.948 -0.1841  0.0811  0.0002
10787SOL    HW134129   8.844   3.294   0.995  0.4467 -0.0080  0.3403
10787SOL    HW234130   8.947   3.187   0.968  0.4674  0.5521 -2.0249
10788SOL     OW34131   1.610   9.128   9.168  0.0912 -0.2819 -0.1869
10788SOL    HW134132   1.673   9.191   9.202 -0.6388  0.9866 -1.1195
10788SOL    HW234133   1.624   9.129   9.073 -0.8723 -0.4781 -0.3351
10789SOL     OW34134   9.261   8.909   3.084 -0.0854  0.4494 -0.5572
10789SOL    HW134135   9.200   8.939   3.152  0.2386  0.8034 -0.4187
10789SOL    HW234136   9.342   8.956   3.103  0.8437 -1.4251  0.4195
10790SOL     OW34137   9.713   2.573   1.492 -0.2921 -0.0023 -0.4686
10790SOL    HW134138   9.714   2.664   1.520  1.0510 -0.2492  0.3589
10790SOL    HW234139   9.715   2.577   1.397 -2.6835  0.8279 -0.5577
10791SOL     OW34140   2.437   1.673   9.087  0.1265 -0.0320  0.3085
10791SOL    HW134141   2.512   1.657   9.030 -0.4504 -0.3182 -0.4040
10791SOL    HW234142   2.392   1.748   9.047 -1.3078 -1.3778 -0.7276
10792SOL     OW34143   6.979   8.728   5.273 -0.1878  0.4149 -0.1987
10792SOL    HW134144   7.008   8.768   5.355  0.0784 -0.9001  0.3686
10792SOL    HW234145   7.010   8.638   5.278 -0.3582  0.2543 -1.6589
10793SOL     OW34146   1.795   5.531   1.832  0.7873 -1.1391 -0.1010
10793SOL    HW134147   1.858   5.585   1.786 -0.1548 -0.0904 -0.2058
10793SOL    HW234148   1.738   5.594   1.877  1.0541 -2.0948  1.6720
10794SOL     OW34149   8.731   2.554   6.142  0.2586 -0.2983 -0.3066
10794SOL    HW134150   8.772   2.640   6.133 -1.4159  0.5383 -0.3442
10794SOL    HW234151   8.758   2.524   6.229 -1.0177  1.3626  0.7479
10795SOL     OW34152   1.937   6.648   3.560  0.1282  0.4816  0.1170
10795SOL    HW134153   1.959   6.562   3.598  3.2037  0.9964 -0.2092
10795SOL    HW234154   1.913   6.628   3.470  0.7236 -0.0772  0.0708
10796SOL     OW34155   3.469   9.229   5.444 -0.1371  0.1391 -0.2399
10796SOL    HW134156   3.564   9.229   5.431  0.1634  0.5168  1.7673
10796SOL    HW234157   3.433   9.225   5.355  1.7352 -1.5434 -1.0005
10797SOL     OW34158   0.193   8.505   8.338  0.3153  0.2247  0.1107
10797SOL    HW134159   0.235   8.578   8.384  0.0142  0.9867 -0.8078
10797SOL    HW234160   0.266   8.460   8.294  0.5271 -0.1613  0.8411
10798SOL     OW34161   9.355   5.537   7.028 -0.4755  0.1921  0.3531
10798SOL    HW134162   9.348   5.550   7.122  1.2373  1.1167  0.3763
10798SOL    HW234163   9.334   5.622   6.990  0.6742  0.3404  0.0119
10799SOL     OW34164   2.706   3.621   1.735 -0.3957  0.0857 -0.2332
10799SOL    HW134165   2.800   3.611   1.753  0.4848  1.7944 -3.2691
10799SOL    HW234166   2.682   3.541   1.689  0.3207  0.8133 -1.9368
10800SOL     OW34167   4.440   6.685   3.148 -0.0224  0.4886 -0.4374
10800SOL    HW134168   4.404   6.663   3.234  1.0427  0.2673 -0.0299
10800SOL    HW234169   4.530   6.712   3.166  1.2430 -2.4434 -1.7821
10801SOL     OW34170   7.244   3.582   0.476 -0.3867  0.2139 -0.6856
10801SOL    HW134171   7.295   3.516   0.523 -0.7251  0.6238  0.2773
10801SOL    HW234172   7.299   3.607   0.402 -0.9548 -2.4091 -2.1370
10802SOL     OW34173   8.786   9.841   4.626 -0.4300  0.0759  0.0770
10802SOL    HW134174   8.847   9.851   4.553 -0.2653 -1.7329 -0.0933
10802SOL    HW234175   8.822   9.896   4.696  1.1255 -0.5413 -0.1965
10803SOL     OW34176   4.282   6.798   4.659  0.1014  0.3176 -0.2135
10803SOL    HW134177   4.332   6.728   4.701 -0.2635  0.1331 -0.0846
10803SOL    HW234178   4.313   6.799   4.568 -0.9772 -1.0403 -0.6225
10804SOL     OW34179   3.573   7.889   8.533  0.3862  0.6444 -0.2517
10804SOL    HW134180   3.535   7.975   8.516  1.6881  0.9934 -1.7593
10804SOL    HW234181   3.668   7.905   8.533  0.6258 -0.6614  0.2702
10805SOL     OW34182   7.147   1.080   3.697 -0.0909  0.3714 -0.0960
10805SOL    HW134183   7.230   1.100   3.741  0.1377  1.2484 -0.8869
10805SOL    HW234184   7.162   0.995   3.655  0.4877  0.6312 -0.4228
10806SOL     OW34185   4.432   0.061   8.657  0.4361  0.3189  0.3606
10806SOL    HW134186   4.487   0.048   8.580  0.5599 -2.2546  0.8059
10806SOL    HW234187   4.342   0.051   8.625  0.3717  1.3794  0.1914
10807SOL     OW34188   1.827   0.454   9.630 -0.2148 -0.0172  0.1269
10807SOL    HW134189   1.754   0.516   9.627 -0.7505 -0.6392  0.0267
10807SOL    HW234190   1.884   0.482   9.558 -0.5260  0.2720 -0.0145
10808SOL     OW34191   4.880   5.458   9.557 -0.6816  0.0985 -0.4526
10808SOL    HW134192   4.864   5.532   9.499  0.9864  0.6147 -0.2927
10808SOL    HW234193   4.887   5.383   9.499 -0.3621  0.4001 -0.8100
10809SOL     OW34194   1.573   3.143   8.084  0.0992 -0.4029 -0.4882
10809SOL    HW134195   1.664   3.140   8.055  0.9743  4.4258  0.8711
10809SOL    HW234196   1.523   3.166   8.005  0.3438 -0.9916 -0.8187
10810SOL     OW34197   6.696   5.130   2.462 -0.7297 -0.2510  0.0754
10810SOL    HW134198   6.609   5.091   2.456 -0.4588 -0.9515  0.4626
10810SOL    HW234199   6.734   5.090   2.541 -0.2650  0.4663  0.2267
10811SOL     OW34200   7.913   9.441   7.532 -0.0201  0.1692  0.5157
10811SOL    HW134201   7.850   9.379   7.569 -0.3070  0.1410 -0.0178
10811SOL    HW234202   7.996   9.394   7.534  0.0456  0.3090  1.4877
10812SOL     OW34203   7.126   2.998   4.106 -0.3554  0.3209 -0.2073
10812SOL    HW134204   7.046   3.019   4.057 -0.0466  1.4494 -0.2546
10812SOL    HW234205   7.153   2.913   4.073 -2.9092 -1.3374  1.5800
10813SOL     OW34206   8.704   1.162   6.437 -0.4074 -0.0007 -0.0205
10813SOL    HW134207   8.729   1.253   6.419  1.2865 -0.2537  0.8415
10813SOL    HW234208   8.665   1.131   6.355  0.2360  1.0990 -0.7695
10814SOL     OW34209   8.917   6.828   1.535 -0.0763  0.0494  0.2113
10814SOL    HW134210   8.832   6.786   1.553 -0.2286  0.4067  0.3307
10814SOL    HW234211   8.894   6.916   1.505  0.1782 -0.4295 -1.4865
10815SOL     OW34212   2.235   6.556   8.448 -0.7342 -0.3599  0.0454
10815SOL    HW134213   2.200   6.560   8.537  0.6159  0.0788  0.5739
10815SOL    HW234214   2.187   6.483   8.407 -1.2698 -0.6596  1.1684
10816SOL     OW34215   2.274   9.447   1.954 -0.2232 -0.3588  0.3993
10816SOL    HW134216   2.286   9.540   1.971 -0.3517 -0.7416  3.0236
10816SOL    HW234217   2.247   9.443   1.862 -3.1960  2.4995  0.9330
10817SOL     OW34218   9.260   2.404   7.795 -0.3398  0.4956  0.3631
10817SOL    HW134219   9.211   2.465   7.741  0.3842  0.4409 -0.3669
10817SOL    HW234220   9.312   2.353   7.733 -0.2278 -0.2275  1.0337
10818SOL     OW34221   7.977   2.930   5.507 -0.0576  0.1701 -0.0685
10818SOL    HW134222   8.008   2.949   5.418  1.0389 -1.2235 -0.0229
10818SOL    HW234223   8.024   2.850   5.532  1.3465  1.6540  2.5710
10819SOL     OW34224   7.646   3.354   8.175  0.4628  0.2357 -0.2460
10819SOL    HW134225   7.565   3.384   8.216 -0.0514 -2.7342  1.1321
10819SOL    HW234226   7.708   3.346   8.248  1.9115  1.9366 -1.2075
10820SOL     OW34227   8.018   4.529   3.637  0.3798 -0.2380 -0.5142
10820SOL    HW134228   7.926   4.523   3.663  0.3374 -0.7026 -0.7750
10820SOL    HW234229   8.019   4.507   3.544  0.3552  2.6384 -1.3066
10821SOL     OW34230   3.354   2.343   8.558 -0.3771 -0.3051  0.4218
10821SOL    HW134231   3.362   2.341   8.654  0.7839 -2.9270  0.3430
10821SOL    HW234232   3.268   2.305   8.541  0.4401 -2.2591  0.4132
10822SOL     OW34233   6.921   7.454   8.796 -0.0610 -0.1246 -0.5413
10822SOL    HW134234   6.934   7.546   8.817 -0.0386 -0.1044 -0.6437
10822SOL    HW234235   6.828   7.446   8.776  0.5067  0.6617 -4.3088
10823SOL     OW34236   4.948   8.767   2.629  0.5623  0.0030 -0.3863
10823SOL    HW134237   4.932   8.847   2.677 -0.1757  0.5523 -1.4997
10823SOL    HW234238   4.864   8.720   2.631  0.2775  0.3907 -1.7242
10824SOL     OW34239   7.904   8.935   6.075 -0.2271 -0.1385  0.5922
10824SOL    HW134240   7.994   8.963   6.056 -0.1106 -0.8046  0.1225
10824SOL    HW234241   7.856   9.017   6.091 -0.5866  0.7245 -3.5891
10825SOL     OW34242   1.822   8.699   3.062 -0.0825  0.5205  0.0863
10825SOL    HW134243   1.880   8.630   3.030 -1.7699 -0.5370 -0.8860
10825SOL    HW234244   1.797   8.670   3.150 -0.0129  0.3931  0.0646
10826SOL     OW34245   6.877   9.814   5.407  0.6915  0.7208 -0.1617
10826SOL    HW134246   6.889   9.892   5.460 -0.7545  0.6517  0.3128
10826SOL    HW234247   6.948   9.817   5.343  1.7826  1.4167  1.0338
10827SOL     OW34248   8.411   3.196   0.203 -0.0789 -0.0151  0.1255
10827SOL    HW134249   8.442   3.184   0.113  0.4645 -0.2467  0.3348
10827SOL    HW234250   8.486   3.237   0.248  0.5103 -1.9535  1.0137
10828SOL     OW34251   4.321   1.836   0.715 -0.1598  0.1054 -0.1505
10828SOL    HW134252   4.312   1.774   0.643  0.8587  0.0498 -0.2461
10828SOL    HW234253   4.350   1.783   0.789  1.3821  0.5468 -0.4093
10829SOL     OW34254   7.968   9.159   1.772  0.8764 -0.2216  0.2218
10829SOL    HW134255   7.975   9.084   1.831 -1.2942  0.4442  1.4611
10829SOL    HW234256   8.028   9.224   1.807  0.4438 -0.2517  1.0246
10830SOL     OW34257   3.325   7.478   8.411 -0.1400  0.4361  0.2501
10830SOL    HW134258   3.333   7.558   8.462 -0.7511  0.1177  0.8638
10830SOL    HW234259   3.341   7.408   8.474  1.0270  0.0793 -0.4150
10831SOL     OW34260   4.586   5.795   6.146  0.3017 -0.2708  0.2358
10831SOL    HW134261   4.669   5.790   6.193  0.1095  1.2768  0.7922
10831SOL    HW234262   4.608   5.780   6.054  0.9387 -1.5162  0.5739
10832SOL     OW34263   8.163   8.597   9.363  0.0547  0.2440  0.4278
10832SOL    HW134264   8.169   8.506   9.332 -0.6594  0.6443 -0.9493
10832SOL    HW234265   8.249   8.633   9.345 -0.3228  0.4509 -1.1337
10833SOL     OW34266   4.113   5.916   5.720 -0.1839  0.2117  0.3491
10833SOL    HW134267   4.136   5.827   5.692 -0.8110 -0.1799  1.0445
10833SOL    HW234268   4.167   5.973   5.665 -0.9358 -0.5271 -1.2263
10834SOL     OW34269   0.929   2.454   7.052  0.6240 -0.2679 -0.2891
10834SOL    HW134270   0.989   2.405   7.108  0.3437 -1.5805 -1.0889
10834SOL    HW234271   0.923   2.401   6.972 -0.7478  0.3917 -0.6468
10835SOL     OW34272   5.866   0.738   1.144 -0.1781 -0.2175  0.4436
10835SOL    HW134273   5.867   0.814   1.086 -0.7137  0.4695  1.3344
10835SOL    HW234274   5.795   0.754   1.206  1.2657 -0.2812  2.1893
10836SOL     OW34275   8.419   1.396   9.804 -0.5756  0.4564 -0.5020
10836SOL    HW134276   8.446   1.429   9.890 -3.1621 -0.3696  0.7188
10836SOL    HW234277   8.429   1.471   9.745  1.2186  1.0456  0.4645
10837SOL     OW34278   6.675   4.709   7.687 -0.2531 -0.4774 -0.4503
10837SOL    HW134279   6.702   4.691   7.777 -1.6764  1.0444  0.3567
10837SOL    HW234280   6.750   4.753   7.647  0.0670 -0.3267  0.3013
10838SOL     OW34281   2.030   3.614   3.862  0.2715  0.5863  0.3264
10838SOL    HW134282   1.988   3.537   3.825 -1.0100  0.5899  1.6629
10838SOL    HW234283   2.006   3.685   3.802  1.4217  0.0071 -0.8846
10839SOL     OW34284   1.744   1.797   3.841 -0.1766  0.3124 -0.2978
10839SOL    HW134285   1.836   1.780   3.821 -0.1554  1.8917 -1.8093
10839SOL    HW234286   1.699   1.717   3.814  0.6148  0.0212 -0.8051
10840SOL     OW34287   5.964   7.083   2.440  0.0745 -0.0286  0.3225
10840SOL    HW134288   5.942   7.002   2.486  0.0945 -0.3420 -0.2131
10840SOL    HW234289   5.880   7.128   2.430  0.0871  0.0938  0.7633
10841SOL     OW34290   2.397   9.839   3.776  0.5285 -0.1605 -0.1435
10841SOL    HW134291   2.444   9.770   3.822 -1.1082 -1.3744 -0.2108
10841SOL    HW234292   2.365   9.897   3.845  0.7596 -0.2146  0.0099
10842SOL     OW34293   9.254   0.324   2.723 -0.1819  0.1221 -0.3271
10842SOL    HW134294   9.233   0.414   2.700  1.8127  0.5231 -0.7468
10842SOL    HW234295   9.332   0.303   2.671 -0.3372 -1.6859  0.1099
10843SOL     OW34296   7.873   0.292   4.475  0.4369  0.4051  0.3994
10843SOL    HW134297   7.932   0.364   4.495  1.3626 -0.3168  0.3010
10843SOL    HW234298   7.926   0.229   4.427 -0.5392 -0.0396 -0.1308
10844SOL     OW34299   5.928   3.040   0.453 -0.2226 -0.2745 -0.0338
10844SOL    HW134300   5.913   3.000   0.539 -1.3318  0.0962 -0.0408
10844SOL    HW234301   5.924   3.134   0.470  2.7144 -0.0723  0.0480
10845SOL     OW34302   8.528   4.922   2.350 -0.3642  0.3153 -0.1205
10845SOL    HW134303   8.582   5.001   2.346 -0.8093  0.6310  0.1103
10845SOL    HW234304   8.478   4.931   2.431  0.7061 -0.9369  0.7343
10846SOL     OW34305   0.015   3.654   8.079  0.2847 -0.7498  0.1994
10846SOL    HW134306  -0.010   3.663   8.171  1.3634 -0.2042  0.4583
10846SOL    HW234307   0.109   3.634   8.081  0.0171 -2.2427 -0.7410
10847SOL     OW34308   3.291   0.288   5.406 -0.1529 -0.0796  0.3111
10847SOL    HW134309   3.241   0.219   5.451  0.4030 -2.3501 -2.2495
10847SOL    HW234310   3.228   0.327   5.345  0.4364 -1.0146 -0.9379
10848SOL     OW34311   6.768   6.571   4.097 -0.4407  0.1516  0.6048
10848SOL    HW134312   6.692   6.521   4.066 -0.6798  0.3301  0.8997
10848SOL    HW234313   6.783   6.539   4.186 -0.6367  0.6544  0.8186
10849SOL     OW34314   9.507   6.621   8.411  0.1348 -0.1091  0.5458
10849SOL    HW134315   9.450   6.608   8.487 -2.3806 -2.0780 -1.4790
10849SOL    HW234316   9.470   6.697   8.366 -0.3363 -0.7907 -0.2546
10850SOL     OW34317   6.724   0.422   8.973  0.3577  0.1324 -0.8565
10850SOL    HW134318   6.778   0.499   8.960  0.4381  0.2678  0.1976
10850SOL    HW234319   6.784   0.348   8.960  1.3914  0.2743  2.3731
10851SOL     OW34320   1.627   5.565   6.932 -0.4468  0.3246 -0.2649
10851SOL    HW134321   1.672   5.512   6.998  0.8063  2.8986  1.1041
10851SOL    HW234322   1.541   5.524   6.922 -0.0977 -1.0539  1.8493
10852SOL     OW34323   7.914   4.067   2.770 -0.2153 -0.3001  0.0935
10852SOL    HW134324   7.968   4.114   2.833 -1.6135 -0.0600  1.1759
10852SOL    HW234325   7.828   4.109   2.777 -1.0688 -1.9469 -0.1135
10853SOL     OW34326   2.883   1.302   9.432  0.5065 -0.9355  0.3939
10853SOL    HW134327   2.891   1.227   9.373  0.0636  0.9240 -2.2026
10853SOL    HW234328   2.970   1.310   9.472  1.0790 -1.8110 -0.6182
10854SOL     OW34329   8.557   7.425   8.654 -0.7038  0.0637  0.3123
10854SOL    HW134330   8.643   7.383   8.656  0.5200  2.4118  1.0530
10854SOL    HW234331   8.533   7.427   8.562  0.3538 -0.0196  0.0212
10855SOL     OW34332   1.266   3.633   0.999  0.1244 -0.1606  0.0269
10855SOL    HW134333   1.207   3.639   0.924  1.9429  2.2741 -1.3691
10855SOL    HW234334   1.209   3.630   1.075 -1.7883  0.1141 -1.3317
10856SOL     OW34335   2.237   6.396   6.618  0.1045  0.0336 -0.4313
10856SOL    HW134336   2.171   6.407   6.687  1.0411 -0.9499  0.6620
10856SOL    HW234337   2.316   6.372   6.665  1.1728  0.8415 -1.7568
10857SOL     OW34338   5.677   5.802   6.502  0.0892  0.2308  0.4038
10857SOL    HW134339   5.633   5.839   6.425 -1.7664  1.2227  1.8514
10857SOL    HW234340   5.745   5.866   6.522  1.2595 -0.5361 -0.9513
10858SOL     OW34341   4.533   9.838   3.321  0.1757  0.1257 -0.4457
10858SOL    HW134342   4.560   9.828   3.412  0.3489  1.0312 -0.3856
10858SOL    HW234343   4.613   9.863   3.275 -0.3758  2.1492 -0.3911
10859SOL     OW34344   8.442   1.959   6.019 -0.3062 -0.1509  0.0559
10859SOL    HW134345   8.496   2.033   5.989  3.5963 -2.9411 -0.5443
10859SOL    HW234346   8.389   1.996   6.090  2.4970  2.9989  0.8109
10860SOL     OW34347   1.978   7.069   8.939  0.0199  0.4249  0.2581
10860SOL    HW134348   1.924   7.093   9.013 -0.1685  0.9323 -0.0400
10860SOL    HW234349   1.993   7.151   8.892  1.9483  0.4952  0.9108
10861SOL     OW34350   9.029   8.028   8.906  0.5282 -0.3516  0.0135
10861SOL    HW134351   9.010   8.012   8.814  3.4560 -1.9192 -0.4134
10861SOL    HW234352   9.093   8.099   8.906 -0.3084  0.4391  0.9581
10862SOL     OW34353   8.990   7.698   3.668  0.4021  0.2477 -0.7127
10862SOL    HW134354   8.980   7.777   3.615  2.5403  0.9681 -0.1368
10862SOL    HW234355   8.973   7.727   3.757  2.0466  0.3121 -0.3874
10863SOL     OW34356   8.024   0.498   8.815  0.2349 -0.2509  0.4730
10863SOL    HW134357   8.088   0.429   8.833  0.4401 -0.3011 -0.4111
10863SOL    HW234358   8.061   0.547   8.741 -0.3753  0.2043  0.4569
10864SOL     OW34359   0.299   2.807   7.046 -0.1450  0.4232 -0.0330
10864SOL    HW134360   0.233   2.854   6.996  0.1050  0.0286 -0.7459
10864SOL    HW234361   0.285   2.715   7.024 -1.0740  0.0606  1.8713
10865SOL     OW34362   9.399   2.136   3.320 -0.3852  0.0516  0.4259
10865SOL    HW134363   9.481   2.185   3.309 -0.1581 -0.5177 -0.5525
10865SOL    HW234364   9.355   2.179   3.393  1.2483 -0.2564  1.6640
10866SOL     OW34365   7.269   4.367   3.695  0.4196 -0.1843  0.3667
10866SOL    HW134366   7.338   4.430   3.716  1.1041  0.3275 -2.8976
10866SOL    HW234367   7.206   4.416   3.643  0.3247 -1.8170 -1.1944
10867SOL     OW34368   3.188   7.015   6.734 -0.5211 -0.4022 -0.6864
10867SOL    HW134369   3.249   6.948   6.703 -2.0495 -1.7110 -0.9756
10867SOL    HW234370   3.205   7.020   6.828  0.6607 -0.0534 -0.8946
10868SOL     OW34371   5.359   0.923   1.042 -0.3419  0.3438 -0.0709
10868SOL    HW134372   5.312   0.872   0.976 -2.2958  1.7210  0.1741
10868SOL    HW234373   5.347   0.874   1.123 -0.2990  0.0628 -0.2334
10869SOL     OW34374   2.876   0.083   8.099  0.2444  0.0540 -0.3755
10869SOL    HW134375   2.880   0.179   8.102 -1.3475  0.1704 -0.6530
10869SOL    HW234376   2.797   0.065   8.048 -0.0113 -1.3941  0.4794
10870SOL     OW34377   2.616   8.788   9.105 -0.7398  0.1840  0.0018
10870SOL    HW134378   2.592   8.877   9.132 -0.4604  0.2772 -0.0443
10870SOL    HW234379   2.712   8.786   9.115 -0.9080 -0.7407  1.9037
10871SOL     OW34380   8.286   9.353   6.388 -0.4833  0.2398  0.2893
10871SOL    HW134381   8.366   9.406   6.390  0.9856 -1.8223  0.2236
10871SOL    HW234382   8.253   9.355   6.478  1.4170 -1.3085  1.0886
10872SOL     OW34383   9.783   8.099   9.493 -0.0737 -0.1266 -0.1499
10872SOL    HW134384   9.804   8.098   9.400 -2.0554 -1.3900 -0.6556
10872SOL    HW234385   9.867   8.093   9.538  1.1005  2.5029 -1.7531
10873SOL     OW34386   1.652   8.604   8.782  0.7754 -0.0188  0.2404
10873SOL    HW134387   1.578   8.663   8.795 -1.1220 -2.3401  0.7724
10873SOL    HW234388   1.712   8.623   8.854 -0.3017  0.5289  1.0147
10874SOL     OW34389   1.030   4.596   3.054  0.1396  0.3748 -0.2892
10874SOL    HW134390   1.035   4.508   3.017  0.5015  0.5105 -0.5672
10874SOL    HW234391   0.964   4.589   3.123  1.3867 -0.5215  0.8641
10875SOL     OW34392   3.119   7.130   8.699 -0.1014 -0.0263 -0.6547
10875SOL    HW134393   3.089   7.056   8.646 -0.5984  0.3021 -0.8421
10875SOL    HW234394   3.044   7.189   8.702 -1.0069 -1.1158  2.4386
10876SOL     OW34395   3.280   3.342   7.554 -0.2969 -0.4561 -0.3945
10876SOL    HW134396   3.285   3.387   7.638  0.6570 -0.8863 -0.2070
10876SOL    HW234397   3.280   3.412   7.489  3.2604 -0.1015 -0.2112
10877SOL     OW34398   2.248   3.911   5.290  0.1723 -0.1076 -0.1167
10877SOL    HW134399   2.251   3.897   5.384 -0.1266  0.2865 -0.0450
10877SOL    HW234400   2.337   3.894   5.260  0.2483 -0.3151  0.2247
10878SOL     OW34401   9.761   3.353   3.574  0.3299 -0.2933 -0.2133
10878SOL    HW134402   9.786   3.420   3.510  0.0418  1.0936  1.0750
10878SOL    HW234403   9.844   3.322   3.610  0.4723 -0.7779 -0.9339
10879SOL     OW34404   7.366   1.299   8.233  0.1206  0.2382  0.0215
10879SOL    HW134405   7.419   1.274   8.308 -1.4487 -0.4993  0.9385
10879SOL    HW234406   7.312   1.372   8.264  0.9304  1.3505 -1.0571
10880SOL     OW34407   9.731   1.111   1.789 -0.2062 -0.4499 -0.3698
10880SOL    HW134408   9.671   1.039   1.808  1.0559 -1.4627 -0.0422
10880SOL    HW234409   9.808   1.092   1.843 -0.5016  2.1237  1.1079
10881SOL     OW34410   4.039   5.998   4.535  0.1614  0.4307 -0.1820
10881SOL    HW134411   4.013   5.939   4.606 -1.7227  1.1124 -0.2275
10881SOL    HW234412   3.982   5.975   4.462  0.8508  0.9192 -0.8982
10882SOL     OW34413   8.491   5.591   9.699  0.0659 -0.1954 -0.2732
10882SOL    HW134414   8.473   5.552   9.784 -0.9549 -0.3827 -0.5655
10882SOL    HW234415   8.571   5.548   9.670  0.4458 -0.1037  0.5975
10883SOL     OW34416   5.419   9.246   6.430 -0.1442 -0.2625  0.0340
10883SOL    HW134417   5.362   9.187   6.380 -1.1303  1.2357 -0.6875
10883SOL    HW234418   5.485   9.276   6.368  0.3970 -0.6478  0.4142
10884SOL     OW34419   5.716   4.419   6.985  0.1616 -0.5685 -0.0277
10884SOL    HW134420   5.747   4.386   6.901  0.6428  0.9018 -0.4583
10884SOL    HW234421   5.774   4.378   7.049  0.0763 -1.3588 -0.4422
10885SOL     OW34422   9.789   9.500   3.050  0.8653  0.2802 -0.5446
10885SOL    HW134423   9.810   9.406   3.044  0.1336  0.0591  0.3142
10885SOL    HW234424   9.694   9.504   3.044  0.6180  0.6932  2.4112
10886SOL     OW34425   5.271   4.410   2.998  0.5634  0.6773 -0.4873
10886SOL    HW134426   5.288   4.394   2.905 -0.9213  0.5254 -0.7471
10886SOL    HW234427   5.178   4.431   3.003  0.1676 -1.1514  1.1811
10887SOL     OW34428   7.100   3.864   2.419  0.3301  0.2058  0.0864
10887SOL    HW134429   7.135   3.890   2.334 -0.1672  0.0671 -0.1675
10887SOL    HW234430   7.053   3.942   2.450  0.9055  0.4126  0.4542
10888SOL     OW34431   3.058   6.118   0.105 -0.8345 -0.3570  0.3780
10888SOL    HW134432   3.120   6.072   0.048  0.6286  0.0660  1.5664
10888SOL    HW234433   3.053   6.063   0.184 -1.5006 -0.0745  0.5362
10889SOL     OW34434   9.264   8.488   9.797  0.5362  0.3302  0.1253
10889SOL    HW134435   9.250   8.566   9.744 -0.4962  0.4444  0.5234
10889SOL    HW234436   9.270   8.521   9.887 -0.2320 -0.0613  0.3311
10890SOL     OW34437   4.739   9.205   4.028  0.5510 -0.0879  0.9568
10890SOL    HW134438   4.788   9.141   4.079 -0.2128 -0.4655  1.2275
10890SOL    HW234439   4.767   9.290   4.062  0.2132 -0.3338  1.8622
10891SOL     OW34440   1.102   8.739   0.294  0.1076  0.4358 -0.2817
10891SOL    HW134441   1.109   8.743   0.198 -0.4335  0.8392 -0.3069
10891SOL    HW234442   1.019   8.781   0.314 -0.1126 -0.2732  0.3288
10892SOL     OW34443   1.758   3.085   9.056 -0.2841 -0.2890  0.2155
10892SOL    HW134444   1.824   3.151   9.075 -0.1894 -0.0912 -0.7394
10892SOL    HW234445   1.685   3.134   9.017 -0.9348 -0.5274  1.0940
10893SOL     OW34446   4.887   7.858   5.831 -0.1623 -0.2698  0.1927
10893SOL    HW134447   4.889   7.780   5.777  1.5636 -1.3870  1.7691
10893SOL    HW234448   4.797   7.864   5.862 -0.8503 -0.3344 -1.7155
10894SOL     OW34449   0.977   3.120   6.890 -0.0400  0.0860 -0.4475
10894SOL    HW134450   0.972   3.184   6.819  2.6738 -0.3055 -1.0979
10894SOL    HW234451   0.924   3.046   6.859 -1.0714  0.9765 -0.8526
10895SOL     OW34452   0.271   2.406   7.690  0.1427 -0.3242  0.7761
10895SOL    HW134453   0.177   2.387   7.699 -0.1118 -0.9374 -2.2440
10895SOL    HW234454   0.280   2.496   7.721 -2.1378  0.9811 -1.8789
10896SOL     OW34455   3.379   2.781   2.200  0.3840  0.1107  0.1766
10896SOL    HW134456   3.385   2.694   2.239 -0.5846  0.5377  1.3261
10896SOL    HW234457   3.291   2.786   2.164  0.5629  0.4841 -0.2228
10897SOL     OW34458   1.542   3.099   1.190 -0.4518 -0.3789 -0.0857
10897SOL    HW134459   1.465   3.061   1.147 -0.9739  0.2169  0.3143
10897SOL    HW234460   1.585   3.151   1.121 -0.2782 -0.8863 -0.3667
10898SOL     OW34461   4.443   8.098   9.317  0.0396 -0.1808  0.0525
10898SOL    HW134462   4.379   8.120   9.249  0.3309  0.2501 -0.0836
10898SOL    HW234463   4.422   8.158   9.389 -0.4064 -0.7809  0.4301
10899SOL     OW34464   3.542   3.299   0.665 -0.2143 -0.8103 -0.1338
10899SOL    HW134465   3.529   3.389   0.633 -1.3650 -1.4924 -1.7158
10899SOL    HW234466   3.634   3.296   0.692 -0.5144  1.2314  1.3225
10900SOL     OW34467   7.793   5.133   7.785  0.1996 -0.1329 -0.4783
10900SOL    HW134468   7.802   5.135   7.880  0.2065  1.2547 -0.4754
10900SOL    HW234469   7.846   5.058   7.757 -0.6941 -1.2259  0.6728
10901SOL     OW34470   6.822   4.707   3.752 -0.1090 -0.3903 -0.0868
10901SOL    HW134471   6.792   4.626   3.710 -1.6146 -0.0630  0.2983
10901SOL    HW234472   6.852   4.761   3.679  1.2198 -1.3791 -0.3246
10902SOL     OW34473   6.887   8.606   1.714 -0.3042  0.0069  0.1317
10902SOL    HW134474   6.905   8.689   1.757  2.2826  0.2528 -1.2048
10902SOL    HW234475   6.824   8.628   1.645 -0.3549  0.6586  0.3787
10903SOL     OW34476   8.301   3.658   5.118  0.1755 -0.4240  0.1905
10903SOL    HW134477   8.259   3.744   5.127  0.9468 -0.1273  1.0307
10903SOL    HW234478   8.395   3.677   5.113  0.4006 -1.2522  1.0337
10904SOL     OW34479   9.581   4.843   4.935 -0.2748  0.0931  0.2727
10904SOL    HW134480   9.591   4.769   4.995  0.3840  1.1144  1.4620
10904SOL    HW234481   9.656   4.837   4.876  0.7423  0.7555  1.4511
10905SOL     OW34482   6.841   4.548   3.405 -0.1334 -0.1244  0.1047
10905SOL    HW134483   6.750   4.570   3.426  0.2882  0.2592  1.5884
10905SOL    HW234484   6.833   4.481   3.337 -1.5546 -0.8280  0.9050
10906SOL     OW34485   6.208   3.578   9.383  0.0707  0.3934  0.4078
10906SOL    HW134486   6.302   3.590   9.396  0.4112 -1.3520 -0.2402
10906SOL    HW234487   6.186   3.504   9.439 -0.5005 -0.5153 -0.9769
10907SOL     OW34488   7.436   0.525   8.835 -0.0911 -0.2319 -0.6722
10907SOL    HW134489   7.418   0.447   8.886 -0.2392 -0.4376 -1.0368
10907SOL    HW234490   7.502   0.573   8.886 -0.9916  0.0829  0.2296
10908SOL     OW34491   3.183   4.189   6.213  0.3752 -0.2932  0.1484
10908SOL    HW134492   3.190   4.277   6.251  0.5986 -0.6209  0.8772
10908SOL    HW234493   3.156   4.133   6.286 -0.6748 -0.6780 -0.5228
10909SOL     OW34494   7.601   1.850   7.069  0.2732  0.1083  0.6435
10909SOL    HW134495   7.592   1.802   7.152  0.9750 -0.8682  0.1647
10909SOL    HW234496   7.690   1.886   7.071  0.9365 -1.3974 -0.4380
10910SOL     OW34497   8.454   4.234   2.758 -0.2893  0.3017  0.5003
10910SOL    HW134498   8.504   4.153   2.771  0.0565  0.6490  1.3472
10910SOL    HW234499   8.512   4.303   2.789 -1.1303  0.7503  1.0898
10911SOL     OW34500   5.254   6.942   2.352 -0.1408 -0.2818  0.0217
10911SOL    HW134501   5.302   6.976   2.428  0.1438 -3.7399  1.5843
10911SOL    HW234502   5.216   6.860   2.383 -0.2489 -1.7332 -3.5581
10912SOL     OW34503   9.678   3.972   9.620  0.2849  0.7913 -0.4671
10912SOL    HW134504   9.648   3.887   9.589 -1.5974  1.3240 -0.2606
10912SOL    HW234505   9.719   3.954   9.705  1.6943 -0.1237 -1.2985
10913SOL     OW34506   1.929   4.562   8.450 -0.5058  0.2969 -0.4085
10913SOL    HW134507   1.852   4.619   8.460  0.3845  1.5955 -0.5931
10913SOL    HW234508   1.902   4.497   8.386 -1.8236  0.0241  0.3784
10914SOL     OW34509   6.847   8.796   6.556  0.3356 -0.1993 -0.2588
10914SOL    HW134510   6.803   8.714   6.535  0.3568 -0.0044 -1.1128
10914SOL    HW234511   6.927   8.795   6.502 -0.6685  1.2999 -1.9036
10915SOL     OW34512   9.834   6.649   5.728 -0.3272  0.2393  0.2432
10915SOL    HW134513   9.786   6.582   5.680 -0.3659 -0.5650  1.3509
10915SOL    HW234514   9.783   6.660   5.809  0.4071  0.6407  0.6551
10916SOL     OW34515   7.450   5.518   4.628  0.1596 -0.3968 -0.1946
10916SOL    HW134516   7.428   5.425   4.621  1.3751 -0.9339  2.0961
10916SOL    HW234517   7.504   5.535   4.551  1.1412 -2.0082  0.0767
10917SOL     OW34518   2.278   3.440   8.782 -0.0898  0.3646  0.2413
10917SOL    HW134519   2.360   3.400   8.754 -0.5249 -0.2046 -0.2475
10917SOL    HW234520   2.304   3.506   8.846  0.8532  0.9807 -0.7253
10918SOL     OW34521   6.391   6.763   4.684 -0.1464 -0.0752  0.4138
10918SOL    HW134522   6.340   6.683   4.695  0.5022 -0.5333  0.1573
10918SOL    HW234523   6.476   6.743   4.724  0.2910  0.1982 -0.3633
10919SOL     OW34524   8.796   0.351   6.847 -0.1056  0.2178  0.3091
10919SOL    HW134525   8.769   0.441   6.827  0.8526  0.1945 -1.2323
10919SOL    HW234526   8.733   0.297   6.799 -1.6701 -0.0278  2.4967
10920SOL     OW34527   0.848   6.699   3.813 -0.2621 -0.6494  0.0127
10920SOL    HW134528   0.777   6.741   3.764  0.5569 -0.2755 -0.8883
10920SOL    HW234529   0.844   6.607   3.788 -1.7238 -1.0555  1.5790
10921SOL     OW34530   7.476   3.182   3.730 -0.1963 -0.2170 -0.3280
10921SOL    HW134531   7.488   3.117   3.800 -2.0198  0.6794  0.8720
10921SOL    HW234532   7.506   3.264   3.768  1.6098 -0.1754 -1.6728
10922SOL     OW34533   6.590   0.360   1.132 -0.3971 -0.0049  0.2081
10922SOL    HW134534   6.577   0.409   1.051 -0.9619 -2.0753 -1.0130
10922SOL    HW234535   6.514   0.384   1.186 -0.8680  0.1528 -0.5147
10923SOL     OW34536   3.787   4.146   2.861  1.0357 -0.1656 -0.3234
10923SOL    HW134537   3.745   4.087   2.923  0.8011  1.2927  0.9597
10923SOL    HW234538   3.802   4.093   2.783 -0.4077 -1.5326  0.2890
10924SOL     OW34539   4.965   5.868   4.582 -0.4594 -0.5234  0.7328
10924SOL    HW134540   4.988   5.838   4.670 -0.9737  2.2507  1.9231
10924SOL    HW234541   5.049   5.887   4.540 -0.2184 -1.6725  0.6655
10925SOL     OW34542   6.152   0.640   6.395 -0.1270 -0.2623  0.6383
10925SOL    HW134543   6.142   0.723   6.348 -0.6486 -1.1042 -0.7923
10925SOL    HW234544   6.246   0.623   6.394 -0.1120 -0.1541  0.1216
10926SOL     OW34545   1.805   4.972   8.895  0.7697  0.2326  0.0002
10926SOL    HW134546   1.762   4.941   8.975  1.0709 -0.1571  0.0148
10926SOL    HW234547   1.898   4.972   8.917  1.0095 -1.4599 -0.8729
10927SOL     OW34548   3.604   8.164   8.378  0.1368  0.3469 -0.7713
10927SOL    HW134549   3.678   8.186   8.434  0.8904  0.8056 -1.9009
10927SOL    HW234550   3.543   8.237   8.389 -0.0696  0.0615  0.0179
10928SOL     OW34551   2.209   2.666   4.580  0.0931 -0.2964 -0.9145
10928SOL    HW134552   2.250   2.751   4.598  1.3164 -0.0238 -4.3434
10928SOL    HW234553   2.199   2.626   4.667 -0.4132  3.2169  0.8286
10929SOL     OW34554   4.822   2.264   2.049 -0.4838  1.3447  0.0501
10929SOL    HW134555   4.881   2.202   2.093 -1.2824 -0.1313 -0.8824
10929SOL    HW234556   4.767   2.298   2.120 -3.2943 -2.6865  0.1710
10930SOL     OW34557   4.153   4.025   0.277  0.5396 -0.2084  0.1112
10930SOL    HW134558   4.119   4.106   0.314  2.3709  1.2687 -1.2129
10930SOL    HW234559   4.100   4.010   0.199 -1.1754 -1.5167  1.4586
10931SOL     OW34560   7.633   3.810   2.855  0.4049 -0.0859  0.0504
10931SOL    HW134561   7.599   3.879   2.798  1.7738  0.3297 -0.2949
10931SOL    HW234562   7.568   3.740   2.848 -1.9099  1.7383  1.7112
10932SOL     OW34563   7.245   6.995   8.465  0.4563  0.3375  0.1700
10932SOL    HW134564   7.248   6.916   8.412  2.2423 -0.2912  1.1337
10932SOL    HW234565   7.336   7.020   8.476 -0.0096  1.8155  0.9677
10933SOL     OW34566   1.251   2.082   1.988  0.4245  0.3083 -0.3029
10933SOL    HW134567   1.259   2.004   1.934  1.4189  1.3444 -1.7271
10933SOL    HW234568   1.331   2.132   1.971 -0.6848  2.1821 -0.3265
10934SOL     OW34569   1.066   0.047   8.291 -0.1388  0.1089  0.0738
10934SOL    HW134570   1.002  -0.024   8.289  1.3235 -1.3379  1.2944
10934SOL    HW234571   1.132   0.021   8.226 -0.3536  1.1601 -0.5892
10935SOL     OW34572   8.973   2.793   2.470  0.3786  0.5272 -0.1584
10935SOL    HW134573   9.016   2.714   2.501 -1.8830 -0.7792 -0.1216
10935SOL    HW234574   8.915   2.819   2.542 -0.6978  0.7836 -1.0800
10936SOL     OW34575   6.801   3.741   9.114 -0.1702 -0.0011  0.1896
10936SOL    HW134576   6.819   3.705   9.200 -3.2802  0.6028  1.2050
10936SOL    HW234577   6.859   3.693   9.055  1.7680 -0.7017  2.5082
10937SOL     OW34578   4.138   5.879   3.474  0.0665  0.1635  0.2421
10937SOL    HW134579   4.186   5.870   3.391  0.5386  0.0704  0.5202
10937SOL    HW234580   4.125   5.974   3.483  0.0024  0.1730  0.0531
10938SOL     OW34581   7.257   8.574   4.576  0.2915 -0.0978 -0.0956
10938SOL    HW134582   7.330   8.560   4.636  0.9676 -0.7256 -1.0292
10938SOL    HW234583   7.259   8.668   4.558  0.9506 -0.1250 -0.1980
10939SOL     OW34584   7.363   1.493   1.482  0.0161  0.2227  0.4299
10939SOL    HW134585   7.385   1.413   1.434  1.3048 -0.2980  1.8008
10939SOL    HW234586   7.360   1.466   1.574 -1.3649  1.3985  0.7687
10940SOL     OW34587   5.072   2.230   5.124  0.3450 -0.4150  0.2308
10940SOL    HW134588   5.145   2.242   5.185 -0.5335 -1.6085  1.5740
10940SOL    HW234589   4.995   2.262   5.172 -0.3642 -1.3536 -0.2463
10941SOL     OW34590   2.009   2.254   4.457  0.0149  0.4299 -0.0166
10941SOL    HW134591   2.022   2.325   4.519  1.4207 -0.0485  0.2776
10941SOL    HW234592   1.935   2.204   4.493 -0.4442  1.2650  0.2109
10942SOL     OW34593   8.298   6.498   2.956  0.0067  0.0780  0.0538
10942SOL    HW134594   8.343   6.417   2.981 -0.2646  0.2393  1.0880
10942SOL    HW234595   8.278   6.486   2.863 -2.0049 -1.9934  0.6625
10943SOL     OW34596   1.553   7.747   6.134  0.1310 -0.0092 -0.0439
10943SOL    HW134597   1.616   7.813   6.164  0.4686  0.4054 -1.5597
10943SOL    HW234598   1.527   7.777   6.047 -1.0379 -0.9770 -0.0496
10944SOL     OW34599   8.626   9.176   5.399  0.0307  0.0524 -0.1248
10944SOL    HW134600   8.563   9.223   5.344  0.1225  1.2821  0.7891
10944SOL    HW234601   8.650   9.099   5.347 -0.2407  0.9276 -1.6053
10945SOL     OW34602   2.496   7.339   3.294 -1.0651  0.3354  0.2503
10945SOL    HW134603   2.549   7.418   3.289  0.0166 -0.4299 -1.1565
10945SOL    HW234604   2.503   7.312   3.386 -2.3583  2.4214  1.0197
10946SOL     OW34605   0.385   4.057   8.073 -0.0402  0.3309  0.2508
10946SOL    HW134606   0.366   4.013   7.990 -0.7017  1.8994 -0.4647
10946SOL    HW234607   0.348   3.999   8.139  3.3354 -2.6585 -0.1455
10947SOL     OW34608   3.236   3.544   8.691  0.2370 -0.7442  0.3922
10947SOL    HW134609   3.196   3.462   8.661 -0.5774  0.5390 -2.2314
10947SOL    HW234610   3.162   3.602   8.708  0.8501 -0.0349  0.6532
10948SOL     OW34611   6.412   7.186   9.369 -0.0241  0.6645  0.3352
10948SOL    HW134612   6.362   7.128   9.425 -2.8227  2.2529 -0.3463
10948SOL    HW234613   6.482   7.220   9.426  0.4766 -1.7460  1.2698
10949SOL     OW34614   5.229   8.998   2.154  0.1704  0.1572  0.4657
10949SOL    HW134615   5.290   8.955   2.094  0.7689  0.4136  0.8814
10949SOL    HW234616   5.273   8.998   2.238 -0.5897 -0.0306  0.8728
10950SOL     OW34617   4.249   3.662   6.184 -0.2143  0.5596  0.0251
10950SOL    HW134618   4.277   3.652   6.093 -1.7491  0.4958 -0.4694
10950SOL    HW234619   4.156   3.686   6.178 -0.0853  1.5696  1.5494
10951SOL     OW34620   6.280   7.873   4.261  0.4426  0.2678 -0.5511
10951SOL    HW134621   6.330   7.947   4.294 -1.8054  1.4390  0.5034
10951SOL    HW234622   6.249   7.828   4.340 -0.3724 -0.2416 -1.1382
10952SOL     OW34623   5.651   9.313   5.376  0.6422 -0.0781  0.0274
10952SOL    HW134624   5.561   9.331   5.402  0.0332  0.5777 -2.2665
10952SOL    HW234625   5.648   9.223   5.342  1.4636 -1.0063  2.2604
10953SOL     OW34626   0.716   9.376   2.033 -0.1283 -0.0261  0.2695
10953SOL    HW134627   0.662   9.298   2.045 -0.2757 -0.1427 -1.0643
10953SOL    HW234628   0.803   9.349   2.063  0.0132 -0.9865 -0.9120
10954SOL     OW34629   2.621   5.496   3.902  0.0883 -0.4697 -0.4249
10954SOL    HW134630   2.564   5.429   3.865  0.2492 -0.7383 -0.1851
10954SOL    HW234631   2.668   5.531   3.826 -1.0230  0.3693 -0.7497
10955SOL     OW34632   7.385   6.495   9.221  0.1973  1.0098  0.3650
10955SOL    HW134633   7.479   6.508   9.236 -0.1943  2.1525  2.0904
10955SOL    HW234634   7.355   6.577   9.181 -0.3889  1.3943  1.5625
10956SOL     OW34635   9.823   1.131   2.879 -0.0954  0.3740 -0.1047
10956SOL    HW134636   9.808   1.213   2.924 -0.4896  0.8768 -1.1205
10956SOL    HW234637   9.738   1.107   2.843 -0.2486 -1.0787  1.1191
10957SOL     OW34638   5.965   8.440   0.174 -0.3261 -0.5510  0.5549
10957SOL    HW134639   5.919   8.443   0.090 -0.0356  1.0842  0.4105
10957SOL    HW234640   6.053   8.410   0.153 -0.3071 -0.3141  0.2909
10958SOL     OW34641   4.380   1.238   9.201  0.3107 -0.8400  0.5184
10958SOL    HW134642   4.408   1.315   9.152 -1.7574 -0.7049 -0.5407
10958SOL    HW234643   4.359   1.271   9.289 -2.6359  0.3371 -0.5073
10959SOL     OW34644   2.310   8.442   5.474 -0.0789 -1.0594 -0.5405
10959SOL    HW134645   2.296   8.363   5.528  2.1443 -1.4023 -0.3518
10959SOL    HW234646   2.223   8.464   5.442 -1.1478 -2.2064  1.3156
10960SOL     OW34647   8.363   5.148   5.344  0.4259  0.4109 -0.1734
10960SOL    HW134648   8.371   5.059   5.308 -1.1033 -0.0886  0.6172
10960SOL    HW234649   8.359   5.135   5.439 -2.2619  1.0306 -0.1162
10961SOL     OW34650   9.349   4.775   7.127 -0.0155  0.0448  0.2089
10961SOL    HW134651   9.441   4.804   7.120  0.9038 -1.7361  3.1516
10961SOL    HW234652   9.330   4.779   7.221 -2.7390 -0.3917 -0.2421
10962SOL     OW34653   0.848   8.947   5.661  0.2112 -0.3594 -0.2078
10962SOL    HW134654   0.923   8.907   5.704  0.1562 -0.3580 -0.1097
10962SOL    HW234655   0.774   8.892   5.685  0.4423 -1.4368 -1.7854
10963SOL     OW34656   5.814   6.126   9.436  0.8046 -0.4169  0.2148
10963SOL    HW134657   5.849   6.118   9.525  0.6906  1.6698  0.4915
10963SOL    HW234658   5.875   6.184   9.391 -1.5450  2.3893  0.3685
10964SOL     OW34659   9.345   9.638   8.043  0.2437 -0.2100  0.2697
10964SOL    HW134660   9.400   9.600   7.975 -0.9993 -2.1266  0.2508
10964SOL    HW234661   9.271   9.676   7.996 -0.0693 -0.5524  0.4856
10965SOL     OW34662   8.644   1.555   1.734 -0.4843 -0.8387  0.2091
10965SOL    HW134663   8.729   1.595   1.753 -0.2093 -0.3596 -1.8164
10965SOL    HW234664   8.629   1.572   1.641 -2.5163 -1.4748  0.3597
10966SOL     OW34665   3.871   7.247   0.457  0.5880  0.0256  0.1984
10966SOL    HW134666   3.825   7.239   0.540 -0.4530 -1.7674 -0.5042
10966SOL    HW234667   3.806   7.280   0.395  1.0094  0.1336 -0.2009
10967SOL     OW34668   7.708   5.875   6.120  0.2677  0.1522 -0.0342
10967SOL    HW134669   7.789   5.859   6.168 -0.3816  0.5817  1.2419
10967SOL    HW234670   7.689   5.968   6.136  0.8637  0.7766 -2.4500
10968SOL     OW34671   6.257   8.137   5.210 -0.1162 -0.1354 -0.0086
10968SOL    HW134672   6.165   8.146   5.233 -0.0056  0.5530  0.1758
10968SOL    HW234673   6.282   8.052   5.246 -0.5218 -0.0568  0.4653
10969SOL     OW34674   8.579   4.865   8.736  0.0820  0.2352 -0.0362
10969SOL    HW134675   8.493   4.880   8.697  0.3436  1.5585 -0.1294
10969SOL    HW234676   8.594   4.771   8.724 -1.0197  0.1251 -0.6890
10970SOL     OW34677   7.886   0.501   1.267  0.5241 -0.0971 -0.1007
10970SOL    HW134678   7.802   0.546   1.282  0.5428  0.2630 -1.0363
10970SOL    HW234679   7.952   0.569   1.280  0.6844 -0.3775  0.6169
10971SOL     OW34680   1.545   5.199   8.767 -0.1985  0.1309  0.2506
10971SOL    HW134681   1.459   5.232   8.739  0.2986  3.4801  2.0743
10971SOL    HW234682   1.582   5.159   8.689 -2.4421  0.8279 -1.2725
10972SOL     OW34683   3.163   1.451   1.415 -0.3575 -0.7723 -0.1670
10972SOL    HW134684   3.202   1.489   1.493 -0.2241 -1.9803  0.3651
10972SOL    HW234685   3.084   1.407   1.445 -0.3816 -1.1348 -0.7341
10973SOL     OW34686   0.341   5.321   5.670 -0.0142 -0.2238  0.2193
10973SOL    HW134687   0.425   5.327   5.625 -1.4094 -1.4450 -2.8746
10973SOL    HW234688   0.360   5.278   5.753  2.1886 -2.2023 -1.1933
10974SOL     OW34689   6.016   2.870   3.694  0.2644  0.5873  0.2143
10974SOL    HW134690   6.014   2.926   3.616 -1.4077 -0.2884 -0.4159
10974SOL    HW234691   5.945   2.903   3.749  0.0195 -0.1704  0.3645
10975SOL     OW34692   8.359   5.773   3.367 -0.4198  0.2247  0.1138
10975SOL    HW134693   8.352   5.851   3.423 -0.0467  0.4991 -0.2154
10975SOL    HW234694   8.337   5.700   3.425  1.6988  0.2982  1.1319
10976SOL     OW34695   7.672   0.746   5.157  0.1515 -0.1018  0.0718
10976SOL    HW134696   7.626   0.724   5.076  0.8024  0.6896 -0.5254
10976SOL    HW234697   7.611   0.803   5.205 -0.3240 -0.7504  0.2587
10977SOL     OW34698   3.089   8.421   3.501 -0.1544  0.1667  1.8231
10977SOL    HW134699   3.057   8.447   3.415 -1.2916  0.0218  2.1815
10977SOL    HW234700   3.183   8.437   3.498 -0.3118  0.9975  0.8624
10978SOL     OW34701   4.424   3.323   3.586 -0.3836 -0.5130  0.1357
10978SOL    HW134702   4.483   3.293   3.517  1.7332 -0.8131  1.9602
10978SOL    HW234703   4.431   3.418   3.584 -0.8099 -0.4801 -0.3961
10979SOL     OW34704   1.312   7.939   2.085 -0.0144 -0.2776 -0.2775
10979SOL    HW134705   1.357   7.968   2.164  0.7470  1.3096 -1.2417
10979SOL    HW234706   1.239   7.999   2.074 -2.2557 -2.5611  1.0155
10980SOL     OW34707   7.613   0.561   2.100 -0.4526  0.2740 -0.2017
10980SOL    HW134708   7.677   0.629   2.118 -0.6836  1.4234 -3.1274
10980SOL    HW234709   7.530   0.609   2.090 -0.4444 -0.1727 -3.3062
10981SOL     OW34710   2.993   7.866   5.450 -0.1238  0.5563  0.4174
10981SOL    HW134711   3.033   7.827   5.528 -2.3196  0.9913  1.8587
10981SOL    HW234712   2.963   7.952   5.480  1.5573  1.9979 -1.7561
10982SOL     OW34713   5.535   3.721   9.050  0.9159 -0.2269  0.1409
10982SOL    HW134714   5.490   3.673   9.121 -1.4006  0.8724 -0.4753
10982SOL    HW234715   5.537   3.659   8.977 -1.3594  0.2495 -0.4054
10983SOL     OW34716   3.395   7.520   3.149 -0.6647  0.0061 -0.2028
10983SOL    HW134717   3.420   7.576   3.223 -1.6069  2.0062 -1.3219
10983SOL    HW234718   3.325   7.465   3.183 -0.3991  0.1798  0.6604
10984SOL     OW34719   3.629   2.374   2.767  0.2158  0.2846  0.0659
10984SOL    HW134720   3.590   2.389   2.853  0.5512 -2.3891  0.7534
10984SOL    HW234721   3.719   2.347   2.785  0.0990 -0.9666 -1.0495
10985SOL     OW34722   9.672   4.947   1.567  0.7308  0.1270 -0.2525
10985SOL    HW134723   9.662   4.852   1.559  2.3733 -0.7359  4.5632
10985SOL    HW234724   9.766   4.960   1.577  0.3712  1.8306  1.7277
10986SOL     OW34725   1.938   6.922   2.552 -0.7591 -0.3256 -0.3913
10986SOL    HW134726   2.029   6.902   2.532 -0.5889  0.3970 -0.3718
10986SOL    HW234727   1.888   6.855   2.506 -0.2250 -0.6440 -0.5169
10987SOL     OW34728   8.248   1.835   7.139  0.5454  0.4506  0.0672
10987SOL    HW134729   8.175   1.826   7.200 -0.1973 -0.1014 -0.8593
10987SOL    HW234730   8.313   1.888   7.185 -0.7821  1.6516  0.6073
10988SOL     OW34731   8.950   4.244   7.036  0.4284  0.3426  0.4269
10988SOL    HW134732   8.862   4.277   7.057 -0.0100  0.6497 -1.6952
10988SOL    HW234733   9.009   4.309   7.075 -0.2900  0.6857  0.9879
10989SOL     OW34734   9.203   8.228   9.749  0.4563 -0.4750  0.4440
10989SOL    HW134735   9.165   8.219   9.661 -2.0960  0.1947  1.3995
10989SOL    HW234736   9.206   8.322   9.764  1.6526 -0.5585  0.7986
10990SOL     OW34737   3.324   7.141   4.648 -0.1326  0.2687  0.1956
10990SOL    HW134738   3.390   7.150   4.717  0.7072  2.0197 -0.7864
10990SOL    HW234739   3.372   7.103   4.575 -0.5961  0.1283 -0.0398
10991SOL     OW34740   2.465   6.136   7.034  0.3153 -0.1027 -0.2855
10991SOL    HW134741   2.418   6.074   6.978 -0.2961  0.0577  0.0387
10991SOL    HW234742   2.432   6.119   7.122 -0.2557  1.0111 -0.2590
10992SOL     OW34743   0.424   0.707   9.683 -0.7284 -0.1273 -0.2107
10992SOL    HW134744   0.420   0.686   9.590  0.8622 -0.5714 -0.1969
10992SOL    HW234745   0.432   0.623   9.726 -0.2615  0.1493  0.2482
10993SOL     OW34746   4.470   3.110   2.823 -0.2123  0.0563  0.2285
10993SOL    HW134747   4.553   3.066   2.839 -0.2838 -0.9341 -1.8833
10993SOL    HW234748   4.493   3.189   2.774 -0.4895  0.0252  0.0483
10994SOL     OW34749   5.936   0.943   3.985 -0.1137 -0.0689 -0.3736
10994SOL    HW134750   5.907   1.032   4.004 -2.0185 -0.8554  0.7145
10994SOL    HW234751   6.031   0.950   3.976 -0.3454  2.3004 -1.8733
10995SOL     OW34752   0.296   4.213   2.163  0.4868 -0.3013 -0.2821
10995SOL    HW134753   0.388   4.231   2.182  0.3403 -1.5312  1.8571
10995SOL    HW234754   0.250   4.238   2.243 -1.0251 -0.0540 -1.1889
10996SOL     OW34755   7.299   5.583   7.047  0.3733 -0.1734  0.2707
10996SOL    HW134756   7.307   5.590   6.952 -0.5684 -0.6364  0.1401
10996SOL    HW234757   7.389   5.584   7.080  0.6782  0.7003 -0.5664
10997SOL     OW34758   3.885   2.282   2.831  0.3219 -0.3352  0.0363
10997SOL    HW134759   3.942   2.243   2.764 -0.3612  0.8788 -1.3340
10997SOL    HW234760   3.944   2.303   2.903  1.1849 -1.2341 -0.3767
10998SOL     OW34761   6.943   1.911   5.697 -0.5669 -0.3016 -0.2839
10998SOL    HW134762   6.964   1.817   5.697  1.0250 -0.0004  1.3226
10998SOL    HW234763   6.861   1.917   5.744  1.0842 -0.6597  2.8970
10999SOL     OW34764   4.711   2.113   5.296  0.2093  0.4237  0.3687
10999SOL    HW134765   4.665   2.107   5.380  0.4285  1.9300  0.6175
10999SOL    HW234766   4.657   2.170   5.242 -0.0189 -0.6712 -0.6039
11000SOL     OW34767   3.117   3.486   1.970  0.1982 -0.1664 -0.1323
11000SOL    HW134768   3.111   3.531   2.055  2.6853  0.6808 -0.3275
11000SOL    HW234769   3.033   3.441   1.961  0.2356 -1.1897  3.2705
11001SOL     OW34770   3.928   5.227   9.550 -0.4081 -0.6344 -0.2117
11001SOL    HW134771   4.024   5.233   9.555 -0.2721 -2.5642  0.6896
11001SOL    HW234772   3.902   5.300   9.494  1.6061 -0.2006 -0.6717
11002SOL     OW34773   4.587   3.002   3.851 -1.0096  0.1311  0.3194
11002SOL    HW134774   4.502   3.046   3.861  0.4505  2.8691  1.9062
11002SOL    HW234775   4.591   2.977   3.759 -2.4402  2.4545 -0.4559
11003SOL     OW34776   7.623   1.948   3.969  0.3786  0.6079 -0.0235
11003SOL    HW134777   7.606   1.934   4.062  2.4165 -3.2693  0.0109
11003SOL    HW234778   7.580   1.874   3.926  1.9666  0.6341 -1.7641
11004SOL     OW34779   4.396   5.974   3.999 -0.1748  0.0887  0.2558
11004SOL    HW134780   4.310   5.933   4.004 -0.6182  0.6906 -1.5972
11004SOL    HW234781   4.378   6.068   4.006  0.3418  0.2104 -0.0269
11005SOL     OW34782   3.474   3.466   4.945  0.3217 -0.4579 -0.4309
11005SOL    HW134783   3.393   3.515   4.930  0.5263  0.1402  0.3196
11005SOL    HW234784   3.449   3.374   4.934 -0.6005 -0.3250  0.3533
11006SOL     OW34785   8.290   5.925   0.408 -0.4266 -0.4116 -0.1651
11006SOL    HW134786   8.372   5.972   0.424  0.2932 -1.6194 -0.2014
11006SOL    HW234787   8.224   5.975   0.455  0.1865  1.0160 -0.7523
11007SOL     OW34788   2.340   1.816   8.055 -0.0031 -0.7989  0.3122
11007SOL    HW134789   2.381   1.757   7.992  0.6650 -0.1538  0.1355
11007SOL    HW234790   2.412   1.868   8.090 -0.6878  0.4817 -0.1434
11008SOL     OW34791   9.623   2.535   6.098 -0.7807 -0.4205  0.1653
11008SOL    HW134792   9.679   2.475   6.048  1.1742 -1.0123  2.8259
11008SOL    HW234793   9.576   2.478   6.159  1.0025  0.6354  2.6528
11009SOL     OW34794   1.003   4.751   7.862 -0.4143  0.4804  0.7220
11009SOL    HW134795   1.012   4.834   7.816 -0.3612  0.4240  0.6292
11009SOL    HW234796   0.911   4.747   7.887 -0.4457  0.5063  0.6095
11010SOL     OW34797   2.471   3.262   7.539  0.1054  0.5018 -0.2257
11010SOL    HW134798   2.543   3.283   7.479  0.7201 -0.4905  0.1319
11010SOL    HW234799   2.457   3.342   7.590  0.3138  1.0032 -0.9412
11011SOL     OW34800   3.030   7.301   5.659  0.0690 -0.1312 -0.1065
11011SOL    HW134801   3.018   7.370   5.725 -0.6791  0.5473 -0.9112
11011SOL    HW234802   3.119   7.314   5.626 -0.8082  2.0700 -1.9336
11012SOL     OW34803   3.212   0.848   0.343 -0.3021  0.2849 -0.2144
11012SOL    HW134804   3.131   0.887   0.311 -0.2494  0.0761 -0.6112
11012SOL    HW234805   3.256   0.918   0.390  0.0817  0.8824 -1.4285
11013SOL     OW34806   2.497   5.310   0.057 -0.1913 -0.1317  0.2906
11013SOL    HW134807   2.458   5.381   0.006 -0.4719 -0.3241  0.2343
11013SOL    HW234808   2.454   5.314   0.142  1.3842  1.1847  1.0888
11014SOL     OW34809   9.364   0.009   4.895 -0.0122 -0.1585  0.6511
11014SOL    HW134810   9.403  -0.010   4.980 -0.3915  0.5585  0.9988
11014SOL    HW234811   9.384   0.101   4.879  2.1363 -0.8692 -1.1808
11015SOL     OW34812   0.201   1.543   6.148  0.3045 -0.3037 -0.6271
11015SOL    HW134813   0.160   1.456   6.151  0.7800 -0.5103  1.4507
11015SOL    HW234814   0.295   1.525   6.151  0.4288  0.2788 -0.8604
11016SOL     OW34815   2.253   7.897   8.398  0.6915 -0.1469  0.1730
11016SOL    HW134816   2.305   7.821   8.372  1.5529  0.6429 -0.4707
11016SOL    HW234817   2.245   7.950   8.319 -1.0050 -0.1705  0.2781
11017SOL     OW34818   4.593   6.681   9.655 -0.1714  0.1293 -0.7347
11017SOL    HW134819   4.646   6.623   9.601  0.0335 -0.6255  0.2439
11017SOL    HW234820   4.506   6.679   9.615  0.1043  0.0113 -1.3389
11018SOL     OW34821   0.675   6.059   0.289 -0.1125  0.6866 -0.3241
11018SOL    HW134822   0.626   5.986   0.250 -0.7726  0.6481  0.5480
11018SOL    HW234823   0.628   6.137   0.261 -1.4889  0.5941  1.5498
11019SOL     OW34824   3.128   5.278   5.501  0.0562  0.4083 -0.5407
11019SOL    HW134825   3.049   5.309   5.545  0.4565  2.6575 -1.2562
11019SOL    HW234826   3.160   5.207   5.556 -0.8152  1.4696  1.4340
11020SOL     OW34827   5.412   7.364   1.765  0.5665  0.2146 -0.0617
11020SOL    HW134828   5.449   7.318   1.840 -1.8095 -1.2845  0.2776
11020SOL    HW234829   5.407   7.455   1.793  0.2670 -0.2294  1.3877
11021SOL     OW34830   3.390   5.603   2.610  0.2473 -0.1008 -0.1350
11021SOL    HW134831   3.466   5.648   2.647  1.2467 -1.0150 -0.9942
11021SOL    HW234832   3.319   5.666   2.617  1.2343  1.0201  0.1305
11022SOL     OW34833   0.140   4.624   8.860 -0.0530 -0.5909 -0.6552
11022SOL    HW134834   0.147   4.610   8.955  1.4241  1.5547 -0.3746
11022SOL    HW234835   0.215   4.577   8.824 -0.7772 -1.6514 -0.8381
11023SOL     OW34836   7.664   5.392   5.661  0.1174  0.0194  0.2135
11023SOL    HW134837   7.636   5.312   5.616 -0.6408  0.7701 -0.6713
11023SOL    HW234838   7.759   5.382   5.669 -0.1245 -1.7210  1.6154
11024SOL     OW34839   7.157   8.576   9.505  0.3487 -0.2730  0.0754
11024SOL    HW134840   7.221   8.619   9.562 -0.0289  1.6581 -0.8571
11024SOL    HW234841   7.203   8.563   9.422 -0.1528  0.2703 -0.2997
11025SOL     OW34842   4.123   8.540   1.036 -0.1319  0.1579 -0.0031
11025SOL    HW134843   4.043   8.582   1.004 -0.0313 -0.5493 -1.2249
11025SOL    HW234844   4.131   8.570   1.127 -0.6472  1.9092 -0.4970
11026SOL     OW34845   2.548   1.239   6.669 -0.1382  1.0815 -0.3110
11026SOL    HW134846   2.506   1.324   6.686  0.8129  1.2178  1.6041
11026SOL    HW234847   2.478   1.175   6.682 -0.1558  1.4035  1.3467
11027SOL     OW34848   0.248   7.096   6.764  0.3636 -0.2257 -0.0927
11027SOL    HW134849   0.206   7.090   6.850  1.2101 -1.1934  0.2649
11027SOL    HW234850   0.319   7.158   6.776 -0.3118  0.6375 -0.4424
11028SOL     OW34851   5.008   0.368   6.938 -0.6257 -0.4029 -0.4005
11028SOL    HW134852   4.945   0.307   6.899 -1.3728  0.7050 -0.9926
11028SOL    HW234853   4.954   0.428   6.990 -0.1029  0.6804 -1.0699
11029SOL     OW34854   2.819   6.841   4.318  0.4281 -0.4359  0.4326
11029SOL    HW134855   2.751   6.869   4.257  0.9129 -0.8525 -0.3159
11029SOL    HW234856   2.874   6.919   4.330  0.9021 -0.6247 -0.4511
11030SOL     OW34857   5.661   0.559   5.301 -0.2116  0.1679 -0.2200
11030SOL    HW134858   5.721   0.612   5.248  1.2980 -1.0152  0.2301
11030SOL    HW234859   5.606   0.513   5.237 -0.6285  1.2312 -0.6438
11031SOL     OW34860   3.715   2.441   6.989 -0.2177  0.0794  0.2283
11031SOL    HW134861   3.662   2.516   7.016  0.6901  2.1547 -3.1071
11031SOL    HW234862   3.782   2.433   7.057 -0.1560  2.5560  0.5325
11032SOL     OW34863   9.004   8.696   1.816 -0.1334 -0.0241  0.0119
11032SOL    HW134864   8.989   8.605   1.841 -0.9757  0.2748  0.6221
11032SOL    HW234865   8.999   8.695   1.720  1.0409 -0.8067 -0.0625
11033SOL     OW34866   0.948   6.355   5.465 -0.1956  0.5021  0.1234
11033SOL    HW134867   1.012   6.425   5.479  1.6053 -1.4831  3.0080
11033SOL    HW234868   0.888   6.363   5.539 -0.6920 -0.2607 -0.1828
11034SOL     OW34869   1.528   6.501   4.889  0.2149  0.5847  0.4193
11034SOL    HW134870   1.592   6.437   4.859  1.6340  2.4811 -0.8473
11034SOL    HW234871   1.580   6.569   4.931 -1.1791  1.2315  1.1587
11035SOL     OW34872   8.915   8.500   5.879  0.4463 -0.1064 -0.3530
11035SOL    HW134873   8.905   8.435   5.948 -0.6703  0.6603  0.2376
11035SOL    HW234874   8.954   8.452   5.806 -3.1891 -2.2791 -1.1053
11036SOL     OW34875   1.997   7.517   2.104  0.0521  0.3499 -0.2047
11036SOL    HW134876   2.054   7.448   2.138 -0.4211  0.1438  0.1839
11036SOL    HW234877   2.014   7.592   2.162 -0.1907  0.2378  0.0115
11037SOL     OW34878   9.769   6.120   5.123 -0.2718  0.1196 -0.1750
11037SOL    HW134879   9.822   6.199   5.119 -1.6967  1.1493  0.4592
11037SOL    HW234880   9.767   6.097   5.216 -0.8324  0.0312 -0.2074
11038SOL     OW34881   4.282   8.235   4.169 -0.2902  0.1322  0.2557
11038SOL    HW134882   4.217   8.233   4.099 -0.6027 -0.5456  0.5489
11038SOL    HW234883   4.263   8.315   4.218 -1.4396 -0.4642  0.8270
11039SOL     OW34884   0.215   7.377   7.090  0.3674  0.2142 -0.0614
11039SOL    HW134885   0.133   7.376   7.139 -0.4137  0.2308 -1.3191
11039SOL    HW234886   0.249   7.288   7.098 -0.3525 -0.1057 -0.4449
11040SOL     OW34887   2.181   9.049   1.864 -0.5036 -0.0102 -0.7507
11040SOL    HW134888   2.140   9.027   1.947 -0.8095  0.3043 -0.8185
11040SOL    HW234889   2.258   8.993   1.860 -1.3604 -1.2097 -0.9916
11041SOL     OW34890   5.186   8.864   8.583  0.1632  0.1372  0.2068
11041SOL    HW134891   5.095   8.837   8.593 -0.6250  2.0356 -1.1700
11041SOL    HW234892   5.223   8.857   8.670 -1.9992  1.5550  1.3433
11042SOL     OW34893   1.154   0.419   2.275  0.3932 -0.1067 -0.1323
11042SOL    HW134894   1.105   0.498   2.250  2.0334  1.1982  0.6222
11042SOL    HW234895   1.140   0.411   2.369  0.7883 -0.3090 -0.0897
11043SOL     OW34896   3.929   7.627   2.301 -0.2763 -0.1089 -0.0163
11043SOL    HW134897   3.973   7.558   2.250 -1.7066 -0.2412 -1.1333
11043SOL    HW234898   3.868   7.580   2.358 -0.8590  0.1885 -0.3844
11044SOL     OW34899   6.221   5.544   4.321 -0.2032 -0.0096 -0.3026
11044SOL    HW134900   6.310   5.567   4.294  0.3719 -0.4347  1.1403
11044SOL    HW234901   6.214   5.577   4.411 -1.5036 -0.0088 -0.3862
11045SOL     OW34902   6.301   9.605   5.562 -0.6655 -0.1253 -0.1120
11045SOL    HW134903   6.237   9.535   5.574  1.3126 -1.9621  0.4714
11045SOL    HW234904   6.384   9.559   5.545  0.2354  2.1518 -2.4318
11046SOL     OW34905   4.626   8.228   9.147  0.7410 -0.0036  0.2425
11046SOL    HW134906   4.646   8.296   9.211 -0.8849  1.4083 -0.6460
11046SOL    HW234907   4.589   8.156   9.198  1.4774  0.1945  1.0812
11047SOL     OW34908   6.020   3.611   2.425 -0.0424 -0.2755 -0.1298
11047SOL    HW134909   6.064   3.595   2.342 -1.5491 -1.4805 -0.7546
11047SOL    HW234910   6.068   3.558   2.489 -0.9161 -2.1517 -0.9316
11048SOL     OW34911   3.932   2.589   3.074 -0.2568 -0.1245 -0.1161
11048SOL    HW134912   3.967   2.504   3.048 -0.1852 -0.2633  0.4130
11048SOL    HW234913   3.875   2.570   3.149  1.4342  0.5127  1.4342
11049SOL     OW34914   3.161   7.189   0.794 -0.7052 -0.2982 -0.2842
11049SOL    HW134915   3.108   7.117   0.826  0.1904 -0.4126  1.0437
11049SOL    HW234916   3.118   7.217   0.714 -2.2984 -0.8909  0.3232
11050SOL     OW34917   9.516   1.966   7.901 -0.3777 -0.3551  0.3421
11050SOL    HW134918   9.528   1.895   7.964 -2.1946 -0.8836  0.1321
11050SOL    HW234919   9.496   2.043   7.954  0.2626 -0.2943  0.5033
11051SOL     OW34920   5.049   8.539   1.535 -0.5108 -0.1426  0.0817
11051SOL    HW134921   4.956   8.516   1.526 -0.5306 -0.1552  0.2927
11051SOL    HW234922   5.062   8.544   1.630 -0.1902 -0.5811  0.0629
11052SOL     OW34923   2.892   0.632   4.141 -0.0493  0.1035  0.2512
11052SOL    HW134924   2.968   0.676   4.104  1.5171 -2.6239  0.0026
11052SOL    HW234925   2.927   0.575   4.209 -2.3354  1.3282  2.6211
11053SOL     OW34926   6.212   8.821   5.583 -0.7147 -0.0971 -0.6351
11053SOL    HW134927   6.202   8.726   5.578  1.2195 -0.2983 -2.0716
11053SOL    HW234928   6.240   8.838   5.673  2.3471 -1.3889 -1.2080
11054SOL     OW34929   8.584   2.445   8.464  0.2016  0.0610  0.1527
11054SOL    HW134930   8.612   2.533   8.440 -2.7502  1.4682  1.3502
11054SOL    HW234931   8.666   2.398   8.482  1.8816  3.0915  1.2661
11055SOL     OW34932   1.468   4.599   3.736  0.0365 -0.0481  0.1872
11055SOL    HW134933   1.439   4.525   3.683 -0.1773  1.1669 -1.4628
11055SOL    HW234934   1.510   4.658   3.674  1.3500  0.6482  1.6776
11056SOL     OW34935   9.809   0.694   5.797 -0.0222 -0.3218  0.3432
11056SOL    HW134936   9.868   0.693   5.721 -1.2336  1.7579 -0.7334
11056SOL    HW234937   9.723   0.672   5.761 -0.8552  1.8932  0.7736
11057SOL     OW34938   2.921   1.479   7.975  0.0937 -0.1666 -0.7504
11057SOL    HW134939   2.941   1.491   7.882 -0.7967 -0.2317 -0.9671
11057SOL    HW234940   2.979   1.409   8.003 -1.4749 -2.0893 -1.9818
11058SOL     OW34941   5.399   8.376   9.808  0.1305  0.6470 -0.2792
11058SOL    HW134942   5.400   8.291   9.852  0.9692 -0.1027 -1.6688
11058SOL    HW234943   5.419   8.439   9.877  1.2030 -0.4587  0.4497
11059SOL     OW34944   7.710   2.122   2.567  0.0329  0.9398 -0.3347
11059SOL    HW134945   7.787   2.170   2.597 -0.6336  2.1373 -0.4945
11059SOL    HW234946   7.663   2.100   2.648  1.2122 -1.0586 -0.1099
11060SOL     OW34947   0.177   1.026   3.373  0.4173 -0.5950  0.2071
11060SOL    HW134948   0.124   1.101   3.401  0.1034 -0.8126  0.2047
11060SOL    HW234949   0.224   0.998   3.452  0.3244 -0.5664  0.2727
11061SOL     OW34950   7.097   2.393   9.642 -0.5229  0.4413 -0.0003
11061SOL    HW134951   7.035   2.462   9.615 -0.1430  1.1174  0.8080
11061SOL    HW234952   7.132   2.360   9.560 -0.4066  1.5058 -0.4045
11062SOL     OW34953   0.727   3.357   1.439 -0.2778 -0.4039  0.3764
11062SOL    HW134954   0.676   3.278   1.459  0.7472 -1.0015  0.6676
11062SOL    HW234955   0.740   3.354   1.344 -1.0462 -0.0697  0.2473
11063SOL     OW34956   5.035   5.109   5.102 -0.2007  0.1832 -0.3936
11063SOL    HW134957   5.032   5.053   5.024 -1.6655  0.6154 -0.6721
11063SOL    HW234958   4.945   5.109   5.135 -0.3437  2.6825 -0.6378
11064SOL     OW34959   2.126   7.071   6.062  0.1805 -0.0232 -0.1775
11064SOL    HW134960   2.049   7.043   6.013  1.2075 -0.1691 -1.7911
11064SOL    HW234961   2.091   7.117   6.138 -1.5004  0.5931 -1.2753
11065SOL     OW34962   0.719   1.423   3.706 -0.0607  0.2726 -0.8074
11065SOL    HW134963   0.659   1.413   3.632 -0.3483  0.1802 -0.5634
11065SOL    HW234964   0.783   1.354   3.695 -1.7290 -1.6076  0.5886
11066SOL     OW34965   6.424   1.265   0.815  0.1955 -0.1231 -0.3114
11066SOL    HW134966   6.383   1.334   0.867 -0.5645  0.6544 -1.8913
11066SOL    HW234967   6.517   1.287   0.815 -0.0246  0.8321 -0.6842
11067SOL     OW34968   8.817   9.241   5.588  0.3057 -0.0880  0.0284
11067SOL    HW134969   8.820   9.325   5.634  0.9551 -0.3174  0.4131
11067SOL    HW234970   8.738   9.246   5.534 -0.1908  0.3842  0.7852
11068SOL     OW34971   8.067   8.083   0.648  0.3667  0.9974  0.3257
11068SOL    HW134972   8.049   8.001   0.602 -0.9359  1.4859 -0.0599
11068SOL    HW234973   8.162   8.093   0.642  0.5089 -0.3046  0.0847
11069SOL     OW34974   0.375   4.607   2.424  0.0245  0.3467  0.5230
11069SOL    HW134975   0.419   4.540   2.477  1.1494  1.2905  0.8285
11069SOL    HW234976   0.369   4.683   2.482 -0.1855  0.8798 -0.1817
11070SOL     OW34977   2.590   1.431   2.801 -0.0526 -0.3000 -0.3154
11070SOL    HW134978   2.670   1.435   2.748  0.0656 -0.0640 -0.1192
11070SOL    HW234979   2.604   1.494   2.872  0.4060 -1.6397  0.8350
11071SOL     OW34980   3.695   2.335   0.695 -0.4444  0.1896  0.2131
11071SOL    HW134981   3.701   2.387   0.775 -0.0299  1.6583 -0.7393
11071SOL    HW234982   3.637   2.385   0.638  0.4620 -0.0594 -0.9656
11072SOL     OW34983   1.196   0.996   4.059  0.0837  0.1811 -0.1245
11072SOL    HW134984   1.283   0.971   4.089 -0.1651 -0.6599 -0.0737
11072SOL    HW234985   1.137   0.959   4.124 -0.4186 -1.0152 -1.2200
11073SOL     OW34986   3.538   2.996   4.939 -0.7015  0.1305  0.0731
11073SOL    HW134987   3.520   3.084   4.907 -0.2346  0.0095 -0.5341
11073SOL    HW234988   3.628   2.978   4.913 -0.5401 -0.2444  0.8548
11074SOL     OW34989   8.581   7.998   1.824 -0.1187 -0.3235  0.0933
11074SOL    HW134990   8.529   8.075   1.847  0.3062 -0.2622  0.8770
11074SOL    HW234991   8.620   8.019   1.739 -2.2156 -0.7956 -1.0687
11075SOL     OW34992   2.334   2.045   7.226 -0.4670  0.3314  0.3647
11075SOL    HW134993   2.308   2.071   7.137 -0.1468 -0.1333  0.1306
11075SOL    HW234994   2.428   2.062   7.229 -0.5754  0.8652  0.8011
11076SOL     OW34995   4.104   9.488   7.252  0.0370  0.1609 -0.4009
11076SOL    HW134996   4.089   9.531   7.336  0.5858  0.9853 -0.7160
11076SOL    HW234997   4.119   9.559   7.190  1.8947 -0.4584 -0.7510
11077SOL     OW34998   5.120   0.586   7.394 -0.0300  0.0076 -0.4453
11077SOL    HW134999   5.031   0.564   7.424  0.5368  0.8315  2.1273
11077SOL    HW235000   5.175   0.516   7.429  0.4662  0.0523 -1.1243
11078SOL     OW35001   6.623   0.850   5.305  0.2360 -0.3470  0.2966
11078SOL    HW135002   6.703   0.861   5.356  1.2759  0.6954 -1.4388
11078SOL    HW235003   6.575   0.932   5.317 -0.1599 -0.6275  0.6476
11079SOL     OW35004   3.947   4.289   2.057  0.1366  0.0921  0.1892
11079SOL    HW135005   3.890   4.254   1.988  0.2944 -0.5573  0.3836
11079SOL    HW235006   3.956   4.218   2.120  1.5728 -0.0217 -0.0896
11080SOL     OW35007   2.169   7.609   6.605 -0.6128 -0.5037  0.0618
11080SOL    HW135008   2.198   7.683   6.551 -0.2918  1.9557  3.3073
11080SOL    HW235009   2.139   7.543   6.542 -0.6864  2.2628 -3.0429
11081SOL     OW35010   7.241   8.285   9.320 -0.1591  0.1087 -0.0789
11081SOL    HW135011   7.303   8.240   9.262  1.1994 -0.8992  2.0392
11081SOL    HW235012   7.158   8.241   9.304 -0.2884  1.0863 -2.5462
11082SOL     OW35013   3.502   9.382   0.859  0.0798  0.3569  1.0636
11082SOL    HW135014   3.541   9.465   0.832 -2.0872  1.1775  0.2375
11082SOL    HW235015   3.469   9.343   0.778 -1.9700  0.3754  1.8439
11083SOL     OW35016   8.880   1.206   8.592 -0.3034  0.0989  0.1945
11083SOL    HW135017   8.956   1.214   8.535 -0.3597  0.3059  0.1471
11083SOL    HW235018   8.805   1.214   8.533 -0.3620 -0.1476  0.2358
11084SOL     OW35019   5.085   7.640   8.832 -0.6183 -0.1532 -0.4610
11084SOL    HW135020   5.017   7.658   8.767  1.1483 -0.2918 -2.4559
11084SOL    HW235021   5.158   7.605   8.781  1.0802  0.2999  1.5314
11085SOL     OW35022   0.489   3.838   7.854  0.5240  0.6978  0.1273
11085SOL    HW135023   0.521   3.827   7.765 -0.3753  1.1215 -0.2672
11085SOL    HW235024   0.414   3.779   7.860  0.9402  0.2303  0.7978
11086SOL     OW35025   5.135   5.126   1.002  0.3354 -1.1060 -0.6776
11086SOL    HW135026   5.126   5.166   1.088 -2.0799 -1.1127 -0.8746
11086SOL    HW235027   5.229   5.110   0.993  0.8135  0.2047  1.3367
11087SOL     OW35028   0.198   8.009   2.876  0.1911 -0.0795  0.4105
11087SOL    HW135029   0.232   7.921   2.893  1.9872  0.7189  1.3104
11087SOL    HW235030   0.229   8.029   2.787  0.6429  0.0085  0.5847
11088SOL     OW35031   1.527   2.970   5.761  0.0927 -0.7148  0.3114
11088SOL    HW135032   1.580   2.912   5.816  2.5046 -0.0213 -1.1616
11088SOL    HW235033   1.584   3.044   5.742 -1.8362  0.6441 -0.4501
11089SOL     OW35034   4.330   3.087   9.488 -0.1999  0.0119 -0.4428
11089SOL    HW135035   4.352   3.168   9.442 -1.3660  0.9598  0.5764
11089SOL    HW235036   4.301   3.027   9.420  1.5390  0.1149 -1.3188
11090SOL     OW35037   9.838   5.241   8.831 -0.6290 -0.5112 -0.1104
11090SOL    HW135038   9.788   5.258   8.911 -0.5675 -0.6635 -0.0409
11090SOL    HW235039   9.781   5.184   8.779  0.1312 -2.0063  0.6515
11091SOL     OW35040   0.817   7.645   6.500  0.2485  0.1209  0.1574
11091SOL    HW135041   0.729   7.645   6.462 -0.6037  1.4661  2.0197
11091SOL    HW235042   0.867   7.704   6.444 -0.2545  0.0462 -0.3877
11092SOL     OW35043   5.062   5.987   1.415  0.6259 -0.3578 -0.0407
11092SOL    HW135044   5.013   6.022   1.489  0.6308 -1.8238  0.6938
11092SOL    HW235045   5.115   5.916   1.452 -1.0017 -2.6398 -1.7176
11093SOL     OW35046   0.883   0.673   8.994  0.0175  0.4222 -0.1559
11093SOL    HW135047   0.918   0.620   9.066  1.8273 -1.5176 -2.3054
11093SOL    HW235048   0.863   0.758   9.034 -1.8127 -1.3797  3.1995
11094SOL     OW35049   4.834   1.065   9.656 -0.4273 -0.0763  0.2374
11094SOL    HW135050   4.900   1.011   9.612  0.2279 -0.4370  1.6195
11094SOL    HW235051   4.860   1.065   9.748 -1.3284  1.2970  0.5218
11095SOL     OW35052   4.945   7.888   7.190  0.1594  0.2776  0.4830
11095SOL    HW135053   4.987   7.949   7.130  0.5825 -0.4745  0.0055
11095SOL    HW235054   4.876   7.939   7.232  0.9399  1.2708  0.5942
11096SOL     OW35055   2.195   1.231   2.178 -0.7815  0.0132 -0.5985
11096SOL    HW135056   2.145   1.260   2.254 -0.1524  1.7991 -0.8276
11096SOL    HW235057   2.198   1.135   2.187  0.4297  0.2241  2.3579
11097SOL     OW35058   6.817   5.659   8.638 -0.2971 -0.1301  0.3684
11097SOL    HW135059   6.861   5.612   8.709 -0.5086 -1.2338 -0.2034
11097SOL    HW235060   6.879   5.658   8.565 -0.9668 -1.0978 -0.2197
11098SOL     OW35061   8.009   1.605   3.709  0.4718  0.1615  0.3270
11098SOL    HW135062   8.103   1.615   3.697  0.4229  1.1347  0.6483
11098SOL    HW235063   7.976   1.695   3.716 -0.1019 -0.1475  3.0287
11099SOL     OW35064   8.578   4.928   0.355  0.4444 -0.2574 -0.4288
11099SOL    HW135065   8.526   5.005   0.376 -0.1725 -1.0786  1.2741
11099SOL    HW235066   8.664   4.944   0.394  0.5568 -0.0991 -0.7450
11100SOL     OW35067   7.840   3.045   8.358  0.3938  0.3943  0.3152
11100SOL    HW135068   7.784   2.971   8.382  0.5712  0.3391  0.5610
11100SOL    HW235069   7.877   3.075   8.441 -0.2614  1.2381  0.3065
11101SOL     OW35070   1.753   3.022   0.177 -0.7140 -0.4744  0.0799
11101SOL    HW135071   1.734   3.027   0.083 -0.8191 -1.1707  0.0566
11101SOL    HW235072   1.848   3.017   0.182 -0.7074 -0.4179  0.0118
11102SOL     OW35073   0.676   5.697   0.381  0.7377  0.3346  0.6316
11102SOL    HW135074   0.694   5.784   0.417 -0.3223  0.6117  0.5192
11102SOL    HW235075   0.762   5.655   0.375  1.4089  1.7888 -0.3976
11103SOL     OW35076   0.202   7.493   0.352  0.2600 -0.2379  0.1169
11103SOL    HW135077   0.147   7.569   0.333  1.9110  0.8513 -0.5565
11103SOL    HW235078   0.235   7.465   0.266  0.9363 -0.7204  0.5268
11104SOL     OW35079   5.734   4.135   7.503  0.2571  0.7334  0.0580
11104SOL    HW135080   5.776   4.221   7.503 -0.8466  1.3294  2.2565
11104SOL    HW235081   5.807   4.073   7.497  1.1159  1.7875 -0.7252
11105SOL     OW35082   5.994   6.240   4.927 -0.0975  0.4521 -0.6036
11105SOL    HW135083   5.938   6.193   4.988  0.4098  0.9926  0.2932
11105SOL    HW235084   5.950   6.324   4.912 -0.3549  0.2177 -1.1992
11106SOL     OW35085   6.281   9.534   3.060 -0.6678 -0.4059 -0.0856
11106SOL    HW135086   6.364   9.490   3.079 -1.1460 -0.2019  3.1677
11106SOL    HW235087   6.216   9.464   3.063 -0.8325 -0.2835 -0.6863
11107SOL     OW35088   9.344   2.597   6.253  0.4586  0.3284 -0.5993
11107SOL    HW135089   9.383   2.578   6.339  0.8943 -0.1758 -0.9025
11107SOL    HW235090   9.340   2.692   6.249 -0.7021  0.3445  0.4834
11108SOL     OW35091   5.275   2.259   9.789  0.1237  0.4684 -0.6239
11108SOL    HW135092   5.322   2.200   9.730  0.3015  0.6351 -0.6521
11108SOL    HW235093   5.336   2.331   9.803 -0.4691  1.1382 -1.3784
11109SOL     OW35094   2.527   9.189   6.607  0.1499 -0.0603 -0.3276
11109SOL    HW135095   2.500   9.193   6.515  1.0064  0.4886 -0.5649
11109SOL    HW235096   2.605   9.245   6.612  0.1291 -0.1020  0.7284
11110SOL     OW35097   3.350   6.438   5.809 -0.1794 -0.9371 -0.8246
11110SOL    HW135098   3.270   6.427   5.860  0.5306 -1.1047  0.2776
11110SOL    HW235099   3.370   6.350   5.777  1.5499 -1.6830  1.9930
11111SOL     OW35100   0.309   1.743   6.500  0.0438  0.2973  0.1916
11111SOL    HW135101   0.324   1.837   6.497 -0.0386  0.2945 -1.7243
11111SOL    HW235102   0.215   1.734   6.483  0.1635 -0.1521 -0.2418
11112SOL     OW35103   0.043   9.456   9.797  0.1960 -0.3802  0.4385
11112SOL    HW135104  -0.028   9.466   9.861 -0.5910 -1.1256 -0.2968
11112SOL    HW235105   0.066   9.364   9.801 -0.4110 -0.6053 -0.9122
11113SOL     OW35106   8.771   0.960   0.087 -0.3497  0.3662 -0.0546
11113SOL    HW135107   8.776   0.960   0.182  0.0936  0.5317 -0.0739
11113SOL    HW235108   8.726   1.041   0.064  0.9034  1.0909 -0.0400
11114SOL     OW35109   6.004   6.565   9.056 -0.5058 -0.0583 -1.2562
11114SOL    HW135110   5.990   6.601   9.143 -1.0521  2.2839 -2.2439
11114SOL    HW235111   6.096   6.537   9.057 -0.6512 -0.5840  0.2072
11115SOL     OW35112   9.379   4.810   7.413 -0.0564 -0.1613  0.2883
11115SOL    HW135113   9.404   4.734   7.466  0.4951  0.2552  0.6422
11115SOL    HW235114   9.448   4.874   7.430 -0.1634  0.1768 -0.5215
11116SOL     OW35115   8.050   1.498   7.283  0.2183 -0.1749 -0.1454
11116SOL    HW135116   8.145   1.498   7.288  0.2532  1.3106 -0.2548
11116SOL    HW235117   8.020   1.490   7.373  0.5322  2.4751  0.2885
11117SOL     OW35118   5.300   6.644   0.435 -0.0755  0.3716 -0.2235
11117SOL    HW135119   5.281   6.692   0.354  0.8490 -0.1218 -0.7624
11117SOL    HW235120   5.391   6.668   0.455 -0.2927  0.4618  0.6547
11118SOL     OW35121   6.941   8.082   6.254 -0.1530  0.9235  0.3062
11118SOL    HW135122   6.881   8.027   6.204 -1.3510  1.2425  1.3361
11118SOL    HW235123   6.899   8.168   6.256  0.7246  1.3567  0.3988
11119SOL     OW35124   3.052   1.534   0.690  0.4774  0.3410  0.6980
11119SOL    HW135125   3.096   1.525   0.605  1.0110  0.1461  0.9882
11119SOL    HW235126   3.049   1.628   0.706 -0.0436  0.4002  0.2449
11120SOL     OW35127   5.680   5.307   5.850 -0.0504  0.0840  0.3561
11120SOL    HW135128   5.754   5.328   5.793 -0.6987  2.7911  0.3591
11120SOL    HW235129   5.709   5.330   5.938 -0.7019  0.7212  0.4168
11121SOL     OW35130   5.908   6.655   6.959  0.0333 -0.3531  0.1373
11121SOL    HW135131   5.967   6.646   7.034 -0.9655 -0.5183  0.9266
11121SOL    HW235132   5.839   6.591   6.976 -0.8709  0.4881 -0.2823
11122SOL     OW35133   1.642   4.668   3.520  0.6516 -0.1543  0.3179
11122SOL    HW135134   1.725   4.623   3.507  1.2082  1.0862 -0.6574
11122SOL    HW235135   1.664   4.761   3.514 -0.9335  0.1818 -0.9463
11123SOL     OW35136   3.907   1.125   0.231 -0.7173 -0.2258  0.4742
11123SOL    HW135137   3.931   1.094   0.318 -0.1870 -0.6429  0.1825
11123SOL    HW235138   3.955   1.208   0.221  0.3379 -0.8662  0.0435
11124SOL     OW35139   8.906   0.041   7.586  0.1373  0.0507 -0.2954
11124SOL    HW135140   8.934  -0.023   7.652  0.0654  0.4635  0.1438
11124SOL    HW235141   8.844  -0.006   7.531 -0.5465 -0.0424  0.5231
11125SOL     OW35142   0.785   0.321   1.498  0.4641  0.3351  0.8097
11125SOL    HW135143   0.822   0.338   1.585 -0.3052 -0.8974  1.4084
11125SOL    HW235144   0.843   0.254   1.461  1.0300  1.1511  0.1866
11126SOL     OW35145   8.986   6.117   4.404  0.3057 -0.0209 -0.0826
11126SOL    HW135146   9.031   6.133   4.321  0.3070 -0.9915 -0.2767
11126SOL    HW235147   9.011   6.191   4.460 -0.3588  1.1017 -1.2120
11127SOL     OW35148   4.849   0.941   6.365  0.0083 -0.1835 -0.1339
11127SOL    HW135149   4.793   1.019   6.356 -0.3829 -0.5677 -1.2666
11127SOL    HW235150   4.931   0.966   6.323 -1.0203 -1.2008 -3.0495
11128SOL     OW35151   5.058   6.555   7.449  0.0557  0.3433 -0.4121
11128SOL    HW135152   5.133   6.565   7.507 -1.0167  0.3349  1.0221
11128SOL    HW235153   5.020   6.643   7.443  0.4387  0.4555 -1.5395
11129SOL     OW35154   0.832   3.897   4.752 -0.0267 -0.5645 -0.3899
11129SOL    HW135155   0.752   3.846   4.767  0.3512 -1.4223 -1.1242
11129SOL    HW235156   0.903   3.831   4.754  0.9296  0.4353  2.2859
11130SOL     OW35157   3.429   4.723   7.598  0.0589  0.2659  0.5744
11130SOL    HW135158   3.517   4.758   7.588  0.7751 -1.6516 -0.4511
11130SOL    HW235159   3.416   4.669   7.520 -2.7346  1.8647 -0.1967
11131SOL     OW35160   9.129   1.373   7.001  1.0148  0.1078  0.1537
11131SOL    HW135161   9.064   1.443   7.009  0.2511 -0.5525 -0.0739
11131SOL    HW235162   9.208   1.417   6.969  0.1894  0.6949 -1.1944
11132SOL     OW35163   4.868   6.221   0.677 -0.4115 -0.2651 -0.8779
11132SOL    HW135164   4.840   6.175   0.755 -0.4274  2.1348  0.6468
11132SOL    HW235165   4.787   6.238   0.628 -0.8758  0.9939  0.2524
11133SOL     OW35166   4.736   3.802   3.231 -0.6460 -0.0825  0.6058
11133SOL    HW135167   4.788   3.727   3.202  0.5808  1.0451 -0.1944
11133SOL    HW235168   4.656   3.763   3.265 -0.0244 -1.7633  0.2522
11134SOL     OW35169   6.871   4.001   9.572 -0.6172 -0.0577 -0.1383
11134SOL    HW135170   6.965   3.983   9.567 -0.5245  0.7272 -1.5168
11134SOL    HW235171   6.835   3.965   9.491 -1.3200  0.6976 -0.1717
11135SOL     OW35172   4.208   1.131   9.011  0.1879  0.4998 -0.7318
11135SOL    HW135173   4.257   1.157   9.089  1.0946 -1.1430 -0.7128
11135SOL    HW235174   4.244   1.185   8.940  0.8056  0.5351 -0.3900
11136SOL     OW35175   0.304   0.939   3.608  0.4990 -0.1169 -0.0792
11136SOL    HW135176   0.334   0.943   3.699  0.2036  0.9765 -0.0229
11136SOL    HW235177   0.369   0.883   3.565 -0.0711 -1.7298  1.0635
11137SOL     OW35178   1.275   4.468   0.239 -0.3033  0.7282 -0.1356
11137SOL    HW135179   1.323   4.550   0.252  1.1769 -0.1004 -0.1452
11137SOL    HW235180   1.341   4.406   0.208 -1.4412 -0.4088 -0.3827
11138SOL     OW35181   4.544   2.472   7.593  0.4176  0.1239  0.0170
11138SOL    HW135182   4.518   2.381   7.580 -1.5030  0.6976 -0.6764
11138SOL    HW235183   4.561   2.480   7.687  1.0654 -1.0342  0.0129
11139SOL     OW35184   3.884   8.858   0.490  0.2706  0.1435  0.0720
11139SOL    HW135185   3.875   8.902   0.406 -2.2454 -0.4992 -0.0753
11139SOL    HW235186   3.957   8.797   0.478  0.1840  0.3208 -1.5396
11140SOL     OW35187   0.631   6.893   3.188 -0.5016  0.4114  0.1549
11140SOL    HW135188   0.681   6.934   3.117 -2.7374 -0.9064 -2.4054
11140SOL    HW235189   0.541   6.924   3.174 -1.4224 -1.7368  0.9025
11141SOL     OW35190   6.365   0.832   8.447 -0.1366  0.4301 -0.8130
11141SOL    HW135191   6.423   0.756   8.436 -1.0396 -0.0887 -2.1380
11141SOL    HW235192   6.420   0.907   8.426 -0.0677 -0.0990 -2.6838
11142SOL     OW35193   2.949   7.234   4.941  0.0255  0.0917 -0.1425
11142SOL    HW135194   2.866   7.275   4.915  0.6950  1.1173 -0.7553
11142SOL    HW235195   2.994   7.301   4.992  0.5297 -0.4222  0.0982
11143SOL     OW35196   4.013   3.850   6.898 -0.1098 -0.0973  0.0385
11143SOL    HW135197   3.963   3.863   6.978 -0.1249  0.5716 -0.0749
11143SOL    HW235198   4.090   3.799   6.926  1.2358  2.2939  1.0137
11144SOL     OW35199   7.678   0.686   3.557  0.0927  0.0795  0.8085
11144SOL    HW135200   7.672   0.680   3.652 -0.1967 -2.6409  0.7039
11144SOL    HW235201   7.743   0.755   3.541 -0.3371  1.0427  2.9298
11145SOL     OW35202   3.728   1.432   3.821 -0.6994 -0.1216 -0.1654
11145SOL    HW135203   3.684   1.402   3.741  0.2688  2.6767 -1.8867
11145SOL    HW235204   3.772   1.354   3.854 -1.8150 -1.5738 -1.8884
11146SOL     OW35205   9.755   7.135   0.865 -0.2345 -0.8442  0.0218
11146SOL    HW135206   9.832   7.191   0.858  0.2244 -1.2769  1.2980
11146SOL    HW235207   9.785   7.049   0.834 -0.1509 -1.0615  0.7089
11147SOL     OW35208   1.375   1.240   0.437  0.1044 -0.1277  0.0628
11147SOL    HW135209   1.395   1.255   0.345  1.4264 -0.5152  0.2721
11147SOL    HW235210   1.329   1.320   0.465  2.3721  1.3390 -0.1782
11148SOL     OW35211   7.263   2.172   0.876 -0.0169  0.6045  0.5818
11148SOL    HW135212   7.208   2.102   0.843  1.0703 -0.3147  0.6587
11148SOL    HW235213   7.258   2.165   0.971  0.6920  0.1101  0.5969
11149SOL     OW35214   4.172   3.253   6.013  0.0842 -0.4868 -0.1332
11149SOL    HW135215   4.178   3.166   5.976 -1.3429 -0.9017  0.5204
11149SOL    HW235216   4.207   3.311   5.946  0.6319 -1.5100 -0.7490
11150SOL     OW35217   1.734   4.023   0.030 -0.3671  0.2833 -1.1908
11150SOL    HW135218   1.814   3.991   0.072 -0.3571  0.4916 -1.0517
11150SOL    HW235219   1.722   4.111   0.064 -1.4709 -0.2738 -0.0519
11151SOL     OW35220   6.491   0.532   5.028 -0.2039 -0.3146 -0.2545
11151SOL    HW135221   6.442   0.454   5.054 -1.0421  0.0075 -0.8385
11151SOL    HW235222   6.513   0.576   5.110 -1.3691 -0.1771 -0.0049
11152SOL     OW35223   0.499   9.371   4.182  0.4743  0.0751  0.0921
11152SOL    HW135224   0.408   9.357   4.157  0.7158 -0.2581 -0.6216
11152SOL    HW235225   0.528   9.286   4.215  0.4536  0.2529  0.5852
11153SOL     OW35226   7.040   1.154   1.962 -0.2980 -0.7003 -0.0512
11153SOL    HW135227   7.110   1.190   2.017  0.9728 -0.0928 -1.9692
11153SOL    HW235228   7.040   1.209   1.884 -3.1621 -0.4994 -0.0164
11154SOL     OW35229   4.695   7.078   0.152  0.1374 -0.1323 -0.4034
11154SOL    HW135230   4.766   7.038   0.201 -0.6598 -1.0202  0.0593
11154SOL    HW235231   4.675   7.015   0.083 -2.3431 -1.4950  1.4101
11155SOL     OW35232   2.442   7.095   8.674  1.0467  0.1117 -0.1291
11155SOL    HW135233   2.356   7.068   8.705  1.1619  1.8118  1.9286
11155SOL    HW235234   2.447   7.063   8.584 -1.4925 -0.5182 -0.1109
11156SOL     OW35235   3.437   3.998   7.590  0.3272  0.1578 -0.4959
11156SOL    HW135236   3.348   3.965   7.604 -0.2201  1.1563 -1.4506
11156SOL    HW235237   3.460   4.039   7.673  0.4528 -1.2805  0.2146
11157SOL     OW35238   9.510   7.993   9.428  0.5516  0.1663  0.1036
11157SOL    HW135239   9.559   8.039   9.496 -0.2386  2.3345 -0.7213
11157SOL    HW235240   9.419   8.021   9.440 -0.2983 -2.5397  0.5994
11158SOL     OW35241   5.347   4.122   7.849  0.0976  0.0354  0.1565
11158SOL    HW135242   5.262   4.104   7.810  0.1776  1.7922 -0.9056
11158SOL    HW235243   5.345   4.075   7.933 -1.8216 -0.1058  0.0716
11159SOL     OW35244   8.155   9.019   0.477  0.6661 -0.1498 -0.5824
11159SOL    HW135245   8.174   8.926   0.489 -1.7110 -0.7220 -0.6938
11159SOL    HW235246   8.075   9.021   0.424  0.4185  1.9375 -0.2470
11160SOL     OW35247   0.173   7.619   7.449  0.5884  0.4514 -0.1080
11160SOL    HW135248   0.187   7.712   7.463 -1.0598  0.5383  1.2049
11160SOL    HW235249   0.089   7.600   7.491 -0.6981 -0.9983 -3.0335
11161SOL     OW35250   5.607   2.816   6.498  0.0689  0.5654 -0.3560
11161SOL    HW135251   5.610   2.721   6.485  0.1012  0.7117 -1.5926
11161SOL    HW235252   5.581   2.828   6.589  1.5949 -0.6260  0.2696
11162SOL     OW35253   2.609   4.592   2.209  0.2173 -0.7786  0.0322
11162SOL    HW135254   2.535   4.603   2.268 -1.2264  1.7206 -2.0264
11162SOL    HW235255   2.667   4.665   2.230  1.0507 -1.4727  0.1868
11163SOL     OW35256   9.480   4.583   0.592 -0.1650 -0.7610 -0.0283
11163SOL    HW135257   9.464   4.538   0.675 -0.0162  0.9939  1.0102
11163SOL    HW235258   9.393   4.596   0.555 -0.1622 -2.5726 -0.7577
11164SOL     OW35259   3.703   3.597   2.176 -0.0407  0.2315  0.2927
11164SOL    HW135260   3.750   3.671   2.215  0.4666 -0.9279  1.9858
11164SOL    HW235261   3.683   3.539   2.249 -2.1469 -0.4118 -0.7149
11165SOL     OW35262   1.186   0.218   5.772  0.2866  0.1243  0.0648
11165SOL    HW135263   1.105   0.168   5.780 -0.5209  0.9497 -2.2144
11165SOL    HW235264   1.253   0.153   5.751  0.2141 -0.5384  1.7720
11166SOL     OW35265   5.853   1.695   4.328 -0.8640 -0.2885  0.6693
11166SOL    HW135266   5.941   1.688   4.365 -0.8595  0.5562  0.8305
11166SOL    HW235267   5.795   1.667   4.398 -0.7562 -0.4125  0.7104
11167SOL     OW35268   6.739   5.966   0.241  0.0599 -0.3257 -0.0532
11167SOL    HW135269   6.733   6.061   0.230 -0.7940 -0.4084 -0.4692
11167SOL    HW235270   6.695   5.949   0.324  1.8033 -0.2045  0.9318
11168SOL     OW35271   8.484   3.287   4.936  0.6327 -0.4586  0.3328
11168SOL    HW135272   8.461   3.248   4.852  1.4320 -1.5535  0.5884
11168SOL    HW235273   8.404   3.282   4.988  0.8983 -2.5725  0.6230
11169SOL     OW35274   6.850   4.699   0.260  1.1084  0.3343 -0.0402
11169SOL    HW135275   6.759   4.726   0.255  1.3717  1.4417  0.7463
11169SOL    HW235276   6.852   4.631   0.327  1.0891  1.4136  1.0750
11170SOL     OW35277   7.018   5.395   7.740 -0.8782  0.4020 -0.5469
11170SOL    HW135278   7.032   5.397   7.645 -0.7012  0.4178 -0.5204
11170SOL    HW235279   6.934   5.350   7.751  0.3692 -2.0840 -0.5809
11171SOL     OW35280   9.661   6.859   9.234  0.4915 -0.3073  0.5148
11171SOL    HW135281   9.738   6.856   9.177 -0.2994  0.3680 -0.6343
11171SOL    HW235282   9.679   6.930   9.295  1.5948 -1.4068  1.5052
11172SOL     OW35283   0.278   5.879   4.608  0.1168 -0.3022 -0.3841
11172SOL    HW135284   0.206   5.914   4.662  0.9245  0.8073 -0.0015
11172SOL    HW235285   0.277   5.933   4.529 -0.4253 -1.2846 -1.0705
11173SOL     OW35286   3.196   2.137   0.184 -0.0197 -0.1146 -0.0869
11173SOL    HW135287   3.228   2.080   0.115  0.7966  1.6205 -1.2249
11173SOL    HW235288   3.121   2.182   0.144 -0.3853 -0.0803  0.6313
11174SOL     OW35289   7.248   9.566   9.844 -0.3736  0.3341 -0.1285
11174SOL    HW135290   7.283   9.652   9.866  0.2027 -0.1109  0.7408
11174SOL    HW235291   7.188   9.583   9.771  0.6930  1.2782 -0.8119
11175SOL     OW35292   2.960   3.179   9.747 -0.1410  0.2463  0.0803
11175SOL    HW135293   3.025   3.111   9.764 -1.5250 -1.1557  0.0034
11175SOL    HW235294   2.878   3.144   9.782 -0.8841  1.9463  0.1579
11176SOL     OW35295   9.055   2.993   3.901 -0.4571 -1.0157 -0.0782
11176SOL    HW135296   9.059   3.089   3.910 -1.6320 -0.8763 -0.7912
11176SOL    HW235297   9.144   2.967   3.878 -0.1102 -0.1011  0.1848
11177SOL     OW35298   6.090   8.116   6.107 -0.1336  0.1380 -0.1034
11177SOL    HW135299   6.105   8.133   6.014 -0.2119  2.5251  0.2649
11177SOL    HW235300   6.114   8.198   6.151 -0.6156 -0.7470  1.9336
11178SOL     OW35301   4.823   1.371   7.917 -0.5324  0.7601  0.4080
11178SOL    HW135302   4.731   1.370   7.889 -0.0807  0.4379 -1.1463
11178SOL    HW235303   4.826   1.311   7.991 -1.4129  0.0407 -0.1158
11179SOL     OW35304   1.309   0.907   5.904  0.4293  0.1402  0.0063
11179SOL    HW135305   1.324   0.991   5.862  0.3296  0.0997 -0.1091
11179SOL    HW235306   1.397   0.872   5.918  0.4346 -0.5902 -1.6566
11180SOL     OW35307   8.472   3.758   9.228 -0.6541 -0.2407 -0.2102
11180SOL    HW135308   8.537   3.828   9.226 -1.0119  0.0819 -1.6281
11180SOL    HW235309   8.522   3.679   9.208 -0.7229  0.0587 -1.6765
11181SOL     OW35310   9.331   3.787   9.413  0.4668 -0.3991 -0.1766
11181SOL    HW135311   9.335   3.839   9.493  0.4802 -0.0072 -0.4283
11181SOL    HW235312   9.238   3.779   9.394  0.4955  1.1164 -1.1427
11182SOL     OW35313   4.249   2.191   3.437  0.0564  0.4203 -0.5300
11182SOL    HW135314   4.304   2.249   3.384  0.5597  2.0863  1.6682
11182SOL    HW235315   4.302   2.173   3.515 -0.7527 -1.7470 -0.4081
11183SOL     OW35316   3.975   1.293   6.848 -0.0691 -0.2270 -0.1861
11183SOL    HW135317   4.070   1.284   6.844  0.0428 -0.7819  2.1717
11183SOL    HW235318   3.942   1.204   6.832 -0.3658  0.2627 -2.8061
11184SOL     OW35319   2.039   6.672   4.664  0.8372  0.6312 -0.1619
11184SOL    HW135320   1.990   6.751   4.645  0.5805  0.5089  0.0003
11184SOL    HW235321   2.024   6.655   4.757  0.4649  0.0989 -0.3182
11185SOL     OW35322   9.469   9.244   7.196 -0.4096 -0.1169  0.3387
11185SOL    HW135323   9.430   9.156   7.198 -0.7104 -0.0046 -0.4538
11185SOL    HW235324   9.563   9.228   7.205 -0.4440 -0.5322 -0.0065
11186SOL     OW35325   5.946   9.699   9.270 -0.4973  0.0571 -0.3274
11186SOL    HW135326   5.952   9.744   9.186  1.0112 -0.3440 -0.4684
11186SOL    HW235327   6.008   9.746   9.326 -0.1690 -0.7893  0.0236
11187SOL     OW35328   2.622   8.801   3.743 -0.1079 -0.8561  0.3337
11187SOL    HW135329   2.616   8.874   3.682  3.7394  0.3402  1.1471
11187SOL    HW235330   2.572   8.829   3.820 -1.6936 -0.7290 -0.6883
11188SOL     OW35331   9.693   6.776   0.301  0.3240  0.1554  0.1349
11188SOL    HW135332   9.777   6.736   0.276 -0.5190 -1.4230 -0.3071
11188SOL    HW235333   9.673   6.737   0.386 -0.4683 -0.3557 -0.2661
11189SOL     OW35334   1.961   6.504   7.447  0.0741  0.3375  0.1371
11189SOL    HW135335   1.961   6.535   7.538 -0.8505  0.3053  0.1643
11189SOL    HW235336   1.947   6.584   7.396  2.6724  0.6817 -0.1454
11190SOL     OW35337   6.031   3.097   5.476  0.0286  0.0614  0.3594
11190SOL    HW135338   6.103   3.077   5.535  0.3296 -0.8051 -0.2697
11190SOL    HW235339   6.000   3.011   5.447  0.0030  0.4574 -0.8668
11191SOL     OW35340   0.948   3.451   8.144 -0.3141  0.5744  0.0312
11191SOL    HW135341   1.011   3.441   8.072  0.3814  1.0255  0.5598
11191SOL    HW235342   0.940   3.363   8.181 -0.4760  0.3925 -0.4341
11192SOL     OW35343   6.406   9.769   0.339 -0.1014  0.7070 -0.0032
11192SOL    HW135344   6.428   9.861   0.322 -0.8078  0.8292 -0.2672
11192SOL    HW235345   6.438   9.722   0.262  1.7042  0.4879  0.8162
11193SOL     OW35346   1.641   6.430   2.959 -0.0482 -0.3049  0.3728
11193SOL    HW135347   1.652   6.419   3.053  0.5728  3.6396  0.9422
11193SOL    HW235348   1.638   6.525   2.946 -0.2258 -0.6764 -3.5959
11194SOL     OW35349   8.836   3.529   0.129  0.6109 -0.6891  0.2965
11194SOL    HW135350   8.759   3.555   0.180 -0.8232 -3.2785 -0.3624
11194SOL    HW235351   8.806   3.533   0.038  1.9780  0.3129 -0.1362
11195SOL     OW35352   5.734   7.188   2.388 -0.0274 -0.1341  0.3836
11195SOL    HW135353   5.671   7.205   2.458 -0.6214 -2.0862  0.3701
11195SOL    HW235354   5.680   7.170   2.311  0.4891 -2.0095  0.4074
11196SOL     OW35355   4.134   4.335   5.820  0.0237  0.0714  0.0820
11196SOL    HW135356   4.094   4.248   5.829  1.4433 -0.5449  0.7642
11196SOL    HW235357   4.061   4.393   5.801 -0.5934 -1.7652 -4.1933
11197SOL     OW35358   4.989   1.001   7.688  0.0951 -0.1818  0.1305
11197SOL    HW135359   5.034   0.917   7.681  0.6522 -0.0142  1.3732
11197SOL    HW235360   4.902   0.985   7.652  0.0498 -1.4180  0.7247
11198SOL     OW35361   7.619   6.841   2.913 -0.6736  0.0536  0.2740
11198SOL    HW135362   7.689   6.904   2.929  0.7713 -1.2265 -0.8085
11198SOL    HW235363   7.638   6.768   2.972 -1.3543 -0.1404  0.2637
11199SOL     OW35364   6.623   3.471   4.902 -0.1087  0.4416 -0.1574
11199SOL    HW135365   6.617   3.388   4.854 -0.4301  1.1766 -1.4481
11199SOL    HW235366   6.691   3.520   4.856 -0.5551  1.2372  0.0024
11200SOL     OW35367   2.397   6.284   8.196 -0.6122  0.1436 -0.4453
11200SOL    HW135368   2.428   6.356   8.251  0.2461  0.0021 -0.7339
11200SOL    HW235369   2.476   6.237   8.171 -1.1553 -0.7938 -0.4186
11201SOL     OW35370   1.227   9.698   7.494  0.1263  0.3821 -0.3683
11201SOL    HW135371   1.227   9.677   7.401 -0.8441  0.0715 -0.3051
11201SOL    HW235372   1.300   9.760   7.504  0.7684 -0.2276 -1.1731
11202SOL     OW35373   4.972   2.444   4.345  0.1516 -0.0212  0.5407
11202SOL    HW135374   5.023   2.365   4.330  0.4359  0.5211 -1.7175
11202SOL    HW235375   5.022   2.493   4.411  0.8947 -0.9260  0.6616
11203SOL     OW35376   7.862   5.262   0.041  0.4890  0.4956 -0.8202
11203SOL    HW135377   7.812   5.194   0.085  0.7953 -0.1906 -1.4931
11203SOL    HW235378   7.915   5.214  -0.024  1.7793  1.2230 -0.3417
11204SOL     OW35379   0.857   5.692   7.578  0.2264 -0.2268  0.3895
11204SOL    HW135380   0.835   5.626   7.512  0.0071 -0.5302  0.7638
11204SOL    HW235381   0.952   5.685   7.589  0.2646 -0.1650  0.0957
11205SOL     OW35382   2.534   2.106   3.735 -0.7813 -0.0703  0.7609
11205SOL    HW135383   2.495   2.152   3.661 -0.3642  0.6560  0.9848
11205SOL    HW235384   2.580   2.174   3.784 -0.2267 -0.7122  1.1481
11206SOL     OW35385   8.929   5.079   4.722 -0.0024  0.3983  0.0547
11206SOL    HW135386   8.982   5.074   4.801 -1.1482  1.7384  0.9655
11206SOL    HW235387   8.992   5.092   4.651  0.9743  0.2935  0.8782
11207SOL     OW35388   7.561   3.533   7.400  0.0766  0.4791 -0.1952
11207SOL    HW135389   7.605   3.482   7.332 -0.7714 -0.0044 -0.3860
11207SOL    HW235390   7.502   3.591   7.353 -3.2178 -2.2830  0.1162
11208SOL     OW35391   0.192   7.377   9.038 -0.7496 -0.6358 -0.2814
11208SOL    HW135392   0.248   7.419   8.973 -1.2815 -0.0497 -0.3706
11208SOL    HW235393   0.235   7.394   9.122 -1.3688  0.8077 -0.2285
11209SOL     OW35394   7.560   2.509   7.438 -0.3600  0.1436 -0.5509
11209SOL    HW135395   7.519   2.519   7.352 -0.5445  3.4605 -0.2074
11209SOL    HW235396   7.548   2.594   7.480  0.8299 -0.9809  2.3022
11210SOL     OW35397   6.864   2.170   2.415  0.1340  0.1525  0.3852
11210SOL    HW135398   6.904   2.251   2.447 -0.9641  0.2627  1.5525
11210SOL    HW235399   6.778   2.197   2.382  0.4910 -0.2672 -0.9348
11211SOL     OW35400   7.259   9.335   4.681 -0.0343 -0.8125 -0.2931
11211SOL    HW135401   7.199   9.405   4.705 -0.1011 -0.8526 -0.3466
11211SOL    HW235402   7.337   9.380   4.649 -0.7383 -0.7742 -2.0239
11212SOL     OW35403   4.916   8.626   7.214 -0.3158  0.1140  0.3190
11212SOL    HW135404   4.996   8.572   7.210 -1.2419 -1.3439  0.7252
11212SOL    HW235405   4.931   8.686   7.287  0.3781 -0.2063  0.4486
11213SOL     OW35406   2.778   0.800   5.561  0.2531  0.1600  0.1715
11213SOL    HW135407   2.803   0.752   5.482  1.3509  1.4138 -0.2813
11213SOL    HW235408   2.856   0.798   5.616 -0.3130 -0.1924  0.9774
11214SOL     OW35409   2.078   1.456   4.583  0.5572 -0.0643  0.2552
11214SOL    HW135410   2.140   1.400   4.536  1.0679 -0.1008  0.9535
11214SOL    HW235411   2.049   1.520   4.518  2.1418  0.6117  0.1665
11215SOL     OW35412   5.211   7.411   3.633 -0.8907  0.0611  0.1110
11215SOL    HW135413   5.209   7.466   3.554  0.4284  1.9577  1.3136
11215SOL    HW235414   5.139   7.443   3.686 -0.0871  0.7203  0.8392
11216SOL     OW35415   9.677   6.092   2.955 -0.0088 -0.4063 -0.3831
11216SOL    HW135416   9.697   6.021   3.015  0.5788  0.4522  0.4734
11216SOL    HW235417   9.761   6.112   2.913 -0.4844 -1.2652 -1.8304
11217SOL     OW35418   5.034   2.970   6.447  0.4240 -0.8064 -0.1646
11217SOL    HW135419   4.969   2.933   6.387 -0.2209 -0.5097  0.3510
11217SOL    HW235420   5.005   3.059   6.464  0.0426 -1.2050  1.3801
11218SOL     OW35421   5.067   5.608   2.293 -0.0467 -0.6704  0.3327
11218SOL    HW135422   5.012   5.655   2.230 -2.6289 -2.6376  0.9136
11218SOL    HW235423   5.157   5.627   2.267 -0.9827 -0.3632 -3.1367
11219SOL     OW35424   1.417   4.826   7.971  0.2502  0.4922  0.1115
11219SOL    HW135425   1.490   4.863   8.021  1.6846 -1.5024 -0.3690
11219SOL    HW235426   1.344   4.825   8.033  1.1015  0.9741  1.1611
11220SOL     OW35427   1.816   4.040   6.852 -0.0696  1.1238  0.4305
11220SOL    HW135428   1.851   4.021   6.765  1.7214  0.0023  1.3168
11220SOL    HW235429   1.853   4.125   6.875 -0.2304  1.2411  0.2576
11221SOL     OW35430   5.912   0.291   0.450  0.0902 -0.1390 -0.0139
11221SOL    HW135431   5.929   0.332   0.535  2.3238 -1.5994  0.3179
11221SOL    HW235432   5.857   0.216   0.470 -0.1402  0.0306 -0.0019
11222SOL     OW35433   9.171   3.644   1.474 -0.0770 -0.5955  0.2395
11222SOL    HW135434   9.263   3.622   1.487  0.0332  0.3031  1.1626
11222SOL    HW235435   9.170   3.738   1.460 -0.4612 -1.0681 -4.3453
11223SOL     OW35436   0.324   0.063   0.087 -0.4091  0.1230 -0.0695
11223SOL    HW135437   0.373   0.029   0.012 -0.7553 -1.4166  0.3607
11223SOL    HW235438   0.238   0.086   0.051 -0.1395  0.6407 -0.3886
11224SOL     OW35439   9.533   2.780   6.004  0.3336  0.1471  0.1810
11224SOL    HW135440   9.506   2.772   5.913 -0.3315  2.6046  0.0755
11224SOL    HW235441   9.546   2.690   6.034 -0.1403 -0.7486 -2.1035
11225SOL     OW35442   3.024   8.483   3.255 -0.4496  0.1100  0.0917
11225SOL    HW135443   2.954   8.419   3.265  0.6583 -1.1365  0.0336
11225SOL    HW235444   3.030   8.498   3.160 -0.1397 -0.3566  0.0357
11226SOL     OW35445   2.395   6.972   0.845  0.6256 -0.0042 -0.4432
11226SOL    HW135446   2.368   6.990   0.935  2.8935 -0.8296  0.4664
11226SOL    HW235447   2.317   6.993   0.793 -0.8306  0.3054  1.6942
11227SOL     OW35448   9.651   9.481   4.862  0.3962 -0.5955  0.2051
11227SOL    HW135449   9.688   9.414   4.920 -1.7880 -1.1270  1.0883
11227SOL    HW235450   9.589   9.433   4.807 -0.7038  0.5809  0.3832
11228SOL     OW35451   3.314   2.230   4.384 -0.3344  0.1736  0.1192
11228SOL    HW135452   3.377   2.259   4.318 -0.1088  0.2400  0.3601
11228SOL    HW235453   3.369   2.197   4.455 -0.5696 -1.3939 -0.3814
11229SOL     OW35454   4.983   0.346   8.928 -0.2490 -0.6172  0.5132
11229SOL    HW135455   4.947   0.307   8.848 -2.1941  0.8178  0.6112
11229SOL    HW235456   4.907   0.385   8.971  1.0402  0.1057  2.2147
11230SOL     OW35457   1.478   7.022   6.728  0.0748 -0.2559  0.0346
11230SOL    HW135458   1.386   7.037   6.747 -0.5159 -1.7645 -1.4122
11230SOL    HW235459   1.517   7.110   6.723 -1.3646  0.4133  0.2196
11231SOL     OW35460   9.289   5.569   1.443 -0.4324  0.4104  0.4637
11231SOL    HW135461   9.213   5.516   1.466  0.3379 -0.9318 -0.0041
11231SOL    HW235462   9.364   5.521   1.478  0.2834  1.2715  0.1637
11232SOL     OW35463   6.009   6.181   4.108 -0.4021  0.1839 -0.4978
11232SOL    HW135464   6.055   6.212   4.030 -0.4511 -0.8254 -0.9425
11232SOL    HW235465   6.076   6.137   4.159 -0.7180 -0.7328 -0.8443
11233SOL     OW35466   8.869   4.589   0.615 -0.2764 -0.5470  0.9607
11233SOL    HW135467   8.878   4.601   0.709 -1.1856  0.5471  0.9381
11233SOL    HW235468   8.838   4.499   0.605 -0.6791 -0.5069  1.7462
11234SOL     OW35469   1.232   4.260   9.731  0.1610  0.1514  0.5430
11234SOL    HW135470   1.222   4.200   9.657 -1.3331  1.4268 -0.3329
11234SOL    HW235471   1.264   4.204   9.802 -1.8138 -1.8466 -0.0272
11235SOL     OW35472   2.135   4.045   9.190  0.2489 -0.0218 -0.6791
11235SOL    HW135473   2.117   4.016   9.100 -0.7846  3.3631 -1.7196
11235SOL    HW235474   2.146   4.139   9.182  0.1536  0.3826  2.7955
11236SOL     OW35475   7.472   6.801   7.260  0.5669 -0.4674 -0.4150
11236SOL    HW135476   7.519   6.839   7.335 -0.4286 -1.0139  0.5225
11236SOL    HW235477   7.539   6.790   7.193  1.7414 -1.0246  0.7927
11237SOL     OW35478   5.221   5.536   8.071  0.3005  0.2714 -0.3094
11237SOL    HW135479   5.248   5.627   8.087 -0.1353  0.3139  0.2326
11237SOL    HW235480   5.194   5.504   8.157  0.1007 -0.2528 -0.5653
11238SOL     OW35481   6.348   9.174   2.298  0.3449  0.7328 -1.2403
11238SOL    HW135482   6.298   9.254   2.284  2.2502  2.0975 -0.5992
11238SOL    HW235483   6.334   9.153   2.390 -0.7682 -0.1534 -1.5876
11239SOL     OW35484   1.761   0.979   4.600 -0.5967 -0.7999  0.2530
11239SOL    HW135485   1.737   1.034   4.675  1.2882  0.3385  0.0881
11239SOL    HW235486   1.701   1.005   4.531 -1.2879 -0.6918  0.8725
11240SOL     OW35487   9.625   3.718   4.841  0.1799 -0.3896 -0.3471
11240SOL    HW135488   9.625   3.706   4.746 -2.6656 -0.6386 -0.4108
11240SOL    HW235489   9.670   3.641   4.876  1.0040 -0.4317 -1.4470
11241SOL     OW35490   7.247   7.657   1.933  0.1929  0.6892 -0.0403
11241SOL    HW135491   7.262   7.748   1.959  0.2855  1.0946 -1.4573
11241SOL    HW235492   7.198   7.619   2.006 -0.9080  2.2022  0.0463
11242SOL     OW35493   2.130   5.376   2.784 -0.0342 -0.0410 -0.0672
11242SOL    HW135494   2.060   5.436   2.808 -0.1172 -0.6777  1.3564
11242SOL    HW235495   2.176   5.421   2.712 -0.6850  1.2618  0.2989
11243SOL     OW35496   6.704   3.134   3.185 -0.3848  0.9478 -0.1342
11243SOL    HW135497   6.781   3.077   3.183 -0.2945  1.0822 -0.6642
11243SOL    HW235498   6.702   3.169   3.273 -0.3520  0.2426  0.1540
11244SOL     OW35499   5.218   2.124   7.795 -0.1072  0.5811 -0.2379
11244SOL    HW135500   5.218   2.069   7.874 -0.5492 -0.1535 -0.7462
11244SOL    HW235501   5.288   2.089   7.741 -0.9603 -0.0635 -0.9530
11245SOL     OW35502   2.295   0.475   3.962  0.4265  0.0610  0.5327
11245SOL    HW135503   2.381   0.503   3.932  0.2928  0.5943  0.6433
11245SOL    HW235504   2.300   0.478   4.057  0.0720  0.7542  0.5320
11246SOL     OW35505   9.413   1.395   9.112 -0.2091  0.1702 -0.0501
11246SOL    HW135506   9.395   1.332   9.041  0.5362  1.4431 -1.4367
11246SOL    HW235507   9.327   1.424   9.141 -0.5316 -0.3277 -0.4884
11247SOL     OW35508   8.862   0.466   2.836 -0.6381 -0.0889  0.3173
11247SOL    HW135509   8.843   0.551   2.796 -0.5327 -0.0528  0.3443
11247SOL    HW235510   8.858   0.482   2.930  1.7777  0.4525  0.3900
11248SOL     OW35511   6.616   6.878   7.335  0.2542  0.1806  0.5234
11248SOL    HW135512   6.536   6.900   7.288  0.3385 -1.5005 -0.4807
11248SOL    HW235513   6.598   6.795   7.377  1.2885  0.0369  0.7270
11249SOL     OW35514   2.911   3.259   7.990  0.2111 -0.1935  0.1735
11249SOL    HW135515   2.975   3.232   7.924 -1.8680  0.6381 -2.3625
11249SOL    HW235516   2.829   3.218   7.961 -0.9165  0.7073  1.9340
11250SOL     OW35517   0.350   7.116   1.138  0.0746  0.1742 -0.6811
11250SOL    HW135518   0.392   7.066   1.067  1.7805 -1.7382  1.4962
11250SOL    HW235519   0.276   7.160   1.096  0.1399 -1.9758 -3.3512
11251SOL     OW35520   3.871   2.053   0.372  0.0026  0.0941  0.3178
11251SOL    HW135521   3.909   1.994   0.437  0.8422  0.3074  0.0288
11251SOL    HW235522   3.799   2.003   0.333  0.4360 -0.5781  0.3721
11252SOL     OW35523   7.047   7.436   5.767  0.9151 -0.7444 -0.3067
11252SOL    HW135524   7.028   7.354   5.813  1.4606  0.1676  1.6465
11252SOL    HW235525   6.993   7.501   5.812  2.6160  0.4632  0.0903
11253SOL     OW35526   2.361   0.865   7.092 -0.3022  0.3470  0.1801
11253SOL    HW135527   2.304   0.941   7.089 -1.0920 -0.0930  2.0707
11253SOL    HW235528   2.445   0.895   7.058 -0.2280  2.4235  2.0118
11254SOL     OW35529   7.513   8.115   3.076  0.1199  0.1045  0.2164
11254SOL    HW135530   7.508   8.162   3.159  1.1352  0.7554 -0.0698
11254SOL    HW235531   7.604   8.126   3.047 -0.3551  0.4269 -1.2759
11255SOL     OW35532   9.135   7.212   8.915  0.6371 -0.3252  0.0878
11255SOL    HW135533   9.098   7.138   8.964  0.8201  0.6847  1.8313
11255SOL    HW235534   9.213   7.236   8.965 -1.3174  3.3229  1.7445
11256SOL     OW35535   7.653   9.051   3.818  0.0775 -0.7456 -0.4416
11256SOL    HW135536   7.624   9.137   3.846 -0.7368 -1.8682  2.5730
11256SOL    HW235537   7.745   9.063   3.794 -0.1680  1.0311 -0.5768
11257SOL     OW35538   5.808   3.773   9.525  0.1759 -1.0150 -0.0948
11257SOL    HW135539   5.860   3.804   9.451  0.5843 -0.2433  0.4987
11257SOL    HW235540   5.717   3.782   9.496  0.3305 -0.5218 -0.4365
11258SOL     OW35541   8.550   5.674   5.150  0.0961  0.3564 -0.8308
11258SOL    HW135542   8.573   5.625   5.228  0.7585 -1.2316 -1.9650
11258SOL    HW235543   8.512   5.608   5.091 -3.1814  2.0066 -0.7887
11259SOL     OW35544   2.381   9.460   0.118 -0.1155  0.2190 -0.3750
11259SOL    HW135545   2.388   9.402   0.042  0.0659 -1.2572  0.7391
11259SOL    HW235546   2.295   9.440   0.155 -0.0518  0.6685  0.0173
11260SOL     OW35547   0.728   0.657   2.763 -0.3330  0.2249  0.3918
11260SOL    HW135548   0.758   0.687   2.849 -0.6450  0.3989  0.4414
11260SOL    HW235549   0.633   0.660   2.768 -0.3613 -0.4522  0.2760
11261SOL     OW35550   3.321   3.891   5.409 -0.7376 -0.4799  0.0785
11261SOL    HW135551   3.247   3.851   5.362 -0.5044 -1.7710  0.7816
11261SOL    HW235552   3.388   3.903   5.341 -1.8740  1.5425 -0.7599
11262SOL     OW35553   4.121   8.969   3.895  0.7005 -0.3147  0.2834
11262SOL    HW135554   4.188   9.018   3.847  0.2140  0.1662  0.0874
11262SOL    HW235555   4.170   8.898   3.938  1.4452  0.4520  0.7406
11263SOL     OW35556   0.109   9.772   1.847  0.0694  0.2797 -0.1552
11263SOL    HW135557   0.077   9.859   1.824  1.4383  0.9525  0.3969
11263SOL    HW235558   0.142   9.781   1.936 -0.7749 -1.0923  0.3190
11264SOL     OW35559   6.218   2.064   8.948 -0.3861  0.2952  0.4170
11264SOL    HW135560   6.182   2.141   8.903 -0.2066 -0.4313 -1.0188
11264SOL    HW235561   6.144   2.003   8.954  0.1085 -0.4661 -0.8696
11265SOL     OW35562   8.320   8.497   7.086 -0.2141  0.6041  0.1287
11265SOL    HW135563   8.229   8.468   7.078 -0.1007  0.5749 -1.1274
11265SOL    HW235564   8.319   8.558   7.160 -1.3415  0.9773 -0.1850
11266SOL     OW35565   2.169   4.445   7.432 -0.2061  0.0460 -0.5015
11266SOL    HW135566   2.115   4.372   7.460  0.5426  0.2330  1.6597
11266SOL    HW235567   2.251   4.405   7.404 -0.5176 -0.0596 -1.2831
11267SOL     OW35568   5.387   9.525   9.219 -0.4723 -0.7120  0.1135
11267SOL    HW135569   5.336   9.449   9.247 -0.7306 -0.6748 -0.2510
11267SOL    HW235570   5.470   9.516   9.265 -0.8947 -0.6378  0.8955
11268SOL     OW35571   0.218   5.162   5.499  0.0331 -0.2865 -0.1492
11268SOL    HW135572   0.232   5.169   5.405  2.0816 -1.1164  0.0450
11268SOL    HW235573   0.278   5.227   5.537  1.3796 -1.9328  0.6525
11269SOL     OW35574   3.842   2.392   5.861 -0.0183  0.6818 -0.9827
11269SOL    HW135575   3.851   2.483   5.833 -0.9259  0.3942 -2.2927
11269SOL    HW235576   3.821   2.344   5.781  1.3022 -0.8335 -0.4846
11270SOL     OW35577   4.243   3.699   6.983  0.4759  0.6203  0.0740
11270SOL    HW135578   4.217   3.614   6.947  0.3119  0.6097  0.2167
11270SOL    HW235579   4.328   3.718   6.942  0.9835 -0.0628  0.7941
11271SOL     OW35580   2.368   1.887   2.186 -0.4258  0.1804  0.6680
11271SOL    HW135581   2.452   1.917   2.221 -0.0956 -2.1868  2.1585
11271SOL    HW235582   2.303   1.924   2.245 -0.2523  0.3538  0.7500
11272SOL     OW35583   4.886   7.749   1.275 -0.0886  0.0788 -0.1216
11272SOL    HW135584   4.871   7.678   1.337 -1.5819  0.7435  0.3332
11272SOL    HW235585   4.951   7.805   1.317 -0.8367  0.3412  0.7228
11273SOL     OW35586   8.566   2.998   6.364 -0.3723 -0.2520  0.7037
11273SOL    HW135587   8.618   3.076   6.343  1.1329 -1.1607  0.8643
11273SOL    HW235588   8.570   2.991   6.459 -2.1666  0.5463  0.8645
11274SOL     OW35589   9.577   4.973   9.408  0.1999  0.1505 -0.5210
11274SOL    HW135590   9.582   4.901   9.345 -2.7510 -0.8026  0.1804
11274SOL    HW235591   9.598   4.933   9.492  1.2720  0.7747 -0.4732
11275SOL     OW35592   7.238   0.527   4.077  0.1647 -0.5289 -0.0795
11275SOL    HW135593   7.240   0.431   4.076 -1.0779 -0.5939 -1.7173
11275SOL    HW235594   7.222   0.551   3.986 -3.8140  1.0442  0.8309
11276SOL     OW35595   2.071   4.628   6.972  0.2665 -0.5029 -0.2817
11276SOL    HW135596   1.991   4.655   7.016 -0.0865 -1.7239 -0.1217
11276SOL    HW235597   2.087   4.695   6.906 -0.5576  0.0605  0.0787
11277SOL     OW35598   3.497   1.136   6.512 -0.0021  0.0039  0.2906
11277SOL    HW135599   3.520   1.222   6.477  0.0391  0.2911  0.9889
11277SOL    HW235600   3.405   1.125   6.490 -0.2218  0.5846  0.8796
11278SOL     OW35601   4.598   8.208   8.749 -0.3733 -0.5527  0.0767
11278SOL    HW135602   4.652   8.169   8.818 -1.6241 -0.6612  1.0238
11278SOL    HW235603   4.591   8.300   8.775  0.9805 -0.0806 -1.1217
11279SOL     OW35604   8.971   0.232   3.378  0.4571 -0.0650  0.3824
11279SOL    HW135605   9.013   0.308   3.419  3.0479 -1.4233  0.4589
11279SOL    HW235606   9.005   0.231   3.289  0.6271 -1.2300  0.4475
11280SOL     OW35607   1.729   5.051   5.342 -0.7035  0.3588  0.7018
11280SOL    HW135608   1.643   5.019   5.371  0.2895 -1.5620  1.7444
11280SOL    HW235609   1.751   5.120   5.404 -1.0879  0.2101  1.0076
11281SOL     OW35610   5.847   6.836   0.799  0.1423  0.2024  0.0013
11281SOL    HW135611   5.836   6.741   0.799 -3.5677  0.4832 -0.5293
11281SOL    HW235612   5.885   6.856   0.713  0.3125 -0.7633 -0.1535
11282SOL     OW35613   3.672   0.259   6.071 -0.3541 -0.0983 -0.1177
11282SOL    HW135614   3.729   0.328   6.105 -0.9301 -0.4051  1.5603
11282SOL    HW235615   3.697   0.251   5.979  1.4101  0.6586  0.2482
11283SOL     OW35616   0.981   3.364   2.998 -0.2812 -0.2730 -0.6620
11283SOL    HW135617   1.038   3.323   3.062 -1.5029 -1.6726 -0.4316
11283SOL    HW235618   0.978   3.302   2.925  0.3141  0.8500 -1.6794
11284SOL     OW35619   3.815   7.722   3.581 -0.0636  0.0710 -0.2942
11284SOL    HW135620   3.818   7.817   3.579 -0.1486  0.0662 -0.6410
11284SOL    HW235621   3.899   7.696   3.619 -0.2980  0.3011  0.3986
11285SOL     OW35622   5.550   4.281   1.782  0.9794 -0.0467  0.0912
11285SOL    HW135623   5.563   4.187   1.788 -1.2519 -0.3760  0.8379
11285SOL    HW235624   5.626   4.313   1.734  0.4509 -2.5851 -2.7820
11286SOL     OW35625   8.985   8.416   3.529 -0.7950 -0.2714  0.1068
11286SOL    HW135626   8.935   8.354   3.475  0.0809  0.1766 -1.2490
11286SOL    HW235627   9.059   8.365   3.563 -1.7775 -0.7727  1.6209
11287SOL     OW35628   5.285   3.513   7.341 -0.3553 -0.1224  0.6312
11287SOL    HW135629   5.300   3.419   7.329 -1.0682 -0.1359 -0.2916
11287SOL    HW235630   5.358   3.555   7.295 -0.8659 -0.2268 -0.3124
11288SOL     OW35631   9.655   9.476   7.027  0.3208  0.3345 -0.3325
11288SOL    HW135632   9.750   9.477   7.016  0.2088 -0.9565 -1.9678
11288SOL    HW235633   9.626   9.401   6.975 -1.7272  1.6092 -1.1853
11289SOL     OW35634   0.140   4.275   1.757 -0.1403 -0.4019 -0.6231
11289SOL    HW135635   0.209   4.224   1.799  0.6992 -0.4508 -1.9839
11289SOL    HW235636   0.105   4.217   1.690 -1.1769 -0.1939 -0.2724
11290SOL     OW35637   9.544   6.658   2.791  0.9880 -0.0547 -0.0356
11290SOL    HW135638   9.535   6.677   2.697  2.0908 -0.9809 -0.3524
11290SOL    HW235639   9.636   6.677   2.810  0.5203  1.1378  1.1135
11291SOL     OW35640   7.637   8.415   1.633 -0.2528  0.1894  0.3308
11291SOL    HW135641   7.590   8.332   1.642 -1.7529  0.9793  0.0699
11291SOL    HW235642   7.641   8.450   1.723  0.3529 -0.1387  0.4363
11292SOL     OW35643   3.459   4.875   2.661  0.1304  0.3542  0.3741
11292SOL    HW135644   3.426   4.870   2.572  0.1456  1.1542  0.3211
11292SOL    HW235645   3.409   4.945   2.702  0.1611  0.0313  0.9787
11293SOL     OW35646   4.856   6.745   9.075  0.1739  0.2312  0.2455
11293SOL    HW135647   4.871   6.829   9.031 -1.0134 -0.7069 -2.1109
11293SOL    HW235648   4.800   6.766   9.150 -0.7365  1.4567 -0.7490
11294SOL     OW35649   3.094   4.715   2.679 -0.0266 -0.1114  0.7025
11294SOL    HW135650   3.082   4.727   2.584 -0.6223 -3.2704  0.2516
11294SOL    HW235651   3.005   4.719   2.715  0.0031 -0.6409  0.8452
11295SOL     OW35652   1.660   6.893   8.605 -0.6571  0.0936 -0.0675
11295SOL    HW135653   1.599   6.901   8.533 -1.9951  1.8490  1.1740
11295SOL    HW235654   1.684   6.983   8.627 -0.5067 -0.3640  1.8404
11296SOL     OW35655   5.806   8.406   6.334  0.3480  0.4461 -0.3828
11296SOL    HW135656   5.851   8.457   6.267  0.1416  0.9760 -0.1266
11296SOL    HW235657   5.840   8.441   6.417  0.1355  0.2326 -0.2054
11297SOL     OW35658   6.141   0.886   6.271  0.3427  0.3484 -0.4235
11297SOL    HW135659   6.125   0.979   6.282 -2.5199 -0.2377  1.3045
11297SOL    HW235660   6.232   0.880   6.242  0.9749  3.5835  0.5722
11298SOL     OW35661   6.400   5.757   4.999  0.2351  0.1417  0.4456
11298SOL    HW135662   6.340   5.688   4.971 -0.3357  1.0270 -0.5612
11298SOL    HW235663   6.343   5.826   5.033  0.3213  2.4427 -3.5546
11299SOL     OW35664   8.288   4.620   3.976 -0.4453 -0.0698  0.0309
11299SOL    HW135665   8.261   4.543   3.927  0.3447  0.3149 -1.0418
11299SOL    HW235666   8.250   4.607   4.063  1.1567 -2.5413  0.4581
11300SOL     OW35667   2.484   5.006   1.788  0.5928  0.6669  0.0626
11300SOL    HW135668   2.415   5.057   1.829 -0.6049 -1.9531  1.5387
11300SOL    HW235669   2.565   5.038   1.828  0.1047  2.4917 -0.3222
11301SOL     OW35670   5.498   1.527   8.304 -0.8402 -0.2289 -0.1865
11301SOL    HW135671   5.518   1.437   8.330 -2.1444 -0.4831 -0.0156
11301SOL    HW235672   5.552   1.542   8.226 -0.7093 -1.2121 -0.2946
11302SOL     OW35673   6.134   0.337   2.968 -0.1497 -0.2161  0.3333
11302SOL    HW135674   6.113   0.343   2.875 -0.5725  2.3457  0.5133
11302SOL    HW235675   6.210   0.279   2.972 -0.6943 -1.1257 -1.4778
11303SOL     OW35676   9.147   4.445   4.335 -0.7584  0.5082 -0.5686
11303SOL    HW135677   9.229   4.397   4.322 -1.0378 -0.2170  0.2320
11303SOL    HW235678   9.167   4.535   4.311  0.1182  0.2291 -0.9198
11304SOL     OW35679   5.197   1.814   8.598 -0.2475  0.8661  0.1834
11304SOL    HW135680   5.231   1.848   8.515 -1.3704 -0.4773 -0.8720
11304SOL    HW235681   5.217   1.883   8.662  1.3330  1.5944 -1.0285
11305SOL     OW35682   1.842   9.672   2.431  0.0139  0.3024 -0.3825
11305SOL    HW135683   1.817   9.696   2.341 -0.9465 -2.9763 -1.1114
11305SOL    HW235684   1.760   9.647   2.473  0.8115 -1.0146  0.4554
11306SOL     OW35685   1.091   5.857   3.735  0.1336  0.7431 -0.4680
11306SOL    HW135686   1.051   5.771   3.723  0.1658  0.9421 -2.3407
11306SOL    HW235687   1.098   5.868   3.829  2.0658 -2.2102 -0.1606
11307SOL     OW35688   4.844   9.079   7.864  0.8443 -0.3006  0.0308
11307SOL    HW135689   4.825   9.108   7.953 -0.7750  0.4215 -0.4989
11307SOL    HW235690   4.936   9.102   7.850  0.7934  0.6669  1.1226
11308SOL     OW35691   4.706   5.436   7.992  0.3935 -0.1339 -0.1329
11308SOL    HW135692   4.801   5.446   7.992  0.5486 -1.2345 -1.8602
11308SOL    HW235693   4.685   5.401   7.906 -1.4120 -1.3652  0.7240
11309SOL     OW35694   2.445   5.505   1.601  0.1891  0.3452 -0.2323
11309SOL    HW135695   2.426   5.547   1.685 -0.1302 -1.1550  0.4638
11309SOL    HW235696   2.369   5.526   1.546 -0.3636 -0.0152  0.3822
11310SOL     OW35697   3.434   7.723   8.276 -0.2302 -0.5322  0.4963
11310SOL    HW135698   3.515   7.682   8.245 -0.4012 -0.8856  0.5082
11310SOL    HW235699   3.457   7.760   8.361  0.2217  0.3833 -0.0198
11311SOL     OW35700   3.421   7.107   8.406 -0.3520  1.9314 -0.6021
11311SOL    HW135701   3.460   7.047   8.343 -0.7358 -1.7467  2.3196
11311SOL    HW235702   3.330   7.114   8.378 -0.5416  0.2765 -0.5253
11312SOL     OW35703   9.073   0.242   3.145 -0.7064  0.5841  0.1071
11312SOL    HW135704   9.043   0.224   3.056  1.1195  0.4563 -0.5260
11312SOL    HW235705   9.166   0.265   3.135 -0.9889  2.7285  1.7571
11313SOL     OW35706   8.591   6.513   5.829  0.1895 -0.5671 -0.0057
11313SOL    HW135707   8.646   6.436   5.845  1.8715  0.3555 -1.0222
11313SOL    HW235708   8.609   6.536   5.737 -3.2352 -1.2090 -0.9708
11314SOL     OW35709   5.930   4.155   5.086  0.4069 -0.2068 -0.3785
11314SOL    HW135710   5.988   4.156   5.010  0.8861  0.6444 -0.0239
11314SOL    HW235711   5.888   4.241   5.086 -1.8893 -1.2523 -1.3608
11315SOL     OW35712   4.046   4.559   6.991 -0.5851 -0.3246  0.4738
11315SOL    HW135713   4.123   4.593   7.036  0.8622 -0.2615 -1.8971
11315SOL    HW235714   4.009   4.635   6.945 -3.2235  0.0785  2.9246
11316SOL     OW35715   4.638   0.026   6.734  0.3009 -0.1357  0.0442
11316SOL    HW135716   4.551  -0.015   6.731 -0.3601  0.8171  2.9586
11316SOL    HW235717   4.640   0.083   6.657 -1.3667 -0.6893 -0.4683
11317SOL     OW35718   4.940   9.750   0.214 -0.1573 -0.1318 -0.3574
11317SOL    HW135719   4.916   9.704   0.134 -0.7309  0.9632 -0.8234
11317SOL    HW235720   5.023   9.709   0.241  0.3896 -0.0795 -1.8718
11318SOL     OW35721   6.262   3.102   8.512  0.0484  0.7060 -0.2396
11318SOL    HW135722   6.329   3.108   8.580  0.1211  0.5944 -0.3007
11318SOL    HW235723   6.312   3.096   8.430  0.0424 -1.6439 -0.1565
11319SOL     OW35724   5.876   1.478   4.903 -0.2624 -0.3088 -0.2574
11319SOL    HW135725   5.817   1.406   4.923  0.5549 -0.4611  1.7974
11319SOL    HW235726   5.823   1.557   4.911 -0.4439 -0.5080  0.5870
11320SOL     OW35727   4.830   3.675   8.669  0.2791 -0.0401 -0.1501
11320SOL    HW135728   4.837   3.758   8.621  1.3972  1.0524  1.7393
11320SOL    HW235729   4.892   3.617   8.625  2.5024  1.4415  0.8293
11321SOL     OW35730   5.540   9.194   2.519 -0.4049  0.8378  0.1676
11321SOL    HW135731   5.497   9.194   2.434  0.8938 -1.3381 -0.5746
11321SOL    HW235732   5.576   9.106   2.528  1.3361  1.6492  2.0399
11322SOL     OW35733   7.227   2.058   0.209 -0.1240 -0.0635  0.6946
11322SOL    HW135734   7.294   1.998   0.176  0.8336  0.6748  1.2724
11322SOL    HW235735   7.151   2.042   0.153  0.5851 -0.7869 -0.0799
11323SOL     OW35736   0.065   2.460   8.025  0.3888  0.0835  0.3610
11323SOL    HW135737   0.054   2.555   8.023  0.4852  0.1163  1.0719
11323SOL    HW235738   0.030   2.430   7.941 -1.3162  0.5813  0.8487
11324SOL     OW35739   1.122   8.494   6.356  0.3161  0.2421  0.2962
11324SOL    HW135740   1.097   8.452   6.273 -1.1932 -1.1706  1.4176
11324SOL    HW235741   1.039   8.519   6.396  0.7897 -1.8529  2.7819
11325SOL     OW35742   3.797   3.202   2.280  0.2705  0.7438  0.4917
11325SOL    HW135743   3.741   3.139   2.327  1.3409 -1.1926 -0.6911
11325SOL    HW235744   3.763   3.288   2.306 -0.8823 -0.2733  2.6619
11326SOL     OW35745   8.536   8.764   6.094 -0.2785  0.0394 -0.1336
11326SOL    HW135746   8.630   8.754   6.081 -0.5575 -0.2953 -2.1853
11326SOL    HW235747   8.514   8.846   6.050 -1.1269 -0.5376 -0.8281
11327SOL     OW35748   0.210   7.742   0.562 -0.2058 -0.7353 -0.4480
11327SOL    HW135749   0.145   7.757   0.493 -1.0385 -1.0886  0.2374
11327SOL    HW235750   0.262   7.669   0.529  0.3661  0.0625 -1.3593
11328SOL     OW35751   3.401   3.896   2.927  0.0389  0.2078  0.6181
11328SOL    HW135752   3.399   3.842   2.848  0.7564 -0.2016  0.8741
11328SOL    HW235753   3.415   3.834   2.999 -2.2116  0.3673  1.2686
11329SOL     OW35754   7.886   0.619   3.334 -0.1999  0.1202  0.0288
11329SOL    HW135755   7.857   0.697   3.381 -1.3753  0.2301 -0.8269
11329SOL    HW235756   7.810   0.560   3.335  0.2310 -0.4659 -0.4793
11330SOL     OW35757   0.562   3.729   6.172 -0.0296  0.1548  0.2287
11330SOL    HW135758   0.481   3.740   6.123 -0.5271 -1.7707  0.5587
11330SOL    HW235759   0.555   3.792   6.244 -0.7660  0.7024 -0.3043
11331SOL     OW35760   2.401   2.331   4.134 -0.5672 -0.1920  0.3033
11331SOL    HW135761   2.379   2.424   4.130 -1.5939 -0.3528  1.5559
11331SOL    HW235762   2.324   2.287   4.100  0.0676 -0.5951 -0.6582
11332SOL     OW35763   0.616   1.016   5.716 -0.4680 -0.1039  0.2129
11332SOL    HW135764   0.615   1.023   5.811 -3.2141 -0.4777  0.2843
11332SOL    HW235765   0.609   1.107   5.685  1.5409  0.1178  0.2881
11333SOL     OW35766   4.163   7.607   2.928 -0.0534  0.7599  0.3476
11333SOL    HW135767   4.174   7.595   3.023 -0.1141 -0.0119  0.2607
11333SOL    HW235768   4.247   7.639   2.898  0.3697 -0.2107  0.4703
11334SOL     OW35769   6.233   7.626   2.860  0.1883  0.1292  0.3580
11334SOL    HW135770   6.184   7.670   2.929  1.0477  2.1220 -0.2384
11334SOL    HW235771   6.253   7.540   2.897  0.6036  1.1008  2.6008
11335SOL     OW35772   3.171   8.191   5.682 -0.0446  0.1754  0.9012
11335SOL    HW135773   3.256   8.217   5.647  0.3399  0.3541  1.9203
11335SOL    HW235774   3.141   8.120   5.624 -0.6520  2.1257 -1.3268
11336SOL     OW35775   5.678   3.128   4.119  0.2081  0.4683 -0.0354
11336SOL    HW135776   5.713   3.125   4.208  1.5938 -0.6271 -0.5727
11336SOL    HW235777   5.615   3.056   4.116 -1.2437  1.6584  0.5631
11337SOL     OW35778   5.222   1.357   2.980  0.7790 -0.1088  0.1652
11337SOL    HW135779   5.223   1.351   3.075  2.2786 -1.3540  0.1113
11337SOL    HW235780   5.131   1.374   2.957  0.6951  2.3386  1.9139
11338SOL     OW35781   8.580   8.415   4.582 -0.7340 -0.3696 -0.5673
11338SOL    HW135782   8.514   8.477   4.615  0.4116  0.3961  0.3380
11338SOL    HW235783   8.572   8.339   4.640 -0.5881 -0.1348 -0.2353
11339SOL     OW35784   6.216   5.585   2.927  0.2073 -0.4043  0.2060
11339SOL    HW135785   6.264   5.643   2.985 -1.3018  0.8305  0.2926
11339SOL    HW235786   6.247   5.608   2.839 -0.4929  0.7030  0.2257
11340SOL     OW35787   0.660   0.558   2.290  0.1674 -0.2665 -0.2759
11340SOL    HW135788   0.671   0.648   2.321 -0.0514 -0.4519  0.3680
11340SOL    HW235789   0.581   0.560   2.237  0.4261  0.0155 -0.6529
11341SOL     OW35790   4.537   5.253   0.101  0.0315  0.1269 -0.1437
11341SOL    HW135791   4.578   5.186   0.155 -1.4709  0.2460  1.2114
11341SOL    HW235792   4.452   5.216   0.077 -1.0450  1.6748  1.0345
11342SOL     OW35793   6.449   1.861   8.402  0.3079  0.2988  0.0582
11342SOL    HW135794   6.498   1.895   8.477  1.2747 -0.6519 -0.1220
11342SOL    HW235795   6.477   1.770   8.394 -1.4592 -0.2716 -0.0987
11343SOL     OW35796   6.736   4.324   4.707 -0.2552 -0.1475  0.1742
11343SOL    HW135797   6.682   4.284   4.638 -1.3884  1.6884 -0.0665
11343SOL    HW235798   6.823   4.331   4.668 -0.5280 -0.4969 -0.5247
11344SOL     OW35799   1.075   5.949   0.436  0.7290  0.1771 -0.6255
11344SOL    HW135800   1.079   5.891   0.360  1.6280 -2.6614  1.4223
11344SOL    HW235801   1.165   5.953   0.468  0.4146  1.5363  0.1707
11345SOL     OW35802   6.091   7.485   4.898 -0.4635  0.4830 -0.9756
11345SOL    HW135803   6.096   7.579   4.879  0.7666  0.1515 -2.4327
11345SOL    HW235804   6.181   7.458   4.916 -0.9359 -0.2464  0.4817
11346SOL     OW35805   8.157   8.562   8.444 -0.0628 -0.1455  0.1265
11346SOL    HW135806   8.240   8.568   8.397 -0.4831  2.3349 -0.4284
11346SOL    HW235807   8.162   8.630   8.511 -1.6724  0.1204  0.0194
11347SOL     OW35808   7.512   4.096   9.707  0.5269  0.2140 -0.2567
11347SOL    HW135809   7.573   4.028   9.678 -2.0291 -2.1485 -0.5598
11347SOL    HW235810   7.512   4.160   9.636  1.2398 -0.7215 -1.1303
11348SOL     OW35811   1.206   1.526   3.656  0.0807  0.5313 -0.5833
11348SOL    HW135812   1.136   1.587   3.678  0.6154  0.5205  1.4026
11348SOL    HW235813   1.269   1.579   3.607 -1.1410  0.6163 -2.1004
11349SOL     OW35814   3.018   3.880   5.639 -0.4910 -0.4720 -0.3230
11349SOL    HW135815   2.988   3.869   5.549  1.3780  0.7799 -1.1545
11349SOL    HW235816   3.032   3.974   5.648  0.8111 -0.7494  0.7839
11350SOL     OW35817   7.025   1.978   7.148 -0.2441 -0.0329 -0.2125
11350SOL    HW135818   7.015   1.903   7.089 -1.2219  0.4383 -0.6619
11350SOL    HW235819   6.941   2.023   7.144 -0.0859  0.4038  1.0066
11351SOL     OW35820   7.885   9.552   6.752  0.0969  0.0809  0.8726
11351SOL    HW135821   7.895   9.576   6.659 -0.4562 -0.2622  0.7221
11351SOL    HW235822   7.793   9.530   6.761 -0.1294  1.2954  1.7889
11352SOL     OW35823   1.945   2.456   8.224  0.0588  0.1010  0.0885
11352SOL    HW135824   1.905   2.544   8.223  0.0144  0.0891  0.8142
11352SOL    HW235825   1.871   2.397   8.210  0.3286  0.2364 -2.5341
11353SOL     OW35826   2.894   3.074   0.938  0.3490 -0.0856  0.3497
11353SOL    HW135827   2.976   3.124   0.947  0.5922 -0.1623 -1.1695
11353SOL    HW235828   2.915   3.006   0.874 -0.2030 -1.6906  1.8024
11354SOL     OW35829   1.441   8.687   4.534 -0.5542  0.1310 -0.8074
11354SOL    HW135830   1.464   8.685   4.441  0.5227 -2.5144 -0.5723
11354SOL    HW235831   1.366   8.628   4.542 -0.7351  0.4496 -0.0203
11355SOL     OW35832   0.473   4.150   6.783 -0.5581 -0.3153 -0.0304
11355SOL    HW135833   0.497   4.228   6.732  0.6581  0.4262  1.5711
11355SOL    HW235834   0.380   4.137   6.766 -0.5860  0.9729 -0.9994
11356SOL     OW35835   2.163   0.879   9.482 -0.4619  0.7542 -0.0979
11356SOL    HW135836   2.110   0.943   9.529 -0.7074  0.3213  0.2162
11356SOL    HW235837   2.123   0.875   9.394 -0.4040  1.0800 -0.1379
11357SOL     OW35838   5.289   8.800   1.756  0.6703 -0.1759 -0.0137
11357SOL    HW135839   5.269   8.707   1.758  1.8733 -0.4467  1.9044
11357SOL    HW235840   5.361   8.808   1.693  1.4013 -0.7572  0.7313
11358SOL     OW35841   4.810   5.069   7.831 -0.1245  0.2009  0.1263
11358SOL    HW135842   4.902   5.054   7.811 -0.4878 -2.7381  0.2191
11358SOL    HW235843   4.776   4.982   7.852 -3.0825  1.0899 -0.5439
11359SOL     OW35844   9.556   3.600   6.674 -0.1611 -0.1565  0.0892
11359SOL    HW135845   9.648   3.576   6.680  0.1330  0.7587 -0.5100
11359SOL    HW235846   9.544   3.628   6.583 -0.6059  1.3180  0.5604
11360SOL     OW35847   0.115   1.712   1.229  0.4702 -0.2120  0.7711
11360SOL    HW135848   0.195   1.727   1.178  0.3747  1.9355  1.1440
11360SOL    HW235849   0.144   1.663   1.305  1.4969  0.7091  0.9953
11361SOL     OW35850   7.833   4.543   6.588 -0.7061 -0.1740 -0.4986
11361SOL    HW135851   7.846   4.585   6.672  0.9455 -1.0944 -0.2504
11361SOL    HW235852   7.765   4.477   6.604 -0.0797 -0.6593  0.2528
11362SOL     OW35853   5.443   8.329   7.753 -0.5435 -0.3384  0.0161
11362SOL    HW135854   5.486   8.257   7.708  0.8377  0.5348 -0.1269
11362SOL    HW235855   5.497   8.345   7.831 -2.2113 -1.0331  1.3902
11363SOL     OW35856   5.297   2.133   3.572  0.0657 -1.0220  0.5807
11363SOL    HW135857   5.229   2.165   3.631 -1.6543 -1.9526 -0.8029
11363SOL    HW235858   5.260   2.145   3.484  2.5643  0.4088 -0.3861
11364SOL     OW35859   8.347   1.330   6.783 -0.7721 -0.2282  0.3911
11364SOL    HW135860   8.429   1.374   6.757 -1.2044  0.4128  0.0611
11364SOL    HW235861   8.362   1.238   6.763 -0.0783 -0.1358  0.4565
11365SOL     OW35862   0.928   8.268   4.689 -0.2659  0.4733 -0.3359
11365SOL    HW135863   0.868   8.200   4.722  0.3224  1.1175  2.2824
11365SOL    HW235864   1.005   8.219   4.659 -0.4747 -0.1154  0.0681
11366SOL     OW35865   6.925   9.634   0.172  0.7298 -0.1457 -0.7630
11366SOL    HW135866   6.839   9.675   0.183 -0.1247 -2.1228  0.3350
11366SOL    HW235867   6.911   9.564   0.109  1.4558 -0.7265 -0.2949
11367SOL     OW35868   2.585   1.355   3.766 -0.0121 -0.4362  0.2053
11367SOL    HW135869   2.622   1.433   3.809  0.7911  0.2624 -1.6747
11367SOL    HW235870   2.534   1.390   3.693 -1.5945 -1.5906  0.7035
11368SOL     OW35871   9.616   1.460   6.679 -0.3391 -0.1162 -0.2325
11368SOL    HW135872   9.704   1.496   6.685  0.3190 -1.6305 -0.5467
11368SOL    HW235873   9.622   1.373   6.716 -1.3866 -0.7690 -1.5032
11369SOL     OW35874   3.712   6.161   7.478 -0.4137  0.0957  0.0038
11369SOL    HW135875   3.726   6.094   7.411 -0.2049  1.0380 -0.9170
11369SOL    HW235876   3.799   6.180   7.512  0.0426  2.3716 -2.2073
11370SOL     OW35877   5.700   0.444   3.418  0.0956  0.1986  0.0510
11370SOL    HW135878   5.641   0.440   3.494  0.5108  2.2193  0.5112
11370SOL    HW235879   5.784   0.473   3.454  0.8868 -0.8348 -0.8946
11371SOL     OW35880   5.164   9.217   9.796  0.1235  0.0578  0.2213
11371SOL    HW135881   5.123   9.134   9.818  0.5288 -0.0434  0.5996
11371SOL    HW235882   5.090   9.277   9.783 -0.1523 -0.2202  0.4954
11372SOL     OW35883   5.581   0.822   3.735  0.5644 -0.2723  0.7384
11372SOL    HW135884   5.535   0.757   3.788  0.8508 -1.9187 -0.9186
11372SOL    HW235885   5.538   0.818   3.649  1.9962  0.1410 -0.0325
11373SOL     OW35886   3.210   5.318   1.905 -0.2657 -0.2769 -0.0152
11373SOL    HW135887   3.135   5.327   1.847  0.3790  0.9161 -0.6966
11373SOL    HW235888   3.261   5.397   1.891  4.7290 -3.6185 -4.6980
11374SOL     OW35889   0.775   5.705   3.845 -0.0384  0.5300  0.4862
11374SOL    HW135890   0.833   5.663   3.781 -0.3441  2.3234 -1.0334
11374SOL    HW235891   0.775   5.644   3.919  1.5759 -0.8659 -0.5602
11375SOL     OW35892   9.200   6.115   2.549 -0.2530 -0.0881  0.3887
11375SOL    HW135893   9.151   6.036   2.570  0.5391 -0.6182  0.3083
11375SOL    HW235894   9.154   6.154   2.475 -1.2068  0.0542  1.0409
11376SOL     OW35895   5.241   6.036   4.093  0.1297 -0.6533 -0.0522
11376SOL    HW135896   5.286   6.031   4.178  0.7216  1.3213 -0.1865
11376SOL    HW235897   5.310   6.060   4.031 -0.8740  1.5814 -0.4232
11377SOL     OW35898   3.828   4.957   9.594  0.2764  0.5444  0.5993
11377SOL    HW135899   3.830   5.046   9.631  2.5701  0.8565 -0.0976
11377SOL    HW235900   3.759   4.960   9.528 -0.2151  1.5723  1.1331
11378SOL     OW35901   7.922   5.368   8.070  0.2566 -0.0969  0.3242
11378SOL    HW135902   7.918   5.463   8.079  1.5626  0.0428 -0.3620
11378SOL    HW235903   7.841   5.336   8.111 -0.4988  1.3366 -0.0091
11379SOL     OW35904   7.758   8.333   1.994  0.2744  0.0435 -0.2884
11379SOL    HW135905   7.745   8.428   1.988  1.2708  0.2600  0.7999
11379SOL    HW235906   7.669   8.298   2.004 -0.0761  0.8848 -0.3382
11380SOL     OW35907   4.063   6.728   7.269  0.0193  0.2770  0.6402
11380SOL    HW135908   4.001   6.687   7.330  0.2267 -0.0288  0.6449
11380SOL    HW235909   4.016   6.804   7.235 -1.1164 -1.0320 -0.8501
11381SOL     OW35910   5.121   7.765   7.768 -0.3113 -0.0353 -0.1996
11381SOL    HW135911   5.140   7.690   7.712  0.7393  0.1996 -0.1885
11381SOL    HW235912   5.082   7.830   7.710 -2.6016 -1.0773  0.0632
11382SOL     OW35913   2.778   1.136   7.208  0.0379 -0.0296  0.4114
11382SOL    HW135914   2.774   1.142   7.303  2.3221  0.7530  0.5280
11382SOL    HW235915   2.758   1.225   7.177  0.5397  0.0378  0.2586
11383SOL     OW35916   6.603   5.798   8.752  0.0113  0.4154 -0.3637
11383SOL    HW135917   6.669   5.740   8.712 -0.4413 -0.7201  0.4833
11383SOL    HW235918   6.558   5.838   8.677 -0.4446 -1.2268 -1.0086
11384SOL     OW35919   3.488   3.407   3.393 -0.1553 -0.0887 -0.3163
11384SOL    HW135920   3.410   3.459   3.373  0.9149  2.0191  0.5841
11384SOL    HW235921   3.485   3.395   3.488 -0.8498 -2.5773 -0.5944
11385SOL     OW35922   4.286   8.860   0.456 -0.3230  0.0068  0.1686
11385SOL    HW135923   4.247   8.918   0.390 -0.3480 -0.3131 -0.0976
11385SOL    HW235924   4.288   8.913   0.535 -2.5759 -0.4152  0.5629
11386SOL     OW35925   6.530   3.207   0.495 -0.2574  0.3049 -0.4253
11386SOL    HW135926   6.461   3.143   0.508  0.1016 -0.0552 -0.2722
11386SOL    HW235927   6.597   3.184   0.560 -0.1730  0.8982 -0.2924
11387SOL     OW35928   1.908   9.608   4.066  0.6539 -0.1378  0.0629
11387SOL    HW135929   1.903   9.628   4.159  0.6629 -1.0719  0.2770
11387SOL    HW235930   2.000   9.585   4.051  0.7968  0.6504 -0.3216
11388SOL     OW35931   0.365   3.628   8.187 -0.3366  0.2978  0.2126
11388SOL    HW135932   0.313   3.701   8.219 -0.3497  0.8381 -0.9664
11388SOL    HW235933   0.452   3.664   8.173  0.1248 -0.3660  1.2870
11389SOL     OW35934   6.306   5.937   4.209 -0.4713  0.1792 -0.3599
11389SOL    HW135935   6.322   5.849   4.174 -2.6902 -0.0443 -1.0152
11389SOL    HW235936   6.336   5.996   4.141  0.5962 -0.0763 -0.1223
11390SOL     OW35937   4.806   8.148   7.574 -0.4185  0.1554  0.1820
11390SOL    HW135938   4.778   8.057   7.586  0.7673 -0.5748 -1.9965
11390SOL    HW235939   4.736   8.189   7.524  0.8261 -0.8254 -2.5765
11391SOL     OW35940   1.536   4.220   3.854 -0.3163  0.4974 -0.3680
11391SOL    HW135941   1.574   4.169   3.782  0.4905  0.7822 -0.1546
11391SOL    HW235942   1.451   4.249   3.820 -1.0450 -1.4273 -0.2802
11392SOL     OW35943   5.959   9.684   8.672  0.1416  0.2464 -0.1356
11392SOL    HW135944   5.885   9.628   8.696  0.0143  0.3960 -0.1793
11392SOL    HW235945   5.923   9.745   8.608  0.2756  0.3874 -0.0767
11393SOL     OW35946   7.639   8.206   0.733 -0.5709 -0.2391  0.4219
11393SOL    HW135947   7.713   8.202   0.793  0.0827 -2.5092 -0.4176
11393SOL    HW235948   7.636   8.297   0.703  0.7540  0.2900  1.8081
11394SOL     OW35949   2.087   6.616   0.130 -0.0447  0.1121  0.5179
11394SOL    HW135950   2.117   6.547   0.190 -0.6005 -0.6630 -0.0665
11394SOL    HW235951   2.005   6.582   0.095 -0.5292  1.2675  0.5127
11395SOL     OW35952   9.729   7.601   3.700 -0.3534 -0.1665 -0.7202
11395SOL    HW135953   9.783   7.606   3.779 -1.1068 -1.7650 -0.0768
11395SOL    HW235954   9.641   7.620   3.731 -0.9487 -2.5725 -0.8096
11396SOL     OW35955   6.489   8.664   5.517  0.3979  0.3409 -0.0713
11396SOL    HW135956   6.475   8.742   5.463  0.4336  1.0265  0.8640
11396SOL    HW235957   6.555   8.692   5.582  0.3193 -0.4287  0.3535
11397SOL     OW35958   8.055   0.962   9.826 -0.3018 -0.0194 -0.0669
11397SOL    HW135959   8.133   0.964   9.771 -0.2699  0.4291 -0.0082
11397SOL    HW235960   8.085   0.925   9.909  0.3863  2.2324  0.7634
11398SOL     OW35961   2.244   3.909   8.807  0.2012 -0.2658  0.0918
11398SOL    HW135962   2.291   3.869   8.734 -1.6256 -0.2273 -1.1717
11398SOL    HW235963   2.174   3.961   8.766  0.1678  1.1673  1.8180
11399SOL     OW35964   2.349   6.928   3.374  0.3679  0.5087  0.2189
11399SOL    HW135965   2.414   6.947   3.441 -0.3451 -1.6133  1.6106
11399SOL    HW235966   2.296   6.858   3.411 -1.3606  0.6761 -1.7551
11400SOL     OW35967   0.440   7.342   9.572 -0.3580 -0.0099  0.3254
11400SOL    HW135968   0.434   7.372   9.481 -2.1726  1.3646  0.8432
11400SOL    HW235969   0.478   7.254   9.565 -0.8713 -0.1352 -1.7982
11401SOL     OW35970   4.662   0.698   3.586 -0.3036 -0.1403 -0.1601
11401SOL    HW135971   4.608   0.625   3.615  0.1069 -0.4968 -0.2891
11401SOL    HW235972   4.633   0.715   3.496 -0.0892 -0.4376 -0.2864
11402SOL     OW35973   7.626   0.688   3.880 -0.0898 -0.0416  0.6680
11402SOL    HW135974   7.578   0.757   3.926  1.7744  0.6297  1.7678
11402SOL    HW235975   7.718   0.708   3.899  0.5730 -1.8728 -0.4171
11403SOL     OW35976   8.542   6.435   6.843  0.5151 -0.2482 -0.1540
11403SOL    HW135977   8.636   6.416   6.847  0.4343 -0.4332  1.0560
11403SOL    HW235978   8.535   6.529   6.862  0.3427 -0.5624  1.4286
11404SOL     OW35979   9.123   4.044   4.340 -0.4524 -0.0593  0.1703
11404SOL    HW135980   9.178   3.992   4.399  2.2804  2.0846 -0.3171
11404SOL    HW235981   9.072   4.100   4.399 -1.9176 -1.7509  0.6054
11405SOL     OW35982   2.309   3.168   0.800 -0.1907 -0.1659 -0.5039
11405SOL    HW135983   2.215   3.153   0.789 -0.4385 -0.6041  1.7687
11405SOL    HW235984   2.351   3.090   0.765 -0.7142 -0.3844 -0.6498
11406SOL     OW35985   2.520   2.890   5.732  0.2280  0.0719  0.3681
11406SOL    HW135986   2.471   2.817   5.694  0.0348  0.8079 -0.8838
11406SOL    HW235987   2.597   2.898   5.675 -1.2613  2.7530 -1.5232
11407SOL     OW35988   0.685   2.305   0.774  0.0564  0.1447 -0.2407
11407SOL    HW135989   0.624   2.375   0.748 -0.7673 -0.3136  0.4336
11407SOL    HW235990   0.741   2.294   0.697 -1.7154 -0.5104 -1.5211
11408SOL     OW35991   5.964   9.301   0.566 -0.2945 -0.6639  0.3207
11408SOL    HW135992   5.908   9.379   0.558 -0.4367 -0.3678  3.0013
11408SOL    HW235993   6.053   9.334   0.558 -0.4097 -0.5385 -0.4345
11409SOL     OW35994   9.696   5.593   2.093 -0.0134 -0.1414  0.2086
11409SOL    HW135995   9.641   5.657   2.138  1.7784  1.3011  0.4460
11409SOL    HW235996   9.698   5.623   2.002  0.3911 -0.1843  0.2030
11410SOL     OW35997   9.341   6.165   7.645  0.4838  0.3980 -0.3704
11410SOL    HW135998   9.414   6.224   7.627  0.2956  0.4132 -1.0988
11410SOL    HW235999   9.298   6.152   7.560 -1.3808  1.7268  0.3173
11411SOL     OW36000   8.992   5.589   0.666  0.1645 -0.5064 -0.2339
11411SOL    HW136001   8.914   5.645   0.661 -2.9920 -4.3009  1.0039
11411SOL    HW236002   9.026   5.603   0.754  0.8033  1.0170 -0.7025
11412SOL     OW36003   8.953   2.600   3.023 -0.5196 -0.1161 -0.2869
11412SOL    HW136004   8.870   2.596   3.070  0.2776 -1.1421  1.1196
11412SOL    HW236005   9.003   2.669   3.067  0.8097 -2.0851  1.4766
11413SOL     OW36006   7.667   1.134   6.087 -0.0982  0.8099 -0.3889
11413SOL    HW136007   7.650   1.054   6.037  1.2102  1.0225 -1.2131
11413SOL    HW236008   7.601   1.196   6.056 -1.7259 -0.1689  0.9072
11414SOL     OW36009   2.430   2.087   7.566 -0.0857  0.0698 -0.2622
11414SOL    HW136010   2.497   2.039   7.615  0.0770 -1.8420 -2.2152
11414SOL    HW236011   2.347   2.050   7.598 -0.0261 -0.4496 -0.7052
11415SOL     OW36012   0.397   4.159   9.097  0.2724 -0.4920 -0.1147
11415SOL    HW136013   0.368   4.207   9.020 -1.6849  0.3273  1.0478
11415SOL    HW236014   0.434   4.226   9.155  0.2282 -0.8358  0.3176
11416SOL     OW36015   0.361   4.190   5.992 -0.3162 -0.0933 -0.0730
11416SOL    HW136016   0.271   4.159   6.002 -0.6459  1.0182  0.6318
11416SOL    HW236017   0.355   4.257   5.923 -0.3127  0.9405  0.8883
11417SOL     OW36018   5.174   7.167   0.887 -0.2306 -0.5998 -0.0028
11417SOL    HW136019   5.225   7.234   0.840 -3.3112  2.5959  0.7444
11417SOL    HW236020   5.143   7.109   0.818  0.1931  0.4588 -1.1377
11418SOL     OW36021   8.817   5.434   6.640 -0.1666  0.3719  0.4162
11418SOL    HW136022   8.815   5.529   6.645  0.6505  0.4179  0.0311
11418SOL    HW236023   8.741   5.405   6.690 -2.7102  1.3238 -2.6120
11419SOL     OW36024   2.888   4.572   6.839  0.0435  0.6203  1.3068
11419SOL    HW136025   2.936   4.496   6.874 -1.5112 -0.4522  1.2265
11419SOL    HW236026   2.829   4.597   6.909  0.3656  1.6356  1.2357
11420SOL     OW36027   4.614   3.812   0.712 -0.4844 -0.1374 -0.0211
11420SOL    HW136028   4.679   3.861   0.764 -1.7473  1.2462  0.3147
11420SOL    HW236029   4.555   3.774   0.777  0.3589 -2.0176 -0.2896
11421SOL     OW36030   1.455   2.996   4.434 -0.1591  0.1908 -0.1482
11421SOL    HW136031   1.445   3.077   4.386  0.6238  0.4224  0.0753
11421SOL    HW236032   1.423   3.016   4.522 -1.5894 -0.2322 -0.5316
11422SOL     OW36033   6.926   8.889   1.729  0.7408 -0.7833 -0.1717
11422SOL    HW136034   6.985   8.900   1.654  1.4321 -2.9744 -0.0090
11422SOL    HW236035   6.945   8.964   1.786  1.7747 -0.2786 -1.1439
11423SOL     OW36036   5.649   7.723   8.272  0.1665  0.2021  0.3584
11423SOL    HW136037   5.633   7.815   8.251  0.8633  0.4733  0.9830
11423SOL    HW236038   5.581   7.702   8.337 -0.1078  0.2196  0.0804
11424SOL     OW36039   7.457   7.469   1.168  0.2410  0.1301 -0.1075
11424SOL    HW136040   7.472   7.402   1.102  0.9261  0.8440 -0.6992
11424SOL    HW236041   7.532   7.460   1.228  0.0937  0.0679  0.0664
11425SOL     OW36042   5.234   1.339   7.592 -0.1815 -0.6349  0.3527
11425SOL    HW136043   5.265   1.254   7.624  0.2226 -1.0694 -1.1288
11425SOL    HW236044   5.139   1.330   7.588 -0.3319 -0.2935  2.1174
11426SOL     OW36045   3.239   0.310   1.998  0.3230  0.4834  0.0843
11426SOL    HW136046   3.149   0.302   2.029  0.6407  0.9333  1.1833
11426SOL    HW236047   3.233   0.303   1.903 -0.6245 -1.6293  0.2486
11427SOL     OW36048   6.277   7.447   1.547 -0.5699  0.0701 -0.3207
11427SOL    HW136049   6.230   7.408   1.473 -0.9231 -0.8139  0.3439
11427SOL    HW236050   6.254   7.540   1.545  0.2709  0.2653 -1.9353
11428SOL     OW36051   0.719   0.346   7.038 -0.1945  0.0156 -0.4793
11428SOL    HW136052   0.781   0.405   7.081  0.0575 -1.2652  1.0361
11428SOL    HW236053   0.774   0.288   6.986 -0.5002  1.5525 -2.6095
11429SOL     OW36054   3.167   9.237   7.328 -0.2462 -0.0153  0.3982
11429SOL    HW136055   3.138   9.167   7.387  0.8051 -1.2476 -0.4822
11429SOL    HW236056   3.098   9.302   7.332 -0.9751 -0.8227  1.7271
11430SOL     OW36057   7.335   5.284   9.571 -0.1696  0.6962 -0.2168
11430SOL    HW136058   7.413   5.339   9.561  0.3192 -0.1787 -1.5037
11430SOL    HW236059   7.345   5.216   9.504 -1.0196 -0.6519  0.9700
11431SOL     OW36060   4.299   8.851   0.145 -0.2676 -0.0324  0.0549
11431SOL    HW136061   4.290   8.930   0.093 -0.8404  0.6105  1.1139
11431SOL    HW236062   4.393   8.831   0.142 -0.2204  0.3024 -0.7595
11432SOL     OW36063   0.996   9.537   7.343 -0.2355  0.4448  0.0471
11432SOL    HW136064   0.943   9.616   7.334 -0.0221  0.6490  0.5468
11432SOL    HW236065   0.950   9.484   7.408 -0.3711  0.1618 -0.2757
11433SOL     OW36066   5.021   5.718   3.169 -0.4831 -0.3000 -0.3084
11433SOL    HW136067   5.070   5.773   3.109 -0.2598 -0.4132 -0.2289
11433SOL    HW236068   4.966   5.779   3.218  1.1572  0.0778  1.1186
11434SOL     OW36069   4.814   8.640   7.666  0.0033  0.0851  0.6055
11434SOL    HW136070   4.764   8.577   7.719 -1.6412  0.0605 -0.8758
11434SOL    HW236071   4.790   8.726   7.701 -1.9209  0.1309 -0.7046
11435SOL     OW36072   8.381   3.677   7.058  0.1669 -0.2047 -0.4462
11435SOL    HW136073   8.418   3.590   7.046 -1.2209 -0.9680  0.5389
11435SOL    HW236074   8.335   3.695   6.976 -0.3273 -0.8135 -0.3098
11436SOL     OW36075   7.882   5.652   8.127  0.3682  0.3756 -0.5244
11436SOL    HW136076   7.794   5.680   8.102 -0.4304  1.5655  3.0587
11436SOL    HW236077   7.935   5.731   8.122  0.8607  0.0182 -1.0965
11437SOL     OW36078   6.706   9.317   1.067  0.1304 -0.7406  0.1502
11437SOL    HW136079   6.702   9.306   1.162 -1.0374  1.4813  0.4223
11437SOL    HW236080   6.798   9.337   1.049  1.0750 -4.2450  0.3034
11438SOL     OW36081   4.572   1.807   2.402  0.2905 -0.3373 -0.3330
11438SOL    HW136082   4.553   1.834   2.492  1.4172  1.0732 -0.4745
11438SOL    HW236083   4.564   1.712   2.402 -0.1946 -0.3126  1.1317
11439SOL     OW36084   5.644   0.443   3.689 -0.6831  0.6776 -0.2399
11439SOL    HW136085   5.731   0.476   3.669  1.0446 -3.6052 -0.7907
11439SOL    HW236086   5.643   0.434   3.785 -0.1495 -0.0694 -0.2973
11440SOL     OW36087   2.905   0.864   2.101  0.1993 -0.6602 -0.1897
11440SOL    HW136088   2.957   0.864   2.021  0.9483 -1.6865  0.2668
11440SOL    HW236089   2.961   0.906   2.166 -0.5210  0.4436 -0.2478
11441SOL     OW36090   8.328   6.613   7.406  0.2660 -0.2960  0.0120
11441SOL    HW136091   8.416   6.643   7.384  0.7635 -1.4831  0.3398
11441SOL    HW236092   8.325   6.522   7.378 -0.6159 -0.4893  0.6724
11442SOL     OW36093   8.133   4.289   8.395  0.2847  0.0835  0.1696
11442SOL    HW136094   8.127   4.198   8.424  1.7272 -0.8856 -2.2611
11442SOL    HW236095   8.042   4.316   8.382 -0.1589 -1.0356  0.7933
11443SOL     OW36096   3.131   0.605   6.886 -0.1208 -0.0823  0.4298
11443SOL    HW136097   3.096   0.609   6.797  1.2502  0.5900 -0.0961
11443SOL    HW236098   3.146   0.512   6.901  0.5735 -0.1240 -0.4290
11444SOL     OW36099   5.494   8.788   6.153 -0.3937  0.2779  0.2082
11444SOL    HW136100   5.480   8.810   6.061  0.2051 -0.3485 -0.0459
11444SOL    HW236101   5.456   8.701   6.163  0.7721 -0.2508  0.1938
11445SOL     OW36102   9.469   8.869   4.941 -0.1191 -0.0550 -0.1002
11445SOL    HW136103   9.437   8.863   5.031 -0.7125  0.1850 -0.2872
11445SOL    HW236104   9.390   8.883   4.889  0.2818  0.4396 -0.5887
11446SOL     OW36105   5.169   7.990   1.336  0.1365 -0.6037 -0.2160
11446SOL    HW136106   5.186   8.082   1.313 -2.5448  0.1814  0.5691
11446SOL    HW236107   5.237   7.941   1.291  3.2260  1.9272  1.3313
11447SOL     OW36108   8.884   7.745   6.624  0.1055 -0.3554  0.5168
11447SOL    HW136109   8.925   7.716   6.705  1.0638  1.9955  0.9646
11447SOL    HW236110   8.956   7.780   6.572 -0.5940 -1.2485 -1.1029
11448SOL     OW36111   5.412   0.810   4.362 -0.0472  0.2554 -0.2324
11448SOL    HW136112   5.400   0.849   4.448 -0.5319 -0.0808 -0.1435
11448SOL    HW236113   5.494   0.848   4.330  1.2133 -1.1087  1.2079
11449SOL     OW36114   6.084   3.191   4.461 -0.2588  0.2037  0.0445
11449SOL    HW136115   6.175   3.209   4.487  0.8803 -0.7926 -2.8304
11449SOL    HW236116   6.051   3.131   4.527  0.7810  1.4473  1.7576
11450SOL     OW36117   8.631   5.179   8.763  0.8840 -0.6144 -0.1958
11450SOL    HW136118   8.673   5.197   8.679 -0.5495 -0.5487 -0.9402
11450SOL    HW236119   8.650   5.086   8.779  0.5492 -0.8353 -0.9849
11451SOL     OW36120   7.237   7.463   6.369  0.1297 -0.5188 -0.0671
11451SOL    HW136121   7.254   7.470   6.275 -1.7982  0.4858 -0.3977
11451SOL    HW236122   7.244   7.552   6.402 -0.1623 -0.7130  0.5476
11452SOL     OW36123   0.727   4.114   4.611 -0.1394  0.6254 -0.7178
11452SOL    HW136124   0.652   4.068   4.574 -1.1356  0.6147  1.1778
11452SOL    HW236125   0.770   4.049   4.666 -0.7611  1.5016  0.8875
11453SOL     OW36126   5.672   2.812   7.599 -0.1185  0.6175  0.4247
11453SOL    HW136127   5.731   2.779   7.667  0.3054  0.7195  0.1082
11453SOL    HW236128   5.595   2.843   7.647  0.0796  0.4737  0.8371
11454SOL     OW36129   2.102   2.418   0.483  0.2561  0.0796 -0.4872
11454SOL    HW136130   2.102   2.437   0.389  0.6252 -1.0506 -0.7293
11454SOL    HW236131   2.009   2.419   0.507  0.2355  2.7324 -0.3207
11455SOL     OW36132   9.560   6.150   4.906  0.1095  0.5121 -0.0081
11455SOL    HW136133   9.618   6.211   4.859  0.4162  0.8896  0.8483
11455SOL    HW236134   9.610   6.125   4.984  0.0749 -1.0181 -0.4548
11456SOL     OW36135   5.760   9.651   8.267 -0.2237 -0.2491 -0.2304
11456SOL    HW136136   5.685   9.675   8.213  0.4877  0.9840 -0.7269
11456SOL    HW236137   5.835   9.654   8.207  1.2019  4.7245  1.3008
11457SOL     OW36138   0.772   3.097   4.205  0.2740 -0.2668  0.3111
11457SOL    HW136139   0.864   3.111   4.186  1.2475 -2.3537  2.8775
11457SOL    HW236140   0.759   3.134   4.293 -1.5780  0.7796 -0.3443
11458SOL     OW36141   2.012   3.177   9.120 -0.4527 -0.3442  0.2469
11458SOL    HW136142   2.081   3.117   9.148 -0.9330 -0.6562  0.7824
11458SOL    HW236143   2.058   3.249   9.077  0.1104 -1.3218 -0.8419
11459SOL     OW36144   4.202   4.687   2.209 -0.8916 -0.8714  0.1148
11459SOL    HW136145   4.168   4.776   2.221 -1.0442 -0.9752  0.4709
11459SOL    HW236146   4.144   4.632   2.262 -1.0058 -1.2261 -0.3728
11460SOL     OW36147   1.270   0.150   2.502  0.1333 -0.4042 -0.2214
11460SOL    HW136148   1.219   0.221   2.540  0.2572 -0.9775  1.0486
11460SOL    HW236149   1.360   0.183   2.501  0.1097 -0.3383 -0.1702
11461SOL     OW36150   2.954   0.470   7.844  0.6208  0.2847 -0.0883
11461SOL    HW136151   2.898   0.513   7.779 -0.0576  0.5263  0.6393
11461SOL    HW236152   3.013   0.415   7.793  0.5867  1.0320 -0.9538
11462SOL     OW36153   4.077   8.282   0.809 -0.5762 -0.1702  0.2827
11462SOL    HW136154   3.991   8.323   0.821  0.5545  2.1356  1.3117
11462SOL    HW236155   4.134   8.354   0.782  1.6471 -0.9245  2.5300
11463SOL     OW36156   4.991   4.117   3.548  0.4989  0.2289 -0.4174
11463SOL    HW136157   4.994   4.079   3.460  0.9213  2.9560 -1.7090
11463SOL    HW236158   4.900   4.108   3.575  0.5456 -1.4419 -0.7052
11464SOL     OW36159   1.622   5.752   9.655  0.2233 -0.1548 -0.1478
11464SOL    HW136160   1.532   5.744   9.686  0.7954 -1.4595  1.2664
11464SOL    HW236161   1.634   5.846   9.643 -1.3692  0.0300 -0.5317
11465SOL     OW36162   5.743   7.948   3.549 -0.0468 -0.4033  0.6104
11465SOL    HW136163   5.767   7.993   3.630 -1.3466 -1.6248  1.7305
11465SOL    HW236164   5.695   7.871   3.578  0.6597 -1.6196 -1.3014
11466SOL     OW36165   7.121   8.045   7.336 -0.6237  0.6690 -0.5911
11466SOL    HW136166   7.188   8.102   7.373 -0.8180  2.2063 -2.4777
11466SOL    HW236167   7.038   8.086   7.360 -0.8593 -0.2539  0.2253
11467SOL     OW36168   0.286   1.110   4.134  0.5061  0.5045  0.1737
11467SOL    HW136169   0.262   1.076   4.047 -0.4362  1.1006  0.1822
11467SOL    HW236170   0.271   1.204   4.127 -0.9189  0.4074  1.3837
11468SOL     OW36171   5.143   6.276   2.951  0.5979  0.1119  0.4495
11468SOL    HW136172   5.093   6.231   2.883  1.4103 -1.7493  1.0058
11468SOL    HW236173   5.165   6.361   2.913  0.0308 -0.4207 -1.1441
11469SOL     OW36174   6.490   9.481   6.798 -0.7505 -0.2271 -0.1198
11469SOL    HW136175   6.532   9.475   6.884  0.4576  1.7176 -0.5083
11469SOL    HW236176   6.398   9.461   6.814 -0.0900 -2.7492  1.1023
11470SOL     OW36177   6.938   6.807   1.617 -0.0012 -0.5997 -0.5114
11470SOL    HW136178   6.888   6.888   1.629  0.8519 -0.2868  1.2052
11470SOL    HW236179   6.880   6.738   1.649 -0.2427 -0.5380 -0.8016
11471SOL     OW36180   9.388   3.420   1.638  0.4596 -0.2841  0.4297
11471SOL    HW136181   9.410   3.347   1.696 -0.0288 -0.2479  0.6648
11471SOL    HW236182   9.364   3.492   1.697 -0.9809 -0.5368  0.1894
11472SOL     OW36183   2.626   2.810   4.119  0.3036 -0.2068  0.3723
11472SOL    HW136184   2.608   2.903   4.128  1.1175  0.0762 -0.6675
11472SOL    HW236185   2.713   2.798   4.157 -0.2734 -0.7899  1.5924
11473SOL     OW36186   7.716   1.736   9.380  1.1777  0.8764 -0.4593
11473SOL    HW136187   7.642   1.768   9.431 -0.4687 -1.3753 -1.2416
11473SOL    HW236188   7.770   1.687   9.443  0.8629  0.7593 -0.2816
11474SOL     OW36189   6.355   9.756   1.379 -0.3744 -0.4619  0.6564
11474SOL    HW136190   6.355   9.759   1.475  0.3885 -0.2942  0.6511
11474SOL    HW236191   6.319   9.841   1.352  2.3026  0.7842  0.7703
11475SOL     OW36192   7.062   1.627   9.307 -0.3362 -0.1425 -0.0316
11475SOL    HW136193   7.114   1.584   9.376 -0.5018  0.5377  0.5259
11475SOL    HW236194   7.043   1.557   9.245  1.8708 -0.2832 -0.6416
11476SOL     OW36195   6.159   0.479   4.665 -0.3008  0.1498 -0.5379
11476SOL    HW136196   6.149   0.574   4.671 -2.1330  0.0123 -0.9780
11476SOL    HW236197   6.218   0.466   4.591  0.5732  0.9501 -0.0004
11477SOL     OW36198   7.874   3.497   5.019 -0.3713  0.2984 -0.2739
11477SOL    HW136199   7.833   3.578   4.987  0.8898  1.4116  0.7597
11477SOL    HW236200   7.961   3.498   4.981 -0.6876 -1.1504 -1.0841
11478SOL     OW36201   7.552   7.903   9.222  0.1031 -0.1188  0.5899
11478SOL    HW136202   7.563   7.818   9.181  0.4574  0.3751 -0.3790
11478SOL    HW236203   7.532   7.884   9.313  0.3515 -1.2277  0.4222
11479SOL     OW36204   0.249   2.983   7.402  0.2298 -0.3239  0.2938
11479SOL    HW136205   0.259   3.071   7.439  2.6362 -0.0546 -0.7734
11479SOL    HW236206   0.228   2.928   7.478  0.0246  0.9467  1.2026
11480SOL     OW36207   4.380   4.040   2.430  0.3182  0.1091  0.3969
11480SOL    HW136208   4.303   3.993   2.460 -0.5610  0.6686 -0.8859
11480SOL    HW236209   4.369   4.047   2.335  2.0174  0.0869  0.1628
11481SOL     OW36210   6.941   3.933   0.680  0.5341 -0.6985  0.9605
11481SOL    HW136211   7.029   3.969   0.680 -0.4297  1.9802 -0.2548
11481SOL    HW236212   6.953   3.838   0.670  3.2309 -0.4636  1.2667
11482SOL     OW36213   5.276   0.399   0.789  0.0162 -0.0345  0.0414
11482SOL    HW136214   5.288   0.307   0.766 -0.1746 -0.2242  0.6665
11482SOL    HW236215   5.206   0.430   0.732  0.0377 -0.2922 -0.1268
11483SOL     OW36216   7.350   8.615   4.309 -0.0319 -0.0247  0.1418
11483SOL    HW136217   7.413   8.578   4.370  0.7058 -1.3502 -1.3559
11483SOL    HW236218   7.265   8.584   4.341  0.2251  0.2693  1.1370
11484SOL     OW36219   6.591   0.785   6.411 -0.0820 -0.1051  0.0879
11484SOL    HW136220   6.671   0.748   6.374  0.3079  0.9005 -0.0959
11484SOL    HW236221   6.621   0.835   6.487 -0.2649  1.8799 -1.0812
11485SOL     OW36222   1.307   5.637   2.389  0.3138  0.8349 -0.6349
11485SOL    HW136223   1.329   5.579   2.316 -3.3535 -0.0871 -1.2030
11485SOL    HW236224   1.263   5.712   2.348 -0.0324  1.2605  0.4686
11486SOL     OW36225   1.589   9.248   6.823 -0.4607  0.1351 -0.4413
11486SOL    HW136226   1.649   9.193   6.874 -2.6981 -0.4994  1.7193
11486SOL    HW236227   1.550   9.307   6.887 -0.8313  1.7584 -2.0890
11487SOL     OW36228   2.466   3.468   5.222 -0.0399  0.3883 -0.2927
11487SOL    HW136229   2.501   3.448   5.135 -0.6091  2.4646 -1.0642
11487SOL    HW236230   2.540   3.505   5.270  0.3836 -1.1409  0.3025
11488SOL     OW36231   4.079   2.394   9.547 -1.1548 -0.4407  0.3722
11488SOL    HW136232   4.026   2.336   9.602  0.6918 -2.0776  0.5675
11488SOL    HW236233   4.115   2.336   9.480 -0.1070  0.7111 -0.1015
11489SOL     OW36234   4.581   5.399   2.079 -0.1136  0.8634 -0.2770
11489SOL    HW136235   4.661   5.447   2.056  0.6221 -0.6842 -1.1230
11489SOL    HW236236   4.530   5.398   1.998  0.9603 -1.7286 -1.0360
11490SOL     OW36237   6.400   8.595   9.444 -0.2889  0.2800  0.1080
11490SOL    HW136238   6.418   8.542   9.521  0.2325 -1.2884 -1.0545
11490SOL    HW236239   6.483   8.638   9.424  0.0889 -0.7220 -0.5877
11491SOL     OW36240   8.636   3.813   6.385 -0.5222  0.1166  0.0391
11491SOL    HW136241   8.675   3.784   6.302 -0.0330  1.3242 -0.1693
11491SOL    HW236242   8.653   3.907   6.388  1.9542 -0.2745  2.8063
11492SOL     OW36243   6.720   7.126   3.862  0.4715 -0.3822  0.0360
11492SOL    HW136244   6.723   7.053   3.924 -0.8448  0.4983  1.1914
11492SOL    HW236245   6.630   7.157   3.865  1.1891  1.8645  0.2725
11493SOL     OW36246   5.380   0.709   1.223 -0.7234 -0.4024  0.0295
11493SOL    HW136247   5.384   0.691   1.316  1.3838 -0.7548 -0.0743
11493SOL    HW236248   5.354   0.626   1.183  0.3203 -0.8270  0.1926
11494SOL     OW36249   8.976   2.660   8.051  0.3499 -0.3345  0.6227
11494SOL    HW136250   8.941   2.595   7.990  0.3734 -0.4834  0.7657
11494SOL    HW236251   9.049   2.701   8.003 -0.6726  0.7224 -0.0743
11495SOL     OW36252   2.980   5.571   9.536 -0.1362  0.4350  0.4966
11495SOL    HW136253   3.015   5.555   9.624  1.7063 -0.0837 -0.2929
11495SOL    HW236254   3.052   5.612   9.488 -0.9092  0.1662 -0.9618
11496SOL     OW36255   4.083   4.524   2.408  0.6517  0.1522 -0.1504
11496SOL    HW136256   4.007   4.577   2.384  0.3454  0.1161  0.7155
11496SOL    HW236257   4.130   4.577   2.472  1.9142  0.6065 -1.4059
11497SOL     OW36258   2.829   7.953   7.659  0.2158 -0.4153  0.5516
11497SOL    HW136259   2.783   8.037   7.658  0.9675  0.0027  0.3942
11497SOL    HW236260   2.765   7.891   7.695 -0.2381  0.2792  0.9620
11498SOL     OW36261   3.740   5.460   7.194  0.2832 -0.1440 -0.3809
11498SOL    HW136262   3.803   5.500   7.134 -0.6210  1.3605 -0.4051
11498SOL    HW236263   3.719   5.376   7.154  0.3052  0.4786 -1.7927
11499SOL     OW36264   1.716   7.762   6.427 -0.3624  0.5300 -0.0572
11499SOL    HW136265   1.725   7.667   6.439 -1.1008  0.3896 -0.5297
11499SOL    HW236266   1.803   7.791   6.402  0.1957  0.1838  1.3800
11500SOL     OW36267   4.771   1.691   9.209 -0.0915 -0.4124  0.2817
11500SOL    HW136268   4.786   1.661   9.299 -1.6415 -2.2305  0.0158
11500SOL    HW236269   4.831   1.638   9.157  0.2206  0.0451  0.1800
11501SOL     OW36270   1.958   5.612   1.606  0.0729  0.3933  0.4481
11501SOL    HW136271   1.983   5.699   1.637 -1.5663  2.3101 -3.0514
11501SOL    HW236272   2.021   5.592   1.537 -1.8022  0.6603 -1.4323
11502SOL     OW36273   3.272   0.488   4.789 -0.3204  0.3403  0.8894
11502SOL    HW136274   3.349   0.436   4.814 -0.3419  0.3797  1.0405
11502SOL    HW236275   3.206   0.422   4.766  0.2300  0.3097 -0.7457
11503SOL     OW36276   9.692   9.731   7.725  0.6309  0.6774 -0.2460
11503SOL    HW136277   9.754   9.712   7.796 -0.6877  0.7975  1.0062
11503SOL    HW236278   9.723   9.679   7.651  1.0788 -0.8506  0.9583
11504SOL     OW36279   1.263   3.567   4.133  0.5495  0.4862  0.1474
11504SOL    HW136280   1.303   3.642   4.090  0.8935  0.2083 -0.0153
11504SOL    HW236281   1.328   3.539   4.197  0.6146  0.0362 -0.1162
11505SOL     OW36282   6.669   3.529   8.429  0.4074  1.0215 -0.5911
11505SOL    HW136283   6.672   3.569   8.516 -0.2977 -0.5820  0.2252
11505SOL    HW236284   6.710   3.443   8.441  1.0163  1.0799 -2.0441
11506SOL     OW36285   8.726   9.313   5.984 -0.1403  0.1827  0.6269
11506SOL    HW136286   8.653   9.322   6.046  0.1755  0.4666  0.9627
11506SOL    HW236287   8.778   9.392   5.997  0.1620  0.0377  0.3026
11507SOL     OW36288   1.014   5.952   5.898  0.3497 -0.3472 -0.4191
11507SOL    HW136289   1.068   5.873   5.898  0.6762 -0.1582 -1.8564
11507SOL    HW236290   1.060   6.013   5.956  0.3812 -1.0243  0.2691
11508SOL     OW36291   2.441   8.467   6.989  0.1938 -0.3607 -0.3344
11508SOL    HW136292   2.499   8.422   6.928 -0.0350 -1.4437  0.2119
11508SOL    HW236293   2.354   8.433   6.969  0.1897 -1.2242  0.9644
11509SOL     OW36294   0.288   6.172   4.887 -0.3128 -0.2439  0.1370
11509SOL    HW136295   0.210   6.140   4.932  0.6727 -0.0868  2.0372
11509SOL    HW236296   0.356   6.107   4.907  0.0714 -0.3978 -1.5199
11510SOL     OW36297   0.491   0.357   1.467  0.1365 -0.6165 -0.2003
11510SOL    HW136298   0.577   0.334   1.432  0.0651  1.3157 -1.7891
11510SOL    HW236299   0.497   0.450   1.487 -0.7618 -1.0155  2.3921
11511SOL     OW36300   7.399   6.784   6.598  0.4083  0.4384 -0.6797
11511SOL    HW136301   7.376   6.813   6.510  2.8786 -0.4458 -1.7095
11511SOL    HW236302   7.485   6.822   6.614 -0.1282  0.8782  1.5546
11512SOL     OW36303   3.368   2.878   2.525 -0.7373 -0.4723  0.0528
11512SOL    HW136304   3.413   2.951   2.484 -0.7186  0.2672  1.3430
11512SOL    HW236305   3.410   2.800   2.487 -1.0370  0.1475 -1.6360
11513SOL     OW36306   4.707   2.543   6.534  0.3812 -0.1418  0.1668
11513SOL    HW136307   4.717   2.490   6.455 -0.4844 -0.7424  0.4544
11513SOL    HW236308   4.623   2.517   6.571  0.3372  0.8143  0.7837
11514SOL     OW36309   9.197   2.555   5.836 -0.2283 -0.2493  0.6667
11514SOL    HW136310   9.159   2.625   5.888  0.2122  0.8094 -0.4127
11514SOL    HW236311   9.289   2.579   5.824 -0.5999  0.2512 -1.7039
11515SOL     OW36312   1.094   1.805   3.767  0.5929 -0.2988 -0.4189
11515SOL    HW136313   1.129   1.727   3.811  0.5786 -0.0987 -0.0520
11515SOL    HW236314   1.014   1.774   3.724  0.0132 -0.2570  0.5959
11516SOL     OW36315   3.231   9.397   6.412 -0.1798 -0.1113 -0.1704
11516SOL    HW136316   3.245   9.407   6.318 -1.1178 -0.5738 -0.3633
11516SOL    HW236317   3.170   9.324   6.420 -2.6678  1.9301  0.6401
11517SOL     OW36318   9.750   7.199   7.951 -0.6512  0.0710 -0.0586
11517SOL    HW136319   9.734   7.247   7.869 -3.2765 -1.3604 -0.4819
11517SOL    HW236320   9.695   7.243   8.016 -2.9626 -2.0798 -0.4101
11518SOL     OW36321   4.249   3.953   3.464 -0.2606  0.1431 -0.1730
11518SOL    HW136322   4.259   4.045   3.439 -2.1947  1.5723  3.5625
11518SOL    HW236323   4.323   3.934   3.521 -1.0520  0.1485  0.8826
11519SOL     OW36324   4.473   1.563   8.106  0.3680 -0.2155  0.2023
11519SOL    HW136325   4.478   1.634   8.171  0.7860  1.0388 -1.1537
11519SOL    HW236326   4.380   1.538   8.107 -0.0172  1.0970 -0.0365
11520SOL     OW36327   1.584   9.655   9.051  0.3479 -0.4434  0.2821
11520SOL    HW136328   1.559   9.718   8.983 -3.5518 -0.6924  1.2781
11520SOL    HW236329   1.645   9.704   9.106 -1.0692  1.8860 -0.0678
11521SOL     OW36330   3.666   2.359   7.322 -0.1955 -0.0943 -0.1411
11521SOL    HW136331   3.578   2.395   7.317  0.0188  0.2931 -1.6104
11521SOL    HW236332   3.678   2.338   7.414 -1.8214 -0.1712  0.0818
11522SOL     OW36333   3.275   8.481   4.698  0.2632 -0.2332 -0.2267
11522SOL    HW136334   3.190   8.512   4.729 -0.9575 -1.4293 -2.1635
11522SOL    HW236335   3.255   8.431   4.619  2.6265 -1.6985 -0.0068
11523SOL     OW36336   5.722   6.088   9.718 -0.2021 -0.2370 -0.1455
11523SOL    HW136337   5.652   6.030   9.745  1.9516 -2.5065  0.9943
11523SOL    HW236338   5.800   6.033   9.715  1.8281  2.3826  0.0238
11524SOL     OW36339   2.231   9.028   1.229 -0.2571  0.2401 -0.1618
11524SOL    HW136340   2.304   8.993   1.178  0.3850  1.2260  0.0364
11524SOL    HW236341   2.248   8.998   1.319 -0.8377 -0.6547 -0.3448
11525SOL     OW36342   3.968   0.171   5.607  0.5352  0.1599  0.0244
11525SOL    HW136343   4.020   0.154   5.685 -0.0772  0.3014  0.4752
11525SOL    HW236344   4.020   0.137   5.535  0.6500 -0.9330  0.5998
11526SOL     OW36345   3.985   6.337   5.024  0.2481 -0.4627 -0.3845
11526SOL    HW136346   3.920   6.338   4.954  0.7624 -2.6107 -0.9785
11526SOL    HW236347   4.021   6.425   5.026  0.7999 -0.5303 -3.4145
11527SOL     OW36348   6.190   9.470   5.891  0.3223 -0.2188 -0.3565
11527SOL    HW136349   6.248   9.545   5.904  0.3524 -0.5041  1.3613
11527SOL    HW236350   6.224   9.426   5.813  0.0800  1.7279 -1.6395
11528SOL     OW36351   4.638   5.965   1.218 -0.8388  0.2618  0.3212
11528SOL    HW136352   4.649   5.877   1.254 -0.3673  0.7370  1.3934
11528SOL    HW236353   4.544   5.976   1.207 -0.8101 -1.3240 -2.3646
11529SOL     OW36354   4.448   3.179   8.963 -0.1740  0.0795  0.3115
11529SOL    HW136355   4.452   3.217   9.050 -0.9435 -0.5557  0.6374
11529SOL    HW236356   4.356   3.158   8.950 -0.0542  0.0930 -0.6236
11530SOL     OW36357   6.329   6.383   4.070  0.3178  0.4596 -0.0990
11530SOL    HW136358   6.360   6.297   4.101  1.2719  0.9205  0.2869
11530SOL    HW236359   6.237   6.370   4.050  0.3412 -0.5498  0.3893
11531SOL     OW36360   2.112   0.645   8.800  0.3922  0.0414 -0.6892
11531SOL    HW136361   2.089   0.592   8.724  1.6140 -0.4081 -0.7680
11531SOL    HW236362   2.160   0.586   8.858  0.3103  0.6238 -0.0051
11532SOL     OW36363   6.952   5.548   8.852 -0.4703 -0.4159 -0.3557
11532SOL    HW136364   6.893   5.602   8.904  2.0249 -0.0463  2.4086
11532SOL    HW236365   7.038   5.590   8.862  0.8127 -2.5405 -1.6185
11533SOL     OW36366   9.496   6.055   6.029 -0.1663  0.2708  0.3177
11533SOL    HW136367   9.498   6.001   6.108  2.5165 -0.2482 -0.0048
11533SOL    HW236368   9.481   6.144   6.062 -0.1058 -0.0765  1.3213
11534SOL     OW36369   9.077   2.744   6.022 -0.1817 -0.1233  0.4680
11534SOL    HW136370   9.160   2.780   6.054  0.2600  0.6854 -1.4489
11534SOL    HW236371   9.013   2.767   6.090  0.8758  0.6140  1.2424
11535SOL     OW36372   5.396   6.666   4.911 -0.7546  0.0850  0.2181
11535SOL    HW136373   5.423   6.721   4.838  0.2327 -0.9339 -0.2095
11535SOL    HW236374   5.345   6.596   4.871  0.9821 -1.2831  0.2841
11536SOL     OW36375   0.657   0.905   4.967  0.1198  0.0070  0.4527
11536SOL    HW136376   0.615   0.990   4.978  0.7203  0.2856  0.6245
11536SOL    HW236377   0.593   0.853   4.918 -0.4768  0.3766  0.8303
11537SOL     OW36378   9.769   2.546   2.617 -0.1755 -0.2231 -0.0293
11537SOL    HW136379   9.845   2.525   2.563 -1.4449 -0.2868 -1.9114
11537SOL    HW236380   9.735   2.461   2.646  0.8998 -0.1608  1.5124
11538SOL     OW36381   2.823   7.810   4.013  0.0941  0.0540 -0.0956
11538SOL    HW136382   2.797   7.838   3.925  1.5273 -0.5576 -0.7465
11538SOL    HW236383   2.874   7.883   4.047  0.2793 -0.0604 -0.1256
11539SOL     OW36384   0.375   1.623   3.213  0.3565  0.2975  0.0984
11539SOL    HW136385   0.307   1.594   3.152 -0.5199  0.4126  0.9955
11539SOL    HW236386   0.329   1.678   3.276  0.9074 -1.0388  1.7671
11540SOL     OW36387   4.471   6.809   5.600  0.0917 -0.1244 -0.3177
11540SOL    HW136388   4.425   6.725   5.605 -0.2784  0.1365  1.1486
11540SOL    HW236389   4.517   6.816   5.683  0.1969  1.0877 -0.4583
11541SOL     OW36390   5.130   1.768   6.316  0.3644  0.0121 -0.1999
11541SOL    HW136391   5.141   1.862   6.328 -1.3403  0.1978  0.2076
11541SOL    HW236392   5.131   1.756   6.221  1.2009  0.3356 -0.2430
11542SOL     OW36393   8.758   7.497   7.472 -0.0007  0.2769  0.6810
11542SOL    HW136394   8.744   7.464   7.561 -0.7840  1.8004  1.1603
11542SOL    HW236395   8.714   7.582   7.471  1.9194  1.3255 -0.4779
11543SOL     OW36396   1.910   9.667   8.071 -0.0384  0.1584 -0.0144
11543SOL    HW136397   1.954   9.752   8.061  1.3389 -0.4616  0.5125
11543SOL    HW236398   1.967   9.605   8.027  0.3977 -0.8969  1.9569
11544SOL     OW36399   0.117   3.496   7.749 -0.3992 -0.1640  0.1339
11544SOL    HW136400   0.086   3.583   7.723  0.4350  0.6784  1.7452
11544SOL    HW236401   0.040   3.440   7.743 -1.1198  0.8472 -0.3143
11545SOL     OW36402   6.011   8.726   6.325 -0.5520 -0.0727  0.5375
11545SOL    HW136403   6.059   8.809   6.325 -1.6399  0.5617  0.5984
11545SOL    HW236404   5.999   8.706   6.418 -0.5626 -0.1436  0.5210
11546SOL     OW36405   2.511   7.482   1.891 -0.1213 -0.0379  0.3631
11546SOL    HW136406   2.502   7.404   1.836 -0.7359 -1.1276  1.9497
11546SOL    HW236407   2.437   7.536   1.868  1.0456  0.7817 -1.7505
11547SOL     OW36408   5.836   6.627   7.672 -0.2184  0.0770 -0.1041
11547SOL    HW136409   5.819   6.541   7.711  0.9587  0.0458  0.3798
11547SOL    HW236410   5.844   6.609   7.578  0.3344 -0.3919  0.0302
11548SOL     OW36411   7.577   5.615   8.288  0.0569 -0.4602 -0.5603
11548SOL    HW136412   7.489   5.635   8.321  0.5396  0.5937  0.1393
11548SOL    HW236413   7.630   5.690   8.315  1.7316 -2.1688  1.1806
11549SOL     OW36414   7.007   6.596   2.685 -0.0035 -0.4856 -0.2051
11549SOL    HW136415   7.057   6.522   2.722  0.4114  0.8623  2.1073
11549SOL    HW236416   6.917   6.563   2.678  0.0935 -1.1170  1.1832
11550SOL     OW36417   4.674   7.412   7.990  0.0417  0.2250 -0.3559
11550SOL    HW136418   4.749   7.470   8.002 -0.3411  0.8880 -1.0554
11550SOL    HW236419   4.622   7.423   8.069  0.4347  0.1279 -0.0785
11551SOL     OW36420   3.306   3.659   7.073  0.5605 -0.5091 -0.0119
11551SOL    HW136421   3.364   3.585   7.090 -0.0629 -0.8900  0.5319
11551SOL    HW236422   3.243   3.626   7.009 -0.5201 -0.8967  1.2092
11552SOL     OW36423   5.279   0.192   5.576  0.1510  0.0386 -0.2822
11552SOL    HW136424   5.328   0.213   5.655 -0.0223  1.7370 -0.6039
11552SOL    HW236425   5.338   0.136   5.525  0.3800 -0.8299  0.8753
11553SOL     OW36426   1.297   9.837   9.322 -0.0149 -0.6171 -0.8299
11553SOL    HW136427   1.291   9.907   9.387 -0.8538  0.0819 -1.6283
11553SOL    HW236428   1.321   9.760   9.372  0.6867  0.1830  0.1102
11554SOL     OW36429   0.867   4.146   9.564  0.0640  0.5276  0.0570
11554SOL    HW136430   0.788   4.159   9.618 -0.9943 -0.6287 -1.1456
11554SOL    HW236431   0.906   4.065   9.597  1.0576  1.3361  0.9557
11555SOL     OW36432   5.604   6.357   1.002 -0.2632  1.0273  0.4289
11555SOL    HW136433   5.515   6.336   1.032 -0.1684  2.5930  1.9511
11555SOL    HW236434   5.598   6.353   0.906 -1.2958 -1.3788  0.5106
11556SOL     OW36435   8.975   7.987   5.580 -0.1967 -0.1560  0.0471
11556SOL    HW136436   9.054   7.943   5.613  0.2462  1.2201  0.9226
11556SOL    HW236437   9.007   8.046   5.512 -0.4357  0.4761  0.4703
11557SOL     OW36438   4.871   1.371   3.987  0.2828  0.0321  0.1777
11557SOL    HW136439   4.848   1.303   4.050  1.8245  0.5304  1.3278
11557SOL    HW236440   4.891   1.448   4.040  2.1426  0.3278 -0.8717
11558SOL     OW36441   5.789   4.987   2.445 -0.4489 -0.0297  0.1610
11558SOL    HW136442   5.856   4.971   2.379  1.0902  1.8551  1.1911
11558SOL    HW236443   5.784   5.082   2.453 -0.8181 -0.1781  2.5110
11559SOL     OW36444   0.743   2.405   4.809  0.0778 -0.5611  0.3957
11559SOL    HW136445   0.792   2.341   4.757  0.5522 -0.4253  0.6681
11559SOL    HW236446   0.661   2.360   4.831  0.4715 -1.1390  0.7207
11560SOL     OW36447   6.383   0.432   6.218 -0.2575  0.0855  0.1286
11560SOL    HW136448   6.404   0.485   6.294 -1.1321  0.4100  0.1486
11560SOL    HW236449   6.419   0.481   6.144  0.8651 -0.3805  0.3399
11561SOL     OW36450   0.778   1.060   5.213  0.5155 -0.0527 -0.2929
11561SOL    HW136451   0.786   1.087   5.122 -0.0828  1.0414 -0.0354
11561SOL    HW236452   0.867   1.032   5.237  1.1879  1.6892 -0.5859
11562SOL     OW36453   3.754   4.181   1.856  0.0072 -0.7749 -0.0774
11562SOL    HW136454   3.670   4.171   1.901 -0.3825 -0.0816 -0.6463
11562SOL    HW236455   3.757   4.106   1.796 -0.5794 -0.3610 -0.6377
11563SOL     OW36456   2.537   2.596   2.795 -0.0017  0.3926 -0.1904
11563SOL    HW136457   2.542   2.510   2.836  1.0078 -0.0893 -1.2948
11563SOL    HW236458   2.445   2.622   2.806 -0.9111 -1.8191 -1.8518
11564SOL     OW36459   0.655   3.026   8.664  0.6631 -0.1237 -0.1280
11564SOL    HW136460   0.595   3.059   8.596  0.8104  2.4703  0.8745
11564SOL    HW236461   0.597   2.986   8.729  0.2270  0.2404 -0.2835
11565SOL     OW36462   9.787   0.274   1.955  0.1613 -0.1605  0.5572
11565SOL    HW136463   9.825   0.354   1.990  0.1846 -0.8533  2.2120
11565SOL    HW236464   9.813   0.273   1.863  1.1028  1.1611  0.7838
11566SOL     OW36465   2.416   4.395   1.525 -0.1366 -0.4862 -0.2325
11566SOL    HW136466   2.415   4.420   1.617 -1.3279  0.4705 -0.4856
11566SOL    HW236467   2.496   4.433   1.491 -0.2224  0.0613  0.1681
11567SOL     OW36468   6.113   2.675   7.276  0.3375  0.3029 -0.0863
11567SOL    HW136469   6.160   2.606   7.324 -2.1121  0.3855  2.7473
11567SOL    HW236470   6.035   2.631   7.242 -2.2368  1.7437  3.3225
11568SOL     OW36471   8.499   8.519   3.872 -0.5123 -0.3214  0.3547
11568SOL    HW136472   8.437   8.540   3.802  0.8096 -0.1586 -0.8254
11568SOL    HW236473   8.510   8.424   3.867 -0.1668 -0.2698  0.1084
11569SOL     OW36474   0.487   2.589   5.469  0.8187  0.7608 -0.4556
11569SOL    HW136475   0.410   2.634   5.505  1.4025  1.7032 -0.3463
11569SOL    HW236476   0.483   2.609   5.375  0.4891  0.1236 -0.5816
11570SOL     OW36477   2.408   3.185   3.369 -0.1077  0.1892 -0.5828
11570SOL    HW136478   2.366   3.197   3.285  0.2248 -3.3143 -1.4051
11570SOL    HW236479   2.371   3.103   3.403  0.5143  0.9653  2.2178
11571SOL     OW36480   6.138   6.584   5.745  0.4347 -0.1483  0.0340
11571SOL    HW136481   6.079   6.531   5.798 -0.2990 -1.0053 -1.5857
11571SOL    HW236482   6.152   6.663   5.797 -1.4398 -0.3089  0.8473
11572SOL     OW36483   4.140   0.032   5.789 -0.2274  0.5998  0.4015
11572SOL    HW136484   4.088   0.031   5.869 -2.2166 -0.0108 -0.8413
11572SOL    HW236485   4.131  -0.056   5.753  0.9308  0.7579 -0.3441
11573SOL     OW36486   5.557   6.555   4.090  0.2095 -0.0873  0.3631
11573SOL    HW136487   5.588   6.472   4.126 -0.6308 -0.2680  0.6825
11573SOL    HW236488   5.596   6.622   4.147  0.0571 -0.3082  0.7298
11574SOL     OW36489   5.080   6.620   4.411  0.2792 -0.0588  0.4875
11574SOL    HW136490   5.143   6.556   4.378 -1.1265 -1.0535 -0.3789
11574SOL    HW236491   5.104   6.702   4.368  1.3135 -0.2939  0.6030
11575SOL     OW36492   1.341   6.403   8.333  1.3939 -0.2909 -0.1330
11575SOL    HW136493   1.349   6.308   8.343  1.1568 -0.2994 -0.0040
11575SOL    HW236494   1.251   6.422   8.362  0.7570 -0.2870 -1.9677
11576SOL     OW36495   0.466   9.151   9.502  0.4831 -0.4389 -0.1775
11576SOL    HW136496   0.504   9.110   9.580 -0.3230  1.0691  1.0609
11576SOL    HW236497   0.525   9.126   9.431  1.1047 -2.0662  0.8464
11577SOL     OW36498   6.190   5.193   9.372  0.3444 -0.5339  0.3023
11577SOL    HW136499   6.256   5.261   9.358  0.4353 -0.6544  0.1379
11577SOL    HW236500   6.125   5.234   9.430  0.7485 -0.5320  0.7612
11578SOL     OW36501   5.652   7.061   6.885 -0.2602  0.3872 -0.0258
11578SOL    HW136502   5.721   7.104   6.835 -0.6712 -1.4176 -2.2861
11578SOL    HW236503   5.571   7.085   6.839 -0.9677  0.6848  1.2923
11579SOL     OW36504   3.586   3.200   9.423 -0.3810 -0.6768 -0.3338
11579SOL    HW136505   3.573   3.128   9.485 -1.4565 -1.5686 -1.5397
11579SOL    HW236506   3.637   3.160   9.352 -1.5299 -0.4396 -1.3117
11580SOL     OW36507   2.350   8.922   0.693 -0.3565 -0.0329 -0.5892
11580SOL    HW136508   2.412   8.860   0.731  0.0820 -0.0197 -1.2642
11580SOL    HW236509   2.293   8.868   0.637 -0.2278  0.1061 -0.8601
11581SOL     OW36510   9.539   9.709   0.478  0.3203  0.1780 -0.7489
11581SOL    HW136511   9.587   9.786   0.448  1.0442  0.1289  0.2273
11581SOL    HW236512   9.474   9.692   0.409  0.2258  1.5775 -1.0321
11582SOL     OW36513   6.892   6.090   5.732 -0.0153 -0.0540 -0.2468
11582SOL    HW136514   6.985   6.069   5.718  0.1172 -0.7543  1.4623
11582SOL    HW236515   6.845   6.030   5.674  0.5786 -0.4116 -0.3691
11583SOL     OW36516   3.842   7.782   4.437 -0.1570  0.2175 -0.1376
11583SOL    HW136517   3.902   7.776   4.363  0.5100 -0.2127  0.4231
11583SOL    HW236518   3.784   7.855   4.415 -0.5696 -0.4854 -1.4984
11584SOL     OW36519   4.937   8.500   9.274 -0.1974  0.6757  0.1412
11584SOL    HW136520   5.008   8.437   9.264  0.9602  2.0696 -1.0410
11584SOL    HW236521   4.865   8.451   9.313  0.8328 -1.2148 -0.2533
11585SOL     OW36522   6.436   9.488   8.999  0.2281  0.0372 -0.5093
11585SOL    HW136523   6.434   9.541   8.920  0.7341  2.4400  0.9721
11585SOL    HW236524   6.526   9.456   9.005  0.5770  1.0302 -0.2191
11586SOL     OW36525   3.607   2.882   3.923  0.1191 -0.4780  0.1111
11586SOL    HW136526   3.531   2.908   3.975 -0.2981 -0.7007 -0.3755
11586SOL    HW236527   3.668   2.955   3.931 -0.3745 -0.0551  0.0633
11587SOL     OW36528   0.160   8.291   2.341 -0.2778 -0.1741 -0.6210
11587SOL    HW136529   0.242   8.285   2.389  0.6875 -0.1623 -2.2114
11587SOL    HW236530   0.148   8.385   2.324  0.1798 -0.2967 -1.6910
11588SOL     OW36531   9.388   1.029   8.112 -0.5636  0.4434 -0.0360
11588SOL    HW136532   9.376   0.935   8.125 -0.9180  0.3904 -0.7351
11588SOL    HW236533   9.347   1.048   8.028  0.4990  1.0299 -0.4461
11589SOL     OW36534   5.632   7.558   5.103 -0.1437 -0.3425  0.3368
11589SOL    HW136535   5.712   7.574   5.053 -1.2602  0.5415 -1.2620
11589SOL    HW236536   5.579   7.502   5.046 -1.4488  0.6716  0.5114
11590SOL     OW36537   3.105   6.962   0.149  0.3175  0.1085  0.5276
11590SOL    HW136538   3.115   6.918   0.065  0.3640  1.0161  0.0410
11590SOL    HW236539   3.161   6.913   0.209  0.7402 -0.2035 -0.1105
11591SOL     OW36540   8.859   5.357   8.824 -0.2198 -0.3110  0.3408
11591SOL    HW136541   8.921   5.288   8.848 -0.2873 -0.4091  0.2300
11591SOL    HW236542   8.784   5.311   8.786  0.9115 -0.0773 -2.4536
11592SOL     OW36543   0.171   3.909   9.466  0.6475 -0.3831  0.2551
11592SOL    HW136544   0.250   3.865   9.433  1.8042  2.6818 -1.5023
11592SOL    HW236545   0.204   3.968   9.534 -0.5313 -0.6035  1.0475
11593SOL     OW36546   4.978   1.968   5.388  0.2524  0.5658 -0.5363
11593SOL    HW136547   4.910   2.025   5.353 -0.7041 -1.1676 -1.6110
11593SOL    HW236548   4.966   1.885   5.343  1.7703 -0.4305  0.7780
11594SOL     OW36549   6.524   2.042   3.880  0.2176 -0.3386 -0.5607
11594SOL    HW136550   6.536   1.964   3.935 -0.9665 -1.2754 -1.5853
11594SOL    HW236551   6.613   2.071   3.860  0.7155  0.2419  2.0659
11595SOL     OW36552   6.895   6.940   6.685  0.1210 -0.1470  0.1449
11595SOL    HW136553   6.980   6.897   6.699  1.0110  1.9155  1.5415
11595SOL    HW236554   6.832   6.884   6.731  0.8973 -1.0609  0.1309
11596SOL     OW36555   9.541   8.243   7.291 -0.0255  0.2258 -0.0094
11596SOL    HW136556   9.635   8.231   7.301 -0.1915  0.7484  3.1870
11596SOL    HW236557   9.502   8.181   7.352 -1.5969  1.9698  0.8788
11597SOL     OW36558   5.620   8.979   4.029 -0.0369 -0.4652  0.2350
11597SOL    HW136559   5.614   9.069   3.998  0.4344 -0.0172  1.3913
11597SOL    HW236560   5.665   8.932   3.959  0.3186  0.3444 -0.0874
11598SOL     OW36561   3.183   3.637   0.617 -0.1813 -0.0600 -0.4349
11598SOL    HW136562   3.111   3.674   0.566 -1.4192 -2.1524 -0.3458
11598SOL    HW236563   3.240   3.596   0.553 -0.6364 -0.9028 -0.3139
11599SOL     OW36564   7.291   2.918   2.139 -0.1923 -0.8379  0.2676
11599SOL    HW136565   7.383   2.941   2.148 -0.1835 -1.1045  0.9539
11599SOL    HW236566   7.283   2.882   2.051 -0.1850  1.5878 -0.7875
11600SOL     OW36567   1.412   4.251   6.929 -0.2330 -0.4410  0.1006
11600SOL    HW136568   1.463   4.177   6.964  1.5820  1.4667  1.7636
11600SOL    HW236569   1.323   4.217   6.921  0.0509 -2.1994  2.9384
11601SOL     OW36570   5.378   7.375   1.024  0.3506  0.4936  0.0932
11601SOL    HW136571   5.308   7.348   1.083 -0.6803  0.1053 -1.2576
11601SOL    HW236572   5.344   7.454   0.981  0.3871 -0.1745 -1.1875
11602SOL     OW36573   5.541   7.165   2.938 -0.4090  0.4085 -0.0960
11602SOL    HW136574   5.498   7.223   3.001 -0.0385 -0.6514  1.1954
11602SOL    HW236575   5.540   7.213   2.856 -1.5549  1.5575  0.5523
11603SOL     OW36576   8.705   2.101   1.242 -0.1674 -0.4982  0.1487
11603SOL    HW136577   8.620   2.130   1.276 -0.3236 -0.5855 -0.1594
11603SOL    HW236578   8.716   2.151   1.161  1.0598  1.1182  1.2223
11604SOL     OW36579   6.837   8.488   0.647  0.3079 -0.4713 -0.4965
11604SOL    HW136580   6.767   8.492   0.713  0.2318 -0.2525 -0.5894
11604SOL    HW236581   6.853   8.395   0.634  2.2331 -0.6022  1.8804
11605SOL     OW36582   5.159   3.430   5.820  0.0215  0.2836  0.2369
11605SOL    HW136583   5.235   3.465   5.774  0.4410  1.3098  1.6579
11605SOL    HW236584   5.195   3.383   5.895 -0.7257  0.5588  0.7808
11606SOL     OW36585   3.238   7.961   4.203  0.1227 -0.1224  0.0057
11606SOL    HW136586   3.247   8.054   4.224 -0.1203 -0.4934  1.9603
11606SOL    HW236587   3.303   7.945   4.134 -0.7837  1.7580 -1.3577
11607SOL     OW36588   1.284   2.353   2.128  0.2523 -0.0401 -0.3893
11607SOL    HW136589   1.344   2.301   2.074 -1.0343 -2.5412  0.4312
11607SOL    HW236590   1.203   2.356   2.078  0.7283  2.6799 -1.1470
11608SOL     OW36591   7.721   1.452   3.558 -0.2334 -0.1579 -0.1148
11608SOL    HW136592   7.742   1.396   3.484 -1.0163 -0.2329 -0.2885
11608SOL    HW236593   7.759   1.537   3.535  0.4050 -0.4398 -0.1321
11609SOL     OW36594   3.487   5.071   4.116  0.1980  0.1660  0.1312
11609SOL    HW136595   3.392   5.069   4.128  0.2650  1.0390  0.9580
11609SOL    HW236596   3.507   5.163   4.097  0.7305 -0.2610 -1.4768
11610SOL     OW36597   4.640   5.337   7.455  0.4596  0.4648  0.3863
11610SOL    HW136598   4.728   5.341   7.417  0.1599 -0.5320 -0.4789
11610SOL    HW236599   4.592   5.277   7.398 -0.3106 -0.3325  1.8058
11611SOL     OW36600   1.074   1.777   0.968 -0.1326 -0.1127  0.7138
11611SOL    HW136601   1.116   1.853   1.008  0.6470  0.3157 -0.8459
11611SOL    HW236602   1.141   1.709   0.971  0.2374  0.1718 -0.5712
11612SOL     OW36603   3.300   6.976   6.312 -0.0285  0.3404 -0.2054
11612SOL    HW136604   3.312   7.070   6.301 -0.9709  0.4124 -0.7362
11612SOL    HW236605   3.205   6.964   6.317  0.1096 -0.3997  1.5918
11613SOL     OW36606   4.326   0.530   2.276 -0.3579 -0.3264  0.2254
11613SOL    HW136607   4.315   0.435   2.279 -1.0699 -0.2900 -0.7303
11613SOL    HW236608   4.408   0.547   2.322  1.5515 -1.7081 -2.4938
11614SOL     OW36609   6.381   3.773   4.368 -0.2332 -0.7825 -0.2064
11614SOL    HW136610   6.398   3.679   4.370  0.3997 -0.6632  1.8841
11614SOL    HW236611   6.467   3.813   4.361 -0.5628 -0.3085 -2.5488
11615SOL     OW36612   9.828   9.366   6.454 -0.0480 -0.3354 -0.3275
11615SOL    HW136613   9.889   9.435   6.427  0.3688 -1.5558 -2.7756
11615SOL    HW236614   9.779   9.345   6.375 -2.1226 -0.9823  1.0367
11616SOL     OW36615   2.999   3.901   3.897 -0.1463 -0.4554  0.0436
11616SOL    HW136616   2.974   3.930   3.809  0.5915  0.1022  0.0015
11616SOL    HW236617   3.020   3.808   3.887  0.7051 -0.2074 -0.5435
11617SOL     OW36618   1.829   1.685   9.031 -0.5202 -0.7817  0.2221
11617SOL    HW136619   1.828   1.780   9.025 -0.4556 -0.8022 -0.1649
11617SOL    HW236620   1.834   1.656   8.940 -1.1216 -1.1666  0.3113
11618SOL     OW36621   2.444   4.725   5.208  0.4411  0.1282 -0.2997
11618SOL    HW136622   2.383   4.791   5.242  1.1874  0.3809  0.5906
11618SOL    HW236623   2.474   4.761   5.125  0.9227  0.9776  0.2263
11619SOL     OW36624   6.585   7.484   2.677 -0.1311  0.0907 -0.5538
11619SOL    HW136625   6.536   7.550   2.726 -0.6509 -0.5903 -0.1421
11619SOL    HW236626   6.676   7.511   2.685 -0.2029 -0.0128  0.8160
11620SOL     OW36627   8.283   6.383   0.563  0.3664 -0.4758 -0.5005
11620SOL    HW136628   8.219   6.438   0.609  0.8974 -0.6729  0.5075
11620SOL    HW236629   8.300   6.431   0.482  0.3262  0.5266  0.0557
11621SOL     OW36630   0.070   6.485   6.846 -0.5770  0.5404  0.7862
11621SOL    HW136631  -0.021   6.503   6.870 -0.3881  0.8255  1.3083
11621SOL    HW236632   0.101   6.567   6.809 -0.2112  0.7935  1.6233
11622SOL     OW36633   5.749   8.321   9.118 -0.2942  0.6724 -0.1297
11622SOL    HW136634   5.738   8.342   9.210 -1.6229  0.1101 -0.1328
11622SOL    HW236635   5.664   8.342   9.078 -0.6482 -1.5623 -0.7077
11623SOL     OW36636   1.048   0.275   4.642  0.3026 -0.1886  0.3586
11623SOL    HW136637   0.969   0.231   4.609  1.2125 -1.6891  0.0717
11623SOL    HW236638   1.119   0.239   4.588  1.1581  1.3905  0.3813
11624SOL     OW36639   7.136   0.815   5.206  0.0423 -0.3244 -0.0977
11624SOL    HW136640   7.225   0.806   5.171  0.0300 -0.8300 -0.0157
11624SOL    HW236641   7.115   0.908   5.198  0.7373 -0.1340  0.2667
11625SOL     OW36642   5.083   9.488   5.649 -0.0100 -0.4099  0.1436
11625SOL    HW136643   5.020   9.418   5.670 -1.2461  0.7046  0.2998
11625SOL    HW236644   5.160   9.468   5.703 -1.1529 -0.4785  1.8268
11626SOL     OW36645   0.894   1.557   0.131  0.6975 -0.3771  0.2614
11626SOL    HW136646   0.813   1.551   0.181 -1.7027  0.7499 -3.1032
11626SOL    HW236647   0.949   1.616   0.181 -0.2798 -1.5490  2.9123
11627SOL     OW36648   5.832   4.068   3.367 -0.4500  0.2418  0.5026
11627SOL    HW136649   5.903   4.034   3.313 -1.4194  1.2987 -1.5405
11627SOL    HW236650   5.870   4.144   3.411 -0.0565  0.2343  0.1832
11628SOL     OW36651   0.293   1.572   4.890  0.4189  0.4762 -0.2510
11628SOL    HW136652   0.375   1.529   4.915 -1.9280 -4.3188  0.3483
11628SOL    HW236653   0.238   1.566   4.968 -1.8988 -0.5625 -1.8377
11629SOL     OW36654   6.048   6.642   9.310  0.4428  0.3918 -0.1781
11629SOL    HW136655   5.994   6.618   9.385  0.7576  2.0316  0.6279
11629SOL    HW236656   6.138   6.624   9.339  0.5652  1.0530 -0.1256
11630SOL     OW36657   0.241   6.575   8.062 -0.2417 -0.3186  0.1693
11630SOL    HW136658   0.261   6.668   8.070 -1.5693 -0.0168  0.1869
11630SOL    HW236659   0.147   6.569   8.076  0.0268 -1.8527  1.6575
11631SOL     OW36660   7.459   2.205   1.402 -0.2230 -0.0729 -0.1222
11631SOL    HW136661   7.481   2.136   1.340  0.2961 -0.8201  0.8576
11631SOL    HW236662   7.467   2.287   1.352 -1.3883 -0.7249 -1.4493
11632SOL     OW36663   9.734   5.429   0.678 -0.8361  0.1828  0.3035
11632SOL    HW136664   9.712   5.423   0.585  2.1777 -1.0636 -0.4583
11632SOL    HW236665   9.735   5.338   0.708 -2.1987  0.6005  1.7302
11633SOL     OW36666   6.693   2.366   9.208  0.0816  0.0926 -0.3103
11633SOL    HW136667   6.709   2.332   9.296 -2.2697 -1.5893 -0.4242
11633SOL    HW236668   6.644   2.446   9.222 -1.7472 -1.0251 -0.0327
11634SOL     OW36669   7.245   8.827   0.409  0.4174  0.1130 -0.5691
11634SOL    HW136670   7.156   8.838   0.441  0.7421  1.3029 -0.0314
11634SOL    HW236671   7.288   8.910   0.427  1.5861 -0.3726 -0.9996
11635SOL     OW36672   6.787   0.965   0.798  0.3292 -0.1281 -0.3856
11635SOL    HW136673   6.834   0.920   0.728 -1.0713 -1.1875 -0.6870
11635SOL    HW236674   6.725   0.900   0.831 -1.6381  1.4937 -0.7009
11636SOL     OW36675   9.582   8.021   0.716 -0.0156 -0.0781 -0.0244
11636SOL    HW136676   9.654   8.080   0.695 -0.1301 -0.1372 -0.5962
11636SOL    HW236677   9.592   7.947   0.656 -1.5842  0.7572 -1.3780
11637SOL     OW36678   5.679   3.436   0.292  1.0478 -0.0205 -0.3026
11637SOL    HW136679   5.587   3.420   0.275  0.4799 -1.2203  3.0687
11637SOL    HW236680   5.687   3.531   0.298 -0.3689  0.0553  0.8982
11638SOL     OW36681   6.582   6.057   3.506  0.1981  0.4155 -0.2329
11638SOL    HW136682   6.600   6.131   3.563 -2.2811  0.9284  0.0107
11638SOL    HW236683   6.557   5.986   3.566 -2.6700  1.0287 -0.5360
11639SOL     OW36684   9.167   3.267   7.359  0.2929 -0.5109 -0.3041
11639SOL    HW136685   9.123   3.347   7.386  0.9332  0.1254 -1.1124
11639SOL    HW236686   9.152   3.206   7.431 -1.9775 -0.3504 -0.5559
11640SOL     OW36687   0.574   4.073   6.105  0.1445  0.1156 -0.0867
11640SOL    HW136688   0.527   4.141   6.058  0.5879  0.5900  0.1400
11640SOL    HW236689   0.542   3.991   6.068 -1.9459  0.3418  1.0416
11641SOL     OW36690   5.070   4.632   0.932  0.6661  1.3763 -0.1484
11641SOL    HW136691   4.978   4.641   0.909  0.3607 -0.1129  0.3784
11641SOL    HW236692   5.117   4.675   0.860 -0.3751  0.1301 -1.6302
11642SOL     OW36693   6.239   0.017   0.695 -0.7534 -0.1387  0.1984
11642SOL    HW136694   6.314   0.035   0.752 -0.4251 -0.0879 -0.2471
11642SOL    HW236695   6.176   0.086   0.716 -1.1903 -0.8888  1.4541
11643SOL     OW36696   4.472   1.550   9.426 -0.5279 -0.0277 -0.5185
11643SOL    HW136697   4.519   1.527   9.346  1.0532  1.3932 -0.0353
11643SOL    HW236698   4.463   1.467   9.473  0.4004 -0.5351 -1.2039
11644SOL     OW36699   3.630   8.139   2.220  0.0190 -0.0542  0.1574
11644SOL    HW136700   3.569   8.107   2.287  0.2268 -2.6704 -0.7897
11644SOL    HW236701   3.573   8.178   2.153 -0.4455 -0.5697  0.2482
11645SOL     OW36702   2.753   4.414   7.989 -0.2203  0.1187  0.1159
11645SOL    HW136703   2.741   4.319   7.990 -0.2380  0.1208  0.1356
11645SOL    HW236704   2.669   4.449   8.022 -0.0396  0.1245  0.5772
11646SOL     OW36705   3.072   0.238   1.507  0.0825  0.1864 -0.3933
11646SOL    HW136706   2.981   0.219   1.485  0.3860 -1.3539 -0.3894
11646SOL    HW236707   3.115   0.153   1.507  1.3470  0.8033  0.4388
11647SOL     OW36708   6.240   4.764   7.600  0.0060 -0.0368 -0.4711
11647SOL    HW136709   6.269   4.832   7.660 -1.6319  0.2340  0.0583
11647SOL    HW236710   6.320   4.715   7.578  1.0236  1.3685 -0.0226
11648SOL     OW36711   1.007   9.806   2.422  0.0243 -0.6431  0.1337
11648SOL    HW136712   1.097   9.774   2.436 -0.3148 -1.7207 -0.0415
11648SOL    HW236713   1.015   9.867   2.349  0.7432 -0.0671  0.6674
11649SOL     OW36714   3.554   9.604   7.874  0.5937  0.6022  0.4965
11649SOL    HW136715   3.596   9.622   7.958  2.4807 -0.5000 -0.1684
11649SOL    HW236716   3.464   9.580   7.898  1.0263  0.5042  2.1749
11650SOL     OW36717   1.157   3.114   3.547 -0.0821  0.3136  0.4387
11650SOL    HW136718   1.110   3.127   3.629  0.8891  0.5627  0.9687
11650SOL    HW236719   1.230   3.057   3.570  1.1616  1.7174  0.1224
11651SOL     OW36720   1.375   9.331   5.685 -0.5761  0.3148  0.6721
11651SOL    HW136721   1.335   9.296   5.606  0.3266 -1.3154  0.8805
11651SOL    HW236722   1.306   9.327   5.751 -0.7230 -0.3887  0.4864
11652SOL     OW36723   3.502   4.429   0.607  0.3874  0.0052 -0.2799
11652SOL    HW136724   3.443   4.421   0.533  0.5337 -1.1476 -0.2990
11652SOL    HW236725   3.557   4.505   0.587  0.5771 -0.4305 -1.4650
11653SOL     OW36726   3.442   2.739   5.034  0.5539  0.7024 -0.4370
11653SOL    HW136727   3.480   2.827   5.024  3.0250 -0.2748 -0.5055
11653SOL    HW236728   3.446   2.701   4.946  0.6761  0.1136 -0.1844
11654SOL     OW36729   6.657   9.478   4.398  0.1059  0.7090  0.1748
11654SOL    HW136730   6.725   9.537   4.365  0.4163  0.5184  0.4675
11654SOL    HW236731   6.703   9.397   4.420 -0.5430 -0.1805 -1.5884
11655SOL     OW36732   3.683   7.581   9.821  0.3778 -0.3960 -0.3332
11655SOL    HW136733   3.635   7.612   9.898  2.7967 -0.1431  1.1885
11655SOL    HW236734   3.684   7.655   9.761 -1.4375 -0.5546 -0.5957
11656SOL     OW36735   2.412   6.084   4.644 -0.4429  0.0488  0.0642
11656SOL    HW136736   2.342   6.087   4.709 -0.2817 -0.8693  0.2926
11656SOL    HW236737   2.391   6.009   4.590  0.8297 -0.7807  0.6793
11657SOL     OW36738   3.617   5.852   6.787  0.1736  0.4223 -0.1038
11657SOL    HW136739   3.635   5.817   6.875  0.9478  0.3629 -0.2793
11657SOL    HW236740   3.697   5.898   6.763 -0.1187  0.6266 -0.6912
11658SOL     OW36741   1.588   8.843   6.049  0.4683  0.3169  0.8370
11658SOL    HW136742   1.645   8.783   6.097 -1.8132 -0.4168  2.8460
11658SOL    HW236743   1.531   8.880   6.116 -2.8344 -0.6234 -1.2036
11659SOL     OW36744   8.578   6.963   2.855 -0.6920 -0.3522  0.3928
11659SOL    HW136745   8.541   7.008   2.930 -0.0006  1.1812 -0.1553
11659SOL    HW236746   8.547   7.012   2.779 -2.8861 -2.9332 -0.5281
11660SOL     OW36747   0.690   6.490   8.703  0.4939  0.4430  0.4562
11660SOL    HW136748   0.612   6.471   8.651 -0.9753 -0.3690  2.7974
11660SOL    HW236749   0.678   6.580   8.733  1.1615  0.7877 -0.2661
11661SOL     OW36750   5.109   8.790   3.757 -0.1487  0.8116 -0.5203
11661SOL    HW136751   5.187   8.742   3.785  1.9430  3.8679 -0.6624
11661SOL    HW236752   5.040   8.761   3.817  0.5100 -3.2477 -1.4262
11662SOL     OW36753   4.256   4.880   1.323  0.3625  0.4802  0.3700
11662SOL    HW136754   4.253   4.955   1.264  0.6785  0.9154  0.9006
11662SOL    HW236755   4.316   4.906   1.393  1.3218 -0.6617  0.0228
11663SOL     OW36756   7.401   7.072   5.158 -0.2814 -0.2339  0.6972
11663SOL    HW136757   7.396   7.042   5.249 -0.4416 -3.4996 -0.2302
11663SOL    HW236758   7.495   7.078   5.139 -0.1445 -2.5591  0.3299
11664SOL     OW36759   9.546   6.376   0.216 -0.1773  0.2735  0.5121
11664SOL    HW136760   9.567   6.313   0.285  0.0695  1.1178  1.2234
11664SOL    HW236761   9.632   6.407   0.186 -0.0952 -2.1348 -2.1851
11665SOL     OW36762   7.237   8.767   6.559  0.5217  0.0824 -0.0633
11665SOL    HW136763   7.185   8.706   6.507 -0.5033  0.0873  0.9114
11665SOL    HW236764   7.225   8.851   6.516 -0.9659  0.2369  0.5687
11666SOL     OW36765   8.571   6.634   0.639 -0.2048  0.2100 -0.1831
11666SOL    HW136766   8.624   6.582   0.699  0.2105  0.3662 -0.4101
11666SOL    HW236767   8.578   6.724   0.671 -0.2672  0.2434 -0.2602
11667SOL     OW36768   8.856   4.276   2.226  0.5161  0.1932 -0.6657
11667SOL    HW136769   8.875   4.369   2.213 -0.7990  0.5556 -0.1137
11667SOL    HW236770   8.920   4.248   2.292  0.5086  0.8614 -0.3663
11668SOL     OW36771   9.788   4.034   9.354 -0.3868  0.2977 -0.2655
11668SOL    HW136772   9.716   4.013   9.413  0.5551 -3.2387 -0.1511
11668SOL    HW236773   9.866   4.002   9.399  0.8522  1.0116 -1.7967
11669SOL     OW36774   3.693   5.132   8.704  0.2263  0.0499  0.1154
11669SOL    HW136775   3.599   5.122   8.714  0.0519  1.5132  0.1585
11669SOL    HW236776   3.713   5.217   8.744  1.5799 -0.2761  0.1996
11670SOL     OW36777   7.142   8.233   4.151 -0.8406  0.0417  0.7279
11670SOL    HW136778   7.109   8.313   4.111  1.6339  0.5977 -0.3493
11670SOL    HW236779   7.182   8.262   4.233 -0.2244 -0.1065  0.4881
11671SOL     OW36780   8.544   6.602   3.865 -0.1025 -0.5202 -0.3455
11671SOL    HW136781   8.622   6.599   3.809 -0.5830  0.9571 -1.1564
11671SOL    HW236782   8.501   6.518   3.851  1.2807 -1.3311  0.0431
11672SOL     OW36783   0.653   0.878   9.649 -0.2635  0.0270 -0.1271
11672SOL    HW136784   0.574   0.848   9.694  0.0341  1.7358  1.6697
11672SOL    HW236785   0.721   0.816   9.676 -0.4234  0.1312  0.5298
11673SOL     OW36786   3.399   7.607   4.128 -0.0165 -0.2826 -0.2213
11673SOL    HW136787   3.440   7.599   4.214 -4.3452 -0.4657  2.1520
11673SOL    HW236788   3.421   7.527   4.082  1.4446 -0.7396  1.2115
11674SOL     OW36789   4.669   4.326   2.810  0.2448 -0.2371  0.5585
11674SOL    HW136790   4.590   4.301   2.762  0.8489  1.0263 -1.1917
11674SOL    HW236791   4.728   4.361   2.743  1.3561  1.0979  2.1612
11675SOL     OW36792   0.427   5.424   1.171  0.2342  0.2065  0.4650
11675SOL    HW136793   0.386   5.408   1.085 -0.4738  3.4306  0.0990
11675SOL    HW236794   0.511   5.464   1.150  0.6432 -0.2054  1.2884
11676SOL     OW36795   9.045   2.907   1.626  0.0417  0.6232  0.3646
11676SOL    HW136796   8.968   2.901   1.570 -0.6438 -0.4249  1.3674
11676SOL    HW236797   9.046   2.824   1.675  1.9327  0.5079  0.2190
11677SOL     OW36798   5.263   8.204   7.089 -0.4357  0.4408  0.4251
11677SOL    HW136799   5.307   8.288   7.100  0.6180 -0.3161  2.5561
11677SOL    HW236800   5.327   8.148   7.045 -1.2103  0.7624 -1.1841
11678SOL     OW36801   8.464   4.273   6.926  0.0521 -0.2561 -0.2217
11678SOL    HW136802   8.537   4.327   6.896 -1.0769  1.5944  0.1822
11678SOL    HW236803   8.441   4.220   6.850 -0.3412  1.6200 -1.4694
11679SOL     OW36804   0.843   6.929   4.389 -0.3959  0.5864  0.0408
11679SOL    HW136805   0.853   6.836   4.366  0.6059  0.5836  0.4483
11679SOL    HW236806   0.753   6.950   4.366 -1.6873 -1.3122  2.8098
11680SOL     OW36807   3.882   0.994   6.094 -0.3796  0.1502  0.1870
11680SOL    HW136808   3.870   0.977   6.001 -0.3693 -0.6516  0.3276
11680SOL    HW236809   3.794   1.004   6.129 -0.5329 -2.0705  0.5429
11681SOL     OW36810   2.639   2.239   5.737 -0.1859 -0.5372  0.2448
11681SOL    HW136811   2.605   2.326   5.758 -0.4500 -0.2782 -1.1424
11681SOL    HW236812   2.734   2.246   5.749 -0.2463 -0.1899  0.5448
11682SOL     OW36813   6.967   1.623   0.545  0.6127 -0.4587 -0.0582
11682SOL    HW136814   6.949   1.673   0.466 -2.5810  0.4516  1.0924
11682SOL    HW236815   6.903   1.553   0.544 -0.6571  0.5479  2.4385
11683SOL     OW36816   3.780   4.031   6.456  0.3136  0.0776  0.2321
11683SOL    HW136817   3.786   4.126   6.452  2.2577 -0.0378 -1.4436
11683SOL    HW236818   3.852   4.005   6.514 -0.1746 -0.3855  0.6448
11684SOL     OW36819   8.269   8.413   6.059 -0.7707  0.6268 -0.3812
11684SOL    HW136820   8.235   8.347   5.999  2.1594 -1.0990 -0.3718
11684SOL    HW236821   8.303   8.483   6.003  0.9796 -0.4803 -0.7852
11685SOL     OW36822   8.807   7.772   2.522  0.6051  0.6375 -0.3692
11685SOL    HW136823   8.798   7.796   2.615  1.5973  0.1951 -0.1529
11685SOL    HW236824   8.778   7.850   2.475 -0.5593  0.6387  0.2911
11686SOL     OW36825   0.016   8.032   6.921 -0.0320 -0.2544 -0.0535
11686SOL    HW136826  -0.047   8.007   6.854  1.6341 -1.1465 -1.3773
11686SOL    HW236827  -0.016   8.115   6.955 -1.8708 -0.6726 -0.6834
11687SOL     OW36828   1.235   2.627   2.887  0.6776  0.2405  0.1080
11687SOL    HW136829   1.315   2.680   2.883  0.5337  0.3509 -1.8526
11687SOL    HW236830   1.165   2.686   2.859  0.1103 -0.2475  0.4719
11688SOL     OW36831   6.882   7.612   2.453 -0.2369 -0.0343  0.1318
11688SOL    HW136832   6.800   7.608   2.403  0.5673  1.7910 -1.4926
11688SOL    HW236833   6.911   7.521   2.458 -0.0622 -0.3516 -3.4444
11689SOL     OW36834   2.767   8.310   2.726 -0.3610  0.4017  0.0868
11689SOL    HW136835   2.695   8.340   2.670 -0.2568  0.9668  0.2578
11689SOL    HW236836   2.831   8.381   2.725  0.1716 -0.0759 -0.0146
11690SOL     OW36837   1.200   0.139   6.188 -0.0169 -0.1127  0.7848
11690SOL    HW136838   1.176   0.232   6.180 -1.1008 -0.3799  0.8893
11690SOL    HW236839   1.295   0.141   6.200  0.0865  0.9455  0.0199
11691SOL     OW36840   8.950   0.686   2.006  0.2758  0.6064 -0.2835
11691SOL    HW136841   8.984   0.611   2.054 -0.4994  0.5878  0.2589
11691SOL    HW236842   8.858   0.663   1.989  0.6001  0.4814 -2.0425
11692SOL     OW36843   8.642   8.626   8.554  0.0595 -0.6966  0.5672
11692SOL    HW136844   8.602   8.543   8.578 -2.6164 -0.8043 -3.4178
11692SOL    HW236845   8.721   8.601   8.504  0.2152 -0.7783  0.8532
11693SOL     OW36846   1.266   1.529   1.699  0.0036  0.3619  0.2221
11693SOL    HW136847   1.280   1.443   1.738 -1.2931  0.5820  1.2334
11693SOL    HW236848   1.177   1.553   1.724 -0.5631  0.9455 -2.1086
11694SOL     OW36849   6.308   2.371   2.139 -0.5820  0.3521  0.1670
11694SOL    HW136850   6.301   2.317   2.218  1.6362  0.4058  0.4723
11694SOL    HW236851   6.342   2.455   2.171  2.0712 -0.1858 -0.9430
11695SOL     OW36852   4.035   7.727   6.224 -0.3063 -0.2434  0.1643
11695SOL    HW136853   4.105   7.676   6.184 -0.0251 -0.0968  0.4689
11695SOL    HW236854   3.957   7.672   6.214 -0.4834  0.2765 -1.6106
11696SOL     OW36855   8.813   9.307   1.100  0.0733  0.3120 -0.0497
11696SOL    HW136856   8.778   9.324   1.013  1.3827  0.1398 -0.6397
11696SOL    HW236857   8.887   9.249   1.085 -1.3819 -2.0913  1.4692
11697SOL     OW36858   5.272   3.872   4.709  0.3299 -0.0493 -0.0598
11697SOL    HW136859   5.321   3.885   4.628  1.5716  1.8476  0.8967
11697SOL    HW236860   5.225   3.954   4.722  0.1920 -0.2999  1.1506
11698SOL     OW36861   7.477   2.170   2.139  0.2746  0.3536  0.0524
11698SOL    HW136862   7.404   2.110   2.129 -0.1531  0.9253 -0.3774
11698SOL    HW236863   7.467   2.206   2.228  0.2109  0.1965  0.1082
11699SOL     OW36864   3.890   7.632   8.527  0.2028 -0.4029  0.1476
11699SOL    HW136865   3.796   7.627   8.545  0.0367  0.8970 -0.2764
11699SOL    HW236866   3.931   7.583   8.599 -0.7811 -0.8639  0.4090
11700SOL     OW36867   5.257   6.940   9.373 -0.4528 -0.0990  0.1146
11700SOL    HW136868   5.340   6.987   9.379 -0.2860 -0.4134  0.3035
11700SOL    HW236869   5.191   7.005   9.397 -0.2202  0.0167  0.4565
11701SOL     OW36870   7.621   4.858   1.141  0.1799 -0.3920 -0.0656
11701SOL    HW136871   7.531   4.834   1.120 -0.2307  1.9365 -1.2577
11701SOL    HW236872   7.655   4.898   1.061  1.3828  1.1902  1.1632
11702SOL     OW36873   5.419   0.632   6.527  0.2309  0.1093  0.1363
11702SOL    HW136874   5.439   0.540   6.514 -2.2771 -0.4504 -0.1736
11702SOL    HW236875   5.443   0.674   6.445 -0.1199 -0.5554 -0.3138
11703SOL     OW36876   7.655   9.245   1.291 -0.0381 -0.0577  0.3351
11703SOL    HW136877   7.668   9.161   1.336 -1.9607 -0.7421 -0.2693
11703SOL    HW236878   7.676   9.311   1.357  0.2067 -1.0211  1.2512
11704SOL     OW36879   7.317   6.813   2.074 -0.1464  0.6280 -0.0495
11704SOL    HW136880   7.364   6.744   2.121  1.7335  2.0176  0.1975
11704SOL    HW236881   7.224   6.790   2.086  0.3152 -0.2511  2.5505
11705SOL     OW36882   4.820   3.280   1.355  0.3035 -0.4317 -0.1073
11705SOL    HW136883   4.737   3.308   1.394  0.1627 -1.9392  0.7776
11705SOL    HW236884   4.849   3.355   1.303 -2.3704 -0.3488 -1.6906
11706SOL     OW36885   0.627   1.894   5.393  0.3810 -0.5104 -0.3848
11706SOL    HW136886   0.611   1.988   5.386  0.7823 -0.3465  0.7632
11706SOL    HW236887   0.634   1.878   5.487 -1.3774 -1.9723 -0.4443
11707SOL     OW36888   8.150   2.856   3.257 -0.3065 -0.2713  0.2346
11707SOL    HW136889   8.137   2.798   3.182 -2.7403 -0.4254  0.7016
11707SOL    HW236890   8.068   2.852   3.306  0.8878  0.4910  2.4714
11708SOL     OW36891   6.900   1.617   1.921  0.3248 -0.0718 -0.6474
11708SOL    HW136892   6.910   1.712   1.923 -0.5485  0.0188  0.1864
11708SOL    HW236893   6.909   1.590   2.012  0.8737 -0.8309 -0.9176
11709SOL     OW36894   3.083   1.942   4.616 -0.0670 -0.4184 -0.1531
11709SOL    HW136895   3.154   1.877   4.615  0.3333 -0.0250 -1.9334
11709SOL    HW236896   3.014   1.902   4.563 -0.1033  0.2944 -0.6572
11710SOL     OW36897   4.807   2.111   1.109 -0.1563 -0.7074 -0.0644
11710SOL    HW136898   4.873   2.057   1.152 -1.4916 -1.6038  0.9359
11710SOL    HW236899   4.851   2.194   1.092  0.6757 -0.5876  2.3274
11711SOL     OW36900   4.618   8.291   7.427  0.3559  0.4937  0.2414
11711SOL    HW136901   4.538   8.307   7.477  0.6806  1.0500  0.5901
11711SOL    HW236902   4.633   8.372   7.379  0.8759  0.5056  0.4181
11712SOL     OW36903   1.505   7.631   4.757  0.7975 -0.4149  0.2079
11712SOL    HW136904   1.550   7.555   4.792 -0.1813 -0.8091  0.6390
11712SOL    HW236905   1.572   7.700   4.753  1.2026 -0.6988  1.7538
11713SOL     OW36906   1.493   7.757   3.042  0.5404 -0.2563  0.0623
11713SOL    HW136907   1.490   7.664   3.063  2.4565 -0.4838 -0.4607
11713SOL    HW236908   1.579   7.786   3.073  0.0288  1.3117  0.1060
11714SOL     OW36909   7.733   7.731   9.631  0.9550  0.1904  0.5244
11714SOL    HW136910   7.747   7.824   9.648 -1.2355  0.5702  0.5935
11714SOL    HW236911   7.640   7.717   9.652  1.3248 -2.1031  0.9136
11715SOL     OW36912   6.511   7.271   7.365 -0.5586 -0.0242 -0.0975
11715SOL    HW136913   6.590   7.325   7.363 -0.1592 -0.5836  0.1996
11715SOL    HW236914   6.474   7.286   7.453  0.0354 -0.8921  0.3183
11716SOL     OW36915   5.796   8.579   1.359  0.3613 -0.4843  0.1941
11716SOL    HW136916   5.780   8.590   1.452 -0.2930  0.7808 -0.0501
11716SOL    HW236917   5.790   8.667   1.322 -1.3767 -1.1830 -1.3395
11717SOL     OW36918   5.928   1.084   3.653  0.3787 -0.2410  0.7187
11717SOL    HW136919   5.837   1.075   3.627  0.8289  0.0971 -1.0552
11717SOL    HW236920   5.952   1.173   3.630  2.0089 -1.2320 -1.8303
11718SOL     OW36921   0.579   8.141   4.430 -0.1960  0.6171 -0.7998
11718SOL    HW136922   0.496   8.156   4.384 -0.5583  1.5153  0.1138
11718SOL    HW236923   0.577   8.049   4.455 -1.5335  0.9260  0.3474
11719SOL     OW36924   9.263   6.376   9.829  0.0555  0.4764 -0.2838
11719SOL    HW136925   9.297   6.340   9.911 -0.9898 -0.0920 -0.0823
11719SOL    HW236926   9.256   6.470   9.845 -0.0691  0.3788  0.2495
11720SOL     OW36927   2.556   7.791   6.662 -0.0551 -0.2600 -0.2825
11720SOL    HW136928   2.548   7.794   6.758 -0.6413  1.7551 -0.3548
11720SOL    HW236929   2.636   7.840   6.643 -0.0272 -0.5155 -0.8602
11721SOL     OW36930   0.802   8.373   0.829 -0.2413  0.0052  0.2998
11721SOL    HW136931   0.843   8.451   0.866  1.3281 -1.2428  1.3537
11721SOL    HW236932   0.802   8.387   0.735  1.6345  0.5619  0.3442
11722SOL     OW36933   4.234   6.336   2.011  0.1679 -0.7884  0.6413
11722SOL    HW136934   4.151   6.370   1.977  0.6923 -0.5607 -0.4321
11722SOL    HW236935   4.257   6.396   2.082  0.8358  0.8433 -0.9115
11723SOL     OW36936   8.938   9.193   8.663 -0.4182  0.4293 -0.0047
11723SOL    HW136937   8.944   9.142   8.744 -0.7024 -0.7049 -0.6662
11723SOL    HW236938   8.987   9.273   8.681  0.2712 -0.1919  0.9978
11724SOL     OW36939   4.854   5.942   6.935 -0.4672  0.2981  0.1225
11724SOL    HW136940   4.783   5.990   6.978 -1.0535  0.6337 -1.1698
11724SOL    HW236941   4.859   5.859   6.984 -0.7826  0.8514  1.1211
11725SOL     OW36942   6.159   8.443   9.213 -0.2575 -0.5006 -0.5117
11725SOL    HW136943   6.137   8.465   9.303 -1.8545 -2.0699 -0.4794
11725SOL    HW236944   6.078   8.455   9.164  0.2488 -0.9523 -1.5014
11726SOL     OW36945   4.111   2.075   5.465  0.5898  0.6250 -0.3222
11726SOL    HW136946   4.156   2.093   5.548  1.9584 -1.0664 -0.6416
11726SOL    HW236947   4.100   2.161   5.425  0.8727  1.3737  1.1292
11727SOL     OW36948   0.068   4.231   8.244 -0.4990  0.2238 -0.2070
11727SOL    HW136949   0.026   4.262   8.324  0.2702 -1.3173  0.8447
11727SOL    HW236950   0.007   4.167   8.208  0.8217 -2.1264  1.4001
11728SOL     OW36951   2.800   0.693   5.082 -0.3447  0.0433  0.0673
11728SOL    HW136952   2.838   0.708   4.996 -0.9066 -1.8063 -0.5499
11728SOL    HW236953   2.707   0.716   5.071 -0.4384 -0.2950  0.1417
11729SOL     OW36954   4.231   8.867   8.068  0.6742  0.3961  0.5447
11729SOL    HW136955   4.315   8.912   8.061  0.1157  1.3694 -0.1866
11729SOL    HW236956   4.186   8.886   7.985 -1.0423  1.5394  1.6752
11730SOL     OW36957   4.022   6.530   4.733  0.0129  0.0938 -0.1678
11730SOL    HW136958   3.932   6.537   4.701  0.0660 -1.3488 -0.6964
11730SOL    HW236959   4.076   6.540   4.655  0.4329  2.3541  0.3206
11731SOL     OW36960   3.365   8.000   5.759 -0.1701 -0.1509 -0.1724
11731SOL    HW136961   3.274   7.997   5.730 -1.2058  2.4780  2.2592
11731SOL    HW236962   3.371   7.934   5.828 -1.0955  1.4542  1.5205
11732SOL     OW36963   0.749   3.921   1.714  0.1544 -0.6064  0.0793
11732SOL    HW136964   0.756   3.861   1.639 -2.3621 -1.4773  0.4515
11732SOL    HW236965   0.655   3.940   1.721  0.6725  1.9111  1.1666
11733SOL     OW36966   3.648   3.807   7.489  0.6360 -0.5030  0.3697
11733SOL    HW136967   3.685   3.859   7.418  2.5790  2.9094  3.5646
11733SOL    HW236968   3.564   3.848   7.509 -0.3874 -2.0707 -0.4451
11734SOL     OW36969   7.274   9.065   8.114  0.0130 -0.2093  0.1737
11734SOL    HW136970   7.287   8.996   8.049 -1.9060 -0.2021 -0.2874
11734SOL    HW236971   7.210   9.028   8.175  1.2062  0.0822  1.6575
11735SOL     OW36972   5.632   2.346   5.746  0.3905 -0.0689  0.6304
11735SOL    HW136973   5.612   2.398   5.667  1.4300  0.7117  0.8435
11735SOL    HW236974   5.551   2.345   5.796  0.5622  2.2729  1.0972
11736SOL     OW36975   4.706   9.282   5.902  0.5390 -0.7394 -0.2879
11736SOL    HW136976   4.640   9.327   5.955  0.3087 -2.4795  1.0254
11736SOL    HW236977   4.787   9.293   5.951  0.5344 -1.4462 -0.1008
11737SOL     OW36978   5.308   2.151   0.671  0.6638 -0.6353  0.2958
11737SOL    HW136979   5.224   2.196   0.662  1.1218  0.6742  1.9038
11737SOL    HW236980   5.335   2.131   0.582 -0.3732  0.8410 -0.3912
11738SOL     OW36981   4.033   9.763   1.392 -0.0113  0.4002 -0.9135
11738SOL    HW136982   4.020   9.732   1.303 -1.2946 -1.3963 -0.1515
11738SOL    HW236983   4.092   9.699   1.432 -2.6139 -1.1889  0.6588
11739SOL     OW36984   2.305   8.048   1.917  0.0036 -0.0531  0.0398
11739SOL    HW136985   2.232   7.987   1.922  1.5357 -1.9156  0.9186
11739SOL    HW236986   2.370   8.004   1.862  0.8040  1.1914 -0.0573
11740SOL     OW36987   2.453   2.772   1.318 -0.3624  0.4364 -0.0907
11740SOL    HW136988   2.445   2.738   1.407  0.7156  0.1941 -0.0644
11740SOL    HW236989   2.461   2.694   1.263 -1.0096  0.5846 -0.4019
11741SOL     OW36990   6.677   8.332   5.095 -0.1799  0.3844 -0.4135
11741SOL    HW136991   6.746   8.303   5.036 -0.3605  0.4301 -0.6519
11741SOL    HW236992   6.612   8.262   5.094 -0.4853  0.6656 -0.7744
11742SOL     OW36993   0.404   2.069   2.626  0.3989 -0.2626  0.0371
11742SOL    HW136994   0.475   2.088   2.564  0.4620 -0.4914  0.0375
11742SOL    HW236995   0.441   2.002   2.684  0.3321 -0.0615  0.3071
11743SOL     OW36996   5.393   3.675   5.610 -0.4480  0.2800 -0.0787
11743SOL    HW136997   5.298   3.680   5.617 -0.4723 -0.3055  0.0282
11743SOL    HW236998   5.417   3.754   5.562 -1.1038 -0.1537 -1.1719
11744SOL     OW36999   8.926   6.463   9.163  0.1453 -0.1239 -0.4474
11744SOL    HW137000   8.902   6.458   9.256  0.1933 -0.0322 -0.4308
11744SOL    HW237001   9.006   6.515   9.161 -0.0940  0.2451 -0.5828
11745SOL     OW37002   8.866   3.028   2.121 -0.3045  0.0037 -0.7055
11745SOL    HW137003   8.955   3.045   2.091 -0.3411 -0.2337 -0.9585
11745SOL    HW237004   8.869   2.939   2.156 -0.7763 -0.5698 -2.0702
11746SOL     OW37005   1.707   1.199   1.867  0.0758  0.1275 -0.4142
11746SOL    HW137006   1.651   1.200   1.945 -0.7176  0.8278 -0.9783
11746SOL    HW237007   1.769   1.271   1.882 -1.0760  1.2971 -1.1214
11747SOL     OW37008   2.358   4.294   6.996  0.0675 -0.4922  0.2148
11747SOL    HW137009   2.321   4.256   6.916 -0.2508  1.2989 -0.5323
11747SOL    HW237010   2.344   4.227   7.063 -1.9778 -1.0365 -0.6650
11748SOL     OW37011   4.089   2.266   6.644 -0.8929 -0.0366  0.1457
11748SOL    HW137012   4.036   2.230   6.573  0.4430 -0.3301 -0.7455
11748SOL    HW237013   4.091   2.360   6.627 -0.2010 -0.1577 -0.4949
11749SOL     OW37014   8.533   6.120   1.909  0.0863  0.4946  0.3820
11749SOL    HW137015   8.515   6.027   1.919 -1.5857  0.5893 -1.3747
11749SOL    HW237016   8.447   6.162   1.904  0.6661  1.5752 -3.2650
11750SOL     OW37017   5.227   3.627   0.437  0.1006 -0.0339  0.1798
11750SOL    HW137018   5.234   3.544   0.485  0.6412  0.1436  0.4113
11750SOL    HW237019   5.215   3.601   0.346 -1.1302 -0.3770  0.4246
11751SOL     OW37020   4.293   0.824   2.127  1.5342  0.5977 -0.3993
11751SOL    HW137021   4.299   0.729   2.125  0.3705  0.4875  0.3043
11751SOL    HW237022   4.381   0.854   2.104  1.8894 -0.6357 -0.7286
11752SOL     OW37023   5.542   0.576   7.568 -0.1996 -0.8944  0.9570
11752SOL    HW137024   5.472   0.627   7.608 -2.5900 -1.4713 -2.1373
11752SOL    HW237025   5.587   0.638   7.511 -1.5281 -1.5973 -0.9265
11753SOL     OW37026   0.658   4.540   4.501  0.2779 -0.3662 -0.4419
11753SOL    HW137027   0.735   4.537   4.558 -1.0816  1.5568  1.6858
11753SOL    HW237028   0.680   4.604   4.434  0.1169  1.1622  0.9143
11754SOL     OW37029   4.897   5.088   8.640 -0.0721 -0.2347  0.4192
11754SOL    HW137030   4.841   5.140   8.698 -1.1166 -0.1196 -0.6553
11754SOL    HW237031   4.846   5.079   8.559  1.8770  0.7722 -1.0076
11755SOL     OW37032   0.292   8.464   5.124  0.2741 -0.3469 -0.8231
11755SOL    HW137033   0.218   8.474   5.064 -1.0354 -1.3201  0.5633
11755SOL    HW237034   0.341   8.388   5.090 -1.5634 -2.1458  0.3710
11756SOL     OW37035   0.195   3.699   0.824 -0.0093  0.0226 -0.3024
11756SOL    HW137036   0.275   3.663   0.861 -0.2363 -0.0794  0.0880
11756SOL    HW237037   0.223   3.740   0.742  0.8747  2.0837  0.9519
11757SOL     OW37038   4.015   8.020   4.801 -0.0691  0.3687 -0.0950
11757SOL    HW137039   3.989   7.928   4.808 -0.8430  0.6731  1.4174
11757SOL    HW237040   4.013   8.052   4.891  1.8120  1.4541 -0.3974
11758SOL     OW37041   7.579   6.247   5.340  0.3602  0.0971  0.0473
11758SOL    HW137042   7.651   6.293   5.296 -0.7485  0.0783 -1.9336
11758SOL    HW237043   7.584   6.158   5.306 -1.1130  0.3236 -0.8401
11759SOL     OW37044   1.502   5.409   3.912 -0.2436  0.2128  0.3831
11759SOL    HW137045   1.549   5.485   3.878 -0.7701 -0.1018 -1.1240
11759SOL    HW237046   1.559   5.335   3.891 -1.8680 -0.3308 -2.6501
11760SOL     OW37047   4.478   9.684   2.287  0.4301 -0.2605 -0.2417
11760SOL    HW137048   4.441   9.730   2.362 -0.0336  0.4445 -0.8809
11760SOL    HW237049   4.568   9.716   2.281  0.1715  0.4338 -0.5591
11761SOL     OW37050   5.957   6.254   7.677  0.0615  0.0879 -0.0810
11761SOL    HW137051   5.990   6.170   7.646 -0.8104  0.1309 -1.1801
11761SOL    HW237052   6.030   6.315   7.666  0.1267 -0.1484 -0.9805
11762SOL     OW37053   2.691   4.787   4.667  0.3668 -0.0191  0.2876
11762SOL    HW137054   2.689   4.875   4.703 -1.2949 -0.5846  1.6851
11762SOL    HW237055   2.711   4.730   4.742  2.0822 -0.8193 -0.7054
11763SOL     OW37056   1.560   5.593   4.278 -0.1472 -0.4436  0.4291
11763SOL    HW137057   1.633   5.558   4.330 -0.6508 -2.2294 -0.0076
11763SOL    HW237058   1.558   5.538   4.200 -0.3112  1.2872 -0.8443
11764SOL     OW37059   5.140   9.366   0.840 -0.2441 -0.1244 -0.4100
11764SOL    HW137060   5.117   9.380   0.932  0.5435 -1.7680  0.0829
11764SOL    HW237061   5.110   9.276   0.822  2.4271 -1.0244 -0.7846
11765SOL     OW37062   1.250   9.592   5.693  0.0020  0.2516 -0.2273
11765SOL    HW137063   1.334   9.625   5.726 -0.7015  2.6226 -0.6259
11765SOL    HW237064   1.273   9.513   5.645  1.9062  0.4160  0.3119
11766SOL     OW37065   2.956   2.937   7.032 -0.0298  0.8121  0.5317
11766SOL    HW137066   3.036   2.933   7.084  0.1534  0.4694  0.2271
11766SOL    HW237067   2.947   3.029   7.009  0.2151  0.8702  0.6594
11767SOL     OW37068   4.243   5.153   6.540 -0.2919 -0.2698  0.7236
11767SOL    HW137069   4.241   5.095   6.464  0.5877 -0.1555  0.6074
11767SOL    HW237070   4.163   5.205   6.531 -1.2865 -1.6787  1.0263
11768SOL     OW37071   5.834   3.796   8.005 -0.1762 -0.3693  0.5277
11768SOL    HW137072   5.915   3.806   7.955 -1.1602 -0.6610 -1.1982
11768SOL    HW237073   5.816   3.883   8.040 -0.0501  0.1167 -0.5858
11769SOL     OW37074   0.289   4.366   4.299 -0.0962 -0.0431 -0.3537
11769SOL    HW137075   0.273   4.305   4.371  1.2355  0.3469  0.2929
11769SOL    HW237076   0.267   4.452   4.336  1.6899  0.2931 -0.0161
11770SOL     OW37077   7.034   7.095   6.295  0.4354  0.0815  0.1469
11770SOL    HW137078   7.050   7.057   6.208  1.3730 -1.6536  1.0149
11770SOL    HW237079   7.024   7.189   6.279 -0.4928 -0.3123 -1.9493
11771SOL     OW37080   5.302   0.935   8.333 -0.1435  0.1444 -0.1021
11771SOL    HW137081   5.338   0.908   8.417 -0.1926  1.8183  0.4888
11771SOL    HW237082   5.209   0.953   8.351 -1.2503 -3.3174 -1.4273
11772SOL     OW37083   9.677   5.071   3.811 -0.1066 -0.0269  0.1211
11772SOL    HW137084   9.757   5.027   3.840  0.1231 -0.5583 -1.2580
11772SOL    HW237085   9.706   5.133   3.744 -0.6319  1.1267  0.9294
11773SOL     OW37086   3.729   7.243   8.619 -0.4994 -0.1354 -0.4689
11773SOL    HW137087   3.791   7.173   8.597  0.3309  0.7947 -1.2302
11773SOL    HW237088   3.739   7.306   8.548 -1.7141  0.4560 -0.1455
11774SOL     OW37089   4.714   6.789   6.346 -0.5806 -0.5762 -0.3698
11774SOL    HW137090   4.762   6.725   6.399  0.9351 -0.5915 -1.6732
11774SOL    HW237091   4.771   6.865   6.342 -2.4188  0.9944  1.2656
11775SOL     OW37092   0.586   3.795   5.756 -0.3038 -0.0940 -0.2707
11775SOL    HW137093   0.668   3.802   5.806 -0.7520 -2.0778  0.8182
11775SOL    HW237094   0.579   3.879   5.711  1.7607  0.5515  0.4905
11776SOL     OW37095   5.732   6.785   2.391  0.4300  0.3129  0.1096
11776SOL    HW137096   5.695   6.733   2.319  0.3584 -2.0055  1.7331
11776SOL    HW237097   5.656   6.807   2.445  0.6960  0.6473  0.3482
11777SOL     OW37098   7.842   9.707   3.999  0.6774  0.7330 -0.0871
11777SOL    HW137099   7.756   9.675   4.026  1.7724 -1.3681  1.1433
11777SOL    HW237100   7.859   9.662   3.916  0.1196  2.1181 -0.9980
11778SOL     OW37101   0.958   4.713   2.726 -0.1454  0.0914 -0.3393
11778SOL    HW137102   0.991   4.795   2.763 -1.2978  0.0618  0.8084
11778SOL    HW237103   1.029   4.651   2.738 -0.3524  0.1781  1.5413
11779SOL     OW37104   3.214   3.038   4.318 -0.7596 -0.2628 -0.2101
11779SOL    HW137105   3.188   2.946   4.328  1.6792 -1.4009 -2.9921
11779SOL    HW237106   3.131   3.086   4.315 -2.1004 -2.2961  1.4330
11780SOL     OW37107   4.303   4.729   0.386  0.0468 -0.6979 -0.2670
11780SOL    HW137108   4.272   4.797   0.446  0.4000  0.4114 -1.3004
11780SOL    HW237109   4.291   4.647   0.434  0.0758  0.1294  1.1990
11781SOL     OW37110   9.291   6.696   3.685  0.1490  0.2002 -0.0800
11781SOL    HW137111   9.249   6.670   3.603  2.2962 -0.7133 -0.9661
11781SOL    HW237112   9.335   6.779   3.664  0.8884 -0.1482  0.0477
11782SOL     OW37113   5.615   7.262   4.521 -0.0595 -0.3158 -0.5289
11782SOL    HW137114   5.540   7.262   4.580 -0.8791  0.4810 -1.5373
11782SOL    HW237115   5.578   7.251   4.434  0.9398  0.5217 -1.0896
11783SOL     OW37116   1.123   3.906   0.968 -0.2154 -0.0734 -0.2785
11783SOL    HW137117   1.146   3.970   0.901  1.0740 -0.4009 -0.1800
11783SOL    HW237118   1.037   3.872   0.941 -0.4500  0.9599 -0.8688
11784SOL     OW37119   2.728   6.651   2.176 -0.0614 -0.1159 -0.2757
11784SOL    HW137120   2.812   6.611   2.154  0.1821  0.6441 -0.7334
11784SOL    HW237121   2.673   6.635   2.099 -0.5573 -1.1978  0.2855
11785SOL     OW37122   4.801   3.496   0.131  0.4602  0.4102 -0.0929
11785SOL    HW137123   4.864   3.567   0.122 -1.3642  2.3836  1.6525
11785SOL    HW237124   4.715   3.539   0.130 -0.7158 -1.6953  1.4031
11786SOL     OW37125   0.359   0.527   9.119 -0.4833  0.4056  0.5470
11786SOL    HW137126   0.277   0.525   9.069  1.0624 -2.0813 -2.2081
11786SOL    HW237127   0.411   0.596   9.077  0.4266 -1.0047 -0.7753
11787SOL     OW37128   7.584   0.862   8.294 -0.2111  0.4263 -0.2177
11787SOL    HW137129   7.617   0.778   8.262  0.2700  1.1211 -1.6179
11787SOL    HW237130   7.600   0.860   8.389 -0.5628 -1.1972 -0.1692
11788SOL     OW37131   9.311   3.797   4.100 -0.0759 -0.2879  0.1350
11788SOL    HW137132   9.273   3.713   4.125  0.8149  0.0430  2.9896
11788SOL    HW237133   9.236   3.851   4.077 -0.7116 -1.6186 -1.1177
11789SOL     OW37134   3.064   4.767   2.421 -0.2642 -0.1448 -0.3535
11789SOL    HW137135   3.085   4.715   2.344  1.3182  1.3847 -0.9972
11789SOL    HW237136   3.126   4.839   2.420 -1.6686  1.1680  1.1198
11790SOL     OW37137   0.471   6.705   6.892  0.0545  0.4888  0.3805
11790SOL    HW137138   0.547   6.750   6.927 -1.0584  3.5095 -0.7528
11790SOL    HW237139   0.491   6.691   6.800  0.7648 -2.4198  0.8820
11791SOL     OW37140   1.080   9.229   4.622  0.2422  0.1779  0.2325
11791SOL    HW137141   1.131   9.228   4.703  0.2479  0.8614  0.2413
11791SOL    HW237142   1.001   9.179   4.642 -1.3082  2.9666  1.7003
11792SOL     OW37143   2.501   6.499   8.355  0.5188  0.5106  0.1619
11792SOL    HW137144   2.427   6.545   8.395  0.8764  2.6707 -1.4722
11792SOL    HW237145   2.569   6.500   8.423 -1.2939 -2.9468  2.3085
11793SOL     OW37146   4.980   6.627   5.873 -0.1089 -0.0452 -0.8579
11793SOL    HW137147   4.890   6.597   5.856 -0.8395  1.8504 -0.5301
11793SOL    HW237148   4.998   6.598   5.962 -0.5711 -0.0305 -0.7548
11794SOL     OW37149   8.232   7.293   9.758  0.6537  0.0725 -0.0965
11794SOL    HW137150   8.255   7.264   9.669 -1.3237  1.0299 -1.0041
11794SOL    HW237151   8.217   7.212   9.807  2.6298 -0.4909 -0.3394
11795SOL     OW37152   7.040   6.770   3.216  0.0345  0.3115  0.8947
11795SOL    HW137153   7.093   6.835   3.170 -0.0467  0.5036  1.0720
11795SOL    HW237154   7.104   6.717   3.265  0.0286  0.8275  1.4660
11796SOL     OW37155   6.187   4.922   3.483  0.7130  0.0290 -0.3121
11796SOL    HW137156   6.209   4.854   3.546 -2.0293  2.0936  3.1978
11796SOL    HW237157   6.125   4.881   3.423  2.2338 -1.5703 -0.8632
11797SOL     OW37158   4.173   8.131   7.332  0.0893 -0.0182  0.5295
11797SOL    HW137159   4.120   8.074   7.277 -1.9436  2.6522 -0.5078
11797SOL    HW237160   4.255   8.141   7.285 -0.2464 -0.5910 -0.1925
11798SOL     OW37161   8.923   3.589   3.458 -0.0226 -0.4514 -0.3618
11798SOL    HW137162   8.885   3.527   3.520 -1.4196 -0.7939 -1.5214
11798SOL    HW237163   8.848   3.625   3.410  0.8852  1.0344 -0.7347
11799SOL     OW37164   7.328   8.782   8.253 -0.4683  0.0600 -0.2578
11799SOL    HW137165   7.235   8.790   8.230 -0.5383 -1.1594 -0.4628
11799SOL    HW237166   7.374   8.782   8.169 -0.3863 -0.4658 -0.2160
11800SOL     OW37167   2.546   5.791   3.187  0.3602 -0.3148  0.2996
11800SOL    HW137168   2.468   5.752   3.225  0.4575 -0.2180  0.6050
11800SOL    HW237169   2.575   5.856   3.252  0.0626  0.4402 -0.3099
11801SOL     OW37170   2.022   8.615   9.486  0.9391 -0.3006 -0.6416
11801SOL    HW137171   1.970   8.668   9.547 -1.5285 -1.1665 -1.8531
11801SOL    HW237172   2.063   8.679   9.428  0.4493  0.3880 -0.2451
11802SOL     OW37173   7.849   3.396   6.574  0.4202  0.0592  0.2483
11802SOL    HW137174   7.877   3.306   6.559  0.6750  0.0746  0.6207
11802SOL    HW237175   7.859   3.439   6.489  1.0027 -0.0775  0.2434
11803SOL     OW37176   8.586   1.854   2.984 -0.0678  0.1729  0.5252
11803SOL    HW137177   8.545   1.770   3.000 -1.9579  1.2371  1.6688
11803SOL    HW237178   8.604   1.854   2.890  0.0012 -1.5020  0.5098
11804SOL     OW37179   6.099   6.808   1.879  0.3532  0.0817  0.1758
11804SOL    HW137180   6.173   6.854   1.920  0.8481 -0.5431 -0.0076
11804SOL    HW237181   6.118   6.715   1.891  0.5349 -0.1269 -1.4870
11805SOL     OW37182   0.133   4.954   7.351  0.3758 -0.4694 -0.4138
11805SOL    HW137183   0.119   4.860   7.359 -2.3758 -0.0450  0.8340
11805SOL    HW237184   0.107   4.975   7.261  0.9952 -0.8647 -0.6954
11806SOL     OW37185   5.957   1.910   5.792 -0.1531 -0.1335  0.8616
11806SOL    HW137186   5.979   1.953   5.710  0.7630  0.2515  1.3006
11806SOL    HW237187   5.887   1.964   5.829  0.2990  0.4135  0.9292
11807SOL     OW37188   0.815   0.165   0.753 -0.2661  0.0926  0.1712
11807SOL    HW137189   0.752   0.193   0.687 -0.9353  0.1941  0.8468
11807SOL    HW237190   0.885   0.122   0.702 -1.1774 -0.6024 -0.5393
11808SOL     OW37191   2.829   2.440   4.664  0.5487  0.2935  0.0226
11808SOL    HW137192   2.850   2.353   4.628  1.2440  0.7914 -0.8291
11808SOL    HW237193   2.738   2.433   4.691 -0.0153 -0.1448 -1.8466
11809SOL     OW37194   0.498   8.173   9.435 -0.4365  0.1210  0.0148
11809SOL    HW137195   0.533   8.224   9.508 -0.6694  0.3462 -0.0292
11809SOL    HW237196   0.461   8.095   9.476 -0.5762  0.2515  0.1386
11810SOL     OW37197   1.134   4.525   9.304 -0.3704  0.3808  0.2931
11810SOL    HW137198   1.194   4.576   9.359  0.5989  0.7684 -1.0762
11810SOL    HW237199   1.132   4.439   9.346  1.5014  0.2241  0.1720
11811SOL     OW37200   6.050   8.994   2.886 -0.1576  0.3664  0.2219
11811SOL    HW137201   5.960   8.985   2.855  0.2750  1.9946 -1.7809
11811SOL    HW237202   6.102   8.936   2.829  0.1662  0.1719  0.7101
11812SOL     OW37203   4.646   4.954   7.476  0.0499  0.9934 -0.1080
11812SOL    HW137204   4.733   4.988   7.493  0.0710  1.0829 -0.3838
11812SOL    HW237205   4.610   5.012   7.409 -0.2748  1.0400  0.1032
11813SOL     OW37206   4.857   7.700   5.053 -0.1908 -0.5245  0.5151
11813SOL    HW137207   4.800   7.709   4.976  0.5582  1.5155  0.1459
11813SOL    HW237208   4.940   7.670   5.017  0.2386  0.6808  0.4583
11814SOL     OW37209   5.832   6.497   1.060  0.1514 -0.2632  0.5369
11814SOL    HW137210   5.751   6.453   1.035  0.6925 -2.6670  2.6186
11814SOL    HW237211   5.803   6.575   1.109 -0.8575 -0.1611 -0.1899
11815SOL     OW37212   6.499   3.557   7.405  0.2912 -0.7319  0.1726
11815SOL    HW137213   6.519   3.482   7.348 -0.4337 -0.5636 -0.3173
11815SOL    HW237214   6.570   3.619   7.388 -0.0519 -0.5744 -0.7605
11816SOL     OW37215   7.295   1.582   2.394 -0.5128  0.4376 -0.4872
11816SOL    HW137216   7.298   1.617   2.305 -1.3761  1.7379 -0.0333
11816SOL    HW237217   7.333   1.651   2.448 -0.0002 -0.3399  0.1712
11817SOL     OW37218   8.148   3.176   5.338 -0.1646  0.6996 -0.3747
11817SOL    HW137219   8.114   3.250   5.289 -0.4884  0.8842  0.1256
11817SOL    HW237220   8.147   3.103   5.276 -0.4342  0.9657 -0.6821
11818SOL     OW37221   5.219   7.544   0.323 -1.0154 -0.4008  0.1885
11818SOL    HW137222   5.187   7.619   0.372 -2.8751 -2.8211  3.0457
11818SOL    HW237223   5.142   7.511   0.276 -0.0079 -0.0834 -1.8190
11819SOL     OW37224   7.119   2.634   6.491  0.2128 -0.2022 -0.1181
11819SOL    HW137225   7.096   2.583   6.569 -0.6894  1.5437  0.8107
11819SOL    HW237226   7.107   2.573   6.419 -0.9651 -1.2801  0.9343
11820SOL     OW37227   8.160   1.523   6.653 -0.0829 -0.1674 -0.4551
11820SOL    HW137228   8.180   1.603   6.702 -1.2116  0.5413 -1.1062
11820SOL    HW237229   8.223   1.458   6.685 -0.1366  0.5576  1.1867
11821SOL     OW37230   0.167   8.573   7.693  0.3176  0.7608 -0.1310
11821SOL    HW137231   0.078   8.579   7.659  0.1330 -1.5191 -0.1864
11821SOL    HW237232   0.216   8.527   7.625  1.0884  0.3558  0.6753
11822SOL     OW37233   2.015   7.979   8.520  0.2847 -0.3392 -0.5341
11822SOL    HW137234   2.099   7.940   8.495  0.1738 -0.7354 -0.3053
11822SOL    HW237235   2.038   8.049   8.581  0.4170 -0.7981 -0.0526
11823SOL     OW37236   8.988   0.359   8.954 -0.0564  0.3520  0.1016
11823SOL    HW137237   9.060   0.317   9.001  0.7190  2.1765  0.6593
11823SOL    HW237238   9.021   0.447   8.935 -0.6721 -0.0233 -3.1395
11824SOL     OW37239   2.067   8.854   5.579 -0.3556 -0.6471 -0.1422
11824SOL    HW137240   2.153   8.828   5.613 -0.2862 -0.9695 -0.5597
11824SOL    HW237241   2.014   8.868   5.658  0.3292  0.4637  0.1463
11825SOL     OW37242   9.672   0.414   6.241 -0.4002  0.3106 -0.0677
11825SOL    HW137243   9.682   0.362   6.161 -0.3796  0.9064 -0.4625
11825SOL    HW237244   9.761   0.421   6.276 -0.2317  0.9882 -0.6059
11826SOL     OW37245   5.351   0.112   4.945  0.6153  0.1711  0.1267
11826SOL    HW137246   5.305   0.159   4.875  0.5764 -0.4537 -0.2777
11826SOL    HW237247   5.395   0.040   4.900  0.8793 -0.0321  0.7026
11827SOL     OW37248   0.624   3.133   0.501  0.4421 -0.1976  0.3463
11827SOL    HW137249   0.608   3.121   0.407 -2.1052 -2.7041  0.9674
11827SOL    HW237250   0.583   3.217   0.521  1.0236  0.3697 -0.7578
11828SOL     OW37251   0.703   3.200   2.015 -0.4374  0.6485  0.2057
11828SOL    HW137252   0.775   3.220   2.075  0.3505  0.8372 -0.7859
11828SOL    HW237253   0.657   3.128   2.057  1.2940 -0.5880  0.0822
11829SOL     OW37254   0.124   3.716   1.088 -0.1682  0.2937  0.0779
11829SOL    HW137255   0.123   3.730   0.993 -0.1849  2.1786  0.3172
11829SOL    HW237256   0.055   3.652   1.103 -0.2634  0.0655 -1.1574
11830SOL     OW37257   6.484   2.796   7.924 -0.2789 -0.3891  0.0738
11830SOL    HW137258   6.481   2.730   7.854  2.4267 -1.0946  0.4771
11830SOL    HW237259   6.400   2.789   7.968 -2.0785  0.0672 -3.0464
11831SOL     OW37260   6.215   8.281   8.344  0.5869  0.1293  0.3583
11831SOL    HW137261   6.193   8.188   8.338  0.1571  0.1550  1.4238
11831SOL    HW237262   6.138   8.322   8.384  1.3619  0.6973  1.3223
11832SOL     OW37263   7.337   9.042   7.064  0.3901 -0.5937  0.4719
11832SOL    HW137264   7.342   9.129   7.024 -0.1063 -1.0483 -0.5844
11832SOL    HW237265   7.348   9.059   7.158  1.5542  0.4784  0.1696
11833SOL     OW37266   9.186   1.919   7.534  0.0446  0.0188  0.1601
11833SOL    HW137267   9.264   1.903   7.587  0.2772  0.7800  0.0616
11833SOL    HW237268   9.119   1.861   7.571  0.6466 -0.6229  0.2598
11834SOL     OW37269   6.044   8.734   0.822 -0.5525  0.0947 -0.0743
11834SOL    HW137270   6.018   8.649   0.858 -0.5092  0.7663  1.6211
11834SOL    HW237271   6.109   8.767   0.883 -0.6180  1.3881 -0.6788
11835SOL     OW37272   4.431   5.389   3.102  0.0095 -0.0434 -0.4442
11835SOL    HW137273   4.496   5.332   3.062  0.0884  0.4365 -1.0055
11835SOL    HW237274   4.358   5.391   3.040 -0.3245 -0.1657 -0.0609
11836SOL     OW37275   7.848   0.447   5.508 -0.5703  0.2848 -0.1284
11836SOL    HW137276   7.903   0.525   5.511 -1.1395  0.6932 -0.1011
11836SOL    HW237277   7.783   0.466   5.441 -0.4467 -0.3537 -0.4382
11837SOL     OW37278   3.595   9.572   5.333  0.0636 -0.1888 -0.2793
11837SOL    HW137279   3.679   9.612   5.309 -0.3084  0.2731 -0.8438
11837SOL    HW237280   3.540   9.586   5.256 -0.6920 -0.0229  0.2855
11838SOL     OW37281   5.181   1.116   2.170  0.0406 -0.0866 -0.4826
11838SOL    HW137282   5.241   1.103   2.096  0.9523  1.8213 -0.1588
11838SOL    HW237283   5.223   1.071   2.243  0.2819 -0.1066 -0.6312
11839SOL     OW37284   3.021   0.159   2.622  0.3089 -0.5455 -0.1855
11839SOL    HW137285   2.981   0.079   2.587  0.0850  0.0882 -1.4312
11839SOL    HW237286   3.112   0.155   2.591  0.2520 -0.2309 -0.3915
11840SOL     OW37287   5.219   9.739   9.210 -0.6628  0.2484 -0.4848
11840SOL    HW137288   5.285   9.671   9.206 -1.6889 -1.1583  2.7260
11840SOL    HW237289   5.269   9.821   9.217  0.6697 -0.5218 -0.6868
11841SOL     OW37290   7.184   1.275   3.099 -0.0130 -0.0567  0.3636
11841SOL    HW137291   7.260   1.235   3.141 -0.1785  0.5902  1.3092
11841SOL    HW237292   7.110   1.220   3.124 -0.1757  0.5732  1.3014
11842SOL     OW37293   8.182   8.368   7.444  0.6815  0.0960  0.5492
11842SOL    HW137294   8.136   8.331   7.368  1.0651 -0.4504  0.5800
11842SOL    HW237295   8.244   8.430   7.407  0.4581  0.2642  0.4558
11843SOL     OW37296   4.122   6.343   2.647  0.2023  0.5021 -0.2278
11843SOL    HW137297   4.058   6.405   2.684 -0.6467 -0.2900 -0.3246
11843SOL    HW237298   4.112   6.264   2.701  0.0981 -0.1070 -1.1269
11844SOL     OW37299   6.048   1.427   0.593  0.1858  0.0262  0.6016
11844SOL    HW137300   6.109   1.477   0.648  0.9851 -1.1130  0.7866
11844SOL    HW237301   5.988   1.493   0.558  0.7826  1.0182  1.3834
11845SOL     OW37302   5.016   2.133   5.840  0.1376 -0.5306 -0.3868
11845SOL    HW137303   4.941   2.122   5.782 -0.5322 -1.0212  0.5466
11845SOL    HW237304   4.981   2.115   5.928  0.8253  1.3473  0.3244
11846SOL     OW37305   1.401   7.143   3.028 -0.0069 -0.3161  0.2288
11846SOL    HW137306   1.360   7.110   2.948  0.5398 -2.6647  0.8345
11846SOL    HW237307   1.331   7.142   3.093  0.0635 -0.4688  0.3012
11847SOL     OW37308   8.107   5.857   1.765  0.4800  0.0744  0.3780
11847SOL    HW137309   8.013   5.868   1.776  0.1664 -1.5111 -0.3989
11847SOL    HW237310   8.146   5.919   1.827 -1.0593  0.9754  0.4900
11848SOL     OW37311   6.294   7.559   5.437 -0.1167  0.0011 -0.1954
11848SOL    HW137312   6.221   7.613   5.404  0.8280 -0.0094 -2.4304
11848SOL    HW237313   6.257   7.471   5.445 -0.4120  0.0329 -1.1237
11849SOL     OW37314   2.462   4.648   8.254  0.0303  0.6288 -0.2132
11849SOL    HW137315   2.461   4.742   8.270  2.5484  0.5458  0.8343
11849SOL    HW237316   2.377   4.618   8.287 -0.3797  2.3887  0.4594
11850SOL     OW37317   3.479   7.071   4.438 -0.4155 -0.3680 -0.3756
11850SOL    HW137318   3.489   7.003   4.371 -0.1585 -0.5077 -0.2026
11850SOL    HW237319   3.555   7.128   4.425 -0.7527  0.0118 -0.6634
11851SOL     OW37320   0.064   3.955   8.545 -0.4585 -0.0141  0.4966
11851SOL    HW137321  -0.024   3.977   8.576 -0.2318  0.4201  0.8481
11851SOL    HW237322   0.118   3.955   8.624 -0.0575  0.1794  0.2281
11852SOL     OW37323   5.885   4.289   6.062 -0.3461 -0.0072  0.4117
11852SOL    HW137324   5.976   4.272   6.037 -0.1750 -0.4695  1.3214
11852SOL    HW237325   5.887   4.300   6.157 -1.2366 -0.0111  0.4408
11853SOL     OW37326   7.266   5.919   2.366  0.1335  0.7245  0.0513
11853SOL    HW137327   7.331   5.978   2.403 -0.5258  2.3677 -1.2703
11853SOL    HW237328   7.241   5.960   2.283 -1.0923 -0.9178 -0.4418
11854SOL     OW37329   2.638   6.737   4.881 -0.3049 -0.0582 -0.5445
11854SOL    HW137330   2.653   6.668   4.817 -0.7126 -0.8435  0.1836
11854SOL    HW237331   2.715   6.794   4.873  0.4909 -1.0917 -0.5443
11855SOL     OW37332   1.216   6.548   7.763 -0.3176  0.0588 -0.0597
11855SOL    HW137333   1.184   6.471   7.716 -0.2236 -0.6672  1.0344
11855SOL    HW237334   1.138   6.582   7.808 -0.6534  1.4042 -1.5708
11856SOL     OW37335   2.299   4.223   8.062  0.4861  0.0111  1.0078
11856SOL    HW137336   2.302   4.147   8.004  1.6254  1.4635 -0.9951
11856SOL    HW237337   2.379   4.272   8.040 -1.0400  2.6472  0.9421
11857SOL     OW37338   8.331   5.658   4.092 -0.0665  0.3399  0.6068
11857SOL    HW137339   8.275   5.678   4.016 -0.3645  1.4706  1.1064
11857SOL    HW237340   8.269   5.637   4.162  0.2141 -2.8172  0.0587
11858SOL     OW37341   8.265   4.044   0.342  0.2130 -0.5498  0.5676
11858SOL    HW137342   8.287   3.975   0.280 -0.1499 -2.2347  2.2014
11858SOL    HW237343   8.346   4.061   0.389  0.9253  1.8925 -1.3281
11859SOL     OW37344   8.687   1.816   2.543 -0.6275  0.4282 -0.0577
11859SOL    HW137345   8.747   1.749   2.513 -1.3552 -0.8666  1.2423
11859SOL    HW237346   8.738   1.897   2.542  0.2323 -0.0864 -1.7774
11860SOL     OW37347   3.258   8.356   7.800  0.6588 -0.0951  0.6445
11860SOL    HW137348   3.323   8.291   7.771  1.1304  1.0191 -0.9238
11860SOL    HW237349   3.301   8.440   7.787 -0.7738  0.6285  0.4412
11861SOL     OW37350   0.879   2.852   2.062 -0.1007 -0.3299 -0.5467
11861SOL    HW137351   0.971   2.856   2.087 -0.1413 -1.4028 -0.1591
11861SOL    HW237352   0.867   2.925   2.001  0.2162  1.8560  1.8318
11862SOL     OW37353   5.984   0.490   3.141  0.2905  0.4636 -0.2147
11862SOL    HW137354   5.902   0.502   3.092  0.3222  0.8516 -0.1757
11862SOL    HW237355   6.034   0.427   3.089 -0.3134 -0.3034  0.1078
11863SOL     OW37356   5.984   3.015   0.950 -0.1426 -0.3639 -0.2689
11863SOL    HW137357   5.927   3.060   1.011  0.5822 -0.8851  0.8360
11863SOL    HW237358   6.067   3.007   0.997  0.9247  0.5671 -1.8951
11864SOL     OW37359   6.846   2.680   7.149 -0.5217 -0.9968 -0.3139
11864SOL    HW137360   6.899   2.664   7.070 -0.9795 -0.9138 -0.6425
11864SOL    HW237361   6.909   2.713   7.213 -0.4060  0.5672 -1.1638
11865SOL     OW37362   4.618   7.102   6.399 -0.0889  0.3611  0.2493
11865SOL    HW137363   4.606   7.036   6.330  0.6926  0.3128  0.1505
11865SOL    HW237364   4.536   7.099   6.449 -1.1265  1.1906 -1.3252
11866SOL     OW37365   6.633   7.882   4.070  0.1758 -0.0579  0.5823
11866SOL    HW137366   6.668   7.856   4.156 -1.1215  0.7059  1.3750
11866SOL    HW237367   6.577   7.957   4.089  0.4041  0.5569 -1.0457
11867SOL     OW37368   4.900   4.936   0.161  0.3300 -0.4641 -0.0350
11867SOL    HW137369   4.813   4.929   0.122  0.2470 -0.3216  0.1210
11867SOL    HW237370   4.893   4.886   0.242  0.1302  0.2710  0.4135
11868SOL     OW37371   3.326   6.257   1.613 -0.0035  0.3867  0.0474
11868SOL    HW137372   3.392   6.208   1.662 -0.1125  0.4309  0.2392
11868SOL    HW237373   3.284   6.191   1.557  0.8225  0.5214 -0.7621
11869SOL     OW37374   1.458   1.360   2.323 -0.4614  0.2771 -0.2025
11869SOL    HW137375   1.486   1.452   2.326  0.0348  0.1575 -0.8109
11869SOL    HW237376   1.508   1.317   2.392  0.1571  0.2582 -0.6449
11870SOL     OW37377   5.805   4.671   1.372  0.5491  0.1199  0.2433
11870SOL    HW137378   5.807   4.698   1.280  0.4776 -0.8594 -0.0570
11870SOL    HW237379   5.786   4.752   1.420 -1.4808  0.3099 -0.7621
11871SOL     OW37380   0.603   8.604   6.555 -0.0631  0.5679 -0.3109
11871SOL    HW137381   0.519   8.607   6.509 -0.4668 -0.9916  0.2767
11871SOL    HW237382   0.666   8.578   6.488 -0.4205 -0.3711 -0.2941
11872SOL     OW37383   2.027   5.037   7.035 -0.0090  0.3936 -0.0842
11872SOL    HW137384   2.119   5.029   7.058 -0.0882  0.7466  0.3907
11872SOL    HW237385   2.026   5.051   6.940  0.3383 -0.9893 -0.3061
11873SOL     OW37386   4.488   4.515   1.032 -0.3065  0.5408 -0.2728
11873SOL    HW137387   4.475   4.425   1.061  0.3928  1.0115  1.6256
11873SOL    HW237388   4.414   4.564   1.068  0.6004  1.1461  0.8493
11874SOL     OW37389   5.944   4.550   3.081  0.0338  0.6413  0.3282
11874SOL    HW137390   5.932   4.585   2.993 -1.7015  0.7218  0.5568
11874SOL    HW237391   5.981   4.622   3.131  0.7831  0.6792 -0.2701
11875SOL     OW37392   2.018   9.654   4.549 -0.4686  0.0653  0.3912
11875SOL    HW137393   1.933   9.631   4.511 -0.3068 -0.3320  0.2692
11875SOL    HW237394   1.997   9.718   4.617 -0.7673  0.7023 -0.2939
11876SOL     OW37395   3.323   0.369   6.816  0.3368  0.4367  0.3527
11876SOL    HW137396   3.409   0.387   6.778 -0.3906  1.1482 -1.0084
11876SOL    HW237397   3.286   0.301   6.760  0.3511 -0.5578  1.4896
11877SOL     OW37398   6.717   7.734   0.515 -0.3730 -0.1786 -0.4892
11877SOL    HW137399   6.682   7.682   0.587  0.8398  0.7150  0.8121
11877SOL    HW237400   6.812   7.731   0.527 -0.2115  1.1843 -1.1899
11878SOL     OW37401   4.934   2.059   2.547 -0.0542  0.0365 -0.1665
11878SOL    HW137402   5.010   2.116   2.546  0.6555 -0.8846 -0.0739
11878SOL    HW237403   4.867   2.109   2.594 -0.1508  1.6265 -1.8968
11879SOL     OW37404   1.174   0.115   5.281 -0.4485 -0.1537  0.2628
11879SOL    HW137405   1.212   0.199   5.306  0.3566 -0.1949 -0.7561
11879SOL    HW237406   1.206   0.053   5.347 -0.1609  0.1417  0.4011
11880SOL     OW37407   2.512   3.005   9.284 -0.5046 -0.0110  0.1540
11880SOL    HW137408   2.430   3.051   9.264 -0.3839  0.1479  0.0215
11880SOL    HW237409   2.495   2.914   9.258 -0.2862  0.2277 -0.8848
11881SOL     OW37410   9.647   5.385   3.085 -0.0601  0.0061 -0.2722
11881SOL    HW137411   9.728   5.430   3.109 -1.1599  1.0639  1.7432
11881SOL    HW237412   9.637   5.317   3.152 -0.9590  0.0383 -0.3672
11882SOL     OW37413   8.670   5.111   5.406  0.4411  0.2295  0.2036
11882SOL    HW137414   8.640   5.156   5.327  2.3551  1.9601  0.3810
11882SOL    HW237415   8.631   5.024   5.400 -0.7769  0.8344 -1.8105
11883SOL     OW37416   0.369   9.818   9.651  0.4400  0.0015  0.1013
11883SOL    HW137417   0.418   9.755   9.597  0.8313 -1.5472  2.1140
11883SOL    HW237418   0.282   9.780   9.659  1.1177 -1.2536  2.6301
11884SOL     OW37419   9.660   6.025   7.562  0.6651  0.3346 -0.7014
11884SOL    HW137420   9.751   5.995   7.559  0.0504 -1.6375 -1.7301
11884SOL    HW237421   9.651   6.084   7.487  0.8312 -0.3449 -1.2644
11885SOL     OW37422   3.955   6.461   6.196  0.1259  0.2655  0.0863
11885SOL    HW137423   3.982   6.495   6.282 -1.1642  2.1391 -0.1780
11885SOL    HW237424   3.889   6.395   6.216  1.1031 -0.5880  0.5646
11886SOL     OW37425   3.420   0.541   8.847  0.3242 -0.0345  0.4365
11886SOL    HW137426   3.418   0.468   8.909  3.2593 -1.6316 -1.1359
11886SOL    HW237427   3.500   0.588   8.869  2.0408 -1.2514 -2.6131
11887SOL     OW37428   8.919   8.621   4.358  0.6677  0.2352 -0.5165
11887SOL    HW137429   8.831   8.658   4.364  1.0235  1.1951 -1.1135
11887SOL    HW237430   8.906   8.536   4.315  0.1719  0.9884 -1.9285
11888SOL     OW37431   7.766   5.243   8.588  0.1033 -0.2984 -0.2295
11888SOL    HW137432   7.792   5.267   8.678 -0.4427  0.6633 -0.3092
11888SOL    HW237433   7.697   5.306   8.566 -0.1517 -0.8800 -1.1279
11889SOL     OW37434   3.287   9.792   1.060 -0.2266  0.0969 -0.0946
11889SOL    HW137435   3.365   9.737   1.058  0.0595  0.4777 -2.3223
11889SOL    HW237436   3.321   9.881   1.065 -0.3439  0.3784 -2.7118
11890SOL     OW37437   3.128   3.221   7.806  0.3768  0.1238 -0.1257
11890SOL    HW137438   3.096   3.311   7.800  1.1922  0.4283  0.0200
11890SOL    HW237439   3.139   3.193   7.715 -0.0286  0.1120 -0.1733
11891SOL     OW37440   5.846   7.521   4.267 -0.5714  0.0839  0.0416
11891SOL    HW137441   5.908   7.477   4.208 -1.1472 -0.9304  0.1812
11891SOL    HW237442   5.870   7.490   4.354  0.8393  2.2447  0.4932
11892SOL     OW37443   9.330   7.435   6.263 -0.0655 -0.0133 -0.1074
11892SOL    HW137444   9.239   7.420   6.237 -0.0269 -2.8180  1.0129
11892SOL    HW237445   9.343   7.379   6.339  1.7206  2.8229  1.8627
11893SOL     OW37446   0.870   5.412   8.536 -0.7559 -0.1861  0.1212
11893SOL    HW137447   0.778   5.434   8.548 -0.7419  0.1054 -0.2783
11893SOL    HW237448   0.875   5.380   8.445 -0.4503 -0.1147  0.1117
11894SOL     OW37449   2.759   9.179   4.223 -0.1308  0.3092  0.0812
11894SOL    HW137450   2.801   9.230   4.292  2.1469  0.5621 -1.4010
11894SOL    HW237451   2.803   9.094   4.226  0.2507  0.4458 -1.2879
11895SOL     OW37452   5.664   1.237   4.530 -0.0108 -0.2739 -0.7990
11895SOL    HW137453   5.593   1.294   4.559  1.2301  1.2706 -0.6372
11895SOL    HW237454   5.621   1.155   4.503 -1.7624  0.4194 -0.2202
11896SOL     OW37455   2.453   3.474   8.333  0.1574  0.1282  0.4474
11896SOL    HW137456   2.368   3.501   8.297 -0.1952 -0.7289  0.6261
11896SOL    HW237457   2.485   3.552   8.379 -0.0565  0.7847 -0.4822
11897SOL     OW37458   5.134   6.196   5.408 -0.3516  0.1870 -0.4565
11897SOL    HW137459   5.100   6.168   5.493  0.5655 -2.0671 -0.7733
11897SOL    HW237460   5.220   6.233   5.429  0.2761 -1.2100 -0.4571
11898SOL     OW37461   1.651   2.389   5.989 -0.3004 -0.4974 -0.2904
11898SOL    HW137462   1.651   2.293   5.986  1.2407 -0.5524  0.5387
11898SOL    HW237463   1.571   2.411   6.037  0.1913 -1.4630  1.0548
11899SOL     OW37464   1.502   8.111   0.771 -0.0375 -0.0506  0.2110
11899SOL    HW137465   1.512   8.016   0.775 -1.2446 -0.1622  1.2263
11899SOL    HW237466   1.512   8.140   0.862 -2.4251  0.4512  0.3801
11900SOL     OW37467   1.179   6.512   4.086  0.2090  0.2745 -0.5668
11900SOL    HW137468   1.171   6.477   3.998  1.8895 -0.5296 -0.4301
11900SOL    HW237469   1.186   6.607   4.073 -1.3427  0.3380 -1.1445
11901SOL     OW37470   1.895   5.982   0.423  0.5601  0.2543  0.6941
11901SOL    HW137471   1.974   5.985   0.369 -0.6564 -2.7132 -1.5433
11901SOL    HW237472   1.829   5.942   0.366 -1.7662 -0.0656  3.4063
11902SOL     OW37473   9.484   2.306   7.956 -0.3479 -0.1741  0.2533
11902SOL    HW137474   9.549   2.369   7.989 -0.2166 -0.2787  0.1925
11902SOL    HW237475   9.414   2.361   7.920 -1.0072 -0.0383  1.6784
11903SOL     OW37476   2.305   2.303   8.417  0.0173 -0.1077  0.5030
11903SOL    HW137477   2.352   2.287   8.499  1.6944  1.7174 -0.0441
11903SOL    HW237478   2.239   2.368   8.440  2.3186  2.5916 -0.0591
11904SOL     OW37479   7.014   7.947   0.303 -0.1008  0.7182  0.1710
11904SOL    HW137480   7.081   8.012   0.325 -1.3499  1.2637  2.7696
11904SOL    HW237481   7.037   7.870   0.355  0.4566 -0.3821 -1.6528
11905SOL     OW37482   8.481   7.398   0.380  0.5362 -0.1539 -0.2898
11905SOL    HW137483   8.468   7.380   0.473 -1.6736  0.0482 -0.5141
11905SOL    HW237484   8.461   7.491   0.371  0.4091 -0.2478 -1.0093
11906SOL     OW37485   7.896   7.584   7.584 -0.1389  0.1531 -0.1766
11906SOL    HW137486   7.822   7.638   7.612  0.5774  0.3577  1.4172
11906SOL    HW237487   7.925   7.625   7.502 -1.2267  0.5870 -0.3686
11907SOL     OW37488   7.498   6.519   6.793  0.2104  0.4255  0.2631
11907SOL    HW137489   7.486   6.472   6.711  1.9947 -2.3622  1.4453
11907SOL    HW237490   7.424   6.490   6.847 -0.4316  1.5212  0.0142
11908SOL     OW37491   2.390   6.827   5.000  0.4300  0.1363  0.4728
11908SOL    HW137492   2.486   6.826   5.007  0.4668  2.7656  1.2083
11908SOL    HW237493   2.371   6.898   4.938 -1.0528 -1.1212 -0.5955
11909SOL     OW37494   4.667   5.044   5.393  0.3610 -0.1418  0.1450
11909SOL    HW137495   4.609   5.068   5.465  1.3668 -0.2570  1.0323
11909SOL    HW237496   4.678   4.949   5.401  0.8649 -0.0872  0.1555
11910SOL     OW37497   4.653   0.823   4.183  0.2734  0.2832 -0.2930
11910SOL    HW137498   4.668   0.740   4.227  0.8077  0.3196 -0.3985
11910SOL    HW237499   4.561   0.842   4.199  0.2793 -0.0639  0.1853
11911SOL     OW37500   0.691   4.243   0.901  0.0919  0.0735 -0.2956
11911SOL    HW137501   0.766   4.198   0.941  0.6112  0.9730 -0.2448
11911SOL    HW237502   0.693   4.214   0.809  0.4596  0.0408 -0.2806
11912SOL     OW37503   9.322   7.918   8.231  0.5068 -0.4273 -0.3372
11912SOL    HW137504   9.394   7.873   8.276  0.2921 -0.5814 -0.1487
11912SOL    HW237505   9.356   8.005   8.212  0.8225 -0.5713 -0.4424
11913SOL     OW37506   0.530   9.547   7.405 -0.0590 -0.0596 -0.0812
11913SOL    HW137507   0.442   9.546   7.445  0.2571 -1.8514  0.6916
11913SOL    HW237508   0.583   9.598   7.465 -0.8336  2.4240 -1.3449
11914SOL     OW37509   2.404   5.161   9.571 -0.5304  0.1789  0.2803
11914SOL    HW137510   2.315   5.127   9.565  0.1594 -1.9000  1.0568
11914SOL    HW237511   2.439   5.152   9.482 -0.9232  0.6061  0.0731
11915SOL     OW37512   1.206   8.010   6.445  0.2743  0.0503 -0.0630
11915SOL    HW137513   1.149   7.936   6.427  0.2109  0.1555 -0.2863
11915SOL    HW237514   1.292   7.971   6.460  0.0254 -0.1676  0.9042
11916SOL     OW37515   6.952   2.224   3.014 -0.2009  0.6832 -0.1353
11916SOL    HW137516   6.885   2.167   3.052 -1.8855  2.9097  0.4329
11916SOL    HW237517   6.973   2.183   2.930 -0.2384 -1.5246  0.8628
11917SOL     OW37518   7.036   4.036   5.466 -0.3579 -0.1170 -0.1061
11917SOL    HW137519   7.096   4.105   5.496  1.2399 -1.1498 -0.7854
11917SOL    HW237520   6.969   4.033   5.534  0.8758  0.4508  1.2029
11918SOL     OW37521   1.767   0.902   1.392  0.0764 -0.4010 -0.4077
11918SOL    HW137522   1.825   0.839   1.434 -0.0080  0.0888  0.4643
11918SOL    HW237523   1.818   0.935   1.317  1.9131  1.7291  1.6293
11919SOL     OW37524   2.504   6.868   4.409 -0.5177  0.1142 -0.2757
11919SOL    HW137525   2.522   6.960   4.427 -1.0081  0.0701  0.4948
11919SOL    HW237526   2.422   6.869   4.359 -0.6705  0.0844 -0.0275
11920SOL     OW37527   2.562   6.267   8.968  0.5656 -0.3206 -0.0411
11920SOL    HW137528   2.615   6.201   8.924 -1.0385 -0.9459 -1.1071
11920SOL    HW237529   2.517   6.220   9.039  0.9686  0.0836  0.4970
11921SOL     OW37530   8.723   4.004   1.322 -0.1425  0.0161  0.7365
11921SOL    HW137531   8.795   4.018   1.384  0.6536 -1.4694  0.1986
11921SOL    HW237532   8.765   3.999   1.236 -1.0022  0.0420  0.3003
11922SOL     OW37533   0.096   0.305   4.789 -0.2318  0.3595 -0.5821
11922SOL    HW137534   0.001   0.312   4.773 -0.2479 -0.1751 -0.7414
11922SOL    HW237535   0.134   0.378   4.739 -0.4275 -0.3496 -1.7985
11923SOL     OW37536   1.083   3.998   4.238 -0.0961  0.1396  0.1828
11923SOL    HW137537   1.172   3.991   4.274 -0.0640  1.5199  0.4196
11923SOL    HW237538   1.028   3.955   4.303  0.4259 -1.1180 -0.1726
11924SOL     OW37539   8.720   5.714   7.080  0.0932  0.4150  0.1994
11924SOL    HW137540   8.705   5.808   7.065 -1.2004  0.2845  0.5666
11924SOL    HW237541   8.784   5.689   7.013  1.9383  1.9519  1.2761
11925SOL     OW37542   7.758   3.590   4.311  0.6841  0.0684 -0.1912
11925SOL    HW137543   7.811   3.578   4.390 -0.8660 -1.0482  0.7553
11925SOL    HW237544   7.728   3.680   4.315 -3.2683 -1.1011  3.2311
11926SOL     OW37545   2.470   4.530   5.375 -0.4193  0.2348  0.2557
11926SOL    HW137546   2.476   4.470   5.301  1.7818  0.0445  0.5286
11926SOL    HW237547   2.464   4.617   5.335  0.2087  0.0921 -0.1570
11927SOL     OW37548   4.232   1.376   5.479  0.3136 -1.1537  0.1222
11927SOL    HW137549   4.177   1.446   5.443  0.5642 -0.4202  1.1146
11927SOL    HW237550   4.182   1.296   5.466  0.4153 -0.9591 -1.9164
11928SOL     OW37551   3.844   2.147   7.455  0.0015  0.1789  0.2813
11928SOL    HW137552   3.826   2.103   7.537 -0.6785  0.1449  0.1158
11928SOL    HW237553   3.766   2.133   7.401  0.9947 -1.0308 -0.9152
11929SOL     OW37554   4.403   5.847   4.310 -0.4728 -0.1667  0.2514
11929SOL    HW137555   4.343   5.918   4.288  0.0723  0.6367  1.2684
11929SOL    HW237556   4.372   5.772   4.259 -1.0567  0.7964 -0.8356
11930SOL     OW37557   6.469   1.458   4.371  0.1848  0.5520 -0.3847
11930SOL    HW137558   6.395   1.399   4.387  0.0828  0.7132 -0.2562
11930SOL    HW237559   6.528   1.443   4.445  1.0186 -0.7008 -1.2704
11931SOL     OW37560   7.403   0.593   1.299  0.0307 -0.1104 -0.3398
11931SOL    HW137561   7.383   0.686   1.312 -1.2091 -0.4882  0.6277
11931SOL    HW237562   7.348   0.548   1.363  1.4439 -1.4497 -0.0193
11932SOL     OW37563   3.197   4.250   2.256  0.4824  0.4470  0.5469
11932SOL    HW137564   3.195   4.339   2.222 -1.9111 -0.2577 -1.4328
11932SOL    HW237565   3.221   4.196   2.181  1.8630 -0.6487  1.7060
11933SOL     OW37566   5.556   4.727   9.846 -0.0697 -0.2885  0.2522
11933SOL    HW137567   5.492   4.674   9.894 -1.1514  0.3446 -0.4349
11933SOL    HW237568   5.640   4.684   9.862 -0.5945 -0.8894  1.5559
11934SOL     OW37569   2.055   3.234   3.382  0.5237 -0.0015 -0.1952
11934SOL    HW137570   2.065   3.262   3.291 -0.2830  0.2104 -0.2260
11934SOL    HW237571   1.961   3.245   3.400  0.5622 -0.6770  0.4522
11935SOL     OW37572   0.463   1.701   6.283 -0.2151 -0.4146  0.1640
11935SOL    HW137573   0.435   1.611   6.268  0.9010 -0.7167 -0.1391
11935SOL    HW237574   0.416   1.727   6.363 -0.0221 -1.4921  0.6452
11936SOL     OW37575   7.567   5.083   3.264 -0.1875 -0.1208 -0.1352
11936SOL    HW137576   7.555   5.169   3.223 -0.1254 -0.0295  0.0365
11936SOL    HW237577   7.641   5.095   3.323 -1.1621  0.1365  1.0719
11937SOL     OW37578   0.035   5.160   2.234 -0.0285 -0.3084  0.0459
11937SOL    HW137579   0.013   5.252   2.246 -0.3425 -0.5474  1.4125
11937SOL    HW237580   0.006   5.140   2.145  2.8567  1.6822 -1.5157
11938SOL     OW37581   8.562   0.018   5.650 -0.0437  0.0250 -0.1003
11938SOL    HW137582   8.568   0.104   5.610 -0.6948  0.0888 -0.0657
11938SOL    HW237583   8.609   0.027   5.734  0.9334  0.0051 -0.6315
11939SOL     OW37584   3.784   2.469   3.297 -0.0690 -0.1641  1.1246
11939SOL    HW137585   3.839   2.391   3.292 -1.5427 -1.1947  0.1464
11939SOL    HW237586   3.695   2.435   3.307 -0.5511  1.4493  2.8355
11940SOL     OW37587   2.039   8.544   1.019  0.3058 -0.1419  0.7488
11940SOL    HW137588   2.003   8.547   1.107 -1.9272 -1.7945 -0.0253
11940SOL    HW237589   2.020   8.630   0.982 -0.0170  0.0709  1.4054
11941SOL     OW37590   7.008   3.919   7.348  0.0655 -0.2293 -0.8012
11941SOL    HW137591   7.003   4.010   7.318  2.2015 -0.3270 -1.6790
11941SOL    HW237592   6.980   3.922   7.439 -0.4563  1.2061 -0.9749
11942SOL     OW37593   9.369   1.768   4.850 -0.5294 -0.0598 -0.2919
11942SOL    HW137594   9.304   1.838   4.841  0.7556  1.1533 -0.3018
11942SOL    HW237595   9.410   1.785   4.935 -0.0478 -0.6744 -0.3993
11943SOL     OW37596   0.547   4.304   3.766 -0.2802 -0.4245  0.3527
11943SOL    HW137597   0.580   4.279   3.853  1.9330 -0.4849 -0.4508
11943SOL    HW237598   0.485   4.375   3.784  0.9442  0.3236  1.9462
11944SOL     OW37599   1.806   1.977   2.698  0.3069  0.3277  0.3568
11944SOL    HW137600   1.882   2.030   2.721  1.0098 -0.2041 -0.7052
11944SOL    HW237601   1.742   1.998   2.766 -0.0158  3.6607 -0.7720
11945SOL     OW37602   5.427   2.024   1.946 -0.3565 -0.2296 -0.1865
11945SOL    HW137603   5.460   2.086   1.881  0.3957 -0.6234 -0.1895
11945SOL    HW237604   5.334   2.015   1.926 -0.3695  0.5289 -0.4841
11946SOL     OW37605   6.060   7.622   5.258 -0.0182  0.3437  0.2380
11946SOL    HW137606   6.038   7.674   5.181  0.1757  0.0586 -0.0129
11946SOL    HW237607   6.038   7.532   5.234  0.4652  0.1901  0.3428
11947SOL     OW37608   8.878   7.335   8.734 -0.6575  0.7006  0.2369
11947SOL    HW137609   8.944   7.361   8.669  0.3826 -0.7671  0.6402
11947SOL    HW237610   8.875   7.407   8.796  0.1999  1.0142 -0.0720
11948SOL     OW37611   4.233   9.588   6.901 -0.0129  0.1354 -0.3268
11948SOL    HW137612   4.218   9.494   6.894  2.1193 -0.2240 -0.7356
11948SOL    HW237613   4.162   9.620   6.957  0.3453 -2.0279  1.4888
11949SOL     OW37614   8.806   1.418   6.500 -0.0998 -0.6850  0.0143
11949SOL    HW137615   8.884   1.472   6.512 -0.2078 -0.2629 -1.0455
11949SOL    HW237616   8.733   1.480   6.502 -0.4598 -1.1133  1.3401
11950SOL     OW37617   5.432   8.987   7.310 -0.4337 -0.0751 -0.0731
11950SOL    HW137618   5.365   9.046   7.275 -1.6125 -1.4125 -0.1692
11950SOL    HW237619   5.443   8.920   7.243  0.0281 -0.6095  0.5236
11951SOL     OW37620   7.353   1.065   8.519  0.2281  0.0976 -0.1531
11951SOL    HW137621   7.354   0.976   8.484  1.2087 -0.5720  1.4838
11951SOL    HW237622   7.416   1.113   8.465 -1.1170  0.1381 -1.7609
11952SOL     OW37623   6.087   8.248   1.278 -0.2488 -0.1808  0.2037
11952SOL    HW137624   6.028   8.306   1.228 -1.4811 -0.7673  0.9406
11952SOL    HW237625   6.091   8.288   1.365  1.4733  0.5434 -0.1814
11953SOL     OW37626   7.287   1.531   3.170  0.2936  0.5538  0.2786
11953SOL    HW137627   7.325   1.494   3.249  0.1606  0.6946  0.4098
11953SOL    HW237628   7.258   1.456   3.119 -1.3457  0.4921  1.2219
11954SOL     OW37629   9.146   2.218   9.090  0.1856  0.3471  0.3342
11954SOL    HW137630   9.093   2.227   9.169  0.9767 -0.2212  0.9381
11954SOL    HW237631   9.236   2.236   9.118  0.5470 -0.3639 -0.3274
11955SOL     OW37632   8.750   8.383   6.508  0.0134  0.2863  0.0687
11955SOL    HW137633   8.671   8.420   6.548 -0.4155 -1.4460  0.9128
11955SOL    HW237634   8.792   8.457   6.465 -1.3623  1.5170  0.7646
11956SOL     OW37635   8.282   5.095   3.790  0.0516 -0.2897 -0.1715
11956SOL    HW137636   8.262   5.109   3.882  0.4449  0.9701 -0.2532
11956SOL    HW237637   8.377   5.096   3.785  0.2237  4.6446 -1.1336
11957SOL     OW37638   2.123   8.100   2.951 -0.2351 -0.2859  0.3531
11957SOL    HW137639   2.144   8.008   2.934  2.4468  0.1924  0.5613
11957SOL    HW237640   2.028   8.104   2.950 -0.5637 -3.5713  3.0136
11958SOL     OW37641   3.635   4.549   9.393  0.0465 -0.0770 -0.4488
11958SOL    HW137642   3.557   4.494   9.387  0.5413 -1.0325  1.2989
11958SOL    HW237643   3.679   4.537   9.308  0.0594 -2.2907 -0.1829
11959SOL     OW37644   8.910   9.514   7.476 -0.0899  0.0637 -0.4879
11959SOL    HW137645   8.987   9.473   7.514  0.2840  1.7487  0.6776
11959SOL    HW237646   8.945   9.580   7.416 -0.6760 -1.0353 -2.1129
11960SOL     OW37647   4.700   7.847   0.474  0.0635  0.1866 -0.4508
11960SOL    HW137648   4.721   7.771   0.528  1.4248  1.3226  0.6926
11960SOL    HW237649   4.637   7.897   0.526 -0.4193  0.1222 -0.9617
11961SOL     OW37650   8.438   1.242   4.669 -0.0346  0.1815  0.1503
11961SOL    HW137651   8.443   1.195   4.586 -0.9161  0.5538 -0.1297
11961SOL    HW237652   8.440   1.173   4.736  1.4306 -0.0785 -0.1307
11962SOL     OW37653   5.761   1.586   5.168  0.4036 -0.4915  0.3303
11962SOL    HW137654   5.745   1.643   5.242  0.9010  2.5037 -1.7117
11962SOL    HW237655   5.674   1.571   5.130  0.5616  1.9863 -1.1727
11963SOL     OW37656   5.165   1.273   5.505 -0.9923 -0.6981  0.8207
11963SOL    HW137657   5.168   1.353   5.452  0.9814 -0.5872  1.0163
11963SOL    HW237658   5.075   1.267   5.535 -1.4226  0.8959 -0.0529
11964SOL     OW37659   9.607   5.294   3.393 -0.7987 -0.0812 -0.4610
11964SOL    HW137660   9.523   5.283   3.437 -1.2624  1.4476 -0.9003
11964SOL    HW237661   9.614   5.217   3.337 -0.8219 -1.3763  1.2328
11965SOL     OW37662   8.300   6.118   7.698  0.3196  0.0179 -0.2002
11965SOL    HW137663   8.310   6.086   7.787 -0.2302  0.6025  0.0777
11965SOL    HW237664   8.276   6.210   7.707 -0.1498 -0.0191 -0.9332
11966SOL     OW37665   5.184   7.237   2.609  0.4761  0.1834  0.5329
11966SOL    HW137666   5.153   7.279   2.529  2.2041  3.0095  1.1941
11966SOL    HW237667   5.274   7.212   2.589  0.6124  0.0608  1.2691
11967SOL     OW37668   6.829   6.509   7.537  0.5067  0.0791 -0.7555
11967SOL    HW137669   6.886   6.437   7.564  1.0109  0.1241 -1.6740
11967SOL    HW237670   6.743   6.468   7.526  0.4807 -0.1033  0.0699
11968SOL     OW37671   8.479   9.394   0.628 -0.1751  0.5178 -0.2966
11968SOL    HW137672   8.553   9.376   0.570 -0.1492  0.9192 -0.3897
11968SOL    HW237673   8.403   9.359   0.583 -0.1572  0.8420 -0.5827
11969SOL     OW37674   8.859   5.049   1.829 -0.0036 -0.0204 -0.2396
11969SOL    HW137675   8.818   5.048   1.742 -0.0083 -0.4657 -0.2334
11969SOL    HW237676   8.866   4.957   1.853 -1.6126  0.1428  0.9977
11970SOL     OW37677   5.535   7.059   8.113 -0.3557  1.4479  0.2565
11970SOL    HW137678   5.510   6.985   8.057  0.2681  0.3949  1.3031
11970SOL    HW237679   5.481   7.131   8.084 -0.2715  0.8557 -1.4911
11971SOL     OW37680   8.205   7.287   6.491 -0.2040 -0.0781 -0.1860
11971SOL    HW137681   8.194   7.305   6.397  0.1061  0.2239 -0.1657
11971SOL    HW237682   8.190   7.372   6.533  0.6774  0.0099 -0.0441
11972SOL     OW37683   8.055   7.026   2.047 -0.3709 -0.0263 -0.2513
11972SOL    HW137684   8.042   7.087   2.119 -0.2632  0.0990 -0.3374
11972SOL    HW237685   8.093   7.080   1.977 -0.8850 -0.0459 -0.5534
11973SOL     OW37686   1.282   0.151   8.790  0.4908 -0.0616 -0.2871
11973SOL    HW137687   1.326   0.146   8.875 -1.6913 -0.6309  0.9028
11973SOL    HW237688   1.291   0.243   8.765  0.4229  0.3312  1.0170
11974SOL     OW37689   3.938   3.505   0.657 -0.4979  0.3371  0.1832
11974SOL    HW137690   3.913   3.563   0.585  0.2876  0.2992 -0.1288
11974SOL    HW237691   3.889   3.538   0.732 -0.2040  1.2957 -0.0331
11975SOL     OW37692   0.670   1.981   1.099 -0.1179  0.0827 -0.0952
11975SOL    HW137693   0.576   1.966   1.092 -0.0187 -0.7681  0.2798
11975SOL    HW237694   0.684   2.066   1.055 -1.1356  0.5312  0.4151
11976SOL     OW37695   4.041   9.477   4.542 -0.3301  0.3587 -0.5453
11976SOL    HW137696   4.097   9.429   4.604 -1.2152 -0.4848 -0.3776
11976SOL    HW237697   3.952   9.455   4.569 -0.7431  1.3524 -1.0732
11977SOL     OW37698   2.165   7.422   7.362  0.2159  0.2272 -0.0277
11977SOL    HW137699   2.178   7.335   7.324 -2.6272  0.7665 -2.5638
11977SOL    HW237700   2.161   7.407   7.456 -0.0354 -2.3632 -0.3863
11978SOL     OW37701   4.726   1.153   2.954 -0.5662 -0.5764  0.0849
11978SOL    HW137702   4.712   1.060   2.972 -0.5554 -0.7623 -0.8434
11978SOL    HW237703   4.822   1.164   2.954 -0.5715 -0.5037  0.4634
11979SOL     OW37704   8.291   7.930   7.467  0.7188  0.3487  0.2552
11979SOL    HW137705   8.301   7.971   7.380  0.8727  0.3329  0.2642
11979SOL    HW237706   8.216   7.974   7.506  0.8700  0.6091  0.2545
11980SOL     OW37707   7.396   4.578   3.860  0.0701  0.0965 -0.0033
11980SOL    HW137708   7.375   4.549   3.949  1.5637 -0.1852  0.2687
11980SOL    HW237709   7.320   4.631   3.834 -0.9470 -0.8398  0.9486
11981SOL     OW37710   2.650   8.477   4.092  0.9007 -0.0368 -0.4934
11981SOL    HW137711   2.655   8.566   4.125 -1.4242  0.3310 -0.9742
11981SOL    HW237712   2.736   8.440   4.109  1.1648  1.5084  1.9338
11982SOL     OW37713   7.417   7.726   1.225 -0.7663 -0.3514 -0.6099
11982SOL    HW137714   7.469   7.767   1.155  1.1050  0.1804  0.9971
11982SOL    HW237715   7.430   7.632   1.212  0.7682 -0.2307 -0.1644
11983SOL     OW37716   5.158   3.022   7.217 -0.4951 -0.3828  0.3785
11983SOL    HW137717   5.125   2.938   7.251 -0.6178 -0.8683 -0.8670
11983SOL    HW237718   5.137   3.019   7.124 -1.5386  1.5541  0.5186
11984SOL     OW37719   2.083   4.993   8.923  0.3059  0.5482  0.2094
11984SOL    HW137720   2.144   4.974   8.852  0.1417 -0.0039  0.2143
11984SOL    HW237721   2.116   4.943   8.997  0.2046  0.7491  0.3921
11985SOL     OW37722   4.582   4.293   8.617 -0.0457  0.9065  0.1700
11985SOL    HW137723   4.489   4.271   8.603  0.5383 -1.2306 -0.7453
11985SOL    HW237724   4.606   4.345   8.540 -0.2391  0.6236 -0.0826
11986SOL     OW37725   2.909   7.618   4.434 -0.0343  0.2361  0.0986
11986SOL    HW137726   2.910   7.713   4.425  1.0046  0.1738 -0.6677
11986SOL    HW237727   2.992   7.589   4.394  0.0138 -0.9287  0.9777
11987SOL     OW37728   2.289   5.382   5.946  0.3785 -0.5185 -0.5738
11987SOL    HW137729   2.257   5.467   5.916 -1.1015 -0.8970 -0.1353
11987SOL    HW237730   2.383   5.384   5.927  0.2910  1.0301 -0.9848
11988SOL     OW37731   1.089   3.874   3.936  0.3520  0.4664 -0.3853
11988SOL    HW137732   1.103   3.858   4.030 -0.2130  0.0187 -0.3735
11988SOL    HW237733   1.010   3.826   3.915  1.2893 -0.6973 -1.4349
11989SOL     OW37734   5.743   0.183   1.153  0.4154 -0.3079  0.1749
11989SOL    HW137735   5.713   0.114   1.212 -0.9311 -0.5359 -0.7152
11989SOL    HW237736   5.679   0.253   1.165 -0.0402 -0.4698 -1.1935
11990SOL     OW37737   2.215   8.456   5.142 -0.3710  0.3947  0.2080
11990SOL    HW137738   2.170   8.456   5.226 -1.5907 -0.1736 -0.4253
11990SOL    HW237739   2.152   8.419   5.081  0.8010  0.0018 -0.8011
11991SOL     OW37740   9.246   9.403   3.979  0.0332  0.0716  0.1978
11991SOL    HW137741   9.210   9.463   3.915 -0.6953  1.4581  1.8302
11991SOL    HW237742   9.180   9.400   4.049  1.7632  0.3908  1.9201
11992SOL     OW37743   7.664   0.776   1.781  0.1471 -0.7368 -0.7287
11992SOL    HW137744   7.598   0.707   1.784 -1.2008  0.4993 -0.8438
11992SOL    HW237745   7.616   0.854   1.754  1.3125  0.6103  0.8809
11993SOL     OW37746   7.263   1.079   6.106 -0.1716 -0.0873  0.1163
11993SOL    HW137747   7.244   0.993   6.143 -0.4348 -0.2742 -0.4414
11993SOL    HW237748   7.304   1.060   6.022  1.1524  0.3220  0.6451
11994SOL     OW37749   6.265   0.179   2.468 -0.0736  0.0537 -0.2815
11994SOL    HW137750   6.199   0.248   2.462  1.2031  1.4147  0.7396
11994SOL    HW237751   6.226   0.104   2.422 -1.6305  1.3295 -1.1124
11995SOL     OW37752   0.330   9.398   4.416 -0.0689 -0.5305  0.1412
11995SOL    HW137753   0.274   9.380   4.341 -0.0580 -0.3329  0.0833
11995SOL    HW237754   0.384   9.472   4.387 -0.6259  0.0725  0.6406
11996SOL     OW37755   4.588   2.414   2.982 -0.2017  0.2337  0.0156
11996SOL    HW137756   4.657   2.363   3.024 -0.8239  0.8204  1.8303
11996SOL    HW237757   4.538   2.351   2.931  1.4297 -0.2608 -1.0466
11997SOL     OW37758   8.649   2.865   5.840  0.2220 -0.6150  0.1873
11997SOL    HW137759   8.629   2.882   5.932  0.5736 -1.5322  0.4424
11997SOL    HW237760   8.745   2.858   5.837  0.3078  0.5483 -0.4599
11998SOL     OW37761   1.205   9.558   8.950  0.6387  0.1282 -0.1102
11998SOL    HW137762   1.154   9.633   8.980 -0.0115 -0.5191  0.4527
11998SOL    HW237763   1.141   9.488   8.940  1.5086 -0.9791  1.5310
11999SOL     OW37764   2.146   1.707   3.233  0.1809  0.1786 -0.1143
11999SOL    HW137765   2.167   1.689   3.141  0.5210 -1.4467  0.2613
11999SOL    HW237766   2.053   1.732   3.231  0.0090 -0.4735 -0.8268
12000SOL     OW37767   7.341   1.603   5.740 -0.3658 -0.5211 -0.3724
12000SOL    HW137768   7.303   1.522   5.774 -0.2429  0.2455  1.7449
12000SOL    HW237769   7.433   1.599   5.767 -0.3821  0.3501 -0.1584
12001SOL     OW37770   5.283   6.599   7.604  0.3840 -0.3991  0.4832
12001SOL    HW137771   5.322   6.686   7.613 -0.6812 -0.1321  3.5672
12001SOL    HW237772   5.347   6.541   7.645  1.6539 -1.4048 -2.5779
12002SOL     OW37773   3.695   5.732   7.031  0.3477  0.2175 -0.5311
12002SOL    HW137774   3.697   5.757   7.123  0.0501  0.1303 -0.5002
12002SOL    HW237775   3.768   5.671   7.021  0.3210  0.1531 -0.3334
12003SOL     OW37776   1.737   1.358   5.105 -0.1187  0.3769 -0.3684
12003SOL    HW137777   1.644   1.361   5.083 -0.5358 -2.0677  0.6801
12003SOL    HW237778   1.780   1.334   5.023 -0.5752  0.2526 -0.5773
12004SOL     OW37779   1.084   3.852   1.268  0.3924  0.0173  0.4828
12004SOL    HW137780   1.129   3.767   1.269  0.7568  0.1959 -0.1625
12004SOL    HW237781   1.119   3.897   1.191  0.3708  0.8479  0.9486
12005SOL     OW37782   8.657   3.715   2.774 -0.0341 -0.3623 -0.3260
12005SOL    HW137783   8.703   3.694   2.693 -0.0217 -0.5484 -0.2694
12005SOL    HW237784   8.720   3.768   2.824  0.8958 -2.3048  0.6465
12006SOL     OW37785   2.905   4.972   8.162  0.0013 -0.2885 -0.0329
12006SOL    HW137786   2.914   5.062   8.131  1.1740 -0.1642  0.6321
12006SOL    HW237787   2.879   4.923   8.084  2.8893  0.0078 -1.3155
12007SOL     OW37788   3.293   7.957   4.984 -0.4220 -0.0808  0.0430
12007SOL    HW137789   3.242   7.927   5.060 -0.1769  0.0304  0.2551
12007SOL    HW237790   3.376   7.910   4.990 -0.8404 -0.9535 -0.8222
12008SOL     OW37791   2.947   5.313   8.274 -0.2444 -0.0414 -0.5072
12008SOL    HW137792   2.977   5.240   8.329  1.0313  0.9612  0.1861
12008SOL    HW237793   3.005   5.310   8.198 -0.9548 -0.4445 -1.0380
12009SOL     OW37794   8.480   6.028   3.750  0.2593  0.1297  0.3984
12009SOL    HW137795   8.417   6.068   3.690  1.7960  0.3308 -1.1730
12009SOL    HW237796   8.428   6.002   3.826 -1.4996  1.2902 -0.3426
12010SOL     OW37797   2.247   9.069   6.461 -0.2028  0.2479  0.1642
12010SOL    HW137798   2.177   9.113   6.508  1.1569  0.8653  1.6934
12010SOL    HW237799   2.314   9.136   6.449  0.7769 -0.7064  0.1367
12011SOL     OW37800   0.497   0.152   7.092  0.1471 -0.0072 -0.0849
12011SOL    HW137801   0.580   0.186   7.058 -0.2935  1.0836 -0.1269
12011SOL    HW237802   0.449   0.124   7.014 -0.2061  0.9653 -0.2248
12012SOL     OW37803   4.068   2.634   8.778 -0.7027 -0.5405  0.5034
12012SOL    HW137804   4.030   2.657   8.693 -0.2431 -1.6063 -0.0006
12012SOL    HW237805   4.007   2.571   8.815  0.7887 -2.7209 -0.5697
12013SOL     OW37806   9.736   3.479   5.053  0.6021 -0.2306 -0.1847
12013SOL    HW137807   9.734   3.467   5.148  2.1083 -0.8665 -0.2069
12013SOL    HW237808   9.829   3.471   5.030  0.0055 -3.3992 -2.1130
12014SOL     OW37809   1.110   8.141   5.829 -0.2388 -0.5097 -0.1941
12014SOL    HW137810   1.108   8.233   5.803  2.2210 -0.5914 -0.9219
12014SOL    HW237811   1.118   8.144   5.925  0.8095  0.0967 -0.2797
12015SOL     OW37812   8.423   0.861   6.848  0.2405  0.2737  0.2142
12015SOL    HW137813   8.349   0.910   6.813 -0.2174 -0.9473 -0.5706
12015SOL    HW237814   8.493   0.927   6.857 -0.5694  1.2026 -0.1091
12016SOL     OW37815   4.230   7.936   3.835 -0.3560  0.5631  0.8353
12016SOL    HW137816   4.305   7.960   3.889  0.5003 -0.1547  0.0001
12016SOL    HW237817   4.239   7.842   3.821 -1.6365  0.3889  1.0412
12017SOL     OW37818   4.971   3.800   0.058 -0.3433 -0.0647  0.0475
12017SOL    HW137819   5.019   3.856   0.119  0.5576 -1.9633  1.1874
12017SOL    HW237820   5.016   3.813  -0.026  0.8869 -0.2685  0.6482
12018SOL     OW37821   3.127   9.190   5.064 -0.8747 -0.1951 -0.1308
12018SOL    HW137822   3.059   9.188   5.131  2.9908  1.1666  4.3412
12018SOL    HW237823   3.132   9.099   5.033 -1.4213 -1.5108  3.1786
12019SOL     OW37824   3.115   6.735   9.847 -0.8388  0.2496  0.1185
12019SOL    HW137825   3.152   6.650   9.871 -0.9218 -0.0743 -0.8822
12019SOL    HW237826   3.053   6.754   9.918 -1.1367 -0.7295  0.1374
12020SOL     OW37827   6.360   0.163   1.809 -0.1069 -0.4286 -0.4397
12020SOL    HW137828   6.392   0.107   1.738  0.7802 -0.1649 -0.2686
12020SOL    HW237829   6.303   0.226   1.766 -0.8138 -1.2233 -0.6909
12021SOL     OW37830   0.325   3.146   7.655  0.4470 -0.2676 -0.1573
12021SOL    HW137831   0.393   3.099   7.704  0.1600  1.6808  2.3153
12021SOL    HW237832   0.247   3.141   7.711 -0.4191  0.6156 -1.2387
12022SOL     OW37833   7.673   9.596   9.184 -0.3280 -0.4032 -0.2144
12022SOL    HW137834   7.598   9.649   9.212 -0.6734 -1.3253  0.6393
12022SOL    HW237835   7.748   9.656   9.190 -0.9014  0.3755 -0.5690
12023SOL     OW37836   4.374   2.346   5.161 -0.7618  0.0920  0.3634
12023SOL    HW137837   4.400   2.326   5.071 -0.2446  0.9206  0.3107
12023SOL    HW237838   4.394   2.266   5.210  1.0818  0.3536  0.1382
12024SOL     OW37839   7.502   2.712   3.002 -0.3236  0.1227 -0.2111
12024SOL    HW137840   7.484   2.740   3.091 -0.4188  0.2402 -0.2658
12024SOL    HW237841   7.597   2.704   2.997 -0.2770  0.6518 -0.2565
12025SOL     OW37842   9.368   1.954   3.108 -0.4298 -0.4205  0.2171
12025SOL    HW137843   9.363   2.022   3.175 -1.3496 -1.6786  1.4619
12025SOL    HW237844   9.311   1.986   3.038  0.6152  0.9425 -0.0593
12026SOL     OW37845   6.050   4.916   6.402 -0.8926 -0.2406  0.4070
12026SOL    HW137846   5.966   4.888   6.438 -0.9953 -0.2992  0.1213
12026SOL    HW237847   6.096   4.834   6.383 -0.7351 -0.2077  0.6511
12027SOL     OW37848   8.821   6.862   4.478  0.4258  0.1730  0.2067
12027SOL    HW137849   8.855   6.915   4.406  0.6491 -0.3134 -0.0547
12027SOL    HW237850   8.892   6.803   4.500  0.7115  0.9696  1.5038
12028SOL     OW37851   7.857   6.259   7.596  0.7736 -0.1969 -0.0733
12028SOL    HW137852   7.842   6.169   7.569 -0.1391 -0.3103  0.7744
12028SOL    HW237853   7.849   6.310   7.516 -0.2477 -0.7001 -0.3056
12029SOL     OW37854   5.629   9.054   6.973  0.4010 -0.0593  0.2323
12029SOL    HW137855   5.621   9.137   7.021 -1.2001  0.2120 -0.4380
12029SOL    HW237856   5.582   9.069   6.891 -0.6391 -1.8818  0.4471
12030SOL     OW37857   0.405   4.467   2.781  0.2350 -0.5938  0.6788
12030SOL    HW137858   0.310   4.474   2.772  0.3490  1.2823  0.6452
12030SOL    HW237859   0.418   4.449   2.874 -0.1356 -0.0954  0.8326
12031SOL     OW37860   1.178   7.223   1.002 -0.5503  0.4638  0.3676
12031SOL    HW137861   1.110   7.277   1.043 -0.2453  0.2089  1.2252
12031SOL    HW237862   1.200   7.158   1.068  0.0894  0.1558 -0.1374
12032SOL     OW37863   2.494   9.593   6.677 -0.0855 -0.4414 -0.6072
12032SOL    HW137864   2.450   9.631   6.753  0.2415 -0.8182 -0.2211
12032SOL    HW237865   2.430   9.532   6.641  0.1771 -1.1289  0.0656
12033SOL     OW37866   1.168   6.122   4.382  0.3850  0.3243  0.4155
12033SOL    HW137867   1.175   6.207   4.426  1.0364  0.3303  0.3011
12033SOL    HW237868   1.199   6.138   4.293  0.7063 -0.0814  0.4531
12034SOL     OW37869   5.703   1.802   1.597 -0.0126  0.1372  0.2706
12034SOL    HW137870   5.655   1.829   1.675 -0.4744  0.6979 -0.1994
12034SOL    HW237871   5.718   1.883   1.548  0.2659 -0.2066 -0.2264
12035SOL     OW37872   0.842   7.972   5.488 -0.1061 -0.3305  0.7128
12035SOL    HW137873   0.756   8.009   5.471 -0.7004 -2.2648 -0.8192
12035SOL    HW237874   0.834   7.930   5.574 -0.1320  0.9594  1.3626
12036SOL     OW37875   7.751   1.522   8.638 -0.6849  0.0844 -0.3908
12036SOL    HW137876   7.673   1.481   8.674 -0.6213  0.0512 -0.2886
12036SOL    HW237877   7.823   1.468   8.670 -0.5686  0.4952  0.0606
12037SOL     OW37878   0.649   4.245   4.004  0.7552  0.0282 -0.7693
12037SOL    HW137879   0.634   4.291   4.087 -0.4151  0.6635 -1.3081
12037SOL    HW237880   0.725   4.188   4.021  1.9523  1.7943  0.0513
12038SOL     OW37881   7.229   5.843   0.004  0.3106  0.0367  0.5044
12038SOL    HW137882   7.266   5.762   0.039 -0.8929 -1.4700 -1.4918
12038SOL    HW237883   7.269   5.912   0.056  1.7057 -1.8010  2.0146
12039SOL     OW37884   4.859   0.915   4.416  1.0856 -0.2906 -0.1180
12039SOL    HW137885   4.873   0.826   4.451  0.7126 -0.0339  0.7130
12039SOL    HW237886   4.770   0.937   4.442  2.0701  1.4133  2.1746
12040SOL     OW37887   1.948   5.931   5.255  0.2476 -0.7487 -0.1528
12040SOL    HW137888   2.016   5.982   5.299 -3.1841  2.0739  2.4408
12040SOL    HW237889   1.978   5.840   5.263  3.8641  0.3098  0.3043
12041SOL     OW37890   1.543   3.539   4.282 -0.4889 -0.2903  0.4356
12041SOL    HW137891   1.594   3.613   4.251 -1.8948  0.5585  0.0310
12041SOL    HW237892   1.580   3.518   4.368 -1.7303  2.6838  1.8357
12042SOL     OW37893   3.879   8.496   1.415 -0.5492 -0.6064 -0.1151
12042SOL    HW137894   3.901   8.511   1.506  0.4907  1.7734 -0.6712
12042SOL    HW237895   3.783   8.504   1.411 -0.4925  0.7265  0.5868
12043SOL     OW37896   3.323   3.071   5.740  0.1488 -0.1056  0.2490
12043SOL    HW137897   3.282   3.157   5.756 -1.6703 -0.8947  0.0861
12043SOL    HW237898   3.274   3.035   5.667  1.4150 -0.9813 -0.1845
12044SOL     OW37899   6.054   7.063   9.099  0.4246 -0.1227 -0.1427
12044SOL    HW137900   5.986   7.110   9.051  1.1465  1.0475 -0.0441
12044SOL    HW237901   6.120   7.042   9.033  0.8584  0.4389  0.1025
12045SOL     OW37902   2.904   7.563   9.304 -0.0605 -0.3626  0.1924
12045SOL    HW137903   2.984   7.522   9.335 -0.1024  0.4168  1.3971
12045SOL    HW237904   2.924   7.590   9.214  1.7539  1.6238  1.1187
12046SOL     OW37905   6.094   4.649   4.229 -0.2847  0.5568 -0.1619
12046SOL    HW137906   6.180   4.623   4.262 -0.8088 -1.0935  0.0061
12046SOL    HW237907   6.087   4.742   4.250  0.6146  0.2521  1.7103
12047SOL     OW37908   8.420   7.659   0.503  0.1342  0.0234  0.5712
12047SOL    HW137909   8.396   7.659   0.596 -0.3814  0.3370  0.4462
12047SOL    HW237910   8.455   7.747   0.488  0.2332 -0.0327  0.4751
12048SOL     OW37911   1.645   1.464   8.284 -0.2354  0.1259  0.2973
12048SOL    HW137912   1.584   1.479   8.357  0.3831 -0.6706  0.9977
12048SOL    HW237913   1.603   1.506   8.209 -1.8885 -0.7639  0.6535
12049SOL     OW37914   4.790   8.575   2.066 -0.6375 -0.0726 -0.6397
12049SOL    HW137915   4.774   8.651   2.010 -0.7347  0.6368  0.3332
12049SOL    HW237916   4.780   8.500   2.007 -2.6799  0.5486 -1.1685
12050SOL     OW37917   9.564   7.573   2.727 -0.3364  0.4036 -0.1610
12050SOL    HW137918   9.576   7.479   2.721 -0.7401  0.3386  0.0427
12050SOL    HW237919   9.532   7.588   2.816  0.1809  0.7815 -0.0350
12051SOL     OW37920   3.119   1.993   3.894 -0.1596  0.1854  0.0333
12051SOL    HW137921   3.127   1.913   3.947  0.0545  1.4494  2.0051
12051SOL    HW237922   3.039   2.034   3.925 -0.6824  0.3949 -1.5085
12052SOL     OW37923   8.125   2.210   0.387 -0.2717 -0.7703  0.7492
12052SOL    HW137924   8.165   2.129   0.355 -1.5619 -1.1231 -0.0908
12052SOL    HW237925   8.063   2.181   0.454 -0.2874 -0.4180  0.8877
12053SOL     OW37926   0.289   2.634   9.273  0.0641 -0.1986  0.5711
12053SOL    HW137927   0.357   2.575   9.306  0.5838  0.4907  0.7576
12053SOL    HW237928   0.219   2.576   9.243  0.1250 -0.8862  1.7099
12054SOL     OW37929   5.429   9.129   3.768 -0.4036  0.1633 -0.4836
12054SOL    HW137930   5.399   9.111   3.857  1.0990 -0.6403 -0.0975
12054SOL    HW237931   5.350   9.120   3.714 -1.4724  1.2802  0.8060
12055SOL     OW37932   3.799   0.528   7.419 -0.2542  0.1298  0.6174
12055SOL    HW137933   3.807   0.570   7.333  3.0113  1.0623  1.2383
12055SOL    HW237934   3.785   0.435   7.398 -0.6308  0.4884 -0.8867
12056SOL     OW37935   8.107   5.182   6.968  0.1006  0.0038 -0.0395
12056SOL    HW137936   8.182   5.231   7.002 -1.6078  2.1512  0.9524
12056SOL    HW237937   8.127   5.167   6.876  2.5650 -1.2691  0.6368
12057SOL     OW37938   5.142   7.397   4.856 -0.4663 -0.4478 -0.4694
12057SOL    HW137939   5.226   7.409   4.811  0.2039  0.1333  0.8466
12057SOL    HW237940   5.077   7.399   4.786  0.4652  1.0056 -1.3755
12058SOL     OW37941   4.468   9.838   6.266  0.2717  0.0264  0.1415
12058SOL    HW137942   4.479   9.792   6.183  0.7244  1.6167 -0.7191
12058SOL    HW237943   4.406   9.784   6.315  1.8994 -2.2973 -0.1703
12059SOL     OW37944   3.768   1.147   4.779  0.2795  0.6430  0.5803
12059SOL    HW137945   3.836   1.108   4.834 -0.6748  0.1859  1.4714
12059SOL    HW237946   3.733   1.073   4.729 -0.3779  0.6416  1.0278
12060SOL     OW37947   6.228   5.278   5.258  0.2653 -0.1553  0.2836
12060SOL    HW137948   6.270   5.282   5.172  1.6846 -0.9708  0.8962
12060SOL    HW237949   6.138   5.307   5.243  0.3970 -0.5736 -1.5243
12061SOL     OW37950   0.052   6.400   4.401  0.0597  0.4743 -0.4754
12061SOL    HW137951   0.143   6.390   4.374  0.5513  0.7020  1.0165
12061SOL    HW237952   0.002   6.392   4.319  1.4678  1.3568 -1.4676
12062SOL     OW37953   2.014   2.075   6.560  0.4920 -0.2505 -0.1641
12062SOL    HW137954   1.941   2.136   6.569  0.8268 -0.1005  2.3378
12062SOL    HW237955   1.992   2.022   6.484 -2.0808 -0.0253  0.3237
12063SOL     OW37956   5.577   7.092   0.836 -0.1820  0.2146  0.2012
12063SOL    HW137957   5.486   7.094   0.808  0.1734  1.9595 -0.9679
12063SOL    HW237958   5.582   7.156   0.907 -0.0814 -0.7009  1.0373
12064SOL     OW37959   2.649   4.809   2.961 -0.3886  0.1831  0.0473
12064SOL    HW137960   2.581   4.756   3.002  0.6331 -0.2874  1.1696
12064SOL    HW237961   2.652   4.890   3.012 -1.4503  1.0767 -1.2240
12065SOL     OW37962   0.075   0.151   0.008 -0.1403 -0.1172 -0.3634
12065SOL    HW137963   0.090   0.245  -0.003  1.0627  0.0539  2.0582
12065SOL    HW237964  -0.015   0.137  -0.019 -0.6650  1.9294  0.2212
12066SOL     OW37965   4.503   3.076   5.320  0.2971  0.6055 -0.1059
12066SOL    HW137966   4.431   3.014   5.305  0.1436  0.8844 -0.5215
12066SOL    HW237967   4.538   3.094   5.233 -1.3086  3.0887 -0.3275
12067SOL     OW37968   2.054   0.054   8.077  0.6507  0.2298  0.0474
12067SOL    HW137969   2.080   0.142   8.052  2.0201 -0.2909 -0.4445
12067SOL    HW237970   2.120   0.027   8.141  1.4534 -1.1639 -1.3001
12068SOL     OW37971   9.654   4.272   6.008 -0.1163 -0.1068  0.0049
12068SOL    HW137972   9.624   4.293   6.097 -0.4213  1.5750 -0.4594
12068SOL    HW237973   9.576   4.240   5.963 -0.0321 -0.6484  0.2297
12069SOL     OW37974   1.906   4.633   1.706  0.0727 -0.1550  0.4880
12069SOL    HW137975   2.001   4.634   1.721  0.2614 -0.9574 -0.5416
12069SOL    HW237976   1.889   4.713   1.656  0.3636 -0.4810 -0.1469
12070SOL     OW37977   6.305   7.529   9.518  0.0625  0.3069 -0.1868
12070SOL    HW137978   6.359   7.595   9.562 -0.1010  0.8725 -0.8133
12070SOL    HW237979   6.357   7.500   9.444  0.3938 -0.7463  0.4422
12071SOL     OW37980   6.839   0.211   3.405 -0.2518 -0.5020  0.1249
12071SOL    HW137981   6.776   0.248   3.467 -0.9449  0.8512 -1.3022
12071SOL    HW237982   6.836   0.117   3.420 -2.1665 -0.4138  0.5155
12072SOL     OW37983   6.593   6.040   2.467  0.2951  0.8386  0.0648
12072SOL    HW137984   6.544   6.114   2.431 -0.8818  0.0763  0.0593
12072SOL    HW237985   6.527   5.985   2.510  0.7921 -1.2611 -1.6559
12073SOL     OW37986   0.335   7.509   0.115  0.2106 -0.0549 -0.0772
12073SOL    HW137987   0.412   7.515   0.171  1.5521 -0.9859 -1.7230
12073SOL    HW237988   0.343   7.583   0.055 -0.1653 -0.1764 -0.2815
12074SOL     OW37989   5.797   1.137   5.129 -0.1369  0.4271  0.2986
12074SOL    HW137990   5.738   1.162   5.058 -1.9522 -1.4645  1.0554
12074SOL    HW237991   5.861   1.209   5.133 -0.9485  1.3864 -2.1126
12075SOL     OW37992   3.751   1.674   6.473 -0.3363 -0.4542 -0.1588
12075SOL    HW137993   3.763   1.579   6.479 -0.6381 -0.4123  1.3207
12075SOL    HW237994   3.773   1.695   6.382  0.4154 -1.8398 -0.3168
12076SOL     OW37995   4.344   7.649   5.727  0.6406 -0.2569  0.0095
12076SOL    HW137996   4.295   7.574   5.761 -2.4305  0.7586 -1.7806
12076SOL    HW237997   4.358   7.706   5.803  1.3750 -1.7440  1.0357
12077SOL     OW37998   4.754   3.403   9.005 -0.0588  0.2265  0.0785
12077SOL    HW137999   4.752   3.396   9.101 -0.7492  1.9626  0.2410
12077SOL    HW238000   4.744   3.497   8.988 -1.1364 -0.1553 -1.7189
12078SOL     OW38001   7.277   6.595   0.054  0.1249  0.2956 -0.2958
12078SOL    HW138002   7.367   6.576   0.081  0.0140  0.4444  0.1922
12078SOL    HW238003   7.281   6.598  -0.042  0.6940  0.5579 -0.2711
12079SOL     OW38004   2.902   3.714   4.981 -0.1062 -0.5564 -0.1731
12079SOL    HW138005   2.958   3.745   4.910  0.8521  0.6510  1.0518
12079SOL    HW238006   2.854   3.793   5.009  0.6693 -0.6301  1.4984
12080SOL     OW38007   6.457   6.237   7.060 -0.0475  0.2349 -0.4021
12080SOL    HW138008   6.523   6.274   7.002 -0.8362  1.9742 -0.2671
12080SOL    HW238009   6.455   6.297   7.135 -1.0795 -0.3326  0.0510
12081SOL     OW38010   6.306   6.409   5.102  1.0142 -0.1511 -0.4626
12081SOL    HW138011   6.272   6.324   5.074  0.6609  0.0556 -0.6739
12081SOL    HW238012   6.381   6.425   5.044  0.3831  0.2014 -1.2032
12082SOL     OW38013   9.376   1.474   8.707 -0.1336  0.5518 -0.0630
12082SOL    HW138014   9.384   1.543   8.772  1.6606 -0.1318  0.5170
12082SOL    HW238015   9.360   1.394   8.758  1.9781 -0.1074 -0.3129
12083SOL     OW38016   0.244   9.844   2.075 -0.1146  0.5716 -0.5555
12083SOL    HW138017   0.191   9.903   2.129 -0.1594 -0.1162  0.1637
12083SOL    HW238018   0.330   9.886   2.072  0.4422 -0.2598  1.6265
12084SOL     OW38019   4.269   4.216   3.416  0.2635  0.3607  0.4271
12084SOL    HW138020   4.228   4.246   3.335  1.4170 -1.2111 -0.8146
12084SOL    HW238021   4.324   4.289   3.443  0.0561  0.8264 -0.3543
12085SOL     OW38022   3.154   3.180   8.939  0.2846  0.6272  0.1965
12085SOL    HW138023   3.087   3.151   9.001  0.1035  0.5265 -0.0461
12085SOL    HW238024   3.220   3.111   8.942  0.2781  0.6236  0.2765
12086SOL     OW38025   1.927   9.710   1.549  0.3500  1.0915  0.0751
12086SOL    HW138026   1.957   9.759   1.473 -0.5032  1.0831 -0.2709
12086SOL    HW238027   1.854   9.761   1.585 -0.5674  0.0886 -0.3035
12087SOL     OW38028   5.351   7.004   9.006  0.2358  0.0709  0.8151
12087SOL    HW138029   5.311   7.007   8.919 -1.2029  2.4704  1.4613
12087SOL    HW238030   5.296   6.943   9.055  1.0159 -1.2457  0.1124
12088SOL     OW38031   3.144   2.347   5.197 -0.1186 -0.0674 -0.3221
12088SOL    HW138032   3.174   2.425   5.151 -0.2208  0.5723  0.6696
12088SOL    HW238033   3.120   2.286   5.127  0.4144  0.6068 -1.1103
12089SOL     OW38034   1.297   0.068   4.756  0.0635  0.1545 -0.0320
12089SOL    HW138035   1.223   0.025   4.713 -0.1326  0.9575 -0.5231
12089SOL    HW238036   1.259   0.146   4.797  0.6407  0.5901 -0.3132
12090SOL     OW38037   7.066   2.632   2.693  0.1677  0.5544  0.0096
12090SOL    HW138038   7.003   2.704   2.700 -0.9415 -0.3756 -0.0433
12090SOL    HW238039   7.012   2.556   2.673  1.6194  0.3469 -3.9519
12091SOL     OW38040   1.326   2.607   8.516 -0.1569 -0.0388  0.8894
12091SOL    HW138041   1.401   2.605   8.457 -1.2982  0.1036 -0.6210
12091SOL    HW238042   1.261   2.549   8.475 -1.5761  1.2864  1.1608
12092SOL     OW38043   8.965   6.005   1.580  0.2694  0.2563  0.6656
12092SOL    HW138044   9.008   5.930   1.540  3.0016  2.0006  0.0757
12092SOL    HW238045   8.970   5.989   1.674 -0.1199 -0.7418  0.5269
12093SOL     OW38046   3.684   4.695   2.689  0.2256  0.3075 -0.2996
12093SOL    HW138047   3.609   4.754   2.702  0.5302  0.3083  1.7487
12093SOL    HW238048   3.646   4.616   2.652 -0.5592  0.8748 -0.7396
12094SOL     OW38049   7.810   3.169   7.030  0.4230 -0.0576  0.3293
12094SOL    HW138050   7.787   3.214   6.949  0.3228 -1.2079 -0.2999
12094SOL    HW238051   7.879   3.222   7.069 -0.4900  1.2621  0.2122
12095SOL     OW38052   5.462   7.147   9.339  0.1236  0.3501  0.0938
12095SOL    HW138053   5.545   7.103   9.322 -0.5317 -1.5910  1.5394
12095SOL    HW238054   5.433   7.180   9.253  1.9112  0.2770 -0.5697
12096SOL     OW38055   1.832   4.213   4.619 -0.5124  0.4563  0.2076
12096SOL    HW138056   1.766   4.155   4.582  1.7510 -1.5953 -0.9616
12096SOL    HW238057   1.843   4.182   4.710  0.9436 -1.3939 -0.5104
12097SOL     OW38058   4.099   0.838   6.157  0.0255 -0.5786  0.1482
12097SOL    HW138059   4.018   0.873   6.119 -0.9425 -1.1384  1.5857
12097SOL    HW238060   4.162   0.841   6.085 -0.8265  1.2847 -0.6026
12098SOL     OW38061   5.688   9.572   4.087 -0.9299  0.0162 -0.5756
12098SOL    HW138062   5.660   9.660   4.062  0.9415  0.4758 -1.2653
12098SOL    HW238063   5.767   9.586   4.138 -0.1803 -1.2787 -1.3140
12099SOL     OW38064   3.075   0.756   0.764  0.6913 -0.3326  0.4053
12099SOL    HW138065   3.139   0.730   0.830  0.6723 -0.4068  0.3940
12099SOL    HW238066   3.033   0.834   0.801 -0.1209 -1.0334  0.9996
12100SOL     OW38067   9.633   9.295   3.250 -0.2026 -0.3466  0.1258
12100SOL    HW138068   9.560   9.348   3.283  0.1189  0.0534  0.2004
12100SOL    HW238069   9.711   9.334   3.289 -0.0025 -1.2265  0.6420
12101SOL     OW38070   7.399   2.887   0.450  0.4187 -0.1164 -0.4497
12101SOL    HW138071   7.435   2.954   0.392  2.1294 -0.3066  0.3477
12101SOL    HW238072   7.404   2.806   0.399  0.2178  0.0188 -0.6864
12102SOL     OW38073   5.784   3.187   5.583 -0.0095  0.2266  0.5127
12102SOL    HW138074   5.841   3.245   5.532  1.0121 -0.7014  0.5559
12102SOL    HW238075   5.748   3.127   5.518 -0.0268  0.0864  0.6524
12103SOL     OW38076   1.466   9.463   5.024  0.8119  0.5980  0.5234
12103SOL    HW138077   1.484   9.380   4.979  3.0126  1.3610 -0.1290
12103SOL    HW238078   1.411   9.512   4.963  0.9780  0.3228  0.1493
12104SOL     OW38079   1.970   0.234   8.330 -0.8130 -0.0731  0.5819
12104SOL    HW138080   1.934   0.147   8.351  0.6555 -0.6246  0.9122
12104SOL    HW238081   1.895   0.283   8.296 -1.9254 -1.1029  1.4594
12105SOL     OW38082   6.317   7.853   6.213 -0.1328 -0.2714 -0.5085
12105SOL    HW138083   6.397   7.836   6.262 -0.4802  2.1302  1.0950
12105SOL    HW238084   6.341   7.841   6.121  1.7860 -0.5629  0.0003
12106SOL     OW38085   6.945   0.012   6.291 -0.2037 -0.0142  0.1290
12106SOL    HW138086   6.863   0.003   6.339 -0.1579 -0.2786  0.1604
12106SOL    HW238087   7.012   0.022   6.358 -0.2543  0.5793  0.0934
12107SOL     OW38088   1.779   2.607   6.584 -0.1549  0.3012 -0.0198
12107SOL    HW138089   1.692   2.578   6.557  0.0274 -0.3154  0.0191
12107SOL    HW238090   1.779   2.701   6.570 -0.2846  0.1064 -1.5715
12108SOL     OW38091   6.304   2.267   6.110 -0.4921  0.5212  0.3861
12108SOL    HW138092   6.333   2.221   6.031 -0.8176 -0.7038  0.9483
12108SOL    HW238093   6.209   2.255   6.112 -0.3301 -0.9973  1.8312
12109SOL     OW38094   4.922   2.512   3.725  0.1247 -0.2407  0.6640
12109SOL    HW138095   4.992   2.447   3.735 -0.4857 -1.2788 -1.3412
12109SOL    HW238096   4.851   2.479   3.780 -0.2109 -1.3653 -0.3983
12110SOL     OW38097   5.007   0.694   9.328  0.4565 -0.2502 -0.1196
12110SOL    HW138098   5.027   0.780   9.292 -0.8520  0.6618  1.2039
12110SOL    HW238099   4.952   0.653   9.261 -0.4904  0.7203  0.0242
12111SOL     OW38100   7.681   8.996   7.279 -0.0703  0.4462  0.3735
12111SOL    HW138101   7.633   8.968   7.201 -1.1227  0.2518  1.0693
12111SOL    HW238102   7.616   9.042   7.332  1.2873  3.1491 -0.1408
12112SOL     OW38103   7.549   0.600   2.526 -0.2796 -0.3744  0.0255
12112SOL    HW138104   7.553   0.505   2.538  0.7254 -0.2381  0.8749
12112SOL    HW238105   7.595   0.636   2.602 -1.4262  0.8343  0.1909
12113SOL     OW38106   5.617   0.870   8.328 -0.1151 -0.0534  0.0190
12113SOL    HW138107   5.595   0.787   8.285 -0.6648  0.0173  0.1521
12113SOL    HW238108   5.562   0.871   8.407 -1.2847  1.1377 -0.7665
12114SOL     OW38109   0.652   2.064   9.136 -0.9129  0.3134  0.1183
12114SOL    HW138110   0.725   2.124   9.121 -0.5523 -0.1669 -0.0724
12114SOL    HW238111   0.574   2.116   9.117 -0.5420  0.1897 -1.9430
12115SOL     OW38112   8.849   1.031   5.738 -0.1467 -0.1820  0.3045
12115SOL    HW138113   8.899   1.033   5.656 -2.6152  2.4527 -1.3220
12115SOL    HW238114   8.781   0.965   5.722  1.0556 -1.8025  1.4818
12116SOL     OW38115   8.972   3.665   4.890 -0.1493  0.1021 -0.0455
12116SOL    HW138116   8.919   3.601   4.842 -0.5288 -0.5115  1.1385
12116SOL    HW238117   9.027   3.611   4.947 -1.0026  0.8355  1.5144
12117SOL     OW38118   2.489   0.866   8.653 -0.7587  0.0924 -0.3269
12117SOL    HW138119   2.503   0.960   8.643  1.8105 -0.1653  0.2354
12117SOL    HW238120   2.436   0.857   8.732  0.3788  1.0380  0.5805
12118SOL     OW38121   6.495   5.469   7.245  0.0568  0.2738  0.4393
12118SOL    HW138122   6.523   5.555   7.215 -1.3609  0.4029 -0.6286
12118SOL    HW238123   6.540   5.408   7.186  0.9885  0.2716  1.1362
12119SOL     OW38124   1.325   0.652   5.663  0.0013  0.1846  0.0954
12119SOL    HW138125   1.417   0.659   5.691 -0.1154 -1.0746  0.8574
12119SOL    HW238126   1.329   0.645   5.568  0.8198 -1.4618  0.2250
12120SOL     OW38127   6.192   5.454   1.007  0.1426  0.8434  0.2908
12120SOL    HW138128   6.146   5.522   0.958 -1.1757 -0.3982 -0.2771
12120SOL    HW238129   6.186   5.376   0.951  2.6160  0.5049  0.3838
12121SOL     OW38130   7.597   9.705   3.181  0.5266 -0.6025 -0.5719
12121SOL    HW138131   7.530   9.674   3.120  0.6897 -0.5150 -0.7953
12121SOL    HW238132   7.548   9.728   3.260  0.3621 -1.0724 -0.5338
12122SOL     OW38133   1.380   5.004   4.520 -0.1901 -0.1761  0.1292
12122SOL    HW138134   1.423   4.919   4.514 -2.2734 -1.2519 -0.6855
12122SOL    HW238135   1.419   5.045   4.597  0.7927 -1.9155  0.6255
12123SOL     OW38136   4.634   8.775   8.148  0.4210 -0.1543  0.4295
12123SOL    HW138137   4.606   8.793   8.237 -0.0070  0.1054  0.2450
12123SOL    HW238138   4.599   8.848   8.096 -0.6315 -1.0887 -0.2038
12124SOL     OW38139   9.562   2.109   8.151 -0.5229  0.1904  0.0420
12124SOL    HW138140   9.548   2.147   8.238 -0.0776  0.9357 -0.2090
12124SOL    HW238141   9.511   2.164   8.092 -0.7316 -0.2471 -0.1870
12125SOL     OW38142   5.640   1.757   6.498  0.7310 -0.1910 -0.3443
12125SOL    HW138143   5.594   1.747   6.582 -0.5535  0.3982 -0.9504
12125SOL    HW238144   5.573   1.744   6.432  1.6397 -0.2063 -1.2898
12126SOL     OW38145   5.353   5.466   6.270 -0.0980 -0.1476 -0.2601
12126SOL    HW138146   5.331   5.440   6.181 -0.4355 -0.2354 -0.1537
12126SOL    HW238147   5.381   5.557   6.262 -0.9690  0.1203 -0.3369
12127SOL     OW38148   5.813   1.075   5.376  0.1005  0.5768  0.2814
12127SOL    HW138149   5.785   1.103   5.289  1.2392  2.4262  0.4771
12127SOL    HW238150   5.891   1.127   5.395  0.2493 -0.2426  2.1604
12128SOL     OW38151   6.451   6.175   3.766  0.0209  0.4349  0.4849
12128SOL    HW138152   6.541   6.187   3.735 -0.0233 -0.6293 -0.0951
12128SOL    HW238153   6.397   6.198   3.690 -0.1145 -1.2922  0.0253
12129SOL     OW38154   8.742   8.196   0.612 -0.3242  0.2859  0.1567
12129SOL    HW138155   8.696   8.212   0.530  0.6243  0.6502 -0.3182
12129SOL    HW238156   8.688   8.131   0.658 -1.5342  1.0248 -0.1714
12130SOL     OW38157   1.536   0.372   6.392  0.4566 -0.2963 -0.4136
12130SOL    HW138158   1.538   0.300   6.330  2.0963  0.3039 -1.0853
12130SOL    HW238159   1.497   0.445   6.344 -1.6899 -0.8059  0.4193
12131SOL     OW38160   7.014   1.289   1.180  0.3390 -0.0697 -0.3499
12131SOL    HW138161   7.100   1.249   1.180  0.0234 -0.7821  0.4113
12131SOL    HW238162   6.953   1.215   1.175 -0.2968  0.1280  2.7411
12132SOL     OW38163   9.211   5.895   6.645  0.5730  0.3865  1.0202
12132SOL    HW138164   9.171   5.833   6.583  0.4056 -2.2074  3.5145
12132SOL    HW238165   9.141   5.957   6.666  0.2639  0.5485 -0.3957
12133SOL     OW38166   3.624   5.717   2.830  0.9877  0.0040 -0.1476
12133SOL    HW138167   3.701   5.675   2.867  0.0498  0.2956  2.3541
12133SOL    HW238168   3.586   5.766   2.903 -1.2312  0.3546 -1.4419
12134SOL     OW38169   8.049   1.933   6.533 -0.5941  0.5403  0.0695
12134SOL    HW138170   8.036   1.976   6.618  1.3315  2.7259 -0.6123
12134SOL    HW238171   8.139   1.899   6.538  0.0926  1.9666 -1.5167
12135SOL     OW38172   3.250   5.071   2.034 -0.3761 -0.0794 -0.5072
12135SOL    HW138173   3.316   5.053   2.101  1.0013  0.8966 -1.5408
12135SOL    HW238174   3.275   5.156   1.997 -1.9980  0.1370 -1.2049
12136SOL     OW38175   9.322   7.840   6.955 -0.0800  0.3640  0.3601
12136SOL    HW138176   9.379   7.915   6.939  1.2662 -0.9645 -1.5538
12136SOL    HW238177   9.378   7.777   7.000 -0.6967 -0.1260  0.4479
12137SOL     OW38178   0.772   5.612   8.947  0.0923  0.0077 -0.1138
12137SOL    HW138179   0.723   5.650   9.020 -1.2490  0.2069 -1.0623
12137SOL    HW238180   0.808   5.530   8.981  2.6303  1.7999  1.8330
12138SOL     OW38181   0.191   9.099   2.072 -0.1641 -0.1669  0.0256
12138SOL    HW138182   0.239   9.150   2.006  2.1090 -0.3747  1.3948
12138SOL    HW238183   0.182   9.159   2.146 -0.9116 -0.5495  0.2457
12139SOL     OW38184   3.658   7.211   8.906 -1.1012  0.1924  1.2946
12139SOL    HW138185   3.569   7.176   8.907 -1.1364  0.2660  0.9159
12139SOL    HW238186   3.681   7.214   8.813 -0.4139 -0.5678  1.4263
12140SOL     OW38187   7.281   7.760   4.042 -0.8309 -0.2775  0.3620
12140SOL    HW138188   7.365   7.720   4.066  0.9857  0.6395 -3.6635
12140SOL    HW238189   7.300   7.854   4.036 -1.7341 -0.1854 -1.8405
12141SOL     OW38190   4.883   1.509   7.687  0.6137 -0.3810 -0.3701
12141SOL    HW138191   4.882   1.416   7.665 -3.6929 -0.3436 -1.2282
12141SOL    HW238192   4.825   1.517   7.762  0.7324  1.6554 -0.4201
12142SOL     OW38193   9.101   4.985   6.494 -0.3330  0.0747 -0.6380
12142SOL    HW138194   9.142   4.970   6.409 -1.4990  0.4250 -1.2794
12142SOL    HW238195   9.156   4.937   6.556 -0.6458 -1.9581 -1.8595
12143SOL     OW38196   0.200   4.749   7.605  0.0377  0.2437  0.0394
12143SOL    HW138197   0.113   4.787   7.613 -0.1742 -0.2267 -0.0055
12143SOL    HW238198   0.193   4.687   7.532  0.3800  0.1201  0.1087
12144SOL     OW38199   4.307   0.360   3.949 -0.0127  0.0895  0.1579
12144SOL    HW138200   4.223   0.336   3.988  0.8482 -0.8397  1.5306
12144SOL    HW238201   4.315   0.454   3.965 -0.7260  0.1540  0.1564
12145SOL     OW38202   6.435   3.342   3.088  0.3070  0.6478 -0.0870
12145SOL    HW138203   6.424   3.288   3.166 -1.3168  1.3370  0.2056
12145SOL    HW238204   6.499   3.295   3.035 -0.2740 -1.0241  0.6203
12146SOL     OW38205   9.001   4.020   0.974  0.2634 -0.3149 -0.4235
12146SOL    HW138206   9.071   4.064   1.022 -0.2635 -0.8754  0.9084
12146SOL    HW238207   8.925   4.078   0.982  0.4013  0.0207 -1.3800
12147SOL     OW38208   6.732   4.551   6.780 -0.9041  0.3987 -0.0194
12147SOL    HW138209   6.680   4.478   6.746 -2.5898  0.3159  2.4435
12147SOL    HW238210   6.725   4.619   6.713 -0.9264 -0.9892 -1.4782
12148SOL     OW38211   5.295   7.349   6.254 -0.1391  0.2679 -0.2570
12148SOL    HW138212   5.215   7.352   6.306 -0.4906 -0.9061 -0.7060
12148SOL    HW238213   5.264   7.351   6.163  0.3080 -0.6199 -0.4358
12149SOL     OW38214   4.019   2.779   7.820  0.1986  0.4391 -0.1258
12149SOL    HW138215   3.942   2.835   7.831  0.8230  1.3226 -0.1075
12149SOL    HW238216   3.983   2.692   7.804 -0.8137  0.9199 -0.6068
12150SOL     OW38217   9.252   1.620   9.533 -0.4931  0.1251  0.0431
12150SOL    HW138218   9.280   1.532   9.509 -2.0794 -0.6953  1.0558
12150SOL    HW238219   9.289   1.676   9.464 -0.0794 -1.4028 -1.0341
12151SOL     OW38220   1.177   8.343   2.987  0.1689 -0.2552  0.6346
12151SOL    HW138221   1.214   8.257   3.005  0.0524 -0.5773 -0.5594
12151SOL    HW238222   1.205   8.398   3.060 -1.0697 -1.6684  2.2576
12152SOL     OW38223   0.539   0.628   4.464  0.0432  0.8814 -0.0202
12152SOL    HW138224   0.458   0.602   4.419 -0.7044  0.7546  1.3672
12152SOL    HW238225   0.607   0.614   4.398 -0.8973 -0.2379 -0.8068
12153SOL     OW38226   2.495   3.144   6.357  0.8686 -0.0134 -0.0595
12153SOL    HW138227   2.474   3.217   6.300  1.1240  0.5665  0.5669
12153SOL    HW238228   2.452   3.068   6.318 -1.1210  0.8359  0.3811
12154SOL     OW38229   6.698   9.838   4.762 -0.0629 -0.3961  0.0525
12154SOL    HW138230   6.610   9.864   4.736 -0.0433  0.7190  1.0333
12154SOL    HW238231   6.756   9.879   4.698 -0.1236  0.8659  0.7861
12155SOL     OW38232   5.898   2.350   4.062  0.2674 -0.5899 -0.1183
12155SOL    HW138233   5.883   2.257   4.079  1.9879 -0.8376  0.2893
12155SOL    HW238234   5.959   2.352   3.988  2.1003  0.0950  1.3330
12156SOL     OW38235   6.692   2.766   2.243 -0.2782 -0.6768 -0.0660
12156SOL    HW138236   6.693   2.860   2.225 -1.2481 -0.6494 -0.0250
12156SOL    HW238237   6.641   2.728   2.171  0.7577 -1.2798 -0.5099
12157SOL     OW38238   2.751   4.993   0.479 -0.2022 -0.0646  0.1126
12157SOL    HW138239   2.662   4.960   0.465 -0.5342  0.2808  1.2376
12157SOL    HW238240   2.766   4.981   0.573  0.7389  0.3715  0.0300
12158SOL     OW38241   3.413   3.346   8.079  0.0075 -0.4151  0.4874
12158SOL    HW138242   3.401   3.261   8.038  0.2012  0.4417 -1.4690
12158SOL    HW238243   3.351   3.403   8.034 -1.0883  0.2477  2.6668
12159SOL     OW38244   2.711   2.750   6.460 -0.0089 -0.3355 -0.0221
12159SOL    HW138245   2.641   2.779   6.519  0.2923  1.0157 -0.2954
12159SOL    HW238246   2.671   2.753   6.373  0.6830  1.6336 -0.3316
12160SOL     OW38247   8.366   4.519   7.028 -0.1022  0.6154 -0.0894
12160SOL    HW138248   8.417   4.555   7.100  0.3465  0.0274 -0.1089
12160SOL    HW238249   8.406   4.434   7.010 -0.5927  0.4922 -0.6282
12161SOL     OW38250   2.719   5.384   4.650  0.2556  0.5603  0.2395
12161SOL    HW138251   2.765   5.306   4.621  3.1581  1.4856  1.9813
12161SOL    HW238252   2.626   5.363   4.638  0.9962 -2.1477 -1.6575
12162SOL     OW38253   4.381   9.485   6.548 -0.5026 -0.0804 -0.5812
12162SOL    HW138254   4.378   9.409   6.607  1.1870 -0.8654 -1.4376
12162SOL    HW238255   4.324   9.461   6.476  0.6764 -0.9737 -1.2699
12163SOL     OW38256   6.797   6.395   3.865 -0.0626 -0.2311  0.1960
12163SOL    HW138257   6.757   6.481   3.879 -0.3187 -0.4639  0.9734
12163SOL    HW238258   6.891   6.412   3.865 -0.1209  0.0941 -0.0047
12164SOL     OW38259   5.070   9.417   5.370 -0.3835  0.2438 -0.2441
12164SOL    HW138260   4.992   9.363   5.356 -0.2147 -0.5717  1.6432
12164SOL    HW238261   5.070   9.434   5.464  0.6976  1.8431 -0.5038
12165SOL     OW38262   7.793   0.317   9.019 -0.0552  0.6551  0.5808
12165SOL    HW138263   7.869   0.364   9.053 -0.1006  0.2096  1.3115
12165SOL    HW238264   7.824   0.227   9.007 -0.8221  0.1588  2.1374
12166SOL     OW38265   0.098   4.698   7.303 -0.3704  0.2445  0.3131
12166SOL    HW138266   0.122   4.652   7.222  0.0358 -0.9597  1.0819
12166SOL    HW238267   0.104   4.630   7.370  1.6431  1.7371  1.7341
12167SOL     OW38268   1.273   0.736   3.914  0.0686 -0.4782  0.0604
12167SOL    HW138269   1.189   0.690   3.920 -0.2413  0.0965  0.2531
12167SOL    HW238270   1.251   0.821   3.877  0.1136  0.7644  2.6522
12168SOL     OW38271   3.631   3.747   1.659 -0.4863 -0.0455  0.2355
12168SOL    HW138272   3.631   3.740   1.754 -1.9747  0.4819  0.2998
12168SOL    HW238273   3.666   3.835   1.641 -0.3401 -0.0916  0.2917
12169SOL     OW38274   5.371   4.732   7.049  0.7220  0.6106  0.2093
12169SOL    HW138275   5.376   4.656   6.991  0.4729  0.7307  0.0241
12169SOL    HW238276   5.446   4.786   7.025  0.4311  0.8235 -0.2459
12170SOL     OW38277   9.188   2.942   1.417 -0.3579 -0.0378  0.2585
12170SOL    HW138278   9.142   2.953   1.500 -1.5569  2.3978 -0.6187
12170SOL    HW238279   9.280   2.955   1.438 -0.7559  1.8613  1.0687
12171SOL     OW38280   3.121   6.831   1.719  0.1654  0.0348  0.2917
12171SOL    HW138281   3.108   6.847   1.626  1.8597 -0.2175 -0.0184
12171SOL    HW238282   3.136   6.737   1.726 -1.5280 -0.2110  1.0453
12172SOL     OW38283   4.372   7.180   4.172  0.1283 -0.2168  0.0274
12172SOL    HW138284   4.422   7.216   4.245 -0.1874 -1.2405  0.7737
12172SOL    HW238285   4.418   7.099   4.149 -0.9384 -0.9888  0.4922
12173SOL     OW38286   4.030   0.137   4.956  0.5625  0.5721 -0.1334
12173SOL    HW138287   3.966   0.082   5.002  0.2252  1.0272 -0.0548
12173SOL    HW238288   4.051   0.088   4.877 -2.0563  1.6724 -1.6296
12174SOL     OW38289   5.110   7.329   0.545  0.1225  0.6870 -0.2653
12174SOL    HW138290   5.123   7.424   0.547  0.5179  0.7205 -2.2158
12174SOL    HW238291   5.177   7.294   0.603 -0.0759  1.5976  0.5337
12175SOL     OW38292   1.008   4.590   2.406  0.7154 -0.0382  0.6944
12175SOL    HW138293   1.023   4.682   2.425  1.7658 -0.5948  2.8821
12175SOL    HW238294   0.953   4.559   2.478  1.5098 -1.4050  0.7512
12176SOL     OW38295   9.779   5.388   5.509  0.1599 -0.2031  0.1985
12176SOL    HW138296   9.843   5.323   5.539 -0.3386 -0.7215  0.1535
12176SOL    HW238297   9.713   5.390   5.579 -0.3576 -0.5002 -0.2737
12177SOL     OW38298   9.706   3.316   9.012  0.2666  0.0371  0.6427
12177SOL    HW138299   9.672   3.228   8.998 -1.1912  0.9299 -2.1330
12177SOL    HW238300   9.797   3.311   8.984 -0.1021 -0.3807 -0.5383
12178SOL     OW38301   5.542   5.139   5.623 -0.0031  0.0205 -0.2465
12178SOL    HW138302   5.585   5.194   5.688 -0.6510 -0.0094  0.2216
12178SOL    HW238303   5.514   5.062   5.672  0.6789 -0.6217 -0.8423
12179SOL     OW38304   8.532   7.740   3.049 -0.5342  0.1142  0.2932
12179SOL    HW138305   8.485   7.657   3.045  0.9409 -0.7537  0.2200
12179SOL    HW238306   8.553   7.752   3.142  2.6066 -1.6429 -0.0317
12180SOL     OW38307   6.647   1.506   5.283 -0.4729  0.0280  0.3297
12180SOL    HW138308   6.681   1.594   5.264  2.5998 -0.9205  0.8560
12180SOL    HW238309   6.594   1.518   5.362 -0.5899  1.4904  0.0626
12181SOL     OW38310   7.023   6.371   0.815 -0.2079  0.0339 -0.2753
12181SOL    HW138311   6.943   6.330   0.783 -0.5227  0.2635  0.2087
12181SOL    HW238312   7.093   6.312   0.786 -0.5969 -0.4850 -0.1772
12182SOL     OW38313   5.589   6.700   9.215 -0.2381 -0.6809 -0.5027
12182SOL    HW138314   5.644   6.765   9.170 -1.9912  2.3025  1.2912
12182SOL    HW238315   5.509   6.698   9.164 -1.0126  0.3017  0.6157
12183SOL     OW38316   1.860   6.490   0.478  0.4810  0.0718  0.4325
12183SOL    HW138317   1.943   6.503   0.525  0.5735 -3.9792  1.7957
12183SOL    HW238318   1.882   6.431   0.406 -0.9154  0.5153 -0.3922
12184SOL     OW38319   7.750   2.222   8.033  0.6689 -0.0035  0.4294
12184SOL    HW138320   7.749   2.200   7.940 -0.9940 -1.9134  0.8195
12184SOL    HW238321   7.781   2.312   8.036  3.0457 -0.6162 -1.7637
12185SOL     OW38322   0.378   6.633   0.116  0.1480 -0.2980 -0.7666
12185SOL    HW138323   0.344   6.718   0.144  0.5332 -0.8962  1.7282
12185SOL    HW238324   0.310   6.598   0.059 -0.5074  1.1927 -0.9553
12186SOL     OW38325   1.812   6.753   1.376 -0.1908 -0.4803  0.1436
12186SOL    HW138326   1.754   6.677   1.369 -0.6054 -0.2407  0.8252
12186SOL    HW238327   1.828   6.762   1.470 -0.5491  0.5694  0.1158
12187SOL     OW38328   3.207   3.643   5.182 -0.5163 -0.0967  0.1908
12187SOL    HW138329   3.163   3.645   5.097 -0.4633 -0.0797  0.1637
12187SOL    HW238330   3.298   3.664   5.163 -0.6990  0.8847  0.3792
12188SOL     OW38331   3.919   0.289   2.569 -0.1690 -0.4766 -0.4090
12188SOL    HW138332   3.993   0.254   2.618  0.0396  1.4688  0.7701
12188SOL    HW238333   3.850   0.224   2.581  0.3018 -0.7151  1.4119
12189SOL     OW38334   2.161   7.196   6.538  0.4430  0.7059 -0.4949
12189SOL    HW138335   2.130   7.243   6.616  0.3127 -0.6650  0.3065
12189SOL    HW238336   2.254   7.182   6.554  0.5916  1.1156 -0.9680
12190SOL     OW38337   5.090   3.921   5.828  1.0901 -0.1217 -0.1178
12190SOL    HW138338   5.047   3.985   5.885 -1.9663 -0.5784 -1.7280
12190SOL    HW238339   5.052   3.936   5.742  2.4740 -2.2124 -1.1782
12191SOL     OW38340   7.326   2.737   1.606 -0.0206 -0.2277  0.4125
12191SOL    HW138341   7.278   2.717   1.526  0.9878  0.4443 -0.3682
12191SOL    HW238342   7.373   2.656   1.626  0.2696 -0.1769 -0.0595
12192SOL     OW38343   8.852   7.000   5.076  0.0450 -0.1409  0.3026
12192SOL    HW138344   8.893   7.083   5.053 -0.0707  0.0441  0.7444
12192SOL    HW238345   8.918   6.954   5.128 -0.0590 -0.1211  0.4553
12193SOL     OW38346   4.669   4.602   3.473  0.3655 -0.1763 -0.2007
12193SOL    HW138347   4.692   4.532   3.534 -1.4778 -0.6571 -0.0008
12193SOL    HW238348   4.725   4.588   3.398  0.3964 -1.5607  0.0552
12194SOL     OW38349   3.875   5.331   9.792 -0.0045  0.0982  0.6866
12194SOL    HW138350   3.783   5.356   9.782  0.4641  1.7388  0.1909
12194SOL    HW238351   3.895   5.284   9.711  0.6190  3.2711 -1.1863
12195SOL     OW38352   1.317   6.275   2.477  0.2413  0.0858  0.2356
12195SOL    HW138353   1.308   6.273   2.573  0.2086 -0.3130  0.2241
12195SOL    HW238354   1.242   6.328   2.448  0.4923  0.5730  0.4568
12196SOL     OW38355   9.684   3.438   7.759 -0.3485 -0.0686  0.1640
12196SOL    HW138356   9.677   3.530   7.785 -0.3029  0.1736 -0.6442
12196SOL    HW238357   9.683   3.390   7.842  1.2024  0.7366  0.6928
12197SOL     OW38358   0.347   2.961   5.437  0.2420 -0.0525  0.3962
12197SOL    HW138359   0.380   2.958   5.347  0.6784  0.4961  0.5280
12197SOL    HW238360   0.426   2.963   5.491  0.1116  3.1096  0.6725
12198SOL     OW38361   8.499   4.265   9.235 -0.4418  0.3431 -0.1359
12198SOL    HW138362   8.497   4.260   9.140  0.0158 -0.3872 -0.1076
12198SOL    HW238363   8.494   4.359   9.254 -1.1547  0.4627 -0.8549
12199SOL     OW38364   5.628   6.446   9.353  0.2756 -0.5364  0.9884
12199SOL    HW138365   5.711   6.487   9.377 -0.6534  0.4412  2.7740
12199SOL    HW238366   5.581   6.514   9.304  0.5270 -1.0997 -0.0542
12200SOL     OW38367   6.014   1.373   1.229  0.1013  0.0575  0.1344
12200SOL    HW138368   6.006   1.295   1.174  1.1354  0.1115 -0.1017
12200SOL    HW238369   5.924   1.394   1.252 -0.4621  0.5032 -2.1898
12201SOL     OW38370   6.405   7.670   8.918  0.1126 -0.3420  0.0052
12201SOL    HW138371   6.377   7.627   8.999 -0.3943  2.1472  1.2616
12201SOL    HW238372   6.358   7.753   8.918  0.6118  0.0077 -2.5606
12202SOL     OW38373   2.579   1.946   8.189  0.5739 -0.2280 -0.1837
12202SOL    HW138374   2.557   2.031   8.149  2.0074  0.6605  0.7974
12202SOL    HW238375   2.529   1.945   8.270  0.5149 -0.3497 -0.2219
12203SOL     OW38376   6.379   3.120   8.249 -0.0494  0.1127  0.4872
12203SOL    HW138377   6.452   3.175   8.221 -0.5278  0.0261 -0.9777
12203SOL    HW238378   6.305   3.151   8.198 -0.9778 -0.0464  1.6962
12204SOL     OW38379   6.355   5.576   0.072  0.0587 -0.3988 -0.1258
12204SOL    HW138380   6.271   5.579   0.116 -0.0062  0.1042 -0.2741
12204SOL    HW238381   6.398   5.658   0.095  1.1224 -1.2735  1.1191
12205SOL     OW38382   7.648   7.415   1.352  0.3434  0.3025 -0.4230
12205SOL    HW138383   7.650   7.478   1.424  0.0041 -1.8021  1.5398
12205SOL    HW238384   7.730   7.366   1.360  0.3756  0.1363 -1.6007
12206SOL     OW38385   5.691   9.271   0.735 -0.3899  0.1481 -0.5990
12206SOL    HW138386   5.759   9.327   0.698 -1.1083  2.0478  0.7933
12206SOL    HW238387   5.610   9.299   0.692 -0.5377 -1.0299 -1.1220
12207SOL     OW38388   1.191   3.827   3.234 -0.0548 -0.0657  0.2667
12207SOL    HW138389   1.189   3.896   3.168  1.9778  0.7565  0.9929
12207SOL    HW238390   1.135   3.759   3.199  0.7595  0.4396 -2.2023
12208SOL     OW38391   1.825   5.555   3.320 -0.0823  0.6536 -0.2434
12208SOL    HW138392   1.920   5.555   3.321 -0.0837  0.0908  0.4683
12208SOL    HW238393   1.800   5.495   3.390 -0.9491 -0.2029 -1.2511
12209SOL     OW38394   9.743   9.580   8.593 -0.2565 -0.0654 -0.5465
12209SOL    HW138395   9.821   9.622   8.556  0.5762 -2.3019 -1.4938
12209SOL    HW238396   9.767   9.488   8.600 -2.3823 -0.5934  0.3934
12210SOL     OW38397   5.174   6.298   2.377 -0.1416 -0.4400 -0.6413
12210SOL    HW138398   5.142   6.209   2.370 -0.3333 -0.5378  1.0676
12210SOL    HW238399   5.118   6.349   2.318 -0.5953 -1.3090 -0.9709
12211SOL     OW38400   2.880   0.224   9.758 -0.1490  0.3922  0.0428
12211SOL    HW138401   2.860   0.185   9.843 -1.8252 -0.3972 -0.6828
12211SOL    HW238402   2.869   0.153   9.696  2.3016  0.6206 -0.7677
12212SOL     OW38403   1.532   0.519   5.469 -0.5204 -0.0600  0.3064
12212SOL    HW138404   1.602   0.542   5.407 -0.7486 -1.0236 -0.3250
12212SOL    HW238405   1.565   0.549   5.553 -0.7198  2.3781 -0.4181
12213SOL     OW38406   2.650   7.145   1.091  0.0694 -0.0138 -0.7067
12213SOL    HW138407   2.662   7.056   1.127 -1.3342  0.2645  0.5389
12213SOL    HW238408   2.709   7.148   1.016 -0.0669 -2.1120 -0.9669
12214SOL     OW38409   6.076   5.225   5.698 -0.2558  0.0170 -0.3363
12214SOL    HW138410   6.069   5.140   5.741  2.0116 -1.7212 -3.0284
12214SOL    HW238411   6.167   5.251   5.710 -0.1218  0.5070 -2.1037
12215SOL     OW38412   8.631   1.057   3.470  0.2028  0.5985  0.1463
12215SOL    HW138413   8.637   0.962   3.465 -1.4183  0.5270 -1.8052
12215SOL    HW238414   8.543   1.073   3.506 -0.5569  1.3054 -1.9072
12216SOL     OW38415   3.643   4.000   5.023  0.2640  0.2541 -0.0117
12216SOL    HW138416   3.724   4.007   5.075  1.2742 -0.4175 -1.4275
12216SOL    HW238417   3.662   3.931   4.959 -1.6833 -0.3686  0.0406
12217SOL     OW38418   9.487   2.107   9.443  0.7877  0.5439  0.5837
12217SOL    HW138419   9.413   2.165   9.425  0.7721  0.4649  0.3957
12217SOL    HW238420   9.481   2.090   9.537  0.2903  0.1596  0.4851
12218SOL     OW38421   4.839   3.250   0.277  0.4254 -0.0397  0.4911
12218SOL    HW138422   4.828   3.326   0.221 -0.1018 -0.2167  0.3379
12218SOL    HW238423   4.930   3.224   0.266  1.1917  1.7522  2.0941
12219SOL     OW38424   4.863   6.190   8.756  0.3565  0.1943  0.1743
12219SOL    HW138425   4.805   6.247   8.805  1.0734 -1.1152  2.7020
12219SOL    HW238426   4.812   6.109   8.744  0.7034 -0.0074  0.0471
12220SOL     OW38427   2.382   3.496   9.126 -0.2835  0.3923 -0.3487
12220SOL    HW138428   2.326   3.429   9.088 -1.7515  1.7973 -0.7614
12220SOL    HW238429   2.383   3.476   9.220 -0.5589 -0.3021 -0.4921
12221SOL     OW38430   7.453   7.968   1.857  0.9947  0.4553  0.0255
12221SOL    HW138431   7.513   7.896   1.839  0.2308 -0.5003  1.1082
12221SOL    HW238432   7.435   7.960   1.951 -0.2107  1.1928 -0.1249
12222SOL     OW38433   3.404   1.770   7.993 -0.0772  0.2111  0.2526
12222SOL    HW138434   3.405   1.698   8.056 -0.6651 -0.0145  0.0168
12222SOL    HW238435   3.479   1.753   7.935 -1.1669 -1.1673 -0.8284
12223SOL     OW38436   8.336   4.081   0.734  0.2334  0.0834  0.3854
12223SOL    HW138437   8.385   4.116   0.659  1.0994 -0.2735  0.7764
12223SOL    HW238438   8.346   4.148   0.802  0.3448 -0.0771  0.5279
12224SOL     OW38439   7.594   9.674   4.349 -0.3815 -0.1335 -0.3683
12224SOL    HW138440   7.542   9.716   4.280  0.6549 -0.6828 -1.5119
12224SOL    HW238441   7.664   9.736   4.367 -0.8538  0.1726  0.4836
12225SOL     OW38442   0.407   9.093   4.000  0.1781  0.4693 -0.2180
12225SOL    HW138443   0.483   9.068   4.052 -0.6950  0.9377  1.3502
12225SOL    HW238444   0.420   9.049   3.916  1.5249 -0.5100  0.4609
12226SOL     OW38445   5.574   5.038   4.745  0.4338  0.3920 -0.0002
12226SOL    HW138446   5.645   5.055   4.682  1.1576  0.6348  0.8605
12226SOL    HW238447   5.619   5.017   4.827 -0.4735 -1.3497  0.1078
12227SOL     OW38448   8.865   6.040   3.846  0.0534 -0.2699  0.0657
12227SOL    HW138449   8.799   6.022   3.913 -1.6085  1.5998 -0.9480
12227SOL    HW238450   8.902   6.125   3.870  0.1277 -0.0302 -0.8356
12228SOL     OW38451   6.477   9.692   0.980 -0.3916  0.2690  0.0998
12228SOL    HW138452   6.469   9.599   1.004  2.2763  0.3695  1.9050
12228SOL    HW238453   6.498   9.691   0.887  1.3426 -1.1409  0.4402
12229SOL     OW38454   3.536   9.507   3.949 -0.1150  0.1774 -0.5265
12229SOL    HW138455   3.495   9.443   4.007  0.5946 -1.0996 -1.3663
12229SOL    HW238456   3.560   9.580   4.005 -0.6428 -0.4573  0.5360
12230SOL     OW38457   3.576   4.222   7.135  0.4279  0.2175  0.5133
12230SOL    HW138458   3.481   4.209   7.126  0.4043  0.2460  0.7099
12230SOL    HW238459   3.614   4.145   7.093  0.2969 -0.2800  1.2848
12231SOL     OW38460   0.769   6.979   4.643  0.0537  0.3688  0.0475
12231SOL    HW138461   0.815   6.989   4.559  1.7728  0.3187  0.9245
12231SOL    HW238462   0.684   6.943   4.620  1.2696 -1.7221 -1.5258
12232SOL     OW38463   5.054   8.748   2.120 -0.0787  0.0316  0.3625
12232SOL    HW138464   5.000   8.808   2.172  0.8514  0.8513  0.4034
12232SOL    HW238465   5.067   8.794   2.037  0.0412 -0.4340  0.1229
12233SOL     OW38466   5.713   8.992   2.580 -0.1950  0.4585 -0.0468
12233SOL    HW138467   5.747   8.934   2.511 -0.2346  0.4151 -0.0301
12233SOL    HW238468   5.774   9.065   2.582 -0.0090  0.2975  0.0996
12234SOL     OW38469   6.337   7.797   1.097  0.0020  0.2273  0.2536
12234SOL    HW138470   6.338   7.877   1.149  1.2198  0.1619  0.3598
12234SOL    HW238471   6.394   7.816   1.023  0.4467 -0.6025  0.3766
12235SOL     OW38472   6.239   7.086   7.854  0.0157  0.0357  0.0508
12235SOL    HW138473   6.255   7.149   7.783  0.1970  0.9517  0.8803
12235SOL    HW238474   6.236   7.001   7.810  1.9673  0.3656 -0.8597
12236SOL     OW38475   0.852   0.265   2.043 -0.1970  0.2341  0.0719
12236SOL    HW138476   0.885   0.222   2.122 -0.7438  1.3686  0.9324
12236SOL    HW238477   0.880   0.356   2.051 -1.8181  0.7817 -0.1363
12237SOL     OW38478   1.497   1.964   8.977 -0.1683 -0.6486  0.3424
12237SOL    HW138479   1.584   1.925   8.963 -0.8311 -1.7388 -0.9216
12237SOL    HW238480   1.491   2.032   8.910 -0.3947 -0.7643  0.2455
12238SOL     OW38481   4.954   4.625   5.348  0.3271  0.0241  0.5171
12238SOL    HW138482   4.991   4.658   5.430  2.0085 -1.3239  0.3559
12238SOL    HW238483   4.971   4.695   5.284 -0.3245  0.7675  1.1337
12239SOL     OW38484   3.839   1.091   9.791 -0.6078  0.0519  0.0731
12239SOL    HW138485   3.780   1.134   9.853  1.5526  1.3286  1.3693
12239SOL    HW238486   3.873   1.162   9.736 -0.1119 -0.6127 -0.5153
12240SOL     OW38487   5.178   8.364   7.765 -0.6821  0.6698  0.3197
12240SOL    HW138488   5.272   8.368   7.784 -0.6788 -1.5339  1.1310
12240SOL    HW238489   5.170   8.395   7.675  1.1990 -1.2570 -0.6010
12241SOL     OW38490   8.488   8.052   8.137  0.2093  0.2227  0.0922
12241SOL    HW138491   8.460   8.114   8.069  0.2413  1.6344  1.3068
12241SOL    HW238492   8.484   8.103   8.218  0.2067 -1.4032  1.1547
12242SOL     OW38493   5.810   2.287   5.471 -0.1153 -0.1565  0.1432
12242SOL    HW138494   5.866   2.341   5.415  1.8018 -0.9367  1.2586
12242SOL    HW238495   5.725   2.333   5.470  0.9508  1.9334 -0.3010
12243SOL     OW38496   9.253   4.512   1.580  0.5830  0.1053  0.4911
12243SOL    HW138497   9.217   4.426   1.602  0.2200  0.2319  0.3974
12243SOL    HW238498   9.312   4.532   1.653  0.7108 -0.2461  0.4846
12244SOL     OW38499   7.619   3.628   2.423 -0.4689 -0.5534 -0.5041
12244SOL    HW138500   7.685   3.630   2.493 -1.4790  1.0522  0.4801
12244SOL    HW238501   7.592   3.536   2.418  1.4017 -1.1350 -0.5274
12245SOL     OW38502   8.214   5.498   6.722  0.2689  0.1873  0.1919
12245SOL    HW138503   8.209   5.515   6.628 -0.8763 -0.9908  0.0104
12245SOL    HW238504   8.147   5.555   6.760 -0.1435 -0.2601  0.1425
12246SOL     OW38505   0.977   0.242   4.893 -0.5884  0.4527 -0.6108
12246SOL    HW138506   0.993   0.269   4.802  0.6727 -0.1658 -0.6067
12246SOL    HW238507   1.057   0.268   4.939 -0.8457 -0.0557  0.1220
12247SOL     OW38508   2.561   6.992   3.531  0.0436  0.0463  0.1867
12247SOL    HW138509   2.629   6.973   3.595  0.4729  2.7353  0.6277
12247SOL    HW238510   2.552   7.087   3.532 -1.4061  0.0293 -2.2558
12248SOL     OW38511   5.062   3.999   7.042  0.1483  0.3716  0.4990
12248SOL    HW138512   5.108   3.915   7.051 -0.8341 -0.2884 -0.4687
12248SOL    HW238513   4.969   3.976   7.046 -0.1517  1.7015  2.5376
12249SOL     OW38514   7.412   2.982   0.732 -0.1269  0.1692 -0.0440
12249SOL    HW138515   7.418   2.897   0.776  0.4178 -0.7747 -1.8365
12249SOL    HW238516   7.360   2.965   0.653 -1.9159  2.0170  0.6324
12250SOL     OW38517   1.774   5.536   4.072  0.6320 -0.6598 -0.0844
12250SOL    HW138518   1.828   5.607   4.106 -0.1222 -0.1127 -0.0245
12250SOL    HW238519   1.785   5.465   4.136  1.1812 -0.5158 -0.0130
12251SOL     OW38520   7.497   2.648   4.082 -0.3665 -0.0473 -0.0293
12251SOL    HW138521   7.531   2.715   4.023 -0.5206 -0.4881 -0.6189
12251SOL    HW238522   7.411   2.680   4.109  0.2510  0.7982  1.0209
12252SOL     OW38523   9.004   8.033   3.556  0.3341  0.0322 -0.0919
12252SOL    HW138524   8.946   8.079   3.617  0.3369 -0.9440  0.6854
12252SOL    HW238525   8.948   8.010   3.482 -0.1590 -0.4486  0.4222
12253SOL     OW38526   0.089   9.683   2.411 -0.2798 -0.0967 -0.3488
12253SOL    HW138527   0.107   9.618   2.479  0.7034  0.4326 -0.0972
12253SOL    HW238528  -0.002   9.710   2.427 -0.6331 -1.2353 -0.3219
12254SOL     OW38529   5.491   6.076   3.310 -0.4966  0.1229  0.4453
12254SOL    HW138530   5.460   6.067   3.220  1.7149 -0.8059 -0.2944
12254SOL    HW238531   5.557   6.146   3.306  0.9779 -1.1919  0.9127
12255SOL     OW38532   8.957   3.842   3.674 -0.2806  0.7408 -0.3352
12255SOL    HW138533   8.861   3.837   3.673 -0.2522 -1.3737  1.0673
12255SOL    HW238534   8.984   3.813   3.587 -0.8972  2.2827 -1.0772
12256SOL     OW38535   9.506   7.160   1.406 -0.2820 -0.3092  0.4372
12256SOL    HW138536   9.516   7.255   1.399  0.1036 -0.4713 -1.9400
12256SOL    HW238537   9.569   7.134   1.474 -0.3593  1.1059  1.0772
12257SOL     OW38538   7.306   7.665   8.354 -0.0707  1.0855  0.0607
12257SOL    HW138539   7.284   7.676   8.447  1.7837  0.2512  0.6355
12257SOL    HW238540   7.366   7.737   8.335 -1.5084  2.0756 -0.9108
12258SOL     OW38541   5.648   7.895   1.792  0.1953  0.1598  0.7210
12258SOL    HW138542   5.669   7.847   1.872 -1.3622  1.8762  2.2631
12258SOL    HW238543   5.727   7.943   1.771  0.4802  0.0408  1.5066
12259SOL     OW38544   1.320   1.792   0.254  0.1983 -0.0202 -0.6070
12259SOL    HW138545   1.396   1.734   0.248  0.0432 -0.0975 -2.2657
12259SOL    HW238546   1.329   1.835   0.339  1.5340 -0.7833 -0.3364
12260SOL     OW38547   9.479   3.014   0.149  0.4076 -0.2768 -0.0415
12260SOL    HW138548   9.395   3.054   0.175  0.3127 -0.3671 -0.2082
12260SOL    HW238549   9.501   3.056   0.066 -1.5822 -3.1967 -2.2316
12261SOL     OW38550   4.268   0.494   5.530 -0.4912 -0.5283 -0.1402
12261SOL    HW138551   4.302   0.575   5.493 -2.8719 -0.5070 -2.6471
12261SOL    HW238552   4.278   0.430   5.460 -1.0945 -1.6931  0.8057
12262SOL     OW38553   7.268   6.217   5.059  0.4406  0.3302  0.1239
12262SOL    HW138554   7.345   6.248   5.012  0.1305  1.6423  0.4537
12262SOL    HW238555   7.194   6.250   5.008  0.0638 -0.9867 -0.2416
12263SOL     OW38556   8.588   4.064   1.034 -0.1281 -0.0490  0.1112
12263SOL    HW138557   8.509   4.114   1.012  0.2558  0.9696  0.9335
12263SOL    HW238558   8.577   4.043   1.127  0.5323  0.0546  0.2186
12264SOL     OW38559   5.685   7.574   2.358  0.2785  0.1607  0.0230
12264SOL    HW138560   5.617   7.608   2.416  0.1861  1.0765 -0.5943
12264SOL    HW238561   5.767   7.594   2.403  0.2177  1.1041 -0.2714
12265SOL     OW38562   8.026   0.814   3.172  0.3644  0.4211  0.2015
12265SOL    HW138563   7.992   0.744   3.228  1.9794  0.2541  1.0492
12265SOL    HW238564   7.976   0.806   3.091 -1.8079  0.4560  1.4569
12266SOL     OW38565   8.233   3.897   2.195  0.6436 -0.1858  0.5291
12266SOL    HW138566   8.148   3.932   2.222  0.2766 -1.0130  0.4902
12266SOL    HW238567   8.212   3.833   2.127  1.2810 -0.4976  0.6138
12267SOL     OW38568   0.387   2.504   8.734 -0.1507  0.4642  0.5181
12267SOL    HW138569   0.338   2.548   8.666 -1.5783 -0.8561  0.6389
12267SOL    HW238570   0.329   2.505   8.810  0.4598 -0.1595  1.0060
12268SOL     OW38571   2.156   2.215   8.771 -0.6711  0.3601  0.2930
12268SOL    HW138572   2.248   2.221   8.795 -0.4025 -0.8164 -0.3795
12268SOL    HW238573   2.155   2.222   8.676 -1.0993 -1.1249  0.1540
12269SOL     OW38574   4.842   3.169   3.476  0.0996  0.0437  0.2270
12269SOL    HW138575   4.825   3.091   3.423  0.3235  0.6929 -0.8464
12269SOL    HW238576   4.899   3.223   3.421 -0.7723  1.3588  0.5565
12270SOL     OW38577   3.683   0.126   3.313  0.2935 -0.4238 -0.0376
12270SOL    HW138578   3.709   0.059   3.377  0.3294  0.9718  1.4651
12270SOL    HW238579   3.765   0.149   3.269  0.4163 -0.7853 -0.0094
12271SOL     OW38580   0.372   1.032   8.915  0.2979 -0.4030  0.3513
12271SOL    HW138581   0.345   1.121   8.935 -1.2023 -0.6760 -0.3154
12271SOL    HW238582   0.463   1.040   8.886 -0.1452  1.0728 -0.7492
12272SOL     OW38583   4.902   0.125   5.214  0.6075  0.7551  0.3898
12272SOL    HW138584   4.838   0.194   5.230 -4.3206 -2.8147 -1.3337
12272SOL    HW238585   4.920   0.129   5.120 -0.1666 -0.5095  0.1593
12273SOL     OW38586   0.732   9.468   4.710  0.0937  0.0638  0.4449
12273SOL    HW138587   0.673   9.393   4.703  0.5444 -0.2078 -0.9444
12273SOL    HW238588   0.705   9.514   4.789 -3.1849  0.9597 -1.0396
12274SOL     OW38589   6.312   5.713   8.599  0.2119  0.2631  0.2763
12274SOL    HW138590   6.331   5.641   8.538  1.9392  1.6422 -0.9253
12274SOL    HW238591   6.347   5.682   8.683 -1.2626 -1.2445  0.3842
12275SOL     OW38592   5.877   9.400   0.215  0.2427 -0.6178 -0.4853
12275SOL    HW138593   5.888   9.479   0.269  1.7405 -0.7352 -0.5574
12275SOL    HW238594   5.940   9.411   0.144 -0.1765 -1.4703 -1.0007
12276SOL     OW38595   7.818   9.359   3.583  0.0235  0.0907  0.6011
12276SOL    HW138596   7.801   9.309   3.663  1.6653 -0.0108  0.9219
12276SOL    HW238597   7.734   9.362   3.538  0.1066 -4.7820 -0.4635
12277SOL     OW38598   8.875   7.954   4.666 -0.0276 -0.0370  0.2764
12277SOL    HW138599   8.955   7.990   4.628  0.1741  0.0420  0.7641
12277SOL    HW238600   8.834   7.905   4.595 -0.9553  2.1420 -0.8240
12278SOL     OW38601   1.837   4.091   9.301  0.4029  0.2865  0.0665
12278SOL    HW138602   1.891   4.165   9.273  1.0038 -0.9212 -2.3139
12278SOL    HW238603   1.894   4.015   9.291 -1.1510 -0.8375 -0.7688
12279SOL     OW38604   9.125   2.351   2.006  0.1288  0.5206  0.1046
12279SOL    HW138605   9.207   2.327   1.963  0.1003  4.2548 -2.4644
12279SOL    HW238606   9.152   2.380   2.094  0.9065 -2.0260  0.8011
12280SOL     OW38607   1.859   9.727   8.870 -0.4149 -0.0043 -0.0527
12280SOL    HW138608   1.837   9.817   8.891 -0.9097  0.0610 -0.7883
12280SOL    HW238609   1.777   9.679   8.882 -0.2277 -0.2985  0.0528
12281SOL     OW38610   9.791   3.525   3.353  0.3091  0.1083 -0.4780
12281SOL    HW138611   9.822   3.594   3.411 -0.5981 -0.5779  0.8672
12281SOL    HW238612   9.777   3.569   3.269  0.2948  1.4300  0.1875
12282SOL     OW38613   9.210   4.521   5.126  0.4682 -0.4792 -0.8419
12282SOL    HW138614   9.229   4.466   5.203  0.8472  0.3439 -0.3348
12282SOL    HW238615   9.274   4.492   5.061  0.8954 -0.4191 -0.4619
12283SOL     OW38616   8.083   8.939   5.658  0.3244 -0.2906 -0.2861
12283SOL    HW138617   8.176   8.951   5.637  0.5676 -0.7773  0.4753
12283SOL    HW238618   8.053   9.025   5.687  1.3070 -0.7312  2.3170
12284SOL     OW38619   1.409   6.613   2.210  0.4377  0.1587 -0.4691
12284SOL    HW138620   1.447   6.694   2.175  0.8376  0.0020 -0.4107
12284SOL    HW238621   1.483   6.552   2.214  0.4482  0.2312  0.8427
12285SOL     OW38622   0.124   2.969   6.289 -0.5442  0.0801  0.2180
12285SOL    HW138623   0.130   2.895   6.350 -0.1501  0.1405  0.2557
12285SOL    HW238624   0.050   2.947   6.233 -0.7104 -0.1307  0.5130
12286SOL     OW38625   2.076   4.182   7.439  0.4492  0.1853 -0.4751
12286SOL    HW138626   1.989   4.182   7.479  0.0774  1.2463 -1.2154
12286SOL    HW238627   2.097   4.090   7.426 -0.3958 -0.0932  0.0814
12287SOL     OW38628   7.071   8.312   3.045  0.1693 -0.4594  0.4605
12287SOL    HW138629   7.124   8.374   3.096  0.4866  0.5258 -0.9878
12287SOL    HW238630   7.135   8.252   3.006  0.1009 -0.2257 -0.0280
12288SOL     OW38631   2.371   0.506   4.463  0.3262 -0.5334  0.1652
12288SOL    HW138632   2.364   0.601   4.473  2.0862  0.0177 -2.6308
12288SOL    HW238633   2.342   0.489   4.373  2.6967 -2.2021 -0.3888
12289SOL     OW38634   3.057   1.562   5.566  0.0772 -0.1036 -0.5330
12289SOL    HW138635   3.007   1.485   5.593 -0.1729  0.1462 -0.2865
12289SOL    HW238636   3.149   1.536   5.578  0.0529 -0.8617 -1.7892
12290SOL     OW38637   3.004   8.318   8.877  0.0084  0.2066  0.4472
12290SOL    HW138638   3.012   8.230   8.842 -0.6123 -0.0022  0.8046
12290SOL    HW238639   3.019   8.308   8.971  0.2798  0.5382  0.4417
12291SOL     OW38640   9.304   7.639   5.827  0.0253 -0.0374  0.5053
12291SOL    HW138641   9.234   7.620   5.765  0.1524 -0.8411  0.5918
12291SOL    HW238642   9.341   7.721   5.798 -0.8449  0.3153  0.3552
12292SOL     OW38643   2.439   8.835   3.958 -0.5102 -0.0874  0.5975
12292SOL    HW138644   2.518   8.818   4.009 -0.3715 -0.9344  0.1146
12292SOL    HW238645   2.382   8.760   3.977 -0.2729 -0.6523 -0.8320
12293SOL     OW38646   0.961   3.203   2.582 -0.0342 -0.0534  0.2176
12293SOL    HW138647   0.987   3.170   2.668 -1.9847  0.5846  1.1131
12293SOL    HW238648   0.914   3.284   2.601 -0.6419  0.0195 -1.4407
12294SOL     OW38649   3.972   6.599   2.413  0.1361 -0.6733 -0.2981
12294SOL    HW138650   4.007   6.522   2.368 -0.4735 -1.2208  0.1283
12294SOL    HW238651   3.888   6.615   2.370 -0.4616 -1.2107  0.6151
12295SOL     OW38652   2.201   2.054   7.776 -0.3001 -0.1457 -0.5057
12295SOL    HW138653   2.166   1.991   7.712 -2.6872  1.3453 -0.8030
12295SOL    HW238654   2.123   2.093   7.815  1.1156  0.1770  2.1767
12296SOL     OW38655   7.798   4.234   8.672 -0.2928 -0.1393 -0.1962
12296SOL    HW138656   7.886   4.273   8.679  0.0571 -0.9884  0.2263
12296SOL    HW238657   7.787   4.184   8.752 -0.5145 -1.3533 -0.9555
12297SOL     OW38658   5.890   1.646   6.665  0.1466  0.5959  0.0737
12297SOL    HW138659   5.931   1.722   6.707  1.0272 -0.0922  0.4851
12297SOL    HW238660   5.800   1.648   6.696 -0.3101  2.3983 -1.2025
12298SOL     OW38661   4.718   7.575   4.085 -0.2340 -0.7342 -0.0609
12298SOL    HW138662   4.741   7.659   4.047 -2.1640 -0.7828 -1.4849
12298SOL    HW238663   4.759   7.576   4.172  1.2238  0.9209 -0.7090
12299SOL     OW38664   3.856   8.721   0.037 -1.1589  0.1621 -0.1723
12299SOL    HW138665   3.949   8.740   0.049 -1.1217 -0.2538  0.2197
12299SOL    HW238666   3.853   8.630   0.008 -1.5022 -0.2034  0.9769
12300SOL     OW38667   0.316   9.736   8.778 -0.1539  0.3986 -0.5357
12300SOL    HW138668   0.395   9.751   8.830 -0.8835  1.2021  0.3703
12300SOL    HW238669   0.250   9.709   8.841 -0.6881 -0.0024 -1.2487
12301SOL     OW38670   5.495   7.202   8.783 -0.4150 -0.1628  0.2277
12301SOL    HW138671   5.452   7.257   8.717 -0.4718  0.2977  0.6419
12301SOL    HW238672   5.516   7.121   8.737 -2.6515 -0.8431  0.2535
12302SOL     OW38673   0.413   4.622   8.081 -0.8865  0.5845  0.1167
12302SOL    HW138674   0.347   4.627   8.012 -0.2593  0.4940 -0.4921
12302SOL    HW238675   0.365   4.643   8.161 -2.0873 -1.3179 -0.0487
12303SOL     OW38676   6.826   5.809   3.073  0.3984 -0.3854  0.4793
12303SOL    HW138677   6.805   5.860   3.151 -0.1379 -0.7108  0.5554
12303SOL    HW238678   6.878   5.867   3.019 -0.1209  0.2059  0.6098
12304SOL     OW38679   9.212   9.298   0.751  0.0346 -0.5562 -0.4786
12304SOL    HW138680   9.122   9.329   0.759  0.0233 -0.6044 -0.4233
12304SOL    HW238681   9.263   9.360   0.804  0.2884  0.6224 -2.0182
12305SOL     OW38682   5.251   6.738   4.199 -0.4728  0.4278 -0.5731
12305SOL    HW138683   5.207   6.755   4.116  1.4578 -0.0149 -1.7612
12305SOL    HW238684   5.285   6.649   4.190 -1.3479 -0.1178  1.2407
12306SOL     OW38685   6.741   1.283   5.155 -0.4333  0.1027 -0.2044
12306SOL    HW138686   6.721   1.209   5.212  1.4956  0.0884  0.5284
12306SOL    HW238687   6.704   1.359   5.200 -1.5417 -0.2622 -0.4643
12307SOL     OW38688   1.752   8.883   3.871  0.2448 -0.5211 -0.1908
12307SOL    HW138689   1.770   8.971   3.904 -0.6764 -0.4932  0.2598
12307SOL    HW238690   1.746   8.894   3.776  1.8587 -0.4170 -0.3088
12308SOL     OW38691   2.931   9.735   5.089 -0.4688 -0.1986 -0.3029
12308SOL    HW138692   2.914   9.643   5.066 -0.4691 -0.1937 -0.3225
12308SOL    HW238693   2.849   9.765   5.128  0.0984 -0.7310  1.3784
12309SOL     OW38694   4.694   7.081   1.103  0.4691  0.0135  0.3601
12309SOL    HW138695   4.643   7.054   1.027  0.3669  0.9345  0.0857
12309SOL    HW238696   4.772   7.025   1.102 -0.6933 -1.6943  1.0206
12310SOL     OW38697   8.331   1.634   1.579 -0.3559 -0.0337  0.3104
12310SOL    HW138698   8.361   1.565   1.638  0.6335 -0.5732 -0.7943
12310SOL    HW238699   8.326   1.592   1.494  2.4454  1.7307 -0.8566
12311SOL     OW38700   7.435   3.465   6.407 -0.4810  0.0266 -0.4910
12311SOL    HW138701   7.457   3.483   6.499 -0.4153 -0.1922 -0.4641
12311SOL    HW238702   7.368   3.530   6.386  0.4455  0.9457 -0.6829
12312SOL     OW38703   0.170   2.335   1.165 -0.6672 -0.1980 -0.9013
12312SOL    HW138704   0.146   2.370   1.250  0.3262  0.3063 -0.8137
12312SOL    HW238705   0.108   2.374   1.104 -0.2746  0.8464 -0.6478
12313SOL     OW38706   6.559   2.899   9.130  0.6569 -0.8339  0.0297
12313SOL    HW138707   6.599   2.925   9.213 -1.3395  0.2507  0.7218
12313SOL    HW238708   6.527   2.810   9.145  1.6808 -1.2499 -0.1418
12314SOL     OW38709   5.443   4.659   8.011 -0.4297 -0.1585 -0.5085
12314SOL    HW138710   5.454   4.570   7.978 -1.6416  0.4709 -2.7660
12314SOL    HW238711   5.500   4.713   7.956 -0.0694  0.5372  0.5180
12315SOL     OW38712   0.142   7.773   9.240  0.5621 -0.1962 -0.0706
12315SOL    HW138713   0.161   7.733   9.324  0.7810  1.2195  0.5875
12315SOL    HW238714   0.212   7.743   9.182 -1.5260 -4.2063 -0.9108
12316SOL     OW38715   3.680   3.677   1.926 -0.2672  0.1874  0.3418
12316SOL    HW138716   3.656   3.769   1.920 -2.1114 -0.3078 -0.2527
12316SOL    HW238717   3.686   3.660   2.020 -0.6742  0.7222  0.4655
12317SOL     OW38718   7.042   8.070   9.543  0.6804  0.1203 -0.2634
12317SOL    HW138719   6.979   8.064   9.471  0.3836 -0.9764  0.0844
12317SOL    HW238720   7.079   8.158   9.534  0.6633  0.0049 -1.7735
12318SOL     OW38721   6.938   8.585   4.710  0.0454 -0.1466  0.1706
12318SOL    HW138722   6.968   8.625   4.792 -2.8907 -1.6530  2.1342
12318SOL    HW238723   6.905   8.499   4.735 -2.2650 -0.1221 -2.3273
12319SOL     OW38724   7.988   5.442   4.592  0.5741 -0.2245 -0.1342
12319SOL    HW138725   8.036   5.509   4.641  1.2704 -0.0286 -1.0628
12319SOL    HW238726   8.034   5.361   4.611  1.6969  0.0511 -1.5039
12320SOL     OW38727   3.489   1.698   2.706  0.2084 -0.2219  0.1125
12320SOL    HW138728   3.581   1.713   2.730  1.8989 -2.7900 -3.7213
12320SOL    HW238729   3.471   1.609   2.737 -0.8002  0.0373  0.2959
12321SOL     OW38730   0.871   3.379   6.261 -0.5382  0.2692  0.2949
12321SOL    HW138731   0.900   3.448   6.322  0.1370 -1.1939  1.6860
12321SOL    HW238732   0.775   3.388   6.260 -0.4672  1.2035  0.4880
12322SOL     OW38733   2.584   7.831   4.386  0.5679 -0.6637  0.8135
12322SOL    HW138734   2.664   7.875   4.414  0.8335 -0.6294  0.0158
12322SOL    HW238735   2.516   7.897   4.393  0.8728 -0.2663  0.1148
12323SOL     OW38736   2.125   7.499   4.938  0.2341 -0.3078 -0.5839
12323SOL    HW138737   2.184   7.491   5.012  0.6467  0.3522 -0.8368
12323SOL    HW238738   2.146   7.583   4.898  0.3318 -0.8479 -1.7264
12324SOL     OW38739   6.389   4.251   7.971  0.2267  0.0127 -0.3200
12324SOL    HW138740   6.428   4.268   7.885  1.3918  1.0218  0.3731
12324SOL    HW238741   6.370   4.337   8.007 -0.0979 -0.3865  0.4935
12325SOL     OW38742   3.797   3.240   0.753 -0.5363 -0.2375  0.3953
12325SOL    HW138743   3.858   3.193   0.810  1.0042 -1.0725 -1.7797
12325SOL    HW238744   3.804   3.331   0.780  2.1380 -0.2240 -0.0721
12326SOL     OW38745   1.103   8.233   2.538  0.2533  0.2193 -0.4345
12326SOL    HW138746   1.052   8.225   2.619 -1.3535  0.8815 -1.3223
12326SOL    HW238747   1.192   8.209   2.563 -0.4637 -0.9185  1.2277
12327SOL     OW38748   8.909   0.665   7.922 -0.4875 -0.2050 -0.0216
12327SOL    HW138749   8.869   0.581   7.902  1.5078 -0.7193 -2.3116
12327SOL    HW238750   8.880   0.723   7.852  0.4408  0.1928 -0.0898
12328SOL     OW38751   8.871   0.701   1.070 -0.4550  0.2091  0.5462
12328SOL    HW138752   8.880   0.640   1.143 -0.9952 -0.2102  0.2716
12328SOL    HW238753   8.781   0.688   1.039 -0.1439  0.1686 -0.3694
12329SOL     OW38754   5.035   7.446   5.314 -0.2199  0.0444  0.0979
12329SOL    HW138755   4.954   7.459   5.264  0.1578  0.0802 -0.5245
12329SOL    HW238756   5.075   7.368   5.275  0.6913  0.7894 -0.4963
12330SOL     OW38757   1.682   5.598   3.824 -0.2595 -0.2003  0.3624
12330SOL    HW138758   1.704   5.691   3.828  0.4959 -0.3342 -0.4090
12330SOL    HW238759   1.732   5.557   3.895 -1.4465  0.1183  1.4267
12331SOL     OW38760   3.806   8.503   7.501 -0.2892  0.2718 -0.5826
12331SOL    HW138761   3.894   8.476   7.477 -0.2031 -0.4763  0.5407
12331SOL    HW238762   3.819   8.574   7.564 -0.4913  0.2020 -0.4625
12332SOL     OW38763   2.016   7.669   7.333 -0.5719 -0.7473 -0.1367
12332SOL    HW138764   1.977   7.696   7.416 -0.5764 -0.3590 -0.2616
12332SOL    HW238765   2.056   7.584   7.351  1.7962  0.4991  1.0126
12333SOL     OW38766   7.736   1.977   0.514  0.1114  0.0283  0.2754
12333SOL    HW138767   7.767   1.999   0.426 -2.2420  0.6750 -0.4798
12333SOL    HW238768   7.715   1.883   0.510  1.6683 -0.3710  0.7393
12334SOL     OW38769   5.683   5.075   5.366  0.0700  0.5752  0.2444
12334SOL    HW138770   5.641   5.078   5.452 -0.1167 -0.6473  0.2196
12334SOL    HW238771   5.626   5.128   5.310 -0.7812 -0.0504  0.4910
12335SOL     OW38772   0.182   3.496   7.053 -0.6534  0.2157 -0.6240
12335SOL    HW138773   0.232   3.416   7.037  0.2920  0.3073  1.5424
12335SOL    HW238774   0.158   3.491   7.145 -3.5129  0.8499 -1.2532
12336SOL     OW38775   7.317   7.101   3.731  0.7203 -0.2782  0.1648
12336SOL    HW138776   7.256   7.143   3.792  1.5965  0.8235  0.3260
12336SOL    HW238777   7.334   7.168   3.665 -2.8717 -2.4755 -3.4235
12337SOL     OW38778   4.891   2.051   3.152  0.0339 -0.2870 -0.5942
12337SOL    HW138779   4.948   2.009   3.216  0.5363 -0.6828 -1.2758
12337SOL    HW238780   4.867   2.135   3.192 -0.7321 -1.0771  0.6562
12338SOL     OW38781   3.906   0.016   8.326  0.0002  0.0021  0.1239
12338SOL    HW138782   3.819   0.042   8.297  0.8383  1.8019 -0.9842
12338SOL    HW238783   3.923   0.070   8.404  0.4709  0.3621 -0.2222
12339SOL     OW38784   1.757   8.370   4.344 -0.4132 -0.2212  0.0191
12339SOL    HW138785   1.768   8.335   4.433 -0.1915  1.8066  0.8446
12339SOL    HW238786   1.833   8.427   4.331 -0.6267 -0.2179 -1.3402
12340SOL     OW38787   4.561   1.887   2.708  0.1643 -0.1078  0.2149
12340SOL    HW138788   4.631   1.824   2.688 -0.3467 -0.4861 -0.4324
12340SOL    HW238789   4.497   1.837   2.758  1.1879  0.7033  2.4901
12341SOL     OW38790   8.690   1.889   5.584  0.0992 -0.7746 -0.9215
12341SOL    HW138791   8.760   1.935   5.539  1.4365 -3.2170 -1.4957
12341SOL    HW238792   8.612   1.905   5.530  0.6900  0.0818 -1.5408
12342SOL     OW38793   2.316   2.145   2.931  0.2297  0.3868 -0.3736
12342SOL    HW138794   2.381   2.105   2.988 -0.3068  1.1537  0.8182
12342SOL    HW238795   2.245   2.081   2.926  1.1633 -0.6033 -1.9569
12343SOL     OW38796   3.143   9.394   0.095  0.0783 -0.2860  0.2407
12343SOL    HW138797   3.223   9.423   0.139 -0.1761  1.0841 -0.1375
12343SOL    HW238798   3.072   9.437   0.144 -0.2601  0.5455 -0.9212
12344SOL     OW38799   8.069   6.502   6.391  0.4937 -0.3488  0.4843
12344SOL    HW138800   8.002   6.535   6.332 -0.0020 -2.1053 -0.0034
12344SOL    HW238801   8.077   6.568   6.459 -0.6820  0.5629 -0.2409
12345SOL     OW38802   1.925   6.574   9.030  0.2873 -0.1899  0.2537
12345SOL    HW138803   1.908   6.635   9.101  0.6818 -0.4296  0.5521
12345SOL    HW238804   1.892   6.490   9.061  2.1553 -0.7187  0.9314
12346SOL     OW38805   8.376   8.452   1.031  0.7875  0.4760 -0.3898
12346SOL    HW138806   8.311   8.382   1.038 -0.6738  1.9458  1.9122
12346SOL    HW238807   8.343   8.509   0.962 -0.2618  1.0651  0.5791
12347SOL     OW38808   4.349   8.635   5.981 -0.5105  0.2091  0.0225
12347SOL    HW138809   4.419   8.606   6.040 -0.8613 -0.2664  0.2156
12347SOL    HW238810   4.368   8.727   5.965  0.0432  0.1366  0.2388
12348SOL     OW38811   9.390   4.646   7.910  0.7400  0.2952  0.0197
12348SOL    HW138812   9.336   4.696   7.848  1.0346  1.8597  0.9734
12348SOL    HW238813   9.329   4.582   7.948 -0.0552  0.9591 -0.0955
12349SOL     OW38814   4.958   5.430   1.064  0.0252  0.3131 -0.0636
12349SOL    HW138815   4.874   5.399   1.031  0.4604 -1.6801  0.5529
12349SOL    HW238816   5.018   5.423   0.990  0.5239 -2.1958  0.4636
12350SOL     OW38817   6.309   1.459   8.066  0.2896 -0.0076 -0.3457
12350SOL    HW138818   6.347   1.450   8.153  0.7032 -0.0862 -0.5336
12350SOL    HW238819   6.215   1.458   8.081  0.3490 -0.9163  0.0073
12351SOL     OW38820   0.848   8.252   3.788  0.3452  0.0266 -0.1689
12351SOL    HW138821   0.764   8.286   3.759  1.0334  2.5621  0.5423
12351SOL    HW238822   0.899   8.241   3.708  0.5274  2.0854 -0.3931
12352SOL     OW38823   3.803   9.405   3.084  0.2796 -0.2846  0.2842
12352SOL    HW138824   3.790   9.500   3.076 -2.5508 -0.4131  1.7320
12352SOL    HW238825   3.886   9.395   3.129  0.6812  1.5136  0.0006
12353SOL     OW38826   7.966   7.133   5.458 -0.4998 -0.1148 -0.1766
12353SOL    HW138827   7.924   7.186   5.391 -2.6500 -1.3054  0.1283
12353SOL    HW238828   7.978   7.193   5.532 -3.2344 -0.0006  0.3024
12354SOL     OW38829   0.950   1.633   4.624 -0.5745 -0.4265 -0.0536
12354SOL    HW138830   0.996   1.602   4.546 -1.8527  1.8111 -1.8223
12354SOL    HW238831   0.878   1.572   4.636  0.6613 -1.8466  0.5754
12355SOL     OW38832   5.879   8.365   5.135 -0.4741  0.6509 -0.4996
12355SOL    HW138833   5.911   8.288   5.182 -2.0405  1.3631  1.9106
12355SOL    HW238834   5.847   8.331   5.052 -0.0324 -1.0985 -0.0013
12356SOL     OW38835   5.189   3.735   9.661 -0.0672 -0.4925  0.3906
12356SOL    HW138836   5.270   3.704   9.699 -0.8778 -1.2762  1.5368
12356SOL    HW238837   5.216   3.799   9.595  1.4037  1.3254  2.5892
12357SOL     OW38838   0.799   5.845   4.858 -0.1797  0.1249 -0.3022
12357SOL    HW138839   0.735   5.877   4.794  0.8409  0.3178 -1.2586
12357SOL    HW238840   0.876   5.902   4.845  0.2996 -0.2966  0.6085
12358SOL     OW38841   3.492   1.333   4.006 -0.1059 -0.1181 -0.1233
12358SOL    HW138842   3.535   1.321   3.921  1.9058 -0.3856  0.8693
12358SOL    HW238843   3.511   1.424   4.030 -4.5893  1.5659 -1.9208
12359SOL     OW38844   9.300   8.418   0.945  0.0304 -0.1396 -0.2078
12359SOL    HW138845   9.317   8.383   1.032  0.3732 -2.1995 -1.0352
12359SOL    HW238846   9.205   8.429   0.942  0.2133  2.2897  1.2044
12360SOL     OW38847   1.113   2.428   8.388 -0.5916  0.4938  0.6411
12360SOL    HW138848   1.028   2.386   8.373  0.6817 -2.1065 -0.0335
12360SOL    HW238849   1.170   2.389   8.321  1.2592  1.7116  1.4447
12361SOL     OW38850   3.386   5.408   3.546  0.1782 -0.5192  0.4682
12361SOL    HW138851   3.396   5.451   3.461  0.7464 -0.5370  0.5276
12361SOL    HW238852   3.420   5.320   3.533 -0.5590 -0.8151  0.4744
12362SOL     OW38853   2.907   6.244   1.546 -0.5922  0.2411 -0.1225
12362SOL    HW138854   2.938   6.329   1.516 -2.0707  0.8630  0.0253
12362SOL    HW238855   2.911   6.250   1.642  0.6022 -0.3819 -0.1144
12363SOL     OW38856   4.107   7.374   3.518 -0.1438  0.1540 -0.2125
12363SOL    HW138857   4.161   7.409   3.589 -0.8066  1.9688 -0.5462
12363SOL    HW238858   4.140   7.419   3.440 -1.3289  0.3703 -0.5989
12364SOL     OW38859   8.572   1.673   6.202  0.6382  0.2055  0.2053
12364SOL    HW138860   8.595   1.666   6.295 -0.7114 -0.7610  0.4884
12364SOL    HW238861   8.517   1.752   6.197  1.2164  0.6096  0.1042
12365SOL     OW38862   3.010   4.017   1.464  0.1904 -0.3601  0.0279
12365SOL    HW138863   2.946   3.952   1.434 -0.7453  0.7401 -0.4283
12365SOL    HW238864   3.039   4.060   1.383 -0.1853  0.6784  0.4403
12366SOL     OW38865   2.829   7.153   8.401  0.7561  0.1748 -0.3828
12366SOL    HW138866   2.874   7.211   8.462  1.6892 -0.3541 -0.5484
12366SOL    HW238867   2.745   7.136   8.441  1.1032  0.3543  0.4384
12367SOL     OW38868   0.192   2.673   8.271 -0.0427 -0.1541  0.3671
12367SOL    HW138869   0.196   2.577   8.266 -1.2942 -0.1756 -0.5663
12367SOL    HW238870   0.154   2.700   8.188 -1.8718  0.9916  1.5091
12368SOL     OW38871   7.462   1.640   6.047  0.7093 -0.0674 -0.2017
12368SOL    HW138872   7.398   1.702   6.013  0.8478 -0.4818 -1.2448
12368SOL    HW238873   7.521   1.693   6.101  0.5051  0.6125 -0.6417
12369SOL     OW38874   6.737   7.657   1.530 -0.2129 -0.2725  0.3824
12369SOL    HW138875   6.816   7.679   1.480  0.7128 -1.7471  1.1007
12369SOL    HW238876   6.682   7.610   1.467  0.2168 -0.6750  0.2981
12370SOL     OW38877   4.109   8.745   3.473  0.0418 -0.0468  0.1600
12370SOL    HW138878   4.051   8.741   3.549  1.1237 -2.0217  0.9523
12370SOL    HW238879   4.193   8.711   3.505  1.5766  2.3081 -1.0525
12371SOL     OW38880   9.563   8.323   5.927  0.6481  0.1047 -0.1399
12371SOL    HW138881   9.612   8.343   5.847  3.1307  0.2327  1.3207
12371SOL    HW238882   9.600   8.381   5.993 -0.3686 -0.9685  1.4463
12372SOL     OW38883   3.816   0.117   7.973 -0.2231  0.5526 -0.7464
12372SOL    HW138884   3.906   0.113   8.005  0.0390 -0.1994 -1.5392
12372SOL    HW238885   3.764   0.081   8.046  0.2692 -0.2833 -0.7946
12373SOL     OW38886   5.698   6.598   1.881 -0.3668 -0.0276  0.5667
12373SOL    HW138887   5.753   6.618   1.956 -1.0192 -0.6749  1.2359
12373SOL    HW238888   5.685   6.504   1.885 -0.8073 -0.0009 -0.0783
12374SOL     OW38889   3.476   4.763   4.981  0.0546 -0.6278  0.4435
12374SOL    HW138890   3.563   4.756   4.942 -0.2006  0.1113 -0.2958
12374SOL    HW238891   3.444   4.673   4.985  0.1923 -0.7482 -0.8489
12375SOL     OW38892   8.634   4.316   6.158 -0.9598 -0.0595  0.0830
12375SOL    HW138893   8.724   4.344   6.139 -0.9343  0.4492  0.9248
12375SOL    HW238894   8.618   4.244   6.097  0.7417 -1.5277  1.2696
12376SOL     OW38895   7.012   4.825   2.454 -0.4610  0.3328 -0.1858
12376SOL    HW138896   7.094   4.848   2.411  0.2455  0.7258  1.3031
12376SOL    HW238897   6.957   4.790   2.384  1.4998 -1.3742 -0.9837
12377SOL     OW38898   2.756   2.761   5.415  0.3680  0.1651  0.2209
12377SOL    HW138899   2.685   2.697   5.420  0.2911  0.3192  3.0806
12377SOL    HW238900   2.713   2.846   5.425  0.6759  0.5402 -1.4061
12378SOL     OW38901   1.933   2.989   1.111  0.2376 -0.5225 -0.5444
12378SOL    HW138902   1.978   3.050   1.170  1.1908 -2.5526  0.9112
12378SOL    HW238903   1.895   3.046   1.043  1.6048  1.6226  0.3772
12379SOL     OW38904   1.837   4.794   5.592 -0.2340 -0.0229 -0.3178
12379SOL    HW138905   1.850   4.879   5.635 -0.5189  0.3089 -0.8719
12379SOL    HW238906   1.755   4.761   5.630 -0.8287  0.5627 -1.0419
12380SOL     OW38907   5.551   4.667   0.342  0.2347 -0.2171  0.2554
12380SOL    HW138908   5.518   4.756   0.330 -0.2897 -0.5442 -0.8241
12380SOL    HW238909   5.632   4.665   0.291  0.6646 -0.1437  0.9149
12381SOL     OW38910   7.908   0.605   8.187 -0.2201  0.3249  0.0672
12381SOL    HW138911   7.980   0.548   8.159 -0.3833  0.6155 -1.0191
12381SOL    HW238912   7.830   0.562   8.153 -0.5754  0.0061  1.2495
12382SOL     OW38913   4.393   3.390   9.848  0.2972  0.3303 -0.3881
12382SOL    HW138914   4.460   3.456   9.868  0.6396 -0.2164  0.2902
12382SOL    HW238915   4.387   3.391   9.753  1.6207  0.0650 -0.5020
12383SOL     OW38916   1.233   5.164   7.412 -0.2533  0.1646  0.2661
12383SOL    HW138917   1.263   5.221   7.483 -1.6303  2.8899 -1.1827
12383SOL    HW238918   1.276   5.199   7.334 -0.8835 -1.0135 -0.6251
12384SOL     OW38919   5.898   7.683   7.863 -0.2893  0.1184 -0.1028
12384SOL    HW138920   5.904   7.632   7.783 -0.2780 -0.0567  0.0093
12384SOL    HW238921   5.850   7.627   7.924 -0.1525  0.1843  0.0663
12385SOL     OW38922   9.731   7.334   8.655 -0.2958 -0.0953 -0.0322
12385SOL    HW138923   9.738   7.299   8.566 -1.1455  0.3331 -0.2786
12385SOL    HW238924   9.641   7.316   8.680 -0.1048 -0.0609  0.6872
12386SOL     OW38925   9.421   4.173   2.323  0.6536 -0.3306 -0.1277
12386SOL    HW138926   9.500   4.221   2.297  0.3447  0.2758  0.0551
12386SOL    HW238927   9.451   4.116   2.394  1.0912 -0.6624 -0.5635
12387SOL     OW38928   3.849   7.428   2.473 -0.1735 -0.9625  0.3215
12387SOL    HW138929   3.944   7.415   2.472 -0.0745 -0.3125  0.5569
12387SOL    HW238930   3.826   7.427   2.566 -0.1025  0.7971  0.3922
12388SOL     OW38931   9.439   4.859   8.937  0.7580 -0.1256  0.5647
12388SOL    HW138932   9.455   4.953   8.931  0.6125 -0.0839  0.7989
12388SOL    HW238933   9.347   4.852   8.964  0.5148 -0.3522 -0.3066
12389SOL     OW38934   8.613   7.159   5.922  0.8038 -0.2445 -0.1516
12389SOL    HW138935   8.554   7.139   5.995 -0.7834  0.4268 -1.1855
12389SOL    HW238936   8.684   7.096   5.931 -0.9899 -2.3736  0.1080
12390SOL     OW38937   8.370   3.229   0.866 -0.6400 -0.7074 -0.4324
12390SOL    HW138938   8.347   3.249   0.776  0.2056 -1.1415 -0.7529
12390SOL    HW238939   8.441   3.289   0.887 -0.9946 -0.4423  0.0304
12391SOL     OW38940   2.771   1.370   8.951  0.3792  0.5905 -0.4253
12391SOL    HW138941   2.866   1.364   8.945  0.2845  0.2010 -2.2614
12391SOL    HW238942   2.739   1.332   8.869 -1.4675 -1.5386  1.1604
12392SOL     OW38943   3.218   6.390   1.202 -0.4622 -0.6235  0.4672
12392SOL    HW138944   3.292   6.411   1.144 -0.8785  1.4151  0.5893
12392SOL    HW238945   3.237   6.302   1.235  1.1673 -0.7235 -0.6330
12393SOL     OW38946   2.489   6.045   7.877 -0.9046  0.5829  0.3427
12393SOL    HW138947   2.408   6.025   7.924 -1.0911  0.7190  0.0837
12393SOL    HW238948   2.557   6.043   7.944 -0.9426 -0.7284  0.3663
12394SOL     OW38949   6.513   6.710   5.589 -0.0551 -0.1354 -0.0754
12394SOL    HW138950   6.606   6.722   5.608  0.1951 -0.3887 -1.0716
12394SOL    HW238951   6.478   6.664   5.665  1.0204 -1.6895 -0.4837
12395SOL     OW38952   3.095   3.853   5.919  0.0879  0.2114  0.1143
12395SOL    HW138953   3.088   3.850   5.824  2.9026 -1.9299 -0.1278
12395SOL    HW238954   3.127   3.942   5.938  1.3952  0.0334 -1.1332
12396SOL     OW38955   2.395   1.093   7.347  0.2485  0.0168  0.8283
12396SOL    HW138956   2.405   1.114   7.255  0.5182  1.7316  1.2037
12396SOL    HW238957   2.411   1.176   7.392 -0.2819 -0.6859  2.3888
12397SOL     OW38958   8.425   2.291   5.393 -0.3628  0.5416  0.3839
12397SOL    HW138959   8.510   2.273   5.354 -0.3284  1.1373  0.1755
12397SOL    HW238960   8.426   2.244   5.476  0.0907  0.3841  0.2929
12398SOL     OW38961   8.115   6.329   0.958  0.4981  0.0810 -0.5429
12398SOL    HW138962   8.037   6.367   0.999  1.0921 -0.1545  0.8664
12398SOL    HW238963   8.163   6.404   0.924 -0.0215  0.2855 -0.8381
12399SOL     OW38964   3.848   3.009   2.484 -0.5568  0.3064 -0.6869
12399SOL    HW138965   3.868   2.915   2.490 -0.5591  0.3765  2.5875
12399SOL    HW238966   3.896   3.039   2.408 -0.4230 -2.3029 -1.7590
12400SOL     OW38967   1.198   6.367   0.977 -0.0215  0.2999 -0.2639
12400SOL    HW138968   1.210   6.364   0.882  2.3069  1.1845 -0.0660
12400SOL    HW238969   1.159   6.282   0.999  1.3123 -0.7752 -1.7924
12401SOL     OW38970   5.727   2.904   9.012  0.1601 -0.8775 -0.2859
12401SOL    HW138971   5.737   2.812   9.038  0.6256 -0.3556  1.4561
12401SOL    HW238972   5.780   2.953   9.074  0.4824  0.5435 -1.6214
12402SOL     OW38973   0.902   5.321   1.769 -0.3121 -0.3505 -0.3042
12402SOL    HW138974   0.843   5.249   1.748  0.2556 -0.9139  0.0038
12402SOL    HW238975   0.964   5.284   1.832 -0.3311  0.5536  0.2619
12403SOL     OW38976   7.341   1.671   2.904  0.1754 -0.3467  0.1801
12403SOL    HW138977   7.293   1.682   2.987 -0.3015  0.6638 -0.2143
12403SOL    HW238978   7.382   1.585   2.912  0.5065 -0.0850  1.6588
12404SOL     OW38979   2.733   3.514   6.486  0.3005  0.2795 -0.2148
12404SOL    HW138980   2.744   3.419   6.480 -0.7418  0.2485 -3.7843
12404SOL    HW238981   2.789   3.550   6.417  1.6038  2.4391  1.8007
12405SOL     OW38982   9.248   9.652   4.412 -0.2113 -0.0439  0.2331
12405SOL    HW138983   9.304   9.669   4.336  0.6124  2.6650  1.3093
12405SOL    HW238984   9.305   9.607   4.475 -0.8268 -2.0730 -0.5898
12406SOL     OW38985   1.202   5.199   6.442  0.0677  0.0716 -0.1266
12406SOL    HW138986   1.150   5.257   6.386 -0.1175 -0.2479 -0.2888
12406SOL    HW238987   1.265   5.257   6.485 -1.5435  0.7727  1.4220
12407SOL     OW38988   3.927   6.142   6.179  0.0261 -0.3869  0.1439
12407SOL    HW138989   3.854   6.193   6.214  0.1046 -1.0648  1.3627
12407SOL    HW238990   3.907   6.132   6.086 -0.5438  0.8981  0.1086
12408SOL     OW38991   5.544   5.978   8.035  0.3355 -0.0751 -0.5551
12408SOL    HW138992   5.635   5.991   8.009  0.8459 -0.0870  1.1407
12408SOL    HW238993   5.493   6.019   7.965  1.5550 -1.6142 -2.4654
12409SOL     OW38994   9.770   0.024   5.392 -0.3723  0.2336 -0.8297
12409SOL    HW138995   9.705   0.063   5.449  1.1866 -0.2475  1.4223
12409SOL    HW238996   9.841   0.088   5.389  0.3299 -0.5199 -0.7054
12410SOL     OW38997   3.992   5.966   5.333 -0.4352  0.0246 -0.0115
12410SOL    HW138998   4.016   6.059   5.329  0.6208 -0.2702 -1.5363
12410SOL    HW238999   3.933   5.960   5.408 -0.8050  1.9871 -0.0711
12411SOL     OW39000   7.914   1.044   2.760 -0.1055 -0.2742 -0.3444
12411SOL    HW139001   7.950   1.133   2.768 -1.0956  0.0617  0.6161
12411SOL    HW239002   7.819   1.056   2.765 -0.2561 -1.3751 -0.3773
12412SOL     OW39003   3.782   7.468   5.786 -0.2114  0.0475  0.5465
12412SOL    HW139004   3.731   7.472   5.705 -0.5062  0.3627  0.7448
12412SOL    HW239005   3.854   7.407   5.767 -1.4627 -1.5488  0.7155
12413SOL     OW39006   2.126   0.299   8.002  0.3845  0.6869  0.1311
12413SOL    HW139007   2.084   0.385   8.006 -0.4899  0.3456 -1.2472
12413SOL    HW239008   2.208   0.314   7.955 -0.0113  0.6774 -0.5633
12414SOL     OW39009   6.959   3.945   4.179 -0.1520 -0.0950  0.2290
12414SOL    HW139010   6.919   3.885   4.116 -0.2549 -0.6284  0.7948
12414SOL    HW239011   7.028   3.990   4.130  0.0872 -0.8518 -0.1310
12415SOL     OW39012   8.511   6.391   4.789 -0.0129  0.7562  0.9976
12415SOL    HW139013   8.548   6.342   4.715  0.2286 -1.1607  2.2946
12415SOL    HW239014   8.477   6.472   4.751  0.1908 -0.1260 -1.1790
12416SOL     OW39015   9.308   6.335   4.496 -0.1981 -0.1370 -0.6727
12416SOL    HW139016   9.320   6.250   4.539  0.0980 -0.4006 -1.2770
12416SOL    HW239017   9.391   6.352   4.451  0.2563  1.1202  0.5576
12417SOL     OW39018   5.765   0.256   6.324 -0.0138 -0.5414  0.4889
12417SOL    HW139019   5.833   0.263   6.391 -1.3723  4.7677  1.8125
12417SOL    HW239020   5.807   0.285   6.244 -0.0650  0.3276  0.7641
12418SOL     OW39021   9.123   9.131   0.088 -0.3218 -0.2818  0.4291
12418SOL    HW139022   9.114   9.219   0.124 -0.6761  0.2254 -0.8385
12418SOL    HW239023   9.039   9.112   0.047  0.1419 -0.6877 -0.3833
12419SOL     OW39024   7.560   1.398   0.550 -0.0254  0.5392  0.6788
12419SOL    HW139025   7.654   1.381   0.559 -0.0866  0.0894  0.4929
12419SOL    HW239026   7.552   1.440   0.464  0.0484  0.9017  0.8499
12420SOL     OW39027   8.539   1.439   3.470 -0.0404 -0.0948 -0.2329
12420SOL    HW139028   8.601   1.392   3.414  1.5835  0.2437  1.2228
12420SOL    HW239029   8.500   1.505   3.412 -0.5940 -1.6010 -1.6830
12421SOL     OW39030   3.782   5.639   1.605  0.0997 -0.3388 -0.0903
12421SOL    HW139031   3.692   5.614   1.621  0.0596 -0.0517  0.1399
12421SOL    HW239032   3.812   5.579   1.537 -0.3623 -0.2304 -0.3977
12422SOL     OW39033   9.284   1.818   2.645 -0.1596 -0.7693 -0.2294
12422SOL    HW139034   9.359   1.817   2.586  0.2997  2.3504  0.1257
12422SOL    HW239035   9.321   1.808   2.732 -0.4863 -1.7961 -0.1848
12423SOL     OW39036   6.532   3.647   6.781  0.0755  0.5184 -0.0128
12423SOL    HW139037   6.515   3.668   6.873  2.2901  0.2754  0.4881
12423SOL    HW239038   6.505   3.725   6.733 -0.8570  0.7463  0.8481
12424SOL     OW39039   4.265   9.601   7.633  0.4965 -0.4911 -0.2713
12424SOL    HW139040   4.321   9.578   7.707 -0.0731  0.1048  0.3620
12424SOL    HW239041   4.260   9.697   7.636  2.1363 -0.2618 -2.3221
12425SOL     OW39042   2.610   4.048   8.802 -0.2062 -0.2834 -0.2717
12425SOL    HW139043   2.668   4.113   8.762  0.4241  0.1900  1.3182
12425SOL    HW239044   2.532   4.098   8.825  0.1868 -0.1069  0.7425
12426SOL     OW39045   4.611   3.043   8.108  0.5391 -0.0373  0.4602
12426SOL    HW139046   4.699   3.016   8.079  0.5231 -0.1518  0.5166
12426SOL    HW239047   4.556   2.966   8.093  0.1390  0.4736 -0.8969
12427SOL     OW39048   9.308   7.577   4.000 -0.3551 -0.2220 -0.5143
12427SOL    HW139049   9.286   7.670   4.006 -2.4054 -0.7219  0.5145
12427SOL    HW239050   9.388   7.575   3.947  0.6848  2.2209  0.7870
12428SOL     OW39051   4.474   7.769   3.591 -0.4359 -0.1821 -0.2592
12428SOL    HW139052   4.383   7.762   3.618  0.0130 -1.2937  1.1244
12428SOL    HW239053   4.524   7.764   3.673  0.9280 -1.4416 -1.1020
12429SOL     OW39054   4.449   5.038   8.383  0.6350 -0.0586  0.2680
12429SOL    HW139055   4.446   5.133   8.372 -2.2529  0.0378  1.0302
12429SOL    HW239056   4.460   5.025   8.477  1.7385 -0.5193  0.0923
12430SOL     OW39057   2.623   9.791   1.405 -0.1523 -0.3819 -0.7708
12430SOL    HW139058   2.590   9.738   1.333  1.0049 -1.1454 -0.7719
12430SOL    HW239059   2.685   9.852   1.364  0.4899 -0.8030 -0.4341
12431SOL     OW39060   2.432   9.507   5.245 -0.3997 -0.3368 -0.6736
12431SOL    HW139061   2.416   9.479   5.336 -1.6353 -1.3439 -1.1714
12431SOL    HW239062   2.397   9.436   5.192  1.2201 -0.2315 -1.9643
12432SOL     OW39063   1.624   2.135   5.959  0.3658  0.0366  0.3388
12432SOL    HW139064   1.596   2.093   5.878  1.9560 -3.1223  1.2615
12432SOL    HW239065   1.627   2.064   6.023  1.1329  2.0157  2.6803
12433SOL     OW39066   7.052   0.923   3.011 -0.1391  0.1633 -0.0636
12433SOL    HW139067   7.132   0.917   2.958 -0.5595 -0.5832 -0.6260
12433SOL    HW239068   6.982   0.898   2.951 -0.9196  1.7415  0.1539
12434SOL     OW39069   6.274   7.611   2.120  0.1802 -0.6987 -0.5819
12434SOL    HW139070   6.338   7.676   2.150 -0.8156 -0.3346  0.8013
12434SOL    HW239071   6.292   7.533   2.172  1.3028 -1.5751 -2.1649
12435SOL     OW39072   7.033   0.088   4.995 -0.0236 -0.0229 -0.1076
12435SOL    HW139073   7.029  -0.007   4.987  1.5530 -0.1713  0.4710
12435SOL    HW239074   6.943   0.114   5.017 -0.7245 -1.2330 -1.3782
12436SOL     OW39075   8.670   8.684   5.759  0.8030  0.1205  0.1415
12436SOL    HW139076   8.630   8.763   5.725  1.3860 -0.1261 -1.2058
12436SOL    HW239077   8.724   8.713   5.833  1.0933  0.9918 -0.4081
12437SOL     OW39078   9.478   5.676   8.661  0.2326 -0.4421 -0.2319
12437SOL    HW139079   9.516   5.743   8.718 -1.7971  2.6783 -2.2100
12437SOL    HW239080   9.410   5.635   8.714  0.8917 -0.2941  0.7525
12438SOL     OW39081   0.368   6.016   9.568  0.4391 -0.2314  0.0376
12438SOL    HW139082   0.305   6.002   9.638 -1.4868 -0.4239 -1.6481
12438SOL    HW239083   0.347   6.102   9.532  3.2414  1.1706  1.3996
12439SOL     OW39084   4.948   4.133   1.218  0.3057  0.1042  0.0128
12439SOL    HW139085   4.872   4.093   1.260 -0.6045 -0.2162 -1.8510
12439SOL    HW239086   4.943   4.225   1.244 -0.1250 -0.1147  0.7412
12440SOL     OW39087   5.203   5.529   1.828 -0.2224  0.6427  0.2432
12440SOL    HW139088   5.169   5.455   1.777 -2.3854  1.4126  0.4445
12440SOL    HW239089   5.256   5.488   1.896 -1.5375 -0.7871  0.4821
12441SOL     OW39090   2.357   4.843   3.070 -0.3788  0.5367 -0.3247
12441SOL    HW139091   2.355   4.927   3.025  3.4010  1.1515  0.3891
12441SOL    HW239092   2.403   4.859   3.152  0.9579 -2.2523 -0.3939
12442SOL     OW39093   2.736   7.976   2.362 -0.6424  0.5202 -0.3295
12442SOL    HW139094   2.806   7.934   2.311 -0.2699  0.6326  0.0802
12442SOL    HW239095   2.667   7.909   2.367 -0.7413  0.5547 -1.0820
12443SOL     OW39096   1.967   5.250   7.244  0.2254 -0.6729 -0.4959
12443SOL    HW139097   2.003   5.260   7.332 -0.2546 -0.8123 -0.2809
12443SOL    HW239098   2.008   5.170   7.211 -0.3930 -1.2137  0.0070
12444SOL     OW39099   1.209   5.844   2.220  0.7381 -0.3050 -0.7201
12444SOL    HW139100   1.245   5.932   2.234 -0.1361 -0.2966  1.9799
12444SOL    HW239101   1.129   5.859   2.169  1.9948  0.1112 -2.7150
12445SOL     OW39102   4.136   1.447   3.369  0.0875 -0.1577 -0.0495
12445SOL    HW139103   4.121   1.466   3.462  0.1906  0.2340 -0.1114
12445SOL    HW239104   4.226   1.415   3.365  0.5128  1.0003 -0.1741
12446SOL     OW39105   5.190   3.721   2.495 -0.4322 -0.2896 -0.6098
12446SOL    HW139106   5.165   3.669   2.571 -0.6702  0.5440 -0.1025
12446SOL    HW239107   5.111   3.727   2.442 -0.9084  1.0191  0.2107
12447SOL     OW39108   3.770   8.111   4.165  0.3130 -0.0977 -0.1415
12447SOL    HW139109   3.797   8.157   4.086  2.3833  2.9076  2.0459
12447SOL    HW239110   3.853   8.088   4.208 -0.6744 -0.0088  1.9420
12448SOL     OW39111   3.414   0.813   2.633  0.3417  0.3142 -0.0533
12448SOL    HW139112   3.343   0.826   2.696 -0.1423  2.0644 -0.8944
12448SOL    HW239113   3.487   0.780   2.685 -0.6634 -0.2417  1.0570
12449SOL     OW39114   4.237   3.856   0.480  0.5496  0.0516 -0.0042
12449SOL    HW139115   4.202   3.907   0.553  0.3517  2.7666 -1.8370
12449SOL    HW239116   4.208   3.904   0.402  1.4292 -2.2489 -1.8534
12450SOL     OW39117   7.135   2.849   0.573  0.2272  0.6801 -0.2333
12450SOL    HW139118   7.213   2.884   0.530  0.9527  0.6872  1.0352
12450SOL    HW239119   7.127   2.760   0.538  0.7248  0.7314 -0.4950
12451SOL     OW39120   1.197   8.123   8.127  0.7655 -0.4043  0.1962
12451SOL    HW139121   1.224   8.045   8.176  0.1398  0.0855  1.3662
12451SOL    HW239122   1.102   8.126   8.138  0.3505 -1.1148 -2.3478
12452SOL     OW39123   1.355   8.565   3.460 -0.9744  0.3781 -0.4104
12452SOL    HW139124   1.312   8.617   3.528 -0.5508 -0.7877  0.7802
12452SOL    HW239125   1.358   8.476   3.495  2.0925  0.3148 -0.5587
12453SOL     OW39126   5.481   9.234   8.495  0.9117 -0.3016 -0.6101
12453SOL    HW139127   5.526   9.189   8.423  2.0522  2.2885 -1.6425
12453SOL    HW239128   5.519   9.322   8.495 -0.8949  0.5583  1.5530
12454SOL     OW39129   4.583   4.180   5.335  0.7890 -0.6611 -0.2442
12454SOL    HW139130   4.530   4.167   5.256  1.5219  2.0585 -1.2964
12454SOL    HW239131   4.518   4.187   5.405  0.0576 -2.0158 -0.7426
12455SOL     OW39132   0.213   9.081   8.212  0.2979  0.4239  0.1906
12455SOL    HW139133   0.178   9.146   8.152  0.1966 -1.7324 -2.2774
12455SOL    HW239134   0.305   9.072   8.187  0.3788 -0.1701  0.6668
12456SOL     OW39135   6.366   4.813   5.483 -0.9496  0.3878 -0.3973
12456SOL    HW139136   6.423   4.779   5.413  2.0249  1.7629  1.1781
12456SOL    HW239137   6.306   4.872   5.438 -0.7803 -0.6405 -2.0831
12457SOL     OW39138   9.117   7.921   8.440 -0.2448  0.0414 -0.9725
12457SOL    HW139139   9.198   7.919   8.389  0.0748 -0.8608 -0.4472
12457SOL    HW239140   9.094   7.829   8.453 -0.9613  0.2788 -0.4828
12458SOL     OW39141   6.906   0.435   6.431  0.0612 -0.1245 -0.6798
12458SOL    HW139142   6.849   0.375   6.383 -1.4768 -0.2014  1.1563
12458SOL    HW239143   6.884   0.522   6.397 -0.4212 -0.2526 -0.6982
12459SOL     OW39144   5.901   4.369   8.810  0.0021 -0.7650  0.0670
12459SOL    HW139145   5.983   4.323   8.828 -1.5635 -3.0134  2.0357
12459SOL    HW239146   5.919   4.460   8.833  2.1880 -0.9811 -0.5262
12460SOL     OW39147   0.155   2.404   5.390 -0.2673  0.1580  0.0061
12460SOL    HW139148   0.209   2.392   5.469 -0.8466 -1.8285  0.1525
12460SOL    HW239149   0.135   2.498   5.389  1.6694  0.6395  0.9323
12461SOL     OW39150   3.047   1.841   2.802  0.0975  0.2623  0.0623
12461SOL    HW139151   2.999   1.838   2.885 -0.6636  2.2789 -0.2459
12461SOL    HW239152   3.108   1.914   2.812  2.1379 -1.3124 -0.1191
12462SOL     OW39153   3.210   9.421   0.642 -0.0529 -0.0470  0.0289
12462SOL    HW139154   3.175   9.481   0.708  0.4757 -0.4746  0.7103
12462SOL    HW239155   3.249   9.479   0.576 -0.2298  0.3807  0.2933
12463SOL     OW39156   1.346   9.402   1.299  0.1277 -0.3537  0.0909
12463SOL    HW139157   1.407   9.471   1.326  0.8046 -0.3245 -1.4274
12463SOL    HW239158   1.398   9.344   1.243 -1.1005 -0.6356 -0.7998
12464SOL     OW39159   1.507   7.407   6.981 -0.6548 -0.2467  0.4549
12464SOL    HW139160   1.556   7.449   7.051 -0.7894 -0.1637  0.4984
12464SOL    HW239161   1.415   7.416   7.006 -0.6467 -1.6013  1.0676
12465SOL     OW39162   4.644   2.141   5.947  0.3618  0.3958  0.1007
12465SOL    HW139163   4.687   2.149   5.862 -1.6680 -1.8253 -1.2565
12465SOL    HW239164   4.601   2.226   5.959  0.6071  0.7219 -1.1381
12466SOL     OW39165   0.555   4.531   9.513 -0.1096 -0.5687 -0.4583
12466SOL    HW139166   0.485   4.593   9.492 -0.3385 -1.0159 -1.0141
12466SOL    HW239167   0.513   4.467   9.571 -0.0027 -0.4902 -0.2945
12467SOL     OW39168   5.578   1.437   4.218  0.3094 -0.0932  0.3210
12467SOL    HW139169   5.620   1.379   4.281  0.1156 -0.3336  0.2338
12467SOL    HW239170   5.592   1.395   4.133  2.1532  1.1318 -0.0571
12468SOL     OW39171   0.977   0.351   3.908  0.2463 -0.4433 -0.5910
12468SOL    HW139172   0.947   0.315   3.825 -3.1787 -0.3510  0.4777
12468SOL    HW239173   0.934   0.436   3.914 -1.7140 -1.5028  2.3184
12469SOL     OW39174   0.747   0.669   0.908 -0.3605  0.2234  0.1316
12469SOL    HW139175   0.773   0.761   0.912 -1.9943  0.6831  0.9620
12469SOL    HW239176   0.666   0.669   0.857  0.1580 -0.9062 -0.7349
12470SOL     OW39177   5.777   5.636   5.833  0.3815  0.2168 -0.4643
12470SOL    HW139178   5.823   5.578   5.772 -0.1230  0.4108 -1.0364
12470SOL    HW239179   5.846   5.674   5.886  0.6585 -1.7661  0.7084
12471SOL     OW39180   2.500   4.343   5.126  0.1594  0.2469  0.3976
12471SOL    HW139181   2.507   4.338   5.030  0.0852  0.3260  0.3873
12471SOL    HW239182   2.432   4.280   5.148  1.5328 -1.2123  0.5865
12472SOL     OW39183   1.614   1.052   8.470 -0.7776  0.7708 -0.1160
12472SOL    HW139184   1.549   0.989   8.501  0.4967  0.1401  1.4148
12472SOL    HW239185   1.633   1.025   8.380  1.3093 -2.4817  1.1489
12473SOL     OW39186   0.538   3.054   9.192  0.1588 -0.3677  0.0838
12473SOL    HW139187   0.474   2.988   9.166 -0.1550  0.1855 -0.5996
12473SOL    HW239188   0.527   3.124   9.128  1.4926 -0.2789 -0.0887
12474SOL     OW39189   7.632   9.240   2.502 -0.4948  0.3225 -0.1903
12474SOL    HW139190   7.568   9.308   2.521  0.0325  0.2829  1.9150
12474SOL    HW239191   7.717   9.282   2.518 -0.1084 -0.4215 -0.2536
12475SOL     OW39192   9.578   9.540   7.493 -0.1539 -0.2695  0.4751
12475SOL    HW139193   9.504   9.483   7.516  0.2059 -0.0514  2.3944
12475SOL    HW239194   9.644   9.480   7.458 -1.1004 -0.5024 -0.9878
12476SOL     OW39195   7.914   0.885   8.175  0.1333 -0.1558  0.4293
12476SOL    HW139196   7.905   0.791   8.159 -1.3629  0.1483 -0.8762
12476SOL    HW239197   7.924   0.893   8.269 -1.3640 -1.5503  0.7489
12477SOL     OW39198   7.947   6.328   3.213  0.1482  0.3276 -0.1332
12477SOL    HW139199   7.980   6.326   3.123  1.3993  1.0607  0.2706
12477SOL    HW239200   7.890   6.405   3.216  0.1209  0.3142 -0.2916
12478SOL     OW39201   2.514   8.299   7.198 -0.0578 -0.4316  0.2239
12478SOL    HW139202   2.603   8.278   7.171  0.0529 -0.4749  0.6091
12478SOL    HW239203   2.489   8.374   7.144 -0.0312 -0.8271 -0.3451
12479SOL     OW39204   8.940   8.999   4.372 -0.0463  0.3718 -0.1189
12479SOL    HW139205   8.925   8.976   4.280  1.5396  0.1331 -0.3511
12479SOL    HW239206   8.932   8.915   4.418  0.5120  0.2569 -0.2301
12480SOL     OW39207   3.646   6.097   7.090  0.1242 -0.3974  1.0668
12480SOL    HW139208   3.573   6.037   7.079  1.2160 -1.2597 -3.3571
12480SOL    HW239209   3.703   6.053   7.153  0.1616 -3.4152 -0.8540
12481SOL     OW39210   3.917   3.333   5.866  0.3583  0.2177 -0.2220
12481SOL    HW139211   3.984   3.331   5.934  2.5586  0.6438 -2.2324
12481SOL    HW239212   3.887   3.242   5.859  1.4828 -0.1956  0.0510
12482SOL     OW39213   2.209   0.450   2.040  0.0971  0.4947  0.5018
12482SOL    HW139214   2.288   0.405   2.072 -0.0447 -0.5536 -0.5574
12482SOL    HW239215   2.239   0.499   1.963  0.1407  1.8266  1.3480
12483SOL     OW39216   7.281   1.870   6.081  0.4930  0.2319  0.3741
12483SOL    HW139217   7.325   1.888   5.998 -0.7363  2.0142  0.0474
12483SOL    HW239218   7.351   1.877   6.146  1.2457  0.0518 -0.3933
12484SOL     OW39219   3.913   1.643   6.215 -0.2190  0.6498  0.3015
12484SOL    HW139220   3.940   1.722   6.167 -2.9068  0.7199 -1.2860
12484SOL    HW239221   3.985   1.582   6.202  0.0503  1.3758 -2.1866
12485SOL     OW39222   4.054   5.944   9.246  0.3280  0.6299  0.4726
12485SOL    HW139223   4.024   6.035   9.245  1.6494  1.1448 -2.3242
12485SOL    HW239224   4.143   5.948   9.280  1.4188  0.9116 -2.1240
12486SOL     OW39225   3.791   6.858   4.784 -0.2699 -0.2317  0.0334
12486SOL    HW139226   3.811   6.914   4.859 -0.7888  0.4928 -0.3584
12486SOL    HW239227   3.821   6.907   4.708 -0.2937 -0.6958 -0.2800
12487SOL     OW39228   8.936   1.349   9.373 -0.3035  0.5940 -0.8596
12487SOL    HW139229   8.909   1.360   9.282 -0.0799 -1.1630 -1.1762
12487SOL    HW239230   8.858   1.316   9.418 -0.2140  0.7785 -0.5615
12488SOL     OW39231   4.201   1.114   3.725 -0.4055  0.5869 -0.2245
12488SOL    HW139232   4.210   1.093   3.818 -0.8535  0.1092 -0.2852
12488SOL    HW239233   4.290   1.131   3.695 -0.1316 -0.3568  0.0380
12489SOL     OW39234   4.746   9.465   3.368  0.4818 -0.3408  0.2583
12489SOL    HW139235   4.766   9.379   3.405  0.1964 -0.4464  0.1683
12489SOL    HW239236   4.657   9.484   3.397  0.4085 -0.2407 -0.0255
12490SOL     OW39237   0.023   6.803   9.770  0.3142 -0.0668 -0.2028
12490SOL    HW139238  -0.072   6.814   9.771 -0.1006 -2.1091 -2.8888
12490SOL    HW239239   0.055   6.877   9.719  0.3202  1.0622  1.3711
12491SOL     OW39240   7.933   7.314   0.975 -0.4181 -0.3605  0.2609
12491SOL    HW139241   7.898   7.375   1.040 -0.9885 -2.1134  1.7182
12491SOL    HW239242   8.011   7.357   0.940 -2.3570  2.4444 -0.9923
12492SOL     OW39243   0.977   4.678   1.279 -0.0787 -0.2870  0.0958
12492SOL    HW139244   0.957   4.767   1.251  0.2235  0.2003  1.3461
12492SOL    HW239245   0.924   4.665   1.358  0.3621 -0.9857  0.2864
12493SOL     OW39246   1.654   6.650   6.992 -0.1811  0.0187 -0.1266
12493SOL    HW139247   1.592   6.663   7.063  0.7399  0.5347  0.6115
12493SOL    HW239248   1.616   6.695   6.918 -0.8424  0.0431  0.2196
12494SOL     OW39249   2.496   9.551   6.273  0.0122 -0.5084 -0.2005
12494SOL    HW139250   2.560   9.617   6.244  1.0581 -1.4419 -0.0738
12494SOL    HW239251   2.413   9.598   6.273  0.7322  0.8379 -0.0495
12495SOL     OW39252   6.216   2.594   4.650 -0.0465 -0.4574  0.3050
12495SOL    HW139253   6.171   2.605   4.566 -0.5233  1.0149  0.7221
12495SOL    HW239254   6.245   2.503   4.650 -0.7591 -0.7117 -1.0988
12496SOL     OW39255   2.651   2.312   9.777  0.0366  0.4582  0.3842
12496SOL    HW139256   2.666   2.391   9.726 -0.2085  0.7392  0.7452
12496SOL    HW239257   2.682   2.241   9.720 -0.1795  0.7687 -0.1312
12497SOL     OW39258   8.916   5.481   3.439  0.1554 -0.0828 -0.5174
12497SOL    HW139259   8.971   5.519   3.508  0.1933 -0.0638 -0.5582
12497SOL    HW239260   8.906   5.551   3.375  0.2340 -0.1458 -0.5980
12498SOL     OW39261   7.621   1.238   5.695  0.6150 -0.1089 -0.7817
12498SOL    HW139262   7.537   1.191   5.699  0.4400  0.2050 -0.7426
12498SOL    HW239263   7.598   1.325   5.663  0.8354  0.1907 -0.1448
12499SOL     OW39264   4.554   0.445   9.696 -0.1188 -0.2904  0.1201
12499SOL    HW139265   4.502   0.389   9.754 -0.9874  1.5858  1.2888
12499SOL    HW239266   4.493   0.515   9.672  1.2107  0.7064 -0.4065
12500SOL     OW39267   0.212   2.375   9.486 -0.3712  0.2980 -0.1979
12500SOL    HW139268   0.253   2.394   9.570  0.3064  1.5409 -0.7776
12500SOL    HW239269   0.286   2.354   9.428 -0.4485  2.6982 -1.2983
12501SOL     OW39270   1.395   9.768   2.715 -0.4981  0.9763  0.5774
12501SOL    HW139271   1.417   9.853   2.754  0.0720  0.6344  1.0261
12501SOL    HW239272   1.300   9.763   2.720 -0.6797  2.2224 -0.8113
12502SOL     OW39273   9.428   0.521   9.589 -0.2925 -0.1247 -0.3316
12502SOL    HW139274   9.393   0.499   9.675 -2.1920  1.1301 -0.7185
12502SOL    HW239275   9.423   0.616   9.585  0.1806 -0.1399 -1.6692
12503SOL     OW39276   9.729   2.023   3.480  0.2596  0.3786 -0.7603
12503SOL    HW139277   9.797   1.955   3.482 -1.1578 -1.0839  0.1079
12503SOL    HW239278   9.679   2.003   3.400 -0.5180 -0.0037 -0.1935
12504SOL     OW39279   4.378   9.813   6.811  0.0554  0.2870 -0.5621
12504SOL    HW139280   4.320   9.738   6.820  1.2446 -0.9457 -2.3466
12504SOL    HW239281   4.386   9.850   6.899  0.1852 -2.2784  0.5753
12505SOL     OW39282   4.622   5.831   6.559  0.1617  0.1825  0.3561
12505SOL    HW139283   4.544   5.831   6.505  1.5298  2.2968 -1.8108
12505SOL    HW239284   4.630   5.921   6.591  1.5857 -0.0328  0.6966
12506SOL     OW39285   8.633   0.846   4.520  0.2753 -0.8043 -0.1570
12506SOL    HW139286   8.556   0.855   4.463  0.4052  0.2759 -0.1921
12506SOL    HW239287   8.698   0.801   4.466 -0.0258 -0.9172 -0.4292
12507SOL     OW39288   6.179   0.563   0.945 -0.3472 -0.6849  0.3263
12507SOL    HW139289   6.209   0.578   0.855 -1.2750  0.0217  0.1265
12507SOL    HW239290   6.253   0.592   0.999 -0.8201  1.6305 -0.1489
12508SOL     OW39291   6.504   7.546   4.449 -0.3969  0.0827  0.3335
12508SOL    HW139292   6.583   7.580   4.491 -0.5627 -0.8620  1.4752
12508SOL    HW239293   6.441   7.618   4.453 -0.6923 -0.2424  2.5429
12509SOL     OW39294   7.602   1.838   6.552  0.0512  0.9841 -0.2232
12509SOL    HW139295   7.643   1.803   6.631 -1.7215  0.2204  0.3968
12509SOL    HW239296   7.622   1.773   6.485 -3.4329 -1.6429  0.9739
12510SOL     OW39297   7.505   7.671   0.585  0.0175 -0.4247  1.0000
12510SOL    HW139298   7.472   7.760   0.599  0.8718 -0.1642  1.4584
12510SOL    HW239299   7.428   7.615   0.590 -0.7685  0.4253 -0.8048
12511SOL     OW39300   4.014   0.639   8.802  0.1025 -0.2655 -0.4772
12511SOL    HW139301   4.069   0.717   8.808  1.2049 -0.7396 -3.2471
12511SOL    HW239302   4.019   0.601   8.890  3.4349  0.2386 -0.3102
12512SOL     OW39303   8.949   7.000   0.958 -1.7930 -0.3002 -0.4135
12512SOL    HW139304   8.946   6.908   0.933 -1.4763 -0.6401  0.7480
12512SOL    HW239305   9.006   7.002   1.036 -0.4170  1.0903 -1.3860
12513SOL     OW39306   5.792   7.779   4.858  0.0169 -0.0296 -0.1488
12513SOL    HW139307   5.887   7.772   4.852 -0.0253 -2.3256  0.8626
12513SOL    HW239308   5.778   7.846   4.925  0.9809 -0.6602  0.7241
12514SOL     OW39309   3.334   9.663   3.523 -0.6474 -0.1994 -0.0293
12514SOL    HW139310   3.393   9.605   3.476 -1.3732 -0.5153 -0.5779
12514SOL    HW239311   3.312   9.615   3.603  0.6508  0.3734  0.7024
12515SOL     OW39312   3.400   6.266   5.533  0.1350  0.0145 -0.1031
12515SOL    HW139313   3.454   6.213   5.474  0.5252 -1.1419  1.2519
12515SOL    HW239314   3.376   6.207   5.604 -1.7579  0.8931  0.0619
12516SOL     OW39315   7.007   1.373   5.381 -0.1298  0.0286 -0.3866
12516SOL    HW139316   6.926   1.384   5.331 -0.5506  1.4770  0.5496
12516SOL    HW239317   7.040   1.462   5.394  0.3948 -0.3617  1.1906
12517SOL     OW39318   8.810   7.493   0.874 -0.2907  0.5339  0.4260
12517SOL    HW139319   8.753   7.455   0.807  2.3500 -0.6264 -1.3312
12517SOL    HW239320   8.816   7.425   0.942  0.1061  0.0497 -0.0854
12518SOL     OW39321   5.051   7.395   6.414 -0.2820 -0.2337 -0.1504
12518SOL    HW139322   5.052   7.466   6.478 -1.7379  1.3500 -1.7800
12518SOL    HW239323   4.993   7.328   6.452 -0.6323  0.4069  0.4531
12519SOL     OW39324   0.261   7.509   6.848  0.7271 -0.4435 -0.1656
12519SOL    HW139325   0.257   7.476   6.938 -1.1508 -1.5845 -0.5994
12519SOL    HW239326   0.302   7.438   6.799 -0.2928 -0.7771 -0.5580
12520SOL     OW39327   0.010   1.757   7.577  0.6125 -0.2421 -0.1083
12520SOL    HW139328  -0.049   1.736   7.649 -2.2595  1.2514 -1.8205
12520SOL    HW239329   0.020   1.674   7.529 -1.7131 -0.1984 -0.7920
12521SOL     OW39330   1.477   8.890   4.011  0.0919 -0.8496  0.0608
12521SOL    HW139331   1.415   8.865   3.942  0.6424 -0.4578 -0.5954
12521SOL    HW239332   1.564   8.879   3.970  0.3996  0.4799  0.2902
12522SOL     OW39333   7.519   1.638   4.725 -0.0674 -0.1448 -0.4630
12522SOL    HW139334   7.547   1.575   4.659 -1.0790  0.3938 -1.4343
12522SOL    HW239335   7.565   1.611   4.805 -0.6078 -2.2221 -0.7893
12523SOL     OW39336   7.092   4.826   8.501 -0.2887  0.2019 -0.2941
12523SOL    HW139337   7.083   4.918   8.475 -3.7661  0.8992  2.5034
12523SOL    HW239338   7.181   4.820   8.536  0.3099  2.2900 -1.2889
12524SOL     OW39339   2.242   5.712   1.897  0.0981 -0.1089  0.0479
12524SOL    HW139340   2.157   5.720   1.854 -1.3090 -0.9839  2.4623
12524SOL    HW239341   2.243   5.783   1.961  1.1910 -0.1388  0.0846
12525SOL     OW39342   6.061   9.157   3.313  0.3491 -0.7880  0.0016
12525SOL    HW139343   6.145   9.122   3.344  0.9130 -0.8345 -1.5316
12525SOL    HW239344   6.020   9.084   3.267  0.1160 -0.3518 -0.4931
12526SOL     OW39345   0.554   0.739   8.938 -0.2885 -0.5359  0.2962
12526SOL    HW139346   0.590   0.740   9.027  0.1186 -1.9097  0.1813
12526SOL    HW239347   0.593   0.815   8.896  0.9382 -0.8669  0.7816
12527SOL     OW39348   0.364   1.991   6.445 -0.6297  0.7045  0.1639
12527SOL    HW139349   0.299   2.033   6.502  0.6924  2.0031  0.7904
12527SOL    HW239350   0.323   1.992   6.358 -1.5629  1.2359  0.5851
12528SOL     OW39351   6.327   2.968   7.175 -0.1459  0.4469  0.0363
12528SOL    HW139352   6.390   2.897   7.160  1.8224  1.9375  0.8192
12528SOL    HW239353   6.332   3.022   7.096 -2.1966 -0.6019 -0.8875
12529SOL     OW39354   9.062   1.040   1.697  0.2432  0.3450  0.7247
12529SOL    HW139355   9.017   0.973   1.748  1.6089 -0.5695  0.7901
12529SOL    HW239356   9.033   1.123   1.735  0.1258 -0.2749  2.0443
12530SOL     OW39357   3.376   2.736   6.471 -0.4800 -0.4658  0.1105
12530SOL    HW139358   3.296   2.717   6.421 -0.1420  0.2758 -0.7337
12530SOL    HW239359   3.447   2.721   6.409 -0.0071 -0.3235  0.6153
12531SOL     OW39360   4.886   6.945   0.316  0.3453  0.8785  0.1458
12531SOL    HW139361   4.969   6.989   0.331  0.6306  1.5234 -2.7538
12531SOL    HW239362   4.911   6.863   0.273 -0.4790  0.9561 -0.4998
12532SOL     OW39363   3.967   4.865   1.367 -0.0733 -0.0556 -0.0105
12532SOL    HW139364   4.061   4.863   1.351 -0.1478 -0.2632 -0.4468
12532SOL    HW239365   3.944   4.775   1.391 -0.1020  0.0741  0.4600
12533SOL     OW39366   1.174   8.950   6.716 -0.2990 -0.3261  0.2204
12533SOL    HW139367   1.206   8.860   6.722  1.8084  0.3027 -0.6318
12533SOL    HW239368   1.244   9.003   6.753 -1.3134  1.0083  0.2913
12534SOL     OW39369   7.717   2.280   5.132 -0.3894 -0.1471  0.3117
12534SOL    HW139370   7.647   2.345   5.118 -0.6621 -0.5577 -0.2741
12534SOL    HW239371   7.694   2.208   5.073 -0.0353 -0.7346  0.8833
12535SOL     OW39372   6.872   2.383   3.656 -0.3993 -0.6417 -0.5098
12535SOL    HW139373   6.807   2.409   3.722  0.7779 -1.1549  0.9054
12535SOL    HW239374   6.836   2.416   3.574 -0.3660  2.9844  0.7437
12536SOL     OW39375   1.225   1.124   7.891  0.3678  0.6542 -0.1080
12536SOL    HW139376   1.309   1.086   7.863  0.0923  0.6983 -1.0335
12536SOL    HW239377   1.159   1.064   7.857 -0.0106  1.0946 -0.1557
12537SOL     OW39378   7.465   9.141   2.815 -0.1831 -0.0537 -0.3687
12537SOL    HW139379   7.374   9.170   2.811 -0.0078  0.7780  1.0417
12537SOL    HW239380   7.511   9.196   2.752 -0.5121  0.0745 -0.4974
12538SOL     OW39381   6.196   7.150   5.096 -0.3786 -0.0752  0.5912
12538SOL    HW139382   6.214   7.059   5.119  1.8486  0.5270  1.4945
12538SOL    HW239383   6.272   7.199   5.129 -0.8733  1.9450 -1.0367
12539SOL     OW39384   6.780   7.943   0.862  0.4388  0.2208 -0.0944
12539SOL    HW139385   6.813   8.016   0.811 -0.5955  1.3992  0.8578
12539SOL    HW239386   6.685   7.954   0.862  0.1273 -1.9434 -1.1065
12540SOL     OW39387   3.962   1.771   7.656  0.3390 -0.6521 -0.1168
12540SOL    HW139388   3.925   1.689   7.623 -0.5341  0.5727 -2.4215
12540SOL    HW239389   3.900   1.800   7.723  0.3360 -1.5682  0.2864
12541SOL     OW39390   1.871   3.111   5.104  0.1830  0.2982  0.1649
12541SOL    HW139391   1.888   3.205   5.105  0.0796  0.3457 -1.1089
12541SOL    HW239392   1.943   3.073   5.155  1.7682  0.8483 -1.5708
12542SOL     OW39393   8.202   1.097   6.490 -0.2509  0.2312  0.1805
12542SOL    HW139394   8.148   1.018   6.479 -2.8362  1.8538  0.3567
12542SOL    HW239395   8.232   1.118   6.402  0.2635 -0.7781  0.0976
12543SOL     OW39396   9.686   9.072   8.539  0.3823  0.3722  0.3201
12543SOL    HW139397   9.778   9.086   8.563  0.1307 -1.0706  2.3343
12543SOL    HW239398   9.643   9.048   8.620 -1.7824  0.8212 -0.6250
12544SOL     OW39399   2.574   3.385   4.994  0.3547  0.4480  0.7494
12544SOL    HW139400   2.620   3.453   4.946  0.0928  0.1482  0.0737
12544SOL    HW239401   2.580   3.307   4.938 -1.6227  0.5785  0.2921
12545SOL     OW39402   7.285   2.316   2.631 -0.2592 -0.0023  0.1051
12545SOL    HW139403   7.320   2.404   2.641  0.0923 -0.1045 -0.2071
12545SOL    HW239404   7.289   2.277   2.718  3.1627 -1.0508 -0.3631
12546SOL     OW39405   7.232   3.129   0.930  0.1093 -0.1266  0.1478
12546SOL    HW139406   7.293   3.116   0.857  1.3393 -1.3301  1.3321
12546SOL    HW239407   7.279   3.096   1.007 -0.9837  1.4618  1.5702
12547SOL     OW39408   0.659   7.321   6.603  0.1152  0.0173  0.3206
12547SOL    HW139409   0.582   7.347   6.552  0.4440 -1.5710 -1.0960
12547SOL    HW239410   0.733   7.349   6.549  0.5187  0.3806  1.0583
12548SOL     OW39411   9.082   9.758   6.513 -0.2384  0.2318  0.2254
12548SOL    HW139412   9.147   9.704   6.467  0.8205  0.4279  1.4175
12548SOL    HW239413   9.016   9.778   6.447  1.6983  1.3337 -1.4910
12549SOL     OW39414   1.650   8.679   9.279 -0.3408  0.6644  0.1402
12549SOL    HW139415   1.709   8.607   9.255 -1.6384 -0.5987  0.6211
12549SOL    HW239416   1.569   8.636   9.306 -1.3105  2.3379  0.0288
12550SOL     OW39417   7.038   7.495   1.456  0.4802  0.2646  0.5592
12550SOL    HW139418   7.010   7.468   1.544 -0.1466 -0.5334  0.1244
12550SOL    HW239419   7.133   7.480   1.456  0.1898 -1.9765  0.3744
12551SOL     OW39420   5.435   2.177   2.585  0.4224 -0.1298 -0.0561
12551SOL    HW139421   5.343   2.170   2.561  0.6232 -1.6289 -0.5065
12551SOL    HW239422   5.449   2.270   2.603 -1.2176  0.0800  0.2302
12552SOL     OW39423   7.295   2.162   1.617 -0.4155  0.4006  0.7876
12552SOL    HW139424   7.365   2.182   1.680  0.3433 -3.0053  1.2178
12552SOL    HW239425   7.341   2.151   1.534 -0.9780  1.6394  0.2895
12553SOL     OW39426   9.277   8.957   4.171  0.0079 -0.0516  0.0455
12553SOL    HW139427   9.192   8.956   4.215  0.5523 -2.7724  1.2584
12553SOL    HW239428   9.257   8.977   4.080 -1.8590  0.0368  0.4312
12554SOL     OW39429   7.837   8.500   7.697  0.3876 -0.3957 -0.4732
12554SOL    HW139430   7.783   8.442   7.750  0.8478 -0.3884  0.0055
12554SOL    HW239431   7.912   8.521   7.752 -0.6766  2.2173  0.1641
12555SOL     OW39432   1.688   5.274   7.424  0.0511 -0.0175  0.6680
12555SOL    HW139433   1.783   5.262   7.430  0.0330 -0.3052  0.3886
12555SOL    HW239434   1.652   5.186   7.420 -0.0690  0.0726 -1.5270
12556SOL     OW39435   5.206   5.832   3.702  0.3429  0.0491 -0.1663
12556SOL    HW139436   5.300   5.819   3.715  0.5218  1.3565  0.0164
12556SOL    HW239437   5.189   5.795   3.616  1.2687  0.7661 -0.6880
12557SOL     OW39438   2.646   7.619   0.960  0.1074 -0.2810 -0.4911
12557SOL    HW139439   2.619   7.529   0.941 -1.7086  0.3014 -0.8468
12557SOL    HW239440   2.740   7.613   0.978  0.3785 -1.9939 -2.1821
12558SOL     OW39441   0.989   3.545   7.373 -0.6051  0.0203  1.0053
12558SOL    HW139442   0.896   3.522   7.381 -0.6532 -0.2519 -0.1957
12558SOL    HW239443   1.030   3.468   7.333 -0.2347  0.8963 -0.3431
12559SOL     OW39444   4.318   7.394   2.730 -0.2677 -0.2976 -0.8115
12559SOL    HW139445   4.413   7.390   2.740 -0.3539 -0.5240 -0.0239
12559SOL    HW239446   4.284   7.383   2.819 -0.9702  2.1999 -0.7107
12560SOL     OW39447   1.415   6.085   7.335  0.2004  0.0789 -0.1356
12560SOL    HW139448   1.324   6.091   7.305  0.0795  0.3671  0.2775
12560SOL    HW239449   1.464   6.143   7.277 -0.3443  2.2225  1.4132
12561SOL     OW39450   2.005   1.763   1.485 -0.2262 -0.2756 -0.3752
12561SOL    HW139451   1.996   1.847   1.441  0.2369  0.2139  0.4445
12561SOL    HW239452   1.947   1.704   1.436 -2.1323  0.9733  0.2684
12562SOL     OW39453   4.395   5.719   2.487 -0.1484  0.0391 -0.1659
12562SOL    HW139454   4.340   5.643   2.475  0.1137 -0.2901  0.6406
12562SOL    HW239455   4.388   5.740   2.580  0.6009  0.3613 -0.1723
12563SOL     OW39456   9.393   3.751   2.878  0.2668  0.2350 -0.0258
12563SOL    HW139457   9.317   3.747   2.820 -0.6910 -0.5964  1.2391
12563SOL    HW239458   9.465   3.715   2.826 -0.4126  0.0890 -0.8926
12564SOL     OW39459   2.605   8.207   9.428 -0.3375  0.0018 -0.2588
12564SOL    HW139460   2.678   8.215   9.367  0.4747 -0.5415  0.6117
12564SOL    HW239461   2.591   8.112   9.436 -0.9540  0.0931 -0.1941
12565SOL     OW39462   4.452   8.983   5.491  0.0806  0.2263  0.1526
12565SOL    HW139463   4.401   8.932   5.554 -0.1229  0.4409  0.1656
12565SOL    HW239464   4.413   8.961   5.406  0.0092  0.3403  0.1557
12566SOL     OW39465   4.644   2.076   8.088 -0.3177  0.2684 -0.4180
12566SOL    HW139466   4.705   2.095   8.159 -0.6475 -0.0711 -0.0372
12566SOL    HW239467   4.694   2.022   8.027  0.5625  2.1236 -1.4050
12567SOL     OW39468   9.300   9.666   1.674  0.0302  0.7304 -0.0499
12567SOL    HW139469   9.373   9.637   1.729 -0.4476  0.3377  0.3945
12567SOL    HW239470   9.294   9.760   1.690 -0.8779  0.4382  1.5591
12568SOL     OW39471   3.880   8.203   3.034 -0.2989  0.4364 -0.7289
12568SOL    HW139472   3.944   8.166   2.974 -1.6382 -0.0092 -1.9389
12568SOL    HW239473   3.795   8.171   3.002 -1.0481 -0.1427  1.6426
12569SOL     OW39474   0.260   4.772   8.422  0.2588  0.0355 -0.4937
12569SOL    HW139475   0.257   4.685   8.381 -1.3419 -0.4705  0.6032
12569SOL    HW239476   0.182   4.816   8.391  2.1120  1.9943 -2.7710
12570SOL     OW39477   4.276   9.221   6.249 -0.8592  0.1452 -0.2812
12570SOL    HW139478   4.341   9.209   6.319  0.9398 -1.6856 -2.1292
12570SOL    HW239479   4.262   9.316   6.246 -0.9412  0.3059  2.4341
12571SOL     OW39480   2.389   5.080   4.845  0.1259 -0.1144  0.1097
12571SOL    HW139481   2.403   5.174   4.855 -0.5134  0.2229 -1.7097
12571SOL    HW239482   2.301   5.064   4.880  0.3219 -0.0901  0.6225
12572SOL     OW39483   4.674   5.301   8.238 -0.4793  0.3193 -0.1256
12572SOL    HW139484   4.711   5.354   8.168 -1.1248  1.1136  0.1147
12572SOL    HW239485   4.582   5.326   8.241 -0.1339  1.6389  2.1483
12573SOL     OW39486   3.139   1.651   3.263 -0.1785 -0.3817 -0.3425
12573SOL    HW139487   3.126   1.737   3.301 -1.0454 -0.1689 -1.0827
12573SOL    HW239488   3.217   1.661   3.208 -0.8232  0.2022 -1.1736
12574SOL     OW39489   0.901   4.531   1.048 -0.2388 -0.8196 -0.2439
12574SOL    HW139490   0.892   4.549   1.141  0.3668 -0.8017 -0.1872
12574SOL    HW239491   0.811   4.535   1.014 -0.1452  3.5279 -0.4988
12575SOL     OW39492   0.795   7.622   3.962 -0.1329 -0.3701 -0.2078
12575SOL    HW139493   0.727   7.565   3.925 -0.9960  0.2836  0.3261
12575SOL    HW239494   0.868   7.563   3.980 -0.4898 -1.0655 -0.9497
12576SOL     OW39495   3.662   0.874   1.288  0.5021 -0.3250 -0.0090
12576SOL    HW139496   3.667   0.968   1.299 -2.0960 -0.1157 -0.0143
12576SOL    HW239497   3.728   0.839   1.348  0.6409  1.4424  0.9283
12577SOL     OW39498   0.675   5.491   2.932  0.0454 -0.4969 -0.4774
12577SOL    HW139499   0.581   5.487   2.911 -0.0269  1.7599 -0.9051
12577SOL    HW239500   0.717   5.502   2.846  0.6546 -0.9325 -0.2344
12578SOL     OW39501   3.440   8.330   4.843 -0.0017  0.6983 -0.2713
12578SOL    HW139502   3.487   8.381   4.909  0.0910 -1.2281  1.2333
12578SOL    HW239503   3.361   8.381   4.826  0.2525  1.5264  0.8861
12579SOL     OW39504   4.060   1.587   5.453 -0.4165 -0.0267 -0.3319
12579SOL    HW139505   4.099   1.674   5.441  2.1436 -1.4083 -3.4011
12579SOL    HW239506   4.046   1.580   5.547  1.4160  2.8592  0.2935
12580SOL     OW39507   5.730   4.336   4.013  0.2095  0.4503 -0.5564
12580SOL    HW139508   5.661   4.387   3.970 -0.3947  1.4524  1.4352
12580SOL    HW239509   5.797   4.401   4.034 -0.3953  0.4525  1.6736
12581SOL     OW39510   3.697   6.440   0.457  0.5932 -0.1629  0.2666
12581SOL    HW139511   3.683   6.477   0.370 -0.9488 -1.0896  0.0821
12581SOL    HW239512   3.792   6.434   0.466  0.7931  0.9482 -0.9078
12582SOL     OW39513   0.156   8.329   4.245 -0.0600 -0.6059  0.0782
12582SOL    HW139514   0.130   8.248   4.202 -1.6203 -0.5892  0.9170
12582SOL    HW239515   0.144   8.396   4.178 -0.6466 -0.8228 -0.0386
12583SOL     OW39516   1.614   8.095   8.641  0.0193  0.4284 -0.4356
12583SOL    HW139517   1.650   8.103   8.553  1.0299  1.3765  0.0383
12583SOL    HW239518   1.640   8.176   8.685  1.7584 -1.0776  1.5268
12584SOL     OW39519   1.018   3.140   2.856 -0.0364 -0.1734  0.0246
12584SOL    HW139520   0.966   3.067   2.890  0.3387  0.2174  1.4985
12584SOL    HW239521   1.104   3.130   2.898  0.4322  0.3763 -0.7793
12585SOL     OW39522   4.979   8.059   5.628  0.0209 -0.3542  0.0378
12585SOL    HW139523   5.038   8.004   5.577 -0.3901 -1.3183  0.5789
12585SOL    HW239524   4.937   7.999   5.690 -0.0380  0.6628  1.0193
12586SOL     OW39525   7.471   0.543   0.306 -0.3412  0.4328  0.3490
12586SOL    HW139526   7.524   0.465   0.289  0.1736  0.8728 -0.1050
12586SOL    HW239527   7.433   0.528   0.393  0.1155 -0.1131  0.4600
12587SOL     OW39528   0.107   4.144   4.375  0.6701 -0.4706  0.0570
12587SOL    HW139529   0.036   4.151   4.438  3.8899 -0.4631  4.0630
12587SOL    HW239530   0.112   4.051   4.354 -1.4453 -0.2749 -1.7007
12588SOL     OW39531   8.827   8.654   4.010 -0.4548 -0.2379  0.6353
12588SOL    HW139532   8.791   8.704   3.936  1.8265 -1.0889 -1.1610
12588SOL    HW239533   8.753   8.645   4.070 -2.0697  1.6125 -0.9150
12589SOL     OW39534   1.977   0.146   5.265 -0.2358 -0.3465 -0.3317
12589SOL    HW139535   1.978   0.154   5.360 -1.4775 -0.0987 -0.3183
12589SOL    HW239536   1.892   0.105   5.246 -0.4513  0.5591 -1.3927
12590SOL     OW39537   4.866   1.659   3.490 -0.6666 -0.0893 -0.0838
12590SOL    HW139538   4.840   1.751   3.486 -0.6465 -0.1334 -1.7210
12590SOL    HW239539   4.830   1.628   3.574 -3.0290  0.7257 -0.7030
12591SOL     OW39540   7.731   3.543   9.829  0.3699 -0.7148  0.2398
12591SOL    HW139541   7.826   3.551   9.842  0.4903  1.7356 -1.3209
12591SOL    HW239542   7.720   3.461   9.781  1.8155 -0.6791 -0.2023
12592SOL     OW39543   2.910   8.276   9.519 -0.6764 -0.1124 -0.0442
12592SOL    HW139544   2.867   8.312   9.441 -1.0092 -0.6286 -0.1067
12592SOL    HW239545   2.989   8.233   9.486 -1.8854 -2.1837 -0.4076
12593SOL     OW39546   5.328   4.656   5.467  0.1027 -0.0512 -0.3049
12593SOL    HW139547   5.408   4.698   5.437 -0.4406  0.9036 -0.4441
12593SOL    HW239548   5.262   4.726   5.467 -0.9940 -1.0364 -1.2158
12594SOL     OW39549   3.743   1.285   2.170  0.3266  0.0049  0.2612
12594SOL    HW139550   3.675   1.285   2.237 -0.9598  0.2493 -1.0004
12594SOL    HW239551   3.797   1.361   2.189  0.7351 -0.6198  1.7269
12595SOL     OW39552   4.723   6.334   8.293  0.4346 -0.2336  0.1089
12595SOL    HW139553   4.788   6.266   8.281 -0.8265 -1.3271 -0.8048
12595SOL    HW239554   4.641   6.287   8.308 -0.0546  1.0952  1.9669
12596SOL     OW39555   5.307   3.655   5.128 -0.0646  0.2339  0.2837
12596SOL    HW139556   5.345   3.644   5.040  0.7320  0.4457  0.5929
12596SOL    HW239557   5.328   3.746   5.152  0.6129 -0.1259  1.0983
12597SOL     OW39558   2.011   0.918   5.105  0.1400  0.5585 -0.1694
12597SOL    HW139559   1.928   0.946   5.143 -0.1741 -0.3205 -0.1826
12597SOL    HW239560   2.025   0.830   5.141  0.6485  0.3665 -0.8207
12598SOL     OW39561   7.982   5.610   9.787 -0.5497 -0.3882  1.1510
12598SOL    HW139562   8.059   5.648   9.831 -0.2794 -0.4102  0.6966
12598SOL    HW239563   7.931   5.686   9.761 -0.9123 -0.3803  1.8472
12599SOL     OW39564   6.904   8.785   9.457 -0.3227  0.1748 -0.1374
12599SOL    HW139565   6.961   8.839   9.402 -0.1187  2.0146  1.7301
12599SOL    HW239566   6.945   8.699   9.456  1.8855  1.1409  0.1989
12600SOL     OW39567   7.336   8.040   1.284 -0.0151  0.5310 -0.0238
12600SOL    HW139568   7.381   8.117   1.250 -2.0394  1.0216 -1.8564
12600SOL    HW239569   7.399   7.969   1.277  0.6531  1.2584 -2.0504
12601SOL     OW39570   8.654   6.621   5.580 -0.2053 -0.7949  0.1803
12601SOL    HW139571   8.713   6.686   5.543  0.7332 -1.5412  0.3181
12601SOL    HW239572   8.650   6.552   5.513 -0.4303 -1.0246  0.4286
12602SOL     OW39573   5.808   5.505   0.037  0.0241 -0.0354 -0.5945
12602SOL    HW139574   5.881   5.517   0.098 -0.5260  0.0616  0.0626
12602SOL    HW239575   5.744   5.454   0.086 -0.6778  0.5423 -0.8837
12603SOL     OW39576   9.150   2.568   4.690  0.4146 -0.6165  0.6289
12603SOL    HW139577   9.148   2.483   4.734 -0.1236 -0.6421  0.5627
12603SOL    HW239578   9.058   2.595   4.686  0.7293  1.1873  3.0142
12604SOL     OW39579   4.416   1.219   7.487 -0.3712 -0.0575 -0.2708
12604SOL    HW139580   4.476   1.293   7.500 -0.5020  0.1180 -0.6325
12604SOL    HW239581   4.387   1.229   7.396 -0.0930 -0.7749 -0.4381
12605SOL     OW39582   9.755   0.546   4.929  0.6529 -0.1820 -0.7089
12605SOL    HW139583   9.803   0.508   4.856  0.5413  0.1424 -0.9510
12605SOL    HW239584   9.809   0.619   4.958  0.9891 -0.6707 -0.0848
12606SOL     OW39585   4.951   8.770   5.458 -0.2680 -0.0240  0.3805
12606SOL    HW139586   5.011   8.707   5.497  0.8132 -0.3847 -1.7284
12606SOL    HW239587   5.004   8.818   5.394 -1.7120  1.1906  0.0353
12607SOL     OW39588   5.217   0.832   5.265 -0.5529  0.4563 -0.0664
12607SOL    HW139589   5.157   0.891   5.311  1.2692  1.2263  1.4791
12607SOL    HW239590   5.244   0.769   5.332  0.2498  0.0442 -0.7631
12608SOL     OW39591   7.658   3.123   0.385 -0.1130 -0.5760  0.4021
12608SOL    HW139592   7.662   3.048   0.444 -1.0854 -1.3475 -0.4792
12608SOL    HW239593   7.599   3.096   0.315 -0.7788  1.1350  0.2342
12609SOL     OW39594   5.811   8.604   7.395  0.4696 -0.6033 -0.0127
12609SOL    HW139595   5.871   8.542   7.437  0.9087  0.1428  0.4819
12609SOL    HW239596   5.847   8.690   7.416 -0.0053 -0.1795 -0.8841
12610SOL     OW39597   3.356   8.327   9.143  0.1132  0.4541  0.0244
12610SOL    HW139598   3.406   8.348   9.222 -0.2972  0.5962  0.2538
12610SOL    HW239599   3.410   8.357   9.071  0.5796  0.1516  0.2473
12611SOL     OW39600   9.650   6.714   1.495 -0.4399  0.3701  0.0542
12611SOL    HW139601   9.728   6.695   1.444 -0.5300 -0.6135  0.2680
12611SOL    HW239602   9.593   6.639   1.480 -1.0511  0.7496  0.4649
12612SOL     OW39603   1.585   3.154   5.118 -0.3949  0.2761  0.4876
12612SOL    HW139604   1.611   3.145   5.210 -0.6113  2.2043  0.7861
12612SOL    HW239605   1.664   3.138   5.068 -0.7521 -3.1975  0.7974
12613SOL     OW39606   7.970   8.043   5.296 -0.1571 -0.4973 -0.2969
12613SOL    HW139607   8.021   8.120   5.272 -0.4653  0.1663  1.0345
12613SOL    HW239608   8.019   7.969   5.261  1.0123  0.2113 -0.1994
12614SOL     OW39609   9.485   5.948   6.723 -0.9225  0.1555  0.2304
12614SOL    HW139610   9.398   5.955   6.683 -1.1861 -0.3642  0.6970
12614SOL    HW239611   9.501   5.854   6.729 -0.2151  0.2483 -0.0720
12615SOL     OW39612   6.641   3.843   4.377  0.0386  0.1419 -0.2469
12615SOL    HW139613   6.690   3.918   4.343  0.9156 -0.4834 -0.3981
12615SOL    HW239614   6.707   3.789   4.419 -0.4879 -0.8300 -0.6399
12616SOL     OW39615   6.901   4.032   7.994 -0.0218  0.0761 -0.4656
12616SOL    HW139616   6.892   4.000   7.904  0.1293  1.4376 -0.9959
12616SOL    HW239617   6.848   4.112   7.996  1.8147  1.3473 -0.0267
12617SOL     OW39618   5.092   5.400   4.492  0.2799  0.5398  0.0149
12617SOL    HW139619   5.134   5.354   4.565 -2.0180 -1.5143  0.1622
12617SOL    HW239620   5.040   5.469   4.534 -0.3582 -0.0873  0.2733
12618SOL     OW39621   1.947   8.226   7.718 -0.5591  0.2813 -0.3021
12618SOL    HW139622   1.881   8.181   7.665 -0.3989 -0.5317  0.1595
12618SOL    HW239623   2.027   8.221   7.666 -0.2304 -1.1508  0.2961
12619SOL     OW39624   9.563   6.067   8.900  0.4848 -0.0859 -0.4447
12619SOL    HW139625   9.601   5.980   8.886  0.7188 -0.4318  1.9647
12619SOL    HW239626   9.468   6.053   8.890  0.5501 -0.5221 -0.4849
12620SOL     OW39627   6.049   3.946   6.139  0.0620  0.0563  0.5675
12620SOL    HW139628   6.116   4.003   6.099  0.1245 -1.0853 -1.0883
12620SOL    HW239629   5.975   3.950   6.078  0.0244 -1.4937  0.4624
12621SOL     OW39630   4.839   6.829   5.489 -0.2133 -0.1738 -0.4590
12621SOL    HW139631   4.822   6.776   5.567 -1.6804 -0.1621 -0.7412
12621SOL    HW239632   4.930   6.856   5.498 -0.2409 -0.4926  1.0516
12622SOL     OW39633   7.559   7.526   1.590 -0.7387 -0.0714 -0.0957
12622SOL    HW139634   7.559   7.495   1.680 -1.4982 -2.8704 -0.9375
12622SOL    HW239635   7.478   7.576   1.582 -1.1911 -0.6763  0.5549
12623SOL     OW39636   5.448   3.032   2.633 -0.3683 -0.4052  0.8338
12623SOL    HW139637   5.439   3.032   2.728 -2.5046 -0.4533  0.6883
12623SOL    HW239638   5.468   3.123   2.611  1.1153 -0.5877  1.3815
12624SOL     OW39639   9.226   3.112   1.746  0.2675  0.2564 -0.3346
12624SOL    HW139640   9.236   3.160   1.829  0.1004  1.0112 -0.7417
12624SOL    HW239641   9.194   3.026   1.772 -0.5119  0.7363  0.3401
12625SOL     OW39642   2.218   9.141   7.942 -0.4289  0.1971 -0.0199
12625SOL    HW139643   2.313   9.137   7.932 -0.4626 -1.3610 -0.0540
12625SOL    HW239644   2.200   9.229   7.972  1.0895  0.3304  0.5588
12626SOL     OW39645   6.618   3.505   9.131  0.2517 -0.1071  0.6759
12626SOL    HW139646   6.668   3.435   9.173 -1.3771 -0.7855  1.6107
12626SOL    HW239647   6.683   3.572   9.108  1.9315 -2.0787 -0.6590
12627SOL     OW39648   5.344   6.624   5.722 -0.7893  0.0901 -0.6664
12627SOL    HW139649   5.407   6.652   5.656  2.2029 -1.8380  1.1857
12627SOL    HW239650   5.282   6.697   5.727  1.2013  2.0962 -2.6365
12628SOL     OW39651   0.508   0.005   2.189 -0.3794  0.3661 -0.7953
12628SOL    HW139652   0.456  -0.061   2.235 -1.6151  1.7512 -0.0870
12628SOL    HW239653   0.490   0.086   2.237  1.3089  1.1707 -1.4500
12629SOL     OW39654   9.764   6.233   6.362 -0.0916 -0.8447 -0.2191
12629SOL    HW139655   9.774   6.294   6.435  2.4587 -0.5292 -0.7211
12629SOL    HW239656   9.728   6.287   6.291  0.3515 -0.3681 -0.0899
12630SOL     OW39657   7.975   2.568   1.804 -0.3708  0.1808  0.3106
12630SOL    HW139658   7.971   2.663   1.819 -1.2652  0.3317 -0.7492
12630SOL    HW239659   7.906   2.551   1.739 -1.3354 -1.4562  1.6873
12631SOL     OW39660   7.328   5.973   6.689 -0.4018 -0.0233 -0.2179
12631SOL    HW139661   7.272   5.945   6.762 -0.1734 -0.8505 -0.3561
12631SOL    HW239662   7.376   6.048   6.724 -0.7736 -0.0037  0.2688
12632SOL     OW39663   3.232   1.089   4.029 -0.0107  0.4815  0.0733
12632SOL    HW139664   3.217   1.164   3.972  2.1000 -1.0909 -2.8756
12632SOL    HW239665   3.317   1.054   4.001 -1.1790 -3.3970  0.7192
12633SOL     OW39666   5.311   4.905   0.539  0.5148 -0.2783 -0.0133
12633SOL    HW139667   5.369   4.981   0.537 -1.4331  1.2832  0.2135
12633SOL    HW239668   5.229   4.936   0.500 -1.4138 -1.3004  2.8962
12634SOL     OW39669   3.353   4.600   1.827 -0.2048  0.1727 -0.1898
12634SOL    HW139670   3.261   4.588   1.848  0.0356  1.8503  2.2702
12634SOL    HW239671   3.392   4.513   1.838 -1.3967 -0.4620 -0.8405
12635SOL     OW39672   4.394   0.133   5.641 -0.5221  0.1232  0.0884
12635SOL    HW139673   4.331   0.117   5.710 -0.8695  1.4987  0.1123
12635SOL    HW239674   4.439   0.049   5.630 -0.5721 -0.1768  1.8476
12636SOL     OW39675   8.385   9.652   4.215  0.0602  0.0268  0.1291
12636SOL    HW139676   8.409   9.593   4.144 -0.8265 -0.1277 -0.0500
12636SOL    HW239677   8.437   9.730   4.200  0.9902 -0.5676  0.1674
12637SOL     OW39678   4.578   9.049   0.491 -0.1932  0.1631  0.2353
12637SOL    HW139679   4.490   9.021   0.513 -0.0425 -0.5389 -0.0468
12637SOL    HW239680   4.594   9.012   0.404  0.2738  0.5272  0.1616
12638SOL     OW39681   2.434   0.005   2.873  0.0688 -0.6400  0.6857
12638SOL    HW139682   2.392   0.090   2.885 -1.2250 -1.1068 -0.3143
12638SOL    HW239683   2.429  -0.036   2.960 -0.2392 -0.1132  0.9229
12639SOL     OW39684   8.183   4.837   4.603  0.1705 -0.2384  0.1679
12639SOL    HW139685   8.236   4.763   4.575  0.6854  0.7389 -1.6428
12639SOL    HW239686   8.098   4.824   4.561  0.1254 -0.0203  0.1874
12640SOL     OW39687   4.865   3.066   8.393 -0.8257  0.3035  0.4615
12640SOL    HW139688   4.875   3.065   8.298 -1.3051  0.1498  0.4060
12640SOL    HW239689   4.954   3.074   8.427 -0.7554  1.8913 -0.0131
12641SOL     OW39690   8.479   5.470   3.600 -0.1299  0.0615  0.1850
12641SOL    HW139691   8.553   5.520   3.566 -1.1547  1.1444 -0.5529
12641SOL    HW239692   8.409   5.534   3.609 -1.0459 -0.9689  0.6666
12642SOL     OW39693   4.155   1.124   1.708  0.7284  0.0490  0.5443
12642SOL    HW139694   4.152   1.092   1.797 -0.3188 -2.0999 -0.2104
12642SOL    HW239695   4.123   1.214   1.714  0.6479 -0.0666  2.3030
12643SOL     OW39696   3.127   8.067   2.015  0.4602  0.0643 -0.0994
12643SOL    HW139697   3.118   8.027   1.929 -0.8288 -0.0200  0.0566
12643SOL    HW239698   3.074   8.147   2.010  0.1545 -0.0777  0.6891
12644SOL     OW39699   1.410   1.770   8.114  0.2895 -0.1101  0.3976
12644SOL    HW139700   1.504   1.767   8.131  0.3451 -2.3942  0.1159
12644SOL    HW239701   1.402   1.820   8.033  1.3105 -0.1455  0.2623
12645SOL     OW39702   9.498   1.389   4.358  0.0431 -0.0146  0.4173
12645SOL    HW139703   9.539   1.470   4.387  0.4464 -0.8921  2.4480
12645SOL    HW239704   9.570   1.335   4.326  0.0698 -0.3837  1.0884
12646SOL     OW39705   4.125   9.186   5.987  0.5628  0.2160 -0.0623
12646SOL    HW139706   4.091   9.260   5.935 -1.7363 -2.5194 -2.8795
12646SOL    HW239707   4.076   9.191   6.069  0.0618  1.5220 -0.4066
12647SOL     OW39708   0.468   3.240   0.042 -0.3322  0.0008  0.0651
12647SOL    HW139709   0.504   3.222  -0.045  0.6680 -0.7482  0.6164
12647SOL    HW239710   0.377   3.210   0.037 -0.3206  0.0876 -0.7582
12648SOL     OW39711   7.644   6.532   8.290 -0.4913  0.8033 -0.1371
12648SOL    HW139712   7.578   6.478   8.333  0.5468 -1.3298 -1.0491
12648SOL    HW239713   7.727   6.487   8.308  0.4031  1.9650 -1.1811
12649SOL     OW39714   1.314   2.608   8.783 -0.4330 -0.4329  0.2279
12649SOL    HW139715   1.299   2.603   8.689  0.5262  0.3739  0.0064
12649SOL    HW239716   1.308   2.701   8.803 -0.7577 -0.6131  0.9940
12650SOL     OW39717   1.577   7.602   8.380  0.1879 -0.3052 -0.0797
12650SOL    HW139718   1.607   7.667   8.444 -1.0461 -0.6824  0.9094
12650SOL    HW239719   1.482   7.601   8.390  0.0201 -0.8027 -1.5286
12651SOL     OW39720   8.744   9.543   4.841 -0.0969 -0.4960 -0.0854
12651SOL    HW139721   8.694   9.601   4.784 -0.8030  0.0241  1.0365
12651SOL    HW239722   8.781   9.478   4.782 -0.0558  0.5486 -1.2544
12652SOL     OW39723   2.158   8.871   0.490  0.2535 -0.1195  0.1139
12652SOL    HW139724   2.071   8.858   0.529 -0.0136  1.2279  0.0051
12652SOL    HW239725   2.187   8.782   0.467 -1.5577 -0.5005 -0.8686
12653SOL     OW39726   3.311   3.921   6.750 -0.4744  0.2439 -0.0455
12653SOL    HW139727   3.253   3.845   6.750 -1.8720  1.2871  0.6927
12653SOL    HW239728   3.393   3.888   6.786 -1.4090 -0.6829  1.3337
12654SOL     OW39729   4.971   5.680   7.089  0.4893  0.5049 -0.2082
12654SOL    HW139730   5.063   5.658   7.097  0.9820  1.6542 -2.0997
12654SOL    HW239731   4.925   5.606   7.128  2.1958  0.0409  1.0132
12655SOL     OW39732   3.693   1.203   2.694  0.6104 -0.3535  0.3089
12655SOL    HW139733   3.727   1.290   2.712 -1.4265  0.6134 -0.2703
12655SOL    HW239734   3.726   1.149   2.766  0.0260  1.4109  1.9739
12656SOL     OW39735   5.839   2.046   4.526 -0.9007 -0.1136  0.6544
12656SOL    HW139736   5.875   2.091   4.450 -1.7044 -0.3192  0.1462
12656SOL    HW239737   5.898   1.973   4.541  0.3614  1.0221  1.4205
12657SOL     OW39738   8.996   1.241   1.433  0.5119 -1.0780 -0.2365
12657SOL    HW139739   9.088   1.232   1.458  0.5306 -0.2215  0.0362
12657SOL    HW239740   8.979   1.335   1.436 -0.6964 -1.3086  0.8465
12658SOL     OW39741   9.247   3.246   6.405  0.2405  0.0683 -0.2045
12658SOL    HW139742   9.254   3.221   6.312 -1.0596 -0.3462 -0.2060
12658SOL    HW239743   9.251   3.342   6.404  1.1746  0.0431 -0.5830
12659SOL     OW39744   4.193   3.767   7.868 -0.0134  0.3003  0.0615
12659SOL    HW139745   4.230   3.769   7.779 -0.7757 -2.3581 -0.4014
12659SOL    HW239746   4.139   3.688   7.870  0.6721 -0.2199  3.1869
12660SOL     OW39747   6.390   6.555   2.626  0.4373  0.8193  0.0056
12660SOL    HW139748   6.473   6.562   2.674  1.6212  1.7477 -2.0196
12660SOL    HW239749   6.402   6.479   2.569 -0.1839  0.8180 -0.1258
12661SOL     OW39750   6.688   3.670   2.646  0.5859 -0.0441  0.0256
12661SOL    HW139751   6.740   3.600   2.685 -0.2138 -1.2876 -1.0625
12661SOL    HW239752   6.748   3.714   2.586  0.8795 -0.3311  0.1057
12662SOL     OW39753   0.159   9.675   1.535 -0.0083 -0.5341 -0.4511
12662SOL    HW139754   0.175   9.667   1.629 -0.4600  0.2402 -0.3035
12662SOL    HW239755   0.144   9.585   1.505  0.3866 -0.8113  0.1641
12663SOL     OW39756   1.790   6.188   0.877  0.3908  0.4546 -0.2235
12663SOL    HW139757   1.782   6.191   0.782  0.4482  1.0079 -0.2144
12663SOL    HW239758   1.878   6.221   0.895  0.9856 -1.1267 -0.0614
12664SOL     OW39759   7.799   7.633   6.663 -0.2103 -0.1119  0.0580
12664SOL    HW139760   7.858   7.597   6.729  2.9842  2.6502 -1.0210
12664SOL    HW239761   7.769   7.557   6.613  0.8428 -1.8107  1.8612
12665SOL     OW39762   2.646   2.748   1.049  0.0643 -0.2647  0.1356
12665SOL    HW139763   2.572   2.688   1.056  0.0345 -0.3575 -0.8891
12665SOL    HW239764   2.708   2.717   1.116 -1.1334  0.3175  1.5750
12666SOL     OW39765   4.668   6.403   0.483  0.1544 -0.0028 -0.0828
12666SOL    HW139766   4.630   6.445   0.405 -1.9502 -0.5178  0.5995
12666SOL    HW239767   4.633   6.453   0.556 -0.4848 -1.4596  0.6479
12667SOL     OW39768   7.225   1.414   4.640 -0.7376 -0.0891 -0.0164
12667SOL    HW139769   7.181   1.377   4.717  1.4012  0.7892  1.7592
12667SOL    HW239770   7.175   1.493   4.619 -0.4391  0.5899  1.6162
12668SOL     OW39771   8.653   0.287   3.433 -0.3888 -0.2938 -0.1076
12668SOL    HW139772   8.560   0.311   3.434 -0.5388 -0.8565  0.5962
12668SOL    HW239773   8.698   0.367   3.405 -1.0378  0.1524  0.0883
12669SOL     OW39774   5.716   7.652   1.936 -0.5179 -0.1980 -0.3655
12669SOL    HW139775   5.743   7.589   1.869  0.8974  0.5171 -0.4996
12669SOL    HW239776   5.795   7.703   1.955 -1.3858  0.9098  0.4377
12670SOL     OW39777   2.958   8.670   0.283  0.4536  0.6693 -0.3867
12670SOL    HW139778   2.958   8.729   0.358 -0.4642  1.5824 -1.0739
12670SOL    HW239779   2.866   8.666   0.255  0.7334  0.1274 -1.2882
12671SOL     OW39780   0.714   4.746   2.370 -0.4543 -0.3992 -0.2322
12671SOL    HW139781   0.679   4.680   2.311 -0.2734 -1.5449  0.9129
12671SOL    HW239782   0.731   4.699   2.451 -0.8051  1.1699  0.7820
12672SOL     OW39783   3.287   9.633   0.511  0.2852 -0.0608  0.4455
12672SOL    HW139784   3.373   9.673   0.505  0.3594 -0.3901 -0.9509
12672SOL    HW239785   3.227   9.707   0.523  0.6001  0.3243 -0.2933
12673SOL     OW39786   2.192   6.353   4.799 -0.6404 -1.0259 -0.4012
12673SOL    HW139787   2.223   6.407   4.872 -0.7193 -0.7657 -0.5579
12673SOL    HW239788   2.213   6.404   4.721 -2.3586 -0.3608 -0.4739
12674SOL     OW39789   1.134   7.654   0.951  0.5727  0.3211  0.2787
12674SOL    HW139790   1.048   7.626   0.979  0.8884  0.3783  1.3434
12674SOL    HW239791   1.133   7.749   0.962  0.1675  0.5492 -1.4572
12675SOL     OW39792   1.750   0.552   2.270 -0.2177  0.2100 -0.7267
12675SOL    HW139793   1.712   0.513   2.191 -1.2796  2.4872 -1.4269
12675SOL    HW239794   1.844   0.544   2.257 -0.3807 -0.8086 -1.4743
12676SOL     OW39795   4.924   7.345   6.945 -0.0347  0.1251 -0.0838
12676SOL    HW139796   4.900   7.300   7.026  2.0327 -1.3449 -0.2291
12676SOL    HW239797   4.975   7.420   6.973  1.2052 -0.7223 -0.0015
12677SOL     OW39798   5.938   5.504   0.679  0.0580  0.2614 -0.1580
12677SOL    HW139799   5.999   5.443   0.637 -0.5498 -0.6015  0.1924
12677SOL    HW239800   5.870   5.518   0.614 -0.9532 -1.1779  0.5332
12678SOL     OW39801   4.791   7.219   2.875  0.3177 -0.0545 -0.2011
12678SOL    HW139802   4.741   7.141   2.899  1.4550 -1.2655 -1.5444
12678SOL    HW239803   4.848   7.189   2.804  1.6408  1.7154  0.0566
12679SOL     OW39804   9.604   7.557   8.933  0.3412 -0.2964 -0.5731
12679SOL    HW139805   9.681   7.589   8.982 -1.2352  1.0229  1.2034
12679SOL    HW239806   9.566   7.490   8.989 -0.5476  0.0192 -0.7809
12680SOL     OW39807   8.567   1.224   9.026 -0.4248 -0.6822  0.4905
12680SOL    HW139808   8.529   1.292   9.083 -0.2972 -1.1236  1.1206
12680SOL    HW239809   8.634   1.270   8.975 -0.1209 -0.3874  1.1387
12681SOL     OW39810   4.210   1.100   5.995  0.0628 -0.2621 -0.6751
12681SOL    HW139811   4.192   1.108   6.089  0.7623 -1.1187 -0.4609
12681SOL    HW239812   4.131   1.134   5.953  0.1092  1.0261  0.2135
12682SOL     OW39813   1.815   0.637   5.554  0.3372  0.2200  0.7632
12682SOL    HW139814   1.895   0.689   5.550  0.1321  0.4727 -0.1563
12682SOL    HW239815   1.837   0.555   5.511  0.1492  0.2189  0.6665
12683SOL     OW39816   9.496   3.996   3.266 -0.0570 -0.4079 -0.1336
12683SOL    HW139817   9.403   3.984   3.286 -0.5120  0.1172 -1.7963
12683SOL    HW239818   9.511   3.944   3.188  1.1500 -0.7685  0.3237
12684SOL     OW39819   4.651   2.578   5.400 -0.2235 -0.7589  0.1746
12684SOL    HW139820   4.562   2.589   5.368 -0.7322 -0.7658  1.5388
12684SOL    HW239821   4.681   2.666   5.419 -0.5408 -0.8667  1.2455
12685SOL     OW39822   9.733   4.679   5.829  0.0324 -0.1006  0.0077
12685SOL    HW139823   9.821   4.690   5.792 -0.4819  0.1690 -1.1837
12685SOL    HW239824   9.695   4.766   5.827  0.4788  0.2205  2.5800
12686SOL     OW39825   6.141   1.750   9.105  0.2206  0.2259  0.5213
12686SOL    HW139826   6.148   1.655   9.112  0.6047  0.3469  2.1418
12686SOL    HW239827   6.207   1.774   9.039 -0.4405 -0.6695 -0.5124
12687SOL     OW39828   7.311   3.075   3.113 -0.2414 -0.2727 -0.0657
12687SOL    HW139829   7.233   3.072   3.168 -0.1813  1.3992  0.1696
12687SOL    HW239830   7.289   3.022   3.037 -0.8225 -1.5215  0.9353
12688SOL     OW39831   8.870   1.524   6.760 -0.3982  0.1460  0.3436
12688SOL    HW139832   8.946   1.532   6.703 -0.2554  1.7020  0.7095
12688SOL    HW239833   8.901   1.555   6.845 -0.9406 -0.9977  0.9783
12689SOL     OW39834   1.155   6.204   0.224 -0.1731  0.1827  0.2246
12689SOL    HW139835   1.061   6.200   0.209 -0.0154  0.9655 -1.0916
12689SOL    HW239836   1.188   6.121   0.191 -0.3308  0.1115  0.2423
12690SOL     OW39837   0.781   8.720   1.419 -0.1826 -0.1404  0.2099
12690SOL    HW139838   0.800   8.722   1.513  0.5017 -1.0115  0.0973
12690SOL    HW239839   0.825   8.798   1.384 -0.2929  0.0902  0.5834
12691SOL     OW39840   1.221   4.264   4.361  0.1170 -0.2096  0.8087
12691SOL    HW139841   1.221   4.200   4.289 -0.8952 -0.6268  1.1607
12691SOL    HW239842   1.131   4.295   4.366  0.5358  1.0727  0.8207
12692SOL     OW39843   4.523   3.562   4.548  0.3460  0.0312 -0.1677
12692SOL    HW139844   4.571   3.482   4.570  0.1608  0.2626  1.1657
12692SOL    HW239845   4.575   3.632   4.588  0.3768  0.5722 -1.1210
12693SOL     OW39846   0.774   5.970   4.318 -0.2746  0.1828  0.2890
12693SOL    HW139847   0.745   5.989   4.229  0.7021 -1.5627 -0.4600
12693SOL    HW239848   0.734   5.886   4.339  2.7362 -1.4946 -0.1608
12694SOL     OW39849   1.067   8.848   8.490 -0.2403  0.4617 -0.0723
12694SOL    HW139850   1.054   8.899   8.410  0.6689  2.6579  1.0966
12694SOL    HW239851   1.155   8.870   8.518 -0.3325 -0.7290  1.2428
12695SOL     OW39852   9.719   6.320   4.785  0.3619 -0.4975 -0.4092
12695SOL    HW139853   9.800   6.310   4.835  0.4756  0.3063 -0.4168
12695SOL    HW239854   9.726   6.408   4.747 -0.6657 -0.2918 -0.1386
12696SOL     OW39855   6.731   1.613   4.372  0.6397 -0.4785  0.2097
12696SOL    HW139856   6.650   1.566   4.393  1.0218 -0.5884  1.5136
12696SOL    HW239857   6.784   1.548   4.326 -0.6083  0.0634 -2.1495
12697SOL     OW39858   2.891   1.268   8.545 -0.1873  0.1209 -0.1613
12697SOL    HW139859   2.848   1.266   8.460  0.3974  0.8665 -0.4836
12697SOL    HW239860   2.944   1.348   8.544 -0.9407  0.6821  1.2738
12698SOL     OW39861   9.271   2.824   2.740 -0.0535  0.2433 -0.1510
12698SOL    HW139862   9.206   2.888   2.713  1.2627  1.3082 -0.9083
12698SOL    HW239863   9.255   2.749   2.683 -2.0135 -0.4263  1.1672
12699SOL     OW39864   8.474   7.091   0.344  0.1838 -0.9685 -0.1203
12699SOL    HW139865   8.510   7.141   0.271  1.9363 -0.4395  1.0375
12699SOL    HW239866   8.440   7.158   0.404 -4.0517 -1.4374 -1.6571
12700SOL     OW39867   0.139   0.140   8.638  0.3409 -0.8029  0.4283
12700SOL    HW139868   0.230   0.141   8.612 -0.2583 -0.2991 -1.8065
12700SOL    HW239869   0.104   0.059   8.601 -0.2328 -0.7520  0.8453
12701SOL     OW39870   3.351   4.807   3.478 -0.0436  0.1304  0.1686
12701SOL    HW139871   3.337   4.858   3.399  0.4335  0.6066  0.3838
12701SOL    HW239872   3.264   4.775   3.502 -0.5647  1.8230  0.6890
12702SOL     OW39873   8.965   9.259   1.986  0.0841  0.0674 -0.1776
12702SOL    HW139874   8.895   9.257   1.921  0.6349  2.8619 -1.0198
12702SOL    HW239875   9.021   9.185   1.963 -1.8736 -1.4699 -0.2570
12703SOL     OW39876   0.509   7.528   2.581  0.6328 -0.3498 -0.3512
12703SOL    HW139877   0.553   7.594   2.529 -0.4416  0.2640 -0.5220
12703SOL    HW239878   0.420   7.525   2.546 -0.2906  0.4461  1.7050
12704SOL     OW39879   4.104   8.679   8.207  0.9660 -0.3616  0.2859
12704SOL    HW139880   4.034   8.669   8.143 -0.0707 -1.1241  1.4905
12704SOL    HW239881   4.164   8.742   8.167  1.2643 -2.0625 -2.1696
12705SOL     OW39882   3.476   8.380   9.404 -0.1710  0.0608 -0.1752
12705SOL    HW139883   3.507   8.414   9.488 -0.8676 -1.5481  0.7881
12705SOL    HW239884   3.497   8.286   9.408  0.4194  0.0733 -2.1131
12706SOL     OW39885   7.075   5.944   1.506  0.2602  0.2697  0.3915
12706SOL    HW139886   7.058   5.910   1.594  0.1349 -1.3714 -0.2295
12706SOL    HW239887   7.021   6.023   1.500  0.5074  0.5861  1.8802
12707SOL     OW39888   2.916   1.914   5.789 -0.1981 -0.3886  0.0564
12707SOL    HW139889   2.845   1.880   5.735  0.7552 -0.5143 -1.1852
12707SOL    HW239890   2.939   1.841   5.847 -1.1113 -0.3213  0.5073
12708SOL     OW39891   9.369   5.604   0.733 -0.0772  0.0718 -0.3590
12708SOL    HW139892   9.322   5.580   0.653 -1.8328  1.5136  0.1729
12708SOL    HW239893   9.300   5.624   0.797  1.2703  1.0224  0.8690
12709SOL     OW39894   8.847   8.619   6.361  0.1797 -0.1925 -0.5565
12709SOL    HW139895   8.821   8.670   6.438  2.7003  0.1931  0.1059
12709SOL    HW239896   8.837   8.680   6.288 -1.1891 -0.2342 -0.4436
12710SOL     OW39897   8.431   1.803   5.784 -0.1402 -0.3079 -0.7084
12710SOL    HW139898   8.434   1.846   5.870 -0.6912 -0.1844 -0.7450
12710SOL    HW239899   8.402   1.714   5.802  2.7526 -1.2834 -0.4248
12711SOL     OW39900   0.507   4.914   2.589  0.2953  0.2525 -0.1411
12711SOL    HW139901   0.585   4.887   2.540 -0.5503 -0.6466 -1.0234
12711SOL    HW239902   0.467   4.982   2.534 -0.6808 -0.7925 -0.7690
12712SOL     OW39903   1.528   3.512   8.004 -0.6594 -0.4089 -0.6099
12712SOL    HW139904   1.557   3.476   8.087  0.1261 -0.4924 -0.9072
12712SOL    HW239905   1.609   3.532   7.957 -0.9336  3.0788  0.0743
12713SOL     OW39906   4.305   2.438   9.665 -0.4521  0.1057  0.3277
12713SOL    HW139907   4.369   2.468   9.600 -0.4166 -2.0165 -0.6862
12713SOL    HW239908   4.222   2.434   9.617 -0.4640 -1.3020  0.4309
12714SOL     OW39909   8.820   6.114   0.181 -0.1651 -0.0188  0.0809
12714SOL    HW139910   8.767   6.125   0.102 -1.8013  0.0240  1.1409
12714SOL    HW239911   8.886   6.183   0.176 -0.2768  0.0215 -1.2060
12715SOL     OW39912   3.983   8.298   3.477 -0.3260  0.0444 -0.1666
12715SOL    HW139913   4.006   8.387   3.502  1.2170  0.1334 -1.7365
12715SOL    HW239914   4.037   8.242   3.533 -0.8043  0.1018  0.3575
12716SOL     OW39915   6.702   2.072   4.839  0.1400  0.0566 -0.5769
12716SOL    HW139916   6.680   2.028   4.921 -0.7053  1.1110 -0.1997
12716SOL    HW239917   6.750   2.150   4.867  0.2117  0.2045 -1.1098
12717SOL     OW39918   8.639   4.300   3.590 -0.7056 -0.7159  0.1766
12717SOL    HW139919   8.706   4.360   3.622  0.3686 -1.8259  0.0523
12717SOL    HW239920   8.563   4.318   3.645 -0.3586  0.6553  0.2306
12718SOL     OW39921   3.030   4.860   6.847 -0.7297  0.0562  0.1588
12718SOL    HW139922   2.954   4.917   6.833 -0.5036  0.3448  0.1025
12718SOL    HW239923   3.003   4.802   6.918 -1.1104 -0.0330 -0.0529
12719SOL     OW39924   8.483   0.200   9.362  0.3299  0.3976 -0.4565
12719SOL    HW139925   8.507   0.200   9.454  0.2401  2.5349 -0.3842
12719SOL    HW239926   8.527   0.123   9.325  0.5467 -0.3585  1.2943
12720SOL     OW39927   6.568   8.494   4.455  0.0814 -0.3561 -0.1129
12720SOL    HW139928   6.601   8.405   4.467  0.6193 -0.3157 -1.1342
12720SOL    HW239929   6.558   8.528   4.544  1.1247 -0.9883  0.2696
12721SOL     OW39930   8.262   2.377   3.180  0.3502 -0.0848  0.6084
12721SOL    HW139931   8.230   2.306   3.124  0.0444  2.2450 -2.3887
12721SOL    HW239932   8.183   2.421   3.211  0.5533 -0.7015  2.1263
12722SOL     OW39933   3.500   3.510   8.668  0.0192 -0.3837  0.2436
12722SOL    HW139934   3.553   3.579   8.709 -0.0595 -0.0058 -0.2810
12722SOL    HW239935   3.409   3.538   8.683 -0.0151  0.3106 -1.0694
12723SOL     OW39936   5.271   5.184   3.096  1.0924 -0.2804  0.2744
12723SOL    HW139937   5.325   5.164   3.173 -0.3057 -1.2922  1.0258
12723SOL    HW239938   5.231   5.101   3.072 -1.0635  0.6396  0.4647
12724SOL     OW39939   1.385   4.919   1.023 -0.3687 -0.2788  0.4260
12724SOL    HW139940   1.443   4.850   0.992 -1.0187 -2.0049  2.7524
12724SOL    HW239941   1.443   4.985   1.061  0.2443  0.3935 -1.5600
12725SOL     OW39942   2.375   7.797   7.356 -0.0054 -0.1053 -0.7172
12725SOL    HW139943   2.466   7.792   7.387  0.5385  0.8644 -2.0393
12725SOL    HW239944   2.377   7.753   7.271 -0.6196  0.4714 -1.0362
12726SOL     OW39945   1.822   9.193   5.271  0.5636  0.0859 -0.3179
12726SOL    HW139946   1.907   9.164   5.303  0.7335  1.9884  1.1575
12726SOL    HW239947   1.822   9.288   5.284 -2.1912  0.0371  0.8495
12727SOL     OW39948   1.050   8.986   5.994 -0.0386  0.8877 -0.1717
12727SOL    HW139949   0.960   8.985   6.026  0.2227  0.7010  0.5768
12727SOL    HW239950   1.091   9.059   6.039  0.4857  0.2708  0.3743
12728SOL     OW39951   9.533   7.255   9.622  0.0635  0.6050 -0.1294
12728SOL    HW139952   9.544   7.335   9.571  1.3877 -0.3180 -1.3751
12728SOL    HW239953   9.446   7.223   9.599 -0.3837  1.5615  0.2092
12729SOL     OW39954   1.965   4.036   3.276  0.0611  0.0043  0.3012
12729SOL    HW139955   2.019   4.092   3.220  2.1655  1.9745  3.8713
12729SOL    HW239956   2.028   3.995   3.336 -2.1103  0.3340  3.0280
12730SOL     OW39957   5.034   9.821   6.708  0.0054 -0.2629 -0.2008
12730SOL    HW139958   5.018   9.873   6.629  0.0126  0.2112  0.1064
12730SOL    HW239959   5.031   9.730   6.678  1.9875 -0.0626 -1.1440
12731SOL     OW39960   1.103   2.586   5.987  0.4436  0.2419  0.5112
12731SOL    HW139961   1.061   2.528   6.051 -1.4745 -0.2440 -1.0765
12731SOL    HW239962   1.104   2.535   5.906  0.1169  1.8639 -0.5583
12732SOL     OW39963   2.807   6.331   3.719 -0.0642 -0.2399  0.3634
12732SOL    HW139964   2.902   6.323   3.726 -0.0298  0.2906  0.5145
12732SOL    HW239965   2.793   6.418   3.683 -0.4476 -0.8458 -1.0021
12733SOL     OW39966   2.675   2.888   8.823 -0.2416 -0.3849 -0.4335
12733SOL    HW139967   2.637   2.884   8.910 -0.3621  0.7992 -0.4159
12733SOL    HW239968   2.759   2.931   8.835  0.1179 -0.9759 -0.7859
12734SOL     OW39969   7.534   1.416   6.476  0.3527  0.0041  0.0178
12734SOL    HW139970   7.508   1.481   6.410  0.1120  1.8203  1.8029
12734SOL    HW239971   7.453   1.397   6.523  0.5079 -1.3296 -0.2273
12735SOL     OW39972   5.550   4.704   7.547 -0.3077  0.1237  0.3123
12735SOL    HW139973   5.581   4.766   7.481  0.6311 -0.3263  0.3139
12735SOL    HW239974   5.456   4.719   7.551 -0.7301 -1.1299 -2.5146
12736SOL     OW39975   6.033   3.178   9.648 -0.0635  0.1508 -0.0330
12736SOL    HW139976   6.076   3.263   9.642 -0.0956  0.4581  2.7588
12736SOL    HW239977   5.943   3.198   9.674 -0.4539 -0.7005 -0.6585
12737SOL     OW39978   7.602   8.270   9.775  0.0433 -0.0820  0.4899
12737SOL    HW139979   7.638   8.182   9.767 -0.1637 -0.1930  0.7437
12737SOL    HW239980   7.627   8.315   9.694  1.4514  0.1020  0.9987
12738SOL     OW39981   1.541   3.162   3.125  1.0170  0.5583 -0.2932
12738SOL    HW139982   1.605   3.168   3.196 -1.5157  1.8046  2.0640
12738SOL    HW239983   1.503   3.075   3.134  0.4546  0.8422  0.1391
12739SOL     OW39984   9.280   0.808   3.999  0.0815 -0.0015  0.5462
12739SOL    HW139985   9.346   0.843   4.059  0.3745 -1.7601  1.3161
12739SOL    HW239986   9.215   0.767   4.056 -0.8205  0.2271 -0.2777
12740SOL     OW39987   3.293   8.598   9.315  0.4219 -0.7865 -0.4470
12740SOL    HW139988   3.340   8.664   9.264  0.5572  0.1589  0.8494
12740SOL    HW239989   3.349   8.582   9.391 -1.5504  0.8369  1.4804
12741SOL     OW39990   5.168   7.719   9.294  0.0276  0.1882 -0.7982
12741SOL    HW139991   5.212   7.715   9.379 -0.6323  1.0178 -0.4055
12741SOL    HW239992   5.093   7.661   9.303 -0.4899  0.8875 -0.5361
12742SOL     OW39993   6.673   2.911   9.398  0.0801  0.2640 -0.1437
12742SOL    HW139994   6.620   2.849   9.449  1.0410 -1.0234 -0.6480
12742SOL    HW239995   6.725   2.957   9.464  0.2261 -0.3201  0.1606
12743SOL     OW39996   2.068   1.127   6.155 -0.5336  0.1648  0.2253
12743SOL    HW139997   2.136   1.180   6.114  0.5471 -0.9440  0.5206
12743SOL    HW239998   2.008   1.191   6.194  0.2889  1.1671 -0.0977
12744SOL     OW39999   1.482   2.399   8.329  0.0969  0.2253 -0.4211
12744SOL    HW140000   1.426   2.371   8.257  0.3532  2.3494 -1.5228
12744SOL    HW240001   1.437   2.369   8.408 -0.5082 -1.6086 -1.4014
12745SOL     OW40002   2.712   1.994   9.767 -0.1525 -0.1544 -0.2020
12745SOL    HW140003   2.782   1.995   9.831 -1.0154 -0.9001  0.7936
12745SOL    HW240004   2.633   2.017   9.817 -0.7973 -0.4555 -1.0502
12746SOL     OW40005   6.508   7.413   7.136  0.7411 -0.0234 -0.1947
12746SOL    HW140006   6.495   7.363   7.216  1.3472 -0.2855 -0.2535
12746SOL    HW240007   6.426   7.405   7.088  0.9394 -1.2324 -0.3536
12747SOL     OW40008   7.858   5.683   1.502  0.6281 -0.2028 -0.3593
12747SOL    HW140009   7.945   5.702   1.465  2.1042 -0.7354  2.5488
12747SOL    HW240010   7.816   5.768   1.511  1.5381  0.2465 -0.2573
12748SOL     OW40011   4.740   3.830   9.775 -0.1079 -0.1273 -0.5865
12748SOL    HW140012   4.796   3.849   9.850 -2.5150  1.9514  0.8449
12748SOL    HW240013   4.759   3.900   9.713  1.1332 -1.2678 -1.5618
12749SOL     OW40014   2.760   8.712   6.566  0.2098 -0.4706  0.0026
12749SOL    HW140015   2.757   8.656   6.644  3.3329 -0.3559  0.3193
12749SOL    HW240016   2.764   8.801   6.601 -0.0300 -0.3170 -0.3562
12750SOL     OW40017   1.287   4.290   3.773 -0.2296 -0.4556  0.9136
12750SOL    HW140018   1.249   4.375   3.750  0.7880 -0.3569 -0.4855
12750SOL    HW240019   1.216   4.227   3.759 -0.8143  0.0830  1.3979
12751SOL     OW40020   9.753   8.537   1.736 -0.1542  0.5479 -0.4544
12751SOL    HW140021   9.700   8.598   1.787  2.1713  0.2916  2.5219
12751SOL    HW240022   9.728   8.451   1.769 -2.9691 -0.3393 -4.1860
12752SOL     OW40023   7.048   2.865   4.764  0.8509 -0.3154 -0.1082
12752SOL    HW140024   7.048   2.921   4.842  0.6728  1.2645 -1.1928
12752SOL    HW240025   6.990   2.793   4.786  0.0912  0.5759  0.9224
12753SOL     OW40026   7.004   4.894   0.379 -0.3763  0.3504 -0.1159
12753SOL    HW140027   6.952   4.846   0.314 -1.0034  0.1846  0.4907
12753SOL    HW240028   6.978   4.855   0.463  2.0723 -0.9971  0.0998
12754SOL     OW40029   3.506   0.554   4.477  0.2231  0.2392  0.8155
12754SOL    HW140030   3.529   0.476   4.426  0.3707  1.0300 -0.3573
12754SOL    HW240031   3.428   0.589   4.434  1.4278  1.9784 -0.0656
12755SOL     OW40032   1.617   2.844   5.986  0.6330 -0.8114  0.0440
12755SOL    HW140033   1.578   2.843   6.073  1.2794 -2.1414  0.3257
12755SOL    HW240034   1.621   2.752   5.960  0.6877 -0.4527 -1.2857
12756SOL     OW40035   3.802   1.657   3.434 -0.1210  0.2188  0.1604
12756SOL    HW140036   3.825   1.614   3.351 -2.4326 -3.7585  1.3164
12756SOL    HW240037   3.712   1.685   3.422 -0.3275  0.0161  1.1606
12757SOL     OW40038   3.974   0.523   1.395  0.3967  0.0438 -0.0901
12757SOL    HW140039   4.001   0.436   1.365  2.2046  0.3158  0.5819
12757SOL    HW240040   3.998   0.525   1.488  0.2412  1.1931 -0.0608
12758SOL     OW40041   0.064   4.837   3.111  0.0800 -0.0456  0.1789
12758SOL    HW140042   0.059   4.910   3.049  1.1558 -0.3562 -0.2945
12758SOL    HW240043   0.123   4.868   3.180  0.9062 -0.6122 -0.2529
12759SOL     OW40044   6.986   3.568   7.371 -0.3104 -0.2837 -0.2078
12759SOL    HW140045   7.013   3.634   7.307  0.2864  1.5285  1.7762
12759SOL    HW240046   6.989   3.485   7.323 -0.9562  1.0803 -2.7790
12760SOL     OW40047   3.323   0.948   8.688  0.0731  0.0563  0.0569
12760SOL    HW140048   3.319   0.900   8.771  0.6695  0.2344  0.1999
12760SOL    HW240049   3.240   0.994   8.683 -0.4645 -0.8911 -0.0242
12761SOL     OW40050   6.893   5.033   8.262 -0.5260  0.0411  0.1948
12761SOL    HW140051   6.835   5.091   8.214 -0.2088  0.7206  0.6086
12761SOL    HW240052   6.912   4.962   8.202 -0.5189  0.6274 -0.5031
12762SOL     OW40053   7.321   0.981   8.761  0.1407 -0.2674  0.3553
12762SOL    HW140054   7.331   1.016   8.672 -0.4434  0.8104  0.6990
12762SOL    HW240055   7.332   0.887   8.751 -0.5245 -0.2230 -0.9672
12763SOL     OW40056   3.058   7.495   5.820  0.5559 -0.0537  0.0033
12763SOL    HW140057   3.019   7.540   5.895  0.1620  0.2384 -0.3741
12763SOL    HW240058   3.149   7.526   5.818  0.1265  1.2147 -0.6179
12764SOL     OW40059   1.375   8.543   2.178 -0.4600 -0.2620  0.0142
12764SOL    HW140060   1.373   8.551   2.083  1.7790 -0.4337 -0.1093
12764SOL    HW240061   1.435   8.612   2.207 -1.0263 -0.2795  1.2939
12765SOL     OW40062   4.807   0.185   8.083 -0.1232 -0.4121 -0.7769
12765SOL    HW140063   4.845   0.101   8.059  1.2196  0.1103 -0.6061
12765SOL    HW240064   4.716   0.165   8.107 -0.6186 -1.3958 -3.2207
12766SOL     OW40065   3.125   0.002   0.586  0.1288  0.4221 -0.0729
12766SOL    HW140066   3.056   0.041   0.533  0.1869  1.1271  0.3578
12766SOL    HW240067   3.101   0.024   0.676  0.3831 -0.1941  0.1518
12767SOL     OW40068   0.561   1.129   5.369  0.7774  0.1351  0.1181
12767SOL    HW140069   0.625   1.158   5.435  2.0523 -0.9908 -0.5796
12767SOL    HW240070   0.614   1.093   5.298 -0.5611  1.3014 -1.5624
12768SOL     OW40071   5.104   0.540   3.231 -0.0860  0.8547  0.0556
12768SOL    HW140072   5.168   0.550   3.161 -0.7779  0.2338 -0.6856
12768SOL    HW240073   5.150   0.491   3.299  0.4678  1.1120 -0.1281
12769SOL     OW40074   5.352   2.735   0.733  0.4532 -0.0281 -0.4931
12769SOL    HW140075   5.351   2.640   0.744 -0.6168  0.0265  0.0439
12769SOL    HW240076   5.444   2.759   0.742  0.5813 -0.8736  0.6307
12770SOL     OW40077   5.170   0.545   6.648  0.0246 -0.0402  0.5280
12770SOL    HW140078   5.131   0.605   6.712 -0.4132 -0.4376  0.6346
12770SOL    HW240079   5.230   0.600   6.598  1.2270  0.0668  1.9987
12771SOL     OW40080   4.025   5.355   5.522 -0.1573 -0.3095 -0.0156
12771SOL    HW140081   3.950   5.384   5.470 -0.5268  0.0053  0.6844
12771SOL    HW240082   4.084   5.430   5.524 -1.4373  0.7565  2.4062
12772SOL     OW40083   5.961   2.809   7.026  0.3626  0.2091 -0.5140
12772SOL    HW140084   5.944   2.732   6.972 -1.9013  0.4372 -0.2229
12772SOL    HW240085   5.947   2.778   7.116  2.0697  0.3398 -0.1785
12773SOL     OW40086   0.826   0.969   0.036  0.4860  0.3437  0.3021
12773SOL    HW140087   0.805   0.998   0.124 -0.2331 -1.9691  0.9744
12773SOL    HW240088   0.758   0.906   0.014  1.1756  0.1534 -1.5444
12774SOL     OW40089   1.357   0.144   9.588 -0.7368  0.3254 -0.4415
12774SOL    HW140090   1.322   0.143   9.677 -0.5699  0.9249 -0.3681
12774SOL    HW240091   1.452   0.149   9.599 -0.6306 -0.8758 -0.6466
12775SOL     OW40092   8.948   8.332   4.323  0.5992 -0.3042 -0.2634
12775SOL    HW140093   9.032   8.328   4.277 -0.2658  0.7120 -2.0952
12775SOL    HW240094   8.886   8.292   4.262 -0.5544  0.7659  0.1536
12776SOL     OW40095   5.852   5.139   3.390 -0.1566  0.3567  0.1294
12776SOL    HW140096   5.946   5.136   3.375 -0.5355 -1.8162 -2.8748
12776SOL    HW240097   5.815   5.169   3.307 -2.1321  2.5579  1.6689
12777SOL     OW40098   7.782   6.794   1.128 -0.4234 -0.4634  0.2348
12777SOL    HW140099   7.859   6.848   1.111 -1.1864  0.7940  0.6030
12777SOL    HW240100   7.727   6.807   1.050 -0.7074 -0.5237  0.4254
12778SOL     OW40101   5.098   0.512   2.340 -0.0597  0.0414  0.3949
12778SOL    HW140102   5.127   0.471   2.422 -2.0926 -0.9129  0.7112
12778SOL    HW240103   5.124   0.451   2.272 -0.3667 -0.2912  0.5699
12779SOL     OW40104   3.490   7.477   6.203  0.2080 -0.3923  0.1858
12779SOL    HW140105   3.504   7.568   6.228 -0.7537 -0.0367 -0.4840
12779SOL    HW240106   3.521   7.471   6.113 -2.5579  0.1151 -0.9023
12780SOL     OW40107   5.876   1.021   7.402 -0.2458 -0.5732 -0.2399
12780SOL    HW140108   5.969   1.039   7.388 -0.3223  0.2374  0.1885
12780SOL    HW240109   5.837   1.030   7.316  0.0786 -0.9788 -0.4352
12781SOL     OW40110   9.806   1.839   4.049 -0.4784  0.4634  0.3345
12781SOL    HW140111   9.727   1.879   4.087 -0.6546  1.0060 -0.5778
12781SOL    HW240112   9.864   1.825   4.124 -1.8560 -0.9461  1.1977
12782SOL     OW40113   1.937   5.216   9.544 -0.3990  0.0857 -0.2120
12782SOL    HW140114   1.854   5.264   9.534 -0.9717 -0.7930  0.1586
12782SOL    HW240115   1.939   5.155   9.470 -0.3206 -0.2216  0.0375
12783SOL     OW40116   6.115   0.968   9.432 -0.0480 -0.3349  0.5074
12783SOL    HW140117   6.041   1.004   9.383 -1.3813 -0.2843  2.4660
12783SOL    HW240118   6.104   0.874   9.426 -1.5673 -0.3649  2.4963
12784SOL     OW40119   1.097   5.441   1.028 -0.4782  0.0455  0.6341
12784SOL    HW140120   1.021   5.473   0.979  0.6128  0.2468 -0.9703
12784SOL    HW240121   1.092   5.488   1.112 -1.4509  0.9608  0.0890
12785SOL     OW40122   1.724   8.326   8.359  0.4993  0.1260 -0.6042
12785SOL    HW140123   1.734   8.392   8.427 -1.8151 -0.0396 -0.0398
12785SOL    HW240124   1.690   8.249   8.405  0.7450 -0.6376 -1.6619
12786SOL     OW40125   5.348   3.662   1.882  0.1063 -0.1642 -0.1793
12786SOL    HW140126   5.352   3.754   1.909 -0.1868 -0.2576  0.1875
12786SOL    HW240127   5.276   3.624   1.933  0.0174 -0.5230 -0.5601
12787SOL     OW40128   0.934   1.612   3.668  0.0069  0.5306 -0.0409
12787SOL    HW140129   0.867   1.576   3.610 -0.8249  3.1723 -0.8697
12787SOL    HW240130   0.912   1.578   3.755  0.0187 -1.8147 -0.8862
12788SOL     OW40131   1.959   0.171   0.464 -0.0607 -0.7726 -0.4526
12788SOL    HW140132   1.993   0.255   0.434 -2.4096  0.2774 -0.4108
12788SOL    HW240133   1.956   0.178   0.559  0.7799 -1.3719 -0.3677
12789SOL     OW40134   2.021   0.671   8.220 -0.1442  0.0281 -0.3417
12789SOL    HW140135   1.991   0.677   8.310  0.9094  0.6671 -0.0211
12789SOL    HW240136   2.116   0.659   8.226 -0.1095 -0.3951 -1.3553
12790SOL     OW40137   7.769   6.751   5.843  0.1642 -0.1015 -0.1820
12790SOL    HW140138   7.788   6.659   5.825 -0.5832 -0.1435 -0.8017
12790SOL    HW240139   7.851   6.796   5.821  0.7620 -0.6792  0.7859
12791SOL     OW40140   4.774   9.347   4.374  0.4310 -0.2131 -0.3369
12791SOL    HW140141   4.784   9.256   4.402  0.8180 -0.5614 -1.5550
12791SOL    HW240142   4.681   9.356   4.355  0.2985 -0.1925  0.2815
12792SOL     OW40143   0.055   8.492   3.144 -0.5501 -0.6871  0.5450
12792SOL    HW140144   0.129   8.481   3.203 -1.8009  0.6502  2.4935
12792SOL    HW240145   0.067   8.425   3.077  1.8190 -1.1941  1.3818
12793SOL     OW40146   7.966   8.344   1.758  0.3283 -0.0038 -0.0774
12793SOL    HW140147   7.911   8.358   1.835  0.3890  2.0531 -0.3357
12793SOL    HW240148   7.975   8.249   1.751 -1.1495 -0.2959  1.3922
12794SOL     OW40149   5.769   7.512   8.054  0.0728  0.5226 -0.3971
12794SOL    HW140150   5.686   7.498   8.009  0.9787  0.9232 -2.3002
12794SOL    HW240151   5.753   7.587   8.112 -0.8960  0.5617 -0.7028
12795SOL     OW40152   3.395   0.128   7.922 -0.1301  0.0200 -0.1740
12795SOL    HW140153   3.332   0.146   7.851 -1.0558 -2.6858 -0.1539
12795SOL    HW240154   3.480   0.126   7.878 -0.2907  1.3816 -0.6191
12796SOL     OW40155   2.068   6.247   4.427 -0.2570  0.3826 -0.5610
12796SOL    HW140156   2.139   6.219   4.369 -2.3832 -2.2451 -2.1671
12796SOL    HW240157   2.057   6.340   4.408  3.0165  1.0688  0.2111
12797SOL     OW40158   0.055   8.047   9.239  0.7006 -0.3604 -0.2039
12797SOL    HW140159   0.084   7.961   9.271  1.3412  0.2010  0.8071
12797SOL    HW240160   0.108   8.063   9.161  0.3408 -1.0186 -0.5892
12798SOL     OW40161   6.261   6.899   5.174  0.0245 -0.0112  0.6209
12798SOL    HW140162   6.321   6.930   5.243  1.9111 -1.0013 -0.4886
12798SOL    HW240163   6.252   6.805   5.190 -0.5451 -0.0216  0.2631
12799SOL     OW40164   4.560   5.200   1.307 -0.0724  0.1097  0.4099
12799SOL    HW140165   4.509   5.154   1.373  0.8249  1.3014  2.0261
12799SOL    HW240166   4.502   5.270   1.277 -0.1445  0.1596  0.6616
12800SOL     OW40167   8.114   9.287   0.047 -0.0926 -0.4926 -0.4148
12800SOL    HW140168   8.050   9.241  -0.007 -0.0391  1.4103 -2.2019
12800SOL    HW240169   8.062   9.322   0.120 -0.3082 -2.3506  0.4021
12801SOL     OW40170   6.976   5.895   7.544 -0.4316  0.1605 -0.6641
12801SOL    HW140171   7.036   5.969   7.533 -1.4828  1.2653  0.6005
12801SOL    HW240172   6.907   5.929   7.602  0.3608 -2.5084  2.1438
12802SOL     OW40173   5.500   3.831   6.037  0.8622 -0.0670 -0.2480
12802SOL    HW140174   5.560   3.759   6.057  0.5786 -0.5506 -1.1054
12802SOL    HW240175   5.413   3.795   6.058  0.6744 -0.1523 -1.1429
12803SOL     OW40176   5.492   3.432   6.382  0.5040  0.0052  0.5967
12803SOL    HW140177   5.497   3.341   6.412  1.6551  0.0561  0.6147
12803SOL    HW240178   5.581   3.451   6.351  0.1792  1.0136  0.2643
12804SOL     OW40179   4.878   6.168   9.559 -0.2675  0.2373 -0.0059
12804SOL    HW140180   4.875   6.073   9.556 -0.0270  0.2324 -0.1144
12804SOL    HW240181   4.827   6.191   9.637 -0.9642  0.0598 -0.4036
12805SOL     OW40182   2.617   2.396   8.213  0.3323 -0.1835  0.2725
12805SOL    HW140183   2.618   2.309   8.254 -0.7633 -0.1479  0.4078
12805SOL    HW240184   2.691   2.394   8.152 -0.6464 -1.8570 -0.9707
12806SOL     OW40185   4.296   0.774   5.847  0.3669 -0.7733 -0.2613
12806SOL    HW140186   4.264   0.848   5.795 -0.9173  0.1241  1.6729
12806SOL    HW240187   4.390   0.770   5.827  0.3679  1.0387 -0.8520
12807SOL     OW40188   5.153   5.241   1.783 -0.0157  0.1631  0.6416
12807SOL    HW140189   5.246   5.229   1.766  0.2416 -0.1781  2.1374
12807SOL    HW240190   5.113   5.247   1.696  1.4517  0.7987 -0.0194
12808SOL     OW40191   9.371   5.172   5.194  0.6601  0.0413 -0.3800
12808SOL    HW140192   9.431   5.221   5.250 -0.3820  1.8462 -0.7288
12808SOL    HW240193   9.401   5.191   5.105 -0.2660  0.8090 -0.5486
12809SOL     OW40194   0.741   6.832   1.940 -0.4617  0.3079 -0.4142
12809SOL    HW140195   0.650   6.803   1.930 -0.2301 -1.1471  1.1828
12809SOL    HW240196   0.765   6.806   2.029  1.3327  1.2425 -0.5677
12810SOL     OW40197   1.435   1.652   3.566  0.2835 -0.4425  0.1825
12810SOL    HW140198   1.395   1.632   3.481 -1.7195  0.5855  0.8217
12810SOL    HW240199   1.434   1.747   3.571 -1.5800 -0.5067  2.2007
12811SOL     OW40200   6.011   3.628   8.215  0.0270  0.3360  0.2622
12811SOL    HW140201   6.016   3.684   8.137  0.4221  0.0800  0.0985
12811SOL    HW240202   5.993   3.688   8.287  3.4213  1.1667  0.5938
12812SOL     OW40203   8.952   0.342   2.521 -0.0368 -0.0229 -0.6285
12812SOL    HW140204   8.860   0.317   2.510 -0.2052 -0.0810  0.6849
12812SOL    HW240205   8.990   0.336   2.433 -1.8581  2.3979 -1.6812
12813SOL     OW40206   8.849   5.850   2.389  0.7452  0.1582 -0.0277
12813SOL    HW140207   8.902   5.889   2.319  1.1691  1.6170  1.0446
12813SOL    HW240208   8.873   5.901   2.467 -0.8251 -0.4274  0.8702
12814SOL     OW40209   9.017   3.750   7.994 -0.0401 -0.5378  0.1250
12814SOL    HW140210   8.980   3.723   8.078  1.3443 -1.3278  0.5127
12814SOL    HW240211   9.002   3.675   7.936 -0.1802 -0.3492 -0.0853
12815SOL     OW40212   5.892   5.020   7.504 -0.4465 -0.1197  0.4324
12815SOL    HW140213   5.909   5.076   7.428 -1.5023  0.2963  0.4719
12815SOL    HW240214   5.865   5.081   7.572  2.6500 -0.2381  1.8937
12816SOL     OW40215   8.178   4.507   6.307 -0.2210 -0.0109  0.1432
12816SOL    HW140216   8.271   4.496   6.329 -0.4151  1.4001  1.8740
12816SOL    HW240217   8.179   4.561   6.227  0.4386 -0.7853 -0.3901
12817SOL     OW40218   9.663   4.281   8.022  0.3526 -0.5984 -0.6688
12817SOL    HW140219   9.684   4.317   7.935 -0.0664  0.0507 -0.5089
12817SOL    HW240220   9.613   4.351   8.065 -0.2365 -1.2772 -0.2420
12818SOL     OW40221   9.330   1.026   7.595  0.4527 -0.0067 -0.0318
12818SOL    HW140222   9.327   0.976   7.513 -2.7341 -0.3282  0.1595
12818SOL    HW240223   9.276   0.975   7.656  1.6727  0.8954  1.9005
12819SOL     OW40224   8.933   2.148   4.301 -0.3513  0.4036  0.2482
12819SOL    HW140225   8.878   2.081   4.342  1.8879 -1.1912  0.8378
12819SOL    HW240226   8.878   2.227   4.301 -2.5847 -1.0365  0.8237
12820SOL     OW40227   7.304   0.496   8.343  0.0060  0.2410 -0.6188
12820SOL    HW140228   7.369   0.437   8.380 -0.5219  1.5600  2.8394
12820SOL    HW240229   7.354   0.558   8.290  1.1838 -0.4757 -0.3643
12821SOL     OW40230   1.320   2.807   1.862  0.3913 -0.2028 -0.1536
12821SOL    HW140231   1.266   2.766   1.795  0.6065 -1.2923  0.3241
12821SOL    HW240232   1.405   2.819   1.820  0.9539 -2.1907  0.3271
12822SOL     OW40233   2.211   8.608   1.733  0.4642 -0.3393 -0.7388
12822SOL    HW140234   2.196   8.536   1.793 -3.4709  2.0734  1.6169
12822SOL    HW240235   2.137   8.605   1.672 -0.6999  2.3555  0.3588
12823SOL     OW40236   7.757   1.105   8.010 -0.0152 -0.2060  0.4759
12823SOL    HW140237   7.666   1.083   8.029 -0.2325 -0.0624 -0.3663
12823SOL    HW240238   7.808   1.038   8.056 -0.5559 -0.5427  0.5927
12824SOL     OW40239   7.783   1.824   1.263 -0.1548  0.4324 -0.2004
12824SOL    HW140240   7.702   1.866   1.233  0.2324 -0.8917 -3.5413
12824SOL    HW240241   7.843   1.831   1.189  2.0477 -0.6232  1.3559
12825SOL     OW40242   4.446   5.289   4.441 -0.2690  0.1123  0.2486
12825SOL    HW140243   4.434   5.213   4.497 -0.0134  1.8666  2.8802
12825SOL    HW240244   4.380   5.352   4.470 -0.4467  0.9418 -1.7912
12826SOL     OW40245   7.724   8.822   5.139 -0.4819  0.1035  0.1052
12826SOL    HW140246   7.668   8.835   5.062  0.1962 -0.8760 -0.5719
12826SOL    HW240247   7.798   8.881   5.124  0.5485 -1.3551 -0.9362
12827SOL     OW40248   3.020   8.104   8.237  0.2781  0.0382 -0.7088
12827SOL    HW140249   2.947   8.165   8.228  1.1008  1.0888 -0.4047
12827SOL    HW240250   3.097   8.154   8.209  0.6760 -1.5957 -2.8446
12828SOL     OW40251   1.540   3.179   5.429 -0.2901  0.1351 -0.1049
12828SOL    HW140252   1.622   3.227   5.440  0.2433 -0.4913 -1.1815
12828SOL    HW240253   1.473   3.236   5.468  0.6770  0.5312  1.0289
12829SOL     OW40254   7.146   6.933   5.676 -0.3055 -0.0345  0.3239
12829SOL    HW140255   7.131   6.915   5.769  1.4308  0.6132  0.7726
12829SOL    HW240256   7.219   6.877   5.652  1.5974  2.2640  0.3372
12830SOL     OW40257   4.365   5.124   9.403  0.6056 -0.1892 -0.2161
12830SOL    HW140258   4.281   5.123   9.358 -0.5596  0.6898  1.8062
12830SOL    HW240259   4.373   5.037   9.441  0.1201  0.0218  0.3890
12831SOL     OW40260   9.606   1.056   1.118  0.4893  0.4060  0.6091
12831SOL    HW140261   9.602   1.151   1.111  0.7409  0.3699 -0.0296
12831SOL    HW240262   9.684   1.031   1.069  0.1153 -0.1771  0.2945
12832SOL     OW40263   3.565   5.130   8.146  0.4321 -0.7308 -0.1059
12832SOL    HW140264   3.474   5.107   8.130 -0.0232  0.9212  0.0076
12832SOL    HW240265   3.570   5.147   8.240  0.6922 -0.1523 -0.2191
12833SOL     OW40266   5.168   8.540   1.279 -0.1504 -0.5213 -0.0870
12833SOL    HW140267   5.143   8.547   1.371  0.4610  0.5736  0.0175
12833SOL    HW240268   5.264   8.534   1.280 -0.2159 -2.4501 -0.5794
12834SOL     OW40269   2.394   5.647   0.231 -0.1032  0.2323  0.0439
12834SOL    HW140270   2.360   5.571   0.277  0.0878 -0.6130 -1.1581
12834SOL    HW240271   2.443   5.610   0.157 -2.2487  1.5428 -2.1612
12835SOL     OW40272   5.467   5.154   1.277  0.0478  0.4137 -0.7448
12835SOL    HW140273   5.547   5.138   1.327 -0.3929 -0.4119 -0.2822
12835SOL    HW240274   5.482   5.108   1.194 -0.9943 -2.1104  0.3726
12836SOL     OW40275   5.625   3.525   3.204 -0.1492 -0.1879 -0.6362
12836SOL    HW140276   5.541   3.482   3.218 -1.5769  2.0002 -1.9076
12836SOL    HW240277   5.666   3.477   3.132  0.3397 -2.0567  0.8142
12837SOL     OW40278   4.898   1.795   6.546  0.2982  0.2886  0.3576
12837SOL    HW140279   4.932   1.757   6.464 -0.2776  0.1428  0.1849
12837SOL    HW240280   4.968   1.853   6.576  0.9316 -0.4331  0.2965
12838SOL     OW40281   9.640   8.276   0.935 -0.6153  0.8637 -0.0906
12838SOL    HW140282   9.695   8.198   0.925 -0.9835  0.2313  2.1967
12838SOL    HW240283   9.592   8.282   0.853  0.1707 -0.7107 -0.7165
12839SOL     OW40284   8.280   9.634   2.349  0.2587  0.1923 -0.1758
12839SOL    HW140285   8.335   9.712   2.351 -1.8300  1.7816 -0.9419
12839SOL    HW240286   8.311   9.581   2.423  0.8937  2.3677  1.2321
12840SOL     OW40287   9.246   2.236   3.512  0.1240  0.1080 -0.1634
12840SOL    HW140288   9.304   2.311   3.519 -0.3318  0.5308 -0.7953
12840SOL    HW240289   9.199   2.235   3.595  0.2438  0.4318 -0.0887
12841SOL     OW40290   0.976   3.802   0.178 -0.1472 -0.4321 -0.1982
12841SOL    HW140291   1.052   3.746   0.162  0.4891  0.2509  0.3612
12841SOL    HW240292   1.013   3.881   0.217 -1.0723  0.2291 -0.6414
12842SOL     OW40293   2.213   0.657   3.056  0.0624  0.2240  0.1766
12842SOL    HW140294   2.241   0.574   3.094  3.3587  1.2431  0.2664
12842SOL    HW240295   2.194   0.636   2.964 -1.6010 -1.0247  0.7619
12843SOL     OW40296   5.402   5.286   1.560  0.0597  0.0697 -0.1310
12843SOL    HW140297   5.407   5.197   1.594  1.0030 -0.1887 -0.8950
12843SOL    HW240298   5.464   5.287   1.487  1.3175  1.8082  0.9053
12844SOL     OW40299   7.075   1.226   6.538 -0.2075  0.2827  0.1598
12844SOL    HW140300   7.011   1.155   6.534  0.1628 -0.0229 -0.6481
12844SOL    HW240301   7.140   1.204   6.471  0.5066  0.8167  0.6495
12845SOL     OW40302   9.362   2.717   7.069 -0.0383 -0.6127 -0.1057
12845SOL    HW140303   9.421   2.755   7.003 -0.3728  0.9882  0.4734
12845SOL    HW240304   9.314   2.792   7.104 -0.1064 -1.4646  1.7298
12846SOL     OW40305   1.776   0.056   3.359  0.2259 -0.3136  0.0827
12846SOL    HW140306   1.763   0.127   3.421  2.3635 -0.1752  0.4330
12846SOL    HW240307   1.805   0.099   3.278  4.5754 -0.8023  1.1717
12847SOL     OW40308   1.523   0.878   0.548  0.1216 -0.3844 -0.0531
12847SOL    HW140309   1.456   0.851   0.486 -0.0140  0.7413 -0.4229
12847SOL    HW240310   1.480   0.875   0.633 -0.7997  1.4733 -0.4080
12848SOL     OW40311   2.031   7.213   6.284 -0.6829 -0.2631  0.0012
12848SOL    HW140312   1.946   7.173   6.301 -0.7964 -0.2134 -0.4465
12848SOL    HW240313   2.084   7.190   6.361 -1.4203  0.6287  0.8005
12849SOL     OW40314   1.783   0.568   3.549 -0.3642 -0.6786 -0.7034
12849SOL    HW140315   1.861   0.612   3.516 -0.5608  1.6559  1.6178
12849SOL    HW240316   1.710   0.611   3.505 -0.4938  0.4294  0.5389
12850SOL     OW40317   6.576   9.745   1.235 -0.0935 -0.4438 -0.2240
12850SOL    HW140318   6.560   9.725   1.143  0.9339 -2.8749  0.0405
12850SOL    HW240319   6.490   9.740   1.276 -0.2604 -1.8627 -0.6796
12851SOL     OW40320   4.088   7.582   7.800 -0.0367 -0.0427  0.6758
12851SOL    HW140321   4.105   7.618   7.713  1.4057 -0.7265  0.6317
12851SOL    HW240322   4.006   7.623   7.828  0.5087  1.7391 -0.1669
12852SOL     OW40323   5.652   3.045   0.612 -0.2755 -0.2809 -0.0579
12852SOL    HW140324   5.727   2.989   0.633  0.9546  0.4419 -2.1557
12852SOL    HW240325   5.691   3.122   0.569 -2.0820  1.1104  0.6519
12853SOL     OW40326   6.141   5.218   3.775  0.3385 -0.1947 -0.6003
12853SOL    HW140327   6.202   5.261   3.715  0.3380 -0.0954 -0.5308
12853SOL    HW240328   6.196   5.191   3.849 -0.0597  2.0473  0.6213
12854SOL     OW40329   1.306   3.046   3.881  0.1763  0.2756  0.0153
12854SOL    HW140330   1.229   3.096   3.855 -0.8023 -0.8802  0.5821
12854SOL    HW240331   1.349   3.100   3.947 -0.2417  0.8509 -0.1769
12855SOL     OW40332   0.537   2.433   1.195  0.2111  0.1370 -0.1210
12855SOL    HW140333   0.562   2.364   1.134  0.3533  0.5864 -0.5713
12855SOL    HW240334   0.453   2.404   1.231  0.7378 -0.7498  0.4292
12856SOL     OW40335   5.373   9.568   2.098 -0.2775  0.4269 -0.2083
12856SOL    HW140336   5.463   9.558   2.068  0.2562 -0.1573  1.4570
12856SOL    HW240337   5.367   9.511   2.174 -1.9470  0.7757 -0.0411
12857SOL     OW40338   5.249   0.584   8.605 -0.5938  0.7426  0.1370
12857SOL    HW140339   5.310   0.558   8.674 -1.5725  1.8129  1.4383
12857SOL    HW240340   5.165   0.594   8.649 -1.4857  0.4331 -1.4112
12858SOL     OW40341   3.920   3.993   9.739  0.0188 -0.0314 -0.9359
12858SOL    HW140342   3.827   4.005   9.721 -0.3117 -0.6312  0.2753
12858SOL    HW240343   3.964   4.029   9.662 -1.2331 -0.5499 -1.9375
12859SOL     OW40344   1.046   8.476   4.827  1.1077 -0.2673 -0.8412
12859SOL    HW140345   1.005   8.406   4.777  1.8464 -1.4474  0.1355
12859SOL    HW240346   1.038   8.448   4.918 -0.6974  2.0843 -0.1884
12860SOL     OW40347   9.323   6.956   3.004 -0.2195  0.6050 -0.1282
12860SOL    HW140348   9.381   6.880   3.005 -0.9098  0.0618 -0.5406
12860SOL    HW240349   9.343   7.003   3.085  0.0794 -0.1201  0.2197
12861SOL     OW40350   6.339   0.871   9.541 -0.0671  0.2950  0.0152
12861SOL    HW140351   6.305   0.858   9.629  2.1302  2.7623  1.4020
12861SOL    HW240352   6.286   0.941   9.505 -0.0154  0.3237 -0.0059
12862SOL     OW40353   1.105   3.412   4.380  0.0077  0.1658 -0.1331
12862SOL    HW140354   1.028   3.360   4.400 -0.4990  1.1688  0.6111
12862SOL    HW240355   1.074   3.480   4.321  0.5593 -0.0793 -0.7170
12863SOL     OW40356   9.358   6.747   5.306 -0.2674 -0.1127 -0.2044
12863SOL    HW140357   9.391   6.822   5.356  0.2268  0.6860 -1.6689
12863SOL    HW240358   9.332   6.784   5.222 -2.7839 -1.1042  0.0608
12864SOL     OW40359   3.923   3.482   0.074  0.1862 -0.0233  0.7949
12864SOL    HW140360   3.901   3.566   0.115  1.0062  0.9023 -0.5639
12864SOL    HW240361   4.003   3.454   0.117  0.1278  0.0915  0.9797
12865SOL     OW40362   5.466   7.210   4.323  0.2857 -0.4179 -0.2634
12865SOL    HW140363   5.413   7.130   4.317 -0.3475 -0.0421  0.1743
12865SOL    HW240364   5.518   7.211   4.243  0.3858 -1.3325 -0.2158
12866SOL     OW40365   0.368   2.423   0.295 -0.1377 -0.1613 -0.0020
12866SOL    HW140366   0.367   2.328   0.287 -1.9882 -0.1641 -0.1917
12866SOL    HW240367   0.289   2.452   0.249  0.3064  1.4571  0.1909
12867SOL     OW40368   0.142   5.889   7.293  0.1557 -0.0066  0.6913
12867SOL    HW140369   0.097   5.933   7.220 -0.2968 -0.9439  0.3944
12867SOL    HW240370   0.144   5.797   7.268  2.4808  0.0226  0.5696
12868SOL     OW40371   4.132   4.483   7.657 -0.2359  0.2409 -0.0523
12868SOL    HW140372   4.077   4.527   7.592  0.2626  0.7399 -0.1476
12868SOL    HW240373   4.219   4.521   7.644  0.5124 -1.6438 -0.9918
12869SOL     OW40374   8.884   0.203   5.324  0.1320  0.2586  0.0293
12869SOL    HW140375   8.947   0.271   5.300  0.4363 -0.0340 -0.0030
12869SOL    HW240376   8.917   0.123   5.282  0.2230 -0.0818  0.7378
12870SOL     OW40377   6.628   9.674   4.077  0.2769 -0.2679 -0.2138
12870SOL    HW140378   6.720   9.665   4.103  0.3373 -0.1521 -0.3817
12870SOL    HW240379   6.601   9.585   4.053  0.8902 -0.0335 -1.9352
12871SOL     OW40380   7.790   0.355   2.882 -0.1888 -0.4421 -0.1125
12871SOL    HW140381   7.835   0.270   2.885  1.3237  0.2189 -2.0338
12871SOL    HW240382   7.833   0.407   2.949  0.0885 -0.6632 -0.1141
12872SOL     OW40383   5.053   4.433   4.453 -0.5157 -0.3850 -0.2328
12872SOL    HW140384   5.035   4.451   4.546 -1.9817  0.6921 -0.6794
12872SOL    HW240385   5.085   4.343   4.451 -1.0029 -0.6162  1.2655
12873SOL     OW40386   3.809   5.866   1.453 -0.2951 -0.3903  0.0425
12873SOL    HW140387   3.792   5.788   1.505 -1.1047  0.0077  0.4013
12873SOL    HW240388   3.833   5.932   1.518  1.9523 -0.7331 -0.3872
12874SOL     OW40389   5.521   6.636   4.508  0.2383  0.3410  0.3059
12874SOL    HW140390   5.532   6.542   4.495  0.7601  0.5335 -0.7904
12874SOL    HW240391   5.433   6.645   4.546  0.7500 -0.6712  1.8188
12875SOL     OW40392   8.625   0.645   0.403  0.0955 -0.2961 -0.0181
12875SOL    HW140393   8.716   0.646   0.374 -0.0758 -0.9308 -0.5929
12875SOL    HW240394   8.574   0.665   0.325 -0.3384 -1.5581 -0.0905
12876SOL     OW40395   6.968   0.971   6.303 -0.4405 -0.5321 -0.3641
12876SOL    HW140396   7.021   0.899   6.339  0.4616 -0.1481 -0.8798
12876SOL    HW240397   6.955   0.947   6.211  0.0710  0.0712 -0.6005
12877SOL     OW40398   4.885   6.064   1.223  0.4269 -0.2127  0.3046
12877SOL    HW140399   4.796   6.036   1.243  0.1571  0.0749 -0.4576
12877SOL    HW240400   4.941   5.999   1.266 -0.1682 -1.0316 -0.1427
12878SOL     OW40401   5.607   7.078   3.232  0.1068 -0.3062 -0.6941
12878SOL    HW140402   5.669   7.006   3.246  0.1466 -0.8217 -3.1673
12878SOL    HW240403   5.532   7.036   3.190 -0.4489  0.9033 -0.9326
12879SOL     OW40404   9.359   2.180   8.872  0.4813  0.6225 -0.1203
12879SOL    HW140405   9.315   2.100   8.900  2.5071 -1.3416 -2.0877
12879SOL    HW240406   9.289   2.234   8.836 -0.7061 -1.2517 -0.7920
12880SOL     OW40407   0.579   0.567   3.580  0.8707  0.6243 -0.1076
12880SOL    HW140408   0.518   0.494   3.572  1.3153  0.0650  1.3883
12880SOL    HW240409   0.611   0.581   3.491 -0.2649 -0.0802 -0.6467
12881SOL     OW40410   3.166   5.074   0.397 -0.5395 -0.1554 -0.1160
12881SOL    HW140411   3.246   5.097   0.349  0.5238 -1.5011  0.8957
12881SOL    HW240412   3.096   5.078   0.332  0.2755  1.4383 -0.9473
12882SOL     OW40413   3.409   6.513   7.029 -0.0941 -0.1231 -0.3480
12882SOL    HW140414   3.462   6.456   7.085 -0.3146  0.3828  0.3878
12882SOL    HW240415   3.333   6.459   7.005  0.2149 -0.4866 -0.5185
12883SOL     OW40416   7.304   0.477   1.554  0.4412  0.0517 -0.2685
12883SOL    HW140417   7.215   0.449   1.578 -0.3148  0.8584 -1.9409
12883SOL    HW240418   7.353   0.473   1.636 -1.2463 -0.0254  0.8021
12884SOL     OW40419   3.095   4.739   4.527  0.1065  0.1373  0.5812
12884SOL    HW140420   3.008   4.725   4.489 -0.5296  1.0449  1.6136
12884SOL    HW240421   3.145   4.782   4.458 -0.5262  0.3459  0.2406
12885SOL     OW40422   6.706   1.793   6.125 -0.5126  0.3923 -0.0928
12885SOL    HW140423   6.705   1.820   6.216  0.3930 -0.5069  0.2067
12885SOL    HW240424   6.799   1.798   6.100 -0.4479 -1.4104 -0.3104
12886SOL     OW40425   6.743   3.258   6.637  0.3753  0.4939 -0.1556
12886SOL    HW140426   6.684   3.333   6.626 -0.2514  0.0268 -0.0533
12886SOL    HW240427   6.759   3.227   6.548 -3.0323 -2.0136 -0.0855
12887SOL     OW40428   8.433   9.180   0.384 -0.2290 -0.0381 -0.7794
12887SOL    HW140429   8.340   9.162   0.389 -0.0670 -2.3925 -3.5518
12887SOL    HW240430   8.442   9.237   0.307  0.6023  0.7727 -0.1139
12888SOL     OW40431   6.531   2.675   8.363 -0.5408  0.4664  0.1882
12888SOL    HW140432   6.453   2.627   8.336 -0.7651 -0.1906  1.8495
12888SOL    HW240433   6.602   2.611   8.357  0.1374  1.3298 -2.2950
12889SOL     OW40434   6.873   8.177   4.326  0.1505 -0.2748  0.7820
12889SOL    HW140435   6.899   8.161   4.417  0.0030 -0.8074  0.7337
12889SOL    HW240436   6.951   8.216   4.286  0.6412 -1.1850  0.8262
12890SOL     OW40437   3.473   3.978   9.406 -0.1498  0.3858  0.1292
12890SOL    HW140438   3.504   4.069   9.403  1.2269 -0.0728 -0.7259
12890SOL    HW240439   3.384   3.982   9.373 -0.1839  1.4528  0.3069
12891SOL     OW40440   6.598   6.384   6.208  0.0074 -0.0740 -0.1896
12891SOL    HW140441   6.634   6.394   6.120  0.9416 -2.2328 -0.1274
12891SOL    HW240442   6.524   6.324   6.196 -2.2149  2.4886  0.0279
12892SOL     OW40443   7.725   6.633   2.209 -0.4103  0.1445 -0.3467
12892SOL    HW140444   7.719   6.596   2.297 -0.4899 -0.2206 -0.5037
12892SOL    HW240445   7.777   6.570   2.160  1.2777  1.2478 -0.0790
12893SOL     OW40446   0.873   9.748   8.521  0.4448 -0.0615 -0.1698
12893SOL    HW140447   0.957   9.705   8.538  0.2397 -1.1652 -1.7786
12893SOL    HW240448   0.826   9.688   8.464 -1.4698  0.5344  0.6911
12894SOL     OW40449   0.431   3.429   3.998  0.0668 -0.4214 -0.2166
12894SOL    HW140450   0.383   3.491   4.053  0.8271 -0.0237  0.0067
12894SOL    HW240451   0.372   3.354   3.990 -0.6050  0.0701  0.0255
12895SOL     OW40452   4.787   1.732   1.083  0.4199 -0.0348 -0.3005
12895SOL    HW140453   4.797   1.805   1.143 -0.5944 -1.2216  1.3885
12895SOL    HW240454   4.874   1.720   1.045  0.5790  2.0850 -0.7335
12896SOL     OW40455   3.060   1.099   3.532  0.1619 -0.1426  0.2144
12896SOL    HW140456   3.110   1.024   3.500  1.4463  1.2362 -1.1749
12896SOL    HW240457   2.998   1.061   3.594  2.1573 -2.0915  1.1779
12897SOL     OW40458   9.048   9.634   9.468 -0.3079 -0.7059 -0.2331
12897SOL    HW140459   9.036   9.665   9.378 -1.8483  0.4420  0.3315
12897SOL    HW240460   8.977   9.675   9.517  0.9272 -0.7235  1.6569
12898SOL     OW40461   3.702   0.465   5.239 -0.3023 -0.7075  0.6935
12898SOL    HW140462   3.762   0.530   5.204  0.3684 -2.1208 -0.9567
12898SOL    HW240463   3.739   0.381   5.211 -1.4311 -1.7828  2.2427
12899SOL     OW40464   2.363   7.231   9.337 -0.1291 -0.0263 -0.1319
12899SOL    HW140465   2.278   7.204   9.371 -0.0474 -0.6161 -0.3847
12899SOL    HW240466   2.406   7.149   9.313  0.2608  0.3125 -0.5993
12900SOL     OW40467   0.770   1.891   7.292  0.0113  0.0095  0.4681
12900SOL    HW140468   0.773   1.884   7.196 -1.0817 -0.1372  0.4384
12900SOL    HW240469   0.820   1.816   7.323 -1.7439 -1.4050  0.0252
12901SOL     OW40470   5.147   9.251   9.282 -0.3331  0.2763 -0.0531
12901SOL    HW140471   5.075   9.190   9.300 -0.7058  0.3807 -1.0958
12901SOL    HW240472   5.133   9.278   9.191  1.0629  0.2554 -0.2948
12902SOL     OW40473   5.564   6.290   9.554 -0.1161  0.8463 -0.3995
12902SOL    HW140474   5.638   6.229   9.553 -1.1698 -0.4679 -0.8428
12902SOL    HW240475   5.580   6.349   9.481  0.7308  0.8935 -0.1855
12903SOL     OW40476   8.079   4.092   3.783  0.4906 -0.1875 -0.8688
12903SOL    HW140477   8.034   4.158   3.836 -1.0165 -1.3537 -0.5901
12903SOL    HW240478   8.170   4.094   3.813  0.4568  1.6711 -0.8193
12904SOL     OW40479   8.521   6.677   7.724  0.1498 -0.9432  0.0567
12904SOL    HW140480   8.520   6.772   7.713  0.0805 -1.1257 -1.7949
12904SOL    HW240481   8.442   6.647   7.678  0.2409 -1.9051  0.5082
12905SOL     OW40482   6.507   8.556   7.996 -0.2986 -0.0144  0.1783
12905SOL    HW140483   6.419   8.530   7.971 -0.1896 -1.1995  0.9302
12905SOL    HW240484   6.538   8.486   8.053 -0.2934  2.1415  3.0733
12906SOL     OW40485   0.227   3.463   4.742 -0.2000 -0.0213  0.0230
12906SOL    HW140486   0.154   3.416   4.782  0.2316 -1.0308 -0.3530
12906SOL    HW240487   0.298   3.455   4.806  0.1187 -0.5741 -0.3983
12907SOL     OW40488   4.103   3.934   5.619  0.2787 -0.1120  0.5359
12907SOL    HW140489   4.198   3.946   5.626  0.1963 -0.2929  2.4280
12907SOL    HW240490   4.087   3.848   5.659 -0.6574 -0.1961 -0.0018
12908SOL     OW40491   4.422   0.791   8.913  0.0603  0.7993  0.0121
12908SOL    HW140492   4.435   0.868   8.857  0.5956  0.6064 -0.1331
12908SOL    HW240493   4.477   0.723   8.873 -0.0599  0.4733  0.4014
12909SOL     OW40494   6.870   0.529   8.550  0.4474  0.0110  0.0438
12909SOL    HW140495   6.905   0.443   8.574 -0.9302 -1.4606 -2.7239
12909SOL    HW240496   6.776   0.521   8.562  0.4003  1.5986  0.9224
12910SOL     OW40497   7.001   4.626   5.669  0.2849  0.4176  0.0426
12910SOL    HW140498   6.996   4.696   5.734  0.3226 -0.2480  0.7770
12910SOL    HW240499   6.941   4.652   5.600 -0.3241  0.7808  0.6975
12911SOL     OW40500   1.032   2.440   7.952  0.2076  0.0028  0.7514
12911SOL    HW140501   1.100   2.480   7.899 -0.3058 -0.0349  0.0451
12911SOL    HW240502   1.079   2.388   8.017  0.8726  1.3042  1.3427
12912SOL     OW40503   0.561   6.590   1.220  0.2092  0.7868 -0.1884
12912SOL    HW140504   0.482   6.544   1.248  0.0578  0.6227 -0.8507
12912SOL    HW240505   0.572   6.563   1.128  1.2495  0.5055  0.0057
12913SOL     OW40506   5.257   0.471   3.487 -0.3230  0.1528 -0.5352
12913SOL    HW140507   5.257   0.390   3.537  2.2059  1.0769  1.1824
12913SOL    HW240508   5.220   0.536   3.546 -0.1636  0.6842 -1.0021
12914SOL     OW40509   8.017   8.736   0.228  0.3977  0.1579 -0.4683
12914SOL    HW140510   7.985   8.809   0.281 -2.1317 -0.1572 -1.4070
12914SOL    HW240511   8.039   8.668   0.291  1.0357  1.0909  0.3285
12915SOL     OW40512   6.966   5.325   7.245 -0.2262 -0.2286  0.2388
12915SOL    HW140513   7.002   5.315   7.157 -0.6702  1.7026 -0.2097
12915SOL    HW240514   6.923   5.242   7.263 -0.4122 -0.5403 -1.5106
12916SOL     OW40515   8.755   4.257   9.706 -0.3874 -0.4221 -0.3578
12916SOL    HW140516   8.760   4.349   9.680 -1.7678 -0.2297  0.0073
12916SOL    HW240517   8.808   4.210   9.640 -0.3348  0.5299 -1.0063
12917SOL     OW40518   5.402   4.303   5.449  0.0647  0.1080 -0.3825
12917SOL    HW140519   5.481   4.263   5.486  0.2798  0.9200  0.0725
12917SOL    HW240520   5.416   4.397   5.461 -0.8336  0.2732 -0.5916
12918SOL     OW40521   2.365   3.936   1.614 -0.2027  0.3673  0.3339
12918SOL    HW140522   2.439   3.891   1.656  1.2007 -0.1434 -2.4243
12918SOL    HW240523   2.356   4.018   1.662  3.1648  1.1148 -0.0223
12919SOL     OW40524   2.041   3.445   3.162 -0.3399  0.1500 -0.6516
12919SOL    HW140525   2.124   3.471   3.202  0.2313  0.9440 -2.2754
12919SOL    HW240526   1.988   3.525   3.163 -0.2860  0.2053 -1.5236
12920SOL     OW40527   1.367   3.117   1.433 -0.1027 -0.0004 -0.0893
12920SOL    HW140528   1.295   3.145   1.376 -0.5902 -0.1591  0.4486
12920SOL    HW240529   1.443   3.113   1.374 -0.6285 -0.2941 -0.7638
12921SOL     OW40530   3.686   3.334   5.070  0.0213  0.7442  0.3935
12921SOL    HW140531   3.751   3.385   5.022 -1.2695  1.4355 -0.6944
12921SOL    HW240532   3.609   3.392   5.075 -0.7389 -0.2897  1.0408
12922SOL     OW40533   0.138   2.754   3.724 -0.2116 -0.5669 -0.2893
12922SOL    HW140534   0.087   2.675   3.739  0.3788 -1.0384 -0.7167
12922SOL    HW240535   0.228   2.723   3.710  0.0859  0.1990 -0.1464
12923SOL     OW40536   2.627   7.929   2.078 -0.0605 -0.1400  0.5084
12923SOL    HW140537   2.571   7.855   2.104 -0.9696 -0.0678 -1.1391
12923SOL    HW240538   2.708   7.888   2.047 -0.9636 -0.5738 -1.4286
12924SOL     OW40539   5.456   6.118   0.163 -0.1159 -0.2596  0.0469
12924SOL    HW140540   5.474   6.169   0.084 -2.0732 -1.4497 -1.2552
12924SOL    HW240541   5.361   6.120   0.172  0.0066 -0.8368  1.9262
12925SOL     OW40542   6.123   7.800   3.707  0.5303  0.1088  0.0502
12925SOL    HW140543   6.068   7.829   3.779 -0.2887  3.7799 -1.8456
12925SOL    HW240544   6.213   7.809   3.739  0.1689  1.0738  0.8068
12926SOL     OW40545   4.839   1.746   6.862  0.0553 -0.4936 -0.5240
12926SOL    HW140546   4.906   1.814   6.870  0.1826 -0.6558 -0.1710
12926SOL    HW240547   4.845   1.717   6.771 -1.4124  1.4088 -1.3034
12927SOL     OW40548   2.351   5.139   2.191  0.0981  0.6754 -0.0555
12927SOL    HW140549   2.413   5.067   2.175 -0.4058  0.1671  0.2441
12927SOL    HW240550   2.265   5.096   2.197 -0.0167  1.0886  1.8792
12928SOL     OW40551   1.960   2.132   7.097  0.2714  0.7995  0.0881
12928SOL    HW140552   2.005   2.216   7.086 -0.4467  0.9494 -2.0705
12928SOL    HW240553   1.896   2.129   7.026 -0.5898 -1.0347  0.8807
12929SOL     OW40554   7.207   9.550   9.450  0.0406  0.1831 -0.1973
12929SOL    HW140555   7.122   9.556   9.494 -0.3833 -0.6406 -0.8635
12929SOL    HW240556   7.259   9.621   9.488  0.0005 -1.0072  2.3038
12930SOL     OW40557   5.259   9.643   1.348 -0.0810  0.4391 -0.5364
12930SOL    HW140558   5.215   9.644   1.433  2.9051 -0.2854  1.1831
12930SOL    HW240559   5.203   9.589   1.292 -2.0707  0.8154  0.9688
12931SOL     OW40560   8.625   9.130   9.417  0.1585 -0.2246 -0.1918
12931SOL    HW140561   8.628   9.037   9.438  1.4752  0.1300  1.3725
12931SOL    HW240562   8.690   9.170   9.475 -0.6166  1.7146 -0.5896
12932SOL     OW40563   0.603   6.727   9.760 -0.6027 -0.2329 -0.6881
12932SOL    HW140564   0.678   6.668   9.761 -1.4698 -1.3747 -1.1073
12932SOL    HW240565   0.527   6.671   9.774 -1.3230  1.0243  0.7911
12933SOL     OW40566   5.734   8.309   8.015 -0.2433  0.1443 -0.0209
12933SOL    HW140567   5.780   8.389   7.988 -0.8951  0.5257 -0.0225
12933SOL    HW240568   5.802   8.242   8.017  0.9075  1.2330  2.5556
12934SOL     OW40569   0.027   9.678   6.382 -0.3897 -0.3503  0.4894
12934SOL    HW140570  -0.007   9.750   6.435  0.1591 -1.5251  2.5532
12934SOL    HW240571   0.106   9.713   6.341  0.1894  0.0676  1.9229
12935SOL     OW40572   0.247   7.272   3.881 -0.0982  0.4823 -0.6201
12935SOL    HW140573   0.273   7.184   3.907  0.2268  0.7822  0.0958
12935SOL    HW240574   0.219   7.263   3.790 -1.9102 -0.7169  0.0069
12936SOL     OW40575   2.312   9.007   4.962 -0.0561 -0.1047  0.5249
12936SOL    HW140576   2.361   9.028   5.042  1.0128 -0.1057 -0.1089
12936SOL    HW240577   2.304   8.912   4.963  2.0300 -0.3579 -0.4923
12937SOL     OW40578   1.121   9.624   8.460  0.0516  0.0612  0.2279
12937SOL    HW140579   1.204   9.660   8.489  0.2507  0.6313 -0.9866
12937SOL    HW240580   1.138   9.591   8.372 -0.7322 -0.8218  0.3892
12938SOL     OW40581   4.975   8.996   1.076  0.6053  0.3523  0.8818
12938SOL    HW140582   4.915   9.069   1.065  0.7150  0.2946 -0.1867
12938SOL    HW240583   5.062   9.037   1.077  0.7379  0.1705 -0.7694
12939SOL     OW40584   7.266   8.463   1.692  0.1379  0.3028  0.4864
12939SOL    HW140585   7.353   8.455   1.653  0.5378 -1.4342  1.6001
12939SOL    HW240586   7.211   8.404   1.640 -0.5315  1.7919 -0.5413
12940SOL     OW40587   3.257   6.998   2.308  0.1247  0.4664  0.0911
12940SOL    HW140588   3.274   7.003   2.214  0.5174  0.0457  0.1365
12940SOL    HW240589   3.166   6.969   2.314  0.8665 -2.1921 -0.1945
12941SOL     OW40590   5.652   0.445   6.726  0.3658 -1.0874  0.2918
12941SOL    HW140591   5.738   0.408   6.746  0.7377 -0.4236 -0.0487
12941SOL    HW240592   5.591   0.374   6.745  0.9943 -1.6039  0.4355
12942SOL     OW40593   8.500   7.285   0.745 -0.3660  0.2650  0.0625
12942SOL    HW140594   8.491   7.316   0.835 -0.9020 -1.5344  0.6607
12942SOL    HW240595   8.415   7.301   0.705 -0.4043  0.2352  0.1321
12943SOL     OW40596   2.481   0.589   5.932 -0.2832 -0.1135  0.5840
12943SOL    HW140597   2.554   0.600   5.993 -0.2690  0.6147  0.4423
12943SOL    HW240598   2.522   0.589   5.845 -0.4112 -0.0713  0.5229
12944SOL     OW40599   5.178   7.556   6.648  0.1284 -0.4977 -0.2275
12944SOL    HW140600   5.228   7.613   6.708 -1.8492  1.1093  0.0156
12944SOL    HW240601   5.193   7.468   6.682  2.0005 -0.0043  0.3922
12945SOL     OW40602   9.473   5.448   1.796 -0.0421 -0.8123  0.0380
12945SOL    HW140603   9.415   5.398   1.738  0.4518 -0.8845 -0.3983
12945SOL    HW240604   9.552   5.393   1.804  0.1699 -0.4808  0.2164
12946SOL     OW40605   4.003   8.602   0.469 -0.7688 -0.7613 -0.1552
12946SOL    HW140606   3.964   8.518   0.443  0.7866 -1.0109 -1.8460
12946SOL    HW240607   4.082   8.609   0.416 -1.3797  2.2822 -0.8371
12947SOL     OW40608   4.748   5.916   9.139 -0.3085 -0.3141 -0.9608
12947SOL    HW140609   4.767   6.007   9.161 -0.0602 -1.0025  1.9949
12947SOL    HW240610   4.833   5.880   9.115  0.0791 -0.4290  0.5469
12948SOL     OW40611   4.019   1.065   0.961  0.2659  0.0299  0.1096
12948SOL    HW140612   3.927   1.042   0.945 -0.2690  0.8872  1.6855
12948SOL    HW240613   4.024   1.074   1.056  1.0926  3.5219 -0.1536
12949SOL     OW40614   3.532   3.472   6.054  0.1090  0.8207  0.0363
12949SOL    HW140615   3.461   3.534   6.035 -1.2557 -0.9782 -1.1091
12949SOL    HW240616   3.594   3.483   5.982 -0.5694  0.2964 -0.6498
12950SOL     OW40617   3.501   5.826   5.080 -0.2137 -0.1963  0.1131
12950SOL    HW140618   3.420   5.776   5.085 -0.8994  0.8752  0.1088
12950SOL    HW240619   3.473   5.917   5.083  0.8986  0.2221 -1.2721
12951SOL     OW40620   6.112   4.995   4.069  0.3494  0.1406  0.6052
12951SOL    HW140621   6.113   4.918   4.013 -0.2228  0.2470  0.4460
12951SOL    HW240622   6.049   4.974   4.138  0.8302  0.1256  1.0403
12952SOL     OW40623   6.761   4.175   3.359  0.1028 -0.1931  0.4466
12952SOL    HW140624   6.805   4.148   3.439 -0.3247 -2.3998  0.0176
12952SOL    HW240625   6.829   4.173   3.292 -0.0322 -0.7425  0.3210
12953SOL     OW40626   0.896   2.585   7.768 -0.0545  0.1775  0.8778
12953SOL    HW140627   0.932   2.550   7.850 -0.5878 -0.9151  0.6720
12953SOL    HW240628   0.908   2.514   7.705  0.6377  1.1217 -0.0823
12954SOL     OW40629   2.410   0.604   5.335  0.3324 -0.0696  0.0877
12954SOL    HW140630   2.487   0.549   5.352 -0.5743 -1.3706  0.1389
12954SOL    HW240631   2.445   0.682   5.293  1.6847 -0.6393  0.1053
12955SOL     OW40632   0.955   8.939   7.768 -0.0071  0.2006  0.0206
12955SOL    HW140633   0.940   9.025   7.728 -0.9929 -0.0308 -0.1339
12955SOL    HW240634   0.974   8.882   7.694  0.5689  0.2629  0.1166
12956SOL     OW40635   4.928   8.677   8.359 -0.1271 -0.1740 -0.3358
12956SOL    HW140636   4.918   8.683   8.454 -2.5306 -1.2096 -0.4569
12956SOL    HW240637   4.866   8.610   8.332  0.0797  0.4802 -2.7210
12957SOL     OW40638   1.931   6.912   0.953 -0.1560 -0.5241  0.7975
12957SOL    HW140639   1.981   6.852   0.897 -0.5437 -0.1813  0.0765
12957SOL    HW240640   1.928   6.868   1.038 -0.3791 -1.5055  0.2946
12958SOL     OW40641   7.700   9.593   1.879 -0.4413 -0.0825  0.5079
12958SOL    HW140642   7.705   9.500   1.854 -0.6689 -0.0993  0.5186
12958SOL    HW240643   7.627   9.597   1.941 -0.2476  0.0580  0.7280
12959SOL     OW40644   4.392   6.443   8.890  0.2186 -0.1548  0.2647
12959SOL    HW140645   4.353   6.407   8.811  1.6348  0.5230 -0.7798
12959SOL    HW240646   4.407   6.535   8.871  1.0768 -0.0935  1.1158
12960SOL     OW40647   2.111   9.160   5.722  0.2368 -0.1544  0.3452
12960SOL    HW140648   2.186   9.210   5.753  0.8864 -1.1192  0.3619
12960SOL    HW240649   2.073   9.122   5.802  1.7011 -2.3477  0.0891
12961SOL     OW40650   4.754   6.498   9.137  0.0907  0.2706  0.5711
12961SOL    HW140651   4.781   6.470   9.225  0.1587  0.3031  0.5599
12961SOL    HW240652   4.804   6.577   9.120 -0.2141  0.4873  0.6646
12962SOL     OW40653   6.509   8.317   0.092  0.0469 -0.0149  0.0110
12962SOL    HW140654   6.507   8.360   0.178 -1.2139 -0.4017  0.1979
12962SOL    HW240655   6.436   8.254   0.095  1.8019 -2.1884 -0.2533
12963SOL     OW40656   3.514   1.856   6.252  0.1497  0.4916  0.1066
12963SOL    HW140657   3.486   1.941   6.218 -1.2133  0.0271  0.0013
12963SOL    HW240658   3.499   1.795   6.180  2.4178  0.3447 -0.3010
12964SOL     OW40659   7.452   7.163   6.264 -0.0375  0.0412 -0.1723
12964SOL    HW140660   7.501   7.081   6.252  0.3139  0.3729 -1.1008
12964SOL    HW240661   7.418   7.158   6.353  0.9903 -0.5677  0.1948
12965SOL     OW40662   1.858   9.754   6.083  0.5321 -0.8660 -0.3852
12965SOL    HW140663   1.792   9.700   6.039 -0.6196  0.2596 -0.0909
12965SOL    HW240664   1.935   9.698   6.087 -0.6622 -2.5624  0.0645
12966SOL     OW40665   5.406   2.954   8.564 -0.1408  0.3474 -0.2205
12966SOL    HW140666   5.491   2.980   8.529  0.1489  1.0965  0.9716
12966SOL    HW240667   5.427   2.910   8.646 -0.9443  1.8034  0.8104
12967SOL     OW40668   3.025   1.340   2.790 -0.5679  0.3758  0.7952
12967SOL    HW140669   3.075   1.307   2.715 -2.0962 -1.1803  0.4120
12967SOL    HW240670   3.079   1.317   2.866  0.2019  0.4649  0.2904
12968SOL     OW40671   4.806   9.683   2.511  0.2463  0.2820  0.4696
12968SOL    HW140672   4.740   9.649   2.571 -0.4709 -0.3697 -0.6578
12968SOL    HW240673   4.828   9.769   2.546  0.0291 -0.1807  1.7894
12969SOL     OW40674   3.070   8.789   4.002  0.2583 -0.3198 -0.3543
12969SOL    HW140675   3.100   8.715   4.056  2.3471  0.9752  0.3767
12969SOL    HW240676   3.084   8.760   3.912  2.3800 -0.3766 -0.0632
12970SOL     OW40677   8.138   0.826   7.916  0.4461 -0.0288 -0.2502
12970SOL    HW140678   8.154   0.906   7.965  0.5671 -0.3854  0.3072
12970SOL    HW240679   8.221   0.807   7.872  0.1836  0.5761 -1.0336
12971SOL     OW40680   1.040   0.459   7.729  0.0764  0.2327 -0.0685
12971SOL    HW140681   1.041   0.513   7.809  1.1343  0.7311 -0.3995
12971SOL    HW240682   1.132   0.447   7.707 -0.0912 -2.0799  0.2047
12972SOL     OW40683   7.477   9.304   9.462 -0.3154 -0.2256 -0.0581
12972SOL    HW140684   7.391   9.316   9.422 -0.6489 -1.7019  0.1740
12972SOL    HW240685   7.469   9.343   9.549 -1.1046 -1.2852  0.3673
12973SOL     OW40686   4.720   1.444   5.343  0.2110 -0.2188  0.3045
12973SOL    HW140687   4.632   1.474   5.364  0.2546 -0.8848  1.5253
12973SOL    HW240688   4.769   1.524   5.322 -0.3118  0.3106  1.0651
12974SOL     OW40689   7.033   9.452   4.336  0.3098 -0.7376 -0.0715
12974SOL    HW140690   7.061   9.377   4.389 -1.2040 -0.2966  1.4433
12974SOL    HW240691   7.105   9.514   4.343 -0.2282 -0.2996  2.3295
12975SOL     OW40692   3.843   2.109   4.357 -0.5575 -0.3216  0.5573
12975SOL    HW140693   3.788   2.076   4.287  0.8121 -0.9863 -0.2450
12975SOL    HW240694   3.783   2.158   4.414 -1.6523  0.5486 -1.2509
12976SOL     OW40695   5.329   2.584   3.358  0.2523 -0.6731 -0.0076
12976SOL    HW140696   5.356   2.643   3.287  2.1417 -1.7082 -0.1966
12976SOL    HW240697   5.398   2.591   3.423 -0.8929 -0.6164  1.2463
12977SOL     OW40698   0.250   1.270   8.270 -0.4122  0.7054 -0.1837
12977SOL    HW140699   0.156   1.280   8.250 -0.8187  1.1210  1.6600
12977SOL    HW240700   0.259   1.179   8.298 -0.4840  0.9292  0.5872
12978SOL     OW40701   3.742   1.239   5.050 -0.3740  0.6190 -0.0837
12978SOL    HW140702   3.744   1.159   5.103  0.2514  1.4832  1.2741
12978SOL    HW240703   3.720   1.210   4.962  0.5162 -1.1213  0.2281
12979SOL     OW40704   9.481   5.705   3.312  0.3432  0.2495  1.0087
12979SOL    HW140705   9.487   5.801   3.312  1.0174  0.2149  0.3433
12979SOL    HW240706   9.411   5.686   3.374 -0.7630  1.2297  0.1126
12980SOL     OW40707   7.832   9.790   3.393  0.1677  0.1497  0.0853
12980SOL    HW140708   7.742   9.767   3.370  0.0260  0.3914  0.3877
12980SOL    HW240709   7.824   9.874   3.438  0.7258  1.1546 -1.5979
12981SOL     OW40710   5.442   3.374   7.973  0.6588  0.3734  0.2148
12981SOL    HW140711   5.404   3.362   7.887  1.2659 -2.0998  0.2161
12981SOL    HW240712   5.368   3.393   8.031  0.1135  0.8630 -0.6368
12982SOL     OW40713   7.391   2.793   0.939  0.1604  0.1765  0.0672
12982SOL    HW140714   7.415   2.717   0.992  0.8946  0.4062  0.0779
12982SOL    HW240715   7.299   2.778   0.917  0.1595 -0.4795  0.4603
12983SOL     OW40716   6.162   5.888   5.025 -0.5004  0.0835  0.5650
12983SOL    HW140717   6.134   5.823   5.089 -0.3156  0.7833  1.3790
12983SOL    HW240718   6.100   5.880   4.953  0.3215 -1.9169  0.0201
12984SOL     OW40719   8.211   3.829   0.140  0.0854 -0.2060 -0.3574
12984SOL    HW140720   8.153   3.797   0.070  1.2588 -2.4072 -0.4307
12984SOL    HW240721   8.297   3.835   0.098  0.6803 -0.9384  0.7114
12985SOL     OW40722   6.937   8.658   4.076 -0.1686 -0.1115  0.1610
12985SOL    HW140723   6.892   8.735   4.042  0.2054  0.4367  0.8707
12985SOL    HW240724   6.997   8.692   4.142  0.4900 -0.9438  0.0182
12986SOL     OW40725   5.069   4.729   6.699 -0.1728 -0.2182  0.0193
12986SOL    HW140726   5.004   4.721   6.769  1.3224  0.4765  1.5738
12986SOL    HW240727   5.109   4.642   6.693 -0.7310 -0.4490 -0.4337
12987SOL     OW40728   3.494   8.674   0.410  0.0799 -0.0162 -0.6417
12987SOL    HW140729   3.539   8.728   0.345  0.7626 -0.3029 -0.4132
12987SOL    HW240730   3.536   8.589   0.403 -0.0206 -0.1209 -0.0061
12988SOL     OW40731   7.452   7.423   7.068  0.6388 -0.1293 -0.3555
12988SOL    HW140732   7.417   7.440   6.981  1.9423 -1.7343 -1.2434
12988SOL    HW240733   7.535   7.471   7.071  1.1709 -1.0323 -0.4529
12989SOL     OW40734   6.706   0.054   5.996  0.4986 -0.2764 -0.0033
12989SOL    HW140735   6.656   0.090   6.069 -1.1137 -0.7027 -0.8553
12989SOL    HW240736   6.668   0.094   5.919  1.8638 -0.2012 -0.6664
12990SOL     OW40737   1.303   0.789   6.432  0.1050 -0.1362 -0.3549
12990SOL    HW140738   1.286   0.879   6.406  2.4190  0.5762  0.3396
12990SOL    HW240739   1.398   0.785   6.443 -0.0397 -2.4009  0.6061
12991SOL     OW40740   2.068   1.154   5.781  0.4572 -0.3954 -0.3179
12991SOL    HW140741   2.074   1.206   5.861  0.9485  0.4788 -0.9114
12991SOL    HW240742   2.158   1.149   5.748  0.1190  0.1647 -1.3745
12992SOL     OW40743   9.541   6.540   0.797  0.0959  0.8138 -0.1370
12992SOL    HW140744   9.453   6.560   0.765 -0.8875 -1.4275  0.9489
12992SOL    HW240745   9.557   6.605   0.866 -1.5450  0.1086  0.9639
12993SOL     OW40746   7.155   2.233   9.348 -0.2307 -0.8175  0.5526
12993SOL    HW140747   7.210   2.165   9.387  0.8796 -0.9610 -1.1492
12993SOL    HW240748   7.131   2.198   9.262 -1.9311 -0.1956  0.7363
12994SOL     OW40749   6.609   2.479   4.297 -0.4378  0.2539 -0.0465
12994SOL    HW140750   6.582   2.564   4.334  0.1807 -0.6404  2.7159
12994SOL    HW240751   6.543   2.460   4.231 -2.4714  1.4164  1.5202
12995SOL     OW40752   9.419   7.321   3.748 -0.6384  0.0903  0.3543
12995SOL    HW140753   9.488   7.281   3.695 -0.9726 -1.7318  1.2218
12995SOL    HW240754   9.464   7.355   3.825 -0.5442  0.0344  0.3234
12996SOL     OW40755   7.182   8.356   2.293  0.2412 -0.1495  0.7309
12996SOL    HW140756   7.113   8.410   2.255  0.2617 -0.4038  0.3157
12996SOL    HW240757   7.148   8.266   2.285  1.0028 -0.3651 -0.3369
12997SOL     OW40758   2.845   0.210   3.457  0.0660 -0.0502 -0.2358
12997SOL    HW140759   2.933   0.220   3.492 -0.3620  0.3205  0.7457
12997SOL    HW240760   2.852   0.138   3.395  0.5240 -1.7557  1.7106
12998SOL     OW40761   9.528   4.483   5.555  0.0650 -0.2072 -0.4545
12998SOL    HW140762   9.573   4.448   5.632  0.9188 -0.7979 -1.2033
12998SOL    HW240763   9.563   4.432   5.482 -2.1292 -0.9850 -1.0358
12999SOL     OW40764   9.751   6.515   0.429  0.3837  0.1279  0.2470
12999SOL    HW140765   9.818   6.518   0.360 -0.5014  1.1140 -0.6101
12999SOL    HW240766   9.741   6.422   0.448  0.1481 -0.2336 -1.4767
13000SOL     OW40767   2.396   9.062   5.852 -0.0602  0.4759  0.0286
13000SOL    HW140768   2.329   9.046   5.919 -1.4242  0.6374 -1.2434
13000SOL    HW240769   2.405   9.157   5.850  2.2447  0.4019  2.0569
13001SOL     OW40770   3.342   7.421   2.603 -0.6102  0.0691 -0.5639
13001SOL    HW140771   3.428   7.463   2.613  0.5006 -2.4540  2.0133
13001SOL    HW240772   3.281   7.478   2.650 -0.0709  1.0737 -1.0480
13002SOL     OW40773   5.407   9.404   6.845 -0.1352 -0.4126 -0.3013
13002SOL    HW140774   5.360   9.479   6.879 -0.2213 -1.0294  1.0021
13002SOL    HW240775   5.428   9.428   6.755 -1.3368  0.6048 -0.3379
13003SOL     OW40776   3.553   8.023   0.257  0.2057  0.3271  0.1223
13003SOL    HW140777   3.511   8.086   0.199 -0.3608 -0.9413 -0.8887
13003SOL    HW240778   3.626   7.987   0.205  0.5380  0.1558  0.6908
13004SOL     OW40779   6.566   3.991   2.707  0.6779 -0.0660 -0.1075
13004SOL    HW140780   6.516   3.963   2.630 -0.9153  0.0871  0.8438
13004SOL    HW240781   6.504   4.041   2.760  2.4151  1.9879  0.1244
13005SOL     OW40782   9.778   8.037   6.273 -0.2077 -0.2146  0.2642
13005SOL    HW140783   9.736   8.092   6.207  0.4420  0.5332  0.4532
13005SOL    HW240784   9.771   8.088   6.354 -1.0342 -1.1389  0.7933
13006SOL     OW40785   5.027   1.688   0.959  0.0896  0.0514  0.3078
13006SOL    HW140786   5.075   1.606   0.962 -2.4389 -1.5719 -0.5786
13006SOL    HW240787   5.042   1.721   0.870  1.0135  0.5253  0.6277
13007SOL     OW40788   7.288   6.187   1.664  1.1778  0.6825  0.6687
13007SOL    HW140789   7.273   6.280   1.680  1.6540  0.7619  0.6805
13007SOL    HW240790   7.277   6.145   1.749  0.3849  0.6445  0.5551
13008SOL     OW40791   6.866   5.053   9.090  0.1135 -0.2195  0.3937
13008SOL    HW140792   6.831   5.056   9.180  0.8897 -0.8506  0.7286
13008SOL    HW240793   6.899   4.963   9.081 -0.7698 -0.4409 -0.8449
13009SOL     OW40794   4.609   2.360   0.873  0.1573  0.3418  0.1169
13009SOL    HW140795   4.634   2.406   0.953  1.4719 -0.2593  0.0914
13009SOL    HW240796   4.557   2.286   0.903  1.9449 -0.7863  0.6125
13010SOL     OW40797   0.897   9.590   6.081 -0.2816 -0.3168 -0.4105
13010SOL    HW140798   0.902   9.505   6.125  1.8955  0.4308  0.9676
13010SOL    HW240799   0.978   9.596   6.031  0.0054  1.2448  0.1745
13011SOL     OW40800   7.423   2.729   7.288 -0.2473  0.4011 -0.0835
13011SOL    HW140801   7.510   2.746   7.324 -0.2422 -1.5763  0.9869
13011SOL    HW240802   7.402   2.808   7.238  1.5820  1.4786  0.7328
13012SOL     OW40803   1.505   2.517   1.717 -0.7948 -0.0196  0.1529
13012SOL    HW140804   1.558   2.527   1.638 -1.6214  1.5709 -0.2367
13012SOL    HW240805   1.506   2.604   1.757 -2.8885 -0.0164  0.2725
13013SOL     OW40806   2.541   9.575   3.447  0.1501  0.7675  0.6708
13013SOL    HW140807   2.527   9.648   3.387 -0.0829  0.6630  0.5949
13013SOL    HW240808   2.558   9.500   3.389 -1.2634  0.4055  0.6765
13014SOL     OW40809   5.477   0.237   2.998 -0.4952 -0.5651 -0.5471
13014SOL    HW140810   5.541   0.260   3.065 -2.0824  1.2489  0.4640
13014SOL    HW240811   5.439   0.155   3.028  0.2506 -0.8403 -0.3404
13015SOL     OW40812   1.328   9.676   9.533 -0.3083  0.7247  0.4369
13015SOL    HW140813   1.306   9.727   9.611  1.0892  0.0787  1.2809
13015SOL    HW240814   1.403   9.623   9.559  0.5829  0.9325 -1.5273
13016SOL     OW40815   9.088   4.297   6.215  0.3211  0.2660  0.3459
13016SOL    HW140816   9.162   4.317   6.157  0.1139  0.9476  0.3040
13016SOL    HW240817   9.118   4.325   6.302  1.2065 -2.1336  0.8760
13017SOL     OW40818   9.387   3.756   0.829 -0.0117 -0.5016  0.7191
13017SOL    HW140819   9.307   3.739   0.779  0.1201 -0.8927  0.6416
13017SOL    HW240820   9.454   3.770   0.763  0.4765 -2.4194  0.7455
13018SOL     OW40821   8.160   1.195   7.807  0.0788  0.0335 -0.4150
13018SOL    HW140822   8.142   1.192   7.901 -0.5835  0.1064 -0.5297
13018SOL    HW240823   8.107   1.124   7.771  0.2705  0.0554 -0.7404
13019SOL     OW40824   8.007   5.341   7.508  0.4273  0.0680  0.6395
13019SOL    HW140825   8.008   5.436   7.493  0.4689  0.2724  1.8628
13019SOL    HW240826   8.039   5.330   7.597  0.5036 -1.1122  0.4831
13020SOL     OW40827   6.045   9.342   5.257  0.4334  0.7370  0.0018
13020SOL    HW140828   5.974   9.398   5.290 -0.2777 -0.2678  0.2374
13020SOL    HW240829   6.042   9.352   5.162 -3.0852 -2.6381 -0.5146
13021SOL     OW40830   6.712   7.224   1.966 -0.1171  0.0862  0.6520
13021SOL    HW140831   6.664   7.242   1.885 -0.1137  1.4062  0.9139
13021SOL    HW240832   6.784   7.288   1.965  1.8835 -2.0515  0.0874
13022SOL     OW40833   0.405   4.901   5.031 -0.0520 -0.7310  0.3095
13022SOL    HW140834   0.315   4.870   5.033 -1.2035  1.7300 -2.9671
13022SOL    HW240835   0.430   4.910   5.123 -4.2741  1.3074  1.5155
13023SOL     OW40836   6.832   2.778   8.181  0.4739  0.9693  0.3712
13023SOL    HW140837   6.839   2.759   8.088  0.0541 -0.5358  0.6149
13023SOL    HW240838   6.754   2.833   8.189 -0.7043 -0.5843  0.0220
13024SOL     OW40839   4.135   4.502   8.277  0.3005 -0.2177  0.0813
13024SOL    HW140840   4.160   4.570   8.340 -0.5059 -1.3316  1.6927
13024SOL    HW240841   4.045   4.524   8.253 -0.0020 -0.7484  0.6943
13025SOL     OW40842   6.862   5.401   1.118 -0.9285  0.4525 -0.0259
13025SOL    HW140843   6.860   5.318   1.165 -0.6657  0.3910 -0.1184
13025SOL    HW240844   6.799   5.390   1.047 -0.2986  0.0231 -0.5347
13026SOL     OW40845   7.680   8.513   1.385  0.3077 -0.0764 -0.0783
13026SOL    HW140846   7.669   8.464   1.467 -0.3869  0.3464  0.0843
13026SOL    HW240847   7.750   8.576   1.404  1.8809 -1.5976 -0.5763
13027SOL     OW40848   4.475   5.773   8.285  0.0673 -0.0184 -0.2591
13027SOL    HW140849   4.458   5.771   8.379  1.2672  2.1908  0.0882
13027SOL    HW240850   4.532   5.697   8.270 -0.1254 -0.3938  0.7997
13028SOL     OW40851   8.874   4.771   8.188 -0.5248 -0.6253  0.8998
13028SOL    HW140852   8.814   4.778   8.262 -1.2454 -0.2399  0.2874
13028SOL    HW240853   8.820   4.788   8.111  0.0197 -1.8937  0.2070
13029SOL     OW40854   3.336   0.076   7.450  0.3733  0.6004  0.1062
13029SOL    HW140855   3.263   0.080   7.388  3.0944 -1.2452 -3.5932
13029SOL    HW240856   3.360   0.168   7.465 -0.2166  1.1233 -1.8712
13030SOL     OW40857   1.816   6.255   7.447  0.0073  0.0530 -0.0732
13030SOL    HW140858   1.878   6.328   7.447 -0.0954  0.2288  2.5413
13030SOL    HW240859   1.767   6.264   7.529 -0.6162 -2.4461 -0.0628
13031SOL     OW40860   0.753   2.149   1.510 -0.5473 -1.0301 -0.2210
13031SOL    HW140861   0.782   2.166   1.600 -1.1217 -0.2544 -0.1715
13031SOL    HW240862   0.749   2.236   1.470  0.3029 -1.4156 -1.1939
13032SOL     OW40863   4.317   8.317   5.675 -0.0853  0.1928 -0.8751
13032SOL    HW140864   4.308   8.227   5.643  0.4420 -0.3392  0.3754
13032SOL    HW240865   4.305   8.309   5.770 -0.3662  1.5031 -0.7931
13033SOL     OW40866   7.343   9.786   9.491 -0.0630  0.2135 -0.2105
13033SOL    HW140867   7.318   9.847   9.560  3.4240 -0.7707  2.1780
13033SOL    HW240868   7.372   9.842   9.419 -1.5144  1.2833 -0.0110
13034SOL     OW40869   7.537   0.407   9.114 -0.5904 -0.2397  0.4373
13034SOL    HW140870   7.609   0.345   9.102  0.5571  0.9836  0.8454
13034SOL    HW240871   7.573   0.492   9.091 -2.2758  0.2662 -0.5658
13035SOL     OW40872   0.847   3.269   0.484  0.2728  0.3440  0.2711
13035SOL    HW140873   0.877   3.227   0.564  0.2383 -1.2543 -0.5093
13035SOL    HW240874   0.757   3.236   0.472  0.5881 -0.1457 -0.8670
13036SOL     OW40875   4.655   4.733   1.076  0.1073  0.0273  0.1389
13036SOL    HW140876   4.595   4.663   1.052  1.8106 -0.6677 -2.5356
13036SOL    HW240877   4.625   4.808   1.024 -3.3017  2.4290  4.8032
13037SOL     OW40878   9.031   5.857   4.366 -0.0844  0.1840 -0.0694
13037SOL    HW140879   9.111   5.856   4.314 -0.4314  0.7976 -0.6371
13037SOL    HW240880   9.017   5.949   4.389 -1.1529  0.2480 -0.8509
13038SOL     OW40881   3.942   5.576   3.851  0.0921  0.4853  0.3086
13038SOL    HW140882   3.897   5.550   3.932  1.8555 -2.4114  0.4850
13038SOL    HW240883   3.962   5.494   3.808  2.2037  1.8159 -1.4254
13039SOL     OW40884   7.646   0.470   3.265  0.7817 -0.2386  0.4793
13039SOL    HW140885   7.608   0.499   3.348 -0.5495 -0.8129  0.1072
13039SOL    HW240886   7.571   0.437   3.215  1.5575  0.0627 -0.9420
13040SOL     OW40887   9.528   3.937   5.901  0.4190 -0.0842  0.0145
13040SOL    HW140888   9.546   3.993   5.826  0.2409 -1.4059 -1.0508
13040SOL    HW240889   9.490   3.858   5.863 -0.1328 -0.5815  1.5477
13041SOL     OW40890   1.659   6.185   9.642 -0.6520  0.3092  0.1753
13041SOL    HW140891   1.657   6.278   9.619 -1.2213  0.2532 -0.0108
13041SOL    HW240892   1.585   6.147   9.595 -0.5011 -0.2166  0.3563
13042SOL     OW40893   1.021   0.122   6.396 -0.2190  0.0664  0.0845
13042SOL    HW140894   0.957   0.070   6.349  0.4421 -1.1258  0.4585
13042SOL    HW240895   1.058   0.181   6.330 -0.2479 -0.6623 -0.6010
13043SOL     OW40896   9.099   4.755   5.832  0.2528  0.4805  1.3001
13043SOL    HW140897   9.017   4.766   5.785  0.2807  0.2171  1.1912
13043SOL    HW240898   9.073   4.756   5.925  0.3517  2.3582  1.3392
13044SOL     OW40899   2.037   5.645   0.749 -0.3350  0.3147 -0.0542
13044SOL    HW140900   2.002   5.729   0.717 -2.2255  0.3642  1.8431
13044SOL    HW240901   1.961   5.586   0.748  0.5896 -0.9047  0.1620
13045SOL     OW40902   6.128   6.298   8.873  0.1762 -0.2648  0.0888
13045SOL    HW140903   6.200   6.352   8.906 -2.1312  3.0196  0.1952
13045SOL    HW240904   6.091   6.257   8.951  1.4887 -1.4514  0.1092
13046SOL     OW40905   5.426   2.124   0.402 -0.6694  0.6010  0.3261
13046SOL    HW140906   5.412   2.030   0.413  1.5309  0.1751  0.0539
13046SOL    HW240907   5.472   2.132   0.318  0.2815  1.7526  0.9215
13047SOL     OW40908   8.018   7.144   8.138 -0.2341  0.0660  0.0074
13047SOL    HW140909   8.106   7.147   8.176  0.5703 -0.9069 -1.6613
13047SOL    HW240910   8.009   7.054   8.108 -2.1057 -0.0325  0.7621
13048SOL     OW40911   5.962   9.050   3.925  0.0687 -0.5956  0.2536
13048SOL    HW140912   5.954   8.983   3.992  3.4050  1.2139  2.7625
13048SOL    HW240913   6.043   9.097   3.946 -1.0872  3.1000 -2.3193
13049SOL     OW40914   8.005   8.408   9.786 -0.1026  0.6216 -0.3037
13049SOL    HW140915   7.977   8.325   9.826 -1.6253  1.4751  0.4864
13049SOL    HW240916   8.043   8.457   9.858  1.0819  0.5050 -0.8389
13050SOL     OW40917   6.920   9.422   7.233 -0.1956  0.2037  0.1097
13050SOL    HW140918   6.952   9.511   7.244 -0.9077  0.3887  0.7914
13050SOL    HW240919   6.825   9.429   7.242 -0.3203 -0.5245 -0.5200
13051SOL     OW40920   0.553   3.914   4.540 -0.1496 -0.1456 -0.0002
13051SOL    HW140921   0.504   3.851   4.486  1.9943 -1.1414 -0.8964
13051SOL    HW240922   0.552   3.876   4.628 -1.9933  0.4822  0.2815
13052SOL     OW40923   4.332   9.071   4.463  0.2253  0.2965  0.1929
13052SOL    HW140924   4.288   8.996   4.502 -1.7662  0.6228 -1.2573
13052SOL    HW240925   4.306   9.068   4.370  1.2372  1.9735 -0.1847
13053SOL     OW40926   2.222   1.080   0.107  0.7320 -0.2042  0.8625
13053SOL    HW140927   2.209   0.992   0.143 -1.7220 -0.8370 -1.2240
13053SOL    HW240928   2.307   1.076   0.062  1.7207 -0.7385  2.6919
13054SOL     OW40929   5.445   4.774   4.285 -0.3753 -0.3095  0.6887
13054SOL    HW140930   5.378   4.715   4.253 -2.6290  2.4073 -0.0049
13054SOL    HW240931   5.455   4.751   4.378  0.9563 -3.4973 -0.0990
13055SOL     OW40932   0.857   7.037   8.455 -0.1278  0.5026  0.1135
13055SOL    HW140933   0.951   7.015   8.451 -0.2309  0.1518 -0.6134
13055SOL    HW240934   0.835   7.031   8.547  0.4139 -0.0941  0.2119
13056SOL     OW40935   0.484   5.801   8.437  0.4308 -0.8372  0.4067
13056SOL    HW140936   0.562   5.761   8.474 -0.1008 -0.7497  1.6439
13056SOL    HW240937   0.429   5.823   8.512 -0.4043 -0.0952 -0.3903
13057SOL     OW40938   3.659   2.824   2.992 -0.4576  0.5826  0.9035
13057SOL    HW140939   3.749   2.805   2.965 -0.0051  2.0250  1.2774
13057SOL    HW240940   3.615   2.851   2.911 -0.5717 -0.1933  0.7078
13058SOL     OW40941   2.229   6.153   1.879  0.0319 -0.1867 -0.0641
13058SOL    HW140942   2.313   6.161   1.924 -0.4137  0.5906  0.6669
13058SOL    HW240943   2.164   6.165   1.948 -0.6879 -0.3590 -0.6923
13059SOL     OW40944   9.240   7.408   4.815  0.3196  0.2518  0.1189
13059SOL    HW140945   9.273   7.326   4.852 -0.2050 -0.2495 -0.4856
13059SOL    HW240946   9.169   7.380   4.757 -0.2876  1.1879  0.3946
13060SOL     OW40947   8.303   8.671   9.044 -0.3227  0.3439 -0.4495
13060SOL    HW140948   8.242   8.700   8.976 -1.7961 -1.7057 -0.1005
13060SOL    HW240949   8.309   8.577   9.032 -0.4355 -0.0459  2.0696
13061SOL     OW40950   5.757   1.981   6.870 -0.0739 -0.3106  0.0888
13061SOL    HW140951   5.675   1.942   6.899 -0.0537 -1.3252 -1.1310
13061SOL    HW240952   5.733   2.068   6.839 -0.4349 -0.0416  1.0767
13062SOL     OW40953   6.989   3.864   5.259 -0.2273  0.3138 -0.2889
13062SOL    HW140954   6.992   3.926   5.332  0.0613 -0.2851  0.2081
13062SOL    HW240955   7.078   3.865   5.224  0.4193 -1.5466  1.1794
13063SOL     OW40956   0.884   6.172   0.138  0.6742  0.2790  0.0673
13063SOL    HW140957   0.848   6.178   0.050  0.6877  0.4181  0.0722
13063SOL    HW240958   0.827   6.108   0.182 -0.9823  2.1029  0.7538
13064SOL     OW40959   3.780   4.378   1.474 -0.5650  0.2558 -0.2690
13064SOL    HW140960   3.796   4.456   1.421 -1.5097  0.4497 -0.2831
13064SOL    HW240961   3.856   4.322   1.458 -0.3518  0.7538 -1.0258
13065SOL     OW40962   3.934   4.338   9.802 -0.2955 -1.2574 -0.6134
13065SOL    HW140963   3.999   4.318   9.734  1.8579  2.6559  0.0220
13065SOL    HW240964   3.851   4.344   9.754  0.7227 -1.0240 -2.4529
13066SOL     OW40965   1.479   7.620   7.370 -0.4126  0.5322 -0.0285
13066SOL    HW140966   1.550   7.572   7.327  0.0211  1.2658 -0.1449
13066SOL    HW240967   1.417   7.552   7.396  0.2758 -0.1106 -0.0286
13067SOL     OW40968   3.745   0.503   7.117  0.2080 -0.2017 -0.1053
13067SOL    HW140969   3.661   0.548   7.128 -0.0054 -0.2204 -1.4348
13067SOL    HW240970   3.722   0.415   7.087  0.6706 -0.7012  0.9798
13068SOL     OW40971   6.650   3.127   5.520 -0.4283 -0.2866 -0.2265
13068SOL    HW140972   6.718   3.060   5.529 -0.1904 -0.0324 -0.1230
13068SOL    HW240973   6.638   3.162   5.608  0.7084  1.0322 -0.5649
13069SOL     OW40974   0.242   6.218   9.411 -0.4407 -0.5910 -0.3869
13069SOL    HW140975   0.163   6.193   9.364 -0.1284 -0.7929 -0.8142
13069SOL    HW240976   0.245   6.314   9.405 -0.7351 -0.5714 -0.2258
13070SOL     OW40977   0.460   7.325   8.254  0.0630 -0.1362 -0.5996
13070SOL    HW140978   0.525   7.286   8.313 -1.2829 -0.9215  0.4472
13070SOL    HW240979   0.415   7.390   8.308 -0.1626  0.2487 -1.2415
13071SOL     OW40980   1.762   0.943   7.183 -0.2206 -0.4094 -0.1196
13071SOL    HW140981   1.837   0.983   7.138 -0.0002 -0.0363  0.5618
13071SOL    HW240982   1.794   0.859   7.214 -0.2405 -0.4771 -0.2836
13072SOL     OW40983   0.683   5.876   0.065  0.5633  0.2389 -0.0632
13072SOL    HW140984   0.728   5.932   0.002 -1.1425 -0.2237 -1.7754
13072SOL    HW240985   0.739   5.798   0.072  0.4972  0.0279 -1.5216
13073SOL     OW40986   8.437   3.500   1.231 -0.7893 -0.3326  0.7463
13073SOL    HW140987   8.388   3.420   1.249 -1.0391 -0.2907  0.2803
13073SOL    HW240988   8.527   3.481   1.257 -0.7329 -0.9548  0.0954
13074SOL     OW40989   1.238   0.143   1.911  0.0432  0.0427  0.2438
13074SOL    HW140990   1.290   0.223   1.917 -1.3339  0.9791  0.1495
13074SOL    HW240991   1.263   0.104   1.827 -2.0408  2.4698 -1.6901
13075SOL     OW40992   8.179   4.346   4.872  0.5079  0.3181  0.6984
13075SOL    HW140993   8.122   4.417   4.841 -0.0897 -0.9972 -1.4004
13075SOL    HW240994   8.251   4.344   4.808  1.2673 -0.0737  1.5515
13076SOL     OW40995   9.684   1.456   2.003  0.1690  0.3321 -0.2346
13076SOL    HW140996   9.665   1.432   1.912  0.2345  0.1355 -0.1966
13076SOL    HW240997   9.761   1.405   2.026 -0.4691 -0.4435  0.2737
13077SOL     OW40998   9.462   1.704   1.333 -0.2491 -0.5503 -0.4188
13077SOL    HW140999   9.423   1.771   1.390 -0.3011  0.6688 -1.8235
13077SOL    HW241000   9.392   1.640   1.320  0.7850 -2.9208  3.7332
13078SOL     OW41001   9.838   7.744   8.352  0.2502  0.4755  0.1850
13078SOL    HW141002   9.771   7.700   8.404  0.3732  0.3006  0.1961
13078SOL    HW241003   9.867   7.678   8.289 -1.6297  1.3511 -1.7650
13079SOL     OW41004   6.205   2.060   7.386  0.2931  0.1159 -0.0379
13079SOL    HW141005   6.228   1.971   7.360 -1.0254 -0.2758  0.0788
13079SOL    HW241006   6.163   2.098   7.308 -1.9860 -0.4428  0.8474
13080SOL     OW41007   8.463   1.865   1.500  0.6114  0.6291  0.5830
13080SOL    HW141008   8.421   1.780   1.513 -0.4898  1.2204  1.0717
13080SOL    HW241009   8.546   1.845   1.457 -0.8665 -0.4905 -1.9850
13081SOL     OW41010   4.251   3.186   1.754  0.8557 -0.0304  0.2592
13081SOL    HW141011   4.163   3.200   1.717  1.9461 -2.0474 -3.6469
13081SOL    HW241012   4.235   3.144   1.838 -1.9253  0.6350  0.1686
13082SOL     OW41013   6.769   7.908   6.455 -0.1116  0.1136 -0.2349
13082SOL    HW141014   6.806   7.967   6.388 -1.2987 -0.5408 -1.5191
13082SOL    HW241015   6.680   7.890   6.424 -1.0719  0.5685  2.0634
13083SOL     OW41016   1.620   3.600   0.027 -0.0809 -0.2105  0.3721
13083SOL    HW141017   1.639   3.683  -0.016  0.5116 -0.8655 -0.6607
13083SOL    HW241018   1.670   3.604   0.109 -1.0393  0.9498  0.9244
13084SOL     OW41019   2.343   9.045   9.359  0.1779 -0.4213 -0.0831
13084SOL    HW141020   2.392   9.064   9.440  0.7350  1.0524 -0.7236
13084SOL    HW241021   2.276   9.113   9.356  0.2344 -0.3988 -0.9148
13085SOL     OW41022   8.581   0.184   7.313 -0.4239 -0.9582  0.2029
13085SOL    HW141023   8.568   0.118   7.382  0.7516 -0.9001  0.5170
13085SOL    HW241024   8.677   0.191   7.306 -0.5200  0.8463  0.3033
13086SOL     OW41025   1.925   3.719   3.183  0.0240 -0.7063 -0.8298
13086SOL    HW141026   1.940   3.759   3.269 -2.0763  1.3351 -1.2987
13086SOL    HW241027   1.995   3.754   3.128  1.1822 -1.7532 -0.0662
13087SOL     OW41028   4.897   4.310   6.641 -0.6482  0.4089  0.0361
13087SOL    HW141029   4.834   4.378   6.664 -0.3664 -0.5535  4.4020
13087SOL    HW241030   4.844   4.231   6.630 -0.6649  0.6491 -2.2879
13088SOL     OW41031   8.136   6.605   5.952  0.6243  0.0211  0.1043
13088SOL    HW141032   8.119   6.519   5.990  0.7267 -0.9946 -2.0414
13088SOL    HW241033   8.083   6.607   5.872 -0.7319  2.6495  0.9426
13089SOL     OW41034   2.144   6.209   7.505  0.2805 -0.4519  0.0775
13089SOL    HW141035   2.207   6.143   7.533  1.6166 -0.1053 -1.9320
13089SOL    HW241036   2.078   6.209   7.574  1.5500 -2.0755  1.3886
13090SOL     OW41037   9.744   5.703   5.465  0.0442  0.1323  0.1835
13090SOL    HW141038   9.669   5.752   5.500  1.8418  1.6677  2.1792
13090SOL    HW241039   9.786   5.764   5.404  0.9429  0.2034  0.8478
13091SOL     OW41040   3.509   2.262   5.516 -0.0066 -0.2293 -0.7533
13091SOL    HW141041   3.508   2.176   5.475 -3.1947 -1.3506  1.3715
13091SOL    HW241042   3.427   2.303   5.488 -0.0488  0.8129  0.7839
13092SOL     OW41043   6.016   8.509   7.578 -0.5197 -0.0125 -0.8946
13092SOL    HW141044   6.017   8.442   7.646 -3.5563  1.0962  0.4228
13092SOL    HW241045   6.108   8.531   7.565  0.2642 -0.1539  3.0405
13093SOL     OW41046   3.766   0.369   3.953  0.1483  0.4628  0.1071
13093SOL    HW141047   3.761   0.318   3.871  0.4011  1.2241 -0.3918
13093SOL    HW241048   3.705   0.441   3.940 -1.4802 -0.5866  1.4715
13094SOL     OW41049   3.167   4.741   5.493 -0.5303  0.2163  0.2288
13094SOL    HW141050   3.096   4.679   5.477 -0.1588  0.0809 -0.9719
13094SOL    HW241051   3.204   4.759   5.407 -0.7695  2.2916  0.4986
13095SOL     OW41052   2.492   3.703   6.833  0.2277 -0.5504  0.1756
13095SOL    HW141053   2.433   3.651   6.778  0.6532  0.9171 -1.7764
13095SOL    HW241054   2.580   3.677   6.804  0.4547  0.2697  0.0975
13096SOL     OW41055   3.066   1.412   1.086 -0.5844  0.4252 -0.5658
13096SOL    HW141056   3.138   1.415   1.023 -0.6231 -1.8965 -0.7822
13096SOL    HW241057   3.089   1.342   1.146 -1.0880  1.8526  1.4160
13097SOL     OW41058   8.792   7.815   0.623 -0.0142 -0.1224  0.3217
13097SOL    HW141059   8.765   7.852   0.539 -0.7430  0.9215  0.9875
13097SOL    HW241060   8.871   7.764   0.603 -1.2051 -1.4494 -1.3199
13098SOL     OW41061   9.195   5.859   8.313  0.0744 -0.0033 -1.0529
13098SOL    HW141062   9.213   5.928   8.249  0.8161  0.7922 -0.0374
13098SOL    HW241063   9.282   5.828   8.339 -0.0505  1.3542  1.2886
13099SOL     OW41064   7.813   6.732   4.820 -0.3715  0.4070 -0.4975
13099SOL    HW141065   7.831   6.725   4.914 -2.7826  0.6717  0.0339
13099SOL    HW241066   7.845   6.819   4.795  2.1142 -0.4061 -0.4350
13100SOL     OW41067   9.575   1.408   2.491 -0.2019 -0.3329 -0.2738
13100SOL    HW141068   9.515   1.360   2.435  0.9007  2.0304 -3.8125
13100SOL    HW241069   9.537   1.496   2.498  2.3591  1.0550 -2.1204
13101SOL     OW41070   1.640   3.691   3.426 -0.3357  0.0701 -0.2746
13101SOL    HW141071   1.566   3.647   3.467  0.0022 -0.9913 -0.7621
13101SOL    HW241072   1.669   3.755   3.491 -0.3275 -0.9898  0.7980
13102SOL     OW41073   8.775   2.332   0.220 -0.1861 -0.3803 -0.3276
13102SOL    HW141074   8.708   2.312   0.155 -0.5506 -0.5621  0.0989
13102SOL    HW241075   8.750   2.281   0.297  0.0462  0.1007  0.0714
13103SOL     OW41076   5.946   9.695   8.026  0.0104  0.2882  0.0299
13103SOL    HW141077   5.926   9.638   7.952 -1.8546  0.5052  0.3020
13103SOL    HW241078   5.936   9.784   7.992 -0.8079  0.3896  0.5003
13104SOL     OW41079   3.667   8.596   8.158  0.0338  0.0015 -0.4797
13104SOL    HW141080   3.641   8.521   8.212  2.3338 -1.1960 -0.9114
13104SOL    HW241081   3.643   8.570   8.068 -3.0689  1.6652 -0.2956
13105SOL     OW41082   8.747   4.630   0.346  0.4572  0.0180 -0.4757
13105SOL    HW141083   8.785   4.663   0.427 -1.4065  1.1985 -0.0062
13105SOL    HW241084   8.731   4.709   0.294 -3.4048 -0.0361  0.3315
13106SOL     OW41085   1.048   9.528   0.822 -0.5287 -0.1109 -0.2686
13106SOL    HW141086   1.084   9.601   0.871 -1.7935  0.8187 -0.6795
13106SOL    HW241087   0.974   9.497   0.874 -0.6296 -0.4407 -0.6001
13107SOL     OW41088   1.272   5.730   4.670 -0.0815  1.1235 -0.5226
13107SOL    HW141089   1.230   5.670   4.609  0.3891  0.2586 -0.0094
13107SOL    HW241090   1.215   5.731   4.746  0.6218  0.2299  0.0288
13108SOL     OW41091   5.944   5.901   9.678 -0.3849 -0.3474  0.3522
13108SOL    HW141092   5.895   5.834   9.630  0.1890 -1.7477  1.6308
13108SOL    HW241093   6.014   5.926   9.619 -2.0148  0.9849 -1.1249
13109SOL     OW41094   1.242   0.196   6.892  0.2485 -0.0195  0.1819
13109SOL    HW141095   1.176   0.208   6.824  0.8512 -0.0248 -0.4105
13109SOL    HW241096   1.325   0.191   6.845  0.9544  2.2784  1.0306
13110SOL     OW41097   6.922   2.683   4.900 -0.0173  0.4841 -0.0986
13110SOL    HW141098   6.900   2.700   4.991  1.1893 -0.2009  0.3502
13110SOL    HW241099   6.863   2.612   4.874 -0.2611  0.5745  0.2083
13111SOL     OW41100   3.314   1.933   1.276  0.0543 -0.1151  0.9270
13111SOL    HW141101   3.405   1.904   1.289  1.1459  2.3577 -0.6601
13111SOL    HW241102   3.265   1.851   1.261  1.8687 -1.5470  2.3054
13112SOL     OW41103   4.636   9.520   4.140 -0.4358 -0.0142 -0.5751
13112SOL    HW141104   4.672   9.582   4.203 -0.7068  0.0623 -0.4984
13112SOL    HW241105   4.542   9.530   4.146 -0.4664 -0.0779 -0.9233
13113SOL     OW41106   3.872   2.069   7.734  0.1105 -0.3578 -0.2757
13113SOL    HW141107   3.857   2.140   7.797  2.4584 -0.4764  0.5209
13113SOL    HW241108   3.802   2.006   7.753 -0.4327  0.5226  0.8269
13114SOL     OW41109   8.815   2.415   1.560  0.2140  0.2188  0.3706
13114SOL    HW141110   8.780   2.478   1.622 -0.9735  2.5082 -2.3934
13114SOL    HW241111   8.910   2.424   1.566  0.1386  0.3134  1.8296
13115SOL     OW41112   2.881   4.494   8.684  0.0315  0.3318 -0.1453
13115SOL    HW141113   2.965   4.513   8.724  0.6092  0.9074 -1.5589
13115SOL    HW241114   2.856   4.409   8.720  1.3401  0.0330  0.1144
13116SOL     OW41115   5.408   5.699   3.067 -0.5462  0.6396  0.0087
13116SOL    HW141116   5.423   5.704   3.161 -1.9213 -0.6192  0.3464
13116SOL    HW241117   5.359   5.617   3.055 -1.5907  1.4341 -1.6186
13117SOL     OW41118   4.617   1.782   6.513  0.2705  0.0351 -0.2706
13117SOL    HW141119   4.577   1.765   6.599 -0.2994  2.6057  0.0685
13117SOL    HW241120   4.711   1.781   6.529  0.1871 -0.3246  0.2085
13118SOL     OW41121   5.282   2.191   5.782  0.4633 -0.3229 -0.1743
13118SOL    HW141122   5.193   2.160   5.797  0.9976 -1.0036  1.8543
13118SOL    HW241123   5.273   2.286   5.775 -0.5744 -0.4872 -1.6151
13119SOL     OW41124   3.723   7.014   5.501  0.4272 -0.8870  0.0549
13119SOL    HW141125   3.796   6.988   5.557  2.4824  1.5378 -1.2539
13119SOL    HW241126   3.765   7.055   5.425 -2.2813  1.1456 -0.5161
13120SOL     OW41127   1.813   7.201   1.501  0.8326  0.2870 -0.5854
13120SOL    HW141128   1.805   7.153   1.419  0.6461 -1.0670  0.1951
13120SOL    HW241129   1.782   7.140   1.568  0.5676  1.5103  0.4536
13121SOL     OW41130   9.317   8.029   7.209 -0.4627 -0.5193  0.1607
13121SOL    HW141131   9.363   8.047   7.127  0.3935 -2.0443  0.2608
13121SOL    HW241132   9.386   8.003   7.270 -1.1753 -0.1616  1.1509
13122SOL     OW41133   1.704   0.124   2.674 -0.7543 -0.4358  1.0169
13122SOL    HW141134   1.768   0.108   2.604 -0.0984  0.8804  1.2687
13122SOL    HW241135   1.728   0.063   2.743 -0.1724 -0.4037  0.8506
13123SOL     OW41136   4.297   2.187   9.077  1.0023 -0.1914  0.6191
13123SOL    HW141137   4.302   2.092   9.071 -2.9323 -0.5166 -0.1244
13123SOL    HW241138   4.386   2.217   9.061  2.1171 -3.6781 -0.5204
13124SOL     OW41139   5.692   7.156   5.925  0.3789 -0.3970 -0.1620
13124SOL    HW141140   5.720   7.245   5.945  0.5334 -0.6856  0.9961
13124SOL    HW241141   5.760   7.100   5.964  0.0917 -1.0287 -0.5473
13125SOL     OW41142   1.817   5.281   8.820 -0.1738 -0.2220 -0.0438
13125SOL    HW141143   1.737   5.327   8.847  0.1062  1.0422 -1.2807
13125SOL    HW241144   1.813   5.197   8.867 -0.8525  0.9100  2.0598
13126SOL     OW41145   9.788   3.148   2.786 -0.2071  0.5653  0.3490
13126SOL    HW141146   9.783   3.053   2.774  1.2102  0.7333 -2.4661
13126SOL    HW241147   9.719   3.183   2.730 -0.1010  1.2309  0.6299
13127SOL     OW41148   0.086   3.314   4.170 -0.2523  0.1531 -0.0828
13127SOL    HW141149   0.091   3.360   4.253  0.6458 -1.1512  0.6270
13127SOL    HW241150  -0.002   3.278   4.167 -0.0482 -0.4292  0.6770
13128SOL     OW41151   7.244   0.513   6.416  0.0195  0.3015  0.6038
13128SOL    HW141152   7.326   0.540   6.375  1.5933 -0.3752  3.1150
13128SOL    HW241153   7.207   0.449   6.355  1.3002  0.6535 -0.6060
13129SOL     OW41154   0.702   5.361   2.302 -0.1738 -0.1016 -0.2921
13129SOL    HW141155   0.747   5.300   2.244  0.1721  0.2280 -0.3732
13129SOL    HW241156   0.704   5.444   2.255 -0.7094 -0.0403 -0.2168
13130SOL     OW41157   9.488   1.349   5.857  0.2762  0.1967 -0.2543
13130SOL    HW141158   9.562   1.299   5.822 -0.6518 -0.7974 -0.8807
13130SOL    HW241159   9.427   1.282   5.887 -0.7967  0.9751 -0.6604
13131SOL     OW41160   1.022   7.585   7.272 -0.1391 -0.7283  0.0227
13131SOL    HW141161   1.063   7.621   7.350  0.1006 -0.5189 -0.1992
13131SOL    HW241162   0.933   7.620   7.272  0.1022 -0.0916 -0.2150
13132SOL     OW41163   0.138   1.720   8.245 -0.1590 -0.8746 -0.0271
13132SOL    HW141164   0.113   1.788   8.306  0.6152  0.3006 -0.9695
13132SOL    HW241165   0.159   1.644   8.300  0.8453  0.2473  1.1798
13133SOL     OW41166   2.984   3.871   8.241 -0.1285  0.6466  0.0583
13133SOL    HW141167   2.984   3.902   8.331 -0.1527  1.1816 -0.1228
13133SOL    HW241168   3.030   3.940   8.192 -1.6743  1.2342 -0.6266
13134SOL     OW41169   2.848   2.702   2.319 -0.3199 -0.7594  0.8622
13134SOL    HW141170   2.805   2.775   2.362 -0.5584  0.2552 -0.9960
13134SOL    HW241171   2.925   2.685   2.372  0.7127  2.0236  0.4136
13135SOL     OW41172   6.950   8.433   3.450  0.3492  0.2859 -0.2663
13135SOL    HW141173   6.989   8.501   3.504 -0.7263  1.1641 -0.5433
13135SOL    HW241174   6.986   8.351   3.484  1.9315  0.9991 -0.1457
13136SOL     OW41175   0.548   8.752   9.515 -0.5406  0.5768 -0.2154
13136SOL    HW141176   0.641   8.768   9.532 -0.1755  0.6810 -2.0193
13136SOL    HW241177   0.503   8.781   9.594  1.0655 -0.9096  1.3291
13137SOL     OW41178   1.714   0.288   4.952  0.2905  0.3648  0.0603
13137SOL    HW141179   1.715   0.193   4.965  1.5717 -0.1922 -3.1027
13137SOL    HW241180   1.799   0.317   4.986  0.5660  0.0975 -0.3812
13138SOL     OW41181   0.357   3.001   4.348  0.0022  0.0462 -0.3779
13138SOL    HW141182   0.275   2.977   4.391 -0.5786  0.8699 -0.9724
13138SOL    HW241183   0.343   2.975   4.256 -0.1971  1.5263 -0.7897
13139SOL     OW41184   4.347   6.688   2.870 -0.2151  0.3632  0.0638
13139SOL    HW141185   4.409   6.662   2.802  0.5804  0.1603  0.8449
13139SOL    HW241186   4.390   6.663   2.952 -2.4918 -2.3251  0.5685
13140SOL     OW41187   6.023   4.047   9.837 -0.1160  0.2919 -0.1873
13140SOL    HW141188   6.100   3.990   9.843  1.6058  2.5248  0.6251
13140SOL    HW241189   6.028   4.101   9.916 -2.6349  0.4299 -0.0692
13141SOL     OW41190   3.503   4.856   6.710 -0.3440  0.1444  0.2088
13141SOL    HW141191   3.522   4.873   6.802 -0.1868  1.2586 -0.0065
13141SOL    HW241192   3.409   4.869   6.702 -0.6337 -1.6185  0.5297
13142SOL     OW41193   6.679   7.763   5.084 -0.1649  0.1824  1.2612
13142SOL    HW141194   6.746   7.708   5.125  1.2593  0.2677 -0.8074
13142SOL    HW241195   6.631   7.703   5.026  0.9216  0.8830 -0.4531
13143SOL     OW41196   0.303   8.616   0.116 -0.5527  0.2282  0.8469
13143SOL    HW141197   0.391   8.598   0.148 -0.0567  0.8098 -0.1449
13143SOL    HW241198   0.264   8.673   0.183 -0.4598 -0.6249  1.6520
13144SOL     OW41199   2.426   6.290   0.766  1.0299 -0.4873  0.0498
13144SOL    HW141200   2.497   6.242   0.725  1.7419  0.3636  0.2625
13144SOL    HW241201   2.430   6.377   0.727 -0.9355 -0.8732 -1.1670
13145SOL     OW41202   0.457   8.633   6.105  0.5683 -0.3672 -0.6547
13145SOL    HW141203   0.539   8.629   6.154  0.6340 -0.6318 -0.7837
13145SOL    HW241204   0.389   8.621   6.172  0.4529  2.6964 -0.0634
13146SOL     OW41205   7.059   0.939   5.754 -1.1109 -0.3819  0.2622
13146SOL    HW141206   7.147   0.974   5.766 -1.5549  1.5021 -1.4729
13146SOL    HW241207   7.033   0.910   5.841  1.1320 -0.8487  0.8513
13147SOL     OW41208   4.240   2.740   1.963  0.4757 -0.2046  0.0122
13147SOL    HW141209   4.240   2.712   1.872  0.8068  0.0965 -0.0814
13147SOL    HW241210   4.217   2.661   2.012 -1.3692  0.0203 -0.4277
13148SOL     OW41211   2.902   0.223   7.182 -0.0523 -0.5115 -0.3356
13148SOL    HW141212   2.908   0.160   7.110 -0.0089 -2.8209  1.5929
13148SOL    HW241213   2.809   0.230   7.201 -0.0432 -0.1052 -0.4329
13149SOL     OW41214   8.959   8.180   6.376  0.1468 -0.2545 -0.1728
13149SOL    HW141215   9.032   8.135   6.335  0.9628 -1.6939  2.5653
13149SOL    HW241216   8.986   8.272   6.379  0.2915 -0.2028 -2.2000
13150SOL     OW41217   4.802   1.944   2.318  0.3836 -0.3024  0.1096
13150SOL    HW141218   4.720   1.907   2.350 -0.5034  1.1161 -0.4121
13150SOL    HW241219   4.843   1.982   2.395 -0.3166  0.5308  0.0789
13151SOL     OW41220   6.106   1.531   8.602  0.4618  0.0166  0.2248
13151SOL    HW141221   6.200   1.511   8.606  1.1260  2.5683 -0.5811
13151SOL    HW241222   6.091   1.554   8.511 -0.4953  1.5645  0.7495
13152SOL     OW41223   5.758   0.739   1.593  0.1667  0.6409 -0.2407
13152SOL    HW141224   5.704   0.817   1.601  0.4802  0.7787  0.7543
13152SOL    HW241225   5.717   0.676   1.653  0.1605  0.1897 -0.7146
13153SOL     OW41226   6.527   9.078   7.657 -0.7161 -0.4875 -0.1746
13153SOL    HW141227   6.592   9.010   7.638 -0.8902 -0.0676 -2.6819
13153SOL    HW241228   6.548   9.148   7.596 -1.7447  0.9159  1.0157
13154SOL     OW41229   3.547   4.804   1.438  0.1570  0.4800  0.2191
13154SOL    HW141230   3.526   4.751   1.360  1.3795 -1.5953  1.1983
13154SOL    HW241231   3.470   4.795   1.495  0.1479  0.1779  0.1604
13155SOL     OW41232   9.847   0.709   3.865 -0.8204 -0.8094 -0.1988
13155SOL    HW141233   9.769   0.653   3.866 -1.5890  0.2060  1.7644
13155SOL    HW241234   9.813   0.797   3.851  0.2276 -0.6112 -1.6663
13156SOL     OW41235   4.654   9.443   1.826 -0.2110  0.3188  0.4969
13156SOL    HW141236   4.729   9.500   1.806 -1.6910  1.4168 -2.5483
13156SOL    HW241237   4.652   9.439   1.921  2.9849  1.2107  0.7145
13157SOL     OW41238   2.233   9.485   9.559 -0.2480  0.3145 -0.5611
13157SOL    HW141239   2.291   9.546   9.514  0.8028 -0.0205  0.3197
13157SOL    HW241240   2.273   9.399   9.548 -2.2149 -0.4446 -2.6380
13158SOL     OW41241   9.052   5.464   8.582  0.1713 -0.2182 -0.2477
13158SOL    HW141242   9.137   5.421   8.588  2.1211  3.4384  1.4289
13158SOL    HW241243   8.997   5.418   8.646  1.6136 -1.1396  0.3857
13159SOL     OW41244   8.132   7.394   1.841  0.0398  0.4064 -0.0740
13159SOL    HW141245   8.201   7.361   1.899 -1.7584 -1.5136  1.1169
13159SOL    HW241246   8.134   7.489   1.852  0.5662  0.1886  2.2331
13160SOL     OW41247   1.723   7.994   8.157  0.6663 -0.3081 -0.0234
13160SOL    HW141248   1.805   8.016   8.113  0.8271  1.3656  1.0199
13160SOL    HW241249   1.666   8.070   8.141  0.3871 -0.1099  1.7438
13161SOL     OW41250   5.533   7.408   3.860  0.7010  0.1425  0.0214
13161SOL    HW141251   5.510   7.316   3.868 -0.4246  0.2957 -1.0209
13161SOL    HW241252   5.559   7.418   3.768  3.8615  0.2622  0.8307
13162SOL     OW41253   4.397   3.524   7.911  0.1996  0.3076 -0.0887
13162SOL    HW141254   4.398   3.440   7.959  0.6449  0.2053 -0.2714
13162SOL    HW241255   4.397   3.590   7.980 -1.6032  0.1676  0.0777
13163SOL     OW41256   9.311   2.646   8.991  0.1433  0.7492  0.4088
13163SOL    HW141257   9.393   2.680   9.028  1.1374 -1.2242  0.1299
13163SOL    HW241258   9.255   2.631   9.067  0.5975  0.7007  0.7377
13164SOL     OW41259   1.287   5.299   4.785 -0.4625 -0.1173  0.0215
13164SOL    HW141260   1.223   5.268   4.849  0.0752 -0.4640  0.4001
13164SOL    HW241261   1.319   5.382   4.823 -1.2182  0.4399 -0.5315
13165SOL     OW41262   7.281   7.289   9.400  0.5907 -0.9990 -0.2010
13165SOL    HW141263   7.314   7.291   9.310  1.9618  0.0546  0.2895
13165SOL    HW241264   7.360   7.281   9.454 -0.1710 -1.0349  0.9294
13166SOL     OW41265   7.557   9.347   8.683 -0.1551 -0.6311 -0.1333
13166SOL    HW141266   7.535   9.336   8.590  0.8629 -0.1962 -0.4411
13166SOL    HW241267   7.653   9.353   8.684 -0.2657  2.5863  0.5608
13167SOL     OW41268   3.984   7.681   0.214 -0.2783  0.0118 -0.1774
13167SOL    HW141269   3.902   7.646   0.247 -0.4227 -0.4242 -0.9564
13167SOL    HW241270   4.051   7.621   0.246 -0.3196  0.0896  0.0520
13168SOL     OW41271   0.209   7.944   6.597  0.0910  0.1083 -0.2488
13168SOL    HW141272   0.194   8.038   6.603  0.2102  0.0879  0.4600
13168SOL    HW241273   0.205   7.924   6.503 -1.4177  0.5685 -0.3072
13169SOL     OW41274   9.751   0.785   9.355  0.1131  0.1514 -0.3504
13169SOL    HW141275   9.706   0.723   9.297  1.8472  0.0367 -1.6280
13169SOL    HW241276   9.779   0.732   9.429 -2.2009  0.3163  0.7468
13170SOL     OW41277   1.482   3.944   9.101 -0.4896 -0.5156  0.6036
13170SOL    HW141278   1.443   3.872   9.052  0.1835 -1.1894  1.0576
13170SOL    HW241279   1.529   3.995   9.034 -1.6567  0.0057  0.1394
13171SOL     OW41280   5.942   3.356   5.449 -0.0860  0.1046 -0.2245
13171SOL    HW141281   6.023   3.340   5.498 -1.1382 -2.2274  0.8957
13171SOL    HW241282   5.905   3.434   5.491  0.8213  0.2878  0.2714
13172SOL     OW41283   6.197   3.670   6.941  0.0787 -0.1699 -0.1714
13172SOL    HW141284   6.206   3.755   6.984 -1.6066  1.1549 -2.2672
13172SOL    HW241285   6.155   3.689   6.857  0.1742 -3.0181 -0.9798
13173SOL     OW41286   0.635   9.638   1.197  0.3117 -0.0586 -0.3067
13173SOL    HW141287   0.551   9.683   1.201 -0.1410 -0.9524  0.6351
13173SOL    HW241288   0.695   9.693   1.246  0.0448  0.1030 -0.1645
13174SOL     OW41289   3.819   5.201   4.407 -0.0158  0.6832  0.2400
13174SOL    HW141290   3.827   5.274   4.470 -1.4994  0.9818  0.1113
13174SOL    HW241291   3.791   5.127   4.460  1.2211  0.2564  0.3233
13175SOL     OW41292   9.559   0.211   3.824 -0.7099 -0.2431  0.4865
13175SOL    HW141293   9.519   0.144   3.769 -0.2903 -0.6053  0.6143
13175SOL    HW241294   9.536   0.186   3.914 -0.6235 -0.1720  0.5294
13176SOL     OW41295   3.001   4.793   5.105  0.3044  0.8251 -0.2233
13176SOL    HW141296   3.035   4.856   5.041  0.5148 -0.1024 -1.0316
13176SOL    HW241297   3.068   4.789   5.172 -0.9797  3.6930  1.4284
13177SOL     OW41298   1.004   7.334   7.159 -0.3442  0.1906  0.5506
13177SOL    HW141299   1.004   7.420   7.200 -0.5851  2.3841 -3.5559
13177SOL    HW241300   1.090   7.327   7.117  0.2864 -2.3734  2.0061
13178SOL     OW41301   0.063   3.476   9.305  0.4038 -0.2436 -0.0858
13178SOL    HW141302   0.078   3.501   9.396  0.8286 -1.2218  0.1340
13178SOL    HW241303   0.080   3.556   9.254  0.1962  0.2965  0.6885
13179SOL     OW41304   3.318   6.823   9.025  0.6514  0.2795  0.0438
13179SOL    HW141305   3.234   6.870   9.028  0.7219  0.4352 -0.3566
13179SOL    HW241306   3.338   6.803   9.117 -0.7721 -1.4265  0.0487
13180SOL     OW41307   8.566   9.807   9.257  0.2323  0.0433 -0.0344
13180SOL    HW141308   8.494   9.760   9.215  0.4807 -0.7238  0.3712
13180SOL    HW241309   8.594   9.749   9.328  1.3164  0.2804 -0.2483
13181SOL     OW41310   8.562   7.244   3.509 -0.3100 -0.0261 -0.4802
13181SOL    HW141311   8.605   7.289   3.582  1.9848 -1.8392 -0.5919
13181SOL    HW241312   8.499   7.186   3.551 -1.5664  1.4735 -0.2091
13182SOL     OW41313   5.764   4.029   6.104 -0.6819  0.1539  0.3496
13182SOL    HW141314   5.797   3.962   6.045 -2.6859 -0.7958  0.2111
13182SOL    HW241315   5.783   4.112   6.060 -1.1948 -0.4913 -1.1430
13183SOL     OW41316   5.144   0.347   9.756 -0.0442  0.3995  0.1104
13183SOL    HW141317   5.086   0.418   9.782  0.5160  0.4117  1.4123
13183SOL    HW241318   5.227   0.390   9.735 -0.4961  0.3993 -1.8844
13184SOL     OW41319   1.960   2.707   4.426  0.0935 -0.1691 -0.4326
13184SOL    HW141320   1.935   2.633   4.371 -0.4741  0.9394 -1.7248
13184SOL    HW241321   2.045   2.736   4.391  0.3223 -0.2102  0.0755
13185SOL     OW41322   7.936   8.101   0.861  0.1529 -0.0876  0.2951
13185SOL    HW141323   7.992   8.079   0.935  0.7973  1.8797  0.4460
13185SOL    HW241324   7.993   8.092   0.784  0.4356  1.0432  0.3637
13186SOL     OW41325   8.187   7.554   2.521  0.4701  0.6578  0.3243
13186SOL    HW141326   8.098   7.521   2.533  0.3157  1.0625  0.3044
13186SOL    HW241327   8.209   7.531   2.430  0.4595  0.3842  0.3910
13187SOL     OW41328   1.919   5.669   0.122 -0.4242  0.2407  0.0986
13187SOL    HW141329   2.015   5.674   0.118 -0.4851  2.2185  0.1927
13187SOL    HW241330   1.902   5.592   0.177  1.1462  0.5511  1.0985
13188SOL     OW41331   8.513   9.712   7.214  0.1794  0.3418 -0.0991
13188SOL    HW141332   8.481   9.622   7.219 -1.9676  1.0643  0.0114
13188SOL    HW241333   8.531   9.736   7.305 -2.0761  0.9345  0.2467
13189SOL     OW41334   5.638   5.611   4.710  0.5835 -0.2761 -0.3114
13189SOL    HW141335   5.624   5.642   4.800  0.6013  0.7923 -0.6675
13189SOL    HW241336   5.657   5.518   4.720 -0.7405 -0.4713  0.6930
13190SOL     OW41337   4.388   2.657   7.048  0.5334  0.1243  0.1626
13190SOL    HW141338   4.337   2.603   6.987  1.4026 -0.1936 -0.2894
13190SOL    HW241339   4.424   2.594   7.110 -0.2249  0.4303  0.9364
13191SOL     OW41340   1.110   1.300   7.140 -0.1789 -0.6172  0.1012
13191SOL    HW141341   1.145   1.268   7.057  1.1425 -1.4863  0.9421
13191SOL    HW241342   1.121   1.395   7.135 -0.3579 -0.6371 -0.8182
13192SOL     OW41343   1.480   9.610   8.365 -0.1626  0.0983 -1.1417
13192SOL    HW141344   1.388   9.638   8.365  0.5410  2.6877 -2.2383
13192SOL    HW241345   1.499   9.590   8.273  1.0574  2.2747 -1.4156
13193SOL     OW41346   0.777   2.867   4.406  0.0153  0.7671  0.5631
13193SOL    HW141347   0.706   2.897   4.463 -0.0348 -0.7938  1.3562
13193SOL    HW241348   0.854   2.915   4.435 -0.1738  0.5574  1.4159
13194SOL     OW41349   2.467   3.739   2.586 -0.3372 -0.1777  0.4813
13194SOL    HW141350   2.384   3.738   2.538  0.0955  1.7721 -0.4352
13194SOL    HW241351   2.534   3.741   2.518  0.4154 -0.3070  1.1988
13195SOL     OW41352   0.649   3.687   6.682  0.2581 -0.0661 -0.6758
13195SOL    HW141353   0.641   3.771   6.726 -2.5882 -0.6610  0.1986
13195SOL    HW241354   0.668   3.624   6.752 -1.5826 -0.6378 -0.6385
13196SOL     OW41355   7.653   3.972   6.556 -0.1053 -0.4256 -0.4985
13196SOL    HW141356   7.727   4.004   6.503 -0.2986  1.0582  0.0887
13196SOL    HW241357   7.578   4.022   6.525 -0.8348 -1.7116 -0.8763
13197SOL     OW41358   4.009   3.644   3.992  0.5038  0.0922 -0.1997
13197SOL    HW141359   3.980   3.588   4.064 -1.5247 -0.3515 -1.2682
13197SOL    HW241360   4.098   3.615   3.973  0.5569 -0.7281  1.2036
13198SOL     OW41361   7.140   0.908   6.634  0.1673 -0.5433 -0.8606
13198SOL    HW141362   7.228   0.878   6.655 -0.6503 -2.3386  0.2459
13198SOL    HW241363   7.096   0.915   6.719 -0.9384 -0.3352 -1.4310
13199SOL     OW41364   4.580   1.736   7.922 -0.2976 -0.2844  0.1867
13199SOL    HW141365   4.515   1.742   7.852  0.7044 -1.6148 -0.9365
13199SOL    HW241366   4.587   1.642   7.940  0.6149 -0.0880  0.9397
13200SOL     OW41367   8.979   1.017   9.263 -0.0364 -0.3030  0.4199
13200SOL    HW141368   8.934   1.019   9.347 -0.7893 -1.2380  0.0615
13200SOL    HW241369   8.924   1.071   9.206 -0.4029 -0.9641  0.1329
13201SOL     OW41370   3.350   8.595   5.055  0.2191  0.0674  0.5401
13201SOL    HW141371   3.284   8.608   5.123  0.3470  3.9672  0.1575
13201SOL    HW241372   3.431   8.576   5.104 -0.1602  0.4249  1.3249
13202SOL     OW41373   4.498   3.368   1.777  0.1624 -0.1111 -0.1980
13202SOL    HW141374   4.527   3.306   1.709  1.5140 -0.2993  0.5142
13202SOL    HW241375   4.411   3.336   1.803 -0.7328  0.4038 -2.3514
13203SOL     OW41376   6.296   4.342   3.491 -0.2866  0.1335  0.3901
13203SOL    HW141377   6.230   4.288   3.449  0.5074 -0.8830  0.4028
13203SOL    HW241378   6.288   4.323   3.584  0.9504 -1.1303  0.2796
13204SOL     OW41379   7.189   9.469   8.384  0.2057  0.1726 -0.0937
13204SOL    HW141380   7.234   9.433   8.460  0.0122  0.0805 -0.0251
13204SOL    HW241381   7.189   9.564   8.400  1.1494  0.2558 -0.5097
13205SOL     OW41382   3.378   7.911   1.389  0.0296  0.0862 -0.4615
13205SOL    HW141383   3.306   7.971   1.408  0.0884  0.7270 -2.1103
13205SOL    HW241384   3.402   7.875   1.474  0.5890  3.0855  0.7848
13206SOL     OW41385   4.314   0.982   7.683  0.0640 -0.2979  0.7403
13206SOL    HW141386   4.325   1.024   7.599 -2.1163  0.5338  0.8039
13206SOL    HW241387   4.359   1.039   7.745  1.4808 -0.7974  0.2099
13207SOL     OW41388   4.122   2.248   3.974  0.3978  0.9146 -0.2194
13207SOL    HW141389   4.060   2.285   4.037  0.3463 -0.5155  0.6281
13207SOL    HW241390   4.066   2.212   3.905  0.3178  0.4811  0.0645
13208SOL     OW41391   6.411   0.832   4.614  0.6932  0.4472 -0.0299
13208SOL    HW141392   6.471   0.901   4.587  1.1016 -0.1340 -0.6263
13208SOL    HW241393   6.324   0.871   4.606  0.9073  0.8146 -0.5821
13209SOL     OW41394   4.383   4.115   7.412 -0.1780  0.6606 -0.3023
13209SOL    HW141395   4.391   4.020   7.408 -0.3774  0.6741 -1.5904
13209SOL    HW241396   4.459   4.144   7.462  0.1381 -0.1489 -0.3048
13210SOL     OW41397   1.820   1.749   5.995 -0.0073 -0.3024  0.5217
13210SOL    HW141398   1.900   1.800   6.009 -0.2060 -0.1569  1.1552
13210SOL    HW241399   1.849   1.657   6.003 -0.0808 -0.2318  1.7979
13211SOL     OW41400   8.373   8.026   0.868  0.0870  0.3801 -0.5031
13211SOL    HW141401   8.356   7.938   0.902 -0.4702  1.2149  1.5116
13211SOL    HW241402   8.466   8.024   0.845  0.2989 -0.4807  0.3470
13212SOL     OW41403   3.073   6.442   4.121  0.0547 -0.1303  0.0549
13212SOL    HW141404   3.116   6.491   4.191  0.8156 -0.4816 -0.1520
13212SOL    HW241405   3.035   6.509   4.064  1.1356  0.2426 -0.2620
13213SOL     OW41406   9.633   0.281   0.157 -0.2153 -0.0665 -0.4190
13213SOL    HW141407   9.657   0.256   0.068 -0.5364  0.4355 -0.6475
13213SOL    HW241408   9.538   0.291   0.154 -0.3392 -0.9740  0.2124
13214SOL     OW41409   7.057   9.028   3.007  0.0361  0.0132 -0.0178
13214SOL    HW141410   7.086   9.069   3.088 -0.4989  0.2890  0.0354
13214SOL    HW241411   6.972   9.067   2.989  0.3916  0.3705 -1.0080
13215SOL     OW41412   8.485   9.458   9.054 -0.3169 -0.1078  0.0445
13215SOL    HW141413   8.410   9.412   9.092  0.0979  0.1461  1.2119
13215SOL    HW241414   8.560   9.401   9.073  0.0270  0.4595  0.4115
13216SOL     OW41415   1.822   8.582   4.968  1.2023 -0.2364  0.4256
13216SOL    HW141416   1.834   8.656   4.908  1.0884 -0.0707  0.6020
13216SOL    HW241417   1.901   8.530   4.959  0.8124 -0.6832 -0.5120
13217SOL     OW41418   9.597   0.949   5.688  0.3855  0.3840 -0.2405
13217SOL    HW141419   9.585   0.943   5.783  1.1488 -0.0626 -0.1682
13217SOL    HW241420   9.574   0.862   5.655 -0.2187  0.6392 -0.5108
13218SOL     OW41421   9.474   9.179   1.792 -0.0513 -0.0782 -0.1342
13218SOL    HW141422   9.490   9.135   1.708  0.0377 -0.4228  0.0639
13218SOL    HW241423   9.378   9.183   1.798 -0.0631  1.3262 -0.9711
13219SOL     OW41424   7.770   5.955   1.130 -0.0923  0.6515 -0.2755
13219SOL    HW141425   7.864   5.974   1.128  0.0056  0.1680 -0.3567
13219SOL    HW241426   7.729   6.029   1.086  0.3896 -0.0195 -1.9001
13220SOL     OW41427   7.427   9.738   1.220  0.4529  0.4002  0.1088
13220SOL    HW141428   7.437   9.692   1.137 -0.5766 -0.4103  0.4110
13220SOL    HW241429   7.443   9.671   1.286  0.1440  0.7688  0.5615
13221SOL     OW41430   0.991   7.024   2.009  0.3098 -0.1604  0.5090
13221SOL    HW141431   0.919   7.020   2.071  0.8430 -0.0664  1.1400
13221SOL    HW241432   1.070   7.017   2.062  0.8180  1.2170 -0.0207
13222SOL     OW41433   1.528   0.650   8.176 -0.9136  0.1526 -0.1587
13222SOL    HW141434   1.574   0.709   8.236  0.3910 -0.4183 -0.5748
13222SOL    HW241435   1.590   0.634   8.105  0.0065 -4.0090  1.2874
13223SOL     OW41436   3.140   0.453   8.072 -0.2396 -0.0868 -0.9060
13223SOL    HW141437   3.214   0.512   8.088  1.4708 -2.1056 -0.9311
13223SOL    HW241438   3.091   0.495   8.001  1.5815  0.7298 -1.7421
13224SOL     OW41439   8.525   4.212   1.409 -0.2402 -0.6597 -0.3160
13224SOL    HW141440   8.557   4.277   1.346 -2.3618 -0.9625 -1.7925
13224SOL    HW241441   8.552   4.128   1.372  0.5550 -0.7600  0.4466
13225SOL     OW41442   0.212   5.945   6.798 -0.0997 -0.1575  0.3847
13225SOL    HW141443   0.218   6.039   6.778  0.1991 -0.1545  0.4743
13225SOL    HW241444   0.257   5.902   6.725 -0.0675 -0.2183  0.4404
13226SOL     OW41445   7.351   9.835   5.361  0.3807 -0.4019  0.3442
13226SOL    HW141446   7.438   9.798   5.380 -0.0394 -1.4836  0.2394
13226SOL    HW241447   7.351   9.919   5.405  0.6212 -1.4144  2.3932
13227SOL     OW41448   3.983   7.314   5.689 -0.1461  0.3665  0.0390
13227SOL    HW141449   3.958   7.303   5.597 -0.1622  1.4919 -0.1057
13227SOL    HW241450   4.012   7.227   5.716  1.4625  0.3692 -1.5122
13228SOL     OW41451   2.895   0.910   1.587  0.4437 -0.0293 -0.0017
13228SOL    HW141452   2.886   0.916   1.491 -0.1250  0.6317  0.0843
13228SOL    HW241453   2.982   0.874   1.601  0.3774 -0.5222 -0.7800
13229SOL     OW41454   0.267   6.901   6.288 -0.0620 -0.3346  0.0144
13229SOL    HW141455   0.184   6.949   6.286 -0.8149 -1.6166 -1.3329
13229SOL    HW241456   0.301   6.907   6.199  1.9795  1.1834  0.7865
13230SOL     OW41457   9.762   7.543   6.465  0.0056  0.0356 -0.0391
13230SOL    HW141458   9.835   7.569   6.522 -0.5118 -1.4468  1.3807
13230SOL    HW241459   9.769   7.447   6.459 -2.0148 -0.1915  0.4501
13231SOL     OW41460   4.076   1.629   3.175  0.2009 -0.1101 -0.6825
13231SOL    HW141461   4.096   1.549   3.224 -1.4055 -0.1559 -0.0526
13231SOL    HW241462   4.161   1.670   3.160  0.8001 -0.3936  1.6246
13232SOL     OW41463   9.194   7.694   0.404  0.0018  0.4817 -0.8110
13232SOL    HW141464   9.185   7.735   0.318  0.1957 -1.7973 -1.9913
13232SOL    HW241465   9.104   7.673   0.430  0.0185  0.3666 -0.8512
13233SOL     OW41466   7.727   0.223   6.721  0.1921 -0.3080  0.2448
13233SOL    HW141467   7.738   0.142   6.770 -1.7028 -0.4725  0.4708
13233SOL    HW241468   7.724   0.291   6.788  0.5293 -0.1923  0.1431
13234SOL     OW41469   3.423   6.203   8.682 -0.0040 -0.3643 -0.0306
13234SOL    HW141470   3.420   6.284   8.631  2.2819 -0.0040  0.2960
13234SOL    HW241471   3.367   6.220   8.757 -1.6704 -0.1104 -1.2713
13235SOL     OW41472   4.959   6.925   7.679  0.3668  0.4369  0.0225
13235SOL    HW141473   4.893   6.990   7.654  1.3401  1.5274  0.2032
13235SOL    HW241474   5.000   6.962   7.757  0.8700 -0.4583  0.1901
13236SOL     OW41475   7.582   6.271   2.244 -0.0198 -0.2255 -0.6272
13236SOL    HW141476   7.551   6.222   2.168 -1.1235  0.5102 -0.6836
13236SOL    HW241477   7.582   6.362   2.215  0.7909 -0.0582 -0.1364
13237SOL     OW41478   0.675   9.770   1.959 -0.1937 -0.7929  0.3918
13237SOL    HW141479   0.646   9.806   2.043  0.7317 -0.9452  0.7900
13237SOL    HW241480   0.667   9.843   1.898  0.1562 -0.3584  0.8514
13238SOL     OW41481   8.360   6.682   5.686 -0.0558  0.2543 -0.5124
13238SOL    HW141482   8.334   6.591   5.692  0.5806  0.0312 -0.9349
13238SOL    HW241483   8.454   6.679   5.668  0.4110  1.0200  1.5388
13239SOL     OW41484   4.278   4.731   8.809 -0.0127  0.2376 -0.3807
13239SOL    HW141485   4.293   4.783   8.888  0.1337  1.6858 -1.3105
13239SOL    HW241486   4.249   4.646   8.841 -0.1075  0.8337  1.2190
13240SOL     OW41487   2.225   3.771   1.832 -0.0264  0.4272 -0.1010
13240SOL    HW141488   2.298   3.768   1.769 -2.0011 -0.3927 -2.5191
13240SOL    HW241489   2.177   3.690   1.816 -0.7392  0.2809  2.4264
13241SOL     OW41490   3.682   2.926   6.260 -0.3635 -0.0306 -0.0285
13241SOL    HW141491   3.768   2.904   6.225 -0.4024 -1.9510  0.9391
13241SOL    HW241492   3.700   2.989   6.330  0.2256 -0.2297 -0.0017
13242SOL     OW41493   5.314   9.152   6.895 -0.0606  0.0258  1.2120
13242SOL    HW141494   5.359   9.096   6.832 -1.8138 -2.3143  1.8861
13242SOL    HW241495   5.358   9.237   6.887  0.5772 -0.4604 -2.2777
13243SOL     OW41496   4.649   0.741   0.443 -0.2822 -0.7747  0.0416
13243SOL    HW141497   4.582   0.673   0.450 -0.2722 -0.6814  1.3446
13243SOL    HW241498   4.634   0.797   0.520  0.8722 -0.3744 -0.0086
13244SOL     OW41499   0.757   4.991   1.509  0.2293  0.0917 -0.1315
13244SOL    HW141500   0.836   5.044   1.509  1.3346 -1.4908 -0.4756
13244SOL    HW241501   0.719   5.004   1.422  0.4728  0.3389 -0.2005
13245SOL     OW41502   2.620   9.358   5.047 -0.2391 -0.0539  0.1244
13245SOL    HW141503   2.582   9.298   4.984  3.4207 -0.2113 -2.2589
13245SOL    HW241504   2.592   9.445   5.018  0.1326 -0.2286 -0.7789
13246SOL     OW41505   9.054   2.809   5.168 -0.2131  0.5879 -0.1110
13246SOL    HW141506   9.004   2.753   5.108 -0.5188  2.1364 -1.3623
13246SOL    HW241507   9.125   2.843   5.115  0.9132  0.1663  1.0731
13247SOL     OW41508   8.911   1.001   8.778 -0.3052  0.4856 -1.1146
13247SOL    HW141509   9.004   0.980   8.765 -0.3915  0.4621 -1.7190
13247SOL    HW241510   8.888   1.055   8.702 -0.5240  1.3568 -0.4393
13248SOL     OW41511   3.206   1.453   4.496 -0.1453  0.3659 -0.1172
13248SOL    HW141512   3.225   1.412   4.411  0.5645  0.8092 -0.1781
13248SOL    HW241513   3.226   1.385   4.560  1.0965  0.6059 -0.2160
13249SOL     OW41514   4.397   6.362   4.246 -0.0254  0.6226  0.2180
13249SOL    HW141515   4.418   6.302   4.175  0.1629  2.1986 -1.1122
13249SOL    HW241516   4.308   6.392   4.227  0.3899  1.8051  0.0615
13250SOL     OW41517   3.467   2.730   0.763 -0.2644  0.1836  0.6290
13250SOL    HW141518   3.507   2.764   0.684 -1.5114 -0.3246 -0.2632
13250SOL    HW241519   3.472   2.635   0.754 -1.8806  0.0852  0.3166
13251SOL     OW41520   9.013   9.005   9.269 -0.2889 -0.3111  0.0495
13251SOL    HW141521   9.082   9.001   9.202 -1.0936 -0.1557 -0.8033
13251SOL    HW241522   8.946   8.944   9.238 -0.4361 -0.6581  1.0114
13252SOL     OW41523   7.126   9.428   2.445  0.4599  0.0464  0.4451
13252SOL    HW141524   7.062   9.384   2.501 -0.3355 -0.0158 -0.5041
13252SOL    HW241525   7.141   9.512   2.488  0.7992 -0.4962  1.4180
13253SOL     OW41526   8.078   3.264   4.343  0.3330  0.3978  0.2158
13253SOL    HW141527   8.095   3.321   4.268  2.1002  0.0205  0.2819
13253SOL    HW241528   7.990   3.229   4.327  0.6777  0.2970 -1.7216
13254SOL     OW41529   5.187   8.784   7.027 -0.0668 -0.4054 -0.2379
13254SOL    HW141530   5.135   8.704   7.022 -1.1275  0.2542 -0.0455
13254SOL    HW241531   5.227   8.782   7.114 -0.0782 -0.7300 -0.2406
13255SOL     OW41532   6.729   9.148   8.778 -0.0882  0.7917  0.5650
13255SOL    HW141533   6.740   9.188   8.692 -0.6934 -0.6679 -0.2198
13255SOL    HW241534   6.702   9.221   8.835  0.3344  1.7711 -0.4540
13256SOL     OW41535   0.446   4.325   6.995  0.3498  0.6247 -0.6035
13256SOL    HW141536   0.432   4.255   6.930  1.7052  1.0802 -1.4274
13256SOL    HW241537   0.519   4.293   7.049  0.4047  1.0256 -0.4414
13257SOL     OW41538   3.964   2.645   6.201  0.5394  0.6067  0.0453
13257SOL    HW141539   4.054   2.611   6.211  1.1697  2.3322  0.6050
13257SOL    HW241540   3.974   2.724   6.149 -0.7344  0.6060 -0.2194
13258SOL     OW41541   1.779   6.582   0.939  0.2772 -0.1099  0.5535
13258SOL    HW141542   1.859   6.634   0.929 -0.0295  0.7558  2.1522
13258SOL    HW241543   1.747   6.570   0.850  1.8770  0.0223 -0.0683
13259SOL     OW41544   5.907   0.953   9.819 -0.2473 -0.1016 -0.1709
13259SOL    HW141545   5.890   0.893   9.746  0.7115 -2.1959  1.2387
13259SOL    HW241546   5.919   0.897   9.895  1.3919  1.8358  1.1296
13260SOL     OW41547   1.318   4.227   6.121 -0.3121 -0.3356 -0.2691
13260SOL    HW141548   1.277   4.143   6.142 -1.1574  0.7507  3.0822
13260SOL    HW241549   1.245   4.285   6.098 -0.2762  0.4933  1.5233
13261SOL     OW41550   9.100   5.732   0.314 -0.4285  0.0119  0.3159
13261SOL    HW141551   9.031   5.793   0.338  0.2471  0.0257  2.4101
13261SOL    HW241552   9.169   5.787   0.276 -0.8273  0.2123 -0.1268
13262SOL     OW41553   3.616   9.250   4.982  0.4364  0.3044 -0.8872
13262SOL    HW141554   3.678   9.322   4.990  1.0310 -0.2551 -0.1962
13262SOL    HW241555   3.603   9.239   4.888 -1.8284  3.0756 -1.0171
13263SOL     OW41556   7.635   7.578   0.310 -0.0099 -0.5505 -0.3243
13263SOL    HW141557   7.680   7.494   0.315 -0.4638 -0.7686  0.2895
13263SOL    HW241558   7.635   7.610   0.400 -0.7758 -0.4005 -0.3719
13264SOL     OW41559   1.965   8.768   8.875  0.3364  0.1510 -0.4768
13264SOL    HW141560   1.940   8.770   8.967 -0.1688  1.0705 -0.6202
13264SOL    HW241561   1.959   8.676   8.850  1.9959 -0.3626  0.7990
13265SOL     OW41562   7.195   6.285   9.837  0.1028 -0.0398 -0.0916
13265SOL    HW141563   7.227   6.364   9.881  1.8779 -0.2259 -0.9607
13265SOL    HW241564   7.161   6.231   9.909  1.4222  0.3440  0.8683
13266SOL     OW41565   0.457   6.339   9.747 -0.3277 -0.0928  0.7458
13266SOL    HW141566   0.363   6.323   9.738 -0.5508  0.7585  1.4372
13266SOL    HW241567   0.482   6.378   9.664 -0.5023 -0.6637  0.4169
13267SOL     OW41568   0.516   0.716   6.772  0.5640 -0.8537 -0.0374
13267SOL    HW141569   0.529   0.804   6.807 -0.1784 -0.2463 -1.2251
13267SOL    HW241570   0.524   0.726   6.677  2.3416 -2.4192 -0.1228
13268SOL     OW41571   0.642   4.237   0.638  0.3998  0.3286  1.0270
13268SOL    HW141572   0.664   4.297   0.566 -2.0357 -0.5185 -0.5734
13268SOL    HW241573   0.635   4.151   0.596 -0.2324 -0.3425  2.4420
13269SOL     OW41574   4.405   8.293   8.996  0.2737 -0.2501  0.7832
13269SOL    HW141575   4.376   8.204   8.978 -1.3203 -0.0885  2.2622
13269SOL    HW241576   4.480   8.283   9.056 -0.6018 -0.6181  1.8574
13270SOL     OW41577   9.364   3.678   5.729  0.5170  0.1355  0.5237
13270SOL    HW141578   9.360   3.588   5.695  1.6661  0.3682 -0.2853
13270SOL    HW241579   9.446   3.712   5.695  0.3671  1.3109  1.3136
13271SOL     OW41580   4.432   6.175   5.354  0.1218  0.4302  0.2719
13271SOL    HW141581   4.423   6.267   5.330  0.1683  0.1688 -0.7673
13271SOL    HW241582   4.393   6.126   5.281 -0.5910 -0.3565  1.1514
13272SOL     OW41583   1.992   7.293   3.902 -0.1307  0.1860  0.2941
13272SOL    HW141584   2.069   7.322   3.951 -0.4328  0.6588  0.4932
13272SOL    HW241585   1.954   7.224   3.956  0.5793 -0.5914 -0.1717
13273SOL     OW41586   9.074   0.435   2.052 -0.4155  0.3052 -0.5349
13273SOL    HW141587   9.008   0.430   1.983 -1.3433 -3.6267  0.3926
13273SOL    HW241588   9.141   0.371   2.026 -0.4289 -0.7427  1.7356
13274SOL     OW41589   8.793   5.053   0.520  0.0983  0.5276  0.3236
13274SOL    HW141590   8.779   5.009   0.604 -0.6683 -0.3210 -0.2371
13274SOL    HW241591   8.880   5.026   0.493 -0.3164 -0.5736  0.0423
13275SOL     OW41592   0.637   7.058   7.471 -0.5432  0.1087 -0.3377
13275SOL    HW141593   0.582   7.087   7.543 -1.2920 -2.0986  0.0635
13275SOL    HW241594   0.616   7.117   7.399 -0.8447  1.4594  0.8161
13276SOL     OW41595   2.171   8.843   0.120  0.7272 -0.1151  0.5262
13276SOL    HW141596   2.210   8.814   0.203 -1.5691  0.0252  1.7356
13276SOL    HW241597   2.136   8.762   0.081  2.0877 -0.2338 -0.5249
13277SOL     OW41598   5.793   2.001   0.902  0.7690  0.3417 -0.0579
13277SOL    HW141599   5.814   2.094   0.914  0.6532  0.3755 -0.1233
13277SOL    HW241600   5.791   1.989   0.807 -0.8815  0.6473 -0.0858
13278SOL     OW41601   8.089   4.689   0.833  0.1728 -0.1948  0.7502
13278SOL    HW141602   8.142   4.751   0.783 -0.3165  0.2569  0.7811
13278SOL    HW241603   8.147   4.656   0.902  0.1755  0.9258  1.3008
13279SOL     OW41604   1.562   7.971   2.487  0.7743  0.4662 -0.5627
13279SOL    HW141605   1.537   8.046   2.540 -1.7053  0.4789 -1.5853
13279SOL    HW241606   1.571   7.899   2.550 -1.8000  0.5403  0.0227
13280SOL     OW41607   5.558   6.891   5.632  0.0687 -0.0917 -0.4724
13280SOL    HW141608   5.554   6.803   5.595  0.5978 -0.1042 -0.5028
13280SOL    HW241609   5.651   6.915   5.629 -0.2565  1.1764 -2.0897
13281SOL     OW41610   3.564   4.450   3.872 -0.0101 -0.1704  0.3213
13281SOL    HW141611   3.630   4.380   3.863  1.3818  1.0800  0.4811
13281SOL    HW241612   3.527   4.459   3.784 -0.7123 -1.5505  0.4434
13282SOL     OW41613   9.583   8.786   6.400  0.5664  0.4909  0.1274
13282SOL    HW141614   9.562   8.866   6.448  1.9034 -0.5310  2.6394
13282SOL    HW241615   9.678   8.789   6.390  0.5053 -0.2597 -0.7662
13283SOL     OW41616   1.858   2.697   1.011 -0.5542  0.3384 -0.0801
13283SOL    HW141617   1.916   2.621   1.010 -1.1527 -0.1353 -1.6679
13283SOL    HW241618   1.913   2.768   1.044  0.1905 -0.6328  0.8389
13284SOL     OW41619   4.205   5.657   4.185 -0.4427 -0.3654  0.0406
13284SOL    HW141620   4.147   5.731   4.198  0.3213  0.1112  0.8411
13284SOL    HW241621   4.155   5.581   4.217 -0.5386  0.0713  0.9473
13285SOL     OW41622   5.585   0.679   2.375  0.2558 -0.0048  0.5237
13285SOL    HW141623   5.626   0.665   2.290 -1.0934 -2.1006  0.1400
13285SOL    HW241624   5.529   0.603   2.388 -2.1297  1.8117  1.8090
13286SOL     OW41625   9.703   7.116   9.349  0.5161  0.0902 -0.1235
13286SOL    HW141626   9.728   7.160   9.430 -0.4752  0.7741 -0.1778
13286SOL    HW241627   9.748   7.166   9.280 -1.1876  1.5287 -0.2505
13287SOL     OW41628   7.892   3.946   8.138  0.1029 -0.2828 -0.0204
13287SOL    HW141629   7.802   3.917   8.126  0.1848 -0.9319  0.8831
13287SOL    HW241630   7.893   4.036   8.104 -0.5185 -0.7767 -1.4186
13288SOL     OW41631   8.321   6.435   9.750 -0.5768  0.0574  0.0091
13288SOL    HW141632   8.349   6.494   9.820 -0.8344  0.9557 -0.6219
13288SOL    HW241633   8.383   6.363   9.753 -0.4447  0.1970  1.0072
13289SOL     OW41634   9.645   9.682   1.442 -0.5834  0.4143  0.0683
13289SOL    HW141635   9.558   9.719   1.453 -0.5271  0.2628  1.1436
13289SOL    HW241636   9.630   9.592   1.416 -0.8343 -0.3150  2.4643
13290SOL     OW41637   1.389   2.308   3.750 -0.5098 -0.0837  0.1588
13290SOL    HW141638   1.452   2.263   3.806  1.0257 -0.6959 -1.9171
13290SOL    HW241639   1.360   2.383   3.802  1.3902 -0.1967  1.4915
13291SOL     OW41640   3.171   0.798   9.599 -0.0312 -0.0203 -0.3120
13291SOL    HW141641   3.162   0.882   9.644  1.4846  0.2776 -0.5063
13291SOL    HW241642   3.262   0.771   9.615 -0.1213 -1.0168 -1.2960
13292SOL     OW41643   3.319   5.205   9.618 -0.1131  0.4983  0.3319
13292SOL    HW141644   3.283   5.288   9.647 -2.4273 -0.2939 -0.0575
13292SOL    HW241645   3.334   5.216   9.524  1.7832  1.1612  0.6662
13293SOL     OW41646   4.532   6.036   0.936  0.5752  0.2816 -0.9955
13293SOL    HW141647   4.554   6.117   0.982  0.3585 -0.5027  0.5396
13293SOL    HW241648   4.459   6.060   0.879  0.6125  1.1974 -0.6746
13294SOL     OW41649   0.776   0.118   8.645  0.5706 -0.1745  0.6430
13294SOL    HW141650   0.818   0.041   8.607 -0.7571 -0.6870  0.1925
13294SOL    HW241651   0.845   0.184   8.646  0.7954 -0.2672 -2.2411
13295SOL     OW41652   0.273   5.432   0.247  0.0919  0.2273  0.2622
13295SOL    HW141653   0.349   5.488   0.232 -0.8777  1.6291  0.3411
13295SOL    HW241654   0.254   5.394   0.161  0.7356  0.0540  0.1944
13296SOL     OW41655   9.422   9.611   3.782  0.3293 -0.1174 -0.0385
13296SOL    HW141656   9.332   9.588   3.761  0.1519  0.7983 -0.3019
13296SOL    HW241657   9.465   9.527   3.800 -0.7767 -0.4963  0.9112
13297SOL     OW41658   9.382   9.175   4.375 -0.1260 -0.4944  0.2024
13297SOL    HW141659   9.335   9.115   4.433 -1.3287  1.0805  0.9358
13297SOL    HW241660   9.319   9.198   4.307  0.9755 -1.5971 -1.2536
13298SOL     OW41661   2.817   1.620   7.136 -0.0910  0.5257 -0.8330
13298SOL    HW141662   2.912   1.631   7.129 -0.0158 -0.0066 -0.6782
13298SOL    HW241663   2.781   1.706   7.113  0.3920  0.4529 -1.9155
13299SOL     OW41664   5.919   8.282   1.986  0.4573  0.2804  0.4616
13299SOL    HW141665   5.825   8.262   1.984  0.2607  1.1827 -0.3191
13299SOL    HW241666   5.943   8.273   2.078 -0.2313 -0.6426  0.5727
13300SOL     OW41667   9.772   2.848   8.527 -0.4635 -0.5124  0.9176
13300SOL    HW141668   9.850   2.857   8.473 -0.2322 -0.8852  1.1831
13300SOL    HW241669   9.753   2.937   8.557 -0.8716 -0.2266 -0.1497
13301SOL     OW41670   2.122   2.650   2.171  0.2468 -0.0373  0.7122
13301SOL    HW141671   2.203   2.700   2.185  0.9235 -0.9650  0.2104
13301SOL    HW241672   2.150   2.559   2.174 -0.5008 -0.3600 -1.1459
13302SOL     OW41673   9.451   0.556   8.218  0.2755 -0.2829  0.2037
13302SOL    HW141674   9.472   0.472   8.259  0.5578  0.2941  1.2760
13302SOL    HW241675   9.534   0.604   8.219 -0.0131  0.2229  0.1164
13303SOL     OW41676   7.731   5.205   9.130  0.5953 -0.2064  0.1721
13303SOL    HW141677   7.745   5.300   9.134 -0.5370  0.1492 -2.2373
13303SOL    HW241678   7.803   5.172   9.076 -0.6586 -0.1961 -1.6058
13304SOL     OW41679   7.515   1.434   4.048 -0.0636  0.0771  0.0693
13304SOL    HW141680   7.488   1.455   3.959  1.1919  0.7369 -0.1737
13304SOL    HW241681   7.513   1.338   4.051 -0.4784  0.0612 -0.5485
13305SOL     OW41682   4.708   8.562   7.391  0.1889 -0.4187 -0.0928
13305SOL    HW141683   4.736   8.586   7.480 -0.0630 -1.3495  0.2541
13305SOL    HW241684   4.787   8.571   7.338  0.2875  0.3700  0.1741
13306SOL     OW41685   1.800   9.325   9.284  0.1333 -0.2667  0.0583
13306SOL    HW141686   1.747   9.305   9.361 -0.1082 -0.1976 -0.0872
13306SOL    HW241687   1.868   9.383   9.316 -2.2271  3.0718 -0.4433
13307SOL     OW41688   3.961   9.380   9.051 -0.4562  0.2674 -0.1059
13307SOL    HW141689   3.922   9.413   8.970 -0.3601 -0.7641 -0.5823
13307SOL    HW241690   3.964   9.457   9.109 -2.2822  0.5968 -0.3820
13308SOL     OW41691   6.951   1.692   5.239 -0.2573 -0.0415 -0.2399
13308SOL    HW141692   6.985   1.674   5.327  0.2987  1.2199 -0.1756
13308SOL    HW241693   6.990   1.776   5.215 -1.1371  0.0771 -1.3255
13309SOL     OW41694   8.110   7.091   8.959 -0.2449  0.1994 -0.2857
13309SOL    HW141695   8.028   7.090   9.008 -0.0768  0.1860 -0.0028
13309SOL    HW241696   8.130   6.998   8.943 -0.8716  0.2356 -1.3473
13310SOL     OW41697   2.380   6.018   4.135 -1.0552  0.2119 -0.5571
13310SOL    HW141698   2.346   5.929   4.137  0.4111 -0.3809  1.9871
13310SOL    HW241699   2.344   6.061   4.212  0.6981  0.8130 -0.0205
13311SOL     OW41700   2.395   7.055   5.480  0.4744 -0.2808 -0.2003
13311SOL    HW141701   2.345   6.974   5.469 -0.9897 -0.2092  4.0241
13311SOL    HW241702   2.453   7.037   5.554  0.0511  2.4832  0.9081
13312SOL     OW41703   2.551   2.032   3.346 -0.1326  0.8638 -0.2517
13312SOL    HW141704   2.630   2.012   3.396  0.5147  0.0747 -1.5471
13312SOL    HW241705   2.493   2.074   3.409  1.5875  2.1460  0.5747
13313SOL     OW41706   5.104   9.610   1.933 -0.0519 -0.0576 -0.2508
13313SOL    HW141707   5.073   9.524   1.961 -1.5826  0.2688 -0.8760
13313SOL    HW241708   5.179   9.628   1.991  0.3793 -1.8418 -0.1998
13314SOL     OW41709   3.903   7.009   1.082 -0.4312 -0.5010  0.5362
13314SOL    HW141710   3.849   6.930   1.087  0.1437 -0.8318  2.0328
13314SOL    HW241711   3.851   7.076   1.126 -0.5086 -0.2798  0.1131
13315SOL     OW41712   5.869   8.648   3.964  0.4563  0.1146  0.7638
13315SOL    HW141713   5.818   8.673   4.041  2.2134 -0.5292  2.2223
13315SOL    HW241714   5.935   8.717   3.956 -0.4187  0.8161 -0.9440
13316SOL     OW41715   3.336   8.858   2.350  0.5639 -0.3196  0.1207
13316SOL    HW141716   3.407   8.921   2.340  0.1064  0.0854 -0.6041
13316SOL    HW241717   3.264   8.894   2.300 -0.4398 -0.3334  1.4856
13317SOL     OW41718   2.446   0.403   0.351  0.0181 -0.5654  0.2547
13317SOL    HW141719   2.483   0.445   0.428  0.1402 -1.0864  0.4878
13317SOL    HW241720   2.352   0.402   0.367  0.0585 -0.8342  0.4831
13318SOL     OW41721   6.955   1.697   0.224  0.0126  0.4548 -0.1656
13318SOL    HW141722   7.024   1.701   0.157  0.0272  2.7725 -0.1014
13318SOL    HW241723   6.967   1.777   0.276 -0.7254 -0.7087  1.9078
13319SOL     OW41724   1.017   7.135   6.949 -0.5896  0.3600 -0.1737
13319SOL    HW141725   0.959   7.152   7.023 -0.0366  2.4063 -0.1611
13319SOL    HW241726   0.972   7.176   6.874 -0.2383 -0.0408 -0.6106
13320SOL     OW41727   5.664   1.638   3.918 -0.0137 -0.5432  0.3387
13320SOL    HW141728   5.593   1.582   3.949 -0.7476 -0.2286 -0.7132
13320SOL    HW241729   5.658   1.717   3.972  0.6033 -1.1824  1.3729
13321SOL     OW41730   9.793   6.339   4.146  0.2954 -0.0878  0.3661
13321SOL    HW141731   9.779   6.425   4.105  1.9844  0.5217  0.9559
13321SOL    HW241732   9.814   6.281   4.072 -1.8745 -0.2919 -0.1556
13322SOL     OW41733   1.898   7.730   1.542  0.4326 -0.3025 -0.8075
13322SOL    HW141734   1.822   7.686   1.580  2.4244 -2.3188  1.1112
13322SOL    HW241735   1.959   7.659   1.522  3.2926  1.3909  1.1641
13323SOL     OW41736   4.364   1.356   4.344  0.4504  0.1070 -0.2987
13323SOL    HW141737   4.448   1.381   4.382 -0.2996  1.3303  0.6493
13323SOL    HW241738   4.313   1.322   4.417 -0.8109  1.9406 -0.2449
13324SOL     OW41739   7.340   8.012   2.628 -0.7710  0.4957 -0.4067
13324SOL    HW141740   7.401   8.073   2.669 -0.1818  0.9839 -1.9325
13324SOL    HW241741   7.257   8.028   2.674  0.0086  0.4431  1.0935
13325SOL     OW41742   1.458   6.023   1.396 -0.1097 -0.4974  0.3474
13325SOL    HW141743   1.496   5.935   1.388 -1.4632 -1.0611 -0.3931
13325SOL    HW241744   1.441   6.033   1.489  1.3131 -0.4340  0.6251
13326SOL     OW41745   3.873   7.403   0.067  0.1847 -0.2863 -0.0213
13326SOL    HW141746   3.831   7.477   0.024  2.0083  0.9615  0.2124
13326SOL    HW241747   3.803   7.361   0.117 -1.2372  0.2767 -1.4484
13327SOL     OW41748   5.125   8.237   9.295 -0.2378 -0.1019  0.2569
13327SOL    HW141749   5.134   8.215   9.202 -1.2264 -1.0281  0.3598
13327SOL    HW241750   5.211   8.219   9.332  0.3735  0.9624 -0.6019
13328SOL     OW41751   1.016   6.364   1.247 -0.2717 -0.6362  0.5200
13328SOL    HW141752   0.948   6.423   1.281 -0.5940  0.5331 -1.9423
13328SOL    HW241753   1.023   6.386   1.154  1.3339 -2.8650  0.0242
13329SOL     OW41754   6.868   2.388   1.246  0.3036  0.0663 -0.1385
13329SOL    HW141755   6.872   2.423   1.335  1.4292 -1.8180  0.6332
13329SOL    HW241756   6.827   2.456   1.194  0.3917  1.5596  1.6677
13330SOL     OW41757   3.403   5.334   2.692  0.4312  0.7975  0.6326
13330SOL    HW141758   3.349   5.364   2.765 -1.0802  0.6648 -0.3784
13330SOL    HW241759   3.401   5.406   2.629  0.0598  0.1495 -0.1182
13331SOL     OW41760   5.491   9.505   1.359  0.0999 -0.5305 -0.0348
13331SOL    HW141761   5.537   9.546   1.432  1.9486  0.1106 -1.4709
13331SOL    HW241762   5.405   9.547   1.357  0.6262  0.6142  0.7569
13332SOL     OW41763   2.652   7.263   2.426 -0.0620  0.1299  0.3668
13332SOL    HW141764   2.593   7.207   2.375 -1.8933  1.9831  0.3511
13332SOL    HW241765   2.732   7.267   2.373 -0.2620 -1.5689 -0.1358
13333SOL     OW41766   4.764   1.585   4.161 -0.4466 -0.7651  0.4400
13333SOL    HW141767   4.675   1.619   4.168  0.2966  1.0297  2.0830
13333SOL    HW241768   4.793   1.577   4.252  0.8197 -2.0479 -0.0540
13334SOL     OW41769   1.697   9.663   8.527 -0.3680 -0.0769 -0.1661
13334SOL    HW141770   1.614   9.662   8.479 -0.1913 -0.8770 -0.4733
13334SOL    HW241771   1.738   9.579   8.505  0.0750 -0.1194  0.7587
13335SOL     OW41772   6.977   9.510   1.824 -0.6240 -0.1185 -0.3809
13335SOL    HW141773   7.068   9.485   1.807 -0.7739 -0.3297 -0.9104
13335SOL    HW241774   6.956   9.572   1.753 -0.1133  1.9232  1.1586
13336SOL     OW41775   5.408   3.244   6.728  0.2347  0.0722 -0.0898
13336SOL    HW141776   5.411   3.211   6.638  0.9236  0.3835 -0.1882
13336SOL    HW241777   5.376   3.334   6.720  1.3133  0.4563 -0.1330
13337SOL     OW41778   6.500   7.371   6.607 -0.2621 -0.0727  0.0348
13337SOL    HW141779   6.514   7.341   6.697  2.8375 -0.1863 -0.3773
13337SOL    HW241780   6.456   7.298   6.564 -1.6590 -0.0726  1.4029
13338SOL     OW41781   7.013   1.174   0.473 -0.1821  0.3974 -0.0666
13338SOL    HW141782   6.954   1.248   0.459  1.5715  1.4626 -2.6716
13338SOL    HW241783   7.015   1.129   0.388  0.7536 -1.1695  0.7389
13339SOL     OW41784   1.756   7.143   5.015 -0.0808 -0.0394 -0.0331
13339SOL    HW141785   1.717   7.143   4.927 -0.0495  1.3357 -0.0583
13339SOL    HW241786   1.797   7.229   5.023  1.8338 -0.9599  0.5052
13340SOL     OW41787   7.689   2.161   9.662  0.9626  0.3120  0.2058
13340SOL    HW141788   7.732   2.078   9.639 -0.8479 -1.2516  2.1080
13340SOL    HW241789   7.599   2.137   9.681  0.5775  2.6100  1.6579
13341SOL     OW41790   1.993   2.916   4.601 -0.8507  0.6232  0.2778
13341SOL    HW141791   1.969   2.839   4.548  2.8242 -0.6616  0.2028
13341SOL    HW241792   1.943   2.904   4.682  0.1642 -2.4216  0.6124
13342SOL     OW41793   3.134   1.006   8.249  0.8054 -0.2176  0.2517
13342SOL    HW141794   3.209   1.064   8.264 -0.5234  1.4302  0.7646
13342SOL    HW241795   3.117   1.013   8.155  0.4155  0.5072  0.3789
13343SOL     OW41796   2.164   9.741   3.037  0.4105  0.3504  0.0894
13343SOL    HW141797   2.255   9.757   3.061 -0.0685  1.5205  1.2178
13343SOL    HW241798   2.115   9.751   3.118 -0.8399  0.7157 -0.6790
13344SOL     OW41799   7.353   8.439   7.826 -0.0996  0.4077 -0.1459
13344SOL    HW141800   7.357   8.386   7.906  0.0845  0.2869 -0.2350
13344SOL    HW241801   7.286   8.504   7.844  1.6079  1.9512  1.0718
13345SOL     OW41802   5.887   1.597   0.463  0.0565 -0.3329  0.4196
13345SOL    HW141803   5.952   1.637   0.406  0.2115  1.9391  2.0667
13345SOL    HW241804   5.829   1.548   0.404  1.2696  0.3814 -1.4295
13346SOL     OW41805   6.808   7.521   5.546  0.1359 -0.5834  0.1001
13346SOL    HW141806   6.727   7.568   5.523  0.3600 -0.6690 -0.9180
13346SOL    HW241807   6.788   7.477   5.628  0.0092  1.5419  1.2797
13347SOL     OW41808   3.661   7.439   0.606 -0.4712 -0.2146 -0.1403
13347SOL    HW141809   3.599   7.452   0.534 -0.2430 -2.5201 -0.8254
13347SOL    HW241810   3.712   7.520   0.608 -1.1651  0.3173 -1.8834
13348SOL     OW41811   1.258   9.619   3.466  0.4238  0.1437  0.0081
13348SOL    HW141812   1.185   9.568   3.502 -0.2729  1.7523  0.9928
13348SOL    HW241813   1.317   9.553   3.429  0.0888 -1.4933  2.1427
13349SOL     OW41814   7.024   3.271   2.891  0.0727  0.1246  0.1275
13349SOL    HW141815   7.009   3.302   2.980  0.0861 -0.5532  0.3693
13349SOL    HW241816   7.117   3.289   2.875 -0.1375  1.1000 -0.0997
13350SOL     OW41817   0.663   1.985   0.125 -0.7131  0.3132 -0.0816
13350SOL    HW141818   0.584   1.949   0.083 -1.0512  1.5758 -0.5612
13350SOL    HW241819   0.685   2.062   0.073  0.4711  0.3519  0.4471
13351SOL     OW41820   7.741   1.319   3.327  0.7163  0.1038 -0.3018
13351SOL    HW141821   7.743   1.242   3.269  2.9641 -0.5548  0.5700
13351SOL    HW241822   7.793   1.385   3.282  2.0125 -0.2233  0.6636
13352SOL     OW41823   1.744   0.288   9.840 -0.0289 -0.0683  0.1130
13352SOL    HW141824   1.693   0.346   9.898  2.6788 -0.7282  3.5109
13352SOL    HW241825   1.781   0.347   9.774 -1.7908  1.0778  0.0702
13353SOL     OW41826   1.845   8.109   2.936  0.4743  0.0910  0.1857
13353SOL    HW141827   1.776   8.135   2.998  1.5447  2.1502  0.6168
13353SOL    HW241828   1.830   8.165   2.860  1.9509  0.9684  0.5063
13354SOL     OW41829   1.754   2.177   6.533 -0.4308  0.0268  0.1513
13354SOL    HW141830   1.688   2.221   6.586 -1.1508 -1.4920  0.5749
13354SOL    HW241831   1.717   2.176   6.445 -2.2524 -3.0057  0.8093
13355SOL     OW41832   0.045   3.068   7.719  0.1531 -0.0916  0.3862
13355SOL    HW141833   0.108   2.998   7.708 -1.2356 -1.2593 -0.4263
13355SOL    HW241834  -0.035   3.025   7.749 -1.5039  0.7089 -2.4492
13356SOL     OW41835   3.187   0.118   5.589  0.2268 -0.4325 -0.2589
13356SOL    HW141836   3.214   0.030   5.562  0.9548 -0.6030  0.9100
13356SOL    HW241837   3.114   0.103   5.649 -0.4793 -0.1574 -1.0498
13357SOL     OW41838   8.812   3.555   1.615  0.3528 -0.1866  0.1055
13357SOL    HW141839   8.867   3.630   1.638  0.7616 -0.8147  1.3106
13357SOL    HW241840   8.751   3.547   1.688 -1.4564  0.5539 -1.2589
13358SOL     OW41841   8.816   9.018   2.446 -0.2342 -0.4854 -0.9452
13358SOL    HW141842   8.792   8.972   2.527 -2.7357  1.1126 -0.6468
13358SOL    HW241843   8.794   8.956   2.376  2.5038 -2.1144 -0.5041
13359SOL     OW41844   6.599   1.986   6.503 -0.2677  0.7912 -0.1696
13359SOL    HW141845   6.568   1.906   6.461 -0.4341  1.0709 -0.5913
13359SOL    HW241846   6.688   1.999   6.470 -1.0011  1.9528 -1.8571
13360SOL     OW41847   2.140   3.314   2.158 -0.1568  0.5271 -0.4328
13360SOL    HW141848   2.081   3.378   2.119 -0.1732  0.2932 -0.8020
13360SOL    HW241849   2.168   3.354   2.240  0.6506  1.4855 -1.1409
13361SOL     OW41850   2.784   1.665   5.458 -0.0736 -0.7763 -0.1773
13361SOL    HW141851   2.844   1.598   5.492 -0.6463 -0.7517  0.9261
13361SOL    HW241852   2.751   1.709   5.536  1.0432  1.4921 -0.8985
13362SOL     OW41853   9.421   4.230   5.829 -0.1374  0.6184 -0.0194
13362SOL    HW141854   9.451   4.318   5.806  0.1113  0.0607 -1.9902
13362SOL    HW241855   9.382   4.196   5.749  0.0557 -1.1810  0.6087
13363SOL     OW41856   4.442   7.003   0.284 -0.6489  0.3600 -0.0855
13363SOL    HW141857   4.524   7.029   0.242  1.0010 -0.4372  2.4162
13363SOL    HW241858   4.375   7.017   0.217  1.4863  1.1926 -2.1805
13364SOL     OW41859   0.803   6.062   1.513 -0.0464  0.1078  0.0482
13364SOL    HW141860   0.887   6.064   1.467  0.6041 -3.1916  0.8501
13364SOL    HW241861   0.740   6.036   1.446 -0.1028  0.6459 -0.1155
13365SOL     OW41862   4.485   6.995   3.710  0.3274 -0.1845  0.1375
13365SOL    HW141863   4.438   6.955   3.783 -0.1400  1.0887  0.5646
13365SOL    HW241864   4.555   7.046   3.752 -0.3624  1.1152 -0.2202
13366SOL     OW41865   0.947   1.574   7.661  0.0064  0.0356 -0.0207
13366SOL    HW141866   0.906   1.659   7.646 -2.9297 -1.3357 -0.3406
13366SOL    HW241867   0.927   1.553   7.752 -0.4402 -0.8733 -0.3163
13367SOL     OW41868   7.786   9.785   2.184 -0.0417  0.1930  0.0300
13367SOL    HW141869   7.768   9.845   2.112 -0.3884  0.1620  0.0876
13367SOL    HW241870   7.790   9.840   2.262 -0.1970  0.1603  0.0607
13368SOL     OW41871   6.794   5.634   5.024 -0.0082 -0.3214 -0.5857
13368SOL    HW141872   6.825   5.681   5.101  2.7020 -2.0616 -0.4730
13368SOL    HW241873   6.757   5.702   4.968  2.6654  1.8575  0.0511
13369SOL     OW41874   1.288   2.359   6.703 -0.4801  0.2979 -0.3172
13369SOL    HW141875   1.282   2.331   6.794 -0.6102  0.2337 -0.3452
13369SOL    HW241876   1.382   2.368   6.686 -0.4851  1.3831  0.1474
13370SOL     OW41877   9.055   1.294   7.936 -0.2938 -0.2988  0.3917
13370SOL    HW141878   9.040   1.387   7.920  0.0759 -0.2992  0.0096
13370SOL    HW241879   9.008   1.250   7.865  2.2096 -0.2613 -1.4068
13371SOL     OW41880   3.993   0.064   6.004 -0.1786  0.1083  0.3965
13371SOL    HW141881   3.969   0.037   6.092  1.0233  0.5927  0.8916
13371SOL    HW241882   4.023   0.154   6.013 -1.0564  0.5459 -0.6979
13372SOL     OW41883   2.122   6.482   6.298  0.0391 -0.1085  0.2623
13372SOL    HW141884   2.201   6.427   6.296  0.1332  0.0377 -0.5687
13372SOL    HW241885   2.075   6.454   6.376 -0.5770 -2.3050 -0.8224
13373SOL     OW41886   2.743   5.718   9.639 -0.4643  0.1352 -0.0051
13373SOL    HW141887   2.828   5.711   9.596 -0.7128  1.5294 -0.7668
13373SOL    HW241888   2.685   5.664   9.586 -0.0807 -0.8215  0.5169
13374SOL     OW41889   1.315   4.529   1.142 -0.0942 -0.5325 -0.6349
13374SOL    HW141890   1.403   4.501   1.167  0.3715  0.6264 -0.9141
13374SOL    HW241891   1.275   4.558   1.225  0.8176  1.6163 -0.8815
13375SOL     OW41892   6.369   5.347   5.459  0.2645 -0.3777 -0.6404
13375SOL    HW141893   6.322   5.324   5.379 -0.0750  0.5850 -0.7381
13375SOL    HW241894   6.361   5.443   5.464 -0.0045 -0.4541  0.7142
13376SOL     OW41895   0.346   6.755   4.054 -0.9606 -0.1975  0.5527
13376SOL    HW141896   0.411   6.691   4.084 -0.3694  0.5053  0.8151
13376SOL    HW241897   0.396   6.836   4.045 -1.6075  0.1242 -0.1962
13377SOL     OW41898   3.491   1.424   7.401 -0.1440  0.0110 -0.0074
13377SOL    HW141899   3.433   1.482   7.449  0.6741  0.8279  0.0275
13377SOL    HW241900   3.579   1.460   7.415  0.1539  0.1648 -1.9393
13378SOL     OW41901   8.720   1.365   4.762 -0.7514  0.1745  0.4562
13378SOL    HW141902   8.650   1.304   4.785 -0.2167 -1.4633 -1.9032
13378SOL    HW241903   8.801   1.318   4.786 -0.3663  0.7487  0.2982
13379SOL     OW41904   5.833   7.228   9.359 -0.4441 -0.0457  0.2591
13379SOL    HW141905   5.777   7.157   9.393  0.1283  0.0574  1.4609
13379SOL    HW241906   5.796   7.248   9.273 -1.7913 -0.4928  0.7088
13380SOL     OW41907   9.545   5.197   8.807 -0.1259 -0.1363  0.1728
13380SOL    HW141908   9.614   5.131   8.800  0.4236  0.4816 -0.4893
13380SOL    HW241909   9.524   5.218   8.716  0.2407  1.1277  0.3649
13381SOL     OW41910   8.454   2.535   6.652 -0.8807 -0.0904 -0.3637
13381SOL    HW141911   8.400   2.489   6.587 -0.2875 -1.1129 -0.1478
13381SOL    HW241912   8.503   2.599   6.601  1.4269 -2.4819 -1.4248
13382SOL     OW41913   9.219   6.620   3.417  0.2389  0.1565 -0.4090
13382SOL    HW141914   9.141   6.637   3.365  0.0723  1.8438  0.3138
13382SOL    HW241915   9.285   6.680   3.382  0.4297  0.5904  0.6377
13383SOL     OW41916   6.290   7.669   1.321 -0.2459 -0.2216  0.2929
13383SOL    HW141917   6.306   7.672   1.227 -0.6997  0.6876  0.2307
13383SOL    HW241918   6.205   7.627   1.330 -0.8813  0.9938  0.1871
13384SOL     OW41919   8.401   8.756   4.490 -0.3060  0.9777 -0.2064
13384SOL    HW141920   8.315   8.757   4.448 -0.3713 -0.1786 -0.1229
13384SOL    HW241921   8.390   8.697   4.565  0.1985  1.8813  0.6066
13385SOL     OW41922   7.570   2.229   1.098 -0.4591 -0.2543 -0.1219
13385SOL    HW141923   7.544   2.276   1.019  1.0060 -1.6186 -1.5064
13385SOL    HW241924   7.519   2.148   1.096 -0.2755 -0.3809  0.2318
13386SOL     OW41925   0.552   9.330   1.607  0.3817  1.1726  0.0829
13386SOL    HW141926   0.588   9.272   1.539  1.6715  1.0458  0.8355
13386SOL    HW241927   0.623   9.391   1.625  0.7066  0.1988  2.4515
13387SOL     OW41928   6.130   5.284   3.087  0.6118 -0.2694 -0.4184
13387SOL    HW141929   6.138   5.188   3.081 -0.8286 -0.3343 -2.1103
13387SOL    HW241930   6.035   5.299   3.091  0.7657  1.1352 -1.5809
13388SOL     OW41931   0.696   8.029   3.614  0.3122 -0.4397 -0.2531
13388SOL    HW141932   0.657   8.101   3.664 -0.4321  0.8068 -2.4660
13388SOL    HW241933   0.660   7.950   3.652 -1.8430  0.5495 -0.1110
13389SOL     OW41934   8.557   9.746   3.428  0.5349  0.3264  0.3570
13389SOL    HW141935   8.611   9.813   3.471 -0.5176  1.1597  0.4116
13389SOL    HW241936   8.482   9.795   3.394 -0.8125 -0.9847  1.3433
13390SOL     OW41937   1.733   9.383   8.969 -0.0330 -0.6521 -0.3362
13390SOL    HW141938   1.641   9.407   8.971 -0.1561 -1.1685  1.2808
13390SOL    HW241939   1.746   9.327   9.046  1.6585 -0.4745 -0.4436
13391SOL     OW41940   1.485   1.623   2.398  0.3705  0.6102  1.2621
13391SOL    HW141941   1.417   1.657   2.457  0.0922  1.8328  0.2636
13391SOL    HW241942   1.567   1.654   2.437  0.2012  1.2461  1.1215
13392SOL     OW41943   1.252   3.393   4.778  0.1107 -0.0642  0.7734
13392SOL    HW141944   1.232   3.469   4.723 -0.2305 -1.4459 -1.1043
13392SOL    HW241945   1.347   3.392   4.784  0.1179  0.5096  0.8207
13393SOL     OW41946   1.791   7.125   4.057  0.6468  0.2415  0.3559
13393SOL    HW141947   1.789   7.167   4.143  1.5732 -1.0301  1.0412
13393SOL    HW241948   1.782   7.032   4.077  0.6147 -0.0417 -0.9506
13394SOL     OW41949   0.945   3.317   0.955  0.7788 -0.1038 -0.1993
13394SOL    HW141950   1.031   3.293   0.921  0.5317  0.7493 -1.5050
13394SOL    HW241951   0.883   3.284   0.889  0.2403  1.0104 -0.2722
13395SOL     OW41952   7.110   5.810   1.265 -0.0213 -0.3531  0.1566
13395SOL    HW141953   7.104   5.853   1.350 -0.6724 -1.7722  0.8617
13395SOL    HW241954   7.040   5.745   1.266 -0.8084  0.3895 -1.9423
13396SOL     OW41955   2.672   1.093   0.973  0.6298 -0.3095  0.1578
13396SOL    HW141956   2.660   1.132   0.887  0.2844 -2.6548 -0.9538
13396SOL    HW241957   2.762   1.063   0.974  0.4747 -0.7877  0.3789
13397SOL     OW41958   9.309   4.139   5.603 -0.0416 -0.2171 -0.4492
13397SOL    HW141959   9.248   4.073   5.571 -2.2532  1.2601  0.4092
13397SOL    HW241960   9.301   4.211   5.540  1.4019 -0.2722 -0.7181
13398SOL     OW41961   8.794   9.455   2.608  0.2789  0.3577  0.3213
13398SOL    HW141962   8.863   9.519   2.626  1.4331 -0.1188 -1.9849
13398SOL    HW241963   8.842   9.378   2.576 -1.1360 -1.3186  2.0227
13399SOL     OW41964   6.494   2.726   9.531 -0.2795 -0.6063 -0.2257
13399SOL    HW141965   6.433   2.800   9.529  0.8381  0.3787  0.9239
13399SOL    HW241966   6.480   2.686   9.617  1.0946 -0.0018  0.3047
13400SOL     OW41967   6.834   5.526   4.402  0.6356 -0.7425  0.1491
13400SOL    HW141968   6.928   5.526   4.421  1.0493 -1.6865 -1.6339
13400SOL    HW241969   6.829   5.535   4.307 -1.1417  0.4494  0.2979
13401SOL     OW41970   9.784   8.084   1.725 -0.0720 -0.0826  0.6886
13401SOL    HW141971   9.823   8.092   1.638  0.0068  0.1566  0.7446
13401SOL    HW241972   9.851   8.040   1.778  0.7215  1.6167  1.1594
13402SOL     OW41973   3.613   4.086   0.898  0.1159  0.0288 -0.0431
13402SOL    HW141974   3.598   3.992   0.882  1.7429 -0.1572 -0.6722
13402SOL    HW241975   3.646   4.119   0.814 -0.8419  1.2867  0.0464
13403SOL     OW41976   8.190   4.660   6.878 -0.3514  0.4215  0.1565
13403SOL    HW141977   8.217   4.749   6.901 -0.2144  0.3127  0.4263
13403SOL    HW241978   8.268   4.607   6.894 -0.3289  0.3067 -0.3500
13404SOL     OW41979   2.457   4.956   6.310  0.0775 -0.6001  0.9003
13404SOL    HW141980   2.370   4.984   6.338 -0.7129 -3.7737  2.0328
13404SOL    HW241981   2.441   4.885   6.248  1.8854 -0.5418  0.2987
13405SOL     OW41982   1.104   9.510   7.929  0.6803 -0.1916  0.2785
13405SOL    HW141983   1.069   9.487   7.843  0.4717 -0.9754  0.5638
13405SOL    HW241984   1.107   9.606   7.929  0.0557 -0.1662 -0.3464
13406SOL     OW41985   6.160   0.755   9.179 -0.0021 -0.6175 -0.0772
13406SOL    HW141986   6.208   0.677   9.208 -0.3383 -1.1658 -0.9416
13406SOL    HW241987   6.225   0.826   9.184  0.6381 -1.1691 -0.3277
13407SOL     OW41988   7.421   2.022   6.764  0.0737 -0.1823  0.1980
13407SOL    HW141989   7.326   2.010   6.758  0.0636 -0.2261  0.4326
13407SOL    HW241990   7.435   2.058   6.852 -0.1968  4.2614 -1.3420
13408SOL     OW41991   9.036   7.795   3.949  0.6501 -0.1108  0.5701
13408SOL    HW141992   9.007   7.882   3.980  2.2559  0.0111  1.8470
13408SOL    HW241993   9.129   7.806   3.932  0.7078 -1.4086  0.0325
13409SOL     OW41994   8.792   1.262   2.970 -0.0719 -0.1515 -0.2502
13409SOL    HW141995   8.799   1.204   3.046  0.7765  1.1017  0.6730
13409SOL    HW241996   8.872   1.245   2.920 -0.8755 -1.3596 -1.1937
13410SOL     OW41997   5.407   3.662   6.499  0.3208 -0.0161  0.6927
13410SOL    HW141998   5.477   3.695   6.556  0.0865 -0.3747  1.1876
13410SOL    HW241999   5.437   3.576   6.472  0.5615  0.2647  0.0366
13411SOL     OW42000   1.355   0.500   9.757 -0.0168  0.4358 -0.4476
13411SOL    HW142001   1.352   0.585   9.799  0.2865  1.2153 -1.9398
13411SOL    HW242002   1.413   0.448   9.812 -1.9292  0.4473  1.6985
13412SOL     OW42003   2.245   0.870   2.605 -0.2829  0.3255  0.5198
13412SOL    HW142004   2.190   0.892   2.680 -1.2401 -1.4034  0.3699
13412SOL    HW242005   2.183   0.855   2.533  0.4386 -0.5808  0.0628
13413SOL     OW42006   9.118   8.553   7.896 -0.1420  0.3788 -0.1927
13413SOL    HW142007   9.109   8.647   7.913 -0.9026  0.3346 -0.3394
13413SOL    HW242008   9.212   8.541   7.879  0.3796  0.7269  2.0938
13414SOL     OW42009   8.783   8.591   1.199 -0.3110 -0.2616 -0.0677
13414SOL    HW142010   8.865   8.629   1.231 -0.2626 -0.5623  0.1713
13414SOL    HW242011   8.771   8.628   1.111  0.6425 -1.0593 -0.5460
13415SOL     OW42012   9.132   1.054   3.417 -0.2356 -0.1666 -0.0942
13415SOL    HW142013   9.075   0.988   3.377 -0.9721 -0.0003  0.6549
13415SOL    HW242014   9.160   1.109   3.344 -0.3418 -0.7540 -0.5947
13416SOL     OW42015   6.462   2.837   5.499 -0.4530 -0.0175  0.2288
13416SOL    HW142016   6.434   2.827   5.590 -1.2211  1.9834  0.2550
13416SOL    HW242017   6.483   2.929   5.491  1.3869 -0.5135 -1.1695
13417SOL     OW42018   3.702   6.479   5.469 -0.1934 -0.8621 -0.2796
13417SOL    HW142019   3.714   6.397   5.420  1.9646 -0.4975 -0.4645
13417SOL    HW242020   3.777   6.533   5.444 -1.3884  1.0871  0.0866
13418SOL     OW42021   5.201   4.091   1.098  0.2660 -0.3584  0.1583
13418SOL    HW142022   5.112   4.072   1.128  0.9805 -2.3388  1.2542
13418SOL    HW242023   5.190   4.128   1.010 -1.6464 -0.0803  0.4815
13419SOL     OW42024   2.095   2.938   6.224 -0.0228 -0.6774 -0.2675
13419SOL    HW142025   2.044   3.002   6.174  0.4085 -1.7890 -2.2517
13419SOL    HW242026   2.034   2.865   6.239  0.5475 -1.4488 -1.4999
13420SOL     OW42027   7.163   7.592   9.624 -0.2228 -0.6354  0.3502
13420SOL    HW142028   7.172   7.499   9.608 -0.7606 -1.0876  2.3437
13420SOL    HW242029   7.076   7.614   9.589 -0.7615 -1.2554  1.2418
13421SOL     OW42030   8.306   6.429   7.038 -0.6679 -0.1094  0.2292
13421SOL    HW142031   8.376   6.432   7.103 -0.5461 -0.2361  0.1027
13421SOL    HW242032   8.350   6.447   6.955 -0.5645 -1.5146 -0.0361
13422SOL     OW42033   2.882   5.084   6.954  0.5188  0.0791 -0.0695
13422SOL    HW142034   2.856   5.085   6.862  0.5888  1.5026 -0.1027
13422SOL    HW242035   2.973   5.113   6.954  0.0108  1.8130  0.5473
13423SOL     OW42036   8.446   1.828   9.393  0.2883  0.0764 -0.5087
13423SOL    HW142037   8.367   1.870   9.358  0.2641  0.1523 -0.3660
13423SOL    HW242038   8.443   1.739   9.360  2.2927  1.1383 -4.0483
13424SOL     OW42039   0.384   0.361   0.125  0.4050  0.2397  0.2870
13424SOL    HW142040   0.469   0.319   0.139  0.2474  0.0603  0.7010
13424SOL    HW242041   0.320   0.299   0.160 -0.0004 -0.2093 -1.1902
13425SOL     OW42042   7.389   2.490   1.326  0.0289  0.2030  0.1783
13425SOL    HW142043   7.436   2.517   1.405 -0.1259  1.0558 -0.0077
13425SOL    HW242044   7.311   2.444   1.359  1.1611 -1.6054  0.4823
13426SOL     OW42045   1.132   1.625   4.292 -0.2077  0.3293 -0.0134
13426SOL    HW142046   1.082   1.559   4.341 -3.0449  2.3605  0.0785
13426SOL    HW242047   1.204   1.649   4.351 -0.0065 -1.5273  0.5641
13427SOL     OW42048   5.391   5.174   2.151  0.1117  0.4102 -0.1015
13427SOL    HW142049   5.431   5.099   2.195  2.8984  2.2181  0.7326
13427SOL    HW242050   5.312   5.193   2.201  0.4018 -0.7763  0.8412
13428SOL     OW42051   3.867   1.512   2.265 -0.5303  0.0245 -0.5180
13428SOL    HW142052   3.934   1.493   2.331  0.4308  0.4480 -1.3662
13428SOL    HW242053   3.819   1.587   2.301  0.2123  0.4769 -0.4444
13429SOL     OW42054   1.127   4.843   8.102  0.4629  0.5301  0.6716
13429SOL    HW142055   1.110   4.811   8.014  0.7691  0.8626  0.4904
13429SOL    HW242056   1.048   4.890   8.127  0.3118  0.2954  0.6432
13430SOL     OW42057   0.563   3.219   3.056  0.1944  0.3275 -0.1898
13430SOL    HW142058   0.472   3.194   3.040  0.6821 -1.7361  0.0004
13430SOL    HW242059   0.574   3.212   3.150  0.2046  2.0418 -0.0194
13431SOL     OW42060   9.103   2.030   6.201  0.2433 -0.1084 -0.2900
13431SOL    HW142061   9.038   2.082   6.248 -0.6467 -2.7125  1.5669
13431SOL    HW242062   9.184   2.080   6.208 -0.6952  1.3242  0.8197
13432SOL     OW42063   7.135   7.551   7.830  0.1471  0.2151  0.0547
13432SOL    HW142064   7.186   7.630   7.810  0.5882  0.1606  0.8911
13432SOL    HW242065   7.059   7.556   7.772  1.3005  0.0854 -1.5686
13433SOL     OW42066   8.792   6.673   4.752 -0.2483  0.3904  0.1242
13433SOL    HW142067   8.756   6.631   4.831  0.7930 -0.2566  0.2741
13433SOL    HW242068   8.861   6.731   4.785 -0.3461  0.7179 -0.2458
13434SOL     OW42069   0.587   1.302   6.748  0.1883  0.1584  0.4689
13434SOL    HW142070   0.618   1.281   6.836  0.3782 -0.1179  0.3376
13434SOL    HW242071   0.574   1.397   6.749 -1.7991 -0.0662  1.4401
13435SOL     OW42072   3.501   5.081   9.818  0.0962 -0.0662 -0.1903
13435SOL    HW142073   3.516   5.149   9.884 -0.1993  0.1756 -0.3690
13435SOL    HW242074   3.444   5.123   9.754 -2.8716 -1.4346  1.3185
13436SOL     OW42075   0.805   5.132   9.721 -0.3757  0.1369  0.2995
13436SOL    HW142076   0.851   5.048   9.729  1.9158  1.3638  0.9177
13436SOL    HW242077   0.739   5.129   9.790 -0.0759 -1.0108  0.5650
13437SOL     OW42078   7.125   2.073   6.427 -0.2457  0.6354  0.2509
13437SOL    HW142079   7.197   2.019   6.458 -0.0630  0.2665 -0.7878
13437SOL    HW242080   7.140   2.159   6.467  0.9511  0.6594 -0.2207
13438SOL     OW42081   8.895   4.922   6.734 -0.1455  0.0545  0.4546
13438SOL    HW142082   8.886   4.921   6.639 -1.1528  0.2590  0.5374
13438SOL    HW242083   8.987   4.944   6.749 -0.0467  0.3069 -0.4698
13439SOL     OW42084   6.101   2.322   2.520  0.2283  0.0923  0.2869
13439SOL    HW142085   6.140   2.302   2.605  0.7302 -0.5727 -0.0881
13439SOL    HW242086   6.019   2.366   2.541  0.4344  0.0975  1.1137
13440SOL     OW42087   1.147   4.497   5.438 -0.4472 -0.1239  0.0874
13440SOL    HW142088   1.235   4.461   5.445 -0.6439 -0.5338  0.5353
13440SOL    HW242089   1.138   4.552   5.515 -0.7891 -0.5490  0.3563
13441SOL     OW42090   5.907   7.219   9.845 -0.1080 -0.5910  0.0037
13441SOL    HW142091   5.896   7.278   9.919 -0.0650 -1.1106  0.4356
13441SOL    HW242092   5.986   7.250   9.801 -0.9328  0.5932 -0.6723
13442SOL     OW42093   5.549   4.257   5.014  0.3307 -0.2760 -0.1382
13442SOL    HW142094   5.619   4.226   4.956  1.9999  1.2844  0.9549
13442SOL    HW242095   5.576   4.345   5.040 -3.1870  1.3757 -1.4560
13443SOL     OW42096   5.051   7.126   9.393 -0.2534  0.3182 -0.3824
13443SOL    HW142097   4.964   7.097   9.365  0.3207 -0.1142 -1.7890
13443SOL    HW242098   5.039   7.151   9.485 -1.5559 -1.0838 -0.1206
13444SOL     OW42099   2.258   9.818   1.727  0.0418  0.7422  0.0214
13444SOL    HW142100   2.182   9.854   1.681  0.2642  1.0299 -0.1271
13444SOL    HW242101   2.333   9.843   1.673  0.7761  4.4500  2.3052
13445SOL     OW42102   3.845   7.922   2.544 -0.0604 -0.7337  0.1001
13445SOL    HW142103   3.880   7.947   2.458  2.0460  0.3995  1.2059
13445SOL    HW242104   3.894   7.843   2.567  0.2684 -0.3544  0.7482
13446SOL     OW42105   8.365   3.665   9.711  0.3831  0.1960 -0.3181
13446SOL    HW142106   8.278   3.665   9.751  1.0121  1.0543  1.1303
13446SOL    HW242107   8.354   3.711   9.628 -0.5674  0.1389 -0.2291
13447SOL     OW42108   7.661   7.758   1.727  0.8798  0.3318  0.2123
13447SOL    HW142109   7.708   7.745   1.809  1.3748 -0.3595 -0.1692
13447SOL    HW242110   7.639   7.670   1.698 -0.2050  0.6242  0.1166
13448SOL     OW42111   0.393   1.985   1.059  0.0009  0.2830 -0.0012
13448SOL    HW142112   0.300   1.999   1.075 -0.2972 -1.6080  0.1866
13448SOL    HW242113   0.410   2.027   0.975 -1.1044  0.3974 -0.1795
13449SOL     OW42114   3.968   6.827   5.913  0.1039 -0.1765  0.5933
13449SOL    HW142115   3.924   6.801   5.994 -0.8904  1.8603  0.7593
13449SOL    HW242116   3.898   6.846   5.852  0.8450 -0.6949 -0.4556
13450SOL     OW42117   3.370   9.217   3.052 -0.3842  0.3285 -0.2973
13450SOL    HW142118   3.459   9.213   3.087 -0.3079 -0.9826 -0.5872
13450SOL    HW242119   3.314   9.233   3.128  0.0617  0.8503 -0.0730
13451SOL     OW42120   2.356   2.933   6.206  0.2268 -0.6590  0.4900
13451SOL    HW142121   2.266   2.948   6.237  0.5648 -1.2508  1.8267
13451SOL    HW242122   2.349   2.939   6.111 -1.3354 -1.1871  0.5303
13452SOL     OW42123   8.313   1.877   3.705  0.2140 -0.7914  0.5363
13452SOL    HW142124   8.365   1.880   3.785 -2.0668 -1.4835  2.1243
13452SOL    HW242125   8.328   1.790   3.670  0.4063 -0.8541  0.7697
13453SOL     OW42126   2.311   4.546   7.124  0.1927  0.2272 -0.0288
13453SOL    HW142127   2.314   4.477   7.059 -0.1203  0.7203 -0.5803
13453SOL    HW242128   2.224   4.585   7.114  0.0435  0.1399  0.8650
13454SOL     OW42129   6.376   0.786   6.211 -0.1138  0.0644  0.3189
13454SOL    HW142130   6.388   0.724   6.139 -0.9510 -1.1037  1.1429
13454SOL    HW242131   6.434   0.754   6.280 -0.9823 -0.1934  0.9636
13455SOL     OW42132   4.315   7.756   7.282  0.0126 -0.0383 -0.7008
13455SOL    HW142133   4.244   7.787   7.225  0.9083  1.0442 -1.2913
13455SOL    HW242134   4.393   7.762   7.227  0.4007 -2.4796 -0.4940
13456SOL     OW42135   9.204   2.021   5.141 -0.2432 -0.1901 -0.0017
13456SOL    HW142136   9.203   2.000   5.048 -0.7198  0.7440 -0.2209
13456SOL    HW242137   9.112   2.035   5.163 -0.0140  0.9935  0.2656
13457SOL     OW42138   6.530   1.745   6.397 -0.3430  0.2964  0.1698
13457SOL    HW142139   6.455   1.762   6.339 -0.3474 -0.1610  0.0349
13457SOL    HW242140   6.566   1.662   6.365  0.5031  0.7421 -0.0528
13458SOL     OW42141   9.140   6.190   1.189  0.1213  0.3732  0.2930
13458SOL    HW142142   9.114   6.281   1.200 -1.3456 -0.1745  1.9946
13458SOL    HW242143   9.219   6.181   1.243 -0.7901  0.2603  1.6686
13459SOL     OW42144   4.362   5.932   6.926  0.1796  0.4196 -0.0493
13459SOL    HW142145   4.315   6.002   6.879 -2.3179 -0.4202  1.0561
13459SOL    HW242146   4.350   5.855   6.870  0.3355  0.2225  0.1926
13460SOL     OW42147   0.855   4.414   8.959  0.0532 -0.4342  0.2106
13460SOL    HW142148   0.799   4.492   8.947 -0.7159 -0.5662  2.4820
13460SOL    HW242149   0.941   4.441   8.928 -0.6999  0.6054 -1.0543
13461SOL     OW42150   9.228   7.491   8.792 -0.0805  0.2548 -0.1700
13461SOL    HW142151   9.260   7.575   8.823  1.8493 -0.4350 -0.1534
13461SOL    HW242152   9.258   7.428   8.857 -2.0648 -0.4247  0.1739
13462SOL     OW42153   3.409   0.031   3.649  0.1138  0.0038 -0.0622
13462SOL    HW142154   3.388  -0.044   3.594 -0.8939  1.0137 -1.1015
13462SOL    HW242155   3.456  -0.006   3.723 -1.8080 -1.8656  0.3007
13463SOL     OW42156   4.891   7.638   8.642 -0.3189  0.4055 -0.0875
13463SOL    HW142157   4.917   7.546   8.641  0.7314  0.6430  1.6339
13463SOL    HW242158   4.816   7.641   8.702  0.9443  0.9285  1.5436
13464SOL     OW42159   1.122   5.447   7.801  0.4696 -0.4390 -0.0516
13464SOL    HW142160   1.158   5.359   7.806  0.2597 -0.5123  0.1729
13464SOL    HW242161   1.198   5.503   7.786  0.8356 -0.4669  1.4926
13465SOL     OW42162   5.702   6.255   5.824  0.2439  0.2268  0.6607
13465SOL    HW142163   5.655   6.338   5.835  1.5631  1.3131 -1.3003
13465SOL    HW242164   5.704   6.241   5.730  4.1077  0.4675  0.5519
13466SOL     OW42165   6.288   8.691   8.530  0.0632 -0.0677 -0.0307
13466SOL    HW142166   6.275   8.620   8.594 -1.7714  0.1288 -0.1387
13466SOL    HW242167   6.319   8.647   8.451  0.8682 -0.4957  0.5104
13467SOL     OW42168   3.813   2.341   4.908 -0.4772 -0.3865 -0.3447
13467SOL    HW142169   3.861   2.364   4.987  0.5225  0.4524 -1.1759
13467SOL    HW242170   3.722   2.329   4.938 -0.0375 -0.5735  0.9952
13468SOL     OW42171   1.994   4.435   4.571  0.2473 -0.4108 -0.1269
13468SOL    HW142172   1.933   4.369   4.603 -0.0488  1.0286  2.5491
13468SOL    HW242173   1.942   4.487   4.509 -0.7506 -0.2871  0.7828
13469SOL     OW42174   0.177   6.594   4.767 -0.1132  0.2291 -0.0425
13469SOL    HW142175   0.241   6.558   4.705  2.6661  0.3088  2.5262
13469SOL    HW242176   0.209   6.567   4.853 -1.6366  3.1994  1.6224
13470SOL     OW42177   8.966   7.040   4.343 -0.8877  0.1363  0.2204
13470SOL    HW142178   9.041   7.081   4.387 -0.9571 -1.4358  1.9070
13470SOL    HW242179   8.949   7.096   4.267  3.0886 -0.3573 -1.2709
13471SOL     OW42180   7.714   0.867   3.167 -0.5192  0.5938  0.1532
13471SOL    HW142181   7.641   0.808   3.184 -0.8877  0.9056 -0.3091
13471SOL    HW242182   7.758   0.829   3.091 -0.5948  0.7558  0.0256
13472SOL     OW42183   1.072   0.733   6.681  0.0500  0.5528  0.3743
13472SOL    HW142184   0.989   0.705   6.720  0.0535  0.9704  0.6990
13472SOL    HW242185   1.056   0.733   6.587 -0.6911  1.7013  0.4673
13473SOL     OW42186   7.209   7.265   8.348  0.1602 -0.1146 -0.5060
13473SOL    HW142187   7.116   7.287   8.338 -0.4909 -1.4117  1.9716
13473SOL    HW242188   7.210   7.193   8.411  2.8802 -0.1418 -0.4731
13474SOL     OW42189   4.554   3.311   2.676  0.3187  0.1726 -0.1074
13474SOL    HW142190   4.566   3.390   2.728  0.4451 -0.7828  1.3547
13474SOL    HW242191   4.503   3.339   2.600 -0.8236  1.3820  1.0777
13475SOL     OW42192   3.728   7.613   0.263  0.0059 -0.3161  0.0890
13475SOL    HW142193   3.710   7.520   0.256 -1.4746 -0.1012  0.6483
13475SOL    HW242194   3.648   7.656   0.234  1.1899  0.8338 -1.6636
13476SOL     OW42195   5.865   0.424   5.866 -0.3859  0.8330 -0.3849
13476SOL    HW142196   5.947   0.455   5.827  1.1595  0.3866  2.2881
13476SOL    HW242197   5.824   0.371   5.796  2.7820 -0.9391 -1.0943
13477SOL     OW42198   8.322   3.392   5.139  0.5396  0.1216  0.5101
13477SOL    HW142199   8.315   3.486   5.118  1.6602 -0.0350 -0.7150
13477SOL    HW242200   8.234   3.367   5.168 -0.5189  0.9716 -1.7336
13478SOL     OW42201   6.809   3.535   0.281 -0.1738  0.0077  0.3716
13478SOL    HW142202   6.897   3.515   0.248  0.2820  2.0124  0.2627
13478SOL    HW242203   6.804   3.491   0.366  1.0821  0.2009  0.5551
13479SOL     OW42204   4.900   3.741   7.371 -0.0948  0.4686  0.2070
13479SOL    HW142205   4.839   3.814   7.383  0.0370  0.6227 -0.0467
13479SOL    HW242206   4.901   3.725   7.277 -0.1873  0.0790  0.2697
13480SOL     OW42207   1.580   3.999   5.456  0.6601  0.0046  0.0105
13480SOL    HW142208   1.576   4.027   5.364  0.9785  1.4157  0.4022
13480SOL    HW242209   1.668   4.025   5.484  0.5526 -0.3963  0.7252
13481SOL     OW42210   3.957   9.117   2.967  0.2719  0.1455  0.6453
13481SOL    HW142211   4.000   9.194   2.931  1.3091 -0.9092 -0.4434
13481SOL    HW242212   4.028   9.063   3.000 -0.3369 -0.9134  0.2657
13482SOL     OW42213   0.356   7.307   6.106  0.2426  0.0381 -0.2501
13482SOL    HW142214   0.440   7.276   6.140  0.4537  1.8473  0.9856
13482SOL    HW242215   0.311   7.345   6.181 -0.9849  0.6150 -1.2248
13483SOL     OW42216   1.147   4.066   3.758  0.2005  0.2971 -0.2824
13483SOL    HW142217   1.053   4.059   3.743  0.3417  1.0922 -1.6600
13483SOL    HW242218   1.160   4.023   3.843 -1.3732  0.0668 -0.1160
13484SOL     OW42219   1.046   5.513   2.401  0.0097  0.1264 -0.6223
13484SOL    HW142220   1.115   5.448   2.390  0.0139 -0.2760  1.4425
13484SOL    HW242221   0.997   5.510   2.318 -0.4224 -3.0334 -0.3888
13485SOL     OW42222   9.347   1.220   8.872 -0.1363  0.1622 -0.3863
13485SOL    HW142223   9.277   1.169   8.914 -0.1618 -0.0309 -0.6581
13485SOL    HW242224   9.363   1.175   8.789  1.8780 -1.1378  0.6351
13486SOL     OW42225   9.756   7.025   1.817 -0.0864  0.1516  0.0494
13486SOL    HW142226   9.717   7.039   1.903 -0.0449  0.4146  0.0257
13486SOL    HW242227   9.801   6.941   1.824 -1.3549 -0.5784 -0.1670
13487SOL     OW42228   5.360   5.467   1.376  0.4205 -1.1640 -0.5934
13487SOL    HW142229   5.351   5.408   1.451  1.0212 -1.8981 -1.0810
13487SOL    HW242230   5.453   5.463   1.354  0.2321 -1.0479 -1.4450
13488SOL     OW42231   5.091   7.472   8.465  0.4382  0.8725  0.2644
13488SOL    HW142232   5.145   7.496   8.540 -1.8095  1.2694  1.8634
13488SOL    HW242233   5.086   7.552   8.413 -1.3077  1.9073  1.9072
13489SOL     OW42234   9.101   6.751   1.264 -0.5698  0.0452 -0.0463
13489SOL    HW142235   9.129   6.835   1.300 -0.3437 -0.2787  0.5379
13489SOL    HW242236   9.053   6.709   1.335  2.0563 -1.7127  0.8327
13490SOL     OW42237   2.054   3.996   5.644 -0.4117  0.3898 -0.5194
13490SOL    HW142238   2.094   3.909   5.657 -2.3875 -0.5247 -0.1606
13490SOL    HW242239   1.987   3.981   5.578  0.1789  1.9967 -1.5146
13491SOL     OW42240   8.036   8.338   3.582  0.1761 -0.6228 -0.6183
13491SOL    HW142241   8.067   8.408   3.525 -0.0239  0.0775  0.1187
13491SOL    HW242242   7.977   8.381   3.644  0.8205 -1.2501  0.4802
13492SOL     OW42243   4.327   4.469   3.610  0.5110 -0.1806  0.0708
13492SOL    HW142244   4.408   4.470   3.661  2.1043 -3.2994 -2.0260
13492SOL    HW242245   4.260   4.438   3.671  1.9884 -2.2145  0.7781
13493SOL     OW42246   2.401   5.581   7.225  0.0038  0.7681  0.6599
13493SOL    HW142247   2.457   5.592   7.302 -0.3230 -0.1982  1.0468
13493SOL    HW242248   2.430   5.499   7.186 -1.2736  0.1404  0.9899
13494SOL     OW42249   3.821   7.900   5.946 -0.2120 -0.3175  0.2652
13494SOL    HW142250   3.750   7.957   5.974 -0.8858 -0.6792 -0.6342
13494SOL    HW242251   3.899   7.937   5.986 -0.4055  2.0835 -1.3801
13495SOL     OW42252   0.542   7.303   7.655  0.0803  0.0975 -0.0728
13495SOL    HW142253   0.481   7.378   7.653  0.0369  0.0681  0.2140
13495SOL    HW242254   0.629   7.343   7.658  0.1407  0.1611 -1.7036
13496SOL     OW42255   1.544   4.167   4.742 -0.0014 -0.2446 -0.4626
13496SOL    HW142256   1.473   4.104   4.757  0.8648 -1.5232 -1.5146
13496SOL    HW242257   1.539   4.185   4.648  0.5811  0.2556 -0.3964
13497SOL     OW42258   8.712   6.579   3.628 -0.2996 -0.6889 -0.4574
13497SOL    HW142259   8.747   6.492   3.650 -0.7288 -0.8011 -0.2107
13497SOL    HW242260   8.737   6.592   3.537  1.7834 -0.0897  0.1454
13498SOL     OW42261   3.998   9.359   1.045 -0.2595 -0.3999 -0.0010
13498SOL    HW142262   4.022   9.269   1.021 -0.8965 -0.2103 -1.4170
13498SOL    HW242263   3.904   9.364   1.026  0.2130  1.2641 -2.2595
13499SOL     OW42264   2.612   6.966   7.407  0.4338 -0.1992 -0.2209
13499SOL    HW142265   2.525   6.946   7.374 -0.5411  1.1164  1.3896
13499SOL    HW242266   2.645   6.882   7.440 -0.7069 -0.5119  0.1833
13500SOL     OW42267   7.992   7.569   1.163 -0.5510 -0.1034  0.0983
13500SOL    HW142268   8.001   7.559   1.258  0.0347 -0.5364  0.0090
13500SOL    HW242269   7.932   7.642   1.151  0.1683  0.6235  0.8031
13501SOL     OW42270   3.784   5.977   0.423 -0.4800  0.0185 -0.6722
13501SOL    HW142271   3.735   6.022   0.492 -0.4640  0.6163 -1.0413
13501SOL    HW242272   3.806   6.046   0.360  1.0395 -0.1873 -0.4054
13502SOL     OW42273   7.179   4.738   0.666 -0.3133 -0.0959 -0.5031
13502SOL    HW142274   7.200   4.787   0.746  0.3595 -1.3172  0.0875
13502SOL    HW242275   7.083   4.735   0.664 -0.3418 -1.2639  1.0395
13503SOL     OW42276   1.245   4.627   1.425  0.1773  0.4526  0.3464
13503SOL    HW142277   1.191   4.650   1.501  1.7091  0.8462  1.3627
13503SOL    HW242278   1.304   4.702   1.414 -0.8746  1.0299 -2.1123
13504SOL     OW42279   3.879   6.288   1.445 -0.4062 -0.0842 -0.3040
13504SOL    HW142280   3.904   6.380   1.441 -0.8360  0.0385 -4.0686
13504SOL    HW242281   3.785   6.288   1.427 -0.8060 -1.2443  1.4412
13505SOL     OW42282   4.835   6.111   0.961 -0.3051 -0.1487  0.6047
13505SOL    HW142283   4.873   6.080   1.043 -0.6169 -1.5704  0.2449
13505SOL    HW242284   4.849   6.206   0.962  2.4679 -0.4849  0.8757
13506SOL     OW42285   5.202   9.150   8.455 -0.4075 -0.5746 -0.0742
13506SOL    HW142286   5.189   9.058   8.477 -0.0827 -0.7429 -0.5679
13506SOL    HW242287   5.297   9.160   8.445 -0.5239 -0.5003 -1.3096
13507SOL     OW42288   0.211   5.137   6.870 -0.1008 -0.0047 -0.2445
13507SOL    HW142289   0.285   5.196   6.882 -1.3605  1.2827  1.8823
13507SOL    HW242290   0.241   5.073   6.805  3.1763 -0.0766  1.1579
13508SOL     OW42291   4.539   3.994   8.339  0.1712 -0.0910  0.4701
13508SOL    HW142292   4.516   3.970   8.429 -0.2731  0.0486  0.3999
13508SOL    HW242293   4.457   3.983   8.290 -0.0259  1.3789  0.4067
13509SOL     OW42294   7.899   5.875   9.669  0.2514  0.4706 -0.4588
13509SOL    HW142295   7.932   5.929   9.597 -1.6415  1.9335 -0.3148
13509SOL    HW242296   7.857   5.938   9.728 -1.4013 -1.0866  0.1075
13510SOL     OW42297   3.243   4.346   8.079 -0.1281 -0.0625  0.4161
13510SOL    HW142298   3.161   4.387   8.050 -0.8643 -0.3195  2.0173
13510SOL    HW242299   3.310   4.412   8.063 -0.5521 -0.0033 -1.3214
13511SOL     OW42300   1.519   4.426   2.663  0.7493  0.0759 -0.3427
13511SOL    HW142301   1.608   4.421   2.628  0.9804 -2.4527  0.4253
13511SOL    HW242302   1.481   4.503   2.620  2.7127  0.1814 -2.0634
13512SOL     OW42303   8.234   3.337   2.136 -0.0672 -0.4767  0.2757
13512SOL    HW142304   8.162   3.294   2.089  0.0985  0.2759 -0.7147
13512SOL    HW242305   8.200   3.353   2.224 -1.3705  0.4350 -0.3573
13513SOL     OW42306   6.939   9.547   7.510  0.3105  0.4182  0.1542
13513SOL    HW142307   7.033   9.539   7.527  0.4337  1.2560 -0.0817
13513SOL    HW242308   6.922   9.641   7.509 -0.4519  0.2909 -0.2399
13514SOL     OW42309   2.706   6.579   4.349 -0.2417 -0.2807 -0.2999
13514SOL    HW142310   2.749   6.657   4.312  1.7590 -0.4803  1.3850
13514SOL    HW242311   2.628   6.613   4.393  1.0805  1.0168  1.2238
13515SOL     OW42312   3.999   5.228   2.572  0.0810  0.2672  0.2331
13515SOL    HW142313   4.041   5.190   2.649 -0.3634 -2.0536 -0.6059
13515SOL    HW242314   4.048   5.309   2.556  1.9080 -0.5323  1.3941
13516SOL     OW42315   9.515   6.374   0.506 -0.1518  0.9229  0.3801
13516SOL    HW142316   9.538   6.463   0.478  2.8931  0.9527  2.4150
13516SOL    HW242317   9.440   6.386   0.564  0.8927  2.3844  1.5029
13517SOL     OW42318   4.972   2.621   7.047  0.1534 -0.2346  0.1514
13517SOL    HW142319   4.936   2.553   6.991  0.3867 -1.3369  1.2933
13517SOL    HW242320   5.062   2.633   7.016 -0.4481  0.9284 -1.2564
13518SOL     OW42321   9.243   2.108   5.667  0.2045 -0.1715  0.2203
13518SOL    HW142322   9.176   2.175   5.654  1.9588  1.7832  0.6940
13518SOL    HW242323   9.249   2.098   5.762 -0.0240 -0.9840  0.1519
13519SOL     OW42324   1.088   8.720   0.595  0.8072 -0.0629  0.2728
13519SOL    HW142325   1.068   8.763   0.679 -0.6590  0.8432 -0.5016
13519SOL    HW242326   1.095   8.792   0.532  2.0568 -0.7225 -0.3876
13520SOL     OW42327   1.444   6.225   4.616  0.2637  0.2426 -0.1391
13520SOL    HW142328   1.397   6.169   4.678  0.8889 -0.7111 -0.5087
13520SOL    HW242329   1.375   6.273   4.570 -0.2900 -0.3448  0.0739
13521SOL     OW42330   2.022   1.794   4.414  0.4992 -0.8686  0.4169
13521SOL    HW142331   2.071   1.875   4.400 -0.1585 -0.7425 -1.4471
13521SOL    HW242332   2.010   1.789   4.508  1.5818  0.5883  0.6615
13522SOL     OW42333   3.524   0.300   8.134  0.4585  0.4266 -0.5898
13522SOL    HW142334   3.455   0.244   8.099  0.4601  0.1434 -0.1467
13522SOL    HW242335   3.581   0.318   8.059  0.9531 -0.8920 -0.5626
13523SOL     OW42336   3.784   1.867   4.529  0.5198  0.2193 -0.4001
13523SOL    HW142337   3.698   1.862   4.571  1.3977  1.3456  1.6791
13523SOL    HW242338   3.767   1.912   4.446 -1.1450 -1.3399 -1.0065
13524SOL     OW42339   0.112   0.207   5.474 -0.3016  0.0287 -0.3839
13524SOL    HW142340   0.180   0.237   5.533  0.5372  0.0710 -1.3483
13524SOL    HW242341   0.040   0.270   5.488 -0.1115  0.0544  0.5472
13525SOL     OW42342   7.672   8.954   4.336 -0.1857 -0.1576 -0.2216
13525SOL    HW142343   7.674   8.882   4.272 -0.4374  0.7443 -1.2678
13525SOL    HW242344   7.764   8.972   4.354 -0.1139 -0.4864 -0.2459
13526SOL     OW42345   3.858   3.694   3.314  0.7994 -1.0437 -0.3149
13526SOL    HW142346   3.901   3.768   3.357  2.0051 -0.7217 -1.9803
13526SOL    HW242347   3.926   3.627   3.308 -0.5683 -2.8133  2.1754
13527SOL     OW42348   7.893   9.208   0.678  0.0179 -0.7431  0.2261
13527SOL    HW142349   7.985   9.227   0.659 -0.4919  0.6352 -1.0443
13527SOL    HW242350   7.879   9.241   0.766  0.2917  0.8070 -0.2832
13528SOL     OW42351   2.077   7.708   2.969 -0.4884  0.1472 -0.0203
13528SOL    HW142352   1.985   7.734   2.979 -0.1175  2.0428 -1.1398
13528SOL    HW242353   2.120   7.740   3.048 -0.0655  3.0644 -1.3156
13529SOL     OW42354   1.688   2.767   6.325  0.0401  0.0694 -0.0137
13529SOL    HW142355   1.594   2.765   6.308 -0.2003 -1.9017  1.2079
13529SOL    HW242356   1.703   2.851   6.369 -1.7952 -0.9219  2.7843
13530SOL     OW42357   6.681   4.999   5.278 -0.4096  0.5496 -0.2167
13530SOL    HW142358   6.701   4.980   5.369 -2.5909  0.4280  0.2841
13530SOL    HW242359   6.655   5.091   5.278 -0.4157  0.5529 -0.7277
13531SOL     OW42360   9.168   4.010   2.596  0.0349  0.3639 -0.5018
13531SOL    HW142361   9.170   3.981   2.688  0.5161  3.3260  0.5248
13531SOL    HW242362   9.231   3.953   2.552  1.2299  0.0894  1.4342
13532SOL     OW42363   5.060   7.796   1.489 -0.3238 -0.3391  0.4451
13532SOL    HW142364   5.079   7.878   1.445  0.9220 -2.3100 -3.1091
13532SOL    HW242365   5.144   7.768   1.526 -0.4617 -0.6070  0.5632
13533SOL     OW42366   2.610   0.155   9.547  0.7109  0.4110 -0.0238
13533SOL    HW142367   2.658   0.215   9.490  0.2390  1.2127  0.4010
13533SOL    HW242368   2.619   0.069   9.505  1.8552  0.6771 -0.3533
13534SOL     OW42369   6.458   8.418   8.911  0.5339 -0.0534 -0.5404
13534SOL    HW142370   6.406   8.399   8.833  0.3646  2.6477 -1.1548
13534SOL    HW242371   6.514   8.340   8.921 -1.6315 -1.8527 -1.4427
13535SOL     OW42372   0.249   1.231   5.557 -0.3432  0.2895  0.0293
13535SOL    HW142373   0.193   1.245   5.480  1.2850 -0.2201 -1.2917
13535SOL    HW242374   0.257   1.136   5.564  0.6240  0.3651  0.0052
13536SOL     OW42375   6.718   7.920   0.283 -0.3450 -0.3015  0.0010
13536SOL    HW142376   6.698   7.849   0.345  0.6400  0.2140  0.9194
13536SOL    HW242377   6.808   7.904   0.256 -0.6486 -0.3231 -1.0755
13537SOL     OW42378   1.372   3.620   7.433  0.1595 -0.0857 -0.1412
13537SOL    HW142379   1.314   3.602   7.507  0.3635 -1.2504 -0.2604
13537SOL    HW242380   1.317   3.670   7.372 -0.4913 -0.5185  0.0797
13538SOL     OW42381   9.249   3.578   8.304  0.0365 -0.1844  0.7128
13538SOL    HW142382   9.165   3.591   8.260  1.0460 -0.8575 -1.5194
13538SOL    HW242383   9.241   3.630   8.384 -2.5454 -0.3527  0.6539
13539SOL     OW42384   2.535   1.511   0.425  0.4740 -0.2431 -0.6775
13539SOL    HW142385   2.562   1.570   0.354  0.7620  0.3149 -0.1200
13539SOL    HW242386   2.618   1.483   0.465  0.2770  0.9967  0.6666
13540SOL     OW42387   1.466   7.993   6.900  0.3591 -0.1360  0.0396
13540SOL    HW142388   1.415   7.938   6.960  0.4298  1.4409  1.6122
13540SOL    HW242389   1.408   8.067   6.881  0.1578 -0.8023 -2.2659
13541SOL     OW42390   6.803   5.398   0.512  0.3951 -0.2372  0.6723
13541SOL    HW142391   6.856   5.325   0.543  1.3461  0.5808  1.0143
13541SOL    HW242392   6.725   5.396   0.567 -0.5503 -2.1570 -0.5934
13542SOL     OW42393   0.716   0.457   5.768 -0.1212 -0.5791 -0.8892
13542SOL    HW142394   0.697   0.535   5.716 -0.5711  0.4038  0.6723
13542SOL    HW242395   0.634   0.437   5.812  0.7780  0.0580  1.2331
13543SOL     OW42396   9.619   2.683   9.133 -0.7567 -0.2043  0.4718
13543SOL    HW142397   9.631   2.616   9.066 -1.1380 -0.1151  0.3117
13543SOL    HW242398   9.595   2.634   9.212  1.9971 -0.5327  1.2129
13544SOL     OW42399   2.960   3.638   4.569  0.5328  0.0091 -0.0932
13544SOL    HW142400   2.953   3.721   4.618  2.1391  0.5775 -0.7506
13544SOL    HW242401   2.881   3.635   4.515  0.4710  1.1518 -0.0958
13545SOL     OW42402   5.360   4.500   6.858  0.3588  0.8415 -0.4041
13545SOL    HW142403   5.346   4.536   6.770  0.0612 -0.4146 -0.8909
13545SOL    HW242404   5.388   4.410   6.843 -0.0456  0.4934  0.8008
13546SOL     OW42405   5.731   6.220   5.565  0.0653 -0.1203 -0.1754
13546SOL    HW142406   5.817   6.198   5.527 -0.6027 -0.3733 -1.5992
13546SOL    HW242407   5.669   6.167   5.515 -0.9275 -0.0093  0.9035
13547SOL     OW42408   9.784   7.860   1.263 -0.0053 -0.1158  0.4780
13547SOL    HW142409   9.755   7.800   1.332 -0.0320 -0.3789  0.2407
13547SOL    HW242410   9.706   7.874   1.209  0.1842 -0.4476  0.1141
13548SOL     OW42411   9.226   0.496   0.313 -0.0528  0.3097 -0.3366
13548SOL    HW142412   9.252   0.453   0.231  0.0996 -1.9906  0.8409
13548SOL    HW242413   9.297   0.475   0.374 -0.6567  1.0912  0.6596
13549SOL     OW42414   0.485   8.279   5.092 -0.2209 -0.0177 -0.2982
13549SOL    HW142415   0.554   8.305   5.032 -0.0019 -1.1948 -0.5790
13549SOL    HW242416   0.481   8.184   5.085  0.5860 -0.3324  2.3746
13550SOL     OW42417   1.835   5.217   1.795  0.3853 -0.0705 -0.4704
13550SOL    HW142418   1.860   5.195   1.705 -1.1199 -2.0380 -0.4709
13550SOL    HW242419   1.801   5.306   1.789  1.2435  0.2048 -1.6450
13551SOL     OW42420   3.357   8.050   5.475  0.5740  0.4603 -0.5308
13551SOL    HW142421   3.437   8.046   5.421  0.7972  0.0208 -0.1704
13551SOL    HW242422   3.389   8.050   5.565  0.1352 -0.6376 -0.3671
13552SOL     OW42423   3.827   6.126   2.865  0.5713 -0.4553  0.0175
13552SOL    HW142424   3.770   6.201   2.848  0.7608 -0.0931  0.9260
13552SOL    HW242425   3.825   6.116   2.960  0.9992 -1.2531 -0.0510
13553SOL     OW42426   7.212   3.571   3.019  0.2322 -0.2719 -0.1880
13553SOL    HW142427   7.212   3.598   3.111 -1.1720 -2.2106  0.4633
13553SOL    HW242428   7.122   3.588   2.989  0.3345 -0.8105 -0.8283
13554SOL     OW42429   2.594   8.319   4.463  0.3901 -0.2054  0.0550
13554SOL    HW142430   2.657   8.390   4.451  0.0340 -0.0713 -1.1694
13554SOL    HW242431   2.523   8.339   4.402 -0.2547 -1.0124  0.5144
13555SOL     OW42432   0.506   7.983   0.988  0.4230 -0.0555  0.0258
13555SOL    HW142433   0.490   7.920   0.918  1.9446 -0.3038 -0.1361
13555SOL    HW242434   0.481   7.938   1.068  0.6443 -0.5478 -0.1781
13556SOL     OW42435   2.719   8.511   8.638 -0.3427  0.1317 -0.5883
13556SOL    HW142436   2.653   8.485   8.701  1.4056 -2.1469  0.4434
13556SOL    HW242437   2.678   8.497   8.553 -1.1096 -1.4624  0.0221
13557SOL     OW42438   4.497   2.449   7.201 -0.2028  0.0695  0.1420
13557SOL    HW142439   4.488   2.383   7.269 -0.5133 -0.5918 -0.5327
13557SOL    HW242440   4.510   2.400   7.120 -0.4469  0.8292 -0.3760
13558SOL     OW42441   5.418   8.544   5.531 -0.1888  0.2853  0.8787
13558SOL    HW142442   5.403   8.583   5.444  1.4450 -2.3361 -0.7168
13558SOL    HW242443   5.467   8.610   5.579 -0.5416  1.5458 -0.4149
13559SOL     OW42444   1.797   6.511   4.756 -0.0356 -0.2014 -0.0091
13559SOL    HW142445   1.862   6.565   4.800 -0.2253 -0.4303  0.5592
13559SOL    HW242446   1.849   6.447   4.707  0.2464  1.4800 -2.0420
13560SOL     OW42447   6.001   4.005   1.902  0.3578 -0.2483 -0.3558
13560SOL    HW142448   5.948   3.931   1.871  0.9810 -0.0013 -2.1429
13560SOL    HW242449   5.940   4.079   1.901 -0.1560 -0.6198  1.0289
13561SOL     OW42450   4.797   3.363   5.531 -0.3728  0.1681  0.6270
13561SOL    HW142451   4.737   3.288   5.534 -1.3261  0.7850 -1.1703
13561SOL    HW242452   4.840   3.355   5.445  0.1528  1.2080  0.7798
13562SOL     OW42453   3.224   9.273   3.287  0.2446  1.0268 -0.6551
13562SOL    HW142454   3.189   9.225   3.362  1.3111 -1.4654 -1.6311
13562SOL    HW242455   3.180   9.358   3.290 -2.3919 -0.2590  0.7480
13563SOL     OW42456   1.790   9.816   2.186 -0.2234 -0.0354  0.4768
13563SOL    HW142457   1.721   9.878   2.164 -1.0901 -1.2635 -0.4595
13563SOL    HW242458   1.815   9.777   2.102  2.0839  0.8084  0.7168
13564SOL     OW42459   6.115   3.847   7.662  1.3168  0.5155 -0.2141
13564SOL    HW142460   6.129   3.938   7.638 -0.8188  0.8348 -0.4251
13564SOL    HW242461   6.103   3.848   7.757 -1.6007  0.9768 -0.4778
13565SOL     OW42462   7.990   1.964   3.217  0.4208 -0.4679 -0.0948
13565SOL    HW142463   7.929   1.997   3.283  2.1528  2.2612  0.3219
13565SOL    HW242464   8.067   1.937   3.267  1.4888  1.0013 -0.8492
13566SOL     OW42465   5.892   7.995   1.724 -0.1646 -0.1926  0.5390
13566SOL    HW142466   5.950   8.004   1.649 -0.1273  1.1031  0.6942
13566SOL    HW242467   5.943   7.946   1.789  0.5458  0.4288  0.4611
13567SOL     OW42468   4.765   0.007   3.877 -0.2472 -0.1430 -0.1172
13567SOL    HW142469   4.813   0.083   3.844  2.5250 -1.5297  0.3507
13567SOL    HW242470   4.730   0.035   3.961  0.9259  0.5813  0.1534
13568SOL     OW42471   9.026   5.219   7.652 -0.6142  0.1134  0.2591
13568SOL    HW142472   9.002   5.163   7.578  0.6751 -0.8793  0.5639
13568SOL    HW242473   9.058   5.299   7.611 -1.7508  0.3633 -0.1950
13569SOL     OW42474   2.549   4.659   9.140 -0.4698 -0.2362  0.6651
13569SOL    HW142475   2.570   4.567   9.126  1.5283  0.2847 -0.1952
13569SOL    HW242476   2.457   4.667   9.115 -1.1989 -2.2761  2.3714
13570SOL     OW42477   4.361   9.247   7.290 -0.5912  0.3497  0.1968
13570SOL    HW142478   4.378   9.335   7.324  0.2075 -0.1920  1.2532
13570SOL    HW242479   4.266   9.239   7.290 -0.7179 -0.3154  4.3197
13571SOL     OW42480   0.528   7.459   6.970  0.1387  0.2277  0.0653
13571SOL    HW142481   0.504   7.524   7.037 -0.3958 -0.9539  1.0600
13571SOL    HW242482   0.619   7.437   6.990  0.8485  1.7718 -1.2407
13572SOL     OW42483   3.412   9.000   2.861 -0.1489 -0.4029  0.8247
13572SOL    HW142484   3.391   9.085   2.899  1.7824  0.8468 -0.7236
13572SOL    HW242485   3.469   8.958   2.926  0.4828  0.3383  0.7605
13573SOL     OW42486   9.464   2.611   0.500  0.0398  0.0033 -0.0561
13573SOL    HW142487   9.516   2.609   0.580  1.3612 -1.3651 -0.9003
13573SOL    HW242488   9.525   2.636   0.431 -0.2370 -2.0252 -1.1340
13574SOL     OW42489   4.259   1.397   3.915 -0.5771 -0.0190 -0.7815
13574SOL    HW142490   4.355   1.398   3.905 -0.5331  3.2445 -1.0315
13574SOL    HW242491   4.244   1.409   4.008 -0.7177 -0.1355 -0.7895
13575SOL     OW42492   9.703   2.093   5.913  0.4758 -0.2077 -0.7690
13575SOL    HW142493   9.652   2.015   5.935 -0.2678  0.4886  0.0773
13575SOL    HW242494   9.751   2.069   5.834 -0.9183 -1.0135 -1.4099
13576SOL     OW42495   3.695   8.898   4.874 -0.6643  0.3544 -0.1609
13576SOL    HW142496   3.720   8.928   4.961 -0.1314  0.5930 -0.3922
13576SOL    HW242497   3.652   8.974   4.834 -1.8676 -0.0740  0.2625
13577SOL     OW42498   7.533   0.579   1.064 -0.1100 -0.2453  0.1866
13577SOL    HW142499   7.584   0.660   1.065  0.8913 -0.7544 -2.0207
13577SOL    HW242500   7.494   0.574   1.151  1.0726  1.7837  0.9162
13578SOL     OW42501   0.001   3.781   4.009  0.2153  0.3054 -0.4130
13578SOL    HW142502   0.068   3.838   4.046 -0.7506  0.6255  0.9645
13578SOL    HW242503  -0.071   3.840   3.985 -1.1695 -0.3027  1.8650
13579SOL     OW42504   6.388   7.971   2.023  0.4383 -0.3050  0.1923
13579SOL    HW142505   6.360   8.029   2.094 -1.7217 -0.6172 -0.3459
13579SOL    HW242506   6.395   8.029   1.947 -1.7887 -0.6950 -0.3616
13580SOL     OW42507   8.080   0.637   8.583 -0.0260 -0.5305  0.3220
13580SOL    HW142508   8.063   0.580   8.509 -0.7965  0.6540 -0.4445
13580SOL    HW242509   8.136   0.706   8.547 -0.9481  0.4146  0.6545
13581SOL     OW42510   7.591   8.929   1.635  0.0858 -0.0978 -0.2871
13581SOL    HW142511   7.585   8.953   1.727  2.2818 -1.2486  0.2239
13581SOL    HW242512   7.611   9.011   1.589 -1.8523  0.6374  0.0899
13582SOL     OW42513   5.136   4.238   8.032  0.0214  0.3664  0.4847
13582SOL    HW142514   5.139   4.190   8.115 -0.8052  1.6891  1.3157
13582SOL    HW242515   5.143   4.330   8.057  2.1227  0.6968 -1.1164
13583SOL     OW42516   3.518   5.182   1.762  0.4699  0.0889 -0.2105
13583SOL    HW142517   3.554   5.118   1.701  1.3400  1.7105 -1.4775
13583SOL    HW242518   3.585   5.189   1.831  0.5417 -0.0889 -0.2608
13584SOL     OW42519   4.753   3.185   9.789  0.1365 -0.1049  0.4331
13584SOL    HW142520   4.699   3.198   9.711 -1.9423  2.8406  2.1389
13584SOL    HW242521   4.716   3.108   9.831  0.0044 -0.5701 -0.5213
13585SOL     OW42522   8.265   3.586   3.195  0.1495  0.4615 -0.3061
13585SOL    HW142523   8.258   3.523   3.267 -1.3076 -0.6360 -1.3527
13585SOL    HW242524   8.356   3.577   3.165 -0.1016 -1.4062 -0.6367
13586SOL     OW42525   4.317   2.974   7.530  0.2562  0.0788 -0.4499
13586SOL    HW142526   4.297   2.884   7.507  2.5672 -0.8095  0.7097
13586SOL    HW242527   4.379   3.004   7.464 -2.0693  1.6427 -2.0818
13587SOL     OW42528   4.472   4.561   1.739  0.1041  0.4366 -0.1832
13587SOL    HW142529   4.420   4.618   1.682 -0.0431 -0.6876 -1.2190
13587SOL    HW242530   4.419   4.549   1.818 -0.1202  1.2448 -0.2087
13588SOL     OW42531   3.679   2.390   4.304 -0.2610 -0.1942  0.8791
13588SOL    HW142532   3.634   2.413   4.386 -1.4112 -2.7170  1.0430
13588SOL    HW242533   3.615   2.340   4.254  1.0906 -0.4585 -0.6872
13589SOL     OW42534   3.322   0.428   7.095 -0.2928 -0.6303  0.0593
13589SOL    HW142535   3.300   0.380   7.016 -0.8192 -0.7970  0.3014
13589SOL    HW242536   3.378   0.500   7.065 -1.0967 -0.2538 -0.5601
13590SOL     OW42537   8.768   5.761   5.738 -0.3763 -0.2318 -0.0684
13590SOL    HW142538   8.767   5.807   5.822  0.2902  0.8104 -0.6130
13590SOL    HW242539   8.818   5.818   5.680 -0.9506 -0.8678 -1.2196
13591SOL     OW42540   1.764   9.306   3.736 -0.0235  0.3366  0.1094
13591SOL    HW142541   1.759   9.388   3.785 -2.0548  0.3175  0.0185
13591SOL    HW242542   1.704   9.318   3.662  0.5461 -0.8083 -0.5754
13592SOL     OW42543   7.660   5.112   2.337 -0.1221 -0.2983  0.1078
13592SOL    HW142544   7.680   5.036   2.391  0.2410  0.4678  1.0818
13592SOL    HW242545   7.593   5.160   2.386 -0.1386  0.1665 -0.3563
13593SOL     OW42546   4.079   5.309   5.119  0.4168  0.0709  0.3550
13593SOL    HW142547   3.998   5.357   5.101  1.1684  1.0325 -0.6415
13593SOL    HW242548   4.056   5.248   5.188 -0.9101  1.0184  0.7972
13594SOL     OW42549   5.408   0.152   3.850 -0.0587  0.1453 -0.0483
13594SOL    HW142550   5.331   0.197   3.886 -1.3264  0.0257 -2.4013
13594SOL    HW242551   5.470   0.151   3.922 -0.8237  3.6123  0.8877
13595SOL     OW42552   5.594   1.981   8.243  0.0825  0.1796  0.3629
13595SOL    HW142553   5.510   1.985   8.290 -0.3339  0.3188 -0.3899
13595SOL    HW242554   5.572   1.998   8.152  0.4312 -2.9599 -0.4378
13596SOL     OW42555   3.391   7.320   8.174  0.4523  0.4062 -0.4236
13596SOL    HW142556   3.363   7.382   8.241 -0.4163 -0.0441 -0.3510
13596SOL    HW242557   3.481   7.298   8.197  0.6033  1.2793 -0.1845
13597SOL     OW42558   4.257   1.764   2.409  0.0902  0.3375 -0.0138
13597SOL    HW142559   4.312   1.686   2.418 -1.2418 -0.6151  0.2173
13597SOL    HW242560   4.226   1.760   2.318 -0.3406  0.3437  0.1326
13598SOL     OW42561   5.065   6.962   9.140 -0.1527  0.1647 -0.0200
13598SOL    HW142562   5.105   6.970   9.227 -1.0021  1.0936  0.2992
13598SOL    HW242563   5.036   7.051   9.118 -4.1118 -0.7320  0.7692
13599SOL     OW42564   7.350   8.235   7.130 -0.3219 -0.9164 -0.4048
13599SOL    HW142565   7.347   8.330   7.119 -2.4103 -0.8346  0.4346
13599SOL    HW242566   7.395   8.221   7.213  0.7912 -0.7344 -0.9598
13600SOL     OW42567   6.754   6.859   8.960 -0.3415  0.3194 -0.1912
13600SOL    HW142568   6.692   6.806   9.009 -0.0792  0.0437 -0.1541
13600SOL    HW242569   6.836   6.852   9.009 -0.1582  0.2890 -0.4975
13601SOL     OW42570   0.915   8.656   4.673  0.3084  0.1300 -0.3681
13601SOL    HW142571   0.822   8.665   4.695 -0.3646 -1.5610 -2.1469
13601SOL    HW242572   0.950   8.598   4.741 -0.4090 -0.6621 -0.6453
13602SOL     OW42573   8.396   4.011   9.657  0.3740 -0.1108  0.2936
13602SOL    HW142574   8.392   4.059   9.574  0.1104 -1.2418 -0.3630
13602SOL    HW242575   8.488   3.987   9.666  0.2442 -0.7995 -0.1556
13603SOL     OW42576   3.677   1.953   9.628 -0.2721 -0.3521  0.1404
13603SOL    HW142577   3.624   2.030   9.609  1.8379  1.2004  0.1262
13603SOL    HW242578   3.725   1.936   9.547  1.0509 -0.1714  0.8580
13604SOL     OW42579   0.694   9.039   8.744 -0.3193 -0.8347  0.0832
13604SOL    HW142580   0.719   8.950   8.720  0.4112 -0.7149  0.3831
13604SOL    HW242581   0.767   9.093   8.714 -0.9797 -0.2717 -0.5444
13605SOL     OW42582   8.761   1.006   4.695  0.6730 -0.2211  0.5909
13605SOL    HW142583   8.698   1.074   4.719  0.2571 -0.1138 -0.7185
13605SOL    HW242584   8.712   0.948   4.638  1.5648 -0.5513  0.1523
13606SOL     OW42585   2.945   3.174   7.401 -0.2774 -0.5238  0.3310
13606SOL    HW142586   2.950   3.155   7.307  1.1683  0.2145  0.2390
13606SOL    HW242587   2.994   3.255   7.412 -0.6899 -0.4398  1.6928
13607SOL     OW42588   6.071   5.181   7.364 -0.0444 -0.1358  0.3105
13607SOL    HW142589   5.999   5.209   7.307  0.4986  0.1047 -0.2569
13607SOL    HW242590   6.137   5.249   7.356  0.6804 -0.8553  0.0437
13608SOL     OW42591   9.542   4.005   8.855  0.5016  0.1939  0.1111
13608SOL    HW142592   9.575   4.094   8.870 -0.1832  0.4774  0.0064
13608SOL    HW242593   9.450   4.009   8.884  1.1232 -1.1746  2.5466
13609SOL     OW42594   0.319   4.126   0.662 -0.0770 -0.2207 -0.2952
13609SOL    HW142595   0.400   4.178   0.666 -0.2456  0.0222  0.0727
13609SOL    HW242596   0.257   4.183   0.616 -0.2342 -0.1318  0.0240
13610SOL     OW42597   6.038   7.362   8.018  0.1467 -0.2551  0.0570
13610SOL    HW142598   5.988   7.300   7.965 -2.9563  2.3379 -0.3804
13610SOL    HW242599   5.973   7.425   8.049  2.9780  2.6447  0.6875
13611SOL     OW42600   6.749   2.159   3.773  0.1868 -0.0660  0.3004
13611SOL    HW142601   6.803   2.215   3.718  0.1006 -0.1530  0.1241
13611SOL    HW242602   6.682   2.125   3.713  0.1548 -0.2424  0.4358
13612SOL     OW42603   1.676   0.458   4.130 -0.1587  0.1145  0.2905
13612SOL    HW142604   1.684   0.433   4.222 -0.1570  0.3760  0.3625
13612SOL    HW242605   1.597   0.512   4.127 -0.4212 -0.2775  0.0550
13613SOL     OW42606   6.644   6.932   0.635  0.5068 -0.4206 -0.2267
13613SOL    HW142607   6.677   6.900   0.718  1.1516  0.3235 -0.1883
13613SOL    HW242608   6.671   6.866   0.571  0.5657 -0.6683  0.0536
13614SOL     OW42609   9.272   5.964   0.634 -0.2509  0.5551 -1.2952
13614SOL    HW142610   9.322   6.045   0.645  1.5436 -0.7331  1.3613
13614SOL    HW242611   9.181   5.989   0.650  0.4506  1.8670  1.2177
13615SOL     OW42612   3.984   2.248   3.314 -0.9668  0.0639 -0.0578
13615SOL    HW142613   3.938   2.165   3.324  0.7166 -1.0625 -1.0236
13615SOL    HW242614   4.038   2.255   3.393  0.3898 -0.8253 -0.8556
13616SOL     OW42615   8.489   2.096   3.359  0.1819  0.0695 -0.2547
13616SOL    HW142616   8.444   2.070   3.440  0.4118 -1.5792 -0.6289
13616SOL    HW242617   8.582   2.081   3.377  0.1485 -1.3737 -1.1784
13617SOL     OW42618   5.997   6.136   3.764 -0.0721 -0.1561 -0.2227
13617SOL    HW142619   5.920   6.116   3.818  0.2456  0.9974  0.7175
13617SOL    HW242620   5.961   6.168   3.681 -0.5812 -1.2221 -0.4198
13618SOL     OW42621   9.088   3.876   9.277  0.0449  0.0271  0.3625
13618SOL    HW142622   9.109   3.901   9.187 -1.3877  1.2311  0.3201
13618SOL    HW242623   9.102   3.956   9.328  2.1233 -0.9785  1.4883
13619SOL     OW42624   2.429   4.809   3.583  0.0488  0.3873 -0.1912
13619SOL    HW142625   2.521   4.802   3.608 -0.4209  0.8676  1.7738
13619SOL    HW242626   2.381   4.792   3.663 -1.6155 -0.1655 -1.2554
13620SOL     OW42627   6.647   8.470   2.487  0.2479  0.3069  0.5345
13620SOL    HW142628   6.730   8.424   2.472 -0.0037  0.6194 -2.4352
13620SOL    HW242629   6.671   8.562   2.491  0.0825  0.3884 -0.2055
13621SOL     OW42630   2.914   2.466   2.978  0.6477 -0.2616  0.1214
13621SOL    HW142631   2.883   2.509   3.058  2.5064 -1.5136  1.6024
13621SOL    HW242632   2.849   2.399   2.959 -0.8278  1.3129 -0.5984
13622SOL     OW42633   5.222   8.466   3.120 -0.5886  0.0827 -0.0927
13622SOL    HW142634   5.131   8.444   3.098 -0.7982  1.3441 -0.5434
13622SOL    HW242635   5.237   8.551   3.079  1.8776 -1.5592 -2.9954
13623SOL     OW42636   3.592   7.853   4.298 -0.0712  0.0113 -0.5100
13623SOL    HW142637   3.563   7.895   4.217  1.9380 -0.0534 -1.3340
13623SOL    HW242638   3.627   7.768   4.269 -0.3397 -0.4782  0.5800
13624SOL     OW42639   5.261   5.375   2.631  0.0142  0.4228  0.3967
13624SOL    HW142640   5.262   5.448   2.692  1.1364  1.2925 -0.6171
13624SOL    HW242641   5.179   5.385   2.583  0.2250  1.1202  0.1692
13625SOL     OW42642   0.246   8.628   2.571  0.4241  0.1309  0.3665
13625SOL    HW142643   0.152   8.612   2.569  0.5305 -0.5956  0.6955
13625SOL    HW242644   0.277   8.580   2.648  1.3409 -1.3622 -0.8651
13626SOL     OW42645   4.443   7.974   2.339 -0.5326  0.2778  0.1059
13626SOL    HW142646   4.481   8.027   2.269  1.7200  0.8027  1.6241
13626SOL    HW242647   4.509   7.975   2.409 -1.5339 -2.3688  1.2389
13627SOL     OW42648   8.743   7.577   1.639  0.1076 -0.6011  0.1130
13627SOL    HW142649   8.757   7.626   1.720 -1.9167 -0.9596  0.7403
13627SOL    HW242650   8.738   7.644   1.571  0.1136 -0.1659  0.5333
13628SOL     OW42651   7.392   3.577   4.538  0.2021 -0.1244 -0.1936
13628SOL    HW142652   7.411   3.564   4.445  0.9675 -2.1508  0.1935
13628SOL    HW242653   7.341   3.500   4.563  0.7245 -0.0358  1.2506
13629SOL     OW42654   7.705   7.038   8.936 -0.4704 -0.4554  0.2466
13629SOL    HW142655   7.702   7.025   8.842  0.1228 -0.1549  0.1845
13629SOL    HW242656   7.647   6.971   8.972 -3.0337  1.1986 -0.4931
13630SOL     OW42657   7.946   9.098   7.895  0.6368 -0.0800  0.1995
13630SOL    HW142658   7.998   9.080   7.817  1.2195 -0.1613  0.6019
13630SOL    HW242659   8.005   9.079   7.968  0.3770  0.8185  0.6542
13631SOL     OW42660   6.436   7.296   8.690  0.6192  0.0293 -0.3634
13631SOL    HW142661   6.443   7.203   8.712  3.2197  0.3659  0.5850
13631SOL    HW242662   6.364   7.328   8.744  1.6139 -0.8752  1.6324
13632SOL     OW42663   8.993   3.090   7.513 -0.0453  0.2377  0.0298
13632SOL    HW142664   8.902   3.112   7.531  0.2031  2.3845 -0.9865
13632SOL    HW242665   8.992   3.057   7.422  0.2145  0.4218 -0.0408
13633SOL     OW42666   3.508   3.002   6.622  0.0649  0.4646  0.8338
13633SOL    HW142667   3.417   2.989   6.594  0.7289 -1.7390 -0.5549
13633SOL    HW242668   3.502   3.021   6.716 -1.7423 -2.1799  1.3615
13634SOL     OW42669   2.114   5.079   4.951 -0.4310  0.0867 -0.6874
13634SOL    HW142670   2.061   5.150   4.986  0.1052 -0.0133  0.3803
13634SOL    HW242671   2.066   5.048   4.875 -1.9756 -0.0590  0.2964
13635SOL     OW42672   8.191   2.847   3.556 -0.0852  0.4065  0.7704
13635SOL    HW142673   8.193   2.753   3.537  0.5786  0.5297  0.2061
13635SOL    HW242674   8.112   2.879   3.513 -1.2291 -0.1737  2.3626
13636SOL     OW42675   4.294   4.999   6.297  0.2166  0.0369 -0.7023
13636SOL    HW142676   4.302   5.050   6.216 -1.1184  0.9356 -0.3036
13636SOL    HW242677   4.246   4.921   6.272  1.2272 -0.4863 -1.0781
13637SOL     OW42678   5.520   0.828   9.828  0.2599 -0.4977  0.0845
13637SOL    HW142679   5.429   0.798   9.818  0.4849 -1.2847  0.3155
13637SOL    HW242680   5.513   0.915   9.867 -0.3758 -0.8063  0.6733
13638SOL     OW42681   8.159   7.022   0.907  0.2456 -0.3025  0.3957
13638SOL    HW142682   8.091   7.084   0.879 -0.8983 -0.5996  2.2806
13638SOL    HW242683   8.225   7.025   0.838 -1.1588  0.8418 -0.9686
13639SOL     OW42684   1.844   4.263   5.726 -0.0199  0.2648  0.2191
13639SOL    HW142685   1.885   4.198   5.783  0.1226 -0.5967 -0.8300
13639SOL    HW242686   1.891   4.345   5.745  0.4284 -0.1393  0.8917
13640SOL     OW42687   8.830   6.232   4.037 -0.0040  0.4727 -0.4611
13640SOL    HW142688   8.781   6.157   4.071 -0.0440  0.2352 -1.0346
13640SOL    HW242689   8.884   6.260   4.110 -0.6014  0.4058  0.0189
13641SOL     OW42690   0.084   8.829   5.941 -0.2037 -0.0261  0.0358
13641SOL    HW142691  -0.005   8.862   5.925  0.5527  1.0609 -2.3563
13641SOL    HW242692   0.134   8.858   5.866  2.3554 -0.1661  1.5804
13642SOL     OW42693   9.796   6.964   1.278 -0.5731 -0.1855 -0.0967
13642SOL    HW142694   9.726   7.003   1.226 -2.7386 -2.6050  0.7255
13642SOL    HW242695   9.768   6.976   1.369  0.8348  0.0269  0.3344
13643SOL     OW42696   8.016   4.068   0.214  0.5552 -0.2995 -0.1159
13643SOL    HW142697   7.998   4.156   0.249 -0.2255 -0.4075 -0.2217
13643SOL    HW242698   8.095   4.040   0.260  1.1204  0.6716 -0.4669
13644SOL     OW42699   1.763   9.619   5.752  0.1419  0.4152  0.2347
13644SOL    HW142700   1.812   9.700   5.737  0.0289  0.7546  1.5474
13644SOL    HW242701   1.730   9.594   5.666 -1.8121  3.0401  0.0922
13645SOL     OW42702   5.853   8.740   2.178  0.2334  0.3577  0.0768
13645SOL    HW142703   5.830   8.656   2.218  1.4115  0.9866  2.2548
13645SOL    HW242704   5.775   8.794   2.191 -1.3298 -0.8573 -3.1434
13646SOL     OW42705   0.392   2.186   1.263 -0.0335 -0.4696 -0.4637
13646SOL    HW142706   0.418   2.125   1.194 -1.5480 -1.3486 -0.2953
13646SOL    HW242707   0.309   2.224   1.231  1.0388  1.8309 -0.7589
13647SOL     OW42708   8.474   7.796   2.686 -0.3907 -0.2664  0.2989
13647SOL    HW142709   8.563   7.786   2.720 -0.6062 -1.7385  0.4764
13647SOL    HW242710   8.485   7.826   2.596  0.2360  1.0499  0.7864
13648SOL     OW42711   5.551   8.136   7.392  0.4050  0.4329 -0.3905
13648SOL    HW142712   5.619   8.189   7.435  3.3696 -2.1064 -1.5629
13648SOL    HW242713   5.566   8.149   7.299 -2.2899  1.4797 -0.7762
13649SOL     OW42714   2.627   8.617   2.741  0.2733  0.3151  0.0706
13649SOL    HW142715   2.635   8.706   2.705  0.9900 -0.4234 -1.7208
13649SOL    HW242716   2.533   8.605   2.754 -0.0826  0.5434 -1.9305
13650SOL     OW42717   6.014   4.901   4.314  0.2043 -0.2485  0.2330
13650SOL    HW142718   5.922   4.901   4.341  0.7978 -2.2331  2.7001
13650SOL    HW242719   6.059   4.954   4.380  1.1465 -1.6938  0.8293
13651SOL     OW42720   4.408   8.398   3.659  0.1454  0.2416  0.6736
13651SOL    HW142721   4.490   8.408   3.706 -0.6929 -1.8019  2.7874
13651SOL    HW242722   4.351   8.465   3.696 -0.0371 -0.3681  1.5510
13652SOL     OW42723   3.264   1.246   6.126 -0.4035  0.2956  0.3323
13652SOL    HW142724   3.195   1.218   6.186 -0.6472 -0.3002 -0.2126
13652SOL    HW242725   3.275   1.339   6.145 -0.5570  0.1438  1.2085
13653SOL     OW42726   2.705   5.531   9.256 -0.8429 -0.4929  0.3434
13653SOL    HW142727   2.641   5.480   9.205  1.5760 -2.3271 -1.0739
13653SOL    HW242728   2.740   5.469   9.320  0.2234  0.1370  0.3974
13654SOL     OW42729   2.451   2.765   3.640 -0.2597 -0.3770 -0.5726
13654SOL    HW142730   2.371   2.731   3.679 -0.3227 -2.1408 -2.1163
13654SOL    HW242731   2.519   2.749   3.706 -0.9458  0.0537  0.2614
13655SOL     OW42732   0.102   1.798   0.663  0.0212  0.1094  0.7815
13655SOL    HW142733   0.172   1.736   0.684  2.0049  1.3486 -1.6722
13655SOL    HW242734   0.144   1.884   0.670 -0.6283  0.8171 -2.5071
13656SOL     OW42735   4.667   2.331   2.327 -0.3685 -0.1924 -0.5724
13656SOL    HW142736   4.632   2.245   2.305  2.0663 -1.1112 -1.1201
13656SOL    HW242737   4.688   2.326   2.420  0.1096 -0.3214 -0.6859
13657SOL     OW42738   8.585   2.969   6.634  0.2322  0.1443  0.1523
13657SOL    HW142739   8.570   2.993   6.725 -0.4875  1.3754 -0.2572
13657SOL    HW242740   8.676   2.939   6.632  0.3556  0.3971  1.2208
13658SOL     OW42741   7.722   4.671   7.063 -0.2960 -0.3196  0.5056
13658SOL    HW142742   7.725   4.626   7.147  1.1798  0.3877  0.8642
13658SOL    HW242743   7.702   4.762   7.084  0.0440 -0.1443  0.1064
13659SOL     OW42744   2.330   2.940   5.933  0.1405  0.7578  0.4681
13659SOL    HW142745   2.386   2.930   5.856 -0.6147  1.8525 -0.2526
13659SOL    HW242746   2.270   2.865   5.928 -0.7138  1.4986 -0.7278
13660SOL     OW42747   4.840   8.794   1.895  0.2621 -0.3107 -0.4025
13660SOL    HW142748   4.929   8.825   1.876 -0.5531  2.3687 -0.2685
13660SOL    HW242749   4.798   8.868   1.939 -2.1701 -1.3601 -0.7994
13661SOL     OW42750   5.107   7.954   4.698  0.1595  0.5815  0.2489
13661SOL    HW142751   5.050   8.031   4.693  0.4672  0.7457 -0.8040
13661SOL    HW242752   5.070   7.892   4.636 -0.6100 -0.5068  1.7223
13662SOL     OW42753   4.143   9.630   2.097  0.0088 -0.4628 -0.1559
13662SOL    HW142754   4.049   9.613   2.085 -0.8779  2.1056  2.1258
13662SOL    HW242755   4.167   9.681   2.020 -1.0762  0.7404  0.2606
13663SOL     OW42756   8.803   4.147   2.698 -0.0841  0.4469  0.0943
13663SOL    HW142757   8.872   4.205   2.667 -0.0370  0.7340  0.7341
13663SOL    HW242758   8.741   4.142   2.625  1.2518 -0.8942 -1.0196
13664SOL     OW42759   7.912   1.074   0.507  0.0494 -0.3206 -0.5203
13664SOL    HW142760   7.882   1.164   0.515  1.5075  0.0267  2.2599
13664SOL    HW242761   7.974   1.076   0.434  0.6955  1.1267  0.0390
13665SOL     OW42762   3.380   3.974   8.787  1.2996 -0.1810 -0.2953
13665SOL    HW142763   3.419   3.979   8.700  1.9393  1.4795  0.0513
13665SOL    HW242764   3.382   3.881   8.810 -1.3497 -1.1064 -3.1262
13666SOL     OW42765   9.516   7.052   7.016  0.0992 -0.1514  0.0960
13666SOL    HW142766   9.597   7.098   7.039  0.1476 -1.1823  2.2240
13666SOL    HW242767   9.491   7.089   6.931  1.9968  1.2424  0.0708
13667SOL     OW42768   6.132   2.104   3.659  0.1611 -0.6099 -0.4759
13667SOL    HW142769   6.081   2.172   3.616  0.6813 -0.8939 -1.5747
13667SOL    HW242770   6.205   2.151   3.699 -0.2116 -0.3671 -0.0757
13668SOL     OW42771   1.422   0.947   2.016  0.4841 -0.4584  0.1419
13668SOL    HW142772   1.476   0.871   1.991 -0.5473 -0.7545 -1.3349
13668SOL    HW242773   1.418   1.000   1.936  0.5651  0.7899  0.9455
13669SOL     OW42774   1.241   0.994   3.780  0.1222 -0.4289  0.9162
13669SOL    HW142775   1.245   1.016   3.873 -0.3209  3.5114  0.1831
13669SOL    HW242776   1.323   1.027   3.744 -0.4757 -0.2369 -0.3232
13670SOL     OW42777   2.139   7.586   1.654 -0.2853  0.1408 -0.0147
13670SOL    HW142778   2.196   7.607   1.728  0.9760 -1.1507 -0.5642
13670SOL    HW242779   2.083   7.516   1.688  0.4290 -0.5921 -0.3116
13671SOL     OW42780   5.595   1.502   6.061  0.6275  0.0884  0.5746
13671SOL    HW142781   5.677   1.509   6.110  0.6234  0.0255  0.5906
13671SOL    HW242782   5.533   1.465   6.123  0.9270 -1.1245  0.1785
13672SOL     OW42783   0.755   5.584   1.791 -0.1063  0.4092  0.1423
13672SOL    HW142784   0.815   5.634   1.847  2.8795 -0.7074 -1.7943
13672SOL    HW242785   0.798   5.499   1.780 -1.9275 -0.3599 -1.6650
13673SOL     OW42786   8.297   7.024   0.633 -0.7742  0.2241 -0.2668
13673SOL    HW142787   8.259   7.078   0.564  1.4296 -0.7932 -2.4364
13673SOL    HW242788   8.296   6.935   0.597  0.1583 -0.4029  1.1383
13674SOL     OW42789   1.052   2.785   2.728  0.2320  0.4901 -0.3660
13674SOL    HW142790   1.121   2.850   2.715  0.5603  0.7801  2.3316
13674SOL    HW242791   0.981   2.832   2.772  0.5358 -0.9078  1.8066
13675SOL     OW42792   8.386   6.222   6.761 -0.3573  0.1088 -0.1102
13675SOL    HW142793   8.449   6.293   6.772  0.3197 -0.5929  0.6341
13675SOL    HW242794   8.402   6.189   6.672  0.7536 -0.4603  0.2878
13676SOL     OW42795   8.938   0.352   4.566 -0.2751 -0.3461 -0.3920
13676SOL    HW142796   9.008   0.412   4.541 -0.9282  0.8829  0.6328
13676SOL    HW242797   8.980   0.287   4.622  0.3483 -0.5992 -1.1341
13677SOL     OW42798   5.722   8.179   3.363 -0.2242 -0.4626 -0.4098
13677SOL    HW142799   5.812   8.171   3.331 -0.0594  1.0238 -0.3960
13677SOL    HW242800   5.710   8.104   3.421  1.2910 -0.2493  0.2258
13678SOL     OW42801   2.813   7.164   0.891 -0.2812  0.3717  0.0048
13678SOL    HW142802   2.852   7.081   0.864  0.2640  0.1685  1.3592
13678SOL    HW242803   2.835   7.225   0.821 -0.4689 -0.5601 -0.8855
13679SOL     OW42804   3.237   2.974   6.557  0.4001  0.3029  0.2535
13679SOL    HW142805   3.155   2.979   6.509  0.9693  1.8578 -0.6282
13679SOL    HW242806   3.280   2.895   6.523  0.8289  1.4125 -1.9141
13680SOL     OW42807   9.553   4.723   6.509 -0.1599 -0.0890  0.4909
13680SOL    HW142808   9.583   4.777   6.583  1.4804 -0.6000  0.2499
13680SOL    HW242809   9.634   4.695   6.466 -1.0772  0.2545 -1.5675
13681SOL     OW42810   3.377   4.652   5.674 -0.1541 -0.2858 -0.4750
13681SOL    HW142811   3.370   4.557   5.670 -0.6302 -0.3190  0.7007
13681SOL    HW242812   3.326   4.683   5.599 -0.6200 -0.9337 -0.4346
13682SOL     OW42813   8.056   6.329   0.168 -0.0176 -0.0757 -0.2350
13682SOL    HW142814   8.135   6.382   0.168  0.0882 -0.2334 -0.0826
13682SOL    HW242815   7.999   6.370   0.103 -0.9144  1.6723  1.5543
13683SOL     OW42816   6.651   3.277   2.960  0.0583 -0.4550 -0.1587
13683SOL    HW142817   6.669   3.205   2.900  2.4680  0.2296 -0.3705
13683SOL    HW242818   6.682   3.246   3.045  2.6119  0.7616 -0.5296
13684SOL     OW42819   1.722   5.037   0.551  0.1140 -0.3055  0.2870
13684SOL    HW142820   1.654   4.983   0.593 -0.1409  0.3803  0.7705
13684SOL    HW242821   1.755   4.982   0.480 -2.4426  0.1304 -1.3788
13685SOL     OW42822   4.852   8.407   0.954  0.1354  0.0956  0.5450
13685SOL    HW142823   4.858   8.470   1.026 -0.0008 -0.0962  0.7256
13685SOL    HW242824   4.878   8.324   0.993  0.1544  0.0111  0.3488
13686SOL     OW42825   8.382   9.102   1.154 -0.1215 -0.2535  0.1706
13686SOL    HW142826   8.421   9.083   1.239  1.5932 -1.1711 -0.7689
13686SOL    HW242827   8.354   9.017   1.121  1.1600 -0.2484 -1.0417
13687SOL     OW42828   8.494   7.749   9.296 -0.4389  1.0766  1.1014
13687SOL    HW142829   8.572   7.785   9.339  0.3615  1.1417 -0.3483
13687SOL    HW242830   8.475   7.812   9.227 -1.6305  0.9063  1.2579
13688SOL     OW42831   8.624   5.825   7.925 -0.1942 -0.3126  0.1706
13688SOL    HW142832   8.712   5.861   7.915  0.0363 -0.2383  2.0115
13688SOL    HW242833   8.599   5.797   7.837  2.2037 -1.5937 -0.2013
13689SOL     OW42834   4.417   5.378   8.931 -0.7446 -0.2037 -0.0702
13689SOL    HW142835   4.450   5.289   8.933  1.2567  0.4880  0.9728
13689SOL    HW242836   4.361   5.382   8.854 -0.8330 -2.3273 -0.1549
13690SOL     OW42837   6.912   7.856   2.539  0.4936 -0.0124  0.1882
13690SOL    HW142838   6.924   7.762   2.531  0.0446 -0.2763  2.1386
13690SOL    HW242839   6.818   7.870   2.534  0.3287  0.0018  2.1900
13691SOL     OW42840   6.060   3.467   3.956  0.1986  0.5479 -0.2974
13691SOL    HW142841   6.002   3.441   4.028 -0.8534  1.4197 -0.8091
13691SOL    HW242842   6.122   3.395   3.949 -1.2573 -0.7798 -0.1991
13692SOL     OW42843   0.659   7.819   7.286  0.6261 -0.4126 -0.3536
13692SOL    HW142844   0.735   7.865   7.252  0.0309  0.9579  0.1000
13692SOL    HW242845   0.683   7.794   7.375  0.3503  0.5291 -0.0087
13693SOL     OW42846   0.719   4.947   2.842 -0.1922 -0.4757 -0.5492
13693SOL    HW142847   0.814   4.943   2.829 -0.4057 -1.5698 -1.9362
13693SOL    HW242848   0.688   5.006   2.774 -0.4040  1.0524  0.7954
13694SOL     OW42849   2.363   9.324   8.351  0.7171  0.5615  0.0334
13694SOL    HW142850   2.397   9.299   8.437  0.1260 -3.2620 -0.6592
13694SOL    HW242851   2.285   9.376   8.370 -0.2991 -1.5029  1.9324
13695SOL     OW42852   2.307   4.948   9.357  0.1030 -0.2330  0.2796
13695SOL    HW142853   2.377   5.005   9.325  1.8489 -2.1671  0.4471
13695SOL    HW242854   2.352   4.872   9.394 -2.0673 -1.1202  1.3255
13696SOL     OW42855   1.980   5.501   1.135  0.0820  0.2904  0.3837
13696SOL    HW142856   2.040   5.486   1.208 -1.0505 -1.8561  0.9639
13696SOL    HW242857   1.895   5.519   1.177 -0.7000 -1.4688 -0.3315
13697SOL     OW42858   4.416   8.307   8.414 -0.0919 -0.1299 -0.0884
13697SOL    HW142859   4.402   8.398   8.390 -1.3100  0.1745  1.6343
13697SOL    HW242860   4.509   8.291   8.396  0.2184  1.5328 -0.1016
13698SOL     OW42861   0.700   1.831   1.636 -0.0602 -0.2554  0.7077
13698SOL    HW142862   0.722   1.826   1.543 -0.7117  1.0207  0.4546
13698SOL    HW242863   0.777   1.870   1.677 -0.7564  1.7213  0.2447
13699SOL     OW42864   1.144   9.089   1.007 -0.6487  0.1066  0.8569
13699SOL    HW142865   1.121   9.120   1.094  0.0317 -0.7311  1.3559
13699SOL    HW242866   1.108   9.000   1.002 -0.7213  0.1651  0.2758
13700SOL     OW42867   4.898   1.003   3.928  0.1454  0.3564  0.1766
13700SOL    HW142868   4.972   1.063   3.930  0.1592  0.3118  1.3059
13700SOL    HW242869   4.919   0.936   3.993 -0.5022 -0.1168 -0.0927
13701SOL     OW42870   0.691   4.594   8.078 -0.2678  0.0594 -0.5724
13701SOL    HW142871   0.596   4.604   8.077 -0.2037  0.7368 -1.2054
13701SOL    HW242872   0.723   4.661   8.017  0.5533 -0.7805 -1.1125
13702SOL     OW42873   9.591   9.557   0.695 -0.2271  0.8178  0.4218
13702SOL    HW142874   9.571   9.612   0.620 -0.6336 -0.5608 -0.5117
13702SOL    HW242875   9.509   9.553   0.745  0.1815  2.1495  1.2525
13703SOL     OW42876   3.932   7.879   5.382 -0.0698  0.0924  0.0483
13703SOL    HW142877   3.982   7.818   5.436 -1.6465 -0.8106  0.5517
13703SOL    HW242878   3.841   7.852   5.393 -0.5126  0.2068 -2.6439
13704SOL     OW42879   5.797   5.875   7.703 -0.1964  0.4668  0.6498
13704SOL    HW142880   5.802   5.784   7.673 -1.0924  0.0370  1.7584
13704SOL    HW242881   5.775   5.925   7.625 -2.1357 -0.5845  0.4820
13705SOL     OW42882   0.166   0.720   4.364 -0.0355 -0.2459  0.0204
13705SOL    HW142883   0.117   0.689   4.440  0.7505  1.0900  1.1343
13705SOL    HW242884   0.210   0.642   4.330 -1.6310 -1.1503 -0.0245
13706SOL     OW42885   7.317   8.073   7.781  0.5007  0.8049 -0.0373
13706SOL    HW142886   7.343   7.988   7.746  0.1099  0.9095 -0.5901
13706SOL    HW242887   7.222   8.065   7.795 -0.5594  2.6037 -4.5137
13707SOL     OW42888   4.666   0.554   8.785  0.0287  0.2338 -0.3126
13707SOL    HW142889   4.684   0.491   8.855  4.1838  2.6383  1.1535
13707SOL    HW242890   4.604   0.509   8.727 -0.0677 -3.6836  2.4534
13708SOL     OW42891   2.688   0.250   2.675  0.2238 -0.5083 -0.1694
13708SOL    HW142892   2.620   0.187   2.651 -0.1738 -0.3693  0.5856
13708SOL    HW242893   2.771   0.203   2.660  0.1497  0.2392 -3.9282
13709SOL     OW42894   7.105   5.602   0.135 -0.4694 -0.7163 -0.4281
13709SOL    HW142895   7.137   5.551   0.059  1.0228 -0.4195 -0.0377
13709SOL    HW242896   7.180   5.604   0.195 -1.1359  0.3488  0.3948
13710SOL     OW42897   6.287   5.483   6.590 -0.0293  0.3954 -0.2072
13710SOL    HW142898   6.323   5.535   6.518 -0.8742 -0.0078 -0.9401
13710SOL    HW242899   6.283   5.544   6.663  0.1964  1.0073 -0.6912
13711SOL     OW42900   9.117   3.354   7.826 -0.0690  0.1606 -0.1738
13711SOL    HW142901   9.137   3.375   7.918  1.6499 -0.1925 -0.4427
13711SOL    HW242902   9.156   3.268   7.812 -1.5825 -0.4438 -0.8606
13712SOL     OW42903   5.029   7.084   5.435 -0.8586 -0.2205  0.2360
13712SOL    HW142904   5.063   7.134   5.361  1.8080  0.2348  1.6454
13712SOL    HW242905   5.094   7.015   5.448 -1.5031 -0.5411  1.8961
13713SOL     OW42906   1.472   1.619   4.370 -0.4217 -0.2202  0.0329
13713SOL    HW142907   1.524   1.596   4.293  0.2022 -0.4687  0.5181
13713SOL    HW242908   1.421   1.540   4.388 -0.4987 -0.1937 -0.0643
13714SOL     OW42909   7.312   4.183   0.913  0.2585 -0.4641  0.0193
13714SOL    HW142910   7.234   4.238   0.908 -0.7288 -1.8177 -0.0029
13714SOL    HW242911   7.308   4.129   0.834  1.7710  0.1286 -0.5009
13715SOL     OW42912   1.544   5.014   0.283  0.2091  0.5393  0.0969
13715SOL    HW142913   1.473   4.995   0.221 -1.2384 -1.2040  2.1353
13715SOL    HW242914   1.605   5.069   0.233 -1.6719  0.6351 -2.3101
13716SOL     OW42915   1.397   4.694   5.829  0.1274  0.0473  0.0565
13716SOL    HW142916   1.415   4.773   5.880  4.5750  0.6247 -1.8956
13716SOL    HW242917   1.436   4.624   5.880  2.6808  0.3248 -1.3402
13717SOL     OW42918   7.232   4.522   5.758  0.1092  0.0510 -0.0915
13717SOL    HW142919   7.246   4.547   5.850 -0.1077  0.0250 -0.0512
13717SOL    HW242920   7.149   4.563   5.735  1.0533  1.6080 -0.8338
13718SOL     OW42921   4.004   9.408   5.873 -0.1316  0.0205  0.1433
13718SOL    HW142922   4.020   9.495   5.836  1.5743  0.5320  1.8888
13718SOL    HW242923   3.918   9.414   5.913 -0.7180  0.3691 -1.1106
13719SOL     OW42924   2.895   1.242   0.559  0.1680 -0.0800  0.4911
13719SOL    HW142925   2.972   1.186   0.573  1.8622  2.2096  0.9434
13719SOL    HW242926   2.882   1.285   0.644  0.2578  1.7481 -0.3858
13720SOL     OW42927   1.680   5.382   5.738  0.3858  0.6455  0.3401
13720SOL    HW142928   1.729   5.316   5.786 -0.1930  1.2333  1.7905
13720SOL    HW242929   1.596   5.341   5.718  0.6741  0.3563 -0.3205
13721SOL     OW42930   4.186   5.416   2.276  0.1720  0.2327 -0.7126
13721SOL    HW142931   4.220   5.502   2.249 -2.3347  0.7269 -2.6377
13721SOL    HW242932   4.190   5.362   2.198 -2.3450  0.0165 -0.7746
13722SOL     OW42933   7.667   2.283   3.225  0.2774 -0.0892 -0.2432
13722SOL    HW142934   7.730   2.286   3.297  0.3111  1.2576 -0.2941
13722SOL    HW242935   7.649   2.190   3.212  0.5907 -0.3781  1.2233
13723SOL     OW42936   1.263   5.650   3.065 -0.1094  0.3258 -0.1306
13723SOL    HW142937   1.240   5.576   3.008  0.1937  0.4246 -0.3829
13723SOL    HW242938   1.191   5.711   3.055  0.4979  0.8751 -1.3320
13724SOL     OW42939   6.164   1.477   9.100  0.4907 -0.4159  0.0873
13724SOL    HW142940   6.199   1.425   9.173 -0.5134  0.4375  1.2133
13724SOL    HW242941   6.186   1.426   9.023  0.8014 -1.8070  1.0486
13725SOL     OW42942   5.959   2.554   1.222 -0.3623  0.3186  0.0666
13725SOL    HW142943   5.962   2.619   1.152 -2.5307  1.4976  0.9591
13725SOL    HW242944   5.999   2.597   1.297 -1.7913  0.6959  0.6570
13726SOL     OW42945   5.067   5.705   7.807  0.2524 -0.3019  0.3815
13726SOL    HW142946   5.132   5.728   7.741  0.1798 -0.7233  0.1650
13726SOL    HW242947   5.019   5.787   7.822  0.4037 -0.1532  0.0627
13727SOL     OW42948   3.451   5.665   5.709 -0.0385 -0.1061 -0.1270
13727SOL    HW142949   3.384   5.642   5.645  0.7512 -4.1051  0.2516
13727SOL    HW242950   3.533   5.664   5.659  0.4122 -1.8330  0.5735
13728SOL     OW42951   6.020   4.020   1.579 -0.0904  0.2762 -0.5420
13728SOL    HW142952   6.036   3.926   1.584 -0.4840  0.0422 -2.6700
13728SOL    HW242953   5.986   4.044   1.665  1.2103 -1.2720  0.4490
13729SOL     OW42954   1.289   6.053   1.841  0.3111  0.3008 -0.2346
13729SOL    HW142955   1.252   6.084   1.758 -1.8746 -2.3197 -0.3607
13729SOL    HW242956   1.308   5.961   1.826 -1.6199 -0.6812  2.5933
13730SOL     OW42957   0.801   7.083   0.813  0.7863 -0.3701  0.0379
13730SOL    HW142958   0.871   7.019   0.823  0.6267 -0.5857 -0.2065
13730SOL    HW242959   0.823   7.154   0.874  0.6240 -0.9541  0.7833
13731SOL     OW42960   7.518   9.274   7.887 -0.0921 -0.2737  0.5903
13731SOL    HW142961   7.571   9.352   7.908  1.0872 -0.8515 -0.1237
13731SOL    HW242962   7.580   9.214   7.846 -0.8594 -1.8313  1.6330
13732SOL     OW42963   7.089   8.432   8.380  0.5698  0.1774 -0.4123
13732SOL    HW142964   7.089   8.464   8.470  0.3980  0.3090 -0.4596
13732SOL    HW242965   7.182   8.434   8.354  0.9926 -2.2825  0.6034
13733SOL     OW42966   8.724   8.628   2.729  0.4217 -0.7134  0.2528
13733SOL    HW142967   8.708   8.574   2.651 -1.5705  0.5379 -0.2757
13733SOL    HW242968   8.742   8.715   2.694 -1.4670  0.0951  1.1645
13734SOL     OW42969   6.690   8.742   2.466 -0.0624 -0.0372 -0.6607
13734SOL    HW142970   6.630   8.753   2.539 -0.8528 -1.0335 -1.1361
13734SOL    HW242971   6.712   8.831   2.439 -1.4810  0.3473 -0.5900
13735SOL     OW42972   5.589   3.827   3.629 -0.8083 -0.5986 -0.4167
13735SOL    HW142973   5.561   3.768   3.559 -0.7241 -0.1047 -0.8635
13735SOL    HW242974   5.535   3.905   3.618 -0.6075 -0.4127 -0.0937
13736SOL     OW42975   1.774   0.533   8.497 -0.2114 -0.5552 -0.8138
13736SOL    HW142976   1.868   0.525   8.514  0.1367  0.4199 -2.1276
13736SOL    HW242977   1.753   0.455   8.445 -0.2190 -0.9555 -0.2235
13737SOL     OW42978   4.134   8.974   7.490  0.0025 -0.5628 -0.1780
13737SOL    HW142979   4.056   8.921   7.476  0.5787 -1.2604 -0.8844
13737SOL    HW242980   4.110   9.061   7.461 -0.8918 -0.4687  0.7877
13738SOL     OW42981   1.531   6.854   8.381 -0.0714 -0.5483 -0.4978
13738SOL    HW142982   1.605   6.793   8.382 -0.3459 -0.8949  1.1335
13738SOL    HW242983   1.520   6.876   8.289  0.8276 -2.0021 -0.9902
13739SOL     OW42984   2.891   7.650   7.387  0.1122 -0.0766 -0.2726
13739SOL    HW142985   2.976   7.684   7.414 -0.0962  1.1806 -1.1092
13739SOL    HW242986   2.835   7.727   7.381 -1.4936 -1.0121  1.5875
13740SOL     OW42987   9.580   4.286   1.598 -0.6305  0.4844 -0.5022
13740SOL    HW142988   9.585   4.219   1.530  2.2386  0.1342 -0.0724
13740SOL    HW242989   9.582   4.238   1.681 -0.9569  1.0209 -0.1734
13741SOL     OW42990   5.349   4.330   7.335  0.0440 -0.8379  0.2861
13741SOL    HW142991   5.406   4.368   7.269 -0.6796  0.7438  0.5103
13741SOL    HW242992   5.300   4.261   7.288  1.1758 -1.3197 -0.2143
13742SOL     OW42993   4.522   5.554   7.562  0.0096  0.0420  0.1536
13742SOL    HW142994   4.603   5.602   7.549 -0.1633  0.7303  1.4287
13742SOL    HW242995   4.547   5.462   7.557  1.0190  0.2413  1.2539
13743SOL     OW42996   3.197   1.403   4.853 -0.5472 -0.0136 -0.1920
13743SOL    HW142997   3.178   1.347   4.777 -0.7182 -1.1104  0.6386
13743SOL    HW242998   3.112   1.417   4.894 -0.6563  1.7157 -0.9458
13744SOL     OW42999   5.105   0.167   7.382 -0.0369  0.0271  0.2317
13744SOL    HW143000   5.060   0.147   7.464 -3.1828 -0.0321 -1.3629
13744SOL    HW243001   5.114   0.082   7.339 -0.9640  0.3608 -0.6533
13745SOL     OW43002   0.264   9.152   2.688 -0.1170 -0.3924 -0.2512
13745SOL    HW143003   0.241   9.228   2.740 -0.5476 -0.5898 -0.1551
13745SOL    HW243004   0.322   9.101   2.745  0.8198  0.2517 -0.6044
13746SOL     OW43005   2.394   7.627   5.966  0.1479 -0.0486  0.7336
13746SOL    HW143006   2.409   7.532   5.966 -3.1303 -0.6920 -0.3241
13746SOL    HW243007   2.372   7.648   6.056  2.9637  0.2301  1.4615
13747SOL     OW43008   9.610   7.182   3.026 -0.0226 -0.1201  0.1883
13747SOL    HW143009   9.684   7.237   2.999 -1.2737  1.1966 -0.7400
13747SOL    HW243010   9.560   7.169   2.946 -1.6692  0.4400  1.0805
13748SOL     OW43011   9.123   4.733   7.830 -0.6396 -0.2130 -0.0527
13748SOL    HW143012   9.162   4.821   7.835 -0.8944 -0.1010 -0.0029
13748SOL    HW243013   9.117   4.716   7.736  2.4088 -1.5343 -0.1412
13749SOL     OW43014   8.189   8.287   2.556  0.0503 -0.5127 -0.3566
13749SOL    HW143015   8.179   8.349   2.484 -0.6219  0.1852  0.3053
13749SOL    HW243016   8.167   8.338   2.634  1.2418 -1.1126  0.4053
13750SOL     OW43017   4.717   3.754   4.569 -0.0632  0.4821  0.2286
13750SOL    HW143018   4.755   3.841   4.561 -1.5261  1.1138 -0.2236
13750SOL    HW243019   4.772   3.698   4.513  1.0084  1.0555  0.6899
13751SOL     OW43020   4.788   9.698   6.881  0.0619  0.2680  0.2767
13751SOL    HW143021   4.752   9.771   6.832 -0.8982  2.3750  3.7930
13751SOL    HW243022   4.715   9.637   6.891  0.1630  0.0060 -0.5283
13752SOL     OW43023   6.455   2.539   0.379 -0.5576 -1.0026  0.6520
13752SOL    HW143024   6.538   2.516   0.337 -0.2872  0.0788  0.5447
13752SOL    HW243025   6.473   2.532   0.472  0.1498  0.6557  0.6911
13753SOL     OW43026   7.710   4.686   5.640  0.8629 -0.1633 -0.1799
13753SOL    HW143027   7.719   4.597   5.606  1.5870 -0.4040  0.6236
13753SOL    HW243028   7.798   4.722   5.636  0.3784  0.9367 -1.5855
13754SOL     OW43029   0.773   6.452   7.112 -0.5459 -0.3377 -0.4202
13754SOL    HW143030   0.730   6.449   7.198 -1.6384  4.4315 -0.4880
13754SOL    HW243031   0.862   6.481   7.132 -0.8151  0.8215 -0.8299
13755SOL     OW43032   0.127   7.295   0.759  0.6975 -0.3147  0.2885
13755SOL    HW143033   0.198   7.248   0.715  2.9595  1.9150  1.3234
13755SOL    HW243034   0.106   7.367   0.700  1.1441  0.5367  1.1487
13756SOL     OW43035   9.078   7.665   8.563 -0.6662  0.6726  0.4711
13756SOL    HW143036   9.129   7.585   8.577 -1.2595  0.5357  1.9874
13756SOL    HW243037   9.003   7.637   8.511  1.0058  0.9778 -2.3063
13757SOL     OW43038   4.416   3.105   6.691  0.2933 -0.4558  0.1280
13757SOL    HW143039   4.354   3.129   6.622 -1.3418 -0.5568  1.5035
13757SOL    HW243040   4.383   3.022   6.726  0.2430  0.2749  1.9486
13758SOL     OW43041   9.345   3.139   2.318 -0.4249 -0.0100 -0.3826
13758SOL    HW143042   9.256   3.105   2.309  0.2385 -1.7182 -1.0121
13758SOL    HW243043   9.396   3.088   2.254  1.0609  0.6867  0.2073
13759SOL     OW43044   6.081   2.217   3.064 -0.3466  0.1317  0.4253
13759SOL    HW143045   6.131   2.261   3.133  0.8936 -0.7346  0.1153
13759SOL    HW243046   6.134   2.140   3.041 -0.2508  0.8525 -2.1074
13760SOL     OW43047   9.385   5.712   8.968 -0.6159 -0.2007 -0.0559
13760SOL    HW143048   9.390   5.662   9.049 -0.6003 -0.4923 -0.2355
13760SOL    HW243049   9.375   5.646   8.900 -0.7975  0.0537 -0.2757
13761SOL     OW43050   2.246   4.522   2.265  0.0459 -0.4539 -0.2688
13761SOL    HW143051   2.205   4.600   2.302 -2.1954 -1.3303 -0.7146
13761SOL    HW243052   2.249   4.538   2.171 -1.4447 -1.2594 -0.4983
13762SOL     OW43053   4.763   9.510   1.516 -0.0683  0.3478 -0.2628
13762SOL    HW143054   4.796   9.535   1.602  1.1018 -0.7459 -0.3552
13762SOL    HW243055   4.669   9.500   1.527 -0.0076  0.8353  0.7291
13763SOL     OW43056   3.707   5.698   7.315 -0.3678  0.2984  0.5951
13763SOL    HW143057   3.776   5.716   7.379 -0.0274  1.0447  0.0295
13763SOL    HW243058   3.724   5.607   7.287  1.2240  0.8864 -0.5118
13764SOL     OW43059   8.374   9.817   6.970  0.5282 -0.2480  0.0002
13764SOL    HW143060   8.415   9.903   6.961  0.9938 -0.4583  0.0705
13764SOL    HW243061   8.434   9.768   7.026  0.0937 -0.5097  0.2358
13765SOL     OW43062   9.101   8.731   8.333 -0.1602  0.3363 -0.1590
13765SOL    HW143063   9.188   8.712   8.367  0.0394 -0.7289 -1.2010
13765SOL    HW243064   9.106   8.821   8.303  1.6551 -0.5948 -3.1727
13766SOL     OW43065   1.365   6.426   9.284  0.0526  0.0291  0.2701
13766SOL    HW143066   1.427   6.353   9.283  0.3093  0.2453  0.3754
13766SOL    HW243067   1.407   6.494   9.232 -1.2441 -0.7635 -1.9570
13767SOL     OW43068   5.979   1.644   8.119  0.0615  0.2200  0.1399
13767SOL    HW143069   5.894   1.674   8.153 -0.9497 -0.5068 -1.5788
13767SOL    HW243070   5.988   1.688   8.035  0.3535 -1.3228 -0.6713
13768SOL     OW43071   0.908   3.064   9.830  0.2268 -0.6722 -0.3811
13768SOL    HW143072   0.921   3.031   9.919  0.4531 -1.2389 -0.6214
13768SOL    HW243073   0.828   3.117   9.836  0.1884 -0.7843  0.1390
13769SOL     OW43074   6.867   0.637   5.266 -0.7150  0.4597 -0.2089
13769SOL    HW143075   6.881   0.692   5.189  0.3659 -0.3173 -0.5991
13769SOL    HW243076   6.883   0.695   5.340 -0.2243  0.8343 -0.6030
13770SOL     OW43077   2.456   9.351   1.218 -0.0491 -0.2182 -0.0705
13770SOL    HW143078   2.389   9.327   1.282  0.5452 -2.1652 -0.0940
13770SOL    HW243079   2.435   9.299   1.140 -0.0650  1.2152 -1.0687
13771SOL     OW43080   6.562   7.670   8.300 -0.3672  0.4848  0.2060
13771SOL    HW143081   6.526   7.609   8.364 -1.4178  1.8253  0.9443
13771SOL    HW243082   6.524   7.643   8.216 -0.1219 -0.3979  0.3732
13772SOL     OW43083   6.923   5.460   6.543  0.0227  0.2176  0.0946
13772SOL    HW143084   6.937   5.457   6.638 -0.7859 -2.2712  0.1992
13772SOL    HW243085   6.839   5.416   6.530  0.2187  0.3415 -1.8036
13773SOL     OW43086   1.933   7.730   9.323 -0.0762 -0.6020 -0.2383
13773SOL    HW143087   2.028   7.738   9.311 -0.0833 -0.4301 -0.1876
13773SOL    HW243088   1.896   7.797   9.266 -0.1237  0.0025  0.4862
13774SOL     OW43089   3.322   3.263   5.420  0.2004 -0.1754  0.2177
13774SOL    HW143090   3.305   3.187   5.474  0.6712 -0.9033 -0.6298
13774SOL    HW243091   3.328   3.229   5.331  1.2766  0.7146 -0.0778
13775SOL     OW43092   8.661   8.236   7.016 -0.3502 -0.4253 -0.0675
13775SOL    HW143093   8.638   8.144   7.025  0.5504 -0.6785 -0.2846
13775SOL    HW243094   8.732   8.249   7.079 -0.2198  0.0242 -0.3042
13776SOL     OW43095   4.402   0.530   6.345  0.3706  0.6540 -0.0767
13776SOL    HW143096   4.339   0.559   6.279  0.9572  1.5202 -0.2800
13776SOL    HW243097   4.421   0.439   6.322  0.7052  0.9896 -1.2361
13777SOL     OW43098   8.314   5.440   0.306  0.1749 -0.1037  0.0098
13777SOL    HW143099   8.229   5.400   0.324 -0.8002  1.7915 -0.1156
13777SOL    HW243100   8.340   5.481   0.388 -0.1847  1.3012 -0.5500
13778SOL     OW43101   9.018   1.134   9.815  0.2383 -0.0642 -0.6622
13778SOL    HW143102   8.966   1.206   9.779  0.9292  0.4225 -0.7193
13778SOL    HW243103   8.966   1.102   9.889  0.1383  0.8076 -0.3463
13779SOL     OW43104   1.083   6.311   5.221 -0.6268  0.1048 -0.7688
13779SOL    HW143105   1.027   6.327   5.297 -1.1782 -1.6423 -0.7701
13779SOL    HW243106   1.074   6.390   5.168  0.3722  1.7155  1.2968
13780SOL     OW43107   6.584   1.008   7.384 -0.0701 -0.7632  0.0374
13780SOL    HW143108   6.489   0.994   7.385  0.1481 -3.0477 -1.4626
13780SOL    HW243109   6.616   0.960   7.460  0.1092 -3.3739 -1.5438
13781SOL     OW43110   8.929   7.002   0.197 -0.4883 -0.2302  0.3630
13781SOL    HW143111   8.878   6.968   0.124  1.5733 -1.9849 -0.3489
13781SOL    HW243112   9.004   7.045   0.156  0.3042 -0.5649  1.4159
13782SOL     OW43113   8.150   4.739   0.296 -0.8246  0.4456  0.4134
13782SOL    HW143114   8.168   4.830   0.320  2.3165 -0.0736  0.4272
13782SOL    HW243115   8.087   4.746   0.223 -0.1349  2.6608 -0.0616
13783SOL     OW43116   2.150   1.740   0.316 -0.3427 -1.1309  0.5800
13783SOL    HW143117   2.216   1.710   0.379  2.2049 -0.7233 -1.6814
13783SOL    HW243118   2.143   1.667   0.254  1.6721  0.5399 -1.8228
13784SOL     OW43119   1.030   4.626   0.789 -0.5671  0.0580  0.1382
13784SOL    HW143120   0.978   4.597   0.864 -1.3256 -0.2556 -0.4976
13784SOL    HW243121   1.120   4.601   0.810 -0.6611  0.5900  1.2482
13785SOL     OW43122   4.103   8.075   3.620 -0.1011  0.0964 -0.3229
13785SOL    HW143123   4.159   8.075   3.542  1.6902  0.2298  0.9096
13785SOL    HW243124   4.155   8.031   3.687 -1.7231 -0.2969  0.7311
13786SOL     OW43125   0.512   4.820   5.303 -0.0403 -0.0013  0.2867
13786SOL    HW143126   0.606   4.806   5.292  0.2447  2.1959 -0.7247
13786SOL    HW243127   0.505   4.882   5.375 -0.5750  0.9824 -0.5722
13787SOL     OW43128   2.564   9.600   7.693  0.0703  0.7724  0.4350
13787SOL    HW143129   2.544   9.533   7.628 -0.9919  1.4064  0.0735
13787SOL    HW243130   2.652   9.631   7.669 -0.4505  1.2588 -0.9644
13788SOL     OW43131   2.992   5.079   2.658 -0.5903 -0.6556  0.1312
13788SOL    HW143132   3.054   5.007   2.644  0.2195  0.1416 -0.5151
13788SOL    HW243133   2.955   5.096   2.571  1.4767  1.6726 -0.4133
13789SOL     OW43134   0.639   7.372   1.931  0.2890 -0.4638  0.0066
13789SOL    HW143135   0.683   7.314   1.870 -0.7385  1.7274 -3.0810
13789SOL    HW243136   0.546   7.361   1.913  0.0309  1.5323 -0.1529
13790SOL     OW43137   5.907   6.927   8.502 -0.2083 -0.1880  0.2227
13790SOL    HW143138   5.922   6.841   8.543  0.3544 -0.1998  0.0077
13790SOL    HW243139   5.825   6.958   8.540 -0.0675 -0.5222  0.8089
13791SOL     OW43140   1.221   4.118   2.542  0.5545  0.0766  0.3210
13791SOL    HW143141   1.314   4.104   2.562  0.0238 -0.1908  3.0292
13791SOL    HW243142   1.213   4.213   2.531  0.8632  0.3125  1.9482
13792SOL     OW43143   6.925   2.963   3.235  0.0042 -0.3019  0.3284
13792SOL    HW143144   6.945   2.976   3.142  0.1053 -0.6281  0.3053
13792SOL    HW243145   6.914   2.869   3.244  0.9566 -0.3663  0.8399
13793SOL     OW43146   3.818   8.647   3.570 -0.2840  0.5276 -0.0283
13793SOL    HW143147   3.870   8.693   3.636  0.8027  0.6643 -0.9415
13793SOL    HW243148   3.764   8.714   3.530 -1.9435  0.2216  1.5895
13794SOL     OW43149   8.878   1.342   0.850  0.0302  0.3099  0.3033
13794SOL    HW143150   8.934   1.418   0.841  0.5546 -0.1436 -0.4038
13794SOL    HW243151   8.900   1.305   0.935 -1.4020  1.8446  1.4104
13795SOL     OW43152   5.522   4.007   1.797 -0.9029  0.2469 -0.2850
13795SOL    HW143153   5.580   3.933   1.816 -1.1360 -0.7639 -3.0406
13795SOL    HW243154   5.440   3.985   1.841 -0.3388 -0.1124  0.6121
13796SOL     OW43155   5.798   7.895   6.160 -0.5464  0.6721 -0.3839
13796SOL    HW143156   5.821   7.971   6.213 -1.5594  1.4412 -1.0097
13796SOL    HW243157   5.704   7.884   6.173 -0.3011 -0.9203  0.2479
13797SOL     OW43158   4.260   0.962   6.451 -0.3632  0.0527 -0.3172
13797SOL    HW143159   4.289   0.884   6.405  0.9872  0.6087 -0.4463
13797SOL    HW243160   4.221   0.929   6.532  2.8851 -0.6642  1.0773
13798SOL     OW43161   2.636   0.778   7.619 -0.7181  0.3196 -0.1214
13798SOL    HW143162   2.648   0.795   7.525 -0.7007 -1.5409 -0.5009
13798SOL    HW243163   2.659   0.860   7.661  0.4865  0.8453 -1.6833
13799SOL     OW43164   3.024   5.312   2.827  0.5736  0.0349  0.0322
13799SOL    HW143165   3.078   5.378   2.784  1.6652 -0.7905  0.0857
13799SOL    HW243166   3.024   5.237   2.767  2.2471 -1.1969  1.4519
13800SOL     OW43167   4.917   7.154   6.021  0.6305 -0.3059  0.1268
13800SOL    HW143168   4.846   7.219   6.025  1.8191  1.0193  0.6912
13800SOL    HW243169   4.872   7.070   6.018 -0.9638  0.4771  0.6316
13801SOL     OW43170   2.949   4.320   0.021 -0.1923  0.2268 -0.5485
13801SOL    HW143171   2.931   4.334   0.115 -0.8901 -0.0351 -0.6403
13801SOL    HW243172   2.905   4.393  -0.022 -3.1880 -1.6731 -0.9711
13802SOL     OW43173   5.882   9.031   3.655 -0.1865  0.1871 -0.1009
13802SOL    HW143174   5.945   8.962   3.678 -0.7340 -0.3468 -0.1920
13802SOL    HW243175   5.885   9.092   3.729 -1.3048 -1.0714  1.0366
13803SOL     OW43176   2.916   4.439   4.376  0.0579 -0.1954  0.3511
13803SOL    HW143177   2.907   4.394   4.460 -2.9621 -1.9258 -0.7387
13803SOL    HW243178   2.859   4.515   4.383 -0.0584 -0.2433 -0.0446
13804SOL     OW43179   9.745   1.626   8.104  0.3457  0.1749  0.8024
13804SOL    HW143180   9.820   1.654   8.156  1.9620 -1.8800 -0.3106
13804SOL    HW243181   9.782   1.585   8.027 -1.9628  0.4945 -0.5871
13805SOL     OW43182   6.248   8.113   8.612  0.2357 -0.0950 -0.0836
13805SOL    HW143183   6.220   8.094   8.522  2.1844  0.3940 -0.8506
13805SOL    HW243184   6.166   8.121   8.661 -0.8616 -2.4428 -1.3421
13806SOL     OW43185   9.332   1.985   1.125 -0.2349 -0.6734  0.2493
13806SOL    HW143186   9.257   1.927   1.144 -0.1656 -0.7429  0.3137
13806SOL    HW243187   9.300   2.044   1.058 -0.2475 -0.9108  0.0457
13807SOL     OW43188   6.154   5.681   5.203  0.1067  0.3446  0.5165
13807SOL    HW143189   6.240   5.673   5.162  0.1550  0.6951  0.5471
13807SOL    HW243190   6.162   5.632   5.285 -0.3147 -1.2920 -0.3754
13808SOL     OW43191   2.608   9.671   3.841  0.1774  0.5345 -0.1767
13808SOL    HW143192   2.576   9.590   3.801  0.3994  1.8246 -3.2342
13808SOL    HW243193   2.703   9.667   3.831  0.2100  1.0676 -0.1119
13809SOL     OW43194   6.877   6.288   2.896  0.0498  0.0219  0.0621
13809SOL    HW143195   6.884   6.347   2.971  1.0450  0.0683 -0.0442
13809SOL    HW243196   6.819   6.333   2.835  1.8070  1.5685 -0.5766
13810SOL     OW43197   0.840   7.971   1.103 -0.8298  0.2246  0.1517
13810SOL    HW143198   0.833   8.009   1.015 -1.0333 -1.2183 -0.4815
13810SOL    HW243199   0.804   8.038   1.160 -3.7216 -0.0172 -1.2058
13811SOL     OW43200   9.053   2.290   0.337 -0.0179 -0.3406  0.3724
13811SOL    HW143201   9.098   2.271   0.420  0.7578 -1.9411 -0.3629
13811SOL    HW243202   9.018   2.206   0.309  1.9767 -0.4446 -2.1985
13812SOL     OW43203   5.547   1.812   2.989  0.2261  0.2218 -0.2988
13812SOL    HW143204   5.476   1.747   2.983  1.6513 -1.3823 -0.7927
13812SOL    HW243205   5.534   1.869   2.914 -0.7967  0.2138 -0.1328
13813SOL     OW43206   9.186   1.807   2.066  0.4206 -0.4326 -0.0442
13813SOL    HW143207   9.130   1.750   2.118 -0.2755 -1.2468 -1.6117
13813SOL    HW243208   9.264   1.754   2.048  1.1978  0.2680  1.1111
13814SOL     OW43209   0.905   2.695   8.086 -0.7242  0.2120  0.2446
13814SOL    HW143210   0.911   2.599   8.082 -0.1204  0.2531  0.0929
13814SOL    HW243211   0.957   2.719   8.163  1.6334  0.6185 -1.3781
13815SOL     OW43212   6.248   9.496   1.309  0.3661  0.3666 -0.0112
13815SOL    HW143213   6.319   9.482   1.245 -0.2480  0.0453 -0.6379
13815SOL    HW243214   6.243   9.591   1.318  0.5016  0.4142 -0.3930
13816SOL     OW43215   1.502   3.486   9.507 -0.5154 -0.5065 -0.6971
13816SOL    HW143216   1.554   3.412   9.474  0.2552 -0.0600 -0.5049
13816SOL    HW243217   1.567   3.550   9.535 -1.1549 -0.5002  0.8419
13817SOL     OW43218   5.716   5.070   1.758  0.1632  0.0942 -0.1558
13817SOL    HW143219   5.745   4.994   1.707  0.1193  0.1883 -0.3202
13817SOL    HW243220   5.768   5.066   1.839  0.9335  0.4893 -0.6195
13818SOL     OW43221   7.742   9.743   4.721 -0.1789 -0.5148  0.2346
13818SOL    HW143222   7.800   9.741   4.645 -0.7843 -2.2696 -0.2389
13818SOL    HW243223   7.655   9.725   4.685 -0.5491 -0.8847  1.2733
13819SOL     OW43224   1.504   7.520   8.724  0.1429 -0.0285  0.5173
13819SOL    HW143225   1.439   7.467   8.770  0.2910 -1.5412 -0.8870
13819SOL    HW243226   1.520   7.472   8.642  0.5461  2.0431 -0.7001
13820SOL     OW43227   2.233   0.910   7.506 -0.0031 -0.1769  0.1023
13820SOL    HW143228   2.246   0.926   7.599  1.2786 -1.0731  0.1010
13820SOL    HW243229   2.297   0.966   7.463 -0.6703  0.3252 -0.2691
13821SOL     OW43230   0.176   2.655   6.499 -0.0452 -0.2997 -0.0414
13821SOL    HW143231   0.235   2.693   6.565 -0.2261  0.0992 -0.1053
13821SOL    HW243232   0.094   2.704   6.510  0.1008  0.1689 -0.9483
13822SOL     OW43233   5.887   3.313   4.131 -0.0003  0.0387 -0.1114
13822SOL    HW143234   5.812   3.277   4.083 -1.4041  1.1277  1.1531
13822SOL    HW243235   5.938   3.236   4.156 -1.3614 -0.8504  0.0532
13823SOL     OW43236   6.605   3.554   4.570  0.4000 -0.0568 -0.0489
13823SOL    HW143237   6.609   3.472   4.619  0.6600 -0.0606 -0.0796
13823SOL    HW243238   6.543   3.537   4.499  0.2158 -0.1299  0.1272
13824SOL     OW43239   0.002   5.755   7.072 -0.1056  0.3494  0.2238
13824SOL    HW143240  -0.080   5.705   7.081 -0.6143  1.0807 -0.2898
13824SOL    HW243241   0.065   5.706   7.126 -0.6029 -0.8148 -0.2043
13825SOL     OW43242   2.418   4.305   8.460 -0.8713  0.4540 -0.0413
13825SOL    HW143243   2.337   4.256   8.469 -0.5699  0.2190  1.8738
13825SOL    HW243244   2.429   4.317   8.365 -1.9520 -1.4845 -0.4648
13826SOL     OW43245   9.193   5.341   0.788  0.6777  0.3650  0.7364
13826SOL    HW143246   9.172   5.424   0.831 -1.1789 -0.2610  1.1425
13826SOL    HW243247   9.271   5.359   0.736  1.3996  1.8723  2.2494
13827SOL     OW43248   0.512   6.759   1.834 -0.4298  0.0469 -0.0174
13827SOL    HW143249   0.578   6.696   1.803 -0.1333  0.4679 -0.2443
13827SOL    HW243250   0.464   6.785   1.756  0.7160  1.5718 -0.2632
13828SOL     OW43251   0.965   2.958   7.967  0.6165 -0.5033  0.3752
13828SOL    HW143252   1.021   2.978   7.892  1.4650  0.2375  1.1837
13828SOL    HW243253   0.996   2.873   7.998 -1.0752 -1.8277 -1.2959
13829SOL     OW43254   2.640   1.468   3.083  0.0381 -0.1320 -0.0323
13829SOL    HW143255   2.586   1.428   3.151 -1.0824  1.4315  0.0397
13829SOL    HW243256   2.730   1.461   3.116 -0.5653  1.6371  2.2085
13830SOL     OW43257   9.489   4.646   0.095  0.0405 -0.2582 -0.1534
13830SOL    HW143258   9.475   4.642   0.190 -0.8556 -3.3668 -0.3014
13830SOL    HW243259   9.580   4.619   0.084  1.0034  2.6550 -0.1397
13831SOL     OW43260   5.475   5.999   8.975 -0.9933 -0.1639  0.3234
13831SOL    HW143261   5.475   6.019   8.881  0.3114 -0.2435  0.2868
13831SOL    HW243262   5.508   6.079   9.016 -2.0746  0.0680  0.7889
13832SOL     OW43263   9.743   2.934   7.389 -0.5191 -0.1662 -0.0348
13832SOL    HW143264   9.807   2.881   7.341 -0.6809 -0.7707  0.4197
13832SOL    HW243265   9.730   3.011   7.333  2.0406  0.9225  0.7388
13833SOL     OW43266   6.192   4.464   7.077 -0.3664 -0.2952  0.9128
13833SOL    HW143267   6.158   4.389   7.125 -1.6280  0.6317  1.5364
13833SOL    HW243268   6.245   4.512   7.140 -0.5144 -0.0553  0.8570
13834SOL     OW43269   0.983   5.631   4.982  0.1576 -0.2359  0.1738
13834SOL    HW143270   0.907   5.680   5.013  0.3042 -1.1381  2.1409
13834SOL    HW243271   1.045   5.697   4.954 -0.1272  0.6843  1.5947
13835SOL     OW43272   0.502   3.212   3.356  0.3101 -0.2612  0.3042
13835SOL    HW143273   0.547   3.164   3.425  1.0059  0.1953  0.1814
13835SOL    HW243274   0.555   3.291   3.343 -1.0230  0.7510  0.7767
13836SOL     OW43275   4.082   1.817   6.045  0.2963 -0.6984 -0.0032
13836SOL    HW143276   4.121   1.903   6.028 -0.5841 -0.1815  0.5132
13836SOL    HW243277   4.021   1.804   5.972 -1.3232  0.2105  1.1172
13837SOL     OW43278   0.129   3.655   4.955 -0.3275 -0.5292  0.1926
13837SOL    HW143279   0.169   3.646   4.869  0.0104 -1.0997  0.4051
13837SOL    HW243280   0.045   3.697   4.938  0.6766  1.4230 -0.1700
13838SOL     OW43281   4.274   1.470   1.434 -0.1461  0.3175  0.3336
13838SOL    HW143282   4.198   1.416   1.410  0.2753  0.4509 -1.4180
13838SOL    HW243283   4.334   1.462   1.360  1.2832  0.7523  1.3937
13839SOL     OW43284   6.556   4.510   8.810 -0.3269 -0.0622  0.0950
13839SOL    HW143285   6.555   4.465   8.726  1.4160 -0.2300  0.1243
13839SOL    HW243286   6.584   4.444   8.873  1.2485  0.7592  0.3060
13840SOL     OW43287   6.115   7.235   4.232 -0.8059  0.4704 -0.7490
13840SOL    HW143288   6.190   7.235   4.292  1.1212  0.3716 -2.9902
13840SOL    HW243289   6.087   7.326   4.228 -0.0326  0.7143 -0.7374
13841SOL     OW43290   9.648   2.978   3.260  0.2355 -0.2660  0.2228
13841SOL    HW143291   9.683   3.063   3.288 -0.0633  0.0270 -0.2963
13841SOL    HW243292   9.655   2.979   3.165  0.1116 -0.7777  0.2051
13842SOL     OW43293   6.848   3.376   5.791 -0.9719  0.7216  0.1099
13842SOL    HW143294   6.869   3.458   5.836  0.0741  0.1345  0.7563
13842SOL    HW243295   6.919   3.365   5.727 -1.1194  0.3359  0.0101
13843SOL     OW43296   3.236   3.896   0.013 -0.1292 -0.7156  0.2773
13843SOL    HW143297   3.158   3.945  -0.013  1.1272  0.8561 -0.6949
13843SOL    HW243298   3.274   3.865  -0.069  1.7107  0.8703  0.4573
13844SOL     OW43299   9.508   8.671   9.456  0.6361 -0.5701 -0.5073
13844SOL    HW143300   9.548   8.668   9.543 -1.2089 -0.1626  0.4018
13844SOL    HW243301   9.457   8.590   9.451 -0.8952  0.3559 -0.3611
13845SOL     OW43302   7.887   7.668   3.394 -0.5754  0.3476 -0.1586
13845SOL    HW143303   7.967   7.615   3.388 -0.6777  0.2819 -1.0957
13845SOL    HW243304   7.816   7.604   3.392 -0.6779  0.4693 -0.5252
13846SOL     OW43305   2.812   3.339   0.426 -0.2978  0.2937 -0.6351
13846SOL    HW143306   2.794   3.400   0.354  1.9960  0.7796 -0.8612
13846SOL    HW243307   2.837   3.395   0.499  1.0445 -0.3228 -0.6014
13847SOL     OW43308   4.311   5.086   6.038 -0.0413  0.2246  0.2524
13847SOL    HW143309   4.403   5.104   6.020 -0.0313  1.7234  1.5783
13847SOL    HW243310   4.286   5.021   5.973  1.8051  0.1863 -0.4757
13848SOL     OW43311   5.617   3.598   6.126  0.1039 -0.3514 -0.3317
13848SOL    HW143312   5.596   3.505   6.139  0.1686 -0.3405 -0.1331
13848SOL    HW243313   5.656   3.624   6.209 -2.9506  0.7237  0.9217
13849SOL     OW43314   5.460   6.675   6.355 -0.1564  0.1927  0.4153
13849SOL    HW143315   5.463   6.724   6.272  2.5174  1.4839  1.1362
13849SOL    HW243316   5.452   6.584   6.329  1.3762  0.5033 -1.3747
13850SOL     OW43317   9.810   1.183   1.485 -0.3543  0.1902  0.6191
13850SOL    HW143318   9.844   1.103   1.526  0.3453  0.4255  0.5155
13850SOL    HW243319   9.886   1.241   1.480 -0.9139  0.9700  0.9455
13851SOL     OW43320   2.317   3.601   9.718  0.1258  0.1104  0.3533
13851SOL    HW143321   2.376   3.527   9.733 -0.0669  0.2178  1.7227
13851SOL    HW243322   2.241   3.583   9.772 -0.2516  0.9520  0.1235
13852SOL     OW43323   4.507   4.824   3.382  0.2184  0.4209  0.9119
13852SOL    HW143324   4.561   4.745   3.378 -0.6279 -0.1857  1.0717
13852SOL    HW243325   4.428   4.796   3.429 -1.7178  0.3419 -2.1295
13853SOL     OW43326   7.199   6.604   3.349 -0.5634  0.0219 -0.6884
13853SOL    HW143327   7.147   6.561   3.417  0.0404 -0.4759 -0.5278
13853SOL    HW243328   7.230   6.531   3.294  1.3476  0.1271  0.1939
13854SOL     OW43329   7.343   7.320   1.950 -0.0704 -0.6131 -0.5341
13854SOL    HW143330   7.275   7.351   2.009 -0.7814 -1.5896 -0.8191
13854SOL    HW243331   7.369   7.235   1.986 -0.4482 -1.1752 -1.5583
13855SOL     OW43332   2.919   2.177   4.603  0.4300  0.2446  0.1576
13855SOL    HW143333   2.880   2.147   4.521 -0.1113 -0.0756  0.5278
13855SOL    HW243334   2.961   2.099   4.640  1.4369  0.5831 -0.2335
13856SOL     OW43335   6.246   5.607   4.584  0.7937  0.1029 -0.4123
13856SOL    HW143336   6.311   5.544   4.617  1.8784  0.9076 -0.9727
13856SOL    HW243337   6.206   5.643   4.663  0.8448 -0.5714 -0.0661
13857SOL     OW43338   8.174   9.244   7.336  1.0223  0.7399 -0.2663
13857SOL    HW143339   8.181   9.261   7.430  0.6084  1.9014 -0.4261
13857SOL    HW243340   8.263   9.253   7.303  1.1873  0.2147  0.0229
13858SOL     OW43341   5.029   2.163   0.658  0.0807 -0.5941  0.5123
13858SOL    HW143342   5.014   2.254   0.632 -1.5815 -1.0292 -0.1339
13858SOL    HW243343   5.056   2.119   0.578 -1.6143 -1.1814  0.2187
13859SOL     OW43344   2.078   4.449   9.748  0.2225 -0.2644 -0.1446
13859SOL    HW143345   2.147   4.443   9.682  0.8746 -0.6865  0.5718
13859SOL    HW243346   2.037   4.534   9.731  0.1660 -0.4968 -1.2918
13860SOL     OW43347   4.389   3.010   0.293  0.2288  0.0860 -0.1302
13860SOL    HW143348   4.474   3.048   0.271  0.7104 -0.8845 -0.0261
13860SOL    HW243349   4.356   3.063   0.365  1.0785  0.0363  0.3043
13861SOL     OW43350   4.021   3.696   2.650  0.1076  0.0253  0.2643
13861SOL    HW143351   3.973   3.702   2.733 -0.7681  0.5177 -0.2555
13861SOL    HW243352   3.985   3.619   2.607  0.2199  0.0484  0.1282
13862SOL     OW43353   4.124   9.765   3.002 -0.5250 -0.1086  0.5750
13862SOL    HW143354   4.139   9.715   3.083 -1.5140 -1.1116  0.1713
13862SOL    HW243355   4.148   9.704   2.932  1.3240  1.0936  0.0732
13863SOL     OW43356   2.349   7.087   7.883  0.1193  0.0449 -0.1996
13863SOL    HW143357   2.285   7.158   7.894 -1.1840 -1.0691 -0.2691
13863SOL    HW243358   2.368   7.085   7.789  0.8286  0.8418 -0.0812
13864SOL     OW43359   2.155   5.658   1.004 -0.6362  0.0833 -0.2889
13864SOL    HW143360   2.089   5.641   0.936 -1.2558 -3.7918  1.0186
13864SOL    HW243361   2.108   5.646   1.086  1.4165 -1.7101  0.7111
13865SOL     OW43362   7.990   4.643   3.941 -0.0711  0.2909  0.3514
13865SOL    HW143363   8.058   4.621   3.876 -1.2624 -0.3359 -0.7285
13865SOL    HW243364   7.921   4.686   3.890 -0.6729  0.5612  1.3632
13866SOL     OW43365   5.118   8.207   8.287 -0.1470 -0.2576  0.2261
13866SOL    HW143366   5.126   8.206   8.192 -1.5384 -0.4331  0.0870
13866SOL    HW243367   5.128   8.299   8.312 -2.3463  0.2036 -0.3804
13867SOL     OW43368   5.459   8.842   7.080 -0.2382 -0.5593  0.4461
13867SOL    HW143369   5.512   8.911   7.039  0.5094 -0.2152  1.9336
13867SOL    HW243370   5.374   8.848   7.036 -0.5346  1.9868  1.1758
13868SOL     OW43371   3.822   1.924   8.730 -0.2061  0.1080 -0.2373
13868SOL    HW143372   3.765   1.978   8.675  2.7547  0.8820 -2.8782
13868SOL    HW243373   3.872   1.872   8.668  0.0404 -2.6288  2.0706
13869SOL     OW43374   2.513   8.066   3.628 -0.1936  0.0801 -0.1853
13869SOL    HW143375   2.530   8.159   3.613  2.8371 -0.5668 -1.5980
13869SOL    HW243376   2.426   8.051   3.593 -1.0301  2.4903  0.7202
13870SOL     OW43377   1.727   1.340   8.803  0.2477 -0.3432  0.0805
13870SOL    HW143378   1.652   1.383   8.761  1.1992  1.3951  0.0609
13870SOL    HW243379   1.782   1.311   8.730  1.0044  1.0245  0.0879
13871SOL     OW43380   3.034   7.735   7.097 -0.2999  0.7581  0.5403
13871SOL    HW143381   2.989   7.818   7.086 -0.0480  0.7149 -0.9451
13871SOL    HW243382   2.970   7.678   7.140 -0.9703  1.2782  0.2307
13872SOL     OW43383   7.990   9.460   0.867 -0.4976 -0.5206 -0.6009
13872SOL    HW143384   7.899   9.458   0.898  0.1375  1.1774  1.6703
13872SOL    HW243385   8.042   9.459   0.947  1.5163 -1.6062 -1.8590
13873SOL     OW43386   4.739   4.154   3.200 -0.5376 -0.2023 -0.1009
13873SOL    HW143387   4.681   4.227   3.180  0.2274  0.4570  0.0579
13873SOL    HW243388   4.722   4.091   3.130 -1.9536 -0.3500  0.3279
13874SOL     OW43389   3.015   3.495   2.527 -0.3412 -0.2802  0.1649
13874SOL    HW143390   3.092   3.507   2.582 -0.9199  1.7244  0.5941
13874SOL    HW243391   3.012   3.400   2.512  2.2576 -0.4280  0.0101
13875SOL     OW43392   0.422   0.643   8.687  0.1886  0.0886  0.3340
13875SOL    HW143393   0.443   0.656   8.779  0.9087 -0.3668  0.2337
13875SOL    HW243394   0.505   0.654   8.641 -0.3453  1.4015 -0.3868
13876SOL     OW43395   0.883   1.605   6.048 -0.4697  0.4109  0.8480
13876SOL    HW143396   0.949   1.537   6.057 -1.5564 -0.8485 -0.2105
13876SOL    HW243397   0.855   1.625   6.137 -1.2545 -1.7081  1.1237
13877SOL     OW43398   2.688   5.293   3.267 -0.1586 -0.0653  0.4168
13877SOL    HW143399   2.745   5.338   3.204 -0.1979 -1.2814 -0.5254
13877SOL    HW243400   2.601   5.328   3.249  0.0387  0.6179  0.7621
13878SOL     OW43401   0.461   3.387   9.200 -0.0927 -0.7620 -0.3733
13878SOL    HW143402   0.434   3.475   9.175 -1.0674 -0.6593  0.9245
13878SOL    HW243403   0.495   3.348   9.119 -1.7966  0.0112 -1.5208
13879SOL     OW43404   8.020   0.881   5.697  0.1325  0.0404 -0.3272
13879SOL    HW143405   7.983   0.848   5.779 -0.2711  1.2818  0.0213
13879SOL    HW243406   8.002   0.813   5.633 -0.6301 -0.4238  0.3624
13880SOL     OW43407   7.673   5.758   6.929  0.1330  0.1763  0.1802
13880SOL    HW143408   7.644   5.816   6.858  1.8519  0.6667 -0.1790
13880SOL    HW243409   7.669   5.671   6.891 -2.1184  0.0412  0.6027
13881SOL     OW43410   5.120   7.829   6.091  0.2757  0.1654  0.1415
13881SOL    HW143411   5.026   7.845   6.100 -0.2724 -1.9750 -1.1114
13881SOL    HW243412   5.131   7.801   6.000  1.8602 -1.2079  0.7124
13882SOL     OW43413   6.574   1.772   5.558  0.2691  0.3048  0.6202
13882SOL    HW143414   6.533   1.687   5.548  1.2556 -0.3370  1.8054
13882SOL    HW243415   6.608   1.773   5.648  1.3209  1.4724  0.2467
13883SOL     OW43416   7.339   0.499   4.606  0.1852 -0.6302 -0.5192
13883SOL    HW143417   7.302   0.424   4.561 -1.1068  0.4696 -1.3331
13883SOL    HW243418   7.296   0.575   4.567  0.6266  0.4806  1.0546
13884SOL     OW43419   1.830   8.321   7.444 -0.5029 -0.2015  0.5599
13884SOL    HW143420   1.778   8.248   7.411 -0.3519  0.0738 -0.3117
13884SOL    HW243421   1.792   8.342   7.529 -0.5570 -1.2801  0.8079
13885SOL     OW43422   2.573   7.956   7.492  0.2535  0.3883 -0.5016
13885SOL    HW143423   2.486   7.993   7.503 -0.5708 -1.6027  0.0268
13885SOL    HW243424   2.632   8.031   7.500 -1.2030  1.3897  2.1924
13886SOL     OW43425   8.959   9.407   6.409  0.0887  0.2574  0.4221
13886SOL    HW143426   8.978   9.317   6.385 -1.6375  0.2659 -1.2313
13886SOL    HW243427   9.008   9.460   6.345 -0.5764  0.4090  0.0222
13887SOL     OW43428   4.285   5.902   5.452 -0.2477 -0.0584 -0.1310
13887SOL    HW143429   4.258   5.863   5.369  0.4989  0.5688 -0.6897
13887SOL    HW243430   4.380   5.915   5.442  0.2874 -1.9678  1.6506
13888SOL     OW43431   8.434   7.412   8.011  0.2127  0.2429 -0.8583
13888SOL    HW143432   8.436   7.398   8.106  1.2208  0.4448 -0.8459
13888SOL    HW243433   8.343   7.395   7.987 -0.2431  0.9554  0.2606
13889SOL     OW43434   2.354   1.073   1.683 -0.4480 -0.2325 -0.1508
13889SOL    HW143435   2.420   1.093   1.749 -1.0663 -0.8202  0.6511
13889SOL    HW243436   2.272   1.106   1.719 -0.8463 -0.8503 -0.4730
13890SOL     OW43437   3.481   8.154   7.775  0.0851 -0.1957 -0.4379
13890SOL    HW143438   3.486   8.065   7.739 -1.7284  0.2767 -2.0240
13890SOL    HW243439   3.518   8.210   7.706 -1.4421  0.5251 -0.7048
13891SOL     OW43440   8.065   9.149   9.086  0.2696 -0.4001  0.6026
13891SOL    HW143441   8.068   9.055   9.102  1.3008 -0.1741  1.8387
13891SOL    HW243442   8.128   9.164   9.015 -0.3723 -0.7055 -0.0469
13892SOL     OW43443   3.940   0.519   8.391 -0.9921 -0.0217 -0.2579
13892SOL    HW143444   3.949   0.610   8.418  0.0461 -0.2278  0.1446
13892SOL    HW243445   4.018   0.503   8.337 -0.6280 -0.9521  0.5164
13893SOL     OW43446   7.951   2.071   4.275  0.4153  0.0308 -0.2623
13893SOL    HW143447   7.871   2.098   4.229  0.5234  0.2532 -0.3232
13893SOL    HW243448   7.936   2.096   4.366 -0.2009 -1.2957  0.0177
13894SOL     OW43449   3.473   4.246   2.993  0.8238 -0.3269  0.0282
13894SOL    HW143450   3.439   4.189   2.924 -0.5339 -1.5787  1.6461
13894SOL    HW243451   3.450   4.334   2.965  2.2714 -0.5480 -2.1486
13895SOL     OW43452   7.374   5.907   3.035 -0.4343 -0.3828  0.8996
13895SOL    HW143453   7.321   5.874   3.108 -0.0110 -0.7996  1.0321
13895SOL    HW243454   7.311   5.938   2.971 -0.8740 -1.6468  0.6830
13896SOL     OW43455   9.627   8.006   6.727 -0.2782  0.0921  0.1958
13896SOL    HW143456   9.651   8.075   6.665  2.3034 -0.7303  0.1787
13896SOL    HW243457   9.606   7.931   6.673  0.8669 -0.2942  0.2732
13897SOL     OW43458   3.927   5.257   2.871 -0.0762 -0.8619  0.3314
13897SOL    HW143459   3.926   5.348   2.840  0.2782 -1.1273 -0.4996
13897SOL    HW243460   3.946   5.264   2.964  0.6996 -0.1098  0.1318
13898SOL     OW43461   9.537   1.615   4.695  0.3423  0.8550 -0.3913
13898SOL    HW143462   9.472   1.550   4.668  0.5136  1.0149 -1.2103
13898SOL    HW243463   9.487   1.680   4.744  0.1443  0.1972  0.3074
13899SOL     OW43464   1.862   9.168   0.025 -0.6219 -0.7448  0.1821
13899SOL    HW143465   1.892   9.078   0.042  1.1763 -0.1804  0.1902
13899SOL    HW243466   1.931   9.223   0.062 -0.1304  0.6106 -2.5353
13900SOL     OW43467   8.375   7.058   3.605  0.1376  0.2621 -0.2528
13900SOL    HW143468   8.335   7.019   3.682  0.7592 -0.3192 -0.2195
13900SOL    HW243469   8.348   7.003   3.532  0.2899  0.2859 -0.3286
13901SOL     OW43470   8.975   2.104   4.631 -0.3054 -0.3212  0.2605
13901SOL    HW143471   8.942   2.189   4.662 -0.2302 -0.5115  0.8614
13901SOL    HW243472   9.044   2.081   4.693 -0.2514 -0.7729  0.0324
13902SOL     OW43473   2.073   9.095   4.873 -0.3686 -0.5099 -0.0565
13902SOL    HW143474   2.072   9.071   4.780  0.0766  0.8190 -0.4295
13902SOL    HW243475   2.135   9.034   4.913 -1.1770 -1.6205 -0.4629
13903SOL     OW43476   8.766   6.372   2.054 -0.1984 -0.3919  0.1618
13903SOL    HW143477   8.806   6.435   1.994  1.1218 -1.6029 -0.2997
13903SOL    HW243478   8.775   6.288   2.009 -0.7279 -1.0883  1.3279
13904SOL     OW43479   2.661   0.945   4.675 -0.2417 -0.1378 -0.2326
13904SOL    HW143480   2.696   0.936   4.587 -0.3709 -1.8128 -0.1400
13904SOL    HW243481   2.629   0.858   4.697 -0.2584  0.2642  1.4550
13905SOL     OW43482   8.111   1.430   4.779  0.5833  0.6797  0.2690
13905SOL    HW143483   8.116   1.402   4.687 -0.0579 -0.0195  0.4419
13905SOL    HW243484   8.026   1.399   4.809 -0.2510  2.9957  0.4331
13906SOL     OW43485   2.513   2.570   8.615 -0.0540  0.1793  0.2842
13906SOL    HW143486   2.470   2.634   8.558  1.0951  0.5122 -0.2494
13906SOL    HW243487   2.596   2.612   8.638  0.2227 -0.6610  0.8355
13907SOL     OW43488   2.599   9.783   6.008 -0.5290 -0.5996 -0.7535
13907SOL    HW143489   2.589   9.802   6.102 -3.0612 -0.9620 -0.8602
13907SOL    HW243490   2.692   9.797   5.990 -0.2404  0.9099  1.4858
13908SOL     OW43491   5.526   7.489   8.843 -0.0085 -0.1025 -0.0219
13908SOL    HW143492   5.475   7.490   8.925  2.4415  0.6076  1.6162
13908SOL    HW243493   5.555   7.398   8.833  0.2438 -0.0577  0.2855
13909SOL     OW43494   4.383   9.613   4.153  0.0139  0.0656  0.1587
13909SOL    HW143495   4.355   9.685   4.095 -0.6921  1.5453  2.2303
13909SOL    HW243496   4.308   9.554   4.156 -0.0758  0.1612 -0.1461
13910SOL     OW43497   8.293   4.546   7.578  0.5665  0.1103  0.2029
13910SOL    HW143498   8.329   4.485   7.514  0.4712 -0.0245  0.2770
13910SOL    HW243499   8.213   4.504   7.609  0.8845 -0.0720  0.7963
13911SOL     OW43500   1.354   4.438   6.586 -0.3517 -0.1662 -0.4670
13911SOL    HW143501   1.333   4.490   6.508 -3.4055  1.4788  1.2801
13911SOL    HW243502   1.357   4.501   6.657  0.0955 -1.8841  1.1145
13912SOL     OW43503   2.164   0.907   5.436 -0.1635  0.3594 -0.6815
13912SOL    HW143504   2.255   0.891   5.462 -0.9226 -3.5258  0.1561
13912SOL    HW243505   2.164   0.898   5.341  0.1748 -0.7319 -0.5893
13913SOL     OW43506   5.657   5.781   4.952  0.0738 -0.0522 -0.0582
13913SOL    HW143507   5.713   5.857   4.937 -0.3953  0.3366  0.1321
13913SOL    HW243508   5.699   5.734   5.024  1.0525 -0.6645 -0.9857
13914SOL     OW43509   0.028   7.236   1.984  0.4246 -0.0398  0.6472
13914SOL    HW143510   0.044   7.235   1.890 -0.7821 -1.7875  0.3962
13914SOL    HW243511  -0.002   7.325   2.002  1.0888  0.4477 -0.5274
13915SOL     OW43512   1.307   2.846   9.758 -0.7542 -0.2329  0.2578
13915SOL    HW143513   1.321   2.783   9.829 -2.7730  0.0675  0.9739
13915SOL    HW243514   1.376   2.825   9.695  0.0381 -1.6439  1.5105
13916SOL     OW43515   8.432   4.443   3.371  0.7176  0.6131  0.3932
13916SOL    HW143516   8.394   4.385   3.436 -1.0274  0.5963 -0.5520
13916SOL    HW243517   8.395   4.529   3.391  2.7461  1.3160  1.3722
13917SOL     OW43518   1.965   3.490   6.552 -0.2398  0.3042  0.1014
13917SOL    HW143519   2.014   3.538   6.486  0.6673  0.8587  1.1532
13917SOL    HW243520   1.873   3.501   6.526  0.1454 -0.8301 -1.9345
13918SOL     OW43521   3.642   4.278   4.957 -0.0283 -0.0681 -0.1376
13918SOL    HW143522   3.648   4.183   4.951 -0.3202 -0.0138 -1.5274
13918SOL    HW243523   3.725   4.306   4.996 -0.5772 -0.9887  1.8086
13919SOL     OW43524   2.858   5.843   8.268 -0.0079 -0.2752  0.3074
13919SOL    HW143525   2.885   5.754   8.246  1.1673 -0.3135  1.7531
13919SOL    HW243526   2.877   5.852   8.361  1.1390  1.9073 -0.0681
13920SOL     OW43527   4.475   3.678   6.776 -0.0045 -0.4136 -0.0034
13920SOL    HW143528   4.509   3.755   6.729  1.9780 -1.0155  0.3400
13920SOL    HW243529   4.421   3.633   6.712  1.7862 -0.6515 -1.4301
13921SOL     OW43530   6.686   7.118   0.218  0.9189 -0.2310  0.4947
13921SOL    HW143531   6.630   7.194   0.205 -0.8235 -1.6931 -1.2993
13921SOL    HW243532   6.769   7.154   0.250 -0.4237  2.1986  1.5249
13922SOL     OW43533   1.564   4.276   6.235 -0.2807  0.2394  0.1278
13922SOL    HW143534   1.486   4.248   6.188 -1.3833  2.0741  0.7667
13922SOL    HW243535   1.543   4.261   6.327  0.5352 -0.2161  0.2465
13923SOL     OW43536   9.010   7.595   7.401 -0.1942 -0.2083  0.2425
13923SOL    HW143537   8.915   7.586   7.391 -0.1914 -0.4705  0.4251
13923SOL    HW243538   9.038   7.511   7.437  0.1027 -0.1164  0.2298
13924SOL     OW43539   3.394   2.558   2.338 -0.1895  0.5486  0.2784
13924SOL    HW143540   3.330   2.528   2.403  1.0293  0.9155  1.6968
13924SOL    HW243541   3.475   2.513   2.360  0.6872  1.9342  0.0536
13925SOL     OW43542   4.615   2.225   9.225 -0.1587 -0.0684  0.6541
13925SOL    HW143543   4.615   2.317   9.253 -0.4569  0.0096  0.4038
13925SOL    HW243544   4.610   2.229   9.129  0.9232 -0.3301  0.5675
13926SOL     OW43545   0.572   1.289   8.382 -0.9085 -0.5610 -0.2422
13926SOL    HW143546   0.497   1.316   8.328 -1.6634 -0.9821  0.5700
13926SOL    HW243547   0.640   1.268   8.319 -0.6332  2.1685 -0.9384
13927SOL     OW43548   1.987   1.110   2.046  0.3597 -0.2206  0.2660
13927SOL    HW143549   1.978   1.167   1.970 -0.9986 -1.3958 -0.4944
13927SOL    HW243550   2.001   1.171   2.119 -1.6255  1.1525 -0.4151
13928SOL     OW43551   9.515   9.673   7.228 -0.1365  0.5845 -0.2669
13928SOL    HW143552   9.517   9.598   7.170  0.2167  1.1266 -0.9615
13928SOL    HW243553   9.502   9.749   7.171  1.4080  1.2551  0.2241
13929SOL     OW43554   0.942   7.815   0.417  0.2565 -0.4041  0.2857
13929SOL    HW143555   0.855   7.776   0.427 -0.6887  2.0642  3.1045
13929SOL    HW243556   1.001   7.752   0.458 -0.6794 -0.6739  1.2710
13930SOL     OW43557   5.133   7.919   8.332 -0.4956  0.2950 -0.2032
13930SOL    HW143558   5.126   8.007   8.294 -0.9372  1.2027  1.8871
13930SOL    HW243559   5.104   7.929   8.422  0.6344 -1.7616  0.4504
13931SOL     OW43560   7.639   0.987   4.245  0.6506 -0.2124  0.5163
13931SOL    HW143561   7.710   0.937   4.202 -0.0488 -0.0009 -0.9389
13931SOL    HW243562   7.604   0.926   4.310  0.0368 -1.5685 -0.9981
13932SOL     OW43563   8.713   8.138   8.517  0.6935  0.0320 -0.3515
13932SOL    HW143564   8.690   8.084   8.442  0.1089  1.1347 -0.9865
13932SOL    HW243565   8.630   8.180   8.543  1.1000  0.5070  0.2156
13933SOL     OW43566   2.906   7.216   1.743  0.3099 -0.4014  0.3950
13933SOL    HW143567   2.993   7.184   1.721  0.5180 -0.2529  0.9997
13933SOL    HW243568   2.846   7.155   1.699  0.6655  1.3083 -2.8314
13934SOL     OW43569   0.618   9.113   4.266 -0.6584  0.0269 -0.4120
13934SOL    HW143570   0.579   9.036   4.224 -0.3756  0.0023 -0.6330
13934SOL    HW243571   0.664   9.078   4.343 -0.0591 -0.1009 -0.8214
13935SOL     OW43572   2.067   3.299   1.026 -0.2991  0.2145 -0.5084
13935SOL    HW143573   2.077   3.222   1.081  0.0778 -0.0559 -0.9471
13935SOL    HW243574   2.066   3.265   0.937 -0.2140  0.7067 -0.7012
13936SOL     OW43575   4.718   4.750   4.353 -0.0050  0.1234 -0.0741
13936SOL    HW143576   4.778   4.756   4.428 -1.9620  0.9723  1.5212
13936SOL    HW243577   4.724   4.836   4.312  0.7602 -0.2031 -0.6593
13937SOL     OW43578   0.618   0.752   0.475  0.6133  0.5127 -0.0292
13937SOL    HW143579   0.651   0.662   0.465  1.4479  0.7215  0.7520
13937SOL    HW243580   0.523   0.744   0.461  0.7378 -0.4032 -0.4606
13938SOL     OW43581   0.464   0.302   4.754  0.0535 -0.0257 -0.4644
13938SOL    HW143582   0.444   0.241   4.824  0.8779 -0.6412 -0.7457
13938SOL    HW243583   0.558   0.292   4.739  0.2227  1.3651 -0.4775
13939SOL     OW43584   2.592   7.924   1.464 -1.0778  0.2351  0.1704
13939SOL    HW143585   2.621   8.015   1.461 -0.8746  0.1767  0.3148
13939SOL    HW243586   2.525   7.918   1.397  0.6085 -0.1019 -1.5680
13940SOL     OW43587   5.844   4.934   7.132  0.0190 -0.5206 -0.4222
13940SOL    HW143588   5.921   4.979   7.095  0.4885 -0.8510  0.1298
13940SOL    HW243589   5.870   4.842   7.134 -0.0058 -0.5096  0.7021
13941SOL     OW43590   0.746   7.201   3.947  0.1760 -0.2155 -0.3336
13941SOL    HW143591   0.755   7.144   3.870 -0.0479 -0.9862  0.1982
13941SOL    HW243592   0.765   7.143   4.021  0.9502  0.6523  0.1637
13942SOL     OW43593   2.412   8.356   4.265  0.0675 -0.1395  0.3852
13942SOL    HW143594   2.487   8.373   4.208  0.2504 -0.4633  0.5210
13942SOL    HW243595   2.338   8.343   4.205  0.1794 -0.1049  0.2391
13943SOL     OW43596   4.415   5.439   5.736  0.1116 -0.0080  0.6674
13943SOL    HW143597   4.430   5.345   5.727  1.0640  0.2141 -0.2671
13943SOL    HW243598   4.379   5.449   5.824 -2.7715 -1.5365 -0.1903
13944SOL     OW43599   9.042   9.821   1.406 -0.0334  0.6671  0.1706
13944SOL    HW143600   9.023   9.739   1.451 -1.5182  0.4848 -0.6981
13944SOL    HW243601   9.137   9.824   1.398  0.0220 -1.2203 -0.2227
13945SOL     OW43602   8.294   4.520   2.913 -0.0488  0.4919 -0.3059
13945SOL    HW143603   8.281   4.615   2.912  0.6346  0.6194 -2.3194
13945SOL    HW243604   8.388   4.508   2.926  0.2297  0.2164 -2.2744
13946SOL     OW43605   9.532   1.753   5.091 -0.2840  0.3990  0.0708
13946SOL    HW143606   9.605   1.696   5.070 -0.1012  0.7727 -0.3375
13946SOL    HW243607   9.548   1.781   5.181 -0.4420 -0.2812  0.3165
13947SOL     OW43608   8.369   4.965   5.854 -0.0790  0.4689 -0.0475
13947SOL    HW143609   8.446   4.923   5.814  0.5085  1.1439  0.3457
13947SOL    HW243610   8.294   4.917   5.818  0.4768  0.4565 -1.2429
13948SOL     OW43611   4.418   0.181   0.981  0.0017  0.0496 -0.0466
13948SOL    HW143612   4.349   0.119   0.957  0.1958 -0.2727  0.2183
13948SOL    HW243613   4.488   0.165   0.917  0.2600 -0.3643  0.3357
13949SOL     OW43614   0.926   2.294   2.333 -0.0060 -0.6800  0.0210
13949SOL    HW143615   0.959   2.235   2.265 -0.2409 -0.5720 -0.1858
13949SOL    HW243616   0.882   2.236   2.395  1.7738 -1.0116  1.0514
13950SOL     OW43617   2.227   6.426   7.386 -0.1115  0.2217 -0.0090
13950SOL    HW143618   2.149   6.480   7.402 -2.2201 -2.0811 -1.6896
13950SOL    HW243619   2.202   6.340   7.418  1.2845 -0.8592 -1.6860
13951SOL     OW43620   0.058   8.888   3.295 -0.7058 -0.1159  0.0501
13951SOL    HW143621  -0.002   8.856   3.363  1.6965 -4.1303  0.6219
13951SOL    HW243622   0.025   8.849   3.214 -0.0202 -0.7640  0.0648
13952SOL     OW43623   4.705   2.164   6.915 -0.1818 -0.1878 -0.4319
13952SOL    HW143624   4.793   2.135   6.939  0.2470 -0.0530 -1.8185
13952SOL    HW243625   4.656   2.082   6.903 -0.0050 -0.2743 -0.5648
13953SOL     OW43626   5.680   6.260   4.688 -0.0545  0.4292  0.4445
13953SOL    HW143627   5.600   6.278   4.737 -1.2139  0.9038 -1.5579
13953SOL    HW243628   5.654   6.197   4.621  1.8472 -1.4252  1.3183
13954SOL     OW43629   1.933   4.915   3.975  0.0933  0.2445  0.0178
13954SOL    HW143630   1.980   4.832   3.979  1.2586  0.9307  1.9813
13954SOL    HW243631   1.841   4.890   3.979  0.4377 -0.9621  1.2676
13955SOL     OW43632   2.956   6.868   6.109  0.3448 -0.2396 -0.8252
13955SOL    HW143633   3.006   6.805   6.162  0.2989  0.3562 -0.0598
13955SOL    HW243634   2.946   6.944   6.166 -0.7464 -0.0414 -1.2647
13956SOL     OW43635   9.160   4.081   6.664 -0.1677 -0.2577  0.0135
13956SOL    HW143636   9.100   4.021   6.708  1.5172 -1.9180  0.1678
13956SOL    HW243637   9.155   4.056   6.572  0.6693 -0.7911  0.1028
13957SOL     OW43638   3.791   9.172   8.247  0.1102 -0.0792  0.3549
13957SOL    HW143639   3.756   9.191   8.334 -1.9711 -1.1039 -0.1929
13957SOL    HW243640   3.763   9.082   8.229  1.0080 -0.0925 -1.1461
13958SOL     OW43641   8.926   9.840   4.205  0.1668  0.0584 -0.4094
13958SOL    HW143642   8.865   9.766   4.211 -0.3358  0.5797  2.6368
13958SOL    HW243643   8.881   9.904   4.150 -0.5270 -0.8768 -0.9554
13959SOL     OW43644   2.234   9.784   1.304  0.0370 -0.7319  0.3580
13959SOL    HW143645   2.273   9.727   1.369 -1.4411 -0.9167  1.1099
13959SOL    HW243646   2.301   9.791   1.235  1.1589 -1.4491  1.3437
13960SOL     OW43647   4.848   4.899   0.632 -0.1418  0.2272  0.0464
13960SOL    HW143648   4.894   4.975   0.669  1.8599 -0.4659 -0.8484
13960SOL    HW243649   4.870   4.827   0.690  1.1035 -0.3916 -1.1433
13961SOL     OW43650   6.902   5.261   3.578 -0.2087 -0.2014 -0.5929
13961SOL    HW143651   6.863   5.229   3.660  1.4992  1.5787  1.0206
13961SOL    HW243652   6.965   5.328   3.606 -0.2681  1.2021 -3.4426
13962SOL     OW43653   1.526   7.703   3.965  0.0046 -0.0836 -0.5552
13962SOL    HW143654   1.551   7.613   3.942 -1.7054 -1.1252  1.3898
13962SOL    HW243655   1.568   7.757   3.897  1.9600 -2.2153 -1.1926
13963SOL     OW43656   6.424   3.574   1.956 -0.0954  0.6111  0.1057
13963SOL    HW143657   6.383   3.497   1.917  0.0153  1.6297 -2.1613
13963SOL    HW243658   6.516   3.550   1.965 -0.1485  0.3178 -0.1125
13964SOL     OW43659   6.674   1.713   9.314 -0.1927 -0.2182  0.3421
13964SOL    HW143660   6.656   1.795   9.269  1.5028 -0.9051 -1.7507
13964SOL    HW243661   6.633   1.645   9.260 -0.1242 -0.9051  1.1185
13965SOL     OW43662   1.546   5.257   0.628 -0.2872 -0.6058 -0.1312
13965SOL    HW143663   1.589   5.214   0.555 -1.0840  0.2680 -1.1564
13965SOL    HW243664   1.534   5.348   0.599 -0.4235 -0.1777  1.1714
13966SOL     OW43665   3.373   7.508   0.001 -0.4796  0.8339 -0.8444
13966SOL    HW143666   3.329   7.529  -0.081 -1.0513  0.7815 -0.5589
13966SOL    HW243667   3.411   7.421  -0.014 -1.9520  0.1033 -0.5327
13967SOL     OW43668   6.396   6.702   3.629 -0.6077 -0.2278 -0.2384
13967SOL    HW143669   6.307   6.736   3.624 -0.1256  1.2539  0.6177
13967SOL    HW243670   6.433   6.741   3.708  0.4451 -1.7237  0.0585
13968SOL     OW43671   5.721   5.130   6.796 -0.4713  0.2182 -0.1586
13968SOL    HW143672   5.670   5.095   6.869 -1.2850 -0.2031 -0.9094
13968SOL    HW243673   5.765   5.054   6.759 -1.8757  0.0103 -1.5073
13969SOL     OW43674   9.201   5.324   8.283 -0.0431  0.1955  0.0474
13969SOL    HW143675   9.189   5.344   8.375  0.6044 -0.0486  0.1921
13969SOL    HW243676   9.216   5.409   8.241 -0.1068  0.2834  0.2027
13970SOL     OW43677   7.826   9.372   7.240  0.1203  0.0589 -0.4770
13970SOL    HW143678   7.777   9.366   7.321  1.0220  1.4798  0.2013
13970SOL    HW243679   7.905   9.421   7.262  0.5383  0.2187 -2.1402
13971SOL     OW43680   0.565   2.638   3.385 -0.4011 -1.0816 -0.6272
13971SOL    HW143681   0.543   2.622   3.477  1.9885  1.1300  0.4635
13971SOL    HW243682   0.619   2.563   3.360 -0.0948 -1.1423  0.1805
13972SOL     OW43683   9.605   7.809   0.024 -0.0647 -0.3298  0.0511
13972SOL    HW143684   9.610   7.783  -0.068 -2.5223 -0.3782 -0.1307
13972SOL    HW243685   9.569   7.732   0.069  2.5645 -0.8881  1.3990
13973SOL     OW43686   2.565   2.328   2.891  0.4800 -0.1870  0.0044
13973SOL    HW143687   2.478   2.290   2.882 -0.5914  2.2317 -0.7609
13973SOL    HW243688   2.589   2.311   2.982 -0.7748 -0.9220  0.2191
13974SOL     OW43689   1.117   7.747   8.941  0.1071  0.5233 -0.1301
13974SOL    HW143690   1.078   7.740   8.854 -0.1210  1.8306 -0.1512
13974SOL    HW243691   1.156   7.834   8.943  2.4215 -0.4498  0.1507
13975SOL     OW43692   7.716   1.946   6.833 -0.5892  0.1274 -0.1601
13975SOL    HW143693   7.730   1.852   6.837  0.9880  0.3890  1.5355
13975SOL    HW243694   7.621   1.956   6.836 -0.7448 -1.3594  1.3699
13976SOL     OW43695   8.107   8.642   7.533 -0.2644  0.6246 -0.2221
13976SOL    HW143696   8.123   8.590   7.612 -0.4731  0.3486 -0.3616
13976SOL    HW243697   8.014   8.632   7.517  0.2647 -2.0749 -2.4039
13977SOL     OW43698   6.822   5.462   5.249  0.1150  0.0735 -0.2770
13977SOL    HW143699   6.742   5.412   5.265  1.1002 -1.8738 -1.0247
13977SOL    HW243700   6.813   5.493   5.159  0.6207 -1.0701 -0.7444
13978SOL     OW43701   8.687   6.978   2.091 -0.2639  0.1796 -0.1882
13978SOL    HW143702   8.612   7.017   2.046 -1.2161 -1.7006 -0.3062
13978SOL    HW243703   8.723   6.916   2.028 -0.0658 -0.6551  0.7187
13979SOL     OW43704   1.251   6.924   2.469 -0.1702  0.3512 -0.5438
13979SOL    HW143705   1.240   7.017   2.489  0.8555  0.6396 -1.2179
13979SOL    HW243706   1.331   6.899   2.515  0.5760  0.2849 -1.8194
13980SOL     OW43707   9.545   7.369   0.037  0.3001 -0.0142  0.1980
13980SOL    HW143708   9.570   7.338  -0.050 -1.2960  3.0330 -1.5577
13980SOL    HW243709   9.449   7.370   0.034  0.2466  1.1237  1.5717
13981SOL     OW43710   3.594   8.699   3.824 -0.2982 -0.2737  0.4139
13981SOL    HW143711   3.537   8.690   3.901 -1.3667  0.0186 -0.3206
13981SOL    HW243712   3.651   8.774   3.845 -1.2774  0.4632  0.5126
13982SOL     OW43713   2.739   7.718   8.155 -0.1409 -0.1462  0.7166
13982SOL    HW143714   2.805   7.750   8.093  1.1366  0.6443  2.3767
13982SOL    HW243715   2.656   7.734   8.112  0.7299 -1.3569 -1.5417
13983SOL     OW43716   1.051   3.668   0.776 -0.1424 -0.1346 -0.0565
13983SOL    HW143717   1.079   3.734   0.713 -0.5378  0.3485  0.2567
13983SOL    HW243718   1.035   3.590   0.724 -0.6600  0.3161 -0.5955
13984SOL     OW43719   9.516   4.646   0.947 -0.1597  0.6856 -0.2801
13984SOL    HW143720   9.479   4.561   0.922  0.5238  0.6698 -1.2824
13984SOL    HW243721   9.463   4.710   0.900  1.7368  0.6174 -2.7338
13985SOL     OW43722   5.320   3.616   3.697 -0.0450 -0.3589  0.0360
13985SOL    HW143723   5.254   3.563   3.743  0.4185 -0.7572  0.2579
13985SOL    HW243724   5.314   3.702   3.738  0.9060 -0.9088  1.4433
13986SOL     OW43725   2.930   4.294   8.372 -0.3612 -0.0180 -0.2022
13986SOL    HW143726   3.016   4.311   8.411 -1.1701 -0.5594  1.9233
13986SOL    HW243727   2.927   4.351   8.295  1.6564  0.4527  0.0250
13987SOL     OW43728   0.487   4.241   3.309 -0.1504  0.0481  0.1628
13987SOL    HW143729   0.414   4.288   3.350 -0.2258  0.2258 -0.1722
13987SOL    HW243730   0.519   4.302   3.242  0.7777  0.2728  0.8052
13988SOL     OW43731   5.174   4.304   9.753 -0.1006 -0.0308  0.3587
13988SOL    HW143732   5.172   4.332   9.844  0.5277 -0.4888  0.5120
13988SOL    HW243733   5.110   4.362   9.709  0.5491  1.0795  0.8310
13989SOL     OW43734   8.604   8.889   9.579 -0.1469 -0.0651  0.4454
13989SOL    HW143735   8.661   8.955   9.620 -0.7151  0.0392  1.0913
13989SOL    HW243736   8.542   8.865   9.648  0.5499 -1.8862  0.4933
13990SOL     OW43737   3.451   4.420   6.241  0.2567  0.5652  0.1004
13990SOL    HW143738   3.480   4.443   6.153 -1.6017  0.0735 -0.6916
13990SOL    HW243739   3.357   4.442   6.242 -0.2635 -1.4453  1.2130
13991SOL     OW43740   1.996   1.236   3.493  0.0495 -0.2521  0.7054
13991SOL    HW143741   2.053   1.160   3.506  0.8502  0.5722  2.2623
13991SOL    HW243742   2.056   1.309   3.479 -0.7194  0.0402 -1.3338
13992SOL     OW43743   1.805   5.036   3.264 -0.4112 -0.0193 -0.0628
13992SOL    HW143744   1.894   5.046   3.299 -0.4078 -0.4181  0.0423
13992SOL    HW243745   1.806   5.086   3.183 -0.1677  0.2023  0.0733
13993SOL     OW43746   2.533   9.576   4.883  0.3912  0.1009  0.0682
13993SOL    HW143747   2.456   9.598   4.831  0.1652 -0.3153  0.2200
13993SOL    HW243748   2.597   9.545   4.819 -0.1213 -1.0605  0.0836
13994SOL     OW43749   8.425   3.402   6.939  0.0469 -0.1264  0.6947
13994SOL    HW143750   8.380   3.318   6.922 -2.4496  0.8022  2.1453
13994SOL    HW243751   8.472   3.420   6.858  0.0792 -2.5721  0.0741
13995SOL     OW43752   6.246   6.780   7.859  0.6097  0.1721  0.1124
13995SOL    HW143753   6.223   6.728   7.936 -0.6660 -0.5322 -0.7142
13995SOL    HW243754   6.205   6.734   7.786  1.0195  1.3338 -0.8748
13996SOL     OW43755   9.429   7.690   8.615 -0.1404  0.4847 -0.4022
13996SOL    HW143756   9.367   7.730   8.553 -2.3478  0.6762  1.7626
13996SOL    HW243757   9.376   7.672   8.693  1.9309 -2.0322  0.5634
13997SOL     OW43758   6.702   5.145   3.140  0.6237  0.5475  0.2012
13997SOL    HW143759   6.658   5.223   3.106  0.3212  1.0190  1.5944
13997SOL    HW243760   6.642   5.112   3.207  0.0357 -1.7848 -1.3732
13998SOL     OW43761   2.123   8.086   5.337  0.0820  0.1271  0.1739
13998SOL    HW143762   2.167   8.170   5.323  0.8212 -0.0818  1.1739
13998SOL    HW243763   2.118   8.047   5.249  0.3022  0.9317 -0.2035
13999SOL     OW43764   9.223   5.782   1.765 -0.3239 -0.4003 -0.0962
13999SOL    HW143765   9.300   5.728   1.785 -0.0197  0.5992  1.5621
13999SOL    HW243766   9.150   5.720   1.763  0.3915 -1.2454 -0.9007
14000SOL     OW43767   3.694   2.965   4.379  0.2642  0.1351 -0.2733
14000SOL    HW143768   3.768   2.965   4.319  0.7503  1.6544  0.2751
14000SOL    HW243769   3.624   3.009   4.330  0.2592  0.2176 -0.1929
14001SOL     OW43770   8.538   4.056   4.173  0.2432 -0.3627  0.7655
14001SOL    HW143771   8.617   4.081   4.220  1.9683 -2.9905 -0.5275
14001SOL    HW243772   8.557   4.075   4.082 -1.2205  0.2960  0.5638
14002SOL     OW43773   5.535   4.736   3.233 -0.6032  0.1989  0.6966
14002SOL    HW143774   5.450   4.755   3.272 -1.1481  0.0473 -0.3731
14002SOL    HW243775   5.515   4.713   3.142  0.8241  4.0335 -0.8116
14003SOL     OW43776   6.586   0.241   9.124 -0.6111  0.2119 -0.2293
14003SOL    HW143777   6.668   0.194   9.142 -0.9067  0.5743  2.5013
14003SOL    HW243778   6.611   0.309   9.062  0.7205 -0.8536 -0.9368
14004SOL     OW43779   2.683   0.470   4.780 -0.0029  0.4835 -1.0809
14004SOL    HW143780   2.727   0.425   4.709  0.4492  0.0993 -0.5604
14004SOL    HW243781   2.613   0.410   4.807  0.0028  0.5062 -1.0154
14005SOL     OW43782   5.324   3.269   6.027 -0.7964  0.1248 -0.0420
14005SOL    HW143783   5.418   3.285   6.017 -0.9463  0.5406 -0.9653
14005SOL    HW243784   5.315   3.174   6.022 -0.4922  0.1220 -0.7416
14006SOL     OW43785   1.949   6.473   4.064 -0.0051 -0.1799  0.7651
14006SOL    HW143786   1.948   6.564   4.036 -1.6703 -0.6901 -1.0631
14006SOL    HW243787   1.860   6.457   4.096  0.2528 -1.1639  1.0396
14007SOL     OW43788   1.017   1.969   8.859 -0.2789  0.1616 -0.0481
14007SOL    HW143789   1.071   1.891   8.865 -0.6719 -0.1569 -0.5938
14007SOL    HW243790   1.054   2.029   8.925  0.4081 -0.2375 -0.0630
14008SOL     OW43791   8.791   8.955   0.529 -0.4921  0.4207 -0.4178
14008SOL    HW143792   8.772   8.927   0.619  0.8291 -0.8711 -0.5040
14008SOL    HW243793   8.715   8.928   0.479  0.0487 -1.6408 -0.1960
14009SOL     OW43794   5.839   9.234   4.140 -0.1893 -0.2987 -0.0172
14009SOL    HW143795   5.826   9.172   4.068 -0.6326 -1.4536  1.0344
14009SOL    HW243796   5.758   9.231   4.190  1.3724 -2.4034  2.6755
14010SOL     OW43797   1.176   1.509   2.624 -0.2215 -0.3761  0.2201
14010SOL    HW143798   1.090   1.532   2.656 -0.0056 -1.0067  1.3081
14010SOL    HW243799   1.225   1.591   2.622 -0.5989 -0.1486  0.3788
14011SOL     OW43800   6.492   8.042   6.749  0.4240 -0.6950 -0.0189
14011SOL    HW143801   6.475   8.122   6.799 -0.4087 -0.5256 -0.5687
14011SOL    HW243802   6.583   8.020   6.771  0.3170 -0.2083  0.9832
14012SOL     OW43803   0.283   4.016   2.589  0.1274 -0.1087  0.0826
14012SOL    HW143804   0.363   4.039   2.541  0.8060 -0.9292  0.7929
14012SOL    HW243805   0.214   4.015   2.523  0.7230  0.4733 -0.5605
14013SOL     OW43806   0.447   7.744   0.793  0.0034 -0.4818 -0.1439
14013SOL    HW143807   0.496   7.667   0.766  0.1710  0.0290 -1.3630
14013SOL    HW243808   0.411   7.779   0.712  1.1598  1.5640  0.1620
14014SOL     OW43809   9.218   0.032   5.980 -0.0744  0.5292  0.6292
14014SOL    HW143810   9.311   0.021   6.000 -0.2259  0.0321  1.0896
14014SOL    HW243811   9.189   0.100   6.041 -0.2198  0.0214  1.1287
14015SOL     OW43812   9.613   0.485   3.577 -0.4062  0.7559 -0.8659
14015SOL    HW143813   9.688   0.510   3.523 -0.9366  0.4449 -1.7621
14015SOL    HW243814   9.651   0.466   3.663  0.4424  1.3343 -1.0941
14016SOL     OW43815   0.253   5.589   6.477  0.1437  0.5127  0.0154
14016SOL    HW143816   0.243   5.517   6.540  0.3942  0.1785 -0.3260
14016SOL    HW243817   0.183   5.650   6.500 -0.9192 -0.4689 -0.5443
14017SOL     OW43818   9.449   8.107   5.607  0.1112  0.5032 -0.0902
14017SOL    HW143819   9.371   8.126   5.555  0.6906  2.2293 -0.3855
14017SOL    HW243820   9.492   8.192   5.618  0.4309  0.0911  2.5533
14018SOL     OW43821   6.419   2.712   2.138 -0.5380 -0.1272  0.3334
14018SOL    HW143822   6.398   2.769   2.064  0.8322 -0.5364 -0.4183
14018SOL    HW243823   6.391   2.761   2.215 -1.5231  0.5355 -0.4207
14019SOL     OW43824   8.955   7.544   8.897 -0.5746 -0.5533 -0.3014
14019SOL    HW143825   9.050   7.538   8.880  0.3731  2.0136  2.9766
14019SOL    HW243826   8.926   7.617   8.842 -0.7918 -1.4956 -1.4942
14020SOL     OW43827   6.560   4.021   9.453 -0.0811 -0.3330 -0.2720
14020SOL    HW143828   6.504   3.967   9.397 -1.0408 -1.4233  1.6587
14020SOL    HW243829   6.647   3.984   9.443 -0.4226 -1.1579 -0.2902
14021SOL     OW43830   3.758   9.839   6.885  0.6526  0.2083  0.5574
14021SOL    HW143831   3.741   9.766   6.825 -2.9510  1.2542  0.0199
14021SOL    HW243832   3.740   9.803   6.972 -0.9858  0.3385  0.3065
14022SOL     OW43833   5.659   0.679   3.195 -0.2236  0.0294  0.2175
14022SOL    HW143834   5.693   0.624   3.265  0.7646 -1.0935 -1.0902
14022SOL    HW243835   5.575   0.638   3.172 -1.7095  1.7173  2.1830
14023SOL     OW43836   1.789   2.094   1.427  0.5902 -0.5068 -0.2285
14023SOL    HW143837   1.711   2.054   1.388  0.5287 -1.5421  0.9159
14023SOL    HW243838   1.766   2.187   1.436 -1.1047 -1.0241  1.4216
14024SOL     OW43839   7.945   7.799   2.810 -0.5278 -0.0529  0.1307
14024SOL    HW143840   8.031   7.773   2.778 -0.8884 -3.1194  1.3499
14024SOL    HW243841   7.884   7.766   2.745 -0.9827 -2.1598  1.5394
14025SOL     OW43842   3.857   4.110   8.385  0.3829  0.5071  0.0300
14025SOL    HW143843   3.856   4.199   8.421 -0.5691  0.6751 -0.3679
14025SOL    HW243844   3.899   4.118   8.300  0.6123  0.5117  0.1434
14026SOL     OW43845   3.468   1.974   4.091 -0.2136  0.2294  0.3743
14026SOL    HW143846   3.438   1.946   4.004  2.0423  0.3406 -0.5037
14026SOL    HW243847   3.416   2.052   4.110  1.4594  2.2232 -2.4424
14027SOL     OW43848   4.993   6.613   9.740 -0.2491 -0.3799 -0.6517
14027SOL    HW143849   4.942   6.590   9.662 -0.0569 -2.7188 -0.1740
14027SOL    HW243850   4.988   6.535   9.795 -0.1921  1.1133  1.6112
14028SOL     OW43851   2.868   4.203   9.438 -0.1067 -0.0417  0.0604
14028SOL    HW143852   2.789   4.253   9.415  0.7079  0.7761 -1.0772
14028SOL    HW243853   2.910   4.184   9.354  0.1751 -1.7434  0.5444
14029SOL     OW43854   3.512   6.080   5.376  0.1011 -0.4387 -0.5128
14029SOL    HW143855   3.433   6.030   5.393  0.7265 -1.1155  0.4965
14029SOL    HW243856   3.540   6.052   5.289 -0.0285 -1.2143 -0.3100
14030SOL     OW43857   9.195   4.817   3.701  0.0918  0.4764  0.4468
14030SOL    HW143858   9.195   4.910   3.681  2.1795  0.5585  0.5743
14030SOL    HW243859   9.244   4.777   3.629  0.9428 -0.2452  1.3871
14031SOL     OW43860   0.623   1.002   2.864  0.1942 -0.2329 -0.5196
14031SOL    HW143861   0.552   1.064   2.884 -0.8681 -1.4977 -0.2779
14031SOL    HW243862   0.642   0.961   2.948  0.9223 -0.2260 -0.6765
14032SOL     OW43863   0.040   8.965   4.078 -0.0921  0.4241 -0.1284
14032SOL    HW143864   0.014   9.028   4.145  1.2858 -0.1969  1.0519
14032SOL    HW243865   0.042   9.016   3.997 -1.1493  1.3578  0.4099
14033SOL     OW43866   4.044   6.169   3.833  0.1454 -0.1032  0.3060
14033SOL    HW143867   4.117   6.121   3.793 -1.9569 -1.2857 -2.4277
14033SOL    HW243868   4.080   6.256   3.850  2.3847 -0.8292 -0.2899
14034SOL     OW43869   1.312   6.930   7.763 -0.4345 -0.1675 -0.0142
14034SOL    HW143870   1.348   6.851   7.722 -0.3589 -0.3190  0.3447
14034SOL    HW243871   1.389   6.983   7.784 -0.5170  0.3297 -0.9058
14035SOL     OW43872   8.454   1.563   8.476 -0.2140 -0.5297  0.2663
14035SOL    HW143873   8.422   1.623   8.409 -1.0602  0.2425  1.3228
14035SOL    HW243874   8.508   1.618   8.533  1.3827 -1.3994 -0.3458
14036SOL     OW43875   7.730   7.773   4.650  0.2067  0.0117  0.1682
14036SOL    HW143876   7.649   7.723   4.656  0.2580 -0.2152 -0.8045
14036SOL    HW243877   7.754   7.769   4.557  1.2141  0.2597  0.4011
14037SOL     OW43878   0.722   7.988   1.451 -0.1861  0.3122 -0.3459
14037SOL    HW143879   0.660   7.946   1.391 -0.9789 -0.4336  0.9498
14037SOL    HW243880   0.727   7.929   1.526  1.6728  0.6455 -0.1547
14038SOL     OW43881   9.480   7.958   5.185  0.0938 -0.5662  0.3677
14038SOL    HW143882   9.466   8.014   5.109 -0.4952 -0.9684  0.1797
14038SOL    HW243883   9.519   7.878   5.150 -0.4126 -0.8545  0.4493
14039SOL     OW43884   8.150   7.651   3.811 -0.3867  0.3135  0.3914
14039SOL    HW143885   8.216   7.668   3.743  0.9628 -0.3095  1.5078
14039SOL    HW243886   8.067   7.649   3.763  0.5942 -0.8719 -1.3725
14040SOL     OW43887   8.308   0.603   8.832  0.1715 -0.5530 -0.4845
14040SOL    HW143888   8.315   0.575   8.741  0.3931 -1.4273 -0.2112
14040SOL    HW243889   8.381   0.663   8.844 -0.5181  0.4689 -1.1812
14041SOL     OW43890   5.329   4.256   3.522  0.1294 -0.1562 -0.0108
14041SOL    HW143891   5.328   4.161   3.511  0.5878 -0.0260 -1.4351
14041SOL    HW243892   5.295   4.270   3.610  0.7526 -1.6776  0.5140
14042SOL     OW43893   8.487   1.813   4.278  0.0980  0.4951 -0.1552
14042SOL    HW143894   8.580   1.788   4.274 -0.3691 -1.5306  0.4526
14042SOL    HW243895   8.455   1.799   4.189 -0.0429 -0.6892  0.0680
14043SOL     OW43896   8.131   7.509   3.273  0.2531 -0.7826  0.2869
14043SOL    HW143897   8.172   7.424   3.256 -0.9299 -1.6083  1.3514
14043SOL    HW243898   8.045   7.503   3.231  0.0555 -0.2198  0.5983
14044SOL     OW43899   7.800   0.959   4.946 -0.4974 -0.3146 -0.0713
14044SOL    HW143900   7.818   1.004   5.028  0.7443 -0.7262 -0.0986
14044SOL    HW243901   7.721   1.001   4.912  0.8363  2.1553 -0.3122
14045SOL     OW43902   5.605   1.274   2.046 -0.0891 -0.7471  0.1529
14045SOL    HW143903   5.678   1.258   2.106  0.9912  1.5169 -0.4583
14045SOL    HW243904   5.555   1.344   2.086  0.7957  0.9911 -1.5959
14046SOL     OW43905   6.773   8.308   6.274  0.0394  0.0537  0.2940
14046SOL    HW143906   6.753   8.311   6.180  0.0012  2.1802  0.3050
14046SOL    HW243907   6.688   8.324   6.316  0.2877  0.5287  0.6211
14047SOL     OW43908   2.706   1.847   7.937  0.3430 -0.5780 -0.0349
14047SOL    HW143909   2.792   1.810   7.958  1.2494  1.5395  0.2031
14047SOL    HW243910   2.674   1.882   8.020  0.4466  0.9697 -0.6251
14048SOL     OW43911   7.069   4.851   4.190  0.1086 -0.5558 -0.7482
14048SOL    HW143912   7.063   4.803   4.108  0.2667 -0.6567 -0.6997
14048SOL    HW243913   7.111   4.790   4.251 -0.8739 -0.8484 -0.3235
14049SOL     OW43914   6.470   6.386   4.613  0.4037  0.3516 -0.0998
14049SOL    HW143915   6.461   6.375   4.519  1.5813  0.4524 -0.2348
14049SOL    HW243916   6.475   6.297   4.648 -0.7466  0.2977 -0.0447
14050SOL     OW43917   0.420   8.651   8.370  0.1478  0.2703  0.2281
14050SOL    HW143918   0.449   8.741   8.358  1.6329 -0.0451  1.2548
14050SOL    HW243919   0.446   8.628   8.459 -3.4977  0.0099  1.4262
14051SOL     OW43920   6.172   2.389   4.149  0.0003 -0.4708 -0.5092
14051SOL    HW143921   6.264   2.414   4.138 -0.2049  0.0181 -1.2074
14051SOL    HW243922   6.167   2.301   4.113 -0.2190  0.3105 -2.5375
14052SOL     OW43923   2.647   1.691   7.726 -0.5703  0.8118 -0.4323
14052SOL    HW143924   2.676   1.718   7.814 -1.5264 -1.0122  0.4982
14052SOL    HW243925   2.711   1.624   7.700 -1.6347 -0.4058 -0.0377
14053SOL     OW43926   9.021   9.583   5.450 -0.0144  0.3365  0.1988
14053SOL    HW143927   8.988   9.553   5.366 -1.2610 -0.4669  0.9422
14053SOL    HW243928   8.945   9.582   5.508  1.1451 -0.9126  1.8152
14054SOL     OW43929   3.895   4.989   2.484 -0.5882  0.3413  0.4582
14054SOL    HW143930   3.942   5.073   2.488 -0.9648  0.6323 -0.8115
14054SOL    HW243931   3.884   4.964   2.576 -0.2765  1.5770  0.8607
14055SOL     OW43932   2.132   3.031   6.638  0.1000 -0.5560  0.2243
14055SOL    HW143933   2.068   3.050   6.570  1.1910 -0.0177 -0.6861
14055SOL    HW243934   2.130   3.108   6.695 -0.4300 -0.7771  0.5179
14056SOL     OW43935   8.343   2.261   4.384 -0.3743  0.0988 -0.3018
14056SOL    HW143936   8.303   2.229   4.304 -1.9278 -1.0525  0.8796
14056SOL    HW243937   8.270   2.295   4.436  0.6853  1.5070  0.3455
14057SOL     OW43938   1.658   4.925   2.730  0.6048  0.5271 -0.2505
14057SOL    HW143939   1.641   4.964   2.644 -0.9283  0.1091 -0.1715
14057SOL    HW243940   1.614   4.984   2.792  0.0452 -0.1819  0.0497
14058SOL     OW43941   8.660   0.266   3.093  0.2482 -0.5629 -0.2399
14058SOL    HW143942   8.690   0.181   3.062  2.2219  0.2563 -0.7674
14058SOL    HW243943   8.570   0.273   3.063  0.5868 -1.7763 -1.6429
14059SOL     OW43944   7.339   9.109   0.423  0.1886  0.2201 -0.4106
14059SOL    HW143945   7.266   9.162   0.390 -0.3824 -1.3040 -1.7951
14059SOL    HW243946   7.347   9.134   0.514 -0.7481  1.8842 -0.7340
14060SOL     OW43947   0.151   8.905   3.704 -0.0740  0.0255  0.1462
14060SOL    HW143948   0.208   8.979   3.681 -0.7419  0.2530 -0.8580
14060SOL    HW243949   0.211   8.830   3.708  0.2460  0.1248 -1.6082
14061SOL     OW43950   9.772   3.581   1.988  0.6414  0.4736 -0.6640
14061SOL    HW143951   9.741   3.527   2.061 -0.0625  0.7177 -0.7704
14061SOL    HW243952   9.797   3.664   2.028  1.6744  0.0989 -0.5073
14062SOL     OW43953   2.738   8.563   6.798  0.2796 -0.3495  0.0477
14062SOL    HW143954   2.829   8.536   6.786  0.1118 -0.9758  0.1699
14062SOL    HW243955   2.721   8.551   6.891 -0.3404 -1.5708 -0.1976
14063SOL     OW43956   3.016   2.426   7.349  0.3699  0.0240  0.3209
14063SOL    HW143957   3.089   2.385   7.396  0.0144 -1.5545 -0.4159
14063SOL    HW243958   2.949   2.439   7.417  0.6814 -0.1645  0.6707
14064SOL     OW43959   7.990   3.877   7.402  0.1001  0.2400 -0.1216
14064SOL    HW143960   8.053   3.897   7.333  0.4280 -1.7750 -0.4668
14064SOL    HW243961   7.906   3.866   7.356 -0.5184  2.6676  0.3048
14065SOL     OW43962   5.165   5.287   8.848 -0.6614  0.7924  0.0118
14065SOL    HW143963   5.106   5.299   8.923  0.1295  3.5587  0.2882
14065SOL    HW243964   5.157   5.194   8.827 -1.0895 -0.0799  3.3626
14066SOL     OW43965   5.590   9.341   3.046  0.3713  0.2596  0.3656
14066SOL    HW143966   5.600   9.246   3.042 -1.3094  0.0918 -0.6095
14066SOL    HW243967   5.641   9.367   3.122 -1.5517 -1.7789  2.5109
14067SOL     OW43968   9.048   3.774   6.839 -0.2189  0.2507 -0.2664
14067SOL    HW143969   9.004   3.840   6.892  1.2713  2.1871 -1.3218
14067SOL    HW243970   8.977   3.732   6.790 -1.2583  0.6146  0.8780
14068SOL     OW43971   9.096   5.257   4.194  0.6550 -0.2181  0.5900
14068SOL    HW143972   9.013   5.209   4.188 -0.5930  1.7927  0.6521
14068SOL    HW243973   9.151   5.204   4.251 -2.0379  0.2538  3.9628
14069SOL     OW43974   2.192   8.076   8.192 -0.0223 -0.3205  0.0910
14069SOL    HW143975   2.136   8.153   8.200  0.0551 -0.1994 -0.4611
14069SOL    HW243976   2.222   8.078   8.101 -1.0560 -1.6996 -0.3152
14070SOL     OW43977   9.592   6.154   2.420  0.7327  0.0312 -0.1605
14070SOL    HW143978   9.562   6.100   2.492 -1.6572  0.6838 -0.5810
14070SOL    HW243979   9.591   6.096   2.344 -1.0527  0.4067 -0.4594
14071SOL     OW43980   2.705   3.024   3.178 -0.3107 -0.4996  0.1184
14071SOL    HW143981   2.635   2.970   3.140  0.3934 -1.3086 -0.0449
14071SOL    HW243982   2.785   2.989   3.140  0.2477 -0.0413  0.8639
14072SOL     OW43983   8.173   3.146   3.326  0.2770  0.0256 -0.0091
14072SOL    HW143984   8.173   3.072   3.265  0.6362  0.1336 -0.1408
14072SOL    HW243985   8.206   3.109   3.408 -2.2225 -0.6502  0.7872
14073SOL     OW43986   1.955   0.066   5.538 -0.6059  0.4012 -1.0293
14073SOL    HW143987   1.962   0.014   5.617  1.3548 -0.1453 -1.5197
14073SOL    HW243988   1.985   0.008   5.468  0.2897  1.7113 -1.7829
14074SOL     OW43989   8.729   4.656   5.254  0.2516  0.2663  0.0165
14074SOL    HW143990   8.721   4.693   5.166  1.9142 -1.9528 -1.1549
14074SOL    HW243991   8.652   4.600   5.264 -0.1282  0.8000  0.1628
14075SOL     OW43992   2.902   6.298   9.825  0.0383  0.2830 -0.2734
14075SOL    HW143993   2.951   6.228   9.869  1.5004 -0.0592 -2.2681
14075SOL    HW243994   2.839   6.252   9.769 -0.1161  0.6108 -0.3710
14076SOL     OW43995   7.168   4.656   4.335 -0.2021  0.3599 -0.1831
14076SOL    HW143996   7.237   4.652   4.402 -1.1297  0.7889  0.8212
14076SOL    HW243997   7.090   4.623   4.379 -0.6198 -0.2349 -1.3516
14077SOL     OW43998   0.518   7.093   9.132  0.3620  0.0407 -0.2167
14077SOL    HW143999   0.513   6.998   9.138 -0.2308  0.1060  0.4184
14077SOL    HW244000   0.499   7.113   9.041 -0.4845 -0.3947 -0.1448
14078SOL     OW44001   6.751   2.570   0.320 -0.3391 -0.0817 -0.6231
14078SOL    HW144002   6.769   2.662   0.336  0.2274  0.1407 -2.3537
14078SOL    HW244003   6.828   2.524   0.353 -0.2521  0.1437 -0.5135
14079SOL     OW44004   7.303   2.228   2.890 -0.0996  1.0009  0.6433
14079SOL    HW144005   7.235   2.174   2.930  0.0486  1.3239  1.3369
14079SOL    HW244006   7.355   2.260   2.963  0.4553  1.2273  0.1600
14080SOL     OW44007   2.760   5.232   2.520 -0.0341  0.0044  0.2914
14080SOL    HW144008   2.776   5.153   2.468 -1.1634 -0.1731  0.1822
14080SOL    HW244009   2.800   5.303   2.469 -2.1905  0.0232 -1.5294
14081SOL     OW44010   0.649   7.272   1.592  0.3817  0.0722 -0.8355
14081SOL    HW144011   0.713   7.232   1.651 -0.8524 -0.3549  0.2665
14081SOL    HW244012   0.598   7.199   1.559  1.1208  0.2918 -2.5935
14082SOL     OW44013   0.543   1.360   3.256 -0.1938 -0.0298  0.1391
14082SOL    HW144014   0.502   1.295   3.199 -2.3015  0.2159  1.2743
14082SOL    HW244015   0.526   1.444   3.213  0.6392 -0.0411 -0.2342
14083SOL     OW44016   5.645   1.295   6.946 -0.0377  0.2330  0.4474
14083SOL    HW144017   5.714   1.240   6.983 -0.2838  0.2280  0.9000
14083SOL    HW244018   5.623   1.357   7.016  1.0469  1.6856 -0.4322
14084SOL     OW44019   5.908   1.575   0.115  0.2046  0.4869 -0.0047
14084SOL    HW144020   5.968   1.505   0.087 -1.4113  0.1951 -3.2117
14084SOL    HW244021   5.851   1.534   0.179  0.2998 -0.6886 -0.6470
14085SOL     OW44022   0.648   1.136   7.800  0.2248  0.1308  0.3167
14085SOL    HW144023   0.741   1.145   7.820  0.1172  0.3852  0.7136
14085SOL    HW244024   0.603   1.153   7.883 -0.1663 -0.2888  0.1980
14086SOL     OW44025   0.402   9.425   5.281  0.2806  0.2735  0.0925
14086SOL    HW144026   0.452   9.505   5.295 -0.7610  1.4329 -2.1888
14086SOL    HW244027   0.451   9.377   5.214 -0.2696  0.1604 -0.2437
14087SOL     OW44028   1.469   7.425   5.419  0.3914 -0.4020 -0.8649
14087SOL    HW144029   1.462   7.373   5.499 -1.9917 -0.0439 -0.7592
14087SOL    HW244030   1.525   7.373   5.362  1.9662 -0.7649  0.9271
14088SOL     OW44031   9.729   2.796   1.863 -0.1835 -0.4021  0.1909
14088SOL    HW144032   9.778   2.733   1.810 -1.3811 -1.3318  0.1396
14088SOL    HW244033   9.709   2.867   1.803  0.5932 -0.2768  0.0663
14089SOL     OW44034   5.311   2.199   8.158 -0.3904  0.4832  0.6553
14089SOL    HW144035   5.322   2.112   8.119 -0.9842 -0.2142  1.9724
14089SOL    HW244036   5.314   2.259   8.084  0.3448 -0.6271 -0.2559
14090SOL     OW44037   2.087   0.426   2.606 -0.3796  0.5267  0.0887
14090SOL    HW144038   2.076   0.399   2.515 -1.1028 -0.0021  0.3198
14090SOL    HW244039   1.998   0.434   2.639 -0.1204  0.2919  0.8672
14091SOL     OW44040   2.934   6.585   4.876  0.2557 -0.2186  0.0434
14091SOL    HW144041   2.838   6.595   4.877  0.2887  0.1634 -0.4895
14091SOL    HW244042   2.967   6.675   4.871  0.6640 -0.2883  1.1762
14092SOL     OW44043   1.055   7.488   9.102 -0.2367  0.0872  0.4880
14092SOL    HW144044   1.124   7.422   9.105  0.1252  0.4755  1.0761
14092SOL    HW244045   1.089   7.555   9.041 -0.5656 -0.2252 -0.0430
14093SOL     OW44046   6.729   9.333   1.315 -0.0714 -0.5407  0.6122
14093SOL    HW144047   6.701   9.400   1.377 -2.8227  1.6708 -2.6500
14093SOL    HW244048   6.705   9.250   1.357 -2.9733  0.8796  2.0531
14094SOL     OW44049   4.543   6.502   6.572  0.3631  0.2193  0.3282
14094SOL    HW144050   4.462   6.452   6.562  0.7846 -0.3894 -0.0943
14094SOL    HW244051   4.522   6.589   6.537  0.5071 -0.5634 -1.8274
14095SOL     OW44052   1.091   6.533   9.285  0.3317 -0.3347  0.0276
14095SOL    HW144053   1.163   6.484   9.248  0.6443  0.9116 -1.0867
14095SOL    HW244054   1.128   6.620   9.304 -0.6775  0.0814  0.1562
14096SOL     OW44055   9.779   6.179   2.112  0.2890 -0.4589  0.5205
14096SOL    HW144056   9.808   6.100   2.158  0.1284 -1.2720 -0.7286
14096SOL    HW244057   9.755   6.240   2.182  1.5379 -1.0758  1.5285
14097SOL     OW44058   5.806   3.094   5.114  0.5058 -0.6384  0.2529
14097SOL    HW144059   5.749   3.157   5.158  1.0730 -2.0438  3.2500
14097SOL    HW244060   5.892   3.135   5.115  0.5376 -0.7139  0.5390
14098SOL     OW44061   6.506   6.627   2.334  0.5618  0.0776  0.5025
14098SOL    HW144062   6.456   6.587   2.405  0.9180 -2.8725 -0.7839
14098SOL    HW244063   6.598   6.619   2.362  0.5893  2.0316  1.1518
14099SOL     OW44064   8.976   2.190   1.870  0.0114 -0.0905  0.3011
14099SOL    HW144065   8.962   2.121   1.935  1.3964  1.7332  2.7211
14099SOL    HW244066   9.051   2.239   1.903 -1.0922  2.7758 -1.0723
14100SOL     OW44067   5.805   5.210   1.170 -0.1947  0.8393 -0.1532
14100SOL    HW144068   5.757   5.289   1.145 -1.8971  0.0206  0.3913
14100SOL    HW244069   5.867   5.240   1.236 -1.1636  1.6601  0.4176
14101SOL     OW44070   3.189   5.153   3.809  0.5323 -0.2845  0.5144
14101SOL    HW144071   3.240   5.102   3.746  1.1633  0.8279  0.0850
14101SOL    HW244072   3.098   5.133   3.788  0.7225  0.1036 -0.8099
14102SOL     OW44073   9.039   8.852   6.064  0.4167  0.8203 -0.4664
14102SOL    HW144074   9.012   8.931   6.019  0.2616  1.5727  0.8951
14102SOL    HW244075   9.080   8.798   5.997 -1.1812  1.2190 -1.8242
14103SOL     OW44076   2.861   1.626   4.198  0.3075 -0.0602 -0.2246
14103SOL    HW144077   2.813   1.703   4.227  0.2513 -0.9333  2.1878
14103SOL    HW244078   2.953   1.648   4.210  0.3338 -0.0176 -0.4957
14104SOL     OW44079   1.316   3.441   9.304  0.1213  0.0194 -0.2439
14104SOL    HW144080   1.399   3.487   9.315 -0.4563  0.9767  0.1523
14104SOL    HW244081   1.294   3.409   9.391  0.0376 -0.1978 -0.3425
14105SOL     OW44082   8.988   8.021   8.655 -0.4923  0.5075  0.2138
14105SOL    HW144083   8.897   8.028   8.628 -0.3574  0.5675 -0.2368
14105SOL    HW244084   9.036   8.000   8.575 -0.2879 -1.0435  0.7043
14106SOL     OW44085   5.139   8.225   5.434  0.1112 -0.2433 -1.1317
14106SOL    HW144086   5.165   8.282   5.506 -0.1729  0.5587 -1.6527
14106SOL    HW244087   5.154   8.136   5.467 -0.6869  0.0832  0.1753
14107SOL     OW44088   6.990   3.475   4.014 -0.3747 -0.0157 -0.4768
14107SOL    HW144089   7.014   3.433   4.096  0.5449  1.6894  0.1684
14107SOL    HW244090   7.044   3.431   3.948  1.0876  0.5694  0.2833
14108SOL     OW44091   8.463   3.829   5.491  0.2323  0.0570  0.1375
14108SOL    HW144092   8.463   3.735   5.472  2.2861  0.1258 -0.3726
14108SOL    HW244093   8.465   3.871   5.405  2.7828  0.4693  0.3258
14109SOL     OW44094   0.860   4.095   3.761  0.5164  0.4931 -0.3812
14109SOL    HW144095   0.807   4.156   3.710 -0.4889  0.6009  0.7531
14109SOL    HW244096   0.848   4.123   3.852 -0.0008 -1.3972  0.1821
14110SOL     OW44097   1.724   0.680   9.847  0.4547  0.5261  0.6608
14110SOL    HW144098   1.805   0.730   9.845  1.0662 -0.4247  0.9424
14110SOL    HW244099   1.695   0.678   9.756  0.6997  0.9539  0.5728
14111SOL     OW44100   1.885   0.183   3.126 -0.3933  0.5035  0.2420
14111SOL    HW144101   1.924   0.164   3.040  2.2405 -0.9571  1.6486
14111SOL    HW244102   1.906   0.275   3.142 -0.3169  0.6003 -0.3764
14112SOL     OW44103   1.922   3.328   7.701  0.5184  0.3722 -0.4754
14112SOL    HW144104   1.997   3.345   7.644 -1.6606  0.5844 -3.5566
14112SOL    HW244105   1.922   3.233   7.713  1.1035  0.3438 -0.6493
14113SOL     OW44106   9.738   2.867   4.537 -0.3317 -0.0754  0.2087
14113SOL    HW144107   9.660   2.917   4.512 -0.2423 -0.1798 -0.3047
14113SOL    HW244108   9.713   2.819   4.615 -0.1224  1.5167  1.3013
14114SOL     OW44109   9.321   0.121   4.519 -0.0651  0.2644  0.2004
14114SOL    HW144110   9.237   0.091   4.553  0.8887  1.2632  4.0226
14114SOL    HW244111   9.383   0.053   4.545  0.4047 -0.4392 -2.5134
14115SOL     OW44112   6.202   9.169   3.952 -0.2086  0.2055  0.5353
14115SOL    HW144113   6.283   9.162   4.003  0.2380  0.7875 -0.0847
14115SOL    HW244114   6.223   9.230   3.881 -1.5082  1.2305  0.9848
14116SOL     OW44115   5.480   7.394   2.288 -0.3817  0.1723  0.7315
14116SOL    HW144116   5.417   7.455   2.249 -0.2532 -1.0093 -1.5054
14116SOL    HW244117   5.561   7.444   2.293 -0.3742  0.3588 -0.7212
14117SOL     OW44118   3.340   4.374   5.745 -0.6902 -0.2817  0.4781
14117SOL    HW144119   3.306   4.287   5.724  0.2721 -0.3522 -0.8893
14117SOL    HW244120   3.432   4.371   5.718 -0.6888  1.2178  0.2581
14118SOL     OW44121   5.077   6.487   2.224 -0.1249 -0.6284 -0.7462
14118SOL    HW144122   5.021   6.560   2.197  1.9262  1.3473 -0.0064
14118SOL    HW244123   5.119   6.459   2.143 -0.1029 -0.2416 -0.8744
14119SOL     OW44124   6.815   5.089   7.987  0.0361  0.3113  0.2755
14119SOL    HW144125   6.836   5.178   8.017 -1.7422  0.4226  1.3467
14119SOL    HW244126   6.732   5.099   7.939 -0.3438 -0.7873  0.6641
14120SOL     OW44127   8.092   3.742   2.450  0.2886 -0.0399 -0.5753
14120SOL    HW144128   8.135   3.774   2.371  0.1371  1.4440 -0.0838
14120SOL    HW244129   8.034   3.813   2.477  1.2388  0.0131  1.5516
14121SOL     OW44130   1.707   7.806   8.522  0.7708 -0.1971  0.1136
14121SOL    HW144131   1.689   7.887   8.571  1.2295 -0.2150  0.3107
14121SOL    HW244132   1.746   7.748   8.586  1.2102 -0.2856 -0.2336
14122SOL     OW44133   4.063   7.202   6.771 -0.4708  0.4028 -0.8113
14122SOL    HW144134   4.004   7.252   6.827  0.9072  1.4435 -0.2117
14122SOL    HW244135   4.151   7.233   6.795  0.4862 -2.4091 -0.3180
14123SOL     OW44136   4.587   3.094   2.296 -0.4282  0.0993 -0.9468
14123SOL    HW144137   4.519   3.089   2.363  1.0496 -1.4617  0.5462
14123SOL    HW244138   4.655   3.151   2.334  0.4054 -0.7616 -1.1020
14124SOL     OW44139   9.481   2.926   4.411 -0.0788 -0.2390 -0.3275
14124SOL    HW144140   9.396   2.960   4.384 -1.0991 -1.2316  1.4614
14124SOL    HW244141   9.519   2.890   4.331 -1.6660 -0.4367 -1.0327
14125SOL     OW44142   7.561   8.500   3.649 -0.1421 -0.2110 -0.3795
14125SOL    HW144143   7.552   8.407   3.670 -0.7053 -0.2324 -0.6901
14125SOL    HW244144   7.569   8.543   3.734 -0.9078 -0.4479 -0.1757
14126SOL     OW44145   4.313   0.239   6.489  0.2831 -0.3580 -0.5673
14126SOL    HW144146   4.353   0.239   6.402  0.4306 -1.9275 -0.5359
14126SOL    HW244147   4.252   0.166   6.486 -0.1268 -0.0645  0.4750
14127SOL     OW44148   9.832   3.716   8.807  0.3468  0.4506  0.2142
14127SOL    HW144149   9.760   3.731   8.868 -0.0986 -0.4332 -0.0775
14127SOL    HW244150   9.791   3.672   8.732  1.1251  0.2628 -0.1068
14128SOL     OW44151   3.384   0.099   8.920 -0.5679 -0.2645  0.2118
14128SOL    HW144152   3.471   0.061   8.907  0.1544  1.5303 -0.5433
14128SOL    HW244153   3.392   0.150   9.001 -0.1926  1.7323 -1.0194
14129SOL     OW44154   5.467   8.102   8.661 -0.3517 -0.0159  0.1716
14129SOL    HW144155   5.419   8.176   8.624 -2.2959 -1.7534 -1.0456
14129SOL    HW244156   5.405   8.063   8.723  0.8161 -0.3680  1.1558
14130SOL     OW44157   8.105   0.945   9.125 -0.2615 -0.1582 -0.3466
14130SOL    HW144158   8.082   1.035   9.148 -0.0436 -0.4728  1.2048
14130SOL    HW244159   8.107   0.945   9.029 -0.8122  1.3422 -0.3910
14131SOL     OW44160   4.055   0.562   2.291 -0.4079  0.5145 -0.1471
14131SOL    HW144161   4.142   0.586   2.260 -0.5978 -0.2088 -1.3148
14131SOL    HW244162   4.067   0.541   2.384  0.2896  2.2075  0.1748
14132SOL     OW44163   3.948   4.555   0.734  0.1014  0.9945 -0.1904
14132SOL    HW144164   3.936   4.464   0.708  0.4597  0.3909  1.6406
14132SOL    HW244165   3.863   4.580   0.770 -0.1162  1.5336 -1.0448
14133SOL     OW44166   5.456   9.461   4.235  0.1831  0.4796 -0.3257
14133SOL    HW144167   5.535   9.504   4.203  0.6679 -0.5430 -0.5480
14133SOL    HW244168   5.396   9.462   4.161 -0.1383  1.4947 -0.0776
14134SOL     OW44169   6.979   5.156   0.653 -0.7241 -0.5387 -0.0973
14134SOL    HW144170   6.971   5.116   0.739  0.8964 -1.2396 -0.2293
14134SOL    HW244171   7.070   5.186   0.648 -1.4398  1.7443 -0.6445
14135SOL     OW44172   8.455   6.218   9.120  0.2739  0.4324 -0.4125
14135SOL    HW144173   8.365   6.227   9.089 -0.7608 -1.7125  1.6602
14135SOL    HW244174   8.458   6.271   9.200 -0.0421 -1.5750  1.0106
14136SOL     OW44175   3.222   0.344   9.236  0.2125  0.0399  0.2892
14136SOL    HW144176   3.217   0.252   9.208 -0.4124 -0.3808  1.7123
14136SOL    HW244177   3.182   0.345   9.322  2.0124  1.3064  1.1772
14137SOL     OW44178   0.673   2.215   6.642  0.1780  0.5895  0.2074
14137SOL    HW144179   0.611   2.265   6.587 -0.8235  0.1050  0.8687
14137SOL    HW244180   0.667   2.126   6.609  2.2590  0.9010 -1.2283
14138SOL     OW44181   0.639   7.494   6.113  0.0675 -0.2386  0.0466
14138SOL    HW144182   0.689   7.453   6.042 -0.6365  0.2380 -0.7453
14138SOL    HW244183   0.676   7.582   6.121 -1.9228  0.8919 -1.9799
14139SOL     OW44184   4.126   3.107   3.760  0.3708 -0.2626  0.0520
14139SOL    HW144185   4.101   3.080   3.672 -0.5347 -1.5130  0.6546
14139SOL    HW244186   4.085   3.042   3.818  0.8924  0.5519  1.3989
14140SOL     OW44187   9.575   0.891   1.332  0.0480  0.1128  0.4063
14140SOL    HW144188   9.514   0.949   1.378 -1.8529 -1.1355 -0.4176
14140SOL    HW244189   9.589   0.933   1.247  1.3290  0.9938  1.0213
14141SOL     OW44190   1.901   3.049   0.514 -0.0011  0.0848  0.2552
14141SOL    HW144191   1.979   3.092   0.481 -0.5218  0.1944 -0.8517
14141SOL    HW244192   1.843   3.120   0.541  0.1483  0.0095  0.7967
14142SOL     OW44193   5.028   9.133   3.928  0.4053  0.3741 -0.4670
14142SOL    HW144194   4.934   9.140   3.948  0.4045 -0.6280 -0.0509
14142SOL    HW244195   5.033   9.140   3.833 -0.2205 -0.7742 -0.5941
14143SOL     OW44196   7.060   2.211   0.538 -0.0029 -0.1252 -0.0513
14143SOL    HW144197   7.116   2.289   0.537 -1.2436  0.9799  3.2049
14143SOL    HW244198   6.976   2.243   0.506 -0.7610  0.2151  2.1029
14144SOL     OW44199   9.524   5.721   4.151  0.5200  0.3147 -0.0687
14144SOL    HW144200   9.497   5.678   4.232  1.6657 -1.2093 -0.4612
14144SOL    HW244201   9.522   5.652   4.085  2.3403  0.8506 -0.7385
14145SOL     OW44202   7.816   0.381   0.082  0.4904 -0.1574  0.8491
14145SOL    HW144203   7.819   0.300   0.030  2.5097 -0.4283  1.2873
14145SOL    HW244204   7.787   0.354   0.168 -1.0506 -0.0109  0.4023
14146SOL     OW44205   5.135   1.030   2.790  0.5811  0.2909 -0.0666
14146SOL    HW144206   5.168   1.066   2.708  1.4510 -0.0029  0.1437
14146SOL    HW244207   5.041   1.017   2.774  0.7648  0.0854 -1.0693
14147SOL     OW44208   8.801   0.698   5.023 -0.4407  0.7060 -0.2951
14147SOL    HW144209   8.783   0.751   5.100 -0.2141 -0.2704  0.4600
14147SOL    HW244210   8.732   0.720   4.961  0.8979  3.5501 -0.9453
14148SOL     OW44211   9.291   8.781   4.751  0.2399 -0.1301  0.3554
14148SOL    HW144212   9.197   8.764   4.759  0.4181 -0.6709  1.5970
14148SOL    HW244213   9.320   8.722   4.681  0.0028 -1.5215  1.3894
14149SOL     OW44214   9.437   8.282   6.713 -0.4500  0.0251 -0.3183
14149SOL    HW144215   9.444   8.329   6.796 -0.9554 -0.3597 -0.0503
14149SOL    HW244216   9.527   8.260   6.691 -0.3377 -0.2329  0.3503
14150SOL     OW44217   2.277   1.226   4.208 -0.2315 -0.1969  0.2580
14150SOL    HW144218   2.183   1.209   4.215 -0.1967  0.3068  3.5048
14150SOL    HW244219   2.319   1.147   4.241  0.4660 -0.0458 -0.2387
14151SOL     OW44220   2.079   7.745   8.797  0.0511  0.0692  0.3655
14151SOL    HW144221   2.110   7.824   8.841  1.8472 -0.4484  0.0860
14151SOL    HW244222   1.985   7.762   8.782 -0.2601  0.9372  2.8498
14152SOL     OW44223   9.037   1.614   4.589 -0.2070 -0.1768 -0.3450
14152SOL    HW144224   9.075   1.679   4.530  0.8954  0.8431  1.3783
14152SOL    HW244225   9.051   1.530   4.545  1.6878  0.4225 -1.0122
14153SOL     OW44226   1.924   0.929   9.202  0.0468 -0.0469 -0.6239
14153SOL    HW144227   1.947   0.870   9.130 -1.1048  0.6273 -1.5757
14153SOL    HW244228   1.981   1.005   9.190  1.6647 -0.9899  0.7123
14154SOL     OW44229   0.035   1.063   0.442  0.0005  0.1881  0.0177
14154SOL    HW144230   0.121   1.088   0.476  0.1667 -0.6523  0.2395
14154SOL    HW244231   0.055   1.009   0.365 -0.3422  0.3158 -0.1639
14155SOL     OW44232   1.117   4.606   7.330 -0.4426  0.4536  0.1416
14155SOL    HW144233   1.148   4.690   7.361 -0.5550  0.5946 -0.1218
14155SOL    HW244234   1.081   4.624   7.243 -0.3390  0.1119  0.0246
14156SOL     OW44235   3.838   9.055   1.545 -0.3598  0.4288  0.4106
14156SOL    HW144236   3.926   9.024   1.521 -0.2138 -0.3652  1.8316
14156SOL    HW244237   3.854   9.116   1.617 -1.0038 -0.4854  1.3641
14157SOL     OW44238   7.359   3.083   4.426 -0.2523 -0.5118 -0.9959
14157SOL    HW144239   7.432   3.026   4.405  0.2901 -0.6572  1.0826
14157SOL    HW244240   7.297   3.027   4.473  0.4369  0.5840  1.3792
14158SOL     OW44241   9.384   4.828   2.407  0.4003 -0.5382  0.3808
14158SOL    HW144242   9.402   4.817   2.500  0.3677 -1.9105  0.2463
14158SOL    HW244243   9.452   4.776   2.364 -0.0791 -0.5913 -0.3287
14159SOL     OW44244   4.137   6.509   5.982  0.0605  0.1289  0.0245
14159SOL    HW144245   4.068   6.480   6.042 -1.0021  0.6385 -0.9035
14159SOL    HW244246   4.209   6.447   5.995 -1.5344 -2.0170 -0.7851
14160SOL     OW44247   8.916   8.108   7.612  0.0144  0.0042 -0.0278
14160SOL    HW144248   8.874   8.191   7.588  1.2519  0.7960  0.4309
14160SOL    HW244249   9.005   8.133   7.640  0.0495 -1.3467  1.2000
14161SOL     OW44250   3.603   5.126   7.068  0.6491 -0.1903 -0.2654
14161SOL    HW144251   3.523   5.167   7.037 -0.1805 -1.7732 -0.3399
14161SOL    HW244252   3.595   5.034   7.042  2.1985 -0.5287  0.2940
14162SOL     OW44253   1.489   2.504   4.175 -0.0574 -0.3964 -0.0924
14162SOL    HW144254   1.436   2.424   4.179  0.7638 -1.0705 -1.7970
14162SOL    HW244255   1.426   2.574   4.157 -0.4828 -1.0834 -1.3655
14163SOL     OW44256   0.352   6.737   6.029  0.1186 -0.0182  0.2395
14163SOL    HW144257   0.268   6.690   6.029  0.6490 -0.9897 -0.3141
14163SOL    HW244258   0.349   6.790   5.949  0.5591 -1.0380 -0.4639
14164SOL     OW44259   4.804   3.207   7.469  0.5093 -0.2669  0.5763
14164SOL    HW144260   4.838   3.132   7.518  0.9524  1.1956  2.6461
14164SOL    HW244261   4.881   3.260   7.450 -0.1421  1.6679  2.8112
14165SOL     OW44262   3.344   9.529   5.785 -0.3179  0.2232 -0.0123
14165SOL    HW144263   3.267   9.586   5.785  0.2327  0.9881 -0.2261
14165SOL    HW244264   3.386   9.547   5.869 -0.0627  0.2439 -0.1445
14166SOL     OW44265   6.449   6.463   9.298  0.1937  0.0110 -0.2957
14166SOL    HW144266   6.384   6.393   9.295 -0.8190  0.9161 -0.1536
14166SOL    HW244267   6.520   6.427   9.351 -0.0645 -1.0929 -0.6620
14167SOL     OW44268   6.688   0.862   7.601  0.1996 -0.3674  0.6046
14167SOL    HW144269   6.752   0.802   7.563 -1.3627 -1.3243 -0.6113
14167SOL    HW244270   6.725   0.886   7.686  1.7179 -1.6275  0.3346
14168SOL     OW44271   6.123   9.030   2.156  0.4432 -0.1534 -0.1164
14168SOL    HW144272   6.201   8.998   2.201  0.9369 -0.2645 -1.0207
14168SOL    HW244273   6.157   9.077   2.080 -0.3757 -2.5924 -2.1228
14169SOL     OW44274   8.701   5.220   8.238  0.0955  0.1970  0.0849
14169SOL    HW144275   8.627   5.272   8.269  0.9903  0.1406  2.5301
14169SOL    HW244276   8.767   5.229   8.307  1.0988 -2.4210 -0.4230
14170SOL     OW44277   2.390   6.161   3.144 -0.2857 -0.7828  0.5117
14170SOL    HW144278   2.296   6.153   3.131 -0.4947  0.1158  1.3314
14170SOL    HW244279   2.399   6.211   3.226  0.8988 -1.1121  0.6098
14171SOL     OW44280   6.209   7.641   2.470  0.2084 -0.0625 -0.3843
14171SOL    HW144281   6.245   7.676   2.552  1.5306 -0.5981 -0.7004
14171SOL    HW244282   6.165   7.561   2.496  0.5663 -0.1960 -0.1749
14172SOL     OW44283   9.679   7.541   5.775  0.4630  0.4460 -0.3646
14172SOL    HW144284   9.737   7.617   5.767  0.4770  0.2836 -2.0850
14172SOL    HW244285   9.730   7.467   5.742 -0.0080 -0.0865  0.0693
14173SOL     OW44286   6.874   2.835   4.205  0.0780 -0.1806 -0.1376
14173SOL    HW144287   6.870   2.833   4.301 -0.7860 -0.5559 -0.1751
14173SOL    HW244288   6.950   2.889   4.186  1.1438 -1.3057  0.7696
14174SOL     OW44289   3.040   2.838   4.381 -0.0493  0.0726 -0.2319
14174SOL    HW144290   3.132   2.814   4.397 -0.4906 -2.6435 -1.3136
14174SOL    HW244291   2.990   2.774   4.432 -1.3660  1.2826  0.0366
14175SOL     OW44292   7.568   7.130   4.494  0.2029  0.2107  0.0327
14175SOL    HW144293   7.485   7.087   4.472  0.7574  0.2561 -2.3751
14175SOL    HW244294   7.633   7.060   4.486  0.8340  0.9642 -1.7430
14176SOL     OW44295   8.243   1.875   3.359 -0.4779  0.1744  1.1599
14176SOL    HW144296   8.292   1.929   3.296  0.8562 -0.1723  1.8463
14176SOL    HW244297   8.286   1.789   3.355 -0.3594  0.1482  2.5288
14177SOL     OW44298   8.340   6.604   4.100 -0.3288 -0.2687  0.2807
14177SOL    HW144299   8.388   6.540   4.152 -2.1283 -1.1051  1.0013
14177SOL    HW244300   8.354   6.577   4.009 -1.6815 -2.2109  0.6027
14178SOL     OW44301   8.524   6.919   6.971 -0.2585  0.1623 -0.5283
14178SOL    HW144302   8.617   6.902   6.957  0.2857  1.3455  1.2205
14178SOL    HW244303   8.495   6.963   6.892  0.7909  0.1904 -0.9122
14179SOL     OW44304   3.111   6.588   8.954  0.0647 -0.5888  0.1450
14179SOL    HW144305   3.175   6.645   8.997  0.6150 -0.4886 -0.7944
14179SOL    HW244306   3.160   6.509   8.932 -0.3716 -0.8936  0.2338
14180SOL     OW44307   7.055   1.257   6.043  0.3209  0.9939  0.4324
14180SOL    HW144308   7.113   1.184   6.067 -0.0180  0.2572 -0.8597
14180SOL    HW244309   6.968   1.217   6.040  0.1094  1.4946 -0.1335
14181SOL     OW44310   2.051   0.270   9.641 -0.2814 -0.2642 -0.6063
14181SOL    HW144311   2.117   0.284   9.709 -2.6600 -3.2427  2.6709
14181SOL    HW244312   2.019   0.357   9.620  1.9333  0.9208  0.5564
14182SOL     OW44313   7.945   0.030   7.919 -0.2242 -0.2224  0.6629
14182SOL    HW144314   7.952   0.087   7.995 -1.5510 -0.8704  1.2908
14182SOL    HW244315   7.851   0.017   7.906  0.0115 -1.0613 -0.3711
14183SOL     OW44316   1.171   0.034   3.936 -0.5856  0.3236 -0.3394
14183SOL    HW144317   1.233   0.107   3.934  0.3300 -0.4152  0.2985
14183SOL    HW244318   1.146   0.022   3.844 -1.7525  2.2404 -0.3265
14184SOL     OW44319   4.311   3.542   5.952 -0.1470 -0.7479  0.5832
14184SOL    HW144320   4.388   3.543   5.896 -0.2768  0.2237  0.4121
14184SOL    HW244321   4.328   3.471   6.014  0.7633 -0.7198  0.3816
14185SOL     OW44322   1.753   2.932   9.749  0.0002 -0.1171  0.2502
14185SOL    HW144323   1.837   2.889   9.730  0.2653  0.3594  0.3118
14185SOL    HW244324   1.736   2.985   9.671  1.1379  1.9166  1.3045
14186SOL     OW44325   9.712   6.892   7.666 -0.8201 -0.1497 -1.1514
14186SOL    HW144326   9.758   6.919   7.745  0.0562 -2.2538 -0.8656
14186SOL    HW244327   9.634   6.846   7.697 -1.8296  1.2238 -1.5917
14187SOL     OW44328   0.471   4.240   1.246  0.4616 -0.2121 -0.0097
14187SOL    HW144329   0.400   4.216   1.306 -0.7296  1.4321 -0.6773
14187SOL    HW244330   0.544   4.261   1.303 -0.4083  0.5602  0.8560
14188SOL     OW44331   6.363   8.660   2.551 -0.1010 -0.2039  0.0505
14188SOL    HW144332   6.296   8.671   2.484  0.3420  0.7632 -0.2405
14188SOL    HW244333   6.348   8.571   2.585 -0.7532 -0.4461 -0.8434
14189SOL     OW44334   0.634   8.068   6.581 -0.5907  0.0881  0.3267
14189SOL    HW144335   0.631   7.993   6.640 -1.3730 -0.0725  0.0937
14189SOL    HW244336   0.618   8.143   6.637 -0.6958 -0.0059  0.4246
14190SOL     OW44337   0.108   4.018   3.001 -1.0077  0.1218  0.8830
14190SOL    HW144338   0.056   4.082   2.952 -0.8608 -0.7639 -0.5195
14190SOL    HW244339   0.159   4.070   3.063  2.4855  2.0854 -3.0970
14191SOL     OW44340   1.490   7.440   9.422  0.1159 -0.4171  0.2494
14191SOL    HW144341   1.398   7.437   9.395 -0.1055 -0.0529  0.9445
14191SOL    HW244342   1.487   7.461   9.515  0.8976 -0.7841  0.3614
14192SOL     OW44343   7.206   9.827   1.486  0.4611  0.2411 -0.5728
14192SOL    HW144344   7.213   9.772   1.408 -0.0545 -0.9461  0.1886
14192SOL    HW244345   7.126   9.878   1.472 -0.1982 -0.7120 -0.3907
14193SOL     OW44346   0.790   3.652   2.431  0.6482  0.0093  0.0602
14193SOL    HW144347   0.755   3.740   2.417  3.3097  1.0159 -1.0552
14193SOL    HW244348   0.803   3.647   2.526  1.3295  1.2547  0.0641
14194SOL     OW44349   0.569   6.295   4.346  0.2713  0.5021  0.5884
14194SOL    HW144350   0.616   6.267   4.267 -1.4966 -1.1715  0.0527
14194SOL    HW244351   0.624   6.265   4.418  0.5708 -0.4475 -0.0176
14195SOL     OW44352   7.803   7.357   8.962  0.1543  0.1998  0.7429
14195SOL    HW144353   7.864   7.349   8.889 -0.6475 -1.0070  0.1809
14195SOL    HW244354   7.813   7.275   9.010  0.1884  0.7068  1.6205
14196SOL     OW44355   9.121   1.860   7.866 -0.4675  0.3007 -0.4327
14196SOL    HW144356   9.172   1.934   7.832  1.4113 -1.2256 -1.1107
14196SOL    HW244357   9.105   1.882   7.957 -1.1307  2.1388 -0.9535
14197SOL     OW44358   9.726   1.277   4.247 -0.3734  0.4898 -0.7277
14197SOL    HW144359   9.696   1.244   4.162  2.1715 -2.9236 -0.5221
14197SOL    HW244360   9.789   1.345   4.225  1.5535 -1.5104 -1.8218
14198SOL     OW44361   1.353   2.376   7.631  0.4280  0.2597  0.3094
14198SOL    HW144362   1.359   2.321   7.709 -1.4288 -0.6032 -0.1117
14198SOL    HW244363   1.436   2.361   7.586  0.3134 -1.6171  0.6142
14199SOL     OW44364   3.123   9.476   8.237  0.0584  0.1065 -0.5338
14199SOL    HW144365   3.046   9.448   8.187  0.0589  0.1034 -0.5329
14199SOL    HW244366   3.133   9.410   8.305 -0.2081  0.3546 -0.2536
14200SOL     OW44367   4.954   5.405   6.555  0.1645 -0.1254 -0.1329
14200SOL    HW144368   4.893   5.423   6.483  0.6773  0.6998 -0.3772
14200SOL    HW244369   4.922   5.458   6.628  0.0465 -0.4184  0.0263
14201SOL     OW44370   5.373   1.855   4.659 -0.3560 -0.0203 -0.2046
14201SOL    HW144371   5.393   1.765   4.684  1.8212  0.3383 -0.4545
14201SOL    HW244372   5.339   1.895   4.739  0.3870 -0.5927  0.4128
14202SOL     OW44373   8.845   1.621   2.424 -0.1816  0.4760 -0.4077
14202SOL    HW144374   8.839   1.526   2.420 -1.3815  0.5444 -0.9005
14202SOL    HW244375   8.934   1.639   2.453  0.0605 -0.7936 -0.3136
14203SOL     OW44376   3.279   1.859   2.555 -0.6411 -0.2991 -0.0452
14203SOL    HW144377   3.206   1.909   2.592 -0.0875  1.0290 -0.6634
14203SOL    HW244378   3.340   1.848   2.628  0.1187  1.6754 -0.3276
14204SOL     OW44379   2.478   3.262   0.585  0.0822 -0.2512 -0.5146
14204SOL    HW144380   2.434   3.235   0.665 -0.5775 -2.7409 -1.5969
14204SOL    HW244381   2.571   3.251   0.603  0.0261  0.5333  0.3106
14205SOL     OW44382   1.542   2.778   7.454  0.6128  0.1728 -0.1308
14205SOL    HW144383   1.555   2.856   7.400  1.9017  1.3912  1.8135
14205SOL    HW244384   1.569   2.805   7.542 -3.3130 -1.0552  1.7034
14206SOL     OW44385   0.129   0.180   3.807  0.1529  0.4426  0.0808
14206SOL    HW144386   0.182   0.169   3.886 -0.6458 -0.2261  0.5479
14206SOL    HW244387   0.061   0.112   3.814 -0.7727  1.2817 -0.4804
14207SOL     OW44388   0.919   9.409   1.384  0.7045  0.5972  0.5587
14207SOL    HW144389   0.988   9.396   1.450  0.6893 -0.5612  0.3687
14207SOL    HW244390   0.865   9.479   1.420  1.2373  0.6329  1.3260
14208SOL     OW44391   0.004   9.167   2.317  0.1785 -0.7832  0.2393
14208SOL    HW144392   0.091   9.159   2.356  0.2747 -1.1293 -0.0379
14208SOL    HW244393  -0.036   9.240   2.363  0.9739  0.0127 -0.2942
14209SOL     OW44394   2.050   1.069   7.850 -0.1281 -0.0563 -0.1943
14209SOL    HW144395   2.051   1.160   7.822 -0.0962 -0.4273 -1.4572
14209SOL    HW244396   1.964   1.037   7.823 -1.3579  0.3269  2.8227
14210SOL     OW44397   6.453   7.674   8.653 -0.3393  0.4089  0.2597
14210SOL    HW144398   6.370   7.687   8.606 -1.0240  0.5092  1.4629
14210SOL    HW244399   6.429   7.674   8.745  0.7724 -1.3311  0.5997
14211SOL     OW44400   2.512   9.130   2.609  0.1149  0.0300 -0.1677
14211SOL    HW144401   2.597   9.138   2.565  1.8418  0.3332  2.9609
14211SOL    HW244402   2.499   9.214   2.652  0.3754 -1.2935  2.7753
14212SOL     OW44403   3.988   0.470   5.569 -0.7589 -0.1078  0.0092
14212SOL    HW144404   4.014   0.381   5.592 -0.4446  0.0269  0.1758
14212SOL    HW244405   4.070   0.514   5.545 -0.6729  0.5845  1.4320
14213SOL     OW44406   5.496   3.932   4.486 -0.2108  0.0566  0.3770
14213SOL    HW144407   5.535   3.937   4.399 -1.3526 -0.3889 -0.1864
14213SOL    HW244408   5.459   4.019   4.501 -2.0090 -0.4936 -0.5882
14214SOL     OW44409   1.665   4.462   4.958  0.1180  0.0680  0.2629
14214SOL    HW144410   1.654   4.556   4.949 -0.1462 -0.0802 -1.3595
14214SOL    HW244411   1.584   4.432   5.000  0.0656  0.5202  0.4893
14215SOL     OW44412   3.755   2.088   1.712  0.6639  0.0102  0.5441
14215SOL    HW144413   3.794   2.003   1.690  2.7238  1.7366 -3.6878
14215SOL    HW244414   3.814   2.126   1.777  1.4224 -0.6403  0.2435
14216SOL     OW44415   5.870   3.518   6.033  0.1037 -0.2397 -0.4950
14216SOL    HW144416   5.793   3.564   6.067  0.3294  0.2946 -0.6870
14216SOL    HW244417   5.923   3.587   5.994  0.4539 -0.6706 -0.7911
14217SOL     OW44418   0.335   5.516   6.225  0.4022 -0.5304  0.3198
14217SOL    HW144419   0.330   5.431   6.268 -2.2607  0.4551  2.2726
14217SOL    HW244420   0.308   5.578   6.292  1.3565  1.7798 -1.2993
14218SOL     OW44421   0.645   1.468   4.410 -0.0918  0.8280 -0.0899
14218SOL    HW144422   0.592   1.391   4.429 -1.3903  1.5761 -0.5372
14218SOL    HW244423   0.680   1.452   4.322  2.0942 -0.5391  0.9464
14219SOL     OW44424   9.021   0.960   4.825 -0.3236 -0.0933 -0.6531
14219SOL    HW144425   8.961   0.987   4.757 -0.9292  0.5521  0.1210
14219SOL    HW244426   8.977   0.983   4.907  0.2524 -1.1124 -0.0281
14220SOL     OW44427   9.479   3.799   4.341 -0.1970  0.2328  0.2110
14220SOL    HW144428   9.420   3.814   4.267  0.3353  2.9072  0.2464
14220SOL    HW244429   9.433   3.835   4.417  0.0129 -0.8836  0.8890
14221SOL     OW44430   4.167   4.034   9.219 -0.0010 -0.0420 -0.2485
14221SOL    HW144431   4.078   3.999   9.229 -0.1138  0.5760  1.1528
14221SOL    HW244432   4.221   3.956   9.206 -0.2943 -0.8159  2.4738
14222SOL     OW44433   1.850   7.425   9.285  0.3814  0.4053  0.5809
14222SOL    HW144434   1.937   7.397   9.258 -0.2045  0.9657 -2.3075
14222SOL    HW244435   1.863   7.511   9.324  1.2767 -0.2431  1.7512
14223SOL     OW44436   6.038   5.483   7.712  0.0765 -0.4645  0.1038
14223SOL    HW144437   6.058   5.394   7.682 -0.2940  0.3279 -2.8289
14223SOL    HW244438   6.013   5.472   7.803  0.8345 -3.2567  0.0798
14224SOL     OW44439   8.774   0.995   2.247  0.0448  0.6722 -0.0160
14224SOL    HW144440   8.848   0.946   2.283 -1.2018 -0.9626  0.5179
14224SOL    HW244441   8.806   1.084   2.235  2.2038 -0.0927 -0.2536
14225SOL     OW44442   3.974   2.914   9.609 -0.2893  0.1967  0.0932
14225SOL    HW144443   3.976   2.896   9.516 -0.6730 -0.5215  0.2210
14225SOL    HW244444   4.031   2.990   9.620  1.4931 -1.0214 -0.4326
14226SOL     OW44445   4.304   9.202   5.605 -0.4390  0.0468  0.1764
14226SOL    HW144446   4.321   9.109   5.617 -0.8816  0.0413  0.8197
14226SOL    HW244447   4.322   9.218   5.513 -0.0619 -0.6100  0.1293
14227SOL     OW44448   8.776   2.171   8.377 -0.4924 -0.3740  0.4860
14227SOL    HW144449   8.685   2.148   8.395 -0.6569  0.5020  0.8208
14227SOL    HW244450   8.814   2.091   8.342 -1.3513 -0.7952  0.4819
14228SOL     OW44451   0.734   2.104   4.856  0.2646  0.6770 -0.1160
14228SOL    HW144452   0.817   2.089   4.812  1.3138 -0.6048  2.0996
14228SOL    HW244453   0.757   2.155   4.934 -1.0146  0.3633  0.5024
14229SOL     OW44454   6.014   9.385   1.029 -0.2583 -0.5806 -0.2325
14229SOL    HW144455   6.076   9.417   0.964  0.8437 -1.6480  0.2456
14229SOL    HW244456   5.931   9.379   0.982  0.2518 -0.2351 -1.2134
14230SOL     OW44457   3.186   4.820   8.027  1.1242 -0.0204  0.1913
14230SOL    HW144458   3.142   4.858   7.951 -0.7205 -0.1284  1.1328
14230SOL    HW244459   3.240   4.749   7.991 -1.1394 -1.3096 -0.8914
14231SOL     OW44460   1.271   1.034   2.420 -0.2048 -0.2706  0.5825
14231SOL    HW144461   1.226   1.004   2.499  0.0445  0.5840  1.0601
14231SOL    HW244462   1.277   1.129   2.429  1.5275 -0.3219  0.4616
14232SOL     OW44463   9.389   7.752   2.662  0.3206  0.5512 -0.5576
14232SOL    HW144464   9.442   7.674   2.682 -1.3694 -0.8394 -1.2532
14232SOL    HW244465   9.444   7.825   2.688  1.6922 -0.8938  0.8360
14233SOL     OW44466   1.228   1.245   5.257 -1.0445  0.2639  0.3806
14233SOL    HW144467   1.149   1.290   5.227 -0.3959  0.4773 -1.0767
14233SOL    HW244468   1.268   1.211   5.178 -1.1832 -2.4125  1.3747
14234SOL     OW44469   5.603   3.651   4.555  0.0459  0.3360  0.6040
14234SOL    HW144470   5.572   3.588   4.620 -1.0646  0.3899  0.1455
14234SOL    HW244471   5.562   3.734   4.580 -1.9801 -0.0159 -1.1972
14235SOL     OW44472   0.313   6.213   8.650 -0.3690 -0.1223  0.0512
14235SOL    HW144473   0.358   6.142   8.695  0.5270  0.6863  0.4745
14235SOL    HW244474   0.223   6.209   8.682  0.2120  0.3656  1.8801
14236SOL     OW44475   2.131   8.373   6.391  0.1628  0.1216  0.4324
14236SOL    HW144476   2.043   8.368   6.428 -0.0831 -1.7984 -0.2902
14236SOL    HW244477   2.131   8.307   6.321  2.0133  0.4601  0.0664
14237SOL     OW44478   7.711   1.682   6.772 -0.0004  0.0146 -0.3105
14237SOL    HW144479   7.781   1.624   6.801 -0.0053  1.4256  2.9319
14237SOL    HW244480   7.631   1.629   6.778  0.3211 -0.4766 -0.3023
14238SOL     OW44481   6.096   0.843   2.094  0.2354 -0.5306 -0.4494
14238SOL    HW144482   6.067   0.847   2.186 -0.6524 -0.2544 -0.7305
14238SOL    HW244483   6.044   0.910   2.050 -3.0151 -3.7952 -2.0905
14239SOL     OW44484   5.979   9.790   5.398 -0.0581 -0.0822  0.3565
14239SOL    HW144485   6.042   9.809   5.328  0.6043  1.7052  1.3836
14239SOL    HW244486   5.968   9.695   5.395  0.7586 -0.1682 -1.4737
14240SOL     OW44487   5.042   6.942   6.361  0.0362  0.2815 -0.1785
14240SOL    HW144488   5.099   6.906   6.429 -0.6873  1.0365  0.8751
14240SOL    HW244489   5.093   6.937   6.281  1.0391 -0.3555  0.4777
14241SOL     OW44490   1.940   2.949   3.285  0.2347 -0.0901  0.6776
14241SOL    HW144491   1.966   2.997   3.364  0.6227 -0.6690  0.9046
14241SOL    HW244492   1.915   2.862   3.317 -2.2931  0.5070  0.5206
14242SOL     OW44493   5.189   4.639   2.130  0.0639  0.0026  0.0309
14242SOL    HW144494   5.146   4.706   2.182  0.4497 -0.3600  0.8312
14242SOL    HW244495   5.140   4.559   2.147 -0.6912  0.1594 -1.2967
14243SOL     OW44496   8.397   8.599   8.719  0.6697 -0.4814 -0.0342
14243SOL    HW144497   8.318   8.648   8.738  0.6954  1.2735 -3.7976
14243SOL    HW244498   8.467   8.664   8.718  1.7454 -1.5681  0.5116
14244SOL     OW44499   4.679   3.447   0.991  0.2297 -0.1115 -0.0576
14244SOL    HW144500   4.733   3.380   1.032 -0.2149  0.0044  0.7337
14244SOL    HW244501   4.728   3.528   1.004 -0.0248 -0.0387  0.4682
14245SOL     OW44502   2.629   1.432   1.495 -0.2054 -0.1032  0.2442
14245SOL    HW144503   2.665   1.349   1.463 -0.7060 -0.0320 -0.5266
14245SOL    HW244504   2.652   1.434   1.588  0.4766 -0.7477  0.0951
14246SOL     OW44505   3.588   8.390   0.819  0.0998 -0.4537  0.0616
14246SOL    HW144506   3.516   8.375   0.880 -0.2759  1.4986  0.1737
14246SOL    HW244507   3.545   8.424   0.740  0.9437  2.1101  0.6318
14247SOL     OW44508   7.985   0.719   5.903  0.0369  0.0103 -0.6028
14247SOL    HW144509   8.043   0.746   5.975 -0.1712  0.3182 -0.5492
14247SOL    HW244510   8.028   0.642   5.865 -0.3794 -0.7808  0.4972
14248SOL     OW44511   1.498   2.552   5.196 -0.3582 -0.2248  0.3980
14248SOL    HW144512   1.490   2.465   5.235  0.9891 -0.7535 -0.4128
14248SOL    HW244513   1.587   2.579   5.218 -0.8573  1.0938  0.8865
14249SOL     OW44514   0.731   7.891   5.709 -0.0143 -0.7071  0.6728
14249SOL    HW144515   0.787   7.904   5.785 -0.0249 -0.3945  0.6290
14249SOL    HW244516   0.673   7.968   5.708 -1.3634 -1.6752  1.5090
14250SOL     OW44517   0.722   5.251   6.385  0.4382 -0.4714 -0.3476
14250SOL    HW144518   0.666   5.255   6.463  1.4919  2.0773  0.3615
14250SOL    HW244519   0.662   5.228   6.314 -1.1640  0.3000  0.6893
14251SOL     OW44520   4.228   5.741   4.947 -0.7018 -1.1029 -0.2276
14251SOL    HW144521   4.250   5.726   5.039  0.2921 -0.6412 -0.3750
14251SOL    HW244522   4.311   5.769   4.907 -0.8346 -2.4378 -1.5240
14252SOL     OW44523   0.598   8.280   4.067 -0.0991  0.5158  0.4379
14252SOL    HW144524   0.586   8.366   4.028  0.2841 -0.7254 -2.6517
14252SOL    HW244525   0.651   8.297   4.146 -0.4813  3.1185  0.2063
14253SOL     OW44526   7.255   2.626   7.964  0.4391  0.0826 -0.1414
14253SOL    HW144527   7.297   2.555   7.916 -0.3526  0.3196 -1.2537
14253SOL    HW244528   7.207   2.583   8.035 -2.3222 -0.9203 -2.3993
14254SOL     OW44529   7.035   6.716   2.445  0.8810 -0.4474 -0.1286
14254SOL    HW144530   7.029   6.810   2.462  1.3689 -0.6220  1.1182
14254SOL    HW244531   7.028   6.676   2.531 -1.4624 -1.7035 -0.8409
14255SOL     OW44532   7.126   8.455   0.286  0.7998  0.0397  0.6401
14255SOL    HW144533   7.165   8.368   0.286  4.5803  1.5034 -1.8994
14255SOL    HW244534   7.112   8.475   0.193 -2.6139  1.2127  1.2551
14256SOL     OW44535   7.511   2.975   8.703 -0.0729  0.0338 -0.1085
14256SOL    HW144536   7.587   2.918   8.708  0.2466  0.3112 -1.4245
14256SOL    HW244537   7.477   2.962   8.615 -1.2673  0.2811  0.2937
14257SOL     OW44538   3.873   3.429   2.947 -0.1343  0.0881  0.1445
14257SOL    HW144539   3.902   3.507   2.902  2.2968  0.6794  2.4626
14257SOL    HW244540   3.887   3.358   2.885 -0.1698  1.2063 -1.1741
14258SOL     OW44541   3.075   6.951   0.917  0.4032 -0.0094  0.0603
14258SOL    HW144542   3.022   6.938   0.995 -0.4042  0.7975 -0.3419
14258SOL    HW244543   3.104   6.863   0.893 -2.1549 -0.7210 -0.6823
14259SOL     OW44544   9.684   3.422   8.277  0.4762 -0.0262 -0.0843
14259SOL    HW144545   9.660   3.478   8.351 -0.1127  2.5487 -2.0865
14259SOL    HW244546   9.780   3.418   8.280  0.5038  0.7711  0.3423
14260SOL     OW44547   2.613   3.075   4.240 -0.1154 -0.3009 -0.1300
14260SOL    HW144548   2.542   3.024   4.279 -0.3065  1.4032  1.9168
14260SOL    HW244549   2.574   3.160   4.219  1.1342  0.4665  0.4919
14261SOL     OW44550   6.267   4.173   8.342  0.0106  0.2779  0.0990
14261SOL    HW144551   6.350   4.211   8.369  0.3824 -0.2222 -0.3254
14261SOL    HW244552   6.281   4.145   8.252 -0.5755  0.0653  0.0656
14262SOL     OW44553   2.842   4.920   6.310  0.2210  0.2252 -0.5290
14262SOL    HW144554   2.861   4.987   6.245 -0.3528 -0.9970 -2.0132
14262SOL    HW244555   2.915   4.858   6.302  0.4520  0.3464  0.4298
14263SOL     OW44556   7.110   2.986   6.804  0.0068 -0.3832 -0.1570
14263SOL    HW144557   7.044   3.017   6.742 -0.0691 -0.6093 -0.1895
14263SOL    HW244558   7.193   2.990   6.756  0.1087  0.4707  0.0747
14264SOL     OW44559   4.128   7.927   7.924 -0.0185  0.1645 -0.1583
14264SOL    HW144560   4.070   8.003   7.931 -1.9594 -1.0918 -1.3286
14264SOL    HW244561   4.148   7.921   7.831  0.0412 -0.7690 -0.0972
14265SOL     OW44562   6.448   8.930   1.467 -0.8632 -0.4401  0.1329
14265SOL    HW144563   6.518   8.866   1.457  0.9770  1.5329 -0.2347
14265SOL    HW244564   6.409   8.938   1.379  1.4700  1.6639 -0.8144
14266SOL     OW44565   0.902   2.254   4.650  0.3843  0.6206 -0.5455
14266SOL    HW144566   0.975   2.201   4.683 -0.4188 -0.4362 -0.3976
14266SOL    HW244567   0.897   2.231   4.557 -0.6715 -0.4611 -0.2478
14267SOL     OW44568   1.058   3.389   5.048 -0.0744  0.0451 -0.1092
14267SOL    HW144569   1.058   3.293   5.052 -0.8399 -0.0911 -2.0621
14267SOL    HW244570   0.965   3.412   5.053  0.1594  0.7896  1.3924
14268SOL     OW44571   4.255   2.930   8.067 -0.3134  0.0219  0.0569
14268SOL    HW144572   4.253   2.886   7.982  1.1253 -0.4498  0.2505
14268SOL    HW244573   4.211   3.014   8.051 -0.5471 -0.2876 -1.0181
14269SOL     OW44574   7.466   8.097   6.079 -0.2150 -0.3396 -0.2725
14269SOL    HW144575   7.422   8.017   6.049 -2.5936  1.3409 -1.6331
14269SOL    HW244576   7.448   8.161   6.011  1.8439  1.3415  0.6534
14270SOL     OW44577   7.161   7.864   9.413  0.5380 -0.6262  0.3786
14270SOL    HW144578   7.145   7.949   9.454 -1.0375 -1.0162  0.6383
14270SOL    HW244579   7.182   7.806   9.487 -0.3824 -0.8996  0.4322
14271SOL     OW44580   0.189   2.963   3.954  0.0969 -0.0226  0.6424
14271SOL    HW144581   0.116   2.913   3.916  2.4931 -2.6785 -0.9509
14271SOL    HW244582   0.198   2.928   4.042  1.3537 -2.1477 -0.2504
14272SOL     OW44583   1.032   2.976   8.478 -0.4496  0.0565 -0.4356
14272SOL    HW144584   1.028   3.063   8.436 -1.3546  0.5058  0.5565
14272SOL    HW244585   1.121   2.971   8.513  0.3875 -0.3867 -2.4798
14273SOL     OW44586   8.597   0.720   7.373  0.0936  0.1266  0.2293
14273SOL    HW144587   8.627   0.794   7.426  0.3086  0.6865 -0.6551
14273SOL    HW244588   8.524   0.755   7.323 -0.6759 -0.6414  0.7747
14274SOL     OW44589   1.396   9.600   7.730 -0.1399  0.1447  0.0611
14274SOL    HW144590   1.330   9.532   7.720 -0.3901  0.1659  1.3557
14274SOL    HW244591   1.448   9.596   7.650 -1.7626  0.2001 -1.0318
14275SOL     OW44592   7.575   1.163   1.200  1.0360 -0.3919 -0.4589
14275SOL    HW144593   7.661   1.197   1.228 -0.6156  2.7655  1.4271
14275SOL    HW244594   7.565   1.193   1.110  0.3591  3.0590  0.6105
14276SOL     OW44595   6.689   0.516   0.498 -0.1722 -0.4397  0.3020
14276SOL    HW144596   6.691   0.456   0.424  1.8895 -0.3116  0.1973
14276SOL    HW244597   6.662   0.600   0.460 -3.4845 -1.2855  0.5225
14277SOL     OW44598   4.025   8.528   2.865 -0.4402  0.1698 -0.0069
14277SOL    HW144599   3.984   8.518   2.951 -0.9055  1.1855 -0.0970
14277SOL    HW244600   3.965   8.584   2.816  1.2059  2.0630  0.0102
14278SOL     OW44601   6.143   2.638   4.944 -0.3413  0.4592 -1.0241
14278SOL    HW144602   6.178   2.726   4.961  0.1392  0.2776 -1.0634
14278SOL    HW244603   6.142   2.631   4.849  1.1817 -0.1765 -1.0344
14279SOL     OW44604   5.569   3.108   7.196 -0.1106 -0.4701 -0.4270
14279SOL    HW144605   5.645   3.134   7.144 -0.7940 -0.1483 -1.2824
14279SOL    HW244606   5.527   3.039   7.144  0.0613 -1.2463  0.4412
14280SOL     OW44607   7.220   6.187   8.796  0.4180  0.1570  0.5017
14280SOL    HW144608   7.151   6.135   8.838 -0.7360  1.5055  0.3804
14280SOL    HW244609   7.226   6.266   8.851  0.7960  0.7342 -0.3558
14281SOL     OW44610   4.999   6.276   3.364 -0.2448 -0.4701 -0.6566
14281SOL    HW144611   4.967   6.269   3.274  0.3633 -1.3435 -0.8242
14281SOL    HW244612   4.932   6.234   3.417 -1.5251  1.7054 -0.4438
14282SOL     OW44613   4.306   6.535   0.489  0.6749  0.1859 -0.0374
14282SOL    HW144614   4.276   6.623   0.510  3.6902  0.7461  2.7073
14282SOL    HW244615   4.357   6.545   0.409  0.1329  0.7142 -0.3217
14283SOL     OW44616   6.284   2.219   2.376 -0.1958 -0.5854 -0.3817
14283SOL    HW144617   6.221   2.262   2.434 -0.8115 -2.3285  0.3147
14283SOL    HW244618   6.370   2.245   2.410 -0.5270  0.7548 -0.5197
14284SOL     OW44619   0.165   3.103   7.110 -0.3256 -0.2323  0.1201
14284SOL    HW144620   0.107   3.029   7.095 -0.9885  0.4140 -0.6403
14284SOL    HW244621   0.115   3.162   7.167  0.0382 -0.1860  0.3977
14285SOL     OW44622   9.303   8.943   8.646 -0.3157  0.0756 -0.2825
14285SOL    HW144623   9.368   8.987   8.591  0.3244  0.5325  0.7973
14285SOL    HW244624   9.303   8.852   8.615  0.8823  0.0557 -0.2843
14286SOL     OW44625   1.860   0.017   8.478  0.2256  0.0244  0.0458
14286SOL    HW144626   1.937  -0.039   8.489  0.5048  0.5413  0.7682
14286SOL    HW244627   1.785  -0.042   8.486  0.5328 -0.3808 -0.0615
14287SOL     OW44628   0.306   6.366   6.295 -0.5738 -0.3522  0.5616
14287SOL    HW144629   0.271   6.384   6.382  0.4984 -0.4825  1.0387
14287SOL    HW244630   0.301   6.270   6.287  1.3331 -0.5810  1.4081
14288SOL     OW44631   1.969   7.111   7.746 -0.1763 -0.2596 -0.5754
14288SOL    HW144632   2.037   7.050   7.718  0.0833 -0.1892 -0.1054
14288SOL    HW244633   2.015   7.175   7.800 -0.0333  1.5894 -2.7295
14289SOL     OW44634   0.352   2.331   6.791 -0.0047  0.0262 -0.1714
14289SOL    HW144635   0.343   2.416   6.835 -1.2410  0.2677 -0.8432
14289SOL    HW244636   0.392   2.275   6.857  0.1920  0.9458  0.5228
14290SOL     OW44637   4.526   6.509   0.278  0.0441 -0.3923  0.5827
14290SOL    HW144638   4.465   6.567   0.232 -0.5501 -0.5245  1.1951
14290SOL    HW244639   4.526   6.429   0.225  0.4505 -0.0417  0.0378
14291SOL     OW44640   4.149   7.448   4.222 -0.5501 -0.1712 -0.0391
14291SOL    HW144641   4.223   7.454   4.161 -0.8171 -0.2863 -0.3765
14291SOL    HW244642   4.076   7.420   4.167 -0.6227 -1.0013  0.4719
14292SOL     OW44643   6.153   2.272   8.771  0.7443  0.0272  0.4623
14292SOL    HW144644   6.112   2.342   8.721 -0.8304  0.5299  2.3271
14292SOL    HW244645   6.126   2.191   8.726 -0.3734  0.4729  0.2877
14293SOL     OW44646   6.863   6.010   6.072 -0.1848  0.2881 -0.2001
14293SOL    HW144647   6.907   5.925   6.069  0.0627  0.3528  1.0438
14293SOL    HW244648   6.875   6.046   5.984 -1.3913 -1.4820 -1.1473
14294SOL     OW44649   4.125   3.249   5.317 -0.6138  0.6396 -0.7104
14294SOL    HW144650   4.034   3.222   5.309 -0.1293 -0.7767 -1.8270
14294SOL    HW244651   4.125   3.341   5.289 -1.7526  0.7904 -0.2573
14295SOL     OW44652   2.220   6.987   8.825  1.0319 -0.0100  0.3770
14295SOL    HW144653   2.228   6.892   8.819 -0.8732 -0.1252 -1.3124
14295SOL    HW244654   2.132   7.002   8.859  0.7855  1.1475 -0.7126
14296SOL     OW44655   6.852   0.832   2.849  0.0693  0.3131 -0.0350
14296SOL    HW144656   6.838   0.920   2.815  0.2128  0.4178  0.1762
14296SOL    HW244657   6.764   0.800   2.870  0.0935  0.7621  0.7759
14297SOL     OW44658   7.257   8.868   5.194  0.0176  0.6740  0.6631
14297SOL    HW144659   7.326   8.884   5.259 -0.0795  0.3479  0.8498
14297SOL    HW244660   7.184   8.834   5.245 -1.0917  3.0407  0.8018
14298SOL     OW44661   4.271   4.682   7.093  0.3032 -0.0477  0.2249
14298SOL    HW144662   4.333   4.754   7.080 -0.0207  0.1960  0.0319
14298SOL    HW244663   4.326   4.609   7.124  0.4203  0.7342  1.9832
14299SOL     OW44664   2.226   8.077   6.466 -0.5582  0.5189  0.6332
14299SOL    HW144665   2.309   8.047   6.429 -0.5869 -2.8755  2.8247
14299SOL    HW244666   2.164   8.069   6.394  0.4021 -0.2858 -0.1521
14300SOL     OW44667   4.208   6.272   7.668  0.0818 -0.0753 -0.0302
14300SOL    HW144668   4.207   6.352   7.721  0.0128  0.0319 -0.1925
14300SOL    HW244669   4.274   6.217   7.710  0.3980  0.2184 -0.1359
14301SOL     OW44670   1.156   4.910   0.824  0.1665 -0.1834 -0.0608
14301SOL    HW144671   1.225   4.900   0.758 -0.5329 -0.6203 -0.7367
14301SOL    HW244672   1.074   4.899   0.775 -0.3535 -1.7234  1.0600
14302SOL     OW44673   7.679   0.025   9.452  0.8602 -0.1330 -0.0764
14302SOL    HW144674   7.629   0.021   9.371  0.0294  0.7174  0.3725
14302SOL    HW244675   7.770   0.016   9.424  0.5631 -0.1996 -1.0656
14303SOL     OW44676   3.910   3.238   8.579 -0.3185 -0.8617 -0.2053
14303SOL    HW144677   3.939   3.198   8.498 -1.5592  1.0461 -1.6899
14303SOL    HW244678   3.815   3.249   8.568 -0.3416  0.5131  0.9867
14304SOL     OW44679   2.701   7.843   0.735 -0.2983 -0.5232 -0.4705
14304SOL    HW144680   2.715   7.752   0.763  0.0200 -0.3077  0.1018
14304SOL    HW244681   2.671   7.836   0.645 -0.5911 -1.2146 -0.3315
14305SOL     OW44682   5.291   8.553   9.352 -0.4212 -0.2109 -0.0711
14305SOL    HW144683   5.335   8.555   9.436 -0.8686 -1.1408  0.1948
14305SOL    HW244684   5.222   8.619   9.360 -0.0323  0.1903  0.0350
14306SOL     OW44685   7.922   2.338   3.925 -0.0292 -0.3319  0.4507
14306SOL    HW144686   7.983   2.285   3.873  0.4036  0.4021  0.1930
14306SOL    HW244687   7.883   2.398   3.861  1.0611  1.0987  1.0509
14307SOL     OW44688   1.967   3.669   6.960  0.3453 -0.0641  0.1110
14307SOL    HW144689   1.952   3.677   7.055 -1.6528  0.0716 -0.1839
14307SOL    HW244690   1.881   3.683   6.921  1.0201 -0.7714 -1.7046
14308SOL     OW44691   5.780   4.732   8.048  0.7031  0.5765  0.1579
14308SOL    HW144692   5.766   4.653   8.102 -0.7328  1.1405  0.6674
14308SOL    HW244693   5.719   4.721   7.975 -0.1444  1.6014  0.6910
14309SOL     OW44694   8.678   9.706   1.840  0.1215  0.0239  0.4560
14309SOL    HW144695   8.664   9.714   1.746  1.2656 -1.8560  0.0637
14309SOL    HW244696   8.770   9.728   1.853 -0.1439  0.7612  1.2376
14310SOL     OW44697   1.042   9.268   9.588 -0.3391 -0.0023 -0.4262
14310SOL    HW144698   1.069   9.352   9.550 -1.4088  0.0420 -1.1406
14310SOL    HW244699   0.977   9.291   9.654 -0.1176 -0.2261 -0.1292
14311SOL     OW44700   6.960   4.886   8.741 -0.1683  0.0708 -0.5260
14311SOL    HW144701   6.893   4.828   8.779  1.7231 -1.3118  0.9020
14311SOL    HW244702   6.995   4.837   8.667  0.5688 -0.0862 -0.0841
14312SOL     OW44703   6.207   4.394   6.391 -0.4751  0.2804 -0.1883
14312SOL    HW144704   6.271   4.330   6.360 -1.6446 -1.2312  0.3750
14312SOL    HW244705   6.124   4.346   6.392 -1.0640  1.2281  2.0304
14313SOL     OW44706   0.218   1.606   7.141  0.0510  0.6836 -0.3472
14313SOL    HW144707   0.241   1.658   7.064  0.1454 -0.2787 -0.9869
14313SOL    HW244708   0.302   1.575   7.174 -0.0971 -0.4716 -0.9974
14314SOL     OW44709   2.810   8.962   4.647 -0.3807  0.2311  0.6482
14314SOL    HW144710   2.736   9.008   4.608 -0.2674  1.6931  2.0371
14314SOL    HW244711   2.879   9.028   4.653  0.6340 -0.7822  0.4901
14315SOL     OW44712   0.691   2.231   7.104 -0.4033 -0.1873  0.1150
14315SOL    HW144713   0.657   2.251   7.191  0.3980  1.1606  0.1324
14315SOL    HW244714   0.763   2.170   7.120 -0.5439 -0.2911  0.3595
14316SOL     OW44715   7.138   2.116   2.276  0.2222  0.4206  0.0437
14316SOL    HW144716   7.081   2.100   2.351  1.5181  1.2261  1.2380
14316SOL    HW244717   7.220   2.147   2.314  1.1241  0.2745 -1.6821
14317SOL     OW44718   1.037   2.886   9.560  0.6498 -0.3938  0.6815
14317SOL    HW144719   1.080   2.873   9.645 -0.3572 -0.2115  1.2278
14317SOL    HW244720   0.985   2.807   9.547  2.0841 -1.1901 -0.5737
14318SOL     OW44721   7.803   0.746   2.185 -0.0698 -0.6683  0.2432
14318SOL    HW144722   7.880   0.697   2.212  1.2960  0.2536 -1.7780
14318SOL    HW244723   7.764   0.776   2.267  0.7506 -2.5340  1.3725
14319SOL     OW44724   1.647   3.299   4.529 -0.3964  0.1140 -0.4400
14319SOL    HW144725   1.604   3.343   4.602  2.7145  1.4279  0.7771
14319SOL    HW244726   1.725   3.258   4.567  1.6255  1.2393 -3.0129
14320SOL     OW44727   3.427   4.989   7.787 -1.3646  0.3676 -0.0342
14320SOL    HW144728   3.383   4.919   7.740 -1.0549 -0.2679  0.6060
14320SOL    HW244729   3.489   4.944   7.845 -1.5664  1.1448  0.7988
14321SOL     OW44730   7.356   0.263   4.036 -0.1919 -1.1141  0.3530
14321SOL    HW144731   7.403   0.298   3.960  0.4735 -1.0644  0.7812
14321SOL    HW244732   7.300   0.195   3.999 -2.0719  0.8372 -0.6133
14322SOL     OW44733   3.535   8.904   8.051 -0.5342  0.0507 -0.5515
14322SOL    HW144734   3.529   8.922   7.957 -1.4496 -0.1814 -0.5530
14322SOL    HW244735   3.466   8.840   8.067 -0.4992  0.2177  0.3117
14323SOL     OW44736   3.527   8.232   8.032  0.1079 -0.1981  0.1053
14323SOL    HW144737   3.557   8.320   8.008 -1.4938  0.5211  0.5499
14323SOL    HW244738   3.512   8.188   7.949  2.3161 -0.6134 -0.1346
14324SOL     OW44739   7.622   2.937   7.900  0.0053  0.1894 -0.0068
14324SOL    HW144740   7.670   2.978   7.972 -0.5258 -0.6980  0.8802
14324SOL    HW244741   7.542   2.903   7.940  0.3681 -1.6151 -0.6959
14325SOL     OW44742   1.128   5.391   2.134 -0.0296 -0.1569 -0.4313
14325SOL    HW144743   1.036   5.367   2.127 -0.2274 -0.0484  1.3322
14325SOL    HW244744   1.154   5.415   2.045 -1.5353 -0.7401 -1.0552
14326SOL     OW44745   3.310   1.551   2.218  0.7831 -0.1413 -0.0763
14326SOL    HW144746   3.273   1.551   2.130 -2.2624 -0.2822  1.0680
14326SOL    HW244747   3.333   1.459   2.234  3.0582  0.1562 -1.2848
14327SOL     OW44748   9.616   9.407   1.316  0.0749 -0.1517 -0.0917
14327SOL    HW144749   9.557   9.350   1.366 -0.9427  1.3875  0.5629
14327SOL    HW244750   9.699   9.360   1.312 -0.4273 -1.1994  1.3118
14328SOL     OW44751   8.127   0.026   9.250  0.0146 -0.0982  0.0538
14328SOL    HW144752   8.192   0.061   9.189 -0.2768 -0.4028 -0.4424
14328SOL    HW244753   8.175  -0.036   9.304 -0.2815 -2.0723 -1.8064
14329SOL     OW44754   4.551   5.112   7.291 -0.3965  0.1437  0.2332
14329SOL    HW144755   4.544   5.065   7.208 -0.0815 -1.2220  0.9451
14329SOL    HW244756   4.460   5.133   7.314 -0.6439 -0.9448  0.3257
14330SOL     OW44757   4.330   1.775   3.110 -0.7247 -0.2527  0.6376
14330SOL    HW144758   4.385   1.708   3.151 -0.7076  0.0085  1.0524
14330SOL    HW244759   4.359   1.857   3.151 -2.3836 -0.2689  1.9107
14331SOL     OW44760   5.121   7.027   7.030 -0.2160  0.0328 -0.2184
14331SOL    HW144761   5.136   7.111   7.073 -0.7255 -0.0724  0.1811
14331SOL    HW244762   5.199   6.976   7.050 -0.2625  0.1336  0.2374
14332SOL     OW44763   3.710   8.144   1.524  0.8393 -0.1832 -0.0161
14332SOL    HW144764   3.787   8.173   1.572  0.9486  1.5707 -1.1655
14332SOL    HW244765   3.647   8.216   1.534 -0.7461 -1.6389  1.0271
14333SOL     OW44766   0.589   2.923   7.538  0.3858  0.1704  0.6182
14333SOL    HW144767   0.674   2.878   7.541 -0.0472 -0.7761 -0.5942
14333SOL    HW244768   0.554   2.913   7.627  0.5295 -1.4960  0.5165
14334SOL     OW44769   1.131   3.275   3.226  0.1978  0.4695  0.5833
14334SOL    HW144770   1.166   3.211   3.289  2.1404 -0.9712 -1.7897
14334SOL    HW244771   1.205   3.297   3.171 -1.8886 -0.4506 -2.8965
14335SOL     OW44772   8.799   4.258   9.123  0.3486 -1.2281  0.1057
14335SOL    HW144773   8.842   4.194   9.067 -1.8336 -1.2196 -1.7206
14335SOL    HW244774   8.707   4.232   9.122 -0.6425  1.9658 -0.8010
14336SOL     OW44775   8.617   8.974   1.609 -0.1007  0.6829 -0.4928
14336SOL    HW144776   8.590   8.883   1.593 -0.4005  1.0261 -2.1420
14336SOL    HW244777   8.565   9.025   1.547 -0.1950  2.0362  0.6672
14337SOL     OW44778   4.686   7.102   2.179 -0.2159 -0.4266 -0.2178
14337SOL    HW144779   4.754   7.079   2.116  0.4337 -0.6064  0.5396
14337SOL    HW244780   4.727   7.091   2.265 -0.9262  0.3343  0.2330
14338SOL     OW44781   8.421   9.045   3.662 -0.1332  0.2326  0.0048
14338SOL    HW144782   8.442   9.105   3.590 -1.4279  1.1674  0.3802
14338SOL    HW244783   8.448   8.959   3.629  0.5973  0.8380 -1.0437
14339SOL     OW44784   0.523   2.849   6.426 -0.6330  0.2635  0.0495
14339SOL    HW144785   0.446   2.904   6.437  0.6203  1.9069  1.2041
14339SOL    HW244786   0.584   2.879   6.494  0.5377 -1.8588  0.0367
14340SOL     OW44787   8.161   9.780   4.715  0.5203  0.3825 -0.4833
14340SOL    HW144788   8.076   9.801   4.753  0.6447 -0.3521  0.2272
14340SOL    HW244789   8.202   9.866   4.700 -0.9001  0.8011 -2.1844
14341SOL     OW44790   4.150   8.481   7.954 -0.2156 -0.0895 -0.3803
14341SOL    HW144791   4.197   8.525   7.882  1.4360  0.1681  0.7972
14341SOL    HW244792   4.059   8.510   7.944  0.0387  0.2602 -2.1108
14342SOL     OW44793   9.286   7.542   0.602  0.2504 -0.3352  0.1080
14342SOL    HW144794   9.266   7.611   0.539 -0.3379  0.7242  1.3956
14342SOL    HW244795   9.206   7.534   0.655  1.0875 -0.3749  1.4310
14343SOL     OW44796   2.209   2.554   1.155  0.3529 -0.3127 -0.0508
14343SOL    HW144797   2.126   2.584   1.192  0.7756  0.5281  0.2135
14343SOL    HW244798   2.205   2.458   1.164 -0.4924 -0.2697  0.1511
14344SOL     OW44799   8.671   0.142   4.189 -0.4775  0.2236 -0.2469
14344SOL    HW144800   8.718   0.221   4.213  0.0788  0.0817 -0.8508
14344SOL    HW244801   8.621   0.119   4.268  0.1098  0.6303  0.2533
14345SOL     OW44802   0.099   4.457   2.765  0.0102 -0.1256  0.2659
14345SOL    HW144803   0.046   4.391   2.808  1.8146 -0.7293  1.7212
14345SOL    HW244804   0.127   4.515   2.836  1.1878  0.2228 -0.4560
14346SOL     OW44805   5.422   9.033   5.352  0.0425 -0.4002  0.0151
14346SOL    HW144806   5.396   9.046   5.261 -1.1520 -1.2284  0.2266
14346SOL    HW244807   5.474   8.953   5.351  1.6973  0.6070 -0.2083
14347SOL     OW44808   4.838   7.728   3.723  0.4003 -0.1958 -0.2551
14347SOL    HW144809   4.891   7.649   3.740  2.2562  0.8464 -0.9073
14347SOL    HW244810   4.891   7.800   3.758  0.4571  1.1274 -2.8287
14348SOL     OW44811   8.264   0.947   5.846  0.0057  0.1219 -0.0464
14348SOL    HW144812   8.186   0.985   5.887 -0.5467  0.9341 -1.7790
14348SOL    HW244813   8.232   0.907   5.766  0.8365 -2.6601  0.8947
14349SOL     OW44814   5.521   5.437   1.750  0.3201  0.0172 -0.2111
14349SOL    HW144815   5.477   5.379   1.688 -3.1559  1.8656  0.3012
14349SOL    HW244816   5.471   5.428   1.831  1.1711  1.9164  0.5760
14350SOL     OW44817   0.700   3.359   6.738  0.1925  0.0468  0.3117
14350SOL    HW144818   0.654   3.394   6.814 -2.4946  0.5096 -1.3653
14350SOL    HW244819   0.631   3.349   6.671  2.7266  1.9809 -2.8738
14351SOL     OW44820   3.386   2.885   7.803  0.3184 -0.6498 -0.3041
14351SOL    HW144821   3.375   2.960   7.862  0.2729 -1.6528  1.0260
14351SOL    HW244822   3.344   2.812   7.849  2.4217 -2.0240 -0.4088
14352SOL     OW44823   2.103   8.584   4.813 -0.2356  0.5090 -0.0435
14352SOL    HW144824   2.063   8.666   4.783 -2.8681 -0.5953  0.1665
14352SOL    HW244825   2.055   8.516   4.766  2.3585 -0.9515 -0.7307
14353SOL     OW44826   6.333   4.407   4.140  0.0262 -0.0079  0.2904
14353SOL    HW144827   6.362   4.494   4.114 -0.4860 -0.3204 -1.4928
14353SOL    HW244828   6.407   4.350   4.117 -0.1600 -0.2056  0.1804
14354SOL     OW44829   4.995   5.733   5.070 -0.0209 -0.0139  0.4182
14354SOL    HW144830   4.945   5.651   5.069 -0.4757  0.1815  2.6661
14354SOL    HW244831   5.036   5.735   5.157  1.2116  1.4393 -0.1491
14355SOL     OW44832   4.396   8.408   0.601 -0.4174 -0.1195 -0.0169
14355SOL    HW144833   4.421   8.491   0.560 -1.2040  0.0057 -0.2503
14355SOL    HW244834   4.380   8.430   0.692  1.1995 -0.3725  0.3702
14356SOL     OW44835   5.638   4.267   3.287 -0.6066  0.4388  0.0575
14356SOL    HW144836   5.725   4.255   3.248 -0.4377 -3.1851  1.1091
14356SOL    HW244837   5.649   4.341   3.346  1.8415  0.0711  0.1962
14357SOL     OW44838   2.406   3.143   5.625  0.2712  0.3698  0.4905
14357SOL    HW144839   2.321   3.106   5.649  0.0504 -1.0621 -2.1545
14357SOL    HW244840   2.468   3.072   5.640  0.5805  0.4931 -0.1848
14358SOL     OW44841   3.116   2.506   4.903  0.5868 -0.0123  0.1572
14358SOL    HW144842   3.091   2.557   4.826  0.4599  0.1252  0.2892
14358SOL    HW244843   3.058   2.429   4.900  0.8468 -0.1987 -0.0963
14359SOL     OW44844   8.133   0.802   8.845 -0.3109 -0.4387  0.0346
14359SOL    HW144845   8.093   0.796   8.758 -0.3662 -0.7078  0.0791
14359SOL    HW244846   8.197   0.731   8.846  1.4041  1.0138 -0.6790
14360SOL     OW44847   1.003   8.646   3.828 -0.1606  0.1009  0.5967
14360SOL    HW144848   0.978   8.566   3.875 -0.0323  0.2729  0.9585
14360SOL    HW244849   0.922   8.674   3.785  0.1051 -1.0001 -0.7062
14361SOL     OW44850   4.778   6.719   8.342 -0.2425  0.2697  0.3675
14361SOL    HW144851   4.838   6.696   8.271  0.1730  1.4415  0.3135
14361SOL    HW244852   4.771   6.814   8.337 -0.4963  0.3373  1.6791
14362SOL     OW44853   2.594   3.145   4.853  0.0006  0.3601  0.0144
14362SOL    HW144854   2.603   3.069   4.910 -0.7738 -2.4228 -3.2266
14362SOL    HW244855   2.500   3.152   4.837  0.1885  1.1077 -0.8244
14363SOL     OW44856   2.141   2.147   9.357 -0.2498  0.2799  0.1301
14363SOL    HW144857   2.167   2.202   9.431  2.9897 -0.2580 -0.4531
14363SOL    HW244858   2.171   2.059   9.382 -2.2802 -0.6093 -0.3825
14364SOL     OW44859   3.973   3.695   6.141 -0.1922 -1.0603 -0.1057
14364SOL    HW144860   3.946   3.717   6.052  0.7099 -0.0408 -0.1516
14364SOL    HW244861   3.898   3.719   6.195 -0.5332 -1.1522 -0.5336
14365SOL     OW44862   2.974   1.701   5.945 -0.2478  0.7802  0.4135
14365SOL    HW144863   2.887   1.665   5.929  0.0224  0.1846  0.2474
14365SOL    HW244864   2.989   1.689   6.038  0.7937 -1.7944 -0.0005
14366SOL     OW44865   9.454   5.923   5.266 -0.4983  0.2567 -0.2421
14366SOL    HW144866   9.391   5.892   5.201  0.7220  0.2377 -1.4648
14366SOL    HW244867   9.491   6.002   5.227 -0.1120  0.5279  0.6637
14367SOL     OW44868   7.740   4.680   0.032 -0.0992  0.2588  0.2729
14367SOL    HW144869   7.656   4.721   0.052  0.3820  0.0188  3.2730
14367SOL    HW244870   7.725   4.587   0.049  0.7479  0.2223  0.8896
14368SOL     OW44871   7.824   6.888   7.785 -0.2334 -0.4191 -0.5264
14368SOL    HW144872   7.745   6.835   7.797  1.0238 -1.9527  1.7880
14368SOL    HW244873   7.895   6.830   7.810  1.2090  2.5037  2.9633
14369SOL     OW44874   7.249   6.922   7.221  0.1816  0.0129 -0.5241
14369SOL    HW144875   7.195   6.885   7.291 -1.3785  2.2462 -0.4558
14369SOL    HW244876   7.331   6.873   7.226 -1.3796 -2.7661  0.0954
14370SOL     OW44877   9.476   7.678   3.229 -0.4491  0.2747  0.1944
14370SOL    HW144878   9.419   7.679   3.306 -1.2251  0.7592 -0.3824
14370SOL    HW244879   9.515   7.765   3.227  1.5194 -0.4883  1.4388
14371SOL     OW44880   0.610   1.966   5.674  0.2190 -0.0765 -0.0704
14371SOL    HW144881   0.620   1.886   5.726  1.8805 -0.2467 -0.5865
14371SOL    HW244882   0.566   2.027   5.733 -0.5537 -1.1641  0.5361
14372SOL     OW44883   5.082   1.815   0.703  0.0173  0.4348 -0.2562
14372SOL    HW144884   5.126   1.737   0.671 -0.5189 -0.8607  1.9187
14372SOL    HW244885   5.152   1.880   0.713  0.2731  0.7699 -3.3309
14373SOL     OW44886   8.381   1.715   9.643 -0.0355  0.1991  0.0589
14373SOL    HW144887   8.416   1.800   9.619 -2.7280  1.9447  1.8044
14373SOL    HW244888   8.437   1.685   9.715  1.5929 -0.1122 -1.2817
14374SOL     OW44889   1.622   0.151   9.606 -0.2184 -0.1053  0.0192
14374SOL    HW144890   1.636   0.205   9.684 -3.0753  0.2487  0.4199
14374SOL    HW244891   1.676   0.192   9.538  3.0878 -0.9765  1.9363
14375SOL     OW44892   3.748   8.264   0.531 -0.2101 -0.3025  0.2266
14375SOL    HW144893   3.794   8.276   0.614  3.0814 -0.3316 -1.4356
14375SOL    HW244894   3.700   8.181   0.542 -0.2549 -0.0670  2.2124
14376SOL     OW44895   7.417   3.854   3.069  0.6566  0.3165 -0.1082
14376SOL    HW144896   7.485   3.865   3.002 -0.3397 -1.9972 -1.6284
14376SOL    HW244897   7.340   3.897   3.032  0.9294  1.9808  1.1299
14377SOL     OW44898   6.299   0.498   3.260 -0.0097  0.5654  0.6971
14377SOL    HW144899   6.334   0.570   3.313  0.4807  2.6980 -2.2621
14377SOL    HW244900   6.215   0.531   3.228 -0.2873 -0.6367  0.1271
14378SOL     OW44901   8.347   1.269   2.762 -0.2176 -0.8399 -0.1069
14378SOL    HW144902   8.392   1.320   2.694 -1.0861  2.2248  1.4234
14378SOL    HW244903   8.403   1.278   2.840 -1.5449 -0.1527  0.8128
14379SOL     OW44904   0.542   0.204   5.820 -0.0463 -0.0797 -0.1576
14379SOL    HW144905   0.489   0.224   5.897  0.6136 -1.0050  0.5611
14379SOL    HW244906   0.632   0.197   5.854  0.1362 -1.3196 -0.8559
14380SOL     OW44907   5.981   5.670   1.123  0.2105  0.1689 -0.5331
14380SOL    HW144908   5.944   5.756   1.143  0.2893  0.0191  0.2727
14380SOL    HW244909   6.001   5.674   1.029 -2.1500  0.1376 -1.0983
14381SOL     OW44910   9.393   2.005   1.388 -0.4805  0.1371 -0.2326
14381SOL    HW144911   9.467   2.065   1.396 -0.4925 -0.0201  1.2559
14381SOL    HW244912   9.393   1.980   1.295  1.6179 -0.2202 -0.1983
14382SOL     OW44913   0.591   4.635   3.348 -0.3314  0.3128 -0.0122
14382SOL    HW144914   0.664   4.696   3.356  0.9370 -1.1211 -0.1832
14382SOL    HW244915   0.522   4.672   3.402  0.8762  1.1917  0.9696
14383SOL     OW44916   3.968   6.157   3.125  0.2416 -0.1585 -0.6536
14383SOL    HW144917   4.026   6.155   3.201  1.5988  0.1376 -1.6435
14383SOL    HW244918   3.949   6.250   3.111  1.3945 -0.0506 -1.6703
14384SOL     OW44919   6.041   5.029   0.567 -0.2894  0.3608  0.1400
14384SOL    HW144920   6.116   5.045   0.624 -0.9812 -0.4001  1.3094
14384SOL    HW244921   6.077   4.979   0.493  0.1086 -1.5229  1.5219
14385SOL     OW44922   5.705   0.334   2.646  0.4422  0.0492  0.0969
14385SOL    HW144923   5.631   0.360   2.702 -0.0117 -0.0168 -0.4590
14385SOL    HW244924   5.678   0.249   2.610  0.6157  0.2089 -0.4169
14386SOL     OW44925   4.136   2.078   0.997  0.1576  0.5182 -0.1998
14386SOL    HW144926   4.215   2.092   0.944 -0.2071  0.7188 -0.6925
14386SOL    HW244927   4.065   2.068   0.934 -0.2722  0.6796  0.2465
14387SOL     OW44928   4.822   0.674   8.448  0.6428 -0.3382  0.0699
14387SOL    HW144929   4.809   0.579   8.455  1.0446 -0.4649 -0.7738
14387SOL    HW244930   4.881   0.695   8.520  1.3178 -0.8887 -0.3126
14388SOL     OW44931   5.649   3.544   2.645  0.1122 -0.2718  0.1567
14388SOL    HW144932   5.692   3.526   2.561  0.6568 -0.3201  0.4447
14388SOL    HW244933   5.649   3.639   2.652 -1.2338 -0.1904 -0.5651
14389SOL     OW44934   6.092   8.770   0.453  0.0467  0.2262 -0.2900
14389SOL    HW144935   6.070   8.856   0.488 -2.7750 -1.0093  1.3082
14389SOL    HW244936   6.046   8.765   0.369  0.9275  0.5588 -0.8051
14390SOL     OW44937   3.227   8.136   3.003 -0.2981  0.1279 -1.0536
14390SOL    HW144938   3.142   8.157   3.040 -0.3654 -1.2563 -0.3636
14390SOL    HW244939   3.261   8.066   3.059  0.9011  0.0402 -1.8507
14391SOL     OW44940   9.497   0.561   3.049 -0.6200  0.2381 -0.4759
14391SOL    HW144941   9.413   0.535   3.086 -0.4510  0.6088  0.1798
14391SOL    HW244942   9.503   0.655   3.066  2.0816 -0.4202  4.1152
14392SOL     OW44943   4.867   9.460   8.466  0.7991  0.4635  0.2964
14392SOL    HW144944   4.866   9.382   8.410  1.3769  0.7664 -0.1591
14392SOL    HW244945   4.826   9.528   8.412 -1.5294  0.0292  1.4247
14393SOL     OW44946   7.484   2.526   1.704  0.2246 -0.6415  0.0816
14393SOL    HW144947   7.515   2.454   1.759  1.5607  0.3953  0.7641
14393SOL    HW244948   7.536   2.601   1.732 -0.5896  0.4218 -1.1343
14394SOL     OW44949   7.267   5.994   9.552  0.4424  0.2666 -0.2681
14394SOL    HW144950   7.207   6.064   9.578  0.9139  0.5879 -0.0421
14394SOL    HW244951   7.241   5.919   9.606 -0.3623  0.1224 -0.8405
14395SOL     OW44952   6.357   7.802   3.475  0.3796  0.2112 -0.7450
14395SOL    HW144953   6.449   7.823   3.489  0.2482  0.2242  0.2065
14395SOL    HW244954   6.320   7.797   3.564 -0.3262 -0.7405 -1.0760
14396SOL     OW44955   9.422   6.935   9.027 -0.7594  0.0684 -0.5231
14396SOL    HW144956   9.448   6.847   9.055  0.3197  0.1925 -1.0742
14396SOL    HW244957   9.441   6.990   9.103 -0.9176 -0.0836 -0.3700
14397SOL     OW44958   9.276   6.642   6.206  0.4811 -0.4143  0.1806
14397SOL    HW144959   9.314   6.590   6.135  1.6067 -0.9750  1.1707
14397SOL    HW244960   9.275   6.731   6.172 -0.8333 -0.9309 -1.2854
14398SOL     OW44961   8.135   6.777   8.326 -0.1820 -0.3342 -0.2577
14398SOL    HW144962   8.112   6.860   8.370  0.0190 -0.1678 -0.4650
14398SOL    HW244963   8.114   6.710   8.391  0.5191 -0.0624  0.2670
14399SOL     OW44964   3.841   2.889   3.344  0.0355  0.0422 -0.0291
14399SOL    HW144965   3.757   2.868   3.304 -1.1680 -0.9542  2.7340
14399SOL    HW244966   3.876   2.804   3.372  0.6191  0.6756  1.2707
14400SOL     OW44967   4.556   1.421   7.813  0.8100  0.5115  0.7556
14400SOL    HW144968   4.491   1.384   7.872  1.1657 -0.2438  0.6853
14400SOL    HW244969   4.504   1.466   7.745  0.2668 -1.6894 -0.3688
14401SOL     OW44970   2.394   0.718   9.256  0.2178 -0.2688  0.8303
14401SOL    HW144971   2.425   0.734   9.345 -0.2630  0.7526  0.8207
14401SOL    HW244972   2.458   0.658   9.219 -0.1122 -1.5246  2.1878
14402SOL     OW44973   8.177   8.857   1.194  0.8894  0.0214 -0.5203
14402SOL    HW144974   8.154   8.827   1.282  0.5389 -0.6787 -0.8381
14402SOL    HW244975   8.113   8.925   1.175  1.0309  0.2494 -0.1962
14403SOL     OW44976   7.242   9.420   1.353 -0.4217  0.3495 -0.9327
14403SOL    HW144977   7.328   9.457   1.373  0.1990 -1.4364 -0.1019
14403SOL    HW244978   7.180   9.485   1.387  0.6256  0.0545  1.7825
14404SOL     OW44979   3.578   0.903   4.303 -0.4262 -0.0839 -0.1103
14404SOL    HW144980   3.656   0.910   4.358 -0.9231 -0.7883  0.7091
14404SOL    HW244981   3.505   0.923   4.362 -1.0289 -1.5961 -0.2942
14405SOL     OW44982   5.959   8.834   9.253 -0.4151 -0.7716  0.0706
14405SOL    HW144983   6.004   8.822   9.170 -1.1804 -2.1791 -0.1688
14405SOL    HW244984   6.013   8.898   9.301  0.6973 -0.8801 -0.9929
14406SOL     OW44985   5.399   3.067   8.096  0.4445 -0.2316 -0.0248
14406SOL    HW144986   5.435   3.149   8.130  0.4063 -0.5038  0.6902
14406SOL    HW244987   5.476   3.017   8.069  0.4547  0.1238 -0.6660
14407SOL     OW44988   4.274   6.176   1.654  0.1075 -0.2618 -0.1205
14407SOL    HW144989   4.285   6.234   1.579 -2.1240 -0.8974 -0.9979
14407SOL    HW244990   4.194   6.127   1.636  0.9225 -2.3273  1.4491
14408SOL     OW44991   0.092   0.688   2.494 -0.8780  0.6531  0.0135
14408SOL    HW144992   0.019   0.667   2.553 -0.7794  0.8650  0.2132
14408SOL    HW244993   0.170   0.658   2.541 -0.9371 -0.9652 -0.8383
14409SOL     OW44994   9.021   2.147   2.730 -0.4212  0.1877  0.0513
14409SOL    HW144995   8.952   2.132   2.794  0.5079 -1.8060  0.6739
14409SOL    HW244996   9.102   2.142   2.781  0.3711 -2.0435 -1.3012
14410SOL     OW44997   0.232   2.848   3.220  0.0347 -0.1467 -0.3121
14410SOL    HW144998   0.263   2.905   3.150  0.3017 -0.9271 -0.8456
14410SOL    HW244999   0.223   2.905   3.296 -0.1974  0.7000 -0.9625
14411SOL     OW45000   5.224   3.058   9.381  0.0553  0.2798  0.4660
14411SOL    HW145001   5.295   3.120   9.367  0.9246 -0.4161  1.5511
14411SOL    HW245002   5.173   3.094   9.453 -0.4633  0.5740 -0.0400
14412SOL     OW45003   0.174   6.746   6.818 -0.3475  0.0227 -0.0209
14412SOL    HW145004   0.172   6.821   6.758 -0.4702 -1.4486 -1.9855
14412SOL    HW245005   0.262   6.746   6.854  0.0781  0.3868 -1.0179
14413SOL     OW45006   3.130   2.556   8.306  0.3398 -0.0656 -0.2635
14413SOL    HW145007   3.107   2.469   8.275  0.9029 -0.9049  1.5305
14413SOL    HW245008   3.206   2.581   8.253  0.4335 -0.8427 -0.5087
14414SOL     OW45009   9.762   8.490   2.790 -0.3949  0.0793  0.2466
14414SOL    HW145010   9.789   8.475   2.699  1.3355 -1.0157  0.8939
14414SOL    HW245011   9.759   8.585   2.799  0.9246  0.2243 -0.5709
14415SOL     OW45012   8.522   7.361   9.074  0.1330  0.8988 -0.1993
14415SOL    HW145013   8.504   7.269   9.054  1.3577 -0.2702  3.3797
14415SOL    HW245014   8.437   7.396   9.100  0.0786  0.0485  0.8239
14416SOL     OW45015   2.519   5.617   7.474  0.5369  0.0269 -0.5113
14416SOL    HW145016   2.517   5.685   7.541  1.2616 -0.3410 -0.1067
14416SOL    HW245017   2.570   5.546   7.513  0.2146 -0.5450 -1.1203
14417SOL     OW45018   9.603   7.436   9.435  0.2357 -0.0651 -0.1044
14417SOL    HW145019   9.671   7.407   9.374  0.9555  0.2122  0.5558
14417SOL    HW245020   9.637   7.517   9.473 -0.3326 -0.0835  0.4602
14418SOL     OW45021   7.172   9.540   6.370 -0.2544  0.5234  0.3082
14418SOL    HW145022   7.192   9.529   6.463 -3.5457 -0.4921  1.0282
14418SOL    HW245023   7.155   9.634   6.360  0.4416  0.6942  0.5968
14419SOL     OW45024   8.738   1.289   7.994  0.0932 -0.0825  0.2672
14419SOL    HW145025   8.799   1.231   8.040 -0.4192 -1.2556 -0.4835
14419SOL    HW245026   8.725   1.363   8.054 -0.7695 -1.6712  2.1443
14420SOL     OW45027   4.928   3.783   1.564 -0.7709  0.0745  0.3579
14420SOL    HW145028   4.866   3.819   1.500  0.5754  1.5972 -0.1525
14420SOL    HW245029   5.003   3.755   1.511 -0.3720 -0.2990  1.1158
14421SOL     OW45030   4.445   4.105   4.362  0.3607 -0.7055  1.0022
14421SOL    HW145031   4.488   4.069   4.285 -1.0975 -2.4630  0.9354
14421SOL    HW245032   4.352   4.082   4.351 -0.1153  0.2544  2.5916
14422SOL     OW45033   6.439   4.009   8.122 -0.0172 -0.4395 -0.0948
14422SOL    HW145034   6.506   4.056   8.170 -2.6291  1.8928  1.5961
14422SOL    HW245035   6.413   4.069   8.052 -1.1778 -0.7067  0.0780
14423SOL     OW45036   5.704   6.869   7.059  0.0218  0.4061  0.1173
14423SOL    HW145037   5.799   6.859   7.059  0.0067  0.0563 -1.3381
14423SOL    HW245038   5.688   6.943   6.999 -0.6622 -0.1087 -0.3424
14424SOL     OW45039   4.875   8.178   3.273 -0.4904  0.0916 -0.1539
14424SOL    HW145040   4.930   8.149   3.201  2.5094  3.3921  0.5148
14424SOL    HW245041   4.904   8.126   3.348 -0.6464 -0.4751 -0.4886
14425SOL     OW45042   8.595   4.147   6.381 -0.0717  0.4202  0.3776
14425SOL    HW145043   8.646   4.188   6.310  2.3070 -2.0220  0.5300
14425SOL    HW245044   8.615   4.201   6.458  1.4429  0.1614  0.1971
14426SOL     OW45045   3.238   7.937   9.006  0.3277  0.3655 -0.3254
14426SOL    HW145046   3.322   7.946   8.961  1.2857 -0.6643  1.1670
14426SOL    HW245047   3.226   7.842   9.018 -1.8188  0.3605 -1.8325
14427SOL     OW45048   6.117   7.963   1.898 -0.0900  0.4465 -0.8470
14427SOL    HW145049   6.161   7.956   1.983 -1.2961 -1.1405 -0.3218
14427SOL    HW245050   6.181   7.932   1.835  0.6313  1.1408 -0.4745
14428SOL     OW45051   2.143   7.395   5.917 -0.0394 -0.0226 -0.6406
14428SOL    HW145052   2.053   7.364   5.922 -0.1419  0.4677  1.3985
14428SOL    HW245053   2.143   7.479   5.963  1.2078  0.6541 -1.7789
14429SOL     OW45054   9.431   7.372   7.224  0.0493 -0.0881  0.2908
14429SOL    HW145055   9.526   7.365   7.220  0.0057 -1.5369  0.9339
14429SOL    HW245056   9.402   7.375   7.133  0.7075  0.4008  0.0955
14430SOL     OW45057   8.118   5.637   4.741 -0.0463  0.4415  0.5632
14430SOL    HW145058   8.161   5.690   4.673  1.5157 -1.3520  0.0756
14430SOL    HW245059   8.092   5.701   4.808 -1.2336  2.2092 -1.4688
14431SOL     OW45060   9.342   4.942   4.777 -0.1625  0.7345  0.3764
14431SOL    HW145061   9.265   4.986   4.814 -0.4234  0.4328  0.1930
14431SOL    HW245062   9.397   4.925   4.854  0.2171  1.8927  0.3886
14432SOL     OW45063   9.727   4.472   0.130 -0.4886  0.1479  0.2608
14432SOL    HW145064   9.676   4.470   0.210  0.1891 -1.5855  0.6770
14432SOL    HW245065   9.811   4.511   0.155 -0.2424 -0.4805  0.4247
14433SOL     OW45066   6.870   4.432   2.606 -0.8043  0.4785  0.2212
14433SOL    HW145067   6.906   4.364   2.549  1.3843  0.0866  1.9184
14433SOL    HW245068   6.839   4.384   2.683 -0.0295  1.2925  1.0646
14434SOL     OW45069   8.642   7.821   8.873  0.0003 -0.1558  0.0532
14434SOL    HW145070   8.612   7.730   8.869  1.3288 -0.5843 -1.7331
14434SOL    HW245071   8.728   7.819   8.831 -0.4688  2.1406 -1.1668
14435SOL     OW45072   2.210   3.279   1.890  0.1408  0.2530 -1.0621
14435SOL    HW145073   2.301   3.300   1.907  0.2270 -0.3555 -0.7597
14435SOL    HW245074   2.176   3.248   1.974 -0.5503  1.1776 -0.9743
14436SOL     OW45075   1.891   9.150   8.393  0.2247  0.0847  0.2728
14436SOL    HW145076   1.931   9.158   8.306  0.3659 -1.1110  0.2134
14436SOL    HW245077   1.965   9.135   8.452  0.0953  0.5320  0.5528
14437SOL     OW45078   8.989   7.451   6.423 -0.7217  0.2341 -0.1658
14437SOL    HW145079   8.947   7.531   6.392  1.4884  1.9528  0.9444
14437SOL    HW245080   9.029   7.414   6.344 -2.1857 -0.1092 -0.7819
14438SOL     OW45081   9.068   2.372   3.352 -0.1063 -0.0641 -0.1584
14438SOL    HW145082   9.112   2.440   3.302  0.3514  0.6394  1.1429
14438SOL    HW245083   9.136   2.335   3.408 -0.9162  0.3299  1.1435
14439SOL     OW45084   0.754   4.577   2.575  0.5093  0.2105  0.1264
14439SOL    HW145085   0.792   4.616   2.655  2.3238  0.3399 -0.7382
14439SOL    HW245086   0.721   4.492   2.603  2.3541 -0.3336  0.7950
14440SOL     OW45087   5.509   8.280   4.912 -0.2413 -0.3506 -0.4107
14440SOL    HW145088   5.537   8.366   4.880 -0.0511  0.8782  2.6721
14440SOL    HW245089   5.494   8.228   4.833  1.1553  2.0158 -2.3614
14441SOL     OW45090   9.295   1.544   7.936 -0.2235  0.9240  0.4678
14441SOL    HW145091   9.307   1.476   7.870  4.0013  2.4621 -0.7335
14441SOL    HW245092   9.203   1.567   7.932 -1.3664 -3.0614 -0.6151
14442SOL     OW45093   5.371   2.848   6.801  0.7386  0.4115 -0.6904
14442SOL    HW145094   5.332   2.861   6.714  0.0664  0.6071 -0.3683
14442SOL    HW245095   5.464   2.835   6.784  0.7562  1.3027 -1.3854
14443SOL     OW45096   1.318   4.124   0.094 -0.5252 -0.1309 -0.5019
14443SOL    HW145097   1.376   4.048   0.089 -0.9223 -0.3978 -1.0546
14443SOL    HW245098   1.253   4.100   0.160 -1.5958 -0.9308 -1.8102
14444SOL     OW45099   2.601   2.499   1.900 -0.2299 -0.1585  0.2633
14444SOL    HW145100   2.670   2.549   1.944  0.5620 -1.7494  0.9398
14444SOL    HW245101   2.561   2.560   1.839  0.7989  1.2221  0.9275
14445SOL     OW45102   9.358   5.860   0.362 -0.2561  0.3540  0.3063
14445SOL    HW145103   9.348   5.882   0.455 -0.4602  1.1388  0.1095
14445SOL    HW245104   9.390   5.770   0.362 -1.8359 -0.2620  1.1156
14446SOL     OW45105   8.228   9.363   2.613 -0.2044 -0.3301 -0.2214
14446SOL    HW145106   8.211   9.273   2.642  0.3418 -0.5561 -0.5790
14446SOL    HW245107   8.166   9.416   2.663  0.5728 -0.7253  1.2270
14447SOL     OW45108   2.544   5.142   5.492 -0.1218 -0.0013  0.5828
14447SOL    HW145109   2.554   5.076   5.423  1.3351 -0.1593  0.9170
14447SOL    HW245110   2.494   5.098   5.560 -0.7162 -0.1662  0.0502
14448SOL     OW45111   4.383   1.990   4.417  0.1092  0.2149  0.1201
14448SOL    HW145112   4.458   1.949   4.374  0.8237 -0.0981  1.5859
14448SOL    HW245113   4.374   1.943   4.500 -0.2496  1.7403  0.9921
14449SOL     OW45114   2.594   9.331   3.284  0.1880  0.3030 -0.0176
14449SOL    HW145115   2.613   9.337   3.190 -1.7283 -3.2041 -0.8353
14449SOL    HW245116   2.662   9.273   3.318 -0.1166  0.1754  0.3762
14450SOL     OW45117   4.092   4.683   0.951 -0.0360  0.0419  0.0929
14450SOL    HW145118   4.046   4.661   0.870 -0.5063  0.4980  0.2294
14450SOL    HW245119   4.116   4.598   0.989 -0.0318 -0.1787 -0.3935
14451SOL     OW45120   3.586   4.627   3.537  0.6659  0.0198 -0.1848
14451SOL    HW145121   3.505   4.670   3.510  0.5809 -0.5300 -0.8621
14451SOL    HW245122   3.655   4.675   3.491  0.7770  0.7598  0.7274
14452SOL     OW45123   2.493   5.740   5.688 -0.6316  0.4005  0.2884
14452SOL    HW145124   2.544   5.671   5.645 -1.1347 -0.0541  0.4016
14452SOL    HW245125   2.546   5.765   5.764 -0.7104 -0.2861  0.5797
14453SOL     OW45126   6.101   4.831   8.943  0.0756 -0.6230  0.3145
14453SOL    HW145127   6.117   4.883   9.022  0.0455 -0.3512  0.1422
14453SOL    HW245128   6.084   4.896   8.874  1.6352 -0.7902 -0.2741
14454SOL     OW45129   9.100   6.459   1.187 -0.0981  0.3528 -0.8029
14454SOL    HW145130   9.041   6.486   1.116 -0.5659 -4.2228 -2.5074
14454SOL    HW245131   9.188   6.465   1.149 -0.1367  0.1950 -0.9198
14455SOL     OW45132   2.101   7.426   7.624  0.0726 -1.0546 -0.4803
14455SOL    HW145133   2.046   7.504   7.618 -0.5040 -1.5057 -1.1294
14455SOL    HW245134   2.086   7.394   7.713  1.7684  0.6110  0.4800
14456SOL     OW45135   9.678   0.965   5.386  0.1170  0.3532  0.0644
14456SOL    HW145136   9.628   0.939   5.308  0.4943 -0.3432  0.0563
14456SOL    HW245137   9.624   1.033   5.427 -0.4791  0.1374 -0.3520
14457SOL     OW45138   3.358   7.733   7.998  0.4873 -0.0399 -0.3174
14457SOL    HW145139   3.435   7.788   8.016  1.6568 -1.5236 -0.5497
14457SOL    HW245140   3.331   7.701   8.084  0.2394  0.3363 -0.2543
14458SOL     OW45141   2.972   6.234   6.051  0.4363 -0.2395  0.5356
14458SOL    HW145142   3.032   6.308   6.054  0.2304  0.2049 -2.8978
14458SOL    HW245143   2.887   6.271   6.075  0.2249  0.8835 -1.6835
14459SOL     OW45144   0.656   0.387   3.025 -0.3043 -0.0890 -0.2474
14459SOL    HW145145   0.602   0.465   3.037  0.1107  0.0689  0.6939
14459SOL    HW245146   0.745   0.421   3.016  0.0419 -0.4746  1.3129
14460SOL     OW45147   2.210   0.073   9.056 -0.4455 -0.3248 -0.0136
14460SOL    HW145148   2.166   0.048   8.975  0.3924 -1.4623 -0.1412
14460SOL    HW245149   2.284   0.126   9.028  0.4447 -1.5692 -0.1002
14461SOL     OW45150   1.136   1.424   8.656 -0.1982  0.3154  0.5908
14461SOL    HW145151   1.044   1.414   8.633  0.0414  1.1682 -0.9122
14461SOL    HW245152   1.137   1.486   8.729 -0.7552  1.4560 -0.3380
14462SOL     OW45153   3.778   9.471   1.848 -0.0363  0.0519 -0.2484
14462SOL    HW145154   3.812   9.526   1.777 -0.7250 -0.5064 -1.0207
14462SOL    HW245155   3.740   9.395   1.804  1.1089 -1.1805  0.8102
14463SOL     OW45156   9.504   0.293   7.484  0.1617  0.1634  0.5455
14463SOL    HW145157   9.410   0.312   7.484  0.4888  2.0327  1.1997
14463SOL    HW245158   9.510   0.198   7.476 -1.7833  0.0161  0.4811
14464SOL     OW45159   2.089   9.294   6.295  0.1536  0.0950 -0.6406
14464SOL    HW145160   2.024   9.225   6.280  0.5621 -0.0486 -1.8606
14464SOL    HW245161   2.040   9.364   6.338 -0.6784 -0.2423 -1.0068
14465SOL     OW45162   7.251   9.438   3.036  0.1748  0.2665  0.6823
14465SOL    HW145163   7.343   9.418   3.052  0.2399 -0.2213 -0.2359
14465SOL    HW245164   7.210   9.354   3.019  0.1363  0.6697 -1.6327
14466SOL     OW45165   3.551   5.665   1.951 -0.5560 -0.0182  0.1233
14466SOL    HW145166   3.487   5.599   1.977 -0.9593  0.7388  1.1026
14466SOL    HW245167   3.624   5.652   2.011 -0.4391  0.1202  0.0107
14467SOL     OW45168   0.807   8.576   3.053  0.3557 -0.0935  0.1597
14467SOL    HW145169   0.762   8.505   3.099  1.1083 -0.8733 -0.2728
14467SOL    HW245170   0.751   8.594   2.977 -0.5652  0.7707  1.0071
14468SOL     OW45171   6.596   2.015   2.209  0.1643  0.3653 -0.0212
14468SOL    HW145172   6.545   1.954   2.156 -2.2278  0.3883  2.0422
14468SOL    HW245173   6.682   2.016   2.169 -0.6039 -1.9915 -1.9570
14469SOL     OW45174   9.646   2.066   1.014 -0.1808  0.0061  0.8497
14469SOL    HW145175   9.570   2.040   0.962  0.4204  0.9924 -0.5978
14469SOL    HW245176   9.657   2.159   0.994  1.5128 -0.1634  0.8700
14470SOL     OW45177   2.635   0.469   5.438  0.3235  0.6252 -0.2376
14470SOL    HW145178   2.727   0.456   5.416  0.2399  0.5109 -0.5226
14470SOL    HW245179   2.632   0.459   5.533  0.7055  1.2476 -0.1532
14471SOL     OW45180   7.013   8.571   6.886 -0.0298 -0.4287  0.1423
14471SOL    HW145181   6.957   8.564   6.809  1.1652 -0.5070 -0.7629
14471SOL    HW245182   7.099   8.593   6.850  0.7393 -1.2905  1.3939
14472SOL     OW45183   8.743   3.965   0.837  0.2926  0.7303 -0.4455
14472SOL    HW145184   8.812   3.942   0.900  0.8169 -0.9587 -1.5666
14472SOL    HW245185   8.678   4.012   0.889  1.7468  1.3691  0.8801
14473SOL     OW45186   0.381   8.129   4.096 -0.0036  0.1442  0.2139
14473SOL    HW145187   0.358   8.150   4.005  0.9085 -2.5540 -0.7609
14473SOL    HW245188   0.468   8.168   4.108  0.8778 -1.3280 -0.9287
14474SOL     OW45189   4.531   6.069   3.475  0.1352  0.4123  0.8201
14474SOL    HW145190   4.579   5.988   3.490 -0.4398 -0.3502 -1.1557
14474SOL    HW245191   4.507   6.099   3.563  2.9947  0.1332  1.7912
14475SOL     OW45192   9.671   3.000   8.859 -0.6443 -0.4670 -0.0670
14475SOL    HW145193   9.577   2.986   8.848 -0.3966 -2.4220 -0.0600
14475SOL    HW245194   9.699   3.042   8.778 -1.3330 -1.0219 -0.5984
14476SOL     OW45195   5.497   3.744   9.425 -0.0476 -0.2270  0.4511
14476SOL    HW145196   5.486   3.667   9.370  1.9990 -0.8711  0.8435
14476SOL    HW245197   5.490   3.710   9.515  1.1153 -0.0454  0.6303
14477SOL     OW45198   2.743   0.935   8.791  0.0024  0.1539  0.2633
14477SOL    HW145199   2.826   0.904   8.756  0.0070  0.1880  0.2437
14477SOL    HW245200   2.676   0.887   8.741 -0.0159  1.0372 -0.5907
14478SOL     OW45201   1.843   1.227   6.934  0.0087 -0.5540 -0.0233
14478SOL    HW145202   1.808   1.312   6.907 -0.2073 -0.0182  1.8245
14478SOL    HW245203   1.885   1.244   7.018 -1.7053 -2.6103  1.3526
14479SOL     OW45204   7.373   2.965   7.191  0.3169  0.1593 -0.4005
14479SOL    HW145205   7.453   2.990   7.145  0.8785 -0.6565  0.0941
14479SOL    HW245206   7.370   3.024   7.267  0.0729  0.6580 -0.7985
14480SOL     OW45207   0.559   5.049   7.064 -0.4142  0.0267  0.5121
14480SOL    HW145208   0.488   4.989   7.040  0.7914 -1.2498  0.0354
14480SOL    HW245209   0.632   5.024   7.008  0.7563  0.6056  1.7227
14481SOL     OW45210   0.505   2.191   2.151  0.6458  0.1099 -0.1248
14481SOL    HW145211   0.464   2.146   2.225  0.4632  1.4629  0.6426
14481SOL    HW245212   0.505   2.127   2.081 -0.4490 -0.7726  0.6347
14482SOL     OW45213   0.096   6.937   2.155 -0.8010 -0.1363 -0.2033
14482SOL    HW145214   0.035   6.883   2.104 -1.7190  0.5093  0.1889
14482SOL    HW245215   0.049   7.018   2.172  0.7231  1.0116 -1.1713
14483SOL     OW45216   9.012   5.249   6.595 -0.0298  0.1659  0.1854
14483SOL    HW145217   8.929   5.294   6.609 -0.3857 -0.3667 -0.1664
14483SOL    HW245218   9.067   5.274   6.669 -0.6070  0.2923  0.5709
14484SOL     OW45219   4.446   7.427   7.509 -0.1154 -0.6164  0.1521
14484SOL    HW145220   4.526   7.375   7.511  0.8909  0.8282 -1.1761
14484SOL    HW245221   4.428   7.447   7.601  0.7043 -1.4531  0.5061
14485SOL     OW45222   9.224   7.433   8.316  0.3435  0.1294 -0.4024
14485SOL    HW145223   9.182   7.457   8.234 -0.8295  1.0729  0.4428
14485SOL    HW245224   9.306   7.483   8.318  0.8448 -0.6157 -1.3961
14486SOL     OW45225   9.006   6.372   3.817 -0.1783  0.2791  0.5141
14486SOL    HW145226   9.065   6.323   3.875  2.2331  1.2902 -0.9088
14486SOL    HW245227   9.014   6.328   3.732 -1.9534  0.1352  0.3896
14487SOL     OW45228   5.024   3.260   7.915 -0.5190 -0.4059 -0.2213
14487SOL    HW145229   4.972   3.308   7.851 -0.9329  0.8038  0.9792
14487SOL    HW245230   5.105   3.311   7.923 -0.5992 -0.3802  0.4373
14488SOL     OW45231   8.386   0.665   8.537 -0.4096 -0.8833 -0.2292
14488SOL    HW145232   8.322   0.728   8.507  0.8834  0.0862 -1.0357
14488SOL    HW245233   8.470   0.702   8.512  0.4505 -2.3580  0.3478
14489SOL     OW45234   9.633   0.547   9.252  0.1646  0.3245  0.7496
14489SOL    HW145235   9.637   0.495   9.332 -0.8749 -0.4047  0.3395
14489SOL    HW245236   9.666   0.488   9.184  1.5559  1.1124  0.6914
14490SOL     OW45237   3.637   1.168   0.715 -0.5330  0.0894  0.7654
14490SOL    HW145238   3.706   1.171   0.648 -0.7873  1.1735  0.5255
14490SOL    HW245239   3.575   1.235   0.687 -0.5877  0.6321  2.1595
14491SOL     OW45240   4.511   9.368   1.579  0.3690 -0.3969 -0.1150
14491SOL    HW145241   4.539   9.276   1.571 -0.0778 -0.4599 -1.1314
14491SOL    HW245242   4.502   9.382   1.673  0.4765 -1.3952  0.0568
14492SOL     OW45243   7.187   6.301   4.687  0.7641 -0.4478 -0.2153
14492SOL    HW145244   7.160   6.339   4.771 -0.6825 -0.7784 -0.5104
14492SOL    HW245245   7.281   6.319   4.682  0.7487  0.1456  1.1743
14493SOL     OW45246   3.123   5.007   9.679 -0.0318  0.2872 -0.1634
14493SOL    HW145247   3.111   4.953   9.600 -0.5824  0.3609 -0.1307
14493SOL    HW245248   3.191   5.070   9.654  1.1953 -0.8879  0.0424
14494SOL     OW45249   1.083   2.040   7.789 -0.4424  0.6286  0.1519
14494SOL    HW145250   1.011   2.059   7.730  0.0859 -0.4132 -0.8831
14494SOL    HW245251   1.047   2.052   7.876 -1.9764 -0.2145 -0.3299
14495SOL     OW45252   0.574   2.535   6.581 -0.0001 -1.0570 -0.2779
14495SOL    HW145253   0.501   2.596   6.588  0.8903  0.0630 -0.5573
14495SOL    HW245254   0.533   2.451   6.557 -0.9729  0.0837 -2.9641
14496SOL     OW45255   8.653   2.616   4.883  0.7233 -0.1352  0.1457
14496SOL    HW145256   8.656   2.546   4.947  2.8857 -0.1754  0.0774
14496SOL    HW245257   8.651   2.696   4.935  2.9971 -0.1484  0.3485
14497SOL     OW45258   8.336   4.196   2.439 -0.1808 -0.2046 -0.1429
14497SOL    HW145259   8.409   4.256   2.457  2.0583 -2.4794 -1.0689
14497SOL    HW245260   8.376   4.109   2.436 -2.6983 -1.4321 -2.1931
14498SOL     OW45261   8.667   1.314   7.025 -0.3186 -0.1638 -0.1063
14498SOL    HW145262   8.761   1.297   7.035 -0.0763  1.2467  0.2706
14498SOL    HW245263   8.656   1.403   7.056 -1.4524  0.4542 -2.0970
14499SOL     OW45264   1.899   5.126   4.512  0.0611 -0.2632  0.4008
14499SOL    HW145265   1.805   5.138   4.505  0.2110  0.2525 -1.3046
14499SOL    HW245266   1.918   5.049   4.457  0.7348  0.3220 -0.2228
14500SOL     OW45267   0.912   8.618   5.702 -0.6327 -0.1027  0.4185
14500SOL    HW145268   0.903   8.665   5.786 -0.5863 -0.8608  0.8580
14500SOL    HW245269   0.997   8.645   5.668  1.1478 -2.5830  2.4491
14501SOL     OW45270   4.192   1.707   9.168 -0.3929  0.3418  0.3971
14501SOL    HW145271   4.183   1.612   9.156  1.6379 -0.2500  2.5687
14501SOL    HW245272   4.144   1.725   9.248 -0.5133  1.0911  0.1576
14502SOL     OW45273   0.758   7.655   0.825 -0.0293  0.0924  0.1510
14502SOL    HW145274   0.796   7.676   0.910 -1.4161  2.2710  0.3022
14502SOL    HW245275   0.815   7.699   0.762  0.3721 -0.5978  0.0302
14503SOL     OW45276   8.016   1.093   3.208  0.3312  0.4401 -0.2909
14503SOL    HW145277   7.925   1.108   3.181 -0.3118  0.5237  1.7488
14503SOL    HW245278   8.030   0.999   3.195  0.5534  0.7156 -2.2365
14504SOL     OW45279   2.684   2.846   9.565 -0.0201 -0.2672  0.3117
14504SOL    HW145280   2.756   2.834   9.627 -0.8617 -1.6636  1.0815
14504SOL    HW245281   2.605   2.830   9.616 -1.1552  3.6262  0.1201
14505SOL     OW45282   9.749   6.362   6.612  0.1284  0.3473  0.5557
14505SOL    HW145283   9.734   6.268   6.622  0.9876  0.0459 -0.7563
14505SOL    HW245284   9.801   6.387   6.688  2.6858 -0.9426 -0.6292
14506SOL     OW45285   2.341   0.115   2.359  0.5040  0.0922  0.2857
14506SOL    HW145286   2.363   0.046   2.421 -0.5231 -0.1506  0.4016
14506SOL    HW245287   2.260   0.085   2.317  2.0817 -0.6198 -2.5027
14507SOL     OW45288   4.551   5.293   9.559  0.0094  0.3876 -0.5664
14507SOL    HW145289   4.493   5.245   9.500 -0.0761 -0.1325 -0.0601
14507SOL    HW245290   4.631   5.242   9.563 -0.6002 -0.5129  1.1040
14508SOL     OW45291   5.713   1.673   4.817  0.1761 -0.0999  0.0015
14508SOL    HW145292   5.621   1.654   4.834  0.3107 -0.3319  0.4631
14508SOL    HW245293   5.711   1.756   4.767 -0.3326 -0.6399 -0.9090
14509SOL     OW45294   9.747   1.842   0.506 -0.8256 -0.0352 -0.3873
14509SOL    HW145295   9.821   1.835   0.565  0.6002 -1.4379 -2.1975
14509SOL    HW245296   9.769   1.914   0.447 -1.1030 -0.1600 -0.6483
14510SOL     OW45297   6.787   9.757   6.922 -0.4955 -0.1255  0.2771
14510SOL    HW145298   6.739   9.829   6.962  2.1845  1.1648  1.4310
14510SOL    HW245299   6.815   9.790   6.837 -0.0692 -0.1308  0.4097
14511SOL     OW45300   2.819   0.608   3.072 -0.2054 -0.0685  0.3093
14511SOL    HW145301   2.769   0.533   3.104 -0.8880 -0.1309 -0.8319
14511SOL    HW245302   2.804   0.607   2.977  1.7836  0.0594 -0.0352
14512SOL     OW45303   2.247   3.568   6.685  0.2588 -0.2599  0.2827
14512SOL    HW145304   2.204   3.631   6.628  1.4682  0.0419 -0.3322
14512SOL    HW245305   2.271   3.495   6.627  3.0714  0.8087 -0.0586
14513SOL     OW45306   0.367   7.060   8.137  0.6922  0.1352 -0.0684
14513SOL    HW145307   0.411   7.085   8.056 -0.2191  0.0178 -0.6102
14513SOL    HW245308   0.432   7.077   8.205  0.7334  2.3598 -0.5804
14514SOL     OW45309   4.595   1.569   1.685  0.2872 -0.3473 -1.1658
14514SOL    HW145310   4.682   1.529   1.682  0.5926  0.2725 -0.7445
14514SOL    HW245311   4.590   1.610   1.771 -1.0515 -1.7604 -0.5039
14515SOL     OW45312   2.640   1.666   2.191 -0.0695  0.0391 -0.4725
14515SOL    HW145313   2.644   1.726   2.265 -0.1687  1.3382 -1.5022
14515SOL    HW245314   2.721   1.615   2.198  0.1485  0.4684  0.2525
14516SOL     OW45315   8.094   0.522   5.734 -0.2466 -0.4741 -0.0624
14516SOL    HW145316   8.003   0.523   5.705 -0.2171  1.1384 -0.2025
14516SOL    HW245317   8.139   0.471   5.666 -0.6563  0.8259 -1.3755
14517SOL     OW45318   5.598   0.911   6.490  0.0483  0.0483 -0.1338
14517SOL    HW145319   5.691   0.892   6.477 -0.1044 -0.4269 -0.5587
14517SOL    HW245320   5.556   0.883   6.408 -0.8875 -2.5199  1.1065
14518SOL     OW45321   0.946   6.190   0.547 -0.1615 -0.3002  0.0570
14518SOL    HW145322   0.892   6.160   0.620  1.0584  1.3360  1.6999
14518SOL    HW245323   0.998   6.113   0.522 -1.8437 -1.3686 -0.3360
14519SOL     OW45324   8.438   1.187   3.236 -0.2168 -0.4833 -0.4421
14519SOL    HW145325   8.410   1.276   3.261  1.3179  0.6289 -2.3727
14519SOL    HW245326   8.506   1.165   3.301 -1.4003 -0.7749  0.7417
14520SOL     OW45327   1.150   6.920   4.486 -0.2833 -0.6354 -0.5731
14520SOL    HW145328   1.111   7.000   4.451  1.7285  0.2492 -0.9783
14520SOL    HW245329   1.223   6.951   4.540  0.3017 -2.1812 -0.4290
14521SOL     OW45330   3.234   9.610   4.835  0.1248 -0.0349  0.3791
14521SOL    HW145331   3.313   9.624   4.888  0.2013 -1.0733  0.5624
14521SOL    HW245332   3.212   9.518   4.850  0.8192 -0.7054 -2.3134
14522SOL     OW45333   1.505   2.963   6.532 -0.2673  0.0541 -0.0615
14522SOL    HW145334   1.468   3.037   6.580  1.0741  1.2190 -0.7651
14522SOL    HW245335   1.431   2.925   6.486 -1.1830  0.2460  1.1903
14523SOL     OW45336   0.457   7.684   5.674 -0.3955 -0.7119  0.0006
14523SOL    HW145337   0.488   7.735   5.599  1.2899 -2.4678 -0.5793
14523SOL    HW245338   0.481   7.737   5.750 -0.2988  0.1669 -0.6250
14524SOL     OW45339   7.207   0.143   4.597 -0.0578  0.2162 -0.1725
14524SOL    HW145340   7.188   0.226   4.554 -0.1243  0.8350  1.0168
14524SOL    HW245341   7.185   0.158   4.689  0.7602 -0.8366  0.2142
14525SOL     OW45342   8.337   3.979   3.233 -0.3437 -0.0492 -0.0494
14525SOL    HW145343   8.300   3.927   3.162  0.2147  0.4382 -0.7216
14525SOL    HW245344   8.288   4.062   3.230  0.2429  0.2938 -0.4270
14526SOL     OW45345   9.283   0.968   6.144  0.4314  0.3966 -0.0286
14526SOL    HW145346   9.228   1.019   6.084  1.0378  1.2610  0.1395
14526SOL    HW245347   9.222   0.931   6.207 -0.4160 -1.6912 -1.9530
14527SOL     OW45348   1.037   7.583   5.076 -0.7555  0.3732  0.0331
14527SOL    HW145349   1.099   7.649   5.107 -0.8247  0.8945 -0.9201
14527SOL    HW245350   1.031   7.598   4.982 -1.6099 -0.2873 -0.0257
14528SOL     OW45351   4.199   8.089   8.559  0.3028  0.1971 -0.0649
14528SOL    HW145352   4.229   8.148   8.628  0.4108 -0.4708  0.4729
14528SOL    HW245353   4.130   8.037   8.600  1.5914 -1.4609  0.1198
14529SOL     OW45354   8.084   2.180   9.393  0.2081  0.4074 -0.0035
14529SOL    HW145355   8.026   2.104   9.400 -0.6859  1.1092  0.5401
14529SOL    HW245356   8.045   2.245   9.452  2.7987  0.1368  2.2303
14530SOL     OW45357   9.773   7.353   6.809  0.2937 -0.1857 -0.0472
14530SOL    HW145358   9.824   7.355   6.728  1.3506 -2.2241  0.4951
14530SOL    HW245359   9.802   7.430   6.858  3.6021 -1.7035  0.6119
14531SOL     OW45360   1.668   4.586   4.076 -0.0947  0.1327  0.0450
14531SOL    HW145361   1.758   4.555   4.082  0.0721  0.6787  0.3582
14531SOL    HW245362   1.667   4.670   4.122 -0.4261  0.8765 -1.2751
14532SOL     OW45363   7.985   2.866   1.893 -0.4468 -0.0279  0.4414
14532SOL    HW145364   7.936   2.946   1.877  0.0002  0.5538  1.8805
14532SOL    HW245365   7.992   2.859   1.988  0.6912 -1.0484  0.3184
14533SOL     OW45366   7.567   5.581   4.908  0.4244  0.1493 -0.0993
14533SOL    HW145367   7.627   5.568   4.834  0.9796  0.3506  0.3089
14533SOL    HW245368   7.481   5.593   4.867  0.9034  1.4168 -0.7660
14534SOL     OW45369   2.268   1.309   4.491 -0.1478  0.1881 -0.1955
14534SOL    HW145370   2.305   1.396   4.475 -0.9398  0.3924 -0.9796
14534SOL    HW245371   2.269   1.266   4.405  1.3206 -1.0320  0.3837
14535SOL     OW45372   7.933   7.220   0.086  0.6889 -0.4224 -0.1746
14535SOL    HW145373   8.006   7.269   0.125 -1.4703  2.4640  0.6238
14535SOL    HW245374   7.933   7.245  -0.006 -0.0689  0.7303  0.1160
14536SOL     OW45375   0.851   8.933   4.924  0.8644  0.3398  0.2774
14536SOL    HW145376   0.858   8.888   5.008  2.3517 -0.3596 -0.1872
14536SOL    HW245377   0.938   8.926   4.885  0.1390  0.3534 -1.4675
14537SOL     OW45378   2.713   3.347   1.634  0.3248 -0.0778  0.0772
14537SOL    HW145379   2.646   3.284   1.605  0.1255 -0.1705  0.7327
14537SOL    HW245380   2.794   3.315   1.595 -0.1599  0.5718 -1.5435
14538SOL     OW45381   4.070   6.158   8.363  0.3810 -0.2448  0.3428
14538SOL    HW145382   4.058   6.066   8.385 -0.5850 -0.5356 -1.2169
14538SOL    HW245383   4.130   6.157   8.289  0.7837  0.4240  0.6531
14539SOL     OW45384   9.011   6.026   7.431  1.1856 -0.8311  0.0117
14539SOL    HW145385   9.061   5.970   7.491  0.1789 -2.3091 -0.4550
14539SOL    HW245386   9.073   6.091   7.400  1.7495  0.0162  2.6574
14540SOL     OW45387   2.444   6.084   2.497 -0.6913 -0.2205  0.0735
14540SOL    HW145388   2.418   5.992   2.497 -1.4034 -0.0361  1.4607
14540SOL    HW245389   2.373   6.130   2.541  0.2786  0.8015  0.6393
14541SOL     OW45390   8.419   2.375   6.221 -0.6063  0.0244 -0.1723
14541SOL    HW145391   8.383   2.297   6.179 -1.3715  0.4167 -0.2667
14541SOL    HW245392   8.458   2.424   6.150  0.3283 -0.5041 -0.0384
14542SOL     OW45393   4.230   8.537   3.294 -0.2422  0.4912 -0.1094
14542SOL    HW145394   4.262   8.542   3.204 -1.0273 -1.1965 -0.5384
14542SOL    HW245395   4.161   8.603   3.299  1.0681  1.9130 -0.1391
14543SOL     OW45396   8.916   0.456   7.271  0.2405 -0.1840  0.2831
14543SOL    HW145397   8.973   0.379   7.275 -0.7502 -0.9748 -0.2928
14543SOL    HW245398   8.974   0.527   7.246  1.0216 -0.9109 -0.0423
14544SOL     OW45399   6.623   9.643   2.908 -0.1839 -0.3369 -0.5490
14544SOL    HW145400   6.590   9.556   2.887 -0.0237 -0.6154  0.3090
14544SOL    HW245401   6.585   9.700   2.842 -1.7105 -0.7699 -0.0679
14545SOL     OW45402   7.022   5.291   5.494 -0.1109 -0.2277 -0.6043
14545SOL    HW145403   6.971   5.283   5.414  0.7870 -0.2274 -1.1898
14545SOL    HW245404   7.111   5.308   5.464  0.1736  0.1242  0.4010
14546SOL     OW45405   8.750   5.092   1.213 -0.5215  0.0399 -0.6258
14546SOL    HW145406   8.718   5.170   1.258  0.4671 -1.0083  2.1190
14546SOL    HW245407   8.843   5.110   1.197 -0.2362 -0.6199  0.2157
14547SOL     OW45408   8.766   2.790   9.527  0.1618  0.0368 -0.4076
14547SOL    HW145409   8.858   2.786   9.499  0.5307  0.3650  0.7112
14547SOL    HW245410   8.750   2.706   9.569  0.1616  0.2532  0.0267
14548SOL     OW45411   6.184   6.786   2.636 -0.7264 -1.1828  0.1261
14548SOL    HW145412   6.093   6.811   2.648 -0.8680 -1.5963 -0.0456
14548SOL    HW245413   6.199   6.797   2.542 -0.0650  0.6114  0.4024
14549SOL     OW45414   0.850   1.451   6.884 -0.2180  0.0852 -0.1838
14549SOL    HW145415   0.853   1.419   6.974  0.7952  1.9563  0.5209
14549SOL    HW245416   0.764   1.493   6.877 -0.9789 -1.4750 -0.6669
14550SOL     OW45417   3.163   9.194   0.832  0.4108  0.4950  0.2205
14550SOL    HW145418   3.204   9.275   0.801 -0.7816  1.7063  1.6478
14550SOL    HW245419   3.236   9.141   0.863  1.3490  0.4024 -1.9879
14551SOL     OW45420   2.353   0.919   9.767 -0.2244 -0.0234 -0.3883
14551SOL    HW145421   2.415   0.863   9.814  0.4335  0.5785 -0.5094
14551SOL    HW245422   2.281   0.861   9.743  1.0626 -1.1676 -1.7189
14552SOL     OW45423   4.980   0.111   1.111  0.4414  0.5752 -0.3188
14552SOL    HW145424   5.075   0.111   1.124  0.4274 -1.1038  0.1140
14552SOL    HW245425   4.944   0.101   1.199 -0.1158  0.7734 -0.5228
14553SOL     OW45426   7.212   1.833   9.079 -0.0767 -0.2191 -0.4048
14553SOL    HW145427   7.279   1.772   9.046  0.3537  0.3396 -0.5858
14553SOL    HW245428   7.173   1.788   9.154  1.3728 -0.0413  0.4946
14554SOL     OW45429   1.525   4.223   7.671 -0.1162  0.0338 -0.1183
14554SOL    HW145430   1.476   4.178   7.603  1.1786 -0.2673 -0.8710
14554SOL    HW245431   1.469   4.218   7.749 -1.2946 -0.2298 -0.9715
14555SOL     OW45432   1.643   7.310   3.072 -0.2894  0.0169 -0.2300
14555SOL    HW145433   1.716   7.248   3.080 -1.1286 -0.9035  0.5713
14555SOL    HW245434   1.565   7.255   3.068 -1.1697  1.0314  1.7237
14556SOL     OW45435   3.872   2.253   5.628  0.1858 -0.3851 -0.1118
14556SOL    HW145436   3.962   2.287   5.627  0.8228 -1.9564 -0.8405
14556SOL    HW245437   3.834   2.282   5.545  0.6400 -1.1712 -0.6134
14557SOL     OW45438   8.326   9.116   3.337 -0.6815 -0.3954  0.4330
14557SOL    HW145439   8.363   9.132   3.250 -1.6163  0.1760  0.1249
14557SOL    HW245440   8.402   9.112   3.395 -0.1218  0.7823 -0.1849
14558SOL     OW45441   8.093   1.446   3.439  0.5105 -0.0012  0.1971
14558SOL    HW145442   8.107   1.353   3.455 -0.2435  0.1408  1.8809
14558SOL    HW245443   8.090   1.486   3.526 -1.8489  1.1641 -0.3160
14559SOL     OW45444   4.842   7.710   2.338 -0.6529  0.1258  0.0151
14559SOL    HW145445   4.796   7.630   2.361  1.1267 -0.3285  2.3985
14559SOL    HW245446   4.795   7.779   2.384 -1.6546  0.3724 -1.3230
14560SOL     OW45447   2.710   1.838   2.377 -0.2335  0.6298  0.1430
14560SOL    HW145448   2.791   1.876   2.342  1.2779 -0.3578  2.2892
14560SOL    HW245449   2.724   1.838   2.472 -1.9242 -1.4075  0.4550
14561SOL     OW45450   2.946   7.811   5.179 -0.2739 -0.0415 -0.1283
14561SOL    HW145451   2.862   7.826   5.137  0.6609  2.7857 -1.2084
14561SOL    HW245452   2.939   7.857   5.263  0.0109 -0.3701  0.0826
14562SOL     OW45453   4.837   5.773   3.732 -0.1929  0.3844  0.0608
14562SOL    HW145454   4.838   5.852   3.786  1.2286 -0.3552  1.1949
14562SOL    HW245455   4.918   5.779   3.681 -0.6542  0.1991 -0.7197
14563SOL     OW45456   1.265   1.263   9.057 -0.4014 -0.1940 -0.2135
14563SOL    HW145457   1.244   1.320   8.984 -0.7588  0.5525  0.4531
14563SOL    HW245458   1.310   1.320   9.120 -1.4994 -0.4166  0.8271
14564SOL     OW45459   3.698   7.851   3.897  0.2586  0.0523  0.6411
14564SOL    HW145460   3.749   7.797   3.837 -0.0459  0.8514 -0.3815
14564SOL    HW245461   3.764   7.903   3.943  0.4502  0.1722  0.2443
14565SOL     OW45462   8.534   2.305   5.786 -0.3309  0.3697 -0.6288
14565SOL    HW145463   8.562   2.232   5.841 -2.3414  0.0050 -0.0097
14565SOL    HW245464   8.520   2.377   5.848 -1.2206  0.3813 -0.8255
14566SOL     OW45465   0.923   8.370   7.491 -0.1386  0.2790  0.6454
14566SOL    HW145466   0.997   8.342   7.545 -1.4995 -1.2390  1.8173
14566SOL    HW245467   0.871   8.426   7.549 -1.3988 -1.0349  0.8410
14567SOL     OW45468   6.630   5.071   6.739  0.2226  0.2523 -0.3896
14567SOL    HW145469   6.587   5.157   6.745 -0.0506  0.0427  0.7548
14567SOL    HW245470   6.723   5.092   6.738  0.1456  0.6159 -1.2602
14568SOL     OW45471   6.499   1.397   2.849  0.2490 -0.1740  0.0133
14568SOL    HW145472   6.547   1.346   2.784 -0.6728 -2.2065  0.8470
14568SOL    HW245473   6.440   1.334   2.891 -2.3020  1.9315 -0.1266
14569SOL     OW45474   7.313   1.709   2.149 -0.2958  0.3551 -0.1667
14569SOL    HW145475   7.267   1.668   2.076  0.5055  1.6512 -1.4598
14569SOL    HW245476   7.278   1.798   2.152 -0.6112  0.2017  1.3195
14570SOL     OW45477   0.562   8.774   3.551  0.0510 -0.0931  0.4888
14570SOL    HW145478   0.532   8.810   3.467  0.3935 -0.2469  0.3019
14570SOL    HW245479   0.540   8.681   3.547 -3.5449  0.4970  2.1283
14571SOL     OW45480   2.260   0.744   4.534  0.4145 -0.7285  0.0223
14571SOL    HW145481   2.212   0.818   4.498  0.5251 -1.5383 -1.8759
14571SOL    HW245482   2.285   0.772   4.622 -1.2646  0.6985  0.0772
14572SOL     OW45483   6.107   0.181   4.030  0.1655 -0.0586 -0.7289
14572SOL    HW145484   6.028   0.234   4.037  0.7991  0.8959 -0.6167
14572SOL    HW245485   6.125   0.152   4.120  0.0823 -0.0698 -0.7161
14573SOL     OW45486   5.505   7.138   3.804  0.2850  0.0854  0.8360
14573SOL    HW145487   5.592   7.109   3.777  0.2130  0.4818  0.1598
14573SOL    HW245488   5.452   7.058   3.804  0.1625  0.1464 -0.7177
14574SOL     OW45489   1.587   8.389   3.232  0.5361  0.0148  0.5526
14574SOL    HW145490   1.541   8.435   3.163  0.4441 -0.2673  0.4224
14574SOL    HW245491   1.671   8.434   3.240 -0.2921  1.4354  1.7713
14575SOL     OW45492   9.371   0.284   6.357 -0.0965  0.0910 -0.1092
14575SOL    HW145493   9.445   0.337   6.326 -1.0150  1.6979  0.2914
14575SOL    HW245494   9.344   0.327   6.438 -1.0521 -0.8711  0.0977
14576SOL     OW45495   8.253   4.120   1.421 -0.0027  0.0294  0.3450
14576SOL    HW145496   8.330   4.165   1.455  0.5826  0.1058 -1.0106
14576SOL    HW245497   8.285   4.071   1.345 -0.8245 -1.8718  1.1506
14577SOL     OW45498   6.785   2.058   4.541  0.3427 -0.1134  0.1249
14577SOL    HW145499   6.806   1.985   4.482  0.4159  0.2628 -0.3211
14577SOL    HW245500   6.801   2.137   4.488  2.6148  0.3172  1.3157
14578SOL     OW45501   5.962   3.274   6.911  0.1999  0.5187  0.8168
14578SOL    HW145502   6.037   3.276   6.852 -1.2218 -0.0980 -1.1307
14578SOL    HW245503   5.942   3.180   6.920  0.6861  0.5684  2.7280
14579SOL     OW45504   2.578   5.220   5.119  0.2290  0.0795  0.0023
14579SOL    HW145505   2.672   5.209   5.106  0.4499 -0.1073  1.6336
14579SOL    HW245506   2.549   5.269   5.041  1.2804 -1.6204 -1.5256
14580SOL     OW45507   0.233   0.662   6.499 -0.2151 -0.4342 -0.2960
14580SOL    HW145508   0.268   0.578   6.467  0.2184 -0.1651 -0.5368
14580SOL    HW245509   0.309   0.719   6.505 -0.7215  0.4186 -1.6228
14581SOL     OW45510   0.795   3.569   4.536 -0.3904  0.0973  0.5860
14581SOL    HW145511   0.880   3.598   4.568  0.0427  2.3111 -2.1553
14581SOL    HW245512   0.800   3.582   4.441 -2.5245 -3.2252 -0.1489
14582SOL     OW45513   6.775   5.366   2.052  0.3507 -0.4567  0.5376
14582SOL    HW145514   6.820   5.286   2.076  1.8951  0.6870  1.6282
14582SOL    HW245515   6.831   5.437   2.085 -1.3841  1.0656  0.4008
14583SOL     OW45516   4.461   2.310   4.875 -0.2924 -0.4835 -0.1347
14583SOL    HW145517   4.394   2.377   4.859  0.1562 -0.0966 -0.4010
14583SOL    HW245518   4.544   2.355   4.862  0.0093 -1.2635 -1.0278
14584SOL     OW45519   8.156   9.265   8.388  0.5257 -0.4401  0.5910
14584SOL    HW145520   8.223   9.198   8.397 -0.0130 -0.7890  2.5004
14584SOL    HW245521   8.184   9.336   8.446  0.5462  0.5711 -0.5966
14585SOL     OW45522   9.398   2.593   4.240 -0.3146  0.1680 -0.1908
14585SOL    HW145523   9.377   2.587   4.333 -2.3915  3.0374 -0.3446
14585SOL    HW245524   9.322   2.556   4.195 -0.6620  1.4143 -0.6991
14586SOL     OW45525   7.570   9.265   6.383 -0.0740  0.2273 -0.1450
14586SOL    HW145526   7.498   9.220   6.339 -0.9297  0.1171  1.3171
14586SOL    HW245527   7.549   9.358   6.374 -0.1612  0.2124 -0.0949
14587SOL     OW45528   0.388   4.082   2.828 -0.1174  0.0044 -0.3071
14587SOL    HW145529   0.309   4.066   2.880  1.4177 -2.8151  1.3930
14587SOL    HW245530   0.356   4.084   2.738 -2.2080 -0.5141  0.3484
14588SOL     OW45531   0.714   8.014   4.759  0.1057  0.4934 -0.3106
14588SOL    HW145532   0.755   7.964   4.688 -0.6609 -0.8569  0.1665
14588SOL    HW245533   0.758   7.983   4.839  0.0187  1.0119 -0.0531
14589SOL     OW45534   3.459   6.769   4.474  0.5460  0.3003  0.0520
14589SOL    HW145535   3.542   6.811   4.450  1.4161 -1.3415  0.0249
14589SOL    HW245536   3.400   6.788   4.401  1.0952  0.9524 -0.2323
14590SOL     OW45537   7.030   3.516   9.179 -0.2528  0.6875 -0.1567
14590SOL    HW145538   7.070   3.486   9.260  2.2951  0.3929 -1.4286
14590SOL    HW245539   6.949   3.465   9.172  0.6442 -0.9968  1.0418
14591SOL     OW45540   3.584   2.067   8.662  0.9149  0.0080  0.2065
14591SOL    HW145541   3.544   2.033   8.582  2.1106  0.1570 -0.4767
14591SOL    HW245542   3.622   2.151   8.637  1.2901  0.0707  0.9383
14592SOL     OW45543   9.354   8.725   2.206 -0.5541 -0.1482 -0.7925
14592SOL    HW145544   9.371   8.812   2.170  0.2231  0.3715  0.7688
14592SOL    HW245545   9.340   8.670   2.128 -0.2715  1.1943 -1.8317
14593SOL     OW45546   3.808   3.970   2.676  0.4203  0.1952 -0.0155
14593SOL    HW145547   3.722   3.999   2.648  1.3530  1.3325 -1.9067
14593SOL    HW245548   3.799   3.875   2.685 -1.0218  0.3002 -0.1201
14594SOL     OW45549   6.719   0.682   6.864  0.1325  0.1136  0.6035
14594SOL    HW145550   6.682   0.744   6.801  1.2437  1.5137  1.2827
14594SOL    HW245551   6.642   0.646   6.908 -0.7107 -1.3171 -1.8578
14595SOL     OW45552   0.671   1.464   8.837  0.3440 -0.3258  0.2242
14595SOL    HW145553   0.637   1.426   8.918  0.0544 -1.2722 -0.3238
14595SOL    HW245554   0.593   1.488   8.788  0.5051 -0.3660 -0.0526
14596SOL     OW45555   0.523   8.893   8.294  0.4205  0.3018 -0.0471
14596SOL    HW145556   0.619   8.889   8.290  0.4915  0.9481  0.8209
14596SOL    HW245557   0.499   8.950   8.221  0.6256 -0.5984 -0.8361
14597SOL     OW45558   0.732   3.366   3.689 -0.0315 -0.6394  0.3237
14597SOL    HW145559   0.647   3.409   3.698 -0.4102 -1.2118 -0.3939
14597SOL    HW245560   0.714   3.273   3.705  0.3660 -0.8363 -0.3455
14598SOL     OW45561   7.946   5.014   8.357 -0.0911  0.3910 -0.2942
14598SOL    HW145562   7.971   5.104   8.379 -1.3130  0.6353  0.1932
14598SOL    HW245563   7.866   5.024   8.305 -1.2175 -0.4468  1.2006
14599SOL     OW45564   1.400   5.250   7.604  0.3976 -0.4772  0.5193
14599SOL    HW145565   1.446   5.334   7.605 -0.2528 -0.0799 -0.6401
14599SOL    HW245566   1.466   5.185   7.628  1.2772  0.2101 -0.0045
14600SOL     OW45567   2.195   4.520   2.014  0.3067  0.2432  0.3278
14600SOL    HW145568   2.099   4.525   2.017  0.3582  0.5656  1.8334
14600SOL    HW245569   2.214   4.429   1.994 -0.3139  0.5281 -1.8569
14601SOL     OW45570   8.184   4.185   3.266  0.9956 -0.8641 -0.4521
14601SOL    HW145571   8.092   4.162   3.256  0.7910  0.1190 -0.9231
14601SOL    HW245572   8.192   4.271   3.225  1.1123  1.3520  3.6988
14602SOL     OW45573   0.307   1.593   1.596 -0.3392  0.4800 -0.2501
14602SOL    HW145574   0.372   1.662   1.587  0.8452 -0.5377  0.1488
14602SOL    HW245575   0.350   1.526   1.649 -2.0859  0.2164  0.9451
14603SOL     OW45576   3.640   5.932   1.901 -0.5519 -0.0777 -0.0352
14603SOL    HW145577   3.616   5.842   1.877 -0.5862  0.3196 -1.5899
14603SOL    HW245578   3.663   5.927   1.993 -1.5909 -1.4842  0.1810
14604SOL     OW45579   6.733   8.430   7.106 -0.1970  0.5969 -0.0235
14604SOL    HW145580   6.722   8.345   7.065 -0.9910  0.7273 -0.0854
14604SOL    HW245581   6.682   8.490   7.053  1.0266  1.2815 -0.4737
14605SOL     OW45582   7.993   2.430   3.285 -0.9520  0.6307  0.4673
14605SOL    HW145583   7.943   2.447   3.205  0.3422  1.2861 -0.2404
14605SOL    HW245584   7.935   2.376   3.339 -0.9876 -1.9164 -1.8898
14606SOL     OW45585   1.449   5.923   3.957  0.9416 -0.5311  0.2725
14606SOL    HW145586   1.461   6.014   3.931 -0.8666 -0.1574  0.6494
14606SOL    HW245587   1.387   5.926   4.029 -1.3651 -2.2318 -1.4873
14607SOL     OW45588   9.513   2.955   2.721  0.1853 -0.5647 -0.5009
14607SOL    HW145589   9.431   2.905   2.725 -0.3059 -0.3920 -4.4508
14607SOL    HW245590   9.577   2.894   2.685  0.9313  0.2465 -0.5817
14608SOL     OW45591   5.912   3.100   4.842  0.5234 -0.0599  0.4389
14608SOL    HW145592   5.864   3.079   4.922  0.1091  0.4408  0.3253
14608SOL    HW245593   5.952   3.185   4.858 -2.3972  1.7760 -1.0708
14609SOL     OW45594   3.554   5.210   9.359 -0.3063  0.2727  0.9523
14609SOL    HW145595   3.607   5.131   9.367  0.8785  0.8328 -0.7384
14609SOL    HW245596   3.465   5.178   9.345  0.4085 -0.8842 -1.4647
14610SOL     OW45597   4.779   5.800   0.495 -0.1310  0.0793  0.0331
14610SOL    HW145598   4.688   5.775   0.481 -0.2381  0.9864 -1.0243
14610SOL    HW245599   4.830   5.727   0.461 -0.4539 -0.4682  0.7043
14611SOL     OW45600   3.005   9.251   9.138  0.3609 -0.1167 -0.2480
14611SOL    HW145601   2.931   9.273   9.083  1.2590  1.2443 -0.9726
14611SOL    HW245602   3.035   9.166   9.106 -0.5834 -0.4462 -0.2608
14612SOL     OW45603   6.148   8.168   3.630  0.9582  0.0212 -0.1956
14612SOL    HW145604   6.099   8.115   3.693  3.2351  0.2553  1.9314
14612SOL    HW245605   6.149   8.256   3.669  2.1524  0.2431 -0.6803
14613SOL     OW45606   4.114   5.640   7.240  0.2813 -0.1099 -0.3373
14613SOL    HW145607   4.071   5.718   7.274  2.3896  1.0399 -0.1603
14613SOL    HW245608   4.160   5.603   7.315  1.9068  0.3254 -1.0868
14614SOL     OW45609   9.562   7.847   4.107 -0.0895  0.1102  0.3585
14614SOL    HW145610   9.612   7.929   4.102  2.6342 -1.3454  1.2779
14614SOL    HW245611   9.528   7.845   4.196  0.2460  0.0544  0.4879
14615SOL     OW45612   8.844   3.057   4.111  0.3141 -0.2880  0.3915
14615SOL    HW145613   8.911   3.010   4.061 -1.7853 -2.9413 -0.1362
14615SOL    HW245614   8.811   3.123   4.050  2.2723  1.0025  0.6309
14616SOL     OW45615   9.778   4.255   0.910  0.2430 -0.0067  0.0350
14616SOL    HW145616   9.736   4.284   0.830 -2.4672 -0.3848  1.2246
14616SOL    HW245617   9.831   4.179   0.883  0.5727  0.7683 -1.6022
14617SOL     OW45618   6.324   0.912   6.583 -0.2152 -0.2699 -0.0320
14617SOL    HW145619   6.354   0.853   6.652 -0.3034 -1.2988 -0.8500
14617SOL    HW245620   6.345   0.867   6.502  0.0220  0.9858 -0.6971
14618SOL     OW45621   4.876   6.100   4.432  0.3946 -1.4721  0.1099
14618SOL    HW145622   4.826   6.168   4.477  2.2577 -0.2227  0.4037
14618SOL    HW245623   4.868   6.023   4.488  0.3445 -0.7595  1.1018
14619SOL     OW45624   7.179   5.424   9.759 -0.0636 -0.1903 -0.2239
14619SOL    HW145625   7.180   5.349   9.819  4.0781 -0.3593 -0.2120
14619SOL    HW245626   7.225   5.392   9.681 -0.5774  1.6195 -1.3271
14620SOL     OW45627   6.433   7.080   5.976 -0.3864 -0.0412 -0.4081
14620SOL    HW145628   6.400   7.084   5.887 -0.6943  0.7948 -0.2742
14620SOL    HW245629   6.396   7.158   6.019 -1.8132 -1.4152  0.9920
14621SOL     OW45630   3.042   3.891   2.382 -0.1196 -0.3303  0.2842
14621SOL    HW145631   3.026   3.986   2.383  0.9974 -0.1061 -0.7231
14621SOL    HW245632   3.042   3.866   2.474 -0.0479  0.7242  0.5887
14622SOL     OW45633   4.207   1.205   0.624 -0.4494 -0.0946 -0.3406
14622SOL    HW145634   4.219   1.261   0.547  0.1209 -0.5884 -0.6186
14622SOL    HW245635   4.175   1.264   0.691  0.1551  0.5844 -0.6286
14623SOL     OW45636   9.759   5.953   8.568  0.4750  0.1603 -0.6614
14623SOL    HW145637   9.795   5.872   8.533 -1.5349 -1.1707  0.1951
14623SOL    HW245638   9.813   5.972   8.645  0.9752 -0.3383 -0.8823
14624SOL     OW45639   3.651   5.725   4.499  0.3699 -0.1750  0.0046
14624SOL    HW145640   3.607   5.648   4.463  0.6987  0.2387 -1.3304
14624SOL    HW245641   3.585   5.767   4.555 -0.1722 -0.8116 -0.1525
14625SOL     OW45642   3.925   5.629   8.892 -0.6122  0.0115  0.1479
14625SOL    HW145643   3.871   5.662   8.964 -2.1341 -2.1898  0.1505
14625SOL    HW245644   3.978   5.703   8.865 -2.3388  1.8026  1.3951
14626SOL     OW45645   5.740   0.879   2.753 -0.1396 -0.6671  0.1124
14626SOL    HW145646   5.828   0.857   2.781  0.2609  0.9345  0.2312
14626SOL    HW245647   5.737   0.855   2.661  0.0379 -1.7551  0.3799
14627SOL     OW45648   5.873   3.847   5.927 -0.4212  0.5286 -0.2214
14627SOL    HW145649   5.826   3.784   5.872  0.4939  0.5655 -1.0678
14627SOL    HW245650   5.961   3.812   5.935  0.8941  2.8494 -2.7965
14628SOL     OW45651   8.930   3.638   3.078 -0.2546  0.2584  0.1841
14628SOL    HW145652   8.868   3.609   3.145 -3.3672  0.4582 -2.3689
14628SOL    HW245653   9.009   3.660   3.127 -0.8678 -3.3391  3.3300
14629SOL     OW45654   3.270   8.995   3.441 -0.1271  0.4614 -0.6054
14629SOL    HW145655   3.307   8.983   3.354  2.0534 -2.9882  0.6037
14629SOL    HW245656   3.344   9.025   3.494 -0.2204 -1.6615  0.8503
14630SOL     OW45657   9.433   1.752   2.936 -0.3553 -0.2335  0.4245
14630SOL    HW145658   9.515   1.785   2.900 -0.9399 -0.0380 -0.7936
14630SOL    HW245659   9.406   1.819   2.998 -0.0281  0.1333  0.1776
14631SOL     OW45660   0.696   4.362   7.742  0.1437 -0.2628  0.0775
14631SOL    HW145661   0.710   4.443   7.693 -0.6089 -0.8067 -1.0590
14631SOL    HW245662   0.604   4.366   7.770  0.1970 -0.5790  0.3044
14632SOL     OW45663   5.556   0.374   2.035  0.0918 -0.6884 -0.3837
14632SOL    HW145664   5.520   0.460   2.054 -1.0697 -1.6080  2.0185
14632SOL    HW245665   5.571   0.374   1.940 -0.7704  1.7785 -0.5851
14633SOL     OW45666   8.835   4.424   8.227 -0.3394  0.3077 -0.3230
14633SOL    HW145667   8.846   4.448   8.135  1.2504 -2.0469 -0.8424
14633SOL    HW245668   8.744   4.445   8.247 -0.3393  2.1827 -1.9808
14634SOL     OW45669   0.531   2.598   9.407 -0.4057 -0.0093 -0.3521
14634SOL    HW145670   0.579   2.657   9.348  1.0091  0.2738  1.0114
14634SOL    HW245671   0.495   2.656   9.474  1.6704 -0.7160  1.4555
14635SOL     OW45672   2.356   3.436   5.516  0.1506  0.3636  0.6318
14635SOL    HW145673   2.285   3.395   5.468  1.2365 -0.9458  0.0968
14635SOL    HW245674   2.381   3.511   5.462  0.9118 -0.7021 -0.5467
14636SOL     OW45675   8.522   7.107   7.910  0.0314  0.3774  0.7553
14636SOL    HW145676   8.522   7.202   7.926 -1.7993  0.5338  0.0664
14636SOL    HW245677   8.434   7.079   7.933  0.6924 -1.2677  1.4033
14637SOL     OW45678   4.347   0.745   1.182 -0.2292  0.1587  0.2958
14637SOL    HW145679   4.301   0.794   1.114  0.0024  0.4087  0.3180
14637SOL    HW245680   4.277   0.717   1.242 -0.4419 -0.1278 -0.0840
14638SOL     OW45681   1.041   3.004   4.489 -0.6322 -0.0715 -0.2174
14638SOL    HW145682   1.075   2.915   4.482  0.9309  0.4628  0.1729
14638SOL    HW245683   1.031   3.018   4.583 -1.2465  0.0478 -0.2952
14639SOL     OW45684   2.905   3.604   8.789 -0.3170 -0.0759 -0.2644
14639SOL    HW145685   2.926   3.693   8.760 -0.2524  0.1445  0.4419
14639SOL    HW245686   2.881   3.614   8.881 -0.5219 -0.7627 -0.2389
14640SOL     OW45687   5.673   2.987   8.473  0.1836 -0.1692  0.1273
14640SOL    HW145688   5.699   2.953   8.558  0.9939 -0.5793 -0.2730
14640SOL    HW245689   5.721   2.934   8.410 -0.3197  0.1993 -0.5868
14641SOL     OW45690   0.343   9.309   1.231 -0.4425  0.5411  0.2303
14641SOL    HW145691   0.332   9.272   1.319  0.0467 -1.7666 -0.6203
14641SOL    HW245692   0.388   9.241   1.182 -1.2313  1.5504 -1.9981
14642SOL     OW45693   9.295   3.288   9.570 -0.7444 -0.0368 -0.6232
14642SOL    HW145694   9.236   3.327   9.633 -0.6815  1.6449 -1.5469
14642SOL    HW245695   9.362   3.245   9.623 -0.3020  1.9088  0.4870
14643SOL     OW45696   1.010   7.050   5.526  0.6976 -0.0077 -0.1382
14643SOL    HW145697   1.070   6.977   5.510 -0.8262 -1.0870 -1.2767
14643SOL    HW245698   1.005   7.096   5.442 -0.2436 -0.0941 -0.1477
14644SOL     OW45699   3.993   7.788   3.934  0.6818 -0.4998  0.0224
14644SOL    HW145700   4.002   7.811   3.842  0.1744  0.9108  0.3095
14644SOL    HW245701   4.014   7.694   3.937 -1.7927 -1.2077 -1.9081
14645SOL     OW45702   5.785   2.311   7.558 -0.5915  0.0177  0.4356
14645SOL    HW145703   5.715   2.248   7.577  1.4231 -2.1156  1.2035
14645SOL    HW245704   5.753   2.393   7.595 -2.0062 -1.2668  2.2991
14646SOL     OW45705   8.063   3.412   5.243  0.1277  0.4003 -0.2112
14646SOL    HW145706   8.059   3.434   5.336  1.1261 -0.7598  0.1229
14646SOL    HW245707   7.979   3.442   5.208 -0.8000 -0.3272  1.3095
14647SOL     OW45708   7.207   1.614   9.543 -0.1262 -0.3044 -0.0886
14647SOL    HW145709   7.126   1.617   9.594  1.5223 -0.5110  2.7184
14647SOL    HW245710   7.225   1.520   9.532  0.1092 -0.2676 -0.0303
14648SOL     OW45711   8.851   6.535   1.846  0.8782  0.6826 -0.2017
14648SOL    HW145712   8.911   6.508   1.777  1.3259  1.5960 -0.1865
14648SOL    HW245713   8.766   6.539   1.804 -0.3156 -5.3612  0.7760
14649SOL     OW45714   1.139   5.441   1.868 -0.4072 -0.2564 -0.2916
14649SOL    HW145715   1.233   5.429   1.853 -0.1801 -0.3313  1.0279
14649SOL    HW245716   1.102   5.453   1.781  0.4613 -2.7247 -1.1014
14650SOL     OW45717   1.667   0.816   5.373  0.2892  0.0706 -0.0393
14650SOL    HW145718   1.680   0.773   5.458 -1.9967  1.2065  0.9918
14650SOL    HW245719   1.672   0.745   5.309 -0.5509 -1.2740  1.3238
14651SOL     OW45720   7.890   0.051   2.784 -0.2109  0.0827  0.2175
14651SOL    HW145721   7.819   0.029   2.724 -0.1157  0.9011 -0.2172
14651SOL    HW245722   7.860   0.021   2.869  0.8382 -3.6952 -0.5796
14652SOL     OW45723   9.000   1.723   7.590 -0.0998 -0.1405 -0.7142
14652SOL    HW145724   8.994   1.627   7.588  1.6819 -0.2833 -1.0240
14652SOL    HW245725   8.929   1.750   7.648 -0.4504 -1.6679 -0.3783
14653SOL     OW45726   6.749   4.992   0.994  0.2856  0.5919  0.3511
14653SOL    HW145727   6.752   5.086   1.006  0.7288  0.4522  1.5094
14653SOL    HW245728   6.672   4.976   0.941  0.7139  1.6756 -0.6365
14654SOL     OW45729   9.350   7.890   5.735 -0.0597 -0.4209  0.3574
14654SOL    HW145730   9.303   7.842   5.667  0.1062 -0.0791 -0.0057
14654SOL    HW245731   9.381   7.969   5.691 -1.4178  0.6510  1.2642
14655SOL     OW45732   4.846   3.848   6.141  0.5507 -0.2351 -0.6690
14655SOL    HW145733   4.870   3.791   6.213  1.7736  1.0139 -0.0360
14655SOL    HW245734   4.751   3.858   6.148  0.2291 -2.4645 -1.0641
14656SOL     OW45735   2.744   1.148   1.852  0.4928 -0.7054  0.3267
14656SOL    HW145736   2.727   1.072   1.908 -1.1509 -0.8013 -0.2406
14656SOL    HW245737   2.663   1.199   1.857  1.3320  0.6723  0.1664
14657SOL     OW45738   9.452   6.383   2.845  0.7090  0.0328  0.1822
14657SOL    HW145739   9.494   6.466   2.822 -0.0346  0.2611 -0.3756
14657SOL    HW245740   9.370   6.383   2.796  0.9413 -1.2706 -0.2227
14658SOL     OW45741   3.421   5.111   0.345 -0.3471  0.4796 -0.3220
14658SOL    HW145742   3.458   5.023   0.354 -2.6716 -0.5777 -0.3307
14658SOL    HW245743   3.470   5.150   0.273  0.4642 -0.9607 -0.6013
14659SOL     OW45744   1.815   6.173   6.987 -0.0835  0.5137  0.2645
14659SOL    HW145745   1.882   6.105   6.971 -0.0418  0.7386 -0.5484
14659SOL    HW245746   1.858   6.255   6.963 -0.3114  0.7761  0.7421
14660SOL     OW45747   9.832   2.732   0.825  0.3333  0.1775  0.1090
14660SOL    HW145748   9.812   2.819   0.860 -1.7236 -0.6486  1.1324
14660SOL    HW245749   9.751   2.704   0.783  1.4736 -0.6205 -1.6608
14661SOL     OW45750   1.407   2.015   8.550  0.1042  0.2853  0.0620
14661SOL    HW145751   1.499   2.019   8.578  0.2895 -0.3722 -0.4425
14661SOL    HW245752   1.384   2.106   8.530  1.1220  0.2587 -1.3316
14662SOL     OW45753   3.435   3.060   6.894  0.0939 -0.0950  0.1673
14662SOL    HW145754   3.471   3.116   6.962 -1.0997  2.0786 -0.8905
14662SOL    HW245755   3.460   2.971   6.920 -1.5178  0.4229  4.2450
14663SOL     OW45756   6.501   3.593   8.162 -0.0545  0.7543  0.1969
14663SOL    HW145757   6.448   3.663   8.199  0.9430  2.6141 -1.6898
14663SOL    HW245758   6.550   3.635   8.092  0.2052 -1.9674 -1.3725
14664SOL     OW45759   3.030   5.262   3.187 -0.2415  0.4835  0.5550
14664SOL    HW145760   2.963   5.266   3.119  1.0673 -0.4409 -0.8587
14664SOL    HW245761   3.097   5.325   3.159  0.4810 -0.1620  0.7871
14665SOL     OW45762   9.213   5.060   2.536 -0.0769 -0.0731  0.4053
14665SOL    HW145763   9.195   5.001   2.609  3.0391 -0.3739  1.0529
14665SOL    HW245764   9.276   5.013   2.482 -0.2805  1.2434 -1.0480
14666SOL     OW45765   9.640   9.395   6.656 -0.4128  0.0281 -0.0203
14666SOL    HW145766   9.700   9.352   6.595 -2.4002 -0.1970 -1.9617
14666SOL    HW245767   9.620   9.329   6.722  1.0847 -0.0293  0.3916
14667SOL     OW45768   0.732   3.923   2.420  0.1513  0.2238  0.2998
14667SOL    HW145769   0.660   3.973   2.458  1.3720  0.9096  1.8377
14667SOL    HW245770   0.810   3.959   2.461  1.2734 -1.4845 -0.2198
14668SOL     OW45771   7.173   6.464   0.330 -0.3338 -1.1532  0.1723
14668SOL    HW145772   7.261   6.502   0.320 -0.3382 -1.0053  0.6749
14668SOL    HW245773   7.121   6.508   0.262  0.0003 -1.3208 -0.2024
14669SOL     OW45774   3.355   9.527   0.200 -0.4335  0.3862 -0.0721
14669SOL    HW145775   3.383   9.560   0.286  0.5456  0.4509 -0.4048
14669SOL    HW245776   3.419   9.460   0.177 -0.7474  0.2926 -0.7107
14670SOL     OW45777   3.480   6.142   1.826 -0.6179  0.4477  0.5457
14670SOL    HW145778   3.516   6.210   1.883  0.5736  0.3235 -0.0255
14670SOL    HW245779   3.542   6.069   1.835  0.5471  0.9888 -2.1150
14671SOL     OW45780   3.661   8.607   9.388  0.0516 -0.1663 -0.2232
14671SOL    HW145781   3.677   8.643   9.301 -1.0309 -2.5583 -1.4976
14671SOL    HW245782   3.579   8.559   9.379 -0.2141 -0.2732  2.2169
14672SOL     OW45783   4.132   7.387   1.623 -0.1899 -0.2636 -0.3372
14672SOL    HW145784   4.079   7.308   1.616 -1.8276  0.7074  0.4143
14672SOL    HW245785   4.107   7.426   1.707  0.5021  1.1004 -0.7218
14673SOL     OW45786   4.501   2.686   8.447  0.2961 -0.2399  0.0134
14673SOL    HW145787   4.464   2.714   8.363  0.7593 -0.3789 -0.2403
14673SOL    HW245788   4.585   2.731   8.453 -0.2823  0.7657  0.9992
14674SOL     OW45789   9.776   0.039   9.328  0.1690 -0.1857  0.4320
14674SOL    HW145790   9.813   0.055   9.241  1.4609 -0.8083  0.8467
14674SOL    HW245791   9.830   0.091   9.387 -1.0281  0.6417  0.8278
14675SOL     OW45792   7.476   7.773   2.372 -0.8119  0.3658  0.5717
14675SOL    HW145793   7.487   7.777   2.277 -2.1271  3.7795  0.3997
14675SOL    HW245794   7.381   7.760   2.384 -0.5372 -0.9671  1.4641
14676SOL     OW45795   7.283   7.486   3.355  0.2168  0.0597 -0.3019
14676SOL    HW145796   7.333   7.566   3.370  1.6640 -0.8056 -0.3935
14676SOL    HW245797   7.292   7.469   3.261 -1.1845  0.4642 -0.5477
14677SOL     OW45798   8.096   9.096   8.141 -0.2267  0.5122 -0.0374
14677SOL    HW145799   8.076   9.070   8.231  0.1578  0.0416 -0.0860
14677SOL    HW245800   8.181   9.056   8.122 -1.4220 -1.5214 -1.4663
14678SOL     OW45801   9.582   9.006   9.202  1.0204 -0.7280  0.0147
14678SOL    HW145802   9.541   8.981   9.284  1.2542  0.8826  0.6546
14678SOL    HW245803   9.594   8.923   9.155  1.2200 -1.7271  1.7456
14679SOL     OW45804   7.692   6.973   2.587 -0.3792 -0.2874 -0.2290
14679SOL    HW145805   7.729   6.927   2.663  2.1484  0.5938 -0.8202
14679SOL    HW245806   7.757   6.960   2.518 -0.7326  2.0987 -1.0990
14680SOL     OW45807   5.018   9.551   6.877 -0.1087  0.0674  0.0546
14680SOL    HW145808   5.010   9.523   6.786  2.7641  0.4629 -0.3943
14680SOL    HW245809   4.966   9.631   6.883 -1.4351 -0.6945 -0.8348
14681SOL     OW45810   6.576   6.859   9.291  0.3498 -0.0143  0.0982
14681SOL    HW145811   6.647   6.919   9.314 -0.1257  0.6547 -0.1215
14681SOL    HW245812   6.609   6.811   9.215 -0.0052  1.4262 -1.0171
14682SOL     OW45813   6.189   6.521   4.398 -0.8515  0.1447 -0.4333
14682SOL    HW145814   6.247   6.590   4.364  0.3661 -0.6834 -0.1248
14682SOL    HW245815   6.117   6.568   4.440  0.8295  1.3168  1.3286
14683SOL     OW45816   4.289   2.352   1.655  0.1876 -0.5315 -0.1219
14683SOL    HW145817   4.243   2.345   1.739  0.1098 -1.4319 -0.2370
14683SOL    HW245818   4.319   2.264   1.636 -0.0086 -0.3841 -1.1745
14684SOL     OW45819   5.714   4.002   4.719  0.1331  0.2150  0.5310
14684SOL    HW145820   5.698   4.010   4.813 -1.0710  0.8051  0.3030
14684SOL    HW245821   5.743   3.912   4.706 -2.2768 -0.7256  1.1630
14685SOL     OW45822   9.548   6.927   7.271  0.2464 -0.2512 -0.0017
14685SOL    HW145823   9.514   6.948   7.185 -2.5057  2.3277  1.5325
14685SOL    HW245824   9.627   6.981   7.280  0.1697 -0.0326 -0.6448
14686SOL     OW45825   4.534   1.246   6.559 -0.3350 -0.7633  0.2833
14686SOL    HW145826   4.548   1.270   6.651 -1.0814 -3.0134  1.0579
14686SOL    HW245827   4.470   1.309   6.527 -0.4457 -0.2506  1.4540
14687SOL     OW45828   4.433   2.676   2.427  0.0230  0.3356  0.4328
14687SOL    HW145829   4.432   2.630   2.511  1.5555 -0.3769  0.1072
14687SOL    HW245830   4.519   2.655   2.390  0.4783  2.8383 -0.1012
14688SOL     OW45831   7.081   1.781   4.729 -0.0611  0.0821  0.3013
14688SOL    HW145832   6.990   1.806   4.745 -0.9837 -1.9357 -1.3450
14688SOL    HW245833   7.089   1.781   4.633  1.7955  0.5591  0.4260
14689SOL     OW45834   6.317   0.628   0.013 -0.1411  0.4051  0.1287
14689SOL    HW145835   6.374   0.554   0.034  0.0777 -0.5283 -3.1894
14689SOL    HW245836   6.232   0.588  -0.005 -0.3040  1.0621 -0.6259
14690SOL     OW45837   0.706   1.540   2.461  0.7184 -0.1160  0.1248
14690SOL    HW145838   0.795   1.538   2.424  0.0486  0.1786 -1.5892
14690SOL    HW245839   0.676   1.449   2.455  0.2135  0.1122 -1.1421
14691SOL     OW45840   6.289   6.262   4.388  0.5343  0.1265 -0.0178
14691SOL    HW145841   6.249   6.345   4.415 -0.3068  0.0880 -1.0977
14691SOL    HW245842   6.365   6.288   4.336  1.4321  0.1942  1.2594
14692SOL     OW45843   7.399   0.446   4.875 -0.4732  0.2420  0.1387
14692SOL    HW145844   7.465   0.516   4.872 -1.3616  1.1517  1.1717
14692SOL    HW245845   7.332   0.475   4.814 -0.6252  0.0529  0.2175
14693SOL     OW45846   8.029   7.512   7.838  0.1206 -0.5727  0.2158
14693SOL    HW145847   8.114   7.553   7.821  1.2546 -3.0375 -0.4570
14693SOL    HW245848   7.994   7.493   7.751 -1.1673  0.3870  0.4883
14694SOL     OW45849   7.948   0.250   2.028 -0.1171  0.3887 -0.2982
14694SOL    HW145850   7.937   0.292   2.113 -1.3344  1.4704 -0.9482
14694SOL    HW245851   8.031   0.285   1.995  0.6644 -0.4901  0.6557
14695SOL     OW45852   0.951   9.247   3.219  0.0293 -0.7009  0.2219
14695SOL    HW145853   0.876   9.257   3.278  0.3595 -1.6147  0.8102
14695SOL    HW245854   0.999   9.172   3.254  0.6873 -0.7309 -0.7230
14696SOL     OW45855   8.099   8.300   8.473 -0.1504 -0.1174 -0.3666
14696SOL    HW145856   8.110   8.394   8.459 -1.0118  0.3695  1.7669
14696SOL    HW245857   8.143   8.283   8.556 -0.6892 -1.4433 -0.3244
14697SOL     OW45858   6.776   2.807   1.902 -0.6240 -0.2135 -0.6058
14697SOL    HW145859   6.740   2.864   1.834  0.2572 -1.0387 -1.8115
14697SOL    HW245860   6.746   2.719   1.878  0.8615 -0.7126 -0.7933
14698SOL     OW45861   5.646   6.310   3.590 -0.1868 -0.5138  0.2036
14698SOL    HW145862   5.699   6.273   3.520  2.8944  1.9113  1.0309
14698SOL    HW245863   5.619   6.396   3.558 -1.9689 -0.8758  0.6136
14699SOL     OW45864   6.497   7.080   9.623 -0.5944  0.3979 -0.7141
14699SOL    HW145865   6.456   7.074   9.709  0.2054  1.7736 -0.1964
14699SOL    HW245866   6.432   7.045   9.563 -2.7422  2.8067  0.0087
14700SOL     OW45867   9.569   0.604   6.634  0.3971  0.9208  0.5466
14700SOL    HW145868   9.663   0.588   6.627  0.2911  1.0376 -1.9287
14700SOL    HW245869   9.541   0.549   6.707  2.1486 -0.2796  0.3887
14701SOL     OW45870   0.732   5.595   2.131  0.0708  0.6868 -0.8475
14701SOL    HW145871   0.817   5.639   2.129  0.4969 -0.0735  0.0575
14701SOL    HW245872   0.668   5.666   2.124  0.7410  1.4658  0.6538
14702SOL     OW45873   2.884   8.133   4.899 -0.3067 -0.2191  0.0918
14702SOL    HW145874   2.965   8.146   4.947 -0.6869  1.4215  0.3616
14702SOL    HW245875   2.816   8.131   4.966 -0.5609 -0.8599 -0.1794
14703SOL     OW45876   7.019   5.930   7.873  0.0952 -0.3513  0.1346
14703SOL    HW145877   7.064   5.847   7.861  0.6370 -0.3175  1.6941
14703SOL    HW245878   6.945   5.909   7.929 -1.4530 -0.2633 -1.7837
14704SOL     OW45879   7.024   0.441   8.228 -0.1677 -0.0368  0.2387
14704SOL    HW145880   7.110   0.455   8.267  0.0699 -1.3997  0.2596
14704SOL    HW245881   7.030   0.479   8.140  0.5404 -0.3428  0.1516
14705SOL     OW45882   9.203   4.102   9.578 -0.1763  0.3505  0.4294
14705SOL    HW145883   9.227   4.020   9.621  1.0082  1.3192  1.6893
14705SOL    HW245884   9.285   4.149   9.568 -0.7465  1.1221 -0.9036
14706SOL     OW45885   4.727   1.102   7.979 -0.3636 -0.3054 -0.1297
14706SOL    HW145886   4.793   1.103   8.049 -0.2005  0.3092 -0.2907
14706SOL    HW245887   4.658   1.159   8.011 -0.1411  0.2412 -0.6115
14707SOL     OW45888   6.478   4.599   3.513 -0.0311 -0.1077  0.0899
14707SOL    HW145889   6.487   4.508   3.542  0.7123 -0.0973 -0.0837
14707SOL    HW245890   6.530   4.604   3.433 -0.8041  0.2542 -0.4039
14708SOL     OW45891   9.099   5.439   9.467  0.2653  0.0645  0.2666
14708SOL    HW145892   9.118   5.434   9.374 -0.0991 -0.1568  0.2013
14708SOL    HW245893   9.060   5.526   9.479  3.2927  1.4604  0.7817
14709SOL     OW45894   0.768   8.920   4.476 -0.5438  0.0294  0.0646
14709SOL    HW145895   0.837   8.897   4.414 -0.5132  1.8946 -0.6372
14709SOL    HW245896   0.769   8.848   4.539  0.9805 -0.7674 -0.7955
14710SOL     OW45897   0.647   3.215   5.368 -0.2858 -0.1767 -0.2655
14710SOL    HW145898   0.720   3.252   5.418  0.1279  1.3781 -1.9139
14710SOL    HW245899   0.617   3.141   5.420  1.4326  0.1294  1.2437
14711SOL     OW45900   5.253   3.052   3.141  0.6110 -0.0339  0.5172
14711SOL    HW145901   5.300   2.971   3.160  2.3726  0.6865 -0.5239
14711SOL    HW245902   5.165   3.038   3.177  0.3034 -3.0418 -1.1169
14712SOL     OW45903   7.251   0.719   3.848  0.2538  0.2768 -0.1189
14712SOL    HW145904   7.328   0.747   3.898  0.4307  0.0498 -0.2622
14712SOL    HW245905   7.179   0.770   3.885  0.4193  0.2628  0.2318
14713SOL     OW45906   9.422   9.624   0.217  0.5514  0.0127  0.5395
14713SOL    HW145907   9.360   9.679   0.169 -0.8759  0.3108  2.5528
14713SOL    HW245908   9.366   9.564   0.267  1.9908 -1.2581  0.6888
14714SOL     OW45909   0.811   2.816   8.578 -0.1232  0.0019  0.0461
14714SOL    HW145910   0.751   2.887   8.598  0.9025  0.6420  0.9736
14714SOL    HW245911   0.892   2.860   8.551  0.2710 -0.8243 -0.1628
14715SOL     OW45912   3.713   8.906   1.836 -0.2305  0.0678  0.4239
14715SOL    HW145913   3.661   8.986   1.828 -1.3127 -0.5855  0.7453
14715SOL    HW245914   3.698   8.858   1.754  0.0340 -0.0350  0.4312
14716SOL     OW45915   5.453   6.348   4.498 -0.3299 -0.2925 -0.5246
14716SOL    HW145916   5.504   6.288   4.444  0.3284 -0.3716  0.1619
14716SOL    HW245917   5.435   6.300   4.579  0.6678  0.5778  0.2552
14717SOL     OW45918   4.555   4.598   4.118  0.3163 -0.1325 -0.0109
14717SOL    HW145919   4.579   4.642   4.200 -1.6505 -0.2886  0.6938
14717SOL    HW245920   4.461   4.586   4.124  0.1714 -0.4173 -2.2051
14718SOL     OW45921   1.647   9.023   2.844  0.2424  0.1818  0.1785
14718SOL    HW145922   1.555   9.003   2.860  0.3918  0.2204  1.1500
14718SOL    HW245923   1.650   9.054   2.754 -0.5663 -0.6164 -0.1317
14719SOL     OW45924   4.218   0.539   0.418 -0.2079 -0.4768  0.2670
14719SOL    HW145925   4.313   0.529   0.421 -0.1245  0.1936  0.1082
14719SOL    HW245926   4.186   0.457   0.381  0.3081 -0.7295  0.3829
14720SOL     OW45927   3.039   8.999   6.799  0.1073 -0.1312 -0.1905
14720SOL    HW145928   3.065   8.910   6.825  2.1320  0.3948 -0.2310
14720SOL    HW245929   2.943   8.997   6.798  0.1002 -2.4935 -0.8367
14721SOL     OW45930   1.421   7.102   7.172 -0.2073  0.0624 -0.1441
14721SOL    HW145931   1.432   7.106   7.267  0.1715 -0.2923 -0.1689
14721SOL    HW245932   1.506   7.129   7.137 -0.8435  1.8564 -0.4171
14722SOL     OW45933   2.039   7.590   4.533 -0.4500  0.1760  0.1969
14722SOL    HW145934   2.080   7.523   4.587 -2.1755 -0.8563  0.3287
14722SOL    HW245935   2.014   7.659   4.594 -1.5373 -0.5576  0.6263
14723SOL     OW45936   7.528   7.196   7.943 -0.7197  0.7286  0.4981
14723SOL    HW145937   7.547   7.287   7.966  1.9112  0.2880  0.3781
14723SOL    HW245938   7.507   7.153   8.026 -0.0525  1.0511  0.8386
14724SOL     OW45939   5.516   0.091   5.440 -0.2752  0.0274  0.4071
14724SOL    HW145940   5.611   0.080   5.433 -0.5229 -1.4857 -1.3661
14724SOL    HW245941   5.488   0.124   5.355 -1.4576 -0.6277  0.5101
14725SOL     OW45942   4.568   8.648   9.365  0.0456  0.0731 -0.1862
14725SOL    HW145943   4.528   8.670   9.281  0.6461 -0.2908 -0.5712
14725SOL    HW245944   4.640   8.711   9.375  2.5152 -2.2691 -1.8285
14726SOL     OW45945   2.660   2.325   1.127  0.6015  1.1200 -0.0639
14726SOL    HW145946   2.642   2.347   1.218  2.1302  0.5392  0.4098
14726SOL    HW245947   2.755   2.333   1.119  0.4971  1.0749 -1.5878
14727SOL     OW45948   3.589   7.242   2.406  1.3580 -0.2199 -0.0201
14727SOL    HW145949   3.629   7.249   2.493  0.0429  0.3819  0.5733
14727SOL    HW245950   3.551   7.154   2.404  1.3816 -0.2315  0.0351
14728SOL     OW45951   2.378   7.505   8.043 -0.0445  0.2487 -0.0121
14728SOL    HW145952   2.421   7.427   8.078  0.9467  0.2984 -1.0468
14728SOL    HW245953   2.294   7.473   8.009 -0.5896  0.0358  1.4664
14729SOL     OW45954   9.490   9.771   3.084  0.1940  0.1457  0.2497
14729SOL    HW145955   9.517   9.693   3.037  0.2167 -0.4089  1.1737
14729SOL    HW245956   9.420   9.741   3.143 -1.4799  1.2532 -1.0469
14730SOL     OW45957   7.538   2.502   5.069 -0.1566  0.0395  0.5546
14730SOL    HW145958   7.561   2.543   4.985 -2.3410 -0.7493 -0.5078
14730SOL    HW245959   7.547   2.572   5.133  0.3013  1.0328 -0.5499
14731SOL     OW45960   1.125   6.820   9.621  0.0768 -0.2230  0.1740
14731SOL    HW145961   1.211   6.808   9.661  0.3707  0.7184 -0.1520
14731SOL    HW245962   1.088   6.731   9.617  0.1417 -0.4094  2.2594
14732SOL     OW45963   8.367   6.447   7.832  0.1900 -0.8370 -0.1119
14732SOL    HW145964   8.332   6.529   7.796  2.1537 -0.0258 -0.3309
14732SOL    HW245965   8.297   6.413   7.886 -0.5322  1.2650  0.3770
14733SOL     OW45966   9.084   7.360   6.162  0.0280  0.4096  0.2381
14733SOL    HW145967   8.998   7.343   6.122  0.0756  1.1796 -0.1931
14733SOL    HW245968   9.142   7.377   6.088  0.3360  0.8732  0.5846
14734SOL     OW45969   4.878   8.099   0.948 -0.0928  0.5272  0.9645
14734SOL    HW145970   4.923   8.138   0.873 -0.8025  0.2173  0.3636
14734SOL    HW245971   4.932   8.024   0.972  0.0272  0.5046  0.6336
14735SOL     OW45972   4.936   9.733   4.642 -0.0876 -0.3300 -0.3157
14735SOL    HW145973   4.914   9.641   4.631 -2.6712  0.3174 -1.3497
14735SOL    HW245974   4.976   9.759   4.560  0.3025 -0.4316 -0.1605
14736SOL     OW45975   6.600   3.294   5.780 -0.4584 -0.5338  0.2538
14736SOL    HW145976   6.567   3.317   5.867  1.0100 -1.7224  1.1670
14736SOL    HW245977   6.692   3.319   5.782 -1.0118  2.2504 -2.0624
14737SOL     OW45978   0.159   5.949   0.619  0.1052  0.1560 -0.5941
14737SOL    HW145979   0.153   5.986   0.531 -0.0147 -0.6456 -0.9364
14737SOL    HW245980   0.133   5.858   0.607  1.0812 -0.2176  0.1032
14738SOL     OW45981   3.965   7.522   8.274  0.2931  0.1320 -0.1741
14738SOL    HW145982   4.005   7.476   8.200 -0.4954 -0.0097 -0.5148
14738SOL    HW245983   4.040   7.555   8.323  0.8353  0.1702 -0.9929
14739SOL     OW45984   9.172   0.180   6.193  0.2059  0.0709 -0.2738
14739SOL    HW145985   9.249   0.193   6.248  0.2010 -0.6351 -0.0853
14739SOL    HW245986   9.099   0.175   6.255  0.0888  0.1292 -0.4066
14740SOL     OW45987   6.516   9.045   5.818 -0.6236  0.6072 -0.2899
14740SOL    HW145988   6.452   9.111   5.792 -1.8714  0.1982  1.6014
14740SOL    HW245989   6.474   8.961   5.799  0.0913  0.3265 -0.6877
14741SOL     OW45990   9.264   7.458   2.217  0.3213  0.6632  0.3726
14741SOL    HW145991   9.246   7.364   2.225  0.8362  0.5669  0.3703
14741SOL    HW245992   9.235   7.495   2.301  0.4825  0.4499  0.5219
14742SOL     OW45993   0.418   4.407   7.321 -0.3866  0.0382  0.4406
14742SOL    HW145994   0.498   4.366   7.289 -1.1388 -0.2967 -1.1262
14742SOL    HW245995   0.348   4.348   7.294 -1.2606  0.9282  0.6908
14743SOL     OW45996   3.989   2.649   8.526  0.7168  0.4788  0.2833
14743SOL    HW145997   4.065   2.595   8.503  0.0094  0.3033 -1.8212
14743SOL    HW245998   3.940   2.658   8.445 -2.6508 -1.1210  1.9358
14744SOL     OW45999   2.141   4.900   5.697  0.0178 -1.0442 -0.0252
14744SOL    HW146000   2.189   4.962   5.642  0.2177 -1.0288  0.1647
14744SOL    HW246001   2.060   4.947   5.720  0.8875 -0.1767  1.4790
14745SOL     OW46002   4.402   9.525   3.185 -0.0799  0.1786  0.0555
14745SOL    HW146003   4.419   9.431   3.176  0.4921  0.4307 -1.7919
14745SOL    HW246004   4.436   9.546   3.272  1.9859 -0.8948 -0.4190
14746SOL     OW46005   3.887   5.065   7.927  0.0306 -0.4980  0.1527
14746SOL    HW146006   3.977   5.082   7.954 -0.7196  0.5919  2.1994
14746SOL    HW246007   3.895   5.005   7.853  2.4392  0.0514 -0.1152
14747SOL     OW46008   8.761   0.678   9.111 -0.3310  0.5248 -0.0726
14747SOL    HW146009   8.736   0.627   9.188  1.7134 -0.2818  0.1360
14747SOL    HW246010   8.718   0.633   9.038  0.3737 -0.7544  0.2561
14748SOL     OW46011   3.887   1.858   5.217  0.8642 -0.0335 -0.4652
14748SOL    HW146012   3.827   1.784   5.221 -0.6216  1.0607 -1.5649
14748SOL    HW246013   3.970   1.823   5.249 -0.2147 -1.7128  0.6564
14749SOL     OW46014   0.546   4.000   1.134 -0.2591 -0.1004 -0.1198
14749SOL    HW146015   0.493   4.005   1.054 -0.2903  1.8997 -0.0252
14749SOL    HW246016   0.527   4.082   1.180 -0.5561 -1.3599  2.1617
14750SOL     OW46017   4.728   0.339   7.824  0.7252  0.5051  0.3493
14750SOL    HW146018   4.649   0.348   7.771  1.4271  1.9574 -0.5492
14750SOL    HW246019   4.703   0.369   7.911  0.3515  1.2681 -0.0114
14751SOL     OW46020   5.401   8.669   4.949  0.0505  0.0579 -0.3332
14751SOL    HW146021   5.361   8.605   4.889 -3.0195  1.6217 -0.1396
14751SOL    HW246022   5.366   8.645   5.035 -0.6346  1.5765 -0.1708
14752SOL     OW46023   7.009   8.643   5.667  0.6121 -0.0492 -0.1938
14752SOL    HW146024   7.003   8.713   5.601  1.6488  0.1960 -0.0362
14752SOL    HW246025   6.930   8.591   5.652  0.5755  0.2861 -1.3133
14753SOL     OW46026   0.141   5.569   2.037 -0.4233  0.2490  0.3253
14753SOL    HW146027   0.151   5.652   2.083 -1.1132  0.2259  0.5182
14753SOL    HW246028   0.050   5.543   2.052 -0.1624 -0.6391  0.4331
14754SOL     OW46029   9.449   0.431   8.913 -0.5644 -0.6836  0.1646
14754SOL    HW146030   9.500   0.375   8.972 -1.0102  0.5779  1.8291
14754SOL    HW246031   9.510   0.499   8.885 -1.2149  0.8337  2.1675
14755SOL     OW46032   7.713   3.726   4.893  0.7420  0.0448 -0.1301
14755SOL    HW146033   7.621   3.746   4.878  0.4386 -1.7364 -0.8615
14755SOL    HW246034   7.747   3.803   4.939 -1.3307  0.3343  1.0455
14756SOL     OW46035   4.032   5.116   6.754 -0.4878 -0.2997  0.0036
14756SOL    HW146036   4.121   5.150   6.760  0.0236 -1.7786  1.8073
14756SOL    HW246037   3.980   5.177   6.808 -0.6380  0.6755 -1.2088
14757SOL     OW46038   3.423   0.159   2.132 -0.7148  1.0491 -0.2362
14757SOL    HW146039   3.512   0.181   2.105  0.3568 -1.7821  0.6025
14757SOL    HW246040   3.366   0.214   2.078  1.4891  1.2239 -2.5097
14758SOL     OW46041   3.040   3.448   4.745  0.0225  0.2366  0.6385
14758SOL    HW146042   3.032   3.515   4.678 -0.1716 -1.0035 -0.6234
14758SOL    HW246043   2.950   3.428   4.770 -0.0328 -0.7819 -0.2897
14759SOL     OW46044   8.578   3.977   7.250  0.2149 -0.2658  0.3017
14759SOL    HW146045   8.595   4.071   7.240 -0.2208 -0.0684  1.2430
14759SOL    HW246046   8.491   3.973   7.289 -0.2866 -1.1161 -0.8676
14760SOL     OW46047   1.567   1.556   7.408 -0.4503 -0.5498  0.0484
14760SOL    HW146048   1.588   1.504   7.331 -1.0356  0.4503 -0.8079
14760SOL    HW246049   1.530   1.637   7.374 -0.5273  0.0105  1.3754
14761SOL     OW46050   1.370   7.426   1.300 -0.0713 -0.3912  0.3927
14761SOL    HW146051   1.355   7.340   1.340  0.2828 -0.8878 -0.5090
14761SOL    HW246052   1.314   7.427   1.223  0.6989 -0.2395 -0.1845
14762SOL     OW46053   2.440   4.743   1.837  0.3796  0.7905 -0.2861
14762SOL    HW146054   2.402   4.722   1.922  0.1061  0.2690 -0.5394
14762SOL    HW246055   2.447   4.839   1.838  1.5040  0.7374  0.8093
14763SOL     OW46056   7.884   5.730   7.715 -0.0438  0.2672 -0.3128
14763SOL    HW146057   7.900   5.752   7.807 -0.8194 -0.6156  0.0424
14763SOL    HW246058   7.863   5.637   7.715  0.1930  0.1927 -1.4226
14764SOL     OW46059   1.236   7.015   6.397 -0.2853 -0.1551 -0.5671
14764SOL    HW146060   1.151   6.974   6.380  0.3347 -1.0766 -1.5544
14764SOL    HW246061   1.223   7.107   6.374 -1.1432 -0.1881 -0.2538
14765SOL     OW46062   2.555   7.951   9.723 -0.0873 -0.2678 -0.5801
14765SOL    HW146063   2.644   7.985   9.723  0.5303 -1.7592 -1.7212
14765SOL    HW246064   2.501   8.024   9.753  1.2601  1.3692 -1.9362
14766SOL     OW46065   8.018   6.060   6.321  0.3283  0.0802  0.1635
14766SOL    HW146066   8.005   6.133   6.382 -0.5869 -0.3239  0.4710
14766SOL    HW246067   8.112   6.045   6.321  0.6726  2.0293 -0.8182
14767SOL     OW46068   0.449   6.103   9.269 -0.2035 -0.2055 -0.4384
14767SOL    HW146069   0.418   6.120   9.180 -0.5324  0.8700 -0.1366
14767SOL    HW246070   0.382   6.143   9.325  0.2531 -0.4394  0.2841
14768SOL     OW46071   8.219   8.344   9.119  0.5421  0.0967  0.0630
14768SOL    HW146072   8.132   8.350   9.159 -0.1484  0.9241 -1.4681
14768SOL    HW246073   8.206   8.376   9.029  2.7028  1.6183  0.2082
14769SOL     OW46074   8.109   8.268   8.098  0.5078  0.3302  0.5667
14769SOL    HW146075   8.117   8.174   8.118 -2.2779 -0.1710 -0.2236
14769SOL    HW246076   8.068   8.305   8.176 -1.5044  0.1845 -0.3552
14770SOL     OW46077   4.158   3.032   5.101  0.2454 -0.6127  0.4267
14770SOL    HW146078   4.212   3.064   5.029 -0.0424 -0.0783  0.4449
14770SOL    HW246079   4.137   3.110   5.153  1.2094 -1.1152  1.6208
14771SOL     OW46080   7.999   7.166   6.656 -0.4548 -0.4557  0.2490
14771SOL    HW146081   8.072   7.187   6.597 -0.7468  0.6845  0.2656
14771SOL    HW246082   8.010   7.073   6.676 -0.3796 -0.8826 -1.6226
14772SOL     OW46083   0.875   8.610   7.677 -0.4719 -0.0417  0.0080
14772SOL    HW146084   0.829   8.693   7.681  1.0010  0.8280 -0.2462
14772SOL    HW246085   0.891   8.586   7.769  0.0754  0.5357  0.0673
14773SOL     OW46086   2.611   9.022   4.966  0.2154 -0.6529  0.1395
14773SOL    HW146087   2.700   9.040   4.934  0.7861 -2.4185  0.5918
14773SOL    HW246088   2.559   9.095   4.935  1.6589 -0.0129 -0.8921
14774SOL     OW46089   5.785   3.421   1.633  0.5804  0.2036  0.4404
14774SOL    HW146090   5.731   3.470   1.696  0.7397  0.5851  0.2868
14774SOL    HW246091   5.810   3.341   1.679 -1.2206 -0.6378  0.0744
14775SOL     OW46092   5.321   5.673   2.189  0.0002 -0.2771  0.0015
14775SOL    HW146093   5.391   5.713   2.137  1.5218 -1.1790  1.2670
14775SOL    HW246094   5.345   5.691   2.280 -0.3717 -2.2592  0.5341
14776SOL     OW46095   7.443   4.757   9.341 -0.3947 -0.1462 -0.9960
14776SOL    HW146096   7.425   4.801   9.424  2.8864  1.5676 -1.0392
14776SOL    HW246097   7.400   4.812   9.275  0.3831  0.8370 -0.7153
14777SOL     OW46098   5.721   0.358   7.135  0.6858  0.6544  0.0151
14777SOL    HW146099   5.654   0.346   7.202  0.5569 -1.1800 -0.3862
14777SOL    HW246100   5.675   0.399   7.062  0.2098  0.2795  0.0963
14778SOL     OW46101   9.246   3.121   2.969 -0.8565  0.2059 -0.1282
14778SOL    HW146102   9.170   3.150   2.920 -1.9703 -0.3579  1.2030
14778SOL    HW246103   9.246   3.173   3.049 -1.4051 -1.5791  1.1002
14779SOL     OW46104   8.050   1.405   8.042 -0.3192  0.4470  0.4977
14779SOL    HW146105   8.145   1.414   8.040 -0.4271  1.5178 -0.9810
14779SOL    HW246106   8.035   1.320   8.084  1.1339  1.9298  4.5713
14780SOL     OW46107   6.844   9.338   4.913  0.2226  0.5335 -0.0530
14780SOL    HW146108   6.825   9.254   4.872 -0.5798  0.1234  1.1102
14780SOL    HW246109   6.934   9.357   4.889 -0.4310  0.6973 -2.6289
14781SOL     OW46110   8.911   1.719   1.365  0.4939  0.1134 -0.2778
14781SOL    HW146111   8.839   1.741   1.306  2.4254 -0.0613 -2.8880
14781SOL    HW246112   8.924   1.798   1.418 -1.0229  0.4366 -0.3363
14782SOL     OW46113   3.164   0.573   5.044  0.0590 -0.4358  0.1277
14782SOL    HW146114   3.107   0.645   5.019 -0.5782 -0.6867  0.8077
14782SOL    HW246115   3.219   0.558   4.968 -1.2948 -0.6718 -0.8562
14783SOL     OW46116   3.085   0.009   3.064 -0.3092 -0.1775 -0.4651
14783SOL    HW146117   3.156   0.059   3.024  0.8628 -0.8449  0.6760
14783SOL    HW246118   3.088  -0.076   3.020 -0.6854 -0.0591 -0.7170
14784SOL     OW46119   1.906   5.672   8.901 -0.0837 -0.9361  0.1463
14784SOL    HW146120   1.961   5.691   8.978 -0.1607 -0.6335  0.1288
14784SOL    HW246121   1.904   5.754   8.852  1.4693 -1.6164 -1.1485
14785SOL     OW46122   7.879   4.372   8.365 -0.5486 -0.2708 -0.6833
14785SOL    HW146123   7.841   4.459   8.357  0.3259  0.0425 -1.5843
14785SOL    HW246124   7.864   4.332   8.279  0.7744 -0.2907 -0.9159
14786SOL     OW46125   5.282   7.744   4.763  0.1730 -0.2649 -0.3507
14786SOL    HW146126   5.357   7.793   4.795 -0.8252  0.4275  1.0288
14786SOL    HW246127   5.211   7.808   4.759 -0.3135 -0.8364 -1.9108
14787SOL     OW46128   6.841   8.829   3.839  0.0679  0.0300 -0.3734
14787SOL    HW146129   6.884   8.799   3.758 -0.3587  1.5588 -1.2084
14787SOL    HW246130   6.838   8.924   3.830  0.4906  0.2892  1.7152
14788SOL     OW46131   3.517   1.874   4.589 -0.1892  0.4933  0.0510
14788SOL    HW146132   3.510   1.969   4.592 -0.3247  0.4692  1.9000
14788SOL    HW246133   3.427   1.844   4.573  0.0050  0.6590 -1.5278
14789SOL     OW46134   1.871   1.320   1.400  0.2214  0.6379  0.0019
14789SOL    HW146135   1.926   1.259   1.449 -0.2989 -0.8050 -1.1375
14789SOL    HW246136   1.790   1.272   1.383 -1.0342  2.3766  0.7959
14790SOL     OW46137   6.202   9.405   0.556 -0.4785  0.1921  0.1049
14790SOL    HW146138   6.199   9.497   0.532  1.5616  0.2744 -0.0592
14790SOL    HW246139   6.292   9.378   0.535 -0.6587 -1.5075  1.3061
14791SOL     OW46140   3.666   7.477   5.564  0.2160  0.0882  0.1066
14791SOL    HW146141   3.698   7.478   5.474  1.7937 -0.0719  0.6195
14791SOL    HW246142   3.578   7.513   5.559 -0.1055 -0.8284 -1.6219
14792SOL     OW46143   4.416   7.495   2.277 -0.7268 -0.6113  0.3311
14792SOL    HW146144   4.392   7.432   2.209  0.4794  0.3228 -0.9979
14792SOL    HW246145   4.488   7.453   2.324 -0.8312 -0.7926  0.3335
14793SOL     OW46146   4.213   0.102   8.995  0.2975  0.3496 -0.3985
14793SOL    HW146147   4.258   0.151   8.927 -0.9681  2.3484  0.1218
14793SOL    HW246148   4.121   0.127   8.986 -0.1077 -0.4734  1.0969
14794SOL     OW46149   0.148   7.283   1.025  0.6154 -0.0778 -0.3894
14794SOL    HW146150   0.216   7.348   1.040  0.3975  0.2722 -0.8952
14794SOL    HW246151   0.145   7.273   0.929 -0.4838  0.3997 -0.4209
14795SOL     OW46152   5.836   6.986   1.972  0.0965  0.1327  0.1758
14795SOL    HW146153   5.765   6.961   1.913 -0.5604  0.4733  0.8036
14795SOL    HW246154   5.836   7.081   1.969 -0.5111  0.1823  1.3671
14796SOL     OW46155   5.686   8.924   5.800 -0.1250  0.4716 -0.6806
14796SOL    HW146156   5.659   9.015   5.793  0.3736  0.8256  1.2900
14796SOL    HW246157   5.773   8.927   5.839  0.7121 -0.8175 -2.3232
14797SOL     OW46158   2.232   3.782   5.527 -0.6448  0.0618  0.3937
14797SOL    HW146159   2.308   3.737   5.490 -0.8791 -1.0104  1.1744
14797SOL    HW246160   2.255   3.798   5.618 -1.9666 -1.8231  1.1249
14798SOL     OW46161   5.506   2.562   8.908  0.5301  0.7947  0.1274
14798SOL    HW146162   5.483   2.606   8.826  0.3569 -0.4906 -0.5265
14798SOL    HW246163   5.443   2.491   8.916  1.8903 -0.4323  0.2660
14799SOL     OW46164   4.745   9.569   4.879  0.4464 -0.2120 -0.1313
14799SOL    HW146165   4.785   9.624   4.811  0.5571  1.7078  1.4076
14799SOL    HW246166   4.815   9.507   4.903  1.2506  0.6845 -0.0873
14800SOL     OW46167   4.757   1.762   7.578  0.6236 -0.0689 -0.0152
14800SOL    HW146168   4.665   1.758   7.550  0.7218  1.0934 -0.5535
14800SOL    HW246169   4.782   1.670   7.589 -0.2120 -0.4672 -1.1778
14801SOL     OW46170   0.581   6.082   7.426  0.1579 -0.2330 -0.4266
14801SOL    HW146171   0.517   6.029   7.472 -0.4034 -0.7974 -1.7913
14801SOL    HW246172   0.663   6.033   7.435 -0.1221 -0.7724 -0.7270
14802SOL     OW46173   0.763   8.936   0.127 -0.5415  0.1238  0.4324
14802SOL    HW146174   0.740   8.850   0.091 -1.0773  0.0822  0.8594
14802SOL    HW246175   0.801   8.917   0.212  1.4363  0.1691 -0.3845
14803SOL     OW46176   6.847   9.408   0.037 -0.1561 -0.0478 -0.1556
14803SOL    HW146177   6.812   9.369  -0.044  1.5292  0.3635 -1.1310
14803SOL    HW246178   6.914   9.346   0.066  0.6323  0.7687 -0.1984
14804SOL     OW46179   0.555   7.223   7.231  0.2241  0.3128 -0.3947
14804SOL    HW146180   0.516   7.146   7.187  0.7611  0.7862 -1.7579
14804SOL    HW246181   0.634   7.241   7.181  3.0448 -1.4011  3.0432
14805SOL     OW46182   7.729   7.164   7.325 -0.6924  0.1456 -0.0623
14805SOL    HW146183   7.721   7.116   7.407  0.0885 -0.5787 -0.4007
14805SOL    HW246184   7.816   7.205   7.330 -0.9074  0.6372 -0.2534
14806SOL     OW46185   5.382   0.104   9.205  0.3507  0.2445  0.2885
14806SOL    HW146186   5.467   0.107   9.161  0.9307 -1.8482  1.1584
14806SOL    HW246187   5.401   0.128   9.295  0.0173 -0.1849  0.4763
14807SOL     OW46188   2.651   4.334   0.502 -0.1480  0.5927  0.1362
14807SOL    HW146189   2.742   4.343   0.473  0.9887 -2.8240  2.0318
14807SOL    HW246190   2.612   4.273   0.440 -0.5209  0.4259  0.5315
14808SOL     OW46191   1.812   8.338   5.664  0.2392 -0.1024 -0.3874
14808SOL    HW146192   1.724   8.332   5.701  0.3537 -0.4410 -0.1638
14808SOL    HW246193   1.802   8.393   5.586 -0.5313 -1.6566 -1.4326
14809SOL     OW46194   6.360   6.815   6.045 -0.2515  0.0076  0.0833
14809SOL    HW146195   6.378   6.905   6.015 -1.4037  0.6564  1.2210
14809SOL    HW246196   6.299   6.780   5.979 -1.7063  0.9492  0.8651
14810SOL     OW46197   1.457   9.159   8.327  0.0732 -0.1635 -0.0304
14810SOL    HW146198   1.513   9.210   8.269  0.0773  0.4752  0.5191
14810SOL    HW246199   1.420   9.224   8.388 -0.3870 -0.7329  0.3099
14811SOL     OW46200   7.477   8.851   9.330  0.0660 -0.0152  0.1007
14811SOL    HW146201   7.433   8.905   9.396 -0.4780 -0.8158  0.4062
14811SOL    HW246202   7.471   8.902   9.249 -0.2413  0.4790  0.4269
14812SOL     OW46203   6.721   9.372   9.028 -0.2478  0.3695  0.6674
14812SOL    HW146204   6.816   9.364   9.036  0.0488  2.2935 -0.3259
14812SOL    HW246205   6.687   9.343   9.112  1.0179 -2.7238  0.2403
14813SOL     OW46206   0.699   3.247   9.710 -0.0872  0.8551 -0.4229
14813SOL    HW146207   0.764   3.233   9.641 -0.4231  1.6868 -0.9272
14813SOL    HW246208   0.671   3.338   9.698 -1.6843  0.3800 -0.5265
14814SOL     OW46209   3.789   6.439   8.829 -1.4593  0.1079  0.5735
14814SOL    HW146210   3.794   6.500   8.903 -0.3636 -0.8853  1.3410
14814SOL    HW246211   3.831   6.486   8.757 -1.4788  0.6230  0.8919
14815SOL     OW46212   2.024   0.708   6.637  0.2569  0.3682 -0.5961
14815SOL    HW146213   2.104   0.756   6.617  1.2918  0.6414  3.3622
14815SOL    HW246214   2.053   0.617   6.647  0.2962  0.5581  1.4205
14816SOL     OW46215   0.014   5.093   8.160 -0.5734  0.4607 -0.0762
14816SOL    HW146216   0.101   5.131   8.146 -1.0915  2.2806  1.2859
14816SOL    HW246217  -0.033   5.112   8.079  0.1165 -0.1155 -0.6356
14817SOL     OW46218   3.859   9.636   5.769 -0.2532 -0.0200  0.1251
14817SOL    HW146219   3.786   9.580   5.742  0.0353 -1.2411  1.7804
14817SOL    HW246220   3.825   9.685   5.844  0.0545  0.7637 -0.2364
14818SOL     OW46221   8.064   9.105   2.747 -0.0404 -0.1875  0.0628
14818SOL    HW146222   8.106   9.021   2.761 -2.8670 -1.5758  1.0513
14818SOL    HW246223   8.053   9.142   2.835 -0.6981  0.1960 -0.1714
14819SOL     OW46224   1.770   9.517   5.053 -0.2253  0.3289  0.1323
14819SOL    HW146225   1.718   9.444   5.019 -3.4651  2.2064  0.6326
14819SOL    HW246226   1.755   9.516   5.147  1.0885  0.6785  0.3673
14820SOL     OW46227   6.097   6.094   0.062 -0.2823  0.4427  0.2863
14820SOL    HW146228   6.131   6.132   0.143  0.7198  2.1739 -0.8866
14820SOL    HW246229   6.068   6.006   0.087  3.2025 -0.4419  1.8481
14821SOL     OW46230   3.452   4.069   1.677  1.0610  0.3463  0.0405
14821SOL    HW146231   3.366   4.034   1.657  1.8811 -2.0207  0.3673
14821SOL    HW246232   3.475   4.123   1.602  0.5663 -1.5164 -1.5234
14822SOL     OW46233   8.066   6.619   1.612 -0.5501 -0.3351  0.2074
14822SOL    HW146234   8.130   6.681   1.577 -0.1898 -0.0266  1.3586
14822SOL    HW246235   7.982   6.664   1.603 -0.3928 -0.0246  0.2851
14823SOL     OW46236   3.093   8.085   7.493  0.2551 -0.3623 -0.2654
14823SOL    HW146237   3.085   8.001   7.540  0.0133 -0.5170 -0.5825
14823SOL    HW246238   3.028   8.080   7.424 -0.1383  0.3173  0.0476
14824SOL     OW46239   5.001   3.099   4.628  0.5227 -0.1913  0.0531
14824SOL    HW146240   4.926   3.084   4.569 -0.1448  1.4107  0.4543
14824SOL    HW246241   5.055   3.021   4.617 -0.6396 -0.8833 -1.1026
14825SOL     OW46242   6.831   7.505   7.738  0.0445 -0.2424 -0.2684
14825SOL    HW146243   6.776   7.427   7.733 -1.9689  1.1046 -0.3971
14825SOL    HW246244   6.810   7.544   7.823 -0.1187  0.9100 -0.8113
14826SOL     OW46245   3.920   7.929   0.839 -0.2599 -0.1792 -0.3098
14826SOL    HW146246   3.830   7.937   0.807 -0.3089  1.2473  0.1411
14826SOL    HW246247   3.961   8.012   0.814  0.8121 -0.6507 -0.1311
14827SOL     OW46248   0.740   5.552   5.755 -0.3035  0.6188 -0.2129
14827SOL    HW146249   0.790   5.543   5.836 -0.3541  1.8377 -0.0206
14827SOL    HW246250   0.652   5.521   5.777  0.0096 -0.2864 -0.1847
14828SOL     OW46251   8.491   4.019   5.241 -0.1821  0.2266  0.4319
14828SOL    HW146252   8.410   4.063   5.214  0.9613  2.1681  0.0034
14828SOL    HW246253   8.529   3.988   5.159  1.2273  2.4911  0.1293
14829SOL     OW46254   3.281   2.520   0.146 -0.5150  0.1545 -0.4306
14829SOL    HW146255   3.253   2.562   0.227  2.7934  1.9900 -0.0890
14829SOL    HW246256   3.220   2.553   0.080 -0.6581  2.0604  0.6028
14830SOL     OW46257   6.069   4.046   6.660  0.4063 -0.3564 -0.7146
14830SOL    HW146258   6.112   4.132   6.664 -0.5273  0.1698 -1.3819
14830SOL    HW246259   6.001   4.057   6.593 -1.3682 -0.8528  0.9101
14831SOL     OW46260   1.373   5.548   4.878 -0.0875  0.4514 -0.0311
14831SOL    HW146261   1.390   5.583   4.966 -0.1419 -0.0697  0.1910
14831SOL    HW246262   1.386   5.623   4.820 -2.0248  1.3460  0.5888
14832SOL     OW46263   2.038   8.169   1.716 -0.3619  0.3258  0.1892
14832SOL    HW146264   2.098   8.225   1.669 -0.3042  2.0376  2.1367
14832SOL    HW246265   2.082   8.084   1.721  0.4861  0.6786 -1.0538
14833SOL     OW46266   7.115   2.113   8.614  0.1580  0.4305  0.2469
14833SOL    HW146267   7.030   2.121   8.658 -0.5252  0.0546 -0.9576
14833SOL    HW246268   7.175   2.082   8.682 -1.0807 -1.1048  0.6745
14834SOL     OW46269   5.288   4.669   0.235  0.4786  0.1425 -0.3481
14834SOL    HW146270   5.369   4.675   0.285  0.3551  0.9284 -0.2346
14834SOL    HW246271   5.221   4.646   0.299  0.3741  0.8557 -0.1897
14835SOL     OW46272   1.109   5.730   4.329 -0.2422 -0.4891  0.2801
14835SOL    HW146273   1.079   5.775   4.408 -2.3776 -0.0440 -0.7166
14835SOL    HW246274   1.030   5.715   4.278  1.2010  0.7378 -2.5774
14836SOL     OW46275   0.154   2.910   8.393 -0.1565 -0.1785  0.0410
14836SOL    HW146276   0.174   2.969   8.321 -2.7872  0.4698 -0.2470
14836SOL    HW246277   0.173   2.823   8.359 -0.9151  0.1519 -1.3158
14837SOL     OW46278   1.308   6.921   1.450  0.3929  0.2899  0.1261
14837SOL    HW146279   1.284   6.830   1.434 -2.1942  0.4759  2.1798
14837SOL    HW246280   1.318   6.926   1.545 -0.2658  2.2994  0.1313
14838SOL     OW46281   6.677   9.622   0.417  0.7988  0.1904 -0.1542
14838SOL    HW146282   6.679   9.710   0.378 -2.5302  1.1900  1.5907
14838SOL    HW246283   6.682   9.563   0.342  0.9719  1.8899 -1.5615
14839SOL     OW46284   1.247   9.124   6.106  0.1483 -0.0362  0.7037
14839SOL    HW146285   1.256   9.192   6.172  2.2969  2.2028 -1.6854
14839SOL    HW246286   1.313   9.058   6.130  1.6759  1.2840  0.2898
14840SOL     OW46287   4.375   2.634   2.703 -0.2096 -0.5899 -0.1997
14840SOL    HW146288   4.299   2.584   2.734 -1.3098  0.6340 -0.8341
14840SOL    HW246289   4.358   2.724   2.731  1.9508 -0.5571  1.3094
14841SOL     OW46290   0.290   4.311   8.093  0.0765 -0.4567 -0.0137
14841SOL    HW146291   0.234   4.289   8.168  0.5309  0.2768  0.5574
14841SOL    HW246292   0.333   4.228   8.070  0.1861 -0.6274  0.7659
14842SOL     OW46293   0.044   9.360   5.060  0.0700 -0.9336  0.2085
14842SOL    HW146294   0.003   9.275   5.045  0.8478 -1.2939  0.0499
14842SOL    HW246295   0.089   9.351   5.144 -1.3464 -0.0727  1.0932
14843SOL     OW46296   5.937   7.682   0.488 -0.2183  0.5207  0.0674
14843SOL    HW146297   5.954   7.588   0.482  0.2387  0.5354  0.9536
14843SOL    HW246298   5.890   7.693   0.570 -0.3489  1.0602 -0.0734
14844SOL     OW46299   9.715   0.032   4.708 -0.1006  0.2125 -0.6709
14844SOL    HW146300   9.649  -0.033   4.684  1.2717 -0.1083 -4.1439
14844SOL    HW246301   9.793  -0.019   4.726  0.5772  0.7610 -1.9105
14845SOL     OW46302   0.993   8.134   9.193  0.2328  0.3848  0.3286
14845SOL    HW146303   1.027   8.045   9.182 -0.5501  0.0429  0.6448
14845SOL    HW246304   0.968   8.161   9.105  0.1783  0.1720  0.2776
14846SOL     OW46305   7.869   0.856   1.945 -0.1064 -0.0699 -0.1892
14846SOL    HW146306   7.861   0.828   2.036 -0.8814  0.2106 -0.1564
14846SOL    HW246307   7.796   0.813   1.900  0.0178  0.1266 -0.5865
14847SOL     OW46308   2.297   9.471   8.870  1.1604  0.0386 -0.3114
14847SOL    HW146309   2.225   9.523   8.836 -0.2531 -0.8206  1.2369
14847SOL    HW246310   2.352   9.534   8.917  0.9189  0.5508 -0.7069
14848SOL     OW46311   3.547   9.716   0.492 -0.0713 -0.3047 -0.6839
14848SOL    HW146312   3.598   9.652   0.542 -0.5014 -2.5138 -2.8737
14848SOL    HW246313   3.594   9.725   0.409 -0.2097  2.0517 -0.5907
14849SOL     OW46314   2.906   5.758   8.660 -0.4078  0.4957  0.5512
14849SOL    HW146315   2.910   5.695   8.732  1.1549  0.8615  0.8323
14849SOL    HW246316   2.985   5.741   8.609  0.1900  2.3512  0.7775
14850SOL     OW46317   4.150   1.436   9.177  0.3361  0.2274 -0.3999
14850SOL    HW146318   4.105   1.397   9.102 -0.4701  0.5621 -0.1132
14850SOL    HW246319   4.152   1.367   9.243 -0.2631  0.3772 -0.2187
14851SOL     OW46320   3.975   5.181   6.192  0.0794 -0.0860 -0.3742
14851SOL    HW146321   3.942   5.096   6.221 -0.7384  0.0188 -0.9493
14851SOL    HW246322   3.944   5.242   6.259  0.7337 -0.2410  0.0807
14852SOL     OW46323   1.911   8.397   6.538 -0.9628 -0.0144  0.3364
14852SOL    HW146324   1.908   8.492   6.552 -0.2960  0.2776 -1.3050
14852SOL    HW246325   1.906   8.360   6.626  2.1139  1.6456  1.3536
14853SOL     OW46326   7.238   2.704   5.684 -0.5134 -0.5477  0.0681
14853SOL    HW146327   7.158   2.741   5.722  0.5071  0.9785  0.8565
14853SOL    HW246328   7.289   2.675   5.760 -0.2273 -1.3610 -0.4174
14854SOL     OW46329   2.482   2.272   0.810 -0.2146  0.1233 -0.4343
14854SOL    HW146330   2.547   2.341   0.799 -1.1654  1.2683  0.8355
14854SOL    HW246331   2.422   2.284   0.737 -0.7780  1.1197  0.1777
14855SOL     OW46332   2.591   2.299   4.311 -0.1733 -0.0574  0.1747
14855SOL    HW146333   2.608   2.389   4.340 -0.7173  0.0831  0.0732
14855SOL    HW246334   2.533   2.309   4.236 -1.6903 -0.5395  1.2315
14856SOL     OW46335   9.368   7.891   1.345 -0.2818 -0.1840 -0.1688
14856SOL    HW146336   9.429   7.835   1.297  1.1091  1.5969 -0.5909
14856SOL    HW246337   9.406   7.978   1.339 -1.0998  0.4578  2.5100
14857SOL     OW46338   0.162   3.684   6.863 -0.0073  0.6238  0.3890
14857SOL    HW146339   0.163   3.629   6.941 -0.1766  2.1175  1.4862
14857SOL    HW246340   0.104   3.639   6.802  1.2547 -1.3157  0.5283
14858SOL     OW46341   3.502   7.054   2.756  0.4359  0.4596  0.2888
14858SOL    HW146342   3.498   6.959   2.759 -2.5031  0.4428 -0.6692
14858SOL    HW246343   3.552   7.079   2.833  1.6315 -1.8515  0.3433
14859SOL     OW46344   7.804   0.923   9.155 -0.7242  0.7159 -0.2852
14859SOL    HW146345   7.850   0.851   9.112 -0.2648  0.4017  0.6901
14859SOL    HW246346   7.855   1.001   9.131 -0.6386  0.5841 -0.5354
14860SOL     OW46347   5.110   6.802   5.497 -0.6789  0.2291 -0.1497
14860SOL    HW146348   5.103   6.740   5.570  0.3504 -0.3297 -0.5092
14860SOL    HW246349   5.152   6.752   5.427  0.8653  1.5348 -0.2045
14861SOL     OW46350   0.604   2.909   4.127  0.1559 -0.3438  0.3129
14861SOL    HW146351   0.592   2.820   4.160 -0.9884 -0.3795 -0.1615
14861SOL    HW246352   0.653   2.953   4.197  0.2077 -1.1695  0.8186
14862SOL     OW46353   7.478   5.322   7.203 -0.0975 -0.8339  0.3244
14862SOL    HW146354   7.555   5.277   7.238 -0.8741 -1.8818  0.7373
14862SOL    HW246355   7.417   5.252   7.183 -1.0829  0.0032  0.3238
14863SOL     OW46356   7.777   3.272   2.768  0.5014 -0.0246 -0.9787
14863SOL    HW146357   7.820   3.313   2.843 -2.3201  1.6057 -0.0652
14863SOL    HW246358   7.707   3.219   2.807  0.7098 -1.4292 -2.4055
14864SOL     OW46359   9.630   5.563   5.251  0.2216  0.2164 -0.2300
14864SOL    HW146360   9.696   5.573   5.319  2.1964  0.5499 -2.0933
14864SOL    HW246361   9.569   5.635   5.265  0.2383 -0.0696  1.5017
14865SOL     OW46362   1.628   9.671   8.143 -0.2102  0.7587  0.3321
14865SOL    HW146363   1.584   9.680   8.058 -0.0315 -0.6399  0.0610
14865SOL    HW246364   1.721   9.672   8.121 -0.0999  2.5198  0.7707
14866SOL     OW46365   1.509   5.034   6.670  0.2062  0.4336  0.2158
14866SOL    HW146366   1.453   4.969   6.628  1.2016 -0.5062  0.3146
14866SOL    HW246367   1.588   4.987   6.693  0.6464  1.5066  0.9915
14867SOL     OW46368   6.875   4.036   9.068 -0.0387 -0.3499  0.3499
14867SOL    HW146369   6.794   4.080   9.043  0.3390  1.2108  1.7091
14867SOL    HW246370   6.906   4.083   9.145  2.6561 -0.2761 -0.6329
14868SOL     OW46371   1.535   7.064   6.317  0.0299 -0.2483 -0.0247
14868SOL    HW146372   1.539   7.148   6.364  0.2647  0.3954 -1.1740
14868SOL    HW246373   1.443   7.038   6.322  0.4507 -1.5874  3.1317
14869SOL     OW46374   1.056   1.624   6.837  0.2364  0.3482  0.1591
14869SOL    HW146375   0.999   1.547   6.842  1.4513 -0.5600  0.4268
14869SOL    HW246376   1.137   1.591   6.797  0.1380  1.8874 -1.4167
14870SOL     OW46377   7.272   9.455   1.751  0.1258 -0.2918  0.0627
14870SOL    HW146378   7.302   9.432   1.839  0.9750  1.7242  0.3565
14870SOL    HW246379   7.329   9.527   1.724 -1.3566  0.4272 -1.3448
14871SOL     OW46380   4.295   5.977   1.241 -0.1401 -0.0827  0.0099
14871SOL    HW146381   4.229   5.937   1.298  0.7846 -1.6794  0.0248
14871SOL    HW246382   4.262   5.964   1.152  0.3414 -1.3317 -0.0123
14872SOL     OW46383   5.252   8.816   8.881 -0.7957 -0.0965  0.2997
14872SOL    HW146384   5.226   8.893   8.931  2.0428  1.4488 -0.3399
14872SOL    HW246385   5.341   8.836   8.852 -1.5444 -1.7038 -3.7488
14873SOL     OW46386   6.002   7.858   8.037  0.0834  0.1810 -0.1521
14873SOL    HW146387   5.956   7.798   7.978  0.0230 -0.0514  0.1258
14873SOL    HW246388   6.094   7.848   8.015  0.1288 -0.4713  0.2987
14874SOL     OW46389   4.196   9.574   3.855 -0.4182 -0.7215 -0.2966
14874SOL    HW146390   4.195   9.660   3.897  1.1260 -0.4443 -0.7979
14874SOL    HW246391   4.288   9.556   3.838 -0.9025 -1.1730 -2.8489
14875SOL     OW46392   8.103   0.725   6.181 -0.3052 -0.0644  0.0654
14875SOL    HW146393   8.106   0.633   6.208  0.4035 -0.9288 -2.6139
14875SOL    HW246394   8.195   0.750   6.172 -0.5013  0.7015  0.1365
14876SOL     OW46395   8.510   4.493   2.292  0.2896  0.4411  0.8107
14876SOL    HW146396   8.563   4.413   2.293 -0.2660 -0.0388 -1.6908
14876SOL    HW246397   8.498   4.515   2.384  0.6758 -2.2122  1.5783
14877SOL     OW46398   1.911   0.719   1.070  0.3336  0.3228 -0.1015
14877SOL    HW146399   1.950   0.756   0.990  1.7792  0.7588  0.7595
14877SOL    HW246400   1.882   0.632   1.045  4.0794 -1.0346 -0.2915
14878SOL     OW46401   3.072   4.658   9.748 -0.0172 -0.3086  0.1230
14878SOL    HW146402   3.069   4.699   9.662 -1.8145 -0.4816  0.0729
14878SOL    HW246403   3.144   4.703   9.793 -0.1578  0.9724 -0.8734
14879SOL     OW46404   2.145   8.349   4.515  0.2701 -0.4518 -0.3969
14879SOL    HW146405   2.184   8.430   4.483 -1.7352  0.9176  0.4169
14879SOL    HW246406   2.219   8.290   4.528  2.0605  1.8804  0.8085
14880SOL     OW46407   2.264   6.638   8.107  0.2467  0.1160  0.1493
14880SOL    HW146408   2.321   6.708   8.074  2.0236 -0.3159  2.0810
14880SOL    HW246409   2.312   6.558   8.087 -0.9665 -0.4594 -0.5091
14881SOL     OW46410   5.665   7.133   9.756  0.3446 -0.0814 -0.4065
14881SOL    HW146411   5.755   7.162   9.771 -0.4222  1.1078  2.6257
14881SOL    HW246412   5.623   7.140   9.841 -3.0046  0.6624 -1.9485
14882SOL     OW46413   6.473   2.484   3.484 -0.4400 -0.4457 -0.2239
14882SOL    HW146414   6.407   2.517   3.423 -3.4702 -2.9532  1.4035
14882SOL    HW246415   6.454   2.530   3.566 -0.3371 -1.3442  0.3130
14883SOL     OW46416   2.342   7.885   7.782 -0.4530 -0.2333 -0.1468
14883SOL    HW146417   2.405   7.945   7.741 -0.4849 -0.4266 -0.4874
14883SOL    HW246418   2.283   7.860   7.710  0.0170 -1.2699 -0.1984
14884SOL     OW46419   1.361   1.281   1.465 -0.1884  0.2312  0.1304
14884SOL    HW146420   1.315   1.244   1.389 -0.4808 -2.0186  1.3226
14884SOL    HW246421   1.300   1.269   1.538  0.2820  1.9351  0.8567
14885SOL     OW46422   1.286   6.166   6.319  0.1647  0.1344  1.0851
14885SOL    HW146423   1.378   6.162   6.345  0.0458 -1.2738  1.3901
14885SOL    HW246424   1.242   6.107   6.379 -0.7918  0.0503  0.3256
14886SOL     OW46425   1.175   9.800   5.023  0.1052 -0.1937 -0.2003
14886SOL    HW146426   1.162   9.889   5.057  0.1554 -0.0330 -0.5914
14886SOL    HW246427   1.270   9.792   5.013  0.0779 -0.1524 -0.5166
14887SOL     OW46428   9.327   0.620   7.132 -0.2732 -0.0776 -0.3216
14887SOL    HW146429   9.362   0.681   7.068  0.5026 -0.1962 -0.0177
14887SOL    HW246430   9.328   0.535   7.087  1.5010 -0.4003  0.2592
14888SOL     OW46431   5.355   5.372   0.422  0.2342  0.7611  0.0841
14888SOL    HW146432   5.274   5.406   0.386 -0.1133  0.6429  0.7444
14888SOL    HW246433   5.418   5.379   0.350 -0.7324 -0.5824 -0.9351
14889SOL     OW46434   5.078   4.636   2.814 -0.0903  0.5902  0.7275
14889SOL    HW146435   5.049   4.552   2.849  0.0573  0.4906  0.6083
14889SOL    HW246436   4.999   4.691   2.817 -0.1407  0.5088  0.9863
14890SOL     OW46437   5.753   8.908   2.847 -0.3099  0.1201 -0.1249
14890SOL    HW146438   5.791   8.820   2.848  1.0200  0.6687  0.2097
14890SOL    HW246439   5.714   8.916   2.760 -0.3227 -0.7518 -0.2072
14891SOL     OW46440   9.811   3.477   1.136 -0.1176  0.3576  0.2420
14891SOL    HW146441   9.729   3.429   1.150  0.0894 -0.1646 -0.3440
14891SOL    HW246442   9.869   3.415   1.093 -0.6444  1.7980 -2.8170
14892SOL     OW46443   5.966   8.149   9.083 -0.0783 -0.0589  0.9023
14892SOL    HW146444   5.879   8.188   9.092 -1.4357 -2.7342  0.4358
14892SOL    HW246445   5.996   8.135   9.173 -0.2930  0.5266  1.0677
14893SOL     OW46446   1.296   9.167   3.677  0.0020  0.3356 -0.1692
14893SOL    HW146447   1.373   9.197   3.629  0.2283 -0.2899 -0.2103
14893SOL    HW246448   1.326   9.159   3.768 -0.3283  1.1743  0.0207
14894SOL     OW46449   3.685   9.356   7.763 -0.1236 -0.2983  0.2332
14894SOL    HW146450   3.706   9.334   7.853 -3.1269 -0.3332  1.0079
14894SOL    HW246451   3.676   9.452   7.763  0.1721 -0.2659 -0.1338
14895SOL     OW46452   0.258   4.132   1.381  0.4472  0.2443 -0.7131
14895SOL    HW146453   0.211   4.082   1.315 -0.3731 -0.0215  0.0536
14895SOL    HW246454   0.298   4.065   1.437 -0.7430  0.4162  0.3797
14896SOL     OW46455   3.722   4.982   0.120  0.6418 -0.3476 -0.2455
14896SOL    HW146456   3.750   5.063   0.161  1.3222 -1.1547  0.9591
14896SOL    HW246457   3.653   5.008   0.059 -0.2630  0.9391  1.2593
14897SOL     OW46458   8.089   1.066   3.765  0.4064  0.2041  0.6090
14897SOL    HW146459   8.077   1.160   3.754  1.6616  0.1201 -2.7933
14897SOL    HW246460   8.178   1.057   3.800  1.1189  0.3368 -1.0477
14898SOL     OW46461   7.388   3.688   8.681  0.1235 -0.2763  0.4832
14898SOL    HW146462   7.337   3.743   8.741 -0.0321  0.0125  0.0873
14898SOL    HW246463   7.376   3.728   8.595  1.8294  0.3906  0.5172
14899SOL     OW46464   8.569   9.122   8.931  0.1886 -0.1578  0.0081
14899SOL    HW146465   8.545   9.048   8.875 -2.1127  0.8318 -0.4202
14899SOL    HW246466   8.598   9.189   8.870  2.8361 -0.8101  0.4303
14900SOL     OW46467   0.603   4.117   8.261 -0.0499 -0.0743  0.8810
14900SOL    HW146468   0.550   4.087   8.187  1.9961 -1.1445 -0.2539
14900SOL    HW246469   0.563   4.200   8.287 -1.2593  0.0020 -0.9812
14901SOL     OW46470   5.535   0.369   6.475  0.3968  0.2101 -0.5541
14901SOL    HW146471   5.589   0.370   6.554 -0.0994  0.4306 -0.2127
14901SOL    HW246472   5.594   0.340   6.406  0.5173 -1.2715  0.1280
14902SOL     OW46473   8.725   6.462   4.951 -0.9189 -0.1173 -0.6240
14902SOL    HW146474   8.668   6.410   4.894  0.7358 -2.5130 -0.2819
14902SOL    HW246475   8.770   6.396   5.004  2.1564  1.6072 -0.9133
14903SOL     OW46476   0.194   8.898   9.845 -0.0546  0.0631 -0.2461
14903SOL    HW146477   0.136   8.911   9.920 -1.3736 -0.4385 -1.1228
14903SOL    HW246478   0.197   8.984   9.802  1.9845  0.7696  1.2064
14904SOL     OW46479   2.576   7.057   1.426  0.2993 -0.0682  0.8439
14904SOL    HW146480   2.581   6.981   1.367  1.7632 -0.1080  0.9784
14904SOL    HW246481   2.495   7.101   1.401 -0.0902 -1.1402  0.1043
14905SOL     OW46482   1.495   2.327   0.160 -0.1058 -0.0250 -1.0019
14905SOL    HW146483   1.510   2.374   0.078  1.3915  0.2174 -0.6281
14905SOL    HW246484   1.467   2.394   0.221  1.6903  0.3787 -0.5611
14906SOL     OW46485   8.289   5.744   1.196  0.5378 -0.2255  0.1992
14906SOL    HW146486   8.338   5.789   1.127 -0.2190  0.2624 -0.0239
14906SOL    HW246487   8.271   5.657   1.160 -0.3634  0.2213 -0.4679
14907SOL     OW46488   2.140   5.779   6.856 -0.0457  0.4077 -0.3116
14907SOL    HW146489   2.227   5.755   6.886  0.3373 -1.9596 -2.8888
14907SOL    HW246490   2.080   5.736   6.918  0.6570 -1.0387 -0.6143
14908SOL     OW46491   7.537   5.499   5.185  0.2306 -0.2781  0.0621
14908SOL    HW146492   7.578   5.416   5.209 -2.8410 -1.5716  1.3930
14908SOL    HW246493   7.568   5.517   5.096  1.6694 -2.3756  0.0820
14909SOL     OW46494   9.340   1.105   1.645 -0.5262 -0.3029  0.6932
14909SOL    HW146495   9.247   1.084   1.650 -0.2943 -1.5005  0.1550
14909SOL    HW246496   9.360   1.107   1.552  0.5412 -2.7050  0.8071
14910SOL     OW46497   7.610   3.113   3.141 -0.4382  0.6238 -0.0101
14910SOL    HW146498   7.524   3.080   3.165 -0.6400  0.2107 -1.2473
14910SOL    HW246499   7.654   3.130   3.225 -1.0472 -0.9006  0.6517
14911SOL     OW46500   4.804   6.191   7.400 -0.2159 -0.2142 -0.5248
14911SOL    HW146501   4.797   6.286   7.387 -0.1459 -0.1036  0.1790
14911SOL    HW246502   4.889   6.169   7.361 -1.4418 -0.4859 -3.2421
14912SOL     OW46503   3.380   8.650   8.099 -0.5992 -0.1423  0.5161
14912SOL    HW146504   3.440   8.590   8.143  2.1661  2.7691  1.0182
14912SOL    HW246505   3.305   8.657   8.159  0.4275 -0.7421  1.9207
14913SOL     OW46506   8.680   2.070   4.154  0.3980  0.0942  0.0588
14913SOL    HW146507   8.706   1.993   4.205 -0.2851 -0.5993 -0.6324
14913SOL    HW246508   8.615   2.038   4.092  0.3960  1.1538 -0.5107
14914SOL     OW46509   4.607   9.767   9.218  0.3167 -0.5283 -0.6148
14914SOL    HW146510   4.650   9.778   9.133  1.8062 -1.0788  0.0430
14914SOL    HW246511   4.635   9.842   9.270  0.3518 -0.8115 -0.2236
14915SOL     OW46512   9.083   2.068   7.097  0.0583 -0.0569  0.2680
14915SOL    HW146513   9.024   2.117   7.155  1.8914  2.1001  0.4337
14915SOL    HW246514   9.115   1.996   7.151  0.2385  0.7945  1.3256
14916SOL     OW46515   6.581   6.172   3.096 -0.5072  0.5388  0.5144
14916SOL    HW146516   6.581   6.227   3.174  0.5889  0.7158  0.3977
14916SOL    HW246517   6.592   6.234   3.023 -1.0074  0.3238  0.2479
14917SOL     OW46518   5.057   8.632   3.535  0.1683 -0.7972 -0.1027
14917SOL    HW146519   5.066   8.671   3.622 -1.0502  0.2716 -0.4265
14917SOL    HW246520   5.017   8.546   3.552  1.0450 -1.1117  0.4650
14918SOL     OW46521   9.099   6.050   5.154  0.1821 -0.1971 -0.2715
14918SOL    HW146522   9.159   5.975   5.152  0.6010  0.1193  0.1080
14918SOL    HW246523   9.094   6.079   5.063  1.6816  0.5924 -0.1504
14919SOL     OW46524   8.705   5.404   5.125 -0.0637  0.1592 -0.1952
14919SOL    HW146525   8.677   5.314   5.145 -0.2983  0.3535  0.3903
14919SOL    HW246526   8.759   5.428   5.200  1.2782 -0.0264 -1.0675
14920SOL     OW46527   3.959   3.106   0.968  0.3110  0.1259  0.3510
14920SOL    HW146528   4.026   3.102   1.036  1.5887  0.2338 -0.8677
14920SOL    HW246529   3.886   3.152   1.010  1.3003  0.7571  1.4637
14921SOL     OW46530   5.211   8.305   3.356  0.0917 -0.1299  0.5354
14921SOL    HW146531   5.122   8.307   3.392  0.5468  0.2512  1.6898
14921SOL    HW246532   5.204   8.350   3.272 -0.6084  0.8683  1.1036
14922SOL     OW46533   6.241   8.160   6.880  0.2605 -0.2660  0.3554
14922SOL    HW146534   6.290   8.202   6.951  0.8815  0.4073 -0.4495
14922SOL    HW246535   6.151   8.190   6.891  0.1604 -0.8970  1.3911
14923SOL     OW46536   7.486   8.293   5.699 -0.0697 -0.2861  0.0463
14923SOL    HW146537   7.422   8.338   5.753  0.0919  0.3247 -0.2583
14923SOL    HW246538   7.486   8.203   5.731  0.0567  0.0697  1.0808
14924SOL     OW46539   4.018   9.399   6.651 -0.1977 -0.2110  0.9559
14924SOL    HW146540   3.948   9.412   6.715  2.2076  0.8635  3.5733
14924SOL    HW246541   4.061   9.318   6.679 -0.8457 -1.4318 -1.2337
14925SOL     OW46542   5.635   9.116   7.503 -0.3525  0.0938  0.4790
14925SOL    HW146543   5.626   9.204   7.465 -0.0154 -0.4849 -1.0234
14925SOL    HW246544   5.586   9.059   7.443  0.8807 -0.9875  0.4427
14926SOL     OW46545   7.630   7.191   9.253  0.4202 -0.2303 -0.4502
14926SOL    HW146546   7.573   7.218   9.181  0.4984  0.1080 -0.3880
14926SOL    HW246547   7.644   7.271   9.304 -0.2396 -0.6221  0.3663
14927SOL     OW46548   5.915   0.373   4.610  0.4537  0.4681  0.5915
14927SOL    HW146549   5.893   0.354   4.702 -0.0575 -1.0076  0.1951
14927SOL    HW246550   6.011   0.380   4.609  0.5169 -0.2399  1.1213
14928SOL     OW46551   3.457   2.590   8.404  0.4257  0.3735  0.5590
14928SOL    HW146552   3.450   2.683   8.429 -0.7386  0.5606 -0.3500
14928SOL    HW246553   3.417   2.543   8.477 -2.0084  0.8475 -0.3622
14929SOL     OW46554   3.083   3.363   7.199  0.1306 -0.1365 -0.3958
14929SOL    HW146555   3.066   3.441   7.145 -0.3819  0.0325 -0.0061
14929SOL    HW246556   3.167   3.330   7.168  0.5065  0.7569 -0.3589
14930SOL     OW46557   6.884   3.110   3.967  0.0708 -0.3658 -0.0980
14930SOL    HW146558   6.953   3.169   3.935 -0.9488  0.0866 -1.5509
14930SOL    HW246559   6.804   3.161   3.958 -0.6576 -1.4799  0.0055
14931SOL     OW46560   3.085   3.633   4.131  0.9547 -0.4204  0.5935
14931SOL    HW146561   3.098   3.624   4.036 -0.4259 -1.7158  0.4779
14931SOL    HW246562   2.998   3.672   4.139  0.2993 -1.9547  1.3154
14932SOL     OW46563   0.352   9.419   2.288 -0.1804  0.3482  0.6515
14932SOL    HW146564   0.436   9.450   2.254  0.7684  1.2263  3.4512
14932SOL    HW246565   0.291   9.490   2.273 -0.5013 -0.2996 -1.4182
14933SOL     OW46566   5.147   5.898   0.745 -0.0075 -0.4433  0.3617
14933SOL    HW146567   5.119   5.943   0.666  0.3029 -0.2398  0.3690
14933SOL    HW246568   5.131   5.805   0.727 -2.1455 -0.2440  0.9197
14934SOL     OW46569   0.182   6.423   2.731  0.3383 -0.0560  0.4951
14934SOL    HW146570   0.150   6.457   2.647  1.5649 -0.1745 -0.0429
14934SOL    HW246571   0.239   6.492   2.765  2.1726 -1.1391 -0.1967
14935SOL     OW46572   7.023   7.929   5.224  0.3676 -0.2331  0.1412
14935SOL    HW146573   7.112   7.955   5.245  0.0845 -0.6190  1.9836
14935SOL    HW246574   7.033   7.844   5.182  0.8272 -0.9143  1.5577
14936SOL     OW46575   9.658   5.053   9.070 -0.0798  0.1108 -0.0242
14936SOL    HW146576   9.743   5.084   9.102  0.9305 -1.6172 -0.9207
14936SOL    HW246577   9.670   4.959   9.056 -2.4156 -0.3525  0.6651
14937SOL     OW46578   1.433   1.934   0.921  0.0569  0.0226 -0.7810
14937SOL    HW146579   1.377   1.937   0.999 -1.1698 -0.1521 -1.6336
14937SOL    HW246580   1.421   2.020   0.881  0.0402 -0.1860 -1.2211
14938SOL     OW46581   6.170   1.794   6.857  0.3613  0.6657  0.0807
14938SOL    HW146582   6.181   1.768   6.766 -1.2507  0.0723  0.0230
14938SOL    HW246583   6.253   1.773   6.898  1.0776  0.8336 -1.2214
14939SOL     OW46584   4.977   3.522   1.188  0.1318  0.0024 -0.5789
14939SOL    HW146585   5.027   3.442   1.174 -1.2341 -0.9711 -0.1655
14939SOL    HW246586   5.007   3.555   1.273  1.0835  0.2551 -0.9957
14940SOL     OW46587   3.683   4.292   9.705 -0.6159 -0.6084 -0.1998
14940SOL    HW146588   3.599   4.334   9.684 -1.3201 -2.6036 -1.6948
14940SOL    HW246589   3.676   4.204   9.667  1.2672 -1.6623  1.6872
14941SOL     OW46590   5.281   0.822   0.270  0.6338  0.0961  0.4559
14941SOL    HW146591   5.237   0.821   0.185  1.2767 -1.2608  0.0998
14941SOL    HW246592   5.307   0.913   0.283  2.1210  0.0650 -1.6839
14942SOL     OW46593   3.237   2.400   7.119  0.0511  0.4606 -0.2448
14942SOL    HW146594   3.328   2.371   7.122 -0.9504 -3.0796  1.5321
14942SOL    HW246595   3.213   2.415   7.210 -1.2649  0.9810 -0.6477
14943SOL     OW46596   2.695   2.400   3.574 -0.3393  0.0793 -0.5286
14943SOL    HW146597   2.760   2.330   3.580  0.8511  1.0071 -1.8199
14943SOL    HW246598   2.666   2.414   3.664  3.0670  1.2727  0.5516
14944SOL     OW46599   1.692   0.106   7.716 -0.2436  0.3231  0.3648
14944SOL    HW146600   1.671   0.191   7.676 -0.9471 -0.0209 -0.0121
14944SOL    HW246601   1.788   0.108   7.726  0.1225  0.0529 -2.2364
14945SOL     OW46602   5.101   1.905   6.683 -0.6757 -0.0497 -0.5205
14945SOL    HW146603   5.195   1.894   6.690 -0.6678  0.9513  3.1705
14945SOL    HW246604   5.089   1.999   6.671 -1.1381  0.3484  2.3753
14946SOL     OW46605   5.159   9.192   7.532 -0.0926 -0.1017  0.6695
14946SOL    HW146606   5.108   9.231   7.603 -1.7709  1.1135 -1.0876
14946SOL    HW246607   5.150   9.098   7.544  1.1567  0.0298  3.0466
14947SOL     OW46608   2.229   0.550   1.081 -0.0641 -0.2289  0.2221
14947SOL    HW146609   2.204   0.643   1.079 -0.8257 -0.4332 -0.8429
14947SOL    HW246610   2.315   0.549   1.123  0.2396  1.0432 -0.3157
14948SOL     OW46611   2.588   8.730   4.176 -0.1602  1.1909 -0.2294
14948SOL    HW146612   2.513   8.787   4.194  0.0657  1.3889  0.0969
14948SOL    HW246613   2.630   8.717   4.261 -0.3867  0.2740 -0.2460
14949SOL     OW46614   7.736   7.251   6.858 -0.2825  0.1804 -0.2604
14949SOL    HW146615   7.681   7.194   6.911 -1.1635  1.5179  0.2936
14949SOL    HW246616   7.694   7.252   6.772 -0.0191 -0.3427 -0.3979
14950SOL     OW46617   1.778   5.100   0.159 -0.5610 -0.3831  0.1346
14950SOL    HW146618   1.864   5.076   0.194 -1.0934 -0.0194  1.7975
14950SOL    HW246619   1.791   5.185   0.118 -0.1568 -0.2324  0.5670
14951SOL     OW46620   0.697   5.001   8.882 -0.2915 -0.3160  0.0383
14951SOL    HW146621   0.744   5.021   8.963 -0.2332 -0.1498 -0.0360
14951SOL    HW246622   0.652   5.082   8.859  0.0657 -0.2209 -0.3444
14952SOL     OW46623   8.017   8.877   7.205 -0.1502  0.3099  0.1172
14952SOL    HW146624   7.995   8.802   7.261 -2.5342  0.4597 -0.5230
14952SOL    HW246625   8.105   8.901   7.232  0.4119 -2.2512  0.8519
14953SOL     OW46626   5.317   6.084   3.814 -0.2740  0.2708  0.5008
14953SOL    HW146627   5.325   6.103   3.720  0.1079  0.1055  0.5022
14953SOL    HW246628   5.316   5.989   3.819 -2.5320  0.2344  0.4685
14954SOL     OW46629   8.526   4.920   0.039  1.0287 -0.3992 -0.1133
14954SOL    HW146630   8.439   4.926   0.077  0.7993  1.9315 -0.8232
14954SOL    HW246631   8.585   4.950   0.108  0.7647  2.3051 -0.9535
14955SOL     OW46632   6.393   1.916   9.301 -0.3942  0.3597  0.3236
14955SOL    HW146633   6.300   1.930   9.319 -0.0843  0.4214  2.0029
14955SOL    HW246634   6.422   1.855   9.369  0.6122 -0.3404 -0.6881
14956SOL     OW46635   3.190   5.493   4.495  0.0573  0.0489 -0.7445
14956SOL    HW146636   3.113   5.467   4.545 -0.7431  3.6263  0.2396
14956SOL    HW246637   3.164   5.575   4.451  2.8785  0.7179 -1.4071
14957SOL     OW46638   2.151   9.126   9.628 -0.1311  0.2958 -0.1308
14957SOL    HW146639   2.223   9.062   9.626 -1.3609 -1.1340  0.0209
14957SOL    HW246640   2.075   9.077   9.598 -1.1425  1.6852  0.1013
14958SOL     OW46641   7.233   9.763   8.424  0.4101 -0.5233  0.1545
14958SOL    HW146642   7.214   9.767   8.331  0.0469  0.9319  0.2656
14958SOL    HW246643   7.189   9.839   8.461  1.7495 -0.2596  1.3002
14959SOL     OW46644   0.935   6.617   7.896  0.4201  1.0716  0.5445
14959SOL    HW146645   0.971   6.697   7.856  1.4472  0.0969 -0.5725
14959SOL    HW246646   0.969   6.619   7.985  1.5793  1.2271  0.1260
14960SOL     OW46647   1.218   4.864   7.410  0.0228  0.2594 -0.8209
14960SOL    HW146648   1.306   4.830   7.426  0.0642  0.7635  0.0381
14960SOL    HW246649   1.226   4.959   7.419 -0.8506  0.2311  0.4994
14961SOL     OW46650   7.029   5.716   6.451  0.0526 -0.2628 -0.0180
14961SOL    HW146651   6.989   5.640   6.493  0.6640 -0.0314  1.0246
14961SOL    HW246652   7.059   5.684   6.367 -0.4060 -0.9747  0.0795
14962SOL     OW46653   6.087   9.384   0.000 -0.0069 -0.1852 -0.1023
14962SOL    HW146654   6.117   9.457  -0.053 -0.1509 -0.7851 -1.0235
14962SOL    HW246655   6.066   9.315  -0.063 -2.3390 -0.1526  0.5639
14963SOL     OW46656   5.482   1.949   7.007 -0.0474 -0.6313  0.2564
14963SOL    HW146657   5.458   1.914   6.921 -1.3447  0.3158  0.1915
14963SOL    HW246658   5.465   1.878   7.068  1.8248 -1.6515 -0.3465
14964SOL     OW46659   6.791   7.009   9.371 -0.4416 -0.1319  0.5118
14964SOL    HW146660   6.856   7.078   9.387 -0.2293 -0.3718  0.6943
14964SOL    HW246661   6.838   6.928   9.388  0.0447 -0.4712 -2.1166
14965SOL     OW46662   2.942   2.783   2.691 -0.1551 -0.1672 -0.0691
14965SOL    HW146663   2.928   2.877   2.694 -0.3399 -0.1979  0.0564
14965SOL    HW246664   2.867   2.746   2.738  0.6833 -0.2950  1.2294
14966SOL     OW46665   1.618   9.098   0.126 -0.0437  0.4117  0.2080
14966SOL    HW146666   1.705   9.128   0.100 -0.0748 -0.0886 -0.5150
14966SOL    HW246667   1.572   9.085   0.044 -0.1533 -1.2033  0.4822
14967SOL     OW46668   1.414   8.412   8.485 -0.3024 -0.2134  0.3176
14967SOL    HW146669   1.387   8.491   8.532 -0.4471  0.4449 -0.8487
14967SOL    HW246670   1.506   8.399   8.511  0.9840  2.4797 -2.1994
14968SOL     OW46671   4.584   7.921   0.223  0.5183 -0.6537 -0.5994
14968SOL    HW146672   4.507   7.961   0.263 -0.6811 -4.3671  1.3029
14968SOL    HW246673   4.640   7.896   0.297  2.2175 -0.5899 -1.7862
14969SOL     OW46674   3.570   1.706   0.516 -0.3646 -0.2432 -0.1709
14969SOL    HW146675   3.561   1.638   0.583 -0.8816  0.1694  0.1860
14969SOL    HW246676   3.645   1.678   0.463  0.2402 -0.4179  0.7619
14970SOL     OW46677   5.244   5.291   4.290  0.3089 -0.0405 -0.4045
14970SOL    HW146678   5.185   5.336   4.351 -0.7290  0.0070 -1.4049
14970SOL    HW246679   5.279   5.217   4.341  1.0165  1.1149  0.8487
14971SOL     OW46680   6.968   4.287   5.280  0.4584  0.1859  0.6697
14971SOL    HW146681   6.874   4.268   5.292 -0.0511 -1.1102 -3.6550
14971SOL    HW246682   7.013   4.216   5.326 -0.9303 -1.6432 -0.6252
14972SOL     OW46683   4.039   9.618   7.468 -0.5206  0.3958 -0.2830
14972SOL    HW146684   3.969   9.640   7.530 -1.7538 -1.8825 -0.7632
14972SOL    HW246685   4.108   9.580   7.521 -0.2366  1.2867  0.0115
14973SOL     OW46686   6.843   7.362   0.053  0.4565 -0.1887 -0.2193
14973SOL    HW146687   6.889   7.292   0.097  0.1481 -0.6658 -0.6460
14973SOL    HW246688   6.908   7.431   0.043  1.0758 -0.8417 -0.7897
14974SOL     OW46689   9.047   3.551   2.603 -0.0236  0.2264  0.3717
14974SOL    HW146690   9.052   3.555   2.699 -0.7609 -1.3705  0.5009
14974SOL    HW246691   8.957   3.579   2.583 -1.2295 -3.0804  0.4918
14975SOL     OW46692   9.600   3.061   7.070 -0.2000 -0.6157 -0.5106
14975SOL    HW146693   9.548   3.035   7.146 -0.8653 -0.3789 -0.8794
14975SOL    HW246694   9.604   3.156   7.075  0.2501 -0.6365 -0.4540
14976SOL     OW46695   2.876   0.904   4.428  0.3133 -0.4712 -0.3016
14976SOL    HW146696   2.876   0.809   4.439  0.1983 -0.5597 -1.0223
14976SOL    HW246697   2.883   0.917   4.333  1.4104  0.2531 -0.1354
14977SOL     OW46698   2.150   9.288   9.292 -0.3496 -0.1349  0.1008
14977SOL    HW146699   2.131   9.313   9.202 -0.3589  0.1771  0.1880
14977SOL    HW246700   2.093   9.344   9.345 -1.7519 -1.6201  0.2479
14978SOL     OW46701   8.665   8.231   5.539 -0.4491 -0.3268 -0.8193
14978SOL    HW146702   8.753   8.224   5.576 -0.8272  0.0678  0.2098
14978SOL    HW246703   8.612   8.266   5.611 -1.0639  1.2421 -1.9682
14979SOL     OW46704   8.160   4.102   9.224 -0.4554 -0.7195  0.0130
14979SOL    HW146705   8.152   4.168   9.155  0.7867  1.0017  1.4188
14979SOL    HW246706   8.085   4.044   9.211 -1.4269  0.7810 -1.4893
14980SOL     OW46707   7.488   6.417   0.460  0.2671 -0.5551  0.1890
14980SOL    HW146708   7.506   6.453   0.374  1.5008 -1.0311  0.2280
14980SOL    HW246709   7.447   6.488   0.509  0.5747  0.0521 -0.4375
14981SOL     OW46710   6.932   3.050   0.927  0.7183  0.3066 -0.2824
14981SOL    HW146711   6.984   3.063   0.848 -0.2694  1.9338 -0.7079
14981SOL    HW246712   6.996   3.040   0.997  1.6056 -0.4643 -1.1772
14982SOL     OW46713   0.449   2.021   7.522 -0.1780 -0.5079 -0.2715
14982SOL    HW146714   0.430   1.937   7.562  0.0548 -0.3662  0.1361
14982SOL    HW246715   0.368   2.044   7.475 -0.8224 -0.1905  0.9486
14983SOL     OW46716   3.308   5.105   7.233 -0.0705 -0.2109  0.5121
14983SOL    HW146717   3.244   5.034   7.242 -0.7090  0.0782 -1.2959
14983SOL    HW246718   3.272   5.176   7.287 -0.7177 -0.4299  0.3844
14984SOL     OW46719   5.713   2.401   1.134 -0.4683  0.4861 -0.0735
14984SOL    HW146720   5.640   2.435   1.184 -0.5670  0.6635 -0.3369
14984SOL    HW246721   5.791   2.427   1.183 -0.5770  0.3859  0.1514
14985SOL     OW46722   8.549   9.841   7.848 -0.0721  0.4515 -0.2077
14985SOL    HW146723   8.599   9.919   7.870 -0.6445  1.1362 -1.2619
14985SOL    HW246724   8.574   9.821   7.757  0.2731 -0.7599  0.1342
14986SOL     OW46725   2.776   3.105   6.294 -0.4217 -0.1693 -0.0653
14986SOL    HW146726   2.794   3.181   6.240 -1.0958 -1.1113 -1.6833
14986SOL    HW246727   2.683   3.111   6.316 -0.2721 -0.0659  0.5632
14987SOL     OW46728   7.500   7.838   0.999 -0.5332  0.1631 -0.2770
14987SOL    HW146729   7.550   7.918   1.016 -0.6532 -0.0852  1.5315
14987SOL    HW246730   7.562   7.779   0.957 -0.4802  1.2148 -1.7532
14988SOL     OW46731   1.432   9.262   2.503  0.2441  0.1593  0.2324
14988SOL    HW146732   1.376   9.277   2.426 -0.6642 -2.2517  0.3147
14988SOL    HW246733   1.409   9.332   2.564 -2.8544 -0.7584  0.3041
14989SOL     OW46734   8.778   7.133   6.846 -0.3020 -0.7815  0.0254
14989SOL    HW146735   8.780   7.222   6.879 -3.8770 -0.0953 -1.1107
14989SOL    HW246736   8.777   7.143   6.750  1.3255 -2.2220 -0.2029
14990SOL     OW46737   4.376   7.236   5.959 -0.0581 -0.4565  0.1448
14990SOL    HW146738   4.382   7.164   5.896  3.0599 -0.9138  0.7996
14990SOL    HW246739   4.350   7.194   6.041 -0.7102 -0.4142 -0.0367
14991SOL     OW46740   4.097   8.610   7.513 -0.0018  0.2276 -0.0001
14991SOL    HW146741   4.150   8.595   7.591  1.8213  2.0937 -0.7720
14991SOL    HW246742   4.157   8.596   7.440 -1.7504 -1.8095 -1.1529
14992SOL     OW46743   5.233   7.073   2.859  0.4584  0.2400 -0.2304
14992SOL    HW146744   5.164   7.112   2.912 -0.4056  0.5074 -1.5087
14992SOL    HW246745   5.260   7.142   2.798  2.7597  0.5491  1.0319
14993SOL     OW46746   5.464   7.026   9.577 -0.7287  0.2429 -0.3132
14993SOL    HW146747   5.456   7.073   9.495 -2.2300  0.0713 -0.2915
14993SOL    HW246748   5.517   7.084   9.633 -0.3768  0.7158 -1.1223
14994SOL     OW46749   4.106   5.166   5.342  0.3956  0.6474  0.8220
14994SOL    HW146750   4.049   5.094   5.369  2.7221 -0.9265  1.7920
14994SOL    HW246751   4.103   5.228   5.415 -0.6221  0.9808  0.5245
14995SOL     OW46752   0.043   7.836   4.742 -0.1028  0.0555 -0.3335
14995SOL    HW146753   0.001   7.917   4.713 -1.7463 -0.5146  0.3327
14995SOL    HW246754   0.023   7.830   4.835  2.2138  0.1425  0.2485
14996SOL     OW46755   0.180   5.327   7.273  0.3382  0.2778  0.0354
14996SOL    HW146756   0.263   5.285   7.250  0.3641  0.4091 -0.1137
14996SOL    HW246757   0.116   5.256   7.275  0.6279  0.0313  1.0513
14997SOL     OW46758   2.777   2.501   6.722 -0.0358 -0.0216 -0.0492
14997SOL    HW146759   2.699   2.513   6.668 -0.4019 -0.8600  0.2736
14997SOL    HW246760   2.849   2.535   6.668 -0.5238  0.0814 -0.6460
14998SOL     OW46761   7.436   3.406   7.597  0.0021  0.5730 -1.3674
14998SOL    HW146762   7.476   3.462   7.531 -2.3691  0.0476 -3.4228
14998SOL    HW246763   7.342   3.412   7.579 -0.5590 -1.5119  0.4294
14999SOL     OW46764   3.785   1.400   0.288  0.1344  0.1072  0.6545
14999SOL    HW146765   3.860   1.429   0.236 -0.6998 -0.5350 -1.0007
14999SOL    HW246766   3.757   1.477   0.336 -0.5398  1.4778 -1.7725
15000SOL     OW46767   5.156   9.634   8.023  0.0145 -0.3145 -0.0297
15000SOL    HW146768   5.114   9.584   8.093 -0.1241 -1.7994 -1.1382
15000SOL    HW246769   5.246   9.601   8.021  1.1831  2.3757  1.8882
15001SOL     OW46770   3.932   0.337   3.116  0.2098  0.3850  0.3549
15001SOL    HW146771   3.877   0.277   3.066 -1.0453 -0.2889  2.4610
15001SOL    HW246772   3.901   0.424   3.091  0.5143  0.1387 -0.9925
15002SOL     OW46773   4.343   6.862   6.069  0.7805 -0.0706  0.0435
15002SOL    HW146774   4.413   6.803   6.098  1.4396  1.1810  1.0739
15002SOL    HW246775   4.265   6.829   6.114  0.2406 -2.5242 -2.4192
15003SOL     OW46776   9.311   0.752   4.894  0.4983 -0.0863  0.1962
15003SOL    HW146777   9.375   0.683   4.907  0.3559 -0.5058 -1.2120
15003SOL    HW246778   9.268   0.731   4.811 -1.0186  0.5364  0.7809
15004SOL     OW46779   8.718   0.074   3.603 -0.5657 -0.6057  0.5595
15004SOL    HW146780   8.710   0.156   3.554  1.6138 -0.7569 -0.1716
15004SOL    HW246781   8.771   0.098   3.679  1.6614 -1.5933 -0.5751
15005SOL     OW46782   7.896   1.229   4.427 -0.0936 -0.4511 -0.0339
15005SOL    HW146783   7.820   1.279   4.399  0.8479  0.2224 -1.5252
15005SOL    HW246784   7.886   1.144   4.385  0.4296 -0.0300 -1.0676
15006SOL     OW46785   5.022   9.693   2.896 -0.2722  0.1830 -0.0980
15006SOL    HW146786   4.987   9.703   2.984  0.4392 -0.2396  0.2455
15006SOL    HW246787   5.038   9.599   2.887  0.8109  0.3597 -0.2119
15007SOL     OW46788   7.803   5.485   3.950  0.4126 -0.4663 -0.1137
15007SOL    HW146789   7.863   5.555   3.972 -2.2043  1.5274  1.2192
15007SOL    HW246790   7.750   5.520   3.879 -0.7816 -1.1520  0.4015
15008SOL     OW46791   1.867   9.611   9.116 -0.1226 -0.3157 -0.1881
15008SOL    HW146792   1.874   9.671   9.042  0.4273 -2.1650 -1.7080
15008SOL    HW246793   1.799   9.549   9.091  0.2662 -1.1461  0.7303
15009SOL     OW46794   2.580   4.540   4.378 -0.1594 -0.0825  0.1091
15009SOL    HW146795   2.611   4.479   4.446  0.3878  0.9074  0.7768
15009SOL    HW246796   2.525   4.602   4.425  0.8461  1.0714 -0.1986
15010SOL     OW46797   8.641   3.324   0.221 -0.1546  0.0086 -0.3597
15010SOL    HW146798   8.647   3.268   0.143  0.2362 -0.0662 -0.2801
15010SOL    HW246799   8.730   3.323   0.257 -0.6402 -1.1021  0.8841
15011SOL     OW46800   6.947   6.704   0.558  0.0336  0.9518 -0.0203
15011SOL    HW146801   6.853   6.720   0.560  0.1844  2.5713 -2.3216
15011SOL    HW246802   6.986   6.789   0.540  2.0583  0.4999  1.8015
15012SOL     OW46803   1.190   2.209   6.913 -0.1473 -0.0832 -0.3322
15012SOL    HW146804   1.177   2.228   7.006  0.1803  1.9745 -0.6717
15012SOL    HW246805   1.104   2.223   6.873  0.1513  1.0583 -0.6226
15013SOL     OW46806   4.560   2.194   8.945  0.2649  0.2967  0.0507
15013SOL    HW146807   4.633   2.217   8.887  0.4464 -0.3489  0.0155
15013SOL    HW246808   4.499   2.146   8.889  0.3224 -0.1078  0.3302
15014SOL     OW46809   5.134   5.721   1.999  0.4258 -0.4464 -0.6800
15014SOL    HW146810   5.150   5.658   1.928 -0.1405  1.2998 -2.4534
15014SOL    HW246811   5.201   5.700   2.064  0.3930 -2.7115 -1.2705
15015SOL     OW46812   8.739   3.334   2.880 -0.0153 -0.7196  0.2586
15015SOL    HW146813   8.673   3.360   2.945  0.7085  2.4590 -0.1220
15015SOL    HW246814   8.720   3.389   2.804  3.2415  0.6562  0.2730
15016SOL     OW46815   4.084   1.924   9.762 -0.0199 -0.3224  0.1325
15016SOL    HW146816   4.140   1.884   9.828  1.1060  0.6182 -0.2284
15016SOL    HW246817   4.002   1.942   9.808  0.2688 -0.9136  0.9019
15017SOL     OW46818   7.938   7.887   7.562  0.2423 -0.3903  0.1907
15017SOL    HW146819   7.878   7.877   7.636 -0.8829  1.5808 -0.3796
15017SOL    HW246820   7.985   7.968   7.580  0.0858  0.0247 -1.1294
15018SOL     OW46821   3.221   3.520   7.991  0.0197  0.7253 -0.2800
15018SOL    HW146822   3.135   3.522   8.034  0.4135  2.0856  0.4922
15018SOL    HW246823   3.208   3.569   7.910  0.2503  1.6572  0.2326
15019SOL     OW46824   2.976   1.608   6.226 -0.2469 -0.0311  0.6519
15019SOL    HW146825   2.997   1.557   6.305 -0.5286  1.4197  1.7149
15019SOL    HW246826   2.881   1.608   6.222 -0.2576 -2.5285 -1.4045
15020SOL     OW46827   8.909   3.380   4.173  0.1787 -0.7157 -0.0518
15020SOL    HW146828   8.835   3.325   4.197 -0.7628  0.6986  0.3859
15020SOL    HW246829   8.870   3.457   4.131  1.4493 -0.3046 -0.5435
15021SOL     OW46830   9.239   4.420   9.675 -0.4940  0.3225 -0.5046
15021SOL    HW146831   9.232   4.327   9.652  1.1722  0.4164 -1.5412
15021SOL    HW246832   9.198   4.466   9.602  1.7765  0.4905 -1.7486
15022SOL     OW46833   3.708   3.560   3.125  0.7117  0.7456 -0.3549
15022SOL    HW146834   3.778   3.501   3.095  1.1440  0.5478  0.9815
15022SOL    HW246835   3.754   3.628   3.173  0.0015  0.7842  0.2773
15023SOL     OW46836   5.207   3.202   2.279  0.4137 -0.7264  0.0429
15023SOL    HW146837   5.217   3.294   2.303 -0.0182 -1.1568  1.9866
15023SOL    HW246838   5.297   3.169   2.275  0.4840 -0.7481  1.5571
15024SOL     OW46839   3.085   3.961   0.697 -0.8479 -0.2257  0.3007
15024SOL    HW146840   3.173   3.998   0.696 -1.5843  1.6284  0.9503
15024SOL    HW246841   3.081   3.906   0.619  1.2674 -1.3581  0.9060
15025SOL     OW46842   6.421   6.070   1.203  0.7480  0.2675 -0.0050
15025SOL    HW146843   6.458   6.155   1.179  0.1133  0.3261 -0.8018
15025SOL    HW246844   6.371   6.087   1.282  0.7484  0.6040 -0.0742
15026SOL     OW46845   5.113   4.012   2.427  0.4144  0.5827  0.0814
15026SOL    HW146846   5.166   3.934   2.411 -0.5885 -0.3812  1.2856
15026SOL    HW246847   5.153   4.054   2.502  1.4064  1.6885 -1.0207
15027SOL     OW46848   1.050   3.822   1.820 -0.0905  0.4758 -0.0189
15027SOL    HW146849   1.073   3.764   1.893  0.0357  0.1308 -0.3299
15027SOL    HW246850   0.961   3.798   1.797 -0.3063  0.9219  0.3379
15028SOL     OW46851   0.582   9.144   0.108  0.7652  0.1907 -0.0153
15028SOL    HW146852   0.494   9.149   0.145  0.7474  1.5810 -0.2046
15028SOL    HW246853   0.627   9.078   0.161  0.4302  1.3787  1.8116
15029SOL     OW46854   7.424   5.787   9.420 -0.2192  0.0468 -0.0843
15029SOL    HW146855   7.415   5.880   9.398  0.4141  0.2702  0.5411
15029SOL    HW246856   7.471   5.787   9.504  1.3978 -0.8754 -0.9248
15030SOL     OW46857   7.956   7.430   3.063 -0.3084 -0.3697  0.1851
15030SOL    HW146858   7.949   7.372   2.987  0.5733 -0.3169  0.0556
15030SOL    HW246859   7.938   7.374   3.138 -1.9038 -0.2667 -0.0979
15031SOL     OW46860   1.814   4.576   5.824 -0.2058  0.3101 -0.0489
15031SOL    HW146861   1.869   4.560   5.901  1.2294 -1.9878 -1.3893
15031SOL    HW246862   1.875   4.612   5.759 -0.4885 -1.1995 -1.2091
15032SOL     OW46863   2.572   7.217   9.002 -0.5122  0.4734  0.3857
15032SOL    HW146864   2.570   7.158   9.077 -3.3937  0.7235  0.6138
15032SOL    HW246865   2.650   7.271   9.017  2.3478 -3.1714  0.0846
15033SOL     OW46866   3.146   0.923   8.947 -0.6068  0.5681  0.2317
15033SOL    HW146867   3.203   0.969   9.008 -1.4305  1.2259  0.5304
15033SOL    HW246868   3.063   0.971   8.951 -1.8852 -1.6136  1.4096
15034SOL     OW46869   2.866   5.148   7.672 -0.0649 -0.0954 -0.0868
15034SOL    HW146870   2.780   5.185   7.653  0.0106  0.5352  0.7355
15034SOL    HW246871   2.861   5.058   7.642 -0.9508 -0.0077 -0.2156
15035SOL     OW46872   8.556   7.375   6.766 -0.1313  0.0326 -0.4355
15035SOL    HW146873   8.650   7.390   6.776  0.1096 -0.7403 -1.3963
15035SOL    HW246874   8.521   7.460   6.739  0.3645  0.2111 -0.5233
15036SOL     OW46875   0.446   5.043   4.541 -0.5188 -0.1606  1.1186
15036SOL    HW146876   0.497   5.096   4.602  0.2507  1.0608 -0.4873
15036SOL    HW246877   0.512   4.996   4.489 -1.0983 -0.2721  0.4609
15037SOL     OW46878   0.081   1.209   1.184 -0.2982  0.1394  0.0700
15037SOL    HW146879   0.008   1.209   1.246 -0.3149  0.8308  0.0506
15037SOL    HW246880   0.102   1.301   1.171 -0.0905 -0.0168 -0.7181
15038SOL     OW46881   0.825   9.780   7.279  0.6462 -0.0925  0.1289
15038SOL    HW146882   0.867   9.776   7.193  0.4851 -0.2129  0.0547
15038SOL    HW246883   0.811   9.874   7.294  0.1197 -0.1017 -0.2533
15039SOL     OW46884   7.573   7.371   7.426 -0.0717 -0.0025  0.2453
15039SOL    HW146885   7.573   7.425   7.347 -0.8259 -0.2338  0.0776
15039SOL    HW246886   7.617   7.290   7.399  0.3154  0.1959  0.2680
15040SOL     OW46887   0.607   3.923   6.835 -0.0983  0.0454 -0.0044
15040SOL    HW146888   0.689   3.970   6.849  0.5166 -0.0409 -2.8092
15040SOL    HW246889   0.541   3.991   6.821  0.3871  0.1630 -1.9900
15041SOL     OW46890   5.863   1.736   8.461  0.2885  0.3328  0.0708
15041SOL    HW146891   5.827   1.812   8.505  0.2018 -0.0747  0.7209
15041SOL    HW246892   5.950   1.764   8.432  0.7402  0.3237  1.3555
15042SOL     OW46893   3.280   7.753   1.810 -0.1538 -0.0909  0.1268
15042SOL    HW146894   3.355   7.787   1.859 -0.5507  0.0205  0.6726
15042SOL    HW246895   3.318   7.694   1.745  0.6280  1.9218 -1.3595
15043SOL     OW46896   2.348   9.294   9.755 -0.4129 -0.3694 -0.0767
15043SOL    HW146897   2.259   9.259   9.741  0.1197 -1.3597 -1.1500
15043SOL    HW246898   2.404   9.217   9.754  0.6478  0.3792 -1.0576
15044SOL     OW46899   6.265   8.465   2.739  0.1034  0.1900  0.7622
15044SOL    HW146900   6.283   8.375   2.712 -0.6743 -0.3366  1.8859
15044SOL    HW246901   6.188   8.458   2.796  0.1205  1.5542  0.9996
15045SOL     OW46902   3.806   0.962   8.767 -0.0860 -0.1780  0.4378
15045SOL    HW146903   3.802   1.040   8.822 -0.0364 -0.5178  0.9363
15045SOL    HW246904   3.864   0.986   8.695  0.9416 -0.1442  1.2535
15046SOL     OW46905   5.938   3.386   1.201 -0.6398 -0.2361  0.1838
15046SOL    HW146906   6.027   3.351   1.205 -0.8553 -0.9243 -0.7690
15046SOL    HW246907   5.913   3.399   1.292  1.2711  2.1520  0.4612
15047SOL     OW46908   0.169   3.218   1.289  0.0010 -0.5212 -0.1129
15047SOL    HW146909   0.192   3.304   1.323 -2.2241 -0.3360  1.0831
15047SOL    HW246910   0.240   3.161   1.319  0.2623  0.4457  1.1853
15048SOL     OW46911   2.401   9.650   4.211  0.1915 -0.0483 -0.8411
15048SOL    HW146912   2.437   9.734   4.238  0.5791 -0.0830 -1.2341
15048SOL    HW246913   2.342   9.625   4.282  1.1351 -0.1021 -0.0577
15049SOL     OW46914   3.839   0.397   4.319 -0.2849 -0.2222  0.7463
15049SOL    HW146915   3.901   0.447   4.371 -0.4790  2.1411 -1.1191
15049SOL    HW246916   3.776   0.462   4.287 -0.2850 -1.5109 -2.2228
15050SOL     OW46917   8.416   8.659   7.771 -0.0737 -0.2049  0.2571
15050SOL    HW146918   8.373   8.584   7.730 -0.0761 -0.1194  0.1025
15050SOL    HW246919   8.418   8.726   7.702 -2.6051  0.9410  1.1829
15051SOL     OW46920   2.351   2.125   3.510 -0.2164 -0.4229 -0.2196
15051SOL    HW146921   2.284   2.058   3.499 -0.6574 -0.2330  1.1116
15051SOL    HW246922   2.306   2.207   3.492 -0.7532 -0.1734  1.9510
15052SOL     OW46923   0.323   6.871   9.340  0.0150 -0.4340 -0.1017
15052SOL    HW146924   0.253   6.839   9.397  1.4807 -1.3388  1.2707
15052SOL    HW246925   0.285   6.948   9.297 -1.5891 -0.4844  1.1068
15053SOL     OW46926   1.294   7.300   6.617  0.2140  0.1537 -0.4541
15053SOL    HW146927   1.301   7.231   6.683 -1.7937 -0.4940 -0.8634
15053SOL    HW246928   1.200   7.316   6.608  0.5867  2.9451 -0.4111
15054SOL     OW46929   6.208   2.868   8.797  0.1216  0.4508 -0.3724
15054SOL    HW146930   6.266   2.942   8.781  2.8390 -1.2717  0.8401
15054SOL    HW246931   6.237   2.801   8.735  0.6377 -1.0321  1.3934
15055SOL     OW46932   8.365   8.276   8.003  0.2343  0.1461  0.0864
15055SOL    HW146933   8.272   8.296   7.999  0.0666 -0.3764  1.0501
15055SOL    HW246934   8.403   8.349   8.052 -0.0075 -0.6529  1.5112
15056SOL     OW46935   6.961   7.334   5.387  0.0930  0.2775  0.6992
15056SOL    HW146936   6.923   7.394   5.452  1.0663  0.6828  0.9271
15056SOL    HW246937   7.051   7.321   5.417  0.9927  1.5186 -1.2534
15057SOL     OW46938   1.414   2.016   4.274  0.1335 -0.1807  0.0608
15057SOL    HW146939   1.433   1.947   4.338 -1.9797 -2.6205 -1.7351
15057SOL    HW246940   1.344   2.067   4.314  0.5863 -0.0807  0.7413
15058SOL     OW46941   2.278   8.767   8.158 -0.2614  0.2516  0.3652
15058SOL    HW146942   2.348   8.832   8.162 -1.0017  1.0212  1.5688
15058SOL    HW246943   2.299   8.705   8.228 -0.3936  0.0658  0.2419
15059SOL     OW46944   4.757   9.791   8.991 -0.1570  0.3242 -0.3360
15059SOL    HW146945   4.743   9.740   8.911  3.2435  0.5516 -1.2239
15059SOL    HW246946   4.848   9.774   9.016 -0.2993  2.3324  1.9895
15060SOL     OW46947   5.450   0.550   5.475  0.4310 -0.0047 -0.8308
15060SOL    HW146948   5.371   0.500   5.458  0.4841 -0.0527 -0.9385
15060SOL    HW246949   5.501   0.542   5.394  1.1904 -1.1646 -0.2614
15061SOL     OW46950   2.231   7.335   4.559  0.1234  0.4621  0.1463
15061SOL    HW146951   2.164   7.268   4.549  1.8044 -1.1502 -0.8479
15061SOL    HW246952   2.269   7.319   4.645  0.4722  0.1645 -0.0593
15062SOL     OW46953   7.025   3.758   8.615 -0.2263  0.0301 -0.4809
15062SOL    HW146954   7.092   3.742   8.681 -1.7389 -1.5767  0.7921
15062SOL    HW246955   6.952   3.796   8.664 -1.5898 -1.7170 -1.0481
15063SOL     OW46956   7.886   6.712   2.676 -0.0767  0.3547 -0.4983
15063SOL    HW146957   7.887   6.780   2.743 -1.4402 -0.6415  0.5987
15063SOL    HW246958   7.959   6.655   2.700 -0.2674  0.2603 -0.1289
15064SOL     OW46959   9.807   8.841   9.197  0.5552 -0.1853 -0.5270
15064SOL    HW146960   9.760   8.814   9.118 -0.9362  1.2403 -0.1841
15064SOL    HW246961   9.837   8.930   9.178  0.8954 -0.1319  0.2240
15065SOL     OW46962   8.652   3.244   5.802  0.0148 -0.4287 -0.0035
15065SOL    HW146963   8.578   3.261   5.861 -0.6277 -1.8423 -0.3594
15065SOL    HW246964   8.720   3.209   5.859  0.2161  0.3233  0.2330
15066SOL     OW46965   9.111   0.510   3.502  0.0863 -0.6181 -0.2299
15066SOL    HW146966   9.058   0.510   3.581  0.1747 -3.3357 -0.0747
15066SOL    HW246967   9.194   0.470   3.528  0.9837  0.4624 -1.2449
15067SOL     OW46968   4.168   8.123   9.631 -0.1575 -0.2878 -0.7089
15067SOL    HW146969   4.085   8.153   9.592  0.4489  0.5284 -1.4235
15067SOL    HW246970   4.224   8.201   9.628  0.4642 -0.6927  0.2512
15068SOL     OW46971   2.688   9.179   0.589  0.8043  0.7865  0.5540
15068SOL    HW146972   2.774   9.219   0.602  1.2300 -0.1721  0.7913
15068SOL    HW246973   2.685   9.158   0.496  1.2888 -0.1613  0.7364
15069SOL     OW46974   8.209   2.121   0.064  0.7620  0.0767 -0.6136
15069SOL    HW146975   8.214   2.045   0.122  0.0972  0.3321 -0.2093
15069SOL    HW246976   8.293   2.123   0.019  0.8723 -0.7629 -0.4573
15070SOL     OW46977   5.619   5.621   2.193 -0.0193  0.2611  0.2060
15070SOL    HW146978   5.607   5.539   2.241  0.6732 -0.4600 -0.7798
15070SOL    HW246979   5.651   5.593   2.107 -0.6361  1.5284 -0.4681
15071SOL     OW46980   5.473   0.411   2.372  0.5877  0.3230 -0.0080
15071SOL    HW146981   5.441   0.416   2.282 -0.7914  2.7317  0.5291
15071SOL    HW246982   5.541   0.344   2.370 -1.8314 -2.3095 -2.0505
15072SOL     OW46983   4.941   9.803   8.048  0.0265  0.4074  0.0475
15072SOL    HW146984   5.032   9.775   8.063  0.5467  0.3836 -2.6526
15072SOL    HW246985   4.895   9.722   8.027  0.2244  0.7806 -2.0301
15073SOL     OW46986   7.001   4.150   1.152  0.3678 -0.0651  0.3669
15073SOL    HW146987   6.964   4.073   1.109  3.4389 -1.3625 -0.1697
15073SOL    HW246988   7.033   4.117   1.236  2.1256  0.4420 -0.0556
15074SOL     OW46989   0.035   1.857   8.882 -0.8681 -0.4688  0.2219
15074SOL    HW146990   0.065   1.947   8.866 -0.8851 -0.1016  2.0970
15074SOL    HW246991   0.055   1.811   8.800 -0.6844  1.1808 -0.7205
15075SOL     OW46992   8.811   7.756   5.552  0.1567  0.1400 -0.1207
15075SOL    HW146993   8.827   7.730   5.643  0.7919  1.6163  0.2216
15075SOL    HW246994   8.868   7.832   5.539 -0.2329  0.2008 -1.6332
15076SOL     OW46995   5.307   1.883   3.369  0.0887 -0.1233 -0.3026
15076SOL    HW146996   5.243   1.817   3.341 -0.3089  0.7068 -1.4208
15076SOL    HW246997   5.345   1.916   3.287  1.4110 -0.0686  0.3171
15077SOL     OW46998   4.184   4.147   6.928  0.0349 -0.3027  0.2044
15077SOL    HW146999   4.190   4.056   6.901  1.0316 -0.2010  0.0356
15077SOL    HW247000   4.249   4.192   6.874 -0.1353  0.4338  0.6013
15078SOL     OW47001   3.741   1.371   7.002 -0.3257  0.1760  0.0524
15078SOL    HW147002   3.669   1.348   6.942 -0.0221 -0.3354 -0.1213
15078SOL    HW247003   3.816   1.321   6.970 -1.2533 -4.3251  3.7284
15079SOL     OW47004   1.594   6.330   0.401  0.2557  0.0212  1.0145
15079SOL    HW147005   1.530   6.401   0.405  0.6641  0.4947 -0.4792
15079SOL    HW247006   1.653   6.348   0.474 -0.0060  0.8652  1.0306
15080SOL     OW47007   2.819   3.224   2.852  0.5269 -0.1878  0.0393
15080SOL    HW147008   2.898   3.243   2.903 -0.1081 -0.0314  0.9876
15080SOL    HW247009   2.750   3.215   2.917  0.3182 -3.6175 -0.4939
15081SOL     OW47010   0.137   8.708   6.890 -0.5206  0.2190 -0.0483
15081SOL    HW147011   0.223   8.711   6.933 -1.0990  0.2195  1.1412
15081SOL    HW247012   0.151   8.753   6.807  0.8756 -0.6562 -0.3300
15082SOL     OW47013   8.670   3.964   9.257 -0.2056  0.1858 -0.1296
15082SOL    HW147014   8.741   3.907   9.287  1.6122  2.3334 -0.0668
15082SOL    HW247015   8.653   4.021   9.332 -0.7076  0.8714 -0.7551
15083SOL     OW47016   7.469   1.225   1.435  0.0983 -0.2819 -0.2213
15083SOL    HW147017   7.395   1.165   1.445  0.5606 -1.0017 -1.0288
15083SOL    HW247018   7.496   1.215   1.344  1.4535 -0.3404  0.1631
15084SOL     OW47019   5.907   9.659   0.408  0.3119 -0.0297 -0.5380
15084SOL    HW147020   5.996   9.676   0.441 -0.2276  0.7469  0.5592
15084SOL    HW247021   5.887   9.734   0.352 -0.2468  0.5964  0.4837
15085SOL     OW47022   5.930   2.800   3.394 -0.4881 -0.5094 -0.2794
15085SOL    HW147023   5.943   2.713   3.430 -0.7811 -0.6025 -0.3958
15085SOL    HW247024   5.852   2.833   3.439 -0.4766 -0.3753 -0.3578
15086SOL     OW47025   5.950   5.115   5.388  0.1373  0.1884 -0.3379
15086SOL    HW147026   5.946   5.209   5.370 -1.2942  0.0611 -0.7383
15086SOL    HW247027   5.859   5.086   5.385  0.6608 -1.4441 -1.4259
15087SOL     OW47028   4.041   9.121   8.357  0.2308  0.5655  0.6187
15087SOL    HW147029   3.954   9.141   8.321 -1.2915  0.8788  3.9950
15087SOL    HW247030   4.035   9.029   8.384  1.3112  0.3178  0.0618
15088SOL     OW47031   1.327   7.394   8.908 -0.5804  0.1952  0.5467
15088SOL    HW147032   1.256   7.348   8.863  0.5661  0.1073 -1.2792
15088SOL    HW247033   1.390   7.325   8.930 -0.6339  0.3929  1.3347
15089SOL     OW47034   9.545   7.968   2.741  0.1754 -0.7678 -0.0445
15089SOL    HW147035   9.640   7.968   2.751  0.0732  1.5701  1.6728
15089SOL    HW247036   9.511   7.994   2.826 -2.1101 -2.4244 -0.3375
15090SOL     OW47037   3.020   7.154   0.553 -0.0893  0.1874  0.5571
15090SOL    HW147038   3.092   7.203   0.514  0.6487 -0.4641  1.0578
15090SOL    HW247039   2.975   7.114   0.479  1.1139 -0.8014  0.3177
15091SOL     OW47040   8.666   9.052   7.939  0.4754  0.1436 -0.1855
15091SOL    HW147041   8.576   9.034   7.966  0.7666 -0.6779  0.2608
15091SOL    HW247042   8.709   8.967   7.939  1.3830  0.5856  0.0752
15092SOL     OW47043   5.309   4.676   3.830  0.1980  0.1222 -0.3611
15092SOL    HW147044   5.346   4.616   3.895 -0.5648 -0.7734 -0.7320
15092SOL    HW247045   5.231   4.631   3.798 -0.8705  1.6734 -0.0598
15093SOL     OW47046   2.883   7.058   5.749  0.1838  0.1685  0.0001
15093SOL    HW147047   2.856   7.125   5.813  1.3184 -0.0471  0.7444
15093SOL    HW247048   2.953   7.100   5.699 -2.3013  1.2471 -2.8858
15094SOL     OW47049   3.336   2.022   8.795  0.0593  0.0990 -0.5532
15094SOL    HW147050   3.291   1.940   8.814  2.1999 -0.4706  2.8420
15094SOL    HW247051   3.415   1.997   8.748  1.0398  0.0831  1.0549
15095SOL     OW47052   5.376   6.167   1.138  0.1998  0.3000 -0.4445
15095SOL    HW147053   5.301   6.219   1.111  0.0577  0.5537  0.4111
15095SOL    HW247054   5.355   6.137   1.226  0.8877 -0.0385 -0.3842
15096SOL     OW47055   6.834   8.872   1.238  0.2641  0.1426  0.0065
15096SOL    HW147056   6.772   8.811   1.197  0.7847  0.6298 -1.5720
15096SOL    HW247057   6.881   8.819   1.302 -0.9073 -0.5382  0.3366
15097SOL     OW47058   6.814   5.937   9.130  0.3137 -0.7498 -0.2857
15097SOL    HW147059   6.749   5.989   9.179  1.3501  0.4327 -0.1171
15097SOL    HW247060   6.805   5.967   9.040  0.6774 -0.5322 -0.2492
15098SOL     OW47061   7.485   9.546   2.400  0.2838  0.0343 -0.0776
15098SOL    HW147062   7.578   9.567   2.395  0.6063 -1.2323  0.1231
15098SOL    HW247063   7.461   9.522   2.310  0.5158 -0.9991  0.1221
15099SOL     OW47064   8.113   2.244   6.350  0.0814 -0.1750  0.2834
15099SOL    HW147065   8.128   2.271   6.440  0.7691  0.0328  0.1106
15099SOL    HW247066   8.098   2.326   6.302 -0.6611 -0.3103  0.2737
15100SOL     OW47067   7.126   3.472   3.600  0.3951 -0.0576 -0.1832
15100SOL    HW147068   7.058   3.539   3.593 -0.5387 -0.8188  1.2338
15100SOL    HW247069   7.192   3.510   3.657  1.5141  0.9141 -2.0229
15101SOL     OW47070   8.149   6.969   2.755  0.6211  0.1286 -0.0345
15101SOL    HW147071   8.089   7.043   2.753 -0.3778 -0.6463 -2.1981
15101SOL    HW247072   8.226   6.999   2.708  0.4174 -0.0461 -0.4816
15102SOL     OW47073   8.895   5.393   0.922  0.0883 -0.2165 -0.1937
15102SOL    HW147074   8.880   5.387   0.827  0.8170  0.5707 -0.3742
15102SOL    HW247075   8.970   5.452   0.930  0.6978 -1.1079  0.8323
15103SOL     OW47076   3.263   5.564   9.391 -0.4410  0.0772 -0.5029
15103SOL    HW147077   3.271   5.655   9.422 -0.2642  0.1132 -0.6553
15103SOL    HW247078   3.232   5.572   9.301 -2.1860 -0.0490  0.0412
15104SOL     OW47079   1.802   4.250   0.287 -0.1118 -0.0987  0.0101
15104SOL    HW147080   1.766   4.334   0.318 -0.5762 -0.1519 -0.3747
15104SOL    HW247081   1.823   4.203   0.367  1.5791  0.9801  0.2404
15105SOL     OW47082   2.134   4.432   6.768 -0.1657 -0.0090  0.0087
15105SOL    HW147083   2.111   4.513   6.812  0.0019  1.5835 -2.6511
15105SOL    HW247084   2.169   4.459   6.683  0.2013 -2.8544 -0.8659
15106SOL     OW47085   6.512   4.530   6.992  0.4371  0.4483  0.5408
15106SOL    HW147086   6.441   4.591   6.971  0.3577 -0.5485 -2.7954
15106SOL    HW247087   6.563   4.525   6.911  2.8430 -0.8373  2.0167
15107SOL     OW47088   6.662   5.952   4.127 -0.0454  0.0321  0.5400
15107SOL    HW147089   6.589   5.984   4.073 -0.8859  0.2107  1.7421
15107SOL    HW247090   6.665   5.858   4.110  1.9871  0.4939 -2.4811
15108SOL     OW47091   3.281   5.194   6.665  0.3145 -0.0874  0.0847
15108SOL    HW147092   3.192   5.172   6.691  0.4337  0.4162  0.9318
15108SOL    HW247093   3.273   5.278   6.620  0.5073  0.5462  1.2074
15109SOL     OW47094   1.179   6.596   2.689  0.0144  0.4156  0.1235
15109SOL    HW147095   1.157   6.680   2.649  0.0823 -1.1828 -3.7010
15109SOL    HW247096   1.273   6.602   2.705 -0.2949  1.6821  1.7367
15110SOL     OW47097   0.383   5.440   4.335 -0.5484  0.2340 -0.1936
15110SOL    HW147098   0.336   5.362   4.364 -1.6153  0.4384 -1.2463
15110SOL    HW247099   0.371   5.503   4.406  0.8301 -0.7090  0.9339
15111SOL     OW47100   3.097   9.600   2.892  0.5733  0.0351 -0.2031
15111SOL    HW147101   3.023   9.553   2.854  0.1074  0.5386  0.0701
15111SOL    HW247102   3.143   9.534   2.945 -1.1186  0.2975  1.6691
15112SOL     OW47103   4.057   3.334   8.826 -0.7131  0.1612  0.3381
15112SOL    HW147104   4.045   3.277   8.902 -1.8217  0.0176  0.0754
15112SOL    HW247105   4.010   3.290   8.755  1.7512 -0.5904 -0.9186
15113SOL     OW47106   4.168   6.826   0.015  0.1674 -0.3763  0.0470
15113SOL    HW147107   4.172   6.921   0.016  0.8617 -0.4047  0.4669
15113SOL    HW247108   4.100   6.805  -0.050  0.2650  0.3942 -0.3085
15114SOL     OW47109   6.762   2.352   4.460 -0.2115  0.4369  0.1098
15114SOL    HW147110   6.713   2.394   4.390  1.1448  1.8951 -0.0094
15114SOL    HW247111   6.720   2.382   4.541  0.0589  1.1329 -0.0066
15115SOL     OW47112   3.173   5.427   3.731  0.1228  0.8077 -0.1978
15115SOL    HW147113   3.249   5.430   3.672 -0.1360 -1.8135 -0.7812
15115SOL    HW247114   3.178   5.340   3.771 -1.8516  1.1051  0.7875
15116SOL     OW47115   6.302   2.753   8.555 -0.1875 -0.4995 -0.0245
15116SOL    HW147116   6.317   2.663   8.525 -0.0450 -0.0230 -1.4143
15116SOL    HW247117   6.254   2.795   8.484  1.4422  1.0757 -0.2687
15117SOL     OW47118   6.377   9.107   5.020  0.1525  0.6502  0.4121
15117SOL    HW147119   6.322   9.121   4.943 -2.0296 -3.9192  0.8330
15117SOL    HW247120   6.349   9.175   5.081 -1.3982  1.5701 -1.2116
15118SOL     OW47121   7.902   3.833   6.625  0.0822 -0.5370 -0.5926
15118SOL    HW147122   7.809   3.853   6.635 -0.3515 -3.0740  1.4094
15118SOL    HW247123   7.908   3.794   6.538 -0.6727 -0.1879 -0.8165
15119SOL     OW47124   7.433   2.331   0.023  0.1824 -0.1116 -0.5343
15119SOL    HW147125   7.508   2.388   0.041  2.0794 -2.3297 -1.0131
15119SOL    HW247126   7.466   2.266  -0.039 -1.3572 -2.7717  1.2499
15120SOL     OW47127   4.547   0.816   1.359  0.4384  0.0574  0.1541
15120SOL    HW147128   4.503   0.796   1.276  1.0957  0.0949 -0.2142
15120SOL    HW247129   4.514   0.902   1.383  0.9321  0.4555 -0.5530
15121SOL     OW47130   9.100   9.600   2.366 -0.8550 -0.0840 -0.1240
15121SOL    HW147131   9.179   9.612   2.313 -0.9085  0.7703 -0.0155
15121SOL    HW247132   9.038   9.558   2.306 -0.5394 -0.1675 -0.3997
15122SOL     OW47133   0.433   8.501   8.128 -0.3567  0.0049 -0.8964
15122SOL    HW147134   0.450   8.572   8.191 -0.0691 -0.6681 -0.2067
15122SOL    HW247135   0.438   8.544   8.042 -0.7658  0.9400 -0.4663
15123SOL     OW47136   7.830   8.056   9.349 -0.0898 -0.0689 -0.1792
15123SOL    HW147137   7.755   8.114   9.364 -0.3736 -0.7871  1.3279
15123SOL    HW247138   7.856   8.028   9.436  1.0289 -0.9808 -0.7921
15124SOL     OW47139   5.645   6.326   6.561  0.1292  0.5367  0.1561
15124SOL    HW147140   5.701   6.249   6.571 -0.0650  0.5558  1.6130
15124SOL    HW247141   5.701   6.391   6.519  0.8648  0.1945  0.5930
15125SOL     OW47142   8.684   3.241   1.543 -0.0209 -0.5176 -0.4517
15125SOL    HW147143   8.740   3.263   1.618  0.9285 -0.7123 -1.0841
15125SOL    HW247144   8.686   3.320   1.489 -0.3090 -0.5525 -0.5126
15126SOL     OW47145   5.890   4.764   1.939  0.4940  0.4206  0.4961
15126SOL    HW147146   5.896   4.696   2.007  2.0686 -0.3890 -0.3947
15126SOL    HW247147   5.858   4.841   1.986 -2.4900 -1.1604  1.3191
15127SOL     OW47148   7.138   5.573   5.573  0.2381  0.0024  0.8253
15127SOL    HW147149   7.186   5.494   5.596  0.1576 -0.2928 -0.0040
15127SOL    HW247150   7.201   5.626   5.524  0.0873  0.1647  0.8047
15128SOL     OW47151   6.595   5.043   9.000 -0.1320  0.3753 -0.2952
15128SOL    HW147152   6.619   5.136   9.001  0.6275  0.2045 -1.3116
15128SOL    HW247153   6.671   4.998   9.038  0.4679 -0.0101 -1.8755
15129SOL     OW47154   2.390   6.029   8.857 -0.6137  0.1609 -0.1850
15129SOL    HW147155   2.314   6.084   8.839 -0.3064  0.8898  0.6779
15129SOL    HW247156   2.406   6.041   8.950 -0.0615 -0.7945 -0.1497
15130SOL     OW47157   3.064   8.971   8.031  0.1347 -0.5050  0.5267
15130SOL    HW147158   3.071   8.920   8.112 -1.8689  0.9580  1.7126
15130SOL    HW247159   3.127   9.042   8.041 -0.3056 -0.1658  0.9641
15131SOL     OW47160   8.683   3.926   8.964  0.5304 -0.2269 -0.2022
15131SOL    HW147161   8.767   3.970   8.963  0.0933  0.6460  0.1782
15131SOL    HW247162   8.657   3.926   9.056 -0.6783  1.1022 -0.5100
15132SOL     OW47163   2.104   3.921   9.476  0.2269  0.0750  0.1758
15132SOL    HW147164   2.064   4.006   9.495 -0.0648  0.1682 -0.7991
15132SOL    HW247165   2.085   3.868   9.553  2.0321  1.4302  1.6554
15133SOL     OW47166   3.051   6.771   5.449 -0.6960 -0.1178  0.3076
15133SOL    HW147167   3.078   6.681   5.432  0.1093  0.1901 -0.0963
15133SOL    HW247168   3.048   6.778   5.544  3.4011  0.5772  0.5390
15134SOL     OW47169   2.795   5.198   1.567 -0.2173 -0.1680 -0.1929
15134SOL    HW147170   2.718   5.232   1.613  0.1540  0.3404  0.0544
15134SOL    HW247171   2.774   5.210   1.474 -0.6063 -0.4110 -0.1388
15135SOL     OW47172   7.218   1.742   0.539 -0.1914  0.4375  0.3083
15135SOL    HW147173   7.149   1.684   0.572 -0.0011 -0.4084 -0.7454
15135SOL    HW247174   7.177   1.828   0.538 -1.1110  0.0089  0.0668
15136SOL     OW47175   2.848   6.804   5.859  0.6488  0.0634  0.1450
15136SOL    HW147176   2.868   6.847   5.943 -0.3747  1.5983 -0.3558
15136SOL    HW247177   2.867   6.871   5.793 -1.2872 -0.1179 -0.6574
15137SOL     OW47178   1.403   9.627   2.030  0.6125 -0.5237  0.2416
15137SOL    HW147179   1.440   9.586   2.108  2.5108  0.1794 -0.2519
15137SOL    HW247180   1.373   9.713   2.060  0.9541 -0.4207  0.2913
15138SOL     OW47181   8.676   1.458   8.226 -0.2434  0.0312  0.2001
15138SOL    HW147182   8.661   1.529   8.164 -3.4843  1.1144  1.9935
15138SOL    HW247183   8.739   1.495   8.289 -0.0179  0.3745 -0.2215
15139SOL     OW47184   4.212   2.531   2.124  0.5341  0.0241  0.5585
15139SOL    HW147185   4.182   2.533   2.215 -2.2433 -2.1989 -0.1497
15139SOL    HW247186   4.268   2.453   2.120  0.4081 -0.0573  0.3380
15140SOL     OW47187   8.470   8.528   3.301  0.1498  0.0634 -0.0640
15140SOL    HW147188   8.494   8.501   3.213 -0.4228 -1.2503  0.1576
15140SOL    HW247189   8.391   8.477   3.321 -1.5380  2.5566  0.0830
15141SOL     OW47190   2.861   6.748   8.690  0.5369 -0.4547 -0.2688
15141SOL    HW147191   2.809   6.739   8.770 -2.2245  1.0135 -1.7255
15141SOL    HW247192   2.865   6.660   8.654  0.7757 -0.9246  0.8810
15142SOL     OW47193   2.849   3.135   1.889 -0.1244  0.4938  0.4831
15142SOL    HW147194   2.811   3.063   1.840 -1.8534  0.6628  1.4647
15142SOL    HW247195   2.941   3.136   1.864 -0.8293  0.3830 -2.4634
15143SOL     OW47196   1.019   1.821   2.744 -0.5264 -0.7445 -0.2343
15143SOL    HW147197   0.930   1.793   2.763 -1.0269  1.1790  0.4690
15143SOL    HW247198   1.009   1.891   2.680  0.3890  0.1669  0.5800
15144SOL     OW47199   8.450   5.558   4.521  0.2643 -0.4781 -0.1366
15144SOL    HW147200   8.389   5.631   4.532  0.3805 -0.3874 -0.0968
15144SOL    HW247201   8.434   5.527   4.432  1.5148  0.7850 -0.8323
15145SOL     OW47202   2.569   1.654   8.760  0.1165 -0.2083 -0.2755
15145SOL    HW147203   2.575   1.609   8.676 -0.3356 -0.5304 -0.1344
15145SOL    HW247204   2.478   1.646   8.786  0.0304  0.7582 -0.2260
15146SOL     OW47205   7.918   6.169   8.698 -0.4140  0.1977 -0.2266
15146SOL    HW147206   7.866   6.216   8.633 -0.3856  0.2560 -0.2070
15146SOL    HW247207   7.856   6.149   8.768 -0.7423 -0.9818 -0.8402
15147SOL     OW47208   7.879   0.743   6.631 -0.5683  0.4117 -0.3286
15147SOL    HW147209   7.844   0.794   6.704 -1.0204 -0.2538 -0.0717
15147SOL    HW247210   7.862   0.652   6.656 -0.8912  0.1878 -1.3408
15148SOL     OW47211   9.631   8.964   9.731 -0.3143  0.2575  0.8650
15148SOL    HW147212   9.551   8.914   9.743  0.0880 -0.7732 -0.4314
15148SOL    HW247213   9.690   8.903   9.685 -0.1700  2.2349 -1.7785
15149SOL     OW47214   0.054   8.651   7.267  0.4118  0.2341  0.2989
15149SOL    HW147215   0.111   8.727   7.279  0.1636  0.6867 -1.1110
15149SOL    HW247216   0.098   8.599   7.199 -0.0981 -0.1908  0.2847
15150SOL     OW47217   4.755   8.946   4.129  0.0668  0.1445 -0.0115
15150SOL    HW147218   4.669   8.908   4.114 -0.3620  1.1855 -0.3125
15150SOL    HW247219   4.808   8.874   4.164 -0.5719 -0.8250 -0.9854
15151SOL     OW47220   3.129   0.411   5.252  0.1636 -0.1497  0.4369
15151SOL    HW147221   3.164   0.463   5.179  0.0725  0.7069  0.9850
15151SOL    HW247222   3.055   0.462   5.284 -1.4384 -1.7881 -0.5145
15152SOL     OW47223   5.687   5.493   5.047  0.1710  0.1411  0.0344
15152SOL    HW147224   5.629   5.434   5.094  0.9882 -0.1053  0.7523
15152SOL    HW247225   5.711   5.444   4.968  1.0931 -0.6401  0.7762
15153SOL     OW47226   3.757   4.246   1.098  0.0455  0.2753  0.1887
15153SOL    HW147227   3.690   4.208   1.041  0.5187  1.0622 -0.9267
15153SOL    HW247228   3.775   4.177   1.162  2.6024 -2.5590 -3.1235
15154SOL     OW47229   5.693   8.948   8.944 -0.5915 -0.2135  0.2528
15154SOL    HW147230   5.713   9.032   8.900 -1.5776  0.8028  1.6668
15154SOL    HW247231   5.711   8.965   9.036 -2.8672 -0.8569  0.8645
15155SOL     OW47232   9.091   1.527   0.846 -0.6144 -0.3638  0.2889
15155SOL    HW147233   9.174   1.563   0.877 -0.3495 -0.3526 -0.4155
15155SOL    HW247234   9.108   1.500   0.756 -1.4616 -0.0583  0.0241
15156SOL     OW47235   0.037   4.218   9.729  0.4507 -0.8187  0.2329
15156SOL    HW147236   0.080   4.272   9.796 -1.3095  0.2494  0.5690
15156SOL    HW247237   0.073   4.130   9.742  1.3895 -0.2798  1.4613
15157SOL     OW47238   8.352   3.640   0.898 -0.1520  0.0745 -0.3629
15157SOL    HW147239   8.377   3.702   0.829  0.6000  1.1896  0.8572
15157SOL    HW247240   8.424   3.577   0.901 -0.5490 -0.4226 -1.0916
15158SOL     OW47241   5.635   3.019   9.623  0.0249  0.3948  0.0778
15158SOL    HW147242   5.590   3.005   9.706 -2.2615  1.9888 -0.7899
15158SOL    HW247243   5.650   3.113   9.619  1.7816  0.1278 -0.5519
15159SOL     OW47244   5.529   8.078   1.129 -0.4674 -0.1525  0.1507
15159SOL    HW147245   5.600   8.027   1.092  0.0513  1.5696 -1.3648
15159SOL    HW247246   5.488   8.020   1.193  0.0951 -2.4051 -1.4374
15160SOL     OW47247   3.781   4.878   1.176  0.0083 -0.0237 -0.3135
15160SOL    HW147248   3.715   4.938   1.210  0.5603  1.3782 -1.6102
15160SOL    HW247249   3.848   4.875   1.244 -0.5988 -0.1504  0.2889
15161SOL     OW47250   0.255   5.812   9.153  0.0784 -0.1086  0.3680
15161SOL    HW147251   0.349   5.826   9.140  0.6910 -0.0274  4.0137
15161SOL    HW247252   0.248   5.720   9.180 -0.6304  0.3431  1.8174
15162SOL     OW47253   9.269   4.565   5.525 -0.1061 -0.0723 -0.6057
15162SOL    HW147254   9.227   4.503   5.465  0.5704  1.1673 -2.4516
15162SOL    HW247255   9.362   4.542   5.522  0.0921  0.7591 -0.9808
15163SOL     OW47256   6.008   1.969   8.139  0.0657 -0.4002 -0.2728
15163SOL    HW147257   6.029   2.062   8.128  2.5357 -0.7929  0.5635
15163SOL    HW247258   5.927   1.957   8.089  0.1938  1.9869 -1.1882
15164SOL     OW47259   4.555   1.836   8.195  0.2135 -0.0356  0.0441
15164SOL    HW147260   4.546   1.792   8.110 -3.5500  0.0507  0.2127
15164SOL    HW247261   4.522   1.925   8.179  0.0592  0.1730  1.4674
15165SOL     OW47262   3.752   7.469   8.965 -0.0487  0.4036  0.0833
15165SOL    HW147263   3.727   7.376   8.969  1.2739  0.0461  0.4590
15165SOL    HW247264   3.834   7.474   9.015 -1.1061  2.1487  1.7446
15166SOL     OW47265   1.618   5.204   1.472 -0.6319  0.3073  0.2104
15166SOL    HW147266   1.579   5.269   1.414  0.5989 -0.2214 -1.2560
15166SOL    HW247267   1.564   5.126   1.461 -0.9316  0.4739  0.4736
15167SOL     OW47268   6.826   1.545   9.043  0.4837  0.4848  0.1757
15167SOL    HW147269   6.838   1.633   9.008 -0.3961  0.1580 -1.0023
15167SOL    HW247270   6.733   1.541   9.067  0.7788  0.2625  1.3433
15168SOL     OW47271   2.292   2.956   2.900 -0.1481 -0.2648 -0.2055
15168SOL    HW147272   2.278   2.901   2.823  1.8953  0.0970 -0.8909
15168SOL    HW247273   2.253   3.041   2.876 -1.1666 -0.6849 -0.0847
15169SOL     OW47274   6.677   1.159   3.159  0.1178  0.1123  0.2979
15169SOL    HW147275   6.608   1.115   3.110  0.2097  0.3475 -0.0546
15169SOL    HW247276   6.686   1.244   3.116  0.6017  0.0970  0.3600
15170SOL     OW47277   4.370   9.371   2.797 -0.2133  0.1335 -0.0329
15170SOL    HW147278   4.376   9.281   2.828 -0.7054 -0.4291 -1.4752
15170SOL    HW247279   4.435   9.419   2.849  0.9988 -1.3092 -0.1513
15171SOL     OW47280   6.797   6.531   3.561  0.3827  0.5197  0.0995
15171SOL    HW147281   6.879   6.484   3.578  1.1383  2.3588  1.9824
15171SOL    HW247282   6.777   6.574   3.644 -1.9194  1.0380 -0.6527
15172SOL     OW47283   3.830   8.564   3.975 -0.0146  0.5068 -0.3224
15172SOL    HW147284   3.827   8.659   3.987  1.3861  0.6607 -0.9985
15172SOL    HW247285   3.819   8.528   4.063  0.8228  1.3374  0.1358
15173SOL     OW47286   0.914   0.212   3.361 -0.3539  0.2783  0.2538
15173SOL    HW147287   0.968   0.141   3.395  1.9967  1.1928 -1.3133
15173SOL    HW247288   0.847   0.169   3.308  1.1172 -0.8198 -0.8011
15174SOL     OW47289   2.825   3.877   0.843 -0.5723  0.1051  0.3369
15174SOL    HW147290   2.908   3.900   0.801 -0.0346  1.8440  2.1241
15174SOL    HW247291   2.759   3.926   0.795 -0.1943  0.7322  0.4413
15175SOL     OW47292   9.449   7.890   3.746 -0.7386  0.3282 -0.1474
15175SOL    HW147293   9.444   7.821   3.679  0.3623 -0.5962  0.6861
15175SOL    HW247294   9.404   7.852   3.822  0.2943  0.3058  0.4769
15176SOL     OW47295   6.216   4.459   9.038 -0.1828 -0.8149 -0.5717
15176SOL    HW147296   6.237   4.373   9.000 -2.9477 -1.6698 -0.4127
15176SOL    HW247297   6.160   4.501   8.973 -0.7568 -0.1364  0.3320
15177SOL     OW47298   1.227   7.151   7.508 -0.3638  0.3501  0.2322
15177SOL    HW147299   1.259   7.069   7.471  1.1860  1.0402 -0.0507
15177SOL    HW247300   1.140   7.162   7.471  0.4707  0.1829 -1.8973
15178SOL     OW47301   0.276   7.923   4.942 -0.2840 -0.2082 -0.3731
15178SOL    HW147302   0.247   8.012   4.922  1.6408  0.8637  1.1840
15178SOL    HW247303   0.251   7.871   4.865 -1.0211  1.7751 -1.5440
15179SOL     OW47304   0.686   8.507   2.318  0.8652 -0.1922  0.4954
15179SOL    HW147305   0.611   8.563   2.296 -0.3029 -0.5873  3.1033
15179SOL    HW247306   0.757   8.567   2.338  0.4998  0.2745  0.4110
15180SOL     OW47307   1.776   4.582   1.236 -0.3423  0.0594  0.0920
15180SOL    HW147308   1.812   4.545   1.317 -1.3041 -0.9297  0.1021
15180SOL    HW247309   1.806   4.673   1.235 -0.1687  0.0407  1.4687
15181SOL     OW47310   0.504   7.897   0.140 -0.4402 -0.0979 -0.0850
15181SOL    HW147311   0.443   7.892   0.214 -1.7527 -0.1496 -1.1388
15181SOL    HW247312   0.582   7.938   0.176 -0.2702 -1.9413  1.8253
15182SOL     OW47313   0.397   0.575   5.493 -0.3445 -0.4882  0.5011
15182SOL    HW147314   0.424   0.665   5.475 -1.8708 -0.1529 -0.3126
15182SOL    HW247315   0.318   0.563   5.440 -1.0588 -1.8017  1.7840
15183SOL     OW47316   7.608   1.562   5.755 -0.1239  0.3906  0.3386
15183SOL    HW147317   7.692   1.535   5.793 -0.5338 -3.1077 -0.8527
15183SOL    HW247318   7.610   1.658   5.758  4.1595  0.5125 -0.1757
15184SOL     OW47319   3.015   5.694   6.507  0.0848 -0.0467 -0.1577
15184SOL    HW147320   3.047   5.695   6.417  0.2510  0.3821 -0.0979
15184SOL    HW247321   3.085   5.653   6.558  0.6687  1.0903  0.0077
15185SOL     OW47322   2.511   5.660   1.956 -0.3322 -0.0716  0.0831
15185SOL    HW147323   2.548   5.735   1.909 -0.0470  0.6235  1.3571
15185SOL    HW247324   2.416   5.674   1.952 -0.2517  2.3482  3.2633
15186SOL     OW47325   7.439   8.435   2.304 -0.0581 -0.6781 -0.4749
15186SOL    HW147326   7.442   8.507   2.240 -0.8230  0.0639  0.3053
15186SOL    HW247327   7.349   8.404   2.301 -0.5771  0.4870  1.4298
15187SOL     OW47328   0.859   2.654   8.778  0.0423 -0.2009  0.2364
15187SOL    HW147329   0.852   2.699   8.694  0.4383 -2.1163 -0.8813
15187SOL    HW247330   0.814   2.712   8.840 -0.6498  1.0512 -1.3622
15188SOL     OW47331   8.179   3.952   7.194 -0.2969  0.0529  0.2301
15188SOL    HW147332   8.114   3.946   7.124  0.5751  1.5918 -0.7788
15188SOL    HW247333   8.236   4.025   7.168  2.6804 -2.0318  0.2984
15189SOL     OW47334   6.712   2.334   9.499  0.2185  0.2419 -0.2064
15189SOL    HW147335   6.648   2.330   9.570 -0.3674  0.7551 -0.7019
15189SOL    HW247336   6.743   2.244   9.491 -0.7486 -0.1033 -0.2345
15190SOL     OW47337   3.001   3.585   6.333  0.6716  0.4917 -0.6002
15190SOL    HW147338   3.067   3.637   6.379  0.2402  0.7704 -0.2980
15190SOL    HW247339   3.004   3.617   6.243  0.5252  0.9236 -0.4522
15191SOL     OW47340   7.616   0.858   7.460 -0.3400 -0.5669  0.3741
15191SOL    HW147341   7.597   0.928   7.523 -0.1659  0.0286 -0.2222
15191SOL    HW247342   7.683   0.805   7.503  0.6160  0.4951  0.2507
15192SOL     OW47343   1.055   2.449   3.523  0.3804 -0.4508 -0.7660
15192SOL    HW147344   1.081   2.368   3.566  0.3171  0.4785  1.1550
15192SOL    HW247345   1.104   2.518   3.569 -0.9419  0.7597 -1.0820
15193SOL     OW47346   5.719   8.015   8.537  0.3299  0.2806  0.0056
15193SOL    HW147347   5.699   8.004   8.444 -1.8934 -1.8965  0.6314
15193SOL    HW247348   5.637   8.046   8.575  0.7105 -0.4353  1.4720
15194SOL     OW47349   0.262   8.077   2.614 -0.2831  0.8106 -0.0348
15194SOL    HW147350   0.293   8.158   2.573 -2.2920  1.9556  0.5692
15194SOL    HW247351   0.275   8.010   2.547  1.6570  1.5381 -0.4645
15195SOL     OW47352   8.760   6.550   0.312 -0.2892  0.8377 -0.2076
15195SOL    HW147353   8.776   6.643   0.294 -2.1155  0.8984 -1.8449
15195SOL    HW247354   8.665   6.544   0.322 -0.2970 -0.9693 -1.0179
15196SOL     OW47355   2.088   7.803   0.219 -0.1516  0.4749  0.1005
15196SOL    HW147356   2.036   7.735   0.262 -0.0777  1.0787  1.1733
15196SOL    HW247357   2.153   7.755   0.168  0.9481 -0.2773  2.1136
15197SOL     OW47358   4.396   8.336   7.764  0.6888  0.0522 -0.3390
15197SOL    HW147359   4.387   8.241   7.761 -0.0529  0.0386  1.2129
15197SOL    HW247360   4.458   8.352   7.836  0.1950  0.7506 -0.0555
15198SOL     OW47361   4.858   9.600   6.133  0.3765  0.1296  0.2454
15198SOL    HW147362   4.792   9.654   6.177 -1.3648 -2.1381  0.5973
15198SOL    HW247363   4.872   9.527   6.192  1.0327 -0.9412 -1.1801
15199SOL     OW47364   8.113   2.046   5.632 -0.1971  0.2679  0.3911
15199SOL    HW147365   8.187   2.013   5.581 -1.2496  0.3323 -1.2824
15199SOL    HW247366   8.037   2.000   5.596 -1.3024  2.1199  0.1934
15200SOL     OW47367   0.898   0.607   3.834  0.3154  0.1258  0.3182
15200SOL    HW147368   0.930   0.653   3.912  1.8318  0.1389 -0.2806
15200SOL    HW247369   0.870   0.677   3.775 -1.6043  0.0957  1.1206
15201SOL     OW47370   3.855   3.244   5.291 -0.0871 -0.1164  0.1842
15201SOL    HW147371   3.806   3.277   5.215  2.0541  0.3336 -1.0909
15201SOL    HW247372   3.863   3.150   5.276  0.3331 -0.0281 -0.1697
15202SOL     OW47373   8.792   1.640   5.304 -0.0762  0.3792  0.2419
15202SOL    HW147374   8.791   1.628   5.399  0.2230  1.2510  0.3654
15202SOL    HW247375   8.884   1.646   5.281 -0.1281 -0.3050 -0.1792
15203SOL     OW47376   2.950   0.442   9.616 -0.0687  0.0627  0.6379
15203SOL    HW147377   2.961   0.391   9.536  2.5393 -0.7534  1.4051
15203SOL    HW247378   2.925   0.378   9.682  0.3531  0.2783  1.0103
15204SOL     OW47379   8.697   7.679   0.131  0.0452 -0.2542 -0.3029
15204SOL    HW147380   8.646   7.717   0.059  1.6265  1.1496 -0.7454
15204SOL    HW247381   8.774   7.735   0.138 -0.9795  1.0294  3.8568
15205SOL     OW47382   3.422   5.615   7.038 -0.1608 -0.7617 -0.2584
15205SOL    HW147383   3.397   5.567   7.117 -0.4400  0.0245  0.1470
15205SOL    HW247384   3.518   5.619   7.042 -0.2302  1.2268  1.2815
15206SOL     OW47385   5.140   4.199   5.488 -0.4760 -0.3923 -0.0820
15206SOL    HW147386   5.097   4.237   5.411  0.4572  0.6387 -0.1132
15206SOL    HW247387   5.232   4.221   5.478 -0.3255 -0.3082  1.3017
15207SOL     OW47388   5.097   0.182   8.202  0.9149  0.6572  0.1863
15207SOL    HW147389   5.138   0.267   8.187 -2.0017  2.4663  1.8287
15207SOL    HW247390   5.023   0.180   8.142  0.0624 -0.0579  1.2405
15208SOL     OW47391   6.035   7.250   3.694  0.0397  0.9713 -0.0612
15208SOL    HW147392   6.065   7.245   3.784  0.3991  1.3375 -0.1597
15208SOL    HW247393   6.093   7.313   3.652 -0.8156  1.6412 -0.2708
15209SOL     OW47394   5.353   5.993   1.696 -0.5279  0.5612  0.4279
15209SOL    HW147395   5.448   5.990   1.707 -0.6666 -0.7107  1.5781
15209SOL    HW247396   5.327   5.902   1.682 -1.7892  0.5248  2.5416
15210SOL     OW47397   2.931   0.161   8.396 -0.2227  0.1323 -0.0428
15210SOL    HW147398   2.905   0.128   8.310  2.8449 -1.5338 -0.4772
15210SOL    HW247399   2.950   0.254   8.381  2.0125 -0.5066 -1.7180
15211SOL     OW47400   7.369   5.283   0.947 -0.2016  0.3219  0.2662
15211SOL    HW147401   7.422   5.203   0.944  0.2868  0.6535  0.0417
15211SOL    HW247402   7.389   5.322   1.033  2.6672  2.2906 -1.1550
15212SOL     OW47403   4.085   3.522   1.773  0.1852 -0.3397 -0.2092
15212SOL    HW147404   4.076   3.427   1.775 -0.0930 -0.3511 -1.3603
15212SOL    HW247405   4.097   3.547   1.865  0.6871 -1.5174  0.0608
15213SOL     OW47406   0.612   5.058   1.287 -0.4456  0.4487 -0.2928
15213SOL    HW147407   0.559   5.108   1.225 -3.1065  1.0050  2.2278
15213SOL    HW247408   0.549   5.004   1.334  1.5803 -0.7047  1.2803
15214SOL     OW47409   3.592   0.451   4.900 -0.0493  0.6565  0.9053
15214SOL    HW147410   3.610   0.357   4.889 -2.2655  0.5141 -3.4206
15214SOL    HW247411   3.519   0.453   4.962 -0.5338 -0.5615  0.4044
15215SOL     OW47412   2.746   0.548   7.367 -0.3826  0.4480  0.3201
15215SOL    HW147413   2.765   0.641   7.378  0.0051  0.4517 -0.3541
15215SOL    HW247414   2.708   0.541   7.279  0.9315 -0.2269 -0.2114
15216SOL     OW47415   6.176   8.810   6.052  0.0532  0.6402  0.1506
15216SOL    HW147416   6.164   8.852   6.137 -1.4755 -1.5251  1.0909
15216SOL    HW247417   6.097   8.830   6.003  0.6436  1.3354 -0.5410
15217SOL     OW47418   4.649   5.653   1.799 -0.0135  0.0651  0.5330
15217SOL    HW147419   4.626   5.699   1.880 -0.6025  0.3695  0.1995
15217SOL    HW247420   4.617   5.710   1.729 -0.0015 -0.4511  0.0967
15218SOL     OW47421   2.025   4.907   3.473 -0.2120 -0.0390  0.2311
15218SOL    HW147422   2.074   4.828   3.496 -0.2494  0.2849  1.5487
15218SOL    HW247423   2.085   4.959   3.419  0.0611 -0.6552 -0.0611
15219SOL     OW47424   5.248   6.291   3.196 -0.4868  0.7091 -0.6412
15219SOL    HW147425   5.227   6.289   3.103  1.1927 -0.0978 -1.0331
15219SOL    HW247426   5.167   6.263   3.239 -0.9501 -0.0045 -1.9154
15220SOL     OW47427   0.909   0.956   2.609  0.3572  0.0096 -0.7439
15220SOL    HW147428   0.968   0.976   2.681 -1.4892  2.2866  0.2812
15220SOL    HW247429   0.947   1.002   2.534 -0.6546  2.5766  0.2068
15221SOL     OW47430   3.691   5.690   5.606  0.4335 -0.0282 -0.0492
15221SOL    HW147431   3.719   5.758   5.546  0.0619  1.2407  1.1467
15221SOL    HW247432   3.772   5.653   5.640  0.6994  1.2872  0.8506
15222SOL     OW47433   6.956   9.173   0.111 -0.3809 -0.3605  0.0219
15222SOL    HW147434   7.015   9.110   0.153 -2.4292 -3.2471 -1.1100
15222SOL    HW247435   6.869   9.150   0.144 -1.3489  1.0692 -1.4163
15223SOL     OW47436   8.722   8.260   1.759 -0.3769 -0.1343 -0.2918
15223SOL    HW147437   8.680   8.343   1.736 -1.1416 -0.4610 -0.1056
15223SOL    HW247438   8.801   8.285   1.807 -1.3514  0.4900  1.0579
15224SOL     OW47439   4.094   1.992   2.407 -0.0510  0.1413  0.4065
15224SOL    HW147440   4.149   1.914   2.400  0.1716  0.2284  1.0787
15224SOL    HW247441   4.016   1.971   2.357  0.4958 -0.0704 -0.3883
15225SOL     OW47442   8.484   8.436   7.446  0.0553  1.0526 -0.0691
15225SOL    HW147443   8.495   8.355   7.396 -1.8743  1.3593 -1.1369
15225SOL    HW247444   8.493   8.410   7.537 -0.9409 -0.4966 -0.3599
15226SOL     OW47445   3.299   2.123   9.055 -0.1093  0.2303  0.0031
15226SOL    HW147446   3.296   2.093   8.964  3.2844  0.1077 -0.1815
15226SOL    HW247447   3.239   2.064   9.101 -1.4977 -0.0497 -2.0286
15227SOL     OW47448   2.435   7.318   0.984 -0.0336 -0.2771 -0.4185
15227SOL    HW147449   2.374   7.278   0.921 -0.4855 -0.9154  0.4015
15227SOL    HW247450   2.492   7.247   1.011 -0.0531 -0.0883  0.1362
15228SOL     OW47451   4.586   8.208   2.468 -0.1333 -0.2098 -0.2734
15228SOL    HW147452   4.501   8.205   2.424 -0.5206  1.5015  0.2914
15228SOL    HW247453   4.566   8.229   2.559  0.8257 -1.1026  0.1661
15229SOL     OW47454   7.566   6.004   2.827  0.6338 -0.1031 -0.7001
15229SOL    HW147455   7.655   5.988   2.860  0.9352 -0.0400 -1.4525
15229SOL    HW247456   7.514   5.932   2.862  0.7878  0.3128  0.4472
15230SOL     OW47457   2.693   3.326   9.175  0.3911  0.2151  0.1723
15230SOL    HW147458   2.633   3.397   9.153 -0.2797 -0.4330 -0.1157
15230SOL    HW247459   2.707   3.335   9.269  0.0640  0.5445  0.1924
15231SOL     OW47460   9.123   3.624   0.692  0.4213 -0.1704 -0.0521
15231SOL    HW147461   9.156   3.543   0.730 -0.8566 -1.6168 -1.8650
15231SOL    HW247462   9.139   3.615   0.598 -2.3846  0.3169 -0.6652
15232SOL     OW47463   1.851   0.650   0.641  0.9638  0.0824 -0.0571
15232SOL    HW147464   1.827   0.603   0.561  1.2317  1.3347 -0.8955
15232SOL    HW247465   1.920   0.596   0.681  1.5626 -0.0434 -1.2163
15233SOL     OW47466   4.407   9.149   2.251 -0.3285 -0.5345  0.4591
15233SOL    HW147467   4.500   9.153   2.229 -0.5880  0.9675 -0.4993
15233SOL    HW247468   4.394   9.220   2.314 -1.0325  0.0354 -0.3128
15234SOL     OW47469   5.363   0.210   5.838  0.1832 -0.1506 -0.6708
15234SOL    HW147470   5.336   0.294   5.877 -1.5401 -0.8188 -0.3064
15234SOL    HW247471   5.449   0.194   5.875 -0.0575  0.7889  0.3765
15235SOL     OW47472   7.014   7.177   5.927 -0.6110 -0.2954 -0.0783
15235SOL    HW147473   7.018   7.082   5.932  1.4631 -0.2604 -0.1800
15235SOL    HW247474   6.930   7.200   5.967 -0.9112 -2.1212  0.4203
15236SOL     OW47475   2.378   7.539   4.456 -0.1307 -0.0473 -0.5389
15236SOL    HW147476   2.310   7.472   4.462  0.4005 -0.4723  1.5960
15236SOL    HW247477   2.452   7.502   4.504  0.1625  2.0710  0.7675
15237SOL     OW47478   5.413   9.717   3.266  0.8060  0.5724  0.3824
15237SOL    HW147479   5.416   9.813   3.266  1.3735  0.5817  2.2041
15237SOL    HW247480   5.501   9.690   3.240  1.1668  0.5716  1.5636
15238SOL     OW47481   5.913   5.660   1.606  0.5452 -0.0107 -0.1434
15238SOL    HW147482   5.840   5.602   1.582  0.7123 -0.9732  1.4755
15238SOL    HW247483   5.875   5.720   1.670  0.6274  1.0509 -1.0653
15239SOL     OW47484   9.020   2.863   9.447  0.5558  0.1709  0.5090
15239SOL    HW147485   9.098   2.885   9.497  0.3054 -0.2779  1.1055
15239SOL    HW247486   9.028   2.915   9.366  1.2794  0.4056  0.7226
15240SOL     OW47487   3.898   0.613   5.073 -0.0527  0.4562 -0.7477
15240SOL    HW147488   3.972   0.669   5.051  0.9645 -1.0807 -1.4673
15240SOL    HW247489   3.906   0.538   5.013 -0.9120 -0.8145  0.6401
15241SOL     OW47490   9.658   3.578   4.224 -0.4497 -0.1131  1.0032
15241SOL    HW147491   9.603   3.633   4.279  0.2606  2.0539 -0.3160
15241SOL    HW247492   9.611   3.572   4.141 -0.2087 -0.9490  0.9229
15242SOL     OW47493   8.851   2.581   5.719 -0.1935  0.3068  0.0859
15242SOL    HW147494   8.763   2.558   5.690 -0.8349  1.5189  0.9737
15242SOL    HW247495   8.886   2.501   5.756 -1.7514  0.2935  1.6527
15243SOL     OW47496   9.407   3.210   7.626 -0.0459  0.1358 -0.1639
15243SOL    HW147497   9.409   3.297   7.587 -0.3035  1.1365  1.9116
15243SOL    HW247498   9.498   3.191   7.647  0.0996 -0.4257 -1.2333
15244SOL     OW47499   5.993   9.610   3.444  0.0715 -0.2286  0.1324
15244SOL    HW147500   5.931   9.540   3.465 -1.1610  1.4044  2.3279
15244SOL    HW247501   6.065   9.598   3.507  0.3454 -0.1209 -0.1583
15245SOL     OW47502   9.163   5.342   6.364 -0.6138  0.2454  0.0778
15245SOL    HW147503   9.128   5.313   6.448  0.0224 -0.2032  0.1924
15245SOL    HW247504   9.164   5.438   6.370 -2.6504  0.3352 -0.2791
15246SOL     OW47505   0.984   6.097   2.588 -0.6936 -0.6569 -0.2236
15246SOL    HW147506   0.943   6.092   2.674  0.1629  0.5322  0.2791
15246SOL    HW247507   0.995   6.191   2.572  0.0203 -0.8918 -1.2093
15247SOL     OW47508   6.790   7.886   4.875  0.2841 -0.2841  0.5841
15247SOL    HW147509   6.740   7.859   4.952 -1.1222  0.4556 -0.0303
15247SOL    HW247510   6.724   7.892   4.805  1.4668 -0.5561 -0.5790
15248SOL     OW47511   8.241   2.630   2.405  0.2226  0.0233 -0.2768
15248SOL    HW147512   8.178   2.695   2.435  1.0021  0.8402 -0.3481
15248SOL    HW247513   8.222   2.551   2.457 -1.4273 -0.0495 -0.9486
15249SOL     OW47514   8.644   8.003   5.393  0.6970 -0.3302 -0.1498
15249SOL    HW147515   8.586   7.948   5.445 -0.1841  1.9258  1.4398
15249SOL    HW247516   8.652   8.084   5.444  1.7347  1.1034 -2.4193
15250SOL     OW47517   1.699   7.432   6.143  0.6517  0.1407  0.1946
15250SOL    HW147518   1.605   7.438   6.130  0.5810 -0.5898  0.2953
15250SOL    HW247519   1.737   7.493   6.080  0.0259  2.3823  1.8593
15251SOL     OW47520   7.686   2.655   4.853 -0.0865 -0.3886  0.0336
15251SOL    HW147521   7.646   2.727   4.803  0.6535  0.4360  0.6158
15251SOL    HW247522   7.759   2.695   4.899  0.9830 -1.7380 -0.4447
15252SOL     OW47523   1.540   1.548   6.852 -0.4069 -0.7140  0.2120
15252SOL    HW147524   1.571   1.605   6.782 -0.3424 -1.4167 -0.3510
15252SOL    HW247525   1.612   1.487   6.867 -0.2715 -0.3328  1.1653
15253SOL     OW47526   8.346   7.915   8.520 -0.7935  0.0060  0.3168
15253SOL    HW147527   8.265   7.873   8.550 -1.6983  1.0027 -0.6643
15253SOL    HW247528   8.383   7.852   8.458 -2.9896  1.2207 -2.4176
15254SOL     OW47529   0.088   9.596   3.302 -0.4339 -0.9288  0.4505
15254SOL    HW147530   0.073   9.584   3.208  0.8132 -1.5049  0.3065
15254SOL    HW247531   0.153   9.666   3.307  0.3539 -1.6727  0.8250
15255SOL     OW47532   5.127   7.386   1.448  0.0621 -0.0118 -0.2266
15255SOL    HW147533   5.070   7.313   1.423  0.0075 -0.6410  1.5895
15255SOL    HW247534   5.213   7.346   1.460  0.1267  0.2894  0.3489
15256SOL     OW47535   7.461   8.441   8.570  0.1493 -0.1936  0.0301
15256SOL    HW147536   7.483   8.530   8.597 -2.1336  0.5894 -0.4704
15256SOL    HW247537   7.439   8.396   8.652 -1.4156  0.5687  0.0685
15257SOL     OW47538   1.288   0.177   4.488  0.3574  0.2048  0.2252
15257SOL    HW147539   1.246   0.113   4.430 -1.0871 -0.0815  1.5253
15257SOL    HW247540   1.335   0.124   4.552  1.0946  0.4954 -0.0701
15258SOL     OW47541   1.592   0.723   1.947 -0.2391  0.5174  0.4185
15258SOL    HW147542   1.510   0.686   1.913  0.5797 -1.0609  0.0749
15258SOL    HW247543   1.630   0.653   1.999  1.5457  0.7209 -0.5422
15259SOL     OW47544   0.800   6.777   2.206  0.1907  0.2330  0.3334
15259SOL    HW147545   0.752   6.746   2.283  1.7225 -0.4688  1.0481
15259SOL    HW247546   0.869   6.712   2.192 -0.8978 -0.4695 -2.5396
15260SOL     OW47547   7.968   5.549   1.732  0.1885 -0.3182  0.0050
15260SOL    HW147548   7.925   5.586   1.655 -0.5803  1.5412  1.2654
15260SOL    HW247549   8.019   5.621   1.769 -0.5734 -0.7414  2.0125
15261SOL     OW47550   7.761   5.572   3.697 -0.5970 -0.8347 -0.0876
15261SOL    HW147551   7.809   5.502   3.652  0.6492 -0.1761  0.1463
15261SOL    HW247552   7.705   5.610   3.630  2.4214  1.2100 -1.6924
15262SOL     OW47553   6.268   1.427   0.987 -0.0019  0.1098 -0.4403
15262SOL    HW147554   6.256   1.433   1.082 -0.4528 -0.1210 -0.4796
15262SOL    HW247555   6.192   1.377   0.957  0.2763 -0.0447 -0.8913
15263SOL     OW47556   6.688   2.841   0.403 -0.3483 -0.2136  0.4222
15263SOL    HW147557   6.634   2.833   0.481 -1.0537  1.0359  0.0877
15263SOL    HW247558   6.733   2.925   0.413 -0.4861 -0.0157 -0.5139
15264SOL     OW47559   6.915   0.902   4.391 -0.3530 -0.7482  0.4462
15264SOL    HW147560   6.847   0.846   4.354  0.7744 -1.0542 -1.3152
15264SOL    HW247561   6.869   0.983   4.415 -1.3027 -0.7951 -1.0626
15265SOL     OW47562   2.535   8.543   0.881 -0.2647 -0.6847 -0.1271
15265SOL    HW147563   2.605   8.539   0.946 -0.0233  0.6145 -0.2806
15265SOL    HW247564   2.497   8.455   0.881  0.8224 -1.1757  0.5490
15266SOL     OW47565   5.536   6.112   7.574 -0.1056 -0.4091  0.6283
15266SOL    HW147566   5.613   6.100   7.517  1.3871 -0.1644  2.5022
15266SOL    HW247567   5.461   6.101   7.515  1.3462  0.1840 -1.4573
15267SOL     OW47568   5.667   8.130   9.489 -0.4277 -0.1089  0.4237
15267SOL    HW147569   5.756   8.097   9.498 -0.2421  0.3240  0.2131
15267SOL    HW247570   5.678   8.222   9.462 -0.9251  0.2080  1.2579
15268SOL     OW47571   1.086   6.788   5.821  0.3523 -0.5889 -0.2443
15268SOL    HW147572   0.995   6.800   5.848 -0.0174  0.7176 -1.9277
15268SOL    HW247573   1.109   6.701   5.854 -1.3089 -0.7184  0.7058
15269SOL     OW47574   7.162   0.144   7.255  0.1371 -0.0410 -0.2133
15269SOL    HW147575   7.087   0.166   7.311  0.2808 -0.2603  0.0637
15269SOL    HW247576   7.145   0.054   7.228  0.6799 -0.3434  0.4506
15270SOL     OW47577   9.597   4.582   3.975 -0.2224 -0.0592  0.0322
15270SOL    HW147578   9.589   4.676   3.990 -0.5383 -0.1144  0.2063
15270SOL    HW247579   9.666   4.554   4.036  0.6020  0.2299 -0.7369
15271SOL     OW47580   3.631   9.756   0.247  0.0228 -0.3155 -0.4250
15271SOL    HW147581   3.642   9.830   0.187 -0.7543 -0.9002 -1.3198
15271SOL    HW247582   3.617   9.681   0.190  1.3872 -1.2928  0.4423
15272SOL     OW47583   7.015   8.243   6.756 -0.5771  0.3065 -0.1289
15272SOL    HW147584   6.955   8.189   6.706  0.5026 -0.4311 -0.6671
15272SOL    HW247585   6.995   8.224   6.848  0.3425 -1.7085 -0.2946
15273SOL     OW47586   0.269   6.416   5.679 -0.4538 -0.1349  0.4056
15273SOL    HW147587   0.350   6.372   5.654 -0.3748 -0.1695  0.7124
15273SOL    HW247588   0.287   6.509   5.665 -0.7808 -0.2267 -0.6913
15274SOL     OW47589   2.348   8.199   4.986  0.4978 -0.4477 -0.0662
15274SOL    HW147590   2.256   8.225   4.981  1.4071  3.0169 -1.2421
15274SOL    HW247591   2.369   8.205   5.079  0.4250  2.6691 -0.1584
15275SOL     OW47592   1.460   8.747   7.251  0.5087  0.4942  0.4353
15275SOL    HW147593   1.544   8.782   7.223  0.5031  0.4856  0.4083
15275SOL    HW247594   1.466   8.653   7.237 -0.0556  0.6526 -1.0159
15276SOL     OW47595   8.196   8.854   8.481 -0.5126 -0.4769 -0.0775
15276SOL    HW147596   8.167   8.848   8.572 -0.6548  0.7180 -0.0391
15276SOL    HW247597   8.291   8.862   8.487 -0.4199 -1.3685 -0.0928
15277SOL     OW47598   2.815   1.692   8.381  0.0501  0.1530 -0.4622
15277SOL    HW147599   2.804   1.755   8.452 -0.7327 -0.6346  0.1468
15277SOL    HW247600   2.905   1.660   8.391 -0.0913 -0.0444  0.2755
15278SOL     OW47601   1.086   4.698   0.392  0.1820 -0.2969 -0.0628
15278SOL    HW147602   1.026   4.687   0.466  0.7795  0.5761  0.5679
15278SOL    HW247603   1.173   4.686   0.430  0.6096  1.9451 -0.2202
15279SOL     OW47604   1.374   6.877   1.706  0.6885 -0.3829 -0.2532
15279SOL    HW147605   1.319   6.947   1.742  1.3142 -0.2944  0.5438
15279SOL    HW247606   1.435   6.855   1.776 -1.4184 -3.8873  0.7233
15280SOL     OW47607   2.648   3.847   1.606 -0.5089 -0.3209  0.4025
15280SOL    HW147608   2.700   3.840   1.526 -0.0885  1.2804  0.5073
15280SOL    HW247609   2.681   3.776   1.662 -0.5398 -1.2140 -0.6606
15281SOL     OW47610   9.498   9.502   3.342  0.1180 -0.0115  0.4414
15281SOL    HW147611   9.425   9.537   3.292 -0.6600 -0.8505  0.9411
15281SOL    HW247612   9.555   9.577   3.359 -0.8596  0.7503  0.4283
15282SOL     OW47613   2.871   1.914   7.608 -0.4287  0.0694 -0.4969
15282SOL    HW147614   2.904   1.825   7.620 -1.5231 -0.2947 -0.0902
15282SOL    HW247615   2.893   1.936   7.517  1.6931  0.1959 -0.0072
15283SOL     OW47616   2.416   5.527   8.238  0.0128 -0.3854  0.4623
15283SOL    HW147617   2.332   5.572   8.228  0.0592 -0.4746 -0.4977
15283SOL    HW247618   2.473   5.568   8.173  0.0150 -1.8894 -0.5476
15284SOL     OW47619   6.843   1.973   6.784 -0.2466  0.3236  0.5463
15284SOL    HW147620   6.901   2.015   6.848  0.3814  1.3346 -0.6505
15284SOL    HW247621   6.850   1.880   6.804  0.4437  0.5656  1.5369
15285SOL     OW47622   4.682   4.144   3.971 -0.0333  0.4868  0.6821
15285SOL    HW147623   4.746   4.203   4.012  0.7518 -0.6532  1.1609
15285SOL    HW247624   4.598   4.189   3.981  0.3306  0.8813  2.3477
15286SOL     OW47625   5.767   0.272   4.826  0.5499 -0.1671 -0.5370
15286SOL    HW147626   5.742   0.208   4.893 -1.6934  0.7204 -0.4489
15286SOL    HW247627   5.684   0.309   4.796  1.6483  1.0477 -2.2446
15287SOL     OW47628   2.397   5.404   9.317 -0.1728  0.1629  0.8280
15287SOL    HW147629   2.342   5.425   9.392  1.1428  0.0901  1.8386
15287SOL    HW247630   2.386   5.479   9.257 -0.7123  0.5362  1.3858
15288SOL     OW47631   0.963   0.534   8.260  0.2499 -0.2857  0.1928
15288SOL    HW147632   0.887   0.556   8.314 -0.9690 -1.1920 -1.0657
15288SOL    HW247633   1.028   0.500   8.321 -0.9156 -0.8653  1.1491
15289SOL     OW47634   4.364   4.353   1.341  0.4244  0.3418  0.0730
15289SOL    HW147635   4.289   4.329   1.286  0.8506  0.3831 -0.5243
15289SOL    HW247636   4.356   4.448   1.351  2.6352  1.0502 -3.3871
15290SOL     OW47637   1.225   0.299   4.998 -0.5902  0.5459 -0.2863
15290SOL    HW147638   1.266   0.328   4.916 -2.5540  1.0715 -1.1437
15290SOL    HW247639   1.213   0.379   5.049  0.0831  0.2992  0.2732
15291SOL     OW47640   0.948   8.581   1.106  0.1425 -0.2004 -0.1056
15291SOL    HW147641   0.937   8.545   1.018  2.0366  0.2034 -0.5440
15291SOL    HW247642   1.003   8.516   1.151 -2.3563 -1.3723  1.4472
15292SOL     OW47643   7.646   7.103   5.722 -0.2777 -0.2167  0.1569
15292SOL    HW147644   7.588   7.110   5.798 -0.8849  0.3986 -0.3513
15292SOL    HW247645   7.732   7.132   5.755 -0.2191 -1.2289  0.9385
15293SOL     OW47646   7.819   8.078   2.649  0.1976  0.2036 -0.6863
15293SOL    HW147647   7.728   8.057   2.628  0.7083 -2.6088 -0.4909
15293SOL    HW247648   7.868   8.056   2.570  0.7330  1.9563 -0.8901
15294SOL     OW47649   3.765   6.178   5.893 -0.2591 -0.1209 -0.2481
15294SOL    HW147650   3.858   6.189   5.873 -0.1045  0.7481  0.8566
15294SOL    HW247651   3.720   6.239   5.835  0.1206  1.7474  1.3211
15295SOL     OW47652   7.319   5.432   7.701 -0.1341 -0.0262  0.3822
15295SOL    HW147653   7.247   5.494   7.693  0.8699  1.1172  0.0286
15295SOL    HW247654   7.276   5.346   7.705 -1.4878  0.5945 -0.2525
15296SOL     OW47655   6.897   7.906   3.213  0.2081 -0.1103  0.2271
15296SOL    HW147656   6.989   7.895   3.189  0.7065 -1.3246  2.4445
15296SOL    HW247657   6.899   7.968   3.286 -0.6563 -0.6081  0.6859
15297SOL     OW47658   9.715   5.640   6.351  0.0896 -0.6118  0.1163
15297SOL    HW147659   9.786   5.602   6.403  0.9207  0.0222 -0.5315
15297SOL    HW247660   9.728   5.734   6.358 -1.7796 -0.4107  1.4622
15298SOL     OW47661   5.985   3.497   9.178 -0.4768 -0.4909 -0.4063
15298SOL    HW147662   6.007   3.577   9.129 -1.0518 -0.4141 -0.5360
15298SOL    HW247663   6.056   3.436   9.157  0.2826  0.1785  0.1468
15299SOL     OW47664   4.545   4.479   7.563  0.0517 -0.2708 -0.5962
15299SOL    HW147665   4.586   4.550   7.514 -0.3161  0.3247 -0.0485
15299SOL    HW247666   4.454   4.478   7.533 -0.9106  1.8437  1.9227
15300SOL     OW47667   2.944   8.390   8.562  0.1942 -0.6387  0.0424
15300SOL    HW147668   2.855   8.396   8.597  0.3913  2.0528  0.3114
15300SOL    HW247669   2.990   8.335   8.625 -0.4440  0.8643  1.9112
15301SOL     OW47670   8.752   8.496   5.066  0.7621  0.3280 -0.2034
15301SOL    HW147671   8.732   8.439   4.992  0.3684 -1.0987  0.9727
15301SOL    HW247672   8.730   8.445   5.144 -2.7015  3.1668  0.9415
15302SOL     OW47673   2.713   2.506   9.616  0.0709 -0.6659  0.0698
15302SOL    HW147674   2.671   2.588   9.590  1.4319  0.4602  1.2305
15302SOL    HW247675   2.768   2.483   9.542  0.4201  0.0164  0.1067
15303SOL     OW47676   3.671   7.084   7.145 -0.0817  0.8580  0.0383
15303SOL    HW147677   3.755   7.124   7.166 -0.6652  1.3505  1.5114
15303SOL    HW247678   3.610   7.157   7.139 -0.4535  0.4983 -0.9439
15304SOL     OW47679   6.112   9.261   6.550  0.6267  0.5277  0.2362
15304SOL    HW147680   6.070   9.328   6.604  0.5583  0.1898  0.6136
15304SOL    HW247681   6.071   9.179   6.578  1.4073  0.2128  0.4797
15305SOL     OW47682   1.250   7.506   3.273  0.4257  0.3002 -0.2444
15305SOL    HW147683   1.306   7.522   3.349 -0.0028  0.7337 -0.0167
15305SOL    HW247684   1.195   7.584   3.267 -0.3142 -0.2199 -0.3213
15306SOL     OW47685   6.104   4.371   1.818  0.7192 -0.0203  0.0808
15306SOL    HW147686   6.198   4.385   1.823  1.0739 -1.8647 -0.5150
15306SOL    HW247687   6.082   4.328   1.901 -0.0395  2.3091  1.1754
15307SOL     OW47688   7.083   1.560   4.086  0.3545  0.4340  0.1531
15307SOL    HW147689   7.096   1.491   4.021 -0.4511  1.4041 -1.0727
15307SOL    HW247690   7.170   1.598   4.098  0.6644 -0.3046  0.2845
15308SOL     OW47691   8.099   3.831   4.015  0.0803  0.3502  0.6614
15308SOL    HW147692   8.105   3.750   4.066 -0.1287  0.0598  0.2312
15308SOL    HW247693   8.054   3.893   4.072  1.4057  0.5682  1.4902
15309SOL     OW47694   1.813   0.485   7.779 -0.2642  0.2079 -0.0881
15309SOL    HW147695   1.846   0.504   7.691 -1.3845  0.7231 -0.4180
15309SOL    HW247696   1.889   0.492   7.836  0.7723 -1.4601 -1.1816
15310SOL     OW47697   7.846   8.867   1.076  0.4194  0.0460 -0.1053
15310SOL    HW147698   7.920   8.811   1.102  0.3458 -0.5298 -1.0913
15310SOL    HW247699   7.869   8.954   1.108  1.0044 -0.3521  0.5751
15311SOL     OW47700   7.599   3.781   4.098  0.1729  0.3652 -0.0129
15311SOL    HW147701   7.594   3.820   4.185  0.1561 -0.4866  0.3775
15311SOL    HW247702   7.674   3.825   4.057  2.3231 -1.5253  1.6448
15312SOL     OW47703   9.692   4.503   4.501 -0.0555  0.0920 -0.3789
15312SOL    HW147704   9.723   4.593   4.488 -0.8590  0.2984 -0.9691
15312SOL    HW247705   9.606   4.501   4.459 -0.0105 -0.9846 -0.4527
15313SOL     OW47706   1.535   1.547   0.963  0.3966  0.0950  0.6450
15313SOL    HW147707   1.623   1.512   0.977  0.5825  0.5133  0.5230
15313SOL    HW247708   1.548   1.625   0.911 -0.2400 -1.1374 -1.4640
15314SOL     OW47709   9.332   1.788   9.325  0.2713 -0.3130 -0.3893
15314SOL    HW147710   9.333   1.864   9.384 -0.2279 -1.6237  1.4036
15314SOL    HW247711   9.416   1.791   9.279  0.9185  0.4622  0.8027
15315SOL     OW47712   8.372   2.987   9.278  0.1463 -0.1779  0.1479
15315SOL    HW147713   8.407   2.905   9.311 -1.2880 -1.6326 -1.6911
15315SOL    HW247714   8.406   2.994   9.189 -0.8513  0.4879 -0.2065
15316SOL     OW47715   5.761   8.619   5.201  0.3850  0.5331 -0.0066
15316SOL    HW147716   5.842   8.661   5.229  0.6088  0.1070  0.0016
15316SOL    HW247717   5.785   8.526   5.191 -0.2054  0.3297  0.4180
15317SOL     OW47718   5.985   0.578   3.948  0.2324 -0.4727  0.3182
15317SOL    HW147719   5.909   0.548   3.997 -1.1757  1.0882 -0.7906
15317SOL    HW247720   5.948   0.631   3.877  2.1718 -2.1156 -2.0797
15318SOL     OW47721   7.240   8.930   5.701  0.2662  0.2408  0.3093
15318SOL    HW147722   7.318   8.884   5.731  0.0645  0.4358  1.1607
15318SOL    HW247723   7.198   8.962   5.781 -0.5568  0.3479 -0.1479
15319SOL     OW47724   7.899   7.966   7.174 -0.3420 -0.4016  0.0950
15319SOL    HW147725   7.915   7.873   7.161 -1.3902 -0.5404 -0.2860
15319SOL    HW247726   7.863   7.996   7.090 -1.7603 -0.0651  0.7993
15320SOL     OW47727   9.353   6.718   0.026  0.1264  0.0418  0.2592
15320SOL    HW147728   9.325   6.686   0.111  0.6780 -0.8232  0.1196
15320SOL    HW247729   9.418   6.655  -0.004 -0.5720 -0.0733 -1.1225
15321SOL     OW47730   1.649   4.648   0.134 -0.2578 -0.2298  0.1330
15321SOL    HW147731   1.571   4.686   0.173  0.0554  1.1144 -0.4850
15321SOL    HW247732   1.617   4.575   0.081 -0.8961 -0.7403  1.1869
15322SOL     OW47733   4.722   3.989   5.502  0.1426 -0.1309 -0.0706
15322SOL    HW147734   4.685   4.069   5.465 -0.5151 -0.1433  0.5331
15322SOL    HW247735   4.663   3.919   5.472 -0.1531 -0.1915  0.6251
15323SOL     OW47736   8.164   4.228   6.568  0.4771  0.3140  0.5176
15323SOL    HW147737   8.193   4.296   6.629 -1.1142  0.5903  1.0029
15323SOL    HW247738   8.111   4.275   6.503 -0.8491 -0.4648  0.9964
15324SOL     OW47739   4.489   5.483   0.306 -0.0129  0.2498  0.2545
15324SOL    HW147740   4.479   5.568   0.263  1.0082  0.1496 -0.2261
15324SOL    HW247741   4.467   5.419   0.239  2.9265  0.0479 -0.6565
15325SOL     OW47742   7.624   2.137   4.917  0.3060 -0.1623  0.1387
15325SOL    HW147743   7.645   2.060   4.970  0.5466  0.3718  0.8478
15325SOL    HW247744   7.530   2.132   4.905  0.4017 -0.9181 -0.3996
15326SOL     OW47745   5.512   7.977   5.574 -0.3385  0.2037 -0.3888
15326SOL    HW147746   5.589   7.965   5.518  0.2632  0.1376  0.4258
15326SOL    HW247747   5.505   7.895   5.623  0.3803  0.9900  1.0930
15327SOL     OW47748   4.353   4.529   7.958  0.1243  0.3196  0.9141
15327SOL    HW147749   4.329   4.617   7.929 -0.0845  0.1106  0.4475
15327SOL    HW247750   4.281   4.473   7.929 -0.1629  0.1174  1.9644
15328SOL     OW47751   2.989   7.549   5.342  0.4107  0.6161  0.0929
15328SOL    HW147752   3.026   7.633   5.316 -0.3280  0.9134 -0.0359
15328SOL    HW247753   2.909   7.572   5.390 -0.3094 -0.0314 -0.7620
15329SOL     OW47754   8.931   2.688   1.113 -0.9068 -0.0094  0.5007
15329SOL    HW147755   8.919   2.620   1.179  1.0057 -1.7987 -0.8679
15329SOL    HW247756   8.904   2.769   1.156 -3.2222 -1.5843  2.2088
15330SOL     OW47757   5.602   8.812   2.264 -0.1452 -0.2831 -0.6692
15330SOL    HW147758   5.595   8.722   2.297  0.0521 -0.4697 -1.1213
15330SOL    HW247759   5.521   8.854   2.293 -0.2974 -0.6458 -0.5563
15331SOL     OW47760   6.537   4.045   0.935 -0.0713 -0.6984 -0.7341
15331SOL    HW147761   6.459   4.063   0.882  0.6596  0.1103 -1.5918
15331SOL    HW247762   6.513   4.072   1.023 -0.6040  0.0440 -1.0904
15332SOL     OW47763   9.808   1.196   2.285 -0.7708  0.1318  0.0125
15332SOL    HW147764   9.863   1.231   2.215  0.1986 -0.3784  0.4976
15332SOL    HW247765   9.728   1.167   2.241  0.6326 -2.0697 -1.2579
15333SOL     OW47766   6.766   2.188   6.612  0.2291  0.6414  0.5962
15333SOL    HW147767   6.788   2.247   6.684  0.7075 -0.1715  1.1376
15333SOL    HW247768   6.780   2.100   6.648 -1.2078  0.1589  0.0589
15334SOL     OW47769   6.737   3.997   8.492  0.6455 -0.4305 -0.2547
15334SOL    HW147770   6.752   4.026   8.582  0.5568 -0.0287 -0.3709
15334SOL    HW247771   6.824   3.974   8.460  0.5087 -2.0952  0.4494
15335SOL     OW47772   3.806   8.386   5.116 -0.3802 -0.6647 -0.2554
15335SOL    HW147773   3.837   8.358   5.030  2.1043 -0.1550  0.4012
15335SOL    HW247774   3.866   8.344   5.178 -0.8274  0.6237  1.1056
15336SOL     OW47775   6.013   0.180   0.760  0.5712 -0.7793  0.2156
15336SOL    HW147776   5.961   0.125   0.701 -1.0613 -0.9889  1.7943
15336SOL    HW247777   5.997   0.270   0.730  0.2351 -0.9217 -0.0307
15337SOL     OW47778   6.876   8.772   7.828  0.5266 -0.4526  0.5071
15337SOL    HW147779   6.903   8.683   7.849 -2.9239 -1.2600  2.0603
15337SOL    HW247780   6.848   8.768   7.736  2.8398 -0.1942 -0.2968
15338SOL     OW47781   8.698   7.192   3.843 -0.0154  0.0772 -0.1871
15338SOL    HW147782   8.741   7.256   3.787 -0.0736 -0.3334 -0.7129
15338SOL    HW247783   8.689   7.114   3.787  0.3755 -0.5036  0.5465
15339SOL     OW47784   5.136   8.685   0.709  0.1039  0.0590  0.1371
15339SOL    HW147785   5.203   8.715   0.770  0.9386  1.5640 -1.4413
15339SOL    HW247786   5.185   8.657   0.632 -1.0251  0.0823 -0.6061
15340SOL     OW47787   0.073   7.437   2.322  0.2648 -0.0791  0.2729
15340SOL    HW147788   0.059   7.531   2.308 -0.0892  0.2603  2.5804
15340SOL    HW247789   0.165   7.430   2.347  0.9453 -0.6998 -2.1186
15341SOL     OW47790   6.357   5.347   8.680 -0.0520 -0.0309 -0.2668
15341SOL    HW147791   6.423   5.281   8.658  0.5098  0.9473 -1.6948
15341SOL    HW247792   6.403   5.409   8.737 -0.0813 -0.0028 -0.2736
15342SOL     OW47793   3.249   7.243   0.390 -0.3873 -0.2376  0.3931
15342SOL    HW147794   3.293   7.159   0.382  0.9809  0.5440 -0.6065
15342SOL    HW247795   3.238   7.274   0.300 -0.3038  0.9264  0.7617
15343SOL     OW47796   2.240   0.480   8.988 -0.0591 -0.3648 -0.0291
15343SOL    HW147797   2.278   0.394   8.970 -1.8491 -1.5117  1.3233
15343SOL    HW247798   2.306   0.524   9.042  1.4350 -0.3235 -1.7952
15344SOL     OW47799   4.574   1.980   3.973  0.3072 -0.0015 -0.8541
15344SOL    HW147800   4.635   2.033   3.921 -0.7610  1.0777 -1.0426
15344SOL    HW247801   4.625   1.955   4.050  0.3687  2.8881  0.1845
15345SOL     OW47802   8.014   4.248   7.366 -0.0938 -0.0367  0.0493
15345SOL    HW147803   8.043   4.307   7.296  0.5425 -2.5618 -1.9513
15345SOL    HW247804   7.921   4.235   7.350  0.0330 -0.5442 -0.3016
15346SOL     OW47805   5.714   3.419   8.963  0.2394 -0.2373  0.0684
15346SOL    HW147806   5.664   3.431   8.882  0.9329 -1.4766 -0.5629
15346SOL    HW247807   5.781   3.355   8.941  1.0361  0.1090  1.3765
15347SOL     OW47808   1.978   4.228   6.086  0.0324 -0.1358 -0.1998
15347SOL    HW147809   2.024   4.301   6.044 -0.7288  0.7967  0.5549
15347SOL    HW247810   1.961   4.167   6.015  0.4166  0.5586 -0.9054
15348SOL     OW47811   8.276   5.113   6.144 -0.3059  0.0682 -0.4023
15348SOL    HW147812   8.326   5.195   6.146 -0.9939  0.4966 -0.4883
15348SOL    HW247813   8.312   5.065   6.070  0.3446  0.1290 -0.1357
15349SOL     OW47814   9.758   1.641   5.953 -0.3298  0.1416 -0.9835
15349SOL    HW147815   9.713   1.669   5.873 -0.7426 -2.2023 -1.6363
15349SOL    HW247816   9.803   1.560   5.928  0.0545 -0.2991  1.0111
15350SOL     OW47817   3.764   1.021   3.386  0.5074  0.1441 -0.5209
15350SOL    HW147818   3.730   0.932   3.373  0.0586 -0.2133  2.3637
15350SOL    HW247819   3.844   1.009   3.437  1.5050  1.3341 -1.7557
15351SOL     OW47820   1.949   8.213   9.409  0.2345 -0.5349 -0.0577
15351SOL    HW147821   1.976   8.143   9.349 -0.2983 -1.0684  0.3155
15351SOL    HW247822   1.917   8.167   9.487  2.6892  0.1713  1.4666
15352SOL     OW47823   1.711   9.729   0.770 -0.0424  0.0287 -0.0111
15352SOL    HW147824   1.679   9.734   0.680 -0.1870  3.1837  0.1042
15352SOL    HW247825   1.634   9.746   0.824  0.2837 -0.6080  0.6765
15353SOL     OW47826   9.849   4.776   6.370 -0.2090  0.1406 -0.1269
15353SOL    HW147827   9.874   4.686   6.389 -0.3905  0.4871  1.9909
15353SOL    HW247828   9.896   4.797   6.289  0.1780 -1.6877 -0.4310
15354SOL     OW47829   2.127   8.215   0.635 -0.0911  0.0135 -0.3169
15354SOL    HW147830   2.082   8.299   0.639  0.0838  0.0788  0.2922
15354SOL    HW247831   2.207   8.233   0.585  0.5995  0.5186  0.9284
15355SOL     OW47832   9.784   3.147   8.323  0.2961  0.7857  0.4577
15355SOL    HW147833   9.772   3.234   8.286  0.3473  0.1696 -1.0709
15355SOL    HW247834   9.753   3.155   8.414 -0.3815  2.2037  0.1265
15356SOL     OW47835   4.429   6.949   7.149 -0.2364 -0.0503 -0.0283
15356SOL    HW147836   4.452   6.861   7.181 -0.4922 -0.5161 -1.0669
15356SOL    HW247837   4.401   6.934   7.058  1.8383  1.3795 -0.9704
15357SOL     OW47838   3.131   6.835   4.968  0.5092 -0.0331  0.4724
15357SOL    HW147839   3.114   6.911   4.913 -1.1025  0.7117  1.9313
15357SOL    HW247840   3.122   6.867   5.058  1.2691 -1.6172  1.1514
15358SOL     OW47841   4.178   4.673   9.294  0.0743  0.1261  0.3273
15358SOL    HW147842   4.189   4.596   9.350  1.6318 -0.7171 -1.0605
15358SOL    HW247843   4.085   4.693   9.300 -0.0260 -0.6462  2.2630
15359SOL     OW47844   3.726   0.878   4.598 -0.4952 -0.2782  0.1399
15359SOL    HW147845   3.759   0.799   4.640 -0.4785 -1.0408 -1.2531
15359SOL    HW247846   3.785   0.892   4.524  1.9633  3.2819  2.4811
15360SOL     OW47847   2.331   6.527   4.973  0.1671 -0.2127  0.2294
15360SOL    HW147848   2.337   6.622   4.961 -1.9563  0.0630  1.0170
15360SOL    HW247849   2.326   6.515   5.067  0.1175 -1.1121  0.1204
15361SOL     OW47850   8.841   0.847   7.693  0.3340  0.1287 -0.2461
15361SOL    HW147851   8.778   0.863   7.622 -0.9818 -1.1335  0.5872
15361SOL    HW247852   8.925   0.834   7.647 -0.4142 -0.3126 -1.5648
15362SOL     OW47853   5.877   0.460   9.451  0.1269 -0.1868  0.3734
15362SOL    HW147854   5.963   0.443   9.412 -0.3668 -2.3634  0.0841
15362SOL    HW247855   5.834   0.518   9.388  0.6595 -0.7198 -0.5038
15363SOL     OW47856   5.053   2.633   7.807  0.1013 -0.2278 -0.2348
15363SOL    HW147857   4.970   2.654   7.848  0.9127 -1.0114  1.9128
15363SOL    HW247858   5.041   2.546   7.769  0.2415 -0.7987  1.0039
15364SOL     OW47859   1.795   5.921   0.933 -0.0971  0.9283 -0.5205
15364SOL    HW147860   1.859   5.905   0.863  2.0431 -0.5483  1.5870
15364SOL    HW247861   1.789   6.016   0.939  0.7450  1.0870 -1.7879
15365SOL     OW47862   2.150   9.545   2.745 -0.7500  0.7561  0.6680
15365SOL    HW147863   2.159   9.604   2.820  0.7909 -0.8754  1.8613
15365SOL    HW247864   2.168   9.458   2.781  1.0016  0.0189 -1.7531
15366SOL     OW47865   1.300   0.989   8.179  0.2515 -0.1794  0.1211
15366SOL    HW147866   1.387   1.006   8.143 -0.0819 -1.3567 -1.3120
15366SOL    HW247867   1.239   1.029   8.117 -0.3177 -1.8770 -0.4620
15367SOL     OW47868   0.748   9.658   1.443  0.0352 -0.1480 -0.2599
15367SOL    HW147869   0.654   9.639   1.441  0.2441 -1.4548  1.0945
15367SOL    HW247870   0.767   9.680   1.534  1.3092 -1.4632 -0.1687
15368SOL     OW47871   9.254   8.996   9.129  0.3321 -0.0915 -0.3389
15368SOL    HW147872   9.260   8.925   9.064  0.8054  0.2992 -0.7297
15368SOL    HW247873   9.285   8.955   9.210 -1.6702 -1.0097  0.0201
15369SOL     OW47874   5.579   1.927   1.313  0.1491  0.2273 -0.3838
15369SOL    HW147875   5.641   1.854   1.307 -1.3851 -1.0211 -2.4938
15369SOL    HW247876   5.600   1.970   1.396  3.5530 -0.3283 -0.8366
15370SOL     OW47877   3.266   7.793   5.242 -0.2965  0.0734 -0.0033
15370SOL    HW147878   3.194   7.745   5.202 -0.2255  0.8545 -1.1120
15370SOL    HW247879   3.287   7.744   5.322  0.8506 -2.6976 -1.8582
15371SOL     OW47880   7.110   8.305   4.682 -0.2732  0.3297 -0.2611
15371SOL    HW147881   7.173   8.290   4.752  0.6555 -0.6601 -1.2770
15371SOL    HW247882   7.137   8.387   4.642  1.1571 -0.6631 -1.4473
15372SOL     OW47883   4.683   6.702   5.296  0.2634 -0.5135  0.1633
15372SOL    HW147884   4.755   6.640   5.281  1.0916  0.8157 -1.7320
15372SOL    HW247885   4.723   6.773   5.347  0.6632  0.7305 -1.7678
15373SOL     OW47886   4.795   0.286   5.756 -0.2897 -0.3810  0.1592
15373SOL    HW147887   4.791   0.217   5.823 -0.8202  0.2247  0.7696
15373SOL    HW247888   4.784   0.368   5.806  1.2367  0.2170 -0.4239
15374SOL     OW47889   1.488   4.389   0.529 -0.2431 -0.3047  0.0989
15374SOL    HW147890   1.539   4.454   0.482 -0.2289  0.4899  1.1574
15374SOL    HW247891   1.495   4.310   0.477 -1.4350  0.8859 -2.0118
15375SOL     OW47892   5.083   3.828   4.092  0.0040 -0.2105 -0.8935
15375SOL    HW147893   5.104   3.780   4.172 -0.1409  0.2067 -0.6009
15375SOL    HW247894   5.127   3.780   4.022 -0.6631 -1.1370 -0.6893
15376SOL     OW47895   0.939   4.163   5.011  0.3574  0.2325  0.5864
15376SOL    HW147896   1.018   4.214   5.024 -0.2055  0.8653  1.6273
15376SOL    HW247897   0.870   4.213   5.054 -0.7753  0.0988 -0.9759
15377SOL     OW47898   8.575   8.058   9.534  0.3661  0.3698  0.1832
15377SOL    HW147899   8.632   8.005   9.479 -1.0500  0.2890 -1.2851
15377SOL    HW247900   8.571   8.143   9.489 -2.1673 -0.2198 -0.8818
15378SOL     OW47901   7.234   4.865   4.850 -0.4713  0.4349 -0.5383
15378SOL    HW147902   7.259   4.789   4.902 -0.2099  0.9690  0.1435
15378SOL    HW247903   7.139   4.866   4.852 -0.4788  1.1363  1.0193
15379SOL     OW47904   4.535   0.786   7.942 -0.3106  0.2564  0.3772
15379SOL    HW147905   4.545   0.881   7.936  1.1680  0.3034  2.3752
15379SOL    HW247906   4.462   0.766   7.883  0.0567  2.4634 -0.9576
15380SOL     OW47907   3.204   8.542   2.409 -0.7116  0.1998 -0.3364
15380SOL    HW147908   3.296   8.535   2.434 -0.5436  0.9263 -0.7476
15380SOL    HW247909   3.175   8.451   2.399 -0.9436 -0.2275  3.0274
15381SOL     OW47910   2.190   7.159   1.647 -0.6864 -0.1975 -0.2544
15381SOL    HW147911   2.207   7.130   1.737  1.9087  0.6928 -0.3851
15381SOL    HW247912   2.120   7.224   1.656  1.5297  2.1498  1.6458
15382SOL     OW47913   5.541   8.782   2.688 -0.1421 -0.3384  0.0090
15382SOL    HW147914   5.558   8.700   2.734  2.5273  2.0011  3.8030
15382SOL    HW247915   5.611   8.788   2.623  2.3791  0.6195  2.6024
15383SOL     OW47916   1.605   2.818   0.931 -0.2834 -0.1809 -0.0356
15383SOL    HW147917   1.670   2.748   0.937  1.3358  1.3263  0.9797
15383SOL    HW247918   1.529   2.784   0.979  0.7849 -0.9159  1.2111
15384SOL     OW47919   0.561   9.040   9.714  0.3126  0.2800 -0.2525
15384SOL    HW147920   0.569   9.084   9.799  0.2197  0.5980 -0.4065
15384SOL    HW247921   0.544   8.948   9.736  0.0979  0.3948  0.0723
15385SOL     OW47922   5.422   9.310   4.780  0.4210 -0.1784  0.7303
15385SOL    HW147923   5.499   9.281   4.730  0.7025 -3.3723  2.7703
15385SOL    HW247924   5.458   9.370   4.845  0.8446 -0.0455  0.3862
15386SOL     OW47925   9.607   8.161   9.795  0.6341  0.5733 -0.7218
15386SOL    HW147926   9.671   8.091   9.806  0.4725  0.1691 -2.1143
15386SOL    HW247927   9.546   8.149   9.868  0.4464 -0.9406 -1.0952
15387SOL     OW47928   3.192   7.403   3.309  0.6179 -0.0744  0.2239
15387SOL    HW147929   3.097   7.410   3.300  0.7248  0.5323 -0.4507
15387SOL    HW247930   3.204   7.340   3.380 -0.3015  0.5773  0.9871
15388SOL     OW47931   5.886   9.001   7.040 -0.0704 -0.2077 -0.0031
15388SOL    HW147932   5.796   9.028   7.021 -1.5456 -2.1052  3.3267
15388SOL    HW247933   5.917   9.063   7.105  0.5226 -0.3537 -0.1387
15389SOL     OW47934   7.388   3.607   0.255 -0.1074 -0.2229 -0.2228
15389SOL    HW147935   7.459   3.670   0.248 -0.9142  0.7340 -0.0140
15389SOL    HW247936   7.429   3.522   0.238  1.1530  0.2646  0.2795
15390SOL     OW47937   1.693   1.220   1.115  0.6984  0.3320  0.0979
15390SOL    HW147938   1.644   1.205   1.196 -0.5223 -0.1613 -0.6872
15390SOL    HW247939   1.655   1.301   1.080 -0.1142 -0.4532 -0.8920
15391SOL     OW47940   5.853   5.758   8.103 -0.5900  0.6673 -0.0853
15391SOL    HW147941   5.943   5.755   8.072 -0.8578 -2.8589 -0.9751
15391SOL    HW247942   5.859   5.736   8.196 -0.5417 -0.7764 -0.4032
15392SOL     OW47943   4.473   6.113   2.425 -0.1196 -0.2600  0.4806
15392SOL    HW147944   4.421   6.135   2.503  0.2088  0.2990  0.5485
15392SOL    HW247945   4.553   6.073   2.460 -0.5584 -1.2786  0.3704
15393SOL     OW47946   4.373   7.985   4.266  0.3404 -0.4464 -0.0740
15393SOL    HW147947   4.436   8.015   4.331  0.1771  0.3960 -0.2859
15393SOL    HW247948   4.332   8.065   4.233  0.0521 -0.8899 -0.8417
15394SOL     OW47949   2.844   5.773   4.269 -0.3103 -0.2372  0.2441
15394SOL    HW147950   2.790   5.852   4.283  1.2777  0.8486  0.5564
15394SOL    HW247951   2.849   5.763   4.174 -1.9346 -1.0039  0.2168
15395SOL     OW47952   6.170   7.224   2.691  0.5883  0.1283 -0.3330
15395SOL    HW147953   6.149   7.139   2.730  1.0741  0.8611  1.6477
15395SOL    HW247954   6.264   7.221   2.674  0.4942  0.0446 -0.8368
15396SOL     OW47955   7.579   9.628   9.540 -0.0906  0.3335 -0.2834
15396SOL    HW147956   7.504   9.684   9.518 -0.2623  0.3903  0.4286
15396SOL    HW247957   7.653   9.668   9.495 -0.3968  0.5516 -0.6008
15397SOL     OW47958   5.270   9.612   0.693  0.3521  0.4000 -0.3189
15397SOL    HW147959   5.224   9.545   0.744  0.5333  0.5704  0.0765
15397SOL    HW247960   5.307   9.671   0.759  1.5596 -0.0062 -0.5953
15398SOL     OW47961   2.299   0.274   2.856  0.8382  0.3513 -0.4218
15398SOL    HW147962   2.347   0.285   2.774  1.1621 -0.1637 -0.3113
15398SOL    HW247963   2.215   0.236   2.830  0.4301  1.3744 -0.6285
15399SOL     OW47964   3.447   1.688   6.038 -0.4167 -0.1365  0.1361
15399SOL    HW147965   3.451   1.774   5.997  1.7577 -1.2594 -2.3786
15399SOL    HW247966   3.417   1.630   5.968  1.1233 -1.8269  0.7941
15400SOL     OW47967   3.725   9.219   8.539  0.8985 -0.2453 -0.4603
15400SOL    HW147968   3.670   9.292   8.567 -0.0406 -0.6112 -1.2901
15400SOL    HW247969   3.682   9.141   8.574  2.9887 -0.3714  2.2183
15401SOL     OW47970   0.880   6.720   3.500 -0.2249  0.3957 -0.0064
15401SOL    HW147971   0.787   6.742   3.499 -0.3734 -0.0533 -2.0338
15401SOL    HW247972   0.881   6.624   3.502  0.1440  0.3746 -0.7375
15402SOL     OW47973   3.295   6.052   9.840  0.1903  0.2870 -0.1321
15402SOL    HW147974   3.365   6.056   9.774  0.2144  0.7345 -0.0807
15402SOL    HW247975   3.312   5.970   9.887  0.4650  0.2116 -0.3587
15403SOL     OW47976   8.528   3.163   9.812  0.4099  0.5281  0.9361
15403SOL    HW147977   8.576   3.110   9.749  1.8237  1.1537  1.4317
15403SOL    HW247978   8.477   3.224   9.759 -1.9916 -1.8713  0.3358
15404SOL     OW47979   9.485   5.070   8.028 -0.2829  0.3899  0.5938
15404SOL    HW147980   9.485   5.146   8.086  1.1354  0.3899  0.6313
15404SOL    HW247981   9.455   4.998   8.083  0.6255  0.4767  1.2234
15405SOL     OW47982   1.433   0.609   6.270 -0.4835  0.2286 -0.2561
15405SOL    HW147983   1.355   0.663   6.282 -0.7473  0.0849 -1.2266
15405SOL    HW247984   1.424   0.574   6.181  0.3142 -0.3920 -0.0998
15406SOL     OW47985   7.187   6.058   4.598  0.3004 -0.0705 -0.0625
15406SOL    HW147986   7.280   6.052   4.576 -0.2865  1.8914 -4.0765
15406SOL    HW247987   7.176   6.146   4.634 -0.1389  0.1618 -0.7435
15407SOL     OW47988   1.169   2.935   3.190  0.3027  0.0327 -0.2317
15407SOL    HW147989   1.081   2.930   3.154  0.5036  0.8070 -0.8463
15407SOL    HW247990   1.168   2.874   3.264 -1.8283  2.4925  2.0216
15408SOL     OW47991   4.335   1.011   9.603 -0.0409  1.0748 -0.0774
15408SOL    HW147992   4.418   0.987   9.563  0.5830  1.1994  1.0855
15408SOL    HW247993   4.294   0.928   9.628  1.2992  1.0314  2.3349
15409SOL     OW47994   3.055   3.985   4.459 -0.0785  0.0969 -0.0075
15409SOL    HW147995   3.092   4.005   4.372  0.7957  2.2395  0.7780
15409SOL    HW247996   2.966   4.021   4.455  0.0609  0.4539  0.0703
15410SOL     OW47997   4.399   7.932   6.569 -0.0990  0.1725  0.0136
15410SOL    HW147998   4.344   7.887   6.633 -0.8574 -0.2933 -0.9288
15410SOL    HW247999   4.466   7.975   6.621 -1.8289  1.4707  1.2906
15411SOL     OW48000   5.537   8.707   0.476 -0.7091  0.1236  0.1350
15411SOL    HW148001   5.614   8.654   0.492 -0.3333  0.2788 -1.0175
15411SOL    HW248002   5.552   8.746   0.389 -0.2166  3.4171  1.5461
15412SOL     OW48003   2.940   6.095   9.613 -0.1653 -0.1661 -0.1689
15412SOL    HW148004   2.932   6.060   9.524 -1.5181 -0.0682 -0.1026
15412SOL    HW248005   2.928   6.190   9.603 -1.0526 -0.2308  0.1933
15413SOL     OW48006   1.751   8.833   2.135  0.2102  0.2148 -0.2049
15413SOL    HW148007   1.688   8.791   2.194  1.5757  0.1373  1.2657
15413SOL    HW248008   1.808   8.761   2.106  0.8789  0.5896  0.1487
15414SOL     OW48009   8.777   9.745   1.340  0.6486  0.4633  0.3502
15414SOL    HW148010   8.804   9.676   1.279  1.3122  0.6328  0.4510
15414SOL    HW248011   8.858   9.785   1.370  0.3280  0.4673  1.2580
15415SOL     OW48012   9.687   1.704   0.185 -0.7202 -0.0454 -0.0676
15415SOL    HW148013   9.679   1.609   0.190 -0.6348 -0.0009  2.2018
15415SOL    HW248014   9.776   1.722   0.217 -0.0320  0.7507 -2.2358
15416SOL     OW48015   3.112   0.160   0.138  0.3223 -0.6634 -0.5303
15416SOL    HW148016   3.171   0.102   0.186 -1.1201 -0.8902  1.0445
15416SOL    HW248017   3.027   0.117   0.143 -0.5259  0.9729 -0.4119
15417SOL     OW48018   7.537   1.491   7.110  0.1596 -0.2144  0.1603
15417SOL    HW148019   7.610   1.483   7.171  0.1205  1.6106  0.5175
15417SOL    HW248020   7.479   1.554   7.152 -1.6030 -1.5461 -0.1687
15418SOL     OW48021   4.318   5.384   0.548  0.0038 -0.0797 -0.1456
15418SOL    HW148022   4.245   5.442   0.572  0.8164  0.8608  0.1206
15418SOL    HW248023   4.356   5.424   0.471 -0.1725 -0.9561 -0.7013
15419SOL     OW48024   8.054   4.657   1.478 -0.0449  0.3899  0.3457
15419SOL    HW148025   8.139   4.616   1.495 -0.2085  0.0402  0.3269
15419SOL    HW248026   7.990   4.599   1.519 -0.4051 -0.1710 -0.9505
15420SOL     OW48027   9.580   9.135   2.225 -0.3313 -0.0305 -0.0139
15420SOL    HW148028   9.561   9.090   2.307  1.4592 -0.7562  0.0566
15420SOL    HW248029   9.672   9.114   2.208 -0.8352 -0.4305 -2.5445
15421SOL     OW48030   8.765   8.272   3.942  0.4731 -0.0361  0.0152
15421SOL    HW148031   8.779   8.303   3.853  0.9135 -0.3193 -0.0135
15421SOL    HW248032   8.795   8.344   3.998 -0.4804  0.4418 -0.0617
15422SOL     OW48033   7.272   4.705   6.001  0.2488  0.2885  0.8655
15422SOL    HW148034   7.301   4.726   6.089  2.2704  0.5640  0.1894
15422SOL    HW248035   7.221   4.782   5.973  0.9866  0.9097  1.2101
15423SOL     OW48036   5.605   9.304   9.131  0.1412 -0.5054 -0.0334
15423SOL    HW148037   5.532   9.327   9.074  0.2414  0.2676  0.1359
15423SOL    HW248038   5.681   9.299   9.073  0.3663  0.9308  0.1120
15424SOL     OW48039   9.097   6.213   7.921  0.1250  0.1954 -0.7922
15424SOL    HW148040   9.019   6.257   7.955  0.2418  0.2181 -0.5517
15424SOL    HW248041   9.081   6.120   7.938 -0.2512  0.1131 -1.5651
15425SOL     OW48042   7.028   2.345   2.536 -0.0246  0.8495  0.3076
15425SOL    HW148043   7.045   2.412   2.470  1.5493 -0.8605 -1.1362
15425SOL    HW248044   7.106   2.346   2.592 -0.0369  0.3143  0.3406
15426SOL     OW48045   8.102   9.626   7.257  0.1568  0.3090 -0.2275
15426SOL    HW148046   8.152   9.703   7.284 -0.2593  0.2278  0.8207
15426SOL    HW248047   8.132   9.557   7.315 -1.6952  0.4410  0.9711
15427SOL     OW48048   4.775   2.421   6.967 -0.4581  0.0699  0.0158
15427SOL    HW148049   4.711   2.357   6.933 -0.3663  0.5813 -1.1755
15427SOL    HW248050   4.856   2.371   6.975 -0.5837 -0.1630 -0.1340
15428SOL     OW48051   2.966   1.634   7.549 -0.7346 -0.1560  0.0509
15428SOL    HW148052   2.999   1.585   7.474 -1.3402 -0.2111 -0.1889
15428SOL    HW248053   2.905   1.574   7.592  0.6613 -0.6551  1.4257
15429SOL     OW48054   6.499   6.464   9.678  0.0165 -0.4656 -0.0500
15429SOL    HW148055   6.578   6.514   9.660 -0.3989  0.1653 -0.1582
15429SOL    HW248056   6.440   6.527   9.719 -0.7756 -0.6714 -0.8403
15430SOL     OW48057   2.184   9.284   7.638 -0.0481  0.1938 -0.0415
15430SOL    HW148058   2.240   9.251   7.708 -0.6235 -2.0091 -0.5483
15430SOL    HW248059   2.132   9.354   7.678  1.1124  0.4191  1.1279
15431SOL     OW48060   8.110   3.321   8.583  0.3814 -0.5589  0.6013
15431SOL    HW148061   8.090   3.354   8.495 -0.0037  1.3604  1.3420
15431SOL    HW248062   8.199   3.353   8.599 -0.5043  1.4980  1.8729
15432SOL     OW48063   5.337   1.639   9.363  0.4599 -0.0010 -0.1099
15432SOL    HW148064   5.344   1.556   9.316  1.5557 -0.6546  1.1186
15432SOL    HW248065   5.369   1.619   9.451 -0.4739  1.4295  0.5951
15433SOL     OW48066   6.042   0.415   8.965  0.1625 -0.1144  0.3222
15433SOL    HW148067   5.988   0.465   9.026  2.7196  0.9262  1.9127
15433SOL    HW248068   6.109   0.477   8.935  1.1723 -1.5885 -0.6371
15434SOL     OW48069   8.695   5.668   3.555 -0.0057  0.8278  0.2335
15434SOL    HW148070   8.658   5.752   3.582 -1.1566  0.0747  1.0547
15434SOL    HW248071   8.782   5.691   3.520  0.5009  2.1390  2.1894
15435SOL     OW48072   1.090   5.045   1.983 -0.0978 -0.1115 -0.4338
15435SOL    HW148073   1.175   5.086   2.002  0.1348 -0.1102 -1.4265
15435SOL    HW248074   1.083   4.974   2.047  0.3638  0.2702  0.0576
15436SOL     OW48075   2.325   4.283   6.568 -0.1070 -0.0558 -0.3495
15436SOL    HW148076   2.302   4.216   6.632 -0.5311 -0.0712 -0.5107
15436SOL    HW248077   2.407   4.320   6.600  1.0434 -1.7771 -1.1251
15437SOL     OW48078   3.496   3.351   8.332  0.4253  0.1054 -0.1272
15437SOL    HW148079   3.521   3.442   8.348 -0.7972  0.2159  1.3799
15437SOL    HW248080   3.465   3.351   8.241 -0.4333  1.4164  0.1369
15438SOL     OW48081   7.949   4.659   2.642  0.6182 -0.4870 -0.1315
15438SOL    HW148082   7.981   4.688   2.727  0.2113 -1.3551  0.3239
15438SOL    HW248083   8.027   4.630   2.595  0.7185 -1.0346  0.3589
15439SOL     OW48084   8.071   4.042   8.473  0.7220 -0.0589  0.1391
15439SOL    HW148085   8.061   3.998   8.557  2.1245 -0.6253  0.0359
15439SOL    HW248086   8.008   4.000   8.416  0.5917 -0.4907  0.5942
15440SOL     OW48087   1.070   9.762   0.490 -0.0877 -0.2855 -0.0363
15440SOL    HW148088   1.158   9.764   0.453 -0.1677  0.4221 -0.2110
15440SOL    HW248089   1.065   9.841   0.545  0.8909 -2.4859  3.5790
15441SOL     OW48090   7.962   7.559   6.884 -0.1571 -0.3305  0.2486
15441SOL    HW148091   7.997   7.616   6.952 -0.2676  0.3122 -0.2179
15441SOL    HW248092   7.990   7.471   6.908 -0.5472 -0.1702  1.3477
15442SOL     OW48093   8.814   4.457   5.641 -0.0230  0.3564  0.2221
15442SOL    HW148094   8.866   4.432   5.717 -0.5691 -0.6881  0.2641
15442SOL    HW248095   8.878   4.490   5.578  0.5203  0.4558  0.8146
15443SOL     OW48096   7.855   2.995   2.728 -0.2038 -0.6034  0.3442
15443SOL    HW148097   7.819   2.998   2.816 -0.9851  2.0598  0.0233
15443SOL    HW248098   7.944   3.030   2.736 -0.2519 -0.4174  0.1112
15444SOL     OW48099   0.942   3.135   6.426 -0.2904 -0.3345 -0.1775
15444SOL    HW148100   0.859   3.099   6.395 -1.8015  1.4189  1.5688
15444SOL    HW248101   0.958   3.210   6.369  0.1900 -0.7460 -0.5944
15445SOL     OW48102   3.825   4.966   5.460 -0.1048  0.4636  0.3455
15445SOL    HW148103   3.751   4.909   5.481 -1.0611  0.8465 -1.7253
15445SOL    HW248104   3.890   4.907   5.422 -0.4610  0.5165 -0.3535
15446SOL     OW48105   8.050   0.060   3.971  0.7865  0.4155 -0.0763
15446SOL    HW148106   8.069   0.039   3.880 -0.5256  0.4176 -0.3758
15446SOL    HW248107   7.976   0.004   3.994  0.4383  1.1444  0.6626
15447SOL     OW48108   9.406   4.933   6.850  0.8217  0.7911  0.4384
15447SOL    HW148109   9.369   4.976   6.927  0.2929 -0.4215  0.8847
15447SOL    HW248110   9.332   4.889   6.809  1.1929  1.0171 -0.4906
15448SOL     OW48111   6.225   7.431   0.956 -0.1927 -0.7640  0.0940
15448SOL    HW148112   6.295   7.421   0.892 -0.2388 -0.8655  0.0596
15448SOL    HW248113   6.214   7.344   0.994  0.8727 -0.3890  1.3219
15449SOL     OW48114   8.650   5.325   6.836 -0.0521 -0.3401 -0.0912
15449SOL    HW148115   8.621   5.246   6.882  0.8518 -0.8263 -0.3379
15449SOL    HW248116   8.592   5.394   6.869 -0.3707 -0.9556  0.6832
15450SOL     OW48117   3.600   2.815   5.946  0.3743  0.1966  0.2434
15450SOL    HW148118   3.535   2.774   5.889  0.8120  0.9826 -0.8515
15450SOL    HW248119   3.550   2.878   5.998  0.0759 -0.0626  0.2755
15451SOL     OW48120   5.537   8.769   5.290 -0.0890 -0.0436  0.5241
15451SOL    HW148121   5.614   8.735   5.244 -0.2976  1.0224 -0.6474
15451SOL    HW248122   5.465   8.715   5.258 -0.6954  2.3361 -2.5700
15452SOL     OW48123   5.579   2.089   7.536 -0.5505  0.2347  0.4858
15452SOL    HW148124   5.537   2.061   7.455  2.5766  1.2809 -1.6925
15452SOL    HW248125   5.641   2.020   7.557  0.0273  0.8551  0.8822
15453SOL     OW48126   1.175   4.000   9.169 -0.0401 -0.5319 -0.3421
15453SOL    HW148127   1.257   4.040   9.140  0.7036  0.1951  2.4158
15453SOL    HW248128   1.107   4.059   9.138  0.7804  0.8387  0.3844
15454SOL     OW48129   2.116   2.771   6.989  0.1715  0.3247 -0.2409
15454SOL    HW148130   2.099   2.744   6.899 -0.6980 -2.5535  0.6691
15454SOL    HW248131   2.192   2.829   6.983  1.8977 -1.9442 -2.5919
15455SOL     OW48132   6.104   1.320   4.825  0.2441 -0.4512  0.3977
15455SOL    HW148133   6.178   1.364   4.866  1.4042 -0.4383 -1.5439
15455SOL    HW248134   6.039   1.388   4.810  0.8357  0.0318 -0.0023
15456SOL     OW48135   1.144   3.244   7.892  0.0386  0.3672  0.1502
15456SOL    HW148136   1.160   3.309   7.960 -0.2974 -0.6814  1.2452
15456SOL    HW248137   1.216   3.182   7.900 -0.0032  0.2307 -0.4551
15457SOL     OW48138   8.756   3.562   4.419  0.2755 -0.2956 -0.5458
15457SOL    HW148139   8.729   3.627   4.354 -1.4687  0.3672  0.7716
15457SOL    HW248140   8.788   3.488   4.367 -0.8638  0.2964 -2.1650
15458SOL     OW48141   6.814   1.127   1.468 -0.2804 -0.6936  0.4125
15458SOL    HW148142   6.880   1.058   1.473 -0.8238 -1.1826  1.0779
15458SOL    HW248143   6.813   1.152   1.375 -0.4539 -1.9718  0.0448
15459SOL     OW48144   6.344   9.405   0.844 -0.3312  0.1720 -0.1912
15459SOL    HW148145   6.283   9.477   0.827 -0.8534 -0.0587  0.6497
15459SOL    HW248146   6.406   9.409   0.771 -1.3190  0.4476 -1.0467
15460SOL     OW48147   7.810   8.748   9.008 -0.1176 -0.0484 -0.5562
15460SOL    HW148148   7.842   8.690   8.938 -1.1004 -0.7611 -0.4329
15460SOL    HW248149   7.737   8.795   8.969 -1.4443 -1.3179  0.3132
15461SOL     OW48150   8.607   2.738   8.605 -0.1455 -0.0396  0.5184
15461SOL    HW148151   8.602   2.833   8.616 -0.2502  0.1549 -0.9249
15461SOL    HW248152   8.555   2.703   8.677 -4.2091  1.1863 -1.4803
15462SOL     OW48153   9.195   2.637   8.735 -0.2192  0.3894  0.0144
15462SOL    HW148154   9.237   2.647   8.820 -0.9649 -0.1986  0.4535
15462SOL    HW248155   9.104   2.659   8.750 -0.8476 -1.8756 -0.1098
15463SOL     OW48156   7.833   4.133   6.411 -0.1019  0.1367 -0.4705
15463SOL    HW148157   7.887   4.210   6.428 -0.0341 -0.0825  0.3597
15463SOL    HW248158   7.882   4.082   6.347 -0.4083  1.0515 -1.4456
15464SOL     OW48159   4.082   4.434   1.843  0.2838  0.3733 -0.1935
15464SOL    HW148160   4.063   4.378   1.918  1.7265 -0.1933 -0.2159
15464SOL    HW248161   3.996   4.459   1.809 -0.3895 -0.6453  0.6977
15465SOL     OW48162   7.938   9.317   4.925 -0.2670 -0.0254 -0.1575
15465SOL    HW148163   7.964   9.337   5.015 -0.2676  1.1481 -0.4021
15465SOL    HW248164   7.848   9.349   4.918  0.1058  0.9247 -0.8813
15466SOL     OW48165   7.049   0.296   3.207 -0.1244 -0.2928  0.3238
15466SOL    HW148166   7.008   0.373   3.245  1.3323 -0.1878  1.8222
15466SOL    HW248167   6.978   0.234   3.194 -1.0121  0.5695  0.9869
15467SOL     OW48168   3.788   7.318   6.933  0.7960 -0.1649 -0.7091
15467SOL    HW148169   3.788   7.346   6.842  0.6832  0.5657 -0.4904
15467SOL    HW248170   3.858   7.369   6.974  0.0425  0.4184 -0.1196
15468SOL     OW48171   0.059   1.464   5.777  0.0683 -0.0491  0.0332
15468SOL    HW148172   0.149   1.470   5.745  0.0691 -0.1439  0.0172
15468SOL    HW248173   0.005   1.467   5.698  0.0046  1.0717  0.1037
15469SOL     OW48174   8.733   0.906   7.089 -1.0187  0.3710 -0.7518
15469SOL    HW148175   8.641   0.932   7.082 -1.4281 -1.0883 -1.1717
15469SOL    HW248176   8.730   0.817   7.124  0.1816 -0.0053 -1.5402
15470SOL     OW48177   9.102   5.062   3.561 -0.1455  0.5152 -0.2790
15470SOL    HW148178   9.034   5.117   3.601 -1.9612 -1.3675 -0.6538
15470SOL    HW248179   9.075   5.052   3.470  0.9566  0.1770 -0.5834
15471SOL     OW48180   9.337   1.218   7.347 -0.0896 -0.6595 -0.1515
15471SOL    HW148181   9.417   1.234   7.397  0.1139  0.7849 -0.8625
15471SOL    HW248182   9.268   1.211   7.412  0.4600 -0.8415  0.4166
15472SOL     OW48183   7.589   3.830   3.728  0.0667  0.0821 -0.3500
15472SOL    HW148184   7.643   3.908   3.709  0.7656 -0.2895  0.0586
15472SOL    HW248185   7.642   3.780   3.790 -0.1799 -0.9488 -0.9647
15473SOL     OW48186   1.102   1.558   3.915 -0.4379  0.3773 -0.4702
15473SOL    HW148187   1.141   1.492   3.857  2.6185  2.3205 -0.8256
15473SOL    HW248188   1.116   1.524   4.003  0.8660  0.3653 -0.6618
15474SOL     OW48189   5.552   3.294   9.446  0.1437 -0.0014  0.1381
15474SOL    HW148190   5.609   3.306   9.370 -0.1597 -0.1916 -0.1207
15474SOL    HW248191   5.610   3.306   9.522  0.1542  1.6911 -0.1067
15475SOL     OW48192   5.103   2.079   0.915 -0.0340  1.0309 -0.0985
15475SOL    HW148193   5.193   2.112   0.922  0.4141  0.1313 -1.3041
15475SOL    HW248194   5.074   2.105   0.828  0.0809 -1.0325 -0.8125
15476SOL     OW48195   1.873   1.970   2.051  0.8311 -1.1080  0.1234
15476SOL    HW148196   1.780   1.990   2.053  0.7960 -1.0785 -1.0793
15476SOL    HW248197   1.908   2.009   2.131  0.6116  3.0030 -1.5339
15477SOL     OW48198   8.865   9.828   0.402 -0.2249 -0.1987 -0.3438
15477SOL    HW148199   8.821   9.896   0.351 -0.5480  1.0192  1.4617
15477SOL    HW248200   8.958   9.854   0.401  0.2113 -1.5759 -2.3341
15478SOL     OW48201   4.092   1.349   0.197  0.0494  0.5593 -0.4116
15478SOL    HW148202   4.135   1.396   0.268 -1.1039  1.5942 -0.3534
15478SOL    HW248203   4.114   1.398   0.118  0.5615 -0.0459 -0.6522
15479SOL     OW48204   2.071   4.101   4.755  0.4425 -0.0861 -0.0203
15479SOL    HW148205   2.151   4.088   4.703  0.5338  3.5994 -1.0906
15479SOL    HW248206   2.093   4.173   4.814 -0.9774 -1.5410  2.4166
15480SOL     OW48207   0.126   1.052   7.128  0.4975 -0.4357  0.1584
15480SOL    HW148208   0.197   1.110   7.100 -0.3092  0.4606 -0.0857
15480SOL    HW248209   0.107   1.079   7.218 -0.0197 -0.1750 -0.0265
15481SOL     OW48210   5.701   2.626   8.121  0.0271 -0.1617 -0.5035
15481SOL    HW148211   5.619   2.608   8.168  0.0050  0.0431 -0.4589
15481SOL    HW248212   5.768   2.582   8.173  0.0263  0.2184 -0.1670
15482SOL     OW48213   4.733   6.808   1.504  0.3116  0.1533 -0.3561
15482SOL    HW148214   4.789   6.878   1.535 -1.8301  2.8220 -2.0593
15482SOL    HW248215   4.781   6.769   1.431  0.9531  0.7241 -0.2440
15483SOL     OW48216   1.578   9.747   3.403 -0.1268 -0.4915  0.3327
15483SOL    HW148217   1.495   9.791   3.422  0.0227  0.5379 -1.2015
15483SOL    HW248218   1.640   9.819   3.389  0.5800 -1.2252 -0.3746
15484SOL     OW48219   6.540   4.473   4.832 -0.2228  0.4688 -0.0357
15484SOL    HW148220   6.596   4.403   4.799  1.3246  0.8056  1.7056
15484SOL    HW248221   6.577   4.554   4.796 -1.3482  0.4997 -1.1691
15485SOL     OW48222   6.271   9.438   7.976 -0.0505 -0.6954  0.6878
15485SOL    HW148223   6.241   9.354   7.939 -0.6983  0.4758 -1.6504
15485SOL    HW248224   6.320   9.413   8.054 -0.3666 -3.2452  0.1846
15486SOL     OW48225   5.859   2.663   9.562  0.1106 -0.2098  0.2404
15486SOL    HW148226   5.913   2.690   9.636  0.3586 -1.5672  0.5881
15486SOL    HW248227   5.853   2.740   9.506  2.7503 -0.1173 -0.0253
15487SOL     OW48228   2.982   3.229   9.352 -0.0972 -0.1093  0.0180
15487SOL    HW148229   2.902   3.201   9.397  1.4289 -0.7659  2.5378
15487SOL    HW248230   3.050   3.170   9.386  1.4992  0.4681 -1.9868
15488SOL     OW48231   8.047   2.470   6.177 -0.3898  0.2067 -0.0020
15488SOL    HW148232   8.097   2.496   6.099  0.4755 -0.6812  0.2355
15488SOL    HW248233   7.972   2.529   6.177 -0.4730  0.1552 -1.5684
15489SOL     OW48234   8.014   1.758   7.254  0.5420  0.0518  0.2372
15489SOL    HW148235   7.974   1.753   7.341  1.7381 -0.0589  0.7908
15489SOL    HW248236   8.047   1.670   7.238  1.3389  0.3613  0.1639
15490SOL     OW48237   0.323   1.308   8.969  0.2900 -0.7879  0.4653
15490SOL    HW148238   0.291   1.353   9.047  0.8446  2.3088 -0.9627
15490SOL    HW248239   0.254   1.319   8.904  1.7650  1.0010 -0.9068
15491SOL     OW48240   5.360   2.895   2.425 -0.1381 -0.1374 -0.0054
15491SOL    HW148241   5.267   2.913   2.409 -0.1888 -0.7802 -0.4679
15491SOL    HW248242   5.375   2.925   2.514 -0.7221  0.2435 -0.0297
15492SOL     OW48243   4.407   9.634   5.997  0.2162 -0.1967 -0.5645
15492SOL    HW148244   4.454   9.713   5.971  1.2714 -0.6040  0.0454
15492SOL    HW248245   4.370   9.599   5.916  1.0898  0.0585 -1.0789
15493SOL     OW48246   3.815   4.588   3.798 -0.2564 -0.6449 -0.5509
15493SOL    HW148247   3.722   4.576   3.816 -0.2044  0.2720  0.4143
15493SOL    HW248248   3.822   4.678   3.766  0.1657 -1.0673 -1.7091
15494SOL     OW48249   0.438   2.709   2.542  0.1584 -0.7494 -0.0898
15494SOL    HW148250   0.434   2.656   2.463 -0.1950 -0.0459 -0.5548
15494SOL    HW248251   0.517   2.679   2.587  0.4034 -1.1057 -0.7465
15495SOL     OW48252   8.536   3.746   8.693  0.4051 -0.5912 -0.0028
15495SOL    HW148253   8.588   3.707   8.762 -0.9703 -1.4663  0.5748
15495SOL    HW248254   8.540   3.683   8.621  1.6706  0.2256 -0.6922
15496SOL     OW48255   1.272   5.922   4.187 -0.1165  0.0910 -0.2803
15496SOL    HW148256   1.234   5.839   4.215  1.8511 -0.6359  0.4331
15496SOL    HW248257   1.259   5.981   4.262 -0.6596  0.1584 -0.4199
15497SOL     OW48258   9.401   5.071   0.789  0.0307 -0.1809  0.7349
15497SOL    HW148259   9.464   5.100   0.855 -1.7824  1.5874  1.7798
15497SOL    HW248260   9.366   5.151   0.751 -3.3653 -0.9167  1.9579
15498SOL     OW48261   9.123   6.860   4.550 -0.8180 -0.2834  0.0583
15498SOL    HW148262   9.161   6.877   4.636 -1.2494 -1.9747  0.6313
15498SOL    HW248263   9.149   6.770   4.530 -0.6978  0.0930 -1.6126
15499SOL     OW48264   5.495   7.686   0.591 -0.5856 -0.2881 -0.2149
15499SOL    HW148265   5.449   7.767   0.572  1.1078  0.8330  0.1898
15499SOL    HW248266   5.579   7.714   0.627 -0.3598 -2.2323  0.9529
15500SOL     OW48267   3.717   6.785   0.426 -0.7569 -0.1622  0.1050
15500SOL    HW148268   3.729   6.773   0.521 -2.0627 -0.2365  0.2704
15500SOL    HW248269   3.637   6.837   0.418 -1.3027 -1.1292 -0.9947
15501SOL     OW48270   1.014   8.863   7.470  0.3814 -0.2826  0.3124
15501SOL    HW148271   1.080   8.901   7.413 -0.0966 -1.8439 -1.3854
15501SOL    HW248272   0.947   8.830   7.410 -1.1146 -0.2519  1.8974
15502SOL     OW48273   5.517   4.703   1.605 -0.1787  0.3618 -0.4183
15502SOL    HW148274   5.551   4.693   1.693  1.8078 -0.0372 -1.1772
15502SOL    HW248275   5.451   4.634   1.597  0.0934 -0.0194  0.5335
15503SOL     OW48276   1.129   4.333   5.079  0.5717 -0.0179  0.1383
15503SOL    HW148277   1.218   4.310   5.052  0.7968 -1.6574  2.0399
15503SOL    HW248278   1.136   4.423   5.111  1.6376 -0.2326  0.5581
15504SOL     OW48279   4.629   1.673   1.934  0.1057  0.3171 -0.1854
15504SOL    HW148280   4.688   1.744   1.960  1.0740 -0.7990  0.8292
15504SOL    HW248281   4.667   1.595   1.974 -1.5439 -0.6083 -0.3260
15505SOL     OW48282   5.810   1.192   6.725 -0.2805 -0.0889 -0.4293
15505SOL    HW148283   5.740   1.220   6.783  0.1796 -0.0170  0.0990
15505SOL    HW248284   5.800   1.097   6.719 -0.5124 -0.0626 -0.4770
15506SOL     OW48285   5.761   2.336   0.202 -0.2050  0.0469 -0.5569
15506SOL    HW148286   5.765   2.416   0.150 -0.6417 -0.6768 -1.7581
15506SOL    HW248287   5.832   2.281   0.169 -0.3755 -0.3608 -0.2690
15507SOL     OW48288   9.189   9.638   8.907  0.1144  0.4053  0.1624
15507SOL    HW148289   9.111   9.671   8.951  0.4836  1.6477 -0.0830
15507SOL    HW248290   9.262   9.678   8.954  0.6362 -0.9024  0.5229
15508SOL     OW48291   4.127   8.678   6.612 -0.1132  0.2348 -0.6309
15508SOL    HW148292   4.199   8.616   6.621 -0.6731 -0.3643 -0.1501
15508SOL    HW248293   4.118   8.692   6.518  0.3133 -0.0661 -0.7169
15509SOL     OW48294   5.160   0.075   1.343 -0.1340  0.1358  0.4844
15509SOL    HW148295   5.183   0.073   1.436 -1.0830 -0.5714  0.7129
15509SOL    HW248296   5.201  -0.004   1.306  1.2900  1.0407  0.0185
15510SOL     OW48297   7.396   0.700   4.230 -0.2173 -0.2853 -0.1267
15510SOL    HW148298   7.337   0.628   4.205 -0.5838 -0.2245  0.5308
15510SOL    HW248299   7.343   0.755   4.287  0.1595  0.3497 -0.3892
15511SOL     OW48300   5.443   3.514   5.827 -0.9842 -0.0802  0.7601
15511SOL    HW148301   5.436   3.591   5.772  0.2179 -1.2878 -1.2108
15511SOL    HW248302   5.491   3.543   5.904 -1.4236  1.3275  0.5236
15512SOL     OW48303   5.686   2.945   5.688  0.4598 -0.5975 -0.7460
15512SOL    HW148304   5.631   2.940   5.611 -1.6086  1.1204  0.4942
15512SOL    HW248305   5.752   3.012   5.666 -1.3348  1.3910 -0.4275
15513SOL     OW48306   8.953   7.283   1.829 -0.0994 -0.8841 -0.5412
15513SOL    HW148307   9.035   7.318   1.863 -0.9148 -0.2551  0.8530
15513SOL    HW248308   8.960   7.189   1.842 -0.3789 -0.6634  1.4098
15514SOL     OW48309   3.317   3.471   1.527 -0.0939  0.3473 -0.2235
15514SOL    HW148310   3.341   3.564   1.526  0.6305  0.1555 -0.7382
15514SOL    HW248311   3.347   3.440   1.612 -1.3011  0.8207  0.4077
15515SOL     OW48312   5.194   1.204   5.864 -0.1880  0.1797 -0.1507
15515SOL    HW148313   5.257   1.273   5.885  0.1270 -0.1568  0.0162
15515SOL    HW248314   5.189   1.151   5.944  0.7100 -0.8669 -0.7594
15516SOL     OW48315   9.722   4.235   3.231 -0.1269 -0.3967 -0.2891
15516SOL    HW148316   9.741   4.167   3.295  0.6839 -0.9463 -1.0939
15516SOL    HW248317   9.741   4.195   3.146  2.4528  1.4503 -0.7203
15517SOL     OW48318   5.407   7.969   6.819 -0.3988 -0.2958  0.1640
15517SOL    HW148319   5.412   7.988   6.725  0.1981 -0.1422  0.2212
15517SOL    HW248320   5.381   7.877   6.824 -0.1897 -0.3746 -0.1583
15518SOL     OW48321   8.977   1.513   9.577  0.1495  0.1915  0.0681
15518SOL    HW148322   9.057   1.556   9.548  0.0127  0.9740  0.8180
15518SOL    HW248323   8.958   1.449   9.508  0.5250  1.1075 -0.9073
15519SOL     OW48324   5.885   7.494   7.683 -0.6435 -0.7747 -0.1295
15519SOL    HW148325   5.900   7.401   7.696  2.7624 -0.3182  0.0847
15519SOL    HW248326   5.905   7.509   7.591  0.6406 -0.0178  0.2486
15520SOL     OW48327   1.062   0.645   6.438  0.0035  0.1031  0.5000
15520SOL    HW148328   1.098   0.557   6.446  1.3621  0.5027 -0.7950
15520SOL    HW248329   1.138   0.701   6.422 -1.1183  0.9897 -2.3547
15521SOL     OW48330   4.647   1.942   7.103 -0.6579 -0.2921 -0.0537
15521SOL    HW148331   4.603   1.928   7.020 -0.7702 -1.2898  0.1530
15521SOL    HW248332   4.732   1.980   7.080 -0.6351 -0.6861 -0.6413
15522SOL     OW48333   3.750   1.921   3.544  0.3611  0.0020  0.2138
15522SOL    HW148334   3.781   1.836   3.513 -1.7808 -0.9068  0.3593
15522SOL    HW248335   3.793   1.933   3.629  0.0046 -1.3947  0.6137
15523SOL     OW48336   8.686   7.409   5.344  0.1933 -0.0314  0.3154
15523SOL    HW148337   8.593   7.386   5.349 -0.1131  0.9887 -0.4126
15523SOL    HW248338   8.720   7.352   5.275  0.0047 -0.0661  0.2490
15524SOL     OW48339   0.884   1.605   7.285  0.3864  0.2770 -0.3927
15524SOL    HW148340   0.838   1.542   7.230  2.8626 -1.3414 -0.7696
15524SOL    HW248341   0.960   1.632   7.233 -0.6651  3.8929 -0.3544
15525SOL     OW48342   2.533   3.281   7.873  0.0294 -0.0656 -0.1847
15525SOL    HW148343   2.544   3.295   7.968  1.5085 -1.0633 -0.1661
15525SOL    HW248344   2.611   3.320   7.835 -0.6193  0.4317 -1.0174
15526SOL     OW48345   1.699   3.447   5.950  0.1893  0.5230  0.3430
15526SOL    HW148346   1.677   3.537   5.929  1.0627  0.2334 -2.0933
15526SOL    HW248347   1.632   3.420   6.014 -1.8728  1.9755 -1.0736
15527SOL     OW48348   1.361   4.027   4.276  0.3195 -0.4284 -0.2134
15527SOL    HW148349   1.337   3.959   4.338 -0.6076  0.0648 -0.0165
15527SOL    HW248350   1.405   4.094   4.329  1.5745 -1.0234 -0.4660
15528SOL     OW48351   3.146   3.686   6.663 -0.1658  0.2901 -0.0388
15528SOL    HW148352   3.156   3.608   6.718  0.9269 -0.5483 -1.3685
15528SOL    HW248353   3.157   3.654   6.574 -1.3568  1.7121 -0.7481
15529SOL     OW48354   1.076   2.743   7.423 -0.1387  0.1127 -0.3314
15529SOL    HW148355   0.998   2.756   7.478 -0.7829  0.0335 -1.2128
15529SOL    HW248356   1.116   2.663   7.457 -0.3143  0.2786  0.2765
15530SOL     OW48357   9.054   5.516   8.944  0.1531  0.0602  0.4110
15530SOL    HW148358   8.974   5.482   8.903  0.6246 -0.9085  0.2681
15530SOL    HW248359   9.023   5.582   9.006 -0.7544 -0.2745  0.3316
15531SOL     OW48360   5.993   9.273   8.813 -0.0593 -0.0866  0.0036
15531SOL    HW148361   5.988   9.183   8.780  0.7395  0.6293 -2.2730
15531SOL    HW248362   6.001   9.263   8.908 -3.1716 -2.2820  0.1974
15532SOL     OW48363   8.409   6.558   8.955  0.5898 -0.1589 -0.0228
15532SOL    HW148364   8.425   6.573   8.862 -0.6661  0.7126 -0.1419
15532SOL    HW248365   8.492   6.578   8.998  0.5979  1.6135 -0.7749
15533SOL     OW48366   1.626   5.988   6.831  0.2615 -0.1438  0.3292
15533SOL    HW148367   1.622   6.027   6.743  1.5260 -1.3573 -0.3018
15533SOL    HW248368   1.689   6.043   6.878  1.8716 -1.2040 -0.4919
15534SOL     OW48369   2.338   6.888   7.388 -0.1293 -0.2794  0.0593
15534SOL    HW148370   2.249   6.918   7.403  0.0160 -0.3378  1.0860
15534SOL    HW248371   2.332   6.831   7.312 -1.1467 -1.0816  0.7222
15535SOL     OW48372   3.798   5.292   8.044 -0.3834  0.1815 -0.0096
15535SOL    HW148373   3.736   5.243   8.099  2.6584 -1.6917  2.1357
15535SOL    HW248374   3.832   5.227   7.983  1.1510  0.4713  0.4840
15536SOL     OW48375   1.854   9.068   9.616  0.4581  0.5766 -0.2761
15536SOL    HW148376   1.807   9.143   9.581 -0.5512  0.3877  0.6294
15536SOL    HW248377   1.882   9.096   9.704 -0.2776 -0.2261  0.2274
15537SOL     OW48378   6.114   6.772   3.136  0.3130  0.4592  0.5946
15537SOL    HW148379   6.052   6.844   3.121 -0.0730 -0.0795 -0.5408
15537SOL    HW248380   6.148   6.752   3.049 -0.0652 -1.1369  0.7846
15538SOL     OW48381   4.891   7.566   1.472 -0.7897 -0.1320 -0.0060
15538SOL    HW148382   4.985   7.550   1.476 -0.7091  0.6061  1.5594
15538SOL    HW248383   4.852   7.479   1.480 -0.2575 -0.2147  2.2168
15539SOL     OW48384   8.032   2.382   9.177  0.1753  0.3526  0.2281
15539SOL    HW148385   8.050   2.316   9.244 -1.5961 -0.3853  0.0328
15539SOL    HW248386   8.113   2.389   9.128  0.3486 -1.9099  0.0931
15540SOL     OW48387   9.378   5.686   0.050 -0.0724  0.3571 -0.1346
15540SOL    HW148388   9.408   5.651   0.134 -0.6570  0.9105  0.3152
15540SOL    HW248389   9.455   5.682  -0.006  0.6760  1.1207  0.8002
15541SOL     OW48390   4.221   8.291   6.404 -0.1293 -0.1829 -0.1274
15541SOL    HW148391   4.131   8.261   6.415 -0.5610  0.1281 -2.3024
15541SOL    HW248392   4.232   8.358   6.471 -1.8755  0.4740 -0.4235
15542SOL     OW48393   9.293   9.700   9.602 -0.0162 -0.1918 -0.1416
15542SOL    HW148394   9.224   9.660   9.548  0.6405 -0.3526 -0.8872
15542SOL    HW248395   9.356   9.629   9.616  0.7428  0.3395 -0.7691
15543SOL     OW48396   2.183   0.468   7.059 -0.2456 -0.1203  0.7432
15543SOL    HW148397   2.272   0.456   7.090  0.1960 -1.0038 -0.7648
15543SOL    HW248398   2.154   0.381   7.032 -1.4354  0.2100  0.8829
15544SOL     OW48399   4.509   1.246   0.439 -0.1861  0.3689  0.0318
15544SOL    HW148400   4.456   1.325   0.431 -1.0161  0.0125  1.4977
15544SOL    HW248401   4.547   1.251   0.526 -1.1504 -1.3277  0.6117
15545SOL     OW48402   2.480   4.971   7.586  0.3995 -0.3021 -0.4684
15545SOL    HW148403   2.417   4.933   7.525 -0.7217 -1.7852  1.5093
15545SOL    HW248404   2.427   5.023   7.647  1.4089  0.5563 -0.2870
15546SOL     OW48405   1.798   1.248   8.121  0.3031 -0.3235  0.2395
15546SOL    HW148406   1.758   1.323   8.166  2.9117  1.6782 -0.4731
15546SOL    HW248407   1.744   1.235   8.044 -0.0965  1.0182  0.2594
15547SOL     OW48408   3.125   4.337   9.306  0.1828  0.4973  0.3956
15547SOL    HW148409   3.050   4.338   9.247 -0.3944 -0.5814  1.0830
15547SOL    HW248410   3.088   4.350   9.393  0.9338  1.2189  0.6187
15548SOL     OW48411   5.030   2.548   0.392 -0.0990 -0.1288 -0.1253
15548SOL    HW148412   5.079   2.626   0.366 -0.6819 -0.4615 -2.4791
15548SOL    HW248413   5.097   2.487   0.422  0.5701  0.5955 -0.1085
15549SOL     OW48414   8.892   5.055   4.141 -0.0946 -0.0960 -0.5823
15549SOL    HW148415   8.799   5.079   4.144  0.1095  0.8595 -1.5160
15549SOL    HW248416   8.919   5.052   4.233 -1.1066 -0.6555 -0.2890
15550SOL     OW48417   1.932   5.920   0.686  0.3603  0.0407 -0.2290
15550SOL    HW148418   2.005   5.979   0.668  1.2526 -1.0941 -0.3868
15550SOL    HW248419   1.891   5.906   0.600  0.1340  0.4287 -0.1884
15551SOL     OW48420   6.042   2.958   9.492  0.6303 -0.0481 -0.7432
15551SOL    HW148421   5.955   2.933   9.460 -0.5188  1.5696  0.9418
15551SOL    HW248422   6.033   3.050   9.517  2.4693 -0.2160  0.6950
15552SOL     OW48423   4.773   8.664   5.144  0.1280 -0.6669 -0.3180
15552SOL    HW148424   4.774   8.570   5.161 -1.3063 -0.6835 -0.1643
15552SOL    HW248425   4.768   8.703   5.231 -1.4919 -0.5449 -0.4424
15553SOL     OW48426   1.886   2.275   9.331  0.1193 -0.2188  0.5981
15553SOL    HW148427   1.864   2.206   9.395  1.0127 -0.4257  0.6880
15553SOL    HW248428   1.973   2.252   9.300 -0.5944 -0.5791 -1.3034
15554SOL     OW48429   4.988   6.814   7.406 -1.1382 -0.0603 -0.4729
15554SOL    HW148430   4.951   6.891   7.364 -0.1816  0.5867 -0.1608
15554SOL    HW248431   4.991   6.836   7.499  0.6594  0.2060 -0.5644
15555SOL     OW48432   9.652   8.491   6.127 -0.1520  0.1770 -0.1143
15555SOL    HW148433   9.697   8.479   6.211  1.0158  0.3999 -0.6872
15555SOL    HW248434   9.594   8.566   6.142 -0.0480  0.1367  0.5296
15556SOL     OW48435   1.857   6.988   0.695  0.0314 -0.4128 -0.0199
15556SOL    HW148436   1.873   6.964   0.787 -0.2403 -0.2954  0.0579
15556SOL    HW248437   1.889   7.078   0.688  0.1585 -0.4618 -0.0701
15557SOL     OW48438   5.678   4.310   5.548 -0.3589 -0.5464  0.3812
15557SOL    HW148439   5.645   4.317   5.637 -1.6699 -0.9651 -0.0446
15557SOL    HW248440   5.773   4.315   5.556 -0.4329 -1.2911  1.8548
15558SOL     OW48441   3.710   9.223   9.788 -0.2522 -0.1014 -0.2190
15558SOL    HW148442   3.642   9.246   9.851 -1.0675 -2.0850 -0.2725
15558SOL    HW248443   3.716   9.127   9.794  0.7174 -0.2013 -2.0801
15559SOL     OW48444   8.560   5.998   0.522  0.6774 -0.2935 -0.3926
15559SOL    HW148445   8.541   6.091   0.522 -1.7500 -0.7085 -0.0786
15559SOL    HW248446   8.644   5.990   0.568  1.1362  1.7235 -0.7828
15560SOL     OW48447   5.143   1.592   3.831  0.5680  0.0211 -0.3870
15560SOL    HW148448   5.087   1.636   3.895 -0.3624  0.4937 -1.4799
15560SOL    HW248449   5.171   1.662   3.772  0.4418 -0.5769 -1.1774
15561SOL     OW48450   7.611   2.971   5.274 -0.3871 -0.3856  0.0244
15561SOL    HW148451   7.699   2.950   5.245 -0.7393 -1.2404 -0.4701
15561SOL    HW248452   7.588   3.051   5.227  0.7390  0.8339  1.4465
15562SOL     OW48453   7.252   2.408   0.459 -1.1021  0.0511 -0.0900
15562SOL    HW148454   7.279   2.322   0.426 -1.0801 -0.1147  0.3524
15562SOL    HW248455   7.319   2.430   0.524 -0.3086  1.0517 -1.2053
15563SOL     OW48456   6.167   3.040   9.846  0.1312 -0.5271 -0.4150
15563SOL    HW148457   6.156   3.069   9.756 -0.3950  0.5209 -0.0283
15563SOL    HW248458   6.085   2.994   9.867 -0.0084 -0.2208 -0.2781
15564SOL     OW48459   5.921   9.107   4.722 -0.0563  0.3468  0.5704
15564SOL    HW148460   5.856   9.057   4.771 -0.6635  0.8011  0.2458
15564SOL    HW248461   5.872   9.181   4.686 -0.3184 -1.3569 -3.0403
15565SOL     OW48462   0.874   8.838   8.969  0.7350  0.8335  0.4229
15565SOL    HW148463   0.934   8.912   8.965  0.5515  0.9652  0.0358
15565SOL    HW248464   0.929   8.763   8.990  1.2186  0.7508 -1.0475
15566SOL     OW48465   7.671   8.609   7.251  0.5584 -0.5145  0.1674
15566SOL    HW148466   7.615   8.675   7.209  1.9655  0.4661 -0.2300
15566SOL    HW248467   7.689   8.546   7.181 -1.4595 -1.8347  0.7588
15567SOL     OW48468   0.908   3.246   4.432  0.6405  0.8608  0.5222
15567SOL    HW148469   0.834   3.245   4.493  0.3396 -1.2791  0.1819
15567SOL    HW248470   0.954   3.164   4.448  3.0173  2.1293  0.7399
15568SOL     OW48471   1.324   2.660   4.439  0.3360  0.2400 -0.4830
15568SOL    HW148472   1.262   2.694   4.503 -0.3241 -0.0032 -0.9738
15568SOL    HW248473   1.356   2.737   4.393 -1.2718  0.2426 -1.6999
15569SOL     OW48474   8.420   5.081   6.815 -0.5166  0.0670  0.2399
15569SOL    HW148475   8.410   5.150   6.881  2.3340  0.4709  0.3875
15569SOL    HW248476   8.345   5.091   6.758 -1.1290  2.1163  1.3106
15570SOL     OW48477   7.441   7.080   8.168  0.2259  0.3782  0.2761
15570SOL    HW148478   7.468   6.992   8.194  1.2520  0.6112  0.0255
15570SOL    HW248479   7.438   7.130   8.250  0.2799  0.2815  0.3371
15571SOL     OW48480   1.581   3.318   2.381 -0.4752 -0.1836  0.0457
15571SOL    HW148481   1.587   3.404   2.339  1.0032  0.5547  1.5989
15571SOL    HW248482   1.488   3.298   2.384 -0.7917  1.0441 -0.9861
15572SOL     OW48483   0.645   2.531   7.036 -0.0201 -0.3713  0.1125
15572SOL    HW148484   0.679   2.445   7.063 -0.0234 -0.5383 -0.3952
15572SOL    HW248485   0.657   2.587   7.112  0.5641 -0.6639  0.2424
15573SOL     OW48486   2.632   2.728   8.012  0.0209  0.1298  0.2544
15573SOL    HW148487   2.674   2.755   7.930 -0.7290 -1.5840 -0.7582
15573SOL    HW248488   2.650   2.799   8.073 -0.8789  2.3453 -1.8741
15574SOL     OW48489   3.557   4.036   2.607 -0.3425  0.2103 -0.1713
15574SOL    HW148490   3.507   3.959   2.635  0.2225  0.2229  0.9374
15574SOL    HW248491   3.494   4.092   2.563 -0.9654 -0.4628 -0.1430
15575SOL     OW48492   5.142   8.690   7.706  0.4857  0.6326  0.0773
15575SOL    HW148493   5.126   8.637   7.628 -1.1572 -0.0995  0.8499
15575SOL    HW248494   5.086   8.650   7.773  1.4413  1.5693  1.4884
15576SOL     OW48495   5.306   2.893   8.264 -0.4351 -0.3104 -0.2534
15576SOL    HW148496   5.286   2.947   8.340  0.2464  0.2376 -0.4533
15576SOL    HW248497   5.337   2.955   8.198 -2.2100 -0.6109 -1.4295
15577SOL     OW48498   7.401   9.735   4.115  0.5171  0.3101  0.1330
15577SOL    HW148499   7.388   9.813   4.168  1.8083  1.1550 -0.7333
15577SOL    HW248500   7.362   9.756   4.031  2.0699  0.5883 -0.5542
15578SOL     OW48501   1.277   8.169   6.831 -0.5238 -0.2931 -0.0120
15578SOL    HW148502   1.234   8.091   6.796 -1.9543  1.0442 -1.4559
15578SOL    HW248503   1.243   8.178   6.920  1.0554 -2.2629  0.8450
15579SOL     OW48504   9.131   6.550   0.470 -0.4547  0.3137  0.1446
15579SOL    HW148505   9.075   6.624   0.447 -0.3326 -0.1574 -1.8548
15579SOL    HW248506   9.220   6.583   0.462 -0.4101  0.1434 -0.0738
15580SOL     OW48507   8.455   6.004   4.053 -0.1165 -0.4961  0.1741
15580SOL    HW148508   8.402   5.937   4.009  0.3879 -0.6820 -0.1521
15580SOL    HW248509   8.397   6.080   4.059  0.6672  0.6094 -3.5312
15581SOL     OW48510   0.239   9.658   5.223 -0.1569  0.1007 -0.4290
15581SOL    HW148511   0.313   9.717   5.237  0.0586 -0.5940  1.6367
15581SOL    HW248512   0.279   9.573   5.204 -0.3790 -0.3052  0.8125
15582SOL     OW48513   4.396   8.902   0.841 -0.2215  0.3827 -0.0881
15582SOL    HW148514   4.356   8.923   0.757 -2.0130  3.1628  1.2967
15582SOL    HW248515   4.482   8.942   0.838 -0.7090  1.4473 -0.2398
15583SOL     OW48516   6.772   6.542   8.842  0.1491  0.1637 -0.1859
15583SOL    HW148517   6.751   6.582   8.758 -0.5200  1.9469  0.7843
15583SOL    HW248518   6.708   6.579   8.903 -1.2727 -3.2231  0.6278
15584SOL     OW48519   4.150   3.117   1.141 -0.1230  0.5721 -0.1232
15584SOL    HW148520   4.165   3.112   1.235 -0.7642 -0.6085 -0.0610
15584SOL    HW248521   4.145   3.211   1.122 -1.0544  0.8246  1.2059
15585SOL     OW48522   1.255   6.257   5.025  0.3085  0.3693 -0.7638
15585SOL    HW148523   1.193   6.273   5.097 -0.7460 -0.0580 -1.5529
15585SOL    HW248524   1.330   6.214   5.067 -0.7555 -0.8716 -0.0761
15586SOL     OW48525   3.036   2.683   3.952 -0.8638  0.2065 -0.8148
15586SOL    HW148526   3.122   2.704   3.916 -1.1081  1.8604 -0.5376
15586SOL    HW248527   3.031   2.588   3.948  0.9560  0.0682 -0.8847
15587SOL     OW48528   8.959   0.286   3.656  0.0585  0.3542 -0.8456
15587SOL    HW148529   8.913   0.249   3.580 -0.8949  0.2744 -0.2501
15587SOL    HW248530   9.028   0.223   3.676 -1.1381 -0.8242 -0.2475
15588SOL     OW48531   0.193   7.711   2.927  0.4095  0.2476 -0.2988
15588SOL    HW148532   0.191   7.681   2.836  1.8364  1.0699 -0.6424
15588SOL    HW248533   0.101   7.714   2.954 -0.0118 -0.3809 -1.5849
15589SOL     OW48534   7.479   8.064   6.376 -0.3427  0.3789  0.2142
15589SOL    HW148535   7.548   8.126   6.355  1.6744 -1.4257  1.1278
15589SOL    HW248536   7.412   8.078   6.308  1.6316  1.1314 -1.6855
15590SOL     OW48537   6.402   6.027   3.980 -0.0099 -0.2963 -0.4879
15590SOL    HW148538   6.397   5.936   3.952 -0.0225 -0.6615  0.6373
15590SOL    HW248539   6.422   6.076   3.900 -1.9215 -1.0386 -1.4732
15591SOL     OW48540   1.759   4.438   7.264  0.3377 -0.4679  1.2142
15591SOL    HW148541   1.849   4.427   7.234  0.6987  2.3579  0.9670
15591SOL    HW248542   1.708   4.377   7.210  1.6569  0.6079 -1.4517
15592SOL     OW48543   5.978   9.424   2.440 -0.0410 -0.8360 -0.3850
15592SOL    HW148544   5.899   9.403   2.491 -1.1984 -0.3853 -1.8996
15592SOL    HW248545   5.986   9.352   2.377  2.3773 -2.2926  1.4589
15593SOL     OW48546   9.591   9.826   5.744  0.0069 -0.6659 -0.2488
15593SOL    HW148547   9.583   9.918   5.718  0.0089 -0.4893  0.3507
15593SOL    HW248548   9.524   9.781   5.693  1.0004 -0.5923 -1.6996
15594SOL     OW48549   1.565   0.549   3.091  0.7498  0.4996  0.4554
15594SOL    HW148550   1.509   0.556   3.169 -0.0559  0.4150 -0.0994
15594SOL    HW248551   1.554   0.459   3.062 -1.8287  1.4083 -1.8006
15595SOL     OW48552   2.255   5.498   8.904 -0.6066  0.4403  0.1425
15595SOL    HW148553   2.210   5.474   8.984 -2.6260  2.2968 -0.3534
15595SOL    HW248554   2.339   5.533   8.933 -0.6143 -0.4645  1.2954
15596SOL     OW48555   0.462   3.014   8.132 -0.9130  0.6081  0.3900
15596SOL    HW148556   0.388   3.061   8.172 -0.1358  0.4909  2.0559
15596SOL    HW248557   0.450   2.923   8.159 -0.9681  0.2973 -0.6220
15597SOL     OW48558   2.341   0.902   3.710  0.6113  0.3544 -0.0195
15597SOL    HW148559   2.256   0.903   3.753  0.9856  0.6626  0.7369
15597SOL    HW248560   2.379   0.817   3.734  1.0244  0.7257  0.7033
15598SOL     OW48561   8.877   1.293   5.199 -0.0114  0.3780 -0.1651
15598SOL    HW148562   8.900   1.319   5.289  0.7326  1.0063 -0.5272
15598SOL    HW248563   8.908   1.365   5.144  0.0364 -0.2514 -0.9815
15599SOL     OW48564   5.209   4.200   4.447  0.1920 -0.3802 -0.1736
15599SOL    HW148565   5.258   4.179   4.527 -1.6824  1.2162  1.4977
15599SOL    HW248566   5.276   4.208   4.379  2.1385  0.5506  1.7321
15600SOL     OW48567   8.765   8.771   4.977  0.5233  0.2544 -0.4504
15600SOL    HW148568   8.775   8.683   5.013  0.0334  0.7321  0.8981
15600SOL    HW248569   8.798   8.829   5.045  1.9437  1.0929 -1.7893
15601SOL     OW48570   4.573   7.353   6.941 -0.5021  0.2281 -0.4273
15601SOL    HW148571   4.515   7.379   6.869 -0.5909  0.8946 -0.1229
15601SOL    HW248572   4.642   7.419   6.941  0.2800 -0.5804 -0.8034
15602SOL     OW48573   7.608   0.218   5.824  0.1747  0.7451 -0.0191
15602SOL    HW148574   7.617   0.273   5.746 -0.5578  1.0803  0.1268
15602SOL    HW248575   7.698   0.197   5.849  0.4463 -1.4581 -2.4253
15603SOL     OW48576   5.213   0.044   2.576 -0.2181 -0.1024  0.0445
15603SOL    HW148577   5.149   0.081   2.638 -0.4724  2.0104 -1.3914
15603SOL    HW248578   5.293   0.093   2.593  0.4023 -1.1423  0.2405
15604SOL     OW48579   8.989   2.244   0.924  0.2365 -0.4078 -0.0108
15604SOL    HW148580   9.049   2.198   0.866  1.0272  0.2448  0.2854
15604SOL    HW248581   9.030   2.240   1.010 -0.0072  0.2755  0.1457
15605SOL     OW48582   3.700   6.933   6.745 -0.0297 -0.1880 -0.6455
15605SOL    HW148583   3.646   6.873   6.795 -0.4010 -0.5660 -1.4857
15605SOL    HW248584   3.655   7.017   6.751  0.2404 -0.0899  0.1337
15606SOL     OW48585   8.591   6.702   1.402  0.3621 -0.4787 -0.3098
15606SOL    HW148586   8.495   6.696   1.395  0.4002 -0.3306 -1.0879
15606SOL    HW248587   8.609   6.691   1.495 -0.6168  1.9599  0.2672
15607SOL     OW48588   1.902   8.842   5.810 -0.4878 -0.6913 -0.8579
15607SOL    HW148589   1.945   8.892   5.879 -3.6225  0.5353  0.4326
15607SOL    HW248590   1.918   8.751   5.832  0.3169 -0.3043  0.2680
15608SOL     OW48591   6.950   9.578   2.937  0.5679 -0.4970  0.2285
15608SOL    HW148592   6.862   9.561   2.969  0.3404 -1.4821 -0.8507
15608SOL    HW248593   7.005   9.512   2.981  0.4945 -0.9062 -0.2825
15609SOL     OW48594   5.497   7.502   0.311 -0.2980  0.8003  0.1021
15609SOL    HW148595   5.406   7.517   0.286  0.6221  2.1797 -2.8820
15609SOL    HW248596   5.517   7.573   0.373 -1.0478  0.8803  0.2605
15610SOL     OW48597   1.353   8.989   1.288  0.0102  0.6771  0.2145
15610SOL    HW148598   1.302   9.009   1.210 -1.2004  0.4639  0.9278
15610SOL    HW248599   1.432   8.945   1.255 -1.0703 -0.5801 -0.8209
15611SOL     OW48600   4.145   7.200   5.125 -0.2193 -0.5855  0.2788
15611SOL    HW148601   4.191   7.227   5.045 -0.2239  0.4907  0.6321
15611SOL    HW248602   4.090   7.127   5.096  1.2265 -1.5066 -0.2851
15612SOL     OW48603   1.205   6.034   2.886 -0.2964 -0.1684  0.0848
15612SOL    HW148604   1.156   5.954   2.907  1.3083 -1.0432  0.7196
15612SOL    HW248605   1.157   6.104   2.931 -1.1680 -0.9291  0.3722
15613SOL     OW48606   6.731   1.957   0.609  0.2263 -0.2432  0.3149
15613SOL    HW148607   6.674   1.884   0.584 -0.9671  1.1044 -1.0685
15613SOL    HW248608   6.752   1.940   0.701 -1.1190 -1.6182  0.4093
15614SOL     OW48609   3.241   5.627   5.249  0.1517  0.3749 -1.0228
15614SOL    HW148610   3.283   5.607   5.165 -1.9515  2.2771 -2.6997
15614SOL    HW248611   3.168   5.685   5.225 -2.3421 -1.2906  1.8158
15615SOL     OW48612   5.303   4.894   9.583 -0.4690  0.9301 -0.2788
15615SOL    HW148613   5.264   4.812   9.614 -0.6692  0.6341 -1.2785
15615SOL    HW248614   5.381   4.905   9.637  1.7123 -1.9234 -2.4958
15616SOL     OW48615   6.864   3.890   8.788  0.1739  0.1854  0.2467
15616SOL    HW148616   6.930   3.922   8.851  0.6362  1.5067 -0.8623
15616SOL    HW248617   6.794   3.954   8.794 -0.4758 -0.5388  0.5089
15617SOL     OW48618   0.862   7.856   4.985 -0.5581  0.4523  0.4351
15617SOL    HW148619   0.913   7.936   4.999 -1.1914  1.1964 -1.2857
15617SOL    HW248620   0.801   7.853   5.059 -1.8957  2.6863 -0.4894
15618SOL     OW48621   1.821   8.290   2.465  0.3755 -0.0537  0.2514
15618SOL    HW148622   1.826   8.321   2.555  1.2960  2.2303 -0.5260
15618SOL    HW248623   1.906   8.248   2.450  0.1935 -0.5038  0.4301
15619SOL     OW48624   8.182   6.212   4.024  0.2516 -0.1687 -0.1132
15619SOL    HW148625   8.158   6.213   4.117  1.5617 -1.0896  0.2613
15619SOL    HW248626   8.128   6.143   3.986  1.1793 -1.2033  0.4100
15620SOL     OW48627   2.161   1.530   1.285  0.1064  0.5702 -0.9297
15620SOL    HW148628   2.112   1.495   1.360 -0.9328  0.3817 -1.6667
15620SOL    HW248629   2.253   1.521   1.310 -0.2191  0.4664  0.2968
15621SOL     OW48630   0.164   2.144   8.214  0.0506  0.5969 -0.3197
15621SOL    HW148631   0.116   2.150   8.131  0.4260  2.0368 -0.4664
15621SOL    HW248632   0.247   2.102   8.191 -0.3933 -0.2725 -0.3939
15622SOL     OW48633   6.866   8.091   7.389 -0.3068 -0.3522  0.5278
15622SOL    HW148634   6.851   8.028   7.318  0.1865 -0.2734  0.3488
15622SOL    HW248635   6.827   8.050   7.466 -0.0631 -0.8399  0.3940
15623SOL     OW48636   9.671   5.961   9.809  0.1723  0.2705  0.3992
15623SOL    HW148637   9.715   5.949   9.725 -1.0677 -0.3278 -0.1907
15623SOL    HW248638   9.633   5.876   9.829 -0.1153  0.5824  1.2395
15624SOL     OW48639   7.870   1.204   5.880  0.1307 -0.0179 -0.3352
15624SOL    HW148640   7.834   1.193   5.968 -0.4062 -1.5035 -0.7222
15624SOL    HW248641   7.796   1.187   5.822  0.9286 -0.9116 -1.1045
15625SOL     OW48642   6.513   2.804   2.836  0.0300 -0.2374 -0.2179
15625SOL    HW148643   6.477   2.721   2.865 -0.1987 -0.5208 -1.2830
15625SOL    HW248644   6.479   2.816   2.747  0.3264  0.8273 -0.2040
15626SOL     OW48645   8.699   0.490   3.241 -1.1441 -0.3530 -0.2401
15626SOL    HW148646   8.672   0.423   3.178 -2.1292  1.3224 -1.7000
15626SOL    HW248647   8.794   0.493   3.233 -0.7650 -3.2870  1.7445
15627SOL     OW48648   5.759   3.876   2.767  0.0406  0.2696  0.2186
15627SOL    HW148649   5.801   3.832   2.694 -2.5443  0.5777 -1.5547
15627SOL    HW248650   5.756   3.968   2.742  0.6719  0.6868  1.5403
15628SOL     OW48651   9.473   4.859   0.423  0.4498  0.5211 -0.6490
15628SOL    HW148652   9.414   4.932   0.403 -0.8886  0.0886  1.4038
15628SOL    HW248653   9.416   4.791   0.460  1.8937 -0.9524 -0.9879
15629SOL     OW48654   2.092   2.954   0.651  0.7721  0.2074  0.2129
15629SOL    HW148655   2.093   2.858   0.660  0.7187  0.2263  0.4068
15629SOL    HW248656   2.016   2.972   0.595 -0.5751  0.3050  2.0081
15630SOL     OW48657   9.085   9.490   4.906 -0.2485 -0.2306  0.2155
15630SOL    HW148658   9.042   9.564   4.863  0.3611  0.0936  0.1521
15630SOL    HW248659   9.043   9.412   4.868 -1.0386  0.0811  0.4347
15631SOL     OW48660   8.737   8.045   2.071  0.2297  0.2893 -0.4011
15631SOL    HW148661   8.755   8.139   2.060  1.0819  0.2557  0.5692
15631SOL    HW248662   8.667   8.027   2.008  1.6111  1.0769 -2.2840
15632SOL     OW48663   4.104   4.303   6.529 -0.3639 -0.1982 -0.0350
15632SOL    HW148664   4.199   4.300   6.516 -0.1294 -1.2679  1.6614
15632SOL    HW248665   4.093   4.356   6.608 -1.1066 -0.8835  0.3284
15633SOL     OW48666   5.306   1.776   4.106 -0.0811  0.2335  0.0958
15633SOL    HW148667   5.341   1.750   4.191  0.8657 -0.5225 -0.5045
15633SOL    HW248668   5.237   1.840   4.127  1.2916  1.3911  1.3539
15634SOL     OW48669   0.038   6.722   3.696  0.2216 -0.1860  0.0394
15634SOL    HW148670   0.065   6.685   3.612 -0.6274  0.3934 -0.5044
15634SOL    HW248671  -0.016   6.655   3.735  0.3162 -0.3128 -0.0452
15635SOL     OW48672   6.646   0.434   5.691  0.0301 -0.2627  0.6255
15635SOL    HW148673   6.709   0.476   5.749  0.9297  0.1148 -0.5748
15635SOL    HW248674   6.651   0.341   5.714  0.3672 -0.1207  1.1494
15636SOL     OW48675   5.618   4.331   6.393  0.4002  0.6837 -0.4376
15636SOL    HW148676   5.663   4.403   6.438  0.3113  0.1640  0.5148
15636SOL    HW248677   5.615   4.261   6.458 -0.8283  0.3334 -0.8543
15637SOL     OW48678   4.805   1.347   8.471 -0.0044 -0.0826 -0.2950
15637SOL    HW148679   4.786   1.303   8.553  0.2947  1.8895  0.9028
15637SOL    HW248680   4.744   1.309   8.408 -1.7968 -0.0976  1.3645
15638SOL     OW48681   8.342   1.959   2.292 -1.0107  0.1785  0.0347
15638SOL    HW148682   8.290   1.959   2.372 -0.0036  2.2403  0.7565
15638SOL    HW248683   8.424   2.000   2.316 -0.2284 -0.1940 -1.8015
15639SOL     OW48684   6.356   0.315   7.448 -0.1840  0.0253  0.0751
15639SOL    HW148685   6.446   0.302   7.419  0.0572  1.2561  0.2520
15639SOL    HW248686   6.315   0.367   7.380 -0.1054  1.4256  1.0581
15640SOL     OW48687   9.446   4.596   7.564  0.3646  0.3010 -0.1266
15640SOL    HW148688   9.528   4.612   7.612  0.1085 -0.4033  0.5543
15640SOL    HW248689   9.415   4.512   7.597 -0.1602  0.1220 -1.0630
15641SOL     OW48690   5.376   5.498   4.005 -0.1760 -0.1186 -0.1875
15641SOL    HW148691   5.289   5.478   3.969 -0.9464  3.2156 -0.5086
15641SOL    HW248692   5.357   5.551   4.083  1.5660 -0.2914  0.3808
15642SOL     OW48693   8.074   4.165   2.386  0.0114 -0.3975  0.0621
15642SOL    HW148694   8.165   4.189   2.405 -0.6000  1.7422  0.5658
15642SOL    HW248695   8.025   4.245   2.403 -2.0841 -1.7263  0.5467
15643SOL     OW48696   0.289   1.803   7.611  0.2852 -0.1358 -0.1219
15643SOL    HW148697   0.201   1.815   7.574 -0.5877  0.4224  1.9623
15643SOL    HW248698   0.283   1.719   7.657  0.3918  0.5427  1.1606
15644SOL     OW48699   6.252   9.451   2.302 -0.0363  0.2885  0.2701
15644SOL    HW148700   6.163   9.477   2.326 -0.0561 -0.2375  0.8236
15644SOL    HW248701   6.305   9.477   2.378  0.0145 -0.8017  0.6296
15645SOL     OW48702   3.082   8.582   8.018 -0.3396 -0.2272 -0.0525
15645SOL    HW148703   3.175   8.593   8.037 -0.9364  2.6411  1.7468
15645SOL    HW248704   3.050   8.521   8.085  0.0571 -0.5162 -0.1225
15646SOL     OW48705   2.441   3.391   7.083 -0.3775  0.1690 -0.3893
15646SOL    HW148706   2.469   3.472   7.126 -0.2698 -0.3725  0.5901
15646SOL    HW248707   2.367   3.417   7.028 -0.8785  0.7811  0.5571
15647SOL     OW48708   0.505   5.264   0.391 -0.4300 -0.2200 -0.4242
15647SOL    HW148709   0.533   5.245   0.301  0.9291 -0.1883 -0.0233
15647SOL    HW248710   0.458   5.185   0.418  0.6518 -0.9384 -0.5795
15648SOL     OW48711   7.651   6.845   7.466 -0.1813 -0.5128  0.0122
15648SOL    HW148712   7.744   6.829   7.480  0.1318  0.8235 -0.3933
15648SOL    HW248713   7.627   6.908   7.534 -0.6255 -0.3239 -0.3181
15649SOL     OW48714   0.187   7.952   9.654  0.5070 -0.1618  0.2613
15649SOL    HW148715   0.204   7.998   9.736 -1.2730  0.8406  0.1328
15649SOL    HW248716   0.266   7.964   9.603  0.4904  1.9964  0.6219
15650SOL     OW48717   9.625   7.791   0.377  0.6975 -0.1385  0.2851
15650SOL    HW148718   9.573   7.725   0.331 -1.6621  0.9563  1.2571
15650SOL    HW248719   9.617   7.767   0.469 -0.3218  1.5403  0.6652
15651SOL     OW48720   5.132   8.396   6.258  0.1457  0.1237  0.4817
15651SOL    HW148721   5.171   8.311   6.241  0.2050  0.2218  0.1061
15651SOL    HW248722   5.039   8.378   6.273  0.1664 -0.0096  0.4438
15652SOL     OW48723   1.496   3.804   8.103 -0.1202 -0.5755  0.2151
15652SOL    HW148724   1.538   3.796   8.188  0.1794  0.0219  0.1283
15652SOL    HW248725   1.457   3.718   8.087 -1.8106 -0.1684  1.7891
15653SOL     OW48726   8.141   4.795   7.524 -0.3181 -0.2383 -0.0027
15653SOL    HW148727   8.212   4.848   7.558 -1.0856  0.5474  0.4068
15653SOL    HW248728   8.163   4.705   7.549  0.9367 -0.1172 -0.6146
15654SOL     OW48729   6.665   6.936   0.901  0.4383  0.1588 -0.1097
15654SOL    HW148730   6.599   6.965   0.964  0.5385 -1.0010  0.5629
15654SOL    HW248731   6.733   7.003   0.905  1.9292 -1.3142  3.3699
15655SOL     OW48732   6.166   8.251   5.828 -0.0357  0.2459  0.2069
15655SOL    HW148733   6.178   8.346   5.821 -1.0274  0.3307 -0.7149
15655SOL    HW248734   6.136   8.225   5.741 -0.4453 -0.8052  0.6515
15656SOL     OW48735   8.272   4.219   2.130  0.7330  0.0856  0.1765
15656SOL    HW148736   8.295   4.146   2.072  2.0070  0.2784  0.4197
15656SOL    HW248737   8.324   4.204   2.209 -0.8104 -0.0468  1.2106
15657SOL     OW48738   4.737   9.284   5.000 -0.0497  0.9149  0.1922
15657SOL    HW148739   4.748   9.282   4.905 -0.4123  0.2829  0.1610
15657SOL    HW248740   4.733   9.192   5.026  0.7665  1.0621  0.9120
15658SOL     OW48741   4.101   6.966   7.768  0.2169  0.5364  0.1580
15658SOL    HW148742   4.188   6.928   7.758 -0.5454 -0.9573 -1.2503
15658SOL    HW248743   4.106   7.048   7.719  0.1872 -0.7348 -2.1559
15659SOL     OW48744   6.300   3.098   5.969  0.0559 -0.2205  0.1806
15659SOL    HW148745   6.334   3.162   5.906  0.6067  1.8857  2.4735
15659SOL    HW248746   6.205   3.104   5.960  0.0122  2.2857  1.5101
15660SOL     OW48747   1.274   0.192   0.011  0.0925  0.5390 -0.6295
15660SOL    HW148748   1.324   0.215   0.090  2.7439  1.4224 -2.4183
15660SOL    HW248749   1.203   0.257   0.008  0.3334  0.8906  0.6792
15661SOL     OW48750   9.107   8.058   4.553  0.3164 -0.3232  0.0009
15661SOL    HW148751   9.196   8.055   4.587  0.1086  1.1898  0.7503
15661SOL    HW248752   9.118   8.076   4.459  0.8163 -1.7053 -0.2276
15662SOL     OW48753   0.375   4.130   4.814  0.2027 -0.7374 -0.0052
15662SOL    HW148754   0.450   4.077   4.841  0.3159 -0.6763 -0.1973
15662SOL    HW248755   0.378   4.206   4.872 -0.2575 -1.1785  0.6133
15663SOL     OW48756   1.694   9.473   9.728  0.2602 -0.3285 -0.3119
15663SOL    HW148757   1.715   9.560   9.694  0.1945  0.3257  1.2732
15663SOL    HW248758   1.744   9.465   9.809 -1.8838 -0.6407  1.0468
15664SOL     OW48759   1.535   8.182   6.635  0.7008  0.3003 -0.1774
15664SOL    HW148760   1.451   8.141   6.613  0.1860  0.9374  0.5329
15664SOL    HW248761   1.530   8.196   6.730  1.6450  0.2824 -0.1227
15665SOL     OW48762   1.425   5.538   5.375 -0.8694 -0.5138 -0.2641
15665SOL    HW148763   1.518   5.538   5.399 -1.2986  0.7167  1.6487
15665SOL    HW248764   1.414   5.459   5.322  1.2190 -0.8025 -0.3576
15666SOL     OW48765   1.085   8.094   2.043  0.3336 -0.4892  0.2124
15666SOL    HW148766   1.063   8.142   2.123  1.4858 -0.1640  0.3550
15666SOL    HW248767   1.011   8.034   2.030  0.2279 -0.7130  1.6495
15667SOL     OW48768   5.460   8.048   3.751  0.0348 -0.3819 -0.1143
15667SOL    HW148769   5.490   7.961   3.724  1.4716 -0.3841  1.3391
15667SOL    HW248770   5.470   8.102   3.673  2.4378 -0.7593 -0.1235
15668SOL     OW48771   3.724   9.283   1.007  0.0149  0.7015 -0.3220
15668SOL    HW148772   3.645   9.290   0.954 -0.0488  1.4399 -0.1416
15668SOL    HW248773   3.775   9.213   0.966 -0.8075  0.0839 -0.3300
15669SOL     OW48774   2.427   8.170   6.811 -0.9172  0.2071 -0.6057
15669SOL    HW148775   2.333   8.179   6.792 -0.9731 -1.9156 -1.6539
15669SOL    HW248776   2.467   8.153   6.725  0.4538  1.0759 -0.1703
15670SOL     OW48777   6.532   6.028   7.249  0.9656  0.2228  0.5537
15670SOL    HW148778   6.506   6.100   7.191 -0.9532 -0.6578  0.2250
15670SOL    HW248779   6.510   6.058   7.337  0.5591  0.2202  0.4564
15671SOL     OW48780   4.239   7.297   4.844 -0.4162  0.1851  0.0515
15671SOL    HW148781   4.282   7.314   4.760  2.7060  1.4340  1.7551
15671SOL    HW248782   4.245   7.202   4.855  1.4931  0.2617 -0.0386
15672SOL     OW48783   7.765   3.704   8.298  0.7876  0.3381  0.0640
15672SOL    HW148784   7.837   3.737   8.245 -0.3856  2.4074 -0.3660
15672SOL    HW248785   7.808   3.653   8.367  2.5040 -0.1142 -1.2622
15673SOL     OW48786   8.321   9.665   4.890  0.5049  0.0673  0.4701
15673SOL    HW148787   8.271   9.703   4.817  0.6110 -3.9146 -1.9468
15673SOL    HW248788   8.410   9.697   4.877  0.3451  0.1069 -0.6742
15674SOL     OW48789   9.077   5.211   7.175  0.6801  0.4389 -0.3748
15674SOL    HW148790   8.987   5.238   7.161  0.3401  0.2748  1.2126
15674SOL    HW248791   9.127   5.293   7.172  0.2581  0.7275  0.1976
15675SOL     OW48792   3.770   5.730   6.124  0.7731  0.2412  0.0958
15675SOL    HW148793   3.678   5.716   6.144  1.2244 -1.5594  1.1322
15675SOL    HW248794   3.769   5.776   6.040 -1.0592 -0.1656 -0.1538
15676SOL     OW48795   3.785   8.864   2.908  0.2967 -0.2418 -0.1232
15676SOL    HW148796   3.842   8.918   2.963  0.8055 -1.5263  0.6743
15676SOL    HW248797   3.704   8.856   2.958 -0.8669  2.0604 -1.5174
15677SOL     OW48798   4.547   3.011   7.095 -0.0929 -0.4923  0.3499
15677SOL    HW148799   4.620   2.972   7.144  2.2538  2.2249 -0.6875
15677SOL    HW248800   4.488   3.045   7.162  2.2882  1.8146  1.4586
15678SOL     OW48801   1.951   2.411   2.464 -0.2926 -0.7565 -1.0881
15678SOL    HW148802   1.885   2.430   2.531  0.1637  0.7190 -1.0227
15678SOL    HW248803   1.998   2.335   2.499  0.8299  0.7773  1.0200
15679SOL     OW48804   8.456   7.600   6.646 -0.6556 -0.2670 -0.1486
15679SOL    HW148805   8.378   7.625   6.597 -1.1657 -0.3115  0.6278
15679SOL    HW248806   8.502   7.683   6.661 -0.4162 -0.2695 -0.8137
15680SOL     OW48807   9.777   9.347   2.505 -0.1348 -0.2222 -0.6603
15680SOL    HW148808   9.832   9.418   2.540  0.6555 -0.3076 -1.6816
15680SOL    HW248809   9.691   9.388   2.492 -0.2413  0.0025  0.6473
15681SOL     OW48810   3.919   3.314   7.519  0.2626  0.2303  0.2264
15681SOL    HW148811   3.898   3.352   7.604 -0.7951 -1.9979  1.0606
15681SOL    HW248812   4.014   3.312   7.516  0.3381 -0.9173  2.0271
15682SOL     OW48813   4.362   1.758   1.261  0.5977  0.1839  0.6620
15682SOL    HW148814   4.330   1.848   1.255  1.0425  0.6046  3.5704
15682SOL    HW248815   4.290   1.705   1.228 -1.1326  1.4224  2.2740
15683SOL     OW48816   2.436   7.766   8.960  0.7154 -0.1115  1.2706
15683SOL    HW148817   2.476   7.766   8.873  1.6953 -0.3120  1.6979
15683SOL    HW248818   2.365   7.703   8.954  0.8198 -0.1750  0.6311
15684SOL     OW48819   2.669   3.354   7.338  0.5206  0.1807 -0.3308
15684SOL    HW148820   2.737   3.356   7.270  0.2857  0.3316 -0.5657
15684SOL    HW248821   2.680   3.436   7.386  0.5399  0.1797 -0.3339
15685SOL     OW48822   1.197   7.280   6.306 -0.8043 -0.2718  0.5375
15685SOL    HW148823   1.268   7.345   6.312 -0.4740 -0.7130  1.8436
15685SOL    HW248824   1.205   7.243   6.219 -0.8948  1.3212 -0.1827
15686SOL     OW48825   8.078   5.283   1.694  0.4891  0.4458  0.0647
15686SOL    HW148826   8.029   5.365   1.704  0.2480  0.3841 -0.5772
15686SOL    HW248827   8.145   5.303   1.629  0.8904  0.3382  0.4456
15687SOL     OW48828   8.124   4.831   5.341 -0.1590  0.3192 -0.0060
15687SOL    HW148829   8.135   4.813   5.248 -0.4819 -0.2922  0.0684
15687SOL    HW248830   8.209   4.808   5.380  0.0342  0.7460 -0.1717
15688SOL     OW48831   6.536   3.917   3.606 -0.0305  0.5985 -0.6186
15688SOL    HW148832   6.596   3.848   3.634 -0.6365  0.1834 -0.3384
15688SOL    HW248833   6.594   3.990   3.583  0.5158  1.1420  2.1224
15689SOL     OW48834   0.760   3.538   1.973 -0.4886  0.2383  1.3352
15689SOL    HW148835   0.666   3.528   1.989 -0.9275 -0.7248 -1.3718
15689SOL    HW248836   0.774   3.501   1.886  1.9654  2.7253  0.5189
15690SOL     OW48837   5.460   5.441   2.856  0.0530  0.6082 -0.1373
15690SOL    HW148838   5.542   5.433   2.906 -0.1357  0.7692  0.2044
15690SOL    HW248839   5.393   5.452   2.923 -0.5878 -1.9383 -0.2432
15691SOL     OW48840   8.920   4.332   3.335 -0.1823  0.4072  0.0117
15691SOL    HW148841   8.847   4.315   3.276 -0.0096  0.9478 -0.3602
15691SOL    HW248842   8.984   4.379   3.282  0.5767 -0.3187  0.2457
15692SOL     OW48843   2.848   6.624   6.726 -0.6064 -0.1990 -0.2891
15692SOL    HW148844   2.909   6.551   6.736 -1.3697 -1.1527 -2.0990
15692SOL    HW248845   2.785   6.593   6.661 -2.9717  0.7836  1.4163
15693SOL     OW48846   8.437   0.098   8.703 -0.4644 -0.1833  0.3382
15693SOL    HW148847   8.495   0.022   8.712 -1.2295 -0.6338  1.7132
15693SOL    HW248848   8.434   0.114   8.609  1.2398 -0.6426  0.1680
15694SOL     OW48849   0.029   0.123   2.629 -0.4056  0.0350 -0.1793
15694SOL    HW148850   0.028   0.178   2.708  0.5562 -1.5868  1.0256
15694SOL    HW248851   0.109   0.148   2.584 -0.4441  0.2624 -0.1232
15695SOL     OW48852   4.834   6.686   0.515 -0.1889 -0.5986 -0.0956
15695SOL    HW148853   4.825   6.779   0.536 -0.7900 -0.8408  0.7954
15695SOL    HW248854   4.750   6.647   0.542 -0.8528 -1.0450 -2.5866
15696SOL     OW48855   8.472   9.317   6.111  0.2976 -0.3100  0.2511
15696SOL    HW148856   8.452   9.296   6.202 -0.6093 -1.1492 -0.1300
15696SOL    HW248857   8.394   9.361   6.079  1.5065  2.2392  0.5374
15697SOL     OW48858   7.527   6.474   8.607  0.5323 -0.2139 -0.3910
15697SOL    HW148859   7.493   6.499   8.693  0.0489  2.1383 -1.2053
15697SOL    HW248860   7.452   6.484   8.548  0.9191 -1.5535 -1.1591
15698SOL     OW48861   0.675   2.464   4.063 -0.3520 -0.1751 -0.3413
15698SOL    HW148862   0.666   2.517   4.143 -1.0581 -0.3945 -0.2616
15698SOL    HW248863   0.587   2.428   4.049  0.1896 -1.6098 -0.1940
15699SOL     OW48864   4.854   6.533   2.804 -0.3866  0.2965 -0.3320
15699SOL    HW148865   4.901   6.522   2.722  1.3133 -1.6744  0.8093
15699SOL    HW248866   4.803   6.452   2.813 -1.2615  0.8835  0.1420
15700SOL     OW48867   6.370   5.369   9.117 -0.0379  0.3565 -0.2474
15700SOL    HW148868   6.295   5.429   9.120 -0.3645 -0.0647  0.0943
15700SOL    HW248869   6.335   5.289   9.078  0.3555  0.3254 -0.5449
15701SOL     OW48870   9.185   5.536   3.313  0.3654  0.2771  0.5208
15701SOL    HW148871   9.122   5.521   3.382  1.3417  0.0833  1.3931
15701SOL    HW248872   9.138   5.588   3.248 -0.1609  1.6925  1.9839
15702SOL     OW48873   6.788   3.461   6.861 -0.1908  0.4215 -0.4779
15702SOL    HW148874   6.794   3.551   6.893 -0.4892  0.2067  0.2024
15702SOL    HW248875   6.699   3.454   6.827 -0.9160 -0.2283  1.4338
15703SOL     OW48876   2.815   9.622   7.615  0.1304  0.0309 -0.2650
15703SOL    HW148877   2.875   9.548   7.623  0.1916  0.1316  0.2697
15703SOL    HW248878   2.852   9.675   7.544  0.7302  0.1393  0.1206
15704SOL     OW48879   0.976   3.982   2.485  0.2658  0.4521 -0.1966
15704SOL    HW148880   1.051   4.025   2.524  0.6524  1.4122 -1.8930
15704SOL    HW248881   1.013   3.911   2.432  0.0362  1.1259 -1.2973
15705SOL     OW48882   9.835   2.334   6.229 -0.3455  0.6195  0.3784
15705SOL    HW148883   9.747   2.324   6.264 -0.2601 -0.9265  0.2203
15705SOL    HW248884   9.828   2.307   6.137  0.2800  0.5284  0.3538
15706SOL     OW48885   4.887   3.062   2.958  0.1779 -1.0847 -0.0644
15706SOL    HW148886   4.946   3.052   2.884 -0.6420 -0.5810 -0.8158
15706SOL    HW248887   4.817   2.999   2.942 -1.4351  0.8541 -1.2190
15707SOL     OW48888   3.897   2.128   0.845 -0.4469  0.2711  0.0197
15707SOL    HW148889   3.876   2.089   0.760 -0.2314 -1.4838  0.7142
15707SOL    HW248890   3.812   2.143   0.886 -0.6145  2.3073 -0.9422
15708SOL     OW48891   2.080   3.532   0.530 -0.4614  0.5738 -0.3206
15708SOL    HW148892   2.139   3.535   0.605 -0.0435 -2.1139 -0.4623
15708SOL    HW248893   1.995   3.509   0.567 -0.2399 -0.8344 -0.6165
15709SOL     OW48894   6.560   3.310   0.968  0.2283  0.1222 -0.0636
15709SOL    HW148895   6.646   3.302   1.009 -0.5302 -0.9993  1.3900
15709SOL    HW248896   6.513   3.230   0.994 -2.7644  2.5408  2.8319
15710SOL     OW48897   2.956   8.928   1.845  0.1863  0.0210 -0.2752
15710SOL    HW148898   2.891   8.901   1.781  0.6482  1.4818 -1.4170
15710SOL    HW248899   2.913   8.916   1.930 -0.7747 -1.0652 -0.8934
15711SOL     OW48900   2.081   2.166   2.569 -0.3313 -0.1583  0.5322
15711SOL    HW148901   2.064   2.093   2.628 -1.4387 -0.4046 -0.0601
15711SOL    HW248902   2.146   2.219   2.614 -0.7309 -0.6458  1.7195
15712SOL     OW48903   1.770   2.060   0.302  0.5392  0.1972 -0.5307
15712SOL    HW148904   1.812   2.071   0.387  0.2151 -0.2444 -0.3062
15712SOL    HW248905   1.809   1.981   0.266 -0.8987 -0.8822  0.1879
15713SOL     OW48906   9.298   0.827   8.898  0.0553  0.1927  0.0404
15713SOL    HW148907   9.290   0.752   8.958  2.5660 -0.4981 -0.3440
15713SOL    HW248908   9.320   0.787   8.813  0.8132  1.3242 -0.3177
15714SOL     OW48909   8.894   5.793   4.138 -0.3001 -0.2658 -0.0276
15714SOL    HW148910   8.835   5.868   4.137  1.8946  1.5729  0.8634
15714SOL    HW248911   8.921   5.784   4.230  1.5091 -0.4372 -0.5342
15715SOL     OW48912   0.455   9.116   1.089  0.4703 -0.1943  0.1369
15715SOL    HW148913   0.514   9.160   1.027 -0.0452 -1.2743 -1.1731
15715SOL    HW248914   0.513   9.074   1.152  1.0166  0.7290  0.2765
15716SOL     OW48915   3.146   7.852   8.187  0.1890  0.1717  0.0996
15716SOL    HW148916   3.079   7.920   8.191  0.4260  0.3460  1.3091
15716SOL    HW248917   3.225   7.897   8.158  0.4126  0.4741  1.1603
15717SOL     OW48918   5.877   2.586   7.175 -0.0154  0.4036 -0.0832
15717SOL    HW148919   5.820   2.610   7.249  0.5542  1.4776  0.0398
15717SOL    HW248920   5.893   2.493   7.186  0.7057  0.6762  1.6524
15718SOL     OW48921   1.223   9.449   0.416 -0.3610  0.4039 -0.1996
15718SOL    HW148922   1.183   9.436   0.330 -0.7763  0.1054  0.0351
15718SOL    HW248923   1.191   9.534   0.446 -0.8034  0.1854 -0.0308
15719SOL     OW48924   4.230   9.561   0.881 -0.0000  0.1284 -0.0476
15719SOL    HW148925   4.306   9.547   0.824  0.6109 -2.4269  1.2669
15719SOL    HW248926   4.168   9.493   0.856 -0.1962 -0.3087  1.5237
15720SOL     OW48927   5.536   0.099   6.267  0.1730  1.1850 -0.9682
15720SOL    HW148928   5.620   0.141   6.285  0.0114  1.0793  0.1112
15720SOL    HW248929   5.495   0.090   6.353  0.1455 -1.1055 -1.1627
15721SOL     OW48930   1.785   0.513   0.977  0.6767  0.5530  0.1611
15721SOL    HW148931   1.729   0.449   0.934 -0.2612 -0.2869  2.4574
15721SOL    HW248932   1.779   0.592   0.922 -1.5475  0.0052 -0.4749
15722SOL     OW48933   2.934   7.531   8.459 -0.5493 -0.0294 -0.1432
15722SOL    HW148934   2.966   7.481   8.384 -0.9415 -0.3210 -0.1160
15722SOL    HW248935   2.839   7.531   8.450 -0.5864  0.1273  0.2280
15723SOL     OW48936   1.823   6.760   5.883 -0.4136  0.2009  0.5612
15723SOL    HW148937   1.811   6.731   5.793  0.3913  0.4455  0.3660
15723SOL    HW248938   1.909   6.727   5.908 -1.2461 -1.1621  1.7651
15724SOL     OW48939   2.117   9.717   7.013 -0.0685 -0.3294  0.0256
15724SOL    HW148940   2.039   9.677   6.977 -1.8939  3.7112 -1.1320
15724SOL    HW248941   2.108   9.707   7.108 -1.5987 -0.6011 -0.1280
15725SOL     OW48942   9.174   0.483   4.204  0.2149  0.2115  0.4392
15725SOL    HW148943   9.262   0.518   4.188 -0.0230  0.7151  0.2412
15725SOL    HW248944   9.124   0.557   4.238 -0.1400 -0.0704  0.5402
15726SOL     OW48945   5.711   1.041   0.639 -0.0517  0.0877  0.0614
15726SOL    HW148946   5.769   1.110   0.670  0.4218 -0.2935  0.0438
15726SOL    HW248947   5.694   0.987   0.716 -1.5579  0.9945  0.4088
15727SOL     OW48948   5.952   2.260   7.803  0.3059 -0.4610 -0.3748
15727SOL    HW148949   5.882   2.271   7.738  1.3331 -0.4606 -1.4983
15727SOL    HW248950   6.013   2.331   7.785  1.1676 -1.1316 -0.1235
15728SOL     OW48951   1.955   3.644   4.154  0.1907  0.4376  0.1585
15728SOL    HW148952   2.018   3.599   4.098 -1.7984 -1.5489 -0.6501
15728SOL    HW248953   2.001   3.723   4.183  3.0935 -1.0042 -0.1408
15729SOL     OW48954   2.695   6.903   7.928 -0.0811  0.0772  0.0016
15729SOL    HW148955   2.727   6.945   8.008  1.0949  0.8210 -0.8158
15729SOL    HW248956   2.720   6.964   7.858 -0.1251 -1.0541 -1.0324
15730SOL     OW48957   0.526   8.850   4.262 -0.1321 -0.0138 -0.0917
15730SOL    HW148958   0.447   8.816   4.304 -0.2472  1.2210  0.7420
15730SOL    HW248959   0.598   8.815   4.314 -0.2270  0.6069  0.4606
15731SOL     OW48960   8.289   3.437   1.540 -0.3992  0.2553  0.0417
15731SOL    HW148961   8.286   3.393   1.455  1.6562  1.3726 -0.6893
15731SOL    HW248962   8.254   3.524   1.523  0.0132  0.4818  0.3509
15732SOL     OW48963   5.874   1.581   9.493  0.3214 -0.2471 -0.4150
15732SOL    HW148964   5.970   1.581   9.498  0.2854  0.5236  0.4943
15732SOL    HW248965   5.852   1.493   9.462  1.2104 -1.5674  2.3381
15733SOL     OW48966   8.206   5.347   8.117 -0.2818 -0.1220  0.6507
15733SOL    HW148967   8.116   5.360   8.088 -0.5790 -1.2553  1.0161
15733SOL    HW248968   8.251   5.429   8.094 -1.2070  0.1549 -0.2452
15734SOL     OW48969   5.585   2.890   3.734 -0.2772  0.0771 -0.0539
15734SOL    HW148970   5.654   2.938   3.779  0.3819 -0.5451 -0.3900
15734SOL    HW248971   5.565   2.816   3.792 -0.5826  0.1841 -0.0167
15735SOL     OW48972   9.478   0.514   4.637  0.1320 -0.5917  0.5765
15735SOL    HW148973   9.493   0.465   4.556  1.0590  0.5409  0.0252
15735SOL    HW248974   9.552   0.491   4.693 -0.0270 -0.6827  0.7495
15736SOL     OW48975   1.250   1.781   9.195  0.5360 -0.3740  0.6527
15736SOL    HW148976   1.276   1.872   9.184  1.0960 -0.5768  0.2652
15736SOL    HW248977   1.180   1.768   9.130 -0.9709  0.3161  2.0476
15737SOL     OW48978   5.851   5.734   5.179  0.5064  0.1089 -0.4271
15737SOL    HW148979   5.890   5.817   5.208  0.8918  0.6037 -2.2113
15737SOL    HW248980   5.780   5.718   5.241  1.1339  1.1781  0.6192
15738SOL     OW48981   0.361   0.209   3.001  0.5367  0.3400  0.6220
15738SOL    HW148982   0.443   0.237   2.960  0.2734 -0.7111 -0.6898
15738SOL    HW248983   0.350   0.118   2.974 -1.7372  0.8435 -0.3683
15739SOL     OW48984   0.726   8.117   6.010  0.9418  0.2675 -0.3285
15739SOL    HW148985   0.801   8.069   6.045  0.7196 -1.9308 -2.5778
15739SOL    HW248986   0.654   8.055   6.015  0.0766  1.1663 -1.2818
15740SOL     OW48987   2.699   0.124   2.191 -0.1891 -0.3409 -0.3379
15740SOL    HW148988   2.751   0.102   2.114  0.3111 -1.7512  0.3719
15740SOL    HW248989   2.714   0.052   2.252  0.8686  1.5667  1.8147
15741SOL     OW48990   9.563   2.598   0.757  0.5727  0.2129  0.2303
15741SOL    HW148991   9.510   2.519   0.748 -0.7544  1.2185 -1.2698
15741SOL    HW248992   9.542   2.631   0.845 -1.5033  0.6847 -0.3897
15742SOL     OW48993   3.454   5.189   5.845 -0.0583  0.1474  0.1757
15742SOL    HW148994   3.528   5.184   5.784 -1.3590  1.1968 -1.5750
15742SOL    HW248995   3.464   5.273   5.889 -0.9972  1.0166 -1.2000
15743SOL     OW48996   0.906   1.590   0.718 -0.3039  0.4867  0.4389
15743SOL    HW148997   0.864   1.674   0.740 -0.3253 -0.0844  2.8310
15743SOL    HW248998   0.939   1.557   0.802  0.7868 -1.3368 -0.6460
15744SOL     OW48999   8.284   6.501   0.815 -0.2580 -0.5672  0.4579
15744SOL    HW149000   8.264   6.593   0.832 -0.7914 -0.4666 -0.6212
15744SOL    HW249001   8.371   6.503   0.775 -0.7110 -0.4207 -0.5441
15745SOL     OW49002   5.686   6.688   8.180  0.3364  0.5338 -0.5658
15745SOL    HW149003   5.613   6.719   8.234  0.9420 -0.1855  0.7099
15745SOL    HW249004   5.645   6.658   8.099 -1.0888 -1.7391  0.8815
15746SOL     OW49005   0.051   9.725   0.966  0.0922  0.4423 -0.4997
15746SOL    HW149006   0.117   9.665   0.932  0.8442  1.2246 -0.4616
15746SOL    HW249007  -0.032   9.679   0.954  0.6957 -0.8458  0.0899
15747SOL     OW49008   3.389   5.354   4.801 -0.0708 -0.3062 -0.0967
15747SOL    HW149009   3.351   5.295   4.867  0.2835 -1.2699 -0.7366
15747SOL    HW249010   3.358   5.319   4.718  0.8934 -0.1342 -0.5373
15748SOL     OW49011   0.512   3.380   2.028  0.2073 -0.4497  0.0354
15748SOL    HW149012   0.428   3.353   1.992 -0.7453  1.7331  0.4527
15748SOL    HW249013   0.572   3.309   2.005 -1.5590 -1.7115 -0.9356
15749SOL     OW49014   5.150   1.069   5.132 -0.4665 -0.5974  0.1728
15749SOL    HW149015   5.074   1.054   5.188 -1.8495 -1.2691 -1.7588
15749SOL    HW249016   5.113   1.080   5.044  1.6314 -0.1326 -0.7177
15750SOL     OW49017   9.284   2.769   2.210  0.3761  0.3598 -0.5715
15750SOL    HW149018   9.355   2.820   2.248  0.6871 -0.5208  0.0670
15750SOL    HW249019   9.317   2.743   2.124  0.6439  0.3552 -0.4703
15751SOL     OW49020   7.437   5.728   5.904 -0.6014 -0.3549  0.3388
15751SOL    HW149021   7.444   5.657   5.967  0.0144 -1.3849 -0.8290
15751SOL    HW249022   7.395   5.688   5.827 -1.5719  0.9219  0.1728
15752SOL     OW49023   7.839   1.655   4.665  0.3657  0.1474  0.1356
15752SOL    HW149024   7.777   1.583   4.654  0.9301 -0.3884  0.4072
15752SOL    HW249025   7.853   1.687   4.576 -0.0785  0.0913  0.0392
15753SOL     OW49026   5.751   5.751   7.066  0.0992 -0.7535 -0.2307
15753SOL    HW149027   5.826   5.785   7.114 -0.5798  0.1468  0.2021
15753SOL    HW249028   5.755   5.656   7.079  0.9232 -0.6769  0.1157
15754SOL     OW49029   7.818   3.067   3.638  0.5453  0.3995 -0.4461
15754SOL    HW149030   7.735   3.043   3.597 -0.0609  0.5842  0.6241
15754SOL    HW249031   7.843   3.149   3.597 -0.3274  0.8629 -0.0645
15755SOL     OW49032   0.703   4.183   6.312  0.4895 -0.3221 -0.3147
15755SOL    HW149033   0.705   4.102   6.361  2.3564 -0.1777 -0.0928
15755SOL    HW249034   0.647   4.164   6.236 -2.9959 -0.3577  2.0186
15756SOL     OW49035   3.608   2.227   6.079  0.2164  0.0326  0.7093
15756SOL    HW149036   3.643   2.284   6.148  0.3741  0.9588 -0.1170
15756SOL    HW249037   3.595   2.286   6.005  0.2894 -1.0018 -0.1322
15757SOL     OW49038   0.364   2.321   5.214  0.5405  0.0161  0.1332
15757SOL    HW149039   0.355   2.231   5.183  3.3017 -0.7803  1.3939
15757SOL    HW249040   0.274   2.349   5.231 -0.6759 -1.4181 -3.0063
15758SOL     OW49041   5.637   6.507   3.011  0.2139  0.2212  0.4533
15758SOL    HW149042   5.730   6.508   2.990  0.1397  0.2885  0.1186
15758SOL    HW249043   5.634   6.516   3.106  0.5213  1.8813  0.3405
15759SOL     OW49044   5.653   9.206   5.721 -0.3331  0.0874 -0.5060
15759SOL    HW149045   5.574   9.260   5.709  0.3877  1.5744  1.0421
15759SOL    HW249046   5.722   9.254   5.675 -0.3872 -1.6032 -2.5290
15760SOL     OW49047   2.206   5.494   7.501 -0.1362  0.4790  0.1412
15760SOL    HW149048   2.200   5.549   7.423 -0.8760  1.9346  1.1630
15760SOL    HW249049   2.184   5.553   7.573  1.4495 -0.5697  1.5567
15761SOL     OW49050   1.030   2.075   2.169  0.1956 -0.2359  0.2019
15761SOL    HW149051   1.109   2.061   2.117 -0.4928 -2.0729 -0.4160
15761SOL    HW249052   0.963   2.098   2.104  0.0663  0.7827  0.6703
15762SOL     OW49053   8.961   1.479   4.240  0.2711 -0.1102  0.5178
15762SOL    HW149054   9.011   1.561   4.249  1.7556 -1.1575  2.5378
15762SOL    HW249055   8.950   1.469   4.145  0.3375  2.2329  0.1947
15763SOL     OW49056   7.580   5.517   6.100  0.0313  0.1749  0.4449
15763SOL    HW149057   7.589   5.484   6.190  2.2465 -0.8517 -0.0937
15763SOL    HW249058   7.515   5.459   6.060  3.3417 -3.3758 -0.2851
15764SOL     OW49059   8.715   1.954   6.670  0.7327  0.1595  0.2323
15764SOL    HW149060   8.642   1.936   6.610  0.2727 -0.0766  0.8549
15764SOL    HW249061   8.782   1.995   6.615  0.5760 -0.6430 -0.5881
15765SOL     OW49062   8.706   6.362   7.109 -0.4496  0.2264 -0.0712
15765SOL    HW149063   8.664   6.288   7.066 -0.4424 -1.2281  2.2512
15765SOL    HW249064   8.797   6.334   7.120 -0.3907  0.6662  0.6100
15766SOL     OW49065   7.575   0.964   4.747 -0.3120  0.1256 -0.1117
15766SOL    HW149066   7.526   0.905   4.689  0.0754  1.8626 -2.3904
15766SOL    HW249067   7.521   1.043   4.750  0.6012  0.7497  0.3270
15767SOL     OW49068   1.308   6.841   8.534 -0.2307  0.3172 -0.3384
15767SOL    HW149069   1.389   6.844   8.483  0.1091 -1.4765  0.0184
15767SOL    HW249070   1.257   6.770   8.495 -0.4110 -0.4036  1.1097
15768SOL     OW49071   1.650   7.268   0.060 -0.3415  0.2751  0.8572
15768SOL    HW149072   1.708   7.242   0.132  0.0850  0.6331  0.6445
15768SOL    HW249073   1.664   7.201  -0.007 -0.4204  0.1770  0.9392
15769SOL     OW49074   3.273   0.546   4.090  0.6227  0.3935 -0.9125
15769SOL    HW149075   3.331   0.490   4.037 -0.3942 -1.1900 -0.4246
15769SOL    HW249076   3.238   0.487   4.156 -1.4713  1.3307 -1.1189
15770SOL     OW49077   0.118   1.731   8.642 -0.0346 -0.0119  0.2731
15770SOL    HW149078   0.191   1.753   8.584 -1.1191  0.3146 -1.0132
15770SOL    HW249079   0.078   1.654   8.602  0.5821 -1.2175  1.8872
15771SOL     OW49080   7.565   8.496   4.489 -0.2473  0.1777 -0.4478
15771SOL    HW149081   7.531   8.488   4.578 -0.5895  1.0199 -0.4961
15771SOL    HW249082   7.609   8.412   4.473  0.2438  0.1954  0.6873
15772SOL     OW49083   9.511   5.965   1.014 -0.4088  0.2709  0.1572
15772SOL    HW149084   9.475   5.877   1.029 -0.7650  0.5694  1.1571
15772SOL    HW249085   9.519   5.972   0.919 -2.1063 -0.1636 -0.0513
15773SOL     OW49086   5.839   1.601   7.733 -0.3473  0.1939  0.7910
15773SOL    HW149087   5.745   1.618   7.723 -0.7800 -1.2267  2.0756
15773SOL    HW249088   5.853   1.517   7.689  1.0935  1.9676 -2.5300
15774SOL     OW49089   1.554   1.413   1.671  0.0633  0.7077  0.1520
15774SOL    HW149090   1.639   1.380   1.702  1.6958  1.8308 -2.6694
15774SOL    HW249091   1.522   1.343   1.614 -0.8233  0.4054  0.9997
15775SOL     OW49092   8.243   7.957   3.309 -0.3872 -0.1019 -0.4723
15775SOL    HW149093   8.188   7.987   3.236  0.3223  0.7288 -0.6906
15775SOL    HW249094   8.239   8.029   3.372  1.7926  0.7493 -1.2421
15776SOL     OW49095   0.196   7.817   1.365 -0.4710  0.3899  0.3321
15776SOL    HW149096   0.109   7.854   1.353 -0.5565  0.2253  0.4455
15776SOL    HW249097   0.182   7.722   1.369 -0.2518  0.3394  0.0100
15777SOL     OW49098   5.776   8.680   8.400 -0.8132 -0.5742  0.1294
15777SOL    HW149099   5.791   8.774   8.387 -3.8784 -0.0442 -0.3431
15777SOL    HW249100   5.816   8.639   8.323  0.9025  0.2762  0.5336
15778SOL     OW49101   4.051   1.241   2.508  0.1209 -0.3664 -0.0072
15778SOL    HW149102   4.038   1.331   2.477  0.3935 -0.2695  0.1479
15778SOL    HW249103   4.123   1.208   2.455 -1.6585 -1.4051 -1.8845
15779SOL     OW49104   0.839   8.494   6.067 -0.1179  0.0644  0.4668
15779SOL    HW149105   0.925   8.452   6.076 -0.0242  0.1838  0.1450
15779SOL    HW249106   0.778   8.433   6.110  0.0317 -0.3561  0.0874
15780SOL     OW49107   9.798   0.898   5.131  0.0811 -0.0193  0.8868
15780SOL    HW149108   9.858   0.926   5.200  1.3692  2.4538 -1.0786
15780SOL    HW249109   9.729   0.964   5.131  0.5833  0.5332 -0.7493
15781SOL     OW49110   4.336   7.651   2.678  0.3680 -0.0367  0.2331
15781SOL    HW149111   4.298   7.563   2.676 -1.5187  0.7259  0.0641
15781SOL    HW249112   4.319   7.687   2.591  1.2053  0.4842  0.2688
15782SOL     OW49113   4.495   8.862   6.293  0.1246  0.6827  0.7056
15782SOL    HW149114   4.460   8.784   6.336 -1.4428  1.0641  0.1922
15782SOL    HW249115   4.468   8.934   6.349  0.9606  0.9249  0.8081
15783SOL     OW49116   6.398   3.139   1.628 -0.0980 -0.5488 -0.2917
15783SOL    HW149117   6.311   3.128   1.665  0.0071 -0.3046  0.0271
15783SOL    HW249118   6.438   3.210   1.679 -0.6713  1.1870 -2.1633
15784SOL     OW49119   6.045   6.404   3.303  0.1402  0.1195  0.5387
15784SOL    HW149120   6.105   6.344   3.257 -1.0604 -0.0528 -0.8969
15784SOL    HW249121   6.100   6.477   3.331  1.1323 -0.3174 -0.2073
15785SOL     OW49122   4.406   6.886   6.904 -0.0126 -0.1158  0.3660
15785SOL    HW149123   4.480   6.934   6.868 -0.2711 -0.3137 -0.4665
15785SOL    HW249124   4.343   6.882   6.832 -0.6406 -0.3541  0.9110
15786SOL     OW49125   2.719   8.473   1.046  0.2502  0.6409 -0.4462
15786SOL    HW149126   2.734   8.521   1.127 -0.1616  1.4994 -0.8544
15786SOL    HW249127   2.800   8.426   1.029  0.0543 -0.2259  0.8878
15787SOL     OW49128   8.368   7.813   8.192  0.7116  0.2620  0.0924
15787SOL    HW149129   8.324   7.818   8.107  0.2412  1.0083  0.3740
15787SOL    HW249130   8.427   7.888   8.193  1.0426  0.0018  0.2452
15788SOL     OW49131   7.176   1.365   8.808  0.1762  0.1508  0.2493
15788SOL    HW149132   7.164   1.361   8.713  2.2723  0.3088 -0.0620
15788SOL    HW249133   7.094   1.331   8.844 -0.5553 -0.1528 -1.6118
15789SOL     OW49134   0.888   8.665   7.226 -0.8380  0.3080 -0.3548
15789SOL    HW149135   0.899   8.651   7.132  1.4271 -0.6008 -0.0166
15789SOL    HW249136   0.962   8.618   7.266 -0.4543  2.5191  1.7307
15790SOL     OW49137   0.538   1.367   9.387 -0.1617  0.4567 -0.3531
15790SOL    HW149138   0.528   1.431   9.317  1.3762  1.7072  0.5033
15790SOL    HW249139   0.628   1.379   9.418  0.3263 -2.4174 -0.4184
15791SOL     OW49140   1.335   7.382   2.789  0.5560  0.0995 -0.5834
15791SOL    HW149141   1.422   7.351   2.763  0.6236  0.2780 -0.5776
15791SOL    HW249142   1.347   7.411   2.879  0.1261 -1.2890 -0.0570
15792SOL     OW49143   0.840   7.007   3.069 -0.1065 -0.2661  0.2840
15792SOL    HW149144   0.899   6.980   3.140  1.0814 -0.8179 -0.8751
15792SOL    HW249145   0.861   7.099   3.054  0.5666 -0.4936 -0.2092
15793SOL     OW49146   6.593   5.439   7.945 -0.2767 -0.8959  0.0968
15793SOL    HW149147   6.605   5.522   7.897  1.0116 -0.9315  0.3335
15793SOL    HW249148   6.503   5.444   7.978 -0.2700  0.3485 -0.0121
15794SOL     OW49149   4.406   1.973   7.294  0.2575 -0.0687 -0.0968
15794SOL    HW149150   4.497   1.976   7.266  0.6525 -2.4490  0.7211
15794SOL    HW249151   4.355   1.980   7.213  1.2267 -0.7720 -0.7888
15795SOL     OW49152   8.387   3.827   8.897 -0.6081  0.0222  0.2990
15795SOL    HW149153   8.458   3.828   8.833 -1.4149 -0.0253 -0.6179
15795SOL    HW249154   8.380   3.918   8.926 -1.9440  0.5876 -1.6390
15796SOL     OW49155   0.844   3.884   0.778  0.4096  0.4880 -0.3197
15796SOL    HW149156   0.832   3.922   0.865 -2.1440  0.4804 -0.6205
15796SOL    HW249157   0.858   3.791   0.794 -1.3350  0.2723  0.0515
15797SOL     OW49158   0.169   2.276   7.046 -0.6128  0.0548  0.1004
15797SOL    HW149159   0.089   2.298   6.999 -0.3952 -0.8092 -0.6897
15797SOL    HW249160   0.194   2.190   7.013  1.3805  0.8843 -0.6957
15798SOL     OW49161   8.305   5.113   4.059  0.0820 -0.0356  0.0638
15798SOL    HW149162   8.387   5.161   4.059 -0.7207  1.4052  0.7201
15798SOL    HW249163   8.314   5.049   4.129  0.7963 -0.1980 -0.1656
15799SOL     OW49164   0.971   4.499   6.587 -0.4559  0.8013 -0.5146
15799SOL    HW149165   0.918   4.426   6.620 -1.5301  1.7296 -0.1202
15799SOL    HW249166   1.003   4.469   6.502 -0.3089 -0.3854 -0.0591
15800SOL     OW49167   5.739   4.117   2.632  0.0304 -0.5528  0.3863
15800SOL    HW149168   5.670   4.122   2.566 -0.2863 -2.8515  0.4404
15800SOL    HW249169   5.761   4.208   2.651 -1.2148  0.1983 -1.4648
15801SOL     OW49170   4.377   8.492   4.278  0.4475  0.3964 -0.1919
15801SOL    HW149171   4.349   8.505   4.369 -0.9555 -0.4759 -0.4648
15801SOL    HW249172   4.471   8.508   4.279  0.5885 -0.3330  1.5700
15802SOL     OW49173   6.058   7.248   2.251  0.1474  0.1870  0.1155
15802SOL    HW149174   6.027   7.176   2.306 -1.0442 -0.0641 -0.8482
15802SOL    HW249175   6.145   7.270   2.286  0.2585 -1.2945  0.8154
15803SOL     OW49176   2.841   1.405   0.933  0.1774  0.8967 -0.2506
15803SOL    HW149177   2.833   1.311   0.947  2.0273  0.0507 -3.6812
15803SOL    HW249178   2.929   1.427   0.962  0.2921  1.2399 -0.8438
15804SOL     OW49179   3.020   6.481   1.887  0.0539  0.1513  0.3525
15804SOL    HW149180   2.934   6.516   1.864 -1.2365 -2.8402  0.1967
15804SOL    HW249181   3.067   6.476   1.804 -1.3644 -2.3989 -0.3885
15805SOL     OW49182   1.192   0.994   9.439 -0.4882  0.3141  0.2672
15805SOL    HW149183   1.264   0.950   9.396 -0.8784  1.0809 -1.2366
15805SOL    HW249184   1.121   0.930   9.438 -0.3214  0.1274  0.2898
15806SOL     OW49185   2.350   2.220   4.469 -0.2912 -0.4670 -0.3477
15806SOL    HW149186   2.420   2.238   4.406  1.5013 -2.3070  0.9679
15806SOL    HW249187   2.321   2.306   4.499 -0.5810  0.4208 -2.9636
15807SOL     OW49188   6.510   8.885   4.974 -0.3346 -0.3020  0.0434
15807SOL    HW149189   6.481   8.844   5.055 -1.1780  1.2037  0.5231
15807SOL    HW249190   6.471   8.972   4.975  1.3286  0.5055 -0.9989
15808SOL     OW49191   1.327   0.698   6.746 -0.6787 -0.1017  0.7299
15808SOL    HW149192   1.241   0.724   6.714  0.0635  1.0682 -0.4544
15808SOL    HW249193   1.376   0.676   6.667  0.9604  2.0129  1.0616
15809SOL     OW49194   6.055   1.961   3.362 -0.0718 -0.1179  0.0136
15809SOL    HW149195   6.132   1.970   3.418 -0.0129 -0.9266  0.0750
15809SOL    HW249196   5.993   2.026   3.396  0.7126  0.7988 -0.2805
15810SOL     OW49197   5.435   3.808   0.420  0.1188  0.1380 -0.5968
15810SOL    HW149198   5.369   3.740   0.435 -0.5095  0.1722 -2.8804
15810SOL    HW249199   5.395   3.888   0.454 -1.5655  0.3699 -2.9214
15811SOL     OW49200   4.805   7.300   1.547 -0.4230  0.1696  0.3810
15811SOL    HW149201   4.724   7.283   1.595 -0.3469  0.4564  0.6131
15811SOL    HW249202   4.874   7.276   1.608 -0.3021 -2.4312 -0.6311
15812SOL     OW49203   6.127   7.225   3.973 -0.1147 -0.3521 -0.2061
15812SOL    HW149204   6.173   7.304   3.946  0.8510 -0.9184 -0.2739
15812SOL    HW249205   6.154   7.210   4.063 -1.2720  0.0722  0.2278
15813SOL     OW49206   8.206   4.448   2.283  0.4026  0.2303  0.1737
15813SOL    HW149207   8.195   4.362   2.241  0.6196  0.5329 -0.5154
15813SOL    HW249208   8.299   4.469   2.270  0.1776  0.9259 -0.3777
15814SOL     OW49209   0.746   8.458   4.979  0.1839 -0.4507 -0.0515
15814SOL    HW149210   0.703   8.386   4.932 -1.6023 -1.1890  2.4748
15814SOL    HW249211   0.724   8.536   4.929 -0.5911 -1.3069 -1.1108
15815SOL     OW49212   0.787   1.280   0.005  0.0695 -0.5960 -0.0478
15815SOL    HW149213   0.783   1.232   0.088  2.6636 -0.9142 -0.0267
15815SOL    HW249214   0.866   1.248  -0.037 -0.1836  0.9292 -1.8126
15816SOL     OW49215   0.128   7.782   5.534 -0.2577  0.5873 -0.2050
15816SOL    HW149216   0.192   7.817   5.473  0.6206 -1.8554 -0.7976
15816SOL    HW249217   0.174   7.776   5.617 -0.4108  0.8355 -0.1002
15817SOL     OW49218   9.322   8.799   8.945 -0.2427 -0.3771 -0.2905
15817SOL    HW149219   9.352   8.833   8.861  1.6590  0.5515  0.7042
15817SOL    HW249220   9.301   8.707   8.928  1.8052 -0.6844 -1.4288
15818SOL     OW49221   6.298   1.124   7.137  0.1825 -0.2282 -0.8702
15818SOL    HW149222   6.345   1.044   7.114  0.4210 -0.8614  1.5596
15818SOL    HW249223   6.358   1.195   7.114  1.3736 -0.9225  0.0213
15819SOL     OW49224   7.502   9.710   7.560  0.1895  0.4392  0.0311
15819SOL    HW149225   7.444   9.784   7.542  1.1725  1.6073  1.4032
15819SOL    HW249226   7.501   9.701   7.655 -0.2287 -1.6381 -0.1101
15820SOL     OW49227   7.296   6.529   1.411 -0.1975 -0.0648 -0.6825
15820SOL    HW149228   7.231   6.598   1.399  0.4572  0.6250 -0.3931
15820SOL    HW249229   7.274   6.488   1.494 -0.2302  0.2108 -0.5541
15821SOL     OW49230   0.976   4.779   4.798 -0.2449 -0.2348 -0.0976
15821SOL    HW149231   0.950   4.870   4.789 -1.1943 -0.0842  2.9523
15821SOL    HW249232   1.060   4.781   4.843  0.5053 -0.8872 -1.4052
15822SOL     OW49233   6.187   4.223   8.884  0.3042  0.4493  0.3365
15822SOL    HW149234   6.268   4.184   8.918 -0.0802 -4.2767 -3.2067
15822SOL    HW249235   6.211   4.254   8.797 -1.4492 -0.0703 -0.3607
15823SOL     OW49236   8.672   4.799   4.163  0.6302  0.8548  0.4114
15823SOL    HW149237   8.754   4.752   4.157  0.5499  0.5887  1.2612
15823SOL    HW249238   8.672   4.837   4.251  0.2148  1.5463  0.1286
15824SOL     OW49239   0.418   8.280   0.741  0.4148  0.0764  0.0673
15824SOL    HW149240   0.436   8.365   0.701 -1.7357  1.2704  1.4635
15824SOL    HW249241   0.457   8.285   0.828 -1.4500  0.4702  0.9235
15825SOL     OW49242   8.832   3.521   5.775 -0.0031 -0.2429 -0.0633
15825SOL    HW149243   8.777   3.450   5.742 -0.6904  0.0773  0.3649
15825SOL    HW249244   8.906   3.477   5.817  1.1987 -0.6552 -2.4666
15826SOL     OW49245   2.350   4.222   3.190 -0.2729  0.2891 -0.0935
15826SOL    HW149246   2.268   4.247   3.147 -0.3826 -0.7217 -0.5102
15826SOL    HW249247   2.330   4.227   3.284 -0.7323  0.3367 -0.1878
15827SOL     OW49248   6.268   0.608   0.703  0.3646  0.3127 -0.2234
15827SOL    HW149249   6.273   0.558   0.621  0.1736  1.4849 -0.9684
15827SOL    HW249250   6.317   0.688   0.686  1.9529 -0.2444  1.4592
15828SOL     OW49251   7.599   8.019   8.044 -0.4207 -0.0749  0.1217
15828SOL    HW149252   7.594   8.063   7.959  1.2095 -0.2046 -0.0780
15828SOL    HW249253   7.557   7.934   8.030 -1.9001  0.6397  0.0027
15829SOL     OW49254   8.463   6.397   7.275 -0.0094  0.5612 -0.1280
15829SOL    HW149255   8.557   6.390   7.257 -0.1631  0.5697 -0.9484
15829SOL    HW249256   8.435   6.307   7.292 -0.3860  0.1330 -2.6480
15830SOL     OW49257   5.055   3.388   6.746  0.4181 -0.4901 -0.0575
15830SOL    HW149258   5.056   3.339   6.829  0.1567 -0.7314 -0.1953
15830SOL    HW249259   5.132   3.445   6.751  0.1500 -0.1771  0.5448
15831SOL     OW49260   8.121   4.802   2.822 -0.4688 -0.2499 -0.2976
15831SOL    HW149261   8.108   4.896   2.837 -0.0989 -0.1733 -0.4469
15831SOL    HW249262   8.213   4.787   2.842 -0.6584 -0.6918  0.2643
15832SOL     OW49263   7.413   2.518   2.850 -0.4737  0.6569 -0.8335
15832SOL    HW149264   7.480   2.535   2.783  1.9502 -0.3442  1.1870
15832SOL    HW249265   7.421   2.591   2.911 -0.5539  0.0643 -0.0955
15833SOL     OW49266   1.903   7.558   3.542  0.0059  0.5234  0.1927
15833SOL    HW149267   1.855   7.563   3.459 -1.1489  1.6592  0.8969
15833SOL    HW249268   1.871   7.479   3.585 -0.5281  0.7487  0.2194
15834SOL     OW49269   0.185   2.368   3.503 -0.2898 -0.8242  0.1454
15834SOL    HW149270   0.092   2.357   3.484  0.0872 -1.5836 -1.3296
15834SOL    HW249271   0.230   2.329   3.429  1.2083  1.0866 -0.0293
15835SOL     OW49272   9.147   0.242   7.732 -0.1105  0.5372  0.1870
15835SOL    HW149273   9.078   0.306   7.717  0.9520  1.5042 -0.6970
15835SOL    HW249274   9.210   0.257   7.662  0.5570 -0.9484  0.4330
15836SOL     OW49275   5.795   8.475   2.297  0.1480  0.0738  0.2901
15836SOL    HW149276   5.820   8.389   2.265  0.1125  0.9168 -2.1778
15836SOL    HW249277   5.825   8.476   2.388 -0.2088 -2.6452  0.5229
15837SOL     OW49278   4.387   6.217   3.676  0.4178 -0.1963  0.2461
15837SOL    HW149279   4.342   6.182   3.753 -0.4055  0.8823  0.2808
15837SOL    HW249280   4.320   6.267   3.629  1.3641  0.7117 -0.1786
15838SOL     OW49281   9.282   3.987   4.952  0.2255 -0.0523  0.3293
15838SOL    HW149282   9.307   3.910   4.901  0.4645 -0.7826  1.4988
15838SOL    HW249283   9.269   3.954   5.041  2.3019  1.5503  1.3442
15839SOL     OW49284   7.341   6.783   3.534  0.1058  0.4586  0.0937
15839SOL    HW149285   7.429   6.773   3.499 -0.3149 -0.5943 -0.7075
15839SOL    HW249286   7.284   6.747   3.466 -0.9930  1.5999  0.3588
15840SOL     OW49287   1.166   2.730   1.598  0.5583 -0.2126  0.2133
15840SOL    HW149288   1.173   2.825   1.607  1.2136 -0.2916  0.6271
15840SOL    HW249289   1.074   2.711   1.615 -0.1323  0.5781 -2.3120
15841SOL     OW49290   9.358   0.127   1.720 -0.1506  0.9179 -0.1004
15841SOL    HW149291   9.350   0.186   1.645 -1.5297  1.5594  0.5352
15841SOL    HW249292   9.439   0.079   1.702  0.1433  1.8298 -1.4463
15842SOL     OW49293   0.187   5.586   5.618 -0.2404  0.0340 -0.2236
15842SOL    HW149294   0.202   5.508   5.672  0.3906  0.5668  0.3690
15842SOL    HW249295   0.093   5.583   5.599 -0.0804 -1.3756 -0.9930
15843SOL     OW49296   8.343   3.145   7.814 -0.0186  0.2586  0.0657
15843SOL    HW149297   8.395   3.224   7.800 -1.7102  1.2218 -1.2177
15843SOL    HW249298   8.270   3.174   7.870  0.2721 -0.8290  1.0487
15844SOL     OW49299   3.003   0.060   3.916  0.6510  0.1287 -0.7419
15844SOL    HW149300   2.946   0.095   3.848  1.9830  1.6445 -1.1419
15844SOL    HW249301   2.947   0.001   3.967 -1.1411  1.2357 -1.3478
15845SOL     OW49302   4.524   1.888   0.164 -0.5662 -0.2975 -0.0486
15845SOL    HW149303   4.477   1.873   0.246 -2.0776 -0.5509 -0.9280
15845SOL    HW249304   4.585   1.959   0.184  1.1762 -2.2283  2.0767
15846SOL     OW49305   7.983   7.979   9.148 -0.0391 -0.1862  0.4645
15846SOL    HW149306   7.916   7.918   9.118  0.2090  0.0150 -0.5585
15846SOL    HW249307   7.952   8.009   9.234 -1.5714  0.3621 -0.2367
15847SOL     OW49308   8.896   6.738   1.086 -0.4644  0.2103 -0.2368
15847SOL    HW149309   8.864   6.647   1.085 -1.2987  0.4959 -0.5315
15847SOL    HW249310   8.967   6.737   1.150 -1.5536 -0.2924  1.0262
15848SOL     OW49311   9.590   5.149   6.127 -0.0323 -0.3936  0.3097
15848SOL    HW149312   9.501   5.182   6.133  0.1625  0.1825  0.1205
15848SOL    HW249313   9.588   5.066   6.174 -0.8018 -0.6705 -0.2100
15849SOL     OW49314   2.426   5.334   3.835  0.0791  0.5601  0.3485
15849SOL    HW149315   2.411   5.240   3.824 -1.9770  0.6998  1.4211
15849SOL    HW249316   2.357   5.362   3.896 -1.6426  3.4421 -2.6197
15850SOL     OW49317   1.704   9.268   3.196 -0.7235  0.1655 -0.0770
15850SOL    HW149318   1.716   9.264   3.101  0.6981 -3.4622  0.0988
15850SOL    HW249319   1.678   9.358   3.213 -0.7242  1.0441 -3.8530
15851SOL     OW49320   5.838   7.670   1.498 -0.4682 -0.9128 -0.1404
15851SOL    HW149321   5.778   7.650   1.569 -2.0528  1.7434 -0.6052
15851SOL    HW249322   5.925   7.667   1.538 -1.3102  0.6317  1.9853
15852SOL     OW49323   0.709   3.304   2.338  0.3056  0.1278 -0.1344
15852SOL    HW149324   0.793   3.327   2.298 -0.2852  2.1814 -0.3052
15852SOL    HW249325   0.732   3.279   2.428  1.2864 -1.4067 -0.7622
15853SOL     OW49326   2.974   0.795   5.747  0.1447  0.8555 -0.1774
15853SOL    HW149327   2.995   0.883   5.779  0.7601  0.7065 -0.1756
15853SOL    HW249328   3.058   0.752   5.737 -0.1321  0.3967 -0.5663
15854SOL     OW49329   2.500   8.753   4.450 -0.2092 -0.2393  0.5116
15854SOL    HW149330   2.572   8.763   4.511 -0.6930  0.0673  1.0470
15854SOL    HW249331   2.473   8.843   4.430  2.1804 -0.0918 -2.9359
15855SOL     OW49332   1.602   4.660   6.985 -0.5837 -0.0933 -0.5147
15855SOL    HW149333   1.543   4.619   7.048  1.1055 -1.2537  0.3854
15855SOL    HW249334   1.600   4.602   6.909  1.1822 -1.4968  0.4472
15856SOL     OW49335   2.285   9.316   5.111  0.0133  0.3869  0.1848
15856SOL    HW149336   2.300   9.318   5.017  1.7255  0.0186  0.4033
15856SOL    HW249337   2.340   9.243   5.142  2.3350  2.6394  1.8457
15857SOL     OW49338   1.010   4.397   8.469 -0.0316  0.2907  0.3275
15857SOL    HW149339   0.923   4.386   8.507  0.8426 -1.4261  2.0022
15857SOL    HW249340   1.005   4.479   8.420 -3.1628 -0.7066 -1.2987
15858SOL     OW49341   9.521   9.039   1.577 -0.1773  0.0973 -0.0102
15858SOL    HW149342   9.480   8.959   1.544 -1.3569  0.6366  0.0908
15858SOL    HW249343   9.603   9.045   1.529 -1.2588  0.2006 -1.9534
15859SOL     OW49344   1.602   0.012   1.381  0.5001 -0.4499  0.0856
15859SOL    HW149345   1.529   0.070   1.400  0.5406  0.4022 -2.0634
15859SOL    HW249346   1.651   0.007   1.463  0.3240  2.2965  0.4487
15860SOL     OW49347   7.878   2.853   6.811 -0.3987 -0.4025  0.1058
15860SOL    HW149348   7.862   2.823   6.722 -0.8528 -1.9017  0.6699
15860SOL    HW249349   7.794   2.888   6.840 -0.0194  0.9582 -0.3435
15861SOL     OW49350   8.449   0.018   2.278  0.0740  0.4329 -0.0712
15861SOL    HW149351   8.493   0.067   2.347 -0.0509  0.7437 -0.2110
15861SOL    HW249352   8.520  -0.029   2.234  0.1357  0.1140  0.3608
15862SOL     OW49353   0.002   7.328   1.581 -0.0921 -0.2400 -0.0653
15862SOL    HW149354   0.044   7.323   1.495 -1.4939 -0.5212 -0.7639
15862SOL    HW249355   0.075   7.338   1.643  1.0145 -0.9987 -1.1868
15863SOL     OW49356   8.292   8.763   0.198  0.1285  0.7012 -0.0068
15863SOL    HW149357   8.197   8.767   0.210 -0.5160  0.3852 -3.8127
15863SOL    HW249358   8.319   8.682   0.242 -1.4821  0.4150  0.5007
15864SOL     OW49359   0.103   4.510   9.232  0.1828  0.5464 -0.4080
15864SOL    HW149360   0.097   4.422   9.270  0.6852  0.4483 -0.5610
15864SOL    HW249361   0.015   4.547   9.246  0.7426  1.1080  2.3269
15865SOL     OW49362   1.169   2.191   3.604 -0.3390  0.0905 -0.1692
15865SOL    HW149363   1.232   2.233   3.662 -0.7872 -0.6011  0.8488
15865SOL    HW249364   1.211   2.110   3.578 -1.1244 -0.8051  1.2285
15866SOL     OW49365   2.304   6.949   4.251  0.1840 -0.3306 -0.0825
15866SOL    HW149366   2.280   6.955   4.158  0.3949  4.3295 -0.0591
15866SOL    HW249367   2.367   7.019   4.264  0.6730 -1.2422  3.5057
15867SOL     OW49368   3.725   8.301   1.143  0.7171  0.0240 -0.0352
15867SOL    HW149369   3.704   8.383   1.189  0.2564 -0.9874  1.6690
15867SOL    HW249370   3.713   8.233   1.210 -0.5764 -1.6192 -1.8447
15868SOL     OW49371   4.174   9.177   1.563  0.2193  1.0008  0.2939
15868SOL    HW149372   4.118   9.238   1.516 -1.1663  0.0340  0.6236
15868SOL    HW249373   4.227   9.232   1.621  1.3385  2.1352 -1.7053
15869SOL     OW49374   0.929   8.068   4.374  0.6230  0.3524  0.3673
15869SOL    HW149375   0.885   8.144   4.336  2.1931  1.6246  0.9796
15869SOL    HW249376   0.882   8.052   4.456 -1.3115 -0.9686 -0.9189
15870SOL     OW49377   3.219   6.741   3.934 -0.2587  0.1568  0.5981
15870SOL    HW149378   3.274   6.689   3.993  0.2589 -0.3548 -0.3116
15870SOL    HW249379   3.278   6.805   3.896 -0.7411  0.9441  1.1435
15871SOL     OW49380   4.276   2.535   8.501  0.0411  0.0325  0.4289
15871SOL    HW149381   4.347   2.598   8.501 -0.1371  0.2503  1.3058
15871SOL    HW249382   4.265   2.510   8.409  1.2581 -0.0287  0.2852
15872SOL     OW49383   8.843   1.968   3.925  0.3934  0.3885  0.2376
15872SOL    HW149384   8.754   1.935   3.939  0.4925  0.6931  1.7024
15872SOL    HW249385   8.853   2.038   3.989  2.0176 -0.2576  0.7271
15873SOL     OW49386   3.787   3.856   8.872 -1.0344 -0.1098 -0.3287
15873SOL    HW149387   3.771   3.875   8.780 -1.7875 -2.9322 -0.8755
15873SOL    HW249388   3.705   3.819   8.904 -0.5957  0.2488  1.3397
15874SOL     OW49389   3.178   0.192   8.144 -0.1164  0.5892 -0.2999
15874SOL    HW149390   3.189   0.261   8.079 -0.3586 -0.6716 -1.7457
15874SOL    HW249391   3.203   0.232   8.227 -1.3515  2.7491 -0.8900
15875SOL     OW49392   6.802   4.092   4.356  0.6236 -0.0619  0.5422
15875SOL    HW149393   6.855   4.059   4.283 -1.4217 -1.9998 -0.1976
15875SOL    HW249394   6.813   4.187   4.353  2.6720 -0.2742 -0.6030
15876SOL     OW49395   6.722   9.511   6.224 -0.4393  0.2429  0.0340
15876SOL    HW149396   6.733   9.574   6.153  1.2110  2.1119  1.8556
15876SOL    HW249397   6.787   9.443   6.206 -0.3074  0.4926 -0.4472
15877SOL     OW49398   6.816   0.219   1.053  0.3615 -0.3874 -0.0150
15877SOL    HW149399   6.727   0.252   1.066  0.1925 -0.4183 -0.9762
15877SOL    HW249400   6.833   0.233   0.960  0.0384 -3.5579 -0.6731
15878SOL     OW49401   1.821   6.505   2.624  0.2923 -0.0402 -0.4025
15878SOL    HW149402   1.908   6.532   2.651  0.2371  0.7144 -0.9498
15878SOL    HW249403   1.793   6.442   2.691 -0.2549  2.4755  1.9049
15879SOL     OW49404   5.516   8.588   2.372  0.5446 -0.1924 -0.3907
15879SOL    HW149405   5.445   8.581   2.308 -0.5009 -1.3556  0.8532
15879SOL    HW249406   5.515   8.505   2.419  0.4413  1.0698  1.9889
15880SOL     OW49407   1.715   0.700   7.965 -0.3901 -0.3069 -0.1347
15880SOL    HW149408   1.777   0.762   8.004 -1.5009  1.0149 -0.4024
15880SOL    HW249409   1.766   0.654   7.897  1.0115 -1.2160  1.4593
15881SOL     OW49410   7.416   2.327   6.678 -0.3048  0.3976  0.6387
15881SOL    HW149411   7.334   2.317   6.631  0.4257  0.7737 -0.7582
15881SOL    HW249412   7.473   2.258   6.643  0.5762  1.3090  0.2296
15882SOL     OW49413   5.572   2.299   0.652  0.0110  0.3161 -0.4286
15882SOL    HW149414   5.477   2.297   0.659  0.0047  0.0814 -0.5882
15882SOL    HW249415   5.601   2.342   0.733 -0.1494 -0.9102  0.2952
15883SOL     OW49416   3.434   8.812   8.448 -0.0332 -0.5384  0.2933
15883SOL    HW149417   3.398   8.739   8.397  0.1700 -1.2122  1.0919
15883SOL    HW249418   3.487   8.861   8.385 -0.3307 -0.9682 -0.3046
15884SOL     OW49419   6.445   5.567   9.623  0.0870 -0.0036 -0.7451
15884SOL    HW149420   6.418   5.484   9.582 -1.6259  0.1002  0.1060
15884SOL    HW249421   6.407   5.565   9.710  1.0556  1.1692 -0.2607
15885SOL     OW49422   3.058   0.538   6.290 -0.0889 -0.2299  0.2460
15885SOL    HW149423   3.106   0.460   6.318  1.0374  0.9049  1.6476
15885SOL    HW249424   2.989   0.548   6.355 -0.7436 -0.4987 -0.3976
15886SOL     OW49425   9.325   6.027   1.732  0.5625  0.1133  0.1408
15886SOL    HW149426   9.352   6.052   1.820  0.0447  1.7563 -0.1407
15886SOL    HW249427   9.277   5.945   1.744  0.6664  0.2157  1.3594
15887SOL     OW49428   4.112   8.850   4.884 -0.2695  0.3037 -0.7054
15887SOL    HW149429   4.027   8.807   4.892  0.5083 -1.0204  1.1370
15887SOL    HW249430   4.174   8.777   4.879  0.9446  1.2235  0.5649
15888SOL     OW49431   9.838   3.211   2.292 -0.1689 -0.0327  0.0201
15888SOL    HW149432   9.868   3.125   2.323 -0.7347  0.2643  1.4465
15888SOL    HW249433   9.910   3.271   2.314  1.0473 -0.3754 -2.6332
15889SOL     OW49434   4.191   3.424   4.854  0.2233  0.1903  0.0325
15889SOL    HW149435   4.215   3.432   4.947 -0.2395 -1.8020  0.3617
15889SOL    HW249436   4.102   3.459   4.849  0.4025  0.6885  0.2429
15890SOL     OW49437   3.907   2.733   4.845 -0.1452  0.0014  0.3451
15890SOL    HW149438   3.870   2.821   4.842 -0.6586 -0.2466 -0.6982
15890SOL    HW249439   3.980   2.741   4.907  0.6451  1.4840 -0.7147
15891SOL     OW49440   8.666   4.307   6.581 -0.0854 -0.0487 -0.2645
15891SOL    HW149441   8.630   4.389   6.547  0.3104 -0.7467 -2.5302
15891SOL    HW249442   8.761   4.318   6.575 -0.0312 -0.6844 -0.5983
15892SOL     OW49443   4.261   2.931   2.757  0.7114 -0.1217 -0.1332
15892SOL    HW149444   4.340   2.982   2.776  0.5677 -0.5562  1.8404
15892SOL    HW249445   4.191   2.977   2.803  0.3069 -1.1589  0.3199
15893SOL     OW49446   2.884   4.409   6.061 -0.2898 -0.1675 -0.1939
15893SOL    HW149447   2.977   4.403   6.083 -0.0724  3.2207  0.2919
15893SOL    HW249448   2.882   4.451   5.975 -1.3849 -0.9035 -0.5451
15894SOL     OW49449   6.261   1.301   5.518  0.1145 -0.6099  0.3464
15894SOL    HW149450   6.307   1.254   5.588 -1.4616 -3.6350 -0.4723
15894SOL    HW249451   6.217   1.374   5.564  0.9798 -1.1128  2.0747
15895SOL     OW49452   4.033   4.967   0.109  0.3833  0.2077 -0.5876
15895SOL    HW149453   4.054   5.032   0.177 -1.5462  0.0801  0.1846
15895SOL    HW249454   3.943   4.987   0.084  1.1037  0.3934 -3.3382
15896SOL     OW49455   6.964   3.671   4.997  0.4206 -0.1496 -0.1035
15896SOL    HW149456   7.028   3.670   5.069  0.3169 -0.8632 -0.0170
15896SOL    HW249457   6.880   3.661   5.040  0.3258 -0.2026 -0.3021
15897SOL     OW49458   2.769   9.278   6.516 -0.4103 -0.1125  0.5087
15897SOL    HW149459   2.743   9.198   6.470  1.0344 -1.1035  1.3406
15897SOL    HW249460   2.855   9.258   6.552 -0.3221  1.5917  1.3413
15898SOL     OW49461   4.591   0.905   4.533  1.2249 -0.3437 -0.4818
15898SOL    HW149462   4.569   0.993   4.566 -0.4609 -1.7131  2.5208
15898SOL    HW249463   4.556   0.903   4.444 -0.4083  1.4707  0.0456
15899SOL     OW49464   7.923   3.877   6.008 -0.0135  0.0143  0.3064
15899SOL    HW149465   7.924   3.942   5.937 -0.1278 -0.0658  0.2315
15899SOL    HW249466   7.990   3.814   5.983 -0.6368 -0.4748 -0.1625
15900SOL     OW49467   0.604   4.747   9.080 -0.5337 -0.4172  0.2461
15900SOL    HW149468   0.675   4.781   9.134  0.3651 -1.5181 -0.2115
15900SOL    HW249469   0.527   4.752   9.136 -0.1180  0.8250  0.7395
15901SOL     OW49470   1.379   7.645   2.639 -0.2330  0.0402 -0.2422
15901SOL    HW149471   1.352   7.596   2.717 -0.9314  0.8731  0.0465
15901SOL    HW249472   1.469   7.616   2.623 -0.0711 -0.1305  0.8841
15902SOL     OW49473   4.662   0.301   3.358 -0.7370  0.9321 -0.4717
15902SOL    HW149474   4.722   0.376   3.363  0.0061  0.3450 -0.3341
15902SOL    HW249475   4.720   0.225   3.361 -1.4784  0.3556 -0.7319
15903SOL     OW49476   5.813   0.548   1.345  0.2630 -0.1979  0.3458
15903SOL    HW149477   5.761   0.610   1.397 -0.4281 -0.7190  0.2926
15903SOL    HW249478   5.871   0.603   1.293 -1.2362  0.4918 -0.6791
15904SOL     OW49479   6.382   5.762   3.057 -0.0429 -0.2412  0.2499
15904SOL    HW149480   6.374   5.838   3.114  0.5609 -0.0669  0.1163
15904SOL    HW249481   6.421   5.797   2.976 -0.7529 -0.5069 -0.2159
15905SOL     OW49482   5.531   2.783   2.250 -0.0648  0.2488 -0.4674
15905SOL    HW149483   5.522   2.862   2.195  0.0419  0.4510 -0.1939
15905SOL    HW249484   5.471   2.798   2.323 -1.4932 -0.7600 -1.3732
15906SOL     OW49485   5.211   3.169   0.166  0.6611 -0.2225 -0.1558
15906SOL    HW149486   5.279   3.212   0.114  0.0647  0.7049 -0.2029
15906SOL    HW249487   5.129   3.193   0.123  0.1992  0.0112  0.8116
15907SOL     OW49488   6.634   8.194   8.902  0.0322  0.2885  0.0499
15907SOL    HW149489   6.590   8.210   8.818 -1.1188  1.4543  0.8232
15907SOL    HW249490   6.604   8.107   8.929 -0.9890  0.6258  0.0526
15908SOL     OW49491   8.635   9.249   4.191 -0.0265 -0.2660 -0.5049
15908SOL    HW149492   8.670   9.237   4.279 -0.4936 -0.7175 -0.3811
15908SOL    HW249493   8.636   9.162   4.152  1.9745  0.1885 -1.6453
15909SOL     OW49494   3.691   1.863   4.208 -0.1455  0.2175  0.1639
15909SOL    HW149495   3.611   1.897   4.168  1.0980  1.6453 -1.1983
15909SOL    HW249496   3.744   1.832   4.135  0.2071 -1.5966  1.1196
15910SOL     OW49497   4.196   0.449   0.674  0.1147 -0.3034  0.5050
15910SOL    HW149498   4.208   0.469   0.582  1.3168  2.5018  1.1786
15910SOL    HW249499   4.277   0.405   0.700  0.7979  1.0500  0.7190
15911SOL     OW49500   6.079   7.417   0.445 -0.6792 -0.3123 -0.3132
15911SOL    HW149501   6.131   7.454   0.373 -0.8166 -1.8302 -1.2402
15911SOL    HW249502   6.143   7.386   0.508 -0.5515  0.7650  0.1096
15912SOL     OW49503   5.279   9.079   4.026  0.0990  0.2353 -0.2506
15912SOL    HW149504   5.194   9.102   3.990  0.1005 -0.3887 -0.6623
15912SOL    HW249505   5.282   9.123   4.111  0.2764  2.1162 -1.1685
15913SOL     OW49506   6.725   2.289   4.072 -0.2419  0.5899 -0.5951
15913SOL    HW149507   6.715   2.378   4.108  0.6155  0.3855  0.1802
15913SOL    HW249508   6.756   2.303   3.983  0.4428  1.0630 -0.2906
15914SOL     OW49509   1.480   6.700   6.776  0.1159  0.4165 -0.0083
15914SOL    HW149510   1.397   6.665   6.810  0.6693  0.0921  1.0481
15914SOL    HW249511   1.453   6.757   6.704 -1.0459  0.4269  0.3997
15915SOL     OW49512   9.590   6.280   0.910  0.5563  0.2818  0.2120
15915SOL    HW149513   9.663   6.220   0.896  0.3075  0.1940 -0.8089
15915SOL    HW249514   9.610   6.356   0.856 -0.0624  0.2858 -0.0291
15916SOL     OW49515   2.698   1.095   6.195  0.2620 -0.3492  0.1544
15916SOL    HW149516   2.690   1.154   6.270  0.6274  0.4394 -0.4037
15916SOL    HW249517   2.662   1.146   6.122  2.3562 -0.0426 -0.7247
15917SOL     OW49518   2.347   2.418   6.454 -0.6352  0.5595 -0.1195
15917SOL    HW149519   2.316   2.334   6.419  1.4857 -0.1623 -0.4227
15917SOL    HW249520   2.386   2.462   6.378  0.0622  0.9294  0.4412
15918SOL     OW49521   7.588   4.984   5.141  0.2793  0.0782 -0.1067
15918SOL    HW149522   7.553   4.950   5.059 -0.0211 -1.3621  0.5971
15918SOL    HW249523   7.671   5.026   5.116  0.1710 -0.2985 -1.1377
15919SOL     OW49524   9.388   8.351   1.874  0.3829  0.3357  0.5009
15919SOL    HW149525   9.481   8.347   1.854  0.4397  0.0917  0.8132
15919SOL    HW249526   9.351   8.273   1.833 -0.0345  1.4964 -1.4288
15920SOL     OW49527   2.060   7.334   6.769 -0.3437  0.3542  0.2181
15920SOL    HW149528   1.987   7.327   6.830  1.7063 -0.5303  2.7449
15920SOL    HW249529   2.122   7.392   6.812 -0.0292  2.2110 -2.4779
15921SOL     OW49530   8.632   2.776   4.423 -0.5721  0.7873  0.1395
15921SOL    HW149531   8.679   2.694   4.408  0.4415  1.1954  0.9830
15921SOL    HW249532   8.570   2.756   4.493 -2.7920 -0.1510 -1.9374
15922SOL     OW49533   3.961   9.738   0.421  0.1640  0.5547  0.7383
15922SOL    HW149534   3.892   9.794   0.458  0.3881  0.7651  0.8386
15922SOL    HW249535   3.922   9.702   0.341  0.2067  1.2689  0.3925
15923SOL     OW49536   6.625   2.948   0.148 -0.2625  0.2563 -0.2524
15923SOL    HW149537   6.646   3.034   0.183  1.3355 -0.6982  1.2958
15923SOL    HW249538   6.665   2.886   0.210 -2.3757 -1.6381 -0.6501
15924SOL     OW49539   4.182   5.944   7.498  0.5364 -0.0206  0.0241
15924SOL    HW149540   4.228   5.861   7.482 -0.8973 -0.9700  0.6183
15924SOL    HW249541   4.167   5.946   7.592 -0.4999  0.3247 -0.1317
15925SOL     OW49542   3.082   7.043   4.800 -0.1046 -0.1557 -0.2564
15925SOL    HW149543   3.168   7.077   4.773  0.4763 -1.9850 -0.8434
15925SOL    HW249544   3.043   7.115   4.851  1.4539  0.9869 -0.5925
15926SOL     OW49545   0.892   6.076   3.743  0.5457  0.8588  0.5401
15926SOL    HW149546   0.973   6.025   3.747  1.0519  1.4962 -0.9167
15926SOL    HW249547   0.890   6.124   3.826  0.9919 -0.1335  1.1419
15927SOL     OW49548   9.314   5.274   1.629 -0.1488 -0.4702  0.1556
15927SOL    HW149549   9.336   5.181   1.633  0.5728 -0.2658  1.4800
15927SOL    HW249550   9.265   5.284   1.547  0.5559 -1.8356 -0.4534
15928SOL     OW49551   2.411   7.325   2.759  0.2273  0.2541  0.1755
15928SOL    HW149552   2.493   7.368   2.736 -0.0784  0.7635  0.0225
15928SOL    HW249553   2.403   7.338   2.854  1.0063 -1.0080  0.4373
15929SOL     OW49554   2.049   1.559   2.074  0.2832  0.0543  0.1240
15929SOL    HW149555   1.995   1.623   2.029  0.9078 -0.2566 -1.1135
15929SOL    HW249556   2.136   1.599   2.077  0.3435 -0.1056  0.7086
15930SOL     OW49557   6.027   5.168   8.369 -0.0659  0.4574 -0.1458
15930SOL    HW149558   5.977   5.240   8.409 -2.3142 -1.0614 -0.0099
15930SOL    HW249559   6.041   5.106   8.441  0.4439  0.0288 -0.6023
15931SOL     OW49560   6.216   1.099   3.741  0.8148 -0.3972 -0.0819
15931SOL    HW149561   6.125   1.075   3.722  0.5945  0.9677 -0.9149
15931SOL    HW249562   6.231   1.068   3.830 -0.3311 -1.0102 -0.0798
15932SOL     OW49563   6.434   4.163   9.008  0.2094 -0.1336 -0.4468
15932SOL    HW149564   6.458   4.070   9.014  1.5870  0.1977 -0.4654
15932SOL    HW249565   6.517   4.209   9.001 -0.4939  0.9035 -3.7369
15933SOL     OW49566   6.213   1.819   4.069  0.5452 -0.3532 -0.1924
15933SOL    HW149567   6.118   1.816   4.054  0.6241 -1.0163 -0.5979
15933SOL    HW249568   6.225   1.775   4.153  0.6058 -1.5119 -0.7768
15934SOL     OW49569   2.420   6.352   3.384 -0.5602 -0.4492  0.1261
15934SOL    HW149570   2.436   6.444   3.362  1.3277 -1.0557 -1.2139
15934SOL    HW249571   2.488   6.330   3.448 -1.1478 -0.8786  0.6221
15935SOL     OW49572   7.427   2.129   9.648  0.1148  0.4019 -0.0820
15935SOL    HW149573   7.370   2.077   9.704  1.2685 -0.7886  0.0160
15935SOL    HW249574   7.412   2.094   9.560  0.2520  0.4876 -0.1401
15936SOL     OW49575   2.614   7.594   3.396  0.1533  0.3122 -0.0943
15936SOL    HW149576   2.586   7.679   3.362 -2.3876 -0.5620 -0.4378
15936SOL    HW249577   2.539   7.563   3.447  0.8267 -1.8906 -0.3230
15937SOL     OW49578   7.684   2.960   0.609  0.1273 -0.2199 -0.0604
15937SOL    HW149579   7.597   2.920   0.612 -0.5892  1.2656  0.1035
15937SOL    HW249580   7.718   2.950   0.698 -0.2063 -0.1437  0.0791
15938SOL     OW49581   3.616   7.003   1.120  0.1924 -0.5474  0.7113
15938SOL    HW149582   3.588   6.922   1.162 -0.6446  0.2336  1.7046
15938SOL    HW249583   3.594   7.072   1.183  2.0420  0.3592  0.4499
15939SOL     OW49584   1.964   3.880   1.196  0.2788 -0.3556 -0.9569
15939SOL    HW149585   1.920   3.831   1.266  2.2582  0.1390  0.7353
15939SOL    HW249586   2.055   3.886   1.224  0.6139  2.2245 -2.2651
15940SOL     OW49587   0.277   8.277   8.031 -0.2284  0.2731 -0.1330
15940SOL    HW149588   0.334   8.300   7.957 -0.6980  1.1558 -0.2334
15940SOL    HW249589   0.334   8.282   8.108  0.2674 -0.6642 -0.4138
15941SOL     OW49590   3.470   2.288   7.031  0.2504  0.2520 -0.1037
15941SOL    HW149591   3.547   2.344   7.021 -0.7629  1.5648 -0.8643
15941SOL    HW249592   3.504   2.207   7.071  1.9927  0.8113 -0.3711
15942SOL     OW49593   7.721   6.184   8.170  0.5339 -0.0021 -0.2763
15942SOL    HW149594   7.740   6.098   8.207  1.8069  0.5946  0.5358
15942SOL    HW249595   7.655   6.168   8.103 -1.6404 -1.2388  1.9556
15943SOL     OW49596   2.291   8.484   9.658  0.4762  0.2474 -0.1584
15943SOL    HW149597   2.346   8.444   9.724 -0.2838  0.0572  0.3704
15943SOL    HW249598   2.207   8.440   9.666  0.4512  0.0201 -1.4480
15944SOL     OW49599   7.540   9.629   2.785  0.1359  0.4915 -0.0193
15944SOL    HW149600   7.476   9.650   2.853  1.0026 -1.4176  1.4898
15944SOL    HW249601   7.494   9.568   2.727  0.0255  0.5049  0.0547
15945SOL     OW49602   1.108   1.342   0.147  0.3641 -0.0157  0.0163
15945SOL    HW149603   1.078   1.310   0.232 -0.3672 -1.9274 -0.9088
15945SOL    HW249604   1.064   1.425   0.136  1.5938  1.0098  2.1101
15946SOL     OW49605   1.159   8.674   7.628  0.1753  0.2175  0.5123
15946SOL    HW149606   1.137   8.751   7.575 -0.5168 -0.9705 -1.0158
15946SOL    HW249607   1.074   8.639   7.657  0.4831  0.0814  1.2776
15947SOL     OW49608   3.973   4.602   7.489  0.3533 -0.1146 -0.2688
15947SOL    HW149609   3.879   4.582   7.485  0.0601  1.3193 -1.2716
15947SOL    HW249610   3.989   4.657   7.412  1.8392  0.3889  0.3705
15948SOL     OW49611   6.399   2.158   5.733 -0.3088 -0.0282 -0.2852
15948SOL    HW149612   6.430   2.072   5.763 -0.4850  0.4619  1.4437
15948SOL    HW249613   6.478   2.202   5.703 -0.2781 -0.9304 -1.5855
15949SOL     OW49614   2.574   2.374   2.150 -0.3084 -0.3183 -0.0147
15949SOL    HW149615   2.511   2.408   2.087 -0.3541 -0.8507 -0.2587
15949SOL    HW249616   2.555   2.421   2.231 -0.7371 -0.1699 -0.2010
15950SOL     OW49617   2.982   9.788   8.945 -0.7772 -0.2041 -0.8104
15950SOL    HW149618   2.902   9.744   8.915 -0.5657 -1.6853  0.6525
15950SOL    HW249619   2.964   9.811   9.036  0.0679  0.4712 -0.7988
15951SOL     OW49620   8.694   5.472   2.053 -0.1229  0.0764  0.5319
15951SOL    HW149621   8.706   5.378   2.067  1.4984  0.2899  0.8533
15951SOL    HW249622   8.642   5.501   2.128 -1.1502 -0.6428  0.1204
15952SOL     OW49623   0.841   0.085   8.091 -0.6034  0.3813  0.6313
15952SOL    HW149624   0.924   0.132   8.092 -0.5485  0.5261 -1.9484
15952SOL    HW249625   0.816   0.083   7.998 -2.4612 -1.4473  1.0854
15953SOL     OW49626   6.334   9.816   2.014 -0.3225 -0.2741 -0.4508
15953SOL    HW149627   6.311   9.896   1.967  1.8592 -0.2708 -1.6787
15953SOL    HW249628   6.251   9.773   2.031 -1.3798  0.9982 -2.0888
15954SOL     OW49629   5.815   7.196   8.400  0.3642 -0.1686 -0.5310
15954SOL    HW149630   5.768   7.116   8.374 -0.6487 -0.1111  1.0384
15954SOL    HW249631   5.905   7.181   8.370  0.0246 -1.5706 -0.9322
15955SOL     OW49632   6.675   0.476   4.482 -0.1863 -0.2438 -0.3648
15955SOL    HW149633   6.645   0.451   4.569 -0.7355 -1.9144 -0.9848
15955SOL    HW249634   6.610   0.541   4.452 -1.2784 -1.2926 -0.3555
15956SOL     OW49635   5.226   2.248   6.759 -0.1672  0.1656 -0.2348
15956SOL    HW149636   5.286   2.215   6.692  0.0257 -0.5049  0.2561
15956SOL    HW249637   5.178   2.318   6.715 -0.3052 -0.4957 -1.1915
15957SOL     OW49638   5.436   2.553   7.354 -0.8020 -0.3450 -0.7319
15957SOL    HW149639   5.373   2.577   7.422  0.2122 -1.1220  0.5389
15957SOL    HW249640   5.474   2.636   7.325  0.3106 -0.0993  1.2496
15958SOL     OW49641   1.853   7.328   3.670 -0.1778  0.2662 -0.5467
15958SOL    HW149642   1.904   7.348   3.749  0.0159 -1.3687 -0.2170
15958SOL    HW249643   1.790   7.261   3.698 -0.4779  0.0587 -1.6529
15959SOL     OW49644   8.148   3.687   8.918 -0.0704 -0.3067  0.1738
15959SOL    HW149645   8.231   3.728   8.892 -0.1126  0.6644  1.4831
15959SOL    HW249646   8.133   3.718   9.007 -1.4533 -1.1141  0.2457
15960SOL     OW49647   1.074   7.094   9.190  0.0975  0.0400  0.4703
15960SOL    HW149648   1.008   7.144   9.142 -0.0502  0.4389  1.0869
15960SOL    HW249649   1.025   7.047   9.257  0.6484  2.0664  2.4006
15961SOL     OW49650   4.333   5.313   7.639 -0.3948 -0.1952 -0.1246
15961SOL    HW149651   4.401   5.255   7.673 -0.2149 -0.5367 -1.0178
15961SOL    HW249652   4.370   5.401   7.648  0.2441 -0.3885 -0.7339
15962SOL     OW49653   6.981   8.676   6.335  0.3193  0.2377 -0.7615
15962SOL    HW149654   6.978   8.736   6.260 -1.3156  0.5494 -0.4908
15962SOL    HW249655   6.894   8.638   6.339  0.7863 -0.7951  0.1922
15963SOL     OW49656   1.860   2.723   3.459 -0.3212 -0.1043  0.4685
15963SOL    HW149657   1.828   2.691   3.543 -0.0289 -0.8391  0.3145
15963SOL    HW249658   1.867   2.644   3.405  3.4715 -0.3580  1.0318
15964SOL     OW49659   7.832   0.217   8.143  0.8480 -0.4647 -0.4936
15964SOL    HW149660   7.750   0.168   8.148  0.8183 -0.4907 -1.2039
15964SOL    HW249661   7.807   0.305   8.117  0.8630  0.0635  1.1877
15965SOL     OW49662   6.977   8.283   7.717 -0.3503  0.2030  0.0399
15965SOL    HW149663   7.010   8.197   7.689 -0.4577  0.2290 -0.1665
15965SOL    HW249664   7.007   8.343   7.649  0.0550  0.3948  0.3832
15966SOL     OW49665   0.062   7.423   9.441 -0.4780  0.3833 -0.5099
15966SOL    HW149666   0.052   7.409   9.347  0.4160 -2.8644 -0.2397
15966SOL    HW249667   0.048   7.337   9.480  1.8710  0.9983  2.0689
15967SOL     OW49668   2.546   7.280   3.563  0.5874 -0.3278  0.1576
15967SOL    HW149669   2.638   7.301   3.582  0.8891  0.3781 -1.8823
15967SOL    HW249670   2.498   7.315   3.638  1.8381  0.6322  0.5568
15968SOL     OW49671   0.477   8.249   1.367 -0.4070 -0.2660  0.0085
15968SOL    HW149672   0.505   8.197   1.442  1.8030  1.7021  0.6965
15968SOL    HW249673   0.557   8.292   1.337 -1.8728  1.7636 -1.2450
15969SOL     OW49674   3.468   1.306   1.089  0.0379  0.8491  0.4093
15969SOL    HW149675   3.468   1.402   1.092 -0.3138  0.8840 -0.4504
15969SOL    HW249676   3.442   1.279   1.178  0.2528  1.5431  0.6898
15970SOL     OW49677   5.741   0.565   4.207  0.0972 -0.3779  0.1990
15970SOL    HW149678   5.780   0.651   4.189  1.1858 -1.1060 -1.1318
15970SOL    HW249679   5.775   0.540   4.292  0.2076  0.2722  0.3472
15971SOL     OW49680   0.770   9.281   9.631 -0.2137  0.5920  0.0036
15971SOL    HW149681   0.803   9.203   9.586  0.1138 -1.1918  3.0338
15971SOL    HW249682   0.677   9.283   9.608 -0.3888 -1.1474  0.4109
15972SOL     OW49683   5.996   7.101   4.638 -0.0583  0.5132 -0.3303
15972SOL    HW149684   6.037   7.018   4.612 -0.3460  0.5483 -0.9278
15972SOL    HW249685   6.050   7.133   4.710  0.8490  0.4599 -0.9657
15973SOL     OW49686   0.116   4.937   1.565 -0.3589 -0.0369  0.2342
15973SOL    HW149687   0.117   4.904   1.654  0.9834  2.2360  1.1493
15973SOL    HW249688   0.197   4.989   1.557 -0.9402  0.6712 -1.9505
15974SOL     OW49689   1.444   4.029   2.871 -0.0640  0.1293 -0.2920
15974SOL    HW149690   1.477   3.940   2.856 -0.9957 -0.1535 -0.7481
15974SOL    HW249691   1.430   4.064   2.783 -1.8379 -0.1078 -0.1429
15975SOL     OW49692   7.495   4.860   3.988 -0.3742 -0.0850 -0.2724
15975SOL    HW149693   7.427   4.876   3.923  1.4381  0.1275 -2.2053
15975SOL    HW249694   7.521   4.947   4.018 -0.3593 -0.1283 -0.1577
15976SOL     OW49695   5.587   3.311   2.259 -0.0465 -0.3030  0.1577
15976SOL    HW149696   5.565   3.318   2.352  1.4840  1.3587  0.4409
15976SOL    HW249697   5.603   3.401   2.231 -1.4042 -0.6516 -1.9951
15977SOL     OW49698   1.323   3.726   8.678  0.2561  0.3202 -0.1856
15977SOL    HW149699   1.312   3.821   8.678 -0.2228  0.2667 -0.2349
15977SOL    HW249700   1.260   3.694   8.743 -0.1364 -0.0190 -0.7236
15978SOL     OW49701   1.802   0.875   2.373  0.1769 -0.3815 -0.2862
15978SOL    HW149702   1.722   0.927   2.373  1.0993  1.1189  0.4348
15978SOL    HW249703   1.816   0.852   2.281 -0.8128 -0.2556 -0.4780
15979SOL     OW49704   4.481   3.089   2.034 -0.6982 -0.0310  0.0475
15979SOL    HW149705   4.401   3.044   2.007 -1.1771  0.8373  0.0064
15979SOL    HW249706   4.508   3.042   2.113 -1.1626 -0.4239 -0.0197
15980SOL     OW49707   1.636   7.663   1.028  0.2029  0.3851 -0.4891
15980SOL    HW149708   1.629   7.569   1.012  2.2293  0.4886 -2.2952
15980SOL    HW249709   1.626   7.672   1.123  0.3581 -1.6755 -0.2458
15981SOL     OW49710   2.407   1.103   8.270  0.6681  0.0771  0.3754
15981SOL    HW149711   2.470   1.158   8.318  1.6103  0.1511 -0.9017
15981SOL    HW249712   2.382   1.156   8.194  0.6363 -0.7640 -0.2087
15982SOL     OW49713   3.693   0.922   0.515  0.6359 -0.1034 -0.0065
15982SOL    HW149714   3.638   0.872   0.455  3.4547 -2.2707 -0.9882
15982SOL    HW249715   3.761   0.961   0.459  0.9301  1.3704  1.2913
15983SOL     OW49716   5.165   4.367   0.527 -0.0787  0.4150 -0.0114
15983SOL    HW149717   5.251   4.327   0.541  0.6333  1.6883 -0.6056
15983SOL    HW249718   5.113   4.339   0.603  0.7310 -0.6670  0.1718
15984SOL     OW49719   8.286   6.850   1.735 -0.4426  0.1138 -0.3712
15984SOL    HW149720   8.206   6.874   1.688  0.0366 -0.2128 -1.4035
15984SOL    HW249721   8.356   6.870   1.673  0.2310 -0.1201  0.3084
15985SOL     OW49722   2.589   7.690   9.749 -0.4920 -0.1622 -0.4433
15985SOL    HW149723   2.585   7.780   9.718  0.2852 -0.5354 -1.7201
15985SOL    HW249724   2.514   7.681   9.807 -0.7443  1.2166 -0.5270
15986SOL     OW49725   2.227   6.735   3.954 -0.5808 -0.2308 -0.0020
15986SOL    HW149726   2.211   6.715   3.862  0.7209  0.0790 -0.3155
15986SOL    HW249727   2.242   6.829   3.956  1.6132 -0.5438  0.1559
15987SOL     OW49728   6.510   1.561   6.628  0.9007  0.8222  0.4156
15987SOL    HW149729   6.419   1.540   6.606  0.4201  0.8931  2.2098
15987SOL    HW249730   6.558   1.543   6.547 -0.3913 -1.2202  0.0185
15988SOL     OW49731   9.666   2.782   5.038 -0.0272  0.3247 -0.5885
15988SOL    HW149732   9.679   2.849   5.105 -0.4250 -0.0265 -0.1419
15988SOL    HW249733   9.754   2.750   5.019  0.0419 -0.0586  0.2997
15989SOL     OW49734   7.176   2.562   4.956  0.1963 -0.4487 -0.1941
15989SOL    HW149735   7.244   2.620   4.922  0.5807 -1.4688 -1.2305
15989SOL    HW249736   7.094   2.602   4.928  0.4453 -0.2588 -0.6572
15990SOL     OW49737   8.807   6.938   3.159  0.2226  0.1607 -0.3534
15990SOL    HW149738   8.758   6.856   3.149 -2.0757  1.4926 -0.7637
15990SOL    HW249739   8.740   7.006   3.163  2.0560  2.0930 -0.3780
15991SOL     OW49740   5.521   3.909   7.883 -0.0555 -0.1622  0.3954
15991SOL    HW149741   5.498   3.999   7.859 -0.9164 -0.7805 -1.2043
15991SOL    HW249742   5.539   3.914   7.977 -1.4812  1.3964  0.6317
15992SOL     OW49743   8.214   9.733   8.526  0.6086  0.2003 -0.0659
15992SOL    HW149744   8.158   9.749   8.450  0.8972  1.2503 -0.0826
15992SOL    HW249745   8.277   9.805   8.524  0.9249 -0.0349  0.8965
15993SOL     OW49746   1.989   2.036   8.917 -0.3263 -0.7743 -0.1029
15993SOL    HW149747   2.030   2.110   8.873  0.4721 -0.4346  1.1692
15993SOL    HW249748   2.014   1.960   8.864  0.8259 -0.4048 -0.1143
15994SOL     OW49749   4.509   5.833   9.038  0.3286  0.0725 -0.2774
15994SOL    HW149750   4.597   5.847   9.073 -0.2459  0.1585  1.2033
15994SOL    HW249751   4.496   5.738   9.043  0.3593  0.0494 -0.5856
15995SOL     OW49752   6.950   6.838   7.802  0.0236 -0.1862  0.6495
15995SOL    HW149753   6.867   6.870   7.767  0.3930  0.1913  0.1099
15995SOL    HW249754   6.964   6.889   7.882 -1.1824 -1.5565  1.7944
15996SOL     OW49755   9.845   1.494   4.103  0.0501  0.3714 -0.4514
15996SOL    HW149756   9.780   1.528   4.041  1.0769  1.6151 -0.8817
15996SOL    HW249757   9.869   1.570   4.157  2.5571  0.4428 -1.5611
15997SOL     OW49758   8.787   1.910   8.881 -0.1833 -0.4924 -0.1176
15997SOL    HW149759   8.737   1.881   8.957 -2.3276  0.3236 -1.1386
15997SOL    HW249760   8.846   1.978   8.915 -2.3950  1.1732  0.5843
15998SOL     OW49761   4.585   0.862   6.401  0.1217  0.5813  0.2438
15998SOL    HW149762   4.680   0.864   6.393  0.0661 -0.4546 -1.1737
15998SOL    HW249763   4.553   0.853   6.311 -1.2906  0.3721  0.7291
15999SOL     OW49764   2.515   8.263   1.196  0.3127  1.2066  0.4311
15999SOL    HW149765   2.514   8.272   1.100  0.0162  2.6217  0.5395
15999SOL    HW249766   2.444   8.202   1.215  1.7765 -0.8501 -0.3670
16000SOL     OW49767   1.105   2.147   0.841 -0.5280  0.3503 -0.5020
16000SOL    HW149768   1.100   2.093   0.763  0.6634 -0.0820 -0.3115
16000SOL    HW249769   1.083   2.235   0.812  0.7493  0.3620 -1.5349
16001SOL     OW49770   0.458   9.591   8.024  0.0630  0.3590  0.0258
16001SOL    HW149771   0.430   9.679   8.001  1.0469  0.4559 -0.8870
16001SOL    HW249772   0.386   9.534   7.994 -0.0341  0.7518 -0.4966
16002SOL     OW49773   0.135   6.604   6.110  0.0545 -0.2202 -0.0509
16002SOL    HW149774   0.051   6.642   6.086 -0.4915 -1.0380  0.5080
16002SOL    HW249775   0.142   6.618   6.204  0.2139 -0.7803  0.0237
16003SOL     OW49776   5.861   5.904   1.157  0.0376  0.3427 -0.2886
16003SOL    HW149777   5.903   5.986   1.131  1.8798 -0.9552 -1.6253
16003SOL    HW249778   5.768   5.919   1.140  0.1125  2.5998  0.8184
16004SOL     OW49779   1.535   5.444   1.648 -0.4917 -0.2248 -0.0160
16004SOL    HW149780   1.608   5.452   1.586  0.4256  0.1894  1.0900
16004SOL    HW249781   1.498   5.358   1.628  0.3362 -0.4785 -0.5641
16005SOL     OW49782   6.652   3.773   2.886 -0.4394  0.1732 -0.3981
16005SOL    HW149783   6.648   3.741   2.796 -0.5810 -0.6430 -0.1194
16005SOL    HW249784   6.642   3.867   2.880 -0.9855  0.0650 -1.1947
16006SOL     OW49785   4.394   6.475   0.992 -0.6755 -0.8221 -0.1152
16006SOL    HW149786   4.323   6.428   1.037 -0.4333  0.2486  1.4772
16006SOL    HW249787   4.357   6.500   0.908 -1.7452 -1.4154  0.1602
16007SOL     OW49788   7.281   2.459   0.884  0.5077  0.4266  0.3738
16007SOL    HW149789   7.290   2.366   0.865 -0.3732  0.2805  0.6052
16007SOL    HW249790   7.191   2.480   0.858  0.8937  1.3600 -0.2621
16008SOL     OW49791   4.393   1.460   7.234 -0.1435  0.1473 -0.5070
16008SOL    HW149792   4.319   1.520   7.246  0.3094  0.7052 -0.5021
16008SOL    HW249793   4.352   1.379   7.204 -0.7053  0.6294 -1.0722
16009SOL     OW49794   6.475   3.250   2.559 -0.1362 -0.1903  0.3226
16009SOL    HW149795   6.527   3.330   2.547  1.8546 -1.3163  1.0843
16009SOL    HW249796   6.513   3.187   2.499 -0.5662 -1.0811  0.9639
16010SOL     OW49797   7.466   6.648   6.196  0.1294  0.3365 -0.6372
16010SOL    HW149798   7.510   6.715   6.144  0.4098 -0.0064 -0.8472
16010SOL    HW249799   7.441   6.581   6.132  2.0810 -0.9690 -0.1284
16011SOL     OW49800   3.608   4.328   0.233  0.0815  0.3086 -0.1163
16011SOL    HW149801   3.520   4.298   0.210 -0.9636  2.4621  0.7965
16011SOL    HW249802   3.624   4.403   0.174  2.6756 -1.8545 -2.4644
16012SOL     OW49803   5.076   9.165   8.188 -0.3283 -0.5707 -0.0673
16012SOL    HW149804   5.105   9.194   8.275 -3.4080  0.2315  0.8305
16012SOL    HW249805   5.064   9.071   8.197  1.3730 -0.8346 -0.3126
16013SOL     OW49806   1.406   3.922   1.040  0.3471 -0.4332 -0.6003
16013SOL    HW149807   1.435   3.835   1.068 -0.3269 -0.2141  0.8561
16013SOL    HW249808   1.314   3.912   1.019  0.1256  0.0093  0.0851
16014SOL     OW49809   6.455   0.200   0.672  0.6713 -0.7021 -0.2237
16014SOL    HW149810   6.477   0.159   0.588  1.6102 -1.1789  0.2499
16014SOL    HW249811   6.483   0.137   0.738 -0.7904 -0.6831  0.4472
16015SOL     OW49812   8.274   2.759   1.874  0.3366  0.2080 -0.2191
16015SOL    HW149813   8.237   2.733   1.958 -0.0050 -2.5475 -1.1030
16015SOL    HW249814   8.206   2.812   1.833 -1.2859 -1.8945 -0.3999
16016SOL     OW49815   8.206   6.532   1.226  0.4136 -0.2778 -0.2103
16016SOL    HW149816   8.138   6.560   1.165  0.8100 -0.5006 -0.7585
16016SOL    HW249817   8.200   6.437   1.226  0.2121 -0.2680  0.3383
16017SOL     OW49818   7.428   7.946   7.539 -0.1982 -0.2271  0.4378
16017SOL    HW149819   7.376   7.867   7.524 -0.2191 -0.0346 -0.5939
16017SOL    HW249820   7.463   7.968   7.453 -0.4042  1.0421  0.6579
16018SOL     OW49821   6.152   1.071   5.924 -0.5456 -0.7288  0.2866
16018SOL    HW149822   6.160   1.123   6.004 -0.7634  0.8697 -0.6709
16018SOL    HW249823   6.114   0.989   5.952 -0.5636 -0.2241  1.8320
16019SOL     OW49824   5.202   8.053   6.549  0.7133 -0.2151 -0.1236
16019SOL    HW149825   5.120   8.042   6.501 -1.4934  0.7925  3.1197
16019SOL    HW249826   5.239   8.134   6.515 -0.8171  0.5147 -0.1285
16020SOL     OW49827   5.486   1.096   8.192 -0.0825  0.4297  0.0946
16020SOL    HW149828   5.541   1.039   8.246  0.8001  0.1292 -1.0779
16020SOL    HW249829   5.401   1.053   8.190  0.1788 -0.1041  0.3901
16021SOL     OW49830   3.957   7.849   0.501 -0.6900 -0.0125 -0.1437
16021SOL    HW149831   3.979   7.915   0.567  1.0731  1.5179 -2.1102
16021SOL    HW249832   4.002   7.770   0.531 -1.5013  0.0813  1.4300
16022SOL     OW49833   2.531   5.417   5.849  0.4854  0.3311  0.1924
16022SOL    HW149834   2.491   5.420   5.762  0.5852  1.4190  0.1727
16022SOL    HW249835   2.625   5.415   5.832  0.5190  1.0292  0.2737
16023SOL     OW49836   7.399   0.687   9.301 -0.1346 -0.4093  0.4187
16023SOL    HW149837   7.334   0.637   9.251 -0.6532  0.6626 -0.0217
16023SOL    HW249838   7.349   0.727   9.372  0.2343 -0.3884  0.6666
16024SOL     OW49839   4.609   3.316   3.392 -0.3569  0.0147  0.7124
16024SOL    HW149840   4.588   3.249   3.327 -1.4201 -1.3598  2.3671
16024SOL    HW249841   4.703   3.332   3.382 -0.8203  1.5130 -2.5766
16025SOL     OW49842   4.235   8.984   4.205 -0.2020 -0.0327 -1.4242
16025SOL    HW149843   4.141   9.000   4.195 -0.1351  0.7830 -0.8215
16025SOL    HW249844   4.253   8.911   4.146 -1.5496 -1.3349 -0.3407
16026SOL     OW49845   9.064   0.402   6.041  0.0847 -0.2134  0.1192
16026SOL    HW149846   9.071   0.327   6.100 -1.1267 -0.3405  0.1393
16026SOL    HW249847   8.984   0.446   6.069 -1.6035 -1.3204 -2.5421
16027SOL     OW49848   3.171   6.045   6.406  0.3145 -0.1525 -0.5656
16027SOL    HW149849   3.208   5.959   6.422  0.5952 -0.1732 -1.2951
16027SOL    HW249850   3.228   6.105   6.453  0.0165 -0.3770  0.0881
16028SOL     OW49851   5.150   3.309   4.920 -0.0892  0.8356 -0.1794
16028SOL    HW149852   5.169   3.215   4.931  1.7613  1.4443  3.1116
16028SOL    HW249853   5.191   3.332   4.836  0.9354 -0.9587 -0.2241
16029SOL     OW49854   3.019   1.977   8.662 -0.2278  0.1488  0.8734
16029SOL    HW149855   3.024   1.979   8.758  0.6722 -2.1216  0.9502
16029SOL    HW249856   2.926   1.960   8.643 -0.7017  2.1499  1.2386
16030SOL     OW49857   1.230   4.889   7.122 -0.1113 -0.5159 -0.0357
16030SOL    HW149858   1.269   4.900   7.209  0.2646 -0.8401 -0.1646
16030SOL    HW249859   1.261   4.965   7.073 -1.8980  0.7653  0.6656
16031SOL     OW49860   0.439   9.103   7.852 -0.0800  0.2160  0.4201
16031SOL    HW149861   0.385   9.050   7.793  0.9694  1.8210 -2.1694
16031SOL    HW249862   0.387   9.182   7.868  0.2619  0.4551  0.3623
16032SOL     OW49863   1.328   8.969   2.420 -0.5993 -0.0402  0.3984
16032SOL    HW149864   1.235   8.988   2.434 -0.5902  0.7880 -0.5426
16032SOL    HW249865   1.372   9.052   2.439 -0.1524 -0.1574 -0.1213
16033SOL     OW49866   8.860   2.891   8.766 -0.0332 -0.3916  0.1078
16033SOL    HW149867   8.898   2.814   8.723 -1.2883 -0.0386 -1.7567
16033SOL    HW249868   8.814   2.937   8.696 -3.6157 -0.6231  2.0765
16034SOL     OW49869   7.031   0.829   4.708 -0.4788 -0.0288 -0.5675
16034SOL    HW149870   6.997   0.757   4.655 -0.0810 -1.2121  0.7173
16034SOL    HW249871   6.961   0.893   4.709 -1.4350 -1.0415 -0.5387
16035SOL     OW49872   0.690   1.917   4.597 -0.8440  0.1042 -0.4556
16035SOL    HW149873   0.714   1.874   4.516 -1.4119 -0.8415 -0.1322
16035SOL    HW249874   0.609   1.964   4.576  0.5047  2.2297 -1.1917
16036SOL     OW49875   0.477   1.489   8.663  0.3216 -0.0949 -0.3147
16036SOL    HW149876   0.389   1.520   8.686 -0.0260 -1.3670  0.1564
16036SOL    HW249877   0.493   1.526   8.576 -0.5722  0.3594 -0.3005
16037SOL     OW49878   2.365   0.713   7.332 -0.1188  0.0395  0.2074
16037SOL    HW149879   2.335   0.775   7.398  0.4899  1.1410 -0.5058
16037SOL    HW249880   2.371   0.766   7.252  0.1325 -1.0182 -0.4850
16038SOL     OW49881   6.702   4.261   8.034  0.0053  0.5026 -0.5563
16038SOL    HW149882   6.674   4.251   8.126  0.7184 -0.2465 -0.4136
16038SOL    HW249883   6.644   4.329   7.999 -1.7266 -0.7021 -0.1622
16039SOL     OW49884   0.800   6.772   0.569  0.0778  0.5552 -0.1938
16039SOL    HW149885   0.871   6.827   0.605  0.8630 -1.0898  0.8745
16039SOL    HW249886   0.832   6.746   0.483 -0.1471  1.4510 -0.5640
16040SOL     OW49887   9.044   5.585   5.478 -0.0173 -0.2309 -0.0139
16040SOL    HW149888   9.000   5.504   5.506  2.2237 -2.2354 -1.8822
16040SOL    HW249889   9.121   5.555   5.430  1.0865  3.0746 -0.5371
16041SOL     OW49890   3.151   4.568   2.207  0.0225  0.2847  0.0912
16041SOL    HW149891   3.117   4.503   2.146  0.8486 -1.0766  1.0134
16041SOL    HW249892   3.220   4.613   2.158  1.2290 -1.3362  0.1876
16042SOL     OW49893   6.223   6.481   3.673 -0.6769 -0.0814  0.1786
16042SOL    HW149894   6.259   6.408   3.622  0.4815 -0.4367  1.4287
16042SOL    HW249895   6.296   6.541   3.683 -0.8580 -0.0501  1.4476
16043SOL     OW49896   9.191   7.186   2.252  0.2427 -0.1833  0.0989
16043SOL    HW149897   9.159   7.134   2.325  0.6954 -0.2037  0.2880
16043SOL    HW249898   9.205   7.123   2.181  1.3042 -0.4107  0.4980
16044SOL     OW49899   4.108   3.468   1.205 -0.0313 -0.7435 -0.1569
16044SOL    HW149900   4.088   3.459   1.298  0.3555 -2.1209 -0.1805
16044SOL    HW249901   4.198   3.499   1.202 -0.6663  1.2637 -0.0897
16045SOL     OW49902   3.831   4.822   0.902  0.2026 -0.0307  0.6217
16045SOL    HW149903   3.788   4.867   0.975  0.3526  0.5399  0.3608
16045SOL    HW249904   3.767   4.757   0.872  0.2658 -0.5052  1.4756
16046SOL     OW49905   2.814   3.913   6.463 -0.1304 -0.2863 -0.1701
16046SOL    HW149906   2.733   3.884   6.422 -0.3025  1.2735 -1.0160
16046SOL    HW249907   2.865   3.950   6.391  1.3696 -1.2871  0.3353
16047SOL     OW49908   3.628   2.720   3.236 -0.0918 -0.4104 -0.3555
16047SOL    HW149909   3.643   2.782   3.165 -0.6891  1.0718  0.7705
16047SOL    HW249910   3.673   2.640   3.208 -0.9333 -0.1267 -2.7177
16048SOL     OW49911   2.879   9.100   9.566  0.3394  0.3714  0.4283
16048SOL    HW149912   2.917   9.145   9.641 -0.1783  1.2512  0.1784
16048SOL    HW249913   2.818   9.037   9.603  1.6143 -0.6602  0.8110
16049SOL     OW49914   8.467   9.535   3.748  0.5692  0.8874  0.2658
16049SOL    HW149915   8.393   9.575   3.703  1.3715  0.4400 -1.5043
16049SOL    HW249916   8.430   9.458   3.791  0.0145  0.5879 -0.7219
16050SOL     OW49917   7.510   7.998   8.737  0.0504 -0.1671  0.8262
16050SOL    HW149918   7.509   7.903   8.728 -1.8266 -0.1927  1.0173
16050SOL    HW249919   7.557   8.013   8.819  1.7885 -0.8151 -0.0086
16051SOL     OW49920   3.841   6.004   1.708  0.8858 -0.4803 -0.7142
16051SOL    HW149921   3.790   6.048   1.776  0.8746  0.0603 -1.0637
16051SOL    HW249922   3.864   5.919   1.746  2.2165  0.3998  0.5913
16052SOL     OW49923   5.705   0.211   4.328 -0.0227  0.6391  0.3490
16052SOL    HW149924   5.689   0.245   4.416  0.3321  0.6522  0.4087
16052SOL    HW249925   5.618   0.190   4.294 -0.1520  0.5304  0.7463
16053SOL     OW49926   9.537   9.351   2.039  0.1664  0.4089  0.3360
16053SOL    HW149927   9.527   9.286   2.108  0.9762  0.7555  0.7944
16053SOL    HW249928   9.630   9.373   2.040 -0.0632  1.4468  0.0766
16054SOL     OW49929   7.916   7.664   5.877  0.0774  0.1114  0.0154
16054SOL    HW149930   7.907   7.759   5.884 -1.2349  0.1284 -1.4517
16054SOL    HW249931   7.986   7.652   5.812  0.2567  0.0693  0.2151
16055SOL     OW49932   4.389   9.201   6.721  0.5578  0.3977  0.2623
16055SOL    HW149933   4.429   9.171   6.639  0.8093  1.6599 -0.0892
16055SOL    HW249934   4.462   9.208   6.782  0.2043 -1.8440  1.0458
16056SOL     OW49935   0.967   1.404   0.920  0.0165 -0.2409  0.0678
16056SOL    HW149936   1.003   1.377   0.836 -0.1017 -1.3383  0.3566
16056SOL    HW249937   0.912   1.331   0.948  0.1304  0.0636  1.1436
16057SOL     OW49938   5.113   7.699   3.065  0.3303  0.0884  0.4337
16057SOL    HW149939   5.041   7.750   3.027  0.1343 -0.7546 -0.3461
16057SOL    HW249940   5.102   7.611   3.030  1.6705 -0.0887  0.4099
16058SOL     OW49941   5.765   9.469   6.812  0.3143  0.7367 -0.2842
16058SOL    HW149942   5.750   9.560   6.785 -0.6037  0.6695 -0.0319
16058SOL    HW249943   5.699   9.419   6.764 -0.9165  0.5311  1.5316
16059SOL     OW49944   0.336   2.309   7.428 -0.1426 -0.3214 -0.1952
16059SOL    HW149945   0.417   2.339   7.386 -0.4430 -1.2159 -1.4564
16059SOL    HW249946   0.332   2.359   7.510  1.2871  0.2945 -0.4685
16060SOL     OW49947   5.676   1.290   4.913 -0.7409 -0.6160  0.3482
16060SOL    HW149948   5.634   1.205   4.901  0.6472 -1.0766 -1.8149
16060SOL    HW249949   5.660   1.337   4.832 -0.6662  0.8430  1.1416
16061SOL     OW49950   1.886   7.581   1.854 -0.2263  0.1948 -0.0226
16061SOL    HW149951   1.799   7.617   1.864 -0.8024 -1.4152  1.1689
16061SOL    HW249952   1.913   7.555   1.942  1.9085  1.5796 -0.1892
16062SOL     OW49953   1.287   6.885   7.426  0.1917 -0.3766  0.1689
16062SOL    HW149954   1.381   6.897   7.410  0.2448 -0.2467  0.5676
16062SOL    HW249955   1.282   6.803   7.476  0.1602  0.0237  0.8287
16063SOL     OW49956   6.598   1.992   9.560  0.1386 -0.5836  0.6695
16063SOL    HW149957   6.601   2.016   9.652 -0.8345 -1.4382  0.9443
16063SOL    HW249958   6.547   1.911   9.558  0.8715 -1.0377 -0.5244
16064SOL     OW49959   8.320   3.191   4.441  0.2752 -0.5290  0.2618
16064SOL    HW149960   8.352   3.165   4.354 -1.2821 -1.0371 -0.1938
16064SOL    HW249961   8.238   3.237   4.423  0.5087  0.3581  1.4087
16065SOL     OW49962   0.607   0.770   0.122 -0.1890  0.2401  0.3135
16065SOL    HW149963   0.598   0.700   0.186 -0.5811  0.2783  0.3023
16065SOL    HW249964   0.554   0.842   0.156  1.4669  1.1325  1.1332
16066SOL     OW49965   4.628   9.040   0.797 -0.4468  0.6987 -0.0595
16066SOL    HW149966   4.645   9.004   0.710 -1.5638 -0.1962  0.0624
16066SOL    HW249967   4.693   8.999   0.853 -0.9379 -0.2258 -0.1466
16067SOL     OW49968   0.833   4.107   7.802  0.0962 -0.1293 -0.4029
16067SOL    HW149969   0.769   4.179   7.798  0.6005  0.4355  1.0039
16067SOL    HW249970   0.893   4.125   7.730  0.6563  1.3431  0.3703
16068SOL     OW49971   3.330   9.630   3.135 -0.6557 -0.1341 -0.0961
16068SOL    HW149972   3.408   9.685   3.146 -1.5962  1.6537 -1.5832
16068SOL    HW249973   3.350   9.576   3.058 -0.1169 -1.2216  0.7768
16069SOL     OW49974   6.332   8.096   2.262  0.0020  0.1214  0.2407
16069SOL    HW149975   6.284   8.151   2.200  0.8105  0.0259 -0.4883
16069SOL    HW249976   6.263   8.052   2.313 -0.6854  0.1362 -0.6436
16070SOL     OW49977   4.538   7.360   1.676  0.3148  0.8605  0.0418
16070SOL    HW149978   4.454   7.360   1.630  0.8762 -1.2310 -1.1169
16070SOL    HW249979   4.544   7.447   1.716 -2.3869  1.0442  0.1761
16071SOL     OW49980   9.628   4.232   2.139 -0.4166  0.3023  0.0969
16071SOL    HW149981   9.722   4.227   2.121 -0.5631  0.4727 -0.7994
16071SOL    HW249982   9.600   4.141   2.146  0.1449  0.2641  2.3527
16072SOL     OW49983   2.432   4.198   4.614 -0.2268  0.3393  0.0649
16072SOL    HW149984   2.470   4.170   4.697 -0.9815  0.7472  0.5615
16072SOL    HW249985   2.442   4.293   4.613  0.7715  0.2390 -0.8246
16073SOL     OW49986   9.749   4.526   3.143 -0.0147  0.1249 -0.9983
16073SOL    HW149987   9.748   4.435   3.174 -0.9399  0.4187 -0.0831
16073SOL    HW249988   9.805   4.524   3.066  3.0541 -0.5524  1.0489
16074SOL     OW49989   2.324   1.499   4.103 -0.3968 -0.2922  0.0414
16074SOL    HW149990   2.377   1.510   4.182  1.0046 -0.8857 -0.7851
16074SOL    HW249991   2.332   1.407   4.081  1.4145  0.3081 -2.2201
16075SOL     OW49992   0.096   5.970   4.996 -0.1000 -0.2783 -0.6049
16075SOL    HW149993   0.045   6.023   5.057  1.4325  0.2076  0.3171
16075SOL    HW249994   0.100   5.883   5.036  0.0060 -0.2514 -0.5575
16076SOL     OW49995   2.580   9.655   5.678 -0.2394  0.3275  0.0078
16076SOL    HW149996   2.506   9.630   5.734  1.4466  1.1544  2.8145
16076SOL    HW249997   2.656   9.611   5.717  1.0525  0.9726 -1.6424
16077SOL     OW49998   8.446   8.907   6.904 -0.1486  0.2010 -0.0281
16077SOL    HW149999   8.478   8.933   6.990 -1.2263 -1.0735  0.7917
16077SOL    HW250000   8.503   8.834   6.878 -1.6068 -1.3736  0.9686
16078SOL     OW50001   5.323   1.787   7.186  0.5077  0.2684 -0.1358
16078SOL    HW150002   5.340   1.694   7.173  1.2439  0.4116 -0.2194
16078SOL    HW250003   5.231   1.799   7.161  0.4773 -0.3907 -0.3356
16079SOL     OW50004   4.912   2.029   3.991 -0.3827 -0.5310 -0.1769
16079SOL    HW150005   4.883   2.093   4.056 -0.0470  0.1634 -0.7068
16079SOL    HW250006   4.869   2.055   3.910  1.0580  0.0535 -0.7979
16080SOL     OW50007   1.212   3.391   0.742  0.2478 -0.3364 -0.4615
16080SOL    HW150008   1.302   3.418   0.724 -0.2448  2.2491  0.5572
16080SOL    HW250009   1.221   3.326   0.812  1.3191  0.0635 -0.1984
16081SOL     OW50010   4.430   6.871   1.860 -0.2316  0.2147 -0.1308
16081SOL    HW150011   4.348   6.911   1.828 -0.8798 -0.8630  0.1390
16081SOL    HW250012   4.448   6.917   1.943 -0.6978  0.2901 -0.0682
16082SOL     OW50013   5.977   4.503   1.628  0.2855  0.0484 -0.4932
16082SOL    HW150014   5.996   4.587   1.668  1.7664  0.0396 -1.1478
16082SOL    HW250015   6.019   4.439   1.685  0.0830 -0.1661 -0.5815
16083SOL     OW50016   6.005   1.590   3.913 -1.0657 -0.0043 -0.0320
16083SOL    HW150017   5.990   1.654   3.982 -2.3332 -1.9150  1.5933
16083SOL    HW250018   6.022   1.508   3.959  2.3767 -0.5654 -2.0087
16084SOL     OW50019   4.327   7.619   1.791 -0.1867  0.2494 -0.2763
16084SOL    HW150020   4.305   7.677   1.718 -1.3600  1.9136  1.3248
16084SOL    HW250021   4.423   7.625   1.798 -0.1880  1.1370 -0.8394
16085SOL     OW50022   8.327   2.942   5.927 -0.1035 -0.3967 -0.2060
16085SOL    HW150023   8.336   2.963   6.020  0.7984  1.8679 -0.7185
16085SOL    HW250024   8.232   2.940   5.912 -0.2726  1.2562  0.4097
16086SOL     OW50025   2.871   8.387   2.333  0.3147  0.6037  0.2030
16086SOL    HW150026   2.909   8.300   2.323 -1.4035 -0.1789  0.2039
16086SOL    HW250027   2.936   8.446   2.293  3.0454 -0.2442  2.9814
16087SOL     OW50028   0.193   0.806   0.668  0.2577  0.0702  0.1368
16087SOL    HW150029   0.270   0.826   0.615 -0.7425 -1.2867 -1.9469
16087SOL    HW250030   0.148   0.890   0.678  1.3299  0.6404  0.2922
16088SOL     OW50031   0.173   0.334   0.879 -0.6127  0.4124  0.5372
16088SOL    HW150032   0.160   0.251   0.832 -1.9859 -0.2559  2.0000
16088SOL    HW250033   0.110   0.331   0.950  1.0480  1.5984  2.1517
16089SOL     OW50034   7.276   6.537   8.491 -0.0151 -0.3165  0.4051
16089SOL    HW150035   7.191   6.492   8.494  1.0249 -2.5482 -1.0222
16089SOL    HW250036   7.264   6.606   8.426 -1.2693  0.7408  1.6810
16090SOL     OW50037   5.489   1.026   2.679 -0.3038  0.7979  0.0772
16090SOL    HW150038   5.462   1.049   2.768  1.9627  1.3726  0.6884
16090SOL    HW250039   5.435   0.951   2.656 -0.0242 -0.2210  2.4699
16091SOL     OW50040   3.323   0.574   2.493  0.1203 -0.5303  0.4108
16091SOL    HW150041   3.307   0.508   2.560 -0.4355  1.5747  2.4605
16091SOL    HW250042   3.352   0.651   2.541 -1.8754  1.6293 -1.5685
16092SOL     OW50043   8.335   3.735   1.140  0.0708 -0.2283  0.1955
16092SOL    HW150044   8.322   3.713   1.048 -0.9771 -1.5231  0.6291
16092SOL    HW250045   8.379   3.659   1.177  0.9368  0.4909  0.6805
16093SOL     OW50046   2.947   1.978   6.686  0.2187  0.0531 -0.1205
16093SOL    HW150047   2.932   1.956   6.778 -1.0653 -0.7736 -0.5055
16093SOL    HW250048   3.038   1.953   6.670  0.5637  0.5533  1.0101
16094SOL     OW50049   0.616   1.818   2.520  1.1873 -0.3475  0.0550
16094SOL    HW150050   0.644   1.726   2.514 -1.1145 -1.2225  1.4590
16094SOL    HW250051   0.624   1.839   2.613 -1.5973 -0.3177  0.3533
16095SOL     OW50052   3.934   3.262   2.720 -0.0668 -0.1763 -0.1794
16095SOL    HW150053   3.859   3.220   2.678  0.4964  0.3989 -1.8489
16095SOL    HW250054   3.986   3.189   2.754  0.9532 -0.9340 -3.1206
16096SOL     OW50055   1.920   9.159   3.545 -0.1073  0.2817  0.0934
16096SOL    HW150056   2.008   9.196   3.541  0.2654 -0.6979 -1.1062
16096SOL    HW250057   1.874   9.215   3.608  1.1006  1.3566  0.0596
16097SOL     OW50058   4.813   8.247   6.105  0.4790  0.3648 -0.3640
16097SOL    HW150059   4.725   8.239   6.069  0.8514  1.8061 -1.6944
16097SOL    HW250060   4.864   8.180   6.060  0.3329  0.3073 -0.4446
16098SOL     OW50061   7.411   3.161   7.423 -0.3713 -0.2812  0.5138
16098SOL    HW150062   7.418   3.082   7.476  0.3885 -0.3847  0.2851
16098SOL    HW250063   7.443   3.231   7.480  1.2369 -0.5156 -0.0345
16099SOL     OW50064   4.815   5.356   6.985  0.3216  0.7869 -0.1285
16099SOL    HW150065   4.824   5.429   6.924  1.8807  1.5669  0.9685
16099SOL    HW250066   4.870   5.287   6.948 -1.0539  0.1701 -1.0991
16100SOL     OW50067   3.116   8.511   3.765  0.0492 -0.2142 -0.0227
16100SOL    HW150068   3.093   8.507   3.673  1.1907  2.5157 -0.5285
16100SOL    HW250069   3.032   8.524   3.810 -0.4122 -0.5323 -0.7694
16101SOL     OW50070   1.849   6.684   7.268  0.4058  0.0232 -0.6122
16101SOL    HW150071   1.798   6.757   7.234 -0.2553  0.1719  0.6315
16101SOL    HW250072   1.792   6.608   7.259 -0.3646  0.2943  1.3607
16102SOL     OW50073   3.176   0.959   4.284  1.1385  0.4029  0.2033
16102SOL    HW150074   3.087   0.956   4.251  0.4164  2.1467  1.7857
16102SOL    HW250075   3.229   0.985   4.208  0.2809 -0.3872 -0.6880
16103SOL     OW50076   6.639   8.891   2.065 -0.1475 -0.9595 -0.1074
16103SOL    HW150077   6.625   8.969   2.119 -3.4914 -0.6181 -1.2410
16103SOL    HW250078   6.618   8.818   2.123 -0.8227 -0.7750 -0.1175
16104SOL     OW50079   5.016   4.101   4.202 -0.7019  0.0860 -0.6141
16104SOL    HW150080   5.087   4.107   4.267 -1.9555  0.1320  0.7929
16104SOL    HW250081   5.024   4.012   4.167 -0.7188 -0.3568  0.4622
16105SOL     OW50082   2.387   2.182   6.162  0.6328 -0.4764  0.4140
16105SOL    HW150083   2.321   2.189   6.231  1.4455  2.0114  1.0586
16105SOL    HW250084   2.349   2.227   6.087  0.6937 -1.1163 -0.0120
16106SOL     OW50085   9.236   6.483   4.272 -0.0266  0.2000  0.1949
16106SOL    HW150086   9.326   6.507   4.249 -0.3568  0.7918 -0.5367
16106SOL    HW250087   9.245   6.419   4.342  0.9982 -0.4911 -0.5472
16107SOL     OW50088   6.607   6.743   4.841  0.0219 -0.2792 -0.3854
16107SOL    HW150089   6.605   6.656   4.881 -1.1229  0.1261  0.4771
16107SOL    HW250090   6.698   6.753   4.811  0.6800 -1.0398  1.1908
16108SOL     OW50091   7.127   4.577   2.534  0.0240 -0.4430 -0.2029
16108SOL    HW150092   7.051   4.532   2.571  0.6923  0.2333  2.0959
16108SOL    HW250093   7.098   4.668   2.524  0.3818 -0.2788  0.2438
16109SOL     OW50094   8.157   6.953   9.747  0.0123  0.0518  0.0698
16109SOL    HW150095   8.166   6.866   9.784 -1.7313  1.0142  3.1229
16109SOL    HW250096   8.178   7.012   9.819 -0.5703  2.1546 -1.3727
16110SOL     OW50097   7.775   4.872   0.259 -0.2149  0.2058  0.2875
16110SOL    HW150098   7.768   4.812   0.333 -0.5873 -0.0650  0.0360
16110SOL    HW250099   7.778   4.815   0.182  0.4986  0.4714  0.1132
16111SOL     OW50100   1.240   4.507   4.798  0.5142  0.2884  0.5686
16111SOL    HW150101   1.191   4.533   4.876 -1.1352 -2.1842  0.4645
16111SOL    HW250102   1.193   4.551   4.726  0.7262  0.8507  0.7645
16112SOL     OW50103   8.112   2.723   1.489  0.0996  0.3400  0.0803
16112SOL    HW150104   8.122   2.804   1.539 -2.2300 -0.0770  1.3678
16112SOL    HW250105   8.034   2.737   1.436  0.7445 -0.4113 -1.1175
16113SOL     OW50106   4.431   3.982   9.814 -0.1965 -0.0962  0.4193
16113SOL    HW150107   4.473   3.924   9.750  1.6901 -1.4597  2.7066
16113SOL    HW250108   4.502   4.036   9.848 -1.1432  0.6014  1.3490
16114SOL     OW50109   3.894   1.013   4.390 -0.0681 -0.2002 -0.0024
16114SOL    HW150110   3.979   0.994   4.429 -1.1983 -2.2729  1.7026
16114SOL    HW250111   3.875   1.102   4.417  1.6184  0.3800 -0.6082
16115SOL     OW50112   4.833   7.386   7.224  0.4444  0.2434  0.2989
16115SOL    HW150113   4.776   7.310   7.231  1.3758 -0.6296 -1.1458
16115SOL    HW250114   4.779   7.452   7.179 -0.1322  0.2004  0.9158
16116SOL     OW50115   0.121   6.947   7.292 -0.1703 -0.0849  0.1202
16116SOL    HW150116   0.095   6.893   7.366 -1.5244  0.5307  0.1115
16116SOL    HW250117   0.062   7.022   7.294  0.5275  0.5217 -0.9032
16117SOL     OW50118   5.026   5.415   8.548 -0.1338  0.0961  0.0646
16117SOL    HW150119   4.962   5.457   8.604  2.0064 -0.1973  2.9975
16117SOL    HW250120   5.010   5.321   8.559  0.0328  0.0479 -0.0970
16118SOL     OW50121   7.539   9.279   1.058 -0.6502  0.1089 -0.2934
16118SOL    HW150122   7.576   9.258   1.144  0.9785  1.1516 -0.6997
16118SOL    HW250123   7.529   9.194   1.015 -1.2695 -0.4043  0.8293
16119SOL     OW50124   7.626   9.210   4.558  0.1267 -0.3006  1.1776
16119SOL    HW150125   7.693   9.250   4.613 -0.1605 -0.4852  1.6657
16119SOL    HW250126   7.673   9.181   4.480  0.3344  1.0013  0.7966
16120SOL     OW50127   6.960   5.558   1.348 -0.0226 -0.4996  0.2004
16120SOL    HW150128   7.001   5.483   1.392  1.0873  0.9475  1.8084
16120SOL    HW250129   6.918   5.521   1.271  1.0027 -2.6747  0.5996
16121SOL     OW50130   2.692   8.070   4.483 -0.0311 -0.1439 -0.1653
16121SOL    HW150131   2.637   8.148   4.476 -0.2954 -0.4543 -2.4210
16121SOL    HW250132   2.753   8.078   4.409  1.9588 -0.5972  1.3296
16122SOL     OW50133   8.283   1.657   4.795  0.4155 -0.0781  0.0754
16122SOL    HW150134   8.362   1.635   4.745  0.0864 -2.6325  0.5356
16122SOL    HW250135   8.219   1.591   4.770 -1.2828  1.3624  0.4497
16123SOL     OW50136   6.194   3.989   2.386  0.4121  0.1002 -0.4559
16123SOL    HW150137   6.249   4.010   2.310  0.8170  0.2168 -0.1360
16123SOL    HW250138   6.108   4.022   2.364  0.6454  0.5720 -0.6640
16124SOL     OW50139   1.552   9.767   8.783  0.2472 -0.0359  0.3416
16124SOL    HW150140   1.476   9.773   8.725  0.6830 -1.1594 -0.3628
16124SOL    HW250141   1.617   9.718   8.733  0.9643 -0.2299  1.4333
16125SOL     OW50142   2.270   7.697   4.125 -0.6548 -0.5509 -0.0275
16125SOL    HW150143   2.269   7.740   4.210 -0.1289  1.3513 -0.9340
16125SOL    HW250144   2.183   7.714   4.089 -1.1012 -1.8945  0.3441
16126SOL     OW50145   2.812   4.672   4.920  0.3868 -0.0927 -0.2406
16126SOL    HW150146   2.859   4.711   4.993  0.0228 -1.1810  0.6059
16126SOL    HW250147   2.880   4.632   4.866  0.5941  0.0732 -0.1023
16127SOL     OW50148   0.822   1.592   1.822  0.2693 -0.7859 -0.2185
16127SOL    HW150149   0.907   1.575   1.782  0.5065  0.4513 -0.2992
16127SOL    HW250150   0.787   1.667   1.773 -0.1533 -0.2720  0.8258
16128SOL     OW50151   1.993   2.714   6.747 -0.1292  0.0910  0.0484
16128SOL    HW150152   1.922   2.658   6.717  0.2811 -1.6096  2.0442
16128SOL    HW250153   1.974   2.800   6.708 -2.1379 -0.8096 -1.0857
16129SOL     OW50154   5.391   6.277   5.998  0.1760  0.2296  0.3885
16129SOL    HW150155   5.462   6.331   6.032  1.5642 -0.3182 -1.4764
16129SOL    HW250156   5.319   6.339   5.983  1.2490  1.3226 -0.3793
16130SOL     OW50157   8.797   0.729   1.494  0.2818  0.6992 -0.2364
16130SOL    HW150158   8.800   0.798   1.560  1.0907 -1.3346  2.0197
16130SOL    HW250159   8.884   0.730   1.454  0.4309  0.7228  0.0852
16131SOL     OW50160   3.825   3.056   4.791  0.8897  0.1659 -0.3231
16131SOL    HW150161   3.903   3.040   4.738 -0.2449  0.1915 -2.0797
16131SOL    HW250162   3.777   3.124   4.743 -0.8178 -0.7320  0.0289
16132SOL     OW50163   5.802   7.220   7.380 -0.2305  0.1023  0.1624
16132SOL    HW150164   5.857   7.227   7.459 -0.2588  0.8547  0.1174
16132SOL    HW250165   5.865   7.210   7.308 -0.1970 -3.1720  0.4585
16133SOL     OW50166   4.161   7.905   6.769  0.1970 -0.1296  1.3826
16133SOL    HW150167   4.204   7.979   6.811 -1.0816 -0.4426  3.3572
16133SOL    HW250168   4.079   7.940   6.735  0.8485 -0.0672 -0.2713
16134SOL     OW50169   3.046   5.865   7.421 -0.2635 -0.0306 -0.2186
16134SOL    HW150170   3.103   5.922   7.370 -0.5135 -0.4969 -1.0206
16134SOL    HW250171   2.981   5.833   7.359 -1.6702  0.8144  0.7512
16135SOL     OW50172   7.638   4.830   3.476  0.0587 -0.1540  0.0821
16135SOL    HW150173   7.546   4.855   3.464  0.5282  1.8229  0.1857
16135SOL    HW250174   7.635   4.741   3.509 -1.7607 -0.6970 -1.3846
16136SOL     OW50175   1.243   7.674   0.685  0.3298  0.0297  0.2149
16136SOL    HW150176   1.236   7.769   0.682  1.9849  0.1853  0.1038
16136SOL    HW250177   1.232   7.651   0.777  0.6807  0.4027  0.3494
16137SOL     OW50178   0.516   2.075   3.342  0.2771 -0.0874 -0.0079
16137SOL    HW150179   0.442   2.058   3.401 -0.3321 -0.3456 -0.8288
16137SOL    HW250180   0.520   1.998   3.286 -0.5163  1.0592 -1.7128
16138SOL     OW50181   2.109   5.721   7.645  0.2091  0.3425  0.3138
16138SOL    HW150182   2.185   5.780   7.648  0.3554  0.1822 -0.0620
16138SOL    HW250183   2.034   5.779   7.635  0.3744  0.4638 -0.3078
16139SOL     OW50184   7.679   4.843   8.086 -0.2648 -0.1514 -0.4223
16139SOL    HW150185   7.655   4.907   8.153 -0.9752 -1.2391  0.4011
16139SOL    HW250186   7.597   4.823   8.040  0.1014  0.1304 -1.2258
16140SOL     OW50187   8.105   9.729   2.832  0.2979  0.3337 -0.3743
16140SOL    HW150188   8.175   9.790   2.808  1.3816  0.0521  1.7392
16140SOL    HW250189   8.024   9.775   2.813  1.0860  2.3061  0.7767
16141SOL     OW50190   9.138   2.129   4.099 -0.3337  0.8817  0.4967
16141SOL    HW150191   9.108   2.215   4.069  1.8670  1.7548  0.6621
16141SOL    HW250192   9.085   2.111   4.177 -0.6891  2.1663  0.5718
16142SOL     OW50193   2.956   2.252   0.090  0.0701 -0.9291  0.0423
16142SOL    HW150194   2.932   2.327   0.145 -0.2391 -1.5242  0.7322
16142SOL    HW250195   2.944   2.284   0.000 -0.8082 -0.3847  0.3331
16143SOL     OW50196   2.150   4.759   4.534 -0.2523  0.3577  0.3967
16143SOL    HW150197   2.099   4.733   4.611 -1.4944  0.9507 -0.2003
16143SOL    HW250198   2.168   4.676   4.489 -0.0864  0.0731  0.9774
16144SOL     OW50199   0.526   7.718   4.677 -0.4045 -0.5009  0.4332
16144SOL    HW150200   0.552   7.746   4.590  1.3683  0.6540  1.2780
16144SOL    HW250201   0.450   7.772   4.698  1.3446  1.9262  0.9690
16145SOL     OW50202   4.898   0.973   8.597  0.0816  0.5658  0.6642
16145SOL    HW150203   4.856   1.046   8.642 -2.4105  0.3078 -1.0238
16145SOL    HW250204   4.860   0.895   8.637  0.4339  0.2663  0.4176
16146SOL     OW50205   1.363   3.399   2.028 -0.2507 -0.5265  0.1634
16146SOL    HW150206   1.321   3.403   2.114 -0.5350  1.6235 -0.0385
16146SOL    HW250207   1.441   3.454   2.037  0.4755 -1.4062 -0.5717
16147SOL     OW50208   8.427   4.692   6.623  0.5547 -0.1645  0.4890
16147SOL    HW150209   8.485   4.735   6.685 -0.1179  2.0047 -0.3200
16147SOL    HW250210   8.372   4.762   6.588 -0.3722 -1.6320 -1.1544
16148SOL     OW50211   1.889   1.800   0.374  0.1516  0.2776  0.1456
16148SOL    HW150212   1.976   1.780   0.340 -0.0002  0.8132 -0.6029
16148SOL    HW250213   1.905   1.848   0.455  0.5561  0.4334 -0.0214
16149SOL     OW50214   6.450   0.892   8.018  0.0861  0.3066  0.5990
16149SOL    HW150215   6.489   0.968   7.975 -0.5697  0.3007 -0.0199
16149SOL    HW250216   6.439   0.920   8.109 -0.0117  0.9064  0.4084
16150SOL     OW50217   1.969   9.302   3.262 -0.5042 -0.3115 -0.4438
16150SOL    HW150218   1.921   9.285   3.343 -0.1356  1.3219  0.1577
16150SOL    HW250219   1.909   9.354   3.209 -1.0048 -1.9528 -1.5461
16151SOL     OW50220   0.708   9.034   7.088  0.2764  0.0833 -0.5383
16151SOL    HW150221   0.684   9.006   7.000 -0.3553 -2.1136  0.2600
16151SOL    HW250222   0.627   9.071   7.124  0.9562  2.6073 -1.3793
16152SOL     OW50223   6.052   3.232   5.206  0.2370  0.3816 -0.2701
16152SOL    HW150224   6.059   3.323   5.235 -1.0795  0.4396 -0.0943
16152SOL    HW250225   6.015   3.185   5.281 -0.4859 -0.0076 -0.8519
16153SOL     OW50226   4.868   8.671   9.069 -0.1270  0.0357  0.7441
16153SOL    HW150227   4.906   8.613   9.136 -1.1717 -1.0686  0.4156
16153SOL    HW250228   4.885   8.626   8.986  0.3942  0.9708  0.3287
16154SOL     OW50229   6.038   1.239   5.716 -0.1375 -0.3873  0.5702
16154SOL    HW150230   6.012   1.315   5.767  1.4832 -0.0385  0.9302
16154SOL    HW250231   6.082   1.181   5.779 -0.2910 -1.0796  0.0623
16155SOL     OW50232   9.772   8.101   7.302  0.0073 -0.1248 -0.4889
16155SOL    HW150233   9.742   8.013   7.280 -1.3835  0.6229 -1.7097
16155SOL    HW250234   9.843   8.087   7.364 -1.2405 -2.0493  0.5887
16156SOL     OW50235   4.487   9.225   4.637 -0.4511  0.1656 -0.3839
16156SOL    HW150236   4.397   9.236   4.668  0.1622 -0.0695  1.6866
16156SOL    HW250237   4.492   9.134   4.610 -0.7530  0.0848 -0.1744
16157SOL     OW50238   6.552   4.241   4.122 -0.3093 -0.4124 -0.0951
16157SOL    HW150239   6.509   4.160   4.094 -1.1116 -0.6701  1.7441
16157SOL    HW250240   6.592   4.275   4.042 -1.6098 -1.6017 -1.3255
16158SOL     OW50241   0.693   4.527   5.310  0.1113  0.2459  0.0012
16158SOL    HW150242   0.707   4.543   5.403  0.3001  2.1209 -0.3152
16158SOL    HW250243   0.598   4.521   5.301  0.1308 -1.2759  0.4762
16159SOL     OW50244   6.272   4.022   8.688 -0.1136  0.0297  0.2529
16159SOL    HW150245   6.230   4.001   8.772 -0.5666 -0.5483 -0.1068
16159SOL    HW250246   6.201   4.015   8.624  0.3575 -0.1342 -0.2546
16160SOL     OW50247   4.138   7.091   4.582  0.4220  0.1508  0.1438
16160SOL    HW150248   4.168   7.066   4.669  2.6663  0.2564 -0.5282
16160SOL    HW250249   4.190   7.169   4.560  0.3631 -0.2297 -1.5049
16161SOL     OW50250   8.424   5.793   8.160  0.4821  0.0181  0.5430
16161SOL    HW150251   8.477   5.870   8.140 -0.6470  1.2300  1.9195
16161SOL    HW250252   8.423   5.789   8.256 -1.4509 -0.2682  0.5469
16162SOL     OW50253   6.326   7.599   9.193 -0.0949  0.1354  0.5601
16162SOL    HW150254   6.286   7.652   9.262 -1.7611  0.0197 -0.2591
16162SOL    HW250255   6.271   7.521   9.188 -0.9694  0.8033 -1.8678
16163SOL     OW50256   3.486   1.239   1.962  0.6280  0.0526 -0.4161
16163SOL    HW150257   3.445   1.254   2.047  1.3094  2.1355 -0.3969
16163SOL    HW250258   3.519   1.149   1.967  1.3029  0.3631  1.8218
16164SOL     OW50259   0.369   9.064   0.298  0.4895 -0.2113 -0.2325
16164SOL    HW150260   0.388   9.077   0.391  2.9196 -0.3731 -0.6548
16164SOL    HW250261   0.374   8.970   0.285 -0.1428 -0.2131 -0.4803
16165SOL     OW50262   5.693   1.203   2.762 -0.1068 -0.3475  0.5354
16165SOL    HW150263   5.709   1.117   2.799 -2.5490 -0.2827  1.9771
16165SOL    HW250264   5.635   1.187   2.687 -1.2729  0.0580  1.3210
16166SOL     OW50265   1.903   8.890   0.103  0.2109 -0.7910 -0.0247
16166SOL    HW150266   1.991   8.858   0.122 -0.2315 -2.7997 -1.1251
16166SOL    HW250267   1.844   8.820   0.131 -0.9804  0.0775 -0.2490
16167SOL     OW50268   9.743   7.033   5.686  0.5650 -0.3660  0.0783
16167SOL    HW150269   9.783   6.958   5.642 -0.6781  0.3164 -2.3909
16167SOL    HW250270   9.650   7.012   5.692  0.5136  0.1071  1.3116
16168SOL     OW50271   8.809   5.952   0.753 -0.0432 -0.5008  0.1615
16168SOL    HW150272   8.738   6.006   0.789  0.6989  1.4042 -1.0789
16168SOL    HW250273   8.842   5.903   0.828 -0.9897  0.5213  1.2936
16169SOL     OW50274   3.744   9.077   7.670  0.2838 -0.4071 -0.4302
16169SOL    HW150275   3.725   9.161   7.711  0.3787 -0.5559 -0.0749
16169SOL    HW250276   3.806   9.098   7.600 -0.4601 -0.0477 -0.9974
16170SOL     OW50277   6.025   3.036   8.919  0.1587  0.0837  0.2367
16170SOL    HW150278   6.053   3.018   9.009 -0.8278 -0.9727  0.3714
16170SOL    HW250279   6.073   2.972   8.866 -0.2993 -0.2347  0.1987
16171SOL     OW50280   5.716   2.601   7.399 -0.3928  0.4422  0.0617
16171SOL    HW150281   5.661   2.523   7.410 -0.0030  0.2234  0.5130
16171SOL    HW250282   5.681   2.664   7.462 -0.2560  0.3705  0.2123
16172SOL     OW50283   0.140   4.624   1.074  0.1891  0.7046 -0.1670
16172SOL    HW150284   0.100   4.538   1.083  2.0756 -0.2078 -0.1168
16172SOL    HW250285   0.165   4.649   1.163  1.0174  0.5983 -0.3618
16173SOL     OW50286   3.426   3.718   9.712 -0.6170 -0.4795 -0.5177
16173SOL    HW150287   3.429   3.750   9.803 -0.5090 -3.4635  0.6504
16173SOL    HW250288   3.516   3.691   9.693 -0.6655  0.0180 -1.4936
16174SOL     OW50289   6.792   4.114   5.998 -0.0874  0.0635 -0.4001
16174SOL    HW150290   6.881   4.141   6.017  0.7244 -1.0897 -2.2641
16174SOL    HW250291   6.739   4.192   6.013  1.3637  1.0421 -0.1678
16175SOL     OW50292   3.344   6.473   6.399 -0.0394  0.2988  0.4835
16175SOL    HW150293   3.341   6.397   6.341  1.2807  0.3904  0.2588
16175SOL    HW250294   3.428   6.466   6.444 -1.3194 -0.1411  2.9737
16176SOL     OW50295   0.524   5.497   2.460 -0.2491  0.1125  0.4712
16176SOL    HW150296   0.563   5.433   2.401 -0.4705 -0.9453  1.4277
16176SOL    HW250297   0.444   5.455   2.491 -0.6597  1.0666  0.7460
16177SOL     OW50298   2.835   7.390   0.736  0.4259  0.1431  0.0874
16177SOL    HW150299   2.853   7.368   0.645  3.0107  4.1807 -0.6559
16177SOL    HW250300   2.741   7.407   0.740  0.5641  2.0082 -2.4949
16178SOL     OW50301   1.921   4.547   9.082  0.3739 -0.4650 -0.2696
16178SOL    HW150302   1.864   4.599   9.025 -0.1644  0.5887  1.1804
16178SOL    HW250303   1.958   4.480   9.024  0.6254  1.1474 -2.0708
16179SOL     OW50304   7.263   7.418   1.603  0.0516  0.2600  0.0076
16179SOL    HW150305   7.304   7.496   1.566  0.4806  0.1372  0.2098
16179SOL    HW250306   7.195   7.451   1.661  0.8332  0.5215  0.8016
16180SOL     OW50307   9.314   1.491   7.465  0.8383  0.3124 -0.1883
16180SOL    HW150308   9.384   1.474   7.403  2.3750  1.2372  1.2023
16180SOL    HW250309   9.352   1.551   7.529 -0.9192  0.0735  1.1810
16181SOL     OW50310   6.311   4.458   4.557 -0.0694 -0.0234 -0.1213
16181SOL    HW150311   6.341   4.536   4.510 -0.3362  1.3798  1.8826
16181SOL    HW250312   6.294   4.489   4.646 -0.3645 -2.3606  0.7111
16182SOL     OW50313   9.201   4.249   4.907 -0.5105 -0.1671 -0.2380
16182SOL    HW150314   9.242   4.168   4.937 -0.6919  0.5406  2.1087
16182SOL    HW250315   9.159   4.285   4.984 -0.5826  2.0899 -1.2464
16183SOL     OW50316   3.190   4.262   3.466  0.3710  0.4791 -0.1582
16183SOL    HW150317   3.225   4.333   3.411  2.3328  0.8224  1.4019
16183SOL    HW250318   3.100   4.289   3.484  1.0257  2.6063  0.3269
16184SOL     OW50319   5.377   3.039   5.749  0.5668 -0.6841 -0.2636
16184SOL    HW150320   5.401   2.974   5.683 -0.6367 -1.6986  0.2521
16184SOL    HW250321   5.449   3.036   5.813  0.3598 -1.7927 -0.0603
16185SOL     OW50322   1.975   0.672   1.364  0.0287 -0.0286 -0.4315
16185SOL    HW150323   2.066   0.649   1.384  0.2006 -0.3339 -1.4802
16185SOL    HW250324   1.970   0.669   1.268 -1.4951 -1.6458 -0.3762
16186SOL     OW50325   6.471   3.755   1.025  0.4752  0.6890  0.0193
16186SOL    HW150326   6.489   3.849   1.032  0.4820  0.5538  2.4039
16186SOL    HW250327   6.553   3.717   0.993  1.2980  1.2164  1.4512
16187SOL     OW50328   9.836   1.079   8.419 -0.4940 -0.8124  0.1321
16187SOL    HW150329   9.763   1.070   8.481 -0.6299  0.1643  0.1290
16187SOL    HW250330   9.903   1.127   8.468 -1.3842  1.8584 -1.0490
16188SOL     OW50331   2.711   3.061   9.047 -0.1573 -0.1989 -0.5281
16188SOL    HW150332   2.711   3.156   9.052  1.0304 -0.2416  0.9946
16188SOL    HW250333   2.648   3.032   9.113  0.2522 -0.4747 -0.2502
16189SOL     OW50334   3.049   9.345   3.879  0.4744 -0.1211  0.2395
16189SOL    HW150335   2.960   9.345   3.913  0.2663 -0.8467 -0.2676
16189SOL    HW250336   3.103   9.319   3.954  0.3114  0.6467  0.6377
16190SOL     OW50337   0.128   2.136   2.669  0.4120 -0.1455  0.3036
16190SOL    HW150338   0.089   2.134   2.582 -1.9764 -0.8445  1.2922
16190SOL    HW250339   0.222   2.133   2.654  0.1074  0.9769 -2.2526
16191SOL     OW50340   4.592   0.215   3.610 -0.1328 -0.0670  0.1656
16191SOL    HW150341   4.589   0.263   3.527 -1.4748  0.5271  0.5250
16191SOL    HW250342   4.511   0.239   3.654  0.1099 -1.1281  1.2405
16192SOL     OW50343   5.970   5.820   9.352 -0.3834 -0.8099 -0.4941
16192SOL    HW150344   5.914   5.746   9.328 -0.0283 -1.5123  0.7730
16192SOL    HW250345   6.050   5.780   9.386 -0.1808  0.1412  0.1991
16193SOL     OW50346   6.563   2.864   0.632 -0.3399 -0.2218  0.2958
16193SOL    HW150347   6.493   2.928   0.616  0.6935  1.0521  0.6682
16193SOL    HW250348   6.609   2.899   0.708  1.0374 -0.7348 -0.2781
16194SOL     OW50349   9.400   1.296   3.793 -0.0886 -0.5770 -0.4753
16194SOL    HW150350   9.316   1.274   3.833  0.1626 -1.2755 -0.3222
16194SOL    HW250351   9.403   1.392   3.795  0.2145 -0.5776  1.8030
16195SOL     OW50352   4.752   4.355   9.726  0.2995  0.0664 -0.0770
16195SOL    HW150353   4.740   4.333   9.634 -1.0638  0.1098  0.0800
16195SOL    HW250354   4.727   4.276   9.774  0.8827  0.0823  0.2695
16196SOL     OW50355   6.457   6.048   7.731  0.5259 -0.7196  0.3964
16196SOL    HW150356   6.440   6.090   7.647  1.0841 -0.8214  0.2309
16196SOL    HW250357   6.381   5.992   7.746 -0.1138  0.1687  0.5061
16197SOL     OW50358   4.333   8.299   3.400  0.2292  0.6134 -0.1297
16197SOL    HW150359   4.380   8.319   3.481  2.0056 -1.3553 -0.5822
16197SOL    HW250360   4.322   8.384   3.357  2.1067  1.3423  0.7022
16198SOL     OW50361   4.935   8.267   7.803  0.5213  0.1436  0.0300
16198SOL    HW150362   5.030   8.266   7.797  0.5934  1.4195  0.6403
16198SOL    HW250363   4.905   8.257   7.712  1.2642  0.8286 -0.3096
16199SOL     OW50364   1.677   2.252   8.527 -0.1433 -0.0490  0.3591
16199SOL    HW150365   1.713   2.254   8.615 -0.5145 -0.9109  0.5352
16199SOL    HW250366   1.614   2.325   8.525  1.4272  1.3496  0.1073
16200SOL     OW50367   9.432   3.420   7.476  0.9769 -0.1426  0.2457
16200SOL    HW150368   9.383   3.490   7.431  1.2107  0.3060  0.6742
16200SOL    HW250369   9.414   3.342   7.424  0.6276  0.2148 -0.1919
16201SOL     OW50370   7.680   3.754   6.832  0.7387 -0.3970  0.6055
16201SOL    HW150371   7.751   3.702   6.793 -0.0528 -0.5396 -0.7028
16201SOL    HW250372   7.678   3.727   6.923  1.1456 -1.7727  0.2319
16202SOL     OW50373   3.013   8.541   6.702 -0.4163  0.0172  0.5919
16202SOL    HW150374   3.035   8.565   6.793 -0.0097  0.4137  0.3935
16202SOL    HW250375   3.088   8.571   6.651 -0.5139 -0.4707  0.1575
16203SOL     OW50376   5.356   1.440   9.165 -0.0302 -0.5190 -0.5908
16203SOL    HW150377   5.407   1.500   9.110  1.6342 -1.8113 -0.5611
16203SOL    HW250378   5.343   1.363   9.110 -1.6350 -0.3796 -0.4363
16204SOL     OW50379   8.198   4.711   8.938  0.1775 -0.9493 -0.1664
16204SOL    HW150380   8.290   4.704   8.965 -0.3631  0.0495  2.2348
16204SOL    HW250381   8.168   4.793   8.977 -2.1940 -2.0850  0.5929
16205SOL     OW50382   2.081   6.684   5.875  0.6773 -0.0439 -0.1236
16205SOL    HW150383   2.154   6.623   5.874 -0.1880 -1.0971 -0.0875
16205SOL    HW250384   2.104   6.750   5.809  0.1180 -2.2228 -2.6490
16206SOL     OW50385   6.327   9.258   5.212 -0.2254  0.6147 -0.0751
16206SOL    HW150386   6.254   9.285   5.267 -0.0783 -0.1817  0.5395
16206SOL    HW250387   6.379   9.337   5.200 -0.1130  0.7501  1.1854
16207SOL     OW50388   7.758   3.584   1.330 -0.1079 -0.2655 -0.3071
16207SOL    HW150389   7.777   3.664   1.379 -0.0336 -1.1709  1.2201
16207SOL    HW250390   7.727   3.522   1.396 -0.5700 -1.3756 -1.5114
16208SOL     OW50391   2.409   4.812   5.541 -0.1750  0.1197 -0.6971
16208SOL    HW150392   2.343   4.818   5.610 -0.5646  1.3923 -1.1521
16208SOL    HW250393   2.489   4.846   5.581  0.0460 -0.7805 -0.3548
16209SOL     OW50394   5.584   8.257   6.725  0.6255  0.1913  0.0670
16209SOL    HW150395   5.537   8.223   6.801  1.3646 -0.8325  0.0844
16209SOL    HW250396   5.517   8.268   6.657  0.5379 -2.8412 -0.4664
16210SOL     OW50397   2.575   3.834   8.954  0.5202  0.4095  0.3866
16210SOL    HW150398   2.567   3.759   8.895 -3.3317  0.0683  1.0614
16210SOL    HW250399   2.573   3.910   8.896 -0.0612  0.0201 -0.1249
16211SOL     OW50400   7.870   6.122   2.726 -0.0021  0.4741  0.3322
16211SOL    HW150401   7.789   6.122   2.675  0.6073  0.7273 -0.6694
16211SOL    HW250402   7.865   6.043   2.779  0.3826 -1.1471 -1.8706
16212SOL     OW50403   0.929   4.029   6.719 -0.1541  1.0088  0.2394
16212SOL    HW150404   0.926   3.966   6.791  0.2390  2.0528  1.1904
16212SOL    HW250405   1.022   4.043   6.704 -0.1332 -0.9170 -2.0596
16213SOL     OW50406   0.893   1.110   6.219  0.2763  0.3256 -0.4735
16213SOL    HW150407   0.957   1.043   6.193  0.2808  0.3477 -0.5206
16213SOL    HW250408   0.828   1.063   6.271  1.7709  0.7634  1.9314
16214SOL     OW50409   4.740   0.524   7.136  0.3807 -0.0652  0.1237
16214SOL    HW150410   4.708   0.612   7.121  0.7934 -0.1082 -1.0549
16214SOL    HW250411   4.765   0.491   7.050 -0.6250 -1.6791  0.3934
16215SOL     OW50412   2.799   8.744   8.733 -0.5125 -0.0949 -0.3282
16215SOL    HW150413   2.714   8.787   8.737 -0.2323  0.4616 -0.1990
16215SOL    HW250414   2.779   8.653   8.711 -1.1553 -0.0405  0.0160
16216SOL     OW50415   2.040   0.993   2.772 -0.8436 -0.4033  0.1615
16216SOL    HW150416   1.994   1.015   2.691 -0.1584 -0.9111 -0.3805
16216SOL    HW250417   1.975   0.945   2.824 -1.9542  1.7272  0.8315
16217SOL     OW50418   1.243   3.983   8.724  0.2664 -0.2587  0.1094
16217SOL    HW150419   1.214   4.069   8.695 -1.6252 -1.3696 -1.5791
16217SOL    HW250420   1.167   3.945   8.767  1.6519 -0.4223  2.5774
16218SOL     OW50421   8.902   2.835   5.851  0.1560  0.2507 -0.5137
16218SOL    HW150422   8.976   2.809   5.906 -0.4846 -1.0117 -0.2213
16218SOL    HW250423   8.905   2.774   5.777 -0.4322  0.3632 -0.6347
16219SOL     OW50424   1.182   7.636   8.192 -0.1384  0.0501 -0.0690
16219SOL    HW150425   1.098   7.651   8.148 -0.4994 -1.6096 -0.0007
16219SOL    HW250426   1.231   7.717   8.178 -2.1580  1.5193  0.8549
16220SOL     OW50427   5.700   4.131   7.798  0.3750 -0.4687  0.0876
16220SOL    HW150428   5.701   4.227   7.792 -0.6285 -0.4743 -0.3925
16220SOL    HW250429   5.684   4.102   7.708 -0.6298 -1.0442  0.4429
16221SOL     OW50430   6.419   9.830   5.668 -0.1401 -0.0206 -0.2863
16221SOL    HW150431   6.380   9.753   5.627 -1.4088  0.9125 -0.8742
16221SOL    HW250432   6.376   9.904   5.626 -0.0023  0.9950  1.2949
16222SOL     OW50433   8.343   1.053   3.006  0.0100  0.5169  0.5541
16222SOL    HW150434   8.394   1.104   3.069  1.0780  0.8518 -0.5402
16222SOL    HW250435   8.408   1.022   2.943 -0.0625 -4.4574  2.4795
16223SOL     OW50436   3.584   1.767   7.497 -0.1024  0.1995  0.1923
16223SOL    HW150437   3.623   1.737   7.579 -1.2051 -0.7239  0.3933
16223SOL    HW250438   3.513   1.825   7.524 -0.2258  0.2011 -0.1327
16224SOL     OW50439   7.626   0.754   9.411  0.1833 -0.1771 -0.0779
16224SOL    HW150440   7.688   0.707   9.354 -0.4756  0.0398 -1.0010
16224SOL    HW250441   7.541   0.739   9.370 -0.4229 -0.7003  1.3319
16225SOL     OW50442   3.426   8.566   7.744 -0.1906  0.3278 -0.2984
16225SOL    HW150443   3.508   8.602   7.710 -0.8068  1.7560 -0.3647
16225SOL    HW250444   3.358   8.619   7.702 -1.0751  0.2437  0.9772
16226SOL     OW50445   0.741   1.740   4.389 -0.9376 -0.1147 -0.0976
16226SOL    HW150446   0.678   1.772   4.324  0.5337 -2.5016 -2.9520
16226SOL    HW250447   0.709   1.654   4.413 -0.5364  0.0490  1.0838
16227SOL     OW50448   4.374   0.332   0.159 -0.8311 -0.2688  0.4545
16227SOL    HW150449   4.288   0.299   0.133  0.2547 -1.9154 -1.3982
16227SOL    HW250450   4.434   0.262   0.134  1.1210  1.1141  1.0649
16228SOL     OW50451   3.939   5.077   0.498 -0.4167  0.0248  0.1779
16228SOL    HW150452   3.925   4.983   0.489  0.0598 -0.0041 -0.2860
16228SOL    HW250453   3.910   5.097   0.587  0.2010 -0.6919  0.5474
16229SOL     OW50454   7.404   6.571   5.927 -0.0139 -0.2003  0.8425
16229SOL    HW150455   7.421   6.489   5.881  0.9036  0.5809 -0.2631
16229SOL    HW250456   7.458   6.635   5.882 -1.1973  1.1490  1.2983
16230SOL     OW50457   7.154   1.106   4.662 -0.3883  0.1424  0.2358
16230SOL    HW150458   7.148   1.187   4.712 -0.9727  0.1643  0.1291
16230SOL    HW250459   7.071   1.062   4.677 -0.8595  0.4600 -1.2583
16231SOL     OW50460   0.683   1.459   5.301  0.2705  0.1254  0.4150
16231SOL    HW150461   0.742   1.399   5.348  0.4300  0.1183  0.2059
16231SOL    HW250462   0.742   1.521   5.257  0.1041  0.6196  0.8655
16232SOL     OW50463   7.918   6.442   3.801 -0.2414  0.0449 -0.9368
16232SOL    HW150464   7.955   6.521   3.762 -2.4487  1.0217 -1.2387
16232SOL    HW250465   7.951   6.440   3.891 -1.1867  2.1054 -0.4921
16233SOL     OW50466   1.957   7.173   7.478 -0.1723 -0.3358  0.0861
16233SOL    HW150467   1.980   7.190   7.569  0.8706 -0.8525 -0.0607
16233SOL    HW250468   1.881   7.228   7.461  0.8220  1.2706  0.6865
16234SOL     OW50469   5.504   8.486   8.042 -0.0281  0.0136  0.5253
16234SOL    HW150470   5.518   8.551   7.973  0.3001  1.9263  2.2876
16234SOL    HW250471   5.582   8.432   8.040 -0.2438 -0.2999 -0.8962
16235SOL     OW50472   7.778   7.207   1.813  0.7492  0.8465 -0.0417
16235SOL    HW150473   7.727   7.282   1.843  0.5487  0.2117  1.2605
16235SOL    HW250474   7.717   7.157   1.758 -0.1318  0.0541  1.5555
16236SOL     OW50475   7.469   8.391   0.139  0.2355  0.2126  0.0111
16236SOL    HW150476   7.469   8.485   0.122 -1.1152  0.1151 -0.6818
16236SOL    HW250477   7.520   8.353   0.068 -1.2266  0.2402 -1.0980
16237SOL     OW50478   4.055   7.978   5.759  0.3101 -0.6782 -0.5314
16237SOL    HW150479   4.008   7.898   5.736 -2.4912  0.6970  0.0002
16237SOL    HW250480   4.028   7.997   5.849  2.2903 -0.0308 -0.0235
16238SOL     OW50481   8.206   0.156   1.959 -0.7526  0.3420  0.2878
16238SOL    HW150482   8.211   0.062   1.944  0.5283  0.2410  1.1924
16238SOL    HW250483   8.186   0.164   2.052  0.3678  0.9643  0.4832
16239SOL     OW50484   0.969   3.060   1.898  0.2831 -0.1353 -0.2779
16239SOL    HW150485   1.065   3.059   1.902  0.4500 -0.0234 -2.7946
16239SOL    HW250486   0.944   3.145   1.934  1.1071 -0.2147  0.5148
16240SOL     OW50487   9.464   3.687   8.165 -0.0523  0.1815  0.1128
16240SOL    HW150488   9.522   3.637   8.222  0.1201 -0.0837 -0.2865
16240SOL    HW250489   9.377   3.677   8.203  0.2056  0.8734  0.9188
16241SOL     OW50490   5.226   8.827   8.036 -0.2612 -0.5897 -0.1418
16241SOL    HW150491   5.296   8.774   7.997  0.8043  1.0955 -0.5922
16241SOL    HW250492   5.251   8.835   8.128 -1.0667 -1.8269  0.2175
16242SOL     OW50493   8.310   1.150   1.803 -0.4581  0.2808  0.7429
16242SOL    HW150494   8.357   1.136   1.885 -1.4357  0.6908  1.3936
16242SOL    HW250495   8.269   1.066   1.784 -0.0114  0.1104  0.5309
16243SOL     OW50496   7.877   2.695   6.176 -0.3530 -0.3145  0.6106
16243SOL    HW150497   7.796   2.692   6.227 -1.6171 -0.8071 -1.3158
16243SOL    HW250498   7.881   2.784   6.142  0.7951  0.1890  1.9722
16244SOL     OW50499   2.899   2.091   4.036  0.5312 -0.2314  0.3021
16244SOL    HW150500   2.850   2.023   4.082 -0.9648 -0.7909 -1.9144
16244SOL    HW250501   2.927   2.152   4.104 -0.2292 -1.7724  2.0699
16245SOL     OW50502   5.054   0.216   9.162  0.2663  0.4056  0.1857
16245SOL    HW150503   5.143   0.179   9.164  0.4544  0.8237 -0.2826
16245SOL    HW250504   5.025   0.203   9.072 -0.5986 -0.7529  0.6036
16246SOL     OW50505   4.863   0.021   5.870 -0.6789  0.1261  1.2559
16246SOL    HW150506   4.824  -0.064   5.850 -2.2621  1.5455 -2.7485
16246SOL    HW250507   4.953   0.000   5.894 -0.6213 -2.6635 -0.8524
16247SOL     OW50508   3.653   7.356   0.263 -0.4062  0.1208 -0.6780
16247SOL    HW150509   3.630   7.265   0.282  0.8582 -0.2781 -0.9452
16247SOL    HW250510   3.588   7.408   0.311  0.1153 -0.8977  1.2439
16248SOL     OW50511   1.436   0.178   4.192 -0.0974  0.2747 -0.2030
16248SOL    HW150512   1.471   0.226   4.117 -1.2275  0.7253 -0.4601
16248SOL    HW250513   1.453   0.235   4.267  2.2523 -0.7567  0.1460
16249SOL     OW50514   1.082   2.157   9.035 -0.6031  0.6936 -0.1268
16249SOL    HW150515   1.095   2.244   8.997 -1.4274 -0.0119 -2.2145
16249SOL    HW250516   1.167   2.132   9.070  0.2213  1.4639 -1.5012
16250SOL     OW50517   4.174   8.947   1.166  0.2811 -0.3639 -0.1794
16250SOL    HW150518   4.131   8.908   1.090  1.5011 -1.3562 -0.3886
16250SOL    HW250519   4.257   8.901   1.173 -0.2432 -1.0739  2.4189
16251SOL     OW50520   0.526   2.857   0.270  0.0083  0.1660 -0.7646
16251SOL    HW150521   0.522   2.881   0.363  1.6727  2.3754 -1.1679
16251SOL    HW250522   0.557   2.767   0.269 -0.3297  0.0137  0.8367
16252SOL     OW50523   3.107   7.185   1.256  0.5871  0.1297  0.6679
16252SOL    HW150524   3.121   7.238   1.334  2.7879  0.5665  0.0570
16252SOL    HW250525   3.094   7.248   1.185 -0.3592 -0.2340  0.5138
16253SOL     OW50526   4.660   6.451   5.915  0.1873  0.0585 -0.5722
16253SOL    HW150527   4.639   6.475   6.005  0.0482  2.1971 -1.1226
16253SOL    HW250528   4.632   6.360   5.908 -1.4940  0.3836  1.0358
16254SOL     OW50529   0.011   6.970   6.229  0.4987 -0.1308 -0.0921
16254SOL    HW150530   0.006   7.064   6.215  1.2195 -0.4924 -3.4429
16254SOL    HW250531   0.002   6.931   6.142  1.4803 -3.1197  0.9949
16255SOL     OW50532   8.025   6.566   2.223 -0.3370 -0.5582 -0.6683
16255SOL    HW150533   8.008   6.631   2.155  0.4166 -0.4639 -0.7815
16255SOL    HW250534   7.949   6.509   2.222 -0.4589 -0.3917 -1.3969
16256SOL     OW50535   6.971   1.548   5.982 -0.0864 -0.2987 -0.5171
16256SOL    HW150536   7.041   1.498   6.023  2.5663  2.5912 -1.1209
16256SOL    HW250537   6.968   1.630   6.031 -2.9167 -0.1741 -0.7195
16257SOL     OW50538   8.734   9.811   6.770  0.5346  0.0009  0.4242
16257SOL    HW150539   8.713   9.787   6.679 -1.5233 -1.9836  1.3134
16257SOL    HW250540   8.699   9.900   6.780  0.4357  0.0943 -0.6228
16258SOL     OW50541   7.895   9.456   5.405 -0.1480 -0.0485  0.3685
16258SOL    HW150542   7.805   9.458   5.438 -0.2221  0.0710  0.1656
16258SOL    HW250543   7.949   9.480   5.480 -0.1211 -1.9368  1.0071
16259SOL     OW50544   4.477   3.913   7.734  0.1315 -0.5366 -0.3321
16259SOL    HW150545   4.515   3.925   7.647 -0.2332  0.2009 -0.3960
16259SOL    HW250546   4.525   3.838   7.771  0.0761 -1.0593 -1.2824
16260SOL     OW50547   1.135   2.876   5.713 -0.2465 -0.1434 -0.7664
16260SOL    HW150548   1.209   2.824   5.744  0.4895 -0.3586 -2.7318
16260SOL    HW250549   1.061   2.815   5.713  0.1723 -0.6640 -1.1941
16261SOL     OW50550   2.372   1.919   5.253 -0.2635 -0.1612 -0.4302
16261SOL    HW150551   2.401   1.846   5.307 -0.4614 -1.6897 -2.2612
16261SOL    HW250552   2.451   1.971   5.239 -0.0731 -0.1181  0.7194
16262SOL     OW50553   6.984   7.719   0.584  0.6112  0.4035  0.0770
16262SOL    HW150554   7.037   7.643   0.609  0.6203  0.8782  1.6322
16262SOL    HW250555   7.032   7.794   0.621 -2.2045  0.6990  3.6974
16263SOL     OW50556   8.800   6.609   2.928  0.0201 -0.5150 -0.4173
16263SOL    HW150557   8.884   6.639   2.961 -0.8826  0.6256  0.9702
16263SOL    HW250558   8.812   6.516   2.912  1.3460 -0.5052  0.3907
16264SOL     OW50559   7.955   5.119   6.458  0.0057  0.0554  0.0555
16264SOL    HW150560   7.869   5.078   6.465 -0.3146  0.6860 -0.0406
16264SOL    HW250561   7.981   5.138   6.548  0.4272 -0.8940  0.1395
16265SOL     OW50562   5.733   1.027   8.670  0.2865 -0.3537  0.0001
16265SOL    HW150563   5.796   0.965   8.633 -0.3510 -1.7358  1.1689
16265SOL    HW250564   5.731   1.099   8.606  1.7876 -1.0451 -0.8890
16266SOL     OW50565   2.991   5.537   8.862  0.5165  0.6709 -0.2684
16266SOL    HW150566   3.081   5.553   8.889  0.3560 -0.0118  0.7197
16266SOL    HW250567   2.991   5.448   8.828  0.0345  0.3255  0.6137
16267SOL     OW50568   4.783   5.297   5.950 -0.4344 -0.3469  0.3392
16267SOL    HW150569   4.849   5.263   5.890 -1.3618 -0.6343 -0.5561
16267SOL    HW250570   4.770   5.388   5.924  1.1477  0.3864  1.9304
16268SOL     OW50571   8.266   9.406   8.117  0.1538 -0.4572 -0.6063
16268SOL    HW150572   8.298   9.488   8.153 -2.7918 -0.4705  2.5852
16268SOL    HW250573   8.344   9.351   8.109  1.6810  1.2867  1.1640
16269SOL     OW50574   1.069   2.429   1.990 -0.2258  0.3675 -0.2706
16269SOL    HW150575   1.108   2.510   2.021 -1.0534  0.9881 -0.8096
16269SOL    HW250576   1.114   2.410   1.907  0.4769 -0.1361  0.2081
16270SOL     OW50577   6.070   7.103   8.221  0.1993  0.0152  0.4340
16270SOL    HW150578   6.059   7.009   8.232  0.8268  0.0246  1.1951
16270SOL    HW250579   6.115   7.113   8.137 -0.6289 -0.3093 -0.0565
16271SOL     OW50580   8.732   7.882   2.781 -0.7149  0.0156  0.6447
16271SOL    HW150581   8.741   7.965   2.736 -2.2886  0.5702  1.2692
16271SOL    HW250582   8.774   7.895   2.866 -0.5529  0.0217  0.5631
16272SOL     OW50583   7.368   2.180   0.391 -0.0208  0.2945 -0.4584
16272SOL    HW150584   7.451   2.195   0.346  0.5054  1.3229  0.7711
16272SOL    HW250585   7.313   2.136   0.327  1.7101 -1.0843 -1.0943
16273SOL     OW50586   5.003   3.828   8.361  0.5694 -0.2023 -0.0711
16273SOL    HW150587   5.055   3.775   8.301 -1.6461 -2.1602 -0.4157
16273SOL    HW250588   4.915   3.791   8.356  0.0603  0.0960  3.7275
16274SOL     OW50589   2.672   4.339   0.808 -0.1527  0.5464  0.5827
16274SOL    HW150590   2.703   4.349   0.717 -1.6355  0.7894  0.0767
16274SOL    HW250591   2.601   4.275   0.801 -1.6802  2.1210  1.2376
16275SOL     OW50592   4.470   5.828   0.485 -0.2185 -0.2420 -0.2969
16275SOL    HW150593   4.378   5.843   0.507 -0.0109  0.3604  0.2125
16275SOL    HW250594   4.472   5.824   0.389 -0.7093  0.2185 -0.3324
16276SOL     OW50595   2.523   5.853   6.425 -0.1652  0.7477 -0.3172
16276SOL    HW150596   2.459   5.815   6.485  2.1542  0.1686  1.9704
16276SOL    HW250597   2.530   5.945   6.452 -0.9601  1.1799 -1.4833
16277SOL     OW50598   4.674   1.963   0.901 -0.5665  0.1509 -0.5523
16277SOL    HW150599   4.742   1.967   0.834  0.8137 -2.2030  0.5907
16277SOL    HW250600   4.710   2.012   0.975 -0.1454 -0.9218 -0.0208
16278SOL     OW50601   5.103   0.623   2.002  0.4855  0.3175 -0.1580
16278SOL    HW150602   5.133   0.549   1.949 -0.7808 -1.2822  1.2583
16278SOL    HW250603   5.011   0.604   2.020  1.0697  0.2369  3.4068
16279SOL     OW50604   2.932   4.685   3.117  0.5011  0.1370 -0.1286
16279SOL    HW150605   2.945   4.773   3.151  1.3420 -0.0450  0.0478
16279SOL    HW250606   2.886   4.697   3.034 -0.0748  0.6895  0.2692
16280SOL     OW50607   7.090   4.678   1.135 -0.1727 -0.2783 -0.1328
16280SOL    HW150608   7.097   4.598   1.186  1.6520 -1.1097 -1.5797
16280SOL    HW250609   7.052   4.650   1.052 -2.1506  0.8816  0.3124
16281SOL     OW50610   5.215   2.638   8.181 -0.0187 -0.2942  0.5711
16281SOL    HW150611   5.221   2.729   8.211 -0.3130  0.0044 -0.2355
16281SOL    HW250612   5.297   2.598   8.208  0.3119  0.3411  0.5209
16282SOL     OW50613   8.303   4.152   5.070  0.1709  0.2665  0.3085
16282SOL    HW150614   8.258   4.232   5.042 -0.1465 -0.3171 -0.8802
16282SOL    HW250615   8.289   4.090   4.999 -0.0189 -1.0213  1.4315
16283SOL     OW50616   5.731   6.176   1.697 -0.9583 -0.0583 -0.3283
16283SOL    HW150617   5.754   6.099   1.748  0.4060 -0.4605 -1.4927
16283SOL    HW250618   5.776   6.164   1.614 -0.1948  2.2934 -0.3172
16284SOL     OW50619   1.234   5.534   9.553 -0.7079  0.1557 -0.3501
16284SOL    HW150620   1.213   5.500   9.640  1.0611 -2.5347 -0.8612
16284SOL    HW250621   1.171   5.492   9.495  1.1362 -2.0535 -0.9106
16285SOL     OW50622   8.319   5.547   8.618  0.2012 -0.2040 -0.1282
16285SOL    HW150623   8.399   5.593   8.593  0.2295  1.2995  2.4064
16285SOL    HW250624   8.270   5.537   8.536  1.5094  1.7900 -1.2234
16286SOL     OW50625   7.557   4.865   0.582  0.0136 -0.4737 -0.1339
16286SOL    HW150626   7.496   4.796   0.557  0.8531 -0.9364 -0.9714
16286SOL    HW250627   7.502   4.942   0.594 -0.8892 -1.1880  0.4170
16287SOL     OW50628   2.061   7.309   9.178 -0.2781 -0.0426 -0.0919
16287SOL    HW150629   2.152   7.283   9.164 -0.2302  0.0613  0.0214
16287SOL    HW250630   2.010   7.234   9.149 -0.2723  0.7702 -2.4674
16288SOL     OW50631   2.259   5.768   2.302 -0.5993  0.4451  0.3537
16288SOL    HW150632   2.344   5.727   2.320 -0.4330  1.0890  1.1126
16288SOL    HW250633   2.205   5.697   2.267  0.9850  0.5473 -2.6029
16289SOL     OW50634   5.929   7.064   5.258  0.8943 -0.1139 -0.0061
16289SOL    HW150635   5.976   7.100   5.182 -0.8613  0.6818 -0.7544
16289SOL    HW250636   5.875   7.137   5.290  0.4595 -0.8889  1.0813
16290SOL     OW50637   1.331   1.751   4.121 -0.5467  0.1717 -0.2640
16290SOL    HW150638   1.261   1.702   4.164  0.4304 -1.7784 -0.7664
16290SOL    HW250639   1.410   1.699   4.138  0.5865  1.6982 -0.6822
16291SOL     OW50640   6.579   9.756   2.260 -0.2379 -0.6485  0.7598
16291SOL    HW150641   6.585   9.815   2.184  2.5730 -0.0336  1.3307
16291SOL    HW250642   6.509   9.695   2.238  0.8558 -0.8641 -2.6173
16292SOL     OW50643   1.480   9.423   8.968 -0.5189 -0.7410 -0.2120
16292SOL    HW150644   1.517   9.512   8.972  0.2516 -1.0911  0.9258
16292SOL    HW250645   1.397   9.434   8.923 -1.0718  0.7771  1.0841
16293SOL     OW50646   7.313   5.941   5.247 -0.7016  0.0745 -0.6033
16293SOL    HW150647   7.229   5.980   5.271  0.1447  1.2360  0.6227
16293SOL    HW250648   7.344   5.898   5.327 -0.0320 -0.1575 -0.9728
16294SOL     OW50649   0.144   2.125   8.796 -0.1587  0.1338 -0.3560
16294SOL    HW150650   0.161   2.133   8.702 -0.6620 -3.1884 -0.8362
16294SOL    HW250651   0.230   2.113   8.835 -0.0027  0.9227 -0.4371
16295SOL     OW50652   6.561   9.218   7.937  0.1700 -0.3647 -0.2489
16295SOL    HW150653   6.515   9.184   7.860 -2.4379  1.8420  0.1554
16295SOL    HW250654   6.536   9.159   8.008  2.0295 -2.0061 -0.8758
16296SOL     OW50655   2.231   0.377   4.862 -0.7102 -0.2595  0.5430
16296SOL    HW150656   2.307   0.324   4.885  0.3769  0.8375 -0.3608
16296SOL    HW250657   2.206   0.348   4.775  0.8885  1.6897 -0.6531
16297SOL     OW50658   1.050   7.795   6.389 -0.1580 -0.4186 -0.2588
16297SOL    HW150659   1.110   7.729   6.423 -2.2573 -1.4176  1.7408
16297SOL    HW250660   1.009   7.753   6.314  0.4295 -0.3347 -0.6389
16298SOL     OW50661   2.019   6.913   6.851 -0.3436  0.0462  0.0881
16298SOL    HW150662   1.957   6.970   6.806 -0.1990 -0.3853 -0.6722
16298SOL    HW250663   2.105   6.939   6.817 -0.2343 -0.2960  0.0974
16299SOL     OW50664   4.719   7.719   8.879  0.4135 -0.5674 -0.5562
16299SOL    HW150665   4.640   7.759   8.842  0.0479 -1.2727 -0.5710
16299SOL    HW250666   4.715   7.739   8.973  0.1900 -0.6259 -0.5516
16300SOL     OW50667   0.588   8.031   6.946 -0.4111 -0.4208 -0.4771
16300SOL    HW150668   0.499   8.021   6.981 -1.2190  2.1310 -1.4821
16300SOL    HW250669   0.636   8.077   7.015  0.1364 -1.7081  0.0241
16301SOL     OW50670   6.107   5.021   8.747  0.0737 -0.8680 -0.0863
16301SOL    HW150671   6.136   4.978   8.667 -0.1260 -2.9565  0.8882
16301SOL    HW250672   6.022   5.060   8.724  0.7778  0.0141 -1.3019
16302SOL     OW50673   7.801   8.299   7.868 -0.5125 -0.0685  0.3616
16302SOL    HW150674   7.829   8.282   7.958  0.8165  0.5477  0.0824
16302SOL    HW250675   7.721   8.246   7.858 -0.4890 -0.4243  1.7748
16303SOL     OW50676   6.670   4.661   4.691  0.4685  0.0794  0.0410
16303SOL    HW150677   6.742   4.723   4.680 -0.5898  1.4255  0.4755
16303SOL    HW250678   6.591   4.712   4.672 -0.3885 -1.3425 -0.3501
16304SOL     OW50679   4.408   8.450   1.260 -0.2830 -0.3222 -0.6826
16304SOL    HW150680   4.434   8.453   1.352  0.3252  1.0253 -0.8762
16304SOL    HW250681   4.333   8.509   1.254 -0.7989 -0.9875 -0.9234
16305SOL     OW50682   4.608   8.769   8.428 -0.2119 -0.0328  0.0640
16305SOL    HW150683   4.606   8.858   8.463  0.8737 -0.0415  0.1801
16305SOL    HW250684   4.654   8.718   8.495 -0.8804 -0.7025  0.0321
16306SOL     OW50685   7.929   3.732   9.462  0.5701 -0.1400 -0.9439
16306SOL    HW150686   7.905   3.639   9.461  2.8520 -0.8218 -0.0194
16306SOL    HW250687   7.963   3.747   9.551  2.7940  0.8081 -1.8708
16307SOL     OW50688   3.594   1.388   5.725  0.2087 -0.1483  0.1731
16307SOL    HW150689   3.536   1.463   5.738  1.1336  0.5073  0.6762
16307SOL    HW250690   3.579   1.362   5.634  0.1065  0.8618 -0.1151
16308SOL     OW50691   9.828   7.214   9.586  0.5559 -0.1103  0.6618
16308SOL    HW150692   9.816   7.280   9.654  1.3422  1.1830 -0.3847
16308SOL    HW250693   9.899   7.158   9.618  2.0754  1.4791  0.2670
16309SOL     OW50694   8.005   1.312   3.799  0.1316 -0.5101  0.2211
16309SOL    HW150695   8.055   1.346   3.873  0.7328 -1.4287  0.2590
16309SOL    HW250696   7.969   1.389   3.756  0.4284  0.0804  1.0161
16310SOL     OW50697   0.165   8.219   6.580 -0.1990  0.1277 -0.3383
16310SOL    HW150698   0.196   8.309   6.582  0.6632 -0.1219 -1.6769
16310SOL    HW250699   0.072   8.226   6.555 -0.5452  0.7063  1.0260
16311SOL     OW50700   1.821   4.733   7.548 -0.3854 -0.4497  0.2834
16311SOL    HW150701   1.897   4.687   7.586  0.8371 -0.0067 -1.4886
16311SOL    HW250702   1.851   4.824   7.539 -0.3386 -0.6334 -2.2164
16312SOL     OW50703   1.733   2.599   2.299 -0.4008  0.0665 -0.5311
16312SOL    HW150704   1.703   2.591   2.390 -0.6946  0.1836 -0.6151
16312SOL    HW250705   1.804   2.535   2.292 -0.2061  0.2357 -0.1496
16313SOL     OW50706   9.458   7.198   1.781  0.2138 -0.5063  0.4804
16313SOL    HW150707   9.466   7.236   1.869  1.3446 -0.0275  0.1879
16313SOL    HW250708   9.514   7.253   1.726  0.3088 -1.4058 -0.3412
16314SOL     OW50709   2.338   5.082   2.925  0.1555 -0.2901 -0.0631
16314SOL    HW150710   2.425   5.103   2.890 -0.5884 -0.1876 -1.9888
16314SOL    HW250711   2.278   5.100   2.852 -1.7617  1.6710  1.8353
16315SOL     OW50712   5.571   4.070   3.473  0.1227  0.1662 -0.4053
16315SOL    HW150713   5.563   4.150   3.421 -0.9058 -0.4029 -1.1843
16315SOL    HW250714   5.658   4.037   3.453  0.4344  0.9189 -0.3213
16316SOL     OW50715   7.442   7.428   2.312 -0.4124  0.2643 -1.0314
16316SOL    HW150716   7.406   7.343   2.338  0.7867  0.0192 -0.0821
16316SOL    HW250717   7.526   7.434   2.358 -0.2853  1.7938 -1.3943
16317SOL     OW50718   0.881   8.974   1.573  0.9541 -0.0194  0.0986
16317SOL    HW150719   0.848   8.955   1.485 -0.5582 -1.0797  0.8472
16317SOL    HW250720   0.817   9.036   1.609 -1.1032 -2.9695  1.9799
16318SOL     OW50721   6.494   5.424   2.528 -0.2589 -0.0027  0.4062
16318SOL    HW150722   6.539   5.421   2.444 -1.4228 -0.4799 -0.2349
16318SOL    HW250723   6.468   5.333   2.545 -3.3144  0.5588 -0.6247
16319SOL     OW50724   3.093   6.131   8.093 -0.0816  0.2392  0.3977
16319SOL    HW150725   3.116   6.046   8.131 -0.0012  0.2208  0.3103
16319SOL    HW250726   3.036   6.172   8.158 -2.1731 -0.9044 -0.6333
16320SOL     OW50727   9.461   1.780   6.088 -0.2733  0.3281 -0.0777
16320SOL    HW150728   9.462   1.772   5.993  1.4200  0.1905 -0.0928
16320SOL    HW250729   9.518   1.709   6.118  2.0216  2.3928  0.7931
16321SOL     OW50730   3.228   7.509   9.609  0.2202 -0.3527  0.8973
16321SOL    HW150731   3.230   7.575   9.540  1.8478  0.6655  1.8747
16321SOL    HW250732   3.219   7.426   9.562 -1.5573  0.4898 -0.3628
16322SOL     OW50733   3.080   5.244   5.802  0.1501 -0.0415 -0.2107
16322SOL    HW150734   3.080   5.157   5.843 -1.3699  0.5595  1.1673
16322SOL    HW250735   3.158   5.286   5.836 -0.1604 -0.1836  0.7041
16323SOL     OW50736   6.905   0.778   8.709  0.1132  0.0661 -0.0513
16323SOL    HW150737   6.963   0.814   8.641  1.0480  0.1416  0.7613
16323SOL    HW250738   6.869   0.699   8.669  2.2545 -1.0515  0.0405
16324SOL     OW50739   1.662   1.792   9.622  0.5884 -0.2891  0.2939
16324SOL    HW150740   1.623   1.717   9.665 -0.3120  0.6507  1.1547
16324SOL    HW250741   1.589   1.835   9.577  0.8848  0.6571  0.6913
16325SOL     OW50742   8.049   4.722   8.127 -0.3431  0.2129  0.5284
16325SOL    HW150743   8.061   4.686   8.214  1.2072 -0.9791 -0.1308
16325SOL    HW250744   8.111   4.795   8.122 -0.6463  0.4758  0.5057
16326SOL     OW50745   4.807   5.644   5.396  0.1902  0.3410  0.1802
16326SOL    HW150746   4.763   5.575   5.447 -0.1454  2.3620  2.8904
16326SOL    HW250747   4.900   5.627   5.408  0.1387  1.1867  2.2664
16327SOL     OW50748   8.428   2.940   3.662  0.8359 -0.3771 -0.6253
16327SOL    HW150749   8.466   2.888   3.733  1.2978  1.1974  0.3125
16327SOL    HW250750   8.361   2.882   3.624  0.1770 -1.0580  1.4537
16328SOL     OW50751   1.885   3.984   5.381 -0.4689  0.2174  0.0192
16328SOL    HW150752   1.936   3.935   5.316 -1.1699 -0.6040  0.0804
16328SOL    HW250753   1.809   4.016   5.333  0.9110  3.0059 -0.5491
16329SOL     OW50754   9.525   4.258   8.322  0.1713  0.0344  0.0949
16329SOL    HW150755   9.480   4.179   8.351 -1.0822  0.7309  0.1257
16329SOL    HW250756   9.463   4.299   8.261 -0.0431  1.9727  1.5383
16330SOL     OW50757   0.117   9.430   9.201  0.0696  0.2680 -0.0520
16330SOL    HW150758   0.157   9.495   9.259 -0.0966  0.9896 -0.7261
16330SOL    HW250759   0.174   9.354   9.208  0.4013  0.5598  0.5712
16331SOL     OW50760   6.544   9.322   7.489  0.0151 -0.9567  0.2776
16331SOL    HW150761   6.499   9.405   7.470 -0.3583 -0.6391  2.3457
16331SOL    HW250762   6.613   9.346   7.552  0.6683 -2.0446  0.0091
16332SOL     OW50763   6.182   4.183   4.280  0.2177 -0.3124  0.4108
16332SOL    HW150764   6.270   4.215   4.259 -0.0179 -0.5211 -0.9674
16332SOL    HW250765   6.129   4.262   4.288  0.2184 -0.2325 -0.2838
16333SOL     OW50766   3.823   3.493   7.691  0.2106  0.5040  0.3318
16333SOL    HW150767   3.739   3.478   7.734  0.7520 -0.5916  1.0485
16333SOL    HW250768   3.883   3.516   7.762  0.5674  1.1148 -0.1551
16334SOL     OW50769   7.070   5.545   5.077  0.7324  0.0236  0.1191
16334SOL    HW150770   7.148   5.573   5.125  0.1277 -0.1076  1.2278
16334SOL    HW250771   7.012   5.509   5.145 -0.8965  1.4315 -0.4382
16335SOL     OW50772   6.604   3.086   7.257  0.1116  0.4429 -0.1858
16335SOL    HW150773   6.684   3.038   7.235 -0.3991 -1.0004  0.9209
16335SOL    HW250774   6.538   3.051   7.198 -0.2812 -0.3360  0.6777
16336SOL     OW50775   8.216   3.766   6.056 -0.0419  0.4582 -0.2169
16336SOL    HW150776   8.253   3.854   6.047  2.6277 -0.4732  0.5856
16336SOL    HW250777   8.207   3.753   6.150  0.7624 -0.5273 -0.2541
16337SOL     OW50778   6.796   8.478   6.502  0.1132  0.8840 -0.0708
16337SOL    HW150779   6.764   8.433   6.580 -2.3684  0.3624 -1.2891
16337SOL    HW250780   6.823   8.407   6.443  1.8168  1.2660  0.1915
16338SOL     OW50781   0.017   8.318   8.238 -0.3992 -0.4026 -0.5706
16338SOL    HW150782   0.053   8.399   8.275 -1.9208  1.1476 -2.2974
16338SOL    HW250783   0.011   8.258   8.313  1.5894  0.7380  0.5828
16339SOL     OW50784   1.095   7.526   2.539  0.1146  0.0658  0.3680
16339SOL    HW150785   1.122   7.551   2.627 -0.2810 -0.8199  0.7566
16339SOL    HW250786   1.169   7.475   2.506 -0.2634 -0.7064  0.6914
16340SOL     OW50787   3.180   7.219   8.037  0.0072 -0.3422 -0.0176
16340SOL    HW150788   3.264   7.264   8.048  0.8910 -1.6809 -0.9745
16340SOL    HW250789   3.152   7.241   7.948 -1.7271  1.7418  0.9492
16341SOL     OW50790   2.149   4.577   6.126 -0.1660 -0.1018 -0.5085
16341SOL    HW150791   2.098   4.498   6.105 -0.0333 -0.0969 -0.8590
16341SOL    HW250792   2.228   4.570   6.072  1.4312 -1.3424  1.8525
16342SOL     OW50793   3.599   6.666   0.895  0.2059 -0.0121  0.2035
16342SOL    HW150794   3.566   6.585   0.856  0.2579 -1.2169  2.5172
16342SOL    HW250795   3.531   6.731   0.877 -0.6521 -0.9932 -0.1714
16343SOL     OW50796   3.289   1.397   7.797 -0.0334  0.0810  0.2908
16343SOL    HW150797   3.278   1.491   7.780  0.9678 -0.0227 -1.1435
16343SOL    HW250798   3.223   1.355   7.740  0.6421 -0.1315 -0.3474
16344SOL     OW50799   0.284   3.749   9.714  0.6443  0.5310  0.8726
16344SOL    HW150800   0.342   3.678   9.740  0.7161  0.2075 -0.1029
16344SOL    HW250801   0.209   3.743   9.774  1.5927  0.9426  2.1309
16345SOL     OW50802   3.345   4.815   1.623 -0.2130  0.0727 -0.1487
16345SOL    HW150803   3.292   4.877   1.673 -1.0818 -0.2092 -0.6934
16345SOL    HW250804   3.351   4.738   1.680 -0.2189  0.1812  0.0009
16346SOL     OW50805   4.615   6.543   3.533  0.3767 -0.1355 -0.0360
16346SOL    HW150806   4.637   6.465   3.585  3.8103  1.1899  0.7647
16346SOL    HW250807   4.699   6.571   3.496 -1.2051  1.6975 -2.4889
16347SOL     OW50808   7.743   3.086   8.104  0.3763 -0.2672 -0.5779
16347SOL    HW150809   7.789   3.071   8.186  0.9276 -0.9831 -0.9976
16347SOL    HW250810   7.672   3.146   8.126  1.2143  0.4750  0.1844
16348SOL     OW50811   7.596   6.029   6.472 -0.3883  0.7306 -0.0355
16348SOL    HW150812   7.609   6.110   6.521 -0.4607  1.0761 -0.5878
16348SOL    HW250813   7.509   6.038   6.432 -0.2196  0.5626 -0.4454
16349SOL     OW50814   3.240   0.158   6.684  0.5134 -0.0535  0.0989
16349SOL    HW150815   3.210   0.068   6.674  0.6931 -0.0886 -0.1420
16349SOL    HW250816   3.163   0.211   6.664 -0.4264 -0.1600  3.0283
16350SOL     OW50817   1.463   6.842   5.345  0.8286 -0.1804 -0.0854
16350SOL    HW150818   1.391   6.786   5.315 -1.4981  0.5179  3.5497
16350SOL    HW250819   1.456   6.921   5.291 -1.2749 -0.0970  0.2138
16351SOL     OW50820   3.196   1.276   8.315 -0.3368  0.2604  0.1683
16351SOL    HW150821   3.220   1.364   8.287 -0.3971  0.8323  1.8191
16351SOL    HW250822   3.167   1.286   8.406 -0.0365 -1.5091  0.5060
16352SOL     OW50823   3.179   5.017   5.591 -0.4817  0.0602 -0.3091
16352SOL    HW150824   3.270   5.008   5.563 -0.9139 -0.5056 -1.6545
16352SOL    HW250825   3.147   4.927   5.599 -0.9472  0.2504  0.0465
16353SOL     OW50826   6.290   2.810   1.766  0.6031  0.8205  0.1157
16353SOL    HW150827   6.326   2.877   1.823  0.1104  1.2173 -0.0321
16353SOL    HW250828   6.207   2.846   1.735  0.3751  0.1870 -0.0440
16354SOL     OW50829   2.872   1.538   1.235  0.0993 -0.2912  0.8995
16354SOL    HW150830   2.805   1.477   1.267  0.7755 -1.7808 -0.3877
16354SOL    HW250831   2.939   1.481   1.196  2.1695  1.1237  2.1822
16355SOL     OW50832   0.700   7.087   1.775 -0.4776 -0.1880  0.0576
16355SOL    HW150833   0.630   7.041   1.729 -1.2021 -0.1829  1.1476
16355SOL    HW250834   0.742   7.019   1.828  0.6823 -0.3008 -0.9427
16356SOL     OW50835   4.820   0.742   1.372  0.2861  0.3841 -0.5017
16356SOL    HW150836   4.735   0.718   1.335  0.7686 -1.9726 -0.2324
16356SOL    HW250837   4.883   0.725   1.302  0.7437  0.1700 -0.0491
16357SOL     OW50838   6.075   9.467   5.564 -0.0177 -0.5656  0.1000
16357SOL    HW150839   6.066   9.406   5.491 -0.4601 -0.8630  0.3908
16357SOL    HW250840   6.000   9.447   5.620  0.6213 -0.7206  0.9151
16358SOL     OW50841   8.130   0.960   7.258 -0.8354  0.2691 -0.1502
16358SOL    HW150842   8.042   0.931   7.235  0.1076 -1.9372 -1.2050
16358SOL    HW250843   8.155   0.905   7.332 -0.0396  0.2876 -0.3938
16359SOL     OW50844   6.076   1.785   2.170  0.4266  0.1137  1.3046
16359SOL    HW150845   6.112   1.727   2.103  1.6107  0.3562  1.7199
16359SOL    HW250846   6.136   1.860   2.172 -0.7377  1.0883  1.1986
16360SOL     OW50847   0.615   0.925   2.601  0.0718  0.0121 -0.2773
16360SOL    HW150848   0.708   0.938   2.583 -0.2229  2.1899 -0.4429
16360SOL    HW250849   0.610   0.911   2.695  0.6050 -0.8787 -0.3624
16361SOL     OW50850   8.511   6.182   4.372  0.0475  0.2096 -0.3232
16361SOL    HW150851   8.577   6.114   4.381 -0.9135 -0.7150  0.0051
16361SOL    HW250852   8.437   6.151   4.424  0.2818  2.4732  1.5556
16362SOL     OW50853   1.074   9.576   6.578  0.1374  0.0198  0.2218
16362SOL    HW150854   1.143   9.515   6.605 -0.8703 -1.9540 -1.3511
16362SOL    HW250855   0.996   9.547   6.626 -0.7459 -1.0815 -1.7424
16363SOL     OW50856   2.553   3.793   1.071 -0.1510  0.2066  0.1012
16363SOL    HW150857   2.585   3.703   1.071  1.9055  0.8359 -2.4732
16363SOL    HW250858   2.626   3.845   1.103 -1.3541  1.0413  1.6779
16364SOL     OW50859   0.580   0.725   7.695  0.4966 -0.3195  0.0340
16364SOL    HW150860   0.520   0.763   7.759  0.2632 -1.0079  0.2347
16364SOL    HW250861   0.663   0.772   7.708 -0.2376  1.3640 -0.9399
16365SOL     OW50862   2.599   3.369   2.673  0.0023 -0.0270 -0.9506
16365SOL    HW150863   2.656   3.443   2.650  0.9606 -0.3312  0.3099
16365SOL    HW250864   2.657   3.307   2.718 -1.1497 -0.7402 -0.3905
16366SOL     OW50865   5.883   1.625   9.070 -0.2979 -0.2116  0.0462
16366SOL    HW150866   5.917   1.575   9.144 -1.3226 -0.7860  0.1536
16366SOL    HW250867   5.938   1.600   8.996 -0.0044 -0.5282  0.3701
16367SOL     OW50868   7.212   2.789   3.240 -0.2061  0.1819 -0.2324
16367SOL    HW150869   7.263   2.755   3.313 -0.8057 -1.1121 -0.3782
16367SOL    HW250870   7.277   2.825   3.180  0.5359 -1.2381 -0.3244
16368SOL     OW50871   2.555   8.609   3.556 -0.8645 -0.0058 -0.8404
16368SOL    HW150872   2.480   8.660   3.524  0.7854  1.0357 -3.3265
16368SOL    HW250873   2.598   8.666   3.620 -1.2714  0.0679 -0.6302
16369SOL     OW50874   2.160   2.678   5.439 -0.0035  0.0419  0.0448
16369SOL    HW150875   2.068   2.666   5.413 -0.2308  1.1250  0.3417
16369SOL    HW250876   2.194   2.743   5.377  0.4638 -0.0766  0.1740
16370SOL     OW50877   3.350   6.813   6.652 -0.3304 -0.6471 -0.4606
16370SOL    HW150878   3.409   6.817   6.578 -1.5352  1.4729 -1.4098
16370SOL    HW250879   3.275   6.761   6.621 -1.5335  1.4963 -1.3746
16371SOL     OW50880   3.576   1.579   7.117  0.0099 -0.1582  0.1550
16371SOL    HW150881   3.621   1.550   7.197  0.9583 -0.4052 -0.4573
16371SOL    HW250882   3.633   1.550   7.046 -1.4742 -1.1153 -0.6909
16372SOL     OW50883   1.675   9.475   2.771  0.6331 -0.0243  0.3278
16372SOL    HW150884   1.743   9.436   2.826  0.9294 -0.4581 -0.3331
16372SOL    HW250885   1.716   9.484   2.685 -0.4989 -1.4092 -0.4087
16373SOL     OW50886   1.538   0.931   2.359 -0.3404 -1.0407 -0.2210
16373SOL    HW150887   1.545   0.837   2.377 -0.2109 -0.8695  0.6776
16373SOL    HW250888   1.444   0.949   2.359 -0.3595 -1.1430 -0.2377
16374SOL     OW50889   9.204   2.481   5.388  0.2028 -0.1423  0.0791
16374SOL    HW150890   9.214   2.572   5.418 -0.9544  0.0339 -0.0324
16374SOL    HW250891   9.225   2.484   5.295 -1.8335  0.4439 -0.4159
16375SOL     OW50892   7.356   6.542   9.632 -0.0615 -0.3922 -0.0633
16375SOL    HW150893   7.400   6.589   9.561  0.3154 -1.4189 -0.5246
16375SOL    HW250894   7.267   6.526   9.599  0.2663 -1.3137 -0.5215
16376SOL     OW50895   1.752   0.253   8.555 -0.4099 -0.0351 -0.1795
16376SOL    HW150896   1.806   0.184   8.517 -1.0278  0.0157 -1.1853
16376SOL    HW250897   1.778   0.256   8.647  2.4031  1.0155 -0.9120
16377SOL     OW50898   2.755   1.415   6.964 -0.3549 -0.0583  0.0042
16377SOL    HW150899   2.666   1.392   6.989  0.7893 -2.4868  2.3430
16377SOL    HW250900   2.780   1.484   7.025 -1.0882  1.8329 -1.7300
16378SOL     OW50901   8.729   4.111   2.046  0.0593 -0.6966 -0.3871
16378SOL    HW150902   8.780   4.144   1.971 -0.7593 -1.8525 -1.4944
16378SOL    HW250903   8.763   4.160   2.121 -0.2932  1.7973 -1.7406
16379SOL     OW50904   6.774   7.029   9.798  0.2743  0.3144  0.3461
16379SOL    HW150905   6.734   7.072   9.874 -2.6006 -1.0726 -0.2168
16379SOL    HW250906   6.703   7.024   9.733  1.7557 -1.2083 -1.2672
16380SOL     OW50907   2.833   4.515   5.795  0.2307 -0.1952  0.1092
16380SOL    HW150908   2.877   4.593   5.762  0.0044  0.3660  1.0934
16380SOL    HW250909   2.740   4.530   5.777  0.0512  0.3298  1.3714
16381SOL     OW50910   2.820   6.064   3.784  0.2414  0.0327 -0.0027
16381SOL    HW150911   2.836   6.147   3.740  1.9746  0.3393  1.1171
16381SOL    HW250912   2.776   6.088   3.866 -0.0246 -0.2304 -0.0663
16382SOL     OW50913   5.278   2.004   5.378  0.2325  0.0300 -0.0130
16382SOL    HW150914   5.311   1.917   5.354 -2.9052 -1.6761  1.1645
16382SOL    HW250915   5.187   2.003   5.349 -0.1445  2.6167  0.8715
16383SOL     OW50916   6.340   4.020   7.424 -0.7533  0.2558 -0.0626
16383SOL    HW150917   6.407   3.995   7.488 -1.8418  0.6202  1.2891
16383SOL    HW250918   6.270   4.059   7.478 -1.6750  0.6563 -1.5023
16384SOL     OW50919   5.043   7.036   0.664  0.2139 -0.7216  0.2512
16384SOL    HW150920   5.063   6.950   0.626  0.8245 -0.3039 -0.3985
16384SOL    HW250921   4.975   7.072   0.607  0.6886 -0.3543 -0.0955
16385SOL     OW50922   5.563   6.305   1.944 -0.4728 -0.0971 -0.2658
16385SOL    HW150923   5.572   6.290   2.038  0.0955  0.4956 -0.2137
16385SOL    HW250924   5.607   6.230   1.904 -0.8725 -0.4439 -0.0685
16386SOL     OW50925   4.694   8.002   1.493  0.1108 -0.1021 -0.0605
16386SOL    HW150926   4.734   8.009   1.580 -0.3025  0.8001  0.0606
16386SOL    HW250927   4.711   7.911   1.467  0.1879 -0.4044  0.9824
16387SOL     OW50928   4.191   2.653   1.325 -0.1485 -0.1495  0.7702
16387SOL    HW150929   4.145   2.600   1.390 -0.6341  0.2768  0.7810
16387SOL    HW250930   4.265   2.691   1.373  0.7280 -1.4961  0.5515
16388SOL     OW50931   3.294   4.105   5.690 -0.4952  0.2080  0.2043
16388SOL    HW150932   3.267   4.082   5.601 -3.7032 -0.1422  1.1305
16388SOL    HW250933   3.299   4.021   5.736  0.7298  0.4161  0.4706
16389SOL     OW50934   4.156   9.351   4.745 -0.1915 -0.2313 -0.2593
16389SOL    HW150935   4.183   9.259   4.749  0.0606 -0.1465  0.0307
16389SOL    HW250936   4.110   9.367   4.828  2.5704  0.7614  1.2030
16390SOL     OW50937   1.676   7.775   0.662 -0.0375 -0.1164  0.5948
16390SOL    HW150938   1.608   7.752   0.726 -1.2454  1.0592 -0.2090
16390SOL    HW250939   1.636   7.757   0.577  1.4311 -1.3501  0.1122
16391SOL     OW50940   0.614   7.306   9.286 -0.0953  0.3724 -0.5763
16391SOL    HW150941   0.565   7.249   9.227 -0.7898  0.6997 -0.3269
16391SOL    HW250942   0.693   7.256   9.309 -0.4525 -0.2736 -0.7476
16392SOL     OW50943   8.484   6.515   1.103 -0.1077  0.8528  0.3202
16392SOL    HW150944   8.525   6.490   1.185  0.4101  0.7511  0.0352
16392SOL    HW250945   8.399   6.550   1.128 -0.9897 -1.4346  0.7214
16393SOL     OW50946   9.390   6.009   2.978  0.8463 -0.2818 -0.2707
16393SOL    HW150947   9.376   5.919   2.947  0.6750 -0.2282 -0.3501
16393SOL    HW250948   9.485   6.019   2.980  0.8600 -0.2629 -0.8590
16394SOL     OW50949   3.620   7.981   0.532 -0.2202 -0.4362 -0.1771
16394SOL    HW150950   3.614   7.886   0.544 -1.0850 -0.3037  0.5556
16394SOL    HW250951   3.590   7.996   0.442 -2.0546 -0.6964  0.3477
16395SOL     OW50952   5.678   1.005   7.209 -0.2383 -0.0836  0.0401
16395SOL    HW150953   5.602   1.023   7.266  0.0767 -1.0500  0.7981
16395SOL    HW250954   5.654   0.924   7.164 -0.6829  0.9259 -1.5973
16396SOL     OW50955   1.216   1.580   7.548 -0.1796  0.0052  0.4230
16396SOL    HW150956   1.267   1.517   7.599  0.1468  0.3993  0.5920
16396SOL    HW250957   1.125   1.557   7.565 -0.0791 -1.3290 -0.6570
16397SOL     OW50958   6.411   6.597   5.844 -0.3857 -0.6909  0.3503
16397SOL    HW150959   6.333   6.546   5.822 -1.7029  0.1276  2.7375
16397SOL    HW250960   6.450   6.550   5.918  0.8159 -0.5095 -0.1430
16398SOL     OW50961   1.352   2.753   8.227 -0.0116 -0.0521  0.2083
16398SOL    HW150962   1.389   2.686   8.169 -0.2392 -1.1073  1.2482
16398SOL    HW250963   1.267   2.717   8.253 -1.0164  1.5163 -0.7192
16399SOL     OW50964   3.811   9.310   8.001  0.2912 -0.4311 -0.1431
16399SOL    HW150965   3.826   9.298   8.095  0.5192 -1.4005 -0.2919
16399SOL    HW250966   3.898   9.306   7.962  0.6972  3.7018 -0.0782
16400SOL     OW50967   0.352   6.513   7.810  0.0119  0.1435 -0.4880
16400SOL    HW150968   0.349   6.530   7.904 -0.4021 -0.0887 -0.4543
16400SOL    HW250969   0.347   6.599   7.770 -1.3142  0.1734 -0.3109
16401SOL     OW50970   2.995   5.389   7.053  0.2083  0.7770  1.1955
16401SOL    HW150971   3.057   5.316   7.058  0.4960  1.0298  1.3400
16401SOL    HW250972   3.027   5.443   6.981 -0.9681 -0.1207 -0.0411
16402SOL     OW50973   0.623   0.436   6.495  0.0273 -0.2843 -0.1982
16402SOL    HW150974   0.647   0.431   6.588  1.5177 -0.6574 -0.5755
16402SOL    HW250975   0.661   0.519   6.466 -0.7382 -0.0027 -0.3963
16403SOL     OW50976   5.862   2.262   0.927 -0.1766 -0.1580  0.5018
16403SOL    HW150977   5.806   2.316   0.981 -1.7764 -1.2157 -0.0388
16403SOL    HW250978   5.928   2.322   0.892 -0.5980  0.9872  1.6282
16404SOL     OW50979   3.924   9.415   3.529 -0.1197  0.4556  0.3800
16404SOL    HW150980   3.952   9.341   3.475  1.6530  1.9599 -0.8898
16404SOL    HW250981   3.953   9.393   3.618 -2.4952 -1.7627  0.7235
16405SOL     OW50982   1.984   8.663   6.596  0.2526 -0.0993 -0.3028
16405SOL    HW150983   2.045   8.715   6.545 -1.5573  1.1981 -1.2745
16405SOL    HW250984   1.897   8.695   6.570 -0.8530 -1.6926  1.1577
16406SOL     OW50985   0.857   4.857   8.236  0.0734  0.1384 -0.0458
16406SOL    HW150986   0.859   4.761   8.241  0.2927  0.0664 -1.1708
16406SOL    HW250987   0.786   4.876   8.175  0.6243  0.6438 -0.5506
16407SOL     OW50988   5.473   1.883   9.408 -0.1755 -0.9878 -0.5775
16407SOL    HW150989   5.553   1.892   9.355 -0.5211  2.5905 -0.6890
16407SOL    HW250990   5.434   1.801   9.377  3.6124 -3.2156 -0.1460
16408SOL     OW50991   7.332   4.671   5.001  0.8860  0.6307  0.0726
16408SOL    HW150992   7.389   4.597   5.023 -0.0883 -0.3553 -0.5916
16408SOL    HW250993   7.269   4.675   5.073 -0.7507 -0.9861 -1.1851
16409SOL     OW50994   0.546   9.525   4.977  0.0049  0.4611  0.4706
16409SOL    HW150995   0.619   9.580   5.008 -0.3207  0.4023  1.3720
16409SOL    HW250996   0.475   9.587   4.961  0.0258  0.4354  0.2688
16410SOL     OW50997   7.223   7.173   1.732 -0.7037  0.6784  0.2607
16410SOL    HW150998   7.224   7.243   1.667 -0.1886  1.5588  1.1837
16410SOL    HW250999   7.277   7.207   1.804  0.7216 -1.2396  0.1543
16411SOL     OW51000   2.133   1.417   9.675  0.5523  0.0178 -0.3518
16411SOL    HW151001   2.056   1.438   9.622 -1.1831 -0.9444  1.6324
16411SOL    HW251002   2.102   1.353   9.738  3.0181 -0.3909  0.5744
16412SOL     OW51003   9.463   5.697   1.858 -0.3245  0.2824  0.1974
16412SOL    HW151004   9.483   5.610   1.825 -0.1001  0.9261 -1.5028
16412SOL    HW251005   9.508   5.756   1.797  0.7201  1.5715  2.1202
16413SOL     OW51006   2.213   8.313   9.050 -0.2852  0.1963 -0.4336
16413SOL    HW151007   2.244   8.245   8.990  1.0030 -0.6611  1.1095
16413SOL    HW251008   2.122   8.289   9.068 -0.6156  0.3371 -1.8270
16414SOL     OW51009   4.994   0.430   5.019  0.6389  0.1712  0.3314
16414SOL    HW151010   4.979   0.335   5.019 -1.5314  0.4397 -0.9605
16414SOL    HW251011   4.988   0.455   5.111 -1.1236 -0.6995  0.5109
16415SOL     OW51012   5.196   1.667   2.697  0.1314 -0.3103  0.0210
16415SOL    HW151013   5.160   1.636   2.614 -0.1400  0.0876 -0.0149
16415SOL    HW251014   5.161   1.755   2.707  0.2706 -0.3036  0.4951
16416SOL     OW51015   9.691   3.872   1.083 -0.2780  0.1786  0.0314
16416SOL    HW151016   9.689   3.797   1.142  0.7150  0.1480  0.0392
16416SOL    HW251017   9.758   3.930   1.119  0.7456 -0.0977 -1.3472
16417SOL     OW51018   0.724   4.049   0.399  0.7176 -0.0616 -0.6968
16417SOL    HW151019   0.716   4.137   0.364  1.3142 -0.1496 -1.0707
16417SOL    HW251020   0.812   4.046   0.438  0.9292 -0.6566 -1.1927
16418SOL     OW51021   2.010   1.547   7.876  0.4205 -0.0301  0.1837
16418SOL    HW151022   1.929   1.505   7.849 -0.6835  1.9739  0.1871
16418SOL    HW251023   2.073   1.476   7.883 -1.1946 -1.5722 -0.3286
16419SOL     OW51024   1.024   7.978   4.099 -0.4339  0.6267  0.1167
16419SOL    HW151025   1.017   7.884   4.111 -0.3585  0.3316 -1.7640
16419SOL    HW251026   0.995   8.016   4.182 -2.0306 -1.0076  0.3639
16420SOL     OW51027   7.045   0.059   1.879  0.0661  0.7616 -0.3149
16420SOL    HW151028   7.028   0.005   1.802 -0.0581 -0.1041  0.2923
16420SOL    HW251029   6.974   0.122   1.881 -0.0333  0.6681 -0.8028
16421SOL     OW51030   8.405   8.724   1.109  0.6906 -0.1945  0.3746
16421SOL    HW151031   8.386   8.639   1.071  1.5376 -1.3511  2.3708
16421SOL    HW251032   8.321   8.756   1.142 -0.1843  1.1097 -2.7682
16422SOL     OW51033   8.486   7.884   6.911 -0.2397 -0.4170 -0.1998
16422SOL    HW151034   8.451   7.794   6.916  0.2111 -0.6242 -0.7484
16422SOL    HW251035   8.538   7.893   6.991 -0.2839 -0.6427 -0.1444
16423SOL     OW51036   5.210   7.112   3.512  0.3690  0.1397 -0.3381
16423SOL    HW151037   5.183   7.129   3.603 -1.6478  0.0508 -0.8671
16423SOL    HW251038   5.257   7.191   3.486  1.2414  0.0376  0.8747
16424SOL     OW51039   3.252   6.237   2.049 -0.2386  0.1185  0.0856
16424SOL    HW151040   3.284   6.198   2.130  1.7097 -0.4291 -0.8631
16424SOL    HW251041   3.280   6.175   1.981  0.7314  1.9124 -1.2407
16425SOL     OW51042   0.342   6.283   3.952 -0.3461  0.5089 -0.1087
16425SOL    HW151043   0.253   6.249   3.948 -0.3729  0.5104  0.3937
16425SOL    HW251044   0.333   6.378   3.950 -0.3443  0.5071 -0.2165
16426SOL     OW51045   8.907   4.378   0.389  0.4551 -0.0654 -0.8496
16426SOL    HW151046   8.968   4.352   0.321  1.6208  2.1785 -0.7550
16426SOL    HW251047   8.869   4.460   0.357 -0.3068  0.1084  0.4151
16427SOL     OW51048   5.165   5.076   9.451  0.4935  0.1712 -0.1830
16427SOL    HW151049   5.221   5.013   9.496  0.7224  0.2003 -0.4229
16427SOL    HW251050   5.091   5.090   9.510  0.7030  0.0762  0.1027
16428SOL     OW51051   1.119   1.115   2.812 -0.3942  0.1820  0.5852
16428SOL    HW151052   1.154   1.084   2.896 -1.1922 -1.5217  0.3292
16428SOL    HW251053   1.185   1.176   2.780  0.5753 -0.1735  1.8274
16429SOL     OW51054   6.755   0.739   1.781 -0.0050 -0.4101 -0.2834
16429SOL    HW151055   6.802   0.681   1.840 -1.6523 -0.2608  1.2394
16429SOL    HW251056   6.728   0.683   1.708  0.0096 -1.1350  0.2590
16430SOL     OW51057   0.005   5.391   5.860  0.3554 -0.0366 -0.0723
16430SOL    HW151058   0.067   5.461   5.880  1.4765 -1.1639  0.5472
16430SOL    HW251059  -0.081   5.430   5.876  1.0032  0.5131  2.7007
16431SOL     OW51060   5.375   5.160   3.354  0.5107 -0.4651 -0.5075
16431SOL    HW151061   5.454   5.173   3.407 -0.7401  1.9536  0.9399
16431SOL    HW251062   5.354   5.067   3.365  1.5678 -0.5343  1.3949
16432SOL     OW51063   7.374   0.090   5.755  0.1364  0.1187 -0.0111
16432SOL    HW151064   7.316   0.164   5.735  1.1634  0.3712 -2.4334
16432SOL    HW251065   7.455   0.132   5.783  0.3011 -0.1167 -0.1384
16433SOL     OW51066   1.823   7.055   6.698 -0.5205 -0.0292 -0.2457
16433SOL    HW151067   1.749   7.109   6.726 -1.5092 -2.2176  1.7707
16433SOL    HW251068   1.842   7.084   6.609 -0.4924  3.9969  0.8960
16434SOL     OW51069   0.668   1.984   2.302 -0.1556 -0.4275 -0.0485
16434SOL    HW151070   0.682   2.078   2.315 -1.4121 -0.2882  0.4451
16434SOL    HW251071   0.656   1.950   2.390 -3.0035 -0.4730 -0.3796
16435SOL     OW51072   6.816   0.392   7.623 -0.6880  0.1659 -0.2713
16435SOL    HW151073   6.864   0.403   7.706  1.5453 -2.6664 -1.0078
16435SOL    HW251074   6.749   0.327   7.643 -0.7302  0.1523 -0.4597
16436SOL     OW51075   9.083   5.552   1.858  0.6417 -0.0624 -0.8082
16436SOL    HW151076   9.084   5.467   1.813  0.1554 -0.1794 -0.5973
16436SOL    HW251077   9.048   5.534   1.945 -2.7899  0.8672 -1.8528
16437SOL     OW51078   8.764   8.185   3.635 -0.0300 -0.3148 -0.4008
16437SOL    HW151079   8.676   8.161   3.606  0.1450 -1.3257 -0.1567
16437SOL    HW251080   8.805   8.223   3.558 -0.4305 -0.5496 -0.7393
16438SOL     OW51081   3.461   2.554   7.951 -0.0455 -0.1250  0.5667
16438SOL    HW151082   3.424   2.471   7.980 -0.1887  0.6084  2.6703
16438SOL    HW251083   3.549   2.532   7.920 -0.3370 -1.1568  0.4544
16439SOL     OW51084   5.879   3.660   2.925  0.5058  0.2773 -0.3176
16439SOL    HW151085   5.804   3.610   2.956 -0.7804  2.3672  0.1910
16439SOL    HW251086   5.841   3.735   2.879  2.3379  0.0198 -2.4173
16440SOL     OW51087   2.760   5.695   4.855  0.3900  0.0622 -0.0764
16440SOL    HW151088   2.689   5.747   4.818 -0.9111 -1.1478  0.6007
16440SOL    HW251089   2.731   5.675   4.944  1.5960 -0.4279  0.2227
16441SOL     OW51090   2.416   7.331   6.039 -0.4812  0.4252 -0.2261
16441SOL    HW151091   2.330   7.298   6.013 -0.8017  0.1894  1.0553
16441SOL    HW251092   2.416   7.325   6.135  0.9880  0.3575 -0.2017
16442SOL     OW51093   7.716   1.961   5.103 -0.4978 -0.0250 -0.2325
16442SOL    HW151094   7.801   1.945   5.143 -0.4059 -0.2626 -0.5265
16442SOL    HW251095   7.710   1.898   5.031 -0.6138  0.4757 -0.6669
16443SOL     OW51096   2.418   6.029   6.775 -0.0132  0.2487  0.0056
16443SOL    HW151097   2.467   5.953   6.743 -1.1861 -0.3924 -0.3099
16443SOL    HW251098   2.400   6.081   6.697  0.3708  0.6119  0.1551
16444SOL     OW51099   3.373   3.705   6.061  0.1410 -0.5848 -0.2992
16444SOL    HW151100   3.413   3.695   6.147  0.7829 -1.0370 -0.6431
16444SOL    HW251101   3.378   3.799   6.043  1.7934 -0.7164 -0.6696
16445SOL     OW51102   7.043   9.284   3.830 -0.4121  0.1336 -0.4171
16445SOL    HW151103   7.065   9.369   3.868  0.3792 -0.3891  0.3492
16445SOL    HW251104   7.101   9.276   3.755 -0.4280  0.2344 -0.4405
16446SOL     OW51105   3.922   1.457   7.602 -0.0766 -0.0313  0.1003
16446SOL    HW151106   3.999   1.401   7.591 -1.0346 -1.1226 -1.7736
16446SOL    HW251107   3.870   1.412   7.669 -0.9012 -1.5820 -1.4794
16447SOL     OW51108   9.310   0.166   2.958 -0.3470 -0.1116 -0.1492
16447SOL    HW151109   9.295   0.222   2.881  1.9330 -1.2501 -1.5388
16447SOL    HW251110   9.383   0.110   2.932  1.4541  0.3529  3.3345
16448SOL     OW51111   2.642   8.279   0.550  0.5353 -0.4880 -0.3087
16448SOL    HW151112   2.693   8.358   0.529 -0.9799  0.5266 -0.3564
16448SOL    HW251113   2.630   8.235   0.466 -0.7646  0.6107 -0.7396
16449SOL     OW51114   0.447   3.012   7.178 -0.3986 -0.0884 -0.1723
16449SOL    HW151115   0.532   2.967   7.180  0.2107  0.6512 -3.3642
16449SOL    HW251116   0.470   3.105   7.173 -1.4704  0.2393  0.7714
16450SOL     OW51117   3.391   6.311   6.183  0.5668 -0.4641 -0.0614
16450SOL    HW151118   3.463   6.350   6.134  0.6520 -0.9122 -0.2986
16450SOL    HW251119   3.380   6.224   6.144 -0.6768 -0.0771 -0.6197
16451SOL     OW51120   2.600   6.984   5.659  0.8256 -0.5827 -0.9314
16451SOL    HW151121   2.617   7.042   5.733  0.5650  2.5178 -3.1232
16451SOL    HW251122   2.685   6.948   5.636  0.9020 -1.6567  0.8324
16452SOL     OW51123   3.901   3.086   7.873  0.2086 -0.4875  0.1712
16452SOL    HW151124   3.976   3.102   7.931 -0.2261 -1.5300  1.0607
16452SOL    HW251125   3.844   3.162   7.887  0.7854 -0.0115 -0.0144
16453SOL     OW51126   4.107   1.333   8.565 -0.1488 -0.3116 -0.8775
16453SOL    HW151127   4.039   1.395   8.537  0.5623  0.9921  0.1519
16453SOL    HW251128   4.169   1.331   8.492  0.1035  0.6613 -0.7155
16454SOL     OW51129   6.850   6.690   1.200 -0.1519  0.1394 -0.6108
16454SOL    HW151130   6.894   6.623   1.147 -1.3241 -1.6480  0.5984
16454SOL    HW251131   6.762   6.695   1.164 -0.2502  0.6362 -0.3048
16455SOL     OW51132   9.527   0.749   0.378  0.8089 -0.0240 -0.5460
16455SOL    HW151133   9.565   0.674   0.332 -0.1159 -0.7627 -0.1419
16455SOL    HW251134   9.493   0.805   0.308 -0.5637 -1.1276 -0.7978
16456SOL     OW51135   2.415   4.649   5.787  0.0510  0.3117 -0.0404
16456SOL    HW151136   2.378   4.735   5.804  0.1833  0.4981 -0.6710
16456SOL    HW251137   2.341   4.589   5.795  0.0208  0.4441  0.7114
16457SOL     OW51138   6.805   3.789   1.614 -0.3758  0.4122  0.4432
16457SOL    HW151139   6.838   3.702   1.638 -0.5171  0.5845  1.2654
16457SOL    HW251140   6.728   3.801   1.669  0.3787  1.5990  1.2644
16458SOL     OW51141   5.381   3.236   4.582 -0.1310 -0.1625 -0.0399
16458SOL    HW151142   5.422   3.241   4.496 -2.4775 -1.7428 -1.3805
16458SOL    HW251143   5.426   3.165   4.627 -0.2175 -0.7137 -0.8042
16459SOL     OW51144   6.317   1.467   4.618  0.0722  0.2588  0.2233
16459SOL    HW151145   6.227   1.493   4.637 -0.3039  1.4711 -2.6019
16459SOL    HW251146   6.309   1.383   4.572  0.2451  0.8207 -0.8772
16460SOL     OW51147   6.796   6.284   0.663 -0.2589 -0.4768 -0.6240
16460SOL    HW151148   6.708   6.288   0.624 -1.2194 -1.2119  1.3291
16460SOL    HW251149   6.851   6.334   0.603 -2.0997  0.4071 -1.6637
16461SOL     OW51150   9.656   0.231   8.125 -0.5992 -0.6097  0.2942
16461SOL    HW151151   9.580   0.189   8.166 -1.2429 -0.8691 -1.1119
16461SOL    HW251152   9.663   0.189   8.040  0.7449 -0.1209  0.1467
16462SOL     OW51153   7.732   2.175   5.387  0.6050 -0.1660  0.2255
16462SOL    HW151154   7.705   2.226   5.311 -1.7851 -4.0652 -1.9069
16462SOL    HW251155   7.822   2.148   5.367  1.2138  1.5463  0.4991
16463SOL     OW51156   0.499   1.299   1.304  0.1712 -0.1594 -0.5123
16463SOL    HW151157   0.424   1.313   1.362  0.6542 -0.0051  0.0792
16463SOL    HW251158   0.463   1.247   1.231 -0.4954 -0.1345 -0.2098
16464SOL     OW51159   0.056   9.076   6.355 -0.1951 -0.1078 -0.1110
16464SOL    HW151160   0.027   9.084   6.264  0.5169  0.0096 -0.3322
16464SOL    HW251161   0.027   8.989   6.381  0.4182 -0.5082 -0.7516
16465SOL     OW51162   0.546   8.175   7.563  0.3797  0.2573  0.6157
16465SOL    HW151163   0.594   8.148   7.484  0.4631 -0.1454  0.7993
16465SOL    HW251164   0.476   8.231   7.530  0.2655 -0.1068  0.2245
16466SOL     OW51165   9.035   5.828   3.784  0.1643 -0.0837 -0.1946
16466SOL    HW151166   8.990   5.901   3.827 -0.8800 -0.6750 -0.2646
16466SOL    HW251167   9.092   5.792   3.852 -0.1355  0.1139  0.1686
16467SOL     OW51168   5.964   6.447   8.725  1.0484  0.0758 -0.5412
16467SOL    HW151169   5.966   6.409   8.637  2.1821 -1.2179  0.0028
16467SOL    HW251170   6.022   6.391   8.777  2.6996  2.4439  0.3743
16468SOL     OW51171   4.746   4.796   7.063 -0.2198 -0.2416 -0.0503
16468SOL    HW151172   4.655   4.823   7.058 -0.4574 -1.1851 -1.1641
16468SOL    HW251173   4.747   4.730   7.132  0.1311  1.5525  1.7707
16469SOL     OW51174   7.469   9.507   7.376  0.4216 -0.0370  0.2678
16469SOL    HW151175   7.553   9.473   7.348  0.5767  0.2621  0.3700
16469SOL    HW251176   7.490   9.577   7.438  0.1741  1.8911 -1.6949
16470SOL     OW51177   3.726   4.685   7.055  0.3317  0.4841 -0.4142
16470SOL    HW151178   3.736   4.595   7.087  0.6588  0.5937 -0.2130
16470SOL    HW251179   3.796   4.696   6.991  2.5246  1.7184  2.0233
16471SOL     OW51180   3.402   9.411   7.271  0.1603  0.6003 -0.8862
16471SOL    HW151181   3.328   9.352   7.287  1.8065 -1.1480  0.8179
16471SOL    HW251182   3.421   9.451   7.356  2.4558 -0.6550 -0.7208
16472SOL     OW51183   0.037   2.665   5.360  0.2556 -0.0055  0.2980
16472SOL    HW151184  -0.037   2.722   5.380 -1.6348 -1.6642 -1.5813
16472SOL    HW251185   0.046   2.669   5.265  3.4496  1.0724  0.5002
16473SOL     OW51186   6.703   8.411   6.780  0.2387  0.1561  0.8332
16473SOL    HW151187   6.706   8.502   6.809  2.3881  0.6391 -0.6204
16473SOL    HW251188   6.756   8.364   6.845  1.4421  0.4858  0.1384
16474SOL     OW51189   2.245   8.734   8.919  0.5094 -0.2840  0.4139
16474SOL    HW151190   2.185   8.673   8.963 -0.6248 -0.8434 -1.7329
16474SOL    HW251191   2.187   8.800   8.881  1.5514  0.9230  0.8816
16475SOL     OW51192   8.585   8.958   5.715  0.5667  0.5921  0.5212
16475SOL    HW151193   8.638   9.013   5.658  0.0515  0.5388 -0.0170
16475SOL    HW251194   8.496   8.970   5.684  0.3217  0.2851  1.0900
16476SOL     OW51195   8.290   6.708   9.364 -0.0605  0.2619  0.0806
16476SOL    HW151196   8.362   6.715   9.426  0.1773  2.2602 -0.3556
16476SOL    HW251197   8.283   6.795   9.324 -1.9571 -0.1953 -0.7347
16477SOL     OW51198   6.301   2.546   8.221 -0.3513 -0.1465 -0.0545
16477SOL    HW151199   6.292   2.483   8.292  1.9630  1.3866  1.7881
16477SOL    HW251200   6.231   2.609   8.236 -0.3070 -0.2178  0.4977
16478SOL     OW51201   6.723   0.182   7.266 -0.0290 -0.0058 -0.2403
16478SOL    HW151202   6.805   0.209   7.307  1.6570 -1.7144 -2.2471
16478SOL    HW251203   6.685   0.120   7.329  0.6845  0.0971  0.3077
16479SOL     OW51204   0.341   1.704   1.086 -0.4973 -0.3072 -0.1744
16479SOL    HW151205   0.418   1.658   1.054 -0.0870  0.8892 -1.0169
16479SOL    HW251206   0.374   1.790   1.112 -1.4411 -0.0044  0.0631
16480SOL     OW51207   6.026   3.869   4.855  0.0621 -0.0798 -0.6687
16480SOL    HW151208   6.108   3.867   4.805  0.9016 -2.8183  0.6035
16480SOL    HW251209   5.964   3.822   4.799 -0.4859  1.3431 -1.3029
16481SOL     OW51210   8.319   4.121   6.377 -0.6527 -0.0249  0.8303
16481SOL    HW151211   8.279   4.162   6.453  0.0214  1.8599  0.2363
16481SOL    HW251212   8.413   4.137   6.388 -0.5595  0.5163 -0.4781
16482SOL     OW51213   5.614   8.598   7.126 -0.2129  0.7863  0.2986
16482SOL    HW151214   5.557   8.675   7.122  1.1991  1.9819  1.7963
16482SOL    HW251215   5.695   8.631   7.166  1.0190 -1.1491 -0.5087
16483SOL     OW51216   4.538   5.057   2.760 -0.6145  0.0535  0.6415
16483SOL    HW151217   4.585   4.975   2.774 -0.1989 -0.0135 -0.9043
16483SOL    HW251218   4.447   5.037   2.782 -0.8495 -1.3598 -1.3697
16484SOL     OW51219   8.271   5.117   7.361 -0.1133  0.1466  0.6074
16484SOL    HW151220   8.270   5.195   7.305 -0.0537  0.0231  0.4342
16484SOL    HW251221   8.179   5.101   7.381 -0.1546  0.0525  0.3496
16485SOL     OW51222   1.809   1.690   1.993 -0.0696 -0.2805 -0.9762
16485SOL    HW151223   1.730   1.653   1.954  0.2873 -2.2324  0.0655
16485SOL    HW251224   1.798   1.785   1.983 -2.5558 -0.4927 -0.8351
16486SOL     OW51225   8.915   4.726   2.688 -0.2407  0.1108  0.0322
16486SOL    HW151226   8.955   4.713   2.602 -0.8279 -0.2264 -0.1949
16486SOL    HW251227   8.987   4.719   2.750  0.1059 -0.1467 -0.3984
16487SOL     OW51228   0.159   4.933   9.428 -0.2102 -0.1988 -0.2653
16487SOL    HW151229   0.129   4.843   9.421 -0.4776 -0.0715 -0.8274
16487SOL    HW251230   0.189   4.941   9.519 -0.4385 -0.7703 -0.1308
16488SOL     OW51231   3.153   8.939   4.998 -0.0340  0.5089 -0.2885
16488SOL    HW151232   3.201   8.877   5.053  0.4807  0.6579 -0.5671
16488SOL    HW251233   3.071   8.895   4.978 -0.6362  0.7998  1.3557
16489SOL     OW51234   1.182   2.405   4.427  0.5962  0.0135 -0.3152
16489SOL    HW151235   1.235   2.484   4.415  1.6541 -0.5445  0.4818
16489SOL    HW251236   1.105   2.435   4.476  1.1728  0.4888  0.3193
16490SOL     OW51237   6.789   2.709   3.657 -0.2917  0.0756  0.0804
16490SOL    HW151238   6.868   2.692   3.606 -0.0609  1.6646 -0.1416
16490SOL    HW251239   6.760   2.622   3.686 -0.6403 -0.9693 -3.0346
16491SOL     OW51240   8.060   0.277   9.382 -0.3812  0.2647 -0.3205
16491SOL    HW151241   8.069   0.190   9.344  0.8670 -0.7166  2.0227
16491SOL    HW251242   8.137   0.325   9.352  0.3250 -0.3341  0.4846
16492SOL     OW51243   9.078   1.618   5.238  0.3606 -0.1631 -0.0920
16492SOL    HW151244   9.079   1.613   5.334  0.3097 -0.5377 -0.1062
16492SOL    HW251245   9.168   1.599   5.212  0.3463 -0.1876 -0.1235
16493SOL     OW51246   9.290   4.163   1.390  0.5884 -0.1381 -0.0394
16493SOL    HW151247   9.274   4.250   1.353 -0.7994 -0.5603 -0.5210
16493SOL    HW251248   9.385   4.154   1.393  0.7680  1.5582  0.4221
16494SOL     OW51249   7.269   0.447   0.003 -0.1815  0.6427  0.1290
16494SOL    HW151250   7.216   0.402   0.070 -0.2669  1.8300  0.8869
16494SOL    HW251251   7.276   0.537   0.035  0.5424  1.0108 -1.0266
16495SOL     OW51252   5.523   7.401   4.875 -0.1278  0.3174  0.3115
16495SOL    HW151253   5.603   7.402   4.823  0.0197 -0.5656  0.4988
16495SOL    HW251254   5.525   7.317   4.921 -0.5145  0.8551  1.3466
16496SOL     OW51255   1.042   5.352   8.755  0.2494  0.2473  0.5262
16496SOL    HW151256   0.968   5.326   8.810  0.9045 -2.0829  0.4314
16496SOL    HW251257   1.002   5.382   8.674 -0.6491  1.5253  1.4118
16497SOL     OW51258   1.657   9.049   8.013 -0.3659 -0.4153  0.6899
16497SOL    HW151259   1.701   8.982   8.065  0.1136 -0.2277  0.5338
16497SOL    HW251260   1.694   9.132   8.044 -0.3892 -0.2754  0.3496
16498SOL     OW51261   3.543   6.337   6.534 -0.5665 -0.0300  0.0035
16498SOL    HW151262   3.574   6.409   6.589 -1.3358  0.0588  0.3427
16498SOL    HW251263   3.609   6.269   6.544 -1.2864 -0.5192  2.1043
16499SOL     OW51264   5.340   2.211   4.001 -0.2066  0.0196  0.0216
16499SOL    HW151265   5.387   2.295   4.008 -0.6382  0.3122 -0.5372
16499SOL    HW251266   5.258   2.233   3.956 -1.9284 -0.0451  2.8517
16500SOL     OW51267   3.152   8.895   2.545  0.4308 -0.4566  0.0819
16500SOL    HW151268   3.213   8.851   2.485 -0.1276 -0.9922 -0.1085
16500SOL    HW251269   3.180   8.866   2.632 -0.7745 -2.3831 -0.0945
16501SOL     OW51270   5.532   9.475   6.605  0.3859  0.2973  0.2123
16501SOL    HW151271   5.557   9.527   6.528 -0.9075 -0.2525 -0.6057
16501SOL    HW251272   5.474   9.407   6.571 -0.5823  0.3152  1.7368
16502SOL     OW51273   0.004   1.912   8.368  0.5688  0.0600  0.0653
16502SOL    HW151274  -0.058   1.888   8.437  1.0878 -0.1428  0.4706
16502SOL    HW251275  -0.042   1.977   8.316  0.2187  0.3229  0.6941
16503SOL     OW51276   6.956   4.919   5.433  0.1163 -0.1497  0.0157
16503SOL    HW151277   6.960   4.915   5.337 -0.5090 -1.8037  0.0180
16503SOL    HW251278   6.878   4.869   5.456 -0.2858  1.0319  1.3712
16504SOL     OW51279   2.431   8.856   6.566 -0.1102  0.2409  0.1989
16504SOL    HW151280   2.426   8.784   6.629 -0.7978  0.1971  0.1024
16504SOL    HW251281   2.419   8.934   6.619  2.6391  0.4842  0.6324
16505SOL     OW51282   6.552   7.584   1.305 -0.3882  0.1422 -0.6764
16505SOL    HW151283   6.461   7.612   1.317 -0.0464  0.5023  1.3814
16505SOL    HW251284   6.545   7.496   1.269 -1.6072 -0.4375  0.8443
16506SOL     OW51285   2.760   0.463   6.910  0.0976  0.1244  0.6318
16506SOL    HW151286   2.715   0.486   6.991 -2.2213 -1.0906 -0.1838
16506SOL    HW251287   2.688   0.443   6.849  1.7412  0.9199 -1.7003
16507SOL     OW51288   0.152   1.386   4.705 -0.1280 -0.2642 -0.0233
16507SOL    HW151289   0.158   1.470   4.752 -0.3269 -1.3596  2.0994
16507SOL    HW251290   0.059   1.377   4.683  0.1420  0.7805 -1.7197
16508SOL     OW51291   8.229   3.744   4.391 -0.4636 -0.4042  0.3970
16508SOL    HW151292   8.321   3.736   4.415 -0.4960 -2.6345  0.0425
16508SOL    HW251293   8.220   3.834   4.361  2.0526 -0.5722 -1.2254
16509SOL     OW51294   7.087   5.172   8.851 -0.2269  0.0397 -0.1672
16509SOL    HW151295   7.160   5.113   8.831 -0.6728  0.1020 -2.2595
16509SOL    HW251296   7.009   5.117   8.837 -0.6032  0.5023  0.1112
16510SOL     OW51297   5.305   0.808   3.258 -0.0416  0.3069 -0.0537
16510SOL    HW151298   5.214   0.786   3.240 -0.4847  0.8745  1.3373
16510SOL    HW251299   5.355   0.731   3.231 -0.8496  0.2637 -1.4906
16511SOL     OW51300   3.015   4.431   7.744 -0.1814  0.3662 -0.2727
16511SOL    HW151301   2.967   4.349   7.739 -1.1325  0.8477  0.6031
16511SOL    HW251302   3.035   4.443   7.837 -0.0441  1.1071 -0.3865
16512SOL     OW51303   7.933   6.768   7.412  0.4850  0.3473  0.5062
16512SOL    HW151304   7.884   6.748   7.332  0.7632 -1.6552  0.7899
16512SOL    HW251305   8.004   6.704   7.414  0.1470 -0.0568  2.6435
16513SOL     OW51306   6.985   1.410   6.284  0.6503 -0.0944 -0.1172
16513SOL    HW151307   7.026   1.385   6.367 -1.3639 -3.1059  0.1387
16513SOL    HW251308   7.011   1.340   6.223 -2.0177 -0.7979 -0.5578
16514SOL     OW51309   2.136   5.213   7.954 -0.4975 -0.4154  0.0418
16514SOL    HW151310   2.116   5.302   7.923  0.2235 -0.3669 -0.3083
16514SOL    HW251311   2.051   5.173   7.969 -0.8380  0.1068 -0.4692
16515SOL     OW51312   6.833   7.763   0.032 -0.4147 -0.3093 -0.1082
16515SOL    HW151313   6.738   7.762   0.033 -0.4580 -1.6304  1.9811
16515SOL    HW251314   6.856   7.849  -0.002 -2.3326  0.0413 -0.6465
16516SOL     OW51315   8.622   8.409   5.936 -0.3647 -0.1071  0.0046
16516SOL    HW151316   8.694   8.400   5.999 -0.4445 -1.3673 -0.0546
16516SOL    HW251317   8.562   8.471   5.977  1.2153  1.7757 -0.3962
16517SOL     OW51318   2.605   9.004   1.535  0.4201  0.2687  0.7416
16517SOL    HW151319   2.628   8.975   1.447  0.9970 -0.7689  1.2236
16517SOL    HW251320   2.510   9.013   1.534  0.4605  0.7022 -0.1062
16518SOL     OW51321   2.385   4.320   7.356  0.4605  0.1695  0.4437
16518SOL    HW151322   2.376   4.245   7.298  0.1514 -0.6542  1.5089
16518SOL    HW251323   2.455   4.295   7.417  1.8125  1.6263 -0.4474
16519SOL     OW51324   9.189   7.596   6.520 -0.1437  0.2469 -0.0212
16519SOL    HW151325   9.276   7.567   6.493 -0.1879  0.9123 -0.9571
16519SOL    HW251326   9.130   7.526   6.491 -0.1744  0.8864 -1.6305
16520SOL     OW51327   9.472   1.050   5.952 -0.3704  0.4728 -0.2174
16520SOL    HW151328   9.388   1.089   5.978  0.0592  1.5000 -0.3027
16520SOL    HW251329   9.492   0.988   6.022 -1.7232 -0.6201 -0.7485
16521SOL     OW51330   9.388   4.177   6.419 -0.7418 -0.1352  0.1323
16521SOL    HW151331   9.482   4.178   6.398 -0.0296 -1.7772  2.8129
16521SOL    HW251332   9.361   4.088   6.401 -1.4908 -0.0083  0.6222
16522SOL     OW51333   7.312   0.528   6.690  0.6293 -0.1324 -0.0365
16522SOL    HW151334   7.272   0.507   6.606 -1.0046 -0.5683  0.8235
16522SOL    HW251335   7.242   0.519   6.754  1.5107  1.4305  1.2384
16523SOL     OW51336   4.977   3.270   8.645  0.7860 -0.0073 -0.2581
16523SOL    HW151337   4.949   3.240   8.732 -0.2892 -0.9677 -0.8912
16523SOL    HW251338   5.019   3.193   8.607  0.0945 -0.0033 -1.0517
16524SOL     OW51339   3.104   7.958   3.465 -0.0006 -0.5164  0.1417
16524SOL    HW151340   3.079   8.043   3.501  0.2812 -0.0071 -0.8238
16524SOL    HW251341   3.166   7.922   3.528  0.7536  0.5073  0.0151
16525SOL     OW51342   4.617   3.324   7.324  0.1172  0.6233  0.0090
16525SOL    HW151343   4.686   3.301   7.386 -1.2306  0.8759  1.6703
16525SOL    HW251344   4.663   3.368   7.253  1.7328  0.2215  0.7486
16526SOL     OW51345   4.504   7.811   8.685  1.3592 -0.2149  0.0959
16526SOL    HW151346   4.478   7.747   8.619  0.1208  1.9270 -1.6475
16526SOL    HW251347   4.547   7.881   8.634  2.5472  0.4275  1.8927
16527SOL     OW51348   3.744   9.818   5.950  0.4005 -0.0104 -0.4997
16527SOL    HW151349   3.719   9.888   5.890 -3.3158 -1.1998 -0.6004
16527SOL    HW251350   3.804   9.859   6.011 -0.3198  2.8315 -1.5513
16528SOL     OW51351   9.494   4.383   9.393  0.1453  0.4583  0.3748
16528SOL    HW151352   9.460   4.336   9.470  1.1085 -0.3108  0.3575
16528SOL    HW251353   9.536   4.314   9.341 -2.2800  0.5785 -1.9111
16529SOL     OW51354   4.476   8.007   2.988  0.0665  0.4197  0.0174
16529SOL    HW151355   4.423   8.065   3.043 -0.6422  0.1133 -0.3376
16529SOL    HW251356   4.550   8.061   2.961 -0.1737  0.9188  0.3434
16530SOL     OW51357   7.767   6.103   9.780 -0.7175 -0.2758  0.0387
16530SOL    HW151358   7.753   6.161   9.706  2.5246  0.3324 -0.2444
16530SOL    HW251359   7.853   6.128   9.814  0.0254 -3.6685  1.0540
16531SOL     OW51360   6.116   7.109   0.644 -0.1356  0.4668  0.0636
16531SOL    HW151361   6.054   7.093   0.573  0.6368  1.7878 -0.9657
16531SOL    HW251362   6.201   7.115   0.600  0.7960 -1.4749  1.4509
16532SOL     OW51363   9.790   0.866   1.482 -0.0689  0.1402  0.1270
16532SOL    HW151364   9.863   0.894   1.426 -0.2358  1.6107  0.6031
16532SOL    HW251365   9.716   0.857   1.421  0.3471 -0.7367 -0.2599
16533SOL     OW51366   4.259   8.067   5.574 -0.1854 -0.4620 -0.2149
16533SOL    HW151367   4.195   8.045   5.642 -1.5963  2.1410 -0.5592
16533SOL    HW251368   4.312   7.988   5.565 -2.9629 -2.5986  0.5090
16534SOL     OW51369   0.725   8.523   2.719  0.5341  0.2178 -0.2735
16534SOL    HW151370   0.713   8.430   2.703  0.0533  0.5355 -2.0533
16534SOL    HW251371   0.671   8.566   2.652  1.7586  1.7600 -0.3460
16535SOL     OW51372   7.705   3.920   0.424  0.1446 -0.4303 -0.5094
16535SOL    HW151373   7.746   3.915   0.338  1.7865 -1.0842  0.2642
16535SOL    HW251374   7.753   3.989   0.469 -0.2967 -0.5062  0.0855
16536SOL     OW51375   5.425   6.787   9.766  0.3438 -0.4000 -0.2746
16536SOL    HW151376   5.353   6.737   9.727  0.3871 -0.6166 -0.0785
16536SOL    HW251377   5.415   6.875   9.731  1.4222 -0.9849 -2.2059
16537SOL     OW51378   3.506   6.432   0.793  0.2113 -0.3846 -0.0792
16537SOL    HW151379   3.539   6.342   0.799 -0.5553 -0.7861 -1.5589
16537SOL    HW251380   3.422   6.424   0.748  0.0322  1.0637 -0.0332
16538SOL     OW51381   7.685   8.223   6.311  0.4591 -0.7379 -0.2103
16538SOL    HW151382   7.659   8.183   6.228  1.0306  0.1268 -0.8178
16538SOL    HW251383   7.744   8.294   6.286  2.3218 -1.7582  1.0420
16539SOL     OW51384   6.194   2.241   2.813  0.0771 -0.4738  0.5692
16539SOL    HW151385   6.153   2.276   2.893  2.2027  1.1830  1.0082
16539SOL    HW251386   6.212   2.150   2.835  1.7455  0.2449  2.5345
16540SOL     OW51387   9.417   7.258   2.439 -0.6106 -0.0178  0.2265
16540SOL    HW151388   9.499   7.293   2.403  0.8329 -0.7234  2.5648
16540SOL    HW251389   9.369   7.227   2.362  2.5761 -2.1762 -1.1347
16541SOL     OW51390   7.759   3.186   5.957 -0.0905 -0.0738 -0.9993
16541SOL    HW151391   7.671   3.216   5.933 -0.9251 -1.5763  0.0223
16541SOL    HW251392   7.790   3.139   5.880 -1.0458 -1.2735 -0.6892
16542SOL     OW51393   3.049   9.707   7.945 -1.0842 -0.5246  0.0313
16542SOL    HW151394   2.970   9.653   7.953 -0.0976 -1.7825  1.8234
16542SOL    HW251395   3.117   9.646   7.920 -0.4785  0.4017 -0.6323
16543SOL     OW51396   9.723   9.174   7.200 -0.7940  0.0122 -0.2255
16543SOL    HW151397   9.738   9.119   7.123 -0.9117 -1.3541  0.6924
16543SOL    HW251398   9.703   9.112   7.270  0.7595  1.1257  1.2686
16544SOL     OW51399   3.032   2.725   5.785 -0.2343  0.2444  0.4958
16544SOL    HW151400   3.017   2.648   5.839 -0.6394  0.0198  0.0719
16544SOL    HW251401   3.113   2.762   5.819  0.9509 -1.3673 -0.4121
16545SOL     OW51402   2.068   5.600   6.050  0.2748  0.1010 -0.3330
16545SOL    HW151403   2.114   5.669   6.098  0.1732  1.3116 -1.9164
16545SOL    HW251404   1.981   5.597   6.091  0.4460  0.5627  0.0753
16546SOL     OW51405   4.329   2.922   6.899  0.0332  0.6150 -0.2734
16546SOL    HW151406   4.255   2.872   6.936 -0.5715  2.9258  1.9906
16546SOL    HW251407   4.400   2.908   6.961  1.0489 -0.3588 -1.6222
16547SOL     OW51408   7.622   1.006   6.731 -0.4598 -0.5833  0.5438
16547SOL    HW151409   7.538   0.962   6.715  0.7876 -1.9689 -3.5530
16547SOL    HW251410   7.600   1.099   6.735 -2.1657 -0.8347 -1.2356
16548SOL     OW51411   0.896   5.633   8.197  0.0052 -0.2926 -0.1127
16548SOL    HW151412   0.953   5.640   8.121  0.8512 -0.3420  0.4989
16548SOL    HW251413   0.882   5.724   8.225 -1.2707 -0.1917 -1.0046
16549SOL     OW51414   8.347   9.573   2.049  0.8571 -0.2900  0.4753
16549SOL    HW151415   8.339   9.567   2.144  0.0851 -0.9502  0.3796
16549SOL    HW251416   8.402   9.498   2.025 -1.0244 -1.6635  0.1856
16550SOL     OW51417   3.093   8.696   8.691 -0.0046  0.1116  0.1914
16550SOL    HW151418   3.014   8.745   8.666 -0.5197 -0.6282  0.3293
16550SOL    HW251419   3.066   8.605   8.687  0.5983 -0.1118  1.1170
16551SOL     OW51420   8.614   2.211   9.455  0.0242 -0.2319 -0.5406
16551SOL    HW151421   8.585   2.301   9.470 -1.3553 -0.1718 -3.0688
16551SOL    HW251422   8.690   2.220   9.396  0.0610 -0.7029 -0.5676
16552SOL     OW51423   7.848   1.225   5.144  1.0254  0.1578  0.2610
16552SOL    HW151424   7.871   1.287   5.213  0.7123  0.0469  0.4694
16552SOL    HW251425   7.755   1.240   5.128  1.1091  0.2294 -0.1880
16553SOL     OW51426   6.542   5.151   7.346  0.0972 -0.3030  0.5649
16553SOL    HW151427   6.511   5.128   7.433 -2.0365  0.6878  0.1245
16553SOL    HW251428   6.556   5.246   7.350 -2.0894  0.1311 -0.7031
16554SOL     OW51429   6.825   5.730   2.640 -0.0419 -0.4911  0.1684
16554SOL    HW151430   6.801   5.690   2.556 -2.3266  0.1092  0.4695
16554SOL    HW251431   6.850   5.820   2.617 -2.9250  0.4517  0.2386
16555SOL     OW51432   6.323   0.144   3.847  0.3543  0.0505 -0.0946
16555SOL    HW151433   6.278   0.179   3.925 -0.8555 -0.6520 -0.4496
16555SOL    HW251434   6.376   0.072   3.881  0.1035 -0.0288  0.1375
16556SOL     OW51435   3.782   2.819   8.980 -0.4272 -0.2561  0.0486
16556SOL    HW151436   3.773   2.755   8.910  1.2584  0.8176 -1.2469
16556SOL    HW251437   3.704   2.874   8.974 -0.8913 -0.9375 -0.1668
16557SOL     OW51438   1.322   6.993   9.169 -0.2262 -0.0523  0.3242
16557SOL    HW151439   1.349   7.024   9.255 -0.5470  1.6678 -0.1750
16557SOL    HW251440   1.230   7.016   9.163  0.1519  1.2180 -1.0566
16558SOL     OW51441   9.469   8.741   7.175 -0.1487 -0.0806 -0.2341
16558SOL    HW151442   9.541   8.718   7.233  0.2206  0.0409 -0.6351
16558SOL    HW251443   9.453   8.661   7.124 -0.2380 -0.0815 -0.2042
16559SOL     OW51444   4.070   5.901   6.786 -0.8609  0.0878  0.2581
16559SOL    HW151445   4.040   5.971   6.729  0.4384  1.4812  1.1902
16559SOL    HW251446   4.037   5.821   6.746 -0.4040  1.0296 -2.1593
16560SOL     OW51447   0.625   8.877   6.372  0.1098 -0.1549  0.1650
16560SOL    HW151448   0.662   8.947   6.319 -0.7901  0.4889  0.3595
16560SOL    HW251449   0.639   8.798   6.320  1.6819  0.0558  0.2155
16561SOL     OW51450   3.303   9.640   5.167  0.0242 -0.3061 -0.3711
16561SOL    HW151451   3.235   9.704   5.185  1.2769  0.6709  1.1810
16561SOL    HW251452   3.277   9.562   5.217 -0.2861 -0.1763 -0.3306
16562SOL     OW51453   2.837   7.006   2.667  0.7316 -0.5142 -0.3696
16562SOL    HW151454   2.792   7.078   2.712 -0.3505 -0.8877 -0.8201
16562SOL    HW251455   2.779   6.984   2.593 -0.1958 -3.3779  1.0533
16563SOL     OW51456   6.397   0.099   0.926 -0.1332 -0.3282  0.0060
16563SOL    HW151457   6.351   0.127   1.005 -2.8410 -1.7396 -0.9198
16563SOL    HW251458   6.451   0.026   0.953  4.9067  3.5348  1.8967
16564SOL     OW51459   1.641   6.537   6.039 -0.1736 -0.0915  0.9347
16564SOL    HW151460   1.624   6.456   5.990  1.1062  0.4306 -0.4583
16564SOL    HW251461   1.695   6.590   5.980 -0.6855  1.6520  1.9404
16565SOL     OW51462   3.998   0.138   7.429  0.2632  0.2425  0.3653
16565SOL    HW151463   4.034   0.204   7.489  0.2875  2.0643 -1.5419
16565SOL    HW251464   3.908   0.125   7.460  0.5086  0.5414  1.2587
16566SOL     OW51465   4.766   0.764   1.657 -1.0228  0.1645  0.1373
16566SOL    HW151466   4.687   0.768   1.603 -0.8910  0.8475 -0.0180
16566SOL    HW251467   4.835   0.739   1.595 -0.7075  1.8064 -0.2328
16567SOL     OW51468   1.277   3.195   6.156  0.0974  0.4968 -0.0868
16567SOL    HW151469   1.332   3.205   6.078  0.3179  0.5166  0.0694
16567SOL    HW251470   1.211   3.263   6.147  0.0539  0.4277 -0.3132
16568SOL     OW51471   3.255   0.064   6.229  0.3798  0.0466  0.1304
16568SOL    HW151472   3.273   0.129   6.162 -0.1320 -0.4920 -0.5385
16568SOL    HW251473   3.341   0.033   6.257  0.6233  0.9301  0.3874
16569SOL     OW51474   7.755   6.911   1.866  0.3358 -0.1797  0.1814
16569SOL    HW151475   7.711   6.984   1.822  0.4651 -0.0723  0.2304
16569SOL    HW251476   7.768   6.941   1.956  2.6589  0.7586 -0.3872
16570SOL     OW51477   6.873   3.724   3.982  0.0547 -0.4990 -0.3277
16570SOL    HW151478   6.922   3.642   3.996 -1.1774 -1.0077  1.3737
16570SOL    HW251479   6.796   3.715   4.039  0.1193  2.0370  0.2481
16571SOL     OW51480   0.712   6.748   2.453  0.2769  0.3640  0.3648
16571SOL    HW151481   0.769   6.687   2.500  1.0299 -0.8892 -2.0136
16571SOL    HW251482   0.624   6.722   2.479  0.6606 -0.2517  1.1184
16572SOL     OW51483   5.359   2.927   0.199  0.7334 -0.0234 -0.0604
16572SOL    HW151484   5.400   2.945   0.284  1.2992  0.0790 -0.3514
16572SOL    HW251485   5.326   3.013   0.170  0.5885 -0.0485  0.0306
16573SOL     OW51486   0.372   6.200   1.723 -0.5234 -0.5583  0.0496
16573SOL    HW151487   0.386   6.107   1.707  0.0684 -0.2092 -1.6980
16573SOL    HW251488   0.429   6.244   1.659 -0.1687  1.0146  1.3720
16574SOL     OW51489   8.844   8.075   5.800 -0.5732 -0.1407  0.4541
16574SOL    HW151490   8.875   8.042   5.716 -2.4746 -0.9322  0.0239
16574SOL    HW251491   8.924   8.082   5.854  0.2983 -2.6537 -0.3700
16575SOL     OW51492   8.191   7.785   6.244  0.3685  0.2607  0.5087
16575SOL    HW151493   8.099   7.812   6.238  0.6164  0.9827 -0.4617
16575SOL    HW251494   8.240   7.861   6.211  1.1285 -1.2359 -2.0903
16576SOL     OW51495   0.186   5.014   3.590  0.4296  0.4138  0.6599
16576SOL    HW151496   0.253   5.050   3.649  0.5442 -2.5500  2.5630
16576SOL    HW251497   0.126   4.968   3.648 -0.3681 -1.3173 -1.4085
16577SOL     OW51498   1.913   0.942   8.332  0.5034  0.6302  0.1081
16577SOL    HW151499   1.899   1.034   8.354 -0.8784 -0.0420  2.4261
16577SOL    HW251500   2.008   0.930   8.340  0.4249  1.1614  3.3621
16578SOL     OW51501   0.622   8.981   1.825 -0.4176  0.0954  0.2467
16578SOL    HW151502   0.613   8.971   1.730  2.1590  0.4887 -0.1026
16578SOL    HW251503   0.545   9.033   1.850 -0.6881  0.7882 -1.7665
16579SOL     OW51504   9.454   0.767   4.574 -0.5660 -0.4758 -0.2426
16579SOL    HW151505   9.463   0.685   4.622 -1.4259 -0.7972 -0.6159
16579SOL    HW251506   9.385   0.815   4.621 -1.1688 -0.6465 -0.9315
16580SOL     OW51507   1.887   0.991   1.698 -0.1009 -0.3800  0.2151
16580SOL    HW151508   1.804   1.030   1.724 -0.6716 -1.3796 -0.0692
16580SOL    HW251509   1.933   1.062   1.652 -1.1227 -0.0415 -0.3250
16581SOL     OW51510   6.276   5.377   7.347 -0.2483  0.0908 -0.0355
16581SOL    HW151511   6.311   5.390   7.435  0.1013 -1.5507  0.1056
16581SOL    HW251512   6.349   5.399   7.289  0.4956 -1.5586  0.2055
16582SOL     OW51513   5.974   4.588   4.614 -0.1733  0.0563 -0.2860
16582SOL    HW151514   6.060   4.564   4.649  0.8245  1.6073 -1.5171
16582SOL    HW251515   5.961   4.679   4.642 -1.8119 -0.3955  0.5607
16583SOL     OW51516   0.196   4.604   2.953  0.3351  0.1083  0.4932
16583SOL    HW151517   0.147   4.676   2.914  0.5738 -0.4090 -0.8407
16583SOL    HW251518   0.233   4.640   3.034  0.6136  1.5414 -0.2374
16584SOL     OW51519   1.921   7.877   0.527 -0.2179 -0.0128 -0.4649
16584SOL    HW151520   1.969   7.813   0.474  1.0418  1.2262 -0.8671
16584SOL    HW251521   1.861   7.824   0.580  0.9486 -1.5414 -0.6134
16585SOL     OW51522   4.412   1.377   1.212  0.5423 -0.0195 -0.3083
16585SOL    HW151523   4.391   1.294   1.170  1.3983 -0.5450  0.2785
16585SOL    HW251524   4.490   1.409   1.167  0.6777  0.0723 -0.0135
16586SOL     OW51525   7.031   9.224   7.693 -0.4959 -0.0944  0.4852
16586SOL    HW151526   6.987   9.150   7.734  0.6329 -1.3612 -0.4717
16586SOL    HW251527   7.111   9.237   7.745 -0.1614 -0.2555  0.0192
16587SOL     OW51528   0.478   3.584   9.500 -0.0849 -0.1923  0.5160
16587SOL    HW151529   0.510   3.495   9.517 -1.1370 -0.4946  1.0164
16587SOL    HW251530   0.557   3.638   9.497  0.4325 -0.6531  3.1753
16588SOL     OW51531   4.582   2.736   7.408 -0.0625  0.0865 -0.3214
16588SOL    HW151532   4.626   2.676   7.347  0.8500 -0.7070  1.0561
16588SOL    HW251533   4.490   2.709   7.406  0.2649 -1.1351 -0.0172
16589SOL     OW51534   1.562   2.876   7.726  0.3930 -0.7442  0.3459
16589SOL    HW151535   1.509   2.880   7.805  0.0995 -1.6260  0.2090
16589SOL    HW251536   1.613   2.796   7.736  2.1401  0.3749  0.7354
16590SOL     OW51537   1.426   8.927   6.243 -0.1292  0.5459  0.7877
16590SOL    HW151538   1.473   8.953   6.322 -1.0988  1.1820  1.1641
16590SOL    HW251539   1.364   8.861   6.272 -0.5342  0.8290  0.5787
16591SOL     OW51540   9.433   3.819   7.683  0.6484  0.1704 -0.1912
16591SOL    HW151541   9.464   3.787   7.598 -2.4764  0.3248 -1.5401
16591SOL    HW251542   9.375   3.749   7.714 -0.5184  1.3597  0.3852
16592SOL     OW51543   9.261   7.347   5.206  0.6453  0.1109 -0.0669
16592SOL    HW151544   9.223   7.427   5.170  2.3729  0.5403 -1.0296
16592SOL    HW251545   9.289   7.297   5.129  1.4658 -0.4602  0.5862
16593SOL     OW51546   8.644   6.812   1.135  0.7866  0.8338  0.3776
16593SOL    HW151547   8.739   6.812   1.122  0.9025 -1.2232  0.8788
16593SOL    HW251548   8.634   6.801   1.230  0.0518  0.3538  0.2447
16594SOL     OW51549   0.929   5.439   2.979 -0.2588 -0.0339 -0.1468
16594SOL    HW151550   0.839   5.466   2.964 -0.2898 -0.3471 -0.5702
16594SOL    HW251551   0.971   5.449   2.893  0.2472  0.6223  0.1698
16595SOL     OW51552   1.670   7.119   4.762 -0.4153 -0.1548 -0.1533
16595SOL    HW151553   1.704   7.182   4.698  0.2355 -0.6693 -0.3274
16595SOL    HW251554   1.611   7.063   4.712  0.6646 -1.0264 -0.4938
16596SOL     OW51555   2.455   3.151   7.244 -0.3249 -0.1082 -0.0003
16596SOL    HW151556   2.481   3.237   7.212  3.1715 -1.0289 -0.0332
16596SOL    HW251557   2.440   3.164   7.338  0.5760  0.4885  0.0716
16597SOL     OW51558   8.044   9.684   3.286 -0.4728  0.5168 -0.1602
16597SOL    HW151559   7.966   9.711   3.334  0.3955 -0.1650  1.7211
16597SOL    HW251560   8.041   9.589   3.285  0.2546  0.4867 -0.2108
16598SOL     OW51561   1.197   3.148   2.201 -0.4549 -0.0540 -0.3288
16598SOL    HW151562   1.272   3.139   2.260 -0.1603  3.3326  0.0308
16598SOL    HW251563   1.230   3.120   2.116  1.1836  1.0495 -0.1154
16599SOL     OW51564   1.172   7.057   1.786  0.5537 -0.5810  0.3440
16599SOL    HW151565   1.132   7.122   1.728  1.3585 -1.1800 -0.9076
16599SOL    HW251566   1.157   7.092   1.874 -1.1478  0.0890 -0.1617
16600SOL     OW51567   7.485   9.650   8.356  0.2814 -0.6162 -0.5857
16600SOL    HW151568   7.460   9.667   8.446  2.2989 -0.7593  0.0580
16600SOL    HW251569   7.463   9.558   8.342 -2.2273 -0.0033 -1.0746
16601SOL     OW51570   6.093   6.374   4.694 -0.0644  0.2620  0.0122
16601SOL    HW151571   6.082   6.344   4.784 -2.4811 -1.5116 -0.7692
16601SOL    HW251572   6.073   6.297   4.640  1.6770  1.1633 -2.0621
16602SOL     OW51573   7.311   0.895   5.474  0.4916  0.4223 -0.3762
16602SOL    HW151574   7.226   0.921   5.440 -0.8033 -1.1397  1.4875
16602SOL    HW251575   7.337   0.967   5.532  0.8610  1.2774 -1.5756
16603SOL     OW51576   0.465   2.314   6.495  0.0931 -0.4455  0.3952
16603SOL    HW151577   0.454   2.244   6.431  1.8751  0.5089 -1.0378
16603SOL    HW251578   0.414   2.285   6.571 -2.6302 -1.3720 -1.5974
16604SOL     OW51579   0.319   9.531   6.072  0.1883 -0.1327  0.3656
16604SOL    HW151580   0.411   9.506   6.062 -0.4144 -2.4252 -0.0485
16604SOL    HW251581   0.284   9.532   5.983 -0.0522  1.3884  0.4634
16605SOL     OW51582   6.009   5.684   8.918  0.3839  0.6952 -0.1574
16605SOL    HW151583   5.964   5.719   8.841 -0.1029 -2.1895 -1.3052
16605SOL    HW251584   5.941   5.681   8.986 -0.4346 -0.8120 -0.9838
16606SOL     OW51585   3.334   5.086   8.523 -0.5782  0.4835  0.2769
16606SOL    HW151586   3.369   5.161   8.476  0.9435  0.1135  0.7681
16606SOL    HW251587   3.353   5.011   8.467  1.1676  0.0527  1.3747
16607SOL     OW51588   6.732   0.760   7.950  0.4237 -0.4226  0.6845
16607SOL    HW151589   6.715   0.787   8.041  0.6831 -2.9288  1.5684
16607SOL    HW251590   6.656   0.707   7.927 -0.4420  1.5206 -1.2452
16608SOL     OW51591   4.817   6.466   3.202  0.6539  0.2019  0.1376
16608SOL    HW151592   4.734   6.436   3.239  0.1187  1.0968 -0.3009
16608SOL    HW251593   4.851   6.392   3.153 -0.3531  0.1320 -0.4613
16609SOL     OW51594   0.765   3.715   5.977  0.0274  0.3464 -0.1374
16609SOL    HW151595   0.693   3.689   6.036 -0.1742  1.2172  0.0099
16609SOL    HW251596   0.800   3.795   6.016 -0.5817  1.3468 -1.5993
16610SOL     OW51597   2.538   5.261   2.667 -0.2199 -0.4779  0.5043
16610SOL    HW151598   2.470   5.233   2.606  0.3631  0.3782 -0.5763
16610SOL    HW251599   2.620   5.236   2.624  0.2093  0.4889  0.7429
16611SOL     OW51600   1.855   8.033   5.404  0.0666 -0.4156  0.4580
16611SOL    HW151601   1.944   8.066   5.396 -0.5348  1.4318  1.0585
16611SOL    HW251602   1.817   8.046   5.317 -0.7340  2.3186  1.1435
16612SOL     OW51603   0.086   4.746   3.624  0.2898  0.4161 -0.6230
16612SOL    HW151604   0.069   4.681   3.556  0.3671  0.2876 -0.5208
16612SOL    HW251605  -0.000   4.771   3.657  0.3089 -2.0364  1.6063
16613SOL     OW51606   7.597   2.290   7.017  0.1020  0.1446 -0.0809
16613SOL    HW151607   7.655   2.305   6.942  0.7162  0.8430  0.5140
16613SOL    HW251608   7.603   2.371   7.068 -1.7627  0.4040 -0.2306
16614SOL     OW51609   9.788   7.236   6.158 -0.2558 -0.3129 -0.3400
16614SOL    HW151610   9.821   7.279   6.079 -3.1392  1.8564 -0.5445
16614SOL    HW251611   9.696   7.263   6.163 -0.3424 -0.7656  3.5126
16615SOL     OW51612   1.471   7.531   2.099 -0.0818 -0.5189  0.0372
16615SOL    HW151613   1.444   7.459   2.043 -2.2864  0.5765 -0.4124
16615SOL    HW251614   1.397   7.546   2.157  0.7743  0.6679  0.8765
16616SOL     OW51615   1.202   7.966   6.103 -0.5941  0.2678 -0.3558
16616SOL    HW151616   1.229   7.875   6.116 -1.8960 -0.3476 -1.7473
16616SOL    HW251617   1.267   8.002   6.042  0.5083  0.6092  0.9705
16617SOL     OW51618   1.732   5.733   3.089  0.2566 -0.2323  0.2639
16617SOL    HW151619   1.764   5.693   3.170  0.6417  0.2545  0.3532
16617SOL    HW251620   1.797   5.710   3.023  0.8851  0.8667  0.4740
16618SOL     OW51621   9.474   1.863   0.133 -0.1058  0.1649 -0.0398
16618SOL    HW151622   9.544   1.799   0.144  0.2395  0.4771 -0.3971
16618SOL    HW251623   9.446   1.852   0.042  0.2631  0.8319 -0.2347
16619SOL     OW51624   5.836   8.057   5.870  0.0722  0.5907 -0.4129
16619SOL    HW151625   5.889   8.084   5.944  0.4574 -2.1109  0.4226
16619SOL    HW251626   5.762   8.118   5.869  1.0286  1.8278  1.0009
16620SOL     OW51627   5.751   3.412   4.980  0.3407  0.2484 -0.2440
16620SOL    HW151628   5.838   3.452   4.976  0.8793 -0.8512  0.0110
16620SOL    HW251629   5.732   3.404   5.073  0.1319  0.1562 -0.2935
16621SOL     OW51630   1.187   8.843   8.801 -0.0275 -0.2952 -0.1034
16621SOL    HW151631   1.156   8.901   8.870  2.0286 -0.8381  1.3908
16621SOL    HW251632   1.110   8.792   8.776 -1.0082  0.4301  1.2664
16622SOL     OW51633   2.580   8.205   2.070  0.5589  0.1864 -0.7742
16622SOL    HW151634   2.547   8.218   1.981 -1.2965 -1.3247 -0.3861
16622SOL    HW251635   2.589   8.110   2.078  0.8713  0.3096  0.5925
16623SOL     OW51636   7.129   5.144   5.175  0.0028  0.4570  0.6764
16623SOL    HW151637   7.207   5.137   5.229  0.9169  1.8543 -0.3772
16623SOL    HW251638   7.148   5.215   5.114 -0.9926 -0.9562 -1.4181
16624SOL     OW51639   2.302   9.676   2.527  0.3824  0.3332  0.1060
16624SOL    HW151640   2.287   9.631   2.444  0.5282 -0.7300  0.6403
16624SOL    HW251641   2.258   9.621   2.592  0.8101  0.8126  0.8136
16625SOL     OW51642   8.121   1.226   8.464 -0.4288  0.1351  0.4061
16625SOL    HW151643   8.184   1.223   8.536  0.9861 -2.2536 -0.8351
16625SOL    HW251644   8.110   1.320   8.446  0.9291  0.6919  2.1887
16626SOL     OW51645   9.307   4.408   6.757 -0.1387  0.0968  0.0182
16626SOL    HW151646   9.369   4.336   6.751  0.1696  0.4819 -2.1245
16626SOL    HW251647   9.316   4.440   6.847  0.2033 -2.0490  0.8104
16627SOL     OW51648   7.737   8.298   4.782  0.8361 -0.1745 -0.1209
16627SOL    HW151649   7.735   8.358   4.707  1.9099 -1.9159 -1.6301
16627SOL    HW251650   7.718   8.212   4.744  1.2258 -1.0853  1.6588
16628SOL     OW51651   9.071   8.806   8.726 -0.3992 -0.3737 -0.2931
16628SOL    HW151652   9.061   8.901   8.716  1.1330 -0.1339  0.2633
16628SOL    HW251653   9.012   8.782   8.797 -0.8186  0.1453 -0.4621
16629SOL     OW51654   4.800   0.459   6.166 -0.0753  0.1143 -0.4774
16629SOL    HW151655   4.895   0.459   6.174 -0.0801 -1.4532 -0.2550
16629SOL    HW251656   4.772   0.537   6.215  0.8494 -1.5673  3.0182
16630SOL     OW51657   4.420   3.966   1.430  0.4123  0.3457 -0.2544
16630SOL    HW151658   4.468   3.896   1.475  1.7696  1.2177 -0.2893
16630SOL    HW251659   4.487   4.011   1.378 -0.5461  1.3101 -0.6923
16631SOL     OW51660   2.396   1.998   6.598 -0.6085 -0.0344  0.2447
16631SOL    HW151661   2.405   2.076   6.653 -0.8447 -0.2451  0.5834
16631SOL    HW251662   2.461   2.010   6.528  0.4702 -0.2901  1.1827
16632SOL     OW51663   9.433   1.217   8.338  0.5866 -0.1617 -0.4146
16632SOL    HW151664   9.434   1.151   8.270  0.2422 -0.9823  0.3609
16632SOL    HW251665   9.354   1.269   8.320  1.1736  0.4352 -1.3700
16633SOL     OW51666   7.278   0.215   1.955  0.3321 -0.1646  0.7595
16633SOL    HW151667   7.205   0.169   1.913 -1.1959  2.0113  0.8769
16633SOL    HW251668   7.237   0.283   2.008  2.4469  1.1316  0.8749
16634SOL     OW51669   5.532   5.343   4.186 -0.1101 -0.1684  0.1838
16634SOL    HW151670   5.459   5.297   4.227 -0.6974  0.5044 -0.0905
16634SOL    HW251671   5.491   5.410   4.132  0.6752 -0.4847 -0.8444
16635SOL     OW51672   3.536   9.111   4.752 -0.0305 -0.1291 -0.4490
16635SOL    HW151673   3.450   9.073   4.737  0.6599 -2.6888  1.3221
16635SOL    HW251674   3.574   9.120   4.665 -1.3993 -0.7285 -1.1317
16636SOL     OW51675   9.783   5.986   1.252  0.1867  0.4098  0.0517
16636SOL    HW151676   9.844   5.990   1.179  0.5481  0.0056  0.3295
16636SOL    HW251677   9.781   5.894   1.278 -0.9146  0.3202 -0.2560
16637SOL     OW51678   2.478   3.158   4.566  0.0704  0.3406  0.1006
16637SOL    HW151679   2.472   3.226   4.499 -0.8944 -1.5445 -1.8651
16637SOL    HW251680   2.565   3.121   4.555  0.0782  0.3383  0.1730
16638SOL     OW51681   8.342   6.106   4.590 -0.2896  0.1628  0.0103
16638SOL    HW151682   8.279   6.054   4.640  0.0451 -0.4370 -0.1877
16638SOL    HW251683   8.362   6.180   4.647  0.0481 -0.4843  0.7588
16639SOL     OW51684   1.720   8.640   8.245  0.2133  0.0619  0.0884
16639SOL    HW151685   1.799   8.608   8.290 -1.2827 -0.9482  2.1775
16639SOL    HW251686   1.728   8.735   8.250  1.3907 -0.0129  0.0743
16640SOL     OW51687   5.176   8.142   8.021 -0.2950  0.1679  0.0291
16640SOL    HW151688   5.224   8.157   7.939  0.4572  1.3587  0.6560
16640SOL    HW251689   5.144   8.052   8.015  1.5730 -0.4825 -0.6335
16641SOL     OW51690   0.302   3.469   5.498 -0.4956 -0.5646 -0.0939
16641SOL    HW151691   0.345   3.413   5.563  1.5320  0.5402 -0.4169
16641SOL    HW251692   0.342   3.446   5.415 -1.7521 -0.6691 -0.6873
16642SOL     OW51693   6.213   7.307   5.437  0.0997  0.1642  0.2056
16642SOL    HW151694   6.132   7.286   5.390  0.9024  0.4569 -1.3760
16642SOL    HW251695   6.282   7.269   5.383  1.0131 -0.5453  1.7967
16643SOL     OW51696   4.517   2.832   5.636 -0.4503  0.0254 -0.1110
16643SOL    HW151697   4.439   2.837   5.581  0.2092 -1.7142 -1.2922
16643SOL    HW251698   4.590   2.851   5.577  0.1678 -0.2537  0.5380
16644SOL     OW51699   3.217   5.800   8.896  0.0671 -0.5931 -0.1857
16644SOL    HW151700   3.285   5.854   8.935  0.0319 -0.8264  0.2072
16644SOL    HW251701   3.203   5.837   8.809  0.1088 -0.0337  0.0440
16645SOL     OW51702   2.323   4.570   3.081  0.4047  0.0043 -0.0660
16645SOL    HW151703   2.232   4.563   3.111  0.7866 -0.6418  1.0229
16645SOL    HW251704   2.343   4.663   3.085 -0.8708  0.4393 -2.4340
16646SOL     OW51705   4.948   6.317   1.285 -0.9981 -0.2284  0.2662
16646SOL    HW151706   4.918   6.233   1.250 -0.5205 -0.2573 -0.0766
16646SOL    HW251707   5.041   6.304   1.303 -1.1683 -0.1056  1.2474
16647SOL     OW51708   0.994   3.470   0.573  0.3060 -0.2835  0.3079
16647SOL    HW151709   0.937   3.397   0.550  0.8269 -0.3172 -0.9542
16647SOL    HW251710   1.062   3.431   0.629 -0.6609 -0.3160  1.4902
16648SOL     OW51711   6.619   5.425   8.690 -0.1223 -0.2965 -0.1947
16648SOL    HW151712   6.703   5.383   8.673 -0.6948 -2.0010  0.8984
16648SOL    HW251713   6.632   5.516   8.664  2.3395 -0.2833  0.8146
16649SOL     OW51714   6.729   3.808   5.487 -0.0376 -0.4709  0.3549
16649SOL    HW151715   6.704   3.900   5.494  1.5149 -0.0076  0.1771
16649SOL    HW251716   6.713   3.786   5.396  0.7488 -0.0058  0.0971
16650SOL     OW51717   9.249   8.961   4.542 -0.5663 -0.9017 -0.7352
16650SOL    HW151718   9.291   8.917   4.616 -2.5260  0.4012  1.3067
16650SOL    HW251719   9.215   8.890   4.487 -0.5129 -1.9255  0.5120
16651SOL     OW51720   7.682   6.787   0.855 -0.2635 -0.0864 -0.0416
16651SOL    HW151721   7.638   6.713   0.898  1.2332 -0.9727  0.0204
16651SOL    HW251722   7.681   6.764   0.762 -0.0082 -0.0584 -0.0500
16652SOL     OW51723   0.841   6.007   0.774 -1.3527  0.6205  0.1482
16652SOL    HW151724   0.765   6.033   0.825 -1.3930  0.1558  0.3298
16652SOL    HW251725   0.894   5.955   0.834  0.5913  3.3087  0.9815
16653SOL     OW51726   4.597   6.027   0.580  0.2615  0.3688 -0.7111
16653SOL    HW151727   4.565   5.953   0.529  0.3149  0.5682 -1.0335
16653SOL    HW251728   4.535   6.097   0.562  1.0887  0.8827 -1.6600
16654SOL     OW51729   6.976   3.482   6.648  0.2437  0.2561  0.1820
16654SOL    HW151730   7.001   3.527   6.729 -0.9425  1.0797  0.1131
16654SOL    HW251731   6.894   3.438   6.670  1.2654 -1.7715  0.1839
16655SOL     OW51732   8.094   0.022   9.700 -0.2920  0.8310 -0.1157
16655SOL    HW151733   8.145   0.073   9.637  1.7223  1.7115  2.0920
16655SOL    HW251734   8.020   0.078   9.722  0.4832  1.7168  0.3163
16656SOL     OW51735   3.960   7.440   1.841 -0.0890 -1.2610 -0.1790
16656SOL    HW151736   3.894   7.378   1.872 -1.9957  0.4179 -0.6548
16656SOL    HW251737   3.947   7.518   1.894  0.6452 -0.4530 -1.1435
16657SOL     OW51738   0.361   0.641   8.190 -1.0346  0.3144 -0.0634
16657SOL    HW151739   0.291   0.662   8.252 -0.4207  0.0745  0.7250
16657SOL    HW251740   0.341   0.553   8.159 -1.4692  0.5242 -0.3970
16658SOL     OW51741   7.005   9.432   0.732 -0.3357 -0.0363  0.1869
16658SOL    HW151742   7.092   9.449   0.767 -0.4512  0.0789  0.4191
16658SOL    HW251743   6.998   9.491   0.657  0.5239 -1.4303 -1.0346
16659SOL     OW51744   9.292   3.582   7.750  0.1257  1.3726 -0.0406
16659SOL    HW151745   9.258   3.495   7.773 -0.1290  0.5938 -2.9213
16659SOL    HW251746   9.365   3.596   7.810  3.1013 -2.8864 -2.1484
16660SOL     OW51747   2.487   4.812   0.874  0.0908 -0.0764 -0.1589
16660SOL    HW151748   2.496   4.755   0.950  0.2867 -1.3078 -1.0749
16660SOL    HW251749   2.551   4.780   0.812 -0.9247  0.0879 -1.3328
16661SOL     OW51750   0.048   6.866   9.081  0.0347 -0.4190  0.2836
16661SOL    HW151751   0.084   6.952   9.105  1.2912 -1.3052  1.7041
16661SOL    HW251752   0.038   6.870   8.986  2.6122  0.3871 -0.0295
16662SOL     OW51753   8.529   6.670   8.008 -0.3015 -0.7114  0.8907
16662SOL    HW151754   8.438   6.647   8.027 -0.7212  0.6238  0.6228
16662SOL    HW251755   8.536   6.662   7.913 -1.5678  3.6809  0.2300
16663SOL     OW51756   5.134   9.152   3.003  0.2647 -0.2354  0.0335
16663SOL    HW151757   5.173   9.239   2.998 -1.6332  0.6090 -1.5947
16663SOL    HW251758   5.208   9.093   3.011  1.6358  1.4771  0.7060
16664SOL     OW51759   0.903   3.221   7.736  0.1263 -0.1626  0.9550
16664SOL    HW151760   0.903   3.128   7.759 -0.1070 -0.1110  1.1688
16664SOL    HW251761   0.972   3.259   7.790  0.6167 -0.3148  0.4383
16665SOL     OW51762   3.040   8.612   4.819  0.6256  0.0174 -0.5251
16665SOL    HW151763   3.046   8.575   4.907  2.3041  0.6414 -0.3288
16665SOL    HW251764   2.948   8.601   4.794 -0.1631  0.8565  1.7465
16666SOL     OW51765   4.986   7.115   4.100 -0.6243 -0.3064  0.2679
16666SOL    HW151766   5.010   7.175   4.029 -1.7658 -0.7810 -0.5619
16666SOL    HW251767   4.957   7.036   4.055 -0.0491 -1.1359  1.3211
16667SOL     OW51768   4.044   8.495   9.800 -0.2427 -0.3342 -0.1955
16667SOL    HW151769   4.059   8.458   9.714 -0.3022 -1.6074  0.3201
16667SOL    HW251770   4.080   8.584   9.795  2.1992 -1.2660 -0.7609
16668SOL     OW51771   2.906   8.676   2.553 -0.3236 -0.1154  0.2889
16668SOL    HW151772   2.962   8.738   2.507 -1.3577  1.3334  0.8926
16668SOL    HW251773   2.837   8.731   2.591 -2.1027 -1.7965 -0.3718
16669SOL     OW51774   3.825   6.255   6.551  0.5464 -0.6492 -0.0614
16669SOL    HW151775   3.859   6.333   6.595 -0.2104 -0.6774  0.5967
16669SOL    HW251776   3.901   6.196   6.546  0.8003 -0.3999  0.6482
16670SOL     OW51777   7.913   7.454   0.474 -0.1427  0.1084 -0.5159
16670SOL    HW151778   7.838   7.446   0.532  0.6226 -2.0972  0.2757
16670SOL    HW251779   7.892   7.398   0.399  1.0740 -1.4642  0.2299
16671SOL     OW51780   9.729   2.093   7.735 -0.3875 -0.2281  0.0555
16671SOL    HW151781   9.778   2.038   7.674 -1.5952  0.2607 -1.4238
16671SOL    HW251782   9.680   2.031   7.789 -0.2323 -0.6591 -0.2894
16672SOL     OW51783   5.669   6.571   1.622 -0.0854  0.2721 -0.6198
16672SOL    HW151784   5.737   6.512   1.589 -1.2166 -1.9501  0.7234
16672SOL    HW251785   5.682   6.570   1.717  1.1088  3.9306 -0.5935
16673SOL     OW51786   6.814   9.783   4.389 -0.0614  0.3937  0.0601
16673SOL    HW151787   6.846   9.796   4.478 -0.2197  1.2158  0.0047
16673SOL    HW251788   6.729   9.827   4.386 -0.7035 -0.8211 -0.1158
16674SOL     OW51789   8.679   4.706   4.966  0.3855 -0.0035 -0.0498
16674SOL    HW151790   8.739   4.775   4.994  1.0425 -0.2859 -0.7344
16674SOL    HW251791   8.713   4.676   4.882 -0.6029 -0.3105 -0.3622
16675SOL     OW51792   7.407   4.404   5.348  0.4167  0.2065  1.1057
16675SOL    HW151793   7.419   4.498   5.361 -0.7557  0.1587  3.0095
16675SOL    HW251794   7.316   4.388   5.373 -0.9623 -0.7981 -3.5351
16676SOL     OW51795   4.520   7.539   8.592  0.1024 -0.1383 -0.2132
16676SOL    HW151796   4.561   7.457   8.566 -2.0028 -1.0354 -0.9355
16676SOL    HW251797   4.505   7.530   8.686  1.4686  0.1965  0.0579
16677SOL     OW51798   2.528   7.703   2.965  0.0441  0.1225  0.1082
16677SOL    HW151799   2.467   7.744   2.904  0.8139  2.3268  0.7218
16677SOL    HW251800   2.606   7.758   2.962  1.0451 -1.1543  1.2395
16678SOL     OW51801   1.346   5.795   9.826  0.0367 -0.4404  0.1264
16678SOL    HW151802   1.330   5.889   9.836 -0.1968 -0.3466 -1.0033
16678SOL    HW251803   1.350   5.762   9.916 -1.2247  0.4175  0.5309
16679SOL     OW51804   6.037   0.382   3.414  0.1065 -0.0149  0.2528
16679SOL    HW151805   6.002   0.427   3.336  0.1529 -1.8255 -0.8636
16679SOL    HW251806   6.072   0.453   3.468 -1.3719  1.4589 -0.6052
16680SOL     OW51807   4.570   5.710   6.880  0.0295 -1.0735  0.0899
16680SOL    HW151808   4.541   5.791   6.838  0.0997 -1.5523 -0.9158
16680SOL    HW251809   4.612   5.660   6.810  1.6696 -1.1979  1.0839
16681SOL     OW51810   9.289   9.757   0.704 -0.2427 -0.5761 -0.1702
16681SOL    HW151811   9.251   9.841   0.677  1.3285  0.2175  0.0033
16681SOL    HW251812   9.334   9.726   0.626  0.6800 -0.3714  0.2677
16682SOL     OW51813   7.325   3.140   9.424 -0.0525 -0.1535 -0.5161
16682SOL    HW151814   7.336   3.063   9.480  1.2096  1.1594  1.1629
16682SOL    HW251815   7.299   3.105   9.339 -0.0717 -2.3727  0.3481
16683SOL     OW51816   4.840   0.431   2.282  0.3497  0.1469 -0.7986
16683SOL    HW151817   4.828   0.443   2.188  1.3415 -0.8643 -1.0685
16683SOL    HW251818   4.929   0.460   2.299  0.7615 -1.2463 -0.4714
16684SOL     OW51819   6.555   0.033   4.411 -0.4058  0.1142 -0.4992
16684SOL    HW151820   6.524   0.081   4.334  1.6743  0.7842 -0.9646
16684SOL    HW251821   6.517   0.082   4.485 -1.1427  0.3854 -1.0401
16685SOL     OW51822   8.431   3.725   4.782  0.3737  0.2689 -0.1472
16685SOL    HW151823   8.488   3.655   4.813  0.2557 -0.3892 -1.3877
16685SOL    HW251824   8.477   3.762   4.707 -0.1518  0.7059 -0.2576
16686SOL     OW51825   9.195   6.603   9.147 -0.3384  0.5482  0.6259
16686SOL    HW151826   9.286   6.627   9.126 -0.8760  1.7194 -0.5566
16686SOL    HW251827   9.162   6.678   9.197 -0.9319  0.5772  0.1974
16687SOL     OW51828   9.053   9.311   7.965 -0.3207  0.3961  0.2004
16687SOL    HW151829   9.136   9.358   7.953 -0.1429  0.0719  0.1349
16687SOL    HW251830   9.022   9.338   8.052  0.4366 -0.3537  0.7242
16688SOL     OW51831   7.267   1.442   6.110  0.1210 -0.0286 -0.0756
16688SOL    HW151832   7.320   1.519   6.092  0.0317  0.5458  1.9228
16688SOL    HW251833   7.260   1.397   6.025  0.1443  2.1523 -1.3070
16689SOL     OW51834   3.972   4.806   9.403  0.2612  0.7941  0.0909
16689SOL    HW151835   3.924   4.851   9.333 -0.2864 -0.2555 -0.2480
16689SOL    HW251836   3.944   4.848   9.483 -1.9455 -0.3050 -0.0077
16690SOL     OW51837   9.632   9.161   7.829  0.0901 -0.2752  0.0867
16690SOL    HW151838   9.595   9.074   7.815 -1.3820  0.4863 -1.0252
16690SOL    HW251839   9.673   9.184   7.746  0.8205 -0.0518  0.4966
16691SOL     OW51840   4.003   0.311   5.890  0.1165  0.2237  0.6773
16691SOL    HW151841   4.001   0.379   5.957  0.2127 -1.1167  2.0963
16691SOL    HW251842   3.911   0.288   5.876  0.1367  0.0358  0.8488
16692SOL     OW51843   2.816   1.500   0.466  0.1432 -0.0480 -0.1020
16692SOL    HW151844   2.860   1.419   0.490  0.1164  0.1320  0.5843
16692SOL    HW251845   2.782   1.534   0.549 -0.1878  0.4602 -0.4412
16693SOL     OW51846   7.722   7.506   8.693  0.1469 -0.0473  0.0231
16693SOL    HW151847   7.802   7.526   8.741  1.0118 -1.9126 -0.5528
16693SOL    HW251848   7.739   7.535   8.604  0.6531 -1.4646 -0.3629
16694SOL     OW51849   7.335   9.323   2.008 -0.1363  0.0432  0.2683
16694SOL    HW151850   7.412   9.314   2.065  0.3214  1.3780 -0.1047
16694SOL    HW251851   7.262   9.335   2.068 -0.0671 -1.2084  0.6274
16695SOL     OW51852   9.309   4.548   1.888 -0.1642  0.5879 -0.8488
16695SOL    HW151853   9.219   4.576   1.874 -0.4503  1.2571  1.8727
16695SOL    HW251854   9.303   4.480   1.954  1.3663  1.0429 -0.2075
16696SOL     OW51855   9.564   6.835   3.895 -0.3746  0.6204 -0.2838
16696SOL    HW151856   9.535   6.836   3.804  0.5355  0.8484 -0.5826
16696SOL    HW251857   9.515   6.906   3.937 -0.2836  0.9692 -0.7602
16697SOL     OW51858   5.964   6.811   4.154 -0.2554  0.1787 -0.0445
16697SOL    HW151859   5.918   6.887   4.189 -0.5721  0.2740 -0.6507
16697SOL    HW251860   5.971   6.829   4.060  2.1710  0.7750  0.1792
16698SOL     OW51861   2.592   5.825   0.744 -0.2052 -0.2127  0.6025
16698SOL    HW151862   2.666   5.886   0.748 -0.9793  0.7692  0.2948
16698SOL    HW251863   2.601   5.771   0.823  0.7608 -0.0240  0.6350
16699SOL     OW51864   4.054   4.791   5.597 -0.1619 -0.1263  0.1341
16699SOL    HW151865   4.011   4.848   5.661 -1.1239  0.4931 -1.0233
16699SOL    HW251866   4.043   4.702   5.633 -0.2401  0.2532  1.0717
16700SOL     OW51867   0.262   7.477   4.493 -0.4206 -0.2635  0.4039
16700SOL    HW151868   0.236   7.520   4.575 -2.4602  1.5828 -1.0660
16700SOL    HW251869   0.203   7.515   4.427  0.9821 -1.8281 -1.8913
16701SOL     OW51870   4.272   7.495   3.714  0.7913  0.2171  0.5678
16701SOL    HW151871   4.316   7.495   3.798  0.2849 -2.1790  0.9153
16701SOL    HW251872   4.326   7.439   3.658 -1.0133 -1.7095  0.6191
16702SOL     OW51873   8.217   7.069   0.114 -0.2262 -0.6086 -0.5141
16702SOL    HW151874   8.211   6.998   0.179 -1.7370  0.3213  0.4189
16702SOL    HW251875   8.224   7.149   0.166 -0.0082  0.0447 -1.5241
16703SOL     OW51876   3.590   2.911   0.072  0.0214 -0.3997  1.0037
16703SOL    HW151877   3.676   2.926   0.112  0.4200 -0.3359  0.1597
16703SOL    HW251878   3.584   2.816   0.064  2.7580 -0.5186 -4.4017
16704SOL     OW51879   6.444   9.122   4.112  0.2871 -0.2187  0.1911
16704SOL    HW151880   6.468   9.030   4.124 -1.2748 -0.5633  0.9059
16704SOL    HW251881   6.473   9.165   4.192 -1.4525 -0.6535  1.0986
16705SOL     OW51882   9.756   8.818   1.216 -0.5998 -0.4218  0.0979
16705SOL    HW151883   9.710   8.740   1.246 -0.7547 -0.3834 -0.0331
16705SOL    HW251884   9.848   8.794   1.217 -0.7089 -0.9544 -0.9121
16706SOL     OW51885   2.622   5.585   3.080 -0.1472  0.4597 -0.3014
16706SOL    HW151886   2.594   5.662   3.129  1.8327  0.8480  0.3175
16706SOL    HW251887   2.676   5.620   3.008 -0.9792 -0.2443 -1.3067
16707SOL     OW51888   9.192   8.469   9.456 -0.4536 -0.7395 -0.1136
16707SOL    HW151889   9.157   8.541   9.403 -1.3171 -0.4424  0.8237
16707SOL    HW251890   9.268   8.438   9.406  0.3079  1.1851 -0.2764
16708SOL     OW51891   0.475   9.283   5.494  0.3009  0.4338 -0.7989
16708SOL    HW151892   0.504   9.360   5.543 -0.0826  1.0874 -1.5845
16708SOL    HW251893   0.416   9.317   5.427 -1.1413 -0.6979 -0.1680
16709SOL     OW51894   3.063   6.256   4.358  0.2116  0.3970  0.4102
16709SOL    HW151895   3.024   6.303   4.284 -0.2980 -0.2863  0.2349
16709SOL    HW251896   3.028   6.168   4.352  2.7197 -0.6338 -0.4820
16710SOL     OW51897   1.508   3.805   1.570  0.5267  0.5125 -0.1889
16710SOL    HW151898   1.434   3.854   1.606  0.4168 -0.2828  0.7070
16710SOL    HW251899   1.584   3.841   1.614  0.4637  0.0036  0.3418
16711SOL     OW51900   4.200   1.997   4.232  0.0627  0.9761  0.6020
16711SOL    HW151901   4.238   2.028   4.314  0.8722  1.7133 -0.0291
16711SOL    HW251902   4.138   2.066   4.206 -1.0432  0.2215  1.1445
16712SOL     OW51903   3.080   5.926   4.144  0.1585  0.4343  0.2836
16712SOL    HW151904   3.147   5.943   4.210  0.6270 -0.7021  0.1273
16712SOL    HW251905   3.041   6.011   4.126  1.8407  1.1969  0.0831
16713SOL     OW51906   8.347   5.456   3.202 -0.0267 -0.1549  0.1982
16713SOL    HW151907   8.270   5.408   3.232 -0.2375 -0.1732 -0.3633
16713SOL    HW251908   8.313   5.542   3.176  0.1078 -0.2242 -0.2216
16714SOL     OW51909   1.818   5.534   6.191 -0.0240 -0.0553  0.1435
16714SOL    HW151910   1.752   5.556   6.125 -2.4548 -2.5649  1.5266
16714SOL    HW251911   1.778   5.560   6.274  2.3965  1.7798  0.8552
16715SOL     OW51912   3.631   5.688   2.275 -0.2997 -0.2653  0.4680
16715SOL    HW151913   3.705   5.672   2.217 -0.9366 -1.8573  0.0221
16715SOL    HW251914   3.667   5.679   2.363  0.3028  0.3719  0.2956
16716SOL     OW51915   2.395   8.857   1.778 -0.0730  0.8220 -0.0507
16716SOL    HW151916   2.372   8.889   1.691  0.7367 -0.5082 -0.7883
16716SOL    HW251917   2.367   8.766   1.779  2.1619  0.0832  0.1487
16717SOL     OW51918   4.152   7.808   0.967  0.3129 -0.2026  0.2483
16717SOL    HW151919   4.219   7.871   0.941  1.2160 -1.0998  0.2838
16717SOL    HW251920   4.196   7.723   0.959 -0.1193 -0.6874  2.3432
16718SOL     OW51921   1.340   1.508   8.176 -0.1858 -0.0128  0.8203
16718SOL    HW151922   1.375   1.596   8.165 -0.6599  0.2525  1.3947
16718SOL    HW251923   1.355   1.487   8.268 -2.2255  0.4338  1.3109
16719SOL     OW51924   6.065   9.733   6.692  0.3887 -0.3273 -0.2564
16719SOL    HW151925   6.094   9.761   6.605 -0.1735 -0.0570 -0.3646
16719SOL    HW251926   6.096   9.801   6.751 -1.6921  1.0470 -0.6225
16720SOL     OW51927   5.215   3.477   9.514  0.1243  0.2202 -0.8536
16720SOL    HW151928   5.210   3.571   9.529  1.4671  0.6328 -2.6214
16720SOL    HW251929   5.131   3.455   9.474 -0.8126  0.3328  0.9668
16721SOL     OW51930   1.954   8.844   6.217 -0.1657 -0.1600 -0.3005
16721SOL    HW151931   1.889   8.779   6.192 -1.3743  1.0554 -0.4109
16721SOL    HW251932   1.906   8.908   6.270  0.8819  0.8554 -0.5158
16722SOL     OW51933   2.576   2.663   8.316 -1.5471 -0.0868  0.1835
16722SOL    HW151934   2.603   2.584   8.364  2.2915 -0.4519 -2.1233
16722SOL    HW251935   2.584   2.639   8.224 -1.5126  2.6307 -0.6014
16723SOL     OW51936   1.946   4.602   0.254 -0.0324  0.1987 -0.3529
16723SOL    HW151937   2.031   4.558   0.258 -1.0758 -2.2184 -2.5794
16723SOL    HW251938   1.945   4.646   0.169 -0.8703  0.5255 -0.1893
16724SOL     OW51939   6.420   1.174   4.161  0.1181  0.0546  0.6280
16724SOL    HW151940   6.361   1.109   4.124 -1.0121  1.9520 -1.1211
16724SOL    HW251941   6.397   1.178   4.254 -0.0468 -1.7033  0.6824
16725SOL     OW51942   2.227   5.151   4.257 -0.1387 -0.1456  0.4753
16725SOL    HW151943   2.314   5.129   4.224 -0.3179 -1.8314  1.0745
16725SOL    HW251944   2.170   5.080   4.227 -1.1067  0.3904  0.9874
16726SOL     OW51945   3.070   6.923   8.538 -0.3347 -0.4606  0.2055
16726SOL    HW151946   3.083   6.909   8.444 -0.0132 -1.1413  0.3436
16726SOL    HW251947   3.001   6.862   8.562 -0.7913  0.0932  0.3145
16727SOL     OW51948   8.721   5.178   4.880 -0.9626  0.6147 -0.4930
16727SOL    HW151949   8.792   5.155   4.820 -2.6267 -0.5892 -2.1146
16727SOL    HW251950   8.657   5.224   4.825 -2.4208 -0.2841  0.3923
16728SOL     OW51951   8.722   9.830   8.115 -0.3511  0.0966  0.2309
16728SOL    HW151952   8.785   9.831   8.043 -0.8617  5.7981 -0.5927
16728SOL    HW251953   8.777   9.822   8.194  0.8489  0.0831 -0.5745
16729SOL     OW51954   8.175   2.638   7.913  0.1732  0.1216  0.5917
16729SOL    HW151955   8.250   2.658   7.857 -0.5959  0.4997 -0.3345
16729SOL    HW251956   8.119   2.716   7.907 -0.3530 -0.2058  1.1627
16730SOL     OW51957   4.312   8.904   5.957  0.6220 -0.6162 -0.1120
16730SOL    HW151958   4.393   8.953   5.970 -0.3093  1.0300 -0.3175
16730SOL    HW251959   4.283   8.882   6.046  0.1693  0.7128  0.0818
16731SOL     OW51960   5.623   3.236   8.107 -0.2704 -0.1025 -0.4965
16731SOL    HW151961   5.649   3.297   8.177  1.0608 -0.3443 -0.7677
16731SOL    HW251962   5.578   3.292   8.043 -0.2147  0.3658 -0.1389
16732SOL     OW51963   5.538   4.810   2.941  0.4101  0.3076  0.2171
16732SOL    HW151964   5.448   4.786   2.965  0.7656 -0.7917  0.5191
16732SOL    HW251965   5.529   4.850   2.854 -0.2943 -0.5001 -0.1065
16733SOL     OW51966   2.319   1.773   8.858 -0.0763 -0.2313 -0.4148
16733SOL    HW151967   2.317   1.707   8.789 -2.6863 -2.8313  1.8926
16733SOL    HW251968   2.227   1.796   8.873  0.3137 -0.1905  2.5004
16734SOL     OW51969   8.331   6.767   0.549  0.6787 -0.9180 -0.7260
16734SOL    HW151970   8.264   6.730   0.606  1.1592 -1.7910 -0.7063
16734SOL    HW251971   8.407   6.710   0.560  1.3297 -0.1288 -0.9823
16735SOL     OW51972   9.357   0.499   5.207 -0.7447  0.7229  0.2989
16735SOL    HW151973   9.309   0.423   5.239 -0.1557  1.0758  2.0937
16735SOL    HW251974   9.338   0.569   5.269 -1.4162  2.1484 -1.4063
16736SOL     OW51975   5.601   1.191   3.135 -0.5850  0.2266  0.0960
16736SOL    HW151976   5.647   1.253   3.194 -1.4078  0.8602  0.0903
16736SOL    HW251977   5.666   1.123   3.118  0.0457  0.6098  0.8502
16737SOL     OW51978   3.108   8.714   1.922  0.2698 -0.0028  0.5563
16737SOL    HW151979   3.168   8.743   1.991 -0.4975 -0.7917  1.5775
16737SOL    HW251980   3.065   8.794   1.892  1.4637  0.5047  0.1541
16738SOL     OW51981   2.637   2.553   4.340  0.3388 -0.4328 -0.7295
16738SOL    HW151982   2.629   2.609   4.417  0.0352 -0.1311 -0.9796
16738SOL    HW251983   2.553   2.560   4.296  0.0873 -1.5429 -0.4637
16739SOL     OW51984   7.659   7.513   4.334 -0.7446  0.1215  0.5407
16739SOL    HW151985   7.727   7.466   4.286 -0.2944  0.3441  0.9519
16739SOL    HW251986   7.587   7.450   4.342 -1.3404  0.4581 -1.4982
16740SOL     OW51987   2.673   1.948   1.409  0.1443  0.1101 -0.1215
16740SOL    HW151988   2.616   1.872   1.402 -0.4821  0.5070  0.5658
16740SOL    HW251989   2.670   1.989   1.322 -1.4395  0.6942  0.1788
16741SOL     OW51990   3.935   3.553   4.752 -0.3138  0.4460 -0.4707
16741SOL    HW151991   3.839   3.553   4.753 -0.4064 -1.2378 -2.2617
16741SOL    HW251992   3.958   3.487   4.686  2.0843  1.1717 -0.4572
16742SOL     OW51993   0.512   0.314   0.519 -0.6204  0.2400  0.5096
16742SOL    HW151994   0.507   0.387   0.458 -1.0566 -0.0117  0.2393
16742SOL    HW251995   0.605   0.294   0.526 -0.4753  0.9705  0.7693
16743SOL     OW51996   6.200   8.252   2.082  0.5450 -0.0041 -0.4899
16743SOL    HW151997   6.219   8.343   2.100  0.4884 -0.2231  0.7866
16743SOL    HW251998   6.185   8.248   1.987  1.4392  1.1279 -0.6896
16744SOL     OW51999   3.725   6.362   9.118  0.5852  0.7644  0.0321
16744SOL    HW152000   3.663   6.425   9.082 -0.2606  0.9394  1.6904
16744SOL    HW252001   3.742   6.302   9.046  0.3441  2.0905 -1.1673
16745SOL     OW52002   3.157   5.663   9.153  0.8822 -0.4547  0.9141
16745SOL    HW152003   3.172   5.731   9.088  2.3706 -1.3909  0.2090
16745SOL    HW252004   3.063   5.646   9.150  0.5183  1.4249  0.9898
16746SOL     OW52005   7.807   7.322   3.647 -0.2860 -0.3286 -0.1651
16746SOL    HW152006   7.769   7.407   3.623  0.9917  0.0239 -1.0471
16746SOL    HW252007   7.752   7.258   3.601 -1.2056  0.0042  0.4412
16747SOL     OW52008   9.464   5.971   3.402 -0.2438 -0.3147  0.0194
16747SOL    HW152009   9.413   6.041   3.361  0.5663  0.2974  0.0450
16747SOL    HW252010   9.437   5.973   3.494 -0.9899 -0.7356 -0.1802
16748SOL     OW52011   8.869   3.757   8.692  0.4110 -0.3972 -0.1899
16748SOL    HW152012   8.891   3.824   8.756  2.2548 -0.7202 -0.4443
16748SOL    HW252013   8.891   3.674   8.735  0.3208 -0.7006 -0.7216
16749SOL     OW52014   1.686   3.552   9.042  0.2878 -0.1611  0.6982
16749SOL    HW152015   1.724   3.525   8.958  0.8513  0.1323  0.8520
16749SOL    HW252016   1.597   3.580   9.021  0.4246 -0.1009  0.1952
16750SOL     OW52017   9.063   0.328   6.811  0.4176  1.0886  0.2023
16750SOL    HW152018   9.070   0.250   6.757  2.0196  1.0231  0.4638
16750SOL    HW252019   8.971   0.329   6.840  0.3486 -0.6535  0.1424
16751SOL     OW52020   4.993   4.757   3.566  0.5267  0.1122  0.1637
16751SOL    HW152021   4.963   4.672   3.596  0.8661 -0.0606  0.0150
16751SOL    HW252022   4.941   4.775   3.488 -1.2544  1.1208  1.5061
16752SOL     OW52023   2.162   7.715   8.065  0.0751  0.1462 -0.0003
16752SOL    HW152024   2.097   7.656   8.028 -1.9302  2.5681 -0.6183
16752SOL    HW252025   2.245   7.669   8.055 -1.3717 -2.5779 -0.2685
16753SOL     OW52026   1.022   1.692   9.093  0.3483  0.1798 -0.0352
16753SOL    HW152027   0.939   1.682   9.046 -0.6681 -1.9898  2.0081
16753SOL    HW252028   0.996   1.706   9.184  2.1852 -1.5309  0.8308
16754SOL     OW52029   3.181   8.290   2.344  0.0508 -0.4803  0.3891
16754SOL    HW152030   3.253   8.263   2.401 -0.4434  1.6616  2.1744
16754SOL    HW252031   3.118   8.219   2.350 -0.1983 -0.1528  2.9973
16755SOL     OW52032   9.023   0.613   5.560 -0.8110 -0.2530 -0.0825
16755SOL    HW152033   9.026   0.531   5.610  1.0239 -2.1089 -2.9529
16755SOL    HW252034   9.114   0.642   5.555 -0.8602 -0.2928 -2.4532
16756SOL     OW52035   2.397   0.278   3.289 -0.1792 -0.0414 -0.8540
16756SOL    HW152036   2.492   0.287   3.280 -0.2396 -0.5820 -2.2530
16756SOL    HW252037   2.386   0.219   3.364  0.5359  1.1267  0.1995
16757SOL     OW52038   9.467   4.454   2.113 -0.2291  0.0613 -0.1668
16757SOL    HW152039   9.508   4.495   2.036  0.2628  0.8811  0.5144
16757SOL    HW252040   9.506   4.366   2.116  0.6691  0.4486 -0.1589
16758SOL     OW52041   0.264   0.762   7.612  0.3410  0.7203  0.4464
16758SOL    HW152042   0.235   0.825   7.678 -0.2593 -0.1415  1.0178
16758SOL    HW252043   0.283   0.682   7.661 -1.9402 -0.5629 -0.5790
16759SOL     OW52044   0.797   4.981   6.255 -0.1861 -0.5017 -0.2668
16759SOL    HW152045   0.803   4.906   6.314  0.1273  0.8592  1.5137
16759SOL    HW252046   0.704   5.004   6.256 -0.2534 -0.7535 -0.6715
16760SOL     OW52047   2.207   6.708   4.256  0.1623 -0.1286 -0.0253
16760SOL    HW152048   2.201   6.716   4.161  0.5704  2.1498  0.0853
16760SOL    HW252049   2.226   6.797   4.286  0.9050 -0.9555  2.1253
16761SOL     OW52050   1.139   6.720   3.643  0.6397 -0.2214  0.4901
16761SOL    HW152051   1.149   6.665   3.721 -1.0755 -1.6948 -0.2629
16761SOL    HW252052   1.048   6.749   3.646  0.3477 -0.8571 -1.2912
16762SOL     OW52053   9.070   8.662   6.843 -0.3457  0.5212  0.3008
16762SOL    HW152054   9.095   8.604   6.915 -2.1859 -0.0840  0.5303
16762SOL    HW252055   9.042   8.603   6.773  0.8378  1.1163 -0.7077
16763SOL     OW52056   1.775   0.844   0.430  0.0785 -0.1056 -0.0814
16763SOL    HW152057   1.692   0.832   0.477 -0.2945 -1.1697 -0.9454
16763SOL    HW252058   1.841   0.853   0.498 -0.8805  1.9440  0.6390
16764SOL     OW52059   9.017   3.246   0.686  0.5605  0.2833 -0.0400
16764SOL    HW152060   9.051   3.335   0.693 -0.4135  0.7579 -0.9511
16764SOL    HW252061   8.968   3.232   0.767  0.4206  0.7190 -0.0477
16765SOL     OW52062   2.591   7.148   4.440 -0.2299 -0.2011  0.3800
16765SOL    HW152063   2.627   7.160   4.528  0.1877 -0.8040  0.2969
16765SOL    HW252064   2.667   7.133   4.384 -0.6032 -1.8502  0.2657
16766SOL     OW52065   3.753   0.907   1.019 -0.3869 -0.5619  0.5588
16766SOL    HW152066   3.710   0.991   1.003 -0.4295 -0.5590  0.6932
16766SOL    HW252067   3.690   0.857   1.070 -0.6636 -0.9439 -0.1382
16767SOL     OW52068   6.450   4.462   5.367 -0.1290  0.2619 -0.3799
16767SOL    HW152069   6.399   4.515   5.306 -1.8286 -1.8251 -0.8770
16767SOL    HW252070   6.438   4.372   5.337  0.6443 -0.6548  1.8536
16768SOL     OW52071   0.743   3.392   0.165 -0.1522 -0.7060  0.2322
16768SOL    HW152072   0.824   3.378   0.214 -1.4561 -1.3343  2.3622
16768SOL    HW252073   0.708   3.304   0.150 -1.1632 -0.4004  0.6818
16769SOL     OW52074   1.141   5.345   5.572 -0.7240  0.0405  0.0017
16769SOL    HW152075   1.190   5.409   5.519 -2.5996  2.0900  0.6021
16769SOL    HW252076   1.208   5.302   5.625  0.5321  2.5498  0.6034
16770SOL     OW52077   2.001   8.695   5.362 -0.0558 -0.5435 -0.1642
16770SOL    HW152078   2.002   8.739   5.447 -2.9375 -2.0812  0.7914
16770SOL    HW252079   2.065   8.744   5.309 -0.4285  2.4430  1.8972
16771SOL     OW52080   5.802   6.016   7.445  1.0835 -0.4914  0.3068
16771SOL    HW152081   5.797   5.924   7.417  1.1695 -0.3113 -0.3302
16771SOL    HW252082   5.786   6.065   7.364  0.7316  0.0508  0.7058
16772SOL     OW52083   5.002   1.830   2.675 -0.0102 -0.3733 -0.1496
16772SOL    HW152084   4.975   1.872   2.757  0.4068  1.6306 -0.9589
16772SOL    HW252085   4.984   1.897   2.608  0.2954 -1.7029 -1.6041
16773SOL     OW52086   2.834   0.194   1.362 -0.4138  0.4877 -0.2461
16773SOL    HW152087   2.786   0.176   1.281  0.5389 -0.9727 -0.5216
16773SOL    HW252088   2.788   0.269   1.401 -1.7336  0.3361 -1.4306
16774SOL     OW52089   0.679   8.471   7.272 -0.1403 -0.4993 -0.0823
16774SOL    HW152090   0.736   8.544   7.250  0.0058 -1.2762 -2.7378
16774SOL    HW252091   0.644   8.492   7.358  1.6595  1.5459  0.2381
16775SOL     OW52092   8.433   1.221   9.308 -0.1965  0.1481 -0.6052
16775SOL    HW152093   8.399   1.306   9.334  0.8552  0.7405 -1.1147
16775SOL    HW252094   8.514   1.212   9.359 -1.0879 -1.2729  0.6629
16776SOL     OW52095   9.809   4.132   2.387  0.0795 -0.0654 -0.0146
16776SOL    HW152096   9.760   4.050   2.378  0.7307 -1.0240  3.5369
16776SOL    HW252097   9.830   4.137   2.480  1.9213  3.1176 -0.4578
16777SOL     OW52098   7.668   4.248   2.523  0.1579  0.0475  0.5721
16777SOL    HW152099   7.726   4.323   2.511 -1.6436  1.4099 -0.0491
16777SOL    HW252100   7.668   4.232   2.617  0.2100  1.1276  0.7636
16778SOL     OW52101   4.358   4.838   4.871  0.2457 -0.2034  0.0633
16778SOL    HW152102   4.402   4.908   4.919  0.8333 -1.2618  1.1416
16778SOL    HW252103   4.427   4.796   4.820 -0.0376 -0.1916 -0.3315
16779SOL     OW52104   2.322   0.358   5.982 -0.5216 -0.3917 -0.0603
16779SOL    HW152105   2.241   0.375   5.934 -0.5076 -2.2379 -0.8505
16779SOL    HW252106   2.386   0.418   5.944 -1.2894  0.4137 -0.0979
16780SOL     OW52107   4.107   4.164   7.480  0.5696  0.1844  0.1423
16780SOL    HW152108   4.101   4.147   7.574  0.8802 -0.2121  0.0923
16780SOL    HW252109   4.201   4.164   7.462  0.5267  0.6175 -0.1077
16781SOL     OW52110   8.734   6.332   3.800 -0.1839  0.0331 -0.0921
16781SOL    HW152111   8.826   6.338   3.774 -0.0424  1.1315  0.5981
16781SOL    HW252112   8.736   6.281   3.881 -0.0767  0.6989  0.3381
16782SOL     OW52113   3.936   4.581   3.044  0.4138  0.5856  0.1125
16782SOL    HW152114   3.940   4.515   3.113 -0.9318  0.8497  0.4692
16782SOL    HW252115   3.843   4.602   3.036  0.5573  0.7117 -1.6520
16783SOL     OW52116   0.157   2.541   6.185  0.2872 -0.2248 -0.8667
16783SOL    HW152117   0.244   2.539   6.226 -0.7565  0.8554  1.5770
16783SOL    HW252118   0.134   2.449   6.173  0.1538 -0.7102  2.2682
16784SOL     OW52119   2.233   2.207   3.913  0.2063  0.1546 -0.5388
16784SOL    HW152120   2.247   2.233   3.822  1.1843  0.8606 -0.1959
16784SOL    HW252121   2.282   2.126   3.922  1.8742  1.1737 -0.0956
16785SOL     OW52122   3.239   7.751   6.861  0.5575  0.7383  0.5539
16785SOL    HW152123   3.305   7.681   6.857 -1.7004 -1.5095 -0.9133
16785SOL    HW252124   3.191   7.733   6.941 -0.9363 -0.4228 -0.5272
16786SOL     OW52125   4.669   8.852   2.609 -0.3267 -0.6567  0.6545
16786SOL    HW152126   4.661   8.791   2.682 -1.1838  0.3779  1.4543
16786SOL    HW252127   4.586   8.900   2.608  0.4923  0.8349  0.3784
16787SOL     OW52128   0.186   8.240   5.237  0.6072 -0.1094 -0.1647
16787SOL    HW152129   0.176   8.328   5.199 -0.4066 -0.0164  0.2573
16787SOL    HW252130   0.211   8.256   5.328  1.4906 -0.2909 -0.3718
16788SOL     OW52131   3.889   6.632   7.012 -0.2897  0.1389 -0.1230
16788SOL    HW152132   3.837   6.681   7.076 -0.1719  0.4984 -0.2981
16788SOL    HW252133   3.851   6.544   7.013 -0.1819  0.0876  0.5638
16789SOL     OW52134   6.892   2.690   1.218  0.3622  0.0224  0.3588
16789SOL    HW152135   6.945   2.767   1.197  1.4443 -0.5944  0.8159
16789SOL    HW252136   6.839   2.718   1.293  0.0844  0.6076 -0.0417
16790SOL     OW52137   2.057   6.676   3.053 -0.3975 -0.4711 -0.4214
16790SOL    HW152138   2.101   6.634   2.979  2.0602  2.5402 -0.8783
16790SOL    HW252139   2.110   6.651   3.129  0.6256  1.0346 -0.5939
16791SOL     OW52140   1.690   0.596   5.238 -0.3061  0.2808 -0.3966
16791SOL    HW152141   1.620   0.547   5.195 -0.1542 -0.0753 -0.2387
16791SOL    HW252142   1.751   0.529   5.270  0.6367  0.6143 -1.4275
16792SOL     OW52143   8.551   7.817   9.794  0.1224 -0.0755  0.8325
16792SOL    HW152144   8.480   7.868   9.833 -0.2390 -2.3188  3.3498
16792SOL    HW252145   8.508   7.763   9.727 -0.3756 -0.5601  1.5262
16793SOL     OW52146   5.364   6.342   5.545  0.4302  0.2552  0.1544
16793SOL    HW152147   5.373   6.425   5.592 -1.3282  0.5436  0.0690
16793SOL    HW252148   5.418   6.281   5.595  0.5307  1.1005  1.1308
16794SOL     OW52149   1.066   7.890   1.638 -0.2416  0.2284  0.2658
16794SOL    HW152150   0.972   7.887   1.624 -0.4096 -2.5138  1.3532
16794SOL    HW252151   1.096   7.800   1.622  2.3705  1.2197 -1.0063
16795SOL     OW52152   9.118   7.354   3.794 -0.0217  0.1463  0.0845
16795SOL    HW152153   9.145   7.394   3.876  0.2770 -0.6766  0.4002
16795SOL    HW252154   9.081   7.269   3.820 -1.3320  0.5241 -0.4948
16796SOL     OW52155   8.687   0.511   1.630  0.2773  0.1093  0.0459
16796SOL    HW152156   8.733   0.574   1.575  0.9069  0.0327  0.4766
16796SOL    HW252157   8.673   0.557   1.713  1.1055 -0.4384  0.5080
16797SOL     OW52158   6.518   2.439   3.132 -0.4081  0.2207  0.1151
16797SOL    HW152159   6.559   2.380   3.068 -0.7218  1.0578 -0.8806
16797SOL    HW252160   6.451   2.385   3.174  0.7134 -0.7399  0.7413
16798SOL     OW52161   1.582   2.950   4.144 -0.5976 -0.2611  0.2120
16798SOL    HW152162   1.544   2.917   4.226  1.2494  0.5457  1.4458
16798SOL    HW252163   1.634   2.877   4.111 -0.4220 -0.2004  0.3567
16799SOL     OW52164   3.129   6.063   1.551 -0.3005 -0.1233 -0.2238
16799SOL    HW152165   3.067   5.992   1.568  0.2727 -0.9505 -1.5417
16799SOL    HW252166   3.073   6.138   1.531 -0.8891 -0.4960 -0.0264
16800SOL     OW52167   9.699   4.596   9.289  0.7361 -0.0771  0.9002
16800SOL    HW152168   9.648   4.534   9.340  1.0352  0.3214  1.7051
16800SOL    HW252169   9.635   4.659   9.257  0.2616 -1.3940 -0.8806
16801SOL     OW52170   8.237   7.812   1.650  0.4553  0.1194 -0.0799
16801SOL    HW152171   8.148   7.817   1.683 -0.9238 -1.1490 -3.2323
16801SOL    HW252172   8.249   7.892   1.599  0.6572 -0.3069 -0.7078
16802SOL     OW52173   6.492   0.179   1.518  0.4974  0.0268 -0.3820
16802SOL    HW152174   6.567   0.213   1.468 -0.1669  0.7973 -0.8731
16802SOL    HW252175   6.421   0.173   1.454 -0.8248  2.4899  0.7193
16803SOL     OW52176   9.675   9.118   2.658  0.5270  0.1558 -0.6095
16803SOL    HW152177   9.682   9.160   2.572  0.0198  1.3227 -0.1116
16803SOL    HW252178   9.629   9.036   2.641 -0.2949  0.7540 -1.3508
16804SOL     OW52179   2.198   0.453   3.507 -0.0167  0.0689 -0.0474
16804SOL    HW152180   2.197   0.506   3.587 -1.0142  0.1328 -0.0923
16804SOL    HW252181   2.151   0.373   3.531  0.6339 -0.3827 -0.2598
16805SOL     OW52182   1.330   5.500   5.993  0.2184  0.0821  0.5560
16805SOL    HW152183   1.304   5.411   5.970 -1.1950  0.1042  1.9430
16805SOL    HW252184   1.414   5.489   6.039 -0.7516 -0.7476  2.2266
16806SOL     OW52185   1.959   5.640   8.248  0.0589  0.4959  0.4547
16806SOL    HW152186   1.954   5.650   8.343 -0.8015  1.6631  0.3115
16806SOL    HW252187   2.029   5.700   8.221  2.1539 -1.7615  0.5660
16807SOL     OW52188   4.501   4.496   6.305 -0.6197 -0.0733 -0.0006
16807SOL    HW152189   4.508   4.469   6.213 -1.0036 -1.1364  0.2603
16807SOL    HW252190   4.591   4.506   6.334 -0.3924 -1.9879  0.1087
16808SOL     OW52191   9.100   8.422   6.345 -0.3534 -0.0385 -0.3346
16808SOL    HW152192   9.176   8.402   6.399 -0.8079 -1.6648 -0.2463
16808SOL    HW252193   9.064   8.503   6.383  0.2394 -0.2965  0.8065
16809SOL     OW52194   9.337   6.906   0.567  0.2690  0.0513 -0.0498
16809SOL    HW152195   9.430   6.884   0.575 -0.2432 -1.8351  1.8093
16809SOL    HW252196   9.311   6.870   0.482  1.1215  0.1383 -0.3567
16810SOL     OW52197   7.231   3.674   5.467 -0.3075  0.3919  0.2709
16810SOL    HW152198   7.142   3.681   5.502 -0.5902  1.2513 -0.5722
16810SOL    HW252199   7.274   3.755   5.497 -1.0986  2.1008 -2.7607
16811SOL     OW52200   0.534   3.565   3.109  0.2289 -0.2066  0.9313
16811SOL    HW152201   0.542   3.626   3.182  0.3910 -0.0370  0.7703
16811SOL    HW252202   0.613   3.512   3.113 -0.0736 -0.6425  1.2846
16812SOL     OW52203   4.250   7.593   9.392  0.3413  0.0946 -0.7223
16812SOL    HW152204   4.245   7.513   9.444  1.6350  0.2305 -0.3595
16812SOL    HW252205   4.297   7.567   9.313 -2.1639 -0.2706 -2.2236
16813SOL     OW52206   2.734   2.745   2.027  0.3541 -0.1779 -0.5101
16813SOL    HW152207   2.778   2.752   2.112 -0.1999 -1.0425 -0.1363
16813SOL    HW252208   2.660   2.806   2.034  1.0333  0.6962 -0.8512
16814SOL     OW52209   1.258   3.264   9.528 -0.6544 -0.5206  0.2116
16814SOL    HW152210   1.215   3.207   9.592 -1.5785  0.9485  0.9520
16814SOL    HW252211   1.351   3.242   9.536 -0.5940  0.2977  2.8376
16815SOL     OW52212   2.687   2.407   1.411 -0.2526 -0.0021  0.0218
16815SOL    HW152213   2.733   2.484   1.379  0.4168 -0.9699 -1.4599
16815SOL    HW252214   2.747   2.370   1.476  0.3762 -0.3860 -0.7579
16816SOL     OW52215   7.860   2.117   4.548  0.6968  0.3591 -0.6125
16816SOL    HW152216   7.801   2.192   4.553 -0.0611 -0.2548  0.0856
16816SOL    HW252217   7.907   2.118   4.631 -0.0028 -0.4579 -0.1832
16817SOL     OW52218   9.726   7.802   8.790 -0.1177 -0.1532  0.5866
16817SOL    HW152219   9.778   7.793   8.710  0.4285 -0.9212  1.0174
16817SOL    HW252220   9.679   7.719   8.797 -1.2109  0.4360  0.3464
16818SOL     OW52221   7.331   9.234   3.831 -0.1495  0.3747  0.1657
16818SOL    HW152222   7.319   9.140   3.846  1.3597  0.2416  0.6508
16818SOL    HW252223   7.334   9.272   3.919 -1.6204  1.0196 -0.0364
16819SOL     OW52224   3.666   8.469   5.674  0.3933  0.2109  0.1154
16819SOL    HW152225   3.742   8.489   5.727  0.3008  1.8941 -0.3238
16819SOL    HW252226   3.685   8.384   5.635  2.0757  0.6341 -0.0383
16820SOL     OW52227   0.985   3.661   4.736  0.6166  0.2681 -0.0870
16820SOL    HW152228   0.981   3.651   4.831  1.0875 -0.1852 -0.1074
16820SOL    HW252229   1.068   3.620   4.711  0.0519 -0.4680 -0.8009
16821SOL     OW52230   1.732   2.140   5.489 -0.0935 -0.0388  0.4146
16821SOL    HW152231   1.813   2.101   5.522  0.9202  2.5146  1.1688
16821SOL    HW252232   1.692   2.182   5.565 -1.3436  0.0768 -0.2658
16822SOL     OW52233   9.233   8.806   7.974 -0.8041 -0.1042  0.0443
16822SOL    HW152234   9.281   8.801   8.057  0.9470 -0.2825 -0.9308
16822SOL    HW252235   9.195   8.894   7.973 -0.0051  0.2598  0.6176
16823SOL     OW52236   2.011   1.780   0.030 -0.1590 -0.0209  0.3514
16823SOL    HW152237   2.040   1.782  -0.061  0.2938  1.4523  0.5011
16823SOL    HW252238   2.058   1.706   0.069  0.2490 -0.1712 -0.4105
16824SOL     OW52239   6.035   0.836   7.738  0.0974  0.0952 -0.1115
16824SOL    HW152240   6.108   0.791   7.780 -1.1472 -0.4996  1.5776
16824SOL    HW252241   6.045   0.928   7.763 -1.0669 -0.3573  2.3987
16825SOL     OW52242   6.142   2.370   6.851  0.6349  0.5223 -0.3501
16825SOL    HW152243   6.234   2.357   6.876  0.6794 -0.3615 -0.9348
16825SOL    HW252244   6.136   2.331   6.764 -0.4459  0.0570 -0.0708
16826SOL     OW52245   8.743   1.041   4.178  0.0619  0.3474  0.1910
16826SOL    HW152246   8.823   0.998   4.147 -1.5029 -2.4378 -0.3077
16826SOL    HW252247   8.704   1.080   4.100 -0.1388 -0.1711  0.0308
16827SOL     OW52248   4.777   0.160   0.911  0.6170 -0.2015 -0.4920
16827SOL    HW152249   4.824   0.174   0.828 -0.9390  0.6734 -1.2837
16827SOL    HW252250   4.846   0.147   0.976  1.8762 -1.5790 -2.0234
16828SOL     OW52251   2.035   4.124   0.129 -0.2352  0.0652 -0.2845
16828SOL    HW152252   1.952   4.143   0.173  0.0649 -0.1985  0.4049
16828SOL    HW252253   2.044   4.195   0.065 -0.3796  0.8190  0.5061
16829SOL     OW52254   6.622   2.495   1.053 -0.0996 -0.3221  0.6182
16829SOL    HW152255   6.617   2.550   0.975  2.6117 -1.2254 -0.3024
16829SOL    HW252256   6.613   2.556   1.126  1.7692  1.2635 -0.3808
16830SOL     OW52257   4.104   6.617   2.976  0.0252  0.5178  0.0863
16830SOL    HW152258   4.154   6.699   2.972 -1.2329  1.3299  0.4232
16830SOL    HW252259   4.149   6.558   2.916  0.0514  1.9782 -1.3843
16831SOL     OW52260   7.523   2.124   4.316 -0.4701 -0.4919 -0.0505
16831SOL    HW152261   7.595   2.061   4.306  1.1041  1.4505 -1.6711
16831SOL    HW252262   7.540   2.165   4.401  1.4458  1.1373 -1.1268
16832SOL     OW52263   5.289   7.766   3.795  0.1288  0.2035 -0.4653
16832SOL    HW152264   5.359   7.755   3.731  1.0490  0.0147  0.5451
16832SOL    HW252265   5.242   7.683   3.794 -0.2515  0.4241 -1.3371
16833SOL     OW52266   7.827   1.333   9.382 -0.2814  0.1453 -0.1068
16833SOL    HW152267   7.745   1.328   9.431  0.5498 -1.7818  1.2525
16833SOL    HW252268   7.892   1.360   9.447  0.2717  1.0715 -1.0253
16834SOL     OW52269   1.113   8.167   8.548 -0.0280 -0.4924 -0.2947
16834SOL    HW152270   1.053   8.093   8.550 -0.0179 -0.5038  1.8113
16834SOL    HW252271   1.197   8.129   8.522 -0.3794 -0.9042 -0.8537
16835SOL     OW52272   8.341   0.083   5.310 -0.1121 -0.6035  0.4992
16835SOL    HW152273   8.281   0.009   5.318  1.1396 -1.5278  1.9722
16835SOL    HW252274   8.406   0.053   5.246 -0.7377  0.0764 -0.4802
16836SOL     OW52275   8.972   0.075   9.463 -0.3192 -0.0709 -0.2155
16836SOL    HW152276   9.025   0.095   9.385  0.2390 -0.2906  0.1007
16836SOL    HW252277   8.966   0.158   9.509 -1.2347  0.2201 -0.8334
16837SOL     OW52278   3.966   7.002   8.001  0.4212  0.1946  0.0429
16837SOL    HW152279   4.026   6.991   7.927  0.5656  0.2202  0.1562
16837SOL    HW252280   3.889   7.044   7.963 -0.6573 -2.2516 -0.6658
16838SOL     OW52281   0.153   0.901   5.350 -0.5807 -0.3522 -0.2628
16838SOL    HW152282   0.227   0.928   5.405 -0.7147 -1.2545  0.3996
16838SOL    HW252283   0.193   0.853   5.278 -0.3032  1.8919 -1.7115
16839SOL     OW52284   2.862   8.169   0.182  0.3425  0.0167  0.0782
16839SOL    HW152285   2.786   8.182   0.239 -0.3138 -1.2639 -0.4652
16839SOL    HW252286   2.891   8.079   0.200  0.8821  0.0189 -0.7265
16840SOL     OW52287   8.469   7.049   6.115  0.3844 -0.1624 -0.9755
16840SOL    HW152288   8.463   7.051   6.210 -0.2739  0.6325 -1.0179
16840SOL    HW252289   8.443   6.960   6.091 -1.3402  0.1782 -0.5041
16841SOL     OW52290   1.548   5.544   8.738 -0.3275 -0.2220  0.4506
16841SOL    HW152291   1.472   5.487   8.728 -1.1541  0.7305  1.1524
16841SOL    HW252292   1.606   5.496   8.798 -1.4728  0.0917  1.8556
16842SOL     OW52293   7.322   7.320   3.563 -0.2135 -0.0334  0.1266
16842SOL    HW152294   7.308   7.394   3.623 -1.0537  0.1620 -0.2967
16842SOL    HW252295   7.319   7.359   3.476 -1.2725 -0.6413 -0.1288
16843SOL     OW52296   0.794   8.429   6.414  0.1883 -0.0496  0.7926
16843SOL    HW152297   0.826   8.345   6.382 -0.2665 -0.3914  1.2267
16843SOL    HW252298   0.857   8.455   6.480  1.1960  0.7121 -0.4313
16844SOL     OW52299   8.754   5.425   1.782  0.0086 -0.0365  0.1125
16844SOL    HW152300   8.826   5.365   1.761  1.9927  1.6139  1.8020
16844SOL    HW252301   8.744   5.418   1.877 -1.5259  0.3874  0.0074
16845SOL     OW52302   8.842   3.084   5.951  0.2729 -0.0087  0.4781
16845SOL    HW152303   8.867   3.030   6.026 -2.6679  0.2018  1.7288
16845SOL    HW252304   8.869   3.032   5.875  0.3663 -1.7963  1.6665
16846SOL     OW52305   2.791   2.963   2.418 -0.2066 -0.1187  0.5741
16846SOL    HW152306   2.725   2.998   2.478 -0.3116  1.5637 -0.4326
16846SOL    HW252307   2.866   3.021   2.430 -0.2981  0.3734 -1.0124
16847SOL     OW52308   5.879   4.650   9.089  0.1565 -0.2264  0.3196
16847SOL    HW152309   5.941   4.701   9.036 -0.5746  1.5935  1.1424
16847SOL    HW252310   5.935   4.599   9.148  0.9021 -0.3681 -0.4769
16848SOL     OW52311   3.910   9.531   6.266  0.0893 -0.6005 -0.3401
16848SOL    HW152312   3.944   9.472   6.333 -2.1094 -0.8747  0.6062
16848SOL    HW252313   3.888   9.611   6.314  0.8783  0.1633 -1.2132
16849SOL     OW52314   6.595   3.051   8.931  0.8929 -0.6256  0.2055
16849SOL    HW152315   6.622   3.139   8.954 -1.2861  0.4821 -1.1962
16849SOL    HW252316   6.570   3.011   9.014 -1.2839  1.2758  0.5592
16850SOL     OW52317   4.706   1.215   6.796 -0.2069 -0.1972 -0.2907
16850SOL    HW152318   4.768   1.143   6.788  0.9345  0.7455 -0.1942
16850SOL    HW252319   4.742   1.284   6.740 -1.7636 -0.0093 -1.1103
16851SOL     OW52320   2.294   6.685   6.519 -0.2032  0.2735 -0.2759
16851SOL    HW152321   2.387   6.680   6.543 -0.5275 -0.9145  0.9194
16851SOL    HW252322   2.256   6.605   6.557 -1.5020  0.1689 -1.7244
16852SOL     OW52323   1.749   5.378   4.339  0.1099  0.4577  0.5644
16852SOL    HW152324   1.841   5.374   4.362  0.2087  0.0167  0.1190
16852SOL    HW252325   1.710   5.301   4.380  0.2687 -0.2743 -0.6093
16853SOL     OW52326   4.555   8.435   7.969  0.1858  0.4301 -0.2805
16853SOL    HW152327   4.534   8.483   8.049  0.6491  0.3780 -0.1272
16853SOL    HW252328   4.642   8.465   7.945 -0.0320  0.5972 -0.8796
16854SOL     OW52329   6.498   2.629   5.179 -0.3251 -0.0142 -0.0417
16854SOL    HW152330   6.556   2.590   5.245 -1.5054 -1.7275  0.0711
16854SOL    HW252331   6.427   2.668   5.231 -0.9102 -0.7752 -0.2539
16855SOL     OW52332   1.639   1.734   6.362 -0.0546 -0.0865 -0.1527
16855SOL    HW152333   1.604   1.779   6.286 -2.7359 -0.7467  0.6016
16855SOL    HW252334   1.676   1.652   6.328 -1.4642 -0.4992 -0.7357
16856SOL     OW52335   3.414   0.972   2.414  0.0079  0.3757 -0.5301
16856SOL    HW152336   3.427   0.914   2.489 -1.9779  0.7625  0.1976
16856SOL    HW252337   3.497   0.972   2.368  1.2334 -0.0306  1.5687
16857SOL     OW52338   8.915   1.010   9.520 -0.5759  0.6134  0.1722
16857SOL    HW152339   8.987   1.010   9.583 -0.9784 -0.1659  0.6381
16857SOL    HW252340   8.856   1.078   9.552 -1.1519 -0.2948  1.0831
16858SOL     OW52341   3.419   3.906   7.327  0.1756 -0.6345 -0.1195
16858SOL    HW152342   3.374   3.945   7.252  0.2359 -0.4717 -0.0720
16858SOL    HW252343   3.427   3.978   7.390  0.9149 -0.5446 -0.3145
16859SOL     OW52344   5.056   4.744   3.175 -0.0338 -0.5890  0.5089
16859SOL    HW152345   5.056   4.667   3.231 -1.8018 -0.5894  0.5855
16859SOL    HW252346   5.006   4.809   3.224  0.7367  0.3322  0.0970
16860SOL     OW52347   0.273   9.422   0.568  0.5676  0.2782  0.5500
16860SOL    HW152348   0.194   9.376   0.538  0.9401 -0.8683  1.2738
16860SOL    HW252349   0.305   9.466   0.490  2.2407 -3.6611 -1.2893
16861SOL     OW52350   0.125   2.443   0.142 -0.1382 -0.2086 -0.1722
16861SOL    HW152351   0.122   2.499   0.064  1.7907  0.5284  0.2325
16861SOL    HW252352   0.033   2.420   0.158 -0.8821  1.8518 -1.0598
16862SOL     OW52353   6.658   5.447   0.278  0.0104 -0.4110  0.0745
16862SOL    HW152354   6.738   5.440   0.330 -1.0118 -0.3097  1.7383
16862SOL    HW252355   6.607   5.515   0.322 -0.8120 -0.1344 -1.2303
16863SOL     OW52356   3.268   7.125   6.964 -0.2165 -0.2884 -0.6105
16863SOL    HW152357   3.355   7.164   6.974 -0.5862  0.0324  2.0406
16863SOL    HW252358   3.207   7.198   6.976 -0.8678 -1.1760  2.3687
16864SOL     OW52359   9.096   4.691   2.924 -0.2081 -0.3950 -0.1855
16864SOL    HW152360   9.175   4.648   2.890 -0.3195 -0.4324 -0.3953
16864SOL    HW252361   9.117   4.709   3.015 -0.5319 -1.7979  0.1917
16865SOL     OW52362   2.956   6.257   5.639  0.0958 -0.4017 -0.2107
16865SOL    HW152363   3.020   6.324   5.665 -0.2370  0.2864 -1.1494
16865SOL    HW252364   3.009   6.190   5.596  0.1232  0.5302 -1.6887
16866SOL     OW52365   8.642   9.741   4.097 -0.0028  0.1640 -0.1887
16866SOL    HW152366   8.659   9.832   4.122  0.1069  0.6263 -1.8141
16866SOL    HW252367   8.670   9.690   4.173  1.6397  1.3756  0.0902
16867SOL     OW52368   6.866   4.752   6.044 -0.6411 -0.3961 -0.0225
16867SOL    HW152369   6.931   4.802   5.995  0.7487 -1.3133  0.8277
16867SOL    HW252370   6.858   4.798   6.128 -1.9656  0.3500 -0.5119
16868SOL     OW52371   7.787   2.949   7.647 -0.5126 -0.3926  0.1188
16868SOL    HW152372   7.814   2.956   7.739  0.7460 -0.4205 -0.2334
16868SOL    HW252373   7.756   3.037   7.624  0.9106  0.1187  0.0575
16869SOL     OW52374   8.331   7.836   4.983  0.0346 -0.2784  0.5020
16869SOL    HW152375   8.337   7.910   5.044  1.3984  1.5389 -1.7042
16869SOL    HW252376   8.408   7.844   4.927 -0.4897 -2.6182 -0.6810
16870SOL     OW52377   3.668   7.635   8.728 -0.0403 -0.5437  0.1961
16870SOL    HW152378   3.587   7.613   8.682  0.8804 -1.2911 -1.1419
16870SOL    HW252379   3.683   7.562   8.787  0.5310 -1.2578 -0.8032
16871SOL     OW52380   1.221   2.851   6.418 -0.1438 -0.0789  0.1476
16871SOL    HW152381   1.226   2.761   6.448  0.0935 -0.0057  0.3338
16871SOL    HW252382   1.128   2.875   6.428 -0.0125  0.0530  1.1637
16872SOL     OW52383   5.982   4.469   8.521  0.0560  0.6310  0.6109
16872SOL    HW152384   5.922   4.449   8.594 -0.5097  2.0094  0.5567
16872SOL    HW252385   6.008   4.560   8.536  0.3084  0.7839 -0.6481
16873SOL     OW52386   5.154   8.810   4.805  0.1195 -0.0378  0.0143
16873SOL    HW152387   5.205   8.883   4.839  0.3460  0.0651 -0.5306
16873SOL    HW252388   5.213   8.735   4.810 -0.7630 -0.6355  2.4314
16874SOL     OW52389   3.477   7.467   4.393 -0.1289  0.0885 -0.1658
16874SOL    HW152390   3.404   7.407   4.376  1.1059 -1.6078  0.2047
16874SOL    HW252391   3.454   7.509   4.476 -0.4007 -0.8976  0.2725
16875SOL     OW52392   8.510   5.528   2.279  0.5529 -0.4378  0.0429
16875SOL    HW152393   8.522   5.620   2.302 -0.7762 -0.3219  0.3465
16875SOL    HW252394   8.528   5.480   2.360  0.6742 -0.4003  0.0381
16876SOL     OW52395   8.505   2.718   4.645  0.0332 -0.3672  0.4208
16876SOL    HW152396   8.519   2.788   4.709 -0.7655 -1.1952  1.5480
16876SOL    HW252397   8.476   2.644   4.697 -2.5263 -0.5228 -1.0556
16877SOL     OW52398   0.452   0.233   8.307 -0.1285  0.0530 -0.3900
16877SOL    HW152399   0.547   0.219   8.311  0.0497  0.8929 -1.4291
16877SOL    HW252400   0.415   0.149   8.333  0.8988 -0.7885 -1.5505
16878SOL     OW52401   2.208   4.219   5.695 -0.2306  0.0635 -0.4736
16878SOL    HW152402   2.284   4.219   5.637  0.0024 -0.3335 -0.1745
16878SOL    HW252403   2.152   4.149   5.661  0.8101 -1.5221  0.9222
16879SOL     OW52404   3.676   0.938   2.312  0.3248  0.5630  0.5892
16879SOL    HW152405   3.757   0.981   2.288  0.3950  0.5670  0.8247
16879SOL    HW252406   3.653   0.884   2.237  1.1520 -0.3326  0.9543
16880SOL     OW52407   9.591   7.827   2.026  0.6309 -0.6820 -0.1069
16880SOL    HW152408   9.562   7.737   2.016  1.0348 -1.0195  1.5098
16880SOL    HW252409   9.510   7.877   2.041  0.1366 -0.3446 -3.1237
16881SOL     OW52410   7.158   5.372   2.011  0.0722  0.4939 -0.0499
16881SOL    HW152411   7.230   5.385   2.073 -0.2026 -2.2181  0.9928
16881SOL    HW252412   7.135   5.280   2.021 -0.8347  0.2291 -3.3146
16882SOL     OW52413   4.018   1.717   8.614  0.2289  0.1270 -0.5287
16882SOL    HW152414   3.937   1.671   8.637  0.2169 -0.3850 -1.5315
16882SOL    HW252415   4.081   1.689   8.680 -0.0489 -0.5581 -0.5478
16883SOL     OW52416   3.362   6.711   8.531  0.4668 -0.0411 -0.3317
16883SOL    HW152417   3.413   6.715   8.451  2.3382  0.4274  0.8088
16883SOL    HW252418   3.297   6.781   8.522  0.3567 -0.2929 -1.6036
16884SOL     OW52419   3.579   6.437   2.710 -0.0521  0.2318  0.0037
16884SOL    HW152420   3.642   6.459   2.778 -1.4289  2.8167  0.5736
16884SOL    HW252421   3.505   6.397   2.757  0.5836 -1.6887 -0.5224
16885SOL     OW52422   2.858   7.241   0.182 -0.0011  0.4157 -0.8457
16885SOL    HW152423   2.938   7.249   0.130 -0.6740 -1.2706 -2.2148
16885SOL    HW252424   2.787   7.251   0.119 -0.9181  1.8798  0.3489
16886SOL     OW52425   6.626   5.007   3.986  0.2778 -0.0286 -0.1125
16886SOL    HW152426   6.617   5.079   4.049  0.1281 -1.6565  1.8406
16886SOL    HW252427   6.617   4.928   4.039  1.4254 -1.5216 -2.0148
16887SOL     OW52428   4.363   1.352   3.439  0.3735  0.4302 -0.2454
16887SOL    HW152429   4.429   1.296   3.399  0.4000  1.2479 -1.3815
16887SOL    HW252430   4.359   1.323   3.530  2.3075  0.3874 -0.1342
16888SOL     OW52431   0.996   6.903   0.818 -0.0180 -0.4108  0.4056
16888SOL    HW152432   1.073   6.889   0.763 -0.1007  0.1140  0.1480
16888SOL    HW252433   1.006   6.840   0.890  2.2710  1.6161  2.0629
16889SOL     OW52434   3.745   5.169   7.318  0.3262  0.6174  0.6253
16889SOL    HW152435   3.683   5.157   7.391 -0.4723 -0.2106 -0.1673
16889SOL    HW252436   3.693   5.154   7.239  1.2419  1.2310 -0.1250
16890SOL     OW52437   0.255   4.954   6.685 -0.5392  0.2450  0.7905
16890SOL    HW152438   0.284   4.989   6.600 -2.3258 -0.2687 -0.0871
16890SOL    HW252439   0.164   4.929   6.670 -0.3313 -1.6162  2.3427
16891SOL     OW52440   0.834   9.121   2.542  0.4246  0.3899 -0.1249
16891SOL    HW152441   0.748   9.155   2.517  0.8461  3.0148  1.7022
16891SOL    HW252442   0.818   9.028   2.560 -0.8450 -0.6644 -4.9926
16892SOL     OW52443   7.835   5.114   5.694  0.2190  0.2773  0.2901
16892SOL    HW152444   7.886   5.195   5.691  0.8074 -0.0159  1.4475
16892SOL    HW252445   7.806   5.099   5.604  1.5019  0.8858 -0.2372
16893SOL     OW52446   8.548   0.829   6.570  0.3317  0.1471 -0.8240
16893SOL    HW152447   8.496   0.825   6.490  1.0127  0.0503 -1.2735
16893SOL    HW252448   8.634   0.859   6.541  0.2993  1.1101  0.0198
16894SOL     OW52449   4.662   8.472   3.724  0.1413  0.1427  0.7056
16894SOL    HW152450   4.716   8.398   3.696 -1.7418 -1.1707  0.3719
16894SOL    HW252451   4.680   8.541   3.660 -0.5505 -1.2017 -0.9905
16895SOL     OW52452   5.795   5.974   7.949 -0.4156  0.0122 -0.3383
16895SOL    HW152453   5.783   5.889   7.991 -0.0377  0.3728  0.5109
16895SOL    HW252454   5.818   5.952   7.858 -2.8510 -0.7518 -0.8371
16896SOL     OW52455   0.864   8.615   9.810 -0.0166  0.0678  0.0960
16896SOL    HW152456   0.893   8.684   9.869  1.5547 -0.3926 -0.0869
16896SOL    HW252457   0.884   8.534   9.857  1.0724 -0.3009 -0.9703
16897SOL     OW52458   1.654   4.861   6.826 -0.1712 -0.7192  0.2912
16897SOL    HW152459   1.638   4.794   6.892 -1.8049 -0.3792  0.2935
16897SOL    HW252460   1.666   4.942   6.876 -0.4978 -0.6217  0.2165
16898SOL     OW52461   3.651   3.573   4.753 -0.2255  0.4059 -0.0056
16898SOL    HW152462   3.578   3.529   4.798  0.5841 -0.7119  0.2569
16898SOL    HW252463   3.622   3.579   4.662  0.1421 -1.9041 -0.3350
16899SOL     OW52464   7.925   9.131   5.313  0.1824  0.3345  0.0279
16899SOL    HW152465   7.974   9.199   5.266 -1.2327  0.4771 -1.3483
16899SOL    HW252466   7.984   9.056   5.315  0.9190  0.8773 -0.4746
16900SOL     OW52467   1.662   4.835   9.102  0.5697  0.2186 -0.7928
16900SOL    HW152468   1.637   4.818   9.193  0.4115 -0.0111 -0.8771
16900SOL    HW252469   1.623   4.763   9.053  1.7752 -0.4034 -0.8760
16901SOL     OW52470   3.790   6.844   9.711  0.4033  0.9734  0.4067
16901SOL    HW152471   3.849   6.770   9.722 -0.1124  0.4138 -0.4977
16901SOL    HW252472   3.727   6.836   9.783 -1.2674 -1.0476 -1.1560
16902SOL     OW52473   8.832   3.917   6.627 -0.2176  0.5103 -0.5633
16902SOL    HW152474   8.811   4.010   6.614 -0.3787  0.2948 -2.0807
16902SOL    HW252475   8.898   3.898   6.560  1.8861  0.1642  1.4796
16903SOL     OW52476   8.726   0.226   3.856  0.1252 -0.2113 -0.1867
16903SOL    HW152477   8.680   0.263   3.780 -1.3053  0.7754  1.1033
16903SOL    HW252478   8.676   0.256   3.931  2.0138 -0.4125  1.2284
16904SOL     OW52479   6.280   3.417   6.081 -0.1187 -0.4229  0.0909
16904SOL    HW152480   6.189   3.387   6.080  0.2663 -1.6420 -0.2227
16904SOL    HW252481   6.278   3.499   6.130 -1.3677 -0.4848  0.1723
16905SOL     OW52482   4.036   5.228   7.313 -0.0785 -0.0275 -0.5243
16905SOL    HW152483   4.042   5.300   7.375  1.1576  1.3278 -2.1133
16905SOL    HW252484   3.943   5.224   7.289 -0.1517  1.0638 -0.4283
16906SOL     OW52485   1.389   5.057   8.410  0.3102  0.2683 -0.0823
16906SOL    HW152486   1.337   5.123   8.365 -1.0694 -0.2292  0.6953
16906SOL    HW252487   1.354   4.973   8.380  1.1896 -0.1066 -0.1091
16907SOL     OW52488   5.824   2.752   7.823 -0.9568 -0.0493  0.3021
16907SOL    HW152489   5.817   2.684   7.890  2.1403 -1.3126 -0.5084
16907SOL    HW252490   5.863   2.827   7.869  1.9378 -1.1841 -0.0801
16908SOL     OW52491   1.599   8.950   6.493  0.4001 -0.2384 -0.1825
16908SOL    HW152492   1.619   8.969   6.585  0.3333 -0.6987 -0.0737
16908SOL    HW252493   1.639   8.865   6.476  0.5348 -0.0945 -0.6226
16909SOL     OW52494   4.752   4.693   7.398 -0.2588  0.3678 -0.0047
16909SOL    HW152495   4.840   4.702   7.436 -0.2692  0.0000  0.1171
16909SOL    HW252496   4.710   4.777   7.414  0.2314  0.7092 -0.4829
16910SOL     OW52497   5.399   7.931   2.071 -0.0880  0.9781 -0.2435
16910SOL    HW152498   5.465   7.877   2.115 -1.1318 -0.2969 -0.1821
16910SOL    HW252499   5.320   7.919   2.123 -0.5688  1.9273 -0.7174
16911SOL     OW52500   2.949   1.534   0.245  0.2574  0.2613  0.1218
16911SOL    HW152501   2.897   1.515   0.323 -0.5944  1.9193  0.0134
16911SOL    HW252502   2.888   1.580   0.187  0.6958 -1.4359 -1.7962
16912SOL     OW52503   9.351   7.969   6.010  0.0207 -0.5387 -0.0277
16912SOL    HW152504   9.298   8.047   6.000  1.4963  0.6235  0.8383
16912SOL    HW252505   9.378   7.947   5.921  2.6528  2.2163 -0.0778
16913SOL     OW52506   2.211   1.433   5.214  0.1449  0.0067 -0.0579
16913SOL    HW152507   2.226   1.415   5.121  0.0961 -1.4997  0.2177
16913SOL    HW252508   2.117   1.427   5.225  0.1390  0.3149  0.0798
16914SOL     OW52509   8.707   8.722   1.451 -0.6886  0.2991 -0.3201
16914SOL    HW152510   8.763   8.780   1.401 -0.4387  0.8994  0.6383
16914SOL    HW252511   8.623   8.724   1.404 -0.2685  0.3141 -1.0870
16915SOL     OW52512   5.962   2.509   5.358 -0.0570  0.3127 -0.0148
16915SOL    HW152513   6.009   2.512   5.442 -1.2376 -1.9765  0.8162
16915SOL    HW252514   6.029   2.487   5.294  0.3808 -1.0609  0.8583
16916SOL     OW52515   5.183   1.428   1.690  0.2871 -1.0918 -0.0426
16916SOL    HW152516   5.136   1.387   1.762  0.6118  0.5879  1.1781
16916SOL    HW252517   5.116   1.474   1.640  0.5448  1.8646  2.0771
16917SOL     OW52518   7.462   1.946   2.515  0.2635 -0.2501 -0.1245
16917SOL    HW152519   7.473   1.868   2.570 -0.4121  0.0412  0.4355
16917SOL    HW252520   7.552   1.976   2.500  0.4652 -0.0899  1.2047
16918SOL     OW52521   9.847   8.468   6.724  0.0245 -0.1844 -0.2031
16918SOL    HW152522   9.785   8.397   6.739 -0.0092 -0.0958  0.0827
16918SOL    HW252523   9.793   8.547   6.724  0.0990 -0.1329 -0.2544
16919SOL     OW52524   2.968   7.956   8.461 -0.3726  0.3931 -0.0071
16919SOL    HW152525   2.961   8.029   8.399  0.5466 -0.7193 -1.4926
16919SOL    HW252526   3.030   7.896   8.420 -2.3405 -2.0334  0.3170
16920SOL     OW52527   6.855   8.291   2.445 -0.3036 -0.1362 -0.2663
16920SOL    HW152528   6.877   8.319   2.356  0.4355 -1.7537 -0.6218
16920SOL    HW252529   6.827   8.200   2.436 -2.2968  0.2938  0.8866
16921SOL     OW52530   7.368   5.059   7.112 -0.0812  0.0871  0.0122
16921SOL    HW152531   7.343   4.973   7.144  0.7202 -0.0170  0.3809
16921SOL    HW252532   7.384   5.046   7.018 -2.4955  0.4097 -0.5076
16922SOL     OW52533   4.609   6.928   0.873 -0.3737  0.3155  0.2793
16922SOL    HW152534   4.575   6.850   0.916 -1.1349  0.3030 -0.3255
16922SOL    HW252535   4.701   6.907   0.855 -0.7628 -0.7537 -0.5764
16923SOL     OW52536   3.403   8.467   5.619  0.2629  0.3574 -0.2873
16923SOL    HW152537   3.493   8.451   5.647  0.7735  0.8600 -1.5853
16923SOL    HW252538   3.404   8.451   5.525 -0.9007  0.8565 -0.3967
16924SOL     OW52539   1.321   8.190   9.590  0.4308  0.1600 -0.1593
16924SOL    HW152540   1.348   8.278   9.614 -1.5111  0.8480 -0.2999
16924SOL    HW252541   1.298   8.197   9.497 -1.4234  0.0084  0.2381
16925SOL     OW52542   5.031   6.161   7.291  0.2774  0.1561  0.2734
16925SOL    HW152543   5.100   6.222   7.316 -1.1968  2.3495 -0.6716
16925SOL    HW252544   5.035   6.158   7.196 -0.8141  0.2506  0.2065
16926SOL     OW52545   7.706   9.302   1.787  0.1023 -0.7261 -0.0033
16926SOL    HW152546   7.665   9.238   1.845 -0.2357  0.3997  1.0445
16926SOL    HW252547   7.797   9.272   1.778 -0.1999 -1.6637 -0.0146
16927SOL     OW52548   1.819   6.713   9.253 -0.3114 -0.3173 -0.1361
16927SOL    HW152549   1.902   6.741   9.291  0.1419 -1.1419 -0.4875
16927SOL    HW252550   1.753   6.765   9.299  0.5569  2.7171 -2.0106
16928SOL     OW52551   5.804   4.871   3.009  0.2659 -0.1056 -0.2019
16928SOL    HW152552   5.713   4.862   2.983 -0.0175  1.5039  0.0989
16928SOL    HW252553   5.805   4.853   3.103  0.3669 -0.6778 -0.3088
16929SOL     OW52554   6.538   9.103   5.373 -0.2755  0.0401 -0.2206
16929SOL    HW152555   6.561   9.119   5.464 -0.3294  2.2911 -0.5517
16929SOL    HW252556   6.622   9.106   5.326 -0.3490 -0.1491 -0.3641
16930SOL     OW52557   2.625   2.538   0.451  0.2731 -0.2232 -0.4218
16930SOL    HW152558   2.562   2.587   0.397  0.6943 -1.2354 -1.8990
16930SOL    HW252559   2.602   2.446   0.437  1.8196 -0.5931 -0.6972
16931SOL     OW52560   2.033   8.456   0.676  0.3614 -0.6103 -0.0291
16931SOL    HW152561   1.985   8.539   0.669 -0.4821 -0.7876  2.6320
16931SOL    HW252562   2.123   8.483   0.698 -0.1287 -0.3673  1.8094
16932SOL     OW52563   5.113   9.777   5.026  0.6114  0.2172  0.1006
16932SOL    HW152564   5.178   9.847   5.030  1.4190 -0.5562  2.0158
16932SOL    HW252565   5.133   9.730   4.946  2.1188  0.3032  0.3965
16933SOL     OW52566   5.843   3.716   4.011  0.0162  0.4853 -0.3612
16933SOL    HW152567   5.785   3.734   3.937  1.9703  1.6556 -1.7113
16933SOL    HW252568   5.795   3.652   4.064 -1.9307  0.4429 -2.0264
16934SOL     OW52569   7.637   6.471   4.743  0.3624  0.0457  0.0978
16934SOL    HW152570   7.703   6.454   4.811  1.6432 -0.4868 -1.2151
16934SOL    HW252571   7.676   6.538   4.688 -0.3539 -0.0148 -0.5002
16935SOL     OW52572   7.481   4.286   7.527 -0.2556 -0.3372 -0.6041
16935SOL    HW152573   7.474   4.370   7.482  2.1716  0.2895  0.0523
16935SOL    HW252574   7.561   4.247   7.492  1.0400 -0.4006  2.1512
16936SOL     OW52575   4.763   9.340   0.229 -0.1452 -0.2998  0.8016
16936SOL    HW152576   4.749   9.424   0.272  0.8904 -0.9248  2.4653
16936SOL    HW252577   4.778   9.279   0.301  0.6788 -1.5951 -0.4237
16937SOL     OW52578   4.213   4.342   5.282 -0.3007 -0.0798 -0.3624
16937SOL    HW152579   4.251   4.262   5.319 -0.8479 -0.2544 -0.1703
16937SOL    HW252580   4.210   4.325   5.188  1.1152  0.3742 -0.5033
16938SOL     OW52581   8.873   7.309   4.435 -0.8358 -0.1838 -0.3423
16938SOL    HW152582   8.810   7.256   4.385 -0.3201 -0.7349 -0.4208
16938SOL    HW252583   8.846   7.400   4.418 -2.0596 -0.4164  0.2264
16939SOL     OW52584   7.028   4.363   7.773  0.3127 -0.5131  0.4861
16939SOL    HW152585   7.001   4.370   7.864  1.8059 -0.3853  0.9359
16939SOL    HW252586   7.098   4.297   7.773 -0.0402 -0.9227 -0.6556
16940SOL     OW52587   7.920   9.736   4.491 -0.3794 -0.1559  0.5373
16940SOL    HW152588   7.873   9.791   4.428  0.6341 -1.5853 -1.6218
16940SOL    HW252589   8.004   9.780   4.504  0.2683 -0.9131 -0.8679
16941SOL     OW52590   8.554   9.107   5.023  0.3097  0.1448  0.8637
16941SOL    HW152591   8.592   9.024   5.052 -2.2706 -0.9728  1.3233
16941SOL    HW252592   8.509   9.085   4.942  0.8365  1.4663  0.1901
16942SOL     OW52593   7.927   0.390   6.544 -0.1200  1.1018  0.4213
16942SOL    HW152594   7.885   0.422   6.624 -0.8405  0.2923  0.3847
16942SOL    HW252595   7.945   0.298   6.562 -0.6107  0.8241 -0.4732
16943SOL     OW52596   2.203   1.458   9.113 -0.0709  0.3374  0.1512
16943SOL    HW152597   2.164   1.523   9.171  1.7248  0.9962  0.6618
16943SOL    HW252598   2.271   1.506   9.065 -0.9828 -0.3681 -1.9788
16944SOL     OW52599   0.288   7.735   1.009  0.3418  0.1792 -0.0449
16944SOL    HW152600   0.324   7.792   1.076 -1.4336 -0.0412  1.1690
16944SOL    HW252601   0.341   7.752   0.931 -0.1388  3.5072  0.2326
16945SOL     OW52602   9.172   2.966   6.475 -0.5942  0.2070 -0.0375
16945SOL    HW152603   9.235   2.973   6.403 -0.4003  0.2805  0.1370
16945SOL    HW252604   9.181   3.049   6.523 -0.4794  0.0226  0.2644
16946SOL     OW52605   3.195   8.575   1.103 -0.3052 -0.5265 -0.0394
16946SOL    HW152606   3.160   8.495   1.142 -2.6339 -0.1431 -1.1723
16946SOL    HW252607   3.195   8.639   1.174 -3.7635 -0.0403 -0.3244
16947SOL     OW52608   5.065   3.400   6.350  0.0031  0.2001 -0.1056
16947SOL    HW152609   5.104   3.464   6.410 -0.3595 -1.1633  1.6788
16947SOL    HW252610   5.011   3.344   6.406 -1.5067 -0.2983 -1.9335
16948SOL     OW52611   4.149   3.800   1.345 -0.2656 -0.1384 -0.3435
16948SOL    HW152612   4.142   3.764   1.433  0.8792  1.6761  0.5510
16948SOL    HW252613   4.220   3.864   1.350 -2.5460  2.7592 -1.5566
16949SOL     OW52614   9.250   1.513   1.280 -0.2717  0.0576  0.0093
16949SOL    HW152615   9.257   1.450   1.209  0.6016  0.9891 -0.7684
16949SOL    HW252616   9.239   1.460   1.359 -2.1969 -0.9719 -0.8919
16950SOL     OW52617   1.428   1.283   1.193 -0.3809 -0.0412 -0.0444
16950SOL    HW152618   1.417   1.188   1.194 -2.1999  0.0886 -1.6323
16950SOL    HW252619   1.340   1.318   1.207  0.2261  1.4235  0.3497
16951SOL     OW52620   8.137   5.111   4.586 -0.2515  0.1149 -0.3494
16951SOL    HW152621   8.165   5.023   4.610  0.4625 -0.5366 -3.1258
16951SOL    HW252622   8.044   5.113   4.607 -0.3830 -1.4902 -0.6118
16952SOL     OW52623   1.971   3.574   0.896  0.4972  1.1403 -0.3841
16952SOL    HW152624   2.051   3.604   0.853  1.6023 -0.4219  0.5013
16952SOL    HW252625   1.994   3.489   0.934 -1.9711 -0.0065 -1.2636
16953SOL     OW52626   0.443   0.075   3.493 -0.5522 -0.5322 -0.3681
16953SOL    HW152627   0.428   0.034   3.408 -0.7575 -1.0195 -0.0996
16953SOL    HW252628   0.377   0.036   3.551 -1.4226  0.8997 -0.3381
16954SOL     OW52629   4.327   7.804   5.503 -0.3120  0.7926 -0.4183
16954SOL    HW152630   4.266   7.775   5.435 -0.1099 -0.9290  0.1008
16954SOL    HW252631   4.315   7.741   5.574  0.2831  1.9106  0.7023
16955SOL     OW52632   0.490   8.570   1.688  0.0330  0.2366 -0.1088
16955SOL    HW152633   0.560   8.624   1.727 -0.5279  0.7408  0.2214
16955SOL    HW252634   0.450   8.628   1.623  0.3119 -0.2614 -0.7291
16956SOL     OW52635   1.167   0.552   4.709 -0.0922  0.5877  0.5126
16956SOL    HW152636   1.157   0.645   4.688  0.0596  0.4215 -0.3059
16956SOL    HW252637   1.088   0.531   4.760 -0.5836  0.9481 -0.0823
16957SOL     OW52638   3.394   3.804   5.651  0.1784  0.1458  0.4112
16957SOL    HW152639   3.339   3.806   5.573 -1.5130 -0.8338  1.5187
16957SOL    HW252640   3.469   3.751   5.626 -0.6809 -0.7426 -0.3564
16958SOL     OW52641   2.627   8.859   7.442 -0.6998  0.4195  0.6432
16958SOL    HW152642   2.668   8.773   7.432  0.1758  0.7315  1.4564
16958SOL    HW252643   2.617   8.891   7.352 -1.3603 -0.6642  0.3076
16959SOL     OW52644   1.391   4.755   3.937  0.1978  0.1950 -0.0172
16959SOL    HW152645   1.440   4.686   3.892 -0.9546 -1.0302  0.5378
16959SOL    HW252646   1.311   4.765   3.887 -0.0768  0.4434  0.4611
16960SOL     OW52647   2.251   4.518   4.942  0.0340 -0.7617 -0.0991
16960SOL    HW152648   2.249   4.610   4.917  2.0738 -0.9304 -1.1391
16960SOL    HW252649   2.269   4.518   5.036 -0.1840 -0.1107 -0.0573
16961SOL     OW52650   7.713   8.518   3.917 -0.1438 -0.7630  0.0066
16961SOL    HW152651   7.726   8.609   3.943  2.4724 -0.8015 -0.9413
16961SOL    HW252652   7.693   8.473   4.000  0.0087  0.3997  0.7015
16962SOL     OW52653   8.517   4.583   1.330  0.2323  0.0862  0.2868
16962SOL    HW152654   8.600   4.535   1.334  0.8095  1.1120  3.5795
16962SOL    HW252655   8.543   4.672   1.306 -0.2418 -0.0589 -0.8435
16963SOL     OW52656   0.546   9.708   4.679  0.2859 -0.0441  0.4084
16963SOL    HW152657   0.495   9.627   4.688  2.1048 -1.0942  2.0061
16963SOL    HW252658   0.622   9.683   4.625  0.0965  1.0239 -0.3939
16964SOL     OW52659   8.187   0.068   2.229  0.3499 -0.1834 -0.0870
16964SOL    HW152660   8.147   0.001   2.285 -0.4350 -0.3066 -0.7818
16964SOL    HW252661   8.281   0.054   2.240  0.2337 -2.2173 -1.1493
16965SOL     OW52662   1.144   2.761   7.143  0.7509  0.6249  0.0649
16965SOL    HW152663   1.239   2.768   7.146  0.8011  0.3265 -0.6750
16965SOL    HW252664   1.115   2.784   7.232  1.5972 -0.5575  0.6708
16966SOL     OW52665   3.533   0.098   4.211 -0.1929 -0.1016 -0.3666
16966SOL    HW152666   3.580   0.065   4.288 -0.3312  0.5570  0.0049
16966SOL    HW252667   3.597   0.095   4.140  0.4124  0.7710  0.1316
16967SOL     OW52668   4.873   6.117   3.534  0.1851 -0.2796 -0.1305
16967SOL    HW152669   4.924   6.103   3.615 -0.7796 -2.1573  0.2012
16967SOL    HW252670   4.789   6.149   3.565 -0.4475 -1.7127 -0.3001
16968SOL     OW52671   2.469   6.385   0.349  0.0603 -0.1670 -0.2946
16968SOL    HW152672   2.557   6.402   0.384 -0.5402 -0.0880  1.2417
16968SOL    HW252673   2.450   6.295   0.375 -0.5661  0.0303 -0.0588
16969SOL     OW52674   0.085   8.124   4.869 -0.3832 -0.0499  0.5355
16969SOL    HW152675   0.049   8.207   4.837 -0.8865  0.0525  1.3343
16969SOL    HW252676   0.050   8.116   4.958 -0.2402 -1.0616  0.5085
16970SOL     OW52677   4.326   5.119   0.034 -0.3932  0.3118  0.1041
16970SOL    HW152678   4.361   5.041  -0.008  0.9902  0.8747  0.1601
16970SOL    HW252679   4.262   5.086   0.097 -1.6448 -0.6117 -1.5440
16971SOL     OW52680   4.811   4.587   0.157 -0.4153 -0.6508  0.0625
16971SOL    HW152681   4.838   4.639   0.232  0.3872 -0.2827 -0.4594
16971SOL    HW252682   4.716   4.577   0.166 -0.7389  1.6117 -0.2611
16972SOL     OW52683   7.827   1.072   7.080 -0.4475  0.1116 -0.0073
16972SOL    HW152684   7.790   0.986   7.100  2.0278 -0.7812  1.2264
16972SOL    HW252685   7.856   1.064   6.989  0.0106 -0.4702  0.1831
16973SOL     OW52686   6.501   5.049   3.749 -0.5215 -0.0066  0.4194
16973SOL    HW152687   6.571   5.059   3.684 -0.2569 -0.3937  0.6378
16973SOL    HW252688   6.546   5.019   3.828 -0.8347  0.4935  0.7940
16974SOL     OW52689   5.907   9.634   2.788  0.0091  0.0022  0.0463
16974SOL    HW152690   5.851   9.592   2.853 -0.5694  0.4476 -0.1416
16974SOL    HW252691   5.985   9.660   2.836  0.4661 -1.4331  0.1210
16975SOL     OW52692   9.527   4.166   7.278  0.3199 -0.3278 -0.3133
16975SOL    HW152693   9.485   4.126   7.354  1.0454 -1.6182 -0.5496
16975SOL    HW252694   9.459   4.221   7.239 -0.4073 -0.5351  0.6329
16976SOL     OW52695   2.455   8.362   6.074  0.3444 -0.0384  0.1130
16976SOL    HW152696   2.483   8.445   6.114  1.1128 -0.7947  1.1861
16976SOL    HW252697   2.486   8.295   6.134  0.5210 -1.1604 -1.2008
16977SOL     OW52698   5.346   6.936   3.066  0.0527  0.1568 -0.2189
16977SOL    HW152699   5.308   6.984   2.993 -1.3094  0.4162  0.6242
16977SOL    HW252700   5.339   6.844   3.041  1.1871  0.3016 -1.1408
16978SOL     OW52701   0.651   3.939   2.079 -0.1472 -0.2832  0.1944
16978SOL    HW152702   0.673   3.879   2.150  1.1547 -2.0173 -1.5558
16978SOL    HW252703   0.733   3.950   2.031 -0.9112  1.0818 -0.8741
16979SOL     OW52704   5.998   3.782   9.332 -0.8978  0.3781  0.3271
16979SOL    HW152705   6.065   3.714   9.340 -2.1292 -0.8790  0.2937
16979SOL    HW252706   5.984   3.791   9.238 -0.6439  0.7892  0.3257
16980SOL     OW52707   9.779   4.252   0.307 -0.1028 -0.3452 -0.0958
16980SOL    HW152708   9.727   4.265   0.228  0.3261 -2.6184 -0.8165
16980SOL    HW252709   9.869   4.244   0.276  0.4695  1.3636  0.9323
16981SOL     OW52710   7.656   3.912   6.091 -0.2239 -0.0268 -0.0500
16981SOL    HW152711   7.738   3.898   6.044 -1.6722 -2.0074 -2.2179
16981SOL    HW252712   7.657   3.846   6.161 -0.5635 -1.0584 -0.9947
16982SOL     OW52713   5.770   7.833   9.794 -0.0306 -0.8582  0.0733
16982SOL    HW152714   5.696   7.860   9.848  0.8557  1.9666  0.0436
16982SOL    HW252715   5.818   7.770   9.849 -1.0452 -0.7306  1.1392
16983SOL     OW52716   2.592   9.395   0.265  0.5252  0.0522  0.1165
16983SOL    HW152717   2.512   9.421   0.218  0.2102  0.9035  1.0830
16983SOL    HW252718   2.662   9.408   0.201 -0.0683 -0.4128 -0.6482
16984SOL     OW52719   2.836   4.316   4.861  0.1882  0.2019  0.0091
16984SOL    HW152720   2.924   4.289   4.833  1.0936 -0.2135  2.8527
16984SOL    HW252721   2.780   4.241   4.842  0.2146  0.7540 -2.5483
16985SOL     OW52722   0.930   8.658   2.354  0.0124  0.0662  0.7471
16985SOL    HW152723   1.024   8.654   2.335 -0.4143 -1.2823 -1.5001
16985SOL    HW252724   0.895   8.714   2.285 -0.9574 -0.3250  0.9155
16986SOL     OW52725   8.706   2.626   7.099  0.4519  0.2288  0.3412
16986SOL    HW152726   8.631   2.648   7.154 -1.1718 -0.8987 -1.2720
16986SOL    HW252727   8.673   2.557   7.041  3.3130 -1.7264  0.8213
16987SOL     OW52728   9.344   6.375   8.970 -0.0569 -0.2618  0.0204
16987SOL    HW152729   9.316   6.328   8.891  1.3701 -1.8523  0.4127
16987SOL    HW252730   9.305   6.326   9.042  1.1473 -0.6521  0.4242
16988SOL     OW52731   8.871   4.089   7.600 -0.1726  0.4349  0.0174
16988SOL    HW152732   8.963   4.089   7.626 -0.3687 -0.9234  0.7859
16988SOL    HW252733   8.858   4.175   7.560  1.3631  0.7392  0.0982
16989SOL     OW52734   3.104   3.064   1.864 -0.4946  0.7212  0.2879
16989SOL    HW152735   3.142   2.985   1.900 -0.6723 -0.4707 -1.9310
16989SOL    HW252736   3.174   3.129   1.867  0.1797 -0.0110  0.6259
16990SOL     OW52737   3.653   2.703   7.378  0.1018 -0.3735  0.3434
16990SOL    HW152738   3.732   2.685   7.328 -1.0337 -0.1031 -1.6846
16990SOL    HW252739   3.646   2.799   7.379  0.7027 -0.3260  2.0578
16991SOL     OW52740   2.367   7.217   2.050 -0.1629 -0.3845  0.1387
16991SOL    HW152741   2.428   7.277   2.006 -1.1646  0.5347 -0.0458
16991SOL    HW252742   2.417   7.182   2.124  0.6919  0.0786 -0.1962
16992SOL     OW52743   2.720   7.020   8.661 -0.3525 -0.2344 -0.0662
16992SOL    HW152744   2.717   6.937   8.614  0.9771 -1.4984  1.8852
16992SOL    HW252745   2.629   7.038   8.685 -0.7866 -0.5399 -1.4534
16993SOL     OW52746   6.408   9.265   9.713 -0.0533  0.9659  0.4181
16993SOL    HW152747   6.402   9.197   9.779 -0.1359  1.6694  1.1529
16993SOL    HW252748   6.406   9.218   9.629  1.1942 -0.0270  0.9158
16994SOL     OW52749   4.774   5.772   4.401  0.5643 -0.1093  0.2768
16994SOL    HW152750   4.788   5.703   4.337  0.8276 -0.8919  1.1543
16994SOL    HW252751   4.862   5.790   4.436  0.2446 -0.7599  1.4783
16995SOL     OW52752   8.524   8.489   3.030  0.3962 -0.4742  0.6632
16995SOL    HW152753   8.485   8.407   2.999 -1.8132  0.9722 -0.6834
16995SOL    HW252754   8.617   8.469   3.041  0.2416 -2.6877 -1.2884
16996SOL     OW52755   2.777   3.682   5.825 -0.4815  0.8177  0.4402
16996SOL    HW152756   2.836   3.678   5.750  0.7966  0.9973  1.4042
16996SOL    HW252757   2.750   3.774   5.829  1.2589  1.3302  1.5089
16997SOL     OW52758   5.875   7.137   6.755  0.2381 -0.1089 -0.3525
16997SOL    HW152759   5.907   7.047   6.758  0.8361  0.1112  2.1792
16997SOL    HW252760   5.954   7.191   6.762 -0.1987  0.5939 -0.7017
16998SOL     OW52761   8.815   5.198   2.583  0.5308 -0.1323 -0.3831
16998SOL    HW152762   8.837   5.208   2.490 -1.4493  0.3350 -0.8482
16998SOL    HW252763   8.899   5.194   2.627  1.5404  1.7172 -1.9904
16999SOL     OW52764   6.737   9.667   8.884  0.7846  0.1019 -0.4627
16999SOL    HW152765   6.817   9.689   8.933  0.6271  0.0972 -0.2015
16999SOL    HW252766   6.730   9.572   8.893  0.0666  0.2370  0.5801
17000SOL     OW52767   5.453   0.485   8.819  0.1918 -0.5983  0.4670
17000SOL    HW152768   5.499   0.415   8.772  0.2654 -1.1366  1.3218
17000SOL    HW252769   5.469   0.467   8.911  0.4580  0.7271  0.6997
17001SOL     OW52770   2.259   6.613   2.825 -0.1605  0.1767  0.4477
17001SOL    HW152771   2.308   6.540   2.786  1.0338  1.4644 -0.6001
17001SOL    HW252772   2.319   6.650   2.890 -0.3207  0.8475  0.2267
17002SOL     OW52773   6.221   9.354   4.641  0.3242  0.3843 -0.0100
17002SOL    HW152774   6.200   9.285   4.705 -3.9461  1.6160  0.1715
17002SOL    HW252775   6.287   9.407   4.685 -0.1565 -0.6212  2.0737
17003SOL     OW52776   0.953   9.831   9.660  0.0692  0.6097 -0.4044
17003SOL    HW152777   0.900   9.821   9.739 -1.0695 -1.0559 -1.3176
17003SOL    HW252778   0.942   9.923   9.636 -0.0153  1.0084  1.0362
17004SOL     OW52779   3.041   7.260   6.171 -0.1959  0.2710 -0.0370
17004SOL    HW152780   3.045   7.348   6.208 -1.4675 -0.2428  1.4544
17004SOL    HW252781   3.103   7.262   6.098  0.2799  2.1976  0.3475
17005SOL     OW52782   6.098   0.507   0.364 -0.5902  0.4798  0.3868
17005SOL    HW152783   6.189   0.500   0.392 -0.4751 -2.5735 -0.3698
17005SOL    HW252784   6.060   0.422   0.384 -2.8353  1.1169 -0.8022
17006SOL     OW52785   5.161   3.649   3.116 -0.4302 -0.2607  0.1221
17006SOL    HW152786   5.229   3.663   3.182  0.2932 -1.0096 -0.4505
17006SOL    HW252787   5.208   3.642   3.033 -1.2291 -0.5071 -0.3302
17007SOL     OW52788   5.999   7.697   6.599 -0.0675 -0.4092 -0.6339
17007SOL    HW152789   6.061   7.769   6.610 -0.6575 -0.1123  0.9734
17007SOL    HW252790   5.926   7.735   6.550  0.1894 -0.2740 -0.9183
17008SOL     OW52791   5.511   3.021   4.678 -0.0086  0.9272  0.0395
17008SOL    HW152792   5.587   2.972   4.647  0.0460  2.3210 -2.1981
17008SOL    HW252793   5.436   2.965   4.658  0.2655  0.4329  0.3770
17009SOL     OW52794   2.120   4.076   1.499  0.0780  0.1542  0.2447
17009SOL    HW152795   2.088   4.054   1.586  1.5500  0.4442  0.8890
17009SOL    HW252796   2.174   4.001   1.474  1.5960  1.0739  0.6249
17010SOL     OW52797   0.661   5.244   7.972 -0.4103 -0.6828 -0.1314
17010SOL    HW152798   0.585   5.297   7.995 -0.8866 -0.7534 -1.4491
17010SOL    HW252799   0.732   5.307   7.958 -0.5428 -0.5226 -0.0714
17011SOL     OW52800   8.064   7.290   3.536  0.4187 -0.1066 -0.0322
17011SOL    HW152801   8.145   7.305   3.587 -0.3252 -0.8280  1.4242
17011SOL    HW252802   7.996   7.280   3.603 -0.4792 -1.8997 -1.1515
17012SOL     OW52803   1.579   6.399   1.933 -0.0057  0.2608 -0.0330
17012SOL    HW152804   1.502   6.452   1.908 -0.2288 -0.0814 -0.0827
17012SOL    HW252805   1.542   6.316   1.964  0.3051  0.4306  0.8176
17013SOL     OW52806   8.239   7.130   4.853  0.5095 -0.1861  0.0951
17013SOL    HW152807   8.190   7.211   4.840 -1.4271 -1.3507 -0.2660
17013SOL    HW252808   8.248   7.093   4.765  1.5933 -0.2492  0.2250
17014SOL     OW52809   9.156   6.712   0.903  0.3674  0.0915 -0.4945
17014SOL    HW152810   9.195   6.637   0.857  0.4443 -0.3331  0.2483
17014SOL    HW252811   9.212   6.724   0.979  0.9769  1.5780 -1.1438
17015SOL     OW52812   8.028   4.632   8.747 -0.4117 -0.2510 -0.8093
17015SOL    HW152813   8.046   4.703   8.685  0.8273  0.0140 -0.1727
17015SOL    HW252814   8.080   4.653   8.824 -2.5826 -0.1205  0.7073
17016SOL     OW52815   7.764   6.631   8.807 -0.3642  0.1816 -0.0082
17016SOL    HW152816   7.791   6.627   8.715  0.4874  0.4998  0.2184
17016SOL    HW252817   7.791   6.546   8.843 -0.3153  0.2191  0.0448
17017SOL     OW52818   2.700   3.913   9.190 -0.4364 -0.1276  0.2318
17017SOL    HW152819   2.645   3.986   9.220 -0.3437  0.1441 -0.2493
17017SOL    HW252820   2.655   3.880   9.112  1.2833  1.6531 -1.6598
17018SOL     OW52821   0.300   5.825   1.325 -0.3180  0.1655 -0.4218
17018SOL    HW152822   0.273   5.737   1.298  1.3207 -0.5522  0.1246
17018SOL    HW252823   0.336   5.864   1.246  0.6459 -0.3688 -0.2609
17019SOL     OW52824   5.353   8.886   0.530  0.2619 -0.4173 -0.0728
17019SOL    HW152825   5.441   8.848   0.527 -0.2761 -1.8910  1.1031
17019SOL    HW252826   5.300   8.827   0.476 -0.3665 -0.6971  0.8301
17020SOL     OW52827   7.356   8.162   9.124 -0.0718  0.5804  0.5132
17020SOL    HW152828   7.293   8.174   9.053 -0.3423 -0.1425  0.6252
17020SOL    HW252829   7.423   8.104   9.087  0.5515  1.3718  0.3839
17021SOL     OW52830   2.021   2.484   8.853 -0.2388 -0.0394 -0.6949
17021SOL    HW152831   1.990   2.450   8.937  0.3134  0.6010 -0.2152
17021SOL    HW252832   2.083   2.418   8.822  0.7494  0.4422  0.1784
17022SOL     OW52833   8.332   2.873   7.773 -0.4905 -0.1035  0.3485
17022SOL    HW152834   8.385   2.827   7.838 -2.4243 -2.0982  0.6619
17022SOL    HW252835   8.360   2.964   7.779  2.4283 -0.9352  0.8485
17023SOL     OW52836   6.482   0.602   8.376 -0.5117 -0.3085 -0.0356
17023SOL    HW152837   6.432   0.522   8.357  1.0166 -1.0080 -1.4592
17023SOL    HW252838   6.562   0.591   8.325 -0.9562  2.9020 -1.6521
17024SOL     OW52839   5.193   7.934   0.675  0.1888  0.2773  0.2996
17024SOL    HW152840   5.206   7.935   0.580  0.8802  0.3444  0.3907
17024SOL    HW252841   5.098   7.927   0.686  0.1591 -0.4748 -0.3930
17025SOL     OW52842   7.467   0.143   3.337  0.0731 -0.2225 -0.5367
17025SOL    HW152843   7.400   0.080   3.363  0.6202  0.3980  2.9006
17025SOL    HW252844   7.424   0.198   3.272 -1.4546 -2.0988 -1.2437
17026SOL     OW52845   6.895   2.560   9.561  0.3997  0.2389  0.0924
17026SOL    HW152846   6.822   2.505   9.590  1.0854  1.0819  3.8749
17026SOL    HW252847   6.856   2.646   9.545  0.0186 -0.2305 -1.7387
17027SOL     OW52848   6.735   5.324   8.196  0.3708  0.2246 -0.1780
17027SOL    HW152849   6.704   5.374   8.120  0.6941 -0.5175 -0.8148
17027SOL    HW252850   6.659   5.272   8.222  0.5535 -0.2872 -0.6453
17028SOL     OW52851   7.140   9.399   2.174  0.4605  0.0684  0.6204
17028SOL    HW152852   7.083   9.464   2.134  0.3899 -0.1276  0.4007
17028SOL    HW252853   7.134   9.416   2.268  2.0400  1.7120  0.4615
17029SOL     OW52854   4.426   6.582   6.980  0.2558  0.0296  0.0918
17029SOL    HW152855   4.331   6.579   6.990  0.3671 -0.8999  1.0338
17029SOL    HW252856   4.446   6.674   6.964 -1.0794 -0.1575 -3.4928
17030SOL     OW52857   6.538   6.927   2.667 -0.0033  0.0589 -0.1709
17030SOL    HW152858   6.551   7.021   2.656  2.6562 -0.3899 -1.6564
17030SOL    HW252859   6.578   6.907   2.752 -0.0684  0.1744 -0.1128
17031SOL     OW52860   1.670   9.358   7.614 -0.3027  0.0633 -0.1508
17031SOL    HW152861   1.631   9.290   7.669  0.8171 -1.3272 -1.0161
17031SOL    HW252862   1.675   9.318   7.527 -0.5624  1.6388 -0.9319
17032SOL     OW52863   8.165   8.969   9.709  0.0810  0.1126  0.0728
17032SOL    HW152864   8.186   9.062   9.718  1.3874 -0.1167 -0.3208
17032SOL    HW252865   8.080   8.959   9.751  0.1549  1.3951  0.5749
17033SOL     OW52866   8.662   1.679   0.778  0.7836 -0.1930 -0.8010
17033SOL    HW152867   8.752   1.659   0.803  1.3412  0.6379 -2.0891
17033SOL    HW252868   8.667   1.709   0.688 -0.6149  1.0941 -0.5014
17034SOL     OW52869   0.661   4.769   7.001  0.1895  0.6763  0.4663
17034SOL    HW152870   0.585   4.724   6.965  0.3155  2.3082 -2.0745
17034SOL    HW252871   0.680   4.722   7.083 -2.0305 -1.2979 -0.0368
17035SOL     OW52872   1.372   8.524   0.287 -0.0221  0.7195  0.2249
17035SOL    HW152873   1.390   8.507   0.194 -0.6667  0.4592  0.1428
17035SOL    HW252874   1.280   8.502   0.298 -0.3212  2.0819  0.6144
17036SOL     OW52875   2.887   5.339   2.067 -0.1993  0.0843  0.5688
17036SOL    HW152876   2.924   5.409   2.014  2.0684  0.1524  2.1083
17036SOL    HW252877   2.933   5.260   2.039  1.0271  0.1134  2.2851
17037SOL     OW52878   9.577   4.057   2.600 -0.4705  0.1483  0.3518
17037SOL    HW152879   9.649   4.117   2.619 -1.2605  1.6000 -1.0005
17037SOL    HW252880   9.543   4.032   2.686  0.1144  1.3699  0.9570
17038SOL     OW52881   0.088   3.809   6.453  0.2435 -0.5674  0.0607
17038SOL    HW152882   0.015   3.784   6.397 -0.1993 -1.3636  0.9559
17038SOL    HW252883   0.166   3.795   6.400 -0.0949 -2.4120  0.0073
17039SOL     OW52884   7.839   4.583   0.735 -0.1679  0.0203 -0.1802
17039SOL    HW152885   7.934   4.589   0.747 -0.2236  0.0289  0.2922
17039SOL    HW252886   7.822   4.629   0.653  0.0908  1.1179  0.3660
17040SOL     OW52887   2.380   7.321   2.489  0.4718  0.6391 -0.5249
17040SOL    HW152888   2.360   7.329   2.582  0.3730  0.0055 -0.4818
17040SOL    HW252889   2.474   7.304   2.487  0.4463  0.4975 -0.5298
17041SOL     OW52890   8.786   5.822   9.312 -0.5954  0.2866  0.1099
17041SOL    HW152891   8.712   5.805   9.370 -1.2993 -0.4031 -0.9830
17041SOL    HW252892   8.754   5.887   9.250  0.2642  1.2752  0.6709
17042SOL     OW52893   3.242   9.098   0.261  0.3699  0.0323  0.1774
17042SOL    HW152894   3.267   9.020   0.213 -1.7421 -3.3565  3.9442
17042SOL    HW252895   3.318   9.156   0.254  1.5871 -1.6709 -3.8058
17043SOL     OW52896   8.856   9.462   8.817  0.0176  0.1504  0.4420
17043SOL    HW152897   8.943   9.430   8.840  0.3952  0.7046 -0.1984
17043SOL    HW252898   8.862   9.557   8.828 -0.3170  0.2535 -0.2131
17044SOL     OW52899   3.692   8.642   6.818 -0.1244 -0.4864  0.9844
17044SOL    HW152900   3.694   8.549   6.840  0.7749 -0.5201  0.8081
17044SOL    HW252901   3.720   8.645   6.726  0.9230  0.0357  1.3040
17045SOL     OW52902   7.471   8.775   7.188 -0.6546 -0.1223 -0.0334
17045SOL    HW152903   7.384   8.749   7.219 -0.1411 -1.5097  0.3206
17045SOL    HW252904   7.458   8.804   7.098 -1.5393  0.0309  0.1431
17046SOL     OW52905   6.416   4.874   3.185 -0.2676 -0.3516 -0.0508
17046SOL    HW152906   6.336   4.917   3.154 -0.7312 -0.8143  0.4985
17046SOL    HW252907   6.449   4.932   3.253  0.1605  0.1097 -0.6398
17047SOL     OW52908   6.050   6.258   0.526  0.4117 -0.2945  0.0157
17047SOL    HW152909   6.143   6.280   0.528  0.3090  0.2253 -0.5001
17047SOL    HW252910   6.020   6.291   0.441 -0.0772 -1.1638 -0.1542
17048SOL     OW52911   2.958   7.575   0.892  0.1534  0.0900  0.1429
17048SOL    HW152912   2.911   7.501   0.854 -0.4870  0.3446  0.4182
17048SOL    HW252913   2.984   7.628   0.816 -2.8333  1.6318  0.0339
17049SOL     OW52914   7.045   6.635   7.066  0.6040  0.4318  0.3291
17049SOL    HW152915   7.026   6.724   7.094 -2.0344 -0.4285  1.6678
17049SOL    HW252916   7.042   6.583   7.147 -1.0490 -1.2809 -0.7302
17050SOL     OW52917   1.167   2.144   6.581  0.9131  0.0109 -0.1838
17050SOL    HW152918   1.078   2.176   6.564  0.9523 -0.8225 -2.2928
17050SOL    HW252919   1.215   2.221   6.612 -0.6165  0.3721  1.4067
17051SOL     OW52920   3.576   5.846   6.425 -0.0844  0.3569 -0.0085
17051SOL    HW152921   3.595   5.752   6.420 -0.1500  0.4030 -4.0201
17051SOL    HW252922   3.625   5.876   6.502  1.0616 -2.6838  0.6022
17052SOL     OW52923   6.543   5.095   0.797  0.0266  0.2689 -0.2883
17052SOL    HW152924   6.591   5.090   0.715  0.4172 -0.4074 -0.0296
17052SOL    HW252925   6.496   5.012   0.802  0.2109  0.1939  0.2933
17053SOL     OW52926   8.417   3.127   5.414  0.7442 -0.1524 -0.6424
17053SOL    HW152927   8.412   3.070   5.490 -0.5345 -0.2190 -0.7429
17053SOL    HW252928   8.326   3.155   5.400  1.2073  1.1984 -1.1226
17054SOL     OW52929   4.145   9.080   6.484  0.0517 -0.2840  0.3419
17054SOL    HW152930   4.148   9.024   6.562 -0.9782 -2.6522 -1.1820
17054SOL    HW252931   4.226   9.062   6.437 -0.7712 -1.4504 -0.7070
17055SOL     OW52932   3.722   4.338   3.050 -0.0837 -0.5170 -0.1942
17055SOL    HW152933   3.765   4.284   2.983 -0.2358 -1.8880  0.7862
17055SOL    HW252934   3.630   4.313   3.045 -0.4474  0.8472 -0.8131
17056SOL     OW52935   1.320   5.339   7.192  0.2623 -0.0724  0.0880
17056SOL    HW152936   1.346   5.423   7.230  0.8193  0.1505 -0.7552
17056SOL    HW252937   1.314   5.356   7.097 -1.0674 -0.6130  0.0476
17057SOL     OW52938   5.261   7.720   5.217  0.1099 -0.4564 -0.3543
17057SOL    HW152939   5.192   7.734   5.281 -1.1966 -0.8612 -1.6077
17057SOL    HW252940   5.295   7.808   5.198 -0.2506 -0.2211  0.0784
17058SOL     OW52941   8.091   9.292   3.567 -0.3032  0.4059  0.2714
17058SOL    HW152942   8.094   9.201   3.538  0.2331 -0.1285  1.8933
17058SOL    HW252943   7.999   9.308   3.587 -0.5534  0.5418 -0.9060
17059SOL     OW52944   4.822   3.693   6.389  0.1891 -0.3684 -0.2092
17059SOL    HW152945   4.906   3.728   6.418  0.1108 -0.2684 -0.1012
17059SOL    HW252946   4.779   3.664   6.470 -0.9878  1.9910  0.1015
17060SOL     OW52947   8.575   3.307   2.467 -0.6938 -0.1025 -0.0426
17060SOL    HW152948   8.629   3.385   2.455 -0.4987 -0.3389 -0.7197
17060SOL    HW252949   8.486   3.341   2.471 -1.0045 -0.0391 -3.7283
17061SOL     OW52950   3.667   8.504   4.229  0.4510  0.0899 -0.1402
17061SOL    HW152951   3.645   8.417   4.261  1.1456 -0.0324  0.0329
17061SOL    HW252952   3.591   8.532   4.178  0.1970 -0.5817 -0.1320
17062SOL     OW52953   1.765   5.773   5.510  0.4317  0.2047  0.4031
17062SOL    HW152954   1.840   5.726   5.547 -1.3521 -0.7167  3.1406
17062SOL    HW252955   1.719   5.708   5.457  0.4050  0.1567  0.4857
17063SOL     OW52956   5.960   8.833   0.015  0.4393  0.2612  0.2765
17063SOL    HW152957   5.909   8.913   0.021  1.5450  0.9534  0.8166
17063SOL    HW252958   5.932   8.781   0.090  2.8748  2.1058  2.6698
17064SOL     OW52959   4.292   6.367   5.127 -0.0172  0.8519 -0.4537
17064SOL    HW152960   4.368   6.345   5.073 -1.2416 -1.4547 -1.3530
17064SOL    HW252961   4.233   6.414   5.068 -0.1707  0.8201 -0.3261
17065SOL     OW52962   3.713   7.394   1.648 -0.2721  0.5717  0.7192
17065SOL    HW152963   3.705   7.463   1.713 -1.1112  1.3150 -0.1618
17065SOL    HW252964   3.659   7.322   1.682 -1.8105  1.4518  0.2113
17066SOL     OW52965   5.528   2.285   7.322 -0.1005  0.7971 -0.7036
17066SOL    HW152966   5.527   2.270   7.416  0.1287 -1.6127 -1.0305
17066SOL    HW252967   5.465   2.356   7.309 -1.2791  0.1654  1.1176
17067SOL     OW52968   0.023   4.700   9.475  0.7370  0.4083  0.2221
17067SOL    HW152969  -0.043   4.759   9.511  0.7773  1.3877 -1.2460
17067SOL    HW252970  -0.028   4.628   9.437  0.6883 -0.5592  1.9630
17068SOL     OW52971   5.276   2.386   0.299 -0.2856  0.4737 -0.5152
17068SOL    HW152972   5.291   2.468   0.253  2.0948 -1.0629 -2.8046
17068SOL    HW252973   5.362   2.365   0.337 -0.6893 -1.2233 -0.4756
17069SOL     OW52974   3.872   3.259   1.340  0.1315 -0.6207 -0.1919
17069SOL    HW152975   3.908   3.182   1.295  1.7683 -0.0499  0.0480
17069SOL    HW252976   3.948   3.316   1.352 -0.5375 -0.0957  1.9373
17070SOL     OW52977   0.223   1.194   6.026 -0.0773  0.3396  0.3670
17070SOL    HW152978   0.167   1.199   6.103 -0.5156 -0.1199  0.0816
17070SOL    HW252979   0.215   1.280   5.984 -0.8282  0.1731  0.1512
17071SOL     OW52980   7.628   5.685   8.734 -0.2834  0.3724 -0.1122
17071SOL    HW152981   7.678   5.607   8.759 -0.8838  1.1004  4.0157
17071SOL    HW252982   7.537   5.657   8.738 -0.4512  0.8925 -0.2784
17072SOL     OW52983   5.571   5.882   8.419  0.8882 -0.0786 -0.2088
17072SOL    HW152984   5.666   5.875   8.413  1.0270  1.8279 -1.0764
17072SOL    HW252985   5.547   5.939   8.345 -1.0173 -1.1758 -0.4816
17073SOL     OW52986   6.590   7.319   9.522  0.0006  0.2504  0.3054
17073SOL    HW152987   6.662   7.367   9.563  1.5609 -0.3460 -1.5389
17073SOL    HW252988   6.591   7.233   9.564 -1.0773  0.9138  1.7683
17074SOL     OW52989   8.740   8.496   3.739  0.3756 -0.3788 -0.3494
17074SOL    HW152990   8.733   8.531   3.650 -0.2395 -1.0488 -0.5697
17074SOL    HW252991   8.655   8.515   3.779  0.7422  0.1686  0.2008
17075SOL     OW52992   3.254   8.805   2.777 -0.0570 -0.6912  0.2009
17075SOL    HW152993   3.319   8.868   2.806  0.1120 -0.6963 -0.1535
17075SOL    HW252994   3.185   8.808   2.843 -0.9849  1.2848 -0.7728
17076SOL     OW52995   5.647   0.290   7.766 -0.7756  0.3008  0.4270
17076SOL    HW152996   5.652   0.285   7.671 -0.4969  0.4671  0.4341
17076SOL    HW252997   5.655   0.383   7.786  0.6403  0.1382  0.6978
17077SOL     OW52998   5.790   9.409   6.279  0.0442  0.1531 -0.3227
17077SOL    HW152999   5.810   9.502   6.268  0.7263 -0.1266 -1.6332
17077SOL    HW253000   5.710   9.395   6.228  2.1982 -0.7606 -3.8343
17078SOL     OW53001   7.197   8.084   0.934  0.4486 -0.0017  0.0650
17078SOL    HW153002   7.278   8.107   0.888 -0.6648 -0.0923 -2.0766
17078SOL    HW253003   7.222   8.079   1.026  3.2396 -1.6793 -0.6695
17079SOL     OW53004   5.119   8.784   2.400  0.0983 -0.1227 -0.8692
17079SOL    HW153005   5.036   8.828   2.384 -0.5187 -0.8117  0.2451
17079SOL    HW253006   5.118   8.764   2.494  1.0015 -1.1844 -1.0563
17080SOL     OW53007   5.644   0.798   1.290  0.1077 -0.1471  0.1625
17080SOL    HW153008   5.572   0.758   1.242  0.7222  0.3807 -1.2336
17080SOL    HW253009   5.613   0.886   1.310  0.8169  0.5331 -1.5740
17081SOL     OW53010   3.350   2.922   5.265  0.3791  0.6654  0.4614
17081SOL    HW153011   3.445   2.908   5.264  0.2039 -0.6258  0.3241
17081SOL    HW253012   3.320   2.880   5.346 -0.2026  0.1193 -0.0300
17082SOL     OW53013   6.378   1.034   0.432  0.0408  0.2924 -0.3480
17082SOL    HW153014   6.319   1.101   0.466  0.3160  1.3319 -1.8275
17082SOL    HW253015   6.464   1.059   0.465 -0.0211  0.0155  0.0269
17083SOL     OW53016   5.842   5.289   3.157 -0.0633 -0.0277  0.0859
17083SOL    HW153017   5.840   5.368   3.211  0.9640  0.1693 -0.1507
17083SOL    HW253018   5.792   5.312   3.079  1.9747  1.1216 -0.9356
17084SOL     OW53019   8.980   8.427   0.930 -0.1623  0.3920  0.2001
17084SOL    HW153020   8.990   8.474   0.848 -1.4097 -0.5320 -0.5147
17084SOL    HW253021   8.964   8.336   0.904 -1.1882  0.1971  1.4308
17085SOL     OW53022   7.866   6.341   4.392 -0.0433  0.0955  0.2707
17085SOL    HW153023   7.827   6.427   4.406  2.0979  0.9256  1.5307
17085SOL    HW253024   7.955   6.359   4.365 -0.0080 -1.7491 -1.0671
17086SOL     OW53025   9.426   8.156   0.149 -0.2033  0.2632 -0.1050
17086SOL    HW153026   9.387   8.243   0.149 -0.0196  0.3488 -1.1962
17086SOL    HW253027   9.428   8.131   0.242  0.7152  1.8575  0.3464
17087SOL     OW53028   5.089   3.144   9.638 -0.1341 -0.1203 -0.2922
17087SOL    HW153029   5.051   3.177   9.719  1.1196 -3.0145  1.6266
17087SOL    HW253030   5.181   3.169   9.642 -0.3233  0.8981 -1.5543
17088SOL     OW53031   7.146   4.407   1.272 -0.4633 -0.0673  0.4376
17088SOL    HW153032   7.112   4.317   1.274  0.9291 -0.6122  2.0035
17088SOL    HW253033   7.122   4.444   1.357  0.7306  0.3330  0.6199
17089SOL     OW53034   5.579   8.419   4.256 -0.1960 -0.3357  0.8021
17089SOL    HW153035   5.558   8.359   4.328  0.9241 -0.6030  0.9176
17089SOL    HW253036   5.664   8.389   4.223 -0.7718 -0.3550 -0.7832
17090SOL     OW53037   3.547   2.878   8.826  0.2171  0.4628 -0.2888
17090SOL    HW153038   3.574   2.894   8.735 -0.2843  1.8935 -0.2111
17090SOL    HW253039   3.477   2.814   8.820 -0.6917  1.4925 -1.0444
17091SOL     OW53040   5.449   8.180   8.269  0.3595  0.8534  0.3914
17091SOL    HW153041   5.402   8.219   8.343 -0.0700  0.5709  0.2697
17091SOL    HW253042   5.382   8.168   8.201  0.8241  1.4623 -0.1878
17092SOL     OW53043   2.900   8.867   7.564 -0.5954  0.0451  0.2766
17092SOL    HW153044   2.947   8.829   7.638  0.4952  0.2401 -0.3086
17092SOL    HW253045   2.807   8.859   7.589 -0.2638 -0.1254  1.5390
17093SOL     OW53046   1.353   0.415   8.403 -0.2750  0.6423  0.0337
17093SOL    HW153047   1.262   0.391   8.386 -0.3535  0.0895  1.1597
17093SOL    HW253048   1.394   0.335   8.436  1.1142  0.3639 -2.1793
17094SOL     OW53049   7.064   6.807   8.153 -0.1245 -0.4505 -0.2251
17094SOL    HW153050   7.031   6.848   8.233  2.0069 -0.7160  0.8605
17094SOL    HW253051   7.054   6.874   8.085 -1.1114  0.1085  0.4553
17095SOL     OW53052   2.558   5.749   8.942 -0.0468  0.0714  0.1919
17095SOL    HW153053   2.597   5.662   8.956 -0.9993 -0.5002 -0.5650
17095SOL    HW253054   2.575   5.768   8.850 -0.5558  0.3148  0.1460
17096SOL     OW53055   1.715   7.566   2.904 -0.7322 -0.0994 -0.3413
17096SOL    HW153056   1.689   7.551   2.995 -0.5180 -1.1997 -0.4475
17096SOL    HW253057   1.780   7.498   2.886  1.5001  1.9108 -0.4199
17097SOL     OW53058   7.680   3.744   6.321  0.8074 -0.4637  0.3421
17097SOL    HW153059   7.629   3.731   6.401  0.0018  1.2272  0.1636
17097SOL    HW253060   7.771   3.731   6.348  0.4205 -1.7579  1.0888
17098SOL     OW53061   6.823   1.101   6.000  0.0046 -0.5057 -0.4136
17098SOL    HW153062   6.743   1.098   6.052  0.3069 -0.4902  0.0629
17098SOL    HW253063   6.846   1.009   5.987  0.5007 -0.5061  0.3917
17099SOL     OW53064   1.811   9.054   1.409  0.4036 -0.1482  0.5854
17099SOL    HW153065   1.818   9.141   1.368  3.4433 -0.5880 -0.0565
17099SOL    HW253066   1.841   9.067   1.499 -0.4251 -0.3411  0.9071
17100SOL     OW53067   4.191   8.516   4.508 -0.0066  0.0543 -0.3548
17100SOL    HW153068   4.095   8.515   4.506 -0.1179  1.9259  1.3500
17100SOL    HW253069   4.215   8.424   4.523 -1.6808 -0.0841  2.0410
17101SOL     OW53070   7.360   0.670   2.041  0.2357  0.0946  0.1945
17101SOL    HW153071   7.295   0.681   1.971  1.0297 -0.6527 -0.6822
17101SOL    HW253072   7.376   0.759   2.072  0.1586  0.4895 -0.8433
17102SOL     OW53073   3.129   2.252   6.090 -0.0455  0.4430  0.5278
17102SOL    HW153074   3.146   2.258   5.996 -2.4309 -1.5518 -0.1506
17102SOL    HW253075   3.211   2.220   6.128  0.4785 -0.2845 -1.1383
17103SOL     OW53076   0.513   4.036   5.631  0.3716  0.0288 -0.1067
17103SOL    HW153077   0.606   4.056   5.627  0.2778  0.5846  0.3771
17103SOL    HW253078   0.476   4.081   5.555  0.1847  1.6193  0.8968
17104SOL     OW53079   2.946   4.918   4.111 -0.2077 -0.0427 -0.0157
17104SOL    HW153080   2.956   4.830   4.073 -2.4897 -0.4512  0.1438
17104SOL    HW253081   2.929   4.975   4.036 -1.1466 -0.2050  0.0588
17105SOL     OW53082   3.414   4.395   9.662  0.0968 -0.3152  0.0722
17105SOL    HW153083   3.396   4.478   9.706 -1.5642  0.6551 -2.2347
17105SOL    HW253084   3.386   4.329   9.725  0.6680  0.8664  1.6343
17106SOL     OW53085   9.516   4.992   5.602 -0.2858  0.1758 -0.5322
17106SOL    HW153086   9.436   4.940   5.599 -1.3383  1.3891  2.5655
17106SOL    HW253087   9.554   4.972   5.688  2.3558  0.2875 -1.5567
17107SOL     OW53088   0.322   1.418   5.736  0.5596  0.4299  0.5067
17107SOL    HW153089   0.291   1.342   5.687 -1.1552  0.7328  1.0700
17107SOL    HW253090   0.387   1.459   5.678 -1.2189  0.6353 -1.4324
17108SOL     OW53091   7.551   2.913   4.358 -0.2602  0.4728 -0.0586
17108SOL    HW153092   7.617   2.941   4.421  0.0879  2.5900 -1.2432
17108SOL    HW253093   7.598   2.857   4.296  0.2499  1.2468 -0.3897
17109SOL     OW53094   2.480   2.480   5.805  0.4603  0.0881 -0.2681
17109SOL    HW153095   2.458   2.554   5.748 -1.2389  0.3692  0.6664
17109SOL    HW253096   2.558   2.508   5.852  0.2454  1.0075 -0.4329
17110SOL     OW53097   2.717   6.029   4.696 -0.3015  0.3076  0.2373
17110SOL    HW153098   2.662   6.084   4.640 -0.7210 -0.5076 -0.1672
17110SOL    HW253099   2.714   5.942   4.656  1.3731  0.2496  0.1503
17111SOL     OW53100   1.680   5.557   4.853  0.1980  0.6856  0.2346
17111SOL    HW153101   1.696   5.482   4.796  2.4809  0.9298  0.4733
17111SOL    HW253102   1.644   5.624   4.796 -2.9744 -0.8516  0.2137
17112SOL     OW53103   8.145   5.757   5.657 -0.3237  0.4231 -0.0985
17112SOL    HW153104   8.217   5.808   5.692 -0.0035  0.4912 -0.8435
17112SOL    HW253105   8.070   5.816   5.657  0.3940  1.4490 -2.4110
17113SOL     OW53106   1.329   7.493   7.705 -0.1452 -0.5591 -0.1590
17113SOL    HW153107   1.384   7.570   7.692  0.0436 -0.7652 -0.6111
17113SOL    HW253108   1.339   7.472   7.798  2.0209 -1.6842 -0.5695
17114SOL     OW53109   9.241   9.158   4.731  0.2725 -0.0152 -0.1021
17114SOL    HW153110   9.232   9.101   4.654  2.0608  0.0758 -0.4062
17114SOL    HW253111   9.178   9.122   4.794 -1.4467  0.0842 -1.6671
17115SOL     OW53112   6.590   1.497   4.636  1.0100 -0.7496  0.2507
17115SOL    HW153113   6.631   1.508   4.722 -0.4131  1.7893  0.7232
17115SOL    HW253114   6.497   1.485   4.655  0.0878  3.1362 -0.8160
17116SOL     OW53115   3.275   5.051   4.518  0.1013  0.1078 -0.2000
17116SOL    HW153116   3.343   5.117   4.504 -0.9318  1.0797 -0.9282
17116SOL    HW253117   3.213   5.094   4.577 -1.6400  0.6581 -2.2901
17117SOL     OW53118   7.085   2.897   9.431 -0.6271  0.2145 -0.1182
17117SOL    HW153119   7.007   2.888   9.486 -1.0076 -2.3339 -0.9138
17117SOL    HW253120   7.054   2.941   9.351 -1.5854 -1.7097 -0.8756
17118SOL     OW53121   6.695   4.835   8.132  0.1567 -0.4714  0.3697
17118SOL    HW153122   6.668   4.821   8.223 -0.5900  0.9293  0.3861
17118SOL    HW253123   6.702   4.930   8.123 -0.0892 -0.5711 -1.1252
17119SOL     OW53124   2.091   2.573   3.352  0.3828  0.0050 -0.0829
17119SOL    HW153125   2.148   2.498   3.367  0.7879 -0.2231 -2.3992
17119SOL    HW253126   2.003   2.536   3.342  0.6468 -0.2745 -1.6725
17120SOL     OW53127   9.271   8.372   0.237 -0.5217 -0.3802  0.0066
17120SOL    HW153128   9.192   8.386   0.289  0.1279  0.7935  0.7174
17120SOL    HW253129   9.312   8.458   0.231  0.9149 -1.0361 -0.0114
17121SOL     OW53130   1.410   5.564   7.296 -0.1713  0.1206  0.4094
17121SOL    HW153131   1.427   5.649   7.254 -1.3477  0.2895  0.2424
17121SOL    HW253132   1.483   5.553   7.357  0.2721  1.0080  0.0644
17122SOL     OW53133   0.236   9.076   5.855 -0.9659 -0.6612 -0.0467
17122SOL    HW153134   0.212   9.136   5.784  0.5309 -0.1777 -0.1817
17122SOL    HW253135   0.255   8.993   5.811 -0.6152 -0.5264 -0.1565
17123SOL     OW53136   5.881   3.777   7.198 -0.2200  0.0601 -0.3325
17123SOL    HW153137   5.951   3.716   7.218  0.6423  0.3023 -2.3771
17123SOL    HW253138   5.824   3.730   7.136 -0.1824  0.8960 -1.0251
17124SOL     OW53139   9.636   0.987   6.798  0.1077 -0.0588 -0.1036
17124SOL    HW153140   9.555   0.971   6.845  0.4803 -1.6107  0.0921
17124SOL    HW253141   9.699   0.927   6.839  2.2533  3.2732  1.8814
17125SOL     OW53142   3.034   3.149   0.219 -0.3424 -0.6314 -0.0255
17125SOL    HW153143   3.045   3.129   0.126 -2.5205 -0.4431 -0.3675
17125SOL    HW253144   3.055   3.243   0.226  0.2301 -0.7391 -0.2244
17126SOL     OW53145   1.598   4.649   5.656 -0.3851  0.3616  0.0165
17126SOL    HW153146   1.667   4.616   5.714 -0.3545 -1.5514 -1.0258
17126SOL    HW253147   1.523   4.661   5.714 -0.6973 -2.5953  0.4002
17127SOL     OW53148   3.584   7.525   2.657  0.2503  0.2706  0.2262
17127SOL    HW153149   3.555   7.541   2.747 -0.3995 -0.5289  0.1613
17127SOL    HW253150   3.661   7.469   2.667 -0.2796 -0.4596  0.2570
17128SOL     OW53151   7.120   8.298   1.506 -0.0034  0.0316 -0.7317
17128SOL    HW153152   7.132   8.203   1.501 -1.4012 -0.1183 -1.9021
17128SOL    HW253153   7.162   8.331   1.427 -0.4448  0.2691 -0.8700
17129SOL     OW53154   7.043   6.771   2.050 -0.8416 -0.0466  0.0337
17129SOL    HW153155   6.988   6.849   2.041  0.0173  0.4402 -1.2576
17129SOL    HW253156   6.983   6.698   2.035 -1.0256  0.4989 -2.1131
17130SOL     OW53157   6.134   5.243   6.638  0.8091  0.2092 -0.1978
17130SOL    HW153158   6.046   5.249   6.602  0.9372 -1.7000 -0.9777
17130SOL    HW253159   6.174   5.328   6.621 -0.1804  0.3924 -1.7791
17131SOL     OW53160   0.014   5.463   8.632  0.5021  0.4813 -0.1069
17131SOL    HW153161   0.086   5.413   8.595 -1.2974 -1.4284 -1.2124
17131SOL    HW253162  -0.044   5.398   8.671 -0.6764  1.9434  0.7203
17132SOL     OW53163   8.805   8.628   5.529 -0.1021 -0.6455  0.8280
17132SOL    HW153164   8.871   8.560   5.546 -0.7369 -1.3918  0.3508
17132SOL    HW253165   8.763   8.642   5.614  1.6072  0.9009  1.5091
17133SOL     OW53166   8.177   6.095   8.451 -0.7632  0.1540  0.3113
17133SOL    HW153167   8.255   6.069   8.401 -1.0563  0.1948 -0.1667
17133SOL    HW253168   8.108   6.038   8.420 -0.6781 -0.6832  1.5646
17134SOL     OW53169   8.682   3.748   6.762  0.2367  0.1026 -0.7947
17134SOL    HW153170   8.736   3.811   6.715  1.8829  0.4188  1.4067
17134SOL    HW253171   8.640   3.799   6.831  1.0641 -1.0295  0.6043
17135SOL     OW53172   2.031   4.233   4.112  0.3144 -0.0402 -0.0302
17135SOL    HW153173   2.004   4.217   4.202  1.0084  0.8698  0.3556
17135SOL    HW253174   2.106   4.174   4.099 -1.5890 -2.3991 -1.0286
17136SOL     OW53175   6.963   6.999   1.203 -0.1509  0.0856  0.0291
17136SOL    HW153176   6.940   6.906   1.205  2.0952 -0.5724 -0.8916
17136SOL    HW253177   6.972   7.024   1.295  0.9055 -1.0982  0.2737
17137SOL     OW53178   5.868   3.238   1.792 -0.4300 -0.1425 -0.2361
17137SOL    HW153179   5.957   3.220   1.823 -0.6146  0.8139  0.9471
17137SOL    HW253180   5.849   3.167   1.731  1.5260  0.2004 -1.3297
17138SOL     OW53181   4.226   6.467   1.467  0.0211  0.3393  0.1110
17138SOL    HW153182   4.246   6.393   1.410 -0.5689  0.5435 -0.3702
17138SOL    HW253183   4.244   6.544   1.414 -0.4468  0.5328  0.2245
17139SOL     OW53184   6.074   1.117   5.490 -0.1112 -0.3922 -0.0228
17139SOL    HW153185   6.054   1.166   5.569 -0.6330 -0.5265 -0.0674
17139SOL    HW253186   6.155   1.156   5.457  0.9569 -1.3064  1.3875
17140SOL     OW53187   3.573   7.958   9.225 -0.0694  0.0238 -0.6926
17140SOL    HW153188   3.641   7.891   9.214 -0.5342 -0.4145 -0.9111
17140SOL    HW253189   3.567   8.000   9.139  0.7558  0.8780 -0.3613
17141SOL     OW53190   1.665   7.748   1.305 -0.2034 -0.2091 -0.2036
17141SOL    HW153191   1.713   7.667   1.317  0.2249 -0.1553 -1.3829
17141SOL    HW253192   1.721   7.815   1.345 -1.2675 -0.6505  2.1413
17142SOL     OW53193   2.072   1.436   1.058 -0.3469  0.1973  0.3192
17142SOL    HW153194   2.111   1.475   1.136  0.9882 -0.1944 -0.1295
17142SOL    HW253195   2.146   1.411   1.004 -1.1225 -2.9346  0.5313
17143SOL     OW53196   5.554   5.685   9.540 -0.1915 -0.4828 -0.0334
17143SOL    HW153197   5.459   5.675   9.530 -0.2719  0.6667 -0.6616
17143SOL    HW253198   5.578   5.748   9.472  1.1262 -1.2252 -0.2754
17144SOL     OW53199   7.133   9.479   3.606 -0.8973  0.2689  0.3830
17144SOL    HW153200   7.108   9.563   3.569 -0.8174 -0.3384 -1.1206
17144SOL    HW253201   7.066   9.418   3.575  0.0022 -0.5426 -0.0277
17145SOL     OW53202   6.526   3.668   7.072 -0.0228 -0.3106 -0.7312
17145SOL    HW153203   6.477   3.706   7.145  0.5230 -1.6600  0.3834
17145SOL    HW253204   6.618   3.682   7.095  0.1577  0.7110 -1.9816
17146SOL     OW53205   0.223   6.983   0.900  0.7051  0.0324  0.0295
17146SOL    HW153206   0.256   7.061   0.855 -0.1840  0.4810  0.1318
17146SOL    HW253207   0.161   6.945   0.838 -0.5205  0.6448  0.8401
17147SOL     OW53208   9.364   1.950   2.352  0.9465 -0.1220 -0.5711
17147SOL    HW153209   9.432   1.993   2.405  1.6883  0.6397 -2.0626
17147SOL    HW253210   9.294   2.015   2.347  1.9833  0.9543 -2.6564
17148SOL     OW53211   2.208   4.636   6.392  0.2318 -0.3724 -0.2728
17148SOL    HW153212   2.197   4.627   6.297 -0.5814  1.2526 -0.3747
17148SOL    HW253213   2.136   4.587   6.430  0.0623 -0.3340 -0.5391
17149SOL     OW53214   6.984   8.652   3.651 -0.0974 -0.7099  0.3997
17149SOL    HW153215   7.072   8.683   3.631  0.0029 -0.4040  1.2824
17149SOL    HW253216   6.927   8.699   3.590  0.3008 -0.6011  0.1100
17150SOL     OW53217   8.835   9.505   4.056  0.9004 -0.1058 -0.3284
17150SOL    HW153218   8.778   9.528   4.129  0.5185  0.9985 -0.9542
17150SOL    HW253219   8.923   9.509   4.093  0.7281  0.6980  0.0159
17151SOL     OW53220   5.145   2.833   9.037 -0.9274  0.2095  0.0224
17151SOL    HW153221   5.128   2.741   9.017 -1.7497  0.4593 -0.4676
17151SOL    HW253222   5.136   2.839   9.132 -0.4890 -0.2873  0.1004
17152SOL     OW53223   1.754   6.924   7.182 -0.4555 -0.0953 -0.2049
17152SOL    HW153224   1.841   6.927   7.143 -0.9629  2.0676 -1.3013
17152SOL    HW253225   1.730   7.015   7.196 -2.4609 -0.6389  0.2789
17153SOL     OW53226   9.224   7.112   3.660 -0.2725  0.1498  0.4358
17153SOL    HW153227   9.182   7.094   3.744 -0.1018  1.0799  0.7218
17153SOL    HW253228   9.165   7.073   3.596 -0.5258 -0.3594  0.9647
17154SOL     OW53229   1.570   7.140   7.842 -0.1206 -0.1121  0.0638
17154SOL    HW153230   1.533   7.206   7.784  1.4993  0.1187 -0.7711
17154SOL    HW253231   1.633   7.093   7.788  0.2947 -0.9406  1.2170
17155SOL     OW53232   8.761   1.867   9.759  0.0273 -0.4781 -0.2206
17155SOL    HW153233   8.751   1.916   9.678  0.2232  0.0942  0.0954
17155SOL    HW253234   8.787   1.932   9.824  0.3132 -1.0023  0.2062
17156SOL     OW53235   6.847   4.524   0.458  1.1746 -0.0750  0.1672
17156SOL    HW153236   6.829   4.439   0.500  2.4771 -0.5149 -0.1200
17156SOL    HW253237   6.820   4.588   0.523 -1.7888 -0.6134 -0.3860
17157SOL     OW53238   1.553   0.384   7.813  0.5539 -0.3227 -0.9369
17157SOL    HW153239   1.646   0.405   7.806  1.2399 -2.3721  0.9649
17157SOL    HW253240   1.534   0.385   7.907 -1.3715  0.0566 -1.2777
17158SOL     OW53241   2.666   9.626   9.633  0.1471  0.1823  0.4154
17158SOL    HW153242   2.699   9.543   9.601 -0.5859  0.7139 -1.9264
17158SOL    HW253243   2.738   9.688   9.619 -0.0329  0.3385  0.1631
17159SOL     OW53244   3.459   7.210   2.089  0.4874  0.3708  0.2258
17159SOL    HW153245   3.499   7.124   2.076  0.9776  1.0026 -3.4424
17159SOL    HW253246   3.387   7.213   2.027  0.1182  2.4207  0.6656
17160SOL     OW53247   3.156   7.241   1.663  0.1289 -0.4509 -0.3485
17160SOL    HW153248   3.125   7.331   1.669 -1.7539 -0.8885 -2.1581
17160SOL    HW253249   3.246   7.249   1.632  0.4083  0.8009  0.6879
17161SOL     OW53250   4.871   0.770   3.757 -0.2627 -0.1507 -0.4022
17161SOL    HW153251   4.863   0.701   3.824  0.5743 -0.8984 -1.0476
17161SOL    HW253252   4.785   0.773   3.715 -0.5135 -0.3171  0.0904
17162SOL     OW53253   8.808   2.920   2.922 -0.4325 -0.0027  0.6024
17162SOL    HW153254   8.791   2.828   2.942 -0.4599 -0.3436 -0.8508
17162SOL    HW253255   8.721   2.960   2.915 -0.6276 -0.6598 -2.0302
17163SOL     OW53256   3.204   3.590   3.441 -0.0000 -0.0358  0.2463
17163SOL    HW153257   3.109   3.583   3.435  0.1101 -1.0726 -0.3832
17163SOL    HW253258   3.229   3.645   3.367  0.1697 -2.4422 -1.5770
17164SOL     OW53259   2.607   1.924   9.321  0.0028 -0.4211 -0.1848
17164SOL    HW153260   2.652   1.900   9.402 -0.3455 -0.6206 -0.0479
17164SOL    HW253261   2.516   1.897   9.335 -0.1725  0.0305 -0.4365
17165SOL     OW53262   1.669   2.440   8.782  0.1127  0.0609 -0.1854
17165SOL    HW153263   1.736   2.504   8.805 -0.5277  0.4291  0.7090
17165SOL    HW253264   1.588   2.492   8.775 -0.0980 -0.3866 -1.1643
17166SOL     OW53265   1.710   7.682   3.690 -0.0449 -0.1313  0.6347
17166SOL    HW153266   1.737   7.741   3.761 -0.6578  1.0205 -0.0679
17166SOL    HW253267   1.793   7.653   3.651  0.2965  1.8040 -0.2360
17167SOL     OW53268   8.119   1.415   4.022 -0.7094  0.1515  0.3399
17167SOL    HW153269   8.062   1.492   4.028 -1.1048  0.0255 -1.3737
17167SOL    HW253270   8.202   1.444   4.060 -1.4930  0.7322  1.6854
17168SOL     OW53271   0.100   5.801   2.797 -0.0567 -0.1519  0.1047
17168SOL    HW153272   0.058   5.808   2.883 -0.7277  2.6729 -0.3559
17168SOL    HW253273   0.192   5.824   2.814 -0.3176  1.0153  0.0101
17169SOL     OW53274   5.619   4.978   5.910  0.0457 -0.3410 -0.3610
17169SOL    HW153275   5.646   4.912   5.975 -0.2648  0.6063  0.7673
17169SOL    HW253276   5.702   5.014   5.877  0.3183  1.7231  2.2236
17170SOL     OW53277   1.617   5.395   0.332  0.6106  0.2025  0.2975
17170SOL    HW153278   1.705   5.433   0.330  0.9637 -0.5520  0.9566
17170SOL    HW253279   1.566   5.457   0.383  0.8758  0.4208  0.3017
17171SOL     OW53280   4.057   1.896   4.545  0.6612  0.6541  0.4650
17171SOL    HW153281   4.068   1.980   4.500 -1.4650  0.8512  0.1739
17171SOL    HW253282   3.962   1.887   4.554  0.7603 -2.2488 -0.4981
17172SOL     OW53283   7.412   3.970   3.927  1.0403 -0.1837 -0.5871
17172SOL    HW153284   7.490   3.934   3.970  0.2708 -0.5325  0.5377
17172SOL    HW253285   7.359   3.894   3.904 -0.0656  0.1506  0.7878
17173SOL     OW53286   1.884   0.934   6.056  0.2933  0.1671 -0.0193
17173SOL    HW153287   1.941   0.878   6.004 -0.9052 -0.0701 -1.1281
17173SOL    HW253288   1.943   1.002   6.090  1.5963 -1.2118  0.6154
17174SOL     OW53289   8.964   9.428   2.221  0.0458 -0.5301  0.0983
17174SOL    HW153290   8.991   9.364   2.155 -0.1491 -1.2316  0.6851
17174SOL    HW253291   8.868   9.420   2.224 -0.0177  0.0511 -0.0693
17175SOL     OW53292   4.980   5.104   0.760  0.5999  0.3695  0.1858
17175SOL    HW153293   5.039   5.104   0.835 -0.8038 -0.6584  1.3114
17175SOL    HW253294   5.024   5.162   0.696  1.9986  0.9513  1.6090
17176SOL     OW53295   4.485   7.302   2.970  0.5148  0.1656 -0.9990
17176SOL    HW153296   4.521   7.302   2.882 -0.7288 -2.1689 -1.5908
17176SOL    HW253297   4.491   7.210   2.998 -0.3239  0.6233  0.8222
17177SOL     OW53298   2.079   4.939   4.196  0.1178 -0.0823 -0.5896
17177SOL    HW153299   2.013   4.954   4.128  0.3658 -2.4514 -1.4509
17177SOL    HW253300   2.028   4.915   4.273 -0.0921  0.5446 -0.5255
17178SOL     OW53301   6.370   8.691   7.790 -0.2472  0.6085 -0.7029
17178SOL    HW153302   6.410   8.671   7.875  3.5285 -1.4755 -2.7077
17178SOL    HW253303   6.359   8.786   7.790  0.5270  0.7596  1.7254
17179SOL     OW53304   8.416   6.357   3.899  0.2901  0.0843 -0.8468
17179SOL    HW153305   8.342   6.314   3.943  0.0513  0.5761 -0.7548
17179SOL    HW253306   8.493   6.313   3.934  0.1083  0.5239  0.1401
17180SOL     OW53307   2.873   7.531   2.779  0.8593 -0.3164  0.1039
17180SOL    HW153308   2.902   7.622   2.784 -0.6299  0.1230  2.1483
17180SOL    HW253309   2.939   7.482   2.827  0.7634 -0.0396  0.5272
17181SOL     OW53310   3.198   0.410   1.059 -0.2475  0.6407  0.1340
17181SOL    HW153311   3.179   0.439   1.148 -0.7951 -0.5913  0.4395
17181SOL    HW253312   3.273   0.352   1.067  2.3252  3.5545 -0.7665
17182SOL     OW53313   7.658   5.364   8.163 -0.4875  0.0846  0.0594
17182SOL    HW153314   7.651   5.442   8.218 -1.0108 -0.7959  1.2585
17182SOL    HW253315   7.568   5.345   8.136 -0.2616  0.3977 -0.9792
17183SOL     OW53316   1.370   4.702   4.203 -0.6175  0.1266  0.3421
17183SOL    HW153317   1.376   4.737   4.115 -0.5312  0.9563  0.6671
17183SOL    HW253318   1.276   4.699   4.222 -0.5823  2.1762  1.0635
17184SOL     OW53319   6.849   1.040   4.668 -0.5406 -0.0430 -0.1449
17184SOL    HW153320   6.826   1.080   4.752 -1.4134 -0.5976 -0.1119
17184SOL    HW253321   6.765   1.021   4.626 -0.1759 -1.9138 -0.1166
17185SOL     OW53322   7.568   2.188   3.836  0.7366  0.6263 -0.2147
17185SOL    HW153323   7.543   2.256   3.899  3.1176  0.0851  1.4492
17185SOL    HW253324   7.585   2.111   3.890 -2.2808 -1.5593 -2.0649
17186SOL     OW53325   8.563   4.415   4.843  0.3579 -0.1617  0.4451
17186SOL    HW153326   8.587   4.491   4.790 -2.5277  0.7080  0.2130
17186SOL    HW253327   8.468   4.411   4.837  0.3436 -3.4519  0.9895
17187SOL     OW53328   6.228   0.032   3.610  0.3497 -0.2369 -0.0334
17187SOL    HW153329   6.218  -0.063   3.607  2.4195 -0.5455  1.2416
17187SOL    HW253330   6.258   0.051   3.699 -0.6851  1.7116 -0.0338
17188SOL     OW53331   4.990   4.408   3.020  0.3588 -0.5462  0.3541
17188SOL    HW153332   4.967   4.316   3.014  1.1127 -0.7244  0.0879
17188SOL    HW253333   4.996   4.426   3.114 -0.6001 -0.5539  0.4206
17189SOL     OW53334   4.378   3.748   2.140  0.1766 -0.2135  0.4950
17189SOL    HW153335   4.405   3.657   2.154  1.4841  0.3122  1.5150
17189SOL    HW253336   4.433   3.778   2.067  0.1256 -0.0729  0.5144
17190SOL     OW53337   6.440   0.150   8.165 -0.3424  0.6954  0.4919
17190SOL    HW153338   6.365   0.100   8.196 -0.0577 -1.0570 -1.4020
17190SOL    HW253339   6.504   0.142   8.236 -0.1305 -2.1723  0.1198
17191SOL     OW53340   5.136   4.120   8.807 -0.4950 -0.1988 -0.2847
17191SOL    HW153341   5.084   4.079   8.738 -1.1047  1.1700 -0.6759
17191SOL    HW253342   5.197   4.177   8.760  0.6362 -0.9527  0.2243
17192SOL     OW53343   2.218   6.456   0.297 -0.1923 -0.1798 -0.2474
17192SOL    HW153344   2.184   6.367   0.308  0.3699 -0.4039 -0.2808
17192SOL    HW253345   2.313   6.446   0.302 -0.1573  0.5771  0.9056
17193SOL     OW53346   9.596   3.755   0.166  0.2238 -0.5295  0.5174
17193SOL    HW153347   9.616   3.743   0.259  0.8602  1.2486  0.6584
17193SOL    HW253348   9.605   3.668   0.128  1.9459 -0.9613  1.7694
17194SOL     OW53349   5.102   4.455   7.388 -0.2092 -0.1398 -0.0617
17194SOL    HW153350   5.067   4.395   7.454 -0.1109  0.4400  0.5253
17194SOL    HW253351   5.187   4.417   7.365 -0.1353 -0.2170  0.3249
17195SOL     OW53352   8.695   9.734   6.142 -0.5198 -0.0817 -0.1975
17195SOL    HW153353   8.650   9.816   6.161  0.3736 -0.0039  1.7518
17195SOL    HW253354   8.625   9.674   6.117 -1.4988  0.5284  0.9914
17196SOL     OW53355   1.491   4.317   5.229  0.1780  0.5268  0.1870
17196SOL    HW153356   1.510   4.227   5.255 -1.5548  0.4427  1.2985
17196SOL    HW253357   1.452   4.310   5.142 -3.1577 -0.2217  1.6086
17197SOL     OW53358   5.450   1.329   6.553 -0.0347  0.0144 -0.0062
17197SOL    HW153359   5.362   1.310   6.522 -0.0869  0.5428 -0.2073
17197SOL    HW253360   5.474   1.254   6.607  0.2123 -1.1408 -1.6464
17198SOL     OW53361   4.392   1.908   5.038 -0.0420 -0.1032 -0.4471
17198SOL    HW153362   4.409   1.828   4.989 -0.7736 -1.5568  1.5588
17198SOL    HW253363   4.353   1.967   4.974  0.4503 -1.3458 -1.9635
17199SOL     OW53364   0.087   3.544   2.644 -0.6804  0.5818  0.7304
17199SOL    HW153365   0.049   3.571   2.728  0.2698  1.6811  0.8243
17199SOL    HW253366   0.083   3.622   2.589 -2.5237 -0.4621 -0.7518
17200SOL     OW53367   0.539   5.961   6.192 -0.3286 -0.0906  0.2811
17200SOL    HW153368   0.545   5.909   6.112 -0.5318 -0.2546  0.3711
17200SOL    HW253369   0.618   5.939   6.242  0.5430  1.1080 -0.5208
17201SOL     OW53370   5.353   2.988   3.588  0.6327 -0.4673 -0.0209
17201SOL    HW153371   5.305   2.906   3.593 -0.6347  0.3067  1.6337
17201SOL    HW253372   5.424   2.978   3.652 -0.9340  0.5147  1.9842
17202SOL     OW53373   7.910   5.024   2.702 -0.0239  0.3409  0.0426
17202SOL    HW153374   7.879   4.948   2.752 -1.7477 -0.4293 -2.0639
17202SOL    HW253375   7.835   5.083   2.700  1.0762  1.8503  1.0504
17203SOL     OW53376   4.748   2.577   7.245  0.0596 -0.2587  0.2130
17203SOL    HW153377   4.711   2.490   7.232 -0.9986  0.3112 -0.7663
17203SOL    HW253378   4.826   2.579   7.191 -0.0220 -0.5380  0.0849
17204SOL     OW53379   7.348   0.500   0.554 -0.1541 -0.4107 -0.3730
17204SOL    HW153380   7.334   0.422   0.501  0.8623  0.3718 -1.8751
17204SOL    HW253381   7.328   0.473   0.644  1.3098 -2.7135 -0.6691
17205SOL     OW53382   0.953   8.249   5.476  0.3787  0.2314  0.2382
17205SOL    HW153383   1.040   8.284   5.491 -0.2045  1.7375  0.2871
17205SOL    HW253384   0.961   8.155   5.493  2.2879  0.1014 -1.1643
17206SOL     OW53385   2.219   6.561   3.233  0.0104 -0.5472  0.9348
17206SOL    HW153386   2.311   6.577   3.254  0.0213 -0.0609  0.5437
17206SOL    HW253387   2.171   6.588   3.311  0.2593 -1.7865  1.5458
17207SOL     OW53388   7.578   2.330   5.839  0.0018 -0.2654 -0.0514
17207SOL    HW153389   7.502   2.346   5.783 -0.1975  1.1602  0.5851
17207SOL    HW253390   7.652   2.330   5.778 -0.3027  0.3819 -0.4366
17208SOL     OW53391   9.404   3.474   2.980 -0.0956 -0.0295 -0.6495
17208SOL    HW153392   9.421   3.393   2.932 -0.1436  1.0737 -2.6208
17208SOL    HW253393   9.374   3.536   2.914 -0.6764  1.4448  0.9054
17209SOL     OW53394   8.315   6.814   2.506  0.2019  0.0515 -0.5631
17209SOL    HW153395   8.348   6.740   2.556  0.8630  0.4988 -0.3237
17209SOL    HW253396   8.334   6.890   2.561 -1.1526  0.3447 -0.4469
17210SOL     OW53397   8.340   3.911   7.989  0.2111 -0.5069  0.1830
17210SOL    HW153398   8.294   3.859   7.922 -1.4677  0.2675  0.6675
17210SOL    HW253399   8.284   3.905   8.066  0.6195  0.9917  0.6256
17211SOL     OW53400   5.473   4.365   8.206  0.4896 -0.0876  0.1376
17211SOL    HW153401   5.548   4.424   8.217  0.0738  0.5624 -0.4576
17211SOL    HW253402   5.466   4.352   8.111 -0.7995  0.7253  0.1001
17212SOL     OW53403   3.728   1.118   7.757 -0.4314 -0.2720 -0.5967
17212SOL    HW153404   3.762   1.193   7.805 -2.0452  0.0183  0.1555
17212SOL    HW253405   3.663   1.154   7.697 -1.5672 -1.0926  0.1078
17213SOL     OW53406   1.710   8.689   6.493 -0.0178  0.1888 -0.3520
17213SOL    HW153407   1.663   8.679   6.576 -0.3272 -0.9367 -0.6461
17213SOL    HW253408   1.684   8.612   6.442  0.1188  0.8984 -1.5147
17214SOL     OW53409   0.723   6.040   6.474 -0.2727 -0.1338 -0.8183
17214SOL    HW153410   0.790   6.091   6.429 -0.0302 -0.3316 -0.6841
17214SOL    HW253411   0.657   6.104   6.500 -0.3150  0.0075 -1.2755
17215SOL     OW53412   3.556   3.496   7.789 -0.1305  0.1926  0.0398
17215SOL    HW153413   3.495   3.544   7.733  0.4786 -0.3077 -1.0674
17215SOL    HW253414   3.568   3.554   7.865 -1.5838  0.5184  0.0654
17216SOL     OW53415   7.292   7.568   3.660 -0.3735  0.1247 -0.3505
17216SOL    HW153416   7.364   7.564   3.724 -0.5975 -0.8397 -0.1410
17216SOL    HW253417   7.217   7.598   3.710 -0.7797 -1.5161  0.0897
17217SOL     OW53418   9.448   5.563   7.524 -0.3999  0.0359 -0.3572
17217SOL    HW153419   9.397   5.579   7.603  0.4250  2.3789 -0.2374
17217SOL    HW253420   9.536   5.594   7.545  0.2559 -0.8094 -1.6722
17218SOL     OW53421   3.760   6.732   1.103 -0.0342 -0.1904  0.0900
17218SOL    HW153422   3.717   6.707   1.021  0.5065 -1.4763  0.1750
17218SOL    HW253423   3.690   6.728   1.168 -0.5451  1.1838 -0.3488
17219SOL     OW53424   0.201   4.403   7.698  0.0176  0.1545  0.3808
17219SOL    HW153425   0.159   4.446   7.772 -0.7213 -0.5061  0.3610
17219SOL    HW253426   0.260   4.339   7.739  0.0507  0.2032  0.4086
17220SOL     OW53427   3.958   7.792   7.299 -0.0479 -0.1023  0.2861
17220SOL    HW153428   3.873   7.798   7.343  0.2023 -0.3579  0.7969
17220SOL    HW253429   3.949   7.851   7.224 -1.2584 -1.3583 -0.6089
17221SOL     OW53430   6.295   4.621   7.300 -0.0189 -0.2634  0.2123
17221SOL    HW153431   6.358   4.632   7.372 -0.7546  1.0461  0.6829
17221SOL    HW253432   6.283   4.709   7.265  0.8967 -0.9594 -2.0576
17222SOL     OW53433   1.886   2.851   5.612 -0.1546 -0.0757  0.8608
17222SOL    HW153434   1.875   2.833   5.705  0.2961 -1.5231  0.6598
17222SOL    HW253435   1.828   2.788   5.569  0.1996  0.0799  0.1448
17223SOL     OW53436   2.998   6.498   3.427  0.0259  0.3006  0.3955
17223SOL    HW153437   2.919   6.525   3.473 -1.3731  0.9066 -2.1461
17223SOL    HW253438   3.026   6.418   3.473 -1.2565  0.8175  2.1908
17224SOL     OW53439   3.162   3.014   9.836 -0.4665 -0.3552  0.2951
17224SOL    HW153440   3.220   3.079   9.797  0.0246 -0.2574  1.1485
17224SOL    HW253441   3.216   2.969   9.901 -1.7441  0.8749  2.3267
17225SOL     OW53442   5.936   5.383   4.641 -0.0750  0.1677 -0.6584
17225SOL    HW153443   5.860   5.415   4.592 -0.7046 -1.7804 -1.0414
17225SOL    HW253444   5.999   5.358   4.573 -0.3605 -1.1593 -0.4495
17226SOL     OW53445   5.547   1.176   7.945 -0.4343  0.0381 -0.4131
17226SOL    HW153446   5.544   1.272   7.944  0.4761  0.1050  0.6391
17226SOL    HW253447   5.544   1.153   8.038 -0.8974 -0.9718 -0.6656
17227SOL     OW53448   3.935   4.396   3.246  0.2029  0.1486  0.5264
17227SOL    HW153449   3.861   4.367   3.193 -0.0950  0.3394  0.8272
17227SOL    HW253450   3.924   4.351   3.330  0.9594 -0.5528  0.2570
17228SOL     OW53451   4.124   9.368   7.691  0.4185  0.6059  0.6036
17228SOL    HW153452   4.138   9.458   7.662  1.8947  0.4656  0.8245
17228SOL    HW253453   4.127   9.372   7.786 -0.4604  0.4568  0.6439
17229SOL     OW53454   1.409   4.629   1.947 -0.0347  0.1353  0.2886
17229SOL    HW153455   1.438   4.539   1.932 -2.0600 -0.7817  1.4371
17229SOL    HW253456   1.314   4.621   1.959 -0.3288  2.5080 -0.0759
17230SOL     OW53457   7.113   1.347   3.942  0.0261 -0.0348 -0.3078
17230SOL    HW153458   7.171   1.351   3.867  0.5374 -2.0239 -0.0824
17230SOL    HW253459   7.118   1.256   3.971 -0.5711  0.5546  1.8081
17231SOL     OW53460   0.525   8.604   9.041 -0.2724  0.3011  0.2675
17231SOL    HW153461   0.454   8.545   9.018  2.1722 -2.8756  0.1689
17231SOL    HW253462   0.498   8.645   9.123 -2.0929 -0.9580  0.3370
17232SOL     OW53463   3.840   1.455   2.714 -0.2780  0.0560  0.6589
17232SOL    HW153464   3.899   1.486   2.645 -1.8655  2.6935  0.3895
17232SOL    HW253465   3.830   1.529   2.773 -1.5093 -1.1058  1.9947
17233SOL     OW53466   7.524   5.233   0.391  0.3181 -0.1026  0.3737
17233SOL    HW153467   7.444   5.233   0.444  0.2099  0.7419  0.2190
17233SOL    HW253468   7.592   5.263   0.452  0.0523  1.6476 -0.1487
17234SOL     OW53469   6.777   7.145   4.650 -0.1053 -0.0319 -0.6140
17234SOL    HW153470   6.821   7.174   4.730 -0.7341 -0.7314  0.0038
17234SOL    HW253471   6.705   7.091   4.681 -0.2463 -0.4682 -1.6675
17235SOL     OW53472   8.655   8.683   0.973 -0.1293 -0.1120  0.3683
17235SOL    HW153473   8.580   8.693   1.031 -1.2838  0.0916 -1.0746
17235SOL    HW253474   8.648   8.593   0.940 -0.4817  0.2810 -0.6914
17236SOL     OW53475   9.625   2.707   7.494 -0.2374 -0.3731 -0.3394
17236SOL    HW153476   9.658   2.792   7.467  0.5596 -0.5886 -0.0856
17236SOL    HW253477   9.556   2.686   7.431  1.5209 -0.8599 -2.2153
17237SOL     OW53478   0.729   8.809   7.873  0.0907  0.4002 -0.6133
17237SOL    HW153479   0.799   8.871   7.851 -0.9244  1.3118 -1.3729
17237SOL    HW253480   0.730   8.803   7.968  1.4176  0.1302 -0.6284
17238SOL     OW53481   8.640   3.013   4.276  0.2441 -0.3944 -0.5542
17238SOL    HW153482   8.647   2.934   4.329  1.7344 -0.6003 -1.0135
17238SOL    HW253483   8.725   3.021   4.232  0.4982  1.9815  0.2085
17239SOL     OW53484   2.188   8.550   5.762  0.3783  0.3726 -0.2044
17239SOL    HW153485   2.216   8.577   5.850 -0.2143  2.3735 -0.5807
17239SOL    HW253486   2.247   8.598   5.703 -1.0639  1.3197 -0.9216
17240SOL     OW53487   3.201   7.412   0.960  0.5881  0.0284  0.2040
17240SOL    HW153488   3.285   7.384   0.996  1.4532 -0.8674 -2.3549
17240SOL    HW253489   3.165   7.334   0.919 -0.5475  0.8929 -0.4902
17241SOL     OW53490   2.115   2.491   0.217  0.1341  0.0400 -0.7367
17241SOL    HW153491   2.058   2.440   0.161  0.8507 -1.6455  0.0067
17241SOL    HW253492   2.109   2.580   0.183 -3.3249  0.0742 -0.3654
17242SOL     OW53493   7.766   7.368   3.906  0.2403 -0.4980  0.2319
17242SOL    HW153494   7.860   7.377   3.914  0.1078  0.6705  0.6374
17242SOL    HW253495   7.751   7.349   3.814  0.7597  1.0475 -0.1904
17243SOL     OW53496   5.275   6.510   4.720 -0.1789 -0.4688 -0.0500
17243SOL    HW153497   5.293   6.416   4.728  0.3665 -0.2531  1.7378
17243SOL    HW253498   5.180   6.517   4.721 -0.2858 -0.8635  3.0717
17244SOL     OW53499   6.010   0.975   8.836  0.4218  0.1208  0.2274
17244SOL    HW153500   6.096   0.999   8.801 -0.2856 -0.4202 -2.0531
17244SOL    HW253501   6.025   0.893   8.882  1.5703  1.3538  2.2283
17245SOL     OW53502   4.104   3.578   3.311 -0.4185  0.1207 -0.3708
17245SOL    HW153503   4.094   3.509   3.245 -1.4465  0.4355 -0.5632
17245SOL    HW253504   4.104   3.532   3.395  0.5410 -0.2510 -0.5632
17246SOL     OW53505   8.649   3.631   5.945  0.1003  0.0667  0.0045
17246SOL    HW153506   8.733   3.606   5.908  0.1317 -1.1911  0.8888
17246SOL    HW253507   8.670   3.694   6.014  0.5116 -1.5551  1.4281
17247SOL     OW53508   4.928   4.431   8.462 -0.3374  0.2085  0.3810
17247SOL    HW153509   4.908   4.337   8.464  0.8015 -0.3060 -3.6339
17247SOL    HW253510   4.845   4.473   8.438 -0.1270 -0.2298 -1.2399
17248SOL     OW53511   6.413   3.964   5.773  0.5792 -0.4024  0.0116
17248SOL    HW153512   6.392   3.872   5.756  3.1253 -0.7710 -1.6346
17248SOL    HW253513   6.498   3.962   5.817  0.9449  1.1802 -0.5538
17249SOL     OW53514   1.710   3.375   2.959  0.5326  0.0743 -0.2399
17249SOL    HW153515   1.676   3.441   3.020 -0.5070 -1.6241  1.1368
17249SOL    HW253516   1.673   3.292   2.991  0.7125 -1.0256 -2.6688
17250SOL     OW53517   0.405   2.323   8.409 -0.1264  0.2642  0.5322
17250SOL    HW153518   0.387   2.229   8.415  1.1111  0.0227  0.6610
17250SOL    HW253519   0.328   2.359   8.365 -0.7329 -0.7664  0.7121
17251SOL     OW53520   9.546   1.900   1.847  0.0574 -0.2990 -0.1106
17251SOL    HW153521   9.612   1.966   1.869  0.3931 -0.6408 -0.0672
17251SOL    HW253522   9.575   1.864   1.763 -0.7858  0.4469 -0.7396
17252SOL     OW53523   7.087   8.761   4.293  0.0592 -0.3009  0.0854
17252SOL    HW153524   7.151   8.822   4.329  0.0594 -1.9802  3.3640
17252SOL    HW253525   7.011   8.770   4.351 -1.0790 -1.2825 -1.1879
17253SOL     OW53526   5.151   9.318   6.541  0.2568  0.5592  0.7404
17253SOL    HW153527   5.246   9.306   6.543  0.2960  0.3387 -1.0924
17253SOL    HW253528   5.123   9.274   6.461 -1.0244  2.9807 -0.2557
17254SOL     OW53529   8.995   0.927   4.165 -0.2383 -0.0071  0.2416
17254SOL    HW153530   9.074   0.970   4.130 -1.2508  0.2668 -1.8879
17254SOL    HW253531   8.987   0.962   4.254  0.6493  1.9354 -0.3650
17255SOL     OW53532   8.694   1.959   9.512 -0.0800  0.3257 -0.3994
17255SOL    HW153533   8.661   2.046   9.488 -0.1184  0.4138 -0.0345
17255SOL    HW253534   8.641   1.898   9.460 -0.7996  0.4692  0.1520
17256SOL     OW53535   5.928   6.952   1.049  0.1401  0.0479  0.1402
17256SOL    HW153536   5.959   7.039   1.021  0.2837  0.3583  1.2000
17256SOL    HW253537   5.901   6.909   0.968  0.7912  0.7939 -0.4990
17257SOL     OW53538   5.329   6.555   9.148  0.2904  0.2502 -0.1802
17257SOL    HW153539   5.240   6.574   9.119 -0.4122 -2.1386  0.2543
17257SOL    HW253540   5.356   6.479   9.097  0.0217 -2.4076  3.2223
17258SOL     OW53541   2.053   1.279   8.947  0.3830  0.1461 -0.3513
17258SOL    HW153542   1.957   1.284   8.942  0.4175 -0.0799 -1.5415
17258SOL    HW253543   2.078   1.354   9.000 -0.4502  0.1784  0.0269
17259SOL     OW53544   9.562   9.000   8.283 -0.5226 -0.4037 -0.3514
17259SOL    HW153545   9.610   8.969   8.360 -1.5752 -0.4633  0.2932
17259SOL    HW253546   9.547   9.093   8.300  0.2727 -0.1275 -1.0498
17260SOL     OW53547   2.145   2.604   2.479 -0.2655  0.2065  0.5073
17260SOL    HW153548   2.061   2.594   2.433 -2.0021 -0.0245  3.4440
17260SOL    HW253549   2.184   2.517   2.477 -0.6609  0.0358  0.0829
17261SOL     OW53550   9.447   5.602   0.358  0.1479 -0.4625 -0.2887
17261SOL    HW153551   9.520   5.543   0.341  0.9724  0.0836  1.1818
17261SOL    HW253552   9.402   5.564   0.434 -0.6208 -0.3598 -0.6811
17262SOL     OW53553   5.931   0.280   7.751  0.7769 -0.0466  0.3211
17262SOL    HW153554   5.839   0.293   7.726  0.1851  0.0218  2.3486
17262SOL    HW253555   5.971   0.366   7.744  1.0373 -0.2784 -1.6910
17263SOL     OW53556   0.267   6.751   7.751  0.2898  0.2931 -0.1600
17263SOL    HW153557   0.258   6.794   7.836  1.1995  0.6098 -0.2127
17263SOL    HW253558   0.334   6.802   7.705 -0.8590  0.6999 -1.4417
17264SOL     OW53559   3.103   3.463   6.893 -0.8673 -0.1426  0.6541
17264SOL    HW153560   3.026   3.439   6.842  0.5850 -0.0980 -1.6923
17264SOL    HW253561   3.173   3.407   6.859  1.2361  3.0480 -0.7543
17265SOL     OW53562   0.590   9.249   5.173 -0.0805  0.4848 -0.2615
17265SOL    HW153563   0.636   9.237   5.089 -0.2837 -2.7460 -0.0305
17265SOL    HW253564   0.660   9.256   5.237  0.2102 -1.9782 -0.2063
17266SOL     OW53565   2.049   9.077   5.397 -0.5107  0.0000  0.1315
17266SOL    HW153566   2.107   9.049   5.326  0.8205  0.9087  0.8026
17266SOL    HW253567   2.033   8.998   5.448 -0.2159 -0.3495 -0.3126
17267SOL     OW53568   0.810   2.875   0.541  0.1632  0.4789 -0.1899
17267SOL    HW153569   0.905   2.868   0.529  0.0679  0.4159 -0.9418
17267SOL    HW253570   0.784   2.952   0.491 -0.5713 -1.1457 -2.5062
17268SOL     OW53571   8.328   8.759   5.363 -0.0274 -0.3662  0.0016
17268SOL    HW153572   8.372   8.752   5.278  0.4952 -2.5456  0.3816
17268SOL    HW253573   8.335   8.671   5.401 -1.0560  0.3108  1.9132
17269SOL     OW53574   1.256   8.025   4.407  0.4758 -0.8490  0.2688
17269SOL    HW153575   1.202   7.956   4.370  1.2627 -0.7859 -1.0399
17269SOL    HW253576   1.212   8.107   4.382 -0.0867 -0.8311  1.2428
17270SOL     OW53577   7.114   5.643   7.976 -0.2121  0.1371  0.4048
17270SOL    HW153578   7.092   5.550   7.977  0.2967  0.0143  0.3113
17270SOL    HW253579   7.145   5.660   7.887  1.0647  0.0691  0.8149
17271SOL     OW53580   8.705   3.363   8.813  0.1228  0.3273 -0.2397
17271SOL    HW153581   8.753   3.443   8.832 -1.6599  1.9713 -2.1466
17271SOL    HW253582   8.742   3.332   8.730  2.0462 -1.9736  1.3376
17272SOL     OW53583   4.542   3.425   6.920 -0.3696  0.1245  0.0011
17272SOL    HW153584   4.495   3.506   6.904 -0.8738 -0.4294 -1.4871
17272SOL    HW253585   4.581   3.437   7.006 -2.4496  0.9808  0.8994
17273SOL     OW53586   9.836   0.603   3.392  0.1732  0.0334  0.9542
17273SOL    HW153587   9.870   0.656   3.320 -0.2632  0.8778  1.3659
17273SOL    HW253588   9.881   0.636   3.470  1.0054 -1.2004  1.0289
17274SOL     OW53589   3.110   2.740   4.748 -0.9901 -0.7257  0.4238
17274SOL    HW153590   3.129   2.832   4.731  0.6663 -0.9708  0.7669
17274SOL    HW253591   3.015   2.735   4.750 -1.2116  0.4683 -2.4259
17275SOL     OW53592   6.500   7.841   9.332 -0.3425 -0.0102  0.1396
17275SOL    HW153593   6.554   7.891   9.270 -1.9868  0.3915 -1.0536
17275SOL    HW253594   6.536   7.753   9.329  2.0193  0.8276  1.5617
17276SOL     OW53595   5.194   7.369   9.592 -0.4209  0.1923 -0.6459
17276SOL    HW153596   5.154   7.287   9.619  0.8058 -0.3322 -0.3702
17276SOL    HW253597   5.278   7.344   9.554 -0.3877  1.2535 -1.3387
17277SOL     OW53598   2.112   5.116   2.758 -0.1253 -0.2469  0.2810
17277SOL    HW153599   2.120   5.210   2.773 -0.5299 -0.1390 -0.1653
17277SOL    HW253600   2.051   5.086   2.825 -1.3355  0.1046 -0.6349
17278SOL     OW53601   8.991   9.311   8.236  0.5977 -0.2508 -0.7589
17278SOL    HW153602   9.071   9.276   8.275  1.0660 -0.1101 -1.5729
17278SOL    HW253603   8.923   9.292   8.300  1.2936 -0.3031 -0.0152
17279SOL     OW53604   3.782   3.449   1.695 -0.2551  0.3906 -0.0955
17279SOL    HW153605   3.754   3.500   1.771 -3.8383 -1.0461 -0.2189
17279SOL    HW253606   3.799   3.514   1.627  0.4051  1.5938  1.1712
17280SOL     OW53607   3.907   8.340   3.808 -0.1780  0.1548 -0.3899
17280SOL    HW153608   3.884   8.419   3.857  0.6066 -0.3468  0.8364
17280SOL    HW253609   3.824   8.297   3.792 -0.5106  0.6755 -0.0956
17281SOL     OW53610   2.211   8.729   1.220  0.2841  0.1342  0.0452
17281SOL    HW153611   2.133   8.776   1.189 -0.3682  0.2824  1.8192
17281SOL    HW253612   2.246   8.688   1.141 -1.3912  0.3421 -0.8631
17282SOL     OW53613   5.100   6.839   3.985 -0.0053 -0.2114  0.6008
17282SOL    HW153614   5.055   6.755   3.980  0.8353 -0.6992  1.0002
17282SOL    HW253615   5.115   6.864   3.894  1.3946 -1.4227  0.4718
17283SOL     OW53616   2.909   6.358   8.622 -0.6352  0.0946 -0.3789
17283SOL    HW153617   2.982   6.409   8.586 -0.5233  0.3377  0.1775
17283SOL    HW253618   2.933   6.267   8.604 -0.3019  0.1844 -0.4083
17284SOL     OW53619   4.022   6.783   1.336  0.4021  0.7038  0.1622
17284SOL    HW153620   3.952   6.807   1.275  0.3668 -0.6296 -0.3382
17284SOL    HW253621   3.986   6.710   1.386  0.8303  1.0990  1.0736
17285SOL     OW53622   0.237   3.755   7.518 -0.4494 -0.5329 -0.0177
17285SOL    HW153623   0.297   3.682   7.526  1.1134  0.8030  1.2058
17285SOL    HW253624   0.172   3.740   7.588  1.2398  0.4023  1.8431
17286SOL     OW53625   7.881   9.626   3.743  0.1011 -0.4864  0.5520
17286SOL    HW153626   7.902   9.550   3.688 -0.6436  1.1330 -2.0912
17286SOL    HW253627   7.920   9.700   3.698 -2.1233  1.1709  1.2148
17287SOL     OW53628   3.335   6.881   9.744 -0.3106  0.2256 -0.1383
17287SOL    HW153629   3.258   6.825   9.747  0.1872 -0.4537  0.2752
17287SOL    HW253630   3.346   6.902   9.651  0.4651 -1.7551 -0.5419
17288SOL     OW53631   3.411   6.546   7.683 -0.5301  0.1179 -0.2243
17288SOL    HW153632   3.334   6.497   7.656 -0.1729  0.2454 -1.5117
17288SOL    HW253633   3.381   6.637   7.691 -0.8654 -0.0651  0.8322
17289SOL     OW53634   9.349   2.931   6.234  0.1867  0.4593 -0.5137
17289SOL    HW153635   9.423   2.897   6.183  1.2487  2.2023 -0.1921
17289SOL    HW253636   9.328   3.014   6.193 -1.6233 -0.0020 -0.5809
17290SOL     OW53637   4.554   9.517   9.078 -0.5986 -0.0756 -0.4173
17290SOL    HW153638   4.492   9.476   9.138 -0.3775  0.1392 -0.0346
17290SOL    HW253639   4.560   9.608   9.109  0.6556 -0.3409  0.1645
17291SOL     OW53640   3.125   0.680   3.038  0.2738  0.2284  0.5508
17291SOL    HW153641   3.198   0.664   3.097 -0.0332 -0.1461  0.8358
17291SOL    HW253642   3.053   0.630   3.075 -0.8286  2.4492  1.6511
17292SOL     OW53643   5.351   2.191   0.936  0.0921  0.7570  0.3025
17292SOL    HW153644   5.422   2.145   0.982 -0.0924  0.2767  0.1174
17292SOL    HW253645   5.367   2.171   0.844  0.7082  2.0667  0.1094
17293SOL     OW53646   2.190   7.162   2.806  0.5248 -0.0741 -0.4057
17293SOL    HW153647   2.273   7.210   2.812 -0.9841  2.6618 -0.1600
17293SOL    HW253648   2.180   7.122   2.892  0.6572  1.2698  0.2634
17294SOL     OW53649   1.995   9.478   9.411 -0.2591  0.3254  0.2704
17294SOL    HW153650   2.041   9.498   9.493 -2.8036  0.4535  1.7771
17294SOL    HW253651   1.944   9.556   9.392 -0.3397 -0.0186 -1.0019
17295SOL     OW53652   6.524   1.836   6.754  0.0561 -0.1863  0.0286
17295SOL    HW153653   6.511   1.760   6.697  0.4528 -0.8277  0.7650
17295SOL    HW253654   6.594   1.886   6.712 -1.0273  0.4422 -1.1037
17296SOL     OW53655   8.882   6.002   5.652 -0.2558  0.2871  0.0626
17296SOL    HW153656   8.894   6.053   5.733  0.3626 -1.6950  1.2847
17296SOL    HW253657   8.962   6.018   5.602 -0.0802  0.5246  0.4096
17297SOL     OW53658   8.299   8.043   6.806 -0.1404 -0.3023 -0.1999
17297SOL    HW153659   8.342   8.072   6.725  0.1891  2.6253  0.9034
17297SOL    HW253660   8.371   8.014   6.862 -0.0462  0.2975  0.0030
17298SOL     OW53661   2.299   5.015   3.383  0.1102 -0.1138 -0.0543
17298SOL    HW153662   2.344   5.056   3.458  1.9018 -1.5733 -0.2505
17298SOL    HW253663   2.364   4.955   3.346 -1.3894 -0.8705 -1.6141
17299SOL     OW53664   5.432   2.083   9.601  0.1251 -0.2496  0.1120
17299SOL    HW153665   5.480   2.053   9.678  1.3722 -0.2892 -0.6676
17299SOL    HW253666   5.467   2.032   9.528 -0.1761  0.6303 -0.6804
17300SOL     OW53667   0.442   0.809   7.396  0.7473  0.2755 -0.0054
17300SOL    HW153668   0.366   0.779   7.445  1.0121  0.2307  0.3848
17300SOL    HW253669   0.497   0.853   7.462  0.3677  1.6266 -0.5543
17301SOL     OW53670   3.899   1.990   8.320  0.6385 -0.0639  0.2075
17301SOL    HW153671   3.812   2.024   8.343  1.0778  1.0481  0.2970
17301SOL    HW253672   3.890   1.962   8.229  0.3427  0.6488  0.0059
17302SOL     OW53673   7.720   0.629   8.380 -0.6013  0.0912 -0.0942
17302SOL    HW153674   7.678   0.545   8.363 -0.7541 -0.0782  1.0761
17302SOL    HW253675   7.809   0.619   8.346 -0.4489 -0.7374  0.5243
17303SOL     OW53676   3.763   4.413   7.070  0.0540  0.1757  0.0209
17303SOL    HW153677   3.832   4.356   7.105  0.9455  0.7629 -0.7243
17303SOL    HW253678   3.682   4.366   7.088  0.7255 -1.0950 -0.1130
17304SOL     OW53679   7.188   1.930   2.489  0.5409 -0.7032  0.2939
17304SOL    HW153680   7.171   1.883   2.571  2.2714 -1.2590  0.3757
17304SOL    HW253681   7.283   1.938   2.485  0.4815 -0.4235 -1.5224
17305SOL     OW53682   0.289   5.620   9.368  0.1429 -0.0787 -0.0157
17305SOL    HW153683   0.267   5.551   9.431 -0.7570  0.3560  0.1435
17305SOL    HW253684   0.353   5.578   9.309 -0.1582 -0.9527  0.2675
17306SOL     OW53685   2.096   2.926   8.713  0.0682 -0.8561 -0.2286
17306SOL    HW153686   2.175   2.882   8.742  0.5568 -0.6739 -1.2622
17306SOL    HW253687   2.109   3.017   8.739 -0.1178 -0.9522  0.2199
17307SOL     OW53688   6.780   9.105   5.181 -0.2914 -1.0454 -0.0179
17307SOL    HW153689   6.854   9.141   5.230  0.1687 -1.1556 -0.6212
17307SOL    HW253690   6.819   9.040   5.123 -0.8227 -0.8905 -0.5621
17308SOL     OW53691   8.000   6.084   6.055 -0.7294  0.0926 -0.3911
17308SOL    HW153692   8.010   6.083   6.151 -2.3696 -0.4371 -0.1911
17308SOL    HW253693   8.033   5.999   6.027  1.1982  0.8247 -0.5126
17309SOL     OW53694   4.166   0.308   6.734 -0.5307 -0.2616  0.7104
17309SOL    HW153695   4.212   0.286   6.653 -0.8398 -0.7268  0.6584
17309SOL    HW253696   4.077   0.277   6.719 -1.2044  1.6809  0.3206
17310SOL     OW53697   5.324   1.807   0.893  0.2785 -0.3524  0.2957
17310SOL    HW153698   5.391   1.842   0.833 -0.7332  1.3515  0.0824
17310SOL    HW253699   5.364   1.811   0.979  0.5192  0.5127  0.1502
17311SOL     OW53700   3.336   3.797   3.890 -0.2773  0.6113  0.1635
17311SOL    HW153701   3.326   3.863   3.822  1.1583  1.6516  0.9014
17311SOL    HW253702   3.265   3.735   3.874 -0.6854  1.4501 -1.5433
17312SOL     OW53703   1.378   5.578   7.650 -0.4084  0.5583  0.0456
17312SOL    HW153704   1.442   5.577   7.578  1.7053 -2.1984  1.7719
17312SOL    HW253705   1.428   5.611   7.725 -1.5790  0.2317  0.9894
17313SOL     OW53706   8.432   4.489   3.726 -0.6352  0.0150  0.2317
17313SOL    HW153707   8.485   4.561   3.692  0.1680 -0.9330 -0.5682
17313SOL    HW253708   8.479   4.460   3.804  0.2417 -1.0269 -0.6483
17314SOL     OW53709   1.430   2.210   5.025  1.0660  0.3341  0.1622
17314SOL    HW153710   1.511   2.252   5.053  0.1434  0.8855  2.2063
17314SOL    HW253711   1.392   2.175   5.106 -0.5596 -0.2309 -0.7936
17315SOL     OW53712   6.740   5.900   9.481  0.0715  0.3498 -0.4586
17315SOL    HW153713   6.797   5.823   9.478 -0.3501  0.0179 -0.0178
17315SOL    HW253714   6.799   5.972   9.503  0.4773  0.1643 -0.9061
17316SOL     OW53715   4.847   1.310   7.078 -0.2877 -0.0457 -0.2460
17316SOL    HW153716   4.860   1.382   7.141 -0.6020  1.7949 -2.1577
17316SOL    HW253717   4.752   1.295   7.078 -0.4703  0.9397 -1.2267
17317SOL     OW53718   3.962   0.567   2.557 -0.1150  0.2938  0.3740
17317SOL    HW153719   3.929   0.478   2.565 -1.2562  0.7024  0.3350
17317SOL    HW253720   3.892   0.616   2.514  0.0075  1.4596  1.4080
17318SOL     OW53721   0.086   5.009   9.177 -0.5181  0.8091  0.6693
17318SOL    HW153722   0.118   4.984   9.263  0.8690  0.7614  0.1625
17318SOL    HW253723   0.156   4.984   9.117 -2.1238 -0.6941 -0.6909
17319SOL     OW53724   4.224   3.221   2.247 -1.2010 -0.1686  0.1053
17319SOL    HW153725   4.189   3.146   2.199  1.1459 -0.7062 -0.9129
17319SOL    HW253726   4.257   3.184   2.328 -3.1571  0.3899  1.2229
17320SOL     OW53727   8.388   7.584   4.644 -0.0960 -0.0826 -0.6527
17320SOL    HW153728   8.463   7.613   4.697 -0.9439 -1.4675  1.4110
17320SOL    HW253729   8.355   7.506   4.689 -0.8377 -1.4137 -3.3093
17321SOL     OW53730   5.616   5.386   6.737 -0.6350 -0.0287  0.5529
17321SOL    HW153731   5.686   5.322   6.751  2.5217  3.1557  0.6511
17321SOL    HW253732   5.598   5.382   6.643  0.7863  0.1321  0.2629
17322SOL     OW53733   8.190   3.759   5.509 -0.0881  0.2963  0.0812
17322SOL    HW153734   8.279   3.792   5.511 -0.0175  0.1226 -0.1771
17322SOL    HW253735   8.136   3.835   5.532  0.1692  0.2280  0.9559
17323SOL     OW53736   0.410   3.114   0.842  0.1535  0.1940 -0.0613
17323SOL    HW153737   0.348   3.043   0.830 -0.3019  0.4732  0.5549
17323SOL    HW253738   0.360   3.193   0.822  0.1801  0.4532  0.8561
17324SOL     OW53739   8.467   4.423   5.954  0.5913  0.5323 -0.4236
17324SOL    HW153740   8.418   4.355   6.000  0.6587  1.3322  0.8536
17324SOL    HW253741   8.553   4.425   5.996  1.9859 -1.1302 -2.8932
17325SOL     OW53742   9.307   6.593   4.580 -0.2652  0.5042 -0.0650
17325SOL    HW153743   9.394   6.621   4.606 -0.5554  0.3879  1.0777
17325SOL    HW253744   9.318   6.502   4.552  0.5252  1.4071 -2.9829
17326SOL     OW53745   9.728   6.350   3.879  0.3980  0.2023 -0.0062
17326SOL    HW153746   9.732   6.280   3.814 -0.5125 -0.4912  0.6653
17326SOL    HW253747   9.670   6.415   3.840 -1.2044 -0.7939  0.6141
17327SOL     OW53748   6.181   0.284   4.866 -0.0957  0.5139  0.5848
17327SOL    HW153749   6.184   0.345   4.793  1.9186  0.3784  0.5073
17327SOL    HW253750   6.247   0.218   4.845  0.6964  0.5946  2.6117
17328SOL     OW53751   5.132   7.150   1.659  0.8901  0.5915  0.0038
17328SOL    HW153752   5.120   7.140   1.753 -0.0316 -0.2039 -0.1837
17328SOL    HW253753   5.226   7.137   1.645  0.5838 -3.2126  0.4203
17329SOL     OW53754   8.763   7.392   8.240  0.0112  0.1046 -0.0115
17329SOL    HW153755   8.774   7.320   8.178 -0.0371 -0.1476  0.2706
17329SOL    HW253756   8.670   7.392   8.261 -0.1496  0.8045 -0.6683
17330SOL     OW53757   2.951   4.182   5.779 -0.4986 -0.0989 -0.2179
17330SOL    HW153758   3.013   4.161   5.849 -0.8147 -1.1703 -0.2421
17330SOL    HW253759   3.007   4.204   5.704 -0.1341  2.3077  0.6523
17331SOL     OW53760   0.523   6.760   7.265 -0.0779 -0.3049  0.3174
17331SOL    HW153761   0.478   6.680   7.238 -0.3731  0.2161 -0.7598
17331SOL    HW253762   0.595   6.729   7.320 -0.5883 -1.2609  0.4669
17332SOL     OW53763   5.516   0.420   9.507 -0.2968  0.0962  0.0755
17332SOL    HW153764   5.487   0.355   9.571 -1.8860  1.5088  0.8533
17332SOL    HW253765   5.532   0.499   9.558  0.5766  0.6526 -1.0016
17333SOL     OW53766   9.363   7.313   7.969  0.0895  0.3015  0.0260
17333SOL    HW153767   9.352   7.377   7.898 -1.8966  1.5013  1.3259
17333SOL    HW253768   9.274   7.286   7.992  0.5795  0.6023  2.6101
17334SOL     OW53769   7.604   7.238   0.625  0.5637 -0.1005  0.3062
17334SOL    HW153770   7.573   7.186   0.700 -2.3585 -0.3290 -0.9131
17334SOL    HW253771   7.598   7.178   0.551 -2.4509  1.6547 -1.0696
17335SOL     OW53772   5.247   6.492   1.377  0.3299  0.1711  0.1433
17335SOL    HW153773   5.341   6.481   1.361  0.1555 -0.3847 -0.5920
17335SOL    HW253774   5.227   6.427   1.444  0.4650  0.2482  0.2579
17336SOL     OW53775   1.393   1.480   0.688  0.7689 -0.1199 -0.6077
17336SOL    HW153776   1.402   1.569   0.722 -0.6433 -0.0315 -0.3965
17336SOL    HW253777   1.477   1.461   0.648  0.9047  1.5440 -1.1984
17337SOL     OW53778   2.061   6.593   8.650  0.0014  0.0321  0.6886
17337SOL    HW153779   2.013   6.519   8.687 -1.6866  1.4947  1.5443
17337SOL    HW253780   2.036   6.668   8.704 -0.0468  1.6450 -1.4484
17338SOL     OW53781   9.523   8.590   5.546 -0.3921  0.2203 -0.0799
17338SOL    HW153782   9.505   8.677   5.582 -1.4959  0.1994 -0.5321
17338SOL    HW253783   9.594   8.604   5.483 -0.6024  0.8099 -0.1963
17339SOL     OW53784   4.768   2.923   5.371 -0.2543  0.1120  0.2296
17339SOL    HW153785   4.797   2.937   5.280  1.7184  1.3500  0.9907
17339SOL    HW253786   4.725   3.005   5.395  0.0893  0.1593  0.6979
17340SOL     OW53787   8.999   1.494   2.687  0.7783  0.3866  0.4674
17340SOL    HW153788   8.968   1.419   2.636  1.1083 -0.0915  0.9636
17340SOL    HW253789   9.092   1.500   2.667  1.0022 -0.0532  1.2968
17341SOL     OW53790   7.932   4.202   7.644 -0.2683 -0.2062  0.0295
17341SOL    HW153791   7.966   4.176   7.558 -1.2651  2.1800 -1.2038
17341SOL    HW253792   8.006   4.242   7.689 -0.0118 -0.4478 -0.1774
17342SOL     OW53793   4.841   2.516   2.722  0.0282 -0.0797  0.2833
17342SOL    HW153794   4.884   2.519   2.636 -1.0143  1.3370 -0.2330
17342SOL    HW253795   4.839   2.423   2.745  0.4572 -0.4738 -1.1638
17343SOL     OW53796   9.177   9.806   3.420 -0.3841 -0.0919 -0.1386
17343SOL    HW153797   9.243   9.875   3.413 -0.2232 -0.1391  0.8900
17343SOL    HW253798   9.126   9.829   3.498 -1.7217  0.0497 -1.0009
17344SOL     OW53799   1.393   7.470   9.750 -0.7893 -0.5082 -0.1136
17344SOL    HW153800   1.423   7.430   9.832  1.3079 -0.1175 -0.6108
17344SOL    HW253801   1.340   7.544   9.777  0.6214  0.1693  0.9637
17345SOL     OW53802   1.207   9.751   7.890  0.1899  0.3496  0.1806
17345SOL    HW153803   1.163   9.827   7.851  0.1827  0.1644 -0.1766
17345SOL    HW253804   1.246   9.705   7.816 -0.4172 -0.3868  0.3093
17346SOL     OW53805   7.219   1.275   0.135 -0.0637  0.6433 -0.1181
17346SOL    HW153806   7.165   1.344   0.174 -0.3150  0.9810 -1.0354
17346SOL    HW253807   7.299   1.319   0.108  0.6291  0.1738  1.0851
17347SOL     OW53808   2.783   0.310   0.365 -0.0665 -0.0144 -0.1491
17347SOL    HW153809   2.855   0.372   0.353  0.6537 -1.1717 -2.1486
17347SOL    HW253810   2.711   0.364   0.398  0.7525  1.7591 -1.1102
17348SOL     OW53811   6.697   3.029   5.149  0.7005  0.3656 -0.1162
17348SOL    HW153812   6.777   3.005   5.196  0.9890 -1.3681 -1.3705
17348SOL    HW253813   6.728   3.058   5.063  0.0083 -0.1215 -0.5387
17349SOL     OW53814   1.170   8.002   0.190  0.3987  0.3000  0.1902
17349SOL    HW153815   1.088   7.960   0.165  1.1581 -2.1191  1.4673
17349SOL    HW253816   1.151   8.047   0.272 -0.0765  1.3729 -0.4852
17350SOL     OW53817   1.713   8.891   3.594  0.2545 -0.1798 -0.1538
17350SOL    HW153818   1.716   8.918   3.503 -0.2452 -1.4747 -0.5815
17350SOL    HW253819   1.625   8.854   3.605  1.1904 -2.5495  0.0731
17351SOL     OW53820   9.713   1.643   3.887 -0.1211 -0.2782 -0.2049
17351SOL    HW153821   9.767   1.645   3.808 -0.0441 -0.0967 -0.1495
17351SOL    HW253822   9.731   1.727   3.930 -0.2860 -0.3075 -0.0778
17352SOL     OW53823   1.259   8.696   1.638  0.0983 -0.4475  0.2189
17352SOL    HW153824   1.205   8.774   1.646  2.9967  1.8839 -1.0001
17352SOL    HW253825   1.213   8.642   1.574 -0.4161  1.8351 -1.4785
17353SOL     OW53826   4.636   5.631   2.817 -0.0151 -0.0956  0.2199
17353SOL    HW153827   4.625   5.613   2.910  1.3082 -3.6561 -0.1717
17353SOL    HW253828   4.546   5.639   2.784 -0.5505 -0.3331  1.5420
17354SOL     OW53829   5.836   0.691   0.612 -0.4156  0.2180  0.1740
17354SOL    HW153830   5.802   0.728   0.693 -1.8730  1.0398 -0.7684
17354SOL    HW253831   5.898   0.757   0.579 -0.6752  0.4080  0.0611
17355SOL     OW53832   0.366   8.443   4.372  0.5283  0.2183  0.4769
17355SOL    HW153833   0.393   8.351   4.378  2.8495  0.6219 -1.9815
17355SOL    HW253834   0.283   8.440   4.325  0.2347 -0.6436  1.0132
17356SOL     OW53835   9.359   2.447   3.249 -0.1113  0.4197  0.2292
17356SOL    HW153836   9.359   2.543   3.246 -0.2771  0.3927 -1.8702
17356SOL    HW253837   9.328   2.420   3.163 -2.5905 -1.5597  1.6350
17357SOL     OW53838   7.059   1.308   1.653 -0.2470 -0.2762  0.2207
17357SOL    HW153839   7.106   1.241   1.603  1.0299 -0.1059  1.1265
17357SOL    HW253840   7.128   1.368   1.683 -1.0427 -0.0187  1.6304
17358SOL     OW53841   9.550   6.488   1.398  0.4020 -0.2137 -0.3889
17358SOL    HW153842   9.596   6.405   1.406 -2.6527 -1.9696  0.7152
17358SOL    HW253843   9.556   6.510   1.305 -0.4386 -2.8572 -1.1601
17359SOL     OW53844   1.105   8.788   0.025  0.0263 -0.2657 -0.2942
17359SOL    HW153845   1.117   8.726  -0.047 -1.5313 -0.2429 -0.6107
17359SOL    HW253846   1.187   8.838   0.029  0.1201 -0.2429 -2.0614
17360SOL     OW53847   6.506   6.969   1.712  0.1585  0.1959  0.1399
17360SOL    HW153848   6.477   7.057   1.689  0.6488  0.6406  1.1947
17360SOL    HW253849   6.430   6.930   1.757  0.2478  0.3988  0.4687
17361SOL     OW53850   2.807   7.426   4.242  0.1530  0.4105 -0.2645
17361SOL    HW153851   2.845   7.484   4.309 -0.2795  0.8489 -0.3941
17361SOL    HW253852   2.757   7.485   4.186 -1.1931 -0.2262  0.2260
17362SOL     OW53853   5.232   3.259   6.952 -0.5741 -0.3169 -0.4013
17362SOL    HW153854   5.278   3.247   6.869  0.5991  0.5700  0.0875
17362SOL    HW253855   5.223   3.171   6.988 -0.0239 -0.5855 -0.9093
17363SOL     OW53856   8.115   0.671   7.579 -0.1384  0.9193  0.0968
17363SOL    HW153857   8.210   0.661   7.588 -0.0745  1.8381  0.5664
17363SOL    HW253858   8.082   0.581   7.571  0.7274  0.5696  0.3606
17364SOL     OW53859   0.393   0.642   2.776 -1.0047 -0.0074  0.3450
17364SOL    HW153860   0.362   0.677   2.860 -1.7107 -0.0454  0.0983
17364SOL    HW253861   0.386   0.716   2.715 -0.9169 -0.1105  0.2097
17365SOL     OW53862   8.798   4.512   7.113 -0.3634 -0.4171  0.1741
17365SOL    HW153863   8.788   4.538   7.204  1.4129 -1.2087  0.6409
17365SOL    HW253864   8.795   4.594   7.064 -0.7089  0.0766  1.0074
17366SOL     OW53865   7.998   9.180   9.636 -0.6557  0.0936 -0.1826
17366SOL    HW153866   7.967   9.136   9.557  0.9724  1.8225 -1.8691
17366SOL    HW253867   7.942   9.256   9.645  1.1663  1.7281 -1.6837
17367SOL     OW53868   5.519   2.944   1.546  0.0318 -0.0054  0.5295
17367SOL    HW153869   5.436   2.919   1.504  0.4786 -0.9188  0.1615
17367SOL    HW253870   5.502   3.031   1.582 -1.2023 -0.3108  0.7573
17368SOL     OW53871   5.086   1.242   9.227 -0.1400  0.0666  0.1288
17368SOL    HW153872   5.158   1.299   9.198  0.3415  1.1233  3.1211
17368SOL    HW253873   5.126   1.183   9.291 -1.5055 -0.8844  0.1425
17369SOL     OW53874   2.899   5.339   0.414 -0.0934  0.1975 -0.6897
17369SOL    HW153875   2.925   5.318   0.504 -2.1578  2.1385  0.4488
17369SOL    HW253876   2.844   5.265   0.387 -0.3548  0.1094  0.0710
17370SOL     OW53877   0.935   6.531   8.956  0.5307  0.0512  0.3900
17370SOL    HW153878   0.989   6.536   8.877  0.6468  1.1389  0.5257
17370SOL    HW253879   0.952   6.613   9.002 -0.9869  0.2798  0.6038
17371SOL     OW53880   2.903   3.063   2.676  0.1229  0.1610  0.0294
17371SOL    HW153881   2.872   3.123   2.745  2.2145  0.5719  0.7034
17371SOL    HW253882   2.963   3.116   2.624  1.6081 -1.1831  0.3018
17372SOL     OW53883   3.187   4.086   8.189 -0.2859 -0.3415 -0.2661
17372SOL    HW153884   3.216   4.085   8.281 -0.3875  2.3386 -0.1021
17372SOL    HW253885   3.202   4.177   8.161 -0.2003 -1.0998 -2.9465
17373SOL     OW53886   3.901   9.750   7.718 -0.2514  0.4048  0.4922
17373SOL    HW153887   3.981   9.791   7.749 -0.7122  1.3555  0.4821
17373SOL    HW253888   3.835   9.775   7.782 -0.4332 -0.8651  0.8275
17374SOL     OW53889   9.251   9.208   5.291  0.3694  0.3994  0.8308
17374SOL    HW153890   9.221   9.176   5.376  3.3906  1.4685  2.4453
17374SOL    HW253891   9.195   9.284   5.273 -1.8424 -1.1952  0.6440
17375SOL     OW53892   4.695   0.095   9.421 -0.1742  0.1043  0.0735
17375SOL    HW153893   4.789   0.117   9.423 -0.3323  0.8386 -0.1453
17375SOL    HW253894   4.685   0.028   9.489  0.4750  0.1685  0.2461
17376SOL     OW53895   8.716   9.153   4.435 -0.0106 -0.6284 -0.0271
17376SOL    HW153896   8.801   9.111   4.446  0.5857  0.1826 -1.2822
17376SOL    HW253897   8.654   9.091   4.471  0.9912 -1.8661 -0.3492
17377SOL     OW53898   5.765   7.178   7.966  0.3913  0.3838  0.5972
17377SOL    HW153899   5.742   7.119   8.038 -0.6755  0.2209  0.1460
17377SOL    HW253900   5.715   7.258   7.985 -1.2045 -0.2282 -0.7783
17378SOL     OW53901   7.858   5.581   9.408  0.7911 -0.1735  0.4309
17378SOL    HW153902   7.893   5.520   9.473  0.9108 -0.1084  0.4267
17378SOL    HW253903   7.897   5.665   9.431  0.1390  0.0298  0.8229
17379SOL     OW53904   8.271   7.083   7.478  0.1903 -0.0395 -0.1096
17379SOL    HW153905   8.191   7.041   7.510  0.3560  0.2830  0.7625
17379SOL    HW253906   8.278   7.055   7.387 -0.7606 -0.3018 -0.1166
17380SOL     OW53907   2.584   3.532   4.134  0.2991  0.0695  0.2870
17380SOL    HW153908   2.513   3.578   4.179 -0.3934 -0.9094  0.2204
17380SOL    HW253909   2.554   3.441   4.127  0.7762 -0.0001 -1.3516
17381SOL     OW53910   4.193   4.266   8.418 -0.3900  0.5885  0.0402
17381SOL    HW153911   4.210   4.313   8.337  0.0425  0.8783  0.2933
17381SOL    HW253912   4.196   4.173   8.393 -0.8664  0.6868 -0.3851
17382SOL     OW53913   4.119   7.117   2.863 -1.0112 -0.0874 -0.3727
17382SOL    HW153914   4.025   7.134   2.863 -1.1528 -0.8061  0.4465
17382SOL    HW253915   4.134   7.066   2.942 -0.0828 -0.8594 -1.0279
17383SOL     OW53916   2.096   3.666   1.435  0.2283  0.2591 -0.3939
17383SOL    HW153917   2.012   3.693   1.397 -2.1917 -0.0389  4.0271
17383SOL    HW253918   2.150   3.745   1.432 -1.0201  1.1190 -1.3193
17384SOL     OW53919   5.806   5.610   7.624 -0.3980  0.4090 -0.0796
17384SOL    HW153920   5.885   5.557   7.619  0.1232  0.9858  1.4373
17384SOL    HW253921   5.739   5.550   7.657 -0.1164  0.3839  0.4543
17385SOL     OW53922   2.484   1.687   3.073  0.3458 -0.3158 -0.1671
17385SOL    HW153923   2.548   1.617   3.086  0.6697 -0.1226 -0.6875
17385SOL    HW253924   2.400   1.641   3.063  0.3932 -0.5671  0.5661
17386SOL     OW53925   8.264   5.760   1.562 -0.6982 -0.2021  0.4300
17386SOL    HW153926   8.205   5.775   1.636 -1.2212  3.4478 -0.5117
17386SOL    HW253927   8.317   5.840   1.558 -0.0547 -0.6677 -2.5815
17387SOL     OW53928   8.851   7.718   8.717  0.3849  0.5155  0.4002
17387SOL    HW153929   8.787   7.734   8.649  0.3099  1.1286  0.6092
17387SOL    HW253930   8.933   7.704   8.670 -0.1292 -1.6595  0.0503
17388SOL     OW53931   1.550   0.095   1.866 -0.0758 -0.1667  0.5891
17388SOL    HW153932   1.592   0.145   1.936 -0.8408 -0.4819  1.2823
17388SOL    HW253933   1.540   0.007   1.902  0.1179 -0.5111 -0.1647
17389SOL     OW53934   1.263   0.907   7.047  0.1402 -1.0282 -0.2029
17389SOL    HW153935   1.221   0.923   6.963 -0.7591 -2.2798 -0.0088
17389SOL    HW253936   1.192   0.911   7.111  0.7816 -0.3002  0.4793
17390SOL     OW53937   0.060   8.791   8.556 -0.2386 -0.4509 -0.2324
17390SOL    HW153938   0.079   8.854   8.486 -0.2473 -0.4019 -0.1906
17390SOL    HW253939   0.133   8.801   8.617 -0.8818  0.4304  0.4230
17391SOL     OW53940   1.463   3.593   0.807  0.5625 -0.1930  0.0931
17391SOL    HW153941   1.539   3.619   0.859  0.4481  0.6233 -0.1286
17391SOL    HW253942   1.388   3.615   0.862  0.4625 -0.1593 -0.0572
17392SOL     OW53943   9.510   0.349   4.340 -0.7132 -0.0573  0.2528
17392SOL    HW153944   9.466   0.270   4.308 -0.1459  0.6275 -2.4678
17392SOL    HW253945   9.598   0.320   4.364 -1.1124 -0.5625  1.1776
17393SOL     OW53946   6.017   6.469   0.293 -0.3722 -0.1285 -0.3125
17393SOL    HW153947   6.079   6.506   0.355 -0.3621 -0.5445 -0.0688
17393SOL    HW253948   6.069   6.448   0.215 -0.0923 -1.0082  0.1030
17394SOL     OW53949   4.019   6.649   0.679 -0.2593 -0.5592  0.6612
17394SOL    HW153950   4.088   6.695   0.631  0.7343 -1.2385  1.3967
17394SOL    HW253951   3.944   6.709   0.677  0.4614  0.3437  0.1373
17395SOL     OW53952   5.830   8.662   1.613  0.2572  0.4334 -0.0546
17395SOL    HW153953   5.887   8.730   1.648  0.6511  0.5607 -0.9193
17395SOL    HW253954   5.872   8.580   1.639 -0.9155  0.4493  2.1522
17396SOL     OW53955   1.221   7.764   1.921 -0.1932 -0.0435 -0.4416
17396SOL    HW153956   1.202   7.695   1.984  0.7784 -1.2530 -1.4379
17396SOL    HW253957   1.268   7.831   1.972 -0.1350 -0.6403  0.2947
17397SOL     OW53958   7.336   7.339   0.692 -0.2731 -0.6029  0.0959
17397SOL    HW153959   7.294   7.255   0.713 -0.3156 -0.8823 -1.0388
17397SOL    HW253960   7.405   7.316   0.630  0.8229 -0.0000  1.0599
17398SOL     OW53961   1.567   1.237   5.339  0.0429  0.2890  0.0325
17398SOL    HW153962   1.537   1.148   5.317  0.5293 -0.3017  1.6514
17398SOL    HW253963   1.563   1.284   5.256  2.7222 -2.0736 -1.6201
17399SOL     OW53964   2.928   0.435   0.658  0.6123 -0.6480 -0.6934
17399SOL    HW153965   2.902   0.476   0.740 -0.3418 -0.8894 -0.8656
17399SOL    HW253966   2.987   0.498   0.617 -1.4984  1.0086 -1.3718
17400SOL     OW53967   3.020   8.023   8.852  0.0305  0.3123 -0.2262
17400SOL    HW153968   3.103   8.017   8.899  0.5879 -0.0809 -1.2096
17400SOL    HW253969   2.964   7.957   8.893 -1.1440  2.9851  2.8918
17401SOL     OW53970   2.231   4.140   4.411 -0.2287 -0.1926  0.1703
17401SOL    HW153971   2.306   4.175   4.458  1.5364 -0.1235 -2.4822
17401SOL    HW253972   2.203   4.212   4.354 -1.9130 -0.4456  0.6235
17402SOL     OW53973   6.707   0.465   5.402 -0.1072  0.1965 -0.0385
17402SOL    HW153974   6.731   0.479   5.493  1.3010 -1.2139 -0.1362
17402SOL    HW253975   6.761   0.527   5.353  0.5671 -0.3469 -0.0071
17403SOL     OW53976   5.139   6.287   9.520  0.3983  0.1309 -0.0732
17403SOL    HW153977   5.059   6.236   9.505  0.0953  0.6540 -0.2435
17403SOL    HW253978   5.207   6.221   9.534  0.1303 -0.3373 -0.9218
17404SOL     OW53979   5.338   6.793   8.045  0.9387 -0.0478  0.1500
17404SOL    HW153980   5.321   6.708   8.003  0.6353  0.1787 -0.1929
17404SOL    HW253981   5.320   6.778   8.138 -0.7344  0.0565 -0.1244
17405SOL     OW53982   8.940   9.238   4.877 -0.3806 -0.4476 -0.0336
17405SOL    HW153983   8.871   9.179   4.848 -0.4380 -0.5960  0.3962
17405SOL    HW253984   8.928   9.245   4.971 -0.4071  0.2992 -0.0848
17406SOL     OW53985   7.290   6.365   3.197  0.4046  0.0285  0.2088
17406SOL    HW153986   7.283   6.422   3.120 -0.2826  1.1351  1.0631
17406SOL    HW253987   7.384   6.349   3.205  0.4307 -0.8302 -1.3558
17407SOL     OW53988   1.534   8.104   2.831  0.1414  0.2684  0.1995
17407SOL    HW153989   1.593   8.070   2.898 -0.8192  0.3359  1.1108
17407SOL    HW253990   1.452   8.121   2.878  0.5552  3.9437 -0.1008
17408SOL     OW53991   9.335   2.599   7.466 -0.3018  0.2851 -0.4837
17408SOL    HW153992   9.255   2.573   7.512 -0.9191  0.2587 -1.5403
17408SOL    HW253993   9.311   2.680   7.420  1.1871  2.0922  1.6630
17409SOL     OW53994   6.853   0.040   8.358  0.3933  0.7624  0.3152
17409SOL    HW153995   6.771   0.085   8.377  0.6414  0.9146  1.0574
17409SOL    HW253996   6.835  -0.053   8.375  0.4914  0.8460  0.8687
17410SOL     OW53997   5.202   4.831   2.687 -0.2177  0.3661 -0.2005
17410SOL    HW153998   5.144   4.905   2.702 -0.0340  0.4203  0.2680
17410SOL    HW253999   5.154   4.755   2.721 -0.2657  0.3201 -0.3702
17411SOL     OW54000   5.389   5.214   7.746 -0.0089  0.0969 -0.1187
17411SOL    HW154001   5.366   5.133   7.699 -0.2071  0.1979 -0.1955
17411SOL    HW254002   5.431   5.269   7.681  1.8094 -0.6624  0.3588
17412SOL     OW54003   2.850   9.187   5.625 -0.0891  0.7147 -0.7521
17412SOL    HW154004   2.768   9.232   5.647  0.2276 -0.4560  3.8539
17412SOL    HW254005   2.822   9.103   5.587 -0.9555  0.8772 -0.4924
17413SOL     OW54006   9.461   9.552   1.126  0.2185  0.2260  0.2967
17413SOL    HW154007   9.468   9.646   1.139 -0.7332  0.1915  1.3188
17413SOL    HW254008   9.534   9.515   1.176  0.3040  0.3985  0.2992
17414SOL     OW54009   8.925   4.871   3.267 -0.1368 -0.2145  0.2577
17414SOL    HW154010   8.870   4.872   3.345  0.0465 -3.2785  0.5443
17414SOL    HW254011   8.867   4.899   3.196 -1.2204 -0.5181  1.0026
17415SOL     OW54012   3.835   3.605   7.148  0.5308 -0.7022  0.1867
17415SOL    HW154013   3.866   3.607   7.058 -0.0960  0.6710 -0.0168
17415SOL    HW254014   3.799   3.517   7.159 -0.0510 -0.6469 -1.1347
17416SOL     OW54015   3.717   9.564   0.698  0.1548 -0.1698 -0.0279
17416SOL    HW154016   3.717   9.615   0.779 -0.6105 -1.7960  1.0497
17416SOL    HW254017   3.794   9.508   0.704  1.2147  1.0509 -1.3888
17417SOL     OW54018   5.842   8.967   5.228  0.0038  0.6055 -0.0690
17417SOL    HW154019   5.929   8.992   5.257  0.3691 -0.9722  0.2608
17417SOL    HW254020   5.795   8.945   5.308 -0.7565  1.5683 -0.2300
17418SOL     OW54021   4.450   8.808   2.372  0.0615 -0.1803 -0.2561
17418SOL    HW154022   4.478   8.833   2.284 -0.1357  1.3204  0.0795
17418SOL    HW254023   4.490   8.722   2.387 -0.6748 -0.9027 -2.1547
17419SOL     OW54024   4.446   5.757   7.978  0.2324 -0.0164 -0.2917
17419SOL    HW154025   4.444   5.761   8.074  0.1828 -1.5657 -0.1997
17419SOL    HW254026   4.533   5.789   7.955  1.2284 -1.9563  0.4730
17420SOL     OW54027   5.896   4.913   6.803  0.2129  0.3736  0.2919
17420SOL    HW154028   5.982   4.953   6.790  0.0805  0.1556 -1.4406
17420SOL    HW254029   5.914   4.821   6.817  0.4130  0.7226  2.8064
17421SOL     OW54030   7.872   2.271   2.742 -0.0993  0.2981 -0.0320
17421SOL    HW154031   7.905   2.239   2.826 -0.3947 -0.5222 -0.2172
17421SOL    HW254032   7.827   2.353   2.764  2.6412  1.8884  0.1130
17422SOL     OW54033   3.134   2.427   0.951  0.2332 -0.6446  0.6985
17422SOL    HW154034   3.080   2.381   1.015  1.2429 -0.1254  1.9740
17422SOL    HW254035   3.119   2.519   0.968  0.6400 -0.4941  0.2754
17423SOL     OW54036   2.570   2.221   2.498 -0.1365  0.2948 -1.0337
17423SOL    HW154037   2.622   2.185   2.570 -1.6969  0.4392  0.2080
17423SOL    HW254038   2.621   2.296   2.467  1.1267 -0.4742 -0.8980
17424SOL     OW54039   3.594   6.491   6.791 -0.1185 -0.7695  0.1299
17424SOL    HW154040   3.646   6.412   6.808  0.1368 -0.6370 -0.0186
17424SOL    HW254041   3.545   6.505   6.872 -0.9805 -1.6791 -0.2114
17425SOL     OW54042   9.369   6.868   8.367 -0.4649  0.1859 -0.1030
17425SOL    HW154043   9.314   6.865   8.289 -1.7716  0.4070  0.7727
17425SOL    HW254044   9.322   6.926   8.427  1.6245  1.8133  0.0437
17426SOL     OW54045   6.167   7.942   7.334 -0.0871 -0.5457  0.0941
17426SOL    HW154046   6.203   7.967   7.419  1.2708 -0.7830 -0.3883
17426SOL    HW254047   6.242   7.906   7.286 -0.4950  0.9138 -1.7235
17427SOL     OW54048   2.993   4.883   9.265  0.3229  0.1969 -0.6304
17427SOL    HW154049   3.022   4.961   9.217  0.2208  0.0419 -0.9425
17427SOL    HW254050   2.903   4.903   9.290  0.1070 -0.0509 -1.1992
17428SOL     OW54051   4.924   3.381   3.324 -0.3274 -0.1234  0.0846
17428SOL    HW154052   4.892   3.471   3.314 -2.1936 -0.8397 -0.8870
17428SOL    HW254053   4.960   3.359   3.238 -2.7029 -1.2811 -0.6978
17429SOL     OW54054   3.852   8.449   5.877 -0.5744 -0.0767  0.2644
17429SOL    HW154055   3.940   8.474   5.904 -0.3378 -0.8442  0.2286
17429SOL    HW254056   3.818   8.398   5.951 -0.0086 -2.0005 -0.7503
17430SOL     OW54057   5.138   5.538   8.326  0.5872 -0.0190  0.3503
17430SOL    HW154058   5.208   5.586   8.372 -1.2041  0.9640  2.1886
17430SOL    HW254059   5.101   5.480   8.392 -0.1200 -0.7943 -0.6939
17431SOL     OW54060   2.884   8.047   7.339 -0.0293  0.1506 -0.3279
17431SOL    HW154061   2.865   8.110   7.409  1.0955 -0.5657  0.6446
17431SOL    HW254062   2.923   8.100   7.269  0.3259  0.6371  0.2292
17432SOL     OW54063   7.745   4.858   1.386 -0.4746  0.6471 -0.9737
17432SOL    HW154064   7.779   4.948   1.382  1.4235 -0.0469 -1.4818
17432SOL    HW254065   7.754   4.825   1.297  0.2031 -0.4922 -0.5118
17433SOL     OW54066   2.064   8.525   8.025 -0.2613  0.6666  0.2608
17433SOL    HW154067   2.016   8.478   8.093 -1.6754  0.2066 -1.0076
17433SOL    HW254068   2.147   8.477   8.017 -1.5942 -1.5889 -0.8888
17434SOL     OW54069   0.337   1.728   9.643  0.4385  0.2851 -0.2957
17434SOL    HW154070   0.351   1.729   9.738  0.5923  1.3599 -0.3209
17434SOL    HW254071   0.285   1.649   9.627  1.6482 -0.7252  0.4982
17435SOL     OW54072   7.686   0.865   8.545  0.0565 -0.6089 -0.3144
17435SOL    HW154073   7.650   0.898   8.627 -0.3104 -2.2122  0.1976
17435SOL    HW254074   7.686   0.770   8.555 -1.1185 -0.9165 -2.6517
17436SOL     OW54075   5.605   5.989   1.067 -0.4817  0.1245  0.0496
17436SOL    HW154076   5.635   6.024   0.983 -0.8953 -1.1172 -0.6312
17436SOL    HW254077   5.570   6.066   1.113  0.6354  0.9922 -0.4995
17437SOL     OW54078   1.223   3.842   7.794 -0.1646  0.7804  0.7358
17437SOL    HW154079   1.310   3.869   7.763 -0.5594  0.3498 -0.8192
17437SOL    HW254080   1.212   3.889   7.877  0.8829  2.1307  0.1521
17438SOL     OW54081   8.741   0.880   2.998 -0.0040 -0.2204 -0.0386
17438SOL    HW154082   8.696   0.915   2.921 -0.0481 -2.0370 -0.8976
17438SOL    HW254083   8.799   0.812   2.963  0.8684 -0.2822  1.4232
17439SOL     OW54084   3.144   5.317   0.139  0.1716 -0.1724 -0.3477
17439SOL    HW154085   3.197   5.337   0.216  0.5099 -0.0041 -0.6185
17439SOL    HW254086   3.088   5.244   0.166  1.0696 -0.8614 -0.2800
17440SOL     OW54087   9.599   3.010   7.752 -0.0074  0.4566  0.2573
17440SOL    HW154088   9.571   3.051   7.834  0.4649 -0.7521  1.0497
17440SOL    HW254089   9.577   2.917   7.762  1.3853  0.0253 -0.3677
17441SOL     OW54090   4.496   3.871   3.568 -0.3768 -1.0063  0.1604
17441SOL    HW154091   4.493   3.866   3.472  1.9034  1.3622 -0.1545
17441SOL    HW254092   4.590   3.866   3.589 -0.8776 -2.2743  2.3733
17442SOL     OW54093   3.037   2.730   7.282 -0.2085 -0.0026 -0.0570
17442SOL    HW154094   2.954   2.706   7.324 -1.9652 -1.7041 -3.9327
17442SOL    HW254095   3.069   2.648   7.244  2.1278  1.0612 -0.5569
17443SOL     OW54096   8.603   2.386   3.458 -0.1481  0.0498 -0.2890
17443SOL    HW154097   8.579   2.296   3.438 -1.6072  0.2496  0.4505
17443SOL    HW254098   8.692   2.380   3.494 -0.6316 -1.2369  0.7655
17444SOL     OW54099   9.454   0.530   3.857  0.1758  1.0923 -0.0464
17444SOL    HW154100   9.464   0.622   3.879  0.8989  0.7723  1.0460
17444SOL    HW254101   9.543   0.495   3.856 -0.1428  0.2326  0.3705
17445SOL     OW54102   7.869   6.727   9.327  0.3439 -0.7027 -0.2599
17445SOL    HW154103   7.944   6.757   9.276 -0.4585  0.3498 -0.8605
17445SOL    HW254104   7.860   6.792   9.396 -2.0522  1.2022 -2.1763
17446SOL     OW54105   0.556   3.594   0.511 -0.0946  0.7371 -0.6745
17446SOL    HW154106   0.529   3.548   0.432 -1.7710  1.9424 -0.8731
17446SOL    HW254107   0.643   3.629   0.490  0.3822 -0.7082 -1.1871
17447SOL     OW54108   4.619   6.118   7.588 -0.2527  0.2509  0.5364
17447SOL    HW154109   4.676   6.052   7.627 -1.1286 -2.0181 -1.7035
17447SOL    HW254110   4.674   6.159   7.521 -0.3215  0.2806  0.4985
17448SOL     OW54111   3.787   5.387   5.068  0.1911  0.0116  0.1664
17448SOL    HW154112   3.709   5.402   5.014 -1.2295 -1.8704  1.5558
17448SOL    HW254113   3.762   5.317   5.128  3.3342 -1.4838 -0.0489
17449SOL     OW54114   0.500   6.834   9.136 -0.2457  0.1603 -0.3968
17449SOL    HW154115   0.423   6.840   9.193 -0.3299  0.3986 -0.5341
17449SOL    HW254116   0.565   6.788   9.188 -0.0157  1.1542  0.2332
17450SOL     OW54117   6.446   4.767   7.959 -0.5371 -0.0837 -0.1394
17450SOL    HW154118   6.410   4.846   7.918 -0.1718  0.4338  0.5104
17450SOL    HW254119   6.519   4.799   8.012 -0.1276 -0.9171 -0.1849
17451SOL     OW54120   0.508   6.333   6.942 -0.2653 -0.1431  0.2009
17451SOL    HW154121   0.515   6.398   6.872  0.8020 -0.7516 -0.2918
17451SOL    HW254122   0.596   6.294   6.947 -0.8526 -1.4933  0.5247
17452SOL     OW54123   0.678   7.147   5.090  0.2786  0.7759  0.2462
17452SOL    HW154124   0.665   7.166   4.998 -0.4224 -1.9511 -0.3118
17452SOL    HW254125   0.591   7.154   5.130 -0.2459 -1.9962 -0.2179
17453SOL     OW54126   5.194   7.531   7.928 -0.3370  0.5979  0.2654
17453SOL    HW154127   5.199   7.554   8.021  2.6295  0.6200  0.2046
17453SOL    HW254128   5.267   7.579   7.888 -0.6713 -0.5231 -1.8279
17454SOL     OW54129   7.467   1.134   9.702 -0.2382 -0.4301  0.5069
17454SOL    HW154130   7.536   1.118   9.638 -2.2248 -0.7157 -1.7081
17454SOL    HW254131   7.454   1.050   9.746  0.3751 -0.5388  0.4886
17455SOL     OW54132   7.206   9.699   8.881 -0.2079 -0.1622 -0.4616
17455SOL    HW154133   7.153   9.692   8.801  2.0881 -0.4770 -2.0322
17455SOL    HW254134   7.296   9.704   8.851  0.6401  2.5664  1.9934
17456SOL     OW54135   5.049   6.622   6.134  0.3759  0.2064 -0.1808
17456SOL    HW154136   5.080   6.712   6.141  0.4290  0.3305 -1.6091
17456SOL    HW254137   5.035   6.593   6.224  0.1497  1.7119  0.2800
17457SOL     OW54138   3.908   0.811   0.187  0.2797 -0.3950  0.2300
17457SOL    HW154139   3.952   0.777   0.265  0.1445  1.6372  1.2397
17457SOL    HW254140   3.815   0.810   0.209  0.0200 -1.8518 -0.7717
17458SOL     OW54141   5.350   3.848   1.040  0.2276  0.5557 -0.1944
17458SOL    HW154142   5.286   3.867   0.971  0.4715  2.1004 -0.0320
17458SOL    HW254143   5.335   3.917   1.106  0.7609 -0.2204  0.7633
17459SOL     OW54144   8.612   3.025   5.618  0.2209 -0.1652  0.6215
17459SOL    HW154145   8.618   2.955   5.683 -1.1315  0.2922  1.2659
17459SOL    HW254146   8.633   3.104   5.666 -0.0678  0.0923  0.3290
17460SOL     OW54147   3.664   4.266   7.378  0.0968  0.3013 -0.0344
17460SOL    HW154148   3.613   4.258   7.298  0.4828  1.3196 -0.3955
17460SOL    HW254149   3.754   4.245   7.352  0.3704  1.4682 -0.0662
17461SOL     OW54150   5.146   8.217   8.635  0.0351 -0.0178 -0.2740
17461SOL    HW154151   5.123   8.208   8.728  0.4631  0.5296 -0.1092
17461SOL    HW254152   5.099   8.146   8.592  0.9275 -1.1493  0.5525
17462SOL     OW54153   1.467   2.459   3.528  0.5633  0.0697  0.0356
17462SOL    HW154154   1.506   2.402   3.462 -0.3054  0.1937 -0.6061
17462SOL    HW254155   1.450   2.402   3.603  1.0260 -0.1964 -0.0599
17463SOL     OW54156   6.451   0.337   2.363 -0.3809  0.1670  0.0694
17463SOL    HW154157   6.387   0.377   2.304  0.8631 -0.6641 -1.9525
17463SOL    HW254158   6.399   0.277   2.417 -1.5922  1.1242  0.0204
17464SOL     OW54159   4.073   2.847   3.873  0.6053 -0.7387  0.3756
17464SOL    HW154160   4.042   2.792   3.945 -1.5935  0.8340  0.7486
17464SOL    HW254161   4.015   2.825   3.800 -1.6958  2.2306  1.0660
17465SOL     OW54162   1.729   1.424   9.254 -0.0790  0.4271  0.1522
17465SOL    HW154163   1.820   1.454   9.265 -0.3954  0.9601  1.4605
17465SOL    HW254164   1.736   1.351   9.192  1.4342 -0.4597  1.2890
17466SOL     OW54165   5.634   7.285   1.033  0.0693  0.5093 -0.6253
17466SOL    HW154166   5.630   7.242   1.119  1.2881  0.0458 -0.7721
17466SOL    HW254167   5.549   7.328   1.023  0.6876  2.5290  1.8186
17467SOL     OW54168   9.181   7.158   8.648  0.9428 -0.4425 -0.4207
17467SOL    HW154169   9.211   7.072   8.679 -1.5106 -0.4360  2.3862
17467SOL    HW254170   9.150   7.202   8.727 -1.9903  1.2654 -2.3636
17468SOL     OW54171   3.032   3.818   3.003 -0.2617 -0.3589  0.0012
17468SOL    HW154172   3.072   3.856   2.924 -1.2234  0.8048  0.0357
17468SOL    HW254173   2.990   3.738   2.972 -4.5367  2.1834 -1.8431
17469SOL     OW54174   6.463   9.218   2.568  0.5967 -0.3212 -0.1848
17469SOL    HW154175   6.534   9.280   2.553  0.6154 -0.6960 -1.7523
17469SOL    HW254176   6.506   9.141   2.605  1.0445 -0.5745 -1.1906
17470SOL     OW54177   6.055   5.607   9.745  0.2709 -0.4008  0.0645
17470SOL    HW154178   6.084   5.619   9.836  2.1314 -1.0377 -0.3942
17470SOL    HW254179   5.960   5.622   9.748  0.2380 -0.6824  2.1534
17471SOL     OW54180   1.461   6.136   2.016 -0.6965 -0.5233 -0.2508
17471SOL    HW154181   1.408   6.090   1.951 -1.8195  0.0888  0.2121
17471SOL    HW254182   1.413   6.126   2.098 -1.7132  2.5056 -0.3498
17472SOL     OW54183   2.186   4.592   1.745 -0.0052 -0.7502 -0.2483
17472SOL    HW154184   2.176   4.549   1.830 -0.2429  0.6096  0.4453
17472SOL    HW254185   2.280   4.603   1.734  0.0237 -0.8672 -0.1120
17473SOL     OW54186   9.256   1.978   8.432  0.1799 -0.6249 -0.1819
17473SOL    HW154187   9.282   1.954   8.521 -1.5666 -0.2455  0.4669
17473SOL    HW254188   9.323   2.040   8.404  0.0110  0.3209  1.3915
17474SOL     OW54189   1.436   6.085   9.515 -0.1204 -0.3442 -0.9957
17474SOL    HW154190   1.394   6.033   9.447 -0.0283 -1.6861 -0.0693
17474SOL    HW254191   1.365   6.136   9.555 -0.3740 -0.4676 -1.2901
17475SOL     OW54192   4.218   2.502   3.839  0.3132  0.3722 -0.1927
17475SOL    HW154193   4.215   2.530   3.931  0.9474 -0.6040  0.1480
17475SOL    HW254194   4.224   2.406   3.844  3.8527  0.4271 -1.1414
17476SOL     OW54195   4.150   8.029   0.063 -0.7212 -0.3587  0.2080
17476SOL    HW154196   4.075   7.971   0.051  0.9291 -2.4001 -1.0978
17476SOL    HW254197   4.172   8.058  -0.025  1.1413 -1.4022  0.2721
17477SOL     OW54198   8.784   9.380   7.101 -0.2817  0.1561 -0.1062
17477SOL    HW154199   8.866   9.374   7.051  0.0910 -0.8229  0.5824
17477SOL    HW254200   8.767   9.474   7.107  0.0255  0.3327 -1.4631
17478SOL     OW54201   0.802   4.405   2.268 -0.2117  0.2681  0.4065
17478SOL    HW154202   0.827   4.319   2.301 -0.8156 -0.3647 -0.7196
17478SOL    HW254203   0.870   4.464   2.300  1.1460 -0.9124 -0.1962
17479SOL     OW54204   5.146   6.931   7.941  0.6504 -0.0497  0.2597
17479SOL    HW154205   5.221   6.895   7.988  0.4789 -1.3284 -0.3848
17479SOL    HW254206   5.079   6.863   7.949  0.0295  0.4844 -0.3307
17480SOL     OW54207   3.122   9.501   7.661  0.1472 -0.0722  0.3274
17480SOL    HW154208   3.155   9.588   7.641  0.7519 -0.3493  0.1066
17480SOL    HW254209   3.199   9.445   7.662 -0.4468 -0.9985 -1.5315
17481SOL     OW54210   7.031   0.399   9.365  0.2405 -0.3702 -0.3122
17481SOL    HW154211   7.081   0.432   9.291 -0.0706  0.8874  0.0063
17481SOL    HW254212   6.968   0.468   9.384 -1.0159 -1.5261 -0.1239
17482SOL     OW54213   4.750   7.173   1.835 -0.5885 -0.5977 -0.6623
17482SOL    HW154214   4.776   7.100   1.891 -0.9781  0.5834  1.1372
17482SOL    HW254215   4.655   7.168   1.831 -0.5588 -0.7322 -1.3266
17483SOL     OW54216   7.129   0.123   8.530 -0.6358  0.0164 -0.2396
17483SOL    HW154217   7.069   0.155   8.462 -2.5285  0.7120  1.6738
17483SOL    HW254218   7.098   0.163   8.611  0.8329 -1.7181  1.2729
17484SOL     OW54219   4.517   3.803   5.767 -0.5315 -0.2592 -0.7450
17484SOL    HW154220   4.553   3.737   5.708 -2.0119 -1.0734 -0.7696
17484SOL    HW254221   4.548   3.778   5.854  0.3983  0.0791 -0.9605
17485SOL     OW54222   9.315   7.267   6.503 -0.2834  0.0356  0.1029
17485SOL    HW154223   9.251   7.261   6.574 -0.1591 -1.2834  0.1329
17485SOL    HW254224   9.399   7.249   6.545 -0.2743 -1.3403 -0.4433
17486SOL     OW54225   7.552   1.736   0.964 -0.1240 -0.4102 -0.1430
17486SOL    HW154226   7.461   1.724   0.992  0.0504 -1.5014  0.0115
17486SOL    HW254227   7.546   1.756   0.871 -0.4747 -1.8604 -0.4562
17487SOL     OW54228   0.475   7.685   6.758 -1.1634  0.0007  0.5193
17487SOL    HW154229   0.408   7.708   6.693  0.2353  0.7342 -0.7080
17487SOL    HW254230   0.436   7.612   6.807 -2.3822 -0.4007 -0.9543
17488SOL     OW54231   1.129   8.761   2.853 -0.0283 -0.0387  0.2364
17488SOL    HW154232   1.077   8.840   2.870 -0.6885 -0.2453 -0.7931
17488SOL    HW254233   1.082   8.714   2.785  1.7040 -0.0327 -1.0458
17489SOL     OW54234   2.058   0.543   8.535  0.1067  0.2784  0.5073
17489SOL    HW154235   2.099   0.630   8.532  0.2436  0.2253  0.7902
17489SOL    HW254236   2.129   0.482   8.520  0.0957  0.1952  0.7879
17490SOL     OW54237   5.883   0.942   0.976  0.0860  0.4504  0.5203
17490SOL    HW154238   5.933   0.915   0.898  2.7000  2.9294  1.1543
17490SOL    HW254239   5.830   1.016   0.945  2.6600  2.7957  1.3576
17491SOL     OW54240   9.150   5.834   0.010  0.1838 -0.2031 -0.1382
17491SOL    HW154241   9.220   5.779   0.044 -0.4117 -0.0656  1.4028
17491SOL    HW254242   9.157   5.916   0.059  2.4388  2.1645 -3.8481
17492SOL     OW54243   2.925   2.564   9.135 -0.3050 -0.1798  0.1550
17492SOL    HW154244   2.925   2.530   9.045  0.5555 -0.4515  0.2484
17492SOL    HW254245   2.855   2.514   9.179 -0.5721 -0.2132 -0.2941
17493SOL     OW54246   6.884   0.199   0.282 -0.1057  0.1410  0.0489
17493SOL    HW154247   6.925   0.193   0.368 -0.2209  0.1184  0.1031
17493SOL    HW254248   6.798   0.239   0.300  0.5934  1.8908 -0.2780
17494SOL     OW54249   0.642   6.888   5.673 -0.4985  0.5961  0.8442
17494SOL    HW154250   0.710   6.890   5.741  1.2882  0.3345 -0.8335
17494SOL    HW254251   0.613   6.979   5.666  0.2327  0.8589  1.0742
17495SOL     OW54252   2.949   0.660   1.435 -0.6840 -0.3685 -0.4660
17495SOL    HW154253   2.917   0.725   1.372  0.2183 -0.2994 -0.8566
17495SOL    HW254254   2.872   0.639   1.488 -1.3434 -0.0824 -1.2873
17496SOL     OW54255   4.592   4.859   5.962  0.2029 -0.4064  0.0340
17496SOL    HW154256   4.549   4.788   5.913  0.2143 -0.7292  0.4875
17496SOL    HW254257   4.524   4.895   6.018  0.2627 -0.2281 -0.0063
17497SOL     OW54258   8.381   9.336   9.782  0.2017  0.7357 -0.2422
17497SOL    HW154259   8.299   9.309   9.823  0.8357  0.0942  0.6336
17497SOL    HW254260   8.432   9.375   9.854  1.3042 -0.3419 -0.4202
17498SOL     OW54261   3.167   8.772   1.307  0.0489 -0.3917 -0.7354
17498SOL    HW154262   3.146   8.843   1.246  2.5092  0.4704 -0.7211
17498SOL    HW254263   3.137   8.803   1.392  1.3280  0.8285 -0.6847
17499SOL     OW54264   2.972   2.706   1.902  0.2219 -0.3884  0.7613
17499SOL    HW154265   3.004   2.626   1.861 -0.4341 -0.2122 -0.1354
17499SOL    HW254266   2.883   2.684   1.931 -1.5360  1.0056 -2.8995
17500SOL     OW54267   9.606   7.425   1.384  0.0089 -0.0943  0.0103
17500SOL    HW154268   9.623   7.469   1.467  0.3366 -0.9558  0.4117
17500SOL    HW254269   9.691   7.420   1.341  0.0168 -0.5315  0.0700
17501SOL     OW54270   2.737   3.918   8.565 -0.5268  0.3606  0.1390
17501SOL    HW154271   2.681   3.922   8.642  1.4267  1.5885  1.5808
17501SOL    HW254272   2.759   4.009   8.546 -0.2680  0.0174 -1.3810
17502SOL     OW54273   1.798   6.348   7.981  0.1375  0.3068 -0.0016
17502SOL    HW154274   1.831   6.416   8.039 -1.9750  0.3976  1.1793
17502SOL    HW254275   1.785   6.272   8.038 -1.0929  0.1091 -0.5197
17503SOL     OW54276   1.701   7.593   0.279  0.3769 -0.3044 -0.1124
17503SOL    HW154277   1.680   7.686   0.290  2.2270  0.1081  0.2590
17503SOL    HW254278   1.622   7.555   0.241 -0.7582  1.2350  0.5900
17504SOL     OW54279   3.929   7.667   1.130  0.0934 -0.0758 -0.5695
17504SOL    HW154280   3.890   7.689   1.215 -0.9320  1.1223 -1.3104
17504SOL    HW254281   3.940   7.572   1.133 -1.1658 -0.2245  0.4128
17505SOL     OW54282   4.731   2.843   1.913 -0.0065  0.4859  0.1689
17505SOL    HW154283   4.659   2.819   1.971 -0.3791 -0.4097 -0.6219
17505SOL    HW254284   4.723   2.937   1.902 -0.3406  0.5586  1.0259
17506SOL     OW54285   4.942   1.221   8.963 -0.6177  0.2140  0.2105
17506SOL    HW154286   5.019   1.169   8.940 -0.7887 -0.3503  0.8612
17506SOL    HW254287   4.883   1.210   8.888 -0.4410 -0.1133  0.1148
17507SOL     OW54288   8.925   1.564   8.340 -0.1022  0.0755  0.0732
17507SOL    HW154289   8.970   1.539   8.421  1.1616  0.3615 -0.5203
17507SOL    HW254290   8.988   1.618   8.293 -1.1788  0.7347 -0.6702
17508SOL     OW54291   4.705   7.313   8.583 -0.1683  0.6287  0.4689
17508SOL    HW154292   4.800   7.314   8.597 -0.2194  0.2019  0.8856
17508SOL    HW254293   4.694   7.288   8.492  0.0954 -1.0767  0.8638
17509SOL     OW54294   3.171   6.598   5.104 -0.3040  0.2795  0.5760
17509SOL    HW154295   3.226   6.556   5.037 -1.4090 -0.4005  0.0523
17509SOL    HW254296   3.106   6.647   5.054 -1.8838 -1.1927  1.0796
17510SOL     OW54297   1.419   3.207   7.557 -0.1356  0.5766 -0.0288
17510SOL    HW154298   1.325   3.226   7.561 -0.5579 -0.5687 -2.6455
17510SOL    HW254299   1.429   3.150   7.481  2.5411 -0.3772  0.9157
17511SOL     OW54300   8.847   0.045   2.792  0.1320 -0.0477  0.1272
17511SOL    HW154301   8.824   0.024   2.882  0.9729  0.2056  0.4105
17511SOL    HW254302   8.921   0.105   2.799  0.8700 -0.8232 -0.7479
17512SOL     OW54303   1.636   1.369   3.214  0.0458 -0.3039 -0.0024
17512SOL    HW154304   1.594   1.368   3.300  0.8854 -2.1400  0.4227
17512SOL    HW254305   1.711   1.310   3.222 -0.3361 -1.2189 -2.2193
17513SOL     OW54306   8.880   5.227   5.817 -0.2708  0.2581 -0.2658
17513SOL    HW154307   8.948   5.161   5.804  0.1866  0.7704 -0.5075
17513SOL    HW254308   8.874   5.237   5.912  0.6319  0.8568 -0.2601
17514SOL     OW54309   4.596   3.104   5.066 -0.1228 -0.3219 -0.4464
17514SOL    HW154310   4.518   3.086   5.013 -0.5294  0.7835 -0.2661
17514SOL    HW254311   4.669   3.095   5.005 -0.4543 -0.5867 -0.8153
17515SOL     OW54312   1.832   4.938   1.885  0.0611  0.7544 -0.1775
17515SOL    HW154313   1.760   4.922   1.824  2.1720 -1.3801 -2.3400
17515SOL    HW254314   1.878   5.014   1.850  0.4473  0.3979 -0.4624
17516SOL     OW54315   9.195   8.253   1.523  0.1231 -0.4170  0.1003
17516SOL    HW154316   9.164   8.165   1.500 -1.6939  0.7065 -2.1963
17516SOL    HW254317   9.175   8.262   1.616 -2.3709 -1.4354 -0.2536
17517SOL     OW54318   4.246   2.765   9.494  0.3278 -0.6998  0.3113
17517SOL    HW154319   4.176   2.703   9.475 -1.1816  0.9171  0.3321
17517SOL    HW254320   4.279   2.792   9.408 -0.4543 -0.0036  0.2133
17518SOL     OW54321   1.975   7.775   8.287 -0.6188  0.0823 -0.6095
17518SOL    HW154322   2.040   7.770   8.217 -1.2134  0.3204 -1.1849
17518SOL    HW254323   2.015   7.830   8.354 -0.0076 -0.2242 -0.7228
17519SOL     OW54324   5.681   0.824   2.007 -0.2748  0.0800 -0.3352
17519SOL    HW154325   5.745   0.895   2.004 -0.3230  0.1773  0.7023
17519SOL    HW254326   5.714   0.764   2.074 -1.1835  0.0584  0.1063
17520SOL     OW54327   7.341   7.445   3.100  0.0472  0.2481  0.0059
17520SOL    HW154328   7.310   7.384   3.033 -1.3723 -0.7357  1.4774
17520SOL    HW254329   7.436   7.446   3.090 -0.0416 -0.8377 -1.1956
17521SOL     OW54330   4.111   7.640   1.990 -0.1455  0.3301 -0.5198
17521SOL    HW154331   4.176   7.616   1.924 -0.3763 -0.0536 -0.6119
17521SOL    HW254332   4.091   7.558   2.034  0.3426  0.6616  0.3375
17522SOL     OW54333   0.787   9.830   2.931 -0.1761 -0.4293  0.3457
17522SOL    HW154334   0.809   9.874   2.849  0.4685 -1.0444  0.1793
17522SOL    HW254335   0.862   9.774   2.950 -0.8342 -1.2247  0.7105
17523SOL     OW54336   5.111   6.862   1.273 -0.1556  0.0846  0.8037
17523SOL    HW154337   5.110   6.778   1.319 -0.0915 -0.6265 -0.4622
17523SOL    HW254338   5.191   6.905   1.304  0.5458 -0.9188  0.4360
17524SOL     OW54339   9.444   2.173   4.078  0.2962  0.2477 -0.7400
17524SOL    HW154340   9.447   2.194   4.171  1.4988 -0.9866 -0.4727
17524SOL    HW254341   9.350   2.172   4.057 -0.0011  0.2651  0.5225
17525SOL     OW54342   3.653   0.279   7.355 -0.2052 -0.5627  0.5006
17525SOL    HW154343   3.657   0.233   7.439  0.2332 -3.2510 -0.8942
17525SOL    HW254344   3.597   0.224   7.301 -0.0227  0.8232 -1.1689
17526SOL     OW54345   1.353   2.284   8.594 -0.2118  0.6348 -0.0149
17526SOL    HW154346   1.258   2.290   8.584 -0.3040 -0.4871  0.1215
17526SOL    HW254347   1.367   2.287   8.689 -0.2489 -0.9101  0.0542
17527SOL     OW54348   6.880   3.984   5.697 -0.0338 -0.0569  0.0564
17527SOL    HW154349   6.810   4.037   5.734  0.2593 -0.5533  1.3535
17527SOL    HW254350   6.854   3.894   5.713  0.5313 -0.2629 -0.1379
17528SOL     OW54351   1.403   6.623   1.131  0.3939  0.1606 -0.7283
17528SOL    HW154352   1.412   6.693   1.066 -0.0154 -1.1599 -2.2601
17528SOL    HW254353   1.402   6.542   1.080 -1.4795 -0.8563  0.7699
17529SOL     OW54354   5.020   1.890   7.354  0.1528  0.3626 -0.8967
17529SOL    HW154355   4.962   1.825   7.314  0.0956 -0.0939 -0.0880
17529SOL    HW254356   5.093   1.839   7.390 -1.6253  0.1710  3.0140
17530SOL     OW54357   3.887   6.189   5.589  0.2953 -0.9095 -0.2913
17530SOL    HW154358   3.971   6.149   5.614 -0.3903 -2.1314  0.1075
17530SOL    HW254359   3.831   6.115   5.566 -0.7929 -0.1276 -0.2212
17531SOL     OW54360   2.800   3.549   1.410  0.0246  0.4468 -0.7138
17531SOL    HW154361   2.739   3.529   1.339 -0.6317 -0.7008  0.1378
17531SOL    HW254362   2.791   3.475   1.471 -0.2593  1.9240  1.1256
17532SOL     OW54363   9.163   6.790   7.869  0.0276  0.0116  0.0697
17532SOL    HW154364   9.226   6.721   7.891  0.5206  0.3243 -0.3564
17532SOL    HW254365   9.077   6.747   7.879  0.2996 -0.4239  0.6178
17533SOL     OW54366   7.087   4.291   5.881  0.2127  0.0682 -0.7732
17533SOL    HW154367   7.052   4.370   5.922  0.0491  0.6877 -2.0650
17533SOL    HW254368   7.149   4.256   5.945 -0.9133  0.3194  0.5174
17534SOL     OW54369   9.791   3.093   3.789  0.0938 -0.1116 -0.5397
17534SOL    HW154370   9.861   3.158   3.780  0.8154 -0.7841  0.0996
17534SOL    HW254371   9.744   3.120   3.868  1.5227 -1.3629  0.8107
17535SOL     OW54372   0.960   8.651   2.621 -0.4564 -0.4320  0.3581
17535SOL    HW154373   0.931   8.658   2.530 -0.5708 -1.9364  0.2497
17535SOL    HW254374   0.895   8.593   2.662  1.4122 -2.5525  0.5153
17536SOL     OW54375   4.777   3.533   1.582 -0.4239 -0.3387  0.6089
17536SOL    HW154376   4.740   3.467   1.524  1.0293 -0.3690 -0.3528
17536SOL    HW254377   4.763   3.616   1.537  0.3130 -0.3155  0.4036
17537SOL     OW54378   9.376   0.424   3.453  0.2838  0.4208 -0.0724
17537SOL    HW154379   9.458   0.452   3.494 -0.0207 -0.1140  0.9342
17537SOL    HW254380   9.387   0.330   3.437 -0.7446 -0.0506  1.6770
17538SOL     OW54381   5.020   0.705   7.640  0.0995  0.0115  0.1500
17538SOL    HW154382   5.019   0.629   7.699  0.8362 -0.0825  0.0497
17538SOL    HW254383   4.955   0.684   7.573 -1.6138  0.6239  1.5270
17539SOL     OW54384   6.756   3.953   7.151 -0.2452 -0.1647 -0.4475
17539SOL    HW154385   6.681   4.005   7.123 -0.9946  0.0778  1.8913
17539SOL    HW254386   6.823   4.018   7.173  0.0085 -0.3257 -0.7260
17540SOL     OW54387   3.092   3.100   1.233  0.5587  0.2350  0.0227
17540SOL    HW154388   3.175   3.130   1.271  0.2496  0.0210  0.8733
17540SOL    HW254389   3.043   3.181   1.216  0.2856  0.2880  1.0312
17541SOL     OW54390   5.872   5.442   7.342 -0.1042 -0.4580 -0.5364
17541SOL    HW154391   5.967   5.455   7.343  0.0093 -1.1782  1.0680
17541SOL    HW254392   5.848   5.445   7.249  0.9418  3.2803 -0.8593
17542SOL     OW54393   9.114   0.842   6.347  0.1610 -0.8153 -0.8429
17542SOL    HW154394   9.064   0.895   6.409  0.6835 -0.2385 -0.9014
17542SOL    HW254395   9.195   0.822   6.393  1.7133  1.8006 -2.1848
17543SOL     OW54396   3.425   6.271   0.386 -0.5792  0.2239 -0.1435
17543SOL    HW154397   3.506   6.312   0.416 -1.1276  0.6527  0.7960
17543SOL    HW254398   3.453   6.192   0.340  0.2841 -1.0720  2.4596
17544SOL     OW54399   0.221   0.963   6.814 -0.0708 -0.5351  0.1751
17544SOL    HW154400   0.162   0.977   6.888 -0.0230 -1.8169  0.4663
17544SOL    HW254401   0.183   0.889   6.766  1.7657 -1.9660  0.8656
17545SOL     OW54402   6.960   4.670   7.105  0.5870  0.2848  0.6548
17545SOL    HW154403   6.974   4.760   7.135 -1.1127 -0.1472  3.0301
17545SOL    HW254404   6.883   4.640   7.153 -0.2059 -1.7733 -1.6485
17546SOL     OW54405   8.744   4.152   6.796  0.4050 -0.0991 -0.8296
17546SOL    HW154406   8.720   4.210   6.724  0.7460  0.6071 -0.3927
17546SOL    HW254407   8.760   4.212   6.870 -1.5583 -0.8769  0.3092
17547SOL     OW54408   6.499   5.071   0.139 -0.1792 -0.0722 -0.0034
17547SOL    HW154409   6.464   5.159   0.125  1.0700  0.2643 -1.2769
17547SOL    HW254410   6.577   5.083   0.193 -1.5058 -0.7365  2.1777
17548SOL     OW54411   3.427   0.030   8.345 -0.0298 -0.0861  0.2028
17548SOL    HW154412   3.361   0.093   8.372 -0.4945 -1.1724  1.7689
17548SOL    HW254413   3.429  -0.035   8.416  2.3754 -0.3557 -0.0126
17549SOL     OW54414   3.481   9.669   5.998  0.0337  0.2981  0.3212
17549SOL    HW154415   3.415   9.738   5.996  0.5351  0.7639 -0.7086
17549SOL    HW254416   3.557   9.707   5.954 -0.3587 -1.5726 -2.2042
17550SOL     OW54417   0.389   8.623   4.596  0.5698  0.1983 -0.3939
17550SOL    HW154418   0.408   8.545   4.543 -0.1003 -0.0255 -0.3195
17550SOL    HW254419   0.299   8.609   4.628  0.6849  0.6892  0.1697
17551SOL     OW54420   7.273   4.005   7.141 -0.2572  0.1671 -0.2561
17551SOL    HW154421   7.225   4.044   7.068  0.8887 -1.2709 -1.8570
17551SOL    HW254422   7.336   4.072   7.167 -0.2126  0.4353 -1.0456
17552SOL     OW54423   9.009   1.797   0.325 -0.1394 -0.1814  0.0510
17552SOL    HW154424   9.019   1.730   0.393  0.7642  0.0370  0.1342
17552SOL    HW254425   9.057   1.763   0.250 -0.1866  0.0956 -0.1049
17553SOL     OW54426   2.902   3.981   3.655 -0.3474 -0.1526  0.0555
17553SOL    HW154427   2.867   4.063   3.621 -1.5266 -0.0208  1.4887
17553SOL    HW254428   2.982   3.966   3.604 -0.0808  1.8959 -0.2133
17554SOL     OW54429   6.549   7.830   7.032  0.0476 -0.2621  0.0067
17554SOL    HW154430   6.579   7.799   6.946  2.1314  0.2814  0.4868
17554SOL    HW254431   6.572   7.760   7.092  0.1347  0.0623  0.3573
17555SOL     OW54432   1.082   1.770   3.395  0.6008  0.3075  0.0447
17555SOL    HW154433   1.122   1.844   3.350 -0.8345  1.2447  0.2728
17555SOL    HW254434   1.019   1.809   3.456  1.4052 -0.9965  1.8148
17556SOL     OW54435   5.625   9.072   3.036  0.6150 -0.1358  0.7528
17556SOL    HW154436   5.658   9.031   3.117 -1.0332 -1.5940  0.7343
17556SOL    HW254437   5.654   9.013   2.967 -0.1727 -0.2817  0.5408
17557SOL     OW54438   4.882   6.793   7.109 -0.3661 -0.5226  0.3268
17557SOL    HW154439   4.939   6.819   7.037 -1.8693 -0.6238 -0.9447
17557SOL    HW254440   4.851   6.706   7.085 -1.5662 -0.2039  0.6644
17558SOL     OW54441   4.230   6.803   6.678  0.3821  0.3802 -0.5362
17558SOL    HW154442   4.155   6.791   6.736  0.5175 -1.2388 -0.6315
17558SOL    HW254443   4.193   6.796   6.590  0.5732 -0.0315 -0.5874
17559SOL     OW54444   8.645   4.879   1.343 -0.4050  0.2278 -0.1884
17559SOL    HW154445   8.687   4.950   1.295  0.3787 -0.1222 -0.0366
17559SOL    HW254446   8.600   4.922   1.415 -0.3201  0.6171 -0.3678
17560SOL     OW54447   4.353   2.563   3.448  0.1229  1.1056 -0.5352
17560SOL    HW154448   4.410   2.487   3.438  0.5104  1.3195  0.0317
17560SOL    HW254449   4.298   2.562   3.369 -1.0506 -0.7249  0.2566
17561SOL     OW54450   5.261   1.280   9.619 -0.8237  0.3791 -0.4212
17561SOL    HW154451   5.282   1.228   9.696  2.3789  0.4147 -1.1462
17561SOL    HW254452   5.255   1.216   9.548 -1.4370  0.5763 -0.5506
17562SOL     OW54453   9.186   1.409   5.532  0.0803  0.0383  0.1490
17562SOL    HW154454   9.167   1.492   5.576 -2.9121  0.2044 -1.2077
17562SOL    HW254455   9.282   1.409   5.522  0.4008  2.1968  2.2436
17563SOL     OW54456   5.182   3.519   7.759  0.0977 -0.2144  0.3111
17563SOL    HW154457   5.212   3.585   7.822 -0.3163 -1.0438  1.4100
17563SOL    HW254458   5.165   3.569   7.679  0.5052  0.8961  0.8919
17564SOL     OW54459   2.564   8.988   7.212 -0.0980 -0.0411 -0.2280
17564SOL    HW154460   2.582   8.914   7.154 -1.4192  0.8199 -1.8330
17564SOL    HW254461   2.470   8.983   7.229  0.1519  0.1139  1.3417
17565SOL     OW54462   3.661   8.642   9.109 -0.3648 -0.3654  1.1730
17565SOL    HW154463   3.712   8.649   9.028 -0.3123 -0.1767  1.2215
17565SOL    HW254464   3.613   8.725   9.115 -2.6064 -1.4531 -0.1515
17566SOL     OW54465   5.627   8.245   5.464  0.2940 -0.0794 -0.1869
17566SOL    HW154466   5.624   8.235   5.369 -0.6440  0.5382 -0.2385
17566SOL    HW254467   5.579   8.169   5.498 -0.4495  0.3376 -0.2728
17567SOL     OW54468   1.038   6.542   7.125  0.3946  0.2482 -0.8243
17567SOL    HW154469   1.079   6.623   7.155 -1.2022  0.3866  1.2179
17567SOL    HW254470   1.109   6.494   7.083  1.4921  2.4697 -1.6586
17568SOL     OW54471   1.289   1.378   8.406  0.2226 -0.6366 -0.2730
17568SOL    HW154472   1.308   1.285   8.398 -1.2317 -0.9350 -0.6294
17568SOL    HW254473   1.222   1.384   8.474 -0.5558  0.0059 -1.0667
17569SOL     OW54474   5.814   8.434   5.527  0.2212 -0.1515  0.1358
17569SOL    HW154475   5.796   8.513   5.477 -1.9981 -0.7480 -0.1018
17569SOL    HW254476   5.747   8.372   5.499  1.5261 -1.9336  0.7552
17570SOL     OW54477   1.683   9.083   3.385 -0.0878 -0.6666  0.1308
17570SOL    HW154478   1.766   9.118   3.416 -1.3257  0.9612  1.8337
17570SOL    HW254479   1.673   9.117   3.296  0.7325 -0.3258  0.1665
17571SOL     OW54480   5.031   4.914   4.882 -0.1504 -0.3423  0.0089
17571SOL    HW154481   4.960   4.954   4.832 -0.0247 -1.0213 -0.7362
17571SOL    HW254482   5.110   4.934   4.832  0.2116  0.4864  0.8804
17572SOL     OW54483   3.142   9.466   9.605  0.4426 -0.2199 -0.4346
17572SOL    HW154484   3.224   9.417   9.596  0.6440  0.1474 -0.6193
17572SOL    HW254485   3.161   9.532   9.671  0.9926  1.2845 -2.0258
17573SOL     OW54486   9.799   6.773   1.986 -0.2580  0.6596  0.2185
17573SOL    HW154487   9.881   6.772   1.937  1.2762 -0.9109  2.5675
17573SOL    HW254488   9.733   6.741   1.924  1.5073 -1.0246 -0.9100
17574SOL     OW54489   7.932   9.562   6.230  0.0351  0.2199 -0.7638
17574SOL    HW154490   7.990   9.632   6.259  1.3348 -1.1841  0.1617
17574SOL    HW254491   7.974   9.526   6.152  0.1064 -0.4028 -0.4453
17575SOL     OW54492   1.473   0.597   1.119 -0.4099 -0.0700 -0.6757
17575SOL    HW154493   1.556   0.624   1.080  0.0622 -0.0581  0.2980
17575SOL    HW254494   1.446   0.673   1.172 -0.2914 -0.6024  0.1723
17576SOL     OW54495   7.397   6.863   6.340  0.1745 -0.1810 -0.2979
17576SOL    HW154496   7.426   6.784   6.294 -0.2392 -0.7644  0.4145
17576SOL    HW254497   7.477   6.914   6.352  0.1149  0.5728 -2.7061
17577SOL     OW54498   4.238   7.317   1.015 -0.3873 -0.4189  0.6201
17577SOL    HW154499   4.300   7.283   1.079  1.1483  1.0310 -0.0303
17577SOL    HW254500   4.272   7.289   0.931 -0.0248  1.2231  0.1886
17578SOL     OW54501   7.385   6.019   9.209 -0.0040  0.1740 -0.1882
17578SOL    HW154502   7.344   6.046   9.291 -0.4145  0.1626 -0.3866
17578SOL    HW254503   7.316   5.971   9.162  0.2301  0.1660 -0.5292
17579SOL     OW54504   2.746   8.095   9.035 -0.1294 -0.3327 -0.0736
17579SOL    HW154505   2.787   8.095   9.121 -0.2112  2.8519  0.0650
17579SOL    HW254506   2.817   8.073   8.974  0.4674 -0.2754  0.5936
17580SOL     OW54507   3.988   5.836   4.187 -0.1744 -0.3095  0.1183
17580SOL    HW154508   3.933   5.761   4.208  1.2951 -0.9696  1.9226
17580SOL    HW254509   3.929   5.899   4.147 -2.0204 -1.3740  1.0368
17581SOL     OW54510   7.257   6.871   0.148  0.2439 -0.7063 -0.4234
17581SOL    HW154511   7.299   6.926   0.081  0.2229 -1.5020 -1.0987
17581SOL    HW254512   7.219   6.798   0.099 -2.9923  0.5366 -0.0477
17582SOL     OW54513   5.905   2.196   8.895 -0.6993  0.2802  0.7631
17582SOL    HW154514   5.959   2.220   8.820  0.5857  0.8913  1.8437
17582SOL    HW254515   5.916   2.102   8.904  0.4093  0.4332  1.1141
17583SOL     OW54516   1.420   7.217   9.650 -0.6759 -0.4614 -0.2612
17583SOL    HW154517   1.394   7.308   9.663 -1.2460 -0.3509 -1.9409
17583SOL    HW254518   1.347   7.165   9.682 -0.9347 -0.2786 -0.5507
17584SOL     OW54519   2.184   9.167   3.176  0.0666  0.1048 -0.2750
17584SOL    HW154520   2.246   9.239   3.165  0.3795  0.2818  2.1531
17584SOL    HW254521   2.107   9.207   3.215 -0.1161 -0.6988  0.2203
17585SOL     OW54522   7.316   1.140   7.039  0.1806 -0.1783 -0.3147
17585SOL    HW154523   7.403   1.165   7.008  0.0113  2.9210  1.3230
17585SOL    HW254524   7.313   1.045   7.027  4.2157 -0.6023  0.5230
17586SOL     OW54525   5.050   5.665   7.480 -0.6362  0.3558  0.2808
17586SOL    HW154526   5.053   5.616   7.399  2.3686  1.2265 -0.2779
17586SOL    HW254527   5.115   5.623   7.536 -2.0339  0.3066  1.9600
17587SOL     OW54528   7.221   4.267   6.975  0.3961 -0.0394  0.1487
17587SOL    HW154529   7.134   4.246   6.942 -0.7495  2.4532  1.3373
17587SOL    HW254530   7.240   4.354   6.940  2.4533 -0.5237 -0.0815
17588SOL     OW54531   6.971   3.998   1.574 -0.0733  0.1801  0.6918
17588SOL    HW154532   6.902   3.932   1.580 -0.7034  0.7688  0.1692
17588SOL    HW254533   7.010   4.001   1.661  0.6492 -1.5816  0.4677
17589SOL     OW54534   2.407   8.344   7.435  0.4832 -0.0435  0.4578
17589SOL    HW154535   2.460   8.319   7.359 -0.3100 -1.2017  0.2660
17589SOL    HW254536   2.351   8.415   7.403  0.2665 -0.4174 -0.0001
17590SOL     OW54537   2.349   3.781   7.342  0.1463  0.4364  0.6913
17590SOL    HW154538   2.442   3.760   7.348  0.1473  0.5491  1.0923
17590SOL    HW254539   2.320   3.739   7.261  0.7068  1.0222  0.1768
17591SOL     OW54540   7.981   1.580   7.532  0.0228  0.3263 -0.2300
17591SOL    HW154541   7.921   1.654   7.540  0.3087  0.4141  1.5008
17591SOL    HW254542   7.969   1.531   7.612  2.5860  0.6131  0.4226
17592SOL     OW54543   7.599   2.834   6.899 -0.1633  0.3619 -0.0528
17592SOL    HW154544   7.541   2.772   6.943 -0.3487 -0.0201 -0.8134
17592SOL    HW254545   7.575   2.828   6.807  2.1069 -0.9454 -0.6231
17593SOL     OW54546   6.344   9.019   4.379  0.0333  0.2833  0.3952
17593SOL    HW154547   6.342   8.997   4.472 -0.0411 -0.2210  0.2768
17593SOL    HW254548   6.332   9.114   4.377 -0.6527  0.2159  0.8631
17594SOL     OW54549   9.170   2.115   2.272  0.0526  0.2887  0.1298
17594SOL    HW154550   9.113   2.055   2.224 -0.0609  0.6491 -0.1838
17594SOL    HW254551   9.112   2.184   2.303 -0.5933 -1.6474  3.8050
17595SOL     OW54552   3.682   5.350   0.691  0.0341 -0.2917  0.1726
17595SOL    HW154553   3.603   5.399   0.716 -0.1737 -0.5446  0.0154
17595SOL    HW254554   3.667   5.262   0.725 -0.4893 -0.7923 -1.2800
17596SOL     OW54555   6.140   3.455   1.771 -0.1705 -0.2881  0.2366
17596SOL    HW154556   6.088   3.500   1.838  0.8648  0.8732  0.2998
17596SOL    HW254557   6.150   3.366   1.804 -2.3744 -0.6526  0.0518
17597SOL     OW54558   6.962   7.743   1.335  0.1009 -0.3169  0.4066
17597SOL    HW154559   7.028   7.755   1.267  1.8716  1.1844  2.2672
17597SOL    HW254560   6.965   7.650   1.357  0.0707 -0.6578 -0.9629
17598SOL     OW54561   8.818   9.218   8.414 -0.5467  0.2139 -0.1271
17598SOL    HW154562   8.811   9.125   8.394 -1.9142  0.2693  0.0449
17598SOL    HW254563   8.859   9.221   8.501  0.4741 -0.1813 -0.5845
17599SOL     OW54564   8.553   1.810   0.990  0.5454  0.1191  0.4324
17599SOL    HW154565   8.470   1.766   1.010  0.7195  0.0182  0.9274
17599SOL    HW254566   8.593   1.756   0.922  0.4577 -0.1321  0.5810
17600SOL     OW54567   4.918   4.584   9.758  0.4833 -0.5098 -0.3784
17600SOL    HW154568   4.893   4.583   9.851  1.5405 -1.3054 -0.0831
17600SOL    HW254569   4.876   4.506   9.722  0.5843 -0.5378 -0.4331
17601SOL     OW54570   9.055   2.422   4.996  0.3616 -0.6342 -0.0197
17601SOL    HW154571   8.993   2.400   5.065  0.4615 -0.4823  0.1199
17601SOL    HW254572   9.124   2.472   5.040  0.9330 -1.3791 -0.0490
17602SOL     OW54573   9.811   9.360   2.086  0.1134  0.5224 -0.1998
17602SOL    HW154574   9.849   9.447   2.097 -0.2947  0.8744 -1.3889
17602SOL    HW254575   9.827   9.316   2.169 -1.0458  2.2630  0.9991
17603SOL     OW54576   8.920   5.051   5.254 -0.1672  0.3349 -0.0363
17603SOL    HW154577   8.976   5.125   5.232  1.3248 -0.8956 -0.5413
17603SOL    HW254578   8.858   5.086   5.318  0.7918  1.8929  0.0980
17604SOL     OW54579   9.569   2.733   8.372 -0.3423  0.1505 -0.1654
17604SOL    HW154580   9.651   2.758   8.415  0.1381  0.8515 -1.4226
17604SOL    HW254581   9.502   2.784   8.416 -0.1823 -0.7624  1.1744
17605SOL     OW54582   5.573   8.042   0.654  0.1766  0.1488  0.3742
17605SOL    HW154583   5.488   8.059   0.694  0.5534  0.0768  1.2288
17605SOL    HW254584   5.625   8.120   0.673 -0.1719  0.9385 -1.5773
17606SOL     OW54585   2.223   3.740   7.101 -0.1554 -0.0490  1.0843
17606SOL    HW154586   2.293   3.786   7.056 -1.6999  2.6363  1.2140
17606SOL    HW254587   2.220   3.653   7.059  0.4919  1.2194 -1.8393
17607SOL     OW54588   2.562   5.693   5.066  0.3196 -0.4358  1.0329
17607SOL    HW154589   2.533   5.719   5.153  2.2258  1.6132  1.1564
17607SOL    HW254590   2.509   5.747   5.006  0.3908 -0.3990  1.0039
17608SOL     OW54591   5.362   8.907   2.382  0.2592 -0.1236  0.2116
17608SOL    HW154592   5.373   8.920   2.476  2.9828 -2.4690  0.3544
17608SOL    HW254593   5.286   8.850   2.374  1.1550 -1.4933  1.1973
17609SOL     OW54594   9.204   1.989   0.517  0.4667  0.2970 -0.1889
17609SOL    HW154595   9.260   1.920   0.551 -1.9235 -1.9296 -0.4489
17609SOL    HW254596   9.248   2.018   0.436  2.1757  0.0584  0.6124
17610SOL     OW54597   9.755   0.369   5.524  0.2997 -0.0760 -0.1150
17610SOL    HW154598   9.726   0.460   5.532 -1.3600 -0.4216 -1.5952
17610SOL    HW254599   9.712   0.337   5.445 -0.1676 -2.5085  1.0341
17611SOL     OW54600   6.394   3.183   7.863 -0.0311 -0.2493 -0.2517
17611SOL    HW154601   6.458   3.163   7.932 -0.7912 -2.9583 -0.2011
17611SOL    HW254602   6.320   3.222   7.909  0.4948  0.3673  0.0812
17612SOL     OW54603   4.902   3.020   5.143 -0.0013 -0.0810 -0.2341
17612SOL    HW154604   4.918   3.113   5.155 -1.0075 -0.0587  1.1816
17612SOL    HW254605   4.978   2.976   5.181  0.5692  0.1468 -1.0872
17613SOL     OW54606   5.556   4.527   2.641  0.4590 -0.3532  0.4276
17613SOL    HW154607   5.600   4.468   2.702  1.3543  1.3320  1.5114
17613SOL    HW254608   5.611   4.605   2.640 -0.0957  0.0647 -1.7904
17614SOL     OW54609   4.798   1.306   9.524 -0.6953  0.2605  0.2757
17614SOL    HW154610   4.824   1.220   9.558 -0.2916 -0.7176 -2.2802
17614SOL    HW254611   4.752   1.286   9.442 -0.4681  2.4851 -0.4481
17615SOL     OW54612   8.689   5.562   8.779 -0.1249 -0.3209 -0.0980
17615SOL    HW154613   8.715   5.643   8.822 -1.1507  0.9343 -1.6813
17615SOL    HW254614   8.761   5.502   8.794  2.4872  2.0930 -2.0260
17616SOL     OW54615   6.254   3.779   1.728 -0.3142 -0.1777 -0.5586
17616SOL    HW154616   6.260   3.689   1.760 -1.9604 -0.4030 -0.8363
17616SOL    HW254617   6.165   3.788   1.696  0.0308  1.3512 -1.1883
17617SOL     OW54618   5.572   8.223   0.156 -0.4484  0.2263 -0.3508
17617SOL    HW154619   5.565   8.135   0.192 -1.8698  0.1948 -0.6603
17617SOL    HW254620   5.634   8.214   0.083 -0.0846 -0.3695  0.0253
17618SOL     OW54621   3.082   9.762   7.544  0.5400  0.0012 -0.2190
17618SOL    HW154622   3.017   9.831   7.529 -0.7055 -0.5697  2.0015
17618SOL    HW254623   3.113   9.777   7.633 -0.0126 -2.4397  0.4629
17619SOL     OW54624   6.039   8.811   8.543 -0.2471  0.1516 -0.3921
17619SOL    HW154625   6.126   8.775   8.523 -0.1387  0.1822  0.0178
17619SOL    HW254626   5.997   8.820   8.458 -0.1494 -0.6342 -0.5344
17620SOL     OW54627   1.795   3.099   7.354 -0.1966 -0.2627  0.4415
17620SOL    HW154628   1.825   3.021   7.401 -0.7607 -2.3762 -2.4363
17620SOL    HW254629   1.848   3.102   7.275  0.5701  3.0233  0.9224
17621SOL     OW54630   5.411   0.573   0.334  0.5665  0.4305  0.0706
17621SOL    HW154631   5.500   0.592   0.364 -0.3893  0.0147  3.6484
17621SOL    HW254632   5.385   0.652   0.286  2.1090  1.4981  0.8897
17622SOL     OW54633   0.043   2.781   8.923  0.4479 -0.2102  0.7988
17622SOL    HW154634   0.069   2.850   8.983 -0.9850  1.3269 -0.2632
17622SOL    HW254635  -0.053   2.789   8.916  0.5610 -0.1276 -1.8342
17623SOL     OW54636   3.387   3.672   1.998 -0.3727  0.3586  0.2374
17623SOL    HW154637   3.409   3.696   2.088  0.6661 -2.4027  0.8239
17623SOL    HW254638   3.471   3.673   1.952 -0.0922 -2.5611  0.4984
17624SOL     OW54639   3.626   6.332   0.099 -0.1467 -0.1378 -0.6161
17624SOL    HW154640   3.534   6.305   0.108 -0.0176 -0.5188 -0.4062
17624SOL    HW254641   3.633   6.412   0.151 -0.0593 -0.8160  0.4486
17625SOL     OW54642   9.611   2.607   3.921  0.4362  0.0790  0.4539
17625SOL    HW154643   9.624   2.590   3.828 -1.7203  0.4076  0.0397
17625SOL    HW254644   9.547   2.678   3.923  2.0384  1.5803  2.1964
17626SOL     OW54645   4.408   6.843   8.349 -0.5865 -0.2106  0.0746
17626SOL    HW154646   4.443   6.755   8.357  0.6371  0.3519  1.3061
17626SOL    HW254647   4.479   6.894   8.309 -0.6532  0.5423  0.8707
17627SOL     OW54648   5.036   6.558   5.583 -0.0645  0.7206  0.9312
17627SOL    HW154649   5.077   6.483   5.627  3.5907  3.1818  2.1357
17627SOL    HW254650   4.976   6.593   5.649  0.0506  0.2804  1.2825
17628SOL     OW54651   7.453   3.486   3.529  0.1568 -0.0389  0.0187
17628SOL    HW154652   7.507   3.409   3.550  0.1837  0.0953  0.4312
17628SOL    HW254653   7.469   3.500   3.435 -1.4169 -1.7670 -0.5875
17629SOL     OW54654   5.032   8.169   0.495 -0.1717 -0.0802 -0.0661
17629SOL    HW154655   5.070   8.254   0.471 -0.1261 -0.0555  0.0950
17629SOL    HW254656   4.970   8.151   0.424 -0.8856  0.5387  0.3852
17630SOL     OW54657   1.010   4.962   2.806 -0.3825 -0.1863  0.6723
17630SOL    HW154658   1.086   4.974   2.750 -0.6359 -0.8634  0.1593
17630SOL    HW254659   1.011   5.036   2.866  0.8255 -0.3323  0.8530
17631SOL     OW54660   8.577   3.104   2.903  0.0695  0.1259  0.3538
17631SOL    HW154661   8.639   3.172   2.879  0.3689 -0.4192 -0.4338
17631SOL    HW254662   8.530   3.140   2.979  1.5567  0.4134  1.1721
17632SOL     OW54663   8.827   0.571   2.253  0.0293 -0.2622 -0.2641
17632SOL    HW154664   8.809   0.488   2.296  0.8271  0.4696  1.5754
17632SOL    HW254665   8.897   0.611   2.305 -0.3366  1.5596 -1.0899
17633SOL     OW54666   0.397   1.269   2.198  0.1744 -0.3425 -0.4658
17633SOL    HW154667   0.344   1.215   2.256  0.8536 -1.2792 -0.6994
17633SOL    HW254668   0.434   1.207   2.135  0.1895  0.5306 -1.3347
17634SOL     OW54669   8.394   5.906   2.545 -0.5306 -0.4185 -0.1820
17634SOL    HW154670   8.361   5.817   2.533  0.1019 -0.5949 -0.6731
17634SOL    HW254671   8.469   5.912   2.485 -0.4466  0.3773 -0.0051
17635SOL     OW54672   9.730   8.040   0.346  0.3712 -0.2231 -0.1731
17635SOL    HW154673   9.722   7.945   0.351  0.8863 -0.4185 -2.2556
17635SOL    HW254674   9.642   8.071   0.325  0.2799 -0.2607  0.1467
17636SOL     OW54675   2.992   3.678   3.242  0.5167  0.1930  0.1149
17636SOL    HW154676   2.995   3.746   3.174 -3.0644  0.1291 -0.2533
17636SOL    HW254677   2.989   3.727   3.324 -1.5921  0.5440 -0.1303
17637SOL     OW54678   0.648   4.636   7.226  0.1771 -0.5352 -0.3577
17637SOL    HW154679   0.682   4.651   7.314 -0.0102  1.3308 -0.5544
17637SOL    HW254680   0.572   4.578   7.239 -0.2163  0.2026  0.7937
17638SOL     OW54681   9.234   6.453   5.183 -0.1822 -0.0321 -0.4500
17638SOL    HW154682   9.258   6.516   5.251 -0.2962  0.7161 -1.0904
17638SOL    HW254683   9.214   6.372   5.230  1.6906 -0.1166  0.2679
17639SOL     OW54684   6.396   4.041   4.856 -0.0659 -0.4225  0.1568
17639SOL    HW154685   6.335   4.063   4.787  0.4328  0.7644  0.0726
17639SOL    HW254686   6.383   4.108   4.923  0.4418 -0.7408  0.5928
17640SOL     OW54687   3.981   9.190   2.457  0.4020  0.2847 -0.8560
17640SOL    HW154688   4.061   9.240   2.471  1.7881 -1.3517 -2.4777
17640SOL    HW254689   3.928   9.243   2.398  1.6762  0.0772 -2.2317
17641SOL     OW54690   7.225   5.494   8.286 -0.2072  0.5811 -0.2924
17641SOL    HW154691   7.245   5.574   8.334  1.6308  0.1470 -0.2551
17641SOL    HW254692   7.137   5.508   8.252  0.3309  2.9056 -0.9040
17642SOL     OW54693   4.246   9.616   1.502  0.8137 -0.2247  0.2589
17642SOL    HW154694   4.268   9.532   1.460  0.5641 -0.9388  1.5196
17642SOL    HW254695   4.275   9.606   1.592 -1.3011  0.1848  1.0206
17643SOL     OW54696   2.164   0.779   8.497 -0.3369 -0.1558  0.0067
17643SOL    HW154697   2.154   0.830   8.578 -1.1924  1.2492 -0.9399
17643SOL    HW254698   2.190   0.843   8.431  0.2363 -1.2595 -0.8670
17644SOL     OW54699   6.090   5.097   2.273  0.0811 -0.1879  0.4856
17644SOL    HW154700   6.035   5.169   2.304  0.7425  0.9257 -0.8051
17644SOL    HW254701   6.031   5.040   2.225  0.2358  2.0311 -2.6508
17645SOL     OW54702   3.861   7.010   4.557 -0.1106 -0.5694 -0.3982
17645SOL    HW154703   3.952   7.031   4.538  0.3589 -2.6688 -0.6304
17645SOL    HW254704   3.815   7.094   4.546  1.5770  0.2781 -1.4910
17646SOL     OW54705   5.722   9.712   9.404  0.1519 -0.3766 -0.2007
17646SOL    HW154706   5.708   9.618   9.396 -1.0505 -0.2147 -0.1968
17646SOL    HW254707   5.797   9.730   9.348 -0.3824 -1.1458 -1.1925
17647SOL     OW54708   0.418   9.435   2.954  0.0184  0.0736  0.1789
17647SOL    HW154709   0.498   9.454   2.906  1.9684 -2.3767  2.2119
17647SOL    HW254710   0.402   9.513   3.006  2.6258 -0.2330  1.6182
17648SOL     OW54711   6.045   5.649   0.875  0.0914  0.4768 -0.2173
17648SOL    HW154712   6.124   5.700   0.858  1.3426 -1.4222 -0.5147
17648SOL    HW254713   6.020   5.615   0.789  0.1986 -0.6048  0.1627
17649SOL     OW54714   2.928   6.399   7.274 -0.3299 -0.2911 -0.1582
17649SOL    HW154715   3.022   6.413   7.282 -0.3980  0.5323 -0.6606
17649SOL    HW254716   2.908   6.331   7.338  0.6337 -0.6118 -0.1840
17650SOL     OW54717   7.225   2.250   1.185 -0.6003  0.5411 -0.5090
17650SOL    HW154718   7.292   2.315   1.163  0.4341 -0.2825  0.1270
17650SOL    HW254719   7.190   2.279   1.269 -0.1825  0.3207 -0.2561
17651SOL     OW54720   2.439   3.181   9.624 -0.5113  0.5801 -0.0994
17651SOL    HW154721   2.375   3.117   9.654 -1.6497  1.2844 -0.9682
17651SOL    HW254722   2.421   3.192   9.530 -0.9206  2.7972  0.1791
17652SOL     OW54723   5.528   8.211   3.946  0.6474 -0.1732  0.3609
17652SOL    HW154724   5.504   8.147   3.880 -1.3884  0.2133  0.6689
17652SOL    HW254725   5.595   8.265   3.903 -0.3521 -0.1532 -1.2871
17653SOL     OW54726   2.503   9.442   3.727 -0.2468 -0.0821  0.0283
17653SOL    HW154727   2.413   9.409   3.724 -0.4518  0.4291  0.3057
17653SOL    HW254728   2.529   9.449   3.636  0.7808 -3.5003 -0.0933
17654SOL     OW54729   0.761   8.127   7.411  0.3410 -0.5799 -0.4354
17654SOL    HW154730   0.827   8.194   7.427 -1.0675  0.5658  0.8763
17654SOL    HW254731   0.719   8.153   7.329 -0.5243  0.4938  0.3077
17655SOL     OW54732   8.831   2.676   3.606  0.6734 -0.5716 -0.4447
17655SOL    HW154733   8.738   2.657   3.598  0.8570 -1.2675 -1.0827
17655SOL    HW254734   8.835   2.759   3.653 -0.3133  0.0072 -1.3310
17656SOL     OW54735   1.229   7.696   6.131 -1.1162  0.4895  0.6201
17656SOL    HW154736   1.273   7.689   6.215 -1.3959  1.8940  0.9171
17656SOL    HW254737   1.140   7.665   6.148 -0.3421 -2.3153  0.0271
17657SOL     OW54738   0.127   3.734   1.490  0.1998  0.0497  0.0595
17657SOL    HW154739   0.199   3.756   1.432  0.7628 -1.0155  0.3371
17657SOL    HW254740   0.157   3.657   1.539 -0.2828  0.8356  1.6911
17658SOL     OW54741   3.095   3.556   7.519 -0.2323 -0.1725 -0.0294
17658SOL    HW154742   3.013   3.583   7.478 -0.1657 -1.6423 -1.2337
17658SOL    HW254743   3.162   3.577   7.454  0.2537  0.3232  0.6304
17659SOL     OW54744   0.188   5.282   6.111  0.3405  0.0727  0.5248
17659SOL    HW154745   0.199   5.356   6.051 -1.8959 -0.8992 -1.2376
17659SOL    HW254746   0.107   5.299   6.157  0.3803 -0.7478  0.9242
17660SOL     OW54747   7.456   7.808   6.083 -0.5782  0.2136  0.1640
17660SOL    HW154748   7.481   7.824   5.992  0.6473 -3.1023 -0.2094
17660SOL    HW254749   7.392   7.737   6.078 -1.1190  0.5283  1.8710
17661SOL     OW54750   9.565   6.751   6.782  0.4692  0.1162  0.3908
17661SOL    HW154751   9.566   6.774   6.689  2.7240  0.9783  0.5547
17661SOL    HW254752   9.529   6.829   6.825  0.4531  0.1370  0.3397
17662SOL     OW54753   8.287   3.048   6.203 -0.6198  0.3967 -0.2222
17662SOL    HW154754   8.293   3.139   6.175 -1.0368  0.6698  0.5359
17662SOL    HW254755   8.363   3.035   6.259 -0.5826  0.2870 -0.2975
17663SOL     OW54756   5.878   7.440   2.139 -0.1665 -0.4986  0.6207
17663SOL    HW154757   5.908   7.376   2.204 -0.0076 -1.9004 -0.7908
17663SOL    HW254758   5.795   7.473   2.175 -0.5626 -1.9458  1.0942
17664SOL     OW54759   8.012   0.647   1.806 -0.3424 -0.1200 -0.0053
17664SOL    HW154760   7.974   0.723   1.851 -0.4928  1.0045 -1.9221
17664SOL    HW254761   7.959   0.638   1.727  2.2939  0.4618 -1.9537
17665SOL     OW54762   9.642   5.652   9.824  0.1000  0.7991  0.3604
17665SOL    HW154763   9.667   5.634   9.733 -1.4243 -1.1940  0.2382
17665SOL    HW254764   9.725   5.661   9.871  1.0490 -1.5742 -0.6643
17666SOL     OW54765   2.645   7.561   6.285 -0.1636  0.1414 -0.3874
17666SOL    HW154766   2.698   7.511   6.222  1.1912  0.5869  0.3526
17666SOL    HW254767   2.562   7.513   6.290  0.1599 -0.5966 -1.5717
17667SOL     OW54768   6.896   5.626   5.446  0.3703  0.1503 -0.5752
17667SOL    HW154769   6.888   5.559   5.379  0.4424  0.2704 -0.7031
17667SOL    HW254770   6.972   5.600   5.498  0.6452  0.3518 -0.8726
17668SOL     OW54771   8.597   9.121   0.917 -0.7583 -0.0009  0.2828
17668SOL    HW154772   8.601   9.106   1.012 -2.1092 -1.2281  0.1775
17668SOL    HW254773   8.630   9.040   0.879 -0.0865  0.5436 -0.3132
17669SOL     OW54774   4.208   7.441   5.840  0.1489  0.2343  0.2428
17669SOL    HW154775   4.268   7.392   5.896  1.4737  0.1835 -1.1457
17669SOL    HW254776   4.132   7.384   5.831  0.3742 -0.2183  1.0846
17670SOL     OW54777   9.313   0.660   0.759 -0.4435 -0.3320 -0.1263
17670SOL    HW154778   9.378   0.711   0.710 -0.6087 -0.9849 -1.0679
17670SOL    HW254779   9.353   0.646   0.845  0.5265 -0.4509 -0.5805
17671SOL     OW54780   0.351   6.017   7.977 -0.0375 -0.0334 -0.2416
17671SOL    HW154781   0.280   6.080   7.966 -2.1336 -2.3181 -0.7038
17671SOL    HW254782   0.369   6.017   8.071 -0.3846  0.8516 -0.1694
17672SOL     OW54783   8.056   6.100   9.826  0.0756  0.2754 -0.0467
17672SOL    HW154784   8.076   6.179   9.876  0.9834  1.2756 -1.8770
17672SOL    HW254785   8.048   6.031   9.892  3.7891  0.9489  1.3504
17673SOL     OW54786   7.003   3.692   5.830 -0.0293 -0.8381 -0.2240
17673SOL    HW154787   7.072   3.671   5.893 -1.5091  1.1125  2.2465
17673SOL    HW254788   7.035   3.656   5.747  3.0065 -1.7357  1.1672
17674SOL     OW54789   6.503   2.898   3.899 -0.4855 -0.7278  0.0083
17674SOL    HW154790   6.549   2.956   3.960 -2.1771  0.2379  0.4475
17674SOL    HW254791   6.531   2.810   3.923  0.2279 -0.2395  1.0199
17675SOL     OW54792   5.472   0.776   3.485 -0.2918 -0.4509  0.0292
17675SOL    HW154793   5.394   0.810   3.443 -0.7250  1.6454  2.2982
17675SOL    HW254794   5.476   0.684   3.459 -2.1311 -0.0076 -2.0560
17676SOL     OW54795   9.741   7.229   0.173  0.1660 -0.0258  0.2261
17676SOL    HW154796   9.782   7.307   0.136 -0.7413  0.5231  0.3626
17676SOL    HW254797   9.648   7.239   0.154 -0.0381 -0.7819  0.7797
17677SOL     OW54798   6.351   7.094   8.346  0.1672  0.0663  0.7078
17677SOL    HW154799   6.345   7.074   8.253  0.3167 -4.0692  1.4046
17677SOL    HW254800   6.308   7.179   8.355 -0.1010  0.4881 -3.0422
17678SOL     OW54801   7.748   6.090   5.749  0.0668 -0.0869  0.3419
17678SOL    HW154802   7.685   6.019   5.759 -1.1936  1.0699  0.8397
17678SOL    HW254803   7.732   6.148   5.823 -0.2073  1.6641 -1.0204
17679SOL     OW54804   1.248   9.471   8.695 -0.3366 -0.2443  0.3793
17679SOL    HW154805   1.156   9.445   8.702 -0.3375 -0.1443  0.7744
17679SOL    HW254806   1.261   9.533   8.767 -0.0300 -0.0489  0.1566
17680SOL     OW54807   8.083   1.321   5.307 -0.0571  0.6971  0.2951
17680SOL    HW154808   8.070   1.229   5.330 -0.8017  0.6945 -0.1208
17680SOL    HW254809   8.178   1.333   5.312  0.0044  0.0651  0.9351
17681SOL     OW54810   1.539   9.589   2.981  0.0482 -1.0495  0.4628
17681SOL    HW154811   1.604   9.547   3.039  0.2357 -0.0945  0.9569
17681SOL    HW254812   1.569   9.567   2.893  0.0621 -2.0701  0.7034
17682SOL     OW54813   0.999   8.954   0.767 -0.1396 -0.2577  0.0881
17682SOL    HW154814   0.940   9.023   0.736  1.2314  0.1121 -1.8334
17682SOL    HW254815   1.007   8.970   0.861 -0.9373  1.3398 -0.0816
17683SOL     OW54816   4.463   2.491   9.406 -0.1001  0.1934  0.1649
17683SOL    HW154817   4.427   2.503   9.318  0.0584  0.6679  0.1631
17683SOL    HW254818   4.558   2.490   9.393 -0.0787  0.1370  0.3166
17684SOL     OW54819   1.917   4.751   0.019  0.1642 -0.3438 -0.2098
17684SOL    HW154820   1.827   4.726   0.037 -0.2916  1.4697  0.2596
17684SOL    HW254821   1.926   4.743  -0.076 -0.4365 -0.7000 -0.2376
17685SOL     OW54822   4.303   4.172   8.858 -0.4826  0.0659 -0.4139
17685SOL    HW154823   4.269   4.212   8.937 -3.0031 -0.4503 -1.1563
17685SOL    HW254824   4.303   4.242   8.793  1.2931  0.4107 -0.1086
17686SOL     OW54825   2.548   2.049   0.115 -0.2457 -0.1949 -0.1609
17686SOL    HW154826   2.601   2.100   0.175 -0.0530 -0.0789 -0.4307
17686SOL    HW254827   2.508   1.981   0.170 -0.1381 -0.0365  0.1112
17687SOL     OW54828   5.850   3.822   1.277  0.2763  0.1041 -0.0386
17687SOL    HW154829   5.829   3.737   1.315  0.6016  0.2452  0.4607
17687SOL    HW254830   5.798   3.826   1.197  0.3117 -0.5900 -0.0964
17688SOL     OW54831   1.598   3.973   3.633 -0.2543 -0.4344 -0.7944
17688SOL    HW154832   1.508   4.005   3.624 -1.0376 -1.4733  2.0840
17688SOL    HW254833   1.641   3.999   3.552 -3.3323 -0.5446 -2.6363
17689SOL     OW54834   8.238   4.040   5.910 -0.1042  0.4395  0.1988
17689SOL    HW154835   8.308   4.037   5.845  0.6966 -0.0755  1.0627
17689SOL    HW254836   8.284   4.043   5.994 -1.1161 -0.3192  0.7941
17690SOL     OW54837   0.498   1.860   7.851  0.2685 -0.3310  0.6273
17690SOL    HW154838   0.461   1.921   7.787  2.2700 -0.0278 -0.3295
17690SOL    HW254839   0.423   1.813   7.886 -1.1657  1.4863  0.1324
17691SOL     OW54840   4.640   1.443   5.692  0.0682  0.1668  0.3522
17691SOL    HW154841   4.583   1.482   5.625 -0.6742  0.5593  1.1934
17691SOL    HW254842   4.614   1.487   5.773  0.5481 -0.7236  0.9940
17692SOL     OW54843   3.322   1.177   0.062 -0.0489 -0.2387  0.4730
17692SOL    HW154844   3.317   1.082   0.073 -0.8323 -0.0498  1.9952
17692SOL    HW254845   3.413   1.199   0.082  0.1370 -0.6642  0.1096
17693SOL     OW54846   4.377   1.588   0.188  0.1865  0.2298 -0.0758
17693SOL    HW154847   4.358   1.557   0.277 -0.3483  1.9293  0.4445
17693SOL    HW254848   4.473   1.591   0.185  0.2077  0.6059  0.6278
17694SOL     OW54849   0.381   2.915   1.141  0.4622 -0.4645 -0.2148
17694SOL    HW154850   0.367   2.829   1.102 -1.5065 -0.3421  0.1308
17694SOL    HW254851   0.473   2.914   1.168  0.6906 -2.1557 -0.9136
17695SOL     OW54852   6.884   4.338   8.866  0.1097  0.1585 -0.1280
17695SOL    HW154853   6.929   4.364   8.785  0.2528  0.3925  0.0253
17695SOL    HW254854   6.953   4.333   8.932  0.0034 -0.1014 -0.0339
17696SOL     OW54855   5.002   9.145   3.661  0.0807 -0.0546  0.0284
17696SOL    HW154856   5.020   9.211   3.595  0.1833  0.2367  0.3443
17696SOL    HW254857   5.059   9.071   3.638 -1.8722 -1.0922 -1.8422
17697SOL     OW54858   4.508   8.435   9.796 -0.4694 -0.4372 -0.0633
17697SOL    HW154859   4.442   8.409   9.860 -1.3309  1.2183 -0.2232
17697SOL    HW254860   4.463   8.500   9.741  1.3212  0.8562 -0.0795
17698SOL     OW54861   5.610   5.998   2.002 -0.6094  0.1817  0.0359
17698SOL    HW154862   5.684   5.955   1.959 -1.7398 -1.1159 -0.7213
17698SOL    HW254863   5.637   6.007   2.093  1.1238  1.3063 -0.5468
17699SOL     OW54864   3.569   1.148   9.494 -0.0394  0.1774  0.5363
17699SOL    HW154865   3.656   1.140   9.455 -0.1313 -1.9432  0.6523
17699SOL    HW254866   3.582   1.206   9.570  1.2913 -0.1748  0.6054
17700SOL     OW54867   1.742   2.492   1.879 -0.6560  0.2785 -0.0184
17700SOL    HW154868   1.647   2.485   1.869 -0.7877  2.0325 -0.2040
17700SOL    HW254869   1.765   2.575   1.839  1.1904 -0.7954 -1.3549
17701SOL     OW54870   9.253   0.807   7.780 -0.5392 -0.3423  0.6022
17701SOL    HW154871   9.324   0.742   7.783 -0.5180 -0.4325 -1.0089
17701SOL    HW254872   9.214   0.804   7.867 -0.0442 -1.9838  0.7997
17702SOL     OW54873   2.759   0.321   1.015 -0.2193  0.1626  0.4002
17702SOL    HW154874   2.849   0.292   1.000 -0.5493 -0.1847 -1.0097
17702SOL    HW254875   2.766   0.382   1.088  1.2931  0.8597 -0.2850
17703SOL     OW54876   6.589   5.678   0.389 -0.3973  0.4380  0.3010
17703SOL    HW154877   6.684   5.673   0.398 -0.5816 -3.6918  2.0974
17703SOL    HW254878   6.555   5.661   0.476 -2.6568 -2.9720 -1.0370
17704SOL     OW54879   2.462   4.470   1.790 -0.1815  0.3614 -0.3189
17704SOL    HW154880   2.468   4.565   1.795 -2.2446  0.5088 -0.0390
17704SOL    HW254881   2.503   4.439   1.871 -2.7847  1.2313  1.4505
17705SOL     OW54882   2.463   9.062   3.544  0.0565 -0.2088 -0.5627
17705SOL    HW154883   2.427   9.015   3.468 -0.6567  0.4319 -0.6418
17705SOL    HW254884   2.555   9.039   3.545 -0.4104 -2.2541 -0.1149
17706SOL     OW54885   2.808   5.014   6.667 -0.5777  0.4233  0.3756
17706SOL    HW154886   2.806   4.930   6.620  2.1636  1.3473 -1.6541
17706SOL    HW254887   2.806   5.080   6.598  1.8206  1.8914  1.5779
17707SOL     OW54888   2.802   8.645   5.067 -0.0644 -0.6785  0.3688
17707SOL    HW154889   2.864   8.573   5.077 -1.3594 -1.7918  0.6888
17707SOL    HW254890   2.764   8.632   4.980 -0.5132 -0.5526  0.5443
17708SOL     OW54891   4.092   9.393   8.013  0.6560 -0.8076  0.1483
17708SOL    HW154892   4.157   9.353   8.070  0.3856 -0.7918  0.4694
17708SOL    HW254893   4.117   9.485   8.009 -0.2861 -0.4452  1.6170
17709SOL     OW54894   5.904   4.886   8.371  0.2892 -0.3303  0.3507
17709SOL    HW154895   5.854   4.957   8.330  2.0713 -0.0771 -1.5856
17709SOL    HW254896   5.897   4.813   8.310 -0.2488 -1.3338  1.5765
17710SOL     OW54897   8.382   6.546   6.059 -0.0758 -0.0432 -0.6744
17710SOL    HW154898   8.449   6.528   5.993 -0.6018  1.1517 -1.5670
17710SOL    HW254899   8.313   6.593   6.011 -0.1605  1.4793  0.8495
17711SOL     OW54900   8.275   2.917   7.026  0.0440 -0.2350  0.3444
17711SOL    HW154901   8.192   2.926   6.979  0.9247 -2.0301 -1.7397
17711SOL    HW254902   8.336   2.881   6.961  1.8604 -1.1555  2.4109
17712SOL     OW54903   8.447   8.274   2.252 -0.4265 -0.3010 -0.0091
17712SOL    HW154904   8.435   8.292   2.345 -0.5612  2.8052 -0.5186
17712SOL    HW254905   8.387   8.201   2.234 -0.2423 -1.1148  2.3281
17713SOL     OW54906   9.082   3.707   5.670 -0.0963 -0.3607  0.2186
17713SOL    HW154907   9.176   3.721   5.675 -0.0953 -0.7741  2.0107
17713SOL    HW254908   9.073   3.615   5.645 -0.0410 -0.1141 -0.7324
17714SOL     OW54909   3.221   8.701   7.620 -0.0368 -0.6240  0.2045
17714SOL    HW154910   3.158   8.640   7.581 -1.6845  1.5157 -0.6660
17714SOL    HW254911   3.170   8.750   7.685  1.1183  0.1718  0.5380
17715SOL     OW54912   2.259   5.282   3.315  0.4469 -0.4121 -0.3070
17715SOL    HW154913   2.258   5.186   3.324  2.2728 -0.5329 -0.8870
17715SOL    HW254914   2.249   5.297   3.221 -1.4873  0.0666 -0.0530
17716SOL     OW54915   3.121   4.936   7.807  0.1717 -0.0710  0.7200
17716SOL    HW154916   3.144   5.015   7.758  4.1333 -2.3127 -1.5421
17716SOL    HW254917   3.060   4.890   7.749  0.0561  0.0659  0.7326
17717SOL     OW54918   2.720   8.988   3.556 -0.0702  0.1648  0.0010
17717SOL    HW154919   2.786   8.931   3.518 -0.7603  0.6937 -2.1275
17717SOL    HW254920   2.770   9.054   3.605  0.8327 -0.7655  0.3477
17718SOL     OW54921   9.344   8.448   7.770  0.0001 -0.1868  0.4807
17718SOL    HW154922   9.299   8.373   7.730  0.8902 -0.3354 -0.2873
17718SOL    HW254923   9.344   8.515   7.702 -1.2054  0.7144  1.3232
17719SOL     OW54924   0.006   6.308   1.669 -0.8074 -0.1421  0.0649
17719SOL    HW154925  -0.073   6.265   1.638 -0.4684 -1.1265  0.5412
17719SOL    HW254926   0.041   6.250   1.736  0.3213  0.2762 -0.1411
17720SOL     OW54927   6.464   8.228   6.312  0.1172  0.9694 -0.3922
17720SOL    HW154928   6.399   8.161   6.291  0.5098  0.3057  0.4634
17720SOL    HW254929   6.511   8.242   6.230  0.5906 -0.4316 -0.3809
17721SOL     OW54930   2.560   5.832   9.309  0.1152 -0.3077  0.0194
17721SOL    HW154931   2.600   5.745   9.315 -0.4525 -0.5009  2.4128
17721SOL    HW254932   2.623   5.890   9.351 -0.2481  0.1311 -0.0380
17722SOL     OW54933   0.402   8.141   1.658 -0.6153  0.0156 -0.2341
17722SOL    HW154934   0.342   8.211   1.682 -0.4408  0.3251 -0.6833
17722SOL    HW254935   0.485   8.184   1.644  0.0815 -0.5790  1.6999
17723SOL     OW54936   0.063   0.408   9.840 -0.0002  0.0546 -0.6903
17723SOL    HW154937  -0.019   0.453   9.859  0.8629  1.0215  0.9315
17723SOL    HW254938   0.126   0.478   9.823  1.1255 -0.5257  0.8765
17724SOL     OW54939   5.559   7.623   9.288 -0.6858  0.2479  0.0503
17724SOL    HW154940   5.562   7.708   9.243  0.8630 -0.2705 -0.9151
17724SOL    HW254941   5.597   7.640   9.374  2.1311  0.0863 -1.0598
17725SOL     OW54942   8.154   7.805   6.912  0.7703 -0.0892 -0.4472
17725SOL    HW154943   8.217   7.865   6.871  0.6372  0.4327  0.0897
17725SOL    HW254944   8.076   7.812   6.858  0.3759  1.0908  0.2402
17726SOL     OW54945   2.899   6.162   7.412 -0.0271 -0.1980  0.6489
17726SOL    HW154946   2.950   6.094   7.456  0.8373  0.9915  1.5308
17726SOL    HW254947   2.833   6.113   7.362 -0.5734 -1.6301  2.6460
17727SOL     OW54948   3.674   0.259   7.022  0.5357 -0.7224  0.1680
17727SOL    HW154949   3.704   0.168   7.017  3.5151  0.0539  1.8890
17727SOL    HW254950   3.589   0.254   7.066  1.2348 -2.6009  1.4040
17728SOL     OW54951   5.484   7.143   4.997  0.0094 -0.3884  0.4045
17728SOL    HW154952   5.493   7.113   5.088  0.9528 -1.0108  0.1233
17728SOL    HW254953   5.404   7.100   4.966  0.4799 -1.3738  0.5003
17729SOL     OW54954   2.235   9.304   4.840 -0.9873  0.3737 -0.1363
17729SOL    HW154955   2.189   9.339   4.764  0.0935  0.9648 -0.5320
17729SOL    HW254956   2.170   9.250   4.884 -1.8550  0.6377 -1.0576
17730SOL     OW54957   7.742   1.128   3.152 -0.1190  0.0503 -0.0353
17730SOL    HW154958   7.682   1.144   3.080  0.6572 -2.7922 -1.4695
17730SOL    HW254959   7.722   1.039   3.181  0.0346  0.8755  2.8870
17731SOL     OW54960   1.879   9.727   9.366  0.2136  0.6865 -0.1537
17731SOL    HW154961   1.876   9.717   9.271 -1.6580  1.2602 -0.1924
17731SOL    HW254962   1.864   9.820   9.381 -0.3457  0.4747  0.7103
17732SOL     OW54963   8.723   3.268   4.400 -0.5425 -0.1288  0.0240
17732SOL    HW154964   8.686   3.192   4.355  0.5829 -0.6695 -0.0385
17732SOL    HW254965   8.748   3.235   4.486 -1.0365  0.4527  0.3965
17733SOL     OW54966   3.253   6.489   9.283 -0.1277 -0.0448  0.2220
17733SOL    HW154967   3.278   6.457   9.370 -0.6007 -2.1227 -0.3425
17733SOL    HW254968   3.328   6.469   9.228  0.3565  1.6878  0.2042
17734SOL     OW54969   5.285   9.835   2.925 -0.1961  0.6526  0.2450
17734SOL    HW154970   5.204   9.789   2.903  0.7662 -1.2113  0.4160
17734SOL    HW254971   5.262   9.892   2.998 -1.1767 -0.5182  0.8880
17735SOL     OW54972   4.305   8.033   6.335  0.1290  0.0807 -0.2068
17735SOL    HW154973   4.259   8.103   6.382  1.7460  0.7631  0.4129
17735SOL    HW254974   4.353   7.986   6.403 -0.3379 -1.1874 -0.7248
17736SOL     OW54975   1.754   7.618   8.720 -0.1854  0.4241 -0.3902
17736SOL    HW154976   1.764   7.693   8.778  1.8755 -0.7472  0.8897
17736SOL    HW254977   1.672   7.577   8.748  1.2306 -0.6807  2.5190
17737SOL     OW54978   9.038   6.115   6.741  0.1345  0.8082 -0.7072
17737SOL    HW154979   9.124   6.149   6.767  0.4414 -0.4471  0.0079
17737SOL    HW254980   8.992   6.191   6.705  1.1265  1.7599 -0.0348
17738SOL     OW54981   7.852   7.207   1.268  0.1159  0.3201  0.2061
17738SOL    HW154982   7.865   7.148   1.193 -0.6257 -0.5057  0.7127
17738SOL    HW254983   7.802   7.155   1.331 -0.9892  1.6545  0.4729
17739SOL     OW54984   0.790   3.631   6.418  0.4497  0.3514 -0.0304
17739SOL    HW154985   0.750   3.643   6.504 -0.4455  1.6269 -0.5945
17739SOL    HW254986   0.717   3.640   6.357  1.0985 -0.4026 -0.9364
17740SOL     OW54987   8.070   9.842   3.712  0.4283  0.7054 -0.0095
17740SOL    HW154988   8.138   9.784   3.679 -1.8634 -1.4993 -1.2267
17740SOL    HW254989   8.068   9.914   3.649  0.4874 -0.1168 -0.9780
17741SOL     OW54990   3.487   5.347   4.120 -0.3270  0.2564  0.6549
17741SOL    HW154991   3.496   5.412   4.050  0.5345  0.6436  1.1048
17741SOL    HW254992   3.553   5.373   4.185 -0.0864 -0.9701  0.9220
17742SOL     OW54993   7.194   0.489   2.570  0.2580  0.5117 -0.2417
17742SOL    HW154994   7.251   0.508   2.644  0.2656 -2.6083  0.6974
17742SOL    HW254995   7.253   0.479   2.495  0.9400 -1.7580  0.5317
17743SOL     OW54996   2.883   5.201   4.526 -0.2263 -0.3749 -0.3613
17743SOL    HW154997   2.820   5.134   4.500 -0.9309  0.4966 -1.0174
17743SOL    HW254998   2.904   5.246   4.444 -0.7022  0.9493  0.2131
17744SOL     OW54999   7.689   4.568   4.657 -0.5116 -0.0853 -0.4253
17744SOL    HW155000   7.651   4.619   4.585 -1.5626 -2.1749 -1.4354
17744SOL    HW255001   7.678   4.477   4.631  0.7970 -0.8893  1.5591
17745SOL     OW55002   2.627   1.868   0.502 -0.3486 -0.1371 -0.1759
17745SOL    HW155003   2.714   1.873   0.462  0.2590 -1.5062  0.8807
17745SOL    HW255004   2.571   1.830   0.434  0.0732 -0.0253 -0.5856
17746SOL     OW55005   8.735   5.481   6.088  0.1114  0.0211  0.2514
17746SOL    HW155006   8.817   5.530   6.084  0.2921 -0.3782 -1.4205
17746SOL    HW255007   8.742   5.429   6.169  1.4659  0.0690  0.1811
17747SOL     OW55008   1.604   3.985   7.900 -0.0153 -0.1532 -0.4237
17747SOL    HW155009   1.556   3.930   7.962  0.9900 -0.5082  0.0576
17747SOL    HW255010   1.680   3.933   7.874  0.3637  0.5715 -0.8209
17748SOL     OW55011   8.129   6.937   8.565  0.2261 -0.4673 -0.2998
17748SOL    HW155012   8.081   6.885   8.629 -1.1683  0.1536 -0.7935
17748SOL    HW255013   8.215   6.951   8.604 -0.6871  0.1795  1.6121
17749SOL     OW55014   8.729   5.689   6.663  0.1630 -0.0335  0.6045
17749SOL    HW155015   8.644   5.715   6.700  0.0417  2.0800 -0.9605
17749SOL    HW255016   8.790   5.755   6.694  1.9390 -2.8466  3.7583
17750SOL     OW55017   6.210   8.822   5.181 -0.4011 -0.0852 -0.0418
17750SOL    HW155018   6.224   8.786   5.094 -0.9118  0.5992 -0.4191
17750SOL    HW255019   6.296   8.850   5.211 -0.2469 -0.1950 -0.3900
17751SOL     OW55020   8.940   7.456   7.762 -0.4215  0.1539  0.1193
17751SOL    HW155021   8.970   7.541   7.795 -1.5790  1.3412 -1.6623
17751SOL    HW255022   9.007   7.430   7.699 -1.4957  1.3485 -1.6384
17752SOL     OW55023   3.480   4.012   8.505  0.2418  0.4136  0.6655
17752SOL    HW155024   3.425   3.937   8.524 -0.8932  0.6574 -1.3105
17752SOL    HW255025   3.530   3.986   8.427 -1.2062  2.1313 -0.9273
17753SOL     OW55026   6.712   6.216   3.684  0.4784  0.1927  0.4192
17753SOL    HW155027   6.737   6.282   3.748  2.0159 -0.8797  0.9775
17753SOL    HW255028   6.793   6.199   3.635  0.2938 -1.6912  0.7071
17754SOL     OW55029   1.598   0.692   5.719  0.2100 -0.6220 -0.4806
17754SOL    HW155030   1.604   0.752   5.794  1.1924 -1.3265  0.0263
17754SOL    HW255031   1.689   0.675   5.694 -0.1005  0.3764 -2.5026
17755SOL     OW55032   2.296   7.540   0.379 -0.1291 -0.1989  0.5556
17755SOL    HW155033   2.268   7.556   0.289 -1.1647 -1.2812  0.6660
17755SOL    HW255034   2.289   7.625   0.422 -0.3673  0.1657 -0.1922
17756SOL     OW55035   0.932   1.148   4.423  0.1115 -0.0114  0.0493
17756SOL    HW155036   0.926   1.058   4.454  0.0804  0.9287  3.1162
17756SOL    HW255037   0.845   1.168   4.391 -0.0989 -0.8210  0.0928
17757SOL     OW55038   2.274   7.494   6.870  0.5938 -0.4395  0.0413
17757SOL    HW155039   2.269   7.559   6.801  0.6152 -1.1341 -0.6305
17757SOL    HW255040   2.340   7.432   6.840 -0.2936 -1.4330  0.0866
17758SOL     OW55041   8.944   5.647   9.484 -0.1793  0.6077  0.0265
17758SOL    HW155042   9.008   5.705   9.527  1.3945 -0.6092 -0.5675
17758SOL    HW255043   8.889   5.707   9.434 -0.3855  1.8163  1.6121
17759SOL     OW55044   7.870   1.574   4.997 -0.2555  0.0625 -0.5926
17759SOL    HW155045   7.897   1.558   5.087 -0.2838  0.9128 -0.4241
17759SOL    HW255046   7.876   1.489   4.955 -1.8266 -0.7022  0.6240
17760SOL     OW55047   8.319   4.511   1.499 -0.2027 -0.1394  0.0993
17760SOL    HW155048   8.343   4.556   1.580 -0.6378 -0.4152  0.3931
17760SOL    HW255049   8.391   4.527   1.439  0.3018 -0.2431  0.6702
17761SOL     OW55050   0.742   6.228   9.689 -0.2103  0.3921  0.1992
17761SOL    HW155051   0.761   6.135   9.683 -0.3290  0.4121 -0.4878
17761SOL    HW255052   0.648   6.233   9.708  0.1027  0.3389  1.9553
17762SOL     OW55053   8.345   5.189   4.422  0.2080 -0.2792  0.3001
17762SOL    HW155054   8.341   5.110   4.367 -1.9892  1.3851 -2.1784
17762SOL    HW255055   8.262   5.190   4.469  0.5343  0.1763  0.8728
17763SOL     OW55056   5.862   5.915   4.101 -0.3526 -0.0318  0.7338
17763SOL    HW155057   5.916   5.975   4.152  1.2304 -1.8951  1.3940
17763SOL    HW255058   5.923   5.878   4.037 -1.8801  0.9009 -1.3826
17764SOL     OW55059   0.786   2.920   6.868  0.0196  0.0629 -0.2996
17764SOL    HW155060   0.764   2.828   6.852 -2.1713  0.6960 -1.2223
17764SOL    HW255061   0.722   2.949   6.933  0.1073  1.1941 -0.7025
17765SOL     OW55062   4.549   3.386   3.056  0.0467  0.6148  0.3112
17765SOL    HW155063   4.636   3.421   3.040  0.4673 -0.1380  0.8786
17765SOL    HW255064   4.499   3.460   3.091  1.3518  0.3744  2.9587
17766SOL     OW55065   9.212   3.951   0.220  0.0214  0.1296  0.4060
17766SOL    HW155066   9.235   3.944   0.313 -0.3360  0.6634  0.5471
17766SOL    HW255067   9.292   3.980   0.177 -0.2600  1.6428  0.8371
17767SOL     OW55068   4.288   5.269   8.506 -0.2325 -0.1215 -0.0106
17767SOL    HW155069   4.303   5.346   8.560 -0.0370 -0.2717  0.1512
17767SOL    HW255070   4.269   5.199   8.568  0.1630 -0.3328 -0.1213
17768SOL     OW55071   7.754   4.062   3.725  0.4835  0.2521 -0.1483
17768SOL    HW155072   7.823   4.039   3.663  0.1976 -2.8191  0.5088
17768SOL    HW255073   7.793   4.129   3.780  2.2638 -0.0343 -0.9993
17769SOL     OW55074   9.204   2.537   7.184 -0.3689 -0.2249 -0.1986
17769SOL    HW155075   9.259   2.606   7.147  1.3888 -0.5249  1.7009
17769SOL    HW255076   9.115   2.573   7.182  0.4919  2.1446  0.7877
17770SOL     OW55077   8.303   0.702   0.965  0.0147  0.2500  0.2160
17770SOL    HW155078   8.296   0.785   1.014 -0.1081  0.6977 -0.5432
17770SOL    HW255079   8.212   0.674   0.955  0.0716 -0.1304  0.7103
17771SOL     OW55080   4.791   1.274   9.234 -0.6969  0.3919  0.3102
17771SOL    HW155081   4.751   1.204   9.181  0.3748 -0.6241  0.8080
17771SOL    HW255082   4.882   1.276   9.206 -0.4109  0.6956  1.2477
17772SOL     OW55083   6.113   8.253   1.802 -0.4047  0.0336  0.6185
17772SOL    HW155084   6.154   8.170   1.823 -0.1818 -0.5176 -1.7241
17772SOL    HW255085   6.039   8.260   1.863 -0.2690 -1.7588  1.0242
17773SOL     OW55086   0.481   4.786   5.872 -0.1128  0.2251 -0.3089
17773SOL    HW155087   0.569   4.756   5.897 -0.5177  0.0410  0.9526
17773SOL    HW255088   0.435   4.706   5.847 -0.7029 -0.0617  1.5404
17774SOL     OW55089   6.382   1.156   5.722  0.1134  0.8934 -0.0410
17774SOL    HW155090   6.465   1.110   5.718 -0.1241  0.5625 -2.6062
17774SOL    HW255091   6.329   1.103   5.782  0.9626 -0.2612 -0.2632
17775SOL     OW55092   9.046   6.601   4.476 -0.0132 -0.0495 -0.6679
17775SOL    HW155093   9.034   6.652   4.395 -1.1220  0.0692 -0.4463
17775SOL    HW255094   9.138   6.573   4.474  0.4236  1.3679 -1.1356
17776SOL     OW55095   5.839   3.062   8.204 -0.0918  0.5557 -0.4577
17776SOL    HW155096   5.882   3.045   8.288  0.2143 -0.4700 -0.8125
17776SOL    HW255097   5.765   3.119   8.227  0.9150  1.6235  0.2738
17777SOL     OW55098   3.235   4.785   2.888 -1.0228 -0.0348  0.0079
17777SOL    HW155099   3.265   4.868   2.850 -2.9762  1.2682  1.1723
17777SOL    HW255100   3.169   4.753   2.826 -0.2985 -0.7496 -0.4205
17778SOL     OW55101   1.548   1.732   2.919  0.3360  0.1748 -0.2809
17778SOL    HW155102   1.546   1.826   2.934  0.6914  0.4422 -1.7167
17778SOL    HW255103   1.638   1.715   2.889  0.3789 -0.6849  0.2954
17779SOL     OW55104   4.644   2.768   5.131 -0.2567 -0.0637  0.0432
17779SOL    HW155105   4.655   2.831   5.202 -1.3656  0.7916 -0.5118
17779SOL    HW255106   4.732   2.756   5.096  0.0563  0.7321  0.5290
17780SOL     OW55107   8.523   6.989   0.770 -0.3989  0.6619 -0.8512
17780SOL    HW155108   8.445   6.985   0.716  0.7139  1.2889 -2.6181
17780SOL    HW255109   8.549   7.082   0.768 -0.4541  0.7671  1.0195
17781SOL     OW55110   6.783   4.128   8.729  0.5975 -0.4070 -0.0206
17781SOL    HW155111   6.824   4.202   8.774 -1.4354 -0.1449  1.5395
17781SOL    HW255112   6.690   4.147   8.730  0.1511 -2.2492 -1.0136
17782SOL     OW55113   2.718   2.438   2.428 -0.2403 -0.4615 -0.1545
17782SOL    HW155114   2.804   2.454   2.466 -0.8029  2.4853  0.1369
17782SOL    HW255115   2.674   2.522   2.434 -3.0337 -1.7791 -0.6418
17783SOL     OW55116   2.774   5.991   2.540  0.5881  0.1668 -0.0206
17783SOL    HW155117   2.693   6.016   2.584 -0.0360 -0.4857 -0.7778
17783SOL    HW255118   2.806   6.071   2.500 -0.5052  0.1287 -1.0127
17784SOL     OW55119   0.044   8.902   4.924  0.3965  0.1407 -0.2293
17784SOL    HW155120   0.105   8.885   4.853  1.1408  0.2901  0.3669
17784SOL    HW255121   0.021   8.995   4.915 -0.1147 -0.0276 -0.7314
17785SOL     OW55122   3.427   5.300   8.358 -0.1000 -0.0271  0.7516
17785SOL    HW155123   3.517   5.303   8.389  0.6288  0.6999 -1.2651
17785SOL    HW255124   3.421   5.373   8.296 -1.5111 -1.1844 -0.5542
17786SOL     OW55125   1.883   7.685   0.911 -0.5561 -0.1161  0.2967
17786SOL    HW155126   1.857   7.754   0.850 -0.8881  0.7552  1.4119
17786SOL    HW255127   1.806   7.671   0.966 -0.1104 -0.5778  0.8126
17787SOL     OW55128   0.538   7.841   8.677 -0.2480 -0.4661 -0.4539
17787SOL    HW155129   0.540   7.829   8.772  1.2733  1.4371 -0.1896
17787SOL    HW255130   0.623   7.878   8.655  0.2695 -2.7875 -2.9006
17788SOL     OW55131   1.693   2.597   8.246  0.0055  0.5467  0.3537
17788SOL    HW155132   1.638   2.520   8.260 -0.6867  1.0197  0.2965
17788SOL    HW255133   1.697   2.639   8.332 -0.1117  0.7694  0.2492
17789SOL     OW55134   8.835   9.659   5.876 -0.3942  0.2519  0.2959
17789SOL    HW155135   8.921   9.625   5.897 -0.4672  0.7654  1.4736
17789SOL    HW255136   8.809   9.711   5.952 -2.9740 -2.2116  1.2987
17790SOL     OW55137   9.334   2.317   0.143 -0.2824  0.5409 -0.5026
17790SOL    HW155138   9.339   2.245   0.206 -1.3562 -0.0976 -1.1031
17790SOL    HW255139   9.271   2.378   0.180  0.6397  1.2057  0.0126
17791SOL     OW55140   6.147   8.380   6.209 -0.1543 -0.1166 -0.1484
17791SOL    HW155141   6.219   8.432   6.173  0.4019 -0.8560 -0.1188
17791SOL    HW255142   6.068   8.427   6.181  0.3004  0.0890 -1.1445
17792SOL     OW55143   7.033   9.185   1.935 -0.0307 -0.5498 -0.0764
17792SOL    HW155144   7.003   9.276   1.938  0.2367 -0.3422 -2.2902
17792SOL    HW255145   6.953   9.134   1.937 -0.1955 -0.2902  0.8420
17793SOL     OW55146   0.884   5.956   8.859 -0.3321 -0.3523 -0.3896
17793SOL    HW155147   0.880   5.866   8.829  0.2688 -0.3343 -0.5281
17793SOL    HW255148   0.905   5.949   8.952 -1.2405 -0.3801 -0.1801
17794SOL     OW55149   4.872   6.755   1.908  0.4317  0.5437 -1.1241
17794SOL    HW155150   4.924   6.696   1.853 -0.3952 -1.6301  0.2950
17794SOL    HW255151   4.781   6.729   1.892  0.1193  0.6120  0.3832
17795SOL     OW55152   3.090   1.928   2.047  0.3923  0.2482 -0.3926
17795SOL    HW155153   3.178   1.917   2.082  0.9614 -0.9514 -2.0621
17795SOL    HW255154   3.103   1.971   1.962 -0.3628 -1.7748 -1.6255
17796SOL     OW55155   9.025   4.317   8.390 -0.3095 -0.1199  0.3061
17796SOL    HW155156   9.032   4.227   8.357  2.6551  0.4231 -0.8942
17796SOL    HW255157   8.965   4.360   8.330 -1.0762 -1.0692  0.3653
17797SOL     OW55158   0.733   2.667   6.802 -0.3090 -0.3098 -0.2828
17797SOL    HW155159   0.724   2.618   6.884 -0.8703  0.3178  0.0450
17797SOL    HW255160   0.680   2.618   6.739  0.1637 -0.8228 -0.2859
17798SOL     OW55161   8.449   8.080   0.100 -0.1170 -0.0009  0.2844
17798SOL    HW155162   8.525   8.118   0.144  1.8543 -1.5699 -1.5483
17798SOL    HW255163   8.447   8.124   0.015 -1.5012  0.2277  0.4094
17799SOL     OW55164   7.708   8.961   7.945  0.1087 -0.6649  0.0046
17799SOL    HW155165   7.642   8.973   7.877 -0.8871 -0.2268  1.0131
17799SOL    HW255166   7.776   9.025   7.925  0.0663 -0.8753 -0.8399
17800SOL     OW55167   1.488   6.407   1.564  0.1259 -0.1993  0.0798
17800SOL    HW155168   1.413   6.463   1.584 -1.2157 -1.6051 -0.7983
17800SOL    HW255169   1.459   6.352   1.491  2.0241 -0.7937 -0.2995
17801SOL     OW55170   2.326   3.824   4.425  0.1983 -0.0479  0.5315
17801SOL    HW155171   2.270   3.896   4.398 -1.6533 -1.5140  0.2955
17801SOL    HW255172   2.272   3.771   4.483  1.4104 -1.4073  0.4903
17802SOL     OW55173   3.944   9.326   9.508 -0.3641  0.5148  0.0582
17802SOL    HW155174   3.894   9.308   9.429 -1.4903  1.4923  0.5035
17802SOL    HW255175   3.940   9.245   9.558  0.4835 -0.1586 -0.9234
17803SOL     OW55176   3.773   0.587   8.733 -0.5587 -0.0304  0.0203
17803SOL    HW155177   3.858   0.621   8.760 -0.4236  0.8980 -1.4475
17803SOL    HW255178   3.762   0.619   8.644 -1.1879 -2.4806 -0.8700
17804SOL     OW55179   0.700   8.121   1.858 -0.1892  0.1728 -0.3294
17804SOL    HW155180   0.748   8.043   1.831 -0.3632 -0.7274  1.7482
17804SOL    HW255181   0.698   8.177   1.780  1.9032 -0.8983 -1.2176
17805SOL     OW55182   8.421   0.097   1.013 -0.4383 -0.2905 -0.5390
17805SOL    HW155183   8.402   0.004   1.014  0.3977 -0.4802  1.2687
17805SOL    HW255184   8.435   0.120   1.104  1.2893  1.1875 -1.1062
17806SOL     OW55185   6.236   9.617   9.117 -0.2437 -0.2098 -0.1728
17806SOL    HW155186   6.161   9.579   9.071 -0.6930 -1.1541  1.2836
17806SOL    HW255187   6.311   9.565   9.086 -0.3818 -0.1486 -0.6187
17807SOL     OW55188   3.388   1.916   2.116 -0.4224  0.1948 -0.8191
17807SOL    HW155189   3.457   1.932   2.053 -0.9511  0.0452 -1.4451
17807SOL    HW255190   3.428   1.860   2.183  0.0768  0.1821 -1.1313
17808SOL     OW55191   7.541   6.573   2.702  0.3173 -0.0906 -0.0158
17808SOL    HW155192   7.613   6.522   2.742  1.4309  0.2269 -1.5380
17808SOL    HW255193   7.505   6.624   2.775  0.1867 -1.8647  1.2328
17809SOL     OW55194   7.164   0.351   4.437  0.3312  0.3321  0.1141
17809SOL    HW155195   7.121   0.289   4.378  0.8620  0.0100  0.0562
17809SOL    HW255196   7.094   0.411   4.464 -0.0396  0.1263 -0.3723
17810SOL     OW55197   6.543   9.160   3.863 -0.0971  0.0397  0.2341
17810SOL    HW155198   6.630   9.120   3.862 -0.4140 -0.6972  1.0667
17810SOL    HW255199   6.500   9.123   3.939 -1.1768  0.3411 -0.2049
17811SOL     OW55200   4.202   9.209   0.895 -0.5320 -0.2224  0.0513
17811SOL    HW155201   4.267   9.246   0.835  0.5658  0.5845  1.6305
17811SOL    HW255202   4.184   9.121   0.861  1.4411 -0.4903 -0.4279
17812SOL     OW55203   9.528   7.308   2.043 -0.0297 -0.6053  0.8779
17812SOL    HW155204   9.599   7.363   2.011  0.8411 -1.2954  1.5707
17812SOL    HW255205   9.491   7.358   2.117  0.4879 -0.7586  1.2439
17813SOL     OW55206   7.779   6.100   0.724 -0.0278 -0.4002  0.2592
17813SOL    HW155207   7.709   6.134   0.668  1.7654  1.1844 -1.1163
17813SOL    HW255208   7.763   6.141   0.809 -0.6331  0.1333 -0.1045
17814SOL     OW55209   1.914   9.469   2.608  0.1525  0.3233  0.2324
17814SOL    HW155210   1.905   9.545   2.551 -0.1594 -0.3337 -0.5965
17814SOL    HW255211   1.995   9.485   2.656  1.8174 -0.2805 -2.2097
17815SOL     OW55212   3.900   6.396   3.434 -0.3574  0.1982 -0.3372
17815SOL    HW155213   3.990   6.391   3.464 -0.1702 -0.1077 -0.9485
17815SOL    HW255214   3.856   6.449   3.501  0.3354  0.6018 -0.1930
17816SOL     OW55215   2.084   8.871   3.163 -0.1344 -0.6691 -0.2270
17816SOL    HW155216   2.168   8.915   3.173 -0.0585 -0.9860  0.6546
17816SOL    HW255217   2.019   8.939   3.178 -0.0503 -0.4103 -0.9683
17817SOL     OW55218   6.828   9.002   7.325  0.4779 -0.2146 -0.4959
17817SOL    HW155219   6.899   8.960   7.276  1.7627  1.3197 -0.0422
17817SOL    HW255220   6.870   9.076   7.369 -1.2817  0.3241  0.3681
17818SOL     OW55221   8.054   9.217   5.679  0.5161 -0.1662 -0.8644
17818SOL    HW155222   8.089   9.306   5.689 -0.0254 -0.1650  1.6382
17818SOL    HW255223   7.969   9.229   5.637  0.1656  0.5728  0.0438
17819SOL     OW55224   5.510   6.235   2.995  0.2986  0.1114  0.4379
17819SOL    HW155225   5.429   6.257   3.040 -0.0665 -0.8438  0.2634
17819SOL    HW255226   5.536   6.317   2.952 -0.7149  0.3671  0.2812
17820SOL     OW55227   2.668   0.920   7.083  0.6020  0.0082  0.1388
17820SOL    HW155228   2.729   0.985   7.118  1.9716  0.5233 -2.8907
17820SOL    HW255229   2.718   0.874   7.015 -0.4385 -4.0135  1.7979
17821SOL     OW55230   0.097   7.754   1.646 -0.1697 -0.2050 -0.1733
17821SOL    HW155231   0.134   7.790   1.565  1.0579  2.0878  1.3164
17821SOL    HW255232   0.005   7.736   1.625  0.4750 -1.1691 -2.4822
17822SOL     OW55233   8.441   5.289   1.454  0.4152 -0.4993 -0.4606
17822SOL    HW155234   8.376   5.257   1.391  0.3789  1.8935 -1.7532
17822SOL    HW255235   8.520   5.304   1.402  0.8813  0.0319  0.3791
17823SOL     OW55236   7.133   8.902   2.299  0.1544  0.2589  0.1283
17823SOL    HW155237   7.105   8.846   2.372  2.6401  1.0174  1.7838
17823SOL    HW255238   7.147   8.988   2.338  0.2359  1.0610 -1.5599
17824SOL     OW55239   2.037   7.039   4.500 -0.2033 -0.4890 -0.2880
17824SOL    HW155240   2.116   7.007   4.544 -0.3633  1.2397  1.4460
17824SOL    HW255241   1.970   6.975   4.522 -0.0640 -0.1317  1.3141
17825SOL     OW55242   0.983   3.545   7.879 -0.1582  0.4465  0.2990
17825SOL    HW155243   0.949   3.553   7.790  1.8703  0.3631 -0.5456
17825SOL    HW255244   0.976   3.633   7.916 -1.2687  0.4184  0.1837
17826SOL     OW55245   0.747   0.353   1.153 -0.1382  0.4884  0.0641
17826SOL    HW155246   0.760   0.436   1.198 -0.0869  0.8519 -0.6102
17826SOL    HW255247   0.826   0.341   1.100 -0.1144 -0.0237  0.2067
17827SOL     OW55248   2.209   0.725   4.233  0.1752  0.5036  0.3719
17827SOL    HW155249   2.129   0.775   4.218 -0.0404 -0.4775 -2.2282
17827SOL    HW255250   2.246   0.763   4.313 -1.4918  2.7602  0.1709
17828SOL     OW55251   3.938   9.163   7.031 -0.3404 -0.4127  0.2439
17828SOL    HW155252   3.865   9.225   7.030 -0.5729 -0.6625 -1.5946
17828SOL    HW255253   3.993   9.190   6.958 -0.1761 -2.0375 -0.2710
17829SOL     OW55254   6.720   0.235   1.364  0.0653  0.0076  0.4195
17829SOL    HW155255   6.678   0.272   1.286  2.1893  0.9998 -0.3120
17829SOL    HW255256   6.751   0.149   1.337  0.2684  0.1047  0.3398
17830SOL     OW55257   7.901   6.975   4.776  0.0735  0.2814  0.3686
17830SOL    HW155258   7.930   7.042   4.837  0.0695  0.8053 -0.1876
17830SOL    HW255259   7.819   7.010   4.740  0.4691  0.3424 -0.4962
17831SOL     OW55260   2.767   6.358   6.184 -0.2013 -0.0198  0.4498
17831SOL    HW155261   2.765   6.454   6.183 -0.1445  0.0198 -1.5545
17831SOL    HW255262   2.676   6.333   6.192 -0.1170  0.1603  2.2231
17832SOL     OW55263   8.461   1.141   9.727 -0.0702 -0.6538  0.2661
17832SOL    HW155264   8.434   1.224   9.767 -0.1859 -0.1063 -0.8913
17832SOL    HW255265   8.535   1.165   9.671 -1.4916 -0.8688 -1.8169
17833SOL     OW55266   3.022   3.121   3.574 -0.4811  0.3061  0.2199
17833SOL    HW155267   3.088   3.060   3.541 -1.0505  0.5552 -1.4906
17833SOL    HW255268   2.939   3.076   3.560 -0.7340  0.2538  1.7692
17834SOL     OW55269   1.415   6.009   7.600 -0.1069  0.9231 -0.0089
17834SOL    HW155270   1.435   6.045   7.514  3.2054 -0.1347  0.1749
17834SOL    HW255271   1.466   5.928   7.604 -1.4887  0.0796  2.3498
17835SOL     OW55272   1.732   9.546   3.869 -0.0728  0.2201 -0.2352
17835SOL    HW155273   1.798   9.538   3.938 -0.9000 -1.2598  0.4085
17835SOL    HW255274   1.691   9.631   3.885  0.7544  0.5545  0.1730
17836SOL     OW55275   2.628   3.902   3.229 -0.4725 -0.6458  0.4572
17836SOL    HW155276   2.722   3.891   3.219 -0.6550 -1.1209 -1.1121
17836SOL    HW255277   2.611   3.887   3.322  0.7945 -2.2335  0.4704
17837SOL     OW55278   0.156   4.595   7.060 -0.0510  0.4576  0.3294
17837SOL    HW155279   0.101   4.518   7.070 -0.9438  0.8832 -0.9690
17837SOL    HW255280   0.099   4.659   7.016  0.7509  1.7574  1.1096
17838SOL     OW55281   3.034   5.458   7.559 -0.6445  0.3379  0.3589
17838SOL    HW155282   2.940   5.447   7.575 -0.8933 -0.7712 -1.6696
17838SOL    HW255283   3.040   5.494   7.471  0.8564  0.9051  0.6515
17839SOL     OW55284   9.623   4.286   4.853 -0.2578 -0.2081 -0.6137
17839SOL    HW155285   9.603   4.210   4.907  1.0790 -0.9889 -1.1683
17839SOL    HW255286   9.658   4.249   4.771  0.7425  0.9884 -0.7544
17840SOL     OW55287   1.790   0.016   4.348  0.6379 -0.9906  0.2776
17840SOL    HW155288   1.749  -0.070   4.355 -2.9124  0.2581 -1.9972
17840SOL    HW255289   1.799   0.046   4.438 -1.1539 -2.4624  1.0230
17841SOL     OW55290   6.025   8.186   3.393 -0.1726 -0.7547  0.2548
17841SOL    HW155291   6.091   8.238   3.348 -0.4830 -1.2856 -0.8478
17841SOL    HW255292   6.056   8.181   3.484  0.1378  0.8507  0.2520
17842SOL     OW55293   5.455   4.493   6.012  0.3787  0.1490 -0.4016
17842SOL    HW155294   5.525   4.544   6.052  0.4033 -0.4426  0.3335
17842SOL    HW255295   5.384   4.556   5.999  1.1336  0.8168 -1.4240
17843SOL     OW55296   0.465   6.737   6.413  0.0530 -0.2013  0.4469
17843SOL    HW155297   0.465   6.678   6.338 -2.4466 -0.3696  0.4860
17843SOL    HW255298   0.406   6.808   6.387  1.5697  1.3770  1.0968
17844SOL     OW55299   7.039   2.573   3.974 -0.5258  0.6861 -0.1770
17844SOL    HW155300   6.974   2.621   3.924  0.4339  2.9388  0.6195
17844SOL    HW255301   6.990   2.535   4.047 -1.4101 -0.1459 -1.1686
17845SOL     OW55302   1.011   4.294   1.942  0.4197  0.0347 -0.2182
17845SOL    HW155303   0.950   4.220   1.939 -0.2673  0.5628  0.4751
17845SOL    HW255304   1.072   4.272   2.012  0.1092  0.2011  0.1065
17846SOL     OW55305   7.909   2.098   2.372 -0.9664 -0.0683 -0.3243
17846SOL    HW155306   7.884   2.145   2.293 -0.8756  1.4253  0.5000
17846SOL    HW255307   7.827   2.088   2.421 -0.4737  2.9334  1.3795
17847SOL     OW55308   2.352   4.374   2.474  0.1529  0.4852  0.0051
17847SOL    HW155309   2.437   4.358   2.431  0.4343 -0.7523  0.9681
17847SOL    HW255310   2.314   4.446   2.424  2.5748  2.3801  0.6801
17848SOL     OW55311   6.322   9.058   0.420  0.6931  0.0572  0.0807
17848SOL    HW155312   6.233   9.075   0.451  0.6971  1.1485 -0.4513
17848SOL    HW255313   6.373   9.041   0.499  0.1681  0.2049  0.4549
17849SOL     OW55314   7.012   8.104   5.929 -0.3870 -0.1208 -0.1708
17849SOL    HW155315   6.952   8.174   5.902 -1.6005 -1.2372 -0.5033
17849SOL    HW255316   6.989   8.030   5.872  2.2520 -0.2119 -1.2573
17850SOL     OW55317   2.299   5.889   0.973  0.6315  0.1397  0.6077
17850SOL    HW155318   2.355   5.888   1.050  1.0980  0.0486  0.2671
17850SOL    HW255319   2.239   5.816   0.987 -2.6165  2.9523  3.3008
17851SOL     OW55320   0.652   4.978   8.095  0.2447 -0.8651  0.6166
17851SOL    HW155321   0.565   4.990   8.133 -0.4826  0.3393 -1.3029
17851SOL    HW255322   0.677   5.065   8.064  2.1734 -1.1818  1.1409
17852SOL     OW55323   9.354   4.805   6.080 -0.6215  0.0385 -0.0870
17852SOL    HW155324   9.413   4.731   6.063  0.9406  1.4928 -1.4234
17852SOL    HW255325   9.319   4.828   5.993 -1.0847  0.8567  0.3091
17853SOL     OW55326   8.087   5.612   8.742  0.9426 -0.7003 -0.2470
17853SOL    HW155327   8.058   5.703   8.735 -0.1497 -1.0776 -0.9663
17853SOL    HW255328   8.170   5.609   8.695 -0.0443 -0.4923 -2.0944
17854SOL     OW55329   1.177   4.825   9.159 -0.3309  0.0725 -0.1860
17854SOL    HW155330   1.090   4.789   9.173 -0.7637  1.4905  0.9442
17854SOL    HW255331   1.214   4.771   9.088 -2.0925 -0.5601 -0.6709
17855SOL     OW55332   3.735   7.524   4.205  0.1766  0.2091  0.1044
17855SOL    HW155333   3.792   7.588   4.162 -1.1056  0.4082 -1.4032
17855SOL    HW255334   3.752   7.535   4.298  2.5128  0.3017 -0.2823
17856SOL     OW55335   3.531   4.466   5.971  0.0573 -0.2252  0.0758
17856SOL    HW155336   3.572   4.437   5.889  1.2273  0.4312  0.4027
17856SOL    HW255337   3.437   4.454   5.956  0.2326 -0.0183 -1.4049
17857SOL     OW55338   9.718   3.582   6.147  0.3604  0.6564  0.4969
17857SOL    HW155339   9.735   3.611   6.057 -1.3502 -2.4553 -0.9837
17857SOL    HW255340   9.636   3.626   6.171  0.3001  0.7498  0.1300
17858SOL     OW55341   3.202   7.573   8.191  0.1350  0.0246 -0.0336
17858SOL    HW155342   3.148   7.638   8.236  0.2920 -1.0994  1.8993
17858SOL    HW255343   3.263   7.542   8.258  0.4316 -1.7058 -1.0415
17859SOL     OW55344   1.627   4.897   1.675  0.4506 -0.6148 -0.6757
17859SOL    HW155345   1.687   4.869   1.605 -0.6224  1.8281 -2.7280
17859SOL    HW255346   1.541   4.866   1.647  0.1531 -0.5342  0.1309
17860SOL     OW55347   9.179   9.071   2.205  0.2381 -0.4548 -0.6423
17860SOL    HW155348   9.111   9.005   2.221  0.7995 -1.5193 -2.3082
17860SOL    HW255349   9.253   9.020   2.172  0.5933  1.0223 -2.2507
17861SOL     OW55350   2.282   6.265   1.642 -0.3955  0.4961  0.3692
17861SOL    HW155351   2.365   6.306   1.666  1.2181 -2.0215 -0.5716
17861SOL    HW255352   2.256   6.215   1.719  0.9759 -1.6829 -0.4889
17862SOL     OW55353   5.285   1.816   3.659 -0.3597 -0.5702  0.1698
17862SOL    HW155354   5.225   1.891   3.651 -1.6065 -1.6247 -0.8366
17862SOL    HW255355   5.305   1.792   3.568 -0.1171 -1.5633  0.4749
17863SOL     OW55356   3.454   8.917   5.908 -0.0195 -0.3936  0.3551
17863SOL    HW155357   3.400   8.967   5.847  1.2801 -0.4955 -0.9272
17863SOL    HW255358   3.491   8.846   5.856  0.4994 -0.9715  1.4574
17864SOL     OW55359   9.753   9.131   4.227  0.0088  0.7528 -0.1563
17864SOL    HW155360   9.787   9.220   4.232 -0.3272  0.8068  2.8993
17864SOL    HW255361   9.720   9.112   4.315 -2.4773 -1.4182 -1.4047
17865SOL     OW55362   3.669   8.803   0.249  0.3696 -0.4647  0.0377
17865SOL    HW155363   3.712   8.758   0.176 -0.5433 -1.1834 -0.0840
17865SOL    HW255364   3.732   8.868   0.279  0.4852  0.3457 -1.8533
17866SOL     OW55365   5.558   3.965   9.276 -0.7140 -0.0669 -0.2092
17866SOL    HW155366   5.484   4.024   9.266 -0.4220  0.3422 -0.0024
17866SOL    HW255367   5.520   3.883   9.306 -1.0284  0.2864  0.3639
17867SOL     OW55368   2.062   5.674   9.577  0.2489 -0.1500 -0.0124
17867SOL    HW155369   2.012   5.684   9.497  0.0497  1.0774  0.2457
17867SOL    HW255370   1.997   5.673   9.647  0.4802 -0.2732  0.2061
17868SOL     OW55371   0.445   1.012   8.568 -0.0281 -0.0172 -0.3030
17868SOL    HW155372   0.519   1.055   8.609  1.7760 -1.7284 -1.6020
17868SOL    HW255373   0.449   0.922   8.601 -1.1953 -0.2887 -0.8512
17869SOL     OW55374   2.914   3.827   5.362 -0.1007  0.1303  0.1281
17869SOL    HW155375   2.882   3.764   5.299 -1.2103  1.3348 -0.5605
17869SOL    HW255376   2.995   3.861   5.323  0.9554 -1.4008  0.8848
17870SOL     OW55377   7.424   0.213   0.657 -0.5103  0.0930  0.4788
17870SOL    HW155378   7.382   0.292   0.690  1.6172  2.3495 -1.8242
17870SOL    HW255379   7.362   0.176   0.595 -2.1408 -0.9955  2.6423
17871SOL     OW55380   2.950   6.561   9.318 -0.2857 -0.1233 -0.8571
17871SOL    HW155381   3.019   6.505   9.282 -0.4949  0.8858 -2.9989
17871SOL    HW255382   2.883   6.563   9.249 -0.9242  1.6128 -0.2464
17872SOL     OW55383   7.453   1.597   6.843 -0.0725  0.6905  0.0237
17872SOL    HW155384   7.445   1.686   6.878  2.2524  0.9991 -0.0289
17872SOL    HW255385   7.448   1.540   6.919  4.6162  1.3308  1.1542
17873SOL     OW55386   3.068   3.599   0.895 -0.0481  0.1272  0.0847
17873SOL    HW155387   3.097   3.587   0.805 -0.1565  0.0863  0.0550
17873SOL    HW255388   3.132   3.658   0.933  0.6310 -0.7301  0.3035
17874SOL     OW55389   8.245   9.633   0.888 -0.3602 -0.0449  0.2796
17874SOL    HW155390   8.184   9.578   0.939 -0.3647  0.5968  0.9829
17874SOL    HW255391   8.192   9.708   0.860 -0.4972 -0.6425 -1.1415
17875SOL     OW55392   7.048   7.037   9.669 -0.5612  0.2426  0.3316
17875SOL    HW155393   7.014   7.019   9.756 -1.6560  1.0646  0.0931
17875SOL    HW255394   6.997   6.980   9.611 -1.5846  1.4755 -0.0254
17876SOL     OW55395   9.115   9.075   3.931  0.1349 -0.7668 -0.5705
17876SOL    HW155396   9.141   9.032   3.849 -0.7928 -0.5444 -0.9926
17876SOL    HW255397   9.064   9.151   3.903 -1.2415 -1.3662  0.2056
17877SOL     OW55398   2.826   5.392   5.826 -0.1598 -0.0518  0.6087
17877SOL    HW155399   2.899   5.339   5.791 -0.8033 -1.1857  0.9209
17877SOL    HW255400   2.814   5.359   5.916 -0.4078  0.8244  0.9073
17878SOL     OW55401   4.032   9.289   5.605  0.1995 -0.2647 -0.0198
17878SOL    HW155402   4.126   9.271   5.607  0.2383 -0.0562  1.2714
17878SOL    HW255403   4.008   9.299   5.698 -0.5752  2.4407 -0.4225
17879SOL     OW55404   5.234   1.587   6.588  0.3833 -0.1798 -0.2004
17879SOL    HW155405   5.299   1.647   6.625  0.2444 -1.2849  1.9464
17879SOL    HW255406   5.153   1.637   6.587  0.7233  0.3859 -0.5841
17880SOL     OW55407   0.807   0.325   2.649 -0.5908 -0.5218  0.2426
17880SOL    HW155408   0.772   0.413   2.666  1.3377  0.5206 -0.8178
17880SOL    HW255409   0.785   0.307   2.557  3.2616  1.1388 -1.2295
17881SOL     OW55410   9.717   0.448   3.821 -0.2898  0.2201 -0.2924
17881SOL    HW155411   9.812   0.438   3.822 -0.1088  1.5456 -0.9841
17881SOL    HW255412   9.683   0.360   3.833  1.0320 -0.5312 -1.7204
17882SOL     OW55413   7.353   7.230   2.883  0.4861 -0.3896 -0.0000
17882SOL    HW155414   7.444   7.261   2.882  0.2121  0.4670 -1.4228
17882SOL    HW255415   7.350   7.162   2.816  0.3131 -1.1904  0.8090
17883SOL     OW55416   1.343   6.777   6.569 -0.5017  0.0106  0.1977
17883SOL    HW155417   1.306   6.862   6.543 -1.7701 -1.4564 -3.4001
17883SOL    HW255418   1.278   6.713   6.541  1.4939 -2.2959  0.5193
17884SOL     OW55419   0.841   0.763   8.733  0.4457 -0.5078 -0.2799
17884SOL    HW155420   0.843   0.709   8.812  0.9146 -1.6314 -1.0209
17884SOL    HW255421   0.859   0.852   8.763 -1.8823 -0.4563  1.1943
17885SOL     OW55422   5.645   1.100   9.375  0.1148 -0.1086  0.1858
17885SOL    HW155423   5.586   1.133   9.308 -1.0343 -2.7052 -0.2219
17885SOL    HW255424   5.593   1.103   9.456  0.7255  0.9566  0.5538
17886SOL     OW55425   0.930   3.195   9.542  0.4566  0.3663  0.2639
17886SOL    HW155426   0.961   3.152   9.622  1.0847  1.2485  0.5105
17886SOL    HW255427   0.942   3.129   9.474 -1.1059 -0.7990  1.0397
17887SOL     OW55428   4.549   1.193   3.306  0.0596  0.3284  0.0643
17887SOL    HW155429   4.583   1.137   3.375  0.4175 -1.3954 -1.4509
17887SOL    HW255430   4.624   1.213   3.250 -0.4231  0.7906 -0.4455
17888SOL     OW55431   9.273   2.271   1.431  0.0950  0.2715 -0.5427
17888SOL    HW155432   9.315   2.186   1.423  1.6350  1.0404 -1.0555
17888SOL    HW255433   9.331   2.321   1.489 -0.8736  0.9257 -0.1012
17889SOL     OW55434   7.512   9.844   9.221  0.0544  0.3522  0.2100
17889SOL    HW155435   7.445   9.910   9.242 -0.7123 -0.5974  0.8444
17889SOL    HW255436   7.507   9.834   9.126 -0.9720  0.0358  0.2861
17890SOL     OW55437   2.528   6.110   6.536 -0.5607  0.4975  0.0110
17890SOL    HW155438   2.520   6.161   6.455 -0.5784  0.0796 -0.2556
17890SOL    HW255439   2.601   6.151   6.582 -0.0786  0.2960 -0.5560
17891SOL     OW55440   9.263   8.125   9.325 -0.1858 -0.6704  0.6808
17891SOL    HW155441   9.175   8.114   9.361 -0.9151 -0.8479 -1.0530
17891SOL    HW255442   9.267   8.063   9.252  0.5259  0.9446 -0.7182
17892SOL     OW55443   8.556   5.369   3.853 -0.1171  0.5521  0.2142
17892SOL    HW155444   8.498   5.359   3.778  0.3733  0.5632 -0.1721
17892SOL    HW255445   8.566   5.464   3.862 -1.0898  0.5928  1.0142
17893SOL     OW55446   0.465   6.028   8.838  0.2406 -0.2474 -0.5662
17893SOL    HW155447   0.493   5.949   8.791 -0.1281 -1.3571  1.0265
17893SOL    HW255448   0.525   6.096   8.807  0.5085 -1.1046 -2.0403
17894SOL     OW55449   8.146   5.014   2.576  0.0364 -0.1888  0.5150
17894SOL    HW155450   8.138   5.011   2.480 -0.5409  1.0950  0.4963
17894SOL    HW255451   8.056   5.029   2.606 -0.0139 -2.0239  1.3573
17895SOL     OW55452   5.513   1.917   0.751  0.2881 -0.4184  0.1904
17895SOL    HW155453   5.522   1.911   0.656 -0.3139 -0.9308  0.1566
17895SOL    HW255454   5.572   1.987   0.777  0.1181  0.0328 -0.6161
17896SOL     OW55455   3.641   8.107   5.335 -0.4712 -0.6268 -0.0184
17896SOL    HW155456   3.628   8.022   5.293 -0.5028 -0.9836  0.7044
17896SOL    HW255457   3.612   8.171   5.269  0.4370 -1.1261 -0.9230
17897SOL     OW55458   5.930   6.693   6.079 -0.0333  0.4484  0.3354
17897SOL    HW155459   6.006   6.687   6.138  0.2884 -0.2959 -0.1363
17897SOL    HW255460   5.964   6.735   6.000  0.6448 -2.3342 -0.9925
17898SOL     OW55461   5.652   6.022   5.993 -0.3487 -0.5782  0.4389
17898SOL    HW155462   5.689   6.102   5.956 -0.3943 -0.3751  0.8290
17898SOL    HW255463   5.673   6.026   6.086  0.8225 -1.6720  0.2535
17899SOL     OW55464   2.416   8.102   3.110 -0.0106  0.0333 -0.2611
17899SOL    HW155465   2.416   8.160   3.187  0.4932  0.4243 -0.5503
17899SOL    HW255466   2.490   8.132   3.058  0.5249 -1.1585 -0.2136
17900SOL     OW55467   9.385   7.995   9.728  0.3305  0.0103 -0.3684
17900SOL    HW155468   9.325   8.066   9.749  0.7093 -0.2409  1.8042
17900SOL    HW255469   9.468   8.020   9.769  1.0698 -0.7523 -1.3107
17901SOL     OW55470   8.739   4.702   9.216 -0.7015 -0.1542 -0.2732
17901SOL    HW155471   8.744   4.779   9.158 -1.5917  0.1252 -0.0019
17901SOL    HW255472   8.812   4.647   9.188  0.3266  1.0546 -0.0834
17902SOL     OW55473   0.930   9.326   6.036 -0.3547 -0.1372  0.2388
17902SOL    HW155474   0.890   9.303   5.952 -0.1833  0.1669  0.0713
17902SOL    HW255475   0.859   9.317   6.099 -0.0025 -2.3714  0.4028
17903SOL     OW55476   1.365   7.508   6.314 -0.1583  0.4276 -0.5289
17903SOL    HW155477   1.324   7.542   6.394  0.3399  1.5345 -0.7169
17903SOL    HW255478   1.448   7.469   6.344  1.0144  2.6323 -0.6747
17904SOL     OW55479   6.811   1.386   3.055 -0.4845  0.1482 -0.3993
17904SOL    HW155480   6.720   1.414   3.065 -0.7379 -0.0257 -1.8681
17904SOL    HW255481   6.854   1.461   3.015  0.0292  0.2378  0.3195
17905SOL     OW55482   6.417   3.468   1.616 -0.3682 -0.1617 -0.1135
17905SOL    HW155483   6.443   3.394   1.671  1.3873  2.5825  3.0916
17905SOL    HW255484   6.339   3.503   1.658 -0.6028  0.4071 -1.0005
17906SOL     OW55485   4.287   0.802   3.816  0.4366  0.1678  0.0764
17906SOL    HW155486   4.360   0.767   3.866  0.4813 -0.8965 -0.6972
17906SOL    HW255487   4.275   0.891   3.850  1.0308 -0.2071  1.3286
17907SOL     OW55488   7.812   3.705   3.875  0.3133  0.4549  0.3242
17907SOL    HW155489   7.875   3.775   3.858 -3.7865  4.0725 -2.1620
17907SOL    HW255490   7.819   3.647   3.799  0.2372  1.2298 -0.2907
17908SOL     OW55491   4.100   6.604   8.499  0.3610 -0.4930 -0.1002
17908SOL    HW155492   4.013   6.599   8.537  0.7858 -0.2021  0.9341
17908SOL    HW255493   4.093   6.557   8.416 -1.0957  0.6114 -0.6302
17909SOL     OW55494   3.201   0.336   0.683 -0.3546 -0.5168 -0.9137
17909SOL    HW155495   3.115   0.372   0.707 -0.2436 -0.7291 -0.1976
17909SOL    HW255496   3.184   0.287   0.602 -0.6901  0.3613 -1.3942
17910SOL     OW55497   0.178   2.468   1.885 -0.1568  0.1675 -0.0091
17910SOL    HW155498   0.260   2.434   1.850 -1.5886 -2.9777 -0.6918
17910SOL    HW255499   0.117   2.463   1.811 -1.7521 -0.8209  1.3065
17911SOL     OW55500   7.934   8.043   4.252  0.4722 -0.4885 -0.2656
17911SOL    HW155501   7.936   8.056   4.347  0.0809  0.3396 -0.3635
17911SOL    HW255502   7.974   8.122   4.217  1.2128 -1.0735 -0.7789
17912SOL     OW55503   8.425   0.872   2.044 -0.3363 -0.1081  0.1828
17912SOL    HW155504   8.492   0.825   2.092 -1.3493 -0.2286  1.5522
17912SOL    HW255505   8.462   0.959   2.029 -1.2390  1.3340  4.6151
17913SOL     OW55506   5.737   7.404   6.955 -0.2924  0.2804 -0.6664
17913SOL    HW155507   5.746   7.341   7.027 -3.1740 -0.6115 -0.9502
17913SOL    HW255508   5.825   7.410   6.918  0.9874 -0.3352  1.9783
17914SOL     OW55509   6.694   7.980   7.601 -0.2282  0.1730  0.0986
17914SOL    HW155510   6.747   7.904   7.578 -0.2400  0.4458 -0.8852
17914SOL    HW255511   6.712   7.995   7.694 -0.8197 -1.4953  0.5231
17915SOL     OW55512   8.037   2.640   8.709  0.0791  0.3804  0.4369
17915SOL    HW155513   8.127   2.657   8.682  0.0535  1.2126  0.8491
17915SOL    HW255514   8.013   2.559   8.664  0.9337  0.3107  0.0983
17916SOL     OW55515   1.786   6.805   2.011 -0.2614 -0.3565  0.2469
17916SOL    HW155516   1.870   6.846   1.993 -0.7231 -0.1171 -1.5867
17916SOL    HW255517   1.806   6.712   2.020  0.3372 -0.1634  1.0657
17917SOL     OW55518   4.479   3.393   2.412 -0.2382  0.0415 -0.3063
17917SOL    HW155519   4.517   3.407   2.325 -0.5105  2.6508 -0.0688
17917SOL    HW255520   4.386   3.412   2.401 -0.5834 -1.1857  0.2574
17918SOL     OW55521   4.769   8.408   5.149 -0.0747  0.4380 -0.2905
17918SOL    HW155522   4.692   8.353   5.163 -0.1109  1.1101  2.7098
17918SOL    HW255523   4.838   8.367   5.202  0.8283  1.4407 -0.6466
17919SOL     OW55524   6.823   9.249   8.042 -0.1800  0.3829  0.1782
17919SOL    HW155525   6.882   9.323   8.026 -0.4082  0.2289 -1.5621
17919SOL    HW255526   6.737   9.281   8.014 -0.2746 -0.5249 -0.6117
17920SOL     OW55527   7.876   1.060   3.927 -0.5629 -0.6069 -0.1433
17920SOL    HW155528   7.914   1.085   4.011 -1.0236 -1.5152  0.3500
17920SOL    HW255529   7.948   1.069   3.865 -0.6382  1.7138  0.0125
17921SOL     OW55530   1.442   0.867   8.643  0.2337  0.0064 -0.1952
17921SOL    HW155531   1.391   0.914   8.578 -1.2344 -0.1067  0.8322
17921SOL    HW255532   1.435   0.775   8.617 -0.6617 -0.0766  0.3108
17922SOL     OW55533   1.465   1.749   8.710  0.3975  0.0886 -0.5163
17922SOL    HW155534   1.527   1.804   8.759 -0.0581  0.6476 -0.5579
17922SOL    HW255535   1.413   1.706   8.778  1.4737 -1.1752 -0.4452
17923SOL     OW55536   4.212   8.545   7.275  0.3117 -0.2990 -0.2758
17923SOL    HW155537   4.215   8.531   7.181  0.0219  1.2183 -0.5344
17923SOL    HW255538   4.292   8.594   7.294  0.5975 -0.9825  0.3563
17924SOL     OW55539   1.950   7.837   2.029  0.2310 -0.7499 -0.0307
17924SOL    HW155540   1.891   7.780   1.981 -0.9703 -0.2060  0.7405
17924SOL    HW255541   1.906   7.853   2.113  0.7336  0.9216 -0.0348
17925SOL     OW55542   2.906   0.985   0.260  0.1250  0.1099 -0.2964
17925SOL    HW155543   2.870   0.905   0.220 -1.9329  1.4724 -1.3764
17925SOL    HW255544   2.829   1.028   0.299  1.0345  1.9272 -0.4220
17926SOL     OW55545   0.611   1.798   8.982 -0.0856 -0.5750 -0.3066
17926SOL    HW155546   0.638   1.881   9.020  0.2106 -0.2351 -1.2369
17926SOL    HW255547   0.563   1.822   8.903  0.8630 -1.3129 -1.1201
17927SOL     OW55548   3.822   1.295   3.525 -0.1651 -0.2051 -0.1541
17927SOL    HW155549   3.795   1.209   3.492  0.3698 -0.2039 -0.6062
17927SOL    HW255550   3.755   1.355   3.493  0.0020 -0.3029 -0.7041
17928SOL     OW55551   6.010   6.183   5.473  0.4744  0.4331 -0.2943
17928SOL    HW155552   6.086   6.181   5.415  0.9764 -0.1579  0.3724
17928SOL    HW255553   6.045   6.163   5.560 -0.3841  0.5424  0.0896
17929SOL     OW55554   1.606   8.106   1.298  0.2064 -0.4020  0.4952
17929SOL    HW155555   1.643   8.023   1.328  0.1977 -0.1282  1.3066
17929SOL    HW255556   1.624   8.109   1.204  1.0554 -0.8821  0.6396
17930SOL     OW55557   7.289   1.459   1.001  0.3968 -0.4190  0.4823
17930SOL    HW155558   7.324   1.495   0.919 -0.2714 -1.2897 -0.2013
17930SOL    HW255559   7.240   1.532   1.040  1.5631  0.3152  0.6346
17931SOL     OW55560   4.081   0.776   4.990  0.3828 -0.3363 -0.3375
17931SOL    HW155561   4.113   0.860   4.957  1.5743 -0.8393 -0.5098
17931SOL    HW255562   4.155   0.716   4.980  0.0340 -1.0705  1.1226
17932SOL     OW55563   1.993   3.686   5.397  0.4251 -0.2669 -0.7859
17932SOL    HW155564   2.071   3.707   5.448  0.7296 -1.7065 -0.6261
17932SOL    HW255565   2.024   3.681   5.306  0.3759 -0.1707 -0.8086
17933SOL     OW55566   8.283   8.902   7.267 -0.3533  0.2831 -0.3448
17933SOL    HW155567   8.327   8.818   7.283  0.0154  0.6510  0.6255
17933SOL    HW255568   8.343   8.950   7.210  0.2547  0.5595  0.5120
17934SOL     OW55569   2.477   0.617   6.587 -0.4158  0.6874 -0.5411
17934SOL    HW155570   2.403   0.633   6.529  0.6832  2.2675 -1.5846
17934SOL    HW255571   2.448   0.650   6.672 -0.7669  1.7509 -1.0524
17935SOL     OW55572   3.534   4.381   5.209 -0.4607 -0.2394 -0.0251
17935SOL    HW155573   3.445   4.362   5.239  0.6250 -1.7304  2.6958
17935SOL    HW255574   3.555   4.309   5.150 -0.4328 -1.0623  0.9459
17936SOL     OW55575   0.939   8.045   6.163 -0.1522  0.3184  0.1315
17936SOL    HW155576   0.916   8.100   6.238 -0.7165  0.0472  0.1640
17936SOL    HW255577   1.032   8.026   6.175 -0.4112 -0.4234  1.2458
17937SOL     OW55578   1.696   6.413   3.644 -0.0846  0.6344 -0.2967
17937SOL    HW155579   1.610   6.374   3.629  0.6545 -1.3558  0.3114
17937SOL    HW255580   1.757   6.354   3.601  1.2459  0.0428  2.2366
17938SOL     OW55581   2.278   5.237   1.058  0.1721  0.9102  0.3698
17938SOL    HW155582   2.257   5.145   1.072  2.1994  0.5135  1.1908
17938SOL    HW255583   2.204   5.271   1.008 -0.7355 -1.0942  0.2408
17939SOL     OW55584   9.011   4.044   0.472 -0.0974  0.2741 -0.2818
17939SOL    HW155585   9.002   4.125   0.422 -1.1695  0.7125  0.5717
17939SOL    HW255586   9.094   4.006   0.442  0.7740  2.0298 -0.2209
17940SOL     OW55587   2.478   5.584   6.112  0.0548  0.2211 -0.3376
17940SOL    HW155588   2.497   5.521   6.043  0.6046 -0.4147  0.3736
17940SOL    HW255589   2.560   5.633   6.123  0.3083 -0.3655  0.5404
17941SOL     OW55590   3.160   8.198   9.389 -0.2061 -0.6284  0.4516
17941SOL    HW155591   3.205   8.280   9.410 -1.4965  0.2165  0.0273
17941SOL    HW255592   3.219   8.129   9.421  1.8636  0.3690 -1.0145
17942SOL     OW55593   6.139   0.840   6.848  0.0824  0.4789 -0.4736
17942SOL    HW155594   6.069   0.827   6.784 -1.2484 -1.1876  1.2032
17942SOL    HW255595   6.204   0.774   6.826 -0.0267  0.3995 -0.5590
17943SOL     OW55596   9.407   7.359   0.763 -0.0341  0.0542 -0.3335
17943SOL    HW155597   9.384   7.446   0.731  0.6351  0.0463 -0.8497
17943SOL    HW255598   9.403   7.303   0.686 -1.8167 -0.6761  0.2253
17944SOL     OW55599   2.025   9.364   1.356 -0.6174  0.3752  0.1712
17944SOL    HW155600   1.975   9.445   1.363 -2.0568 -0.3076 -1.4058
17944SOL    HW255601   2.030   9.347   1.262  1.3934 -0.3494  0.3562
17945SOL     OW55602   8.623   3.593   9.766 -0.0532 -0.0376  0.4839
17945SOL    HW155603   8.528   3.602   9.761 -0.1232 -0.4832  0.9024
17945SOL    HW255604   8.653   3.597   9.675 -0.2231  2.4576  0.4811
17946SOL     OW55605   5.089   5.678   5.354 -0.2642 -0.3730 -0.7789
17946SOL    HW155606   5.165   5.700   5.300 -0.9087 -1.5211 -2.2165
17946SOL    HW255607   5.113   5.596   5.397 -0.2310 -0.1038 -0.2792
17947SOL     OW55608   3.698   4.723   9.108 -0.3348 -0.0344 -0.4279
17947SOL    HW155609   3.769   4.785   9.090  1.5981 -1.6506  1.0965
17947SOL    HW255610   3.619   4.777   9.110  1.0115  2.0723 -0.9113
17948SOL     OW55611   6.020   0.523   7.747 -0.6031 -0.1528 -0.0269
17948SOL    HW155612   6.088   0.500   7.683 -2.5401 -1.9517 -1.5967
17948SOL    HW255613   6.036   0.615   7.767  2.6478 -0.6370  0.1977
17949SOL     OW55614   1.512   4.296   9.151 -0.1592 -0.5528  0.6485
17949SOL    HW155615   1.475   4.251   9.075  1.0078 -0.1058 -0.2186
17949SOL    HW255616   1.485   4.243   9.226 -4.5259  0.9528  0.4108
17950SOL     OW55617   1.080   9.130   3.485 -0.4816  0.7661 -0.0093
17950SOL    HW155618   0.995   9.156   3.519 -0.0296  1.5269  0.5557
17950SOL    HW255619   1.140   9.141   3.559 -0.1837 -1.5218  0.1691
17951SOL     OW55620   7.605   7.965   1.528  1.3417 -0.1557  0.0232
17951SOL    HW155621   7.615   7.916   1.609  1.4116  0.1944  0.2260
17951SOL    HW255622   7.693   7.996   1.507  1.7267 -1.9708 -1.2881
17952SOL     OW55623   1.706   4.068   5.207 -0.1318 -0.1564 -0.0784
17952SOL    HW155624   1.657   3.991   5.177  1.5660 -1.2170 -0.3131
17952SOL    HW255625   1.729   4.114   5.127 -0.6653  0.2863  0.0231
17953SOL     OW55626   5.834   6.915   5.653  0.3164 -0.4613 -0.2540
17953SOL    HW155627   5.861   6.977   5.721 -1.0896  1.7237 -1.5552
17953SOL    HW255628   5.906   6.915   5.591  0.7723 -0.9781  0.2595
17954SOL     OW55629   8.903   2.996   8.489 -0.0173 -0.0403 -0.0606
17954SOL    HW155630   8.957   3.074   8.476 -0.5753  0.2987 -0.3808
17954SOL    HW255631   8.956   2.924   8.454 -0.0892  0.3971 -1.1139
17955SOL     OW55632   3.298   2.745   4.379 -0.1099 -0.2981  0.0971
17955SOL    HW155633   3.362   2.763   4.448 -1.0399  0.9108  0.6941
17955SOL    HW255634   3.350   2.722   4.303  1.0301  0.3569  0.6538
17956SOL     OW55635   1.234   1.815   8.604  0.6571 -0.5174 -0.0361
17956SOL    HW155636   1.276   1.897   8.579 -0.6926  0.3874  0.5060
17956SOL    HW255637   1.303   1.763   8.644  1.8008 -0.1289 -1.4067
17957SOL     OW55638   1.829   0.165   0.745  0.0666 -0.2987  0.5332
17957SOL    HW155639   1.794   0.077   0.734  1.9546 -0.9785 -0.6617
17957SOL    HW255640   1.758   0.215   0.785 -1.4999 -2.0275  0.0494
17958SOL     OW55641   2.767   1.150   7.476 -0.3650 -0.1380 -0.0286
17958SOL    HW155642   2.772   1.239   7.510 -0.1695  0.0643 -0.5744
17958SOL    HW255643   2.744   1.096   7.552  0.4111  0.2523  0.4973
17959SOL     OW55644   7.564   5.119   4.055 -0.5299  0.0147 -0.1833
17959SOL    HW155645   7.551   5.170   3.975 -3.2935  2.4753  1.6473
17959SOL    HW255646   7.640   5.160   4.097 -0.1805 -0.1334 -0.6540
17960SOL     OW55647   1.791   2.084   4.547 -0.0003 -0.2571 -0.3591
17960SOL    HW155648   1.725   2.021   4.518 -0.0030 -1.0750  1.3220
17960SOL    HW255649   1.741   2.157   4.584  0.0199  0.4788 -1.6976
17961SOL     OW55650   7.967   2.613   7.659  0.5445 -0.4166 -0.8262
17961SOL    HW155651   7.910   2.562   7.602  1.3276 -1.9606 -0.3239
17961SOL    HW255652   8.013   2.674   7.601 -0.2181 -0.4782 -1.5030
17962SOL     OW55653   2.466   7.454   2.240  0.2204  0.6106 -0.0674
17962SOL    HW155654   2.425   7.392   2.300  0.9985 -0.2442 -0.3758
17962SOL    HW255655   2.539   7.404   2.201 -0.1026  1.2118 -1.5133
17963SOL     OW55656   9.317   5.070   0.324 -0.5585 -0.5506  0.7721
17963SOL    HW155657   9.251   5.105   0.383 -0.5655 -0.6824  0.8425
17963SOL    HW255658   9.267   5.037   0.249 -0.5822 -0.7445  0.8720
17964SOL     OW55659   9.370   1.764   9.750  0.0512 -0.5706 -0.0836
17964SOL    HW155660   9.439   1.699   9.741  0.0310 -0.6420  0.2802
17964SOL    HW255661   9.301   1.734   9.690  0.7794  0.1054 -1.3061
17965SOL     OW55662   0.351   4.468   8.754 -0.2682  0.5430 -0.5202
17965SOL    HW155663   0.372   4.526   8.681  1.2508 -1.7872 -2.1042
17965SOL    HW255664   0.395   4.386   8.732 -2.5403 -1.3381  1.3819
17966SOL     OW55665   7.536   8.591   9.397  0.1057 -0.2531 -0.4050
17966SOL    HW155666   7.488   8.668   9.367 -0.1445  0.2520  1.1767
17966SOL    HW255667   7.508   8.521   9.339 -1.5314  0.3198 -0.3571
17967SOL     OW55668   8.749   7.285   7.881  0.6076  0.0999 -0.4503
17967SOL    HW155669   8.674   7.314   7.828  0.7916 -0.4738 -1.0416
17967SOL    HW255670   8.820   7.343   7.857  0.2373  0.9710  0.4832
17968SOL     OW55671   7.002   7.721   6.096 -0.7684 -0.4661  0.0928
17968SOL    HW155672   7.076   7.759   6.144 -2.3029  0.5450  1.8158
17968SOL    HW255673   6.925   7.755   6.141 -2.3018 -1.6801 -1.4769
17969SOL     OW55674   5.172   9.741   5.637  0.1059 -0.4484  0.2137
17969SOL    HW155675   5.144   9.785   5.556  0.9748  0.9224  0.6135
17969SOL    HW255676   5.146   9.650   5.626 -0.8019 -0.0502 -1.1319
17970SOL     OW55677   1.606   0.166   8.880 -0.3737  0.4117  0.0333
17970SOL    HW155678   1.588   0.100   8.813 -0.4214  2.1168 -1.7251
17970SOL    HW255679   1.557   0.136   8.957 -3.2406  0.1142 -1.7375
17971SOL     OW55680   2.038   3.269   6.110 -0.3476 -0.1016 -0.9411
17971SOL    HW155681   2.104   3.231   6.051  1.1512  0.3000  0.4113
17971SOL    HW255682   2.061   3.362   6.115  1.2188 -0.5299  2.2166
17972SOL     OW55683   0.055   8.215   8.881  0.2171 -0.1269 -0.0732
17972SOL    HW155684   0.051   8.123   8.907  0.2781 -0.4115 -1.0144
17972SOL    HW255685  -0.031   8.234   8.844 -0.2101  0.5593  1.2159
17973SOL     OW55686   0.965   0.891   1.772  0.6573  0.0421  0.3105
17973SOL    HW155687   1.013   0.954   1.718  0.3260 -0.2835 -0.3735
17973SOL    HW255688   1.034   0.847   1.823  0.9585  0.4527  0.2680
17974SOL     OW55689   8.626   2.340   4.660 -0.3714  0.1493  0.3352
17974SOL    HW155690   8.601   2.250   4.680  0.2371 -0.1953 -0.3866
17974SOL    HW255691   8.693   2.361   4.725 -1.3128  0.4970  1.2245
17975SOL     OW55692   1.092   4.410   6.079 -0.3066  0.7193 -0.0010
17975SOL    HW155693   1.144   4.486   6.104 -1.3847  1.3563  0.3954
17975SOL    HW255694   1.032   4.397   6.152 -0.0750 -0.5952 -0.0164
17976SOL     OW55695   9.094   5.219   9.617  0.2701 -0.2053  0.6076
17976SOL    HW155696   9.086   5.299   9.565  2.2427 -0.2159  0.2008
17976SOL    HW255697   9.174   5.177   9.584  0.2439 -1.4486  2.0104
17977SOL     OW55698   2.987   5.271   1.743  0.5204 -0.5644 -0.0098
17977SOL    HW155699   2.918   5.251   1.679  0.9629 -1.5720 -0.1796
17977SOL    HW255700   2.948   5.337   1.800 -0.5378 -1.0245 -0.1858
17978SOL     OW55701   3.992   8.181   1.626  0.2327 -0.0722 -0.7826
17978SOL    HW155702   3.993   8.166   1.532 -2.0799  0.3096 -0.9209
17978SOL    HW255703   3.989   8.277   1.635 -0.3043 -0.1259 -0.3496
17979SOL     OW55704   9.343   9.692   6.415 -0.1302  0.5100 -0.4084
17979SOL    HW155705   9.417   9.695   6.354  0.3239 -0.7555  0.0542
17979SOL    HW255706   9.358   9.765   6.476  0.9154  0.0523 -0.1158
17980SOL     OW55707   6.133   5.731   8.023  0.0401  0.4283  0.0456
17980SOL    HW155708   6.140   5.644   8.060 -0.2135  0.7134  0.7974
17980SOL    HW255709   6.223   5.758   8.004  0.0142 -0.6311 -1.7543
17981SOL     OW55710   9.612   0.494   7.247  0.2708 -0.2031 -0.7125
17981SOL    HW155711   9.547   0.456   7.305 -1.1341  1.0686 -1.3896
17981SOL    HW255712   9.648   0.568   7.296  1.8571 -1.3532 -0.0249
17982SOL     OW55713   5.506   3.868   5.434  0.2724 -0.6579  0.1938
17982SOL    HW155714   5.435   3.890   5.373 -0.1882  0.5323  1.0968
17982SOL    HW255715   5.582   3.852   5.378  0.2672  1.9225 -0.6854
17983SOL     OW55716   6.146   6.837   1.165 -0.0083 -0.0959 -0.3502
17983SOL    HW155717   6.055   6.863   1.145 -0.1715 -0.1246  0.3295
17983SOL    HW255718   6.170   6.778   1.093  0.0230  1.1312 -1.3933
17984SOL     OW55719   7.774   3.313   8.403 -0.4348  0.5615  0.3400
17984SOL    HW155720   7.767   3.363   8.484 -2.1870  0.3573  0.3594
17984SOL    HW255721   7.749   3.224   8.428  2.3356 -0.3225  0.2398
17985SOL     OW55722   4.498   1.762   3.795 -0.4798 -0.2427  0.2971
17985SOL    HW155723   4.590   1.755   3.770 -0.3218 -0.3639  0.8823
17985SOL    HW255724   4.499   1.823   3.869 -1.0611  0.9465 -0.6530
17986SOL     OW55725   6.677   7.721   3.653  0.0764  0.0020 -0.2323
17986SOL    HW155726   6.708   7.809   3.672 -1.1179  0.1983  0.9230
17986SOL    HW255727   6.734   7.663   3.703 -0.6520  0.2947  0.9819
17987SOL     OW55728   9.367   3.521   9.220 -0.1330 -0.1768  0.4579
17987SOL    HW155729   9.397   3.606   9.188 -0.6559 -1.0784 -2.7884
17987SOL    HW255730   9.448   3.471   9.232  0.1357 -0.7595 -2.7143
17988SOL     OW55731   8.130   9.660   6.023 -0.0215 -0.2131 -0.0840
17988SOL    HW155732   8.198   9.728   6.026 -1.2815  1.0828  0.2336
17988SOL    HW255733   8.050   9.706   6.047 -1.1376 -1.5600 -1.1223
17989SOL     OW55734   3.536   7.076   6.009 -0.2788  0.1042 -0.5059
17989SOL    HW155735   3.448   7.093   6.044 -0.4059  0.0148 -0.7814
17989SOL    HW255736   3.544   7.138   5.936 -0.9026 -1.2599 -1.7903
17990SOL     OW55737   5.719   7.780   0.711 -0.5283  0.2769 -0.3738
17990SOL    HW155738   5.781   7.730   0.764  0.8202  0.6723 -1.5144
17990SOL    HW255739   5.739   7.872   0.731 -0.1964  0.4217 -1.3541
17991SOL     OW55740   9.634   1.113   8.022 -0.3869 -0.2859 -0.6979
17991SOL    HW155741   9.606   1.136   7.933 -0.8251 -0.2310 -0.5439
17991SOL    HW255742   9.553   1.094   8.069 -0.3417  1.6671  0.2699
17992SOL     OW55743   2.498   7.101   9.597  0.3759 -0.3652  0.0823
17992SOL    HW155744   2.588   7.132   9.584  0.2990 -0.4738 -0.7422
17992SOL    HW255745   2.452   7.127   9.517 -0.0511 -1.2933  0.0100
17993SOL     OW55746   5.026   7.708   4.099  0.2002 -0.2001 -0.0022
17993SOL    HW155747   5.002   7.672   4.184  0.0607 -0.2694 -0.0725
17993SOL    HW255748   5.045   7.632   4.045 -0.7829 -0.2019 -0.3630
17994SOL     OW55749   8.711   0.916   0.670 -0.1437  0.2715  0.5790
17994SOL    HW155750   8.742   0.827   0.687 -0.5394  0.6272  3.6260
17994SOL    HW255751   8.766   0.972   0.724  0.0736  1.9604 -1.2518
17995SOL     OW55752   1.799   3.783   7.857 -0.2749  0.1214 -0.3815
17995SOL    HW155753   1.771   3.692   7.849 -1.9923  0.7394 -2.3321
17995SOL    HW255754   1.866   3.793   7.789  3.0665 -0.6651  2.5540
17996SOL     OW55755   4.488   6.513   1.264 -0.4235 -0.4326  0.1096
17996SOL    HW155756   4.433   6.573   1.214  1.0565 -1.1665 -2.5726
17996SOL    HW255757   4.481   6.544   1.355 -0.1761  3.4242 -1.0265
17997SOL     OW55758   7.346   1.671   4.085  0.2882 -0.2661  0.2342
17997SOL    HW155759   7.430   1.624   4.084  0.0538 -0.7628  1.6971
17997SOL    HW255760   7.363   1.750   4.137  0.0647  0.0687 -0.1967
17998SOL     OW55761   8.249   7.755   6.504 -0.2398  0.1673  0.2450
17998SOL    HW155762   8.212   7.751   6.416  0.0662  0.2309  0.1138
17998SOL    HW255763   8.241   7.848   6.529 -0.2831  0.1580  0.2670
17999SOL     OW55764   9.836   3.406   9.699  0.5360  0.2324 -0.1638
17999SOL    HW155765   9.804   3.468   9.634 -0.2391  0.5735  0.5253
17999SOL    HW255766   9.760   3.352   9.720  0.8890 -0.1550  0.1373
18000SOL     OW55767   0.686   3.405   7.941  0.2829  0.9347 -0.2791
18000SOL    HW155768   0.633   3.369   8.012  1.2766 -1.5069 -0.6504
18000SOL    HW255769   0.755   3.455   7.985  0.7188 -0.3048  0.5102
18001SOL     OW55770   8.072   1.086   5.080 -0.5351  0.2374  0.5299
18001SOL    HW155771   7.986   1.130   5.079 -0.3533  0.6022 -0.0591
18001SOL    HW255772   8.130   1.148   5.035 -0.2797 -0.6325 -0.3641
18002SOL     OW55773   9.422   0.914   4.237  0.3558 -0.2137  0.4270
18002SOL    HW155774   9.434   0.831   4.284  0.0268 -0.0658  0.7781
18002SOL    HW255775   9.507   0.930   4.196  0.6385 -0.3772  0.9299
18003SOL     OW55776   2.317   5.546   0.702 -0.0468  0.0323  0.0089
18003SOL    HW155777   2.226   5.577   0.702 -0.6657 -1.6745  0.4844
18003SOL    HW255778   2.351   5.572   0.788 -0.5093 -0.4932  0.3516
18004SOL     OW55779   1.371   4.999   3.646  0.8941  0.3193 -0.3977
18004SOL    HW155780   1.313   5.060   3.692  0.4009 -0.5295  0.1266
18004SOL    HW255781   1.430   4.966   3.714  2.1516  1.3049 -0.9509
18005SOL     OW55782   4.680   2.240   5.041  0.4539 -0.3173  0.2249
18005SOL    HW155783   4.712   2.317   4.994  0.2293 -0.9177 -0.9364
18005SOL    HW255784   4.610   2.205   4.986  0.9115 -1.6630  0.4584
18006SOL     OW55785   7.962   3.917   5.563 -0.5386 -0.1460 -0.3546
18006SOL    HW155786   7.971   3.836   5.614 -0.3997 -0.5038 -0.9342
18006SOL    HW255787   7.892   3.898   5.501 -0.0709 -0.0592 -0.9236
18007SOL     OW55788   1.374   9.421   6.954 -0.2887 -0.2105  0.0389
18007SOL    HW155789   1.314   9.494   6.971 -1.6424 -1.1604 -0.5066
18007SOL    HW255790   1.375   9.372   7.036  0.4908  0.3014  0.3499
18008SOL     OW55791   5.110   2.830   4.688  0.0367  0.1942 -0.2272
18008SOL    HW155792   5.164   2.780   4.750  0.1699  1.6888  0.9148
18008SOL    HW255793   5.033   2.855   4.738 -0.6105  0.1142 -1.1526
18009SOL     OW55794   9.320   5.806   5.058  0.0883 -0.1734  0.2372
18009SOL    HW155795   9.388   5.740   5.049 -0.3513 -0.3676 -2.5898
18009SOL    HW255796   9.275   5.805   4.974 -2.7430  0.7059  1.6264
18010SOL     OW55797   9.381   3.775   9.131 -0.8859  0.1380 -0.3600
18010SOL    HW155798   9.316   3.813   9.071 -1.2355  0.6376  0.3216
18010SOL    HW255799   9.346   3.792   9.218 -0.4423 -0.6959 -0.0084
18011SOL     OW55800   5.846   6.802   1.661  0.3585  0.3903 -0.1392
18011SOL    HW155801   5.868   6.767   1.574  0.2063  1.4653 -0.6185
18011SOL    HW255802   5.895   6.747   1.722  1.3816  0.3639 -0.9671
18012SOL     OW55803   4.927   7.912   0.688 -0.8106 -1.0631 -0.6206
18012SOL    HW155804   4.876   7.882   0.763 -0.9940  2.0437  0.6497
18012SOL    HW255805   4.862   7.946   0.627 -0.4626  0.8589  0.0173
18013SOL     OW55806   0.089   0.119   6.048  0.2535  0.0678  0.1057
18013SOL    HW155807   0.133   0.082   5.972 -2.0503 -1.2442 -0.6808
18013SOL    HW255808   0.042   0.195   6.014 -0.7458 -0.4916  0.2099
18014SOL     OW55809   9.171   4.743   8.760  0.0882 -0.1251  0.2528
18014SOL    HW155810   9.255   4.728   8.804  0.3363  1.0634  0.2151
18014SOL    HW255811   9.133   4.655   8.751  0.2100 -0.4574  2.4474
18015SOL     OW55812   5.419   0.862   8.869  0.7467 -0.1522 -0.7064
18015SOL    HW155813   5.445   0.772   8.884  1.8882  0.4813  1.4882
18015SOL    HW255814   5.479   0.914   8.922 -0.8549  1.8129 -0.6924
18016SOL     OW55815   6.529   6.765   9.849 -0.1848  0.6244  0.4746
18016SOL    HW155816   6.470   6.832   9.814 -1.0327  0.0612  0.7941
18016SOL    HW255817   6.472   6.690   9.868  0.5567  0.2480  1.2882
18017SOL     OW55818   6.821   8.447   1.064  0.6928 -0.0568 -0.1446
18017SOL    HW155819   6.848   8.366   1.021 -1.0065 -0.0131 -1.4171
18017SOL    HW255820   6.819   8.425   1.157  1.6546 -1.0341 -0.3350
18018SOL     OW55821   9.718   9.080   5.610 -0.2416  0.1646 -0.0452
18018SOL    HW155822   9.770   9.001   5.593  3.7414  2.0418  2.0035
18018SOL    HW255823   9.705   9.120   5.525 -0.4950 -1.6241 -0.8857
18019SOL     OW55824   9.699   7.071   2.086 -0.2106  0.3609  0.3438
18019SOL    HW155825   9.776   7.117   2.054 -0.2065  1.8768  2.3278
18019SOL    HW255826   9.628   7.135   2.082 -1.1826 -0.7248 -0.5910
18020SOL     OW55827   1.283   3.216   4.569  0.6451  0.6032  0.0275
18020SOL    HW155828   1.320   3.284   4.625  1.1434 -1.2257  2.0194
18020SOL    HW255829   1.207   3.258   4.529  0.4748  2.1135  1.7750
18021SOL     OW55830   3.139   5.472   2.623 -0.3216  0.8201  0.5319
18021SOL    HW155831   3.091   5.512   2.550 -0.2608  1.1258  0.6570
18021SOL    HW255832   3.232   5.487   2.601 -0.3155  1.4697  0.9791
18022SOL     OW55833   9.750   2.813   3.483 -0.2286 -0.4294 -0.7975
18022SOL    HW155834   9.688   2.824   3.411  0.7281 -1.1310 -1.7819
18022SOL    HW255835   9.705   2.845   3.560 -1.6773 -0.6112 -1.5382
18023SOL     OW55836   4.462   4.323   9.234 -0.2743 -0.0979 -0.2175
18023SOL    HW155837   4.492   4.335   9.143 -3.6655  1.2885 -1.3183
18023SOL    HW255838   4.500   4.398   9.281  1.1356 -0.5764 -0.5317
18024SOL     OW55839   6.803   9.488   6.910 -0.0670 -0.1956 -0.0102
18024SOL    HW155840   6.799   9.466   6.817 -0.2173  0.5898 -0.1888
18024SOL    HW255841   6.768   9.576   6.916 -1.1168 -0.6521  0.9344
18025SOL     OW55842   7.013   3.196   1.543  0.5621 -0.1689  0.0962
18025SOL    HW155843   7.091   3.236   1.583  1.5718 -1.1223 -0.8621
18025SOL    HW255844   7.029   3.102   1.547 -1.3354 -0.4863  1.4137
18026SOL     OW55845   8.878   4.255   3.749 -0.4892 -0.2675  0.8447
18026SOL    HW155846   8.949   4.258   3.813  0.8853 -1.0956 -0.5722
18026SOL    HW255847   8.810   4.202   3.790  1.4015 -2.9978  0.6791
18027SOL     OW55848   6.921   2.201   6.025  0.6519 -0.1461 -0.4424
18027SOL    HW155849   6.992   2.158   6.073  0.3068  0.5243  0.7065
18027SOL    HW255850   6.890   2.269   6.085  0.6509  1.1805 -1.8947
18028SOL     OW55851   5.799   1.250   2.453  0.3429 -0.2480 -0.0430
18028SOL    HW155852   5.724   1.190   2.450 -0.8281  1.0865  1.0549
18028SOL    HW255853   5.829   1.255   2.362  0.9829 -3.0504 -0.0606
18029SOL     OW55854   2.891   3.786   9.373  0.1636 -0.6714 -0.3476
18029SOL    HW155855   2.822   3.809   9.311  0.7497 -0.2742 -0.8732
18029SOL    HW255856   2.966   3.841   9.347  0.3739 -0.3582  0.8195
18030SOL     OW55857   0.452   2.353   9.380  0.7354 -0.3121 -0.1892
18030SOL    HW155858   0.454   2.340   9.285 -0.1273  0.4559 -0.3321
18030SOL    HW255859   0.481   2.443   9.393 -0.6322  0.1003  0.1410
18031SOL     OW55860   1.304   6.393   0.110  0.1543  0.0321  0.3526
18031SOL    HW155861   1.265   6.319   0.156  0.9235 -0.0059  0.9576
18031SOL    HW255862   1.284   6.469   0.165  0.3784  0.1020  0.3389
18032SOL     OW55863   9.377   8.789   8.202 -0.1042 -0.4448 -0.0904
18032SOL    HW155864   9.418   8.872   8.225 -0.7703  0.0810 -0.7346
18032SOL    HW255865   9.398   8.730   8.274  0.6623  0.1882  0.2086
18033SOL     OW55866   0.519   9.197   8.887  0.2503  0.2744  0.1406
18033SOL    HW155867   0.577   9.132   8.849  0.4970  0.4219  0.2596
18033SOL    HW255868   0.497   9.255   8.814 -0.7390 -0.4880 -0.1819
18034SOL     OW55869   5.143   5.924   7.631  0.2181 -0.4588  1.1171
18034SOL    HW155870   5.196   5.855   7.591  0.4918 -0.2648  1.1378
18034SOL    HW255871   5.157   6.001   7.575 -0.1767 -0.4501  1.0273
18035SOL     OW55872   9.030   2.888   9.135  0.2729 -0.1679 -1.2486
18035SOL    HW155873   9.022   2.812   9.078 -1.3397  0.3128 -1.7114
18035SOL    HW255874   9.123   2.892   9.157  0.4976 -1.8484 -1.7771
18036SOL     OW55875   7.485   5.976   1.316 -0.0302  0.2468 -0.0373
18036SOL    HW155876   7.488   5.891   1.271 -0.5846 -0.6915  1.6316
18036SOL    HW255877   7.473   6.040   1.245  0.6591 -1.0212 -1.3551
18037SOL     OW55878   5.818   6.848   4.446  0.4361 -0.2882 -0.0898
18037SOL    HW155879   5.873   6.901   4.388  0.6623 -1.3911 -0.9052
18037SOL    HW255880   5.786   6.911   4.511  1.9552  0.5553 -0.0952
18038SOL     OW55881   1.220   3.186   0.932  0.6794  0.4243 -0.8622
18038SOL    HW155882   1.305   3.163   0.894  1.5168 -1.1106  1.6666
18038SOL    HW255883   1.239   3.258   0.991  0.3058 -0.1176 -0.0648
18039SOL     OW55884   4.136   9.637   5.678  0.8201 -0.1287  0.3535
18039SOL    HW155885   4.179   9.613   5.596  2.2023 -1.5250  1.4297
18039SOL    HW255886   4.043   9.641   5.656  1.2769  0.8836 -1.5678
18040SOL     OW55887   4.475   2.296   4.141  0.0246  0.0729 -0.0170
18040SOL    HW155888   4.558   2.257   4.168  0.3181  1.0310  0.5190
18040SOL    HW255889   4.412   2.270   4.207  0.2767  0.6965  0.4783
18041SOL     OW55890   2.397   8.298   9.293 -0.0995 -0.3904 -0.3074
18041SOL    HW155891   2.370   8.207   9.276 -0.1280 -0.1453 -1.6761
18041SOL    HW255892   2.488   8.291   9.320  0.1001 -0.8026 -1.0342
18042SOL     OW55893   1.632   7.459   3.908 -0.0084  0.1875  0.1075
18042SOL    HW155894   1.672   7.472   3.994 -2.2787  0.2046  1.2296
18042SOL    HW255895   1.659   7.371   3.882 -0.0187 -0.1791  1.2701
18043SOL     OW55896   5.112   5.969   9.787  0.2963  0.2289  0.3456
18043SOL    HW155897   5.088   5.889   9.832  0.2607 -0.3885 -0.7274
18043SOL    HW255898   5.131   6.032   9.857 -1.7321 -0.0665  1.2168
18044SOL     OW55899   1.731   5.961   3.388  0.6219  0.5936  0.1348
18044SOL    HW155900   1.677   5.882   3.387  1.1233  0.2385 -1.5327
18044SOL    HW255901   1.759   5.970   3.479  0.3542 -1.0174  0.4017
18045SOL     OW55902   1.539   1.393   2.967 -0.2548  0.1265  0.6873
18045SOL    HW155903   1.625   1.426   2.940 -1.0005  1.4813 -0.1463
18045SOL    HW255904   1.552   1.365   3.058  1.1053  0.1417  0.5199
18046SOL     OW55905   9.298   9.518   8.567 -0.2177  0.0117 -0.3052
18046SOL    HW155906   9.305   9.537   8.474 -1.5179  1.1214 -0.1984
18046SOL    HW255907   9.321   9.601   8.610  1.6739 -0.8327  0.4312
18047SOL     OW55908   5.811   9.198   3.435 -0.0833 -0.0549 -0.2034
18047SOL    HW155909   5.892   9.211   3.386  0.3783  0.0975  0.5942
18047SOL    HW255910   5.828   9.123   3.492 -0.0464  0.7799  0.9157
18048SOL     OW55911   7.164   6.268   7.139 -0.4481  0.0639 -0.0244
18048SOL    HW155912   7.167   6.364   7.139 -0.1756  0.1002 -2.1405
18048SOL    HW255913   7.116   6.246   7.059 -1.2979 -1.5718  0.8851
18049SOL     OW55914   6.737   1.424   8.071  0.2838 -0.1517 -0.3228
18049SOL    HW155915   6.760   1.517   8.077  1.5963 -0.3741 -1.4969
18049SOL    HW255916   6.809   1.385   8.022 -1.2955 -1.4159 -1.7447
18050SOL     OW55917   8.863   9.273   9.846 -0.1727 -0.6306 -0.2199
18050SOL    HW155918   8.898   9.356   9.814  1.2499 -0.8898  0.6029
18050SOL    HW255919   8.846   9.288   9.939 -2.4479 -0.4754 -0.6018
18051SOL     OW55920   9.786   6.127   3.699  0.5671 -0.2167  0.2335
18051SOL    HW155921   9.768   6.033   3.699  0.6564 -0.2358  0.6949
18051SOL    HW255922   9.726   6.163   3.633  0.2364 -0.5434  0.3518
18052SOL     OW55923   1.305   3.497   6.025 -0.1527 -0.0839 -0.3588
18052SOL    HW155924   1.350   3.505   5.941  1.2115 -1.4308  0.1907
18052SOL    HW255925   1.212   3.512   6.004  0.0165 -1.2678 -2.2856
18053SOL     OW55926   6.634   8.083   1.129 -0.3033 -0.5875  0.0450
18053SOL    HW155927   6.717   8.109   1.167 -0.9556  0.0623  1.0596
18053SOL    HW255928   6.639   7.988   1.124  0.7778 -0.5144 -0.5880
18054SOL     OW55929   3.272   8.972   4.276 -0.7669 -0.3919 -0.3533
18054SOL    HW155930   3.254   9.016   4.360 -1.7564 -1.6366  0.1226
18054SOL    HW255931   3.323   8.895   4.300  2.0299  1.0242 -1.3120
18055SOL     OW55932   3.975   4.249   2.442 -0.2214 -0.0254 -0.0983
18055SOL    HW155933   4.040   4.319   2.454  0.3804 -0.6531  0.3788
18055SOL    HW255934   3.905   4.271   2.503  0.0898  0.0249  0.2494
18056SOL     OW55935   7.678   4.813   0.853 -0.2391 -0.4557 -0.3036
18056SOL    HW155936   7.759   4.776   0.818 -1.6766 -3.6579 -0.5500
18056SOL    HW255937   7.626   4.833   0.776 -0.1960  0.4943 -0.1059
18057SOL     OW55938   1.182   8.757   2.299 -0.1999 -0.1950  0.4483
18057SOL    HW155939   1.219   8.845   2.295  0.1609 -0.2695  1.6670
18057SOL    HW255940   1.217   8.720   2.380 -2.5778 -0.4538  1.4300
18058SOL     OW55941   9.736   0.640   5.375 -0.2209  0.0816 -0.3875
18058SOL    HW155942   9.767   0.728   5.353 -2.2625  0.3349 -2.5644
18058SOL    HW255943   9.670   0.654   5.443  0.8878 -0.0240  0.7592
18059SOL     OW55944   0.165   4.502   7.462  0.0011  0.0326  0.4773
18059SOL    HW155945   0.251   4.499   7.420 -1.2181 -0.5554 -2.2518
18059SOL    HW255946   0.172   4.445   7.538  1.3597 -2.0344 -1.1119
18060SOL     OW55947   0.081   7.346   2.932 -0.5945 -0.2216  0.0892
18060SOL    HW155948   0.083   7.371   2.840 -1.2094 -0.4371  0.0152
18060SOL    HW255949   0.173   7.342   2.958 -0.3600 -1.4652 -0.8651
18061SOL     OW55950   7.896   0.265   4.740 -0.0334  0.2023  0.3064
18061SOL    HW155951   7.862   0.276   4.651  2.1004  0.5723 -0.5387
18061SOL    HW255952   7.880   0.349   4.782  1.2625  0.9665 -0.6334
18062SOL     OW55953   4.176   3.108   0.769 -0.2199  0.4265 -0.2577
18062SOL    HW155954   4.102   3.047   0.775  0.3747 -0.1810  1.4325
18062SOL    HW255955   4.154   3.178   0.830  1.3068 -0.6027  1.5793
18063SOL     OW55956   9.354   8.330   2.885  0.4702  0.1965  0.4817
18063SOL    HW155957   9.421   8.267   2.858 -0.0876 -0.2925  0.1864
18063SOL    HW255958   9.391   8.415   2.865  0.4813 -0.1098 -0.9779
18064SOL     OW55959   3.983   6.481   5.513 -0.0395  0.6672  0.0214
18064SOL    HW155960   4.060   6.485   5.455  2.9463  0.4916  3.6272
18064SOL    HW255961   3.973   6.388   5.532 -1.4299  0.6586 -0.6656
18065SOL     OW55962   7.063   3.657   6.209 -0.2433  0.5069 -0.1224
18065SOL    HW155963   7.114   3.637   6.288  0.7892 -2.7521 -1.4333
18065SOL    HW255964   7.123   3.706   6.154  0.2648 -0.1797 -0.2012
18066SOL     OW55965   6.558   7.938   7.959 -0.2282  0.5125  0.0488
18066SOL    HW155966   6.579   7.888   7.880  0.6873  0.6823  0.1816
18066SOL    HW255967   6.640   7.981   7.983 -0.7692  1.3110  0.4923
18067SOL     OW55968   3.310   6.333   4.224 -0.2235  0.2775  0.7721
18067SOL    HW155969   3.223   6.346   4.188 -0.9085 -1.3518  1.7513
18067SOL    HW255970   3.365   6.394   4.175 -1.0937 -1.5791 -2.8769
18068SOL     OW55971   3.937   5.484   2.375  0.4037 -0.1972 -0.0334
18068SOL    HW155972   4.017   5.436   2.354  1.0484  0.9363 -0.2332
18068SOL    HW255973   3.966   5.574   2.391 -0.9911  0.5416 -1.4148
18069SOL     OW55974   7.547   5.167   5.533  0.0963 -0.5595  0.0039
18069SOL    HW155975   7.563   5.073   5.542  0.0233 -0.4932  0.9529
18069SOL    HW255976   7.493   5.176   5.455 -0.0599 -1.3254  0.0238
18070SOL     OW55977   6.315   2.479   5.387 -0.5872  0.3366  0.2820
18070SOL    HW155978   6.290   2.569   5.369 -1.2749  0.4670  1.7348
18070SOL    HW255979   6.411   2.481   5.390 -0.6212  1.4258  2.0426
18071SOL     OW55980   9.781   4.779   7.599  0.0646  0.1793 -0.1773
18071SOL    HW155981   9.753   4.713   7.663  0.2127 -0.7241 -1.0352
18071SOL    HW255982   9.704   4.835   7.589  0.4675  1.2008  1.8323
18072SOL     OW55983   0.703   9.730   2.425 -0.4205 -0.1625 -0.1289
18072SOL    HW155984   0.787   9.776   2.416 -1.5683  2.7913  2.3101
18072SOL    HW255985   0.647   9.769   2.358 -0.7581  0.4029  0.4676
18073SOL     OW55986   3.252   4.761   5.203  0.2758 -0.2777  0.5680
18073SOL    HW155987   3.233   4.693   5.139  0.1888 -1.9067  2.2587
18073SOL    HW255988   3.338   4.795   5.177 -0.1784 -0.2259 -0.9404
18074SOL     OW55989   2.387   4.283   5.486  0.1546 -0.0256  0.0255
18074SOL    HW155990   2.352   4.240   5.408  2.2656 -0.2611 -0.8509
18074SOL    HW255991   2.382   4.377   5.466  0.1228 -0.0620 -0.1358
18075SOL     OW55992   6.790   9.488   6.608 -0.0663 -0.3202 -0.1237
18075SOL    HW155993   6.695   9.501   6.610  0.0403  0.7836 -1.0518
18075SOL    HW255994   6.802   9.408   6.557 -0.5734 -1.8909  2.0926
18076SOL     OW55995   5.207   6.668   9.360 -0.6487  0.3325 -0.3018
18076SOL    HW155996   5.228   6.760   9.378  2.5397 -0.9711  4.9856
18076SOL    HW255997   5.273   6.640   9.297  0.0482  1.1724  0.0208
18077SOL     OW55998   5.236   1.183   4.740  0.1370 -0.1617  0.3929
18077SOL    HW155999   5.142   1.174   4.752  0.1737  0.4081  1.2243
18077SOL    HW256000   5.253   1.150   4.652 -0.8948  0.1218  0.0801
18078SOL     OW56001   8.278   7.308   3.669 -0.4603 -0.0112 -0.2105
18078SOL    HW156002   8.314   7.220   3.655 -0.4239 -0.6359  2.9786
18078SOL    HW256003   8.348   7.356   3.713 -1.0934  1.0708 -0.3517
18079SOL     OW56004   9.313   5.287   8.968 -0.4803  0.4011 -0.1323
18079SOL    HW156005   9.330   5.263   9.059 -0.8724  1.0815  0.1312
18079SOL    HW256006   9.379   5.239   8.917  0.8504  1.3223  0.6546
18080SOL     OW56007   7.844   4.890   6.124 -0.0123  0.3971 -0.0955
18080SOL    HW156008   7.908   4.960   6.136  2.1021 -1.1424 -1.5496
18080SOL    HW256009   7.870   4.823   6.187 -0.7326  0.1070 -0.0999
18081SOL     OW56010   4.231   0.781   1.625  0.0210 -0.0938 -0.0004
18081SOL    HW156011   4.166   0.713   1.641 -0.5420  0.3475 -0.4052
18081SOL    HW256012   4.304   0.734   1.584 -0.1730 -0.5286  0.1447
18082SOL     OW56013   8.029   2.498   0.627  0.4114  0.4566  0.6983
18082SOL    HW156014   8.099   2.437   0.605 -0.3319 -0.4221  0.6728
18082SOL    HW256015   8.071   2.567   0.678  1.2696 -0.1080  0.7637
18083SOL     OW56016   8.496   0.148   8.142 -0.1216  0.1699  0.1198
18083SOL    HW156017   8.430   0.092   8.102  0.4512  1.2379 -2.5001
18083SOL    HW256018   8.578   0.099   8.133  0.4725  1.5403 -2.6736
18084SOL     OW56019   1.676   1.170   7.893 -0.0810 -1.0465  0.3043
18084SOL    HW156020   1.729   1.098   7.860 -0.1264 -0.5413 -0.9406
18084SOL    HW256021   1.594   1.165   7.844 -0.3515 -0.5556  0.6864
18085SOL     OW56022   2.867   2.147   0.846  0.1206  0.0688  0.2500
18085SOL    HW156023   2.939   2.083   0.844  0.1670  0.1383 -0.9748
18085SOL    HW256024   2.790   2.096   0.820  0.0337  0.3490 -0.0481
18086SOL     OW56025   8.558   6.895   4.462  0.2002  0.5173  0.1051
18086SOL    HW156026   8.582   6.975   4.510 -0.1711  1.6545 -1.5153
18086SOL    HW256027   8.642   6.859   4.432  0.3373  0.5199  0.4737
18087SOL     OW56028   7.489   8.223   3.741 -0.0179 -0.1082  0.0875
18087SOL    HW156029   7.581   8.229   3.765  0.0286  2.1232 -0.4063
18087SOL    HW256030   7.442   8.242   3.822  0.0122  0.6514 -0.0652
18088SOL     OW56031   1.194   3.799   3.514  0.9979  0.3473 -0.2651
18088SOL    HW156032   1.219   3.812   3.422  0.3287  2.0083 -0.2454
18088SOL    HW256033   1.110   3.753   3.509  1.5666 -0.7074 -0.4356
18089SOL     OW56034   0.992   5.262   4.140  0.6415 -0.5686  0.4099
18089SOL    HW156035   1.018   5.335   4.085 -0.4376  0.0278  0.6671
18089SOL    HW256036   0.941   5.302   4.210  0.1165 -1.5601  0.6065
18090SOL     OW56037   0.040   6.156   2.532  0.4200  0.0302 -0.3348
18090SOL    HW156038   0.092   6.230   2.502  0.0193 -0.0499 -1.2486
18090SOL    HW256039  -0.047   6.171   2.497  0.0253 -0.2706  0.4768
18091SOL     OW56040   6.646   3.024   4.093  0.3044 -0.2923 -0.2688
18091SOL    HW156041   6.658   3.012   4.187  0.6038 -1.5399 -0.4467
18091SOL    HW256042   6.734   3.012   4.056 -0.0781 -1.4757 -0.8446
18092SOL     OW56043   2.182   9.235   0.400 -0.5291  0.5374 -0.5815
18092SOL    HW156044   2.228   9.195   0.474  0.0367 -0.1232 -1.2785
18092SOL    HW256045   2.171   9.326   0.425 -2.6755 -0.1676  1.4696
18093SOL     OW56046   2.053   6.374   8.359  0.1543 -0.5216 -0.1245
18093SOL    HW156047   2.051   6.300   8.299 -1.3980 -1.0327  0.5127
18093SOL    HW256048   1.979   6.359   8.418 -1.4797  2.5247 -1.1851
18094SOL     OW56049   4.704   6.314   2.762  0.0451  0.3170 -0.3350
18094SOL    HW156050   4.702   6.297   2.667 -1.3318 -0.5532 -0.1729
18094SOL    HW256051   4.613   6.328   2.786 -0.2340 -3.5461  1.5534
18095SOL     OW56052   1.338   5.634   6.331  0.3323  0.3325  0.0315
18095SOL    HW156053   1.430   5.647   6.308 -0.3040  0.8120 -2.6077
18095SOL    HW256054   1.298   5.720   6.315 -0.5126  0.2548  1.6150
18096SOL     OW56055   4.082   0.325   5.139 -0.2596  0.1349 -0.3321
18096SOL    HW156056   4.018   0.328   5.209 -0.2217 -1.0880 -0.2141
18096SOL    HW256057   4.051   0.255   5.081 -0.0179  0.7792 -1.2696
18097SOL     OW56058   1.923   3.702   0.151 -0.1354  0.4255 -0.3334
18097SOL    HW156059   1.947   3.612   0.170 -0.2134  0.3459 -0.6177
18097SOL    HW256060   1.968   3.724   0.070  0.1991  0.7733 -0.0625
18098SOL     OW56061   4.729   6.610   0.060 -0.1442  0.4543 -0.1702
18098SOL    HW156062   4.667   6.657   0.005  0.4037 -0.1659 -1.3457
18098SOL    HW256063   4.674   6.563   0.123 -0.7862  1.0207 -0.2922
18099SOL     OW56064   5.694   2.472   7.798 -0.2928  0.2291  0.2985
18099SOL    HW156065   5.608   2.511   7.813  0.0882  1.3286 -0.2508
18099SOL    HW256066   5.708   2.415   7.873 -0.9665  1.0223  1.0508
18100SOL     OW56067   5.927   3.622   7.638  0.1269 -0.1330  0.4207
18100SOL    HW156068   6.000   3.651   7.694  1.2534  0.1196 -1.1018
18100SOL    HW256069   5.850   3.667   7.674  0.8072  0.0353  1.7414
18101SOL     OW56070   8.433   6.754   3.361  0.0297  0.0555 -0.4205
18101SOL    HW156071   8.517   6.801   3.364  0.2273 -0.1762 -1.5701
18101SOL    HW256072   8.418   6.724   3.450  0.7468  0.8374 -0.0215
18102SOL     OW56073   8.589   2.826   9.313  0.1022 -0.1385 -0.3903
18102SOL    HW156074   8.644   2.859   9.241  0.6226 -1.3955 -0.5916
18102SOL    HW256075   8.649   2.814   9.386 -0.0612 -0.6593 -0.3335
18103SOL     OW56076   2.926   2.296   1.073 -1.2808 -0.3181  0.0916
18103SOL    HW156077   2.947   2.229   1.137 -1.8018 -2.3920 -1.7649
18103SOL    HW256078   2.919   2.249   0.990  0.4171  2.3562 -1.7551
18104SOL     OW56079   9.569   7.505   3.496  0.1389  0.4529 -0.5261
18104SOL    HW156080   9.659   7.481   3.520  0.2197  1.2608  0.0028
18104SOL    HW256081   9.547   7.446   3.424 -0.3080 -2.4940  1.8316
18105SOL     OW56082   8.760   3.647   5.367 -0.0078 -0.6599  0.3314
18105SOL    HW156083   8.683   3.651   5.424 -0.3783 -0.1942 -0.1839
18105SOL    HW256084   8.724   3.631   5.280  0.3951  0.4786 -0.0623
18106SOL     OW56085   4.220   7.337   9.539  0.2079 -0.2508 -0.7431
18106SOL    HW156086   4.128   7.344   9.562 -0.7304 -0.6019 -3.9258
18106SOL    HW256087   4.229   7.249   9.502  1.4136  0.3739 -2.0216
18107SOL     OW56088   2.692   9.072   6.353  0.4064 -0.4418  0.2389
18107SOL    HW156089   2.742   9.087   6.272 -1.5868  0.3388 -0.9105
18107SOL    HW256090   2.612   9.027   6.324 -1.7575  2.4506  1.2638
18108SOL     OW56091   3.707   8.132   7.010 -0.5358  0.3634 -0.1925
18108SOL    HW156092   3.738   8.186   6.937  0.5194 -1.8814 -1.4807
18108SOL    HW256093   3.626   8.093   6.977  0.7187 -1.8536 -0.8522
18109SOL     OW56094   8.966   2.025   3.180 -0.1877 -0.4029 -0.6593
18109SOL    HW156095   9.040   2.027   3.240  0.2092  0.9194 -1.1558
18109SOL    HW256096   8.926   1.939   3.194  0.3114 -0.4049  0.9723
18110SOL     OW56097   5.142   4.829   4.595  0.1047  0.3892 -0.3685
18110SOL    HW156098   5.144   4.834   4.500  0.4619  0.7022 -0.3454
18110SOL    HW256099   5.202   4.758   4.618  1.6350  1.6671 -0.2823
18111SOL     OW56100   8.143   1.309   9.720 -0.6609 -0.0083  0.6200
18111SOL    HW156101   8.177   1.275   9.637  0.4031  0.2893  0.9234
18111SOL    HW256102   8.220   1.330   9.772 -1.2965  1.4671  1.0298
18112SOL     OW56103   9.334   8.066   8.579 -0.3969 -0.0185 -0.7697
18112SOL    HW156104   9.239   8.056   8.573 -0.2819 -0.2461 -2.6347
18112SOL    HW256105   9.348   8.161   8.587 -0.8056 -0.0652  0.7929
18113SOL     OW56106   3.737   0.744   6.248  0.0266  0.1490  0.2531
18113SOL    HW156107   3.653   0.705   6.225 -1.0678  1.6519  1.4949
18113SOL    HW256108   3.789   0.737   6.168 -1.6610  0.1562 -0.9121
18114SOL     OW56109   6.037   4.220   3.509  0.0617 -0.1758 -0.0235
18114SOL    HW156110   5.978   4.288   3.541 -1.0204 -0.9298 -0.3518
18114SOL    HW256111   6.028   4.148   3.572  0.2635 -0.4703 -0.3248
18115SOL     OW56112   3.207   3.710   8.344 -0.2197 -0.0023 -0.2369
18115SOL    HW156113   3.178   3.621   8.362  1.5234 -0.6674 -0.4889
18115SOL    HW256114   3.132   3.753   8.303 -1.1524 -1.2737  0.0840
18116SOL     OW56115   0.464   5.576   5.471  0.0311 -0.2320 -0.1040
18116SOL    HW156116   0.488   5.485   5.487  0.0027 -0.1704  0.2968
18116SOL    HW256117   0.376   5.584   5.509 -0.1620 -0.1638 -0.5651
18117SOL     OW56118   0.143   9.793   9.179  0.1989  0.3830 -0.0293
18117SOL    HW156119   0.117   9.765   9.267 -1.8627 -0.0489 -0.7155
18117SOL    HW256120   0.199   9.723   9.146 -0.0342 -0.0525  0.4845
18118SOL     OW56121   6.760   4.363   0.863  0.1972  0.1549  0.2783
18118SOL    HW156122   6.718   4.425   0.803  1.1485  1.0206  0.4829
18118SOL    HW256123   6.733   4.277   0.830 -1.2136  0.6519  0.0376
18119SOL     OW56124   8.985   8.895   7.777 -0.2862  0.7324  0.0297
18119SOL    HW156125   9.000   8.918   7.868  1.0929  1.7326 -0.4180
18119SOL    HW256126   8.908   8.946   7.751 -0.3863  0.8192  0.4974
18120SOL     OW56127   4.304   6.354   9.746  0.8129 -0.1449 -0.0291
18120SOL    HW156128   4.371   6.323   9.807  1.2300  1.8111  0.5699
18120SOL    HW256129   4.232   6.293   9.757  1.4568 -0.6959  1.3318
18121SOL     OW56130   5.449   2.590   7.818 -0.1002  0.4378 -0.2169
18121SOL    HW156131   5.414   2.624   7.735 -3.4975  0.4995  1.0757
18121SOL    HW256132   5.430   2.659   7.882  2.1791  0.2558  0.7465
18122SOL     OW56133   8.695   8.609   7.893  0.0660  0.0355  0.0473
18122SOL    HW156134   8.608   8.636   7.865  0.3112  0.5462 -0.2182
18122SOL    HW256135   8.741   8.584   7.813  0.5163  0.7866  0.0614
18123SOL     OW56136   2.180   1.312   4.962 -0.7308  0.4790  0.3321
18123SOL    HW156137   2.159   1.326   4.869 -2.7174 -2.3163  0.2594
18123SOL    HW256138   2.194   1.218   4.970 -2.4948  0.3416  3.1722
18124SOL     OW56139   8.178   2.188   5.034 -0.0419  0.3864  0.6992
18124SOL    HW156140   8.268   2.158   5.022  0.0586  1.1653 -0.7793
18124SOL    HW256141   8.176   2.222   5.123  0.2866 -2.2845  1.8175
18125SOL     OW56142   2.564   7.886   6.975 -0.4251 -0.5088  0.2810
18125SOL    HW156143   2.514   7.967   6.989  0.5559  0.0477  0.7582
18125SOL    HW256144   2.601   7.867   7.061 -0.8728 -1.6368  0.2324
18126SOL     OW56145   5.090   9.111   5.956 -0.5337 -0.1950 -0.5672
18126SOL    HW156146   5.044   9.049   6.012  1.5315 -2.4489 -1.1969
18126SOL    HW256147   5.110   9.061   5.877 -0.3846  1.8722 -1.9174
18127SOL     OW56148   6.198   0.641   4.114 -0.3856  0.1344 -0.0939
18127SOL    HW156149   6.128   0.628   4.050 -0.0587 -1.6477 -0.1336
18127SOL    HW256150   6.219   0.734   4.107 -2.3225  0.5845 -0.4995
18128SOL     OW56151   0.517   8.776   9.818 -0.3551  0.1417 -0.1158
18128SOL    HW156152   0.421   8.775   9.816 -0.3634  0.1980 -2.1305
18128SOL    HW256153   0.541   8.684   9.827 -0.5848  0.1415  0.5587
18129SOL     OW56154   5.728   9.707   6.535  0.3354  0.5104  0.1210
18129SOL    HW156155   5.663   9.735   6.471 -1.4697 -0.7625  1.3163
18129SOL    HW256156   5.806   9.687   6.483 -0.7195  0.5502 -1.5426
18130SOL     OW56157   0.305   7.041   6.054  0.0217 -0.5004  0.4516
18130SOL    HW156158   0.240   7.015   5.988 -0.3569 -1.1467  1.0667
18130SOL    HW256159   0.300   7.136   6.057  1.3731 -0.2921 -1.8043
18131SOL     OW56160   3.501   9.847   9.842  0.2075  0.6306 -0.0806
18131SOL    HW156161   3.510   9.773   9.782  0.0190 -1.9100  2.7728
18131SOL    HW256162   3.436   9.904   9.800 -1.2698 -1.8840 -1.4834
18132SOL     OW56163   5.061   4.684   5.583 -0.1508 -0.1410  0.7328
18132SOL    HW156164   5.095   4.620   5.645 -0.6980  0.4306  1.6414
18132SOL    HW256165   5.098   4.768   5.610 -1.3619  0.3129  1.0629
18133SOL     OW56166   3.994   6.430   8.331  0.1063  0.0153 -0.0685
18133SOL    HW156167   4.046   6.398   8.257  0.1403 -1.1573  0.4407
18133SOL    HW256168   3.919   6.371   8.334  0.8999 -0.9704  1.8026
18134SOL     OW56169   1.743   9.726   0.453 -0.0645 -0.5663  0.2227
18134SOL    HW156170   1.834   9.698   0.462  0.2857 -0.1063 -1.4898
18134SOL    HW256171   1.748   9.805   0.400 -1.4153 -0.0320  0.8534
18135SOL     OW56172   3.317   7.035   1.062  0.1144 -0.3613  0.4045
18135SOL    HW156173   3.224   7.018   1.072  0.1048  0.5373  2.4230
18135SOL    HW256174   3.346   6.974   0.995 -2.3676  0.9611 -2.0529
18136SOL     OW56175   3.817   8.881   7.857 -0.2527  0.1835 -0.8135
18136SOL    HW156176   3.883   8.925   7.911  1.3379 -2.1794 -0.6274
18136SOL    HW256177   3.784   8.948   7.798  0.7942  1.9421  0.5148
18137SOL     OW56178   9.848   8.825   6.430 -0.2748 -0.5072  1.0984
18137SOL    HW156179   9.916   8.810   6.496  0.4987  0.0369  0.4483
18137SOL    HW256180   9.893   8.811   6.346 -1.5279 -2.3801  0.6718
18138SOL     OW56181   1.882   5.058   7.676 -0.6028 -0.2824  0.4211
18138SOL    HW156182   1.912   5.001   7.747 -1.3396 -1.5646 -0.2645
18138SOL    HW256183   1.929   5.026   7.599 -1.3021 -0.1930 -0.0462
18139SOL     OW56184   8.893   5.383   7.056  0.1805  0.1032 -0.0365
18139SOL    HW156185   8.873   5.305   7.004  0.4690  0.3169 -0.4741
18139SOL    HW256186   8.896   5.454   6.993  0.4902  0.3761  0.2809
18140SOL     OW56187   7.655   2.572   6.751 -0.2418 -0.2565 -0.0801
18140SOL    HW156188   7.581   2.530   6.707  0.1188 -0.3048 -0.6446
18140SOL    HW256189   7.684   2.639   6.690 -1.3400  1.4253  1.1675
18141SOL     OW56190   6.896   9.142   6.226 -0.3947 -0.0447 -0.0913
18141SOL    HW156191   6.847   9.186   6.156 -1.5496 -0.8250  0.2057
18141SOL    HW256192   6.843   9.066   6.249  1.9214 -2.1477 -1.1608
18142SOL     OW56193   1.951   8.364   6.027 -0.1595  0.1668 -0.1640
18142SOL    HW156194   1.990   8.294   6.081 -1.5654  0.7624  1.7100
18142SOL    HW256195   1.899   8.317   5.962 -0.5961 -0.5546  0.6857
18143SOL     OW56196   5.545   3.541   1.726 -0.0366 -0.0812  0.1601
18143SOL    HW156197   5.484   3.577   1.790 -2.2539  0.1624 -1.9419
18143SOL    HW256198   5.499   3.466   1.688  2.1917 -1.7268  0.4876
18144SOL     OW56199   4.460   4.240   1.031  0.2370 -1.0046 -0.1028
18144SOL    HW156200   4.418   4.154   1.037  0.1964 -0.9162  1.0937
18144SOL    HW256201   4.544   4.222   0.989  0.6259 -1.7991  0.9620
18145SOL     OW56202   2.738   3.583   2.523 -0.1300 -0.5799 -0.0603
18145SOL    HW156203   2.727   3.678   2.524 -1.0567 -0.6699  0.1694
18145SOL    HW256204   2.830   3.569   2.502 -0.4161  0.3267 -2.1092
18146SOL     OW56205   8.060   8.357   7.099  0.4112  0.6747  0.0369
18146SOL    HW156206   8.042   8.273   7.141 -1.4616  0.0621 -1.7902
18146SOL    HW256207   8.084   8.334   7.009 -0.0991  2.0905 -0.4927
18147SOL     OW56208   3.773   0.940   2.885  0.3214  0.4542 -0.1696
18147SOL    HW156209   3.816   0.873   2.832 -0.2876 -1.9424  2.1455
18147SOL    HW256210   3.844   0.979   2.936  0.6591  1.5570 -1.4295
18148SOL     OW56211   9.580   8.547   8.704 -0.1816 -0.0080 -0.1781
18148SOL    HW156212   9.593   8.502   8.788  1.3394  0.9046  0.1182
18148SOL    HW256213   9.605   8.637   8.722 -2.5445  0.8811 -0.9237
18149SOL     OW56214   1.483   5.816   7.203  0.9533  0.0381 -0.0490
18149SOL    HW156215   1.486   5.841   7.111  1.0219  0.5496  0.0876
18149SOL    HW256216   1.502   5.897   7.251  3.0091 -0.6156  0.3688
18150SOL     OW56217   6.097   1.931   0.028  0.3642 -0.6868 -0.1034
18150SOL    HW156218   6.127   1.982   0.103 -0.4500  0.1703 -0.3451
18150SOL    HW256219   6.134   1.974  -0.048 -1.2950  0.3172 -0.3959
18151SOL     OW56220   5.808   2.617   3.749  0.3225 -0.5489  0.2351
18151SOL    HW156221   5.862   2.677   3.800  0.6645  0.7567 -1.5548
18151SOL    HW256222   5.719   2.653   3.754  0.0017 -1.4416  1.3475
18152SOL     OW56223   9.253   3.648   6.002  0.1457  0.3481  0.1459
18152SOL    HW156224   9.334   3.602   6.025  0.9876  2.1384  0.9884
18152SOL    HW256225   9.256   3.657   5.907  0.6673 -0.0770  0.1167
18153SOL     OW56226   2.683   4.319   7.465  0.8865 -0.0465  0.2219
18153SOL    HW156227   2.715   4.300   7.553  0.6191 -3.4510 -0.2674
18153SOL    HW256228   2.738   4.266   7.407 -1.4863 -1.1186 -1.2155
18154SOL     OW56229   7.919   7.440   4.196  0.4753  0.1018 -0.1840
18154SOL    HW156230   7.978   7.445   4.121  0.8901  1.0064  0.1839
18154SOL    HW256231   7.914   7.530   4.228 -2.6623  0.4936 -1.3752
18155SOL     OW56232   0.204   6.224   3.555  0.2369  0.6402  0.0168
18155SOL    HW156233   0.112   6.200   3.554 -0.0496  1.6496  0.5528
18155SOL    HW256234   0.245   6.166   3.491 -0.8885  0.6625 -0.7475
18156SOL     OW56235   3.110   2.681   6.376  0.5392  0.3265  0.5805
18156SOL    HW156236   3.139   2.596   6.345  2.5265  0.8343  0.9075
18156SOL    HW256237   3.046   2.710   6.311 -0.2021 -1.3952  0.4912
18157SOL     OW56238   3.126   1.939   6.052  0.3097  0.3593 -0.0688
18157SOL    HW156239   3.084   1.879   5.990  0.2741  0.2936  0.0184
18157SOL    HW256240   3.211   1.959   6.012 -0.2904  1.4520 -0.8343
18158SOL     OW56241   0.317   1.896   0.403 -0.8601 -0.6523 -0.4607
18158SOL    HW156242   0.303   1.945   0.483  0.1688 -0.8509 -0.1504
18158SOL    HW256243   0.347   1.961   0.339 -1.2625 -0.5691 -0.5674
18159SOL     OW56244   2.239   0.614   2.754  0.4617 -0.2794 -0.8799
18159SOL    HW156245   2.199   0.660   2.681 -0.4085 -1.1845 -0.9990
18159SOL    HW256246   2.244   0.523   2.725  0.3624 -0.6039  0.0716
18160SOL     OW56247   7.977   9.009   2.001  0.2389 -0.0396  0.0210
18160SOL    HW156248   8.055   8.995   2.054  0.9010 -0.0334 -0.9210
18160SOL    HW256249   7.910   9.037   2.063  1.4620  1.7205  0.6157
18161SOL     OW56250   2.966   8.526   8.331 -0.4836 -0.0008 -0.1197
18161SOL    HW156251   2.910   8.461   8.287 -0.5267  0.3533 -0.6002
18161SOL    HW256252   2.965   8.500   8.423 -2.0454  0.4144  0.0066
18162SOL     OW56253   8.993   7.746   7.834 -0.0370 -0.4214  0.8965
18162SOL    HW156254   9.069   7.798   7.808 -0.3575  0.4605  1.6598
18162SOL    HW256255   8.918   7.790   7.793 -0.3171 -0.2316  1.5976
18163SOL     OW56256   5.354   1.555   7.708 -0.0693 -0.3656 -0.0382
18163SOL    HW156257   5.328   1.498   7.636  1.2568 -0.7722 -0.2103
18163SOL    HW256258   5.295   1.530   7.780 -2.9497  1.5565 -1.5262
18164SOL     OW56259   4.992   5.772   2.483 -0.2142 -0.3031  0.2604
18164SOL    HW156260   5.022   5.709   2.418  0.4065 -0.2863  0.5215
18164SOL    HW256261   4.896   5.770   2.477 -0.2562 -2.0919  1.0390
18165SOL     OW56262   9.658   5.852   1.530  0.1398  0.0245  0.4829
18165SOL    HW156263   9.590   5.839   1.464  0.3912 -0.0724  0.2411
18165SOL    HW256264   9.692   5.765   1.548  1.1265  0.2085 -0.3925
18166SOL     OW56265   7.312   0.864   9.525 -0.3351 -0.1690 -0.5078
18166SOL    HW156266   7.244   0.913   9.571 -0.3431 -0.1074 -0.5838
18166SOL    HW256267   7.393   0.912   9.543 -0.3128 -0.2395 -0.4216
18167SOL     OW56268   3.564   0.777   7.741  0.0061 -0.6163 -0.2430
18167SOL    HW156269   3.536   0.832   7.815  3.2252 -0.1433  0.7816
18167SOL    HW256270   3.549   0.832   7.664 -2.5779 -0.7808  0.0426
18168SOL     OW56271   0.014   0.237   6.764 -0.9669  0.0315  0.6230
18168SOL    HW156272   0.070   0.285   6.825 -2.0449 -0.5858  2.1588
18168SOL    HW256273   0.075   0.190   6.707  0.1070 -0.4535  2.1046
18169SOL     OW56274   3.448   4.320   1.860 -0.1949  0.4216 -0.0865
18169SOL    HW156275   3.434   4.289   1.950  1.8967 -0.3111  0.0408
18169SOL    HW256276   3.502   4.252   1.819  0.2212  1.4993 -1.4080
18170SOL     OW56277   1.216   1.608   9.674 -0.0699 -0.8263  0.3889
18170SOL    HW156278   1.232   1.608   9.579  2.2444  1.6868  0.6508
18170SOL    HW256279   1.128   1.644   9.684  0.2142  0.2804 -0.8108
18171SOL     OW56280   4.157   1.490   9.847  0.3299 -0.2336 -1.0170
18171SOL    HW156281   4.155   1.530   9.760  2.9544 -0.8940 -1.4901
18171SOL    HW256282   4.181   1.562   9.906 -0.0228 -0.0721 -1.0725
18172SOL     OW56283   7.993   4.182   1.472  0.0139 -0.2127 -0.3816
18172SOL    HW156284   8.084   4.156   1.458  0.7733  1.2684  1.4408
18172SOL    HW256285   7.998   4.258   1.530 -2.0624  3.6144 -4.5742
18173SOL     OW56286   0.908   0.866   5.766  0.1782 -0.0999 -0.1566
18173SOL    HW156287   0.992   0.829   5.791  0.4627  0.7300  0.1285
18173SOL    HW256288   0.929   0.938   5.708 -0.3933 -0.6314 -1.0649
18174SOL     OW56289   5.878   8.884   7.381 -0.0557  0.4234  0.2454
18174SOL    HW156290   5.870   8.952   7.314  1.8231  0.0136 -0.4484
18174SOL    HW256291   5.884   8.932   7.463 -3.4944  0.9140  0.3500
18175SOL     OW56292   8.618   9.242   9.148 -0.3045  0.0725 -0.2906
18175SOL    HW156293   8.595   9.177   9.214  1.7754 -0.3458  0.1128
18175SOL    HW256294   8.597   9.201   9.064  0.9235 -1.1392 -0.0402
18176SOL     OW56295   4.717   9.266   7.280  0.3461  0.1830 -0.0227
18176SOL    HW156296   4.800   9.314   7.278 -0.5180  1.7363  0.1924
18176SOL    HW256297   4.688   9.272   7.371  0.3233 -0.9822  0.0693
18177SOL     OW56298   2.034   2.468   6.433  0.2105  0.1456  0.2593
18177SOL    HW156299   2.020   2.414   6.356  0.6373 -0.7227  0.7757
18177SOL    HW256300   1.946   2.498   6.457 -0.2574 -1.5388  0.8154
18178SOL     OW56301   5.826   6.821   3.543 -0.3729 -0.0965 -0.5178
18178SOL    HW156302   5.909   6.777   3.522  0.1536  0.5673  0.1588
18178SOL    HW256303   5.783   6.762   3.604  0.2210  0.1965  0.1951
18179SOL     OW56304   9.266   0.718   8.632 -0.1068 -0.2145  0.9275
18179SOL    HW156305   9.275   0.624   8.618 -0.8362 -0.2491  0.6212
18179SOL    HW256306   9.297   0.757   8.550 -0.6639 -0.2370  0.6998
18180SOL     OW56307   3.992   3.524   9.361  0.5380 -0.3492  0.2861
18180SOL    HW156308   3.987   3.584   9.436 -0.3996  0.3836 -0.3521
18180SOL    HW256309   4.022   3.578   9.289  1.0422 -0.9706  0.0127
18181SOL     OW56310   8.817   6.821   1.892 -0.1157  0.3397  0.3365
18181SOL    HW156311   8.839   6.729   1.906  1.6474  0.7099  0.2331
18181SOL    HW256312   8.752   6.820   1.822  1.0605 -0.7707 -0.7939
18182SOL     OW56313   8.388   2.328   2.391 -0.3300  0.3439 -0.0983
18182SOL    HW156314   8.383   2.360   2.481 -1.5448  0.5293 -0.2263
18182SOL    HW256315   8.421   2.238   2.400  2.3240  1.2496  0.3090
18183SOL     OW56316   8.159   8.510   3.410  0.0211 -0.2717 -0.4511
18183SOL    HW156317   8.161   8.466   3.325  0.1684  0.0295 -0.6065
18183SOL    HW256318   8.128   8.599   3.391  2.7510  0.7562 -0.6601
18184SOL     OW56319   1.544   6.831   2.134  0.4141 -0.6730 -0.1992
18184SOL    HW156320   1.629   6.812   2.094  1.4191  2.2542  0.3037
18184SOL    HW256321   1.501   6.891   2.073 -0.3114 -0.3322  0.6160
18185SOL     OW56322   3.468   0.329   3.210  0.6784 -0.2980 -0.4285
18185SOL    HW156323   3.403   0.360   3.272  1.1413  1.4230 -0.7535
18185SOL    HW256324   3.506   0.252   3.251 -0.2037 -0.1906  0.6307
18186SOL     OW56325   9.694   4.845   3.278 -0.4172 -1.0307 -1.1776
18186SOL    HW156326   9.763   4.834   3.213 -0.0684  1.6096 -1.3407
18186SOL    HW256327   9.681   4.939   3.285  0.4654 -1.0037  3.5024
18187SOL     OW56328   5.261   3.085   7.612  0.0770  0.1809  0.0119
18187SOL    HW156329   5.213   3.030   7.673  0.1936  0.1139  0.0442
18187SOL    HW256330   5.341   3.109   7.660 -1.4052  3.0411  1.2921
18188SOL     OW56331   5.250   8.279   1.713 -0.5648 -0.4904 -0.4015
18188SOL    HW156332   5.312   8.350   1.729 -0.4761 -0.8982  1.3218
18188SOL    HW256333   5.271   8.247   1.625  0.5200  0.4937 -0.5174
18189SOL     OW56334   6.628   8.250   4.580 -0.5376 -0.4867  0.1905
18189SOL    HW156335   6.713   8.210   4.598  0.0458  0.6420  0.0294
18189SOL    HW256336   6.579   8.242   4.662 -0.5774 -1.8448  0.0467
18190SOL     OW56337   3.341   8.022   6.542 -0.6924 -0.3443  0.2813
18190SOL    HW156338   3.314   8.030   6.450 -0.7269 -0.7448  0.2545
18190SOL    HW256339   3.335   8.111   6.577 -2.5390 -0.4869  0.4128
18191SOL     OW56340   3.256   1.729   4.554 -0.5389 -0.3091  0.2236
18191SOL    HW156341   3.221   1.647   4.518  0.3416 -0.2620 -0.8177
18191SOL    HW256342   3.260   1.714   4.648 -2.2155 -0.7286  0.2604
18192SOL     OW56343   7.929   6.574   5.378 -0.2727 -0.0463  0.2852
18192SOL    HW156344   7.901   6.665   5.388 -1.3844 -0.2877 -0.3878
18192SOL    HW256345   8.024   6.578   5.372 -0.3258  1.0984 -0.0342
18193SOL     OW56346   1.898   2.958   3.698  0.2858  0.1055 -0.2373
18193SOL    HW156347   1.882   2.870   3.664 -1.0502  0.1403  0.2507
18193SOL    HW256348   1.978   2.987   3.653 -0.4001 -0.5426 -1.9465
18194SOL     OW56349   2.882   9.578   1.351 -0.3722 -0.2999  0.1599
18194SOL    HW156350   2.817   9.519   1.390 -0.5391 -0.6737 -0.6725
18194SOL    HW256351   2.847   9.666   1.369  0.0481 -0.4111  1.7092
18195SOL     OW56352   2.175   9.736   3.384 -0.3022  0.3898 -0.1478
18195SOL    HW156353   2.178   9.791   3.462  0.0659  1.0027 -0.5866
18195SOL    HW256354   2.253   9.761   3.334  0.2595 -1.0183 -0.0332
18196SOL     OW56355   5.035   8.939   4.343 -0.3469  0.0095  0.1805
18196SOL    HW156356   5.084   8.860   4.319 -0.4916  0.4910 -1.9306
18196SOL    HW256357   5.092   9.011   4.316 -1.7994  0.5785 -1.5528
18197SOL     OW56358   9.084   6.918   5.471 -0.0466 -0.0755  0.1503
18197SOL    HW156359   9.005   6.967   5.495 -1.7186 -2.5382  0.0570
18197SOL    HW256360   9.092   6.931   5.377 -1.2359 -0.9363 -0.0985
18198SOL     OW56361   0.974   1.415   5.444  0.0404 -0.3866  0.0892
18198SOL    HW156362   0.966   1.376   5.531 -2.3930 -0.0287  0.1046
18198SOL    HW256363   0.980   1.340   5.385  0.8694 -0.6429  0.4776
18199SOL     OW56364   5.545   5.184   6.107  0.1883 -0.1608 -0.0464
18199SOL    HW156365   5.619   5.242   6.122 -0.0679  0.4566 -1.0635
18199SOL    HW256366   5.575   5.123   6.041 -0.1629  0.0244 -0.3841
18200SOL     OW56367   5.948   1.814   3.623  0.3469  0.2117 -0.5953
18200SOL    HW156368   6.041   1.811   3.601  0.4928 -0.0737  0.0385
18200SOL    HW256369   5.918   1.899   3.591  1.1186  0.8547  0.3321
18201SOL     OW56370   7.355   8.635   0.216  0.4598  0.5599 -0.6922
18201SOL    HW156371   7.315   8.561   0.261 -2.8517  2.0069 -0.9506
18201SOL    HW256372   7.368   8.701   0.285  0.4636  0.8514 -0.9658
18202SOL     OW56373   6.231   1.245   8.562  0.1433 -0.6344  1.1219
18202SOL    HW156374   6.196   1.197   8.487  0.6854 -0.3787  0.6988
18202SOL    HW256375   6.154   1.286   8.602  0.0140  0.3429 -0.0893
18203SOL     OW56376   1.318   7.477   1.014 -0.0267 -0.5389  0.6253
18203SOL    HW156377   1.286   7.389   0.992  0.4799 -0.9029  1.3088
18203SOL    HW256378   1.248   7.535   0.986 -1.1516 -1.2975  1.7499
18204SOL     OW56379   3.500   8.589   4.584  0.5318 -0.6537  0.6906
18204SOL    HW156380   3.420   8.537   4.590  0.7436 -1.0867 -0.0358
18204SOL    HW256381   3.517   8.617   4.674 -0.0666 -1.1164  0.9607
18205SOL     OW56382   9.289   1.264   0.797 -0.8795 -0.0173 -0.4737
18205SOL    HW156383   9.236   1.189   0.771  0.4997 -1.7157  1.3795
18205SOL    HW256384   9.377   1.229   0.806 -0.6585  1.1241  3.1131
18206SOL     OW56385   8.207   6.035   1.984  0.2109  0.3544 -0.3372
18206SOL    HW156386   8.185   6.126   2.007  0.0690  0.0345  0.8925
18206SOL    HW256387   8.188   5.986   2.064  0.2193 -0.7753 -1.0122
18207SOL     OW56388   6.874   4.235   1.454 -0.4332 -0.0516 -0.9337
18207SOL    HW156389   6.907   4.148   1.475  1.4128  0.2787 -2.3027
18207SOL    HW256390   6.872   4.280   1.539  1.1547 -0.6027 -0.5734
18208SOL     OW56391   5.785   6.679   2.117  0.0255 -0.1914  0.1330
18208SOL    HW156392   5.824   6.749   2.064 -0.3443 -0.0869 -0.0074
18208SOL    HW256393   5.859   6.635   2.157  0.2241  1.5868  1.9032
18209SOL     OW56394   7.529   1.153   2.968 -0.8412  0.3987  0.3292
18209SOL    HW156395   7.475   1.117   3.039 -0.7448 -0.0601  0.1671
18209SOL    HW256396   7.476   1.225   2.934 -0.4717  1.2576  1.5007
18210SOL     OW56397   2.715   9.614   3.014  0.1671  0.1767 -0.1445
18210SOL    HW156398   2.737   9.690   2.959 -0.6668  0.2930 -0.3244
18210SOL    HW256399   2.649   9.646   3.075 -0.9955 -0.6621 -0.9185
18211SOL     OW56400   8.660   6.855   4.925 -0.2053  0.5671  0.2879
18211SOL    HW156401   8.733   6.890   4.976  0.0124  1.3715 -0.5390
18211SOL    HW256402   8.700   6.827   4.842 -0.8227  1.0810 -0.1981
18212SOL     OW56403   1.361   4.810   6.539 -0.6331  0.0258 -0.0090
18212SOL    HW156404   1.297   4.774   6.599 -1.4171 -1.0665 -1.4401
18212SOL    HW256405   1.313   4.877   6.489 -0.4444 -0.2076 -0.5154
18213SOL     OW56406   1.561   1.933   8.299 -0.5434 -0.5226  0.5687
18213SOL    HW156407   1.495   1.966   8.359  1.2724  0.4116  2.1575
18213SOL    HW256408   1.526   1.952   8.212 -2.2639  0.0857  1.3514
18214SOL     OW56409   8.117   7.592   0.568  0.2059 -0.4625 -0.0520
18214SOL    HW156410   8.083   7.681   0.563 -0.5321 -0.5553  2.2762
18214SOL    HW256411   8.065   7.543   0.504  0.3966  0.6740 -1.1204
18215SOL     OW56412   1.649   5.173   3.884 -0.2660  0.7756 -0.4061
18215SOL    HW156413   1.655   5.185   3.789 -0.9343 -0.8780 -0.6865
18215SOL    HW256414   1.671   5.081   3.898 -0.8234  0.8321  0.9832
18216SOL     OW56415   7.500   3.983   7.499 -0.1754  0.1755  0.7853
18216SOL    HW156416   7.582   4.028   7.479 -1.1591  1.5682 -0.2303
18216SOL    HW256417   7.436   4.018   7.437 -0.4553 -4.6789 -2.2540
18217SOL     OW56418   3.337   3.364   6.488 -0.0957  0.3098  0.2198
18217SOL    HW156419   3.381   3.442   6.521 -3.0014  1.5194  1.5944
18217SOL    HW256420   3.312   3.315   6.567 -0.6428 -0.6588 -0.5217
18218SOL     OW56421   3.945   6.561   1.478  0.0374 -0.3491 -0.1397
18218SOL    HW156422   3.918   6.584   1.567 -0.9983 -0.7019 -0.3459
18218SOL    HW256423   4.035   6.529   1.487 -0.3868 -1.3081  0.9430
18219SOL     OW56424   2.791   9.019   7.022  0.1253 -0.0478  0.0213
18219SOL    HW156425   2.824   8.935   7.055  1.5173  0.2697 -0.5164
18219SOL    HW256426   2.779   9.073   7.101  1.1727 -0.0832  0.2215
18220SOL     OW56427   7.523   0.383   2.780  0.2311 -0.4204  0.3758
18220SOL    HW156428   7.616   0.377   2.803 -0.1658 -1.6326  1.8601
18220SOL    HW256429   7.514   0.328   2.702  0.9734  0.7828 -0.5847
18221SOL     OW56430   6.661   7.434   3.188 -0.0815  0.4681 -0.0092
18221SOL    HW156431   6.698   7.349   3.211 -0.8432 -0.3922 -1.8019
18221SOL    HW256432   6.678   7.488   3.265  1.3242 -0.9954  0.7817
18222SOL     OW56433   6.280   6.291   2.719  0.9422 -0.0233  0.0876
18222SOL    HW156434   6.290   6.262   2.629  0.7437  1.0952 -0.3062
18222SOL    HW256435   6.269   6.386   2.713 -1.8283 -0.2008  1.0502
18223SOL     OW56436   9.147   6.192   3.948 -0.3010 -0.4689  0.3373
18223SOL    HW156437   9.234   6.208   3.912 -0.5477  0.6115  0.1892
18223SOL    HW256438   9.159   6.190   4.043 -0.2233  0.4731  0.3571
18224SOL     OW56439   2.898   6.068   4.445  0.8342 -0.0945 -0.1623
18224SOL    HW156440   2.878   6.081   4.538 -0.3200 -0.1906 -0.3913
18224SOL    HW256441   2.815   6.083   4.400  0.8347 -2.2718 -0.9972
18225SOL     OW56442   3.531   2.517   3.002 -0.1033 -0.5780  0.0917
18225SOL    HW156443   3.529   2.560   2.917  1.1526  0.2809  0.4614
18225SOL    HW256444   3.444   2.531   3.038 -0.1034  0.6077 -0.3235
18226SOL     OW56445   6.358   5.338   3.245  0.2844  0.7352  0.0222
18226SOL    HW156446   6.301   5.335   3.168  1.0359 -0.5153 -0.5174
18226SOL    HW256447   6.329   5.415   3.293 -2.5824 -0.3809  0.3246
18227SOL     OW56448   0.977   9.535   9.162 -0.1448 -0.0100  0.2549
18227SOL    HW156449   0.942   9.607   9.108  2.8424  0.0605 -1.8150
18227SOL    HW256450   1.010   9.578   9.241 -1.5653  0.3534  0.6826
18228SOL     OW56451   5.263   0.842   2.075  0.1435  0.0429 -0.0550
18228SOL    HW156452   5.191   0.780   2.064  1.8661 -1.8332 -1.5862
18228SOL    HW256453   5.250   0.879   2.162 -2.0821 -0.9375  0.1054
18229SOL     OW56454   2.638   5.174   2.875 -0.2061  0.1472 -0.3316
18229SOL    HW156455   2.729   5.163   2.849 -0.5584 -3.3527 -0.5604
18229SOL    HW256456   2.594   5.208   2.798  0.4164 -1.1363 -1.2904
18230SOL     OW56457   8.322   6.309   1.864 -0.3697 -0.0102  0.3447
18230SOL    HW156458   8.340   6.392   1.821  0.5292  0.5232  1.6749
18230SOL    HW256459   8.248   6.328   1.923 -1.1306 -0.5475 -0.4155
18231SOL     OW56460   2.137   8.633   2.008  0.0899 -0.4848 -0.0938
18231SOL    HW156461   2.048   8.603   2.024 -0.0406 -0.1638 -0.2344
18231SOL    HW256462   2.130   8.693   1.934  0.2166  0.6312  0.7723
18232SOL     OW56463   0.130   1.114   1.935  0.0517 -0.3459 -0.0030
18232SOL    HW156464   0.136   1.057   2.012  4.5324  0.3304  0.4115
18232SOL    HW256465   0.198   1.082   1.876  1.0753  3.0303 -0.8352
18233SOL     OW56466   7.756   4.578   8.171 -0.5398 -0.4718 -0.4353
18233SOL    HW156467   7.811   4.555   8.096  0.6754 -1.8173  0.8107
18233SOL    HW256468   7.725   4.667   8.152  3.1420  0.9130 -0.6334
18234SOL     OW56469   1.290   9.813   8.153 -0.1504 -0.4664 -0.2847
18234SOL    HW156470   1.329   9.808   8.066  1.6336  0.6140  0.3977
18234SOL    HW256471   1.332   9.889   8.194 -1.6399 -0.3785  1.1940
18235SOL     OW56472   8.979   2.671   8.948 -0.2411  0.3251  0.3615
18235SOL    HW156473   8.937   2.736   8.892  1.2196  1.0109  0.0183
18235SOL    HW256474   8.930   2.590   8.933  0.1076  0.4879 -1.9080
18236SOL     OW56475   0.430   5.284   6.875  0.1680  0.4107 -0.4826
18236SOL    HW156476   0.511   5.255   6.918  0.9518  1.0677 -1.4784
18236SOL    HW256477   0.423   5.377   6.895  0.9917  0.9276 -2.4075
18237SOL     OW56478   8.922   3.604   6.661 -0.4902  0.3888 -0.1727
18237SOL    HW156479   8.835   3.640   6.675 -0.4393  0.9526 -1.2603
18237SOL    HW256480   8.910   3.532   6.600 -0.2366  0.2308 -0.0422
18238SOL     OW56481   5.404   2.475   5.863 -0.4174 -0.4005  0.1866
18238SOL    HW156482   5.484   2.527   5.858 -0.0468 -0.6473  2.4547
18238SOL    HW256483   5.338   2.529   5.818  1.0542 -0.4397 -2.2039
18239SOL     OW56484   3.073   8.964   1.105 -0.3078 -0.3619 -0.8531
18239SOL    HW156485   3.026   9.035   1.061 -0.4983 -0.9000 -1.5401
18239SOL    HW256486   3.007   8.896   1.120 -0.0617 -0.5300 -0.4993
18240SOL     OW56487   6.453   4.446   1.904  0.2833  0.0446  0.3325
18240SOL    HW156488   6.544   4.446   1.933  0.1211 -0.0292  0.8646
18240SOL    HW256489   6.449   4.381   1.834  1.0865  1.5398 -1.1678
18241SOL     OW56490   6.674   8.948   0.821 -0.1279 -0.1453 -0.3617
18241SOL    HW156491   6.670   8.936   0.726 -2.0391 -0.1718 -0.3197
18241SOL    HW256492   6.763   8.980   0.838  0.2150 -0.0638 -2.1599
18242SOL     OW56493   0.844   6.394   1.741  0.6901  0.0289  0.3617
18242SOL    HW156494   0.827   6.307   1.777  0.8636 -0.1155  0.1020
18242SOL    HW256495   0.916   6.428   1.794  1.0570 -0.2509  0.0497
18243SOL     OW56496   7.330   6.560   0.666 -0.4685 -0.0285  0.5242
18243SOL    HW156497   7.241   6.541   0.695  0.0660 -3.1981  0.4070
18243SOL    HW256498   7.386   6.506   0.721  1.5041  2.1416  0.8404
18244SOL     OW56499   3.140   3.198   3.828  0.0239  0.5261 -0.1032
18244SOL    HW156500   3.116   3.181   3.738  2.1951 -0.5830 -0.5417
18244SOL    HW256501   3.099   3.127   3.878 -0.0364  0.3459 -0.4068
18245SOL     OW56502   5.894   2.984   6.818 -0.0374 -0.2729 -0.3867
18245SOL    HW156503   5.919   2.932   6.894 -1.8990  1.8803  1.8951
18245SOL    HW256504   5.973   3.033   6.796 -0.0270  0.8093  1.7640
18246SOL     OW56505   7.026   2.741   2.019 -0.3230 -0.3665 -0.4217
18246SOL    HW156506   7.047   2.794   2.097  0.6515 -0.2445 -0.7642
18246SOL    HW256507   6.945   2.780   1.986 -0.7392 -0.4051  0.5205
18247SOL     OW56508   6.615   1.714   3.429 -0.0096  0.0171  0.9362
18247SOL    HW156509   6.640   1.714   3.336 -1.2978 -0.9320  0.5519
18247SOL    HW256510   6.668   1.645   3.468  0.3210  0.2141  0.8331
18248SOL     OW56511   4.001   2.572   7.449  0.1602 -0.7985  0.4271
18248SOL    HW156512   4.035   2.489   7.482 -1.3582 -1.8896 -0.6129
18248SOL    HW256513   3.932   2.596   7.511  0.5401 -0.3382  0.6801
18249SOL     OW56514   3.478   2.373   5.875 -0.3056 -0.5825  0.2586
18249SOL    HW156515   3.530   2.433   5.822 -1.4879  0.3420  0.0905
18249SOL    HW256516   3.450   2.426   5.950 -0.5489 -1.2104  0.6170
18250SOL     OW56517   4.193   3.756   0.763  0.0437  0.1924  0.1707
18250SOL    HW156518   4.172   3.755   0.669 -1.0198  0.6984  0.3952
18250SOL    HW256519   4.137   3.688   0.800  0.8743 -0.3980  0.3667
18251SOL     OW56520   7.818   9.520   3.162 -0.1773  0.4704 -0.3303
18251SOL    HW156521   7.769   9.487   3.087  0.7666  0.4727 -0.9697
18251SOL    HW256522   7.763   9.588   3.200 -0.4687  0.7872 -1.2990
18252SOL     OW56523   5.696   4.633   4.100 -0.2689  0.5548 -0.1328
18252SOL    HW156524   5.743   4.624   4.017  0.0940  0.5465  0.0720
18252SOL    HW256525   5.689   4.727   4.114  3.4542  0.6902  1.9246
18253SOL     OW56526   8.503   2.558   4.132  0.0239 -0.4141 -0.2060
18253SOL    HW156527   8.428   2.503   4.109 -0.3413 -0.7223  1.5575
18253SOL    HW256528   8.570   2.497   4.163  1.0924 -0.1504 -1.8695
18254SOL     OW56529   1.343   1.322   3.383 -0.4998  0.0473  0.1955
18254SOL    HW156530   1.297   1.405   3.371  0.5730  0.3762 -2.4446
18254SOL    HW256531   1.302   1.262   3.321 -1.2984 -1.4971  2.1120
18255SOL     OW56532   0.639   4.231   1.458 -0.3937  0.2525  0.0566
18255SOL    HW156533   0.726   4.227   1.498 -0.0119 -1.5854 -0.8678
18255SOL    HW256534   0.593   4.298   1.509  0.9714 -0.0055  1.7360
18256SOL     OW56535   9.029   5.917   3.304  0.6328 -0.6165 -0.1549
18256SOL    HW156536   9.085   5.915   3.381  2.1007 -0.9028 -1.1684
18256SOL    HW256537   9.089   5.898   3.231 -1.0094 -2.2364 -1.1773
18257SOL     OW56538   5.603   3.539   0.003  0.0251  0.5828 -0.0730
18257SOL    HW156539   5.670   3.575   0.061  0.2997 -0.2753  0.1571
18257SOL    HW256540   5.636   3.452  -0.021 -1.0597  0.0945  0.1478
18258SOL     OW56541   6.579   6.841   8.089 -0.4889  0.0777 -0.2426
18258SOL    HW156542   6.651   6.829   8.151  0.1463 -0.2057 -1.0244
18258SOL    HW256543   6.501   6.848   8.144  0.1304  0.3888  0.6154
18259SOL     OW56544   7.785   4.980   8.622 -0.0746  0.2318 -0.0212
18259SOL    HW156545   7.745   5.066   8.610  0.2507  0.3613 -0.1807
18259SOL    HW256546   7.876   4.992   8.595  0.1102 -0.0277  0.4702
18260SOL     OW56547   1.791   8.563   3.299  0.4912 -0.2105  0.2929
18260SOL    HW156548   1.808   8.559   3.393  0.7579  0.8709  0.3051
18260SOL    HW256549   1.835   8.486   3.263  1.2977 -0.0565  0.9294
18261SOL     OW56550   8.370   9.631   5.712  0.0367  0.7730  0.2328
18261SOL    HW156551   8.357   9.687   5.635 -0.9072 -0.1445 -0.2941
18261SOL    HW256552   8.438   9.676   5.763  0.4557  1.5530 -0.9747
18262SOL     OW56553   0.537   5.813   3.231  0.6461 -0.0421 -0.1920
18262SOL    HW156554   0.558   5.904   3.213  0.6851  0.0508  0.3120
18262SOL    HW256555   0.506   5.812   3.321 -0.6842 -0.3125 -0.6229
18263SOL     OW56556   1.299   3.633   5.533  0.3068  0.6364  0.2254
18263SOL    HW156557   1.352   3.554   5.544  1.6122  1.3093 -0.9233
18263SOL    HW256558   1.216   3.602   5.499  0.1301 -0.3992  1.5452
18264SOL     OW56559   2.110   2.963   1.973  0.4193  0.2863  0.5235
18264SOL    HW156560   2.154   2.899   2.029  0.2745 -0.1956  0.0852
18264SOL    HW256561   2.174   2.982   1.904 -0.1660 -0.6511 -0.2933
18265SOL     OW56562   5.500   2.221   4.270  0.0299 -0.4625  0.0277
18265SOL    HW156563   5.448   2.197   4.346 -2.3033  0.2447 -1.2300
18265SOL    HW256564   5.467   2.165   4.200  0.9892  0.0114 -0.8331
18266SOL     OW56565   0.881   2.919   2.872 -0.1016 -0.3144  0.0043
18266SOL    HW156566   0.865   2.919   2.966 -1.2953  0.0801 -0.1894
18266SOL    HW256567   0.796   2.939   2.832  0.2739 -0.9851 -1.1804
18267SOL     OW56568   1.910   6.313   0.293 -0.2554 -0.0934 -0.0974
18267SOL    HW156569   1.876   6.286   0.208  0.0308  0.6435 -0.4557
18267SOL    HW256570   1.989   6.260   0.305  0.4923  0.7946 -0.9466
18268SOL     OW56571   2.139   2.720   0.413 -0.1893 -0.3843 -0.2311
18268SOL    HW156572   2.195   2.645   0.394 -1.5201 -1.2866 -0.7151
18268SOL    HW256573   2.109   2.707   0.503 -0.6545 -0.5891 -0.4149
18269SOL     OW56574   0.339   4.567   9.155 -0.3287  0.3076 -0.8249
18269SOL    HW156575   0.256   4.530   9.186  0.1530  0.5006  0.8233
18269SOL    HW256576   0.394   4.491   9.137 -0.4252  0.1865 -0.6152
18270SOL     OW56577   4.888   6.979   6.875  0.4959 -0.2871  0.1419
18270SOL    HW156578   4.911   6.956   6.785  0.8411  0.5672  0.0041
18270SOL    HW256579   4.969   7.009   6.915  0.1083  0.5056  0.3643
18271SOL     OW56580   9.347   0.809   6.544 -0.3226 -0.2363  0.0731
18271SOL    HW156581   9.414   0.762   6.594 -0.3424 -0.1864  0.1469
18271SOL    HW256582   9.397   0.858   6.478 -0.2679 -0.0360  0.2601
18272SOL     OW56583   5.892   9.620   0.779 -0.4138 -0.0288 -0.2428
18272SOL    HW156584   5.861   9.689   0.838  0.3027  0.1241 -0.0315
18272SOL    HW256585   5.815   9.595   0.728 -0.5903  1.2056 -0.6029
18273SOL     OW56586   7.004   4.921   0.906 -0.2317 -0.4966 -0.3507
18273SOL    HW156587   6.930   4.919   0.967  0.0184  0.7549  0.0195
18273SOL    HW256588   6.977   4.864   0.834 -1.6154  0.0453 -0.2864
18274SOL     OW56589   3.202   5.901   2.968  0.0623  0.6723  0.0193
18274SOL    HW156590   3.181   5.844   3.042  0.6709  1.1621  0.5857
18274SOL    HW256591   3.285   5.942   2.993 -0.9313  2.6853  0.1329
18275SOL     OW56592   5.871   6.658   1.412 -0.2342 -0.2973 -0.3657
18275SOL    HW156593   5.806   6.638   1.344 -1.4645 -0.4403  0.8058
18275SOL    HW256594   5.887   6.574   1.455  0.8538 -0.2870 -0.7160
18276SOL     OW56595   0.128   3.733   0.104  0.0304 -0.3086  0.0277
18276SOL    HW156596   0.202   3.672   0.095 -0.7159 -1.0388 -1.5934
18276SOL    HW256597   0.107   3.731   0.197  3.5169  1.7497  1.0723
18277SOL     OW56598   3.802   3.891   8.108 -0.1065 -0.3004 -0.6624
18277SOL    HW156599   3.867   3.875   8.176  0.1678  0.3430 -0.7658
18277SOL    HW256600   3.847   3.945   8.044 -0.5203 -0.4699 -1.1021
18278SOL     OW56601   4.978   5.912   5.430 -0.3659 -0.2961  0.2603
18278SOL    HW156602   5.033   5.834   5.417 -0.7283 -0.1893 -2.2976
18278SOL    HW256603   5.031   5.984   5.397 -1.0617  0.1721  0.1565
18279SOL     OW56604   1.318   7.735   6.993  0.0466 -0.2801  0.5666
18279SOL    HW156605   1.241   7.678   6.991  0.7681 -1.2977  1.2090
18279SOL    HW256606   1.320   7.768   7.083 -1.2875  2.1168 -0.1714
18280SOL     OW56607   0.549   5.480   1.941 -0.4883 -0.4204  0.3717
18280SOL    HW156608   0.579   5.506   2.028  1.8612 -0.9389 -0.1958
18280SOL    HW256609   0.618   5.510   1.882 -1.2125 -1.5406 -1.1165
18281SOL     OW56610   4.532   4.994   1.036 -0.3888 -0.1715 -0.4018
18281SOL    HW156611   4.540   5.024   1.126  1.0900 -0.4537 -0.4006
18281SOL    HW256612   4.623   4.989   1.005 -0.7336 -2.1030 -1.2305
18282SOL     OW56613   5.719   5.830   9.094  1.2224  0.4346  0.1846
18282SOL    HW156614   5.661   5.859   9.023  1.6368 -0.1534 -0.4118
18282SOL    HW256615   5.777   5.904   9.110  2.5271 -0.1475 -1.5847
18283SOL     OW56616   6.671   6.406   1.018  0.2338  0.3582  0.2130
18283SOL    HW156617   6.762   6.406   0.988 -0.0922  0.3038 -0.8345
18283SOL    HW256618   6.644   6.498   1.013  0.7317  0.6442  2.1820
18284SOL     OW56619   2.728   4.667   7.474 -0.0575  0.3520 -0.0066
18284SOL    HW156620   2.728   4.591   7.533  0.2872 -0.9494 -1.6026
18284SOL    HW256621   2.661   4.647   7.409 -0.1799  1.5839 -0.2805
18285SOL     OW56622   0.997   0.937   0.296  0.4852  0.2714  0.2325
18285SOL    HW156623   0.934   1.003   0.268 -0.9763 -0.8941  0.6576
18285SOL    HW256624   1.069   0.987   0.334  0.4249  1.6896 -1.4031
18286SOL     OW56625   0.266   5.448   7.604  0.1066 -0.4170 -0.0230
18286SOL    HW156626   0.237   5.412   7.521  1.3426  0.5494 -0.9074
18286SOL    HW256627   0.229   5.536   7.606 -0.2150 -0.5587  0.6324
18287SOL     OW56628   9.845   8.427   1.297 -0.1349 -0.0687 -1.0385
18287SOL    HW156629   9.876   8.377   1.222 -2.1324 -1.9638 -0.7358
18287SOL    HW256630   9.774   8.482   1.263 -0.2676 -0.0610 -0.7572
18288SOL     OW56631   0.765   4.595   4.916  0.2444 -0.1647 -0.4546
18288SOL    HW156632   0.791   4.626   5.003 -2.5181  1.7194 -0.1695
18288SOL    HW256633   0.807   4.656   4.856 -2.9895  2.8093 -0.0080
18289SOL     OW56634   8.379   9.108   8.373 -0.8845 -0.3790 -0.6857
18289SOL    HW156635   8.411   9.107   8.283  2.2301 -0.1740  0.3253
18289SOL    HW256636   8.404   9.024   8.410 -1.7000 -0.2748  0.1632
18290SOL     OW56637   1.455   9.746   5.026  0.9695 -0.0938 -0.0343
18290SOL    HW156638   1.529   9.801   5.000  1.1186 -0.3686 -0.2004
18290SOL    HW256639   1.443   9.686   4.952  2.1309 -1.6443  0.9961
18291SOL     OW56640   6.082   6.719   6.284 -0.1966 -0.2451  0.5594
18291SOL    HW156641   6.041   6.703   6.369  0.7394  0.1938  1.1091
18291SOL    HW256642   6.169   6.680   6.292 -0.2583 -0.5950 -0.3599
18292SOL     OW56643   2.227   1.149   3.204  0.2290 -0.1802 -0.3868
18292SOL    HW156644   2.208   1.077   3.145 -0.1524 -1.4074  1.1841
18292SOL    HW256645   2.287   1.112   3.269 -0.3123  0.7868  0.7014
18293SOL     OW56646   0.096   4.793   2.760 -0.8838 -0.0954  0.6075
18293SOL    HW156647   0.002   4.812   2.764 -1.0105  0.0884 -1.6916
18293SOL    HW256648   0.117   4.798   2.666  1.3560 -0.4756  1.0386
18294SOL     OW56649   4.799   6.903   4.505 -0.0446 -0.3068 -0.3526
18294SOL    HW156650   4.875   6.865   4.549  0.4036 -0.7066 -1.4460
18294SOL    HW256651   4.806   6.874   4.415 -1.0204  0.3912 -0.6727
18295SOL     OW56652   0.016   1.761   3.670 -0.1771 -0.2313  0.2482
18295SOL    HW156653   0.040   1.773   3.578 -0.2042 -1.0500  0.1259
18295SOL    HW256654   0.095   1.784   3.719 -0.3569  0.8270  0.0643
18296SOL     OW56655   7.808   9.567   5.145  0.2110 -0.6016  0.3594
18296SOL    HW156656   7.820   9.651   5.190  0.3661 -0.1008 -0.5930
18296SOL    HW256657   7.888   9.518   5.165  1.5630  0.6592 -1.5359
18297SOL     OW56658   4.172   1.127   4.695  0.0481 -0.2936 -0.7662
18297SOL    HW156659   4.221   1.203   4.728  0.2067 -0.4687 -0.6004
18297SOL    HW256660   4.187   1.059   4.759 -2.0693  0.2424  0.4027
18298SOL     OW56661   0.489   3.258   4.359 -0.1059 -0.2584 -0.0209
18298SOL    HW156662   0.411   3.292   4.402 -0.0549 -0.3862  0.1719
18298SOL    HW256663   0.470   3.166   4.344 -0.8687  0.1689 -1.9352
18299SOL     OW56664   4.684   5.975   2.518  0.2443  0.1325  0.2790
18299SOL    HW156665   4.697   5.972   2.613 -2.3924 -1.0462  0.7200
18299SOL    HW256666   4.690   5.883   2.491 -1.9157  0.0664 -0.1445
18300SOL     OW56667   7.049   3.959   2.738  0.0337  0.1991 -0.2033
18300SOL    HW156668   6.971   4.004   2.704  0.1987 -1.6446 -3.4104
18300SOL    HW256669   7.033   3.867   2.719  1.9341 -0.5256  1.4250
18301SOL     OW56670   2.669   5.957   8.132  0.8638 -1.0722 -0.2441
18301SOL    HW156671   2.671   6.048   8.161  2.7161 -0.4799 -1.9667
18301SOL    HW256672   2.724   5.911   8.194 -0.8330 -1.2710  1.1935
18302SOL     OW56673   8.673   0.954   6.804  0.1777  0.2529  0.0925
18302SOL    HW156674   8.734   0.947   6.730  0.5165  1.2460  0.2640
18302SOL    HW256675   8.729   0.968   6.880 -0.0873 -1.9912  0.7595
18303SOL     OW56676   1.263   3.471   7.094  0.0932 -0.0773 -0.5043
18303SOL    HW156677   1.220   3.420   7.162  0.1502  1.0724  0.4312
18303SOL    HW256678   1.227   3.437   7.012 -0.2402 -1.2492  0.1123
18304SOL     OW56679   7.075   7.305   9.583  0.1661  0.2297  0.2458
18304SOL    HW156680   7.155   7.309   9.530 -0.7072  0.0023 -1.1482
18304SOL    HW256681   7.064   7.212   9.601  0.0129  0.2172  0.0942
18305SOL     OW56682   9.228   3.536   6.450 -0.2105 -0.2782 -0.2093
18305SOL    HW156683   9.256   3.627   6.443 -1.3302  0.1364  0.4444
18305SOL    HW256684   9.223   3.519   6.544  0.1073 -1.0606 -0.3237
18306SOL     OW56685   2.368   8.567   8.390  0.2867  0.1866 -0.0035
18306SOL    HW156686   2.332   8.481   8.367  0.5082 -0.3169  1.4317
18306SOL    HW256687   2.462   8.554   8.389  0.3313  0.5188 -0.1365
18307SOL     OW56688   2.879   3.307   3.144  0.8926  0.7957 -0.3783
18307SOL    HW156689   2.829   3.386   3.124  1.5508  1.3573  0.1534
18307SOL    HW256690   2.834   3.269   3.220 -0.4580 -0.3023 -1.6661
18308SOL     OW56691   4.408   3.634   4.185  0.3520 -0.5699 -0.0116
18308SOL    HW156692   4.359   3.639   4.102  0.1731 -1.3350  0.0406
18308SOL    HW256693   4.494   3.671   4.164  0.6986 -1.7914 -0.8550
18309SOL     OW56694   2.704   1.552   5.871 -0.3287 -0.3559  0.2464
18309SOL    HW156695   2.682   1.634   5.827 -0.1542 -0.3508  0.1691
18309SOL    HW256696   2.670   1.564   5.960  2.2659  1.0136  1.1750
18310SOL     OW56697   3.582   4.806   5.635 -0.2836 -0.3722  0.6651
18310SOL    HW156698   3.500   4.760   5.654  1.0201 -2.4770  1.5794
18310SOL    HW256699   3.622   4.822   5.721  0.6528 -0.1522  0.2071
18311SOL     OW56700   7.868   4.192   3.346 -0.3760  0.5602 -0.2482
18311SOL    HW156701   7.826   4.270   3.383  0.4829  0.5088  0.8914
18311SOL    HW256702   7.879   4.133   3.421  0.8656  0.2035 -0.6855
18312SOL     OW56703   1.939   4.503   2.430  0.0245 -0.1135  0.8044
18312SOL    HW156704   1.979   4.536   2.350  0.2008  1.3026  1.4398
18312SOL    HW256705   1.865   4.562   2.445 -0.3655 -0.7340  1.3666
18313SOL     OW56706   7.859   4.250   3.909  0.3825  0.0448 -0.0264
18313SOL    HW156707   7.922   4.292   3.967 -0.9598 -0.4409  1.8504
18313SOL    HW256708   7.783   4.308   3.910 -0.0113 -0.4496 -0.5517
18314SOL     OW56709   4.198   1.586   5.174  0.4729  1.0193  0.3430
18314SOL    HW156710   4.128   1.527   5.146  1.2660  0.5530 -0.7023
18314SOL    HW256711   4.158   1.638   5.244 -0.7733  0.4474  0.0900
18315SOL     OW56712   9.692   9.798   2.487 -0.3751  0.2251  0.1633
18315SOL    HW156713   9.715   9.870   2.545 -1.5369 -0.5251  1.6441
18315SOL    HW256714   9.675   9.724   2.546  0.8253 -1.3028 -1.2858
18316SOL     OW56715   8.489   7.616   6.049 -0.0818  0.0308 -0.2107
18316SOL    HW156716   8.576   7.595   6.083 -0.2724  1.4316  1.2688
18316SOL    HW256717   8.488   7.711   6.041 -0.7618 -0.0889 -2.3660
18317SOL     OW56718   3.215   7.905   7.828 -0.1817 -0.1966  0.1961
18317SOL    HW156719   3.219   7.992   7.867 -2.4629 -0.2452  0.6357
18317SOL    HW256720   3.251   7.847   7.896  0.2773  0.2476  0.3433
18318SOL     OW56721   3.700   2.327   0.172  0.5063 -0.0356 -0.0754
18318SOL    HW156722   3.752   2.332   0.252  0.4045  3.0896 -0.0945
18318SOL    HW256723   3.616   2.291   0.199  1.4225 -1.7493  0.6211
18319SOL     OW56724   8.779   0.790   8.853  0.8065  0.2256 -0.0927
18319SOL    HW156725   8.807   0.878   8.826 -1.7786  1.1290 -0.1386
18319SOL    HW256726   8.799   0.785   8.946  1.0504  0.8311 -0.1100
18320SOL     OW56727   9.620   1.342   1.759  0.0042 -0.1623 -0.3437
18320SOL    HW156728   9.634   1.358   1.666  1.2066 -1.1837 -0.3620
18320SOL    HW256729   9.663   1.258   1.776 -0.5847 -0.2082  1.0407
18321SOL     OW56730   3.059   8.290   0.012  0.1790  0.6330 -0.3154
18321SOL    HW156731   2.983   8.252   0.056  0.4368  0.5040  0.0240
18321SOL    HW256732   3.109   8.215  -0.020  0.2281  0.7128 -0.4292
18322SOL     OW56733   0.742   8.265   2.379 -0.1811 -0.2750  0.1738
18322SOL    HW156734   0.707   8.350   2.353 -3.3561 -1.4302  0.2312
18322SOL    HW256735   0.742   8.213   2.298  1.2771 -0.4274  0.2357
18323SOL     OW56736   2.091   5.222   5.815  0.6264  0.8339  0.3149
18323SOL    HW156737   2.171   5.247   5.862  1.8004  1.0902 -1.7024
18323SOL    HW256738   2.038   5.302   5.813 -0.0264  0.5050  2.1930
18324SOL     OW56739   8.898   6.889   3.919  0.0791 -0.5733  0.4952
18324SOL    HW156740   8.834   6.844   3.976  0.0160 -0.8140  0.2368
18324SOL    HW256741   8.850   6.906   3.838  0.8723 -2.4420 -0.4210
18325SOL     OW56742   2.902   0.254   4.339  0.1788  0.0265  0.0199
18325SOL    HW156743   2.925   0.161   4.332  0.0908 -0.0780  0.9522
18325SOL    HW256744   2.875   0.278   4.250  0.2203 -0.8340 -0.2436
18326SOL     OW56745   3.071   4.618   0.862  0.3150  0.2819  0.3384
18326SOL    HW156746   3.042   4.680   0.928  1.7597  3.8963 -2.0922
18326SOL    HW256747   2.991   4.571   0.837 -1.0490  1.7000  1.7804
18327SOL     OW56748   2.611   9.836   1.680 -0.2809 -0.1592 -0.1485
18327SOL    HW156749   2.622   9.797   1.594  0.7181 -1.3165  0.4678
18327SOL    HW256750   2.579   9.765   1.735  0.1477  0.2721  0.6752
18328SOL     OW56751   4.592   5.593   0.557 -0.2072  0.3591 -0.2513
18328SOL    HW156752   4.539   5.669   0.534 -0.4866  0.2629  0.0591
18328SOL    HW256753   4.587   5.536   0.481 -1.5023 -0.1682  0.2012
18329SOL     OW56754   7.168   1.110   4.063 -0.0167 -0.1359 -0.4278
18329SOL    HW156755   7.111   1.035   4.048 -0.8271  0.5026 -0.5857
18329SOL    HW256756   7.181   1.112   4.158 -0.4239 -0.1671 -0.3689
18330SOL     OW56757   4.765   3.097   7.857 -0.1412 -0.1853 -0.3746
18330SOL    HW156758   4.676   3.067   7.877  0.0774  0.2146  1.4221
18330SOL    HW256759   4.753   3.180   7.811 -0.7078 -1.7644 -3.3027
18331SOL     OW56760   0.210   7.781   5.897  0.2426  0.4736 -0.2765
18331SOL    HW156761   0.147   7.851   5.915 -2.8835 -2.1557  0.1500
18331SOL    HW256762   0.209   7.728   5.977  0.9620 -1.0743 -1.2470
18332SOL     OW56763   7.908   5.003   3.943  0.5713 -0.2207  0.1553
18332SOL    HW156764   7.895   5.075   4.004 -0.6436 -0.9687  0.8465
18332SOL    HW256765   7.981   4.953   3.980  0.0942 -0.4553  0.8139
18333SOL     OW56766   9.568   4.650   2.300 -0.7423 -0.2259 -0.7501
18333SOL    HW156767   9.662   4.641   2.284 -0.5832  0.4067 -0.2126
18333SOL    HW256768   9.528   4.579   2.249  0.0137 -0.4235 -1.0808
18334SOL     OW56769   8.097   1.726   8.018  0.5020  0.1908  0.0982
18334SOL    HW156770   8.060   1.640   8.041  1.9426 -0.4963 -0.0207
18334SOL    HW256771   8.059   1.747   7.933 -0.3860 -0.0095  0.4398
18335SOL     OW56772   3.988   7.929   1.697 -0.0846  0.2621 -0.1391
18335SOL    HW156773   3.995   8.023   1.678  0.4483  0.4665  0.9855
18335SOL    HW256774   4.067   7.891   1.659  0.1469  0.4075  0.1949
18336SOL     OW56775   9.375   4.151   5.243 -0.0825 -0.0093 -0.3233
18336SOL    HW156776   9.308   4.085   5.226  0.6758 -0.5120 -1.3900
18336SOL    HW256777   9.325   4.228   5.273 -1.1860 -0.1901 -1.6250
18337SOL     OW56778   1.457   2.716   7.093  0.4458  0.1366  0.2755
18337SOL    HW156779   1.534   2.685   7.045  0.5235  1.1336 -0.2496
18337SOL    HW256780   1.483   2.711   7.185  1.2116  0.6494  0.0938
18338SOL     OW56781   8.003   6.912   5.870  0.4395  0.1134  0.1740
18338SOL    HW156782   8.070   6.930   5.804 -0.9950  0.2269 -1.3190
18338SOL    HW256783   7.965   6.998   5.889 -0.1612 -0.1169  0.0199
18339SOL     OW56784   4.464   9.529   3.482 -0.2535  0.3714  0.1682
18339SOL    HW156785   4.375   9.495   3.484 -0.9199  2.0527  0.6352
18339SOL    HW256786   4.481   9.557   3.573  0.5482  0.5512 -0.0281
18340SOL     OW56787   2.699   7.742   7.779  0.1721 -0.3597  0.3053
18340SOL    HW156788   2.616   7.747   7.826  0.3425  0.5659  0.5212
18340SOL    HW256789   2.692   7.662   7.728 -0.5999 -0.6245  0.8005
18341SOL     OW56790   4.964   3.411   9.428 -0.4536 -0.4618  0.6469
18341SOL    HW156791   4.926   3.323   9.426 -2.1128  0.2009 -0.4223
18341SOL    HW256792   4.916   3.456   9.497 -1.2393  0.2023 -0.2872
18342SOL     OW56793   3.895   7.508   1.482 -0.5204  0.1904  0.0717
18342SOL    HW156794   3.844   7.446   1.533 -0.9876 -0.5393 -1.2218
18342SOL    HW256795   3.986   7.486   1.500 -0.6650  0.5116  1.2288
18343SOL     OW56796   1.634   8.496   0.940 -0.2441  0.3604 -0.2756
18343SOL    HW156797   1.622   8.591   0.948  1.0730  0.6302 -1.1510
18343SOL    HW256798   1.574   8.459   1.005 -0.1694  1.8184  0.6798
18344SOL     OW56799   5.625   0.916   0.419  0.4384 -0.3276 -0.2348
18344SOL    HW156800   5.651   0.956   0.502 -0.2556  1.6969 -0.9447
18344SOL    HW256801   5.536   0.948   0.404  0.5997 -0.5587 -1.8196
18345SOL     OW56802   6.529   3.822   1.803  0.6467 -0.4382  0.0487
18345SOL    HW156803   6.564   3.850   1.887 -0.0794  1.1781 -0.1567
18345SOL    HW256804   6.444   3.782   1.825  1.4164 -2.0082  0.2791
18346SOL     OW56805   1.650   2.608   5.816  0.9272 -0.5193  0.0415
18346SOL    HW156806   1.695   2.570   5.741 -0.6059  0.3339 -1.3868
18346SOL    HW256807   1.635   2.535   5.876 -0.2163 -1.8189 -1.7329
18347SOL     OW56808   8.754   1.969   1.489 -0.2315 -0.1248 -0.4228
18347SOL    HW156809   8.721   2.021   1.416  0.3480 -0.3202 -0.8326
18347SOL    HW256810   8.838   2.008   1.511 -0.1235 -0.4408 -0.2626
18348SOL     OW56811   9.660   0.338   5.948 -0.4299 -0.5817 -0.0516
18348SOL    HW156812   9.721   0.335   5.874 -1.5647 -2.0956 -0.9597
18348SOL    HW256813   9.585   0.389   5.916 -0.5156 -0.4118  0.4049
18349SOL     OW56814   7.963   8.350   9.271 -0.1056 -0.3042  0.0886
18349SOL    HW156815   7.970   8.316   9.360  0.5587  1.4521  0.7506
18349SOL    HW256816   7.905   8.426   9.278 -1.5801 -1.2324 -1.3386
18350SOL     OW56817   1.681   4.227   7.996  0.7328  0.1420 -0.0627
18350SOL    HW156818   1.608   4.229   8.058  0.1982  1.8356 -0.6957
18350SOL    HW256819   1.661   4.153   7.938 -0.2279  0.2696  0.0825
18351SOL     OW56820   8.459   8.816   0.710 -0.7674  0.1342 -0.2645
18351SOL    HW156821   8.383   8.863   0.675 -0.9433 -0.5902 -0.8770
18351SOL    HW256822   8.492   8.764   0.636  1.3079  1.6248 -0.4683
18352SOL     OW56823   5.729   6.390   6.842  0.0399  0.1606  0.0940
18352SOL    HW156824   5.798   6.354   6.787  2.5392  2.5188  1.4523
18352SOL    HW256825   5.723   6.482   6.816 -2.6482  0.0482  0.0542
18353SOL     OW56826   4.132   5.674   1.164  0.2318 -0.1086 -0.1625
18353SOL    HW156827   4.073   5.739   1.204  0.9611  0.3031  0.2757
18353SOL    HW256828   4.132   5.696   1.071 -1.4291 -1.0307 -0.4087
18354SOL     OW56829   7.098   0.530   5.167 -0.1127  0.0657  0.1587
18354SOL    HW156830   7.018   0.515   5.217  0.6241  0.5283  1.5177
18354SOL    HW256831   7.109   0.625   5.166 -0.7651  0.1710 -1.9892
18355SOL     OW56832   5.451   6.808   6.899  0.0346  0.6647 -0.5006
18355SOL    HW156833   5.545   6.804   6.918 -0.4167 -0.6627  1.7913
18355SOL    HW256834   5.412   6.848   6.977 -1.3349  1.0545 -1.3473
18356SOL     OW56835   5.959   6.980   3.112  0.1445 -0.1466  0.3416
18356SOL    HW156836   5.911   7.044   3.058  0.1849 -0.2891  0.1368
18356SOL    HW256837   5.890   6.935   3.161 -0.0692 -1.3020 -0.9646
18357SOL     OW56838   0.951   1.365   6.645  0.4659 -0.0352 -0.2162
18357SOL    HW156839   0.902   1.294   6.602 -1.4882  0.6306  0.7922
18357SOL    HW256840   0.893   1.395   6.715  1.9848  1.4255  0.4773
18358SOL     OW56841   2.483   2.576   9.261  0.5413 -0.4118  0.2755
18358SOL    HW156842   2.419   2.617   9.319  0.6838 -0.0334  0.1662
18358SOL    HW256843   2.556   2.638   9.258  0.1512  0.0107 -1.0409
18359SOL     OW56844   7.529   5.294   4.874  0.1312  0.5361  0.1477
18359SOL    HW156845   7.437   5.271   4.859  0.2813  0.3262 -0.4729
18359SOL    HW256846   7.525   5.375   4.926 -0.4061 -1.3277  3.2560
18360SOL     OW56847   0.456   8.963   9.230  0.0320 -0.4456 -0.2173
18360SOL    HW156848   0.416   8.885   9.267 -0.1760  0.2832  1.1793
18360SOL    HW256849   0.548   8.957   9.255 -0.2566  0.4286  1.1632
18361SOL     OW56850   0.449   7.288   4.634 -0.1613 -0.2638  0.6823
18361SOL    HW156851   0.378   7.328   4.584 -1.6273 -1.4209  1.7446
18361SOL    HW256852   0.503   7.362   4.663 -0.3348  0.5579 -0.9889
18362SOL     OW56853   4.941   3.405   2.726 -0.0838  0.1234 -0.2008
18362SOL    HW156854   4.939   3.317   2.690  0.5531  0.1571 -0.3340
18362SOL    HW256855   4.893   3.458   2.663  0.2734  0.0235 -0.5595
18363SOL     OW56856   4.192   5.242   9.657 -0.0391 -0.2986  0.4009
18363SOL    HW156857   4.188   5.204   9.745  0.8059  0.2171  0.6720
18363SOL    HW256858   4.278   5.217   9.623  1.3686  2.7876  1.2953
18364SOL     OW56859   7.424   8.339   3.267  0.2112  0.0513 -0.5434
18364SOL    HW156860   7.519   8.348   3.272  0.0725  1.2072  0.6685
18364SOL    HW256861   7.397   8.401   3.200  0.2513  0.3137 -0.3193
18365SOL     OW56862   6.316   3.857   9.341 -0.0222  0.2820  0.1312
18365SOL    HW156863   6.284   3.810   9.264 -1.3252  1.7442 -0.2829
18365SOL    HW256864   6.346   3.789   9.400  0.5477 -0.9101 -1.4583
18366SOL     OW56865   9.591   1.067   2.167  0.3087  0.2548  0.0670
18366SOL    HW156866   9.619   0.987   2.210 -0.1453  1.3122  2.5114
18366SOL    HW256867   9.576   1.042   2.076  2.1004 -1.9424  0.3078
18367SOL     OW56868   5.395   7.824   8.417 -0.7741  0.1760  0.4582
18367SOL    HW156869   5.310   7.860   8.393 -0.8237 -0.1847  0.0714
18367SOL    HW256870   5.391   7.812   8.512 -2.4771 -3.0263  0.1342
18368SOL     OW56871   2.136   9.721   7.517  0.0252 -0.0632  0.2510
18368SOL    HW156872   2.157   9.814   7.529  0.4140 -0.1559  0.2720
18368SOL    HW256873   2.103   9.716   7.427  0.8148 -0.0529 -0.0437
18369SOL     OW56874   5.619   3.611   6.681  0.1261  0.0093  0.1439
18369SOL    HW156875   5.673   3.537   6.709  0.6904  0.0427 -0.8118
18369SOL    HW256876   5.652   3.686   6.731  3.3642  0.7869 -2.7636
18370SOL     OW56877   2.053   1.490   8.588  0.4806  0.3299 -0.7461
18370SOL    HW156878   2.085   1.407   8.553 -0.6233 -0.0487 -0.8698
18370SOL    HW256879   2.001   1.527   8.517 -0.1803  0.4734 -0.1925
18371SOL     OW56880   6.356   8.911   2.204 -0.5050  0.3337 -0.5368
18371SOL    HW156881   6.430   8.851   2.204 -1.4491 -0.8993 -2.1534
18371SOL    HW256882   6.388   8.988   2.251  0.9714 -1.1170  1.0091
18372SOL     OW56883   6.255   6.163   5.293 -0.0856 -0.3312 -0.1533
18372SOL    HW156884   6.305   6.243   5.311 -0.5863  0.1463 -0.8453
18372SOL    HW256885   6.248   6.160   5.197  0.1196 -1.3313 -0.1586
18373SOL     OW56886   2.389   2.547   0.061  0.0438  0.4748  0.0106
18373SOL    HW156887   2.401   2.456   0.089  1.0954  1.3785  2.8467
18373SOL    HW256888   2.294   2.556   0.051 -0.0173 -1.1460 -1.2662
18374SOL     OW56889   7.323   5.134   0.218  0.2374 -0.7854 -0.0531
18374SOL    HW156890   7.399   5.151   0.273 -0.0956 -0.0481  0.2016
18374SOL    HW256891   7.358   5.120   0.130  0.5682  1.3999 -0.3199
18375SOL     OW56892   7.936   8.106   4.523  0.4905 -0.1079  0.0467
18375SOL    HW156893   7.995   8.181   4.519  1.0971 -0.5574  0.5076
18375SOL    HW256894   7.974   8.048   4.588 -1.7998  0.7262  2.2706
18376SOL     OW56895   7.518   6.460   7.568 -0.3642 -0.2690 -0.0040
18376SOL    HW156896   7.532   6.507   7.650 -1.6996 -0.4142  0.3283
18376SOL    HW256897   7.468   6.382   7.593  3.1864 -2.8862 -0.2680
18377SOL     OW56898   9.005   0.248   1.227 -0.2361  0.6031 -0.1630
18377SOL    HW156899   8.966   0.241   1.314 -0.6756  0.4108 -0.3695
18377SOL    HW256900   9.098   0.228   1.240 -0.1443  1.3500  0.3852
18378SOL     OW56901   4.989   6.649   1.053 -0.5435  0.3478  0.0109
18378SOL    HW156902   5.064   6.683   1.005 -0.6486 -2.2961 -2.2560
18378SOL    HW256903   5.025   6.618   1.136  0.8147 -0.4600 -0.8594
18379SOL     OW56904   2.195   4.179   9.754  0.2683  0.3474  0.9749
18379SOL    HW156905   2.278   4.227   9.759  0.4831  0.0174  0.6476
18379SOL    HW256906   2.215   4.094   9.793  0.9258 -0.8436 -1.7286
18380SOL     OW56907   8.803   8.454   2.921 -0.2327 -0.0669 -0.0079
18380SOL    HW156908   8.897   8.464   2.935 -0.1252 -1.2989  0.2777
18380SOL    HW256909   8.782   8.518   2.852  0.8714 -0.0201 -0.3212
18381SOL     OW56910   5.214   9.468   6.252 -0.0343 -0.2123 -0.3548
18381SOL    HW156911   5.174   9.528   6.189  0.5320 -1.3187 -1.8144
18381SOL    HW256912   5.182   9.382   6.227  3.1388 -1.1764 -1.5901
18382SOL     OW56913   2.987   1.749   9.325 -0.0935 -0.7986 -0.1850
18382SOL    HW156914   2.911   1.781   9.376 -0.6430 -0.4142 -1.2156
18382SOL    HW256915   3.061   1.761   9.384 -0.6866 -0.1577  0.4615
18383SOL     OW56916   0.391   9.671   4.392  0.0707 -0.2969  0.0298
18383SOL    HW156917   0.337   9.747   4.416 -0.1193 -0.3576 -0.1913
18383SOL    HW256918   0.472   9.682   4.441  0.5560  0.7359 -0.9633
18384SOL     OW56919   1.570   6.615   4.229 -0.0399  0.5438  0.5693
18384SOL    HW156920   1.589   6.531   4.270 -0.3296 -0.0610 -0.5175
18384SOL    HW256921   1.651   6.665   4.238  1.3523 -1.1141 -1.8125
18385SOL     OW56922   5.280   3.345   4.136  0.2851 -0.0775 -0.3575
18385SOL    HW156923   5.340   3.296   4.192 -0.0311 -1.0313 -0.8411
18385SOL    HW256924   5.210   3.283   4.116  0.1914  0.3810 -1.4859
18386SOL     OW56925   6.860   1.940   6.380 -0.0935  0.4946 -0.5959
18386SOL    HW156926   6.935   1.990   6.414 -0.9077  0.7585  0.8917
18386SOL    HW256927   6.894   1.851   6.369  0.3080  0.4876  0.5773
18387SOL     OW56928   2.343   1.655   9.351  0.4739  0.3973  0.5037
18387SOL    HW156929   2.393   1.605   9.415  1.5464  2.6173  1.5067
18387SOL    HW256930   2.384   1.635   9.267  0.1067 -1.2748  0.6894
18388SOL     OW56931   5.371   7.311   6.841 -0.3973 -0.4562 -0.0017
18388SOL    HW156932   5.275   7.304   6.842 -0.2785 -4.3630  1.6403
18388SOL    HW256933   5.399   7.241   6.782  1.3929 -2.9758  3.5005
18389SOL     OW56934   7.960   6.357   0.646 -0.2475 -0.3514 -0.0256
18389SOL    HW156935   7.890   6.311   0.691  0.6814 -2.1427 -0.3322
18389SOL    HW256936   7.960   6.321   0.557  0.4509  0.3131 -0.3108
18390SOL     OW56937   5.945   5.696   4.631 -0.5793 -0.3189 -0.1442
18390SOL    HW156938   5.851   5.684   4.643 -0.4842 -0.9721 -0.0292
18390SOL    HW256939   5.983   5.610   4.649 -0.2032 -0.7725 -2.6743
18391SOL     OW56940   9.221   8.672   4.139 -0.1103 -0.0160 -0.0060
18391SOL    HW156941   9.146   8.622   4.106  0.2619  0.6815 -2.0378
18391SOL    HW256942   9.272   8.693   4.061  2.7033 -1.1760  1.3674
18392SOL     OW56943   7.895   9.746   9.234  0.3743  0.6676 -0.1026
18392SOL    HW156944   7.980   9.784   9.258  0.0674  1.0031  0.4774
18392SOL    HW256945   7.885   9.671   9.293  0.3582  0.5000 -0.3151
18393SOL     OW56946   3.296   6.388   9.532 -0.2021  0.1203  0.1971
18393SOL    HW156947   3.253   6.424   9.610 -0.0423  0.8540 -0.0480
18393SOL    HW256948   3.377   6.350   9.565 -0.5584 -0.3803  0.5167
18394SOL     OW56949   5.790   3.138   8.852  0.0431 -0.4633 -0.0410
18394SOL    HW156950   5.878   3.104   8.868  0.1104  0.6528  2.5395
18394SOL    HW256951   5.732   3.078   8.899 -0.3486 -0.0762 -0.0199
18395SOL     OW56952   7.101   9.073   6.008 -0.4996  0.1806 -0.2566
18395SOL    HW156953   7.088   9.132   6.082  1.5443  1.4303 -0.8152
18395SOL    HW256954   7.065   9.121   5.933 -0.0532  0.1262 -0.5058
18396SOL     OW56955   6.368   6.681   9.400  0.3602 -0.1145 -0.0325
18396SOL    HW156956   6.437   6.732   9.358  1.4641 -1.3859  0.1606
18396SOL    HW256957   6.392   6.589   9.384 -0.7974 -0.6008  0.8103
18397SOL     OW56958   6.474   7.588   7.533  0.4461  0.1371 -0.0802
18397SOL    HW156959   6.536   7.517   7.518  0.8359  0.6038 -0.7486
18397SOL    HW256960   6.388   7.546   7.530  0.6748 -0.3261 -0.3279
18398SOL     OW56961   4.959   0.739   3.492  0.8392  0.0504  0.6184
18398SOL    HW156962   4.894   0.789   3.540 -0.1403  0.9278 -1.5104
18398SOL    HW256963   5.031   0.727   3.555 -0.9580 -0.2053  2.7427
18399SOL     OW56964   6.993   1.575   0.786  0.2348 -0.0206  0.5443
18399SOL    HW156965   6.977   1.594   0.694 -1.0597  2.4693  1.2072
18399SOL    HW256966   7.030   1.486   0.786 -0.7210 -0.5093 -2.2593
18400SOL     OW56967   7.110   0.488   7.281 -0.3169 -0.3214 -0.5413
18400SOL    HW156968   7.094   0.555   7.215 -2.8584 -0.9126 -0.6284
18400SOL    HW256969   7.186   0.439   7.249  1.1537  2.0192 -0.8126
18401SOL     OW56970   3.210   8.792   5.518  0.6769 -0.0430 -0.2511
18401SOL    HW156971   3.119   8.792   5.490  0.5815  2.4844 -0.1106
18401SOL    HW256972   3.260   8.781   5.438  0.2936 -1.3573 -0.3387
18402SOL     OW56973   4.181   2.272   5.663  0.2848 -0.2781  0.5725
18402SOL    HW156974   4.193   2.292   5.756  1.2166  0.9397  0.2075
18402SOL    HW256975   4.265   2.292   5.623 -0.2893 -0.2075 -0.6397
18403SOL     OW56976   1.953   0.373   9.024 -0.5398  0.3110  0.1145
18403SOL    HW156977   2.040   0.413   9.019 -0.1201 -0.0172  3.1164
18403SOL    HW256978   1.893   0.447   9.034 -0.6056  0.5146 -1.5533
18404SOL     OW56979   4.921   4.262   7.856 -0.5173  0.5631 -0.7972
18404SOL    HW156980   4.838   4.245   7.900 -0.9075 -1.5506 -2.2222
18404SOL    HW256981   4.987   4.243   7.923 -1.1191  1.1973  0.0160
18405SOL     OW56982   2.893   8.714   9.178 -0.1389  0.2308  0.8030
18405SOL    HW156983   2.878   8.652   9.107 -0.6625  0.1012  1.0237
18405SOL    HW256984   2.957   8.671   9.235  1.1260  0.7873 -0.1431
18406SOL     OW56985   0.096   6.185   4.605  0.1754  0.0189  0.2446
18406SOL    HW156986   0.154   6.220   4.673  0.2516  0.6633 -0.1458
18406SOL    HW256987   0.052   6.262   4.569 -1.0883 -0.4838  0.6701
18407SOL     OW56988   7.474   3.770   7.663 -0.1523 -0.3504 -0.2338
18407SOL    HW156989   7.418   3.708   7.616 -0.6687 -0.8998  1.0464
18407SOL    HW256990   7.478   3.847   7.606 -2.4268 -0.1969 -0.2815
18408SOL     OW56991   1.518   1.898   9.252  0.2651  0.2755 -0.4608
18408SOL    HW156992   1.522   1.936   9.164 -0.5388 -0.5657 -0.8837
18408SOL    HW256993   1.550   1.808   9.240  0.4179  0.2421  0.1644
18409SOL     OW56994   4.879   6.936   0.852 -0.6119 -0.2327 -0.3625
18409SOL    HW156995   4.921   6.960   0.770 -2.4849  2.9236 -0.5520
18409SOL    HW256996   4.953   6.916   0.911  0.9034  0.5712 -1.8910
18410SOL     OW56997   8.249   8.990   1.561 -0.3387  0.1475  0.1078
18410SOL    HW156998   8.286   8.921   1.616  0.8586  1.5579  1.1580
18410SOL    HW256999   8.183   8.946   1.508 -0.1852 -1.6325  1.3214
18411SOL     OW57000   7.487   9.691   3.420 -0.5358  0.1233 -0.2071
18411SOL    HW157001   7.394   9.711   3.409 -0.8998 -1.2698  0.1218
18411SOL    HW257002   7.504   9.708   3.513 -0.6358 -0.2189 -0.1218
18412SOL     OW57003   4.331   7.670   4.727  0.0294  0.2425  0.0602
18412SOL    HW157004   4.388   7.733   4.683 -1.4719  2.4311  1.0701
18412SOL    HW257005   4.247   7.678   4.682 -0.7516  0.5015  1.4951
18413SOL     OW57006   6.319   2.991   2.025  0.1691  0.0080  0.2118
18413SOL    HW157007   6.345   3.028   2.109  0.8301  1.4947 -0.6079
18413SOL    HW257008   6.266   3.059   1.984  0.7224 -0.2683 -1.0018
18414SOL     OW57009   0.480   4.513   6.245  0.2109 -0.5823 -0.3381
18414SOL    HW157010   0.551   4.528   6.307 -0.4321  1.3121  0.0012
18414SOL    HW257011   0.523   4.485   6.165  1.1983 -1.0818  0.3459
18415SOL     OW57012   3.894   3.795   7.795  0.9572  0.3906 -0.3739
18415SOL    HW157013   3.873   3.817   7.705 -0.9354  0.9869  0.1599
18415SOL    HW257014   3.921   3.878   7.834 -0.8321  0.7293  0.2440
18416SOL     OW57015   2.651   5.904   5.429 -0.0652 -0.0503  0.4908
18416SOL    HW157016   2.595   5.960   5.375  0.2832  1.3427  1.5260
18416SOL    HW257017   2.662   5.953   5.510 -0.0900 -1.8296  1.6069
18417SOL     OW57018   0.659   6.956   0.377 -0.2809  0.2188 -0.7416
18417SOL    HW157019   0.608   6.984   0.301 -0.4134  0.1725 -0.6691
18417SOL    HW257020   0.737   7.012   0.376 -1.5320  2.1076  0.6165
18418SOL     OW57021   5.572   1.889   8.911  0.1284 -0.4468  0.9489
18418SOL    HW157022   5.528   1.825   8.855 -3.7303  2.3693  0.3541
18418SOL    HW257023   5.630   1.937   8.851 -1.5177  0.4215 -0.0135
18419SOL     OW57024   6.658   7.433   8.727 -0.2536  0.6064 -0.5909
18419SOL    HW157025   6.616   7.519   8.733  0.8582  1.1560 -0.4472
18419SOL    HW257026   6.586   7.372   8.709 -0.7666  1.9296 -3.6337
18420SOL     OW57027   7.463   6.345   7.090 -0.2504 -0.0798  0.3185
18420SOL    HW157028   7.375   6.378   7.104 -1.6008 -2.3904 -1.8502
18420SOL    HW257029   7.489   6.308   7.174 -0.6665  1.9368  1.3986
18421SOL     OW57030   9.693   2.378   3.028  0.0069 -0.1901  0.2469
18421SOL    HW157031   9.662   2.428   2.951 -0.9526 -0.7898  0.2236
18421SOL    HW257032   9.723   2.295   2.992  0.6049 -0.0505  0.4096
18422SOL     OW57033   4.427   4.780   7.383 -0.8736  0.0759 -0.4069
18422SOL    HW157034   4.406   4.873   7.381  3.2318  1.4079  2.9184
18422SOL    HW257035   4.482   4.766   7.306 -1.4893  0.3660 -0.9051
18423SOL     OW57036   0.768   1.921   8.722  0.6009  0.5209  0.3446
18423SOL    HW157037   0.808   1.841   8.688 -1.6180 -0.7829  0.6045
18423SOL    HW257038   0.835   1.958   8.780  1.5103 -1.4343  0.6422
18424SOL     OW57039   0.096   2.461   3.095  0.3826  0.6938 -0.2589
18424SOL    HW157040   0.145   2.379   3.097  0.0544  0.4562 -1.3533
18424SOL    HW257041   0.006   2.435   3.077  0.4578  1.3453 -1.7605
18425SOL     OW57042   3.502   6.038   0.248 -0.3024 -0.1067 -0.0474
18425SOL    HW157043   3.532   6.035   0.157  0.0919 -2.2995  0.1052
18425SOL    HW257044   3.431   5.975   0.252 -0.7710  0.4689  1.0228
18426SOL     OW57045   0.376   2.726   6.695  0.8852 -0.3337  0.4384
18426SOL    HW157046   0.409   2.670   6.765  0.0150 -0.4511  0.7680
18426SOL    HW257047   0.407   2.814   6.717  0.9882 -0.4431  0.7304
18427SOL     OW57048   0.929   0.215   6.918  0.1401  0.6065  0.3567
18427SOL    HW157049   0.957   0.199   6.828  0.7330  0.9690  0.4676
18427SOL    HW257050   0.998   0.272   6.955 -1.7021  3.2063  0.0622
18428SOL     OW57051   0.728   3.420   1.716 -0.1848  0.0864  0.2322
18428SOL    HW157052   0.639   3.403   1.749 -0.9516  1.7830 -0.8036
18428SOL    HW257053   0.718   3.420   1.621  0.9921  0.0747  0.0959
18429SOL     OW57054   5.632   1.193   5.696 -0.0259  0.4080  0.0372
18429SOL    HW157055   5.544   1.192   5.658  0.1111  0.0571 -0.2783
18429SOL    HW257056   5.659   1.285   5.691  0.6380  0.1523 -2.2356
18430SOL     OW57057   6.809   2.307   0.457 -0.5684  0.4092 -0.6275
18430SOL    HW157058   6.768   2.298   0.371 -0.4467 -2.3583 -0.4723
18430SOL    HW257059   6.738   2.296   0.520 -0.8355  3.3801 -0.2627
18431SOL     OW57060   4.642   1.962   4.809  0.1803 -0.0150  0.0591
18431SOL    HW157061   4.684   1.947   4.894 -0.0753  0.3011  0.2387
18431SOL    HW257062   4.675   2.046   4.779  1.3965 -0.7611 -0.8307
18432SOL     OW57063   5.057   2.268   8.244 -0.2017  0.2490  0.2172
18432SOL    HW157064   5.122   2.201   8.224 -0.0286 -0.2109  2.0828
18432SOL    HW257065   5.083   2.344   8.193  0.8277 -0.4541 -0.3259
18433SOL     OW57066   4.124   6.253   4.547 -0.0318  0.6428  0.1174
18433SOL    HW157067   4.158   6.257   4.637  1.3287  0.9703 -0.3947
18433SOL    HW257068   4.098   6.162   4.536  2.5942 -0.1732 -0.1117
18434SOL     OW57069   3.495   7.189   4.881  0.3552  0.0376  0.2308
18434SOL    HW157070   3.489   7.114   4.940 -0.0409  0.0848  0.2485
18434SOL    HW257071   3.589   7.206   4.875  0.5409 -1.1817 -0.6906
18435SOL     OW57072   8.232   5.146   8.306 -0.4776 -0.0682  0.3431
18435SOL    HW157073   8.251   5.233   8.271  2.3496 -0.1495  1.4357
18435SOL    HW257074   8.176   5.162   8.382 -1.0571  0.6535 -0.2220
18436SOL     OW57075   4.180   2.104   2.092 -0.6673  0.4209 -0.3382
18436SOL    HW157076   4.144   2.170   2.152 -0.9240 -0.2469  0.2511
18436SOL    HW257077   4.226   2.042   2.149 -1.5037 -0.6012 -0.7569
18437SOL     OW57078   9.367   9.427   5.841 -0.5055 -0.3244 -0.4381
18437SOL    HW157079   9.316   9.369   5.785  2.0173 -1.9878 -1.2056
18437SOL    HW257080   9.383   9.377   5.921  1.4878 -0.6958 -1.0034
18438SOL     OW57081   8.106   7.778   0.876 -0.1349 -0.1581  0.2664
18438SOL    HW157082   8.019   7.753   0.843 -0.1657 -0.1362  0.3301
18438SOL    HW257083   8.087   7.836   0.950 -0.0677 -0.3562  0.4392
18439SOL     OW57084   8.566   0.369   0.042 -0.4359 -0.0650 -0.1898
18439SOL    HW157085   8.636   0.406   0.094  0.1734  0.0657 -1.0754
18439SOL    HW257086   8.563   0.423  -0.037  0.4669 -1.8431 -1.5094
18440SOL     OW57087   6.965   2.592   7.730 -0.1886  0.4601  0.0563
18440SOL    HW157088   6.946   2.575   7.637  0.3904  0.1911 -0.0154
18440SOL    HW257089   7.050   2.552   7.745 -0.5806 -0.1005  0.8858
18441SOL     OW57090   6.188   0.022   6.491 -0.0382 -0.0098  0.0911
18441SOL    HW157091   6.250  -0.042   6.526 -0.8458 -1.5887 -1.2291
18441SOL    HW257092   6.195   0.014   6.396 -1.5861  0.4018 -0.0918
18442SOL     OW57093   3.685   0.017   9.252  0.0457  0.1102  0.0364
18442SOL    HW157094   3.673  -0.059   9.195  1.3437  0.6513 -1.0153
18442SOL    HW257095   3.772   0.049   9.230  0.4373  0.5847  2.0591
18443SOL     OW57096   1.479   7.307   8.261 -0.2228 -0.1326  0.1407
18443SOL    HW157097   1.488   7.400   8.241  0.7757 -0.1050  0.6485
18443SOL    HW257098   1.556   7.267   8.223  1.2397 -0.2086  2.9114
18444SOL     OW57099   8.135   2.769   0.686 -0.1229  0.3168  0.3721
18444SOL    HW157100   8.172   2.801   0.768  1.5723  0.7523 -0.5289
18444SOL    HW257101   8.210   2.758   0.627 -1.3091  0.2759 -1.2188
18445SOL     OW57102   9.577   5.114   7.263  0.0245 -0.6101  0.3254
18445SOL    HW157103   9.507   5.178   7.281  1.3804  0.8236  0.7556
18445SOL    HW257104   9.627   5.154   7.192  0.1410 -1.8446 -0.2994
18446SOL     OW57105   7.936   3.979   2.502  0.6025 -0.0333 -0.2840
18446SOL    HW157106   7.984   4.043   2.449  0.2292  1.6479  1.3183
18446SOL    HW257107   7.939   4.013   2.591 -0.2547 -1.8923  0.5173
18447SOL     OW57108   6.368   7.949   8.781 -0.3806  0.7373  0.8248
18447SOL    HW157109   6.305   7.929   8.850 -2.0232  0.5469 -0.6712
18447SOL    HW257110   6.320   8.004   8.719  0.7887  0.2177 -0.5962
18448SOL     OW57111   7.365   4.746   8.615  0.3515 -0.0114 -0.2930
18448SOL    HW157112   7.358   4.650   8.611 -0.1959  0.0149 -0.0489
18448SOL    HW257113   7.458   4.763   8.623  0.3134 -0.6191  1.9324
18449SOL     OW57114   8.528   4.628   7.703 -0.1923 -0.5024  0.2218
18449SOL    HW157115   8.460   4.600   7.642 -0.1485  0.2085 -0.1634
18449SOL    HW257116   8.555   4.714   7.671  2.4941 -1.6657 -0.9941
18450SOL     OW57117   7.623   7.207   2.802 -0.5234  0.6270 -0.6359
18450SOL    HW157118   7.717   7.217   2.814 -0.2026  0.8800 -2.9545
18450SOL    HW257119   7.612   7.115   2.778 -1.4241 -0.5319  3.3390
18451SOL     OW57120   2.537   6.768   1.503 -0.0382 -0.1795  0.1242
18451SOL    HW157121   2.491   6.797   1.424 -0.6436 -2.3847 -0.4169
18451SOL    HW257122   2.479   6.793   1.575 -0.5402 -0.0665 -0.3144
18452SOL     OW57123   4.763   5.072   7.050 -0.0120  0.1756  0.0224
18452SOL    HW157124   4.746   4.978   7.050 -0.1144  0.1930  0.1273
18452SOL    HW257125   4.676   5.112   7.060 -0.1354  0.3163 -1.3584
18453SOL     OW57126   9.252   4.367   1.051 -0.7875 -0.2817  0.0360
18453SOL    HW157127   9.215   4.280   1.068 -1.3821  0.2361  1.4773
18453SOL    HW257128   9.297   4.391   1.132  0.8741  0.0440 -0.9395
18454SOL     OW57129   6.186   5.964   3.601  0.0761  1.0106 -0.1206
18454SOL    HW157130   6.237   5.894   3.642 -3.1434 -2.4093 -1.2739
18454SOL    HW257131   6.113   5.979   3.662 -0.9884  0.9710 -1.3412
18455SOL     OW57132   8.594   0.507   5.136 -0.3444  0.9219 -0.3294
18455SOL    HW157133   8.676   0.543   5.168  0.4709 -1.2119  0.1508
18455SOL    HW257134   8.589   0.534   5.045  1.7908 -0.3537 -0.8734
18456SOL     OW57135   5.354   0.392   7.512  0.4721  0.1695  0.3192
18456SOL    HW157136   5.426   0.451   7.532 -0.1289  0.6413  1.1926
18456SOL    HW257137   5.365   0.320   7.574  0.2610  0.1863  0.3763
18457SOL     OW57138   3.801   2.087   9.399 -1.0111  0.1512  0.2203
18457SOL    HW157139   3.828   2.137   9.322 -0.2841  0.1756  0.4892
18457SOL    HW257140   3.881   2.073   9.448 -1.4332 -0.0878  0.8500
18458SOL     OW57141   5.173   1.280   6.742 -0.3702  0.6998 -0.1858
18458SOL    HW157142   5.191   1.329   6.662 -0.7110 -0.8871 -1.2596
18458SOL    HW257143   5.089   1.315   6.773 -0.4076  1.0705 -0.7018
18459SOL     OW57144   7.409   4.827   8.328 -0.1290 -0.2186 -0.0603
18459SOL    HW157145   7.401   4.739   8.291 -1.0015 -1.2513  2.3462
18459SOL    HW257146   7.393   4.815   8.422  2.5412  2.0906  0.8304
18460SOL     OW57147   4.509   2.353   5.905 -0.7566  0.3222  0.0666
18460SOL    HW157148   4.505   2.436   5.858  1.1365  1.3754  1.5858
18460SOL    HW257149   4.418   2.327   5.916 -1.3224  1.1421 -2.1962
18461SOL     OW57150   0.903   5.088   5.476  0.2919  0.5367 -0.7028
18461SOL    HW157151   0.878   5.179   5.493 -1.3503  0.2605 -1.4217
18461SOL    HW257152   0.848   5.037   5.535  1.4173 -0.0004 -0.0972
18462SOL     OW57153   3.743   6.343   8.348 -0.0586 -0.4713  0.7365
18462SOL    HW157154   3.703   6.271   8.300 -1.3458 -0.7705  2.1796
18462SOL    HW257155   3.732   6.320   8.440 -0.3574  1.4882  1.2456
18463SOL     OW57156   3.135   1.808   5.609 -0.4503  0.2958  0.1899
18463SOL    HW157157   3.075   1.842   5.675  0.0109  0.4074  0.5578
18463SOL    HW257158   3.093   1.729   5.576 -0.2386 -0.2838  1.2976
18464SOL     OW57159   0.217   8.745   2.062 -0.3185  0.4580 -0.7153
18464SOL    HW157160   0.249   8.724   1.975  0.6935 -0.5111 -0.1424
18464SOL    HW257161   0.140   8.800   2.047 -0.3653  0.0345 -2.2139
18465SOL     OW57162   7.737   2.486   2.796 -0.5028 -0.0273  0.0019
18465SOL    HW157163   7.749   2.580   2.782  0.8918 -0.3922 -1.6766
18465SOL    HW257164   7.650   2.466   2.760 -1.8063  0.9140  2.3924
18466SOL     OW57165   4.361   8.548   8.181 -0.1944 -0.2787  0.3495
18466SOL    HW157166   4.274   8.529   8.145  0.2250 -1.3538 -0.1432
18466SOL    HW257167   4.383   8.635   8.145 -0.8767 -0.1955  0.1205
18467SOL     OW57168   2.394   8.989   4.675  0.6037 -0.3540  0.1523
18467SOL    HW157169   2.438   8.916   4.717 -1.3967 -0.7716  1.7278
18467SOL    HW257170   2.368   9.046   4.748  0.6811  1.0955 -0.9051
18468SOL     OW57171   0.811   8.826   9.569  0.4221  0.2108 -0.3460
18468SOL    HW157172   0.848   8.808   9.656  0.2804  1.9086  0.1114
18468SOL    HW257173   0.862   8.901   9.537 -0.4611  0.4997 -1.1018
18469SOL     OW57174   0.271   6.668   3.079  0.1243 -0.1817 -0.0090
18469SOL    HW157175   0.211   6.657   3.152  0.6642  1.0252  0.6447
18469SOL    HW257176   0.351   6.625   3.106 -0.0651 -0.8223 -0.4270
18470SOL     OW57177   6.058   0.653   2.613 -0.1398 -0.0453 -0.0391
18470SOL    HW157178   5.971   0.622   2.586 -0.4028  0.1511  0.5743
18470SOL    HW257179   6.043   0.701   2.694  0.3963  0.9454 -0.5109
18471SOL     OW57180   0.991   9.611   5.367  0.0246  0.0549 -0.2599
18471SOL    HW157181   0.948   9.690   5.401  0.2764 -0.1815  0.6456
18471SOL    HW257182   0.918   9.552   5.346 -0.1376 -0.4292  1.4788
18472SOL     OW57183   5.043   7.698   5.442 -0.1227  0.1348  0.6268
18472SOL    HW157184   4.969   7.699   5.503 -0.5742 -0.0238  0.0970
18472SOL    HW257185   5.041   7.609   5.405  0.8682 -0.1550  1.2441
18473SOL     OW57186   3.548   5.175   4.568  0.1598  0.1790  0.7539
18473SOL    HW157187   3.552   5.128   4.652  0.4306  0.8532  1.1273
18473SOL    HW257188   3.593   5.258   4.585  1.1170 -0.1023 -0.3524
18474SOL     OW57189   9.808   9.223   0.891 -0.1736 -0.6021  0.1371
18474SOL    HW157190   9.829   9.129   0.891 -0.4975 -0.6761  0.2399
18474SOL    HW257191   9.872   9.262   0.950  0.4618 -0.6412 -0.4997
18475SOL     OW57192   8.678   8.395   8.273 -0.4028  0.0869  0.3851
18475SOL    HW157193   8.717   8.309   8.282  0.0274  0.3175  0.7890
18475SOL    HW257194   8.750   8.456   8.287 -0.3707  0.5194 -1.4118
18476SOL     OW57195   6.431   8.965   1.183  0.2997 -0.3639  0.0765
18476SOL    HW157196   6.453   8.892   1.126  0.2373 -0.0518 -0.3569
18476SOL    HW257197   6.465   9.042   1.137  0.9553 -0.1838  0.8446
18477SOL     OW57198   3.627   8.303   7.598  0.1939  0.4769  0.3651
18477SOL    HW157199   3.675   8.359   7.537 -3.2684  1.1362 -2.1238
18477SOL    HW257200   3.585   8.238   7.542 -2.7898  0.7995  1.9811
18478SOL     OW57201   6.347   7.102   5.717  0.9429  0.0927 -0.0719
18478SOL    HW157202   6.272   7.161   5.725  0.8449  0.1132 -0.9803
18478SOL    HW257203   6.328   7.050   5.638  0.4443 -1.9981  1.3439
18479SOL     OW57204   2.205   1.762   7.252 -0.5130 -0.3430  0.0564
18479SOL    HW157205   2.254   1.844   7.248  0.2194 -0.8217 -1.4821
18479SOL    HW257206   2.113   1.790   7.258 -0.1890  0.5663  1.2213
18480SOL     OW57207   2.879   3.480   6.003 -0.2704 -0.3544 -0.0816
18480SOL    HW157208   2.839   3.547   5.948  1.0441  0.7602  0.2723
18480SOL    HW257209   2.947   3.526   6.053  0.1583 -1.7949  0.7377
18481SOL     OW57210   8.911   1.005   2.631 -0.1351 -0.1376 -0.5441
18481SOL    HW157211   8.889   1.035   2.543  1.3870  0.6352 -0.6917
18481SOL    HW257212   8.926   1.086   2.681  0.3303 -0.5829  0.0530
18482SOL     OW57213   2.380   8.037   0.446  0.4742 -0.3735 -0.1906
18482SOL    HW157214   2.419   8.047   0.359 -1.2495  1.5956 -0.8227
18482SOL    HW257215   2.364   8.127   0.475 -1.9117 -1.0491  0.7644
18483SOL     OW57216   8.086   9.764   0.576  0.5845 -0.0980 -0.2794
18483SOL    HW157217   8.042   9.783   0.492  0.4403  0.8096 -0.0097
18483SOL    HW257218   8.093   9.669   0.578 -0.1580 -0.1823 -0.9542
18484SOL     OW57219   0.367   6.239   1.101 -0.3244 -0.5981 -0.2811
18484SOL    HW157220   0.331   6.324   1.077  1.1778 -0.1222 -0.9569
18484SOL    HW257221   0.430   6.258   1.171 -0.4499 -1.2468  0.0201
18485SOL     OW57222   3.034   7.735   1.509 -0.0439  0.4764  0.7827
18485SOL    HW157223   2.941   7.714   1.509  0.0546  0.0076  0.0484
18485SOL    HW257224   3.043   7.807   1.445 -0.0969  1.4834  1.8768
18486SOL     OW57225   7.997   0.560   9.793 -0.1339 -0.1935 -0.2026
18486SOL    HW157226   8.015   0.596   9.706 -1.3097  0.5084 -0.1736
18486SOL    HW257227   7.917   0.510   9.782 -0.5163  0.2339  0.5516
18487SOL     OW57228   4.939   2.297   0.269  0.5879 -0.3362 -0.3704
18487SOL    HW157229   4.991   2.373   0.294  1.3179 -1.8293  3.2971
18487SOL    HW257230   4.853   2.313   0.308  0.0865 -0.4948 -1.3847
18488SOL     OW57231   7.920   4.801   5.506  0.4005 -0.2958 -0.1021
18488SOL    HW157232   8.004   4.802   5.461  0.2597 -0.7469 -0.3861
18488SOL    HW257233   7.856   4.784   5.437  0.0222  0.5558  0.0356
18489SOL     OW57234   3.952   6.188   7.626 -0.0329  0.0396 -0.2293
18489SOL    HW157235   3.920   6.100   7.646  1.0356 -0.3075  0.0073
18489SOL    HW257236   4.047   6.181   7.630  0.0561  1.5264  1.1731
18490SOL     OW57237   8.574   8.912   7.147 -0.5727  0.4201  0.2849
18490SOL    HW157238   8.659   8.868   7.140 -0.2314  1.0185  0.5904
18490SOL    HW257239   8.592   8.991   7.198 -0.8241  1.7340 -1.5224
18491SOL     OW57240   0.605   4.427   3.164 -0.0293 -0.3273  0.3088
18491SOL    HW157241   0.612   4.493   3.232 -0.9877 -0.3936  0.4911
18491SOL    HW257242   0.674   4.449   3.101  1.5944 -0.9233  1.8275
18492SOL     OW57243   3.271   0.003   3.312 -0.0865  0.2235  0.0385
18492SOL    HW157244   3.309  -0.065   3.367  2.2894  0.6752 -0.9279
18492SOL    HW257245   3.265  -0.037   3.225  2.5514  1.5341 -0.8454
18493SOL     OW57246   4.546   7.762   5.046 -0.0032  0.5180 -0.0177
18493SOL    HW157247   4.570   7.756   4.954  1.1539  2.9820  0.0503
18493SOL    HW257248   4.585   7.844   5.076  1.0041 -0.9106  3.0717
18494SOL     OW57249   6.784   8.978   2.413  0.3365  0.0218  0.4538
18494SOL    HW157250   6.725   9.034   2.363 -0.5504 -0.4239  0.9608
18494SOL    HW257251   6.871   9.011   2.394 -0.0793  0.7443 -0.2675
18495SOL     OW57252   1.503   3.741   2.857  0.0906  0.3203 -0.0034
18495SOL    HW157253   1.599   3.738   2.857  0.1013 -0.5866 -1.6076
18495SOL    HW257254   1.479   3.723   2.947  1.4261 -1.0600  0.1315
18496SOL     OW57255   6.535   4.321   2.532  0.1628 -0.2489  0.2024
18496SOL    HW157256   6.593   4.321   2.608  0.3680 -0.6996  0.0506
18496SOL    HW257257   6.564   4.246   2.480  0.5662  0.5199 -0.7277
18497SOL     OW57258   5.702   1.568   8.608 -0.0601  0.5294  0.1465
18497SOL    HW157259   5.764   1.620   8.557  0.5269 -2.0439 -2.0054
18497SOL    HW257260   5.618   1.614   8.597  0.7988  2.1731  0.1936
18498SOL     OW57261   6.738   9.683   5.024 -0.2958  0.4569  1.1830
18498SOL    HW157262   6.719   9.734   4.946  1.3582  1.0593  1.1418
18498SOL    HW257263   6.727   9.744   5.097  0.6696  0.6206  1.2090
18499SOL     OW57264   2.328   1.598   8.247  0.1656  0.0092 -0.0251
18499SOL    HW157265   2.247   1.611   8.296 -0.2384 -0.4456 -0.5576
18499SOL    HW257266   2.312   1.640   8.163 -0.0148 -1.1802 -0.6102
18500SOL     OW57267   0.249   9.807   7.778 -0.3628 -0.0253 -0.2834
18500SOL    HW157268   0.313   9.758   7.726 -0.1149  0.3143 -0.3018
18500SOL    HW257269   0.301   9.845   7.849 -0.0129  2.5660 -1.8197
18501SOL     OW57270   8.367   3.343   3.338  0.8996  0.3110  0.7989
18501SOL    HW157271   8.411   3.296   3.408  0.1413 -0.2710  0.8946
18501SOL    HW257272   8.285   3.296   3.325  0.6428  0.9278  0.1119
18502SOL     OW57273   1.394   3.265   2.768 -0.1976  0.5250 -0.0316
18502SOL    HW157274   1.351   3.292   2.850 -1.3275 -2.4296  0.4624
18502SOL    HW257275   1.456   3.198   2.795  0.5481  0.6023 -1.4699
18503SOL     OW57276   7.397   5.118   9.813  0.5776  0.7330  0.8154
18503SOL    HW157277   7.481   5.075   9.797 -0.3029 -0.8120  0.0261
18503SOL    HW257278   7.380   5.167   9.733  1.0586  1.6704  1.2739
18504SOL     OW57279   1.536   1.838   1.897  0.4537  0.7349  0.4457
18504SOL    HW157280   1.545   1.744   1.883  1.4043  0.5581  1.9792
18504SOL    HW257281   1.594   1.878   1.832  0.2933  0.2481  0.0026
18505SOL     OW57282   3.353   6.301   5.202 -0.0232 -0.0219 -0.4829
18505SOL    HW157283   3.280   6.254   5.242  1.2792 -1.3578  0.4680
18505SOL    HW257284   3.367   6.376   5.260  0.5235 -0.8065  0.4380
18506SOL     OW57285   7.352   5.122   1.196 -0.2508 -0.4952  0.2194
18506SOL    HW157286   7.261   5.141   1.173 -0.0977 -0.6639 -0.5411
18506SOL    HW257287   7.361   5.027   1.183 -0.1996 -0.6271  1.1349
18507SOL     OW57288   4.484   7.060   7.393  0.5056 -0.0775 -0.2498
18507SOL    HW157289   4.456   7.009   7.318 -0.4850  1.1121 -0.7275
18507SOL    HW257290   4.527   7.137   7.355 -0.6946  0.9204  0.3562
18508SOL     OW57291   6.989   6.121   8.933 -0.9287 -0.3524 -0.1792
18508SOL    HW157292   6.903   6.111   8.891 -1.5112 -0.9262  1.0943
18508SOL    HW257293   6.977   6.195   8.993 -1.3449 -2.0456  1.9061
18509SOL     OW57294   1.997   0.907   4.827  0.6604  0.9589  0.4731
18509SOL    HW157295   2.023   0.930   4.916  2.1282  0.6314  0.1458
18509SOL    HW257296   1.912   0.950   4.816 -0.1986 -0.0894  2.4776
18510SOL     OW57297   7.329   2.599   5.429 -0.0957  0.1527 -0.0560
18510SOL    HW157298   7.303   2.628   5.517  0.9858 -1.7689  0.9806
18510SOL    HW257299   7.325   2.503   5.434 -1.0102  0.0014 -2.4596
18511SOL     OW57300   8.646   9.386   0.853  0.5025 -0.1807 -0.4293
18511SOL    HW157301   8.634   9.302   0.897 -0.2308  0.0471 -0.1764
18511SOL    HW257302   8.589   9.380   0.776 -1.3166  0.9154  0.7672
18512SOL     OW57303   5.544   3.613   7.326  0.1038  0.2947 -0.5581
18512SOL    HW157304   5.547   3.694   7.378  0.7690  0.9166 -1.5269
18512SOL    HW257305   5.594   3.634   7.247 -1.4551 -0.3970 -1.7695
18513SOL     OW57306   4.574   5.369   4.205  0.2727  0.1168 -0.6506
18513SOL    HW157307   4.537   5.331   4.284 -0.6308  0.2988 -0.9738
18513SOL    HW257308   4.570   5.464   4.219  1.4549  0.1380 -0.3236
18514SOL     OW57309   5.442   8.878   1.991 -0.3368  0.3932  0.7123
18514SOL    HW157310   5.381   8.863   1.918 -0.0212 -0.0183  0.5302
18514SOL    HW257311   5.528   8.856   1.955 -0.1649  0.3103  1.1721
18515SOL     OW57312   1.736   3.765   6.866 -0.3460 -0.1479  0.0309
18515SOL    HW157313   1.725   3.859   6.874 -2.2259 -0.4304  1.3821
18515SOL    HW257314   1.647   3.729   6.869  0.3589 -2.0087  0.4379
18516SOL     OW57315   1.360   2.225   2.364  0.5445 -0.2543  0.1334
18516SOL    HW157316   1.331   2.262   2.280 -0.0009 -1.4563 -0.2279
18516SOL    HW257317   1.306   2.147   2.376  1.2203 -0.5822  1.1849
18517SOL     OW57318   1.351   8.010   8.555 -0.1732 -0.0125  0.0359
18517SOL    HW157319   1.352   7.939   8.619 -0.3627 -0.2988 -0.2750
18517SOL    HW257320   1.432   8.058   8.572 -1.3269  1.3859  2.0995
18518SOL     OW57321   8.962   5.763   2.674  0.0721 -0.0967  0.1384
18518SOL    HW157322   8.958   5.840   2.731 -0.4480 -0.6227  0.8322
18518SOL    HW257323   8.872   5.748   2.646  0.4309  0.5855 -1.4322
18519SOL     OW57324   1.686   7.977   6.180  0.0100  0.0549  0.7616
18519SOL    HW157325   1.756   7.962   6.117  0.1845 -3.5255  1.5868
18519SOL    HW257326   1.728   8.022   6.253  1.2055 -0.8569  0.6718
18520SOL     OW57327   9.517   3.657   7.915 -0.1046  0.1787 -0.1793
18520SOL    HW157328   9.521   3.659   8.011 -0.7000 -0.1293 -0.1467
18520SOL    HW257329   9.552   3.742   7.888  0.4222  0.1214  0.2979
18521SOL     OW57330   9.002   1.166   2.035  0.1080  0.2535  0.3180
18521SOL    HW157331   8.969   1.202   2.117 -0.5150  2.0175 -0.6446
18521SOL    HW257332   9.097   1.166   2.045  0.0164 -0.6435  1.4380
18522SOL     OW57333   8.423   1.435   6.411  0.1781  0.2929 -0.2956
18522SOL    HW157334   8.494   1.491   6.381  0.6484 -0.6113 -0.9001
18522SOL    HW257335   8.407   1.375   6.339 -2.2214  1.3909 -0.8064
18523SOL     OW57336   9.033   8.775   9.065 -0.8809 -0.9358  0.0217
18523SOL    HW157337   8.963   8.780   9.000 -0.6170 -0.4893 -0.2325
18523SOL    HW257338   9.081   8.695   9.043  0.3023  0.1381 -1.4601
18524SOL     OW57339   0.448   2.033   8.133 -0.8607 -0.4661 -0.1474
18524SOL    HW157340   0.543   2.030   8.120 -0.9054 -0.9847 -0.3899
18524SOL    HW257341   0.412   1.998   8.051 -1.2707 -0.0102 -0.1682
18525SOL     OW57342   0.965   4.122   3.079  0.1504 -0.0104  0.3136
18525SOL    HW157343   0.921   4.062   3.019  0.3180 -1.2623  1.3954
18525SOL    HW257344   0.917   4.113   3.161 -0.9353  2.6906  0.0627
18526SOL     OW57345   5.421   7.480   7.046  0.1462 -0.6583  0.4578
18526SOL    HW157346   5.428   7.419   6.973 -0.2331  0.1339 -0.2674
18526SOL    HW257347   5.500   7.466   7.098  1.3767  0.0461 -1.1251
18527SOL     OW57348   9.142   8.766   4.374 -0.7760  0.3699 -0.0120
18527SOL    HW157349   9.161   8.735   4.286 -1.3003 -0.2548  0.0930
18527SOL    HW257350   9.052   8.738   4.391 -1.0596  1.4361  0.3081
18528SOL     OW57351   6.818   0.223   2.123  0.1844 -0.0871  0.0264
18528SOL    HW157352   6.776   0.309   2.128 -0.1701 -0.3347  1.9162
18528SOL    HW257353   6.757   0.169   2.072 -0.8616  0.1063  1.0250
18529SOL     OW57354   6.514   5.089   9.670 -0.3156 -0.7099 -0.1038
18529SOL    HW157355   6.488   5.056   9.756 -1.7200 -0.3395 -0.3465
18529SOL    HW257356   6.564   5.017   9.631  4.0152  0.5056  2.4924
18530SOL     OW57357   0.187   6.586   9.805 -0.5997  0.4083 -0.6851
18530SOL    HW157358   0.126   6.524   9.765 -0.7687  0.9787 -1.3302
18530SOL    HW257359   0.159   6.672   9.772  1.9229  0.5194 -2.8421
18531SOL     OW57360   1.317   8.878   7.740  0.3188 -0.8039  0.0304
18531SOL    HW157361   1.244   8.818   7.725  0.9423 -1.5706  0.0130
18531SOL    HW257362   1.381   8.855   7.673  0.4957  0.0047 -0.0875
18532SOL     OW57363   9.438   8.073   0.408 -0.7678  0.1346  0.3497
18532SOL    HW157364   9.397   8.131   0.472 -1.4616  0.8056 -0.6761
18532SOL    HW257365   9.388   7.992   0.414  0.1473 -0.3591  1.7267
18533SOL     OW57366   4.024   4.686   4.733  0.8598  0.1869  0.3709
18533SOL    HW157367   3.963   4.689   4.659  1.7579  0.7094 -0.3555
18533SOL    HW257368   4.032   4.592   4.753 -0.1818  0.1053  0.5007
18534SOL     OW57369   8.348   5.185   4.768  0.4744  0.7631  0.0657
18534SOL    HW157370   8.305   5.118   4.715  1.6923 -0.6306  0.7593
18534SOL    HW257371   8.329   5.160   4.859  2.3725  0.2823  0.3878
18535SOL     OW57372   0.084   8.156   7.498  0.2446 -0.3354  0.1468
18535SOL    HW157373   0.143   8.232   7.491 -0.2599 -0.0637 -1.5560
18535SOL    HW257374   0.142   8.083   7.518  1.2691 -0.1608 -1.9627
18536SOL     OW57375   1.633   0.368   4.658 -0.5928  0.1143  0.2724
18536SOL    HW157376   1.674   0.400   4.739 -1.0241  0.3138  0.4118
18536SOL    HW257377   1.618   0.275   4.675  0.0688 -0.0252  0.1105
18537SOL     OW57378   9.786   5.254   7.743  0.2728 -0.2918  0.0817
18537SOL    HW157379   9.824   5.193   7.680 -0.6458 -1.7371  0.8655
18537SOL    HW257380   9.764   5.199   7.819 -1.5818  0.8152  0.4016
18538SOL     OW57381   9.752   9.512   9.479  0.0911  0.1347 -0.5593
18538SOL    HW157382   9.760   9.459   9.559  0.7546  0.9706 -0.0598
18538SOL    HW257383   9.841   9.540   9.460 -0.5054  3.5511  0.9324
18539SOL     OW57384   2.021   1.026   8.612  0.2425  0.1813 -0.3683
18539SOL    HW157385   2.030   1.019   8.707 -1.1179 -0.6866 -0.2801
18539SOL    HW257386   1.927   1.022   8.596  0.4682 -0.1206 -1.7843
18540SOL     OW57387   4.289   4.071   6.263  0.0223  0.1274 -0.4435
18540SOL    HW157388   4.216   4.115   6.221  0.1835 -0.3011 -1.1876
18540SOL    HW257389   4.366   4.101   6.216  0.3910  0.8979  0.6045
18541SOL     OW57390   8.459   8.729   1.373  0.7516  0.0596 -0.2649
18541SOL    HW157391   8.428   8.698   1.288 -0.1817  0.0917  0.0456
18541SOL    HW257392   8.431   8.662   1.435 -0.2331  0.9102  0.2543
18542SOL     OW57393   6.139   0.313   3.716  0.3352 -0.1397  0.3173
18542SOL    HW157394   6.193   0.261   3.774 -1.1518 -0.7375  1.2244
18542SOL    HW257395   6.097   0.378   3.773  0.0942  0.3113 -0.3561
18543SOL     OW57396   7.033   8.143   2.252 -0.1618 -0.4490  0.3305
18543SOL    HW157397   7.048   8.165   2.160 -0.2711 -1.4904  0.0530
18543SOL    HW257398   6.974   8.068   2.249 -1.0272  0.1789  1.2843
18544SOL     OW57399   3.739   0.386   5.539 -0.2546  0.1323  0.1297
18544SOL    HW157400   3.821   0.432   5.523  0.5462 -1.7535 -1.5349
18544SOL    HW257401   3.704   0.366   5.452 -0.6862 -2.1056  0.7523
18545SOL     OW57402   4.440   1.617   8.918  0.4215  0.1518  0.1985
18545SOL    HW157403   4.464   1.647   9.006  0.4583 -0.9113  0.5778
18545SOL    HW257404   4.488   1.535   8.908  0.9001  0.5718 -1.0710
18546SOL     OW57405   6.895   1.853   9.416  0.2981  0.0970 -0.4752
18546SOL    HW157406   6.964   1.794   9.387  0.9754  0.6388  0.0121
18546SOL    HW257407   6.814   1.806   9.396  0.8043 -0.6319 -0.8689
18547SOL     OW57408   1.996   1.884   6.339  0.4638 -0.6938  0.2900
18547SOL    HW157409   1.943   1.815   6.377  0.7280 -0.1009  1.8006
18547SOL    HW257410   1.980   1.878   6.244 -0.7960 -1.7272  0.5472
18548SOL     OW57411   7.323   2.324   5.489  0.1888  0.3291  0.2324
18548SOL    HW157412   7.340   2.260   5.558  0.4234  0.6557  0.4783
18548SOL    HW257413   7.297   2.271   5.413  2.0344 -0.1822 -0.0938
18549SOL     OW57414   5.952   6.975   0.440 -0.2117  0.3342  0.1302
18549SOL    HW157415   5.876   6.996   0.494 -0.5933  0.9287 -0.6202
18549SOL    HW257416   5.917   6.973   0.350  0.4100 -0.6036 -0.1033
18550SOL     OW57417   2.369   8.312   3.356 -0.1241 -0.4577  0.3700
18550SOL    HW157418   2.386   8.327   3.449  1.3453 -1.0992  0.2387
18550SOL    HW257419   2.436   8.364   3.311 -0.8556 -0.1063 -0.3494
18551SOL     OW57420   9.476   2.899   5.632  0.0395  0.0182 -0.6312
18551SOL    HW157421   9.508   2.944   5.711  2.5606  0.2530 -1.6759
18551SOL    HW257422   9.402   2.951   5.603  0.1607  0.9491  0.6208
18552SOL     OW57423   0.530   3.473   6.919  0.1034 -0.4443 -0.0510
18552SOL    HW157424   0.464   3.408   6.944  0.4964 -1.1032 -0.6659
18552SOL    HW257425   0.484   3.556   6.919 -0.0402 -0.4493  2.3543
18553SOL     OW57426   1.251   9.269   9.772  0.7006 -0.6201  0.6209
18553SOL    HW157427   1.324   9.325   9.743  0.0847 -0.7154 -1.2812
18553SOL    HW257428   1.191   9.269   9.697 -1.7967  0.3119  2.5169
18554SOL     OW57429   8.717   5.446   9.639 -0.0501 -0.1054  0.2860
18554SOL    HW157430   8.801   5.480   9.608 -0.2692 -1.6722 -2.3334
18554SOL    HW257431   8.735   5.355   9.663 -0.8313 -0.1967  0.5483
18555SOL     OW57432   2.124   0.082   2.200  0.1279 -0.0728 -0.6973
18555SOL    HW157433   2.134   0.104   2.107 -0.6148 -2.5458 -1.4379
18555SOL    HW257434   2.065   0.006   2.200 -0.7037  0.5010  1.8917
18556SOL     OW57435   9.213   8.698   3.467 -0.4485 -0.2046  0.0397
18556SOL    HW157436   9.178   8.694   3.556 -2.5683 -0.4868 -0.7492
18556SOL    HW257437   9.138   8.718   3.413  0.6535 -0.8105 -1.7988
18557SOL     OW57438   7.767   0.738   6.115  0.1148  0.6788  0.1742
18557SOL    HW157439   7.769   0.729   6.210 -0.7999 -2.6542  0.0032
18557SOL    HW257440   7.859   0.753   6.091  0.1367  3.3934  1.6033
18558SOL     OW57441   0.364   8.879   6.425 -0.4187 -0.0601  0.2154
18558SOL    HW157442   0.460   8.872   6.418 -0.3778 -0.2729  0.9036
18558SOL    HW257443   0.335   8.892   6.335  0.2823  0.2858  0.0253
18559SOL     OW57444   8.964   8.927   4.112 -0.7544 -0.1237  0.5565
18559SOL    HW157445   9.002   8.958   4.030  1.6952 -0.2861  1.5508
18559SOL    HW257446   8.947   8.834   4.097  1.7414 -0.6978  0.8339
18560SOL     OW57447   3.291   5.986   1.963  0.2770 -0.0918  0.8723
18560SOL    HW157448   3.290   5.974   2.058 -0.7117 -0.5559  0.8108
18560SOL    HW257449   3.384   6.000   1.942  0.5650 -0.4480  1.8400
18561SOL     OW57450   7.209   7.204   5.011  0.3000 -0.1939 -0.3577
18561SOL    HW157451   7.279   7.166   5.065 -0.1292 -0.4899  0.0013
18561SOL    HW257452   7.130   7.191   5.063 -0.3099 -1.5949 -1.5784
18562SOL     OW57453   1.624   1.444   0.527  0.0863  0.4555 -0.6339
18562SOL    HW157454   1.674   1.371   0.491  1.6736  0.8276  0.6489
18562SOL    HW257455   1.650   1.520   0.475  1.4765  0.7765  0.4559
18563SOL     OW57456   7.306   0.487   3.694 -0.1792 -0.5273 -0.1193
18563SOL    HW157457   7.263   0.558   3.742  0.0569 -1.3044  1.3066
18563SOL    HW257458   7.380   0.461   3.750 -1.8443 -3.7444  0.8750
18564SOL     OW57459   9.424   5.294   6.935 -0.1055  0.0794  0.5149
18564SOL    HW157460   9.474   5.242   6.998 -0.3698 -1.6090 -0.5916
18564SOL    HW257461   9.396   5.371   6.984 -0.0954 -1.0505  2.4029
18565SOL     OW57462   4.781   5.996   3.889 -0.3664  0.2546  0.0909
18565SOL    HW157463   4.798   6.090   3.883  1.7922 -0.0525  0.3347
18565SOL    HW257464   4.835   5.967   3.963 -0.0612 -1.3497 -0.7034
18566SOL     OW57465   6.776   9.044   6.660 -0.0342 -0.4077  0.4764
18566SOL    HW157466   6.857   9.076   6.697  1.3564 -1.3858 -1.5156
18566SOL    HW257467   6.800   8.961   6.618 -1.6971  0.0237 -1.4924
18567SOL     OW57468   8.110   9.729   1.975  0.4542  0.4155 -0.3580
18567SOL    HW157469   8.095   9.798   2.039  0.3123  1.0928 -1.1141
18567SOL    HW257470   8.173   9.670   2.018 -0.9761 -0.1230  1.1060
18568SOL     OW57471   6.576   9.670   6.378  0.4382 -0.3231 -0.2144
18568SOL    HW157472   6.607   9.760   6.377 -1.3217  0.3399 -2.1124
18568SOL    HW257473   6.647   9.620   6.338  1.0049  0.3712 -0.0897
18569SOL     OW57474   3.089   8.164   3.946 -0.0331  0.2334 -0.2355
18569SOL    HW157475   3.005   8.173   3.901  0.3056  0.8331 -0.7661
18569SOL    HW257476   3.078   8.088   4.003 -1.0791  0.5646  0.0186
18570SOL     OW57477   2.636   0.309   7.779 -0.3191 -0.1760 -0.2020
18570SOL    HW157478   2.701   0.240   7.792 -2.1785 -1.6753  1.7500
18570SOL    HW257479   2.683   0.377   7.730  1.5092 -2.9153 -2.5526
18571SOL     OW57480   0.705   2.969   9.614 -0.3076  0.0983  0.2635
18571SOL    HW157481   0.644   3.035   9.647 -0.1914  0.8729 -0.9814
18571SOL    HW257482   0.779   2.974   9.674 -0.6967  0.4587  0.7236
18572SOL     OW57483   9.207   4.013   8.649  0.4065  0.0500 -1.0214
18572SOL    HW157484   9.241   3.928   8.621  0.6919 -0.3240  0.4222
18572SOL    HW257485   9.193   4.004   8.743 -2.3271  0.6707 -1.2931
18573SOL     OW57486   2.213   0.394   3.097 -0.1987  0.1884  0.0634
18573SOL    HW157487   2.247   0.350   3.175 -2.0135 -0.3370  0.6337
18573SOL    HW257488   2.261   0.355   3.024  0.8295 -0.0391  0.8463
18574SOL     OW57489   0.031   7.391   3.403  0.2157  0.1314  0.2895
18574SOL    HW157490   0.002   7.417   3.315 -1.2333 -1.0776  0.3809
18574SOL    HW257491   0.068   7.471   3.440 -1.4897  1.3602 -0.5020
18575SOL     OW57492   6.149   4.901   8.083 -1.0441  0.2115  0.4406
18575SOL    HW157493   6.062   4.940   8.076 -1.3141 -0.5336 -0.5299
18575SOL    HW257494   6.193   4.924   8.002  0.1870  1.7220  1.4647
18576SOL     OW57495   3.326   7.334   4.038 -0.2391 -0.1782 -0.1052
18576SOL    HW157496   3.286   7.256   4.077  0.4403  0.4538  1.9643
18576SOL    HW257497   3.420   7.324   4.055 -0.0392  0.6701 -0.6328
18577SOL     OW57498   6.657   4.363   0.038  0.0390  0.7133 -0.5033
18577SOL    HW157499   6.707   4.322  -0.033  0.3850  1.8856 -0.9600
18577SOL    HW257500   6.571   4.321   0.033  0.3258  0.1667 -1.0639
18578SOL     OW57501   1.072   4.266   9.377 -0.4903 -0.3951 -0.6552
18578SOL    HW157502   1.065   4.261   9.472  0.1057  2.2236 -0.4041
18578SOL    HW257503   1.138   4.201   9.355  0.6514  0.1626  0.9401
18579SOL     OW57504   4.858   0.476   2.005  0.4887  0.1179  0.1560
18579SOL    HW157505   4.901   0.400   1.966  0.7907  0.7935 -0.8538
18579SOL    HW257506   4.765   0.460   1.991  0.4958 -0.4284  0.6540
18580SOL     OW57507   0.693   0.730   5.687  0.3382  0.7569 -0.4461
18580SOL    HW157508   0.762   0.775   5.734 -0.2265  0.6996  0.4497
18580SOL    HW257509   0.665   0.791   5.619 -0.1484  1.6119  0.5037
18581SOL     OW57510   8.982   9.607   1.632  0.1638  0.1182 -0.1100
18581SOL    HW157511   9.020   9.624   1.718  1.2776 -0.5418 -0.4609
18581SOL    HW257512   8.902   9.557   1.651  0.3736  0.0142  0.5295
18582SOL     OW57513   1.506   7.290   1.713 -0.2124 -0.1245  0.4262
18582SOL    HW157514   1.579   7.247   1.758 -0.8990 -0.7749  0.9514
18582SOL    HW257515   1.450   7.323   1.783 -0.0402  1.0767  0.0298
18583SOL     OW57516   3.541   9.120   1.827 -0.2970  0.2370 -0.5235
18583SOL    HW157517   3.512   9.123   1.918  1.6281  1.3915  0.1196
18583SOL    HW257518   3.480   9.176   1.780 -1.7665 -0.9633 -0.1438
18584SOL     OW57519   7.665   4.346   6.313  0.0157 -0.0253 -0.0929
18584SOL    HW157520   7.618   4.364   6.394 -1.5848 -0.1202 -0.9508
18584SOL    HW257521   7.699   4.258   6.323  1.6187  0.6914  1.2561
18585SOL     OW57522   0.951   4.040   0.563 -0.0945 -0.2456  0.1597
18585SOL    HW157523   0.913   3.995   0.638  0.9445 -2.1062 -0.3955
18585SOL    HW257524   1.036   3.999   0.550 -0.1273  0.2315 -1.8516
18586SOL     OW57525   9.630   3.051   5.815  0.3537  0.4606  0.2585
18586SOL    HW157526   9.597   3.058   5.905  1.9092 -2.4152  1.2119
18586SOL    HW257527   9.724   3.067   5.823  0.7981 -1.4536 -0.4613
18587SOL     OW57528   9.018   3.322   9.658 -0.0197 -0.0025 -0.7707
18587SOL    HW157529   9.006   3.238   9.702  0.3668  0.2329 -0.2008
18587SOL    HW257530   9.001   3.304   9.566 -3.0276 -0.0605 -0.2948
18588SOL     OW57531   1.953   0.843   0.803  0.1191 -0.1667 -0.8291
18588SOL    HW157532   1.893   0.915   0.823 -0.0284 -0.6761  0.6739
18588SOL    HW257533   1.919   0.806   0.722  0.0054  1.2308 -1.4577
18589SOL     OW57534   5.270   7.866   0.965  0.3567  0.1870 -0.1713
18589SOL    HW157535   5.242   7.933   0.903 -0.8535  0.4887  0.6624
18589SOL    HW257536   5.188   7.831   1.001  1.0126 -0.1834  1.0257
18590SOL     OW57537   3.158   9.362   8.845 -0.1703  0.5961  0.2430
18590SOL    HW157538   3.124   9.428   8.785  1.3537  0.9746 -0.2666
18590SOL    HW257539   3.130   9.278   8.806 -0.2327  0.8789 -0.3339
18591SOL     OW57540   6.173   2.168   7.124 -0.0672 -0.0529  0.0428
18591SOL    HW157541   6.223   2.192   7.046  3.1633 -4.0914  0.4467
18591SOL    HW257542   6.093   2.127   7.091 -0.3639  1.2876 -0.9395
18592SOL     OW57543   7.276   5.187   4.014  0.0518 -0.3109 -0.5195
18592SOL    HW157544   7.350   5.171   4.072  1.9800 -1.5997 -3.1227
18592SOL    HW257545   7.200   5.193   4.072  2.0013 -0.0122  2.1855
18593SOL     OW57546   4.446   1.468   5.243 -0.0157  0.5032 -0.6150
18593SOL    HW157547   4.492   1.540   5.201 -1.8303  3.6724  2.3459
18593SOL    HW257548   4.355   1.498   5.248 -0.8935 -2.0998  0.6145
18594SOL     OW57549   8.626   6.373   7.904 -0.4347  0.2976  0.0087
18594SOL    HW157550   8.678   6.392   7.826  0.2493  0.9567  0.6092
18594SOL    HW257551   8.535   6.384   7.875 -0.2471 -0.4479 -0.9416
18595SOL     OW57552   3.514   4.716   8.183  0.6042  0.0783 -0.4420
18595SOL    HW157553   3.530   4.646   8.246 -1.4908 -0.6396 -0.6408
18595SOL    HW257554   3.494   4.670   8.101 -0.3735  0.9222 -0.6887
18596SOL     OW57555   7.166   1.682   6.555 -0.6073  0.6702 -0.4560
18596SOL    HW157556   7.227   1.609   6.567 -0.5337  1.0501  2.0875
18596SOL    HW257557   7.220   1.760   6.565 -1.1309  1.0302 -0.3806
18597SOL     OW57558   7.669   3.494   7.894  0.0490 -0.2605 -0.2073
18597SOL    HW157559   7.605   3.473   7.826 -2.3764  0.5532  1.6712
18597SOL    HW257560   7.689   3.410   7.935 -0.4221 -0.4163 -0.2967
18598SOL     OW57561   4.997   2.413   3.045  0.3719 -0.0693  0.0614
18598SOL    HW157562   5.033   2.501   3.030  1.2666 -0.5919 -0.9498
18598SOL    HW257563   5.073   2.355   3.043 -0.3725 -1.0559 -0.8719
18599SOL     OW57564   6.234   3.881   4.641 -0.7187  0.0279 -0.4933
18599SOL    HW157565   6.200   3.951   4.585  1.8034  1.0254 -0.8897
18599SOL    HW257566   6.305   3.842   4.591 -1.3437 -2.1350  0.1966
18600SOL     OW57567   8.952   1.464   4.998 -0.5327 -0.4077  0.2423
18600SOL    HW157568   9.015   1.452   4.926  0.4344  0.2720  0.9525
18600SOL    HW257569   8.988   1.536   5.050 -1.5852 -0.4210  1.0236
18601SOL     OW57570   7.697   0.121   3.672 -0.0085  0.0894 -0.3757
18601SOL    HW157571   7.687   0.154   3.582 -0.5736 -0.4535 -0.5204
18601SOL    HW257572   7.764   0.177   3.711  0.5106  0.1084 -1.2550
18602SOL     OW57573   0.226   5.234   2.800  0.3101 -0.1922  0.0352
18602SOL    HW157574   0.207   5.238   2.706 -1.6780 -1.2283  0.3416
18602SOL    HW257575   0.242   5.141   2.817  2.3750  0.1914  0.4672
18603SOL     OW57576   9.581   7.896   4.734 -0.2007 -0.5335  0.0026
18603SOL    HW157577   9.626   7.822   4.696 -0.7049 -0.2878 -1.1002
18603SOL    HW257578   9.631   7.917   4.813  0.2206 -1.7298  0.0666
18604SOL     OW57579   0.288   3.405   7.583  0.1636  0.0350  0.5722
18604SOL    HW157580   0.218   3.427   7.644  1.2102  1.8801  1.1743
18604SOL    HW257581   0.301   3.311   7.595 -0.4437  0.1468  2.3522
18605SOL     OW57582   2.925   7.913   0.350 -0.4580  0.5467  0.1496
18605SOL    HW157583   2.836   7.894   0.378 -0.4841  1.2670  0.5681
18605SOL    HW257584   2.979   7.853   0.402 -0.5718  1.2936  1.1447
18606SOL     OW57585   0.848   7.024   7.281  0.4684 -0.0616  0.0980
18606SOL    HW157586   0.765   7.006   7.325 -0.6410  1.1837 -1.3861
18606SOL    HW257587   0.872   6.941   7.240  1.2247 -1.0869  2.4491
18607SOL     OW57588   4.681   8.209   3.105  0.6741 -0.4133  0.0877
18607SOL    HW157589   4.713   8.172   3.188 -0.7396 -0.1199  0.8036
18607SOL    HW257590   4.681   8.303   3.120 -0.1187 -0.3857 -0.0252
18608SOL     OW57591   1.584   6.264   8.508  0.6632 -0.0009  0.7329
18608SOL    HW157592   1.574   6.226   8.595  1.9642 -0.7987  0.5571
18608SOL    HW257593   1.534   6.205   8.451  1.1383 -0.3971  0.7219
18609SOL     OW57594   5.874   8.557   9.301  0.2893 -0.4197 -0.3134
18609SOL    HW157595   5.935   8.627   9.321 -0.1134 -0.3623  0.7555
18609SOL    HW257596   5.846   8.575   9.211  1.6061 -0.2920 -0.7213
18610SOL     OW57597   6.150   4.331   3.927  0.2612 -0.3448  0.0888
18610SOL    HW157598   6.199   4.342   4.009 -1.6390  0.1032  1.2167
18610SOL    HW257599   6.061   4.359   3.948 -0.5208 -1.1777 -1.8761
18611SOL     OW57600   8.819   3.973   3.234  0.1015  0.4661 -0.8417
18611SOL    HW157601   8.779   4.007   3.313 -2.5223 -0.2866 -1.7320
18611SOL    HW257602   8.847   4.050   3.185 -0.1369  1.0264 -0.0966
18612SOL     OW57603   9.676   9.812   6.517 -1.0835  0.0263 -1.2094
18612SOL    HW157604   9.659   9.876   6.587  1.1176  0.2208 -0.7933
18612SOL    HW257605   9.652   9.857   6.437 -2.5970  0.2001 -0.6955
18613SOL     OW57606   2.145   3.535   6.167 -0.1360  0.0614  0.2224
18613SOL    HW157607   2.058   3.517   6.202  0.6205 -2.0844  1.1471
18613SOL    HW257608   2.174   3.613   6.215 -1.1239  0.1901  0.6384
18614SOL     OW57609   2.353   1.921   3.869 -0.1453  0.0758 -0.1881
18614SOL    HW157610   2.433   1.963   3.836 -0.0399 -0.9786 -1.3496
18614SOL    HW257611   2.362   1.924   3.964  1.6764 -0.7286 -0.2940
18615SOL     OW57612   1.718   9.657   7.390 -0.0447 -0.0078 -0.7142
18615SOL    HW157613   1.791   9.616   7.437 -0.4555 -1.1325 -1.0319
18615SOL    HW257614   1.753   9.741   7.362  0.6964  0.0485  0.2987
18616SOL     OW57615   3.545   8.580   1.131 -0.3611 -0.7272  0.1500
18616SOL    HW157616   3.521   8.658   1.082 -0.0961 -1.2483 -0.8345
18616SOL    HW257617   3.538   8.508   1.068 -1.2082 -1.6076  1.1865
18617SOL     OW57618   2.210   8.989   6.033 -0.2515  0.4595 -0.3014
18617SOL    HW157619   2.195   8.949   6.119 -0.6481 -1.7826 -1.3440
18617SOL    HW257620   2.122   9.010   6.001 -0.0786  1.7730  0.0000
18618SOL     OW57621   1.928   2.510   4.272  0.2124 -0.2763  0.3336
18618SOL    HW157622   1.878   2.433   4.300  1.7277 -0.6002  2.3863
18618SOL    HW257623   1.995   2.475   4.214  0.6916 -0.4890  1.0001
18619SOL     OW57624   3.730   1.772   4.861 -0.6047  0.0565 -0.3981
18619SOL    HW157625   3.799   1.709   4.842 -0.2110  0.7163 -1.2294
18619SOL    HW257626   3.648   1.722   4.851 -0.3347 -0.1224 -1.9294
18620SOL     OW57627   6.958   0.686   2.611  0.1300 -0.4524  0.5347
18620SOL    HW157628   7.034   0.640   2.649 -1.6349 -1.5594  2.9781
18620SOL    HW257629   6.906   0.713   2.686 -1.9997  0.1410 -1.0590
18621SOL     OW57630   9.012   4.005   6.194  0.1090 -0.8818 -0.1383
18621SOL    HW157631   9.039   4.041   6.109  2.6399 -2.1537  0.0354
18621SOL    HW257632   9.039   4.071   6.258  0.4888 -1.0196 -0.1538
18622SOL     OW57633   6.997   0.184   5.519 -0.1870 -0.4458  0.0080
18622SOL    HW157634   7.020   0.273   5.493  0.2942 -0.6085 -0.1266
18622SOL    HW257635   6.995   0.188   5.615  0.5826 -0.4663  0.0324
18623SOL     OW57636   3.666   6.288   1.232  0.7456 -0.0872 -0.1246
18623SOL    HW157637   3.603   6.323   1.296 -0.9563 -1.3810 -1.0204
18623SOL    HW257638   3.659   6.193   1.241  0.9513 -0.2837 -1.7655
18624SOL     OW57639   0.486   1.179   2.582  0.4371 -0.2023  0.3450
18624SOL    HW157640   0.529   1.094   2.576 -1.6128 -1.2186 -0.7576
18624SOL    HW257641   0.534   1.235   2.522  1.6745 -0.6034  0.9280
18625SOL     OW57642   0.107   9.123   7.960  0.0401  0.8130  0.0945
18625SOL    HW157643   0.071   9.127   7.871  1.1395  0.4047 -0.3845
18625SOL    HW257644   0.051   9.061   8.006 -0.0149  0.3534 -0.5745
18626SOL     OW57645   3.052   0.284   4.778  0.0054 -0.4956  0.0429
18626SOL    HW157646   3.037   0.259   4.869 -0.5612  1.7048  0.6101
18626SOL    HW257647   2.969   0.321   4.749  0.9436  1.3463 -0.4552
18627SOL     OW57648   8.364   2.018   3.145 -0.3339  0.0346  0.0552
18627SOL    HW157649   8.420   2.001   3.070 -0.3303 -3.0042  0.6368
18627SOL    HW257650   8.422   2.055   3.211  0.3788 -0.4249 -0.3081
18628SOL     OW57651   7.210   7.463   2.160 -0.1420  0.7813 -0.6538
18628SOL    HW157652   7.263   7.461   2.240 -0.6745 -0.7777 -0.3061
18628SOL    HW257653   7.136   7.520   2.181  1.0632  2.5757 -0.9806
18629SOL     OW57654   6.789   9.092   1.915  0.0292 -0.0835  0.5125
18629SOL    HW157655   6.755   9.014   1.958  2.1943 -0.2513  2.0652
18629SOL    HW257656   6.714   9.128   1.868 -1.3912 -2.2397  0.9935
18630SOL     OW57657   1.393   5.301   4.191 -0.8400 -0.2921  0.3488
18630SOL    HW157658   1.369   5.373   4.250 -2.7972 -0.0366 -0.6768
18630SOL    HW257659   1.371   5.334   4.104 -0.2984 -1.5763 -0.2972
18631SOL     OW57660   7.337   9.685   2.977  0.1570  0.0403  1.1962
18631SOL    HW157661   7.259   9.739   2.988 -1.2759 -1.5237 -0.5614
18631SOL    HW257662   7.312   9.599   3.011  1.6408 -0.1045  1.9757
18632SOL     OW57663   7.386   8.933   1.894 -0.1311  0.1029  0.0176
18632SOL    HW157664   7.359   8.988   1.820 -0.4914  1.3498  1.0290
18632SOL    HW257665   7.332   8.963   1.967  0.6783 -0.6263  0.9478
18633SOL     OW57666   4.400   2.736   4.047  0.4711  0.7978 -0.8839
18633SOL    HW157667   4.413   2.690   4.130  0.7822  0.0811 -1.3243
18633SOL    HW257668   4.322   2.790   4.062 -0.9147 -1.1043 -0.8569
18634SOL     OW57669   2.906   2.601   4.437 -0.1253  0.0427 -0.0291
18634SOL    HW157670   2.864   2.567   4.516  0.7344  0.5240  0.6700
18634SOL    HW257671   2.840   2.593   4.369 -0.8721 -0.4488  0.7233
18635SOL     OW57672   4.864   9.721   7.501  0.5637  0.2959  0.6951
18635SOL    HW157673   4.776   9.718   7.464  0.3742  1.9674  0.9223
18635SOL    HW257674   4.919   9.751   7.429  0.7515  0.3491  0.8607
18636SOL     OW57675   2.689   9.741   6.901 -0.2483 -0.1021  0.3050
18636SOL    HW157676   2.731   9.686   6.835 -0.4547 -0.4281  0.4480
18636SOL    HW257677   2.645   9.680   6.960 -1.3853  0.2612 -0.1504
18637SOL     OW57678   0.755   6.348   5.670  0.0186 -0.2718  0.5610
18637SOL    HW157679   0.740   6.409   5.742 -1.7076  0.2759 -0.1991
18637SOL    HW257680   0.764   6.262   5.712 -1.1750  0.0049  1.4396
18638SOL     OW57681   0.025   4.069   2.676  0.7511 -0.0601  0.1302
18638SOL    HW157682  -0.021   4.119   2.742 -0.0479 -0.5880 -0.0120
18638SOL    HW257683   0.113   4.105   2.675 -0.0723  2.0720 -0.7265
18639SOL     OW57684   3.493   1.208   7.257 -0.4306  0.0333  0.3624
18639SOL    HW157685   3.486   1.245   7.169 -1.6211 -1.1848 -0.0834
18639SOL    HW257686   3.475   1.282   7.316  0.7713  0.9546 -0.3645
18640SOL     OW57687   3.536   4.749   8.511 -0.1736  0.0963  0.4120
18640SOL    HW157688   3.630   4.759   8.498 -0.0989  0.6783  1.2972
18640SOL    HW257689   3.497   4.799   8.439  0.1972  0.3074  0.3549
18641SOL     OW57690   2.718   7.663   1.431 -0.2756 -0.0130 -0.2525
18641SOL    HW157691   2.690   7.754   1.432 -0.1961  0.0208  1.0614
18641SOL    HW257692   2.666   7.621   1.499  0.0089 -0.8456 -0.5365
18642SOL     OW57693   3.933   5.401   3.378  0.3350 -0.4692  0.3645
18642SOL    HW157694   3.982   5.481   3.396 -2.4172  1.0912  1.5586
18642SOL    HW257695   3.935   5.352   3.460 -0.2211 -0.3387  0.4550
18643SOL     OW57696   5.121   5.349   9.357 -0.4907  0.6869 -1.0301
18643SOL    HW157697   5.169   5.276   9.397 -0.1620  0.0170 -2.5554
18643SOL    HW257698   5.031   5.318   9.352 -0.5823  0.8749 -0.5928
18644SOL     OW57699   3.174   5.083   0.889 -0.2251  0.7574 -0.1888
18644SOL    HW157700   3.207   5.086   0.799 -1.6875  1.4682 -0.7283
18644SOL    HW257701   3.108   5.152   0.893 -1.4139 -0.3812  0.9231
18645SOL     OW57702   7.484   3.939   6.873  0.3083 -0.1086  0.3926
18645SOL    HW157703   7.440   3.858   6.900 -1.2018  0.0988 -1.2407
18645SOL    HW257704   7.561   3.909   6.825  0.6211 -0.5404  1.1520
18646SOL     OW57705   5.448   3.377   0.844  0.3725 -0.0803  0.1521
18646SOL    HW157706   5.413   3.294   0.875 -0.8575  0.2411 -0.3130
18646SOL    HW257707   5.517   3.352   0.781 -1.3251 -0.8148 -1.5111
18647SOL     OW57708   7.314   1.682   4.891  0.1879  0.2630 -0.1993
18647SOL    HW157709   7.232   1.680   4.843 -0.4965 -0.4284  0.9483
18647SOL    HW257710   7.382   1.668   4.825 -0.6878 -0.3244 -0.9919
18648SOL     OW57711   4.694   0.983   7.730  0.6008 -0.4423 -0.2842
18648SOL    HW157712   4.724   1.029   7.808  0.6592  0.9702 -1.1071
18648SOL    HW257713   4.599   0.976   7.741  0.5837 -0.0541 -0.1873
18649SOL     OW57714   5.159   8.777   1.021 -0.2178 -0.4729  0.7976
18649SOL    HW157715   5.086   8.716   1.019 -0.8757  0.2917 -1.6422
18649SOL    HW257716   5.124   8.856   1.060 -0.7880 -0.0480 -0.5291
18650SOL     OW57717   5.251   7.186   7.981  0.3090  0.1160  0.2194
18650SOL    HW157718   5.180   7.241   8.014 -1.0748  0.2302 -2.5687
18650SOL    HW257719   5.209   7.101   7.965  1.0255 -0.0947 -0.6235
18651SOL     OW57720   7.162   8.808   1.054  0.1684  0.1316  0.5639
18651SOL    HW157721   7.113   8.885   1.084 -0.5505 -0.6638  1.5053
18651SOL    HW257722   7.094   8.747   1.024  0.6535 -0.5743  0.8713
18652SOL     OW57723   8.873   9.691   8.404  0.2576  0.1694  0.0766
18652SOL    HW157724   8.943   9.659   8.347  1.0955 -0.3324  1.3411
18652SOL    HW257725   8.916   9.754   8.462 -0.0713 -0.8768  1.5338
18653SOL     OW57726   7.475   0.379   3.049  0.2955  0.0941  0.6072
18653SOL    HW157727   7.523   0.361   2.969  3.0956 -1.9438  2.5395
18653SOL    HW257728   7.389   0.337   3.035 -0.1031  1.5532 -1.9657
18654SOL     OW57729   8.507   7.586   8.879  0.1950  0.0219  0.2534
18654SOL    HW157730   8.503   7.511   8.939  0.7018  0.3801  0.7478
18654SOL    HW257731   8.505   7.547   8.792 -1.5326 -0.4738  0.4573
18655SOL     OW57732   5.300   4.721   3.064  0.0279  0.6931 -0.4338
18655SOL    HW157733   5.241   4.773   3.119 -0.2041  0.8452 -0.8224
18655SOL    HW257734   5.241   4.672   3.006  0.2262 -0.1855  0.0792
18656SOL     OW57735   7.761   7.103   1.507 -0.5756  0.2734  0.0350
18656SOL    HW157736   7.673   7.126   1.538 -1.8922 -1.4816 -2.0490
18656SOL    HW257737   7.751   7.013   1.474  1.5611  0.6508 -1.8635
18657SOL     OW57738   3.534   5.590   6.167  0.2257 -0.0602 -0.0275
18657SOL    HW157739   3.547   5.552   6.254  2.0599  0.5960  0.0447
18657SOL    HW257740   3.594   5.542   6.110  1.8981  1.9743 -0.1223
18658SOL     OW57741   4.549   5.855   5.438  0.7082 -0.1541 -0.2209
18658SOL    HW157742   4.564   5.853   5.343  0.3741 -0.4384 -0.2701
18658SOL    HW257743   4.563   5.765   5.466 -0.2816 -0.3106 -0.1780
18659SOL     OW57744   4.468   4.010   1.869  0.1442  0.7167 -0.1114
18659SOL    HW157745   4.502   3.987   1.782 -0.5689 -2.2666  0.2854
18659SOL    HW257746   4.374   4.015   1.858  0.0443  0.2704  0.4638
18660SOL     OW57747   4.763   3.587   2.582 -0.1084 -0.1054 -0.2987
18660SOL    HW157748   4.774   3.672   2.538 -1.1981  0.6429  0.8028
18660SOL    HW257749   4.679   3.595   2.628 -0.0202 -1.6380  0.1600
18661SOL     OW57750   4.588   0.706   5.265 -0.4116 -0.0725  0.1222
18661SOL    HW157751   4.612   0.684   5.355  0.1707 -0.0810 -0.0326
18661SOL    HW257752   4.504   0.750   5.273 -0.3093  0.0289  0.6803
18662SOL     OW57753   8.272   5.632   7.456 -0.2776  0.5778 -0.7402
18662SOL    HW157754   8.363   5.612   7.433  0.6264  2.1771  1.2026
18662SOL    HW257755   8.261   5.724   7.434 -1.4899  0.3618 -1.0843
18663SOL     OW57756   5.167   3.416   3.462  0.1006  0.1269  0.0025
18663SOL    HW157757   5.190   3.357   3.533  1.4589  2.4250  1.6340
18663SOL    HW257758   5.078   3.392   3.437 -0.0311 -1.3925  1.7884
18664SOL     OW57759   8.953   0.833   8.497 -0.1001  0.2148 -0.2320
18664SOL    HW157760   9.045   0.858   8.487 -0.0445  0.0665 -0.1061
18664SOL    HW257761   8.953   0.774   8.572 -0.1439 -0.5874 -0.8482
18665SOL     OW57762   5.960   8.337   9.592 -0.3021  0.0668 -0.0506
18665SOL    HW157763   6.021   8.402   9.558 -0.0027  0.0486  0.4488
18665SOL    HW257764   5.874   8.379   9.586 -0.4017 -0.3054 -1.7739
18666SOL     OW57765   6.619   5.631   3.104  0.0106 -0.5519  0.3055
18666SOL    HW157766   6.690   5.696   3.095 -1.4644  0.9804 -0.8601
18666SOL    HW257767   6.539   5.680   3.084 -1.3139 -2.4461  0.7070
18667SOL     OW57768   1.048   6.091   1.373  0.5650  0.2477 -0.0301
18667SOL    HW157769   1.012   6.166   1.326  1.2587  0.6056 -0.0131
18667SOL    HW257770   1.114   6.055   1.313 -0.0287 -0.5877 -0.1984
18668SOL     OW57771   1.140   2.960   0.495  0.7231 -0.2225  0.0782
18668SOL    HW157772   1.195   3.034   0.468  0.3920 -0.3173 -0.8867
18668SOL    HW257773   1.195   2.911   0.556  1.7133 -0.2862 -0.8255
18669SOL     OW57774   8.407   4.689   0.436  0.0268 -0.4290  0.2918
18669SOL    HW157775   8.465   4.748   0.388 -1.4814  0.3396 -0.6758
18669SOL    HW257776   8.319   4.721   0.416 -0.8080 -2.4139  0.5491
18670SOL     OW57777   8.412   9.754   9.612 -0.6581  0.2591 -0.0608
18670SOL    HW157778   8.323   9.731   9.587 -0.5106 -1.2385  0.6805
18670SOL    HW257779   8.467   9.689   9.567  0.0635  1.1382 -0.4765
18671SOL     OW57780   1.483   2.484   6.177 -0.4451 -0.2753 -0.0861
18671SOL    HW157781   1.429   2.525   6.110  1.3756 -0.4248 -1.7158
18671SOL    HW257782   1.537   2.554   6.212 -0.2559 -0.5057  0.0908
18672SOL     OW57783   4.387   2.250   0.447  0.0038  0.3415  0.0225
18672SOL    HW157784   4.296   2.221   0.440 -0.0177  0.1713  0.8997
18672SOL    HW257785   4.432   2.178   0.492  1.1103 -0.6492 -2.5167
18673SOL     OW57786   8.641   8.237   2.637  0.1910 -0.1043  0.0687
18673SOL    HW157787   8.655   8.316   2.584 -0.9314  0.7615  1.0079
18673SOL    HW257788   8.572   8.262   2.699 -0.1209 -1.8058  0.4439
18674SOL     OW57789   7.346   4.918   6.886 -0.0367 -0.1649 -0.1827
18674SOL    HW157790   7.375   4.858   6.817  0.2114 -1.7960  1.2746
18674SOL    HW257791   7.251   4.908   6.888 -0.6031  2.9053 -2.8948
18675SOL     OW57792   5.497   7.368   6.477  0.3146  0.4532  0.0440
18675SOL    HW157793   5.564   7.402   6.417 -0.0295  0.7555 -0.1745
18675SOL    HW257794   5.426   7.339   6.419 -0.1820  1.1011  0.3193
18676SOL     OW57795   7.412   1.664   3.524 -0.4262  0.3762 -0.2697
18676SOL    HW157796   7.490   1.693   3.476 -0.1814 -0.3419 -0.3188
18676SOL    HW257797   7.395   1.576   3.491 -0.6762  0.1499  0.4406
18677SOL     OW57798   5.857   8.539   8.177 -1.0304  0.2963 -0.4598
18677SOL    HW157799   5.816   8.457   8.204  2.3319 -0.4228  3.4751
18677SOL    HW257800   5.950   8.519   8.170 -0.2083  3.5022 -0.5000
18678SOL     OW57801   6.762   8.612   8.330  0.3377  0.1012  0.3195
18678SOL    HW157802   6.821   8.577   8.264  1.0705  1.4821  0.2090
18678SOL    HW257803   6.820   8.646   8.398 -0.3550  0.6382  0.6525
18679SOL     OW57804   7.751   4.061   8.911  0.2909  0.8318  0.0707
18679SOL    HW157805   7.825   4.005   8.935  0.8157  1.1111 -0.8638
18679SOL    HW257806   7.678   3.999   8.899  0.6265  0.4490 -0.0283
18680SOL     OW57807   5.597   4.764   5.077  0.5077  0.1340  0.2855
18680SOL    HW157808   5.654   4.828   5.120  0.9216  0.7808 -1.1617
18680SOL    HW257809   5.509   4.800   5.084  0.0427 -1.3009  3.3360
18681SOL     OW57810   5.187   3.664   4.359 -0.1980 -0.5973  0.5516
18681SOL    HW157811   5.240   3.639   4.284 -0.7533 -0.1322 -0.0051
18681SOL    HW257812   5.251   3.692   4.425  0.2486  0.6338 -0.3633
18682SOL     OW57813   6.262   8.901   8.122  0.3248  0.1043  0.0656
18682SOL    HW157814   6.273   8.867   8.211  1.4508 -0.8563 -0.4180
18682SOL    HW257815   6.324   8.973   8.115 -0.2325  0.6129  0.2551
18683SOL     OW57816   7.275   3.670   7.533 -0.2888 -0.0232 -0.1218
18683SOL    HW157817   7.228   3.751   7.558  1.8295  1.0094  0.7941
18683SOL    HW257818   7.223   3.600   7.573 -1.4189  0.9961  0.2890
18684SOL     OW57819   2.761   6.626   5.540 -0.0280  0.3562  0.1369
18684SOL    HW157820   2.846   6.669   5.536 -0.6667  1.7050  0.2625
18684SOL    HW257821   2.757   6.573   5.461  1.5324 -0.9539  0.8907
18685SOL     OW57822   7.539   2.537   2.599 -0.4715  0.3191  0.6110
18685SOL    HW157823   7.458   2.579   2.567 -0.8455 -1.0464 -0.3259
18685SOL    HW257824   7.607   2.573   2.542 -1.1519 -2.2024 -2.0602
18686SOL     OW57825   7.048   6.679   1.394 -0.1932 -0.2352  0.4828
18686SOL    HW157826   7.011   6.729   1.466 -0.3495 -1.6997  1.4636
18686SOL    HW257827   6.976   6.667   1.333 -1.0614 -1.9211  1.7503
18687SOL     OW57828   8.437   6.256   3.015 -0.0597  0.2769  0.5248
18687SOL    HW157829   8.528   6.235   3.036  0.1535  2.2305  1.8480
18687SOL    HW257830   8.395   6.171   3.003  2.0359 -0.6629 -0.6442
18688SOL     OW57831   4.642   1.553   0.261 -0.1765 -0.3235  0.2658
18688SOL    HW157832   4.696   1.630   0.248  0.0856 -0.6286 -0.4989
18688SOL    HW257833   4.611   1.560   0.351  0.6515  0.1572  0.5197
18689SOL     OW57834   2.202   0.263   1.193  0.0154 -0.2385 -0.5601
18689SOL    HW157835   2.180   0.267   1.287 -1.7391  0.3912 -0.9645
18689SOL    HW257836   2.189   0.353   1.162  1.7105 -0.1782 -1.1991
18690SOL     OW57837   2.667   5.047   3.100  0.4920 -0.1415  0.3684
18690SOL    HW157838   2.661   5.100   3.021 -3.2228  0.0512  0.5955
18690SOL    HW257839   2.658   5.110   3.172 -1.8832 -0.7113  0.6823
18691SOL     OW57840   4.626   4.226   8.238  0.1030  0.4252 -0.1880
18691SOL    HW157841   4.582   4.152   8.280 -1.5316  2.4127  1.8903
18691SOL    HW257842   4.644   4.196   8.149 -0.1056 -2.5737  0.6780
18692SOL     OW57843   4.577   6.726   5.836  0.8070  0.1159  0.4133
18692SOL    HW157844   4.576   6.729   5.931  1.0137  0.7163  0.4008
18692SOL    HW257845   4.630   6.649   5.815  2.3686  1.0401  0.7853
18693SOL     OW57846   6.169   5.241   0.873  0.5078  0.9637  0.5518
18693SOL    HW157847   6.240   5.189   0.835  1.2824  1.3195  1.4704
18693SOL    HW257848   6.101   5.176   0.893  0.7559  0.5532  0.1027
18694SOL     OW57849   8.689   6.114   6.687  0.2397 -0.3680 -0.6075
18694SOL    HW157850   8.693   6.091   6.780 -1.4324 -0.3711 -0.5157
18694SOL    HW257851   8.610   6.071   6.655 -1.5072  2.8667 -1.0619
18695SOL     OW57852   3.576   6.887   7.766  0.3141  0.4082 -0.2968
18695SOL    HW157853   3.594   6.832   7.690 -0.9931  1.0204 -1.0794
18695SOL    HW257854   3.553   6.972   7.729  0.5450  0.9811  0.8294
18696SOL     OW57855   1.570   7.259   8.970 -0.2613 -0.2328  0.3887
18696SOL    HW157856   1.623   7.337   8.984 -0.0585 -0.1982 -0.5400
18696SOL    HW257857   1.540   7.234   9.058 -0.5782  1.0600  0.6580
18697SOL     OW57858   2.713   5.232   9.616  0.7657 -0.4764  0.5411
18697SOL    HW157859   2.621   5.206   9.604  0.6862  0.1161 -0.1715
18697SOL    HW257860   2.756   5.152   9.647  0.3379 -1.2363 -0.7151
18698SOL     OW57861   8.535   7.405   1.684 -0.1710  0.1612 -0.2847
18698SOL    HW157862   8.613   7.454   1.660  0.2773 -0.3301  0.1418
18698SOL    HW257863   8.462   7.461   1.657  0.3193  1.1303  0.3517
18699SOL     OW57864   2.380   5.639   9.147  0.4982  0.5374  0.1847
18699SOL    HW157865   2.464   5.671   9.112 -0.1429  1.5845 -0.4533
18699SOL    HW257866   2.338   5.717   9.182 -1.0540  0.4003 -1.2659
18700SOL     OW57867   5.761   6.853   3.256  0.7816 -0.1677 -0.2890
18700SOL    HW157868   5.696   6.785   3.239 -0.1058  1.1331 -2.6809
18700SOL    HW257869   5.782   6.844   3.349 -1.7768 -1.5449  0.2580
18701SOL     OW57870   4.529   7.696   2.117 -0.1440  0.0245 -0.3369
18701SOL    HW157871   4.603   7.705   2.177 -0.6140  1.0669  0.1068
18701SOL    HW257872   4.459   7.660   2.171  0.3968 -2.2736 -1.0658
18702SOL     OW57873   3.092   0.857   6.623  0.0138  0.0495  0.8188
18702SOL    HW157874   3.112   0.896   6.708  0.2509  2.3407 -0.1912
18702SOL    HW257875   3.166   0.883   6.568 -0.7695 -0.2616 -0.4091
18703SOL     OW57876   4.808   9.067   4.385  0.0338 -0.1779 -0.5095
18703SOL    HW157877   4.896   9.028   4.380  0.9958  2.0027 -2.1041
18703SOL    HW257878   4.769   9.047   4.301 -0.5026  0.0258 -0.3098
18704SOL     OW57879   3.335   2.712   8.806 -0.1165  0.2241  0.7649
18704SOL    HW157880   3.280   2.706   8.728  2.2088 -0.1099 -0.9383
18704SOL    HW257881   3.355   2.621   8.828 -2.8172  0.0971  3.4605
18705SOL     OW57882   1.077   2.728   4.564 -0.0470  0.5142 -0.1564
18705SOL    HW157883   1.002   2.675   4.535  0.7669 -0.2677 -0.9160
18705SOL    HW257884   1.078   2.720   4.659 -0.2516 -0.4117 -0.2278
18706SOL     OW57885   8.298   1.845   6.612  0.3548 -0.0474  0.4488
18706SOL    HW157886   8.317   1.935   6.639  1.5437 -0.6166  1.6682
18706SOL    HW257887   8.385   1.805   6.601 -0.0735 -0.3223 -2.8101
18707SOL     OW57888   5.572   4.410   3.812 -0.2258  0.0539  0.4394
18707SOL    HW157889   5.525   4.492   3.825 -1.9261 -0.5860 -1.1906
18707SOL    HW257890   5.544   4.380   3.725 -0.6251 -2.8440  1.4587
18708SOL     OW57891   7.022   9.739   3.528  0.5283  0.2168 -0.1066
18708SOL    HW157892   6.941   9.774   3.491  0.3655 -0.4484 -0.4077
18708SOL    HW257893   7.002   9.725   3.621  0.2761  0.0164 -0.1883
18709SOL     OW57894   9.220   4.090   1.101 -0.2402  0.2496 -0.6335
18709SOL    HW157895   9.302   4.057   1.064  1.2018  1.9831  0.8089
18709SOL    HW257896   9.224   4.067   1.193 -1.2493  0.6089 -0.4926
18710SOL     OW57897   1.307   1.513   0.417  0.4300 -0.8868  0.4796
18710SOL    HW157898   1.364   1.572   0.468  1.3163 -0.7469 -0.6305
18710SOL    HW257899   1.223   1.559   0.412  0.6481 -0.4282  0.9335
18711SOL     OW57900   9.757   2.987   5.183 -0.1015 -0.2699  0.1559
18711SOL    HW157901   9.838   3.015   5.226 -0.7229  0.8050  0.6528
18711SOL    HW257902   9.693   2.981   5.254 -0.6076 -0.5464 -0.3180
18712SOL     OW57903   7.888   1.461   6.820 -0.1749 -0.2944  0.3913
18712SOL    HW157904   7.895   1.423   6.908  3.1578  2.1911  1.4286
18712SOL    HW257905   7.979   1.469   6.790 -1.0539  1.3839 -2.1680
18713SOL     OW57906   1.285   5.637   0.244  0.2625  0.0343  0.5786
18713SOL    HW157907   1.296   5.557   0.193  0.4654  0.6555 -0.3715
18713SOL    HW257908   1.246   5.607   0.326 -0.6291 -0.9221 -0.1572
18714SOL     OW57909   9.473   3.994   8.392 -0.3849 -1.0458 -0.1211
18714SOL    HW157910   9.391   3.959   8.427  0.9484 -4.1573  0.2105
18714SOL    HW257911   9.536   3.986   8.464  0.0350  2.5505  0.0973
18715SOL     OW57912   1.285   0.448   8.739 -0.6248  0.3681 -0.2541
18715SOL    HW157913   1.242   0.532   8.749  0.2444  0.8105 -0.1688
18715SOL    HW257914   1.343   0.459   8.663  0.6149  0.3357  0.6591
18716SOL     OW57915   6.689   1.437   3.356 -0.5902  0.1628 -0.7226
18716SOL    HW157916   6.733   1.385   3.423 -2.2770 -0.2849  0.0867
18716SOL    HW257917   6.760   1.468   3.299  0.8951  0.4626  1.1843
18717SOL     OW57918   1.667   3.412   0.317 -0.1727  0.2347  0.4320
18717SOL    HW157919   1.611   3.352   0.267 -0.3706  1.3691 -0.7736
18717SOL    HW257920   1.669   3.375   0.405 -1.9161 -0.4579  0.2300
18718SOL     OW57921   5.986   1.193   6.366  0.1661  0.0413  0.2327
18718SOL    HW157922   5.992   1.127   6.435 -2.0705 -0.2976  0.1555
18718SOL    HW257923   5.972   1.275   6.413  1.5846  0.2942  0.2652
18719SOL     OW57924   6.420   1.056   3.079  0.0472  0.3034  0.0506
18719SOL    HW157925   6.349   1.090   3.026 -0.8497  0.0222  1.0347
18719SOL    HW257926   6.377   1.001   3.145  1.0552  1.0256  1.3812
18720SOL     OW57927   5.292   8.597   3.894  0.2499 -0.3730  0.3069
18720SOL    HW157928   5.283   8.515   3.942  2.6963 -2.1013 -1.8850
18720SOL    HW257929   5.274   8.665   3.959 -1.1997 -2.5715  2.3964
18721SOL     OW57930   1.749   2.230   3.552 -0.1565 -0.0222  0.3558
18721SOL    HW157931   1.735   2.138   3.575  0.4078 -0.2219 -0.0703
18721SOL    HW257932   1.683   2.247   3.485  0.6864 -0.5545 -0.6363
18722SOL     OW57933   3.129   4.187   1.274 -0.1747 -0.1091  0.0060
18722SOL    HW157934   3.139   4.282   1.275 -0.4344 -0.0811  1.0111
18722SOL    HW257935   3.193   4.157   1.210  0.1294  0.7221 -0.0916
18723SOL     OW57936   9.523   2.923   0.446 -0.5292  0.2257  0.2966
18723SOL    HW157937   9.619   2.922   0.447 -0.5265  0.0573  0.0192
18723SOL    HW257938   9.501   3.006   0.405 -0.5023  0.2807  0.3933
18724SOL     OW57939   4.453   9.070   9.449 -0.1222  0.1478  0.2817
18724SOL    HW157940   4.526   9.011   9.429  0.1559  0.6783 -0.3163
18724SOL    HW257941   4.490   9.132   9.512  0.0009  0.5135 -0.1424
18725SOL     OW57942   4.414   3.197   9.235  0.3500  0.5098  0.5051
18725SOL    HW157943   4.355   3.122   9.221  0.9268  0.0957  0.2670
18725SOL    HW257944   4.356   3.267   9.267 -0.8201  1.0941 -2.5971
18726SOL     OW57945   6.080   9.032   0.576  0.2773  0.3087 -0.3458
18726SOL    HW157946   5.999   9.070   0.542  0.7861  0.4819 -1.3966
18726SOL    HW257947   6.112   9.096   0.639 -2.2288 -1.3399  2.8564
18727SOL     OW57948   5.984   2.783   5.304 -0.3734 -0.4183 -0.4112
18727SOL    HW157949   5.900   2.798   5.262 -0.6476 -0.2932  0.1682
18727SOL    HW257950   6.013   2.698   5.271 -0.4159 -0.1720 -1.1056
18728SOL     OW57951   8.139   5.429   9.651  0.3908 -0.1518 -0.3166
18728SOL    HW157952   8.186   5.488   9.592  1.8456  2.3707  3.0415
18728SOL    HW257953   8.073   5.484   9.693  1.3647 -0.9107  2.4621
18729SOL     OW57954   3.415   8.784   4.407 -0.1673  0.4121  0.3127
18729SOL    HW157955   3.500   8.812   4.375  0.1841  0.1877  1.0302
18729SOL    HW257956   3.433   8.706   4.459 -1.0182 -0.5903 -0.8408
18730SOL     OW57957   0.055   9.525   7.615  1.1594 -0.2678  0.1898
18730SOL    HW157958  -0.004   9.450   7.610 -1.4921  1.7159 -1.3776
18730SOL    HW257959   0.134   9.497   7.570  0.0968 -2.0072 -0.6924
18731SOL     OW57960   1.511   8.971   7.527 -0.2467  0.1638  0.0857
18731SOL    HW157961   1.461   9.048   7.554 -2.5047 -0.7281 -1.3046
18731SOL    HW257962   1.513   8.976   7.431 -0.7315 -1.6513 -0.0523
18732SOL     OW57963   2.198   3.527   7.756 -0.0543  0.2509  0.0982
18732SOL    HW157964   2.221   3.437   7.734  0.0459  0.5738 -1.2450
18732SOL    HW257965   2.158   3.522   7.842 -0.3944 -1.1275 -0.1190
18733SOL     OW57966   1.051   5.748   2.545 -0.5937 -0.0066 -0.1605
18733SOL    HW157967   1.045   5.678   2.480 -1.6504  0.4556 -0.6002
18733SOL    HW257968   1.143   5.774   2.545 -0.7688  0.8702 -2.4897
18734SOL     OW57969   5.194   4.511   1.874 -0.3767  0.0038 -0.0968
18734SOL    HW157970   5.206   4.558   1.956 -2.3054 -0.2099  0.3599
18734SOL    HW257971   5.226   4.422   1.892  0.5178  0.3302 -0.0380
18735SOL     OW57972   4.163   4.852   1.887  0.3544 -0.7944 -0.3300
18735SOL    HW157973   4.195   4.770   1.925 -1.6699 -0.5406  2.1877
18735SOL    HW257974   4.072   4.858   1.917  0.5871  2.6362  0.0285
18736SOL     OW57975   0.449   1.995   4.550 -0.2039 -0.5937  0.0478
18736SOL    HW157976   0.403   1.982   4.467 -1.6799 -2.9865  1.1157
18736SOL    HW257977   0.433   1.914   4.599  1.3141  0.3908  2.3416
18737SOL     OW57978   0.191   9.355   2.852  0.0471  0.1711  0.4412
18737SOL    HW157979   0.267   9.407   2.880 -0.1048  0.2251  0.7584
18737SOL    HW257980   0.140   9.343   2.932  0.5032 -1.1867  0.5447
18738SOL     OW57981   8.394   6.629   4.436 -0.2595 -0.4257 -0.0591
18738SOL    HW157982   8.479   6.591   4.413  0.5211 -0.3944  2.4386
18738SOL    HW257983   8.406   6.661   4.525 -2.5969  0.5884 -0.0406
18739SOL     OW57984   2.875   1.082   9.276  0.6416  0.4582 -0.1854
18739SOL    HW157985   2.825   1.009   9.312  1.3810  0.5933  1.1814
18739SOL    HW257986   2.849   1.086   9.184  0.3158 -1.2879 -0.1965
18740SOL     OW57987   7.286   8.977   3.964 -0.0740  1.0245 -0.1795
18740SOL    HW157988   7.325   8.889   3.968 -0.6793  0.7339 -0.6013
18740SOL    HW257989   7.291   9.009   4.054 -0.5699  0.2341  0.1421
18741SOL     OW57990   4.442   0.567   4.309 -0.1923  0.6398 -0.1532
18741SOL    HW157991   4.516   0.579   4.369 -1.8539  1.2649  1.8930
18741SOL    HW257992   4.421   0.655   4.278  0.0323  0.4333 -0.9261
18742SOL     OW57993   5.608   5.527   8.317  0.2339  0.1313  0.2253
18742SOL    HW157994   5.584   5.530   8.225 -0.9726  1.0606  0.5368
18742SOL    HW257995   5.528   5.499   8.362  1.0043 -1.0143  0.9456
18743SOL     OW57996   8.138   3.408   5.546 -0.0628 -0.6199 -0.0057
18743SOL    HW157997   8.068   3.390   5.608 -0.1111 -1.0344 -0.1763
18743SOL    HW257998   8.175   3.491   5.575 -0.6972 -0.3448  0.0132
18744SOL     OW57999   9.031   6.780   4.230 -0.1579 -0.5366 -0.0396
18744SOL    HW158000   9.004   6.867   4.259  1.9309  0.1599 -0.0316
18744SOL    HW258001   9.056   6.793   4.138 -0.4671 -1.2816 -0.2325
18745SOL     OW58002   1.179   2.849   7.827 -0.0085  0.2519 -0.7941
18745SOL    HW158003   1.266   2.870   7.861  0.5049  0.4572 -2.1388
18745SOL    HW258004   1.176   2.753   7.829 -1.2522  0.2548  2.7122
18746SOL     OW58005   1.685   5.274   6.405 -0.1084 -0.0435 -0.6391
18746SOL    HW158006   1.617   5.289   6.338  0.8658  1.5463 -1.3446
18746SOL    HW258007   1.641   5.294   6.488 -0.5251  1.0446 -1.0910
18747SOL     OW58008   1.830   1.984   9.446 -0.2773  0.1102 -0.3208
18747SOL    HW158009   1.876   1.900   9.447 -1.6699 -0.6950 -1.0893
18747SOL    HW258010   1.743   1.964   9.481 -0.7288  1.1567 -0.8121
18748SOL     OW58011   4.883   1.307   5.521 -0.1861 -0.3136  0.3641
18748SOL    HW158012   4.830   1.234   5.553 -0.6838 -0.5676 -0.9866
18748SOL    HW258013   4.835   1.342   5.447  1.2328 -0.1608 -0.5313
18749SOL     OW58014   9.779   9.398   7.348  0.0697 -0.3631  0.2214
18749SOL    HW158015   9.768   9.322   7.290 -1.3611 -0.0375  0.0120
18749SOL    HW258016   9.820   9.464   7.293 -1.4008 -0.0116 -0.5161
18750SOL     OW58017   7.738   0.329   7.662  0.0331 -0.6671 -0.1666
18750SOL    HW158018   7.728   0.364   7.574 -0.7462  0.2895  0.2948
18750SOL    HW258019   7.738   0.234   7.650 -0.7890 -0.5579 -1.1252
18751SOL     OW58020   9.473   2.814   1.287 -0.1199  0.5276  1.1063
18751SOL    HW158021   9.536   2.873   1.247 -0.4041  0.6577  0.8490
18751SOL    HW258022   9.448   2.858   1.368 -0.9835  1.1837  0.4974
18752SOL     OW58023   1.711   9.542   3.209 -0.3634  0.5050 -0.0527
18752SOL    HW158024   1.803   9.563   3.223  0.6391 -1.2994 -2.9940
18752SOL    HW258025   1.664   9.622   3.234  2.1546  2.0711 -0.0195
18753SOL     OW58026   6.358   8.803   5.821 -0.1908  0.2469 -0.4553
18753SOL    HW158027   6.318   8.824   5.906 -0.7608  1.5097 -1.0068
18753SOL    HW258028   6.359   8.707   5.818 -0.1386  0.1830  0.9810
18754SOL     OW58029   2.917   2.493   6.184  0.4569  0.0082  0.1588
18754SOL    HW158030   2.932   2.420   6.244 -0.2305 -1.9062 -1.8261
18754SOL    HW258031   2.823   2.509   6.189  0.3513 -0.3404 -0.5527
18755SOL     OW58032   9.745   8.004   8.248  0.3867 -0.2287  0.2382
18755SOL    HW158033   9.758   8.089   8.291 -1.8257 -0.8277  2.3566
18755SOL    HW258034   9.799   7.943   8.298 -1.9518 -0.8714  2.1767
18756SOL     OW58035   2.761   9.514   2.182 -0.1753 -0.5483 -0.4022
18756SOL    HW158036   2.710   9.436   2.202  0.7777 -1.2207 -0.5384
18756SOL    HW258037   2.711   9.558   2.113 -0.6281 -1.1249 -0.4492
18757SOL     OW58038   1.607   3.700   0.315 -0.4316  0.1144  0.5400
18757SOL    HW158039   1.615   3.746   0.399  0.3192 -0.8184  0.9976
18757SOL    HW258040   1.657   3.619   0.327 -1.7305 -0.8503 -0.2259
18758SOL     OW58041   3.222   3.603   4.893  0.0943  0.5436  1.0649
18758SOL    HW158042   3.228   3.669   4.824 -0.6962 -0.7149 -0.2641
18758SOL    HW258043   3.150   3.546   4.865  0.3769 -0.5408  2.4586
18759SOL     OW58044   6.099   6.298   9.754 -0.2844  0.8893 -0.3560
18759SOL    HW158045   6.106   6.219   9.807  2.6866 -0.7319 -2.8940
18759SOL    HW258046   6.007   6.301   9.727 -0.6627 -1.1589  0.5629
18760SOL     OW58047   5.162   2.972   4.192  0.3591 -0.9965 -0.6384
18760SOL    HW158048   5.078   2.932   4.217  0.5775 -0.4910  1.0494
18760SOL    HW258049   5.137   3.045   4.136 -0.3909 -0.6104  0.1667
18761SOL     OW58050   1.127   6.463   6.760 -0.3000 -0.3738 -0.0212
18761SOL    HW158051   1.049   6.450   6.814  0.0224  0.1189  0.5759
18761SOL    HW258052   1.199   6.436   6.817  0.1518  1.3175  0.2612
18762SOL     OW58053   5.336   7.660   9.492 -0.5228 -0.3302  0.3446
18762SOL    HW158054   5.410   7.669   9.552 -0.3337 -0.3644  0.1146
18762SOL    HW258055   5.341   7.570   9.461  0.5539  0.2536 -1.2680
18763SOL     OW58056   7.891   2.226   3.036  0.8650 -0.1874 -0.2006
18763SOL    HW158057   7.819   2.163   3.039  0.1924  0.5969  1.9109
18763SOL    HW258058   7.850   2.310   3.057  2.1981  0.4839 -0.2131
18764SOL     OW58059   3.025   9.142   3.511  0.4747  0.3318 -0.2908
18764SOL    HW158060   3.070   9.212   3.558  2.0852 -0.3489 -0.7386
18764SOL    HW258061   3.094   9.077   3.494 -1.1127 -1.7415  0.8208
18765SOL     OW58062   2.146   2.085   9.710 -0.4240  0.6966  0.3203
18765SOL    HW158063   2.142   2.070   9.805 -0.0760 -1.2984  0.0437
18765SOL    HW258064   2.143   1.998   9.671  1.2017  1.3585 -1.4547
18766SOL     OW58065   5.212   0.862   5.538 -0.5252  0.1604  0.1140
18766SOL    HW158066   5.181   0.786   5.586 -2.0395  0.2819 -0.6235
18766SOL    HW258067   5.301   0.876   5.571 -0.1809 -1.9380  0.2291
18767SOL     OW58068   8.813   6.901   6.959  0.4368  0.4946  0.0029
18767SOL    HW158069   8.792   6.979   6.908 -0.9349  0.0658 -0.1118
18767SOL    HW258070   8.830   6.934   7.047 -0.3820  0.8943  0.0127
18768SOL     OW58071   7.299   7.698   8.627  0.3378  0.0310  0.0626
18768SOL    HW158072   7.275   7.687   8.719 -0.3875 -1.0936 -0.2387
18768SOL    HW258073   7.387   7.734   8.630 -0.1235  1.1655  1.1955
18769SOL     OW58074   8.587   6.926   6.385  0.2050  0.1646 -0.4708
18769SOL    HW158075   8.677   6.950   6.364  0.6476  0.5719  1.5875
18769SOL    HW258076   8.585   6.830   6.379  0.8132  0.1505 -0.4604
18770SOL     OW58077   7.999   5.785   4.945  0.3323 -0.2802  0.1525
18770SOL    HW158078   7.904   5.796   4.956  0.4395  0.3309  0.5093
18770SOL    HW258079   8.028   5.744   5.027  0.4157 -0.1816  0.1733
18771SOL     OW58080   5.441   9.734   5.659 -0.3448  0.0174 -0.2555
18771SOL    HW158081   5.466   9.819   5.623 -0.4729  2.6598  4.9489
18771SOL    HW258082   5.348   9.724   5.638 -0.7837  2.1266  0.4718
18772SOL     OW58083   6.628   0.556   9.224  0.3275  0.2461  0.3008
18772SOL    HW158084   6.667   0.509   9.150 -0.8898  0.7519 -0.6820
18772SOL    HW258085   6.666   0.643   9.220 -1.0985  0.8518 -0.8730
18773SOL     OW58086   1.517   2.711   4.903  0.3090 -0.5231 -0.3819
18773SOL    HW158087   1.594   2.667   4.940  0.2485  0.0708  0.4675
18773SOL    HW258088   1.521   2.690   4.809  1.9303  0.1234 -0.4933
18774SOL     OW58089   4.022   4.993   2.983 -0.0130  0.0791 -0.0811
18774SOL    HW158090   3.973   4.925   2.935 -1.7166  0.4843  0.9845
18774SOL    HW258091   4.040   5.060   2.917 -2.7897  0.8727 -0.1693
18775SOL     OW58092   5.739   6.515   6.378 -0.2325 -0.1044 -0.1887
18775SOL    HW158093   5.704   6.573   6.311  0.8368 -0.4117 -1.0434
18775SOL    HW258094   5.757   6.571   6.453 -2.2548  0.1043  0.1804
18776SOL     OW58095   6.585   0.410   4.775  0.3863 -0.6180  0.3912
18776SOL    HW158096   6.585   0.414   4.871 -1.3586  0.6940  0.3803
18776SOL    HW258097   6.521   0.343   4.754  1.0059 -1.1377  0.1228
18777SOL     OW58098   4.523   8.338   4.866  0.2230  0.0632  0.2597
18777SOL    HW158099   4.433   8.365   4.884 -0.4270 -1.5856 -0.3403
18777SOL    HW258100   4.538   8.263   4.924  0.4367 -1.0063 -1.1111
18778SOL     OW58101   9.220   3.174   3.594 -0.0450  0.1224 -0.0963
18778SOL    HW158102   9.171   3.256   3.590  1.1207  0.9478  1.6493
18778SOL    HW258103   9.164   3.111   3.547 -1.9832  1.3975  0.3789
18779SOL     OW58104   3.714   6.854   4.370  0.3354  0.6866 -0.3125
18779SOL    HW158105   3.782   6.788   4.382 -0.7121  0.0159  3.1776
18779SOL    HW258106   3.753   6.934   4.405  0.2234  0.9607 -0.8088
18780SOL     OW58107   5.294   6.130   1.393 -0.4438  0.2295 -0.3852
18780SOL    HW158108   5.222   6.068   1.377  0.1304 -0.2041 -1.3011
18780SOL    HW258109   5.265   6.179   1.470 -0.4136 -1.9496  1.1189
18781SOL     OW58110   7.029   9.633   0.424  0.2297  0.0176 -0.6375
18781SOL    HW158111   6.991   9.630   0.336 -0.8721 -2.1635 -0.1466
18781SOL    HW258112   6.957   9.662   0.480  0.1525 -1.1107 -0.1305
18782SOL     OW58113   7.094   1.075   9.109 -0.0482 -0.0501 -0.2302
18782SOL    HW158114   7.006   1.106   9.085  0.2447  1.0487  0.0842
18782SOL    HW258115   7.130   1.041   9.027  0.2912  2.0849 -1.0155
18783SOL     OW58116   6.134   1.132   7.345 -0.7427  0.2718  0.5280
18783SOL    HW158117   6.194   1.141   7.271 -1.8611  0.8005 -0.3422
18783SOL    HW258118   6.180   1.075   7.407  1.2950  1.8628  0.5800
18784SOL     OW58119   0.532   9.123   5.928  0.1269  0.4270  0.1342
18784SOL    HW158120   0.557   9.034   5.953  1.5620  1.2168  1.7652
18784SOL    HW258121   0.438   9.118   5.909 -0.3652 -0.9729  2.5852
18785SOL     OW58122   2.006   5.427   7.856  0.4229 -0.2270 -0.4099
18785SOL    HW158123   1.935   5.451   7.916 -1.1310  0.2614 -2.3428
18785SOL    HW258124   2.055   5.508   7.843  0.3052 -0.1495 -0.3730
18786SOL     OW58125   1.288   6.636   5.220  0.5069 -0.1815  0.1271
18786SOL    HW158126   1.333   6.556   5.193  1.8114  0.3946  0.5302
18786SOL    HW258127   1.222   6.606   5.283 -0.0981 -1.1084 -0.9101
18787SOL     OW58128   9.436   1.021   9.121 -0.2397  0.4154 -0.0972
18787SOL    HW158129   9.500   0.960   9.085 -0.9468 -0.2422 -0.2504
18787SOL    HW258130   9.366   1.024   9.057 -1.4881 -0.7202  1.1575
18788SOL     OW58131   2.425   8.161   7.654 -0.1152  0.0828  0.1487
18788SOL    HW158132   2.514   8.181   7.684  0.3208  1.2453 -1.7185
18788SOL    HW258133   2.419   8.203   7.568 -2.6526  0.4789  0.4359
18789SOL     OW58134   7.212   9.234   9.648  0.5260 -0.0683  0.7243
18789SOL    HW158135   7.246   9.322   9.637  0.6560 -0.2424 -0.4362
18789SOL    HW258136   7.263   9.196   9.720  1.2891  0.3950  0.4327
18790SOL     OW58137   3.534   9.185   8.081  0.3667  0.0873  0.0769
18790SOL    HW158138   3.626   9.204   8.060  0.9964 -1.1091  1.5444
18790SOL    HW258139   3.527   9.090   8.070 -0.5740  0.1051  0.4778
18791SOL     OW58140   1.514   9.323   4.772 -0.0790 -0.3851 -0.0032
18791SOL    HW158141   1.604   9.356   4.775  0.0155 -0.6034 -0.4053
18791SOL    HW258142   1.517   9.251   4.709 -0.4085 -0.7761  0.4178
18792SOL     OW58143   5.265   6.838   2.723 -0.0277  0.2863 -0.3105
18792SOL    HW158144   5.242   6.919   2.768 -0.4074  0.6966 -1.2077
18792SOL    HW258145   5.359   6.844   2.708  0.0726  0.2198  0.2636
18793SOL     OW58146   0.851   2.693   9.452 -0.0963  0.3324 -0.3618
18793SOL    HW158147   0.799   2.614   9.469  2.3242 -1.5754 -1.2139
18793SOL    HW258148   0.795   2.748   9.397 -1.6384 -1.0565 -0.2415
18794SOL     OW58149   5.074   8.087   3.072  0.0271 -0.4359 -0.0789
18794SOL    HW158150   5.064   8.137   2.991 -0.2485  0.7220  0.6457
18794SOL    HW258151   5.150   8.031   3.056  2.2888  2.3746  0.1118
18795SOL     OW58152   7.186   0.444   6.913 -0.2680 -0.2844  0.5136
18795SOL    HW158153   7.210   0.355   6.941  1.1382  0.7242  2.7871
18795SOL    HW258154   7.104   0.462   6.958  0.1226  0.0093  1.1297
18796SOL     OW58155   5.123   1.534   7.851 -0.0163  0.3439  0.0603
18796SOL    HW158156   5.038   1.523   7.809 -0.4256  2.4657  0.2213
18796SOL    HW258157   5.139   1.629   7.848  1.3732  0.2171  1.8928
18797SOL     OW58158   6.470   4.607   8.244  0.2994  0.2066  0.2706
18797SOL    HW158159   6.500   4.564   8.324 -0.9235  1.0979  1.2480
18797SOL    HW258160   6.511   4.557   8.173  0.9395 -0.9695  1.4217
18798SOL     OW58161   5.394   3.738   8.211 -0.0695 -0.0912 -0.1513
18798SOL    HW158162   5.363   3.658   8.252  0.4613 -0.1465  0.1486
18798SOL    HW258163   5.486   3.722   8.193 -0.1435  0.1665 -0.7978
18799SOL     OW58164   3.544   6.350   1.468 -0.4408 -0.3645  0.0501
18799SOL    HW158165   3.454   6.317   1.476 -1.1774  1.3474 -0.6853
18799SOL    HW258166   3.567   6.378   1.557  0.3664 -3.0706  0.7922
18800SOL     OW58167   4.254   5.903   7.853 -0.2951  0.1530 -0.1993
18800SOL    HW158168   4.307   5.975   7.819  0.0812 -0.7411 -1.6241
18800SOL    HW258169   4.312   5.858   7.916 -0.4879  0.9947  0.5944
18801SOL     OW58170   8.348   8.106   5.900  0.2271 -0.5099 -0.1602
18801SOL    HW158171   8.260   8.090   5.936 -0.0984 -1.7501 -1.4395
18801SOL    HW258172   8.407   8.062   5.961 -0.1223 -0.5466  0.1564
18802SOL     OW58173   3.874   1.294   4.408  0.0703  0.3215  0.8982
18802SOL    HW158174   3.905   1.289   4.317  0.0406  2.0543  0.7591
18802SOL    HW258175   3.881   1.387   4.430 -0.9057  0.0794  2.3285
18803SOL     OW58176   6.432   2.342   1.880  0.3836  0.1089  0.1720
18803SOL    HW158177   6.398   2.344   1.969  0.8406  1.3283  0.3305
18803SOL    HW258178   6.398   2.421   1.839  1.7791  0.5924 -0.1179
18804SOL     OW58179   7.881   2.697   6.563 -0.0562 -0.6583  0.1751
18804SOL    HW158180   7.853   2.750   6.488 -0.4675 -2.2777 -0.8639
18804SOL    HW258181   7.973   2.720   6.575  0.1270 -0.6706 -1.0941
18805SOL     OW58182   8.501   4.164   7.781 -0.2301 -0.0389 -0.3338
18805SOL    HW158183   8.476   4.118   7.700 -0.9952  2.2064 -1.4676
18805SOL    HW258184   8.418   4.184   7.824 -0.0318  1.4533 -0.5907
18806SOL     OW58185   4.943   3.740   2.344 -0.7683 -0.6395  0.4353
18806SOL    HW158186   4.851   3.765   2.348 -0.4910  0.7751 -0.7791
18806SOL    HW258187   4.979   3.795   2.274  0.4652 -2.9046 -0.8306
18807SOL     OW58188   5.738   5.448   1.079 -0.0899  0.2578  0.5045
18807SOL    HW158189   5.806   5.511   1.100  0.4240 -0.0603 -0.1415
18807SOL    HW258190   5.772   5.401   1.002 -0.2086 -1.1616  1.2890
18808SOL     OW58191   8.598   2.575   5.883 -0.1577 -0.2073 -0.0281
18808SOL    HW158192   8.662   2.556   5.953 -1.5941 -0.7107  1.2075
18808SOL    HW258193   8.636   2.648   5.835  1.0633 -0.0958  1.0574
18809SOL     OW58194   8.591   0.710   1.316 -0.1088  0.0721  0.4399
18809SOL    HW158195   8.568   0.801   1.298 -0.2404 -0.2890 -1.5314
18809SOL    HW258196   8.672   0.715   1.366 -0.3330  1.2757  0.7132
18810SOL     OW58197   7.577   4.602   7.612 -0.0625 -0.5188 -0.5034
18810SOL    HW158198   7.649   4.571   7.668 -0.0265 -0.7881 -0.6994
18810SOL    HW258199   7.552   4.686   7.651 -0.5823 -1.0813  0.4207
18811SOL     OW58200   6.561   4.214   4.512 -0.0139  0.0174 -0.8180
18811SOL    HW158201   6.499   4.268   4.463 -0.1304 -0.6495 -1.4154
18811SOL    HW258202   6.619   4.178   4.445  0.7380  0.2561 -0.3145
18812SOL     OW58203   2.853   8.632   3.738 -0.0606  0.9995  0.3799
18812SOL    HW158204   2.870   8.657   3.647  0.0408  0.8805  0.3655
18812SOL    HW258205   2.776   8.682   3.763 -1.8534 -1.0690 -0.6763
18813SOL     OW58206   1.634   5.540   7.445  0.2187 -0.1146  0.1830
18813SOL    HW158207   1.639   5.445   7.450 -0.6483 -0.1832 -0.0503
18813SOL    HW258208   1.724   5.569   7.435  0.6343 -0.8335  1.5264
18814SOL     OW58209   8.853   8.615   7.658 -0.6112  0.1848 -0.3423
18814SOL    HW158210   8.809   8.659   7.585 -1.6250 -1.7435 -0.9535
18814SOL    HW258211   8.928   8.671   7.678 -0.5729  1.0110 -2.5439
18815SOL     OW58212   1.314   3.332   5.536  0.0211 -0.2687  0.4565
18815SOL    HW158213   1.289   3.248   5.576  1.1734  0.2496  2.3449
18815SOL    HW258214   1.254   3.341   5.462 -1.6179 -1.6995  1.5252
18816SOL     OW58215   3.836   9.474   8.379 -0.0349  0.5600 -0.6575
18816SOL    HW158216   3.882   9.394   8.405  0.3408  0.1192 -2.5489
18816SOL    HW258217   3.743   9.451   8.383  0.0648  0.1015 -0.9885
18817SOL     OW58218   3.526   2.869   0.515 -0.4191  0.3471  0.1934
18817SOL    HW158219   3.454   2.927   0.538 -0.4420 -0.6302  3.0142
18817SOL    HW258220   3.605   2.918   0.537 -0.3710  0.1361  0.5093
18818SOL     OW58221   7.935   2.883   1.043  0.6344 -0.0902 -0.1296
18818SOL    HW158222   7.923   2.854   1.133 -0.6591 -1.5278 -0.7104
18818SOL    HW258223   8.027   2.866   1.024  1.3889  1.8883  1.4227
18819SOL     OW58224   6.157   9.273   7.571 -0.3232  0.8310 -0.0222
18819SOL    HW158225   6.116   9.213   7.509 -0.6828  0.9221  0.1242
18819SOL    HW258226   6.212   9.329   7.516 -0.2660  0.6014 -0.2025
18820SOL     OW58227   9.624   0.989   4.056 -0.6601 -0.0413 -0.1197
18820SOL    HW158228   9.638   0.941   3.974  0.2461 -0.9977  0.5667
18820SOL    HW258229   9.635   1.081   4.032 -2.0995 -0.1706 -1.4004
18821SOL     OW58230   2.595   3.759   6.495  0.5921  0.4941 -0.1833
18821SOL    HW158231   2.633   3.673   6.513  1.0303  0.5391 -0.8676
18821SOL    HW258232   2.531   3.744   6.426  0.8122  0.7423 -0.4479
18822SOL     OW58233   8.557   4.749   6.137 -0.0474  0.1505  0.9465
18822SOL    HW158234   8.641   4.707   6.121 -0.0735  0.5525 -0.3409
18822SOL    HW258235   8.507   4.683   6.186  1.1260  0.0658  2.0998
18823SOL     OW58236   0.104   2.846   0.054  0.5681  0.4832  0.3057
18823SOL    HW158237   0.105   2.772  -0.007 -0.7082 -0.0318  0.8640
18823SOL    HW258238   0.074   2.920   0.001  0.3991  0.2555  0.0768
18824SOL     OW58239   2.559   3.497   5.737 -0.1611  0.5678  0.6272
18824SOL    HW158240   2.495   3.567   5.727  1.0210  1.4212 -1.8342
18824SOL    HW258241   2.628   3.535   5.791 -0.0235  0.9683  0.1805
18825SOL     OW58242   6.646   4.823   8.431  0.4649  0.2297 -0.3008
18825SOL    HW158243   6.570   4.778   8.467  0.9176 -0.8276 -0.6320
18825SOL    HW258244   6.651   4.905   8.480 -0.8072  0.2562 -0.1888
18826SOL     OW58245   8.592   4.548   6.487 -0.0566 -0.4290 -0.0401
18826SOL    HW158246   8.671   4.597   6.511  0.6638 -0.7961 -1.5247
18826SOL    HW258247   8.523   4.586   6.540  0.6242  1.6531 -0.5592
18827SOL     OW58248   8.934   4.353   4.174  0.2378 -0.1346  0.0521
18827SOL    HW158249   8.979   4.321   4.097  0.3011  1.4861 -0.6232
18827SOL    HW258250   9.003   4.375   4.236  0.2131 -0.8679  0.3440
18828SOL     OW58251   4.427   6.208   4.508  0.3956  0.2108  0.3652
18828SOL    HW158252   4.380   6.253   4.579 -1.6721 -0.7924 -0.2916
18828SOL    HW258253   4.360   6.190   4.443  2.0144 -0.0197 -1.3131
18829SOL     OW58254   9.124   7.554   5.083 -0.4363  0.4808 -0.3224
18829SOL    HW158255   9.174   7.537   5.003 -1.7231  1.8791 -1.5095
18829SOL    HW258256   9.044   7.598   5.052 -2.2408 -1.2862  1.4941
18830SOL     OW58257   1.134   7.974   1.149  0.4152  0.1415 -0.0353
18830SOL    HW158258   1.166   7.948   1.236  1.7123  0.0010 -0.5205
18830SOL    HW258259   1.049   7.933   1.141  0.1832  0.3269  1.2505
18831SOL     OW58260   6.074   5.996   4.299 -0.0788  0.1210 -0.4127
18831SOL    HW158261   6.157   5.999   4.252  0.0718 -1.3440 -0.2725
18831SOL    HW258262   6.092   6.039   4.383  0.9249 -1.3682  0.1630
18832SOL     OW58263   1.451   0.630   4.095  0.5428  0.5369 -0.0547
18832SOL    HW158264   1.395   0.671   4.029 -1.9903 -1.5643  0.6076
18832SOL    HW258265   1.393   0.570   4.142  3.6106 -2.6750  0.0414
18833SOL     OW58266   6.828   8.693   4.957 -0.0148  0.0588  0.0502
18833SOL    HW158267   6.744   8.652   4.979 -0.2320  0.0255 -0.8329
18833SOL    HW258268   6.891   8.649   5.014 -0.2393 -1.5451 -0.8956
18834SOL     OW58269   5.853   1.062   1.726 -0.7126  0.3985 -0.2133
18834SOL    HW158270   5.910   1.048   1.650 -1.1514 -0.3643 -0.4104
18834SOL    HW258271   5.779   1.112   1.691 -1.0277 -0.1554 -0.3367
18835SOL     OW58272   4.138   2.514   6.693 -0.8612  0.3702  0.5133
18835SOL    HW158273   4.200   2.576   6.655  0.2174 -1.6070 -1.1610
18835SOL    HW258274   4.154   2.519   6.787  1.4784  0.3752  0.1791
18836SOL     OW58275   5.677   6.673   1.195 -0.0660  0.2723 -0.2901
18836SOL    HW158276   5.656   6.760   1.159 -2.5603 -1.2742 -3.0641
18836SOL    HW258277   5.609   6.658   1.261  0.0003  0.2002 -0.2395
18837SOL     OW58278   3.117   1.058   9.393  0.3088  0.3509 -0.1730
18837SOL    HW158279   3.039   1.041   9.341  1.5428 -3.2584 -1.1164
18837SOL    HW258280   3.088   1.051   9.484 -0.5781 -0.4519 -0.5081
18838SOL     OW58281   8.327   2.850   7.497  0.7682 -0.2579 -0.5305
18838SOL    HW158282   8.271   2.904   7.441 -0.6607 -1.3949 -0.2771
18838SOL    HW258283   8.302   2.876   7.586  2.7861  1.3012 -0.3591
18839SOL     OW58284   2.981   9.836   5.725 -0.1085 -0.7301  0.1614
18839SOL    HW158285   2.922   9.911   5.729 -0.5217 -1.0601  0.2304
18839SOL    HW258286   2.955   9.788   5.647 -0.4312 -1.2880  0.6048
18840SOL     OW58287   0.577   5.170   5.021 -0.2175 -0.3018 -0.2173
18840SOL    HW158288   0.519   5.095   5.006 -0.9027  0.3188 -0.8032
18840SOL    HW258289   0.517   5.244   5.035  0.4412  0.1816  0.1203
18841SOL     OW58290   1.512   5.837   6.162  0.3157 -0.0111  0.0994
18841SOL    HW158291   1.525   5.871   6.250 -0.5173 -1.6059  0.8894
18841SOL    HW258292   1.425   5.869   6.136 -0.9476 -2.2044  1.2693
18842SOL     OW58293   4.625   0.654   5.541  0.7207 -0.1395  0.4475
18842SOL    HW158294   4.595   0.673   5.629  0.1222 -0.3174  0.2881
18842SOL    HW258295   4.599   0.563   5.526 -0.5082  0.3242 -0.4351
18843SOL     OW58296   0.027   5.175   6.516 -0.4536 -0.1484 -0.1526
18843SOL    HW158297  -0.067   5.165   6.530 -0.8117  2.5641 -0.1277
18843SOL    HW258298   0.045   5.125   6.437 -2.3283  0.8825 -1.3014
18844SOL     OW58299   0.375   8.976   8.978  0.4576 -0.1297 -0.5530
18844SOL    HW158300   0.427   9.054   8.956  0.0242  0.2423 -0.2756
18844SOL    HW258301   0.394   8.961   9.071  0.2405 -0.1232 -0.5078
18845SOL     OW58302   0.246   2.525   5.019 -0.0538 -0.0012  0.1952
18845SOL    HW158303   0.322   2.542   4.964 -0.9722  2.4889 -0.4601
18845SOL    HW258304   0.210   2.443   4.985  1.4662 -0.4409 -0.4457
18846SOL     OW58305   6.575   6.132   8.643  0.2466  0.1038 -0.5877
18846SOL    HW158306   6.480   6.121   8.635 -0.0744  1.3826  0.7997
18846SOL    HW258307   6.598   6.190   8.571 -0.0439 -0.1707 -0.9028
18847SOL     OW58308   2.945   5.864   5.578  0.1503 -0.2810 -0.0160
18847SOL    HW158309   2.931   5.789   5.637 -1.7814  1.5033  1.9708
18847SOL    HW258310   2.913   5.834   5.493 -0.7835 -1.6523  0.7858
18848SOL     OW58311   1.946   1.414   5.289 -0.7985 -0.0214  0.3128
18848SOL    HW158312   1.943   1.498   5.334 -1.3531  0.2257 -0.1692
18848SOL    HW258313   1.866   1.412   5.237 -1.0478 -1.0728  0.7168
18849SOL     OW58314   8.311   9.341   3.857  0.0762 -0.1951  0.2516
18849SOL    HW158315   8.256   9.403   3.904 -1.1266 -0.5520 -0.6298
18849SOL    HW258316   8.249   9.290   3.804  1.2333 -0.8162 -0.5403
18850SOL     OW58317   4.403   5.112   5.010 -0.1239 -0.0942 -0.4782
18850SOL    HW158318   4.343   5.138   4.941 -0.8693  0.8359  0.4791
18850SOL    HW258319   4.356   5.132   5.091  1.1945 -0.0135  0.2961
18851SOL     OW58320   5.228   6.268   7.105 -0.4395 -0.2673  0.2404
18851SOL    HW158321   5.182   6.347   7.077 -0.3585 -0.9059 -1.8590
18851SOL    HW258322   5.262   6.231   7.024  1.7829 -1.0731  1.4753
18852SOL     OW58323   6.737   4.102   0.747  0.1830 -0.1995  0.0017
18852SOL    HW158324   6.807   4.036   0.737 -0.6885 -0.9684 -1.3751
18852SOL    HW258325   6.674   4.060   0.805 -0.8476 -1.0554 -1.6542
18853SOL     OW58326   2.686   4.766   1.720  0.4396  0.9481  0.5754
18853SOL    HW158327   2.594   4.785   1.742  0.7342  2.6258  0.5113
18853SOL    HW258328   2.689   4.772   1.625  0.6355  1.0329  0.5870
18854SOL     OW58329   7.570   2.495   4.305 -0.1823 -0.6939 -0.1918
18854SOL    HW158330   7.478   2.472   4.293 -0.9096  1.9256 -0.4102
18854SOL    HW258331   7.592   2.546   4.227  1.1757 -0.5303  0.2696
18855SOL     OW58332   0.722   1.114   5.969 -0.1820  0.4334  0.0576
18855SOL    HW158333   0.642   1.123   6.020  0.1074 -1.3453  0.8865
18855SOL    HW258334   0.787   1.084   6.032  1.4449  2.7622 -0.3785
18856SOL     OW58335   3.871   2.740   5.390 -0.2949  0.1182  0.1412
18856SOL    HW158336   3.831   2.739   5.478 -2.0102  1.9829 -0.5438
18856SOL    HW258337   3.800   2.716   5.331 -0.3689  2.9280 -1.0758
18857SOL     OW58338   4.387   2.573   5.312 -0.5740  0.7558 -0.0498
18857SOL    HW158339   4.301   2.597   5.275 -0.0636 -0.2357 -2.0595
18857SOL    HW258340   4.395   2.480   5.291  0.9974  0.8472  0.0866
18858SOL     OW58341   3.405   9.213   8.820  0.3321 -0.0538  0.1501
18858SOL    HW158342   3.428   9.231   8.911 -1.5127 -0.9254  0.8309
18858SOL    HW258343   3.310   9.225   8.816  0.4315  0.4044 -1.7815
18859SOL     OW58344   3.664   8.812   5.727 -0.6286  0.8758 -0.4945
18859SOL    HW158345   3.630   8.791   5.640 -0.5038  1.5791 -0.7169
18859SOL    HW258346   3.637   8.902   5.743 -1.0562  0.5970  0.4035
18860SOL     OW58347   0.821   5.649   4.309 -0.1724 -0.1869  0.1266
18860SOL    HW158348   0.733   5.687   4.316  0.4149  1.4731 -0.9411
18860SOL    HW258349   0.847   5.633   4.400 -1.1626  0.2768  0.5131
18861SOL     OW58350   9.526   1.695   7.979  0.4341 -0.0860 -0.1350
18861SOL    HW158351   9.441   1.650   7.979  0.8534 -0.8994 -0.2797
18861SOL    HW258352   9.572   1.661   8.056  1.2724 -0.9387 -0.9783
18862SOL     OW58353   3.667   4.226   0.667 -0.3123  0.2345 -0.0499
18862SOL    HW158354   3.613   4.305   0.660 -2.3307 -1.0622 -0.0897
18862SOL    HW258355   3.639   4.171   0.593  1.0305 -0.5215 -0.0254
18863SOL     OW58356   2.382   7.213   4.295 -0.2574  1.2398  0.3068
18863SOL    HW158357   2.451   7.204   4.360  2.0738  0.5215 -2.0528
18863SOL    HW258358   2.389   7.303   4.264 -0.0274  1.0222 -0.2891
18864SOL     OW58359   3.728   3.301   3.543  0.3130  0.3500  0.2531
18864SOL    HW158360   3.720   3.206   3.547 -1.6882  0.3304 -1.7700
18864SOL    HW258361   3.779   3.318   3.463 -0.0002  0.9592  0.1755
18865SOL     OW58362   3.117   6.266   3.552 -0.0842  0.1883  0.3896
18865SOL    HW158363   3.199   6.230   3.586 -0.8217  0.1019  2.1576
18865SOL    HW258364   3.076   6.193   3.506 -0.0060 -0.2881  1.0629
18866SOL     OW58365   1.993   9.209   1.573 -0.2350  0.0911  0.7129
18866SOL    HW158366   1.988   9.248   1.485  2.6304 -0.2639  0.3209
18866SOL    HW258367   1.972   9.282   1.632 -2.6577  0.2269 -0.2066
18867SOL     OW58368   5.887   4.375   7.243 -0.3249  0.1066  0.7289
18867SOL    HW158369   5.912   4.286   7.267  1.6267  0.5545  0.4702
18867SOL    HW258370   5.948   4.431   7.291 -0.2870  1.2306 -0.5848
18868SOL     OW58371   5.634   6.816   0.102 -0.3839 -0.2070 -0.6711
18868SOL    HW158372   5.594   6.811   0.015 -1.6447 -0.1335 -0.1221
18868SOL    HW258373   5.609   6.733   0.143  1.2399 -0.7807 -0.7878
18869SOL     OW58374   2.412   9.019   1.008  0.3776 -0.5050  0.2373
18869SOL    HW158375   2.371   9.102   0.985  0.5085 -0.0667  1.5010
18869SOL    HW258376   2.478   9.005   0.939 -0.7455 -0.4107 -0.8948
18870SOL     OW58377   8.422   8.220   1.924 -0.1114 -0.0140 -0.1938
18870SOL    HW158378   8.454   8.308   1.945 -2.3004  1.1477 -1.3715
18870SOL    HW258379   8.370   8.194   2.000  1.1066 -0.6398  0.4561
18871SOL     OW58380   3.651   0.287   2.107  0.2063 -0.2042 -0.4913
18871SOL    HW158381   3.674   0.367   2.154 -0.8009  0.4641 -1.0947
18871SOL    HW258382   3.728   0.266   2.056  0.5133  0.3435 -0.2651
18872SOL     OW58383   6.737   6.685   3.772 -0.1620 -0.0346  0.2407
18872SOL    HW158384   6.643   6.700   3.777 -0.1918 -0.3451  0.6256
18872SOL    HW258385   6.775   6.751   3.830 -0.2907 -1.3441  1.9046
18873SOL     OW58386   7.046   9.834   0.028 -0.5549  0.3378  0.0108
18873SOL    HW158387   7.140   9.827   0.046 -0.7031  0.3573  0.8140
18873SOL    HW258388   7.007   9.764   0.080 -1.1625  1.4353  1.0617
18874SOL     OW58389   0.387   5.090   7.346  0.8260  0.7708  0.4506
18874SOL    HW158390   0.427   5.028   7.286  0.2784  1.5026 -0.7194
18874SOL    HW258391   0.306   5.047   7.374  0.8333  0.6264  0.2558
18875SOL     OW58392   8.882   9.634   7.731 -0.1033  0.2691  0.2304
18875SOL    HW158393   8.890   9.608   7.640 -1.4427  0.7937 -0.0662
18875SOL    HW258394   8.793   9.606   7.756  0.1216  0.4331  1.2664
18876SOL     OW58395   8.945   1.146   0.545  0.4944 -0.3702  0.6484
18876SOL    HW158396   8.990   1.109   0.621 -0.5728 -3.5614 -0.1457
18876SOL    HW258397   8.988   1.106   0.470 -1.0138 -0.3370 -0.2708
18877SOL     OW58398   9.574   3.833   3.065 -0.0123  0.1047 -0.8325
18877SOL    HW158399   9.498   3.804   3.015 -0.2048 -0.9130  0.0330
18877SOL    HW258400   9.613   3.753   3.099 -0.0558  0.7674  0.8907
18878SOL     OW58401   1.762   7.058   9.618 -0.4809  0.2419 -0.2241
18878SOL    HW158402   1.789   7.143   9.582  0.3577 -0.2776 -0.8677
18878SOL    HW258403   1.845   7.016   9.644 -0.4188 -1.9394 -3.4111
18879SOL     OW58404   0.292   1.533   0.301  0.1716 -0.0406  0.1641
18879SOL    HW158405   0.375   1.492   0.325 -0.1838 -0.7676  0.1849
18879SOL    HW258406   0.295   1.619   0.342  1.7464  0.7326 -1.4323
18880SOL     OW58407   1.558   2.211   0.501  0.0989  0.2344  0.2202
18880SOL    HW158408   1.601   2.236   0.582  0.9698 -1.6141  0.3933
18880SOL    HW258409   1.465   2.210   0.521  0.0978  2.1365  0.4737
18881SOL     OW58410   2.111   4.680   7.310 -0.1814 -0.4709  0.4461
18881SOL    HW158411   2.021   4.674   7.278 -0.1037 -0.4714  0.2242
18881SOL    HW258412   2.125   4.598   7.357 -0.9978  0.4309  2.3271
18882SOL     OW58413   7.834   9.177   4.235  0.2601  0.1907 -0.0802
18882SOL    HW158414   7.879   9.100   4.271  0.4480  1.0127  1.5713
18882SOL    HW258415   7.880   9.251   4.275 -0.2727  1.1473 -1.2048
18883SOL     OW58416   2.979   2.099   1.825  0.0876 -0.2278  0.7030
18883SOL    HW158417   2.963   2.049   1.745  0.5711  0.4579  0.1674
18883SOL    HW258418   2.895   2.141   1.844 -0.0442 -0.4341  0.5830
18884SOL     OW58419   2.362   1.310   0.486  0.1040  0.2467 -0.3430
18884SOL    HW158420   2.410   1.393   0.479  1.3897 -0.5581 -1.6672
18884SOL    HW258421   2.316   1.302   0.402 -0.1496 -0.2885 -0.1561
18885SOL     OW58422   4.176   4.572   9.749  0.7275  0.0506  0.2665
18885SOL    HW158423   4.172   4.625   9.828 -0.0274 -0.0214  0.2771
18885SOL    HW258424   4.239   4.503   9.770 -1.3944 -1.5219  1.7766
18886SOL     OW58425   8.895   0.975   1.127 -0.0554  0.0376 -0.7913
18886SOL    HW158426   8.880   0.886   1.096 -2.2349  0.5366 -1.3142
18886SOL    HW258427   8.879   0.971   1.222 -1.0777  0.0370 -0.9558
18887SOL     OW58428   7.215   1.130   1.536 -0.5536 -0.3590  0.1078
18887SOL    HW158429   7.229   1.070   1.464 -2.3754 -0.5422 -0.1281
18887SOL    HW258430   7.237   1.079   1.614 -3.7382 -2.0542  0.0751
18888SOL     OW58431   0.795   6.528   2.598 -0.7671 -0.3984  0.2266
18888SOL    HW158432   0.796   6.529   2.694  1.7301  1.0973  0.2617
18888SOL    HW258433   0.788   6.435   2.576  0.8069 -0.9827  1.9101
18889SOL     OW58434   7.925   7.585   6.356  0.3919  0.3374  0.4942
18889SOL    HW158435   7.860   7.592   6.287  0.9150 -0.9958 -0.1683
18889SOL    HW258436   7.894   7.512   6.411  0.8032  0.3386  0.7320
18890SOL     OW58437   8.947   8.339   9.579 -0.3235 -0.3127  0.0289
18890SOL    HW158438   8.884   8.328   9.507  0.0594 -0.5678 -0.2684
18890SOL    HW258439   9.029   8.360   9.535 -0.4760  1.3102  0.4679
18891SOL     OW58440   3.269   6.173   5.794 -0.4292  0.4436 -0.2513
18891SOL    HW158441   3.305   6.128   5.871 -0.7444 -3.0273 -1.9245
18891SOL    HW258442   3.183   6.133   5.781  0.3226 -0.4683 -3.3609
18892SOL     OW58443   3.976   6.157   1.226  0.0183  0.1541  0.3292
18892SOL    HW158444   4.060   6.139   1.268  0.6556 -0.1825 -1.0325
18892SOL    HW258445   3.930   6.213   1.289  1.1619  0.1693  1.2006
18893SOL     OW58446   4.690   6.072   1.829 -0.3019  0.2721  0.2324
18893SOL    HW158447   4.650   6.150   1.865 -0.6895 -0.1245  0.6679
18893SOL    HW258448   4.639   6.053   1.750  1.0978  1.6527 -1.0842
18894SOL     OW58449   7.368   1.960   4.889  0.3536 -0.0495  0.4162
18894SOL    HW158450   7.293   2.001   4.932  0.4365  0.2898  0.2378
18894SOL    HW258451   7.356   1.866   4.905 -0.1172 -0.0000  0.3765
18895SOL     OW58452   1.015   0.047   5.965 -0.3897 -0.4644  1.0786
18895SOL    HW158453   1.034  -0.046   5.952  1.1257 -0.1111  0.6189
18895SOL    HW258454   1.078   0.076   6.030 -0.3459  0.4109  0.6580
18896SOL     OW58455   8.510   6.952   1.551 -0.3353  0.2357 -0.0428
18896SOL    HW158456   8.570   6.878   1.558 -1.6840 -0.7180  2.3433
18896SOL    HW258457   8.538   7.013   1.618 -1.3097  0.3057  0.3183
18897SOL     OW58458   3.230   2.544   5.504  0.2358 -0.2904 -0.0237
18897SOL    HW158459   3.218   2.450   5.494 -0.0276 -0.4289  1.3931
18897SOL    HW258460   3.159   2.583   5.453  0.3634 -0.8487 -0.6387
18898SOL     OW58461   3.646   8.833   2.088 -0.8296 -0.6730  0.1905
18898SOL    HW158462   3.651   8.855   1.995 -0.6204 -1.2175  0.0701
18898SOL    HW258463   3.717   8.883   2.128 -1.2397 -0.0339  0.1460
18899SOL     OW58464   1.476   4.954   5.430 -0.0850 -0.3543 -0.5704
18899SOL    HW158465   1.491   4.862   5.412  0.3397 -0.9518  2.3787
18899SOL    HW258466   1.382   4.966   5.417 -0.5734 -1.8327  1.1782
18900SOL     OW58467   6.384   5.002   2.342 -0.1790  0.0608 -0.7269
18900SOL    HW158468   6.293   4.981   2.322 -0.6944  2.4793 -1.1441
18900SOL    HW258469   6.409   5.067   2.277  1.1849  1.0134  0.6751
18901SOL     OW58470   1.081   8.339   1.184 -0.0527 -0.4523  0.3113
18901SOL    HW158471   1.145   8.293   1.130 -0.0441  0.4934 -0.4982
18901SOL    HW258472   1.081   8.290   1.267  0.3960 -1.5375 -0.3000
18902SOL     OW58473   1.907   0.389   2.863 -0.1519 -0.1671 -0.2071
18902SOL    HW158474   1.965   0.318   2.891 -0.7290  0.1907  2.0409
18902SOL    HW258475   1.960   0.468   2.871 -0.6447  0.0658  1.0796
18903SOL     OW58476   7.919   9.130   2.987 -0.0827  0.2279 -0.4834
18903SOL    HW158477   7.884   9.052   3.029  1.6934  0.2048  1.0841
18903SOL    HW258478   7.943   9.188   3.059  2.8978  0.2749 -1.3850
18904SOL     OW58479   1.478   3.797   9.513  0.1490 -0.3625  0.3420
18904SOL    HW158480   1.524   3.830   9.435  0.8208 -2.1686 -0.0636
18904SOL    HW258481   1.542   3.809   9.583 -0.6780  1.8501  0.8196
18905SOL     OW58482   0.512   8.950   4.607 -0.1289 -0.3398 -0.4014
18905SOL    HW158483   0.569   8.947   4.529 -0.3608  0.5013 -0.6122
18905SOL    HW258484   0.434   8.997   4.577  0.3425  1.2028  0.6862
18906SOL     OW58485   4.069   6.077   4.953 -0.4315 -0.0047 -0.0663
18906SOL    HW158486   3.998   6.026   4.913 -0.3452  0.6323 -1.0796
18906SOL    HW258487   4.026   6.153   4.990 -0.4094 -0.1870  0.3391
18907SOL     OW58488   6.470   0.618   0.318 -0.2104 -0.3227 -0.1477
18907SOL    HW158489   6.473   0.522   0.316 -0.9728 -0.3357 -1.7491
18907SOL    HW258490   6.442   0.639   0.408 -1.3125 -1.6532 -0.1449
18908SOL     OW58491   0.512   3.219   8.946  0.0228  0.6839  0.1380
18908SOL    HW158492   0.559   3.278   8.887  1.7235  1.5866  2.2734
18908SOL    HW258493   0.440   3.185   8.893 -0.3736  3.7821 -1.5551
18909SOL     OW58494   9.175   0.639   6.646  0.1889  0.0382  0.2735
18909SOL    HW158495   9.186   0.680   6.732 -0.3511  1.2355 -0.2105
18909SOL    HW258496   9.227   0.694   6.587  0.0980 -0.4489 -0.2624
18910SOL     OW58497   9.044   8.350   1.170 -0.1223  0.1597 -0.5138
18910SOL    HW158498   8.973   8.365   1.232  0.4529  1.0053 -0.0382
18910SOL    HW258499   9.015   8.395   1.090  0.1243  1.0190 -0.1335
18911SOL     OW58500   3.526   1.316   5.244 -0.1254 -1.1981 -0.7036
18911SOL    HW158501   3.612   1.334   5.207  0.4280 -0.7516  0.7544
18911SOL    HW258502   3.505   1.228   5.215  2.7462 -3.0943  2.3703
18912SOL     OW58503   0.998   9.260   2.034 -0.6113 -0.1573  0.0686
18912SOL    HW158504   0.993   9.207   2.113  0.6363 -0.8910 -0.3160
18912SOL    HW258505   1.016   9.349   2.066 -2.3238 -0.0039  0.6925
18913SOL     OW58506   6.509   7.495   5.772  0.5103 -0.9697  0.2063
18913SOL    HW158507   6.424   7.531   5.748  0.8144 -0.3993 -0.0306
18913SOL    HW258508   6.494   7.401   5.781 -0.1196 -0.8839  0.0701
18914SOL     OW58509   1.251   5.216   6.004  0.3379  0.0516 -0.0285
18914SOL    HW158510   1.177   5.208   6.064  0.9487  0.3124  0.7872
18914SOL    HW258511   1.285   5.127   5.996  0.0475 -0.0395 -0.2660
18915SOL     OW58512   3.699   9.424   4.367 -0.4914 -0.0328  0.3055
18915SOL    HW158513   3.776   9.412   4.310 -0.4090 -1.1970  0.6273
18915SOL    HW258514   3.677   9.516   4.358  0.4177  0.1319 -0.4767
18916SOL     OW58515   1.913   2.441   6.056  0.7469 -0.5410  0.0430
18916SOL    HW158516   1.961   2.445   5.973  0.8109 -0.2554  0.0924
18916SOL    HW258517   1.821   2.438   6.031  0.7167  0.4672 -0.0309
18917SOL     OW58518   4.506   4.485   5.578  0.5359 -0.4601  0.3071
18917SOL    HW158519   4.528   4.485   5.485  1.0285 -0.9129  0.4164
18917SOL    HW258520   4.415   4.453   5.581  0.1675  0.5314 -0.0821
18918SOL     OW58521   7.156   2.519   8.192 -0.1972  0.5499  0.2771
18918SOL    HW158522   7.142   2.429   8.163 -1.1562  1.1685 -1.3109
18918SOL    HW258523   7.086   2.535   8.255 -0.6525  0.4952 -0.2092
18919SOL     OW58524   0.495   0.996   4.470 -0.5369  0.3488 -0.2374
18919SOL    HW158525   0.469   0.939   4.398  1.3096 -3.4624  1.7677
18919SOL    HW258526   0.412   1.029   4.506 -1.6148  0.2275 -2.4563
18920SOL     OW58527   7.236   3.978   9.361  0.0674  0.3133 -0.4991
18920SOL    HW158528   7.313   4.031   9.340 -0.0810  1.3287  1.3433
18920SOL    HW258529   7.251   3.895   9.315  0.9136  1.4507 -2.4009
18921SOL     OW58530   7.605   0.277   4.551 -0.3633 -0.3614  0.0988
18921SOL    HW158531   7.699   0.286   4.533 -0.5485 -0.1897 -0.8552
18921SOL    HW258532   7.564   0.282   4.464 -1.1478 -1.8278  0.3665
18922SOL     OW58533   4.834   3.338   7.730  0.2511  0.0202  0.1621
18922SOL    HW158534   4.858   3.428   7.710 -1.4636 -0.0780 -2.7405
18922SOL    HW258535   4.801   3.302   7.648  0.6493 -3.2262  1.2529
18923SOL     OW58536   0.507   3.556   7.555  0.2454 -0.3525  0.2586
18923SOL    HW158537   0.425   3.509   7.567  0.5051 -0.9987 -0.3911
18923SOL    HW258538   0.570   3.508   7.610  0.2616 -0.0515  0.5060
18924SOL     OW58539   7.030   1.800   6.079  0.2576 -0.0602  0.2062
18924SOL    HW158540   7.005   1.821   6.169 -0.2003  2.0512 -0.3489
18924SOL    HW258541   7.123   1.819   6.074  0.0047  1.2076 -0.0861
18925SOL     OW58542   6.377   1.441   7.322 -0.0946  0.7461 -0.1842
18925SOL    HW158543   6.422   1.362   7.293 -0.7577  0.1683  0.3267
18925SOL    HW258544   6.439   1.512   7.306  1.0932 -0.0534  0.7183
18926SOL     OW58545   4.937   9.400   2.005  0.1276  0.1372 -0.5835
18926SOL    HW158546   4.847   9.406   2.038 -0.1593 -0.1521 -1.3031
18926SOL    HW258547   4.987   9.366   2.079 -0.2298  0.9350  0.0395
18927SOL     OW58548   1.523   4.715   5.307 -0.0830  0.0178  0.1111
18927SOL    HW158549   1.552   4.697   5.218  0.4271  1.8102 -0.1358
18927SOL    HW258550   1.576   4.659   5.362 -0.5247 -1.2407 -0.7136
18928SOL     OW58551   6.544   4.414   3.147  0.4108 -0.6891 -0.4794
18928SOL    HW158552   6.615   4.465   3.183 -0.6295  2.1929 -2.1639
18928SOL    HW258553   6.490   4.477   3.099 -2.9958 -2.7639  0.2108
18929SOL     OW58554   8.218   1.154   0.585 -0.2895 -0.3327  0.4792
18929SOL    HW158555   8.225   1.249   0.595 -0.1867 -0.2687 -0.1170
18929SOL    HW258556   8.301   1.120   0.620 -0.5876 -0.2508  1.2576
18930SOL     OW58557   0.457   6.669   7.549 -0.7939 -0.0365  0.0395
18930SOL    HW158558   0.547   6.659   7.582 -0.8445 -0.7490 -0.0200
18930SOL    HW258559   0.468   6.715   7.466 -0.4186 -0.6410 -0.2596
18931SOL     OW58560   2.721   0.749   7.924  0.0083 -0.3208  0.5470
18931SOL    HW158561   2.644   0.735   7.979 -0.3052 -0.5258  0.0700
18931SOL    HW258562   2.714   0.681   7.856  0.1553  0.1922  0.0119
18932SOL     OW58563   9.818   6.220   9.251 -0.0854  0.5943  0.1719
18932SOL    HW158564   9.726   6.219   9.224 -0.3021  1.0368  0.8913
18932SOL    HW258565   9.866   6.202   9.170 -0.8424 -0.7984 -0.0105
18933SOL     OW58566   8.099   1.505   8.347 -0.1415  0.4055  0.0538
18933SOL    HW158567   8.179   1.546   8.317  0.6035 -1.6036 -0.8650
18933SOL    HW258568   8.030   1.545   8.293  0.5353  0.5271 -0.7454
18934SOL     OW58569   1.997   4.245   6.947  0.4259 -0.3004  0.0726
18934SOL    HW158570   2.086   4.259   6.914  0.2257  2.2182  0.3943
18934SOL    HW258571   1.954   4.330   6.935 -2.1461 -1.6254 -0.6313
18935SOL     OW58572   2.942   2.131   6.981  0.2323  0.3146 -0.0973
18935SOL    HW158573   2.914   2.200   7.042 -0.0977 -1.8779  2.4034
18935SOL    HW258574   3.037   2.141   6.976  0.3165  0.3031  1.1536
18936SOL     OW58575   0.922   4.814   4.024 -0.2275 -0.4082 -0.4602
18936SOL    HW158576   0.891   4.884   4.081  1.4737 -0.8692  1.0947
18936SOL    HW258577   0.885   4.734   4.062  0.7087 -0.6946 -0.1416
18937SOL     OW58578   9.188   2.756   7.903 -0.5588  0.3261  0.3134
18937SOL    HW158579   9.105   2.789   7.868 -0.0167  1.6024  0.1465
18937SOL    HW258580   9.253   2.819   7.872  0.1613  0.6256  2.2685
18938SOL     OW58581   4.704   8.609   1.731  0.0203  0.4633 -0.2144
18938SOL    HW158582   4.622   8.660   1.729  1.0822  2.2445 -0.0846
18938SOL    HW258583   4.768   8.669   1.770  1.3758 -0.9369 -0.2403
18939SOL     OW58584   3.414   2.915   7.271  0.0243 -0.0006  0.0732
18939SOL    HW158585   3.506   2.890   7.262 -0.1902 -0.2078 -1.8860
18939SOL    HW258586   3.406   2.944   7.362  2.3716  1.4362 -0.0940
18940SOL     OW58587   5.288   0.972   2.381  0.8724 -0.0903 -0.1025
18940SOL    HW158588   5.314   0.898   2.435  3.8362  0.5572 -0.5181
18940SOL    HW258589   5.263   1.040   2.444  0.4902 -0.6002  0.3136
18941SOL     OW58590   1.365   3.977   5.833 -0.0265  0.0501 -0.5073
18941SOL    HW158591   1.303   3.926   5.887  0.8792  0.7015  1.2096
18941SOL    HW258592   1.399   3.913   5.770  0.9547 -1.4958  1.4770
18942SOL     OW58593   4.293   8.029   9.069 -0.2006 -0.4798 -0.1326
18942SOL    HW158594   4.278   7.995   8.980  2.2812 -2.2760  0.0535
18942SOL    HW258595   4.296   7.951   9.124  0.3234  0.4712  1.2145
18943SOL     OW58596   2.095   2.251   1.868  0.2863 -0.5847  0.0150
18943SOL    HW158597   2.180   2.243   1.910  1.2182 -0.0155 -1.6752
18943SOL    HW258598   2.071   2.162   1.842  0.2631 -0.7715  0.6793
18944SOL     OW58599   1.726   9.797   2.876 -0.4060 -0.0500 -0.0726
18944SOL    HW158600   1.653   9.765   2.930  0.8346  0.6653  2.1249
18944SOL    HW258601   1.804   9.781   2.929  0.9150  0.5667 -1.7425
18945SOL     OW58602   4.890   9.552   9.318  0.1248 -0.2880 -0.2232
18945SOL    HW158603   4.909   9.573   9.227  1.9173 -0.6255  0.0340
18945SOL    HW258604   4.971   9.574   9.365 -0.8861  0.2344  1.3557
18946SOL     OW58605   9.067   2.844   4.317  0.4188  0.4818 -0.4791
18946SOL    HW158606   9.140   2.900   4.293  1.5966 -1.0353 -0.5778
18946SOL    HW258607   9.067   2.774   4.251 -0.4100 -0.1637  0.1754
18947SOL     OW58608   8.219   5.602   6.473  0.2265  0.1468 -0.1557
18947SOL    HW158609   8.182   5.636   6.391 -0.7901  1.2964  0.7454
18947SOL    HW258610   8.303   5.646   6.482 -0.8529  2.1499  0.7432
18948SOL     OW58611   4.279   8.778   3.995 -0.3795  0.6262 -0.1723
18948SOL    HW158612   4.240   8.692   4.007 -1.0766  1.1216  1.3392
18948SOL    HW258613   4.372   8.760   3.980 -0.5071 -0.3805  0.1594
18949SOL     OW58614   3.086   0.000   0.875 -0.5382  0.5338  0.2566
18949SOL    HW158615   3.059   0.092   0.884  1.4242  1.5489 -2.7192
18949SOL    HW258616   3.162  -0.008   0.932  0.2751  1.2943 -0.6812
18950SOL     OW58617   1.604   9.011   5.247 -0.6214 -0.2951  0.0868
18950SOL    HW158618   1.658   8.933   5.230 -1.1928 -0.5610 -0.5821
18950SOL    HW258619   1.667   9.081   5.261 -0.0252 -0.1916 -2.5187
18951SOL     OW58620   0.841   8.999   6.186 -0.0565 -0.1525 -0.3574
18951SOL    HW158621   0.798   9.084   6.188  0.1433 -0.0526 -0.3488
18951SOL    HW258622   0.917   9.008   6.243  0.0957 -0.2671 -0.5409
18952SOL     OW58623   0.923   0.904   7.487 -0.0887  0.0669 -0.3290
18952SOL    HW158624   1.013   0.904   7.521  0.0208 -1.0504 -0.5833
18952SOL    HW258625   0.895   0.995   7.494  1.4541  0.6531 -1.2798
18953SOL     OW58626   4.670   8.493   3.124 -0.1660  0.3071  0.1994
18953SOL    HW158627   4.591   8.501   3.177 -0.2771  0.1823  0.0540
18953SOL    HW258628   4.704   8.582   3.116  0.0692  0.2806  0.8138
18954SOL     OW58629   9.565   1.390   8.534  0.3800  0.1205  0.1425
18954SOL    HW158630   9.493   1.433   8.581 -0.0690  1.5588 -1.7807
18954SOL    HW258631   9.522   1.342   8.463  1.2795  1.0083 -1.0397
18955SOL     OW58632   8.394   7.939   9.128 -0.4050 -0.1482 -0.1734
18955SOL    HW158633   8.359   7.894   9.052 -0.0918  0.0030 -0.4064
18955SOL    HW258634   8.425   8.023   9.095 -1.2038  0.3527  0.2967
18956SOL     OW58635   7.943   1.466   3.160  0.3528 -0.0220 -0.4770
18956SOL    HW158636   8.011   1.411   3.123  0.1693 -1.9832  1.8524
18956SOL    HW258637   7.991   1.530   3.214  0.4662  0.9560 -1.6904
18957SOL     OW58638   4.058   5.676   1.649 -0.2515  0.2811 -0.0831
18957SOL    HW158639   3.966   5.657   1.667  0.3201 -0.0945  3.0162
18957SOL    HW258640   4.098   5.590   1.637 -0.2507  0.4326 -1.2309
18958SOL     OW58641   3.237   8.003   6.292 -0.2425  0.3545 -0.2667
18958SOL    HW158642   3.215   7.913   6.266  1.0721 -0.4619  1.2426
18958SOL    HW258643   3.174   8.058   6.245 -1.2861 -1.3675 -0.9832
18959SOL     OW58644   4.780   2.223   8.284 -0.0212 -0.3500 -0.4687
18959SOL    HW158645   4.853   2.273   8.248 -1.5255 -0.3012 -3.8950
18959SOL    HW258646   4.709   2.287   8.293 -0.9671 -1.1602 -1.7285
18960SOL     OW58647   2.345   7.339   4.842 -0.0510 -0.0191 -0.6373
18960SOL    HW158648   2.389   7.417   4.874  1.6238 -1.3915  0.6119
18960SOL    HW258649   2.255   7.347   4.873 -0.1737  1.8297 -1.3657
18961SOL     OW58650   1.391   0.799   9.389 -0.4249  0.2244  0.0919
18961SOL    HW158651   1.364   0.812   9.298  1.2243  0.2120 -0.4154
18961SOL    HW258652   1.400   0.704   9.397  1.3854  0.3194 -0.3553
18962SOL     OW58653   2.628   3.005   5.472  0.5869  0.0067 -0.0822
18962SOL    HW158654   2.667   3.090   5.489  1.5586 -0.1673 -1.2716
18962SOL    HW258655   2.584   3.015   5.387 -0.7486 -0.2119  0.5577
18963SOL     OW58656   4.161   9.659   3.252  0.0984  0.2520  0.2664
18963SOL    HW158657   4.233   9.598   3.232 -0.0409 -0.2086  1.1192
18963SOL    HW258658   4.197   9.715   3.320 -0.2748  0.1745  0.5246
18964SOL     OW58659   0.718   7.603   0.530  0.0667  0.0996 -0.9011
18964SOL    HW158660   0.626   7.584   0.509  0.3599 -1.9284 -0.5396
18964SOL    HW258661   0.734   7.556   0.611  1.1408  1.3731 -0.3443
18965SOL     OW58662   4.532   9.548   2.948 -0.2142  0.3107  0.6914
18965SOL    HW158663   4.472   9.530   3.020 -0.5777 -1.8687 -0.0632
18965SOL    HW258664   4.589   9.472   2.945  0.4871  0.8509 -0.6426
18966SOL     OW58665   4.130   6.929   8.383 -0.6240 -0.0672 -0.2691
18966SOL    HW158666   4.103   6.857   8.326 -1.7443  0.3515 -0.3098
18966SOL    HW258667   4.215   6.902   8.418 -1.0560 -1.4522 -0.2112
18967SOL     OW58668   7.597   0.300   0.282 -0.2255 -0.3564  0.7164
18967SOL    HW158669   7.533   0.234   0.310 -0.2630 -0.6254  0.0200
18967SOL    HW258670   7.667   0.295   0.347  1.3900 -3.4244 -1.0543
18968SOL     OW58671   3.580   7.037   3.028 -0.6516 -0.0037 -0.0969
18968SOL    HW158672   3.501   7.061   3.077  0.2286  1.3478  0.7334
18968SOL    HW258673   3.650   7.039   3.093  0.2325 -0.2244 -1.0140
18969SOL     OW58674   9.418   6.897   7.522 -0.4871  0.1420 -0.2205
18969SOL    HW158675   9.456   6.839   7.588 -1.5214  0.8879  1.0730
18969SOL    HW258676   9.485   6.902   7.454  1.0150  0.0457  1.1792
18970SOL     OW58677   3.987   2.777   6.648 -0.0339  0.0962 -0.1689
18970SOL    HW158678   4.034   2.736   6.720  0.6856 -3.0799 -2.2294
18970SOL    HW258679   3.897   2.788   6.680  0.7271  0.7304  1.8515
18971SOL     OW58680   4.085   5.932   0.159 -0.0724 -0.1311 -0.2149
18971SOL    HW158681   4.111   5.861   0.218  0.1910 -0.3910 -0.6384
18971SOL    HW258682   4.166   5.956   0.114 -0.4833 -0.7271 -1.3181
18972SOL     OW58683   5.899   8.048   3.029 -0.3258 -0.3689 -0.2535
18972SOL    HW158684   5.810   8.083   3.043 -0.8061 -1.6647  0.0189
18972SOL    HW258685   5.918   7.998   3.107  0.1623 -1.1100 -0.8352
18973SOL     OW58686   5.366   2.997   6.093 -0.1757 -0.4285  0.1568
18973SOL    HW158687   5.412   2.966   6.171 -0.4352 -1.9199 -0.2471
18973SOL    HW258688   5.426   2.979   6.021 -0.6917 -0.8116 -0.1835
18974SOL     OW58689   4.087   8.064   0.637 -0.1510  0.0413 -0.7526
18974SOL    HW158690   4.154   8.091   0.574 -0.3803  0.7630 -0.7040
18974SOL    HW258691   4.081   8.138   0.698 -2.4553  0.9186 -1.9496
18975SOL     OW58692   3.758   2.968   0.667  0.0186 -0.0475  0.3311
18975SOL    HW158693   3.777   2.927   0.752 -1.2461 -1.0554  0.1641
18975SOL    HW258694   3.729   3.057   0.689  1.3666  0.2879  0.8164
18976SOL     OW58695   5.009   6.379   2.620  0.6043 -0.3395  0.0565
18976SOL    HW158696   5.069   6.369   2.546 -1.1421 -0.7026 -1.3720
18976SOL    HW258697   4.930   6.332   2.593  0.4162 -1.8035  2.7751
18977SOL     OW58698   2.880   7.024   6.842  0.6727 -0.4598  0.2707
18977SOL    HW158699   2.925   6.947   6.875  0.3233 -1.0247 -0.5334
18977SOL    HW258700   2.942   7.063   6.779  0.3999 -0.7404 -0.1787
18978SOL     OW58701   2.855   5.931   0.775  0.0993 -0.4955 -0.3711
18978SOL    HW158702   2.858   6.002   0.710 -0.8642 -0.7823 -0.7522
18978SOL    HW258703   2.940   5.888   0.768  0.4799  0.2707 -0.5355
18979SOL     OW58704   4.760   2.168   5.708  0.0489  0.6097  0.6269
18979SOL    HW158705   4.750   2.100   5.641  1.5445 -0.8322  1.7890
18979SOL    HW258706   4.759   2.250   5.658 -1.6288 -0.2210 -0.8328
18980SOL     OW58707   1.772   2.279   8.253  0.4041  0.3235 -0.1037
18980SOL    HW158708   1.842   2.214   8.262  0.1708  0.0413 -0.3160
18980SOL    HW258709   1.700   2.244   8.305  0.1014  0.1640 -0.6230
18981SOL     OW58710   6.289   7.980   4.720  0.0114 -0.7962 -0.2400
18981SOL    HW158711   6.374   7.955   4.682  0.7445 -1.5660  1.7568
18981SOL    HW258712   6.310   8.007   4.809 -1.4991  1.9161 -0.5947
18982SOL     OW58713   8.465   7.680   8.402 -0.3804 -0.1582 -0.2613
18982SOL    HW158714   8.448   7.586   8.395 -2.5868  0.1892 -0.0999
18982SOL    HW258715   8.434   7.717   8.319 -1.1362  0.6319  0.3564
18983SOL     OW58716   2.791   1.525   9.283 -0.3891  0.7077 -0.3827
18983SOL    HW158717   2.858   1.592   9.297  0.1023  0.2148 -0.3271
18983SOL    HW258718   2.820   1.451   9.337  1.2205 -1.0305 -3.3853
18984SOL     OW58719   3.416   4.080   4.837 -1.1781 -0.1793 -0.2380
18984SOL    HW158720   3.479   4.139   4.795 -0.3049 -0.5898  0.4676
18984SOL    HW258721   3.407   4.007   4.775 -0.8150 -0.2139 -0.2488
18985SOL     OW58722   7.289   4.922   8.125  0.4778 -0.4082  0.6152
18985SOL    HW158723   7.320   4.869   8.052  0.7362 -0.0997  0.5031
18985SOL    HW258724   7.354   4.908   8.194 -0.6379 -2.0618  1.4085
18986SOL     OW58725   7.858   2.738   0.452  0.1311 -0.2020 -0.1674
18986SOL    HW158726   7.934   2.699   0.496 -0.1847  0.7703  1.3145
18986SOL    HW258727   7.782   2.701   0.498 -0.2044  0.9570  0.2256
18987SOL     OW58728   1.053   8.226   0.855 -0.5095 -0.3620 -0.3028
18987SOL    HW158729   0.968   8.263   0.879 -1.3049 -1.7564 -0.8784
18987SOL    HW258730   1.070   8.259   0.767 -0.5281 -0.2121 -0.2505
18988SOL     OW58731   4.715   2.836   0.916 -0.4087 -0.0349  0.1472
18988SOL    HW158732   4.760   2.763   0.959  1.6015  0.7798 -0.4696
18988SOL    HW258733   4.663   2.876   0.985  1.4313  0.2185  1.4656
18989SOL     OW58734   2.928   5.003   7.392 -0.6561 -0.0412  0.4520
18989SOL    HW158735   2.866   5.071   7.368  0.4054  0.2284 -1.7731
18989SOL    HW258736   2.894   4.924   7.351 -0.9272 -0.4803  1.4996
18990SOL     OW58737   5.109   6.940   2.138  0.3940  0.2885 -0.3316
18990SOL    HW158738   5.165   6.889   2.079  0.4377  0.2297 -0.2387
18990SOL    HW258739   5.161   6.951   2.217 -0.1294 -0.6999  0.1642
18991SOL     OW58740   7.357   6.715   4.273  0.3847  0.6898  0.4610
18991SOL    HW158741   7.410   6.768   4.213  0.2579  0.1718 -0.1258
18991SOL    HW258742   7.401   6.630   4.274 -0.4302  0.2541 -0.0371
18992SOL     OW58743   6.724   0.841   8.212  0.1242  0.0338 -0.2466
18992SOL    HW158744   6.801   0.855   8.266  0.5181  1.1534 -1.0751
18992SOL    HW258745   6.655   0.892   8.254 -0.2306 -1.0677  0.5656
18993SOL     OW58746   2.356   5.918   5.035 -0.3408 -0.1226 -0.1912
18993SOL    HW158747   2.399   5.971   4.968 -1.2118 -0.2356 -0.8574
18993SOL    HW258748   2.289   5.975   5.071 -0.6564 -0.4589 -0.2465
18994SOL     OW58749   7.422   1.144   3.465 -0.2823 -0.2253 -0.0352
18994SOL    HW158750   7.468   1.120   3.546 -1.3103 -0.6360  0.4337
18994SOL    HW258751   7.350   1.081   3.458 -1.2043  0.8384 -0.3973
18995SOL     OW58752   5.666   1.809   1.942 -0.2758  0.1726 -0.6200
18995SOL    HW158753   5.584   1.858   1.938 -1.3792 -1.4740  0.4607
18995SOL    HW258754   5.640   1.718   1.930  1.0798 -0.6107  1.7423
18996SOL     OW58755   6.500   0.594   6.007  0.0014  0.1125 -0.8684
18996SOL    HW158756   6.558   0.667   5.984 -0.8182  0.8765 -0.5730
18996SOL    HW258757   6.487   0.547   5.925  0.3871  0.4150 -1.1047
18997SOL     OW58758   2.636   8.065   8.260  0.0255  0.0181  0.1136
18997SOL    HW158759   2.719   8.112   8.246 -0.3110  1.0752  1.4153
18997SOL    HW258760   2.591   8.070   8.176  0.0345  2.0199  0.1851
18998SOL     OW58761   8.629   3.517   3.565  0.3610  0.3529  0.0955
18998SOL    HW158762   8.643   3.599   3.612 -1.4070 -0.3621  2.0344
18998SOL    HW258763   8.563   3.538   3.499  0.9018  0.7842 -0.3095
18999SOL     OW58764   4.249   0.802   8.600 -0.2130 -0.0944 -0.6014
18999SOL    HW158765   4.319   0.866   8.586 -0.4502 -0.0616 -1.7683
18999SOL    HW258766   4.216   0.822   8.687  0.0918  1.0181 -0.7234
19000SOL     OW58767   4.706   3.549   3.517  0.0113  0.5288 -0.3096
19000SOL    HW158768   4.698   3.498   3.597 -0.9835  0.1916 -0.6143
19000SOL    HW258769   4.800   3.566   3.509  0.0348  1.3549  1.3994
19001SOL     OW58770   3.055   5.345   9.247  0.1136  0.0079  0.0676
19001SOL    HW158771   3.086   5.429   9.280  0.2971 -0.1039  0.1832
19001SOL    HW258772   2.964   5.340   9.276 -0.4160  0.8969 -1.3430
19002SOL     OW58773   4.704   0.584   4.351  0.2853  0.0230 -0.3401
19002SOL    HW158774   4.705   0.496   4.313 -0.3904  0.2565 -0.9081
19002SOL    HW258775   4.792   0.595   4.388  1.1300 -0.0535 -2.2210
19003SOL     OW58776   3.164   1.667   7.767  0.0450 -0.2682 -0.3748
19003SOL    HW158777   3.114   1.734   7.815 -1.2113 -1.8988  0.6870
19003SOL    HW258778   3.139   1.679   7.676 -2.6859 -1.2797  0.1551
19004SOL     OW58779   1.658   6.630   5.419 -0.4873 -0.1052 -0.2548
19004SOL    HW158780   1.577   6.681   5.414 -0.0806  0.6020  0.1752
19004SOL    HW258781   1.654   6.572   5.343 -2.4951 -1.7834  1.0120
19005SOL     OW58782   3.750   2.984   8.109 -0.2157 -0.2520 -0.0627
19005SOL    HW158783   3.663   2.948   8.092 -0.0020  0.1926 -2.5523
19005SOL    HW258784   3.788   2.996   8.022  0.8224  3.2689  0.7028
19006SOL     OW58785   2.602   9.085   8.173 -0.1918  0.1716 -0.0679
19006SOL    HW158786   2.552   9.073   8.253 -2.0517 -0.5180 -1.2696
19006SOL    HW258787   2.574   9.014   8.115  0.0284  1.4425 -1.8294
19007SOL     OW58788   9.403   2.048   2.057 -0.5304  0.2453  0.4237
19007SOL    HW158789   9.369   2.011   2.138  0.8169  0.6712  1.2284
19007SOL    HW258790   9.422   1.972   2.002 -1.2456 -0.0592  0.5847
19008SOL     OW58791   3.095   7.338   6.996  0.1968  0.5520  0.0192
19008SOL    HW158792   3.024   7.378   7.046  0.3725  1.8166 -0.6905
19008SOL    HW258793   3.130   7.410   6.943  1.6985 -0.1554  0.0061
19009SOL     OW58794   0.226   4.112   5.157  0.3597 -0.2325 -0.1018
19009SOL    HW158795   0.131   4.119   5.166  0.2528 -0.8186 -0.6656
19009SOL    HW258796   0.253   4.193   5.114  0.3072  0.5630  1.3060
19010SOL     OW58797   9.082   9.006   8.307 -0.1654 -0.1513  0.1136
19010SOL    HW158798   9.125   9.084   8.343 -0.7908  0.3734 -0.2557
19010SOL    HW258799   9.007   8.992   8.365 -0.7346  0.2393 -0.5125
19011SOL     OW58800   9.104   0.476   6.377 -0.5140 -0.0756  0.7726
19011SOL    HW158801   9.199   0.468   6.378 -0.5835 -2.5742 -1.7052
19011SOL    HW258802   9.085   0.523   6.295 -1.4367  1.4673  1.8170
19012SOL     OW58803   8.324   0.798   6.059  0.5374  0.3065  0.5375
19012SOL    HW158804   8.310   0.850   5.980 -1.9097 -1.5077 -0.3463
19012SOL    HW258805   8.369   0.719   6.029 -3.2295 -1.9436  0.1309
19013SOL     OW58806   7.550   6.966   9.830  0.1051  0.2513 -0.3074
19013SOL    HW158807   7.516   7.031   9.892  0.6101 -0.9984  1.3449
19013SOL    HW258808   7.598   7.017   9.765 -0.2177  1.5965  0.4820
19014SOL     OW58809   7.139   4.032   1.360 -0.5686 -0.4329 -0.0202
19014SOL    HW158810   7.175   3.954   1.317 -0.7810 -0.9828  0.7768
19014SOL    HW258811   7.082   3.997   1.428 -0.1689  0.4265  0.7644
19015SOL     OW58812   9.551   8.535   9.673 -0.1401  0.2311  0.3938
19015SOL    HW158813   9.486   8.532   9.743  0.7904  0.4045  1.3000
19015SOL    HW258814   9.547   8.448   9.633 -0.9948  0.2773  0.3605
19016SOL     OW58815   1.780   1.679   2.779 -0.3549  0.5259 -0.1537
19016SOL    HW158816   1.871   1.704   2.762 -1.0578  2.9521 -0.7066
19016SOL    HW258817   1.735   1.692   2.695 -1.4242  0.4140  0.3855
19017SOL     OW58818   6.150   8.627   1.943 -0.1774  0.6478 -0.0265
19017SOL    HW158819   6.195   8.588   2.018 -1.1842  0.0961  0.3041
19017SOL    HW258820   6.077   8.676   1.981  1.4388  3.5051 -0.3654
19018SOL     OW58821   7.037   6.459   4.214  0.3185 -0.0422  0.6524
19018SOL    HW158822   7.124   6.433   4.244  0.4404  0.3346  0.6315
19018SOL    HW258823   7.042   6.555   4.208 -0.0646 -0.0294  0.5534
19019SOL     OW58824   9.294   1.052   5.241  0.0587 -0.3895  0.1533
19019SOL    HW158825   9.241   1.084   5.169 -2.2310 -1.7029  1.1427
19019SOL    HW258826   9.342   0.977   5.205 -0.0855 -0.2553 -0.3190
19020SOL     OW58827   2.210   0.968   2.211  0.8661 -0.3652 -0.0163
19020SOL    HW158828   2.222   0.876   2.236 -0.8022 -0.1264  1.9494
19020SOL    HW258829   2.115   0.979   2.204  0.9711  1.4716  0.9026
19021SOL     OW58830   2.237   9.205   3.540  0.0684 -0.8594 -0.6037
19021SOL    HW158831   2.221   9.289   3.496 -0.9734  0.2003  1.6033
19021SOL    HW258832   2.330   9.189   3.528 -0.0670 -0.3740 -2.6628
19022SOL     OW58833   1.227   1.265   1.800  0.2472  0.1059  0.0987
19022SOL    HW158834   1.291   1.196   1.810  1.3696  1.2016  0.7593
19022SOL    HW258835   1.147   1.220   1.773  0.0824 -1.8407  3.2895
19023SOL     OW58836   7.200   6.939   7.505  0.8154  0.1210  0.1650
19023SOL    HW158837   7.104   6.938   7.501  0.8224  0.3588 -0.0875
19023SOL    HW258838   7.224   7.024   7.469  1.1652 -0.3231 -0.6679
19024SOL     OW58839   3.495   8.779   0.969  0.3320  0.1894  0.1476
19024SOL    HW158840   3.476   8.748   0.881 -0.6917  2.3164 -0.4327
19024SOL    HW258841   3.589   8.799   0.967  0.0443  1.5434 -0.9182
19025SOL     OW58842   4.589   7.108   2.529 -0.2313 -0.1254 -0.1780
19025SOL    HW158843   4.507   7.088   2.483 -0.8519 -0.1729  0.9142
19025SOL    HW258844   4.622   7.022   2.555  0.6390 -0.1778 -1.3538
19026SOL     OW58845   1.454   0.072   7.255  0.5281  0.2355 -0.0958
19026SOL    HW158846   1.425   0.074   7.346 -1.3630  0.3698 -0.6571
19026SOL    HW258847   1.497   0.156   7.242 -1.8267  1.5333 -0.0802
19027SOL     OW58848   9.688   5.469   2.656 -0.0413 -0.7210 -0.6168
19027SOL    HW158849   9.610   5.435   2.700 -0.9973  0.3346 -1.4586
19027SOL    HW258850   9.761   5.429   2.704 -1.0721 -1.2843  0.5493
19028SOL     OW58851   0.111   0.464   6.920 -0.9951 -0.7607 -0.1974
19028SOL    HW158852   0.067   0.476   7.005 -2.2940 -1.2615 -0.7691
19028SOL    HW258853   0.193   0.513   6.928 -2.0461  0.9662  0.6343
19029SOL     OW58854   6.940   1.167   9.445 -0.0727  0.6392 -0.7061
19029SOL    HW158855   6.862   1.218   9.462 -1.1231 -1.3310  0.7517
19029SOL    HW258856   6.938   1.152   9.350 -2.1508 -0.3530 -0.5619
19030SOL     OW58857   2.029   0.659   3.422 -0.1801  0.1030  0.4103
19030SOL    HW158858   2.072   0.579   3.454  0.2031  0.4071  0.6644
19030SOL    HW258859   2.097   0.726   3.427 -0.2562  0.2682 -0.5960
19031SOL     OW58860   1.629   5.799   1.115 -0.0238 -0.1490 -0.0035
19031SOL    HW158861   1.691   5.833   1.050 -0.0878  0.5279  0.2830
19031SOL    HW258862   1.543   5.825   1.082 -0.1992 -1.4238 -0.6017
19032SOL     OW58863   1.538   9.574   4.407 -0.3621  0.5937 -0.6386
19032SOL    HW158864   1.508   9.650   4.358  0.2555  1.7378  0.6915
19032SOL    HW258865   1.458   9.538   4.446 -0.5942  0.8551 -0.8703
19033SOL     OW58866   3.220   0.857   5.925  0.1156  0.4310 -0.5752
19033SOL    HW158867   3.227   0.801   6.002  0.2659  1.4564  0.1753
19033SOL    HW258868   3.230   0.797   5.851  3.1596 -0.2131  0.2088
19034SOL     OW58869   1.578   0.312   7.194 -0.0696  0.0157  0.4530
19034SOL    HW158870   1.553   0.405   7.188  1.2198  0.3231 -0.8087
19034SOL    HW258871   1.672   0.312   7.173 -0.1880 -1.6506 -0.1456
19035SOL     OW58872   8.463   1.439   0.920  0.1318  0.3007  0.0514
19035SOL    HW158873   8.510   1.425   0.838  1.3345 -0.6537  0.8485
19035SOL    HW258874   8.428   1.353   0.942  0.3440  0.4065  0.8306
19036SOL     OW58875   0.505   5.574   6.554  0.0595  0.1247  0.2550
19036SOL    HW158876   0.521   5.666   6.576 -1.4066 -0.1735  2.9715
19036SOL    HW258877   0.422   5.575   6.506 -1.6791  0.0618  3.0502
19037SOL     OW58878   8.380   9.110   3.038 -0.0075  0.2327  0.1289
19037SOL    HW158879   8.396   9.157   2.957 -0.5184 -0.4345 -0.3674
19037SOL    HW258880   8.405   9.019   3.020 -1.7680 -0.2985  0.1372
19038SOL     OW58881   6.059   8.014   1.509  0.7142  0.5797 -0.2309
19038SOL    HW158882   6.067   7.950   1.439  3.5007 -1.3066  1.6091
19038SOL    HW258883   6.052   8.098   1.464 -0.5241 -0.7315 -2.7203
19039SOL     OW58884   7.681   0.646   1.358  0.7080  0.5692 -0.2131
19039SOL    HW158885   7.668   0.731   1.316  1.1649  0.0608 -1.4102
19039SOL    HW258886   7.594   0.621   1.390  0.2672  0.7748 -1.2281
19040SOL     OW58887   0.926   1.616   5.099 -0.1958 -0.1918 -0.1999
19040SOL    HW158888   0.944   1.571   5.016 -0.1617 -2.5863  1.0237
19040SOL    HW258889   0.844   1.663   5.083  1.3005  1.9291 -2.4605
19041SOL     OW58890   1.087   5.803   0.194 -0.2901 -0.3394  0.4294
19041SOL    HW158891   1.008   5.781   0.145 -1.0836 -1.0771  1.9875
19041SOL    HW258892   1.145   5.728   0.181 -0.4591 -0.4892  0.5325
19042SOL     OW58893   5.982   7.059   5.886  0.7563 -0.6359 -0.2052
19042SOL    HW158894   6.024   7.119   5.826  1.2712 -0.7490  0.0317
19042SOL    HW258895   6.036   7.062   5.965 -1.0708  1.1262  1.0751
19043SOL     OW58896   6.281   5.222   0.401  0.5064  0.8655 -0.1987
19043SOL    HW158897   6.314   5.134   0.420 -0.9525 -0.0222 -1.5772
19043SOL    HW258898   6.330   5.250   0.324 -0.9653  0.0475 -1.4950
19044SOL     OW58899   9.569   0.593   1.381 -0.5575 -0.5007  0.4470
19044SOL    HW158900   9.589   0.679   1.345 -1.2681 -0.2187  0.7114
19044SOL    HW258901   9.638   0.577   1.446 -0.4760 -0.0876  0.4625
19045SOL     OW58902   6.587   5.911   6.254  0.0235  0.0515  0.2569
19045SOL    HW158903   6.600   5.905   6.159 -0.0953 -1.1264  0.2965
19045SOL    HW258904   6.600   6.003   6.274  1.3175  0.1146 -0.7182
19046SOL     OW58905   4.646   1.380   1.393 -0.0475  0.3299 -0.6186
19046SOL    HW158906   4.641   1.463   1.441 -0.6545  1.1429 -2.0485
19046SOL    HW258907   4.564   1.376   1.343 -0.5768 -1.7057  0.3001
19047SOL     OW58908   5.572   7.790   3.946  0.1605  0.0101  0.5795
19047SOL    HW158909   5.616   7.846   4.010 -1.2443 -0.6320  2.2088
19047SOL    HW258910   5.511   7.738   3.999 -0.3999 -1.2244 -1.1966
19048SOL     OW58911   6.677   4.942   1.855 -0.1937 -0.2191 -0.2098
19048SOL    HW158912   6.684   5.019   1.912  0.2846  0.2047 -0.8272
19048SOL    HW258913   6.689   4.867   1.914  2.3671  0.2548 -0.0063
19049SOL     OW58914   2.766   3.334   7.735 -0.0424  0.4359 -1.0057
19049SOL    HW158915   2.856   3.367   7.740 -0.0269  0.5133 -1.7595
19049SOL    HW258916   2.773   3.254   7.683 -0.4534  0.5814 -1.2859
19050SOL     OW58917   7.702   4.774   3.198  0.1861 -0.2060 -0.5453
19050SOL    HW158918   7.714   4.778   3.293 -0.4588 -1.2764 -0.4074
19050SOL    HW258919   7.620   4.728   3.185  0.2283 -0.0182 -1.6366
19051SOL     OW58920   0.058   2.308   4.357  0.1520 -0.3418  0.0287
19051SOL    HW158921   0.130   2.365   4.383 -0.0783  0.7861 -1.6320
19051SOL    HW258922   0.079   2.283   4.267 -1.0839 -0.7114 -0.1745
19052SOL     OW58923   4.785   8.055   7.941 -0.5221  0.2263 -0.3936
19052SOL    HW158924   4.694   8.027   7.928 -0.1369 -0.4101 -2.0253
19052SOL    HW258925   4.810   8.093   7.857  0.6065  0.7703  0.1700
19053SOL     OW58926   4.822   4.502   4.749 -0.3517 -0.4630 -0.1052
19053SOL    HW158927   4.783   4.490   4.662 -1.3254  2.2782 -0.1519
19053SOL    HW258928   4.914   4.479   4.737 -0.8702 -2.0681 -1.3242
19054SOL     OW58929   7.483   1.450   3.764 -0.5584  0.1897 -0.0877
19054SOL    HW158930   7.389   1.451   3.747 -0.4032  0.5311 -1.0050
19054SOL    HW258931   7.522   1.439   3.678  0.2545  0.4761  0.2399
19055SOL     OW58932   1.613   4.503   9.373 -0.0642 -0.8447 -0.6785
19055SOL    HW158933   1.572   4.586   9.349 -0.3487 -0.8539 -0.2515
19055SOL    HW258934   1.562   4.437   9.326 -0.7359 -0.8773  0.0719
19056SOL     OW58935   2.101   2.403   5.080  0.0074  0.3059  0.2445
19056SOL    HW158936   2.187   2.446   5.083  1.0681 -1.7128  0.2941
19056SOL    HW258937   2.121   2.312   5.061 -2.2604  0.0770 -1.4171
19057SOL     OW58938   0.315   3.441   4.485 -0.2621 -0.0125  0.5051
19057SOL    HW158939   0.253   3.476   4.420  0.7432  0.2873 -0.3092
19057SOL    HW258940   0.281   3.472   4.569 -0.8111  0.7577  0.0115
19058SOL     OW58941   5.758   5.069   6.414 -0.3176 -0.5408 -0.0235
19058SOL    HW158942   5.666   5.079   6.439 -1.3090 -2.2342 -2.5222
19058SOL    HW258943   5.784   4.986   6.454 -0.0384 -0.3093  0.2735
19059SOL     OW58944   5.047   8.634   9.528  0.1595  0.1261 -0.4040
19059SOL    HW158945   4.999   8.581   9.464  1.8053 -0.1024 -1.5183
19059SOL    HW258946   5.052   8.579   9.606  0.5097 -0.7462 -1.0273
19060SOL     OW58947   1.102   9.839   3.034  0.1783  0.2998 -0.1320
19060SOL    HW158948   1.196   9.852   3.041 -0.2081  3.6118  0.5895
19060SOL    HW258949   1.079   9.785   3.110  1.3333  0.5853  0.4447
19061SOL     OW58950   9.587   9.827   1.704 -0.1625  0.0563 -0.1928
19061SOL    HW158951   9.615   9.854   1.791 -0.1987 -2.4085  0.6580
19061SOL    HW258952   9.668   9.824   1.653  0.1912 -0.5971  0.3872
19062SOL     OW58953   0.018   3.672   9.510 -0.3782  0.2135  0.7203
19062SOL    HW158954  -0.073   3.697   9.494 -0.3137 -0.8628 -1.7203
19062SOL    HW258955   0.068   3.752   9.497 -0.6939  0.1147 -1.4733
19063SOL     OW58956   8.367   1.745   5.267  0.2191 -0.4758  0.1055
19063SOL    HW158957   8.389   1.677   5.330 -0.6792  0.0502  1.0242
19063SOL    HW258958   8.310   1.702   5.203  0.3733 -0.7923  0.1794
19064SOL     OW58959   7.574   1.838   6.200  0.0352  0.2871  0.0315
19064SOL    HW158960   7.633   1.911   6.182  1.2205 -0.5011  0.6006
19064SOL    HW258961   7.616   1.789   6.270 -2.0862  0.5549  1.6063
19065SOL     OW58962   2.589   6.534   9.310  0.6625 -0.1207  0.2644
19065SOL    HW158963   2.596   6.441   9.331 -0.5931 -0.1149  0.8193
19065SOL    HW258964   2.574   6.536   9.215  1.5132 -0.4199  0.1111
19066SOL     OW58965   6.618   6.073   1.570 -0.3346 -0.0869 -0.3339
19066SOL    HW158966   6.683   6.133   1.605  0.9051 -0.5716 -1.6945
19066SOL    HW258967   6.537   6.096   1.615  0.9482 -0.1208  2.1761
19067SOL     OW58968   5.889   2.949   0.694  0.3512 -0.3600 -0.6229
19067SOL    HW158969   5.947   2.985   0.762  0.0616 -1.8721  0.4804
19067SOL    HW258970   5.838   2.882   0.740  0.1387 -1.4187 -2.3443
19068SOL     OW58971   7.730   0.470   4.929 -0.3806  0.3784  0.0115
19068SOL    HW158972   7.804   0.492   4.986 -2.3833  1.5259  2.3859
19068SOL    HW258973   7.681   0.552   4.921 -1.8936 -0.5434 -0.6612
19069SOL     OW58974   0.773   1.885   8.358 -0.5848  0.2325  0.3703
19069SOL    HW158975   0.842   1.868   8.294 -0.4675 -0.8837  0.7711
19069SOL    HW258976   0.692   1.876   8.308 -0.4662  2.0325 -0.2140
19070SOL     OW58977   3.733   8.803   5.219  0.8584  0.0213 -0.4946
19070SOL    HW158978   3.815   8.835   5.182 -0.3613  1.8343 -1.8132
19070SOL    HW258979   3.679   8.882   5.229 -0.4514 -1.0068  1.1169
19071SOL     OW58980   4.648   1.175   2.477  0.9114  0.0730 -0.1918
19071SOL    HW158981   4.666   1.261   2.438 -3.5599  1.1438 -0.3933
19071SOL    HW258982   4.602   1.195   2.558 -0.4304 -2.0990 -0.3408
19072SOL     OW58983   9.324   3.759   6.867 -0.0459  0.0885 -0.1984
19072SOL    HW158984   9.235   3.772   6.834  0.0728 -0.6248 -0.8291
19072SOL    HW258985   9.338   3.832   6.927 -0.3932  1.2728 -1.4876
19073SOL     OW58986   6.955   3.934   1.903 -0.1825 -0.1655 -0.2310
19073SOL    HW158987   6.920   4.022   1.899 -0.3911 -0.2831 -1.0995
19073SOL    HW258988   7.027   3.939   1.967 -0.2136  0.6159 -0.2580
19074SOL     OW58989   2.943   0.470   8.305 -0.0745  0.0258 -0.0336
19074SOL    HW158990   2.978   0.490   8.391  0.4957 -1.3333  0.0581
19074SOL    HW258991   3.005   0.509   8.243  0.7058 -0.9240  0.1476
19075SOL     OW58992   9.672   1.186   0.261  0.1947  0.3801 -0.0358
19075SOL    HW158993   9.663   1.278   0.284 -1.9246  0.3196 -0.4824
19075SOL    HW258994   9.729   1.150   0.330  1.5371  2.1035 -0.1954
19076SOL     OW58995   1.547   3.199   0.189 -0.1116  0.6553 -0.2425
19076SOL    HW158996   1.463   3.154   0.179 -1.2890  1.7157  3.3453
19076SOL    HW258997   1.611   3.128   0.195 -1.1269 -0.3043 -0.3482
19077SOL     OW58998   3.077   6.642   7.729  0.4229  0.2297  0.5864
19077SOL    HW158999   3.038   6.559   7.700 -0.9420  0.8366  0.6271
19077SOL    HW259000   3.133   6.669   7.657 -0.2275 -0.0233 -0.0226
19078SOL     OW59001   9.504   2.750   7.727 -0.8486 -0.5602 -0.2982
19078SOL    HW159002   9.547   2.747   7.642 -1.0932 -0.9033 -0.4125
19078SOL    HW259003   9.412   2.737   7.708 -1.3409  2.3353 -0.2731
19079SOL     OW59004   3.183   6.191   3.126 -0.2621  0.0673  0.1010
19079SOL    HW159005   3.259   6.134   3.120 -0.0038  0.0630  2.6450
19079SOL    HW259006   3.209   6.261   3.186 -2.8339 -1.0268  2.7676
19080SOL     OW59007   0.963   7.376   4.039  0.1477 -0.1907 -0.1059
19080SOL    HW159008   1.040   7.332   4.076  1.0613  0.0133 -1.6547
19080SOL    HW259009   0.901   7.306   4.021 -0.2796 -0.3012  1.6506
19081SOL     OW59010   3.053   8.224   0.602  0.0994 -0.1012 -0.6569
19081SOL    HW159011   3.000   8.144   0.612 -1.1325  0.7845  0.1715
19081SOL    HW259012   3.111   8.205   0.528  0.5123 -2.1226  0.1227
19082SOL     OW59013   0.472   8.242   6.743 -0.9560  0.0134 -0.5947
19082SOL    HW159014   0.466   8.152   6.775  0.7023  0.4230  1.0418
19082SOL    HW259015   0.425   8.293   6.808 -0.7815  0.4782 -0.8311
19083SOL     OW59016   0.733   4.964   4.371 -0.1563  0.4332  0.3483
19083SOL    HW159017   0.826   4.976   4.392  0.1063 -0.3269 -0.3408
19083SOL    HW259018   0.714   4.874   4.397 -0.6418  0.5131  0.2724
19084SOL     OW59019   5.411   5.861   9.195  0.1415 -0.2125  0.6597
19084SOL    HW159020   5.468   5.890   9.267  0.6687  0.2145  0.0745
19084SOL    HW259021   5.440   5.912   9.119 -0.4643 -0.6054  0.1578
19085SOL     OW59022   5.250   6.761   6.502 -0.2228  0.9066 -0.1079
19085SOL    HW159023   5.313   6.750   6.431 -0.9854 -0.1202 -0.6639
19085SOL    HW259024   5.292   6.723   6.579  0.0016  0.5986 -0.3809
19086SOL     OW59025   3.551   7.750   2.505  0.1664  0.4218  0.0320
19086SOL    HW159026   3.563   7.662   2.540  1.5589  0.7528  0.4598
19086SOL    HW259027   3.535   7.804   2.582 -0.6589  0.5605 -0.2276
19087SOL     OW59028   1.199   7.745   3.690 -0.2441  0.0280 -0.0835
19087SOL    HW159029   1.158   7.831   3.688  1.0198  0.6705  0.5470
19087SOL    HW259030   1.292   7.761   3.672 -0.0041 -1.2175 -0.1111
19088SOL     OW59031   9.587   8.449   8.946  0.2710  0.0762  0.6631
19088SOL    HW159032   9.619   8.376   8.999 -1.1456 -0.8930  0.2570
19088SOL    HW259033   9.521   8.491   9.001  0.4001  0.4719  0.5199
19089SOL     OW59034   0.772   0.023   4.257  0.2201 -0.4041  0.0567
19089SOL    HW159035   0.743   0.037   4.167  0.8837 -0.6959 -0.2113
19089SOL    HW259036   0.740   0.100   4.305 -3.0817 -1.7532  0.3229
19090SOL     OW59037   4.957   0.158   4.758 -0.0925 -0.4427  0.2384
19090SOL    HW159038   4.911   0.165   4.841  0.8854 -0.4072  0.7983
19090SOL    HW259039   4.943   0.067   4.731 -0.3648 -0.4740  0.4784
19091SOL     OW59040   9.533   3.756   7.404  0.4235 -0.3903 -0.0138
19091SOL    HW159041   9.616   3.724   7.368 -0.1775 -1.7569 -0.2758
19091SOL    HW259042   9.467   3.726   7.341 -0.3136  0.2653  0.4357
19092SOL     OW59043   2.491   1.402   7.692  0.6714 -0.3662 -0.2023
19092SOL    HW159044   2.478   1.412   7.597 -0.5106  3.7549  0.2024
19092SOL    HW259045   2.586   1.408   7.704  0.6793  2.4306 -1.0095
19093SOL     OW59046   4.315   1.296   5.723  0.1151  0.2484  0.3502
19093SOL    HW159047   4.293   1.341   5.642 -0.4077  0.1150  0.4151
19093SOL    HW259048   4.382   1.232   5.697 -0.2009  0.0630 -0.0177
19094SOL     OW59049   7.445   9.582   0.996 -0.5440  0.6130  0.0178
19094SOL    HW159050   7.419   9.492   1.016 -1.2266  0.6103 -0.8481
19094SOL    HW259051   7.526   9.574   0.947 -0.8348  0.4418 -0.4391
19095SOL     OW59052   3.828   2.909   0.197  0.0726 -0.0018  0.1717
19095SOL    HW159053   3.892   2.959   0.147 -1.4734  2.1629  0.2462
19095SOL    HW259054   3.879   2.865   0.265  1.7702 -0.4262 -1.3122
19096SOL     OW59055   4.191   7.283   3.962 -0.4757  0.1199 -0.2498
19096SOL    HW159056   4.249   7.244   4.028 -0.0581 -2.5222 -2.0131
19096SOL    HW259057   4.246   7.294   3.885 -1.6289  0.4327 -1.0580
19097SOL     OW59058   8.247   0.293   5.554  0.4732 -0.1606 -0.5960
19097SOL    HW159059   8.328   0.313   5.507  0.5212  2.0935  0.2859
19097SOL    HW259060   8.273   0.289   5.646 -0.2674 -0.3066 -0.3860
19098SOL     OW59061   3.829   4.422   8.098 -0.4248 -0.5383 -0.0833
19098SOL    HW159062   3.772   4.434   8.022  1.1357  1.6819 -0.9917
19098SOL    HW259063   3.871   4.507   8.110  2.1965 -1.8790  0.9429
19099SOL     OW59064   0.572   5.306   7.411  0.1543  0.1060  0.3170
19099SOL    HW159065   0.553   5.366   7.483 -0.4959  0.7888 -0.4035
19099SOL    HW259066   0.487   5.269   7.387  0.7367 -2.6402  1.9983
19100SOL     OW59067   0.887   5.694   6.793  0.4691 -0.2022 -0.2316
19100SOL    HW159068   0.858   5.738   6.872  1.0648 -0.4971  0.1530
19100SOL    HW259069   0.818   5.629   6.776  0.3872 -0.2020  0.0959
19101SOL     OW59070   8.310   1.516   4.176  0.4861 -0.2050  0.1110
19101SOL    HW159071   8.403   1.495   4.180  0.4056 -0.8327 -0.9510
19101SOL    HW259072   8.282   1.519   4.268  1.1642 -1.8557  0.4003
19102SOL     OW59073   7.409   7.310   8.636  0.4348  0.6215 -0.1316
19102SOL    HW159074   7.339   7.286   8.698  1.7567  0.5980  1.4157
19102SOL    HW259075   7.414   7.236   8.576  0.0554 -0.0113  0.5952
19103SOL     OW59076   8.664   6.710   3.122 -0.0771 -0.2316  0.3518
19103SOL    HW159077   8.685   6.683   3.032 -0.5640  0.5754 -0.0212
19103SOL    HW259078   8.569   6.719   3.122 -0.1276 -0.7408  1.1037
19104SOL     OW59079   8.055   3.249   7.681 -0.4126  0.0652 -0.1474
19104SOL    HW159080   8.109   3.306   7.625  1.0166 -1.5486 -0.5071
19104SOL    HW259081   8.112   3.226   7.754 -0.3746 -2.0873 -0.7868
19105SOL     OW59082   3.858   0.605   3.008 -0.8681 -0.0764 -0.6454
19105SOL    HW159083   3.815   0.546   2.946 -1.3430  0.4386 -0.8109
19105SOL    HW259084   3.945   0.618   2.971 -1.1255  0.1766 -1.1773
19106SOL     OW59085   1.697   3.909   1.049  0.1441  0.1411 -0.3156
19106SOL    HW159086   1.766   3.889   1.113  1.5660  1.9188 -1.2332
19106SOL    HW259087   1.666   3.996   1.073 -2.4425 -0.9024  0.5595
19107SOL     OW59088   1.902   5.933   0.039 -0.1528 -0.0720 -0.3484
19107SOL    HW159089   1.899   5.845   0.076 -1.0035 -0.3685 -1.0765
19107SOL    HW259090   1.815   5.969   0.055  0.0228  0.4434 -0.5233
19108SOL     OW59091   1.990   0.853   5.657 -0.6393  0.0596  0.0054
19108SOL    HW159092   2.029   0.867   5.570  0.2870  0.3365  0.4535
19108SOL    HW259093   2.010   0.933   5.706 -1.4494  0.0447  0.3749
19109SOL     OW59094   5.447   7.109   5.274 -0.0490  0.1157 -0.1521
19109SOL    HW159095   5.456   7.162   5.354  3.0188  1.0572 -0.9745
19109SOL    HW259096   5.514   7.041   5.284 -0.5544 -0.5757 -1.3336
19110SOL     OW59097   2.391   3.978   4.879  0.2635  0.1889 -0.5943
19110SOL    HW159098   2.344   4.060   4.892  0.1086  0.0493 -0.2615
19110SOL    HW259099   2.470   4.003   4.830 -0.5164  0.3211 -1.8402
19111SOL     OW59100   0.437   2.763   6.157  0.0241  0.2818 -0.1463
19111SOL    HW159101   0.440   2.837   6.217  0.4803  1.4973 -1.6086
19111SOL    HW259102   0.422   2.687   6.213 -2.9919  1.7130  1.2012
19112SOL     OW59103   8.118   0.078   6.987  0.1355 -0.4066  0.2183
19112SOL    HW159104   8.210   0.054   6.975 -0.3173 -1.0729 -2.4857
19112SOL    HW259105   8.070  -0.004   6.979 -0.7394 -0.1009  1.8424
19113SOL     OW59106   2.981   0.311   2.079  0.3321 -0.4043  0.0410
19113SOL    HW159107   2.962   0.220   2.098  0.6244 -0.4469  0.1389
19113SOL    HW259108   2.965   0.357   2.161  0.4267 -0.4074  0.0620
19114SOL     OW59109   3.463   0.060   5.127 -0.3383  0.5335 -0.0701
19114SOL    HW159110   3.504  -0.011   5.077  0.1653  2.2303 -2.2051
19114SOL    HW259111   3.393   0.016   5.177  1.6551 -1.8437  0.8331
19115SOL     OW59112   2.751   8.684   8.205 -0.6369 -0.0572  0.1385
19115SOL    HW159113   2.736   8.743   8.279 -0.0368 -1.6756  1.6293
19115SOL    HW259114   2.845   8.662   8.211 -0.9977 -1.7773  0.1608
19116SOL     OW59115   0.159   9.102   1.690 -0.1341  0.2787  0.6764
19116SOL    HW159116   0.130   9.022   1.646  1.1488  0.6430 -0.9106
19116SOL    HW259117   0.137   9.088   1.783 -0.6195 -1.5690  0.3161
19117SOL     OW59118   5.949   8.965   5.870  0.3457  0.3679 -0.0323
19117SOL    HW159119   5.971   9.034   5.932 -1.6709  0.1778  0.9567
19117SOL    HW259120   5.974   9.001   5.784  2.2857  1.0077  0.7390
19118SOL     OW59121   1.462   5.812   8.789 -0.7469  0.2063  0.5422
19118SOL    HW159122   1.367   5.824   8.785 -1.2957 -2.8290  1.8915
19118SOL    HW259123   1.477   5.723   8.755  1.5394  0.3183  1.0844
19119SOL     OW59124   3.558   1.316   9.704  0.0006 -0.1611 -0.1649
19119SOL    HW159125   3.604   1.397   9.683  0.8490 -0.5017  0.3146
19119SOL    HW259126   3.480   1.343   9.752  1.5840  0.2887  2.3410
19120SOL     OW59127   6.040   7.869   1.269 -0.5910 -0.3337  0.3765
19120SOL    HW159128   5.947   7.892   1.282 -0.9358 -1.1976 -0.4700
19120SOL    HW259129   6.038   7.783   1.228  0.5896 -0.2476  0.1062
19121SOL     OW59130   9.050   6.388   6.670 -0.2265  0.0199  0.3885
19121SOL    HW159131   9.091   6.458   6.721  0.7687  0.3827 -0.8347
19121SOL    HW259132   8.965   6.423   6.645 -0.5966 -0.0455  1.5231
19122SOL     OW59133   6.688   6.467   9.402  0.1798  0.2404 -0.5203
19122SOL    HW159134   6.683   6.463   9.497 -0.1471  0.5178 -0.5237
19122SOL    HW259135   6.782   6.469   9.383  0.2641 -0.8414 -0.2552
19123SOL     OW59136   8.904   6.438   9.462 -0.2655  0.3253  0.1011
19123SOL    HW159137   8.808   6.437   9.468 -0.2925  1.1616  0.0215
19123SOL    HW259138   8.925   6.530   9.448  0.6198  0.3064  1.1678
19124SOL     OW59139   1.936   7.274   0.741  0.7521 -0.2430  0.6782
19124SOL    HW159140   1.934   7.339   0.812 -0.0481  0.0717  0.3771
19124SOL    HW259141   1.980   7.319   0.669 -0.9344  0.4627  0.0262
19125SOL     OW59142   3.910   4.948   8.849 -0.1529 -0.6247 -0.1234
19125SOL    HW159143   3.831   4.984   8.809 -0.0429 -1.0117 -0.7007
19125SOL    HW259144   3.899   4.963   8.942 -1.1256 -1.0843 -0.1553
19126SOL     OW59145   8.334   7.063   2.325  0.1781  0.2213  0.1576
19126SOL    HW159146   8.287   6.990   2.366 -0.3681  0.7845  0.5425
19126SOL    HW259147   8.366   7.027   2.243 -2.1416  0.2040 -0.8084
19127SOL     OW59148   2.892   1.161   2.961  0.7096  0.1044 -0.0495
19127SOL    HW159149   2.914   1.097   2.893 -3.2726 -0.4906 -1.0709
19127SOL    HW259150   2.876   1.242   2.913 -0.2233  0.1960  0.3843
19128SOL     OW59151   1.853   9.323   4.286  0.6888 -0.5174 -0.5764
19128SOL    HW159152   1.830   9.373   4.208  1.6539  0.5680 -0.2091
19128SOL    HW259153   1.920   9.261   4.256  1.0691 -0.0912 -0.6196
19129SOL     OW59154   6.568   5.816   5.964 -0.0872  0.0124  0.1277
19129SOL    HW159155   6.526   5.805   5.879  1.5693 -2.1723 -0.5012
19129SOL    HW259156   6.642   5.755   5.962  1.4467  1.6587  2.2204
19130SOL     OW59157   9.721   6.318   6.062  0.0850 -0.0704 -0.9045
19130SOL    HW159158   9.808   6.349   6.037  1.1230 -0.7681  1.5176
19130SOL    HW259159   9.685   6.388   6.116 -0.1474 -0.4753 -0.5236
19131SOL     OW59160   7.361   3.307   8.078  0.3207  0.3424  0.1393
19131SOL    HW159161   7.275   3.344   8.057  0.0016  0.7220  1.9587
19131SOL    HW259162   7.420   3.382   8.077  0.3774  0.2986  0.2209
19132SOL     OW59163   7.167   5.085   8.342  0.5263 -0.0044 -0.3846
19132SOL    HW159164   7.085   5.119   8.306  0.2394  0.3408  0.5754
19132SOL    HW259165   7.211   5.045   8.267 -0.4793 -0.1168 -0.9320
19133SOL     OW59166   9.146   0.200   9.719  0.0649  0.2897  0.8719
19133SOL    HW159167   9.088   0.237   9.653  0.7097  0.2973  0.3046
19133SOL    HW259168   9.088   0.179   9.792 -0.3813  2.0254  1.0662
19134SOL     OW59169   8.876   7.161   9.233  0.3047  0.3415  0.5096
19134SOL    HW159170   8.800   7.176   9.289  0.5014  0.2205  0.8095
19134SOL    HW259171   8.949   7.150   9.294  0.1329 -2.2162  0.3614
19135SOL     OW59172   7.109   5.263   5.851  0.3244  0.2750  0.1041
19135SOL    HW159173   7.070   5.178   5.828  2.8068 -1.3222  1.3750
19135SOL    HW259174   7.190   5.266   5.800  0.2413  1.9749  0.0192
19136SOL     OW59175   9.356   7.252   5.473 -0.5322 -0.0143 -0.5971
19136SOL    HW159176   9.368   7.330   5.527  1.2605 -0.2407 -0.6319
19136SOL    HW259177   9.322   7.286   5.390  1.7439  0.9721 -1.1990
19137SOL     OW59178   9.426   2.409   3.692  0.1165 -0.5301  0.1689
19137SOL    HW159179   9.465   2.337   3.742  0.4230  0.1232  0.9012
19137SOL    HW259180   9.497   2.441   3.636  0.5411  0.3579  1.1656
19138SOL     OW59181   1.731   7.760   4.904 -0.1466  0.0266  0.2764
19138SOL    HW159182   1.795   7.769   4.975 -0.3613  1.3239  0.3232
19138SOL    HW259183   1.740   7.840   4.853 -0.1522 -0.7995 -1.0509
19139SOL     OW59184   1.772   8.413   2.228 -0.2545  0.5908  0.1002
19139SOL    HW159185   1.791   8.376   2.314  1.2109 -0.9194 -0.8091
19139SOL    HW259186   1.724   8.344   2.182  0.4889  0.6884 -0.8580
19140SOL     OW59187   8.415   2.804   6.760  0.1185 -0.4168  0.1031
19140SOL    HW159188   8.428   2.710   6.771 -0.2727 -0.6619 -1.3433
19140SOL    HW259189   8.467   2.827   6.682  0.7506  0.6987  0.8247
19141SOL     OW59190   2.563   6.721   6.524 -0.1712 -0.1662 -0.0291
19141SOL    HW159191   2.636   6.673   6.487  0.9807  0.3495  1.4391
19141SOL    HW259192   2.604   6.793   6.572 -1.6842  0.5522  0.2549
19142SOL     OW59193   6.872   6.787   4.715  0.4833  0.4775  0.0559
19142SOL    HW159194   6.879   6.784   4.620  1.0752 -0.5603  0.1109
19142SOL    HW259195   6.933   6.856   4.742  0.0300  1.0349 -0.3305
19143SOL     OW59196   5.579   7.941   0.139 -0.1589 -0.0614  0.4358
19143SOL    HW159197   5.622   7.939   0.225 -3.0074 -0.1414  1.9775
19143SOL    HW259198   5.498   7.891   0.152 -1.5089  1.3887 -1.8140
19144SOL     OW59199   0.001   8.910   1.626  0.1069  0.1409 -0.5373
19144SOL    HW159200   0.058   8.855   1.573 -0.2837 -0.1087 -0.6991
19144SOL    HW259201  -0.055   8.955   1.562  0.0573  0.3147 -0.3734
19145SOL     OW59202   5.899   5.275   2.361 -0.0572 -0.5280  0.0469
19145SOL    HW159203   5.870   5.342   2.423 -0.4602 -0.8971  0.2691
19145SOL    HW259204   5.869   5.306   2.276  0.7702  0.1348 -0.0125
19146SOL     OW59205   0.670   6.374   2.057 -0.7167 -0.4095  0.1886
19146SOL    HW159206   0.679   6.320   1.978 -0.2968  1.1158 -0.8633
19146SOL    HW259207   0.585   6.418   2.046 -0.1200  0.7175 -0.0290
19147SOL     OW59208   3.893   4.912   5.161 -0.1523  0.5447  0.3407
19147SOL    HW159209   3.938   4.852   5.220 -0.1807 -0.0895 -0.2667
19147SOL    HW259210   3.945   4.911   5.081 -0.7003  0.5721 -0.0196
19148SOL     OW59211   3.218   4.472   3.303  0.3971 -0.4653 -0.5127
19148SOL    HW159212   3.163   4.531   3.355  0.5988  0.0009 -0.8258
19148SOL    HW259213   3.171   4.461   3.221 -0.4640 -2.0655  0.1412
19149SOL     OW59214   6.863   0.667   4.546  0.4326 -0.3799 -0.1973
19149SOL    HW159215   6.807   0.594   4.519  0.0115 -0.1677  0.0952
19149SOL    HW259216   6.821   0.744   4.508 -0.2327 -0.0584  1.1321
19150SOL     OW59217   8.657   6.098   7.660  0.7090 -0.0662 -0.5137
19150SOL    HW159218   8.627   6.174   7.709 -0.1492  0.3871 -1.6756
19150SOL    HW259219   8.714   6.050   7.720  0.5557  1.0276  0.5260
19151SOL     OW59220   6.155   5.685   6.767  0.1158 -0.3968  0.7017
19151SOL    HW159221   6.127   5.704   6.677  1.2123  1.0093  0.6277
19151SOL    HW259222   6.103   5.609   6.792 -2.1675  0.7871 -0.1652
19152SOL     OW59223   8.952   5.506   4.998 -0.1112  0.1754 -0.1119
19152SOL    HW159224   8.924   5.596   4.980 -2.0219 -0.1344  1.0125
19152SOL    HW259225   8.870   5.459   5.017  0.7790 -1.9380 -1.1985
19153SOL     OW59226   8.483   7.999   1.390 -0.0480 -0.1789  0.4263
19153SOL    HW159227   8.537   8.061   1.438 -0.7678  3.0932 -2.4890
19153SOL    HW259228   8.506   8.014   1.298 -2.3853 -2.1926 -0.6056
19154SOL     OW59229   4.905   3.986   6.702 -0.4621 -0.3542  0.2889
19154SOL    HW159230   4.903   4.017   6.611 -1.4695 -0.1749  0.3622
19154SOL    HW259231   4.817   4.003   6.735 -0.4357 -1.4500  0.9637
19155SOL     OW59232   0.127   1.563   6.841 -0.1277  0.5477  0.9832
19155SOL    HW159233   0.171   1.648   6.845  0.7479  0.1474  0.1692
19155SOL    HW259234   0.181   1.510   6.784 -1.6223 -0.0165  0.0230
19156SOL     OW59235   3.313   8.154   1.466 -0.0849 -0.0698 -0.6129
19156SOL    HW159236   3.252   8.141   1.539  0.8814  0.3861  0.3123
19156SOL    HW259237   3.393   8.187   1.508  0.4700  0.2672 -1.8951
19157SOL     OW59238   2.879   6.701   6.453 -0.4406  0.2224 -0.0797
19157SOL    HW159239   2.852   6.611   6.474 -1.2500 -0.7645 -4.3978
19157SOL    HW259240   2.974   6.694   6.437 -0.3849  0.3196  0.1918
19158SOL     OW59241   8.937   7.595   0.350  0.2678  0.0836 -0.1908
19158SOL    HW159242   8.871   7.530   0.326 -2.5573  2.1991  1.1810
19158SOL    HW259243   8.930   7.663   0.283 -0.2606  1.1447  0.9009
19159SOL     OW59244   7.576   3.256   9.761 -0.0273  0.5044  0.1407
19159SOL    HW159245   7.510   3.190   9.783  2.0771 -2.0734 -0.8583
19159SOL    HW259246   7.570   3.266   9.666  1.0036  0.2338  0.0358
19160SOL     OW59247   3.352   2.565   3.652  0.5395 -0.2168  0.4437
19160SOL    HW159248   3.295   2.494   3.679  0.1288 -0.2961 -0.5855
19160SOL    HW259249   3.399   2.531   3.576 -0.1696  0.8274 -0.4964
19161SOL     OW59250   1.509   8.293   4.495 -0.5963  0.1709  0.0344
19161SOL    HW159251   1.437   8.341   4.455 -1.1140  0.7816  1.6011
19161SOL    HW259252   1.481   8.281   4.586  1.2065  0.2410  0.6210
19162SOL     OW59253   0.529   5.850   5.958  0.1473  0.2548  0.4876
19162SOL    HW159254   0.527   5.756   5.976  0.3062 -0.1457 -1.3534
19162SOL    HW259255   0.591   5.859   5.886  1.0979  1.9543  1.4642
19163SOL     OW59256   6.081   2.961   1.671 -0.0378 -0.3294  0.1439
19163SOL    HW159257   6.000   2.999   1.637  0.3158 -0.3051 -0.6857
19163SOL    HW259258   6.110   3.023   1.738  0.1633  0.5193 -0.7051
19164SOL     OW59259   4.954   2.335   1.135 -0.7083  0.0591  0.6611
19164SOL    HW159260   5.004   2.381   1.068 -2.3085 -1.0405 -1.3981
19164SOL    HW259261   5.016   2.273   1.173 -0.4677 -1.5404 -2.0684
19165SOL     OW59262   2.515   5.169   3.555 -0.4745 -0.6587  0.6584
19165SOL    HW159263   2.610   5.164   3.561 -0.4266 -0.4987  0.1136
19165SOL    HW259264   2.483   5.128   3.635  0.0398 -1.3272  0.5296
19166SOL     OW59265   2.994   7.086   6.576 -0.0012 -0.2052 -0.7347
19166SOL    HW159266   3.010   7.180   6.569  2.1036 -0.3812  0.9186
19166SOL    HW259267   3.065   7.053   6.631 -2.9449 -2.0888  2.3259
19167SOL     OW59268   2.704   8.437   0.179 -0.2235  0.3558  0.3618
19167SOL    HW159269   2.632   8.493   0.153 -0.6988  0.5065  1.8771
19167SOL    HW259270   2.732   8.394   0.099 -0.4940  2.0066 -0.6494
19168SOL     OW59271   6.574   9.252   9.259  0.3693 -0.3217 -0.6117
19168SOL    HW159272   6.578   9.199   9.339 -0.9932 -0.2939 -0.5103
19168SOL    HW259273   6.494   9.303   9.268 -0.5878 -1.3742 -2.6582
19169SOL     OW59274   4.857   0.391   4.110 -0.0796 -0.1911  0.3025
19169SOL    HW159275   4.769   0.363   4.137 -0.7073 -0.3229 -1.7007
19169SOL    HW259276   4.907   0.310   4.105 -0.4914 -0.4071 -0.6557
19170SOL     OW59277   5.842   5.383   8.853 -0.1446  0.6457  0.4874
19170SOL    HW159278   5.902   5.400   8.781  0.1579 -1.8686  0.0570
19170SOL    HW259279   5.790   5.463   8.861  1.1254  1.7000 -1.2168
19171SOL     OW59280   6.723   1.287   8.694  0.0305 -0.3353 -0.0089
19171SOL    HW159281   6.637   1.260   8.662 -1.2375  1.5069  1.6411
19171SOL    HW259282   6.769   1.204   8.710 -2.5751 -1.5400  1.9949
19172SOL     OW59283   7.167   7.149   5.521 -0.1307 -0.4079  0.7752
19172SOL    HW159284   7.154   7.102   5.439 -1.6690  0.6435  0.3688
19172SOL    HW259285   7.173   7.081   5.588  0.9584 -1.2759 -0.1622
19173SOL     OW59286   2.342   0.811   8.862  0.3502 -0.0182  0.1247
19173SOL    HW159287   2.319   0.831   8.953  1.1094  1.5181  0.0109
19173SOL    HW259288   2.266   0.764   8.828  0.5908 -1.8893  1.9213
19174SOL     OW59289   2.691   1.640   1.047 -0.1739  0.2972  0.2319
19174SOL    HW159290   2.764   1.610   1.101 -0.0554  0.2706  0.0616
19174SOL    HW259291   2.732   1.701   0.985 -0.6465  2.0740  1.5792
19175SOL     OW59292   5.739   8.385   3.843  0.7125  0.3513  0.5286
19175SOL    HW159293   5.725   8.437   3.764 -0.8792  1.2899  1.3796
19175SOL    HW259294   5.751   8.450   3.913  0.3525 -0.4326  1.3400
19176SOL     OW59295   6.655   0.788   5.899  0.2307 -0.2144  0.2983
19176SOL    HW159296   6.740   0.773   5.941  0.3932  0.0279  0.0606
19176SOL    HW259297   6.674   0.783   5.805  0.1021  0.4521  0.2323
19177SOL     OW59298   3.058   8.904   1.541 -0.2674  0.3326  0.2351
19177SOL    HW159299   3.099   8.944   1.618  0.3254 -0.9670  0.6262
19177SOL    HW259300   2.965   8.899   1.564 -0.0089 -0.6276  1.1649
19178SOL     OW59301   2.976   8.618   1.502  0.6073 -0.1745  0.3809
19178SOL    HW159302   3.031   8.693   1.525  2.4885 -1.3351 -0.1448
19178SOL    HW259303   2.957   8.577   1.586 -1.2149  1.3210  0.7840
19179SOL     OW59304   5.257   3.570   0.719 -0.4238 -0.3936  0.1067
19179SOL    HW159305   5.296   3.647   0.759  0.0205  0.2058 -1.3859
19179SOL    HW259306   5.321   3.500   0.731 -0.6675 -0.4436  1.1499
19180SOL     OW59307   8.627   3.688   0.812  0.2730 -0.0639 -0.2715
19180SOL    HW159308   8.641   3.780   0.790 -2.0004  0.0569 -1.4539
19180SOL    HW259309   8.700   3.666   0.870  0.8836  2.4553  0.0175
19181SOL     OW59310   5.025   8.368   3.584  0.3440 -0.1292  0.4210
19181SOL    HW159311   5.049   8.338   3.672  1.0901 -0.4752  0.1050
19181SOL    HW259312   4.933   8.343   3.575  0.7370 -1.6906  0.4429
19182SOL     OW59313   1.530   2.993   0.594  0.2870 -0.0910  0.0071
19182SOL    HW159314   1.573   2.966   0.513 -1.9826  0.8044 -1.5943
19182SOL    HW259315   1.563   3.081   0.610  1.7745 -0.7594  0.9015
19183SOL     OW59316   0.622   8.262   4.841  0.0960  0.3384 -0.3440
19183SOL    HW159317   0.530   8.262   4.816  0.3486  0.4881 -1.3105
19183SOL    HW259318   0.648   8.170   4.838 -0.3842  0.1255  1.3609
19184SOL     OW59319   6.653   8.763   7.201 -0.0163  0.3702 -0.3559
19184SOL    HW159320   6.633   8.720   7.284  1.0785 -0.6893 -0.6071
19184SOL    HW259321   6.678   8.852   7.225  0.1185  0.1224  0.4334
19185SOL     OW59322   4.926   0.079   9.845 -0.6448 -0.7753 -0.3735
19185SOL    HW159323   4.893   0.151   9.791 -1.7291 -1.8551 -1.2020
19185SOL    HW259324   4.899   0.101   9.934 -0.0857  0.3209 -0.4647
19186SOL     OW59325   1.888   4.189   1.400 -0.9262 -0.6826  0.3177
19186SOL    HW159326   1.867   4.267   1.452 -2.2373 -1.0679  0.3906
19186SOL    HW259327   1.975   4.162   1.431  0.2879  1.6284 -0.8015
19187SOL     OW59328   6.019   1.374   3.611  0.9650 -0.3746  0.5171
19187SOL    HW159329   6.079   1.404   3.679 -1.3187  2.2255  1.6239
19187SOL    HW259330   6.069   1.381   3.530  2.6666 -0.0468  1.5399
19188SOL     OW59331   2.545   0.860   1.267 -0.2423  0.2688  0.2831
19188SOL    HW159332   2.534   0.774   1.226  1.2628 -0.6248  1.6081
19188SOL    HW259333   2.515   0.848   1.357 -3.2801  2.1311 -0.3322
19189SOL     OW59334   0.746   2.603   0.571 -0.2625 -0.3599 -0.6637
19189SOL    HW159335   0.753   2.691   0.535  0.3311 -0.9830 -2.1062
19189SOL    HW259336   0.825   2.558   0.542  0.0534 -1.0393  1.0862
19190SOL     OW59337   6.713   2.435   5.996  0.1020 -0.3566 -0.2080
19190SOL    HW159338   6.625   2.457   6.027  0.2098 -1.4261  0.8997
19190SOL    HW259339   6.700   2.405   5.906 -0.6911 -0.7159  0.0220
19191SOL     OW59340   5.284   9.835   4.564 -0.3061 -0.0043  0.2427
19191SOL    HW159341   5.324   9.867   4.645  0.1325  1.8906 -0.6570
19191SOL    HW259342   5.358   9.810   4.509 -0.6193 -2.2011  0.6947
19192SOL     OW59343   1.141   6.235   3.248 -0.9439 -0.0111 -0.2919
19192SOL    HW159344   1.209   6.177   3.215  1.0998  1.5119  1.0342
19192SOL    HW259345   1.104   6.188   3.323  0.0969  0.0182  0.2479
19193SOL     OW59346   7.990   5.101   7.370 -0.6787  0.3224 -0.9516
19193SOL    HW159347   7.916   5.063   7.419  1.0745 -0.7346  1.0406
19193SOL    HW259348   8.012   5.180   7.419  0.7162 -0.4326 -0.2926
19194SOL     OW59349   9.318   7.508   7.781  0.2831  0.0302 -0.2527
19194SOL    HW159350   9.325   7.458   7.699  1.1935  1.1680 -0.9150
19194SOL    HW259351   9.225   7.525   7.790  0.2183  0.4379 -1.4287
19195SOL     OW59352   5.105   1.060   8.826  0.1031  0.0411  0.0492
19195SOL    HW159353   5.045   1.057   8.751  1.3944 -0.3231 -1.0047
19195SOL    HW259354   5.150   0.976   8.825  0.6463  0.3090  0.8205
19196SOL     OW59355   7.669   3.270   3.434 -0.2050 -0.0798  0.0767
19196SOL    HW159356   7.668   3.324   3.355  0.0669 -1.0775 -0.6234
19196SOL    HW259357   7.725   3.318   3.495 -0.5230  0.7675 -0.2818
19197SOL     OW59358   1.347   0.901   2.755  0.7268  0.1418 -0.2362
19197SOL    HW159359   1.406   0.958   2.705  0.5616  0.7031  0.1951
19197SOL    HW259360   1.341   0.942   2.841 -0.5683  0.2851 -0.3767
19198SOL     OW59361   9.040   8.153   5.377  0.3180  0.0787 -0.2476
19198SOL    HW159362   8.995   8.082   5.330 -0.6605  0.9776 -0.7021
19198SOL    HW259363   9.014   8.233   5.331 -0.1608  0.9306  1.4177
19199SOL     OW59364   2.472   1.730   7.538 -0.0768  0.1576 -0.0158
19199SOL    HW159365   2.476   1.822   7.511 -0.4804  0.3347  0.5259
19199SOL    HW259366   2.540   1.721   7.604  1.7398 -0.5637 -1.8753
19200SOL     OW59367   1.744   1.252   9.693 -0.3048  0.3557 -0.1963
19200SOL    HW159368   1.734   1.168   9.737 -1.3863  0.3431 -0.4303
19200SOL    HW259369   1.705   1.238   9.606  1.5098  0.4617 -1.0775
19201SOL     OW59370   4.525   8.001   5.276 -0.3123  0.0464  0.6042
19201SOL    HW159371   4.559   8.013   5.365  1.4282 -1.5298  0.2118
19201SOL    HW259372   4.598   8.025   5.219 -0.2812 -2.0328 -0.3045
19202SOL     OW59373   9.124   6.592   4.765  0.0804  0.1790 -0.1514
19202SOL    HW159374   9.044   6.571   4.717  0.2090  1.7768 -1.1352
19202SOL    HW259375   9.191   6.602   4.698  0.9757 -0.5698  0.6214
19203SOL     OW59376   1.821   2.441   2.703  0.2154 -0.0516  0.1938
19203SOL    HW159377   1.889   2.440   2.770 -0.2347 -0.0864  0.6656
19203SOL    HW259378   1.748   2.488   2.744 -0.1200 -0.1998 -0.2179
19204SOL     OW59379   2.665   8.212   1.410  0.1273  0.0202  0.0330
19204SOL    HW159380   2.657   8.307   1.414 -0.1498  0.0250 -0.5174
19204SOL    HW259381   2.631   8.189   1.323 -0.3889 -0.6323  0.3983
19205SOL     OW59382   0.750   2.383   1.362 -0.2235  0.8992 -0.2131
19205SOL    HW159383   0.664   2.367   1.325  0.2397 -2.1884 -0.1932
19205SOL    HW259384   0.802   2.417   1.289 -0.6030 -0.4522 -1.1500
19206SOL     OW59385   8.223   1.541   1.337 -0.3774  0.2706 -0.1034
19206SOL    HW159386   8.130   1.521   1.340 -0.2695 -0.6191 -1.7093
19206SOL    HW259387   8.263   1.468   1.290  0.9697  1.1522 -0.4221
19207SOL     OW59388   8.798   6.982   3.677 -0.2257  0.1333 -0.3407
19207SOL    HW159389   8.841   7.015   3.598 -0.7869  0.7369 -0.3991
19207SOL    HW259390   8.709   6.959   3.649 -0.6069  0.8705  0.2271
19208SOL     OW59391   6.017   1.177   9.723 -0.0156  0.0107  0.1228
19208SOL    HW159392   6.049   1.131   9.645 -0.6192  0.6654 -0.5251
19208SOL    HW259393   5.993   1.107   9.784  0.9518 -0.5028 -0.0693
19209SOL     OW59394   5.959   7.561   9.320  0.4008 -0.5366 -0.3591
19209SOL    HW159395   5.951   7.571   9.415  1.4086  1.2912 -0.4140
19209SOL    HW259396   6.031   7.499   9.308  1.4761  0.5686  0.1152
19210SOL     OW59397   4.287   9.541   5.050 -0.4936 -0.0386  0.3461
19210SOL    HW159398   4.376   9.510   5.066 -0.2418  0.3893 -0.1834
19210SOL    HW259399   4.299   9.622   4.999 -1.1973 -0.2532 -0.1692
19211SOL     OW59400   7.622   8.939   2.725  1.0027 -0.1287  0.0060
19211SOL    HW159401   7.614   9.024   2.769  0.4368 -1.0575  1.7973
19211SOL    HW259402   7.607   8.875   2.795  0.2568 -1.7008 -1.5344
19212SOL     OW59403   0.926   0.582   5.546  0.2108  0.0694  0.1251
19212SOL    HW159404   0.888   0.494   5.543 -0.6388  0.4271  0.0773
19212SOL    HW259405   0.904   0.614   5.634 -1.1849  0.9443 -0.4949
19213SOL     OW59406   8.132   9.197   0.978  0.1248  0.4556 -0.2570
19213SOL    HW159407   8.161   9.286   0.995  0.8946 -0.0384  1.2521
19213SOL    HW259408   8.209   9.153   0.942  0.5906 -0.2302  1.4568
19214SOL     OW59409   7.760   7.758   4.297  0.5834  0.0592 -0.4329
19214SOL    HW159410   7.683   7.815   4.300  0.3538 -0.1679 -1.5276
19214SOL    HW259411   7.724   7.669   4.294  0.8782 -0.0422 -1.1284
19215SOL     OW59412   7.978   9.205   6.578 -0.3432 -0.0925 -0.4730
19215SOL    HW159413   7.931   9.256   6.513  0.2472  0.1351 -0.7351
19215SOL    HW259414   8.053   9.260   6.602 -0.7444 -0.0085  0.6735
19216SOL     OW59415   2.834   5.389   3.041 -0.1372 -0.2337  0.1162
19216SOL    HW159416   2.875   5.392   2.954 -1.8051  0.0162 -0.6866
19216SOL    HW259417   2.805   5.478   3.057 -0.5217 -0.4408  0.6050
19217SOL     OW59418   1.394   4.488   4.353 -0.3674 -0.0153  0.0832
19217SOL    HW159419   1.383   4.543   4.275 -0.7687 -1.4395 -0.9146
19217SOL    HW259420   1.324   4.423   4.346 -0.9827  0.3752  2.1400
19218SOL     OW59421   7.231   1.379   5.858  0.0052  0.0040  0.8014
19218SOL    HW159422   7.266   1.313   5.799 -0.8256 -0.1129  0.4250
19218SOL    HW259423   7.146   1.345   5.886 -0.6262  1.0809  0.2772
19219SOL     OW59424   8.968   7.871   4.939 -0.0897 -0.0307  0.0794
19219SOL    HW159425   8.925   7.911   4.863  0.5398  1.1040  0.2872
19219SOL    HW259426   8.919   7.791   4.956 -0.2288 -0.3305 -1.5459
19220SOL     OW59427   9.780   7.167   3.549  0.0507  0.7366  0.0818
19220SOL    HW159428   9.859   7.136   3.593  0.1432 -0.1467 -0.6826
19220SOL    HW259429   9.798   7.259   3.530 -0.0172  1.1524  1.9079
19221SOL     OW59430   9.365   5.930   9.541  0.2558  0.3664 -0.0357
19221SOL    HW159431   9.286   5.926   9.487  0.9119  0.4484 -1.0371
19221SOL    HW259432   9.362   6.015   9.583  0.3367  0.8230 -0.9223
19222SOL     OW59433   0.093   8.230   2.970  0.0071  0.0994 -0.3753
19222SOL    HW159434   0.140   8.148   2.955 -0.9540 -0.2750 -1.4735
19222SOL    HW259435   0.025   8.206   3.033 -1.1833 -0.3361 -1.7619
19223SOL     OW59436   4.547   0.073   4.992  0.0614  0.1388 -0.1472
19223SOL    HW159437   4.569   0.018   5.068  1.5645  0.8925  0.0135
19223SOL    HW259438   4.492   0.018   4.937 -1.6300 -0.2290  1.7780
19224SOL     OW59439   6.977   2.432   1.806  0.8203 -0.6119  0.0053
19224SOL    HW159440   6.951   2.340   1.813  3.0044 -1.2097  1.3048
19224SOL    HW259441   6.974   2.450   1.712  2.9979 -2.9202 -0.6254
19225SOL     OW59442   4.828   4.535   3.915 -0.2805  0.7200 -0.0335
19225SOL    HW159443   4.786   4.489   3.988 -0.3605 -0.9161 -1.0577
19225SOL    HW259444   4.800   4.626   3.926 -1.8259  0.1904  0.9184
19226SOL     OW59445   0.918   7.744   8.088 -0.4443  0.6463  0.4036
19226SOL    HW159446   0.879   7.799   8.020  1.2592  0.7897 -0.5219
19226SOL    HW259447   0.866   7.761   8.167 -1.3453  1.8425 -0.4230
19227SOL     OW59448   8.479   0.840   5.315  0.0259  0.6287  0.2714
19227SOL    HW159449   8.482   0.752   5.352  0.1922  1.0441  1.2621
19227SOL    HW259450   8.404   0.882   5.357 -0.7019  0.6382 -0.9728
19228SOL     OW59451   6.134   6.084   1.714  0.1801  0.2759 -0.4975
19228SOL    HW159452   6.118   6.141   1.789  3.0011 -3.3103  3.3614
19228SOL    HW259453   6.069   6.014   1.724  0.7659 -0.3894 -1.2701
19229SOL     OW59454   0.299   5.616   3.092 -0.2389  0.2188 -0.4442
19229SOL    HW159455   0.321   5.566   3.171  2.6631  0.4916 -0.9822
19229SOL    HW259456   0.319   5.707   3.115  2.0556  0.1521 -1.8433
19230SOL     OW59457   9.667   6.637   8.119  0.2342 -0.6646 -0.0852
19230SOL    HW159458   9.625   6.722   8.114  0.3795 -0.6253 -0.6251
19230SOL    HW259459   9.724   6.644   8.196 -1.9513 -1.2782  1.7021
19231SOL     OW59460   4.452   4.426   4.418 -0.0796  0.0138  0.0195
19231SOL    HW159461   4.359   4.448   4.417 -0.4233 -1.3385  0.1193
19231SOL    HW259462   4.454   4.331   4.403  1.3174  0.1313 -0.6753
19232SOL     OW59463   3.623   2.087   8.299 -0.0902 -0.2184 -0.3250
19232SOL    HW159464   3.631   2.180   8.278 -1.9388  0.0461 -0.0429
19232SOL    HW259465   3.555   2.083   8.366 -0.2720 -1.7983 -0.5482
19233SOL     OW59466   4.011   9.435   0.731 -0.1347  0.2442  0.0445
19233SOL    HW159467   4.064   9.415   0.654  1.5156 -2.2867  1.6749
19233SOL    HW259468   3.934   9.379   0.723 -0.2840  0.4579 -0.0423
19234SOL     OW59469   1.812   4.189   1.854  0.0555  0.2058 -0.2777
19234SOL    HW159470   1.749   4.167   1.786 -1.0137 -0.4233  0.8862
19234SOL    HW259471   1.821   4.284   1.849 -0.7939  0.2738 -0.6194
19235SOL     OW59472   6.583   8.174   2.581  0.6781 -0.5826 -0.4858
19235SOL    HW159473   6.608   8.259   2.545  1.2698 -0.4943  0.1277
19235SOL    HW259474   6.556   8.193   2.671 -1.1593 -0.7434 -0.9701
19236SOL     OW59475   6.403   8.737   9.719  0.3616 -0.2937  0.3839
19236SOL    HW159476   6.473   8.798   9.698  0.5382 -0.4987  0.3713
19236SOL    HW259477   6.438   8.651   9.695 -1.2224 -0.1234 -3.2748
19237SOL     OW59478   9.155   3.270   5.274 -0.1656 -0.2813  0.3201
19237SOL    HW159479   9.141   3.185   5.316 -1.8152  0.7238  1.8861
19237SOL    HW259480   9.069   3.297   5.244  0.5187  0.3763 -1.1624
19238SOL     OW59481   0.173   0.571   0.355  0.0894 -0.1837  0.2561
19238SOL    HW159482   0.103   0.593   0.417  0.4877 -0.9830  1.0042
19238SOL    HW259483   0.178   0.476   0.357 -1.5000 -0.4542 -2.8249
19239SOL     OW59484   6.708   9.647   8.036  0.4377 -0.1557 -0.0017
19239SOL    HW159485   6.657   9.593   7.975 -1.3086  0.5865  0.7468
19239SOL    HW259486   6.741   9.719   7.981 -3.7669  2.3171  0.3016
19240SOL     OW59487   9.033   3.239   2.856  0.7099 -0.0174 -0.2354
19240SOL    HW159488   8.941   3.264   2.856 -0.1875 -2.5479 -3.4109
19240SOL    HW259489   9.080   3.321   2.839 -1.2376  0.9022 -1.5763
19241SOL     OW59490   8.926   2.551   6.611  0.0258  0.5394  0.1928
19241SOL    HW159491   8.921   2.459   6.638  0.8036  0.4435  0.0139
19241SOL    HW259492   8.938   2.600   6.693  2.3034  0.2571  0.0650
19242SOL     OW59493   7.892   7.298   8.338 -0.2738 -0.4721  0.2818
19242SOL    HW159494   7.919   7.241   8.266  0.3192 -0.3609  0.4096
19242SOL    HW259495   7.963   7.290   8.402 -1.4428 -1.6762  1.5048
19243SOL     OW59496   8.153   8.819   6.921 -0.2664  0.2558 -0.4788
19243SOL    HW159497   8.151   8.804   6.826  1.4147 -1.9361 -0.2496
19243SOL    HW259498   8.246   8.822   6.943 -0.6119 -0.1175  1.1956
19244SOL     OW59499   6.185   2.225   5.418  0.1350  0.2597  0.2154
19244SOL    HW159500   6.244   2.298   5.435 -0.6028  1.0550 -0.5656
19244SOL    HW259501   6.153   2.240   5.329  0.9043 -1.6733 -0.4426
19245SOL     OW59502   4.588   7.739   8.267 -0.6384  0.1655  0.1334
19245SOL    HW159503   4.577   7.834   8.273 -0.9441  0.1942 -0.7883
19245SOL    HW259504   4.516   7.703   8.318  0.9849  0.4114  2.7969
19246SOL     OW59505   6.176   5.722   1.871  0.1133  0.3052  0.3840
19246SOL    HW159506   6.223   5.785   1.927 -1.1884  1.4382  0.2528
19246SOL    HW259507   6.083   5.739   1.889 -0.2872 -0.6056 -0.7296
19247SOL     OW59508   9.389   6.020   7.236  0.4577  0.1983  0.2319
19247SOL    HW159509   9.449   6.006   7.162  0.7417  0.2760  0.4448
19247SOL    HW259510   9.350   5.935   7.252 -1.1388  0.5727 -1.3141
19248SOL     OW59511   2.955   0.405   7.439  0.4033  0.8437  0.2168
19248SOL    HW159512   2.990   0.388   7.351 -1.3816 -1.3650 -0.1850
19248SOL    HW259513   2.869   0.444   7.423  0.2825  0.9088  0.9906
19249SOL     OW59514   6.313   3.708   5.118 -0.9067  0.2043  0.4306
19249SOL    HW159515   6.248   3.778   5.121 -0.5919  0.5345 -0.3499
19249SOL    HW259516   6.341   3.704   5.027  0.6821  0.5203  0.8696
19250SOL     OW59517   7.877   3.055   7.389 -0.4012  0.1960  0.3033
19250SOL    HW159518   7.809   3.120   7.406 -0.1524  0.5912 -0.1721
19250SOL    HW259519   7.871   2.994   7.462  1.2108  2.2754  2.3090
19251SOL     OW59520   4.621   1.664   5.131  0.2657  0.3753  0.1287
19251SOL    HW159521   4.697   1.682   5.187  0.9637  0.1724 -0.7251
19251SOL    HW259522   4.657   1.662   5.042 -0.9679  1.6321 -0.4356
19252SOL     OW59523   6.764   5.572   0.893 -0.1043 -0.1326 -0.2047
19252SOL    HW159524   6.717   5.584   0.975  0.8817 -0.3821  0.4112
19252SOL    HW259525   6.838   5.632   0.899  0.0139 -0.1986 -0.8895
19253SOL     OW59526   8.249   8.970   9.446  0.0187  0.7109  0.6241
19253SOL    HW159527   8.167   9.009   9.414 -0.4011 -0.7465 -0.1922
19253SOL    HW259528   8.237   8.964   9.541 -1.5524 -0.9403  0.3810
19254SOL     OW59529   9.606   5.205   2.366  0.4662 -0.3150  0.1490
19254SOL    HW159530   9.552   5.154   2.306 -0.8713 -0.4299  1.4085
19254SOL    HW259531   9.688   5.219   2.318 -0.3509 -0.8579 -1.4770
19255SOL     OW59532   8.894   8.595   9.383 -0.3198 -0.5321 -0.2913
19255SOL    HW159533   8.966   8.642   9.341  0.1108 -0.7345  0.2147
19255SOL    HW259534   8.825   8.661   9.394  0.4465  0.1097  0.8288
19256SOL     OW59535   0.188   0.123   7.365  0.2472 -0.0485  0.0407
19256SOL    HW159536   0.134   0.062   7.415 -0.2020  1.3448  1.3086
19256SOL    HW259537   0.271   0.128   7.412  0.7590 -0.5909 -0.7571
19257SOL     OW59538   7.504   0.938   1.605  0.5509 -1.0437 -0.4001
19257SOL    HW159539   7.439   0.920   1.537  2.1868  1.1794 -2.7306
19257SOL    HW259540   7.580   0.971   1.557  2.1194 -0.1859  2.4696
19258SOL     OW59541   4.136   3.531   5.262 -0.1073  0.4020  0.4684
19258SOL    HW159542   4.184   3.579   5.195  0.0930 -1.3242 -0.7123
19258SOL    HW259543   4.137   3.588   5.339 -0.6996  2.6426 -1.0806
19259SOL     OW59544   8.505   2.589   0.702  0.3588  0.0965 -0.6925
19259SOL    HW159545   8.461   2.631   0.628  2.1182  0.9628 -1.3124
19259SOL    HW259546   8.532   2.662   0.758  2.7729 -0.1610 -1.3949
19260SOL     OW59547   3.237   5.749   3.259 -0.0646  0.8077  0.1653
19260SOL    HW159548   3.307   5.813   3.271 -1.2113  2.3812 -1.1194
19260SOL    HW259549   3.177   5.765   3.331 -0.2538  1.0307 -0.0435
19261SOL     OW59550   4.113   8.374   6.793 -0.0567 -0.4879  0.1840
19261SOL    HW159551   4.029   8.388   6.749 -0.4249 -0.2906  0.9321
19261SOL    HW259552   4.129   8.280   6.785 -0.7234 -0.6496  0.7016
19262SOL     OW59553   5.853   4.768   0.669  0.3788  0.6061 -0.0046
19262SOL    HW159554   5.888   4.759   0.580  0.7611 -1.2071  0.2715
19262SOL    HW259555   5.890   4.850   0.701 -0.9004  2.0331 -1.9664
19263SOL     OW59556   6.728   1.546   9.528 -0.4384 -0.4726 -0.1812
19263SOL    HW159557   6.733   1.604   9.452 -0.2736 -0.2558 -0.0027
19263SOL    HW259558   6.641   1.561   9.565  0.2735  1.0373  0.9702
19264SOL     OW59559   3.873   7.467   9.360  0.8069  0.1510  0.1813
19264SOL    HW159560   3.928   7.441   9.435  0.0815  0.2925  0.7768
19264SOL    HW259561   3.838   7.384   9.327 -0.7195  0.2412  1.4656
19265SOL     OW59562   7.108   8.752   1.402  0.2919  0.6709 -0.5023
19265SOL    HW159563   7.199   8.729   1.386  0.4784  1.1028 -0.0909
19265SOL    HW259564   7.112   8.831   1.456 -0.3234  1.0884 -1.0490
19266SOL     OW59565   8.480   5.741   8.916  0.2397  0.1289 -0.1912
19266SOL    HW159566   8.483   5.682   8.840 -0.2430 -1.4001  0.9393
19266SOL    HW259567   8.566   5.784   8.917  0.6224 -0.5942 -1.0019
19267SOL     OW59568   1.386   1.175   4.929 -0.1714  0.3932 -0.4724
19267SOL    HW159569   1.348   1.262   4.937 -2.6050 -0.7536  2.4010
19267SOL    HW259570   1.313   1.115   4.947  1.5781 -2.2347 -1.4680
19268SOL     OW59571   3.603   3.888   7.865 -0.0112  0.1166 -0.6139
19268SOL    HW159572   3.674   3.924   7.812  0.3332 -0.7341 -0.7444
19268SOL    HW259573   3.640   3.810   7.905 -0.6115  0.1442  0.0085
19269SOL     OW59574   9.175   7.942   2.568  0.3673 -0.0869 -0.2962
19269SOL    HW159575   9.168   8.024   2.518  1.3527  0.2300  0.0557
19269SOL    HW259576   9.173   7.970   2.659  2.3156 -0.2499 -0.1523
19270SOL     OW59577   0.203   6.468   1.010  0.3870 -0.2860 -0.0844
19270SOL    HW159578   0.246   6.551   1.030  1.2406 -0.5962 -0.5813
19270SOL    HW259579   0.211   6.458   0.915  0.2724 -0.9256 -0.0328
19271SOL     OW59580   1.846   3.905   0.332  0.1348 -0.1289 -0.3111
19271SOL    HW159581   1.851   3.840   0.262 -1.1738 -1.0314  0.3870
19271SOL    HW259582   1.921   3.885   0.388  0.2762 -0.4263 -0.6042
19272SOL     OW59583   6.671   1.346   0.724 -0.5971  0.2975 -0.5660
19272SOL    HW159584   6.745   1.304   0.768 -1.5057  0.2283  0.9962
19272SOL    HW259585   6.697   1.354   0.633  1.0633 -0.3133 -0.1652
19273SOL     OW59586   3.998   2.980   4.172  0.2354 -0.1607  0.2230
19273SOL    HW159587   4.091   2.991   4.156  0.1522 -1.8118 -1.8199
19273SOL    HW259588   3.983   2.886   4.161 -1.7378  0.1361  0.0342
19274SOL     OW59589   9.157   7.412   4.357  0.2854  0.2898 -0.3761
19274SOL    HW159590   9.221   7.415   4.428 -0.2190 -1.0459  0.1713
19274SOL    HW259591   9.092   7.348   4.386 -2.2315  2.7691 -0.1679
19275SOL     OW59592   6.747   8.897   8.580  0.1339  0.3086  0.0559
19275SOL    HW159593   6.699   8.824   8.542  1.5139 -0.1857 -0.8135
19275SOL    HW259594   6.681   8.964   8.596 -1.0094 -0.7730  0.0029
19276SOL     OW59595   3.566   0.843   3.032 -0.3909  0.1293 -0.8786
19276SOL    HW159596   3.625   0.833   3.108 -0.5721  0.6654 -0.6581
19276SOL    HW259597   3.617   0.895   2.970 -0.9024  1.2799 -0.3645
19277SOL     OW59598   1.855   0.299   1.477 -0.3166 -0.2154 -0.5279
19277SOL    HW159599   1.851   0.330   1.386  0.7220 -2.4255 -1.3959
19277SOL    HW259600   1.943   0.264   1.487 -0.3963  0.0102  1.3764
19278SOL     OW59601   9.097   1.575   5.959 -0.1747 -0.8797 -0.7679
19278SOL    HW159602   9.147   1.570   6.040 -0.6530  2.0897 -0.1650
19278SOL    HW259603   9.006   1.584   5.987 -0.6960 -2.5250 -1.7592
19279SOL     OW59604   9.760   0.506   1.555  0.0592 -0.1930  0.4555
19279SOL    HW159605   9.730   0.520   1.645  0.1846  0.9406  0.3384
19279SOL    HW259606   9.829   0.571   1.543  0.4891 -0.7681 -0.2561
19280SOL     OW59607   6.036   0.593   5.425 -0.2037 -0.6538  0.5174
19280SOL    HW159608   6.060   0.684   5.440  0.1157 -0.5100 -0.7290
19280SOL    HW259609   5.954   0.581   5.472 -0.3216  0.3107  0.5746
19281SOL     OW59610   0.824   1.250   9.039  0.0430  0.1801 -0.0855
19281SOL    HW159611   0.735   1.280   9.056 -0.5180 -1.4292 -0.0528
19281SOL    HW259612   0.880   1.323   9.067 -1.1741  0.4975  1.6577
19282SOL     OW59613   1.774   4.466   8.086 -0.0260  0.1571  0.3038
19282SOL    HW159614   1.747   4.385   8.043  0.5118  0.6478 -0.9724
19282SOL    HW259615   1.868   4.471   8.071  0.1168  0.5084  1.2718
19283SOL     OW59616   8.067   6.894   8.040  0.4357  0.0288  0.4426
19283SOL    HW159617   8.045   6.820   7.983 -0.1907 -0.9375  1.8965
19283SOL    HW259618   8.086   6.854   8.125  3.0219  1.2817  0.5354
19284SOL     OW59619   0.612   2.357   7.332 -0.0207 -0.3933 -0.0166
19284SOL    HW159620   0.648   2.442   7.358  0.7797 -0.7466  0.0768
19284SOL    HW259621   0.648   2.295   7.396 -0.5093 -0.8172 -0.1443
19285SOL     OW59622   1.102   7.592   7.538  0.1287  0.4013 -0.2358
19285SOL    HW159623   1.168   7.549   7.593 -0.1486 -1.7632 -1.4704
19285SOL    HW259624   1.052   7.647   7.599  0.0323 -1.6180  1.6265
19286SOL     OW59625   6.517   2.728   4.315  0.5181  0.6973 -0.6806
19286SOL    HW159626   6.434   2.773   4.296 -0.1862 -0.0001  0.6360
19286SOL    HW259627   6.580   2.799   4.329  0.6563  1.2679 -3.4457
19287SOL     OW59628   1.891   2.848   7.455 -0.1291 -0.0833 -0.1807
19287SOL    HW159629   1.898   2.797   7.374  1.7168 -1.7483  0.9298
19287SOL    HW259630   1.872   2.784   7.522  1.0220  0.8417  1.0897
19288SOL     OW59631   9.756   5.277   1.092 -0.6602  0.2684 -0.5720
19288SOL    HW159632   9.673   5.323   1.102 -1.1171 -0.4207 -1.1188
19288SOL    HW259633   9.807   5.333   1.032 -0.9491  0.4023 -0.6969
19289SOL     OW59634   4.572   2.415   1.784  0.5119  0.0464 -0.3173
19289SOL    HW159635   4.588   2.495   1.835 -2.3877 -0.3112  1.3515
19289SOL    HW259636   4.493   2.378   1.822  1.9936 -3.9522 -0.6775
19290SOL     OW59637   6.427   5.902   8.933 -0.0434 -0.3206 -0.2345
19290SOL    HW159638   6.476   5.882   8.853  2.1639  0.7716  0.7671
19290SOL    HW259639   6.373   5.824   8.947  2.3401 -2.1953 -0.7466
19291SOL     OW59640   6.374   9.363   3.802 -0.2383 -0.2377  0.3825
19291SOL    HW159641   6.398   9.399   3.717 -0.3343 -0.9982  0.0189
19291SOL    HW259642   6.457   9.338   3.842 -0.2368 -0.4890  0.2258
19292SOL     OW59643   6.052   5.474   8.100  0.0185 -0.4357  0.3395
19292SOL    HW159644   6.034   5.475   8.194 -0.2973  0.8318  0.2806
19292SOL    HW259645   6.069   5.382   8.080 -0.2068 -0.7633  1.5795
19293SOL     OW59646   3.512   0.225   3.490 -0.0672 -0.5230 -0.4495
19293SOL    HW159647   3.462   0.161   3.542  0.8197  0.0621  1.2044
19293SOL    HW259648   3.567   0.171   3.433 -0.6682 -1.2033 -0.4036
19294SOL     OW59649   2.401   0.491   9.670  0.1757  0.0206  0.0312
19294SOL    HW159650   2.495   0.488   9.685  0.2858 -1.9511 -0.8362
19294SOL    HW259651   2.366   0.417   9.720 -0.9798  0.9427  0.6436
19295SOL     OW59652   3.693   3.283   7.913 -0.0670  0.0788  0.9971
19295SOL    HW159653   3.702   3.282   8.009 -0.1271 -1.4356  1.0159
19295SOL    HW259654   3.653   3.368   7.894  2.1444  1.4641  2.0804
19296SOL     OW59655   8.487   3.178   3.533  0.4923  0.0770  0.3852
19296SOL    HW159656   8.541   3.232   3.590 -0.7089 -0.4344  2.0756
19296SOL    HW259657   8.459   3.104   3.588 -1.6386  0.1373 -0.5000
19297SOL     OW59658   6.425   8.167   3.621  0.0406 -0.3572 -0.2953
19297SOL    HW159659   6.330   8.163   3.628 -0.0293  1.6789  0.3911
19297SOL    HW259660   6.442   8.192   3.530 -0.1294  0.1497 -0.1911
19298SOL     OW59661   1.978   6.292   4.999  0.7923 -0.6791 -0.1019
19298SOL    HW159662   1.987   6.197   4.992  3.2989 -0.4677 -0.8404
19298SOL    HW259663   2.047   6.326   4.942 -1.5105  1.6424 -1.6913
19299SOL     OW59664   6.535   2.356   4.907 -0.0874  0.1593  0.6173
19299SOL    HW159665   6.462   2.402   4.866 -0.7845  0.0129  1.6519
19299SOL    HW259666   6.494   2.298   4.972  0.7358 -2.0743 -0.7467
19300SOL     OW59667   3.970   4.428   4.813 -0.2222  0.1635  0.2642
19300SOL    HW159668   3.972   4.387   4.900  1.7833 -0.0460  0.1759
19300SOL    HW259669   3.941   4.358   4.755 -0.3092 -0.0891  0.6058
19301SOL     OW59670   4.544   3.441   8.598  0.4849 -0.3514 -0.1908
19301SOL    HW159671   4.501   3.513   8.645 -0.0162 -0.2679 -0.7707
19301SOL    HW259672   4.585   3.389   8.668 -1.0337 -0.7555  0.4586
19302SOL     OW59673   6.426   9.407   1.113 -0.6018 -0.6771  0.1228
19302SOL    HW159674   6.513   9.368   1.102  0.0467  0.7534 -0.0593
19302SOL    HW259675   6.375   9.372   1.041  0.6167  0.5422 -1.3900
19303SOL     OW59676   9.619   7.897   1.758 -0.3863 -0.4542 -0.0339
19303SOL    HW159677   9.625   7.871   1.850 -1.6727  1.9746  0.8037
19303SOL    HW259678   9.664   7.981   1.753  0.5149 -0.9866 -1.8710
19304SOL     OW59679   5.208   6.365   8.686  0.1602  1.3726 -0.0848
19304SOL    HW159680   5.190   6.298   8.752  2.2719 -0.1561 -0.9738
19304SOL    HW259681   5.129   6.420   8.687 -1.5695 -0.9254  0.8680
19305SOL     OW59682   2.933   7.453   1.178 -0.5028  0.4877  0.0944
19305SOL    HW159683   2.841   7.456   1.151 -0.6948 -1.0021  0.5429
19305SOL    HW259684   2.932   7.420   1.267  0.4528  0.9492  0.2970
19306SOL     OW59685   1.255   3.938   6.852 -0.0118  0.0310  0.5354
19306SOL    HW159686   1.227   3.856   6.893 -3.9913  1.3053  0.8049
19306SOL    HW259687   1.209   4.006   6.901  2.7365  2.4524 -0.0083
19307SOL     OW59688   6.283   1.051   8.209 -0.0411 -1.0466  0.2701
19307SOL    HW159689   6.358   1.076   8.264 -0.2622  2.0732 -0.6879
19307SOL    HW259690   6.210   1.044   8.271  0.3476 -0.7634  0.7745
19308SOL     OW59691   0.647   4.999   7.470 -0.3481  0.1378 -0.3712
19308SOL    HW159692   0.635   4.941   7.545 -2.1094 -0.4710 -1.0759
19308SOL    HW259693   0.565   5.048   7.464  0.9001  2.4133 -0.1035
19309SOL     OW59694   2.545   8.445   5.331 -0.6944 -0.4654  0.4308
19309SOL    HW159695   2.542   8.372   5.269  0.7683 -1.6918  1.7519
19309SOL    HW259696   2.473   8.428   5.392 -0.5446 -0.6223  0.5617
19310SOL     OW59697   0.794   9.574   8.269  0.1133  0.0914  0.5279
19310SOL    HW159698   0.818   9.587   8.177  1.8530 -0.9255  0.7817
19310SOL    HW259699   0.712   9.621   8.280  1.3502  2.7716 -0.8002
19311SOL     OW59700   6.421   7.560   8.067  0.0295 -0.2946  0.4565
19311SOL    HW159701   6.441   7.549   7.974 -1.8918  0.6095 -0.1261
19311SOL    HW259702   6.370   7.482   8.090  0.1415 -0.3152  0.6371
19312SOL     OW59703   1.341   0.822   5.267  0.0654  0.1681  0.0250
19312SOL    HW159704   1.284   0.781   5.331  0.0057  0.1686 -0.0285
19312SOL    HW259705   1.392   0.886   5.317  0.6722 -0.4768  0.2464
19313SOL     OW59706   0.895   7.277   8.236  0.0640  0.4404  0.6556
19313SOL    HW159707   0.943   7.328   8.171 -1.1214 -0.2052 -0.7799
19313SOL    HW259708   0.899   7.187   8.203 -0.7733  0.1351  1.3485
19314SOL     OW59709   1.461   9.589   6.455 -1.0150  0.3634  0.1561
19314SOL    HW159710   1.430   9.499   6.466 -1.1072  0.4926  1.1145
19314SOL    HW259711   1.380   9.641   6.450 -0.9891  0.5910  1.6306
19315SOL     OW59712   4.651   3.198   5.950 -0.0663 -0.5167  0.5220
19315SOL    HW159713   4.613   3.277   5.912 -1.3246 -1.2222  0.2631
19315SOL    HW259714   4.704   3.160   5.880 -1.9921 -1.5600 -0.4302
19316SOL     OW59715   2.554   7.949   2.827 -0.1903  0.1370  0.6151
19316SOL    HW159716   2.634   7.955   2.775 -1.4346  2.5659 -1.2792
19316SOL    HW259717   2.509   7.872   2.793 -0.3897  0.9681 -1.1051
19317SOL     OW59718   5.548   7.013   2.260  0.2962 -0.1712 -0.1163
19317SOL    HW159719   5.547   6.920   2.237 -0.3657  0.1447 -1.4467
19317SOL    HW259720   5.464   7.027   2.305  0.4225 -0.2210  0.1379
19318SOL     OW59721   8.432   8.561   8.025  0.3247 -0.1289  0.3819
19318SOL    HW159722   8.519   8.521   8.025 -0.1276 -1.3403 -1.9980
19318SOL    HW259723   8.420   8.591   7.935 -1.7216 -0.0543  0.6378
19319SOL     OW59724   1.978   1.898   7.268  0.0914  0.6388 -0.3744
19319SOL    HW159725   1.996   1.982   7.226  1.8985 -0.1857 -1.3596
19319SOL    HW259726   1.927   1.921   7.346  1.8084  2.8139  0.2149
19320SOL     OW59727   4.610   4.705   3.706  0.0866 -0.5214  0.0279
19320SOL    HW159728   4.590   4.620   3.745  1.5510 -0.4283  1.0936
19320SOL    HW259729   4.623   4.687   3.613 -1.0515 -1.1837 -0.0194
19321SOL     OW59730   3.325   1.559   3.643 -0.6764 -0.0254  0.5848
19321SOL    HW159731   3.335   1.653   3.629  1.1297  0.1943  2.9147
19321SOL    HW259732   3.239   1.550   3.684 -0.7749  0.6075  0.5286
19322SOL     OW59733   4.675   8.903   7.657 -0.6057  0.0962  0.0306
19322SOL    HW159734   4.646   8.946   7.577 -1.1516 -0.4748 -0.0890
19322SOL    HW259735   4.730   8.968   7.701 -1.6353  1.0084 -0.0040
19323SOL     OW59736   4.925   1.615   1.856 -0.5863  0.6042 -0.4993
19323SOL    HW159737   4.887   1.589   1.940 -0.0908 -0.2579 -0.5338
19323SOL    HW259738   4.936   1.710   1.863  1.7293  0.2825  1.3945
19324SOL     OW59739   2.126   0.063   8.778  0.0403  0.1274 -0.1777
19324SOL    HW159740   2.049   0.115   8.800 -0.4743 -0.9187  0.5732
19324SOL    HW259741   2.106   0.027   8.691 -1.2344 -1.7301  0.8199
19325SOL     OW59742   9.492   8.607   3.098  0.6185 -0.2641 -0.5924
19325SOL    HW159743   9.519   8.670   3.032  0.2457 -0.0869 -0.5810
19325SOL    HW259744   9.572   8.585   3.145  0.6941  0.5032 -0.3384
19326SOL     OW59745   3.367   3.813   2.641  0.3241  0.0815  0.5689
19326SOL    HW159746   3.398   3.784   2.555  0.6707  2.0667 -0.0275
19326SOL    HW259747   3.284   3.767   2.654 -1.1553  1.7904 -2.1042
19327SOL     OW59748   1.857   4.266   5.458 -0.0421  0.0036  0.5669
19327SOL    HW159749   1.901   4.182   5.446 -1.7360 -0.9244  0.5087
19327SOL    HW259750   1.838   4.269   5.552 -0.2792  0.1587  0.5144
19328SOL     OW59751   7.075   4.932   7.496  0.0908  0.3517  0.1322
19328SOL    HW159752   7.079   4.841   7.469  0.0865  0.8759 -1.7630
19328SOL    HW259753   6.995   4.939   7.549  1.6111 -1.3214  2.8916
19329SOL     OW59754   3.831   7.930   8.559 -0.2295 -0.1143  0.3566
19329SOL    HW159755   3.886   7.900   8.632  0.0946 -0.2162  0.0739
19329SOL    HW259756   3.864   7.882   8.483 -0.1269  0.4817  0.0195
19330SOL     OW59757   6.412   3.413   7.154  0.5130  0.2364  0.3475
19330SOL    HW159758   6.442   3.501   7.131 -0.3147  0.2830 -0.6550
19330SOL    HW259759   6.492   3.361   7.159  0.9455  0.8477  0.0435
19331SOL     OW59760   4.550   4.601   0.522 -0.2090 -0.3741  0.6217
19331SOL    HW159761   4.571   4.599   0.615  1.2557  2.4396  0.4437
19331SOL    HW259762   4.493   4.677   0.512  0.6299  0.0866 -0.9235
19332SOL     OW59763   8.751   4.073   7.912 -0.0253 -0.1269 -0.3020
19332SOL    HW159764   8.790   4.048   7.828  0.1738 -1.1490  0.0888
19332SOL    HW259765   8.663   4.105   7.889  0.6315  1.2045 -1.0724
19333SOL     OW59766   1.293   8.537   6.046 -0.2777  0.3537 -0.2539
19333SOL    HW159767   1.383   8.507   6.036 -0.0079  0.8415  0.6353
19333SOL    HW259768   1.291   8.580   6.131 -1.3726  0.2726 -0.2205
19334SOL     OW59769   2.351   5.940   5.510  0.0690  0.2147 -0.1865
19334SOL    HW159770   2.412   5.893   5.568 -0.6899  0.4223  0.8183
19334SOL    HW259771   2.384   5.923   5.422 -0.2251 -2.3033  0.1080
19335SOL     OW59772   0.531   0.847   6.234  0.5954 -0.1590 -0.8146
19335SOL    HW159773   0.570   0.791   6.168  0.9872 -0.8892  0.0074
19335SOL    HW259774   0.445   0.870   6.199  0.3473 -1.4255 -1.1139
19336SOL     OW59775   0.262   0.628   3.772 -0.3481 -0.2085 -0.2472
19336SOL    HW159776   0.314   0.552   3.797 -0.6159 -0.5852 -0.8389
19336SOL    HW259777   0.181   0.619   3.821 -0.2715 -0.1555 -0.1085
19337SOL     OW59778   0.773   0.153   5.934 -0.5751  0.4219  0.2660
19337SOL    HW159779   0.859   0.112   5.948 -0.7793  0.2096  0.9803
19337SOL    HW259780   0.768   0.220   6.003 -0.3883  1.4277 -0.6755
19338SOL     OW59781   0.399   8.921   5.377 -0.6083 -0.2734  0.1599
19338SOL    HW159782   0.476   8.902   5.324 -0.4640  1.7739 -0.4493
19338SOL    HW259783   0.325   8.892   5.323 -0.3682  0.0293 -0.3368
19339SOL     OW59784   6.661   9.806   5.265  0.3990  0.2136  0.4711
19339SOL    HW159785   6.726   9.807   5.335  4.9050  1.0408 -3.2330
19339SOL    HW259786   6.653   9.897   5.238 -0.5594 -0.1801 -0.6570
19340SOL     OW59787   4.194   0.554   3.677  0.2390 -0.8276  0.0503
19340SOL    HW159788   4.199   0.630   3.735  0.2368 -0.2305 -0.7177
19340SOL    HW259789   4.273   0.503   3.697  1.9392  1.0001 -1.6251
19341SOL     OW59790   7.202   6.977   3.070 -0.1828 -0.6918 -0.0490
19341SOL    HW159791   7.215   6.906   3.008 -2.4795  0.8719 -2.5189
19341SOL    HW259792   7.158   7.045   3.020  0.5177  1.9046  2.5799
19342SOL     OW59793   0.082   2.143   1.543 -0.2524 -0.3968 -0.2514
19342SOL    HW159794  -0.004   2.161   1.503 -0.3791 -1.5339 -0.5354
19342SOL    HW259795   0.117   2.230   1.563 -1.7369  0.0867  0.4569
19343SOL     OW59796   9.356   1.097   6.412  0.2370  0.1817  0.3234
19343SOL    HW159797   9.369   1.046   6.332  0.0547  0.6319  0.0011
19343SOL    HW259798   9.426   1.068   6.471  0.3343 -0.1977  0.0243
19344SOL     OW59799   2.566   0.801   5.188 -0.1304  0.0982  0.0410
19344SOL    HW159800   2.490   0.809   5.130  0.3803  0.8857 -0.5347
19344SOL    HW259801   2.624   0.873   5.162  1.1516 -0.9325 -0.0262
19345SOL     OW59802   5.952   0.166   4.441 -0.0330  0.4433  0.3653
19345SOL    HW159803   5.962   0.250   4.486  1.4660  0.3121  0.3210
19345SOL    HW259804   5.864   0.171   4.402  0.3597  2.3839 -0.4137
19346SOL     OW59805   9.524   3.212   1.411  0.0811  0.2452  0.2068
19346SOL    HW159806   9.619   3.218   1.422  0.0744 -0.3246  0.6248
19346SOL    HW259807   9.490   3.294   1.446  0.5052  1.0387 -1.1590
19347SOL     OW59808   4.673   7.659   4.779  0.0735  0.0249  0.2184
19347SOL    HW159809   4.745   7.606   4.745 -1.8670 -1.8171 -1.2912
19347SOL    HW259810   4.648   7.716   4.707  0.2761  0.9798  0.8802
19348SOL     OW59811   8.329   1.978   8.331  0.0074 -0.0645 -0.3592
19348SOL    HW159812   8.404   2.026   8.367 -1.2927  1.7496  0.0685
19348SOL    HW259813   8.292   1.931   8.406  1.2575 -1.8381 -0.7705
19349SOL     OW59814   2.839   1.241   8.265  0.3385  0.0587 -0.0224
19349SOL    HW159815   2.913   1.273   8.214  1.7626  0.0156  1.8845
19349SOL    HW259816   2.835   1.147   8.247  0.8967  0.0271 -0.0049
19350SOL     OW59817   3.621   7.961   6.769 -0.7119 -0.2605  0.3828
19350SOL    HW159818   3.708   7.977   6.732 -0.7948 -1.6411 -0.4873
19350SOL    HW259819   3.623   7.870   6.797 -2.4670 -0.9434 -1.4500
19351SOL     OW59820   5.701   0.140   8.228 -0.0997  0.2756  0.1021
19351SOL    HW159821   5.655   0.057   8.225  0.4584 -0.0430  0.1529
19351SOL    HW259822   5.755   0.140   8.148  0.2272  0.3909  0.3187
19352SOL     OW59823   6.744   4.131   4.957  0.1149  0.1957 -0.1309
19352SOL    HW159824   6.694   4.051   4.942 -0.5863  0.5773  0.1375
19352SOL    HW259825   6.725   4.186   4.882  0.5042  0.1606 -0.2566
19353SOL     OW59826   5.893   2.701   1.581  0.1527 -0.1628 -0.4834
19353SOL    HW159827   5.973   2.746   1.555 -0.4817  1.2678 -0.0503
19353SOL    HW259828   5.823   2.766   1.569 -0.3957  0.1047  3.0873
19354SOL     OW59829   5.264   1.731   2.152 -0.1083 -0.1896 -0.4454
19354SOL    HW159830   5.276   1.651   2.101 -1.6169  0.5370 -2.0010
19354SOL    HW259831   5.178   1.721   2.192  0.6434 -0.3100  1.2610
19355SOL     OW59832   4.267   2.769   1.025  0.1006 -0.3073 -0.2295
19355SOL    HW159833   4.342   2.711   1.032 -0.7852 -1.4146  0.5086
19355SOL    HW259834   4.204   2.735   1.088 -0.3192  1.7013  0.5292
19356SOL     OW59835   8.493   6.267   6.134 -0.3436  0.3483  0.3111
19356SOL    HW159836   8.564   6.332   6.132  0.5312 -0.3861  2.9891
19356SOL    HW259837   8.430   6.304   6.196 -0.8662 -0.3661  0.2069
19357SOL     OW59838   6.776   9.736   7.288  0.3027  0.0283  0.5584
19357SOL    HW159839   6.834   9.760   7.215  0.2824  0.5623  0.7127
19357SOL    HW259840   6.729   9.659   7.256  0.6111 -0.0064  0.1736
19358SOL     OW59841   9.275   2.365   6.763 -0.2130 -0.1974 -0.4225
19358SOL    HW159842   9.275   2.276   6.797  1.8287  0.2054  0.7931
19358SOL    HW259843   9.350   2.369   6.704 -2.0383 -0.0569 -2.9320
19359SOL     OW59844   9.164   2.342   8.468  0.2601 -0.5791 -0.2216
19359SOL    HW159845   9.161   2.411   8.401 -1.2431  0.5686  0.9606
19359SOL    HW259846   9.247   2.296   8.451 -0.1839 -0.5428 -3.0281
19360SOL     OW59847   9.075   3.536   1.208  0.0462 -0.4057  0.3161
19360SOL    HW159848   9.071   3.539   1.304 -1.7939  2.2199  0.2614
19360SOL    HW259849   9.127   3.613   1.184 -2.6538  1.1975 -0.7977
19361SOL     OW59850   9.412   5.996   3.681  0.5182 -0.1697  0.1086
19361SOL    HW159851   9.485   5.942   3.712 -0.1108 -1.1945 -0.1279
19361SOL    HW259852   9.416   6.075   3.734  0.6126 -1.0568  1.4875
19362SOL     OW59853   5.734   9.448   3.243 -0.5187  0.3002 -0.2860
19362SOL    HW159854   5.809   9.495   3.206  1.1034 -1.1032  1.0641
19362SOL    HW259855   5.741   9.464   3.338 -2.4288  0.7969 -0.1894
19363SOL     OW59856   0.824   1.837   7.007 -0.7688 -0.1756  0.4101
19363SOL    HW159857   0.862   1.924   6.998 -0.6796 -0.0724  1.6382
19363SOL    HW259858   0.822   1.803   6.918  1.6436  0.0288  0.2211
19364SOL     OW59859   6.781   5.225   5.923 -0.3423 -0.2661  0.2692
19364SOL    HW159860   6.802   5.249   6.013  0.0834  1.3968 -0.2323
19364SOL    HW259861   6.866   5.219   5.879 -0.5770 -0.4536 -0.1668
19365SOL     OW59862   8.245   8.363   0.161  0.0542 -0.6466 -0.0979
19365SOL    HW159863   8.166   8.310   0.169  0.4329 -1.2409 -0.2000
19365SOL    HW259864   8.288   8.330   0.082  1.4966 -1.8415  1.1257
19366SOL     OW59865   5.056   7.286   5.630 -0.1260  0.3365 -0.7578
19366SOL    HW159866   5.116   7.356   5.606 -0.9348  1.2082 -0.3204
19366SOL    HW259867   5.056   7.228   5.554  1.1299  0.4030 -0.8267
19367SOL     OW59868   0.772   6.001   2.799  0.0918 -0.6426 -0.2359
19367SOL    HW159869   0.821   5.924   2.773  0.6056 -0.8456  1.2113
19367SOL    HW259870   0.710   6.016   2.728  1.5218 -1.0192 -1.6068
19368SOL     OW59871   1.883   8.800   9.632 -0.1804  0.5299  0.1884
19368SOL    HW159872   1.889   8.893   9.612  1.9979  0.2596 -0.7281
19368SOL    HW259873   1.900   8.795   9.726  2.5823  0.9343 -0.1911
19369SOL     OW59874   7.088   8.253   2.004  0.5051 -0.0410  0.5201
19369SOL    HW159875   7.148   8.327   2.017 -2.1768  2.9387 -2.2704
19369SOL    HW259876   7.065   8.257   1.911 -1.4421 -3.1534  0.7322
19370SOL     OW59877   1.586   0.133   0.542 -0.5899 -0.0249 -0.0247
19370SOL    HW159878   1.552   0.048   0.517 -1.0414 -0.2302  1.2594
19370SOL    HW259879   1.680   0.128   0.522 -0.3501 -1.3211  1.3310
19371SOL     OW59880   9.025   9.197   3.613  0.1453 -1.0330 -0.1582
19371SOL    HW159881   9.013   9.285   3.576  0.8467 -1.4404 -1.4015
19371SOL    HW259882   8.941   9.177   3.654  0.4845  0.8914  1.6895
19372SOL     OW59883   3.715   1.588   4.604  0.4021 -0.3405  0.3323
19372SOL    HW159884   3.754   1.675   4.619  3.2364 -1.2586 -0.8846
19372SOL    HW259885   3.669   1.597   4.521 -1.0649  0.4736  1.1985
19373SOL     OW59886   3.214   6.426   0.766  0.7218  0.4032  0.1540
19373SOL    HW159887   3.231   6.520   0.756 -0.8934  0.5583 -1.8276
19373SOL    HW259888   3.145   6.422   0.833 -0.6595  0.8459 -1.1889
19374SOL     OW59889   7.125   3.336   4.221 -0.0721  0.7177 -0.2485
19374SOL    HW159890   7.193   3.304   4.162  0.0299  1.0368 -0.3081
19374SOL    HW259891   7.090   3.258   4.263  0.6076  0.5877  0.0765
19375SOL     OW59892   4.885   1.996   8.400  0.0975  0.5555 -0.9884
19375SOL    HW159893   4.854   2.079   8.364 -1.3969 -0.9121 -3.3010
19375SOL    HW259894   4.896   1.939   8.324  1.4975 -1.2606  0.4913
19376SOL     OW59895   7.590   4.780   4.450 -0.0753 -0.2007  0.3271
19376SOL    HW159896   7.598   4.758   4.357 -0.7686  1.7320 -0.2462
19376SOL    HW259897   7.507   4.828   4.457 -0.5747 -1.2423  2.1633
19377SOL     OW59898   6.427   7.648   0.096 -0.2500  0.1607 -0.2576
19377SOL    HW159899   6.405   7.741   0.097  1.9954  0.7510 -0.4265
19377SOL    HW259900   6.494   7.641   0.028 -0.5021 -1.6274 -0.3540
19378SOL     OW59901   1.103   3.026   1.619  0.0819  0.0052  0.3682
19378SOL    HW159902   1.135   3.110   1.586 -0.4254 -0.4561 -1.3917
19378SOL    HW259903   1.060   3.047   1.702  0.7379  1.3410  0.3818
19379SOL     OW59904   1.739   2.547   5.005 -0.2232  0.1044 -0.4471
19379SOL    HW159905   1.817   2.597   4.982 -0.2277  0.7029  0.7542
19379SOL    HW259906   1.770   2.457   5.018  0.4514  0.5049  0.8719
19380SOL     OW59907   1.383   7.649   8.986  0.1362  0.3435 -0.0450
19380SOL    HW159908   1.365   7.555   8.985 -1.7875  0.6631 -1.3589
19380SOL    HW259909   1.302   7.689   8.953  1.5173  2.3665 -1.1543
19381SOL     OW59910   4.367   3.495   5.614  0.0556 -0.4127  0.0662
19381SOL    HW159911   4.322   3.575   5.586  0.7747  0.3944  1.1852
19381SOL    HW259912   4.390   3.451   5.532  1.2154  1.3930 -0.6239
19382SOL     OW59913   6.607   2.669   5.754 -0.6347 -0.6472  0.2006
19382SOL    HW159914   6.675   2.623   5.705 -0.7627 -0.5094 -0.1095
19382SOL    HW259915   6.566   2.602   5.809  0.5308 -0.5149  1.2764
19383SOL     OW59916   3.262   0.259   8.427 -0.4433  0.0124 -0.6660
19383SOL    HW159917   3.261   0.355   8.431 -1.6675  0.0088 -0.6755
19383SOL    HW259918   3.276   0.231   8.517  0.9884  0.1938 -0.8096
19384SOL     OW59919   1.072   9.592   7.657 -0.2996  0.0173 -0.2514
19384SOL    HW159920   1.138   9.632   7.599  0.7185  0.1003  0.9204
19384SOL    HW259921   1.011   9.549   7.597 -0.0102  1.1795 -1.4409
19385SOL     OW59922   2.615   8.390   9.030  0.2815  0.3324  0.1978
19385SOL    HW159923   2.545   8.439   8.986  0.3631  1.1925  0.9829
19385SOL    HW259924   2.581   8.301   9.038 -1.1820  0.9681  1.4995
19386SOL     OW59925   3.285   1.934   0.548 -0.8984  0.7023  0.6196
19386SOL    HW159926   3.335   1.944   0.467 -0.8229  1.5761  0.7683
19386SOL    HW259927   3.245   2.020   0.562 -1.7214  0.2739  0.9776
19387SOL     OW59928   6.025   7.392   2.523  0.3311  0.3306  0.0512
19387SOL    HW159929   6.041   7.343   2.443  1.6725  2.1833 -0.8836
19387SOL    HW259930   6.073   7.344   2.591  1.2232  0.0801 -0.7458
19388SOL     OW59931   7.196   9.627   0.803  0.1898 -0.4632 -0.1516
19388SOL    HW159932   7.236   9.649   0.887 -0.0955 -0.8064  0.0762
19388SOL    HW259933   7.142   9.703   0.782  0.9717  0.0119 -0.4736
19389SOL     OW59934   7.754   3.738   3.314 -0.3217 -0.0100 -0.3347
19389SOL    HW159935   7.731   3.819   3.361 -3.1284 -0.3413 -0.9460
19389SOL    HW259936   7.809   3.768   3.242 -0.7443  1.2656 -0.1638
19390SOL     OW59937   0.823   3.284   7.069 -0.0486  0.1534  0.3654
19390SOL    HW159938   0.824   3.372   7.030 -1.6251 -0.5180 -1.3729
19390SOL    HW259939   0.867   3.229   7.004 -0.1266 -0.5481  0.8941
19391SOL     OW59940   4.298   4.124   9.468 -0.9440  0.3877 -0.4221
19391SOL    HW159941   4.389   4.100   9.451  0.0475  3.0647  0.6534
19391SOL    HW259942   4.256   4.122   9.382  0.7315  1.3916 -1.3080
19392SOL     OW59943   0.595   1.823   3.236  0.6452  0.4631  0.0787
19392SOL    HW159944   0.659   1.752   3.227 -0.0476 -0.0380 -1.0563
19392SOL    HW259945   0.510   1.780   3.225  0.1710  1.3191  0.3496
19393SOL     OW59946   9.227   3.096   0.229 -0.4094  0.1063  0.5159
19393SOL    HW159947   9.139   3.087   0.192 -0.5603 -0.1202  0.9087
19393SOL    HW259948   9.211   3.105   0.323  0.0034 -0.3539  0.6333
19394SOL     OW59949   4.833   1.583   4.429 -0.6052  0.0648  0.0902
19394SOL    HW159950   4.784   1.645   4.483 -0.3128  0.4439 -0.0759
19394SOL    HW259951   4.921   1.583   4.466 -0.4804  0.1065 -0.2045
19395SOL     OW59952   2.973   5.850   2.798 -0.0647  0.2561  0.1491
19395SOL    HW159953   3.003   5.856   2.707 -1.9962 -2.0094 -0.7317
19395SOL    HW259954   3.053   5.847   2.850  1.0858  1.8274 -1.4157
19396SOL     OW59955   0.810   0.352   5.432 -0.2816  0.4210 -0.7261
19396SOL    HW159956   0.842   0.265   5.455 -0.1616  0.1722 -1.7771
19396SOL    HW259957   0.717   0.350   5.454 -0.1401  0.2400 -0.1517
19397SOL     OW59958   5.997   8.344   7.817  0.5203  0.1658  0.6972
19397SOL    HW159959   6.081   8.303   7.796  0.8249  1.1486 -0.0379
19397SOL    HW259960   5.933   8.275   7.802  0.9539  0.1172 -1.2145
19398SOL     OW59961   5.155   9.580   8.320 -0.5038  0.0206 -0.2250
19398SOL    HW159962   5.212   9.548   8.390  0.3740  0.2831 -0.8041
19398SOL    HW259963   5.069   9.543   8.341  0.0039 -0.9067  0.3232
19399SOL     OW59964   7.981   5.183   9.006  0.6873  0.3306  0.3117
19399SOL    HW159965   8.049   5.226   9.058  1.4898 -1.8121  1.1456
19399SOL    HW259966   8.000   5.208   8.916  1.2915  1.4332  0.7202
19400SOL     OW59967   6.438   5.852   4.595  0.9466  0.3841 -0.0734
19400SOL    HW159968   6.403   5.941   4.587  0.8271  0.5068  1.4571
19400SOL    HW259969   6.368   5.796   4.561 -0.5500  0.6757  2.2583
19401SOL     OW59970   1.815   1.087   0.718 -0.1276 -0.3748  0.1835
19401SOL    HW159971   1.837   1.150   0.786  0.2396  0.5920 -0.7899
19401SOL    HW259972   1.724   1.106   0.696 -0.6001 -1.4263  1.1494
19402SOL     OW59973   4.276   2.619   1.695 -0.5217  0.5006 -0.4273
19402SOL    HW159974   4.334   2.664   1.634  0.2403  0.7258  0.4308
19402SOL    HW259975   4.272   2.529   1.662  0.6152  0.3888 -0.3204
19403SOL     OW59976   7.054   5.748   2.403 -0.0461  0.1476  0.2577
19403SOL    HW159977   7.033   5.751   2.496  1.1143 -1.1123  0.5911
19403SOL    HW259978   7.130   5.806   2.394  1.4808 -1.7058  0.6161
19404SOL     OW59979   7.519   3.670   1.950  0.4433  0.2562 -0.3149
19404SOL    HW159980   7.450   3.715   1.902 -0.8875 -1.7336 -0.3837
19404SOL    HW259981   7.581   3.739   1.972 -0.6622  1.8244 -1.7966
19405SOL     OW59982   3.943   9.202   6.188 -0.3063 -0.2457  0.0121
19405SOL    HW159983   3.955   9.260   6.263  0.4858 -0.5100  0.0960
19405SOL    HW259984   3.897   9.125   6.223  0.5952 -0.6374  0.3616
19406SOL     OW59985   9.424   0.391   2.173 -0.5001  0.0832 -0.1822
19406SOL    HW159986   9.387   0.338   2.103  0.2152 -0.0359 -0.4828
19406SOL    HW259987   9.449   0.473   2.130 -0.2728  0.0976 -0.0285
19407SOL     OW59988   4.603   5.009   0.262  0.2597  0.2702 -0.6591
19407SOL    HW159989   4.630   5.032   0.351 -0.1059 -2.2681  0.1886
19407SOL    HW259990   4.508   5.021   0.263  0.0425 -1.2577 -0.1549
19408SOL     OW59991   5.599   6.843   5.235  0.3086 -0.4392 -0.7336
19408SOL    HW159992   5.523   6.786   5.246  0.8688 -0.9060  1.1799
19408SOL    HW259993   5.612   6.849   5.140 -1.0545 -1.7510 -1.0360
19409SOL     OW59994   0.933   3.991   8.207  0.3511  0.1463 -0.4818
19409SOL    HW159995   0.968   3.932   8.140  0.0998 -1.9522  1.1176
19409SOL    HW259996   0.846   4.014   8.175  0.1991 -0.8959 -0.8530
19410SOL     OW59997   6.097   1.918   6.111  0.0304  0.4541 -0.0862
19410SOL    HW159998   6.026   1.905   6.173  0.9248  1.9987  1.3579
19410SOL    HW259999   6.055   1.923   6.025 -1.3740 -0.4908  0.5309
19411SOL     OW60000   5.577   7.842   9.578 -0.6081  0.4009  0.0723
19411SOL    HW160001   5.605   7.924   9.535  1.0110 -0.2768 -0.2530
19411SOL    HW260002   5.636   7.834   9.653 -1.5215  0.0964  0.7711
19412SOL     OW60003   5.444   3.686   9.706 -0.3654  0.1830  0.2052
19412SOL    HW160004   5.480   3.619   9.763  1.6255  0.0585 -1.0986
19412SOL    HW260005   5.484   3.768   9.736 -2.0205  0.6909  1.1621
19413SOL     OW60006   5.368   2.133   4.487  0.1432 -0.5228 -0.3931
19413SOL    HW160007   5.427   2.057   4.486  0.0805 -0.5734 -1.1166
19413SOL    HW260008   5.285   2.098   4.519  0.4603 -0.4879  0.4706
19414SOL     OW60009   3.649   3.249   4.585 -0.1608  0.0822 -0.0315
19414SOL    HW160010   3.685   3.320   4.531  0.9999 -2.1411 -2.4376
19414SOL    HW260011   3.585   3.207   4.528 -1.0130 -0.6468  1.4249
19415SOL     OW60012   1.058   2.762   0.254  0.1540 -0.2305  0.1804
19415SOL    HW160013   1.096   2.719   0.178 -0.6329  1.2747 -1.1407
19415SOL    HW260014   1.056   2.695   0.322  0.6776 -1.6888 -1.1960
19416SOL     OW60015   1.147   5.474   1.316  0.3928  0.2005  0.4078
19416SOL    HW160016   1.238   5.444   1.321  0.5740  0.8035  0.8969
19416SOL    HW260017   1.104   5.433   1.391  0.3970  0.3461  0.4913
19417SOL     OW60018   4.089   8.772   6.363 -0.2113  0.2569  0.3975
19417SOL    HW160019   3.996   8.765   6.341 -0.1620  1.2782 -0.2113
19417SOL    HW260020   4.120   8.847   6.311  1.1839 -0.7046 -0.2126
19418SOL     OW60021   0.458   7.910   9.544  0.2837 -0.0489 -0.5575
19418SOL    HW160022   0.522   7.855   9.499  0.5982 -1.0474  1.0337
19418SOL    HW260023   0.503   7.936   9.625 -0.0908  2.0630 -0.9769
19419SOL     OW60024   5.720   9.394   4.490 -0.4625 -0.5129 -0.3992
19419SOL    HW160025   5.815   9.405   4.497 -0.7622  0.9253  2.7003
19419SOL    HW260026   5.700   9.326   4.554 -1.5348 -0.8867 -1.1195
19420SOL     OW60027   4.292   3.676   7.279 -0.7499  0.2039  0.3355
19420SOL    HW160028   4.247   3.591   7.281  0.1755 -0.3031  0.3451
19420SOL    HW260029   4.277   3.710   7.191 -2.2618  0.6763  0.7466
19421SOL     OW60030   8.457   7.349   1.032  0.3415 -0.1456 -0.3608
19421SOL    HW160031   8.379   7.369   1.084  0.0443 -1.3043 -0.3403
19421SOL    HW260032   8.492   7.269   1.071  2.1081  0.8782  0.2493
19422SOL     OW60033   0.258   3.731   2.480  0.3980 -0.1568 -0.0539
19422SOL    HW160034   0.317   3.802   2.456  2.8989 -2.0693  0.0837
19422SOL    HW260035   0.209   3.712   2.400  0.0132  1.3662 -0.2033
19423SOL     OW60036   4.596   2.688   5.990  0.2143 -0.2100 -0.2317
19423SOL    HW160037   4.584   2.703   5.896  0.3707  0.6382 -0.1192
19423SOL    HW260038   4.582   2.594   6.001  0.6847 -0.4011 -1.1850
19424SOL     OW60039   7.271   9.358   8.617  0.0449 -0.6124  0.0141
19424SOL    HW160040   7.217   9.379   8.693 -0.9589  0.3553 -0.9322
19424SOL    HW260041   7.242   9.271   8.590  0.5696 -1.0619  0.8495
19425SOL     OW60042   4.536   9.595   6.950 -0.3551 -0.5925 -0.2118
19425SOL    HW160043   4.463   9.631   6.900  0.0407 -1.3219 -1.3496
19425SOL    HW260044   4.510   9.506   6.971 -0.9201 -0.0036  1.7506
19426SOL     OW60045   0.728   5.659   5.332  0.3387 -0.5830  0.3917
19426SOL    HW160046   0.695   5.731   5.279 -0.0804 -0.3456  0.9673
19426SOL    HW260047   0.692   5.674   5.419  2.6837  0.1750  1.3054
19427SOL     OW60048   5.612   2.152   4.897  0.6469 -0.5206 -0.1271
19427SOL    HW160049   5.704   2.179   4.892  0.6314 -0.6577 -3.8280
19427SOL    HW260050   5.563   2.229   4.868 -0.5085 -0.3923  1.9514
19428SOL     OW60051   4.682   6.745   2.825  0.7916 -0.4137 -0.5575
19428SOL    HW160052   4.764   6.705   2.856  0.1688  0.4439  2.5116
19428SOL    HW260053   4.630   6.671   2.794  1.7012 -1.3130 -0.0128
19429SOL     OW60054   6.978   5.756   0.928 -0.0167 -0.0015  0.6259
19429SOL    HW160055   7.012   5.830   0.877  0.3979 -0.2569  0.5285
19429SOL    HW260056   7.051   5.730   0.984  0.3621 -1.3210 -0.4293
19430SOL     OW60057   3.954   6.732   7.759 -0.8543 -0.0192 -0.4350
19430SOL    HW160058   3.932   6.737   7.852 -1.0268  0.2325 -0.4872
19430SOL    HW260059   3.991   6.819   7.739  0.9692 -0.6899 -0.1478
19431SOL     OW60060   1.248   5.204   1.443 -0.0779  0.4283  0.3911
19431SOL    HW160061   1.299   5.178   1.367 -0.7483  2.0313 -0.6759
19431SOL    HW260062   1.296   5.170   1.518  1.5206  0.2737 -0.6719
19432SOL     OW60063   2.226   1.210   2.833 -0.2530 -0.3298 -0.0291
19432SOL    HW160064   2.167   1.137   2.817  0.7278 -0.9355 -1.0808
19432SOL    HW260065   2.301   1.194   2.775  0.4857  0.9351  0.5119
19433SOL     OW60066   3.699   4.622   0.797  0.2549  0.5243  0.2542
19433SOL    HW160067   3.638   4.577   0.856  1.4763 -0.0116  1.1799
19433SOL    HW260068   3.644   4.677   0.741 -1.4271 -2.6741 -1.4981
19434SOL     OW60069   1.737   1.191   7.363 -0.4794  0.8142  0.2300
19434SOL    HW160070   1.804   1.217   7.427  0.4500  1.9935 -1.1535
19434SOL    HW260071   1.777   1.120   7.313 -0.7402  0.6903  0.1955
19435SOL     OW60072   0.533   9.034   5.583  0.4376  0.2075  0.3801
19435SOL    HW160073   0.491   9.000   5.504 -0.1006  0.9805  0.3305
19435SOL    HW260074   0.533   9.129   5.573  0.4542  0.3159  1.2618
19436SOL     OW60075   4.371   2.089   1.669 -0.0489 -0.0881 -0.3519
19436SOL    HW160076   4.321   2.008   1.678 -1.0825  0.2291 -2.5270
19436SOL    HW260077   4.456   2.060   1.634 -0.7317 -0.2371 -2.0069
19437SOL     OW60078   4.648   4.121   4.862  0.2963 -0.3973 -0.4801
19437SOL    HW160079   4.603   4.174   4.796 -2.2994 -1.0640  0.6281
19437SOL    HW260080   4.649   4.033   4.825 -0.1309 -0.5480 -0.1457
19438SOL     OW60081   8.533   2.089   8.465  0.6627  0.4287 -0.5116
19438SOL    HW160082   8.590   2.021   8.502 -0.9868 -0.6342  0.2154
19438SOL    HW260083   8.520   2.151   8.536 -0.7189 -0.4472  0.0545
19439SOL     OW60084   7.853   5.398   4.951  0.1908  0.7238 -0.2813
19439SOL    HW160085   7.824   5.455   4.879  0.1690 -0.0992 -0.9398
19439SOL    HW260086   7.887   5.459   5.017 -2.2910  1.6962  0.2175
19440SOL     OW60087   4.009   2.912   7.089 -0.2419  0.3329  0.8861
19440SOL    HW160088   4.049   2.901   7.176  1.9829 -1.0688 -0.2260
19440SOL    HW260089   4.020   3.005   7.069 -1.4350  0.8419  2.3396
19441SOL     OW60090   4.084   5.024   9.161 -0.2386 -0.2116 -0.2488
19441SOL    HW160091   4.097   5.119   9.170  0.0589 -0.2561 -0.1955
19441SOL    HW260092   3.994   5.015   9.131 -0.2963  0.0855 -0.1702
19442SOL     OW60093   8.656   7.896   5.146  0.4879 -0.1084 -0.1550
19442SOL    HW160094   8.665   7.819   5.201  0.1489 -0.1233 -0.1127
19442SOL    HW260095   8.631   7.966   5.207 -2.1051 -0.5931 -0.5190
19443SOL     OW60096   8.646   7.489   4.745 -0.1898  0.3691  0.3798
19443SOL    HW160097   8.627   7.396   4.732  0.3437  0.4118 -0.9060
19443SOL    HW260098   8.673   7.496   4.836  2.4034 -1.2229 -0.1789
19444SOL     OW60099   6.718   6.094   8.871  0.0397 -0.6364 -0.3788
19444SOL    HW160100   6.658   6.087   8.797 -0.3530 -2.0717  0.0293
19444SOL    HW260101   6.662   6.101   8.948  0.4452  1.0934 -0.1955
19445SOL     OW60102   6.740   1.107   9.047 -0.6159  0.1726 -0.3454
19445SOL    HW160103   6.778   1.192   9.069 -0.1804 -0.4254  1.3619
19445SOL    HW260104   6.646   1.119   9.057 -0.5926  0.5873 -0.6187
19446SOL     OW60105   2.424   4.938   8.321 -0.2596  0.2979 -0.6138
19446SOL    HW160106   2.401   5.013   8.266 -0.3287  0.7595  0.0290
19446SOL    HW260107   2.516   4.951   8.341  0.8620 -1.8412 -3.6424
19447SOL     OW60108   0.874   5.543   5.975  0.2528 -0.2877  0.4041
19447SOL    HW160109   0.858   5.493   6.055  0.9467 -0.9412  0.1391
19447SOL    HW260110   0.957   5.588   5.991  0.5189 -0.6182 -0.0496
19448SOL     OW60111   2.124   4.906   3.749 -0.2040 -0.1569  0.3107
19448SOL    HW160112   2.075   4.919   3.830 -0.9959 -1.1974  0.0081
19448SOL    HW260113   2.057   4.886   3.683  0.4422  0.5173 -0.5731
19449SOL     OW60114   8.403   6.088   8.305  0.1609  0.5026 -0.3883
19449SOL    HW160115   8.474   6.035   8.340 -0.8518  0.6496  2.1058
19449SOL    HW260116   8.446   6.159   8.257  1.6975  0.2934  0.6185
19450SOL     OW60117   2.514   9.267   5.560 -0.0791 -0.2338  0.1168
19450SOL    HW160118   2.483   9.356   5.548 -0.7441 -0.3802  0.6907
19450SOL    HW260119   2.439   9.212   5.539  0.1582 -0.6360  0.3022
19451SOL     OW60120   3.515   4.235   8.157 -0.1157  0.1015 -0.1728
19451SOL    HW160121   3.520   4.141   8.175 -1.2393 -0.0427 -0.5360
19451SOL    HW260122   3.431   4.247   8.112  1.0654  0.9096 -2.3582
19452SOL     OW60123   1.006   8.981   6.928  0.1375 -0.1190 -0.4248
19452SOL    HW160124   0.987   9.074   6.914  0.9786  0.2851  0.9959
19452SOL    HW260125   1.057   8.956   6.851  2.1081  1.2732  0.3617
19453SOL     OW60126   1.326   3.650   2.661  0.2051 -0.3997  0.5929
19453SOL    HW160127   1.245   3.663   2.709 -1.0149 -0.7679 -1.2531
19453SOL    HW260128   1.395   3.680   2.721 -1.3067  0.3523  2.0322
19454SOL     OW60129   6.304   9.512   1.796 -0.5109  0.5029  0.0954
19454SOL    HW160130   6.352   9.460   1.731 -0.2099  1.6085 -0.5940
19454SOL    HW260131   6.355   9.502   1.876 -2.1163 -2.7680  0.8690
19455SOL     OW60132   5.819   1.618   0.772 -0.0251  0.4450  0.3126
19455SOL    HW160133   5.860   1.694   0.814  0.2663  0.2467  0.3817
19455SOL    HW260134   5.814   1.642   0.679 -0.9435  1.0098  0.4924
19456SOL     OW60135   4.567   4.851   6.414 -0.2523  0.0143  0.2041
19456SOL    HW160136   4.491   4.909   6.405 -0.2961  0.3147  2.0635
19456SOL    HW260137   4.529   4.763   6.420 -0.3004 -0.0496 -0.9430
19457SOL     OW60138   6.338   2.541   2.946  0.2765  0.2976  0.4641
19457SOL    HW160139   6.263   2.546   3.005 -0.0060 -1.9800  0.3942
19457SOL    HW260140   6.413   2.528   3.005  0.4159  0.9725  0.4461
19458SOL     OW60141   9.155   9.615   7.069 -0.1554 -0.4885 -0.1134
19458SOL    HW160142   9.134   9.667   6.992  0.9023  0.5540  0.2640
19458SOL    HW260143   9.218   9.550   7.039  2.1172  1.4124  0.2635
19459SOL     OW60144   7.188   5.324   6.775 -0.1338  0.1178 -1.2015
19459SOL    HW160145   7.241   5.403   6.778  0.6060 -0.0547 -4.9270
19459SOL    HW260146   7.246   5.257   6.738 -0.9549 -2.0732  1.1235
19460SOL     OW60147   6.984   4.270   8.274  0.2180 -0.0354 -0.6093
19460SOL    HW160148   6.957   4.181   8.298  3.9723 -1.2247 -0.0815
19460SOL    HW260149   6.949   4.325   8.344  0.1315 -1.5323  0.5801
19461SOL     OW60150   6.222   8.577   5.454  0.2245  0.5667 -0.0363
19461SOL    HW160151   6.220   8.517   5.379  2.2311  0.6300 -0.1965
19461SOL    HW260152   6.314   8.601   5.463 -0.1047  1.2960  1.8895
19462SOL     OW60153   2.183   3.948   3.831 -0.4146  0.3876 -0.1979
19462SOL    HW160154   2.109   3.931   3.773 -1.3319 -2.1723  1.5438
19462SOL    HW260155   2.215   3.861   3.854  1.5442  1.3846  1.1064
19463SOL     OW60156   4.164   9.197   5.029 -0.1492  0.4294  0.5078
19463SOL    HW160157   4.168   9.171   5.121 -1.6683  0.0009  0.4766
19463SOL    HW260158   4.236   9.149   4.988 -0.6222 -0.8594  1.1390
19464SOL     OW60159   1.913   6.210   0.018  0.3768  0.1396 -0.7303
19464SOL    HW160160   1.996   6.208  -0.030  1.4356  1.0574  0.9393
19464SOL    HW260161   1.892   6.118   0.034  2.3886 -0.1139  0.8772
19465SOL     OW60162   9.677   7.914   5.735 -0.0288 -0.4443  0.1164
19465SOL    HW160163   9.603   7.969   5.707 -0.4951 -0.8728  0.4845
19465SOL    HW260164   9.675   7.840   5.674  0.1586 -0.4055  0.0644
19466SOL     OW60165   8.798   6.297   1.469 -0.1509  0.3105 -0.1233
19466SOL    HW160166   8.750   6.307   1.552  0.6248  1.4600  0.2135
19466SOL    HW260167   8.774   6.210   1.438 -0.6126 -0.0636  1.2066
19467SOL     OW60168   7.580   7.782   6.606 -0.5240 -0.5430  0.1012
19467SOL    HW160169   7.572   7.790   6.511  0.2555  1.0219  0.1433
19467SOL    HW260170   7.657   7.726   6.619  0.1776  0.3250 -0.2040
19468SOL     OW60171   5.548   3.192   3.685 -0.1350 -0.1385  0.1709
19468SOL    HW160172   5.619   3.136   3.716 -0.2553 -0.1406  0.4445
19468SOL    HW260173   5.475   3.173   3.744  0.2139  1.2713  1.0944
19469SOL     OW60174   8.125   6.316   2.081 -0.0092  0.2911  0.0538
19469SOL    HW160175   8.132   6.410   2.099  2.5736  0.6288 -2.0684
19469SOL    HW260176   8.161   6.274   2.159  2.1505  1.2834 -0.3232
19470SOL     OW60177   0.087   9.072   0.501 -0.2294  0.5539 -0.1357
19470SOL    HW160178   0.042   9.156   0.493  0.7199  0.9652 -1.8571
19470SOL    HW260179   0.138   9.065   0.420  1.8325 -0.4315  1.1517
19471SOL     OW60180   6.500   9.665   8.356 -0.0670  0.1056  0.5836
19471SOL    HW160181   6.518   9.579   8.394  1.0603  0.1651  0.2467
19471SOL    HW260182   6.519   9.653   8.263 -0.3875  0.5936  0.4555
19472SOL     OW60183   9.838   7.618   9.054 -0.5804  0.0936 -0.5916
19472SOL    HW160184   9.845   7.690   9.116  0.4236 -1.2685  0.9277
19472SOL    HW260185   9.926   7.609   9.017 -1.0634  0.6097 -1.9592
19473SOL     OW60186   2.215   7.708   9.587  0.1099  0.1295 -0.6776
19473SOL    HW160187   2.195   7.614   9.581 -0.7893  0.4313 -3.2520
19473SOL    HW260188   2.242   7.720   9.678 -0.4110 -2.4925 -0.0909
19474SOL     OW60189   0.946   1.763   9.350  0.3086 -0.2555  0.1918
19474SOL    HW160190   0.984   1.851   9.343 -1.6267  0.6137  0.2400
19474SOL    HW260191   0.864   1.775   9.398  0.8999 -2.3891  1.9073
19475SOL     OW60192   5.721   3.611   6.363  0.0988  0.3608 -0.2651
19475SOL    HW160193   5.734   3.564   6.445  1.1289 -1.0704 -1.1875
19475SOL    HW260194   5.796   3.670   6.357  0.6061 -0.3064 -0.6530
19476SOL     OW60195   4.042   5.846   5.967  0.0930 -0.4323  0.3861
19476SOL    HW160196   4.087   5.871   5.887  1.0380  0.8054  1.2800
19476SOL    HW260197   3.949   5.848   5.944  0.2157  2.0485 -0.1412
19477SOL     OW60198   3.464   7.864   4.032  0.4418  0.4313  0.2343
19477SOL    HW160199   3.530   7.853   3.964  0.1331 -0.0238  0.0093
19477SOL    HW260200   3.428   7.777   4.046 -0.1971  0.6929  0.2698
19478SOL     OW60201   6.920   3.289   7.313 -0.2964 -0.6602  0.0405
19478SOL    HW160202   7.014   3.274   7.327 -0.2904 -0.4881  0.1856
19478SOL    HW260203   6.906   3.265   7.221  0.7008  3.0851 -1.3010
19479SOL     OW60204   9.638   3.374   9.284 -0.3033  0.7761  0.5355
19479SOL    HW160205   9.731   3.377   9.309  0.0630 -0.3562 -0.5953
19479SOL    HW260206   9.639   3.372   9.188 -1.4201 -0.7662  0.5158
19480SOL     OW60207   3.848   9.803   5.089 -0.1776 -0.1299 -0.4572
19480SOL    HW160208   3.805   9.805   5.174  0.4650  1.1726 -0.1367
19480SOL    HW260209   3.779   9.777   5.028 -0.9664  0.1338  0.2954
19481SOL     OW60210   3.818   0.483   1.132  0.7307  0.0527 -0.1384
19481SOL    HW160211   3.895   0.510   1.181  0.7750 -1.4187  0.6425
19481SOL    HW260212   3.744   0.508   1.187  0.6754  0.6762 -0.4891
19482SOL     OW60213   9.117   7.171   1.340  0.2712  0.1329  0.0578
19482SOL    HW160214   9.025   7.143   1.343  0.0090  0.8883 -0.6452
19482SOL    HW260215   9.167   7.092   1.361 -0.5919  0.1909  2.7112
19483SOL     OW60216   9.844   3.732   7.664 -0.0304 -0.5651  0.0357
19483SOL    HW160217   9.768   3.733   7.606 -1.1258 -0.3635  1.4025
19483SOL    HW260218   9.831   3.807   7.722  1.3790 -0.3534  0.1202
19484SOL     OW60219   3.341   6.849   3.464 -0.0561 -0.2025 -0.1838
19484SOL    HW160220   3.416   6.906   3.448  0.3027 -0.9141 -1.2184
19484SOL    HW260221   3.380   6.762   3.475 -0.7372 -0.6421 -1.1344
19485SOL     OW60222   9.600   9.638   2.683  0.0997 -0.1520  0.2878
19485SOL    HW160223   9.505   9.629   2.679  0.2256 -1.2493 -1.3582
19485SOL    HW260224   9.631   9.552   2.710  0.6288  0.1453  0.6294
19486SOL     OW60225   0.877   6.579   8.527  0.0568 -0.0333 -0.1098
19486SOL    HW160226   0.817   6.631   8.474  1.0495 -0.5753 -1.8520
19486SOL    HW260227   0.822   6.536   8.592 -0.9935  1.8635  0.3045
19487SOL     OW60228   6.688   4.851   9.836 -0.4991 -0.0464  0.0422
19487SOL    HW160229   6.636   4.777   9.867  1.8738 -0.7147  2.8704
19487SOL    HW260230   6.662   4.923   9.894 -0.3243  0.3946 -0.4233
19488SOL     OW60231   3.554   3.914   1.899  0.0103 -0.6110 -0.7469
19488SOL    HW160232   3.554   3.990   1.958  1.9668 -0.2109 -1.1709
19488SOL    HW260233   3.528   3.949   1.814 -1.9278 -1.0139 -0.3536
19489SOL     OW60234   1.854   8.236   3.413 -0.1197  0.2464  0.4054
19489SOL    HW160235   1.932   8.292   3.409 -0.2542  0.3691 -0.7710
19489SOL    HW260236   1.890   8.147   3.419  0.0973  0.4191  2.7884
19490SOL     OW60237   2.985   1.158   4.452 -0.4653 -0.0367  0.6104
19490SOL    HW160238   3.058   1.142   4.512  1.0418 -0.3296 -1.2029
19490SOL    HW260239   2.941   1.073   4.444  0.1816 -0.3450  0.2478
19491SOL     OW60240   6.968   7.484   6.700  0.5338  1.0140  0.3474
19491SOL    HW160241   6.941   7.558   6.647 -0.1192  0.6661  0.1817
19491SOL    HW260242   6.933   7.407   6.655  0.6477  0.6499  0.8555
19492SOL     OW60243   1.552   6.238   6.198  0.2597 -0.1750  0.0317
19492SOL    HW160244   1.627   6.254   6.142  2.0544 -0.6378  2.1412
19492SOL    HW260245   1.534   6.322   6.240  0.2567 -0.2948  0.2759
19493SOL     OW60246   5.630   3.614   8.119  0.5801  0.0797  0.4544
19493SOL    HW160247   5.700   3.618   8.054  0.4697  0.4447  0.3534
19493SOL    HW260248   5.563   3.558   8.080  0.9182 -0.4688  0.6550
19494SOL     OW60249   8.898   2.998   8.190 -0.2832 -0.0444 -0.0692
19494SOL    HW160250   8.847   2.940   8.247 -0.0183 -0.0583  0.1550
19494SOL    HW260251   8.847   3.002   8.109 -0.5323 -0.2304  0.0745
19495SOL     OW60252   3.871   3.156   7.326  0.5507 -0.2297  0.2494
19495SOL    HW160253   3.882   3.215   7.400  0.5721 -1.0325  0.9061
19495SOL    HW260254   3.806   3.199   7.271  0.5907  0.4206  0.6981
19496SOL     OW60255   7.125   8.979   7.853  0.4805 -0.3814  0.5680
19496SOL    HW160256   7.175   8.900   7.872 -0.1976 -1.5526 -2.1108
19496SOL    HW260257   7.037   8.960   7.886  0.5424 -0.3781  0.7363
19497SOL     OW60258   5.046   9.660   4.362 -0.3983 -0.2061 -0.4177
19497SOL    HW160259   5.088   9.746   4.363 -0.1308 -0.2454  3.2748
19497SOL    HW260260   4.960   9.676   4.324  1.0205  0.8041 -3.5926
19498SOL     OW60261   2.935   7.536   3.951  0.3552 -0.4006  0.1243
19498SOL    HW160262   2.840   7.532   3.947  0.3585 -0.4674  0.1054
19498SOL    HW260263   2.955   7.626   3.975  0.1788 -1.3045  4.4979
19499SOL     OW60264   7.488   5.627   3.240 -0.1592 -0.0077 -0.0786
19499SOL    HW160265   7.400   5.598   3.215  0.8195 -0.4352 -3.7532
19499SOL    HW260266   7.542   5.548   3.234  1.0401  0.8614 -1.5339
19500SOL     OW60267   5.190   1.355   6.462 -0.4093  0.0444  0.0070
19500SOL    HW160268   5.209   1.442   6.498 -0.8362  0.5438 -0.9323
19500SOL    HW260269   5.109   1.367   6.412 -1.4361 -1.2805  1.2453
19501SOL     OW60270   8.672   5.799   4.550 -0.3693  0.1788  0.1245
19501SOL    HW160271   8.615   5.727   4.521  1.5038 -0.9590 -0.9610
19501SOL    HW260272   8.707   5.768   4.634  0.4702 -0.2286 -0.3638
19502SOL     OW60273   8.638   1.148   5.283 -0.1571  0.1370 -0.1611
19502SOL    HW160274   8.584   1.205   5.336 -0.0502 -0.0058  0.1027
19502SOL    HW260275   8.703   1.207   5.244  0.0308  0.1792  0.2100
19503SOL     OW60276   3.598   3.668   3.363  0.7774  0.6505  0.1185
19503SOL    HW160277   3.601   3.572   3.361  0.1073  0.6288 -1.8702
19503SOL    HW260278   3.685   3.695   3.336  0.8455  0.6009  0.2861
19504SOL     OW60279   0.297   1.415   4.485  0.1216 -0.1129 -0.0237
19504SOL    HW160280   0.271   1.331   4.447  0.3329  0.5333 -1.6736
19504SOL    HW260281   0.261   1.413   4.574  0.5731 -2.1482  0.1690
19505SOL     OW60282   9.190   7.121   0.180  0.6600 -0.5316  0.5520
19505SOL    HW160283   9.250   7.090   0.112  0.0579  1.4115 -0.9320
19505SOL    HW260284   9.215   7.212   0.194  0.3266 -0.6987  2.4987
19506SOL     OW60285   3.722   1.279   8.092 -0.1153 -0.0748  0.2513
19506SOL    HW160286   3.675   1.197   8.105  0.1039  0.0495  2.0941
19506SOL    HW260287   3.680   1.341   8.152  2.1369  0.1038  1.7936
19507SOL     OW60288   7.692   8.467   0.924 -0.2957 -0.1753 -0.1592
19507SOL    HW160289   7.649   8.490   0.841 -0.4223 -0.2995 -0.1280
19507SOL    HW260290   7.673   8.541   0.981 -0.0412  0.0018 -0.3015
19508SOL     OW60291   4.293   1.026   8.288 -0.3819 -0.1094  0.2358
19508SOL    HW160292   4.297   1.004   8.195  0.9756 -1.0510  0.4836
19508SOL    HW260293   4.225   1.092   8.294 -1.8129 -1.3595 -1.1637
19509SOL     OW60294   5.031   0.039   2.376 -0.2809  0.0556  0.5493
19509SOL    HW160295   5.095  -0.008   2.323  0.8433  3.0056 -0.9430
19509SOL    HW260296   5.075   0.054   2.459  0.5932  1.0585 -0.0637
19510SOL     OW60297   7.435   3.429   8.618  0.6863 -0.2320  0.3665
19510SOL    HW160298   7.427   3.511   8.668 -0.2996 -1.4346  2.2924
19510SOL    HW260299   7.459   3.458   8.530  1.3669  2.0685  1.2164
19511SOL     OW60300   5.568   8.570   1.932 -0.3254  0.2467  0.2774
19511SOL    HW160301   5.543   8.589   2.022 -0.3265 -0.4673  0.4350
19511SOL    HW260302   5.642   8.629   1.914  0.8900 -0.8836  1.3697
19512SOL     OW60303   2.436   3.476   1.343  0.7335  0.6054 -0.0078
19512SOL    HW160304   2.429   3.461   1.248  1.5078  0.7512 -0.0999
19512SOL    HW260305   2.411   3.567   1.354 -0.4711  0.2847  0.0876
19513SOL     OW60306   2.454   3.748   1.325  0.0951 -0.1692  0.2979
19513SOL    HW160307   2.491   3.759   1.237  0.8093 -3.3437  0.0830
19513SOL    HW260308   2.494   3.817   1.377  1.7733  0.1003 -1.2548
19514SOL     OW60309   4.139   5.587   0.549  0.1454 -0.1575 -0.6408
19514SOL    HW160310   4.142   5.649   0.477  0.1524  1.2234  0.5045
19514SOL    HW260311   4.099   5.636   0.621 -1.0191 -1.8769 -0.0572
19515SOL     OW60312   9.484   0.319   8.461  0.6146  0.1811 -0.2349
19515SOL    HW160313   9.452   0.229   8.461  0.4391  0.1871 -2.5495
19515SOL    HW260314   9.575   0.313   8.491  0.2596 -0.5962  0.7153
19516SOL     OW60315   8.848   9.267   3.935  0.2399 -0.3055  0.3128
19516SOL    HW160316   8.842   9.235   4.026 -1.1168 -0.3232  0.2344
19516SOL    HW260317   8.821   9.358   3.940 -0.9037 -0.5908 -0.2071
19517SOL     OW60318   9.386   3.998   6.987  0.2643  0.3024  0.2774
19517SOL    HW160319   9.402   4.062   7.056 -0.5185  0.1596  0.6115
19517SOL    HW260320   9.327   4.042   6.926  0.9312  0.4184 -0.2939
19518SOL     OW60321   5.262   7.877   7.207  0.2831  0.1773 -0.7677
19518SOL    HW160322   5.233   7.914   7.290  1.4214 -0.2389 -0.1659
19518SOL    HW260323   5.264   7.783   7.221  1.4064  0.1618 -0.9424
19519SOL     OW60324   6.476   5.059   4.453 -0.7312 -0.1252  0.5660
19519SOL    HW160325   6.443   5.044   4.365  0.4096 -1.1686  0.2992
19519SOL    HW260326   6.525   5.141   4.446 -2.9455  1.3338  0.9203
19520SOL     OW60327   1.715   9.217   2.105  0.5172  0.4855  0.5076
19520SOL    HW160328   1.672   9.156   2.045  2.6349 -0.0029 -0.6447
19520SOL    HW260329   1.645   9.253   2.158 -1.0549 -1.4489 -0.1499
19521SOL     OW60330   0.769   2.181   3.208  0.8297 -0.5256 -0.2314
19521SOL    HW160331   0.847   2.132   3.185 -0.3179 -2.4232 -0.3135
19521SOL    HW260332   0.721   2.123   3.268 -0.4575  0.6193 -0.0995
19522SOL     OW60333   5.132   2.957   5.466 -0.0621  0.2863 -0.4473
19522SOL    HW160334   5.220   2.978   5.435 -0.1926  0.1627 -0.9039
19522SOL    HW260335   5.103   3.036   5.511  0.2340  0.3716 -0.4030
19523SOL     OW60336   2.612   4.022   4.215 -0.3197  0.3484  0.1063
19523SOL    HW160337   2.598   3.997   4.307  1.0267 -0.9849 -0.0123
19523SOL    HW260338   2.561   4.102   4.204 -0.3742  0.6403  2.0753
19524SOL     OW60339   8.842   8.173   8.244  0.3533  0.2989  0.3440
19524SOL    HW160340   8.863   8.133   8.160 -0.9024 -2.4368  1.2518
19524SOL    HW260341   8.925   8.212   8.273  1.3407 -0.5742 -1.1815
19525SOL     OW60342   6.820   5.049   7.617  0.0202  0.0795 -0.6389
19525SOL    HW160343   6.826   5.139   7.651 -0.2786 -0.2732  0.3721
19525SOL    HW260344   6.728   5.026   7.629 -0.0714 -0.0873 -1.6298
19526SOL     OW60345   5.788   4.098   8.046 -0.1394 -0.0345 -0.1668
19526SOL    HW160346   5.744   4.123   7.966  1.9795 -0.0149 -1.4124
19526SOL    HW260347   5.767   4.169   8.108  1.3588  2.1255 -1.9608
19527SOL     OW60348   1.517   9.724   5.304  0.6078  0.4452 -0.3187
19527SOL    HW160349   1.484   9.701   5.217 -0.4303  2.2883 -0.4736
19527SOL    HW260350   1.446   9.699   5.364  0.5884  0.7511 -0.2097
19528SOL     OW60351   0.253   7.830   4.385  0.6813 -0.5557 -0.3871
19528SOL    HW160352   0.181   7.770   4.365 -1.5754  1.4096  1.2222
19528SOL    HW260353   0.307   7.829   4.306 -2.5866 -0.1312 -2.8854
19529SOL     OW60354   7.471   8.853   2.961 -0.3951  0.8257 -0.5029
19529SOL    HW160355   7.481   8.948   2.969  2.1851  0.4892  1.7696
19529SOL    HW260356   7.388   8.834   3.004 -0.5305  1.9557 -0.2352
19530SOL     OW60357   8.399   6.102   6.524 -0.4479 -0.6978  0.5270
19530SOL    HW160358   8.486   6.104   6.483 -0.9690  0.5841 -0.5762
19530SOL    HW260359   8.341   6.068   6.456 -1.0124 -0.4344  0.8743
19531SOL     OW60360   9.254   1.372   7.709  0.3855  0.0401 -0.3203
19531SOL    HW160361   9.161   1.369   7.688  0.5654  0.1983 -1.1955
19531SOL    HW260362   9.294   1.416   7.634  1.1642 -0.0156  0.0499
19532SOL     OW60363   1.196   8.770   9.388 -0.2157 -0.4253  0.1621
19532SOL    HW160364   1.245   8.688   9.384 -0.9472 -0.8786  0.1496
19532SOL    HW260365   1.130   8.760   9.319 -0.2120  0.2400  0.0620
19533SOL     OW60366   0.509   1.929   3.710  0.7101 -0.2922  0.7897
19533SOL    HW160367   0.467   1.845   3.726  0.5307 -0.1047  1.3516
19533SOL    HW260368   0.462   1.965   3.634  0.4718 -0.4917  0.8406
19534SOL     OW60369   8.013   3.327   7.098  0.5250  0.6325 -0.2320
19534SOL    HW160370   8.003   3.398   7.161 -0.4676  0.7553 -0.5134
19534SOL    HW260371   8.073   3.362   7.032  1.9048  0.3563  0.8182
19535SOL     OW60372   5.208   0.690   8.192 -0.0386 -0.4738 -0.3744
19535SOL    HW160373   5.120   0.728   8.197 -0.3196 -1.2472  1.1372
19535SOL    HW260374   5.263   0.749   8.243  0.3022 -0.1062 -1.1433
19536SOL     OW60375   6.860   2.831   1.497  0.0315 -0.1787 -0.1892
19536SOL    HW160376   6.870   2.736   1.507 -0.5314 -0.3174 -0.8453
19536SOL    HW260377   6.865   2.866   1.586  1.3383 -0.7066 -0.0298
19537SOL     OW60378   5.921   3.922   7.429  0.2475 -0.1441 -0.2152
19537SOL    HW160379   5.873   3.873   7.362 -2.3485  0.5136  1.0301
19537SOL    HW260380   5.970   3.855   7.478 -1.3940 -1.2359  0.0124
19538SOL     OW60381   1.470   5.800   3.163  0.1093  0.4573 -0.2413
19538SOL    HW160382   1.561   5.785   3.137  0.4769  0.2175  1.0867
19538SOL    HW260383   1.422   5.725   3.127  0.8499 -0.6538  0.9684
19539SOL     OW60384   3.539   4.285   7.609 -0.5292  0.2542  0.0920
19539SOL    HW160385   3.449   4.304   7.583 -0.2626  0.7058 -0.5048
19539SOL    HW260386   3.585   4.266   7.527  0.2123  1.2665  0.2624
19540SOL     OW60387   3.537   9.398   8.303 -0.2407 -0.4142  0.5287
19540SOL    HW160388   3.459   9.371   8.351 -0.3863 -2.1540 -0.6237
19540SOL    HW260389   3.541   9.340   8.227  1.9098 -0.0672  0.2986
19541SOL     OW60390   7.757   4.022   7.803 -0.3014 -0.0191  0.1796
19541SOL    HW160391   7.823   3.953   7.815 -0.8035 -0.2475  1.8075
19541SOL    HW260392   7.806   4.095   7.763  1.2349  0.2092  2.3073
19542SOL     OW60393   0.112   2.700   4.452 -0.4658 -0.6505 -0.2117
19542SOL    HW160394   0.094   2.793   4.439  1.4976 -0.4552 -2.0643
19542SOL    HW260395   0.033   2.656   4.422 -1.7583  0.4056  1.4964
19543SOL     OW60396   6.015   1.137   3.378  0.5544  0.7299 -0.2013
19543SOL    HW160397   5.932   1.137   3.426  1.2219  1.0032  1.0032
19543SOL    HW260398   6.009   1.211   3.318 -0.6970 -0.2110 -1.2995
19544SOL     OW60399   1.656   4.563   3.147  0.2755  0.5531 -0.1213
19544SOL    HW160400   1.567   4.585   3.176 -0.0262 -1.4029  0.5938
19544SOL    HW260401   1.710   4.636   3.178 -0.8033  0.8848  1.0753
19545SOL     OW60402   8.723   6.197   9.779  0.2832  0.4358 -0.4918
19545SOL    HW160403   8.710   6.130   9.712  0.9084 -2.6329  2.1883
19545SOL    HW260404   8.814   6.224   9.769  0.7999 -1.0505 -0.0702
19546SOL     OW60405   5.136   3.506   7.070  0.5937 -0.0670 -0.5990
19546SOL    HW160406   5.090   3.456   7.137  2.1506  0.5725  1.0290
19546SOL    HW260407   5.175   3.440   7.012 -0.4828 -0.6270 -0.7146
19547SOL     OW60408   4.538   2.693   4.766  0.2980 -0.2055 -0.4511
19547SOL    HW160409   4.630   2.670   4.779  0.5463  1.3713  0.8601
19547SOL    HW260410   4.537   2.748   4.688  0.5165  0.0686 -0.2590
19548SOL     OW60411   8.352   8.254   4.291 -0.5865 -0.0337  1.1575
19548SOL    HW160412   8.348   8.165   4.325 -0.9321 -0.0989  0.9553
19548SOL    HW260413   8.321   8.246   4.201 -0.3447  0.2448  1.0505
19549SOL     OW60414   9.479   1.496   6.914  0.6543  0.2163 -0.7648
19549SOL    HW160415   9.400   1.543   6.886  0.3553  0.8699  1.0042
19549SOL    HW260416   9.526   1.478   6.833 -2.8194 -3.1651 -2.3604
19550SOL     OW60417   8.569   4.421   8.331 -0.2881 -0.3575  0.6683
19550SOL    HW160418   8.589   4.374   8.412 -0.6339 -0.4955  0.6773
19550SOL    HW260419   8.542   4.508   8.359  1.0175  0.0838  0.6144
19551SOL     OW60420   3.184   0.983   7.231 -0.6908 -0.0333 -0.3199
19551SOL    HW160421   3.160   1.075   7.228 -0.8275 -0.0948 -1.7725
19551SOL    HW260422   3.100   0.936   7.237 -0.5968 -0.0576  0.9588
19552SOL     OW60423   0.128   7.121   9.173 -0.4412 -0.0521 -0.0195
19552SOL    HW160424   0.160   7.134   9.263  0.4449 -0.4998 -0.2617
19552SOL    HW260425   0.166   7.194   9.124 -1.1154  0.3234  0.0078
19553SOL     OW60426   8.957   4.756   3.992  0.0195 -0.1244  0.2382
19553SOL    HW160427   8.944   4.850   3.986 -0.2054 -0.0527  1.6023
19553SOL    HW260428   9.051   4.744   3.983 -0.1396 -0.0123 -2.3420
19554SOL     OW60429   6.698   9.118   8.348 -0.1318 -0.9001  0.1589
19554SOL    HW160430   6.637   9.107   8.421  0.9708 -0.9452  1.0915
19554SOL    HW260431   6.767   9.176   8.382 -0.6355  0.7744 -1.4910
19555SOL     OW60432   4.138   1.297   2.042  0.9749 -0.2328 -0.1635
19555SOL    HW160433   4.187   1.279   2.122 -0.2762  1.0500  0.9555
19555SOL    HW260434   4.180   1.375   2.005  0.8687 -0.1676 -0.1478
19556SOL     OW60435   6.782   1.795   4.994 -0.8028 -0.5440  0.1363
19556SOL    HW160436   6.863   1.798   5.044  1.0216  0.9617 -2.6103
19556SOL    HW260437   6.713   1.794   5.060  1.3940  0.3595  2.6398
19557SOL     OW60438   5.073   8.934   1.845  0.1413 -0.2331 -0.1724
19557SOL    HW160439   5.083   9.025   1.816  0.2618  0.0744  0.8078
19557SOL    HW260440   5.153   8.891   1.814  0.3851  0.1445 -0.0821
19558SOL     OW60441   8.144   0.701   3.965  0.0682 -0.5967  0.1538
19558SOL    HW160442   8.172   0.619   4.006  1.8812  1.2303  2.9465
19558SOL    HW260443   8.225   0.751   3.955 -0.9974  0.9476 -1.3157
19559SOL     OW60444   2.496   3.969   6.663  0.9299  0.1599  0.3043
19559SOL    HW160445   2.539   3.954   6.747  0.1154 -2.8967  0.2911
19559SOL    HW260446   2.554   3.928   6.599  0.1036 -0.1898 -0.2328
19560SOL     OW60447   7.116   9.745   5.572 -0.1575  0.1799 -0.1730
19560SOL    HW160448   7.171   9.811   5.530 -0.3389  1.1590  1.0629
19560SOL    HW260449   7.034   9.748   5.523  0.1014  0.3008 -0.6110
19561SOL     OW60450   6.447   0.150   7.874 -0.4480 -0.1688  0.7189
19561SOL    HW160451   6.461   0.163   7.967 -0.4699 -0.4796  0.7692
19561SOL    HW260452   6.448   0.055   7.863 -0.9509 -0.1553  0.4845
19562SOL     OW60453   8.857   7.242   3.047  1.0778 -0.0167  0.1409
19562SOL    HW160454   8.774   7.241   3.094  1.0863  1.0886  0.2097
19562SOL    HW260455   8.860   7.158   3.001 -1.0992  0.7912 -1.6541
19563SOL     OW60456   7.599   0.690   2.819 -0.0457  0.8178  0.1850
19563SOL    HW160457   7.524   0.633   2.804 -0.8009  1.4706  1.3366
19563SOL    HW260458   7.562   0.773   2.848  1.0910  1.4637 -0.1195
19564SOL     OW60459   7.096   6.000   4.164  0.0163  0.3350  0.0780
19564SOL    HW160460   7.151   5.998   4.085 -1.5913  0.4206 -1.1023
19564SOL    HW260461   7.123   6.079   4.210  0.8284  0.4124 -0.5184
19565SOL     OW60462   2.073   1.278   9.298  0.5804  0.6615 -0.0314
19565SOL    HW160463   2.083   1.371   9.278  0.4472  0.3531 -1.6622
19565SOL    HW260464   2.143   1.235   9.249 -1.4909 -0.4011 -2.2743
19566SOL     OW60465   5.059   7.917   3.774 -0.3939 -0.3032 -0.3408
19566SOL    HW160466   5.119   7.850   3.805 -1.1979 -0.1745  1.6539
19566SOL    HW260467   5.096   8.000   3.804 -0.5777 -0.0496 -0.7945
19567SOL     OW60468   8.864   5.228   3.573 -0.1027 -0.4523 -0.1040
19567SOL    HW160469   8.856   5.264   3.661 -0.5829  0.3388 -0.4549
19567SOL    HW260470   8.868   5.305   3.516 -0.8735 -0.9556 -0.8603
19568SOL     OW60471   0.334   8.795   3.334  0.2417 -0.2107 -0.2354
19568SOL    HW160472   0.329   8.762   3.424 -0.6205  0.6565  0.0548
19568SOL    HW260473   0.254   8.847   3.324 -0.0258 -0.8632 -1.7394
19569SOL     OW60474   2.403   5.077   6.011 -0.0253 -0.0750  0.3045
19569SOL    HW160475   2.370   5.132   6.082 -1.1677 -0.7092  0.2936
19569SOL    HW260476   2.357   4.994   6.022  0.9784 -0.7164 -0.2322
19570SOL     OW60477   6.442   9.706   7.731  0.0158 -0.5984 -0.2807
19570SOL    HW160478   6.363   9.712   7.785 -1.3945 -2.7156 -1.9113
19570SOL    HW260479   6.476   9.618   7.749  1.4510 -0.0939 -0.3954
19571SOL     OW60480   1.699   3.804   3.827  0.6404 -0.2353 -0.0258
19571SOL    HW160481   1.678   3.711   3.821  1.7165 -0.4643 -0.4666
19571SOL    HW260482   1.636   3.846   3.768  0.9730 -0.8346 -0.8420
19572SOL     OW60483   9.186   0.445   1.731  0.1030 -0.0512  0.0579
19572SOL    HW160484   9.252   0.387   1.769 -2.0585 -1.9571  1.2230
19572SOL    HW260485   9.192   0.525   1.782  0.6241 -0.7024  1.0562
19573SOL     OW60486   1.265   6.099   4.800 -0.5905  0.0345 -0.7534
19573SOL    HW160487   1.252   6.141   4.885 -0.9853  0.1511 -0.8681
19573SOL    HW260488   1.344   6.046   4.811  0.8932  2.0442 -1.0573
19574SOL     OW60489   7.747   0.767   0.955 -0.2159  0.0222  0.0548
19574SOL    HW160490   7.764   0.861   0.967  0.6569  0.1020 -1.5083
19574SOL    HW260491   7.830   0.725   0.977 -0.4564 -0.3513  0.2575
19575SOL     OW60492   3.085   3.418   0.088 -0.3839  0.4418  0.0145
19575SOL    HW160493   3.167   3.422   0.039  0.7512  0.5505  1.8257
19575SOL    HW260494   3.017   3.404   0.021  0.9712  1.4234 -1.6335
19576SOL     OW60495   6.977   4.185   7.325 -0.7328 -0.1630  0.2250
19576SOL    HW160496   6.998   4.256   7.265 -0.0641  1.6524  2.4566
19576SOL    HW260497   6.888   4.204   7.356 -0.3045  0.1490  1.3380
19577SOL     OW60498   0.459   8.327   5.367  0.0667 -0.7134 -0.2457
19577SOL    HW160499   0.461   8.422   5.379  0.4294 -0.6652 -0.6726
19577SOL    HW260500   0.449   8.315   5.273 -0.3524 -1.1008 -0.1554
19578SOL     OW60501   9.779   3.924   0.015 -0.1128 -0.3775  0.5677
19578SOL    HW160502   9.859   3.876   0.038  0.1011 -0.3234 -0.0499
19578SOL    HW260503   9.722   3.913   0.091  1.1655  1.1281  1.8132
19579SOL     OW60504   0.569   5.408   8.588  0.3342  0.0655 -0.0746
19579SOL    HW160505   0.554   5.358   8.508  2.6373  1.8201 -1.7742
19579SOL    HW260506   0.497   5.470   8.592 -1.3486 -1.8575  0.8605
19580SOL     OW60507   9.316   4.990   4.031  0.2331  0.0313  0.3291
19580SOL    HW160508   9.326   5.038   4.113  1.6336  2.6774 -1.2267
19580SOL    HW260509   9.234   5.024   3.994  0.3402 -0.0663  0.0003
19581SOL     OW60510   7.648   6.631   3.597 -0.2873 -0.2004  0.0207
19581SOL    HW160511   7.662   6.560   3.534 -0.6829 -0.7642  0.5620
19581SOL    HW260512   7.668   6.711   3.547  0.8362 -0.7157 -0.3974
19582SOL     OW60513   5.569   6.246   8.467  0.3180 -0.3369 -0.3302
19582SOL    HW160514   5.627   6.314   8.433  1.1663 -0.8761 -0.0017
19582SOL    HW260515   5.566   6.180   8.398  0.3899 -0.4788 -0.1994
19583SOL     OW60516   1.388   1.164   6.579  0.2342 -0.2032  0.0735
19583SOL    HW160517   1.346   1.078   6.587  2.4743 -1.2321  1.5047
19583SOL    HW260518   1.428   1.179   6.664  3.0099  0.5244 -1.2584
19584SOL     OW60519   6.194   6.261   8.064 -0.0071 -0.0355  0.4139
19584SOL    HW160520   6.212   6.297   8.151  2.4191  3.6544 -1.3204
19584SOL    HW260521   6.103   6.287   8.046  0.1115  0.9386  1.1311
19585SOL     OW60522   8.090   4.312   4.026 -0.0476  0.2313 -0.1861
19585SOL    HW160523   8.152   4.241   4.042  0.7275  0.9541  0.1246
19585SOL    HW260524   8.127   4.359   3.951 -1.0269 -0.1990 -0.9605
19586SOL     OW60525   6.142   0.485   5.822  0.1316 -0.5070  0.6823
19586SOL    HW160526   6.181   0.452   5.742 -0.9928  0.0702 -0.1302
19586SOL    HW260527   6.205   0.463   5.891  1.5455 -0.1859 -0.4804
19587SOL     OW60528   1.503   9.528   2.279  0.3210  0.0958 -0.3660
19587SOL    HW160529   1.594   9.528   2.307  0.5205 -0.0508 -0.9909
19587SOL    HW260530   1.457   9.582   2.344  0.0717 -3.0892  2.3428
19588SOL     OW60531   0.876   9.347   5.255 -1.0031  0.2355 -0.0252
19588SOL    HW160532   0.954   9.341   5.199 -0.3886  2.0008  0.5674
19588SOL    HW260533   0.888   9.279   5.321  0.2600  0.7460  0.2956
19589SOL     OW60534   0.748   7.497   5.233 -0.1818 -0.3338 -0.3237
19589SOL    HW160535   0.740   7.589   5.205  1.2463  0.1857  0.8743
19589SOL    HW260536   0.800   7.456   5.164 -0.6478 -0.2139 -0.7569
19590SOL     OW60537   4.081   4.806   5.954 -0.2974  0.3237 -0.3311
19590SOL    HW160538   4.047   4.886   5.913 -1.2855  0.7160  1.1659
19590SOL    HW260539   4.036   4.735   5.908 -1.6009  0.7623  0.2287
19591SOL     OW60540   6.930   6.595   5.736  0.0924  0.1843 -0.3509
19591SOL    HW160541   6.985   6.601   5.814 -0.8352  0.1880  0.3106
19591SOL    HW260542   6.932   6.502   5.712 -0.1977  0.0646  0.0945
19592SOL     OW60543   8.697   0.451   7.931  0.6605  0.2624  0.1247
19592SOL    HW160544   8.722   0.402   8.009 -1.6755 -0.6944  0.3477
19592SOL    HW260545   8.698   0.387   7.861  0.0503  0.4614 -0.0726
19593SOL     OW60546   3.099   1.192   6.327  0.2779  0.8936 -0.5074
19593SOL    HW160547   3.176   1.139   6.344  1.1429  1.5141 -2.2239
19593SOL    HW260548   3.032   1.159   6.387  0.7808 -2.1258 -1.4843
19594SOL     OW60549   7.115   4.637   7.401  0.0754  0.2032  0.0066
19594SOL    HW160550   7.104   4.555   7.354  0.4444 -0.4015  0.9432
19594SOL    HW260551   7.129   4.611   7.492  1.0847  1.2604  0.1834
19595SOL     OW60552   8.625   7.300   6.357 -0.7256 -0.6708 -0.0029
19595SOL    HW160553   8.616   7.207   6.335 -0.2610 -0.5879 -0.5499
19595SOL    HW260554   8.666   7.300   6.444 -2.9810 -1.0035  1.1413
19596SOL     OW60555   4.725   6.454   7.332  0.2954  0.0923 -0.9313
19596SOL    HW160556   4.655   6.420   7.275 -0.5146 -0.0630  0.1264
19596SOL    HW260557   4.690   6.537   7.364  0.3145 -0.2935  0.1093
19597SOL     OW60558   0.288   9.597   0.353 -0.4135  0.2826  0.5392
19597SOL    HW160559   0.333   9.681   0.365  0.8744 -0.3199  0.0928
19597SOL    HW260560   0.309   9.571   0.263 -0.6159 -0.6180  0.7394
19598SOL     OW60561   6.070   2.917   3.999  0.0248  0.3531 -0.5404
19598SOL    HW160562   6.134   2.957   3.940  1.7627 -0.7610  0.4632
19598SOL    HW260563   6.060   2.981   4.070 -0.1823  0.6543 -0.8412
19599SOL     OW60564   2.378   6.749   6.935 -0.2985  0.2146 -0.5566
19599SOL    HW160565   2.449   6.745   6.871  1.0684  1.1583  0.8273
19599SOL    HW260566   2.298   6.739   6.883  0.7499  0.8438 -2.3912
19600SOL     OW60567   7.739   4.395   6.021  0.0923 -0.0694  0.1728
19600SOL    HW160568   7.825   4.354   6.020  0.3437  0.4447  0.4698
19600SOL    HW260569   7.686   4.340   5.962 -0.2858 -2.2992  2.4300
19601SOL     OW60570   7.865   5.097   1.023  0.6721 -0.2771  0.3896
19601SOL    HW160571   7.877   5.192   1.024  0.2696 -0.1977  2.7562
19601SOL    HW260572   7.944   5.063   0.981  1.7919  1.0325  1.3551
19602SOL     OW60573   0.023   8.729   2.385 -0.1929 -0.5251 -0.1524
19602SOL    HW160574   0.118   8.729   2.382 -0.2149 -0.7488 -0.8241
19602SOL    HW260575  -0.004   8.794   2.319 -0.4704  1.0917  1.4569
19603SOL     OW60576   1.261   6.355   4.509  0.5539 -0.7613 -0.3688
19603SOL    HW160577   1.268   6.422   4.441 -0.5307 -1.6105 -1.3662
19603SOL    HW260578   1.191   6.386   4.566  0.0171 -1.0461 -0.8588
19604SOL     OW60579   3.776   7.377   8.402  0.6051 -0.1448 -0.8017
19604SOL    HW160580   3.742   7.338   8.321  0.5880 -0.3724 -0.6872
19604SOL    HW260581   3.853   7.427   8.374  1.2983 -1.1738 -0.8068
19605SOL     OW60582   0.314   1.607   0.690 -0.2653  0.1855  0.0464
19605SOL    HW160583   0.380   1.597   0.759 -0.6000 -0.3315  0.3058
19605SOL    HW260584   0.363   1.635   0.613 -0.1362  2.8556  0.9977
19606SOL     OW60585   9.335   4.989   1.643 -0.0197  0.5450  0.1265
19606SOL    HW160586   9.258   4.934   1.658 -0.3917  0.2206 -2.5107
19606SOL    HW260587   9.382   4.947   1.571  1.1012  2.2525 -0.2155
19607SOL     OW60588   5.039   4.603   0.472 -0.1627 -0.1433  0.0991
19607SOL    HW160589   4.962   4.569   0.516 -0.6782  1.6081  0.6622
19607SOL    HW260590   5.102   4.532   0.474 -1.5326 -1.3975  0.2047
19608SOL     OW60591   2.685   4.216   2.956  0.5337  0.0862  0.6536
19608SOL    HW160592   2.693   4.172   3.041  0.8059  0.1001  0.6370
19608SOL    HW260593   2.610   4.275   2.966 -0.9248 -1.5803  0.1488
19609SOL     OW60594   0.362   0.018   0.358 -0.0604 -0.4688  0.5605
19609SOL    HW160595   0.339   0.038   0.268 -0.1242 -0.8410  0.4966
19609SOL    HW260596   0.287   0.049   0.410 -0.2972 -0.8309  0.4336
19610SOL     OW60597   7.485   1.713   2.657  0.6451  0.3955  0.1045
19610SOL    HW160598   7.440   1.732   2.739 -0.6297 -0.5764 -0.3387
19610SOL    HW260599   7.450   1.629   2.629  1.9648  0.1153 -0.8255
19611SOL     OW60600   5.536   7.459   7.940  0.3078  0.0320  0.2527
19611SOL    HW160601   5.501   7.541   7.906  1.2280  0.0872 -0.6102
19611SOL    HW260602   5.513   7.393   7.874  0.2404 -0.2600  0.5634
19612SOL     OW60603   2.444   7.841   5.653 -0.3307 -0.1065 -0.2951
19612SOL    HW160604   2.459   7.905   5.723 -0.2945  1.6135 -1.7934
19612SOL    HW260605   2.532   7.822   5.619 -0.4061 -0.3990 -0.3269
19613SOL     OW60606   5.771   6.755   2.871 -0.8156 -0.0800 -0.1610
19613SOL    HW160607   5.830   6.680   2.879 -1.3178 -0.4225  0.4274
19613SOL    HW260608   5.752   6.781   2.961 -0.7160  0.7063 -0.3560
19614SOL     OW60609   3.884   3.307   7.053  0.1194  0.2910 -0.3952
19614SOL    HW160610   3.820   3.243   7.021  0.2998  0.1163 -0.4119
19614SOL    HW260611   3.956   3.254   7.087 -0.0408  0.4789  0.2421
19615SOL     OW60612   0.365   8.127   0.510 -0.1790  0.1822 -0.2055
19615SOL    HW160613   0.407   8.164   0.588 -0.2937  0.6386 -0.3566
19615SOL    HW260614   0.309   8.198   0.477 -0.4738 -0.1591 -0.4463
19616SOL     OW60615   5.178   4.109   3.161  0.3268  0.1233  0.1253
19616SOL    HW160616   5.206   4.200   3.156 -0.9761  0.5841  0.6846
19616SOL    HW260617   5.215   4.077   3.244  0.4124  0.2757  0.1461
19617SOL     OW60618   0.915   2.516   4.447  0.3139  0.0933  0.2175
19617SOL    HW160619   0.835   2.484   4.486 -0.0641 -0.7361 -1.1667
19617SOL    HW260620   0.913   2.483   4.357  1.0726  1.9996 -0.5561
19618SOL     OW60621   9.775   9.065   8.822 -0.0171  0.3953 -0.3135
19618SOL    HW160622   9.802   9.044   8.911 -2.6454  2.3649  1.1041
19618SOL    HW260623   9.833   9.135   8.794 -0.3968  1.1043  0.6478
19619SOL     OW60624   4.195   1.499   4.164  0.4743  0.2095  0.3123
19619SOL    HW160625   4.157   1.572   4.213 -3.4708 -1.5264  0.2386
19619SOL    HW260626   4.245   1.449   4.229 -1.2079  0.1827  1.6472
19620SOL     OW60627   3.057   0.951   4.672  0.1273  0.1929 -0.2822
19620SOL    HW160628   3.053   0.913   4.584 -0.9289  0.4804 -0.3789
19620SOL    HW260629   2.967   0.944   4.704  0.0511  1.9794 -0.0401
19621SOL     OW60630   1.261   3.155   6.421 -0.2204 -0.2244  0.3617
19621SOL    HW160631   1.271   3.146   6.327  1.4599 -0.0482  0.4845
19621SOL    HW260632   1.183   3.103   6.442 -0.4947 -0.4356 -1.0856
19622SOL     OW60633   0.892   6.387   6.881 -0.1977 -0.3697  0.2015
19622SOL    HW160634   0.884   6.292   6.890  0.8466 -0.5258 -0.3433
19622SOL    HW260635   0.851   6.422   6.960 -0.9787 -1.2492  0.2061
19623SOL     OW60636   5.599   9.691   2.567  0.0231  0.2542  0.1117
19623SOL    HW160637   5.650   9.657   2.493  0.0301  0.6786 -0.0815
19623SOL    HW260638   5.623   9.635   2.641 -0.4181 -0.5459 -0.3322
19624SOL     OW60639   0.506   0.735   0.747 -0.0824 -0.7079  0.2264
19624SOL    HW160640   0.553   0.736   0.664 -0.3760  0.6726  0.0458
19624SOL    HW260641   0.464   0.649   0.751 -2.0592  0.0179 -2.2226
19625SOL     OW60642   0.987   6.921   6.335 -0.8696  0.2761  0.5948
19625SOL    HW160643   0.950   6.849   6.283  0.2400 -1.5763  2.2395
19625SOL    HW260644   0.920   6.989   6.332 -0.8563  0.3745 -3.2821
19626SOL     OW60645   1.631   7.298   9.218 -0.0252  0.3584 -0.1630
19626SOL    HW160646   1.563   7.343   9.269 -1.4687 -0.2670 -1.4359
19626SOL    HW260647   1.713   7.325   9.259 -1.0802 -0.8460  3.0983
19627SOL     OW60648   7.617   8.776   0.002  0.1299  0.6178  0.5561
19627SOL    HW160649   7.711   8.779  -0.012  0.0741  0.1083  0.0584
19627SOL    HW260650   7.587   8.698  -0.044 -0.7889  1.7167 -0.8101
19628SOL     OW60651   7.533   5.738   1.184 -0.4504  0.0334  0.0996
19628SOL    HW160652   7.617   5.771   1.152 -0.6514 -0.2285 -0.7208
19628SOL    HW260653   7.518   5.657   1.135 -1.2638  0.1678  0.1035
19629SOL     OW60654   3.898   1.077   7.501  0.4122 -0.4509 -0.0374
19629SOL    HW160655   3.867   1.104   7.415  0.9355  0.7064  0.1101
19629SOL    HW260656   3.820   1.078   7.556  0.1484 -0.7904 -0.4031
19630SOL     OW60657   7.832   6.332   8.367  0.0090  0.1036  0.1328
19630SOL    HW160658   7.799   6.292   8.286  0.7650 -1.2405  0.4621
19630SOL    HW260659   7.778   6.295   8.436 -0.0458  0.5580  0.3339
19631SOL     OW60660   0.539   1.211   6.354 -0.4166 -0.8604 -0.3497
19631SOL    HW160661   0.631   1.207   6.382 -0.4243  2.0593  0.4155
19631SOL    HW260662   0.489   1.211   6.435 -0.7300  2.3014 -0.4040
19632SOL     OW60663   0.072   6.628   3.300 -0.1704 -0.4286  0.6700
19632SOL    HW160664   0.119   6.614   3.382 -0.9507  0.0835  1.2221
19632SOL    HW260665   0.030   6.544   3.282  0.7480 -0.8184  0.2939
19633SOL     OW60666   4.762   4.535   6.415 -0.2314  0.6203  0.7063
19633SOL    HW160667   4.747   4.539   6.509  3.4198 -0.0813  1.4713
19633SOL    HW260668   4.802   4.618   6.393  1.9447 -0.4062  0.5222
19634SOL     OW60669   7.004   2.063   3.422  0.7393 -0.1921 -0.8105
19634SOL    HW160670   6.910   2.080   3.415  0.8363  0.0827 -1.5875
19634SOL    HW260671   7.029   2.037   3.334  1.4954  0.2597 -0.7309
19635SOL     OW60672   8.702   8.491   9.588  0.5798 -0.6935  0.3087
19635SOL    HW160673   8.699   8.560   9.655  0.5548  0.9297 -1.2994
19635SOL    HW260674   8.781   8.510   9.538 -0.4395 -0.6787 -1.3381
19636SOL     OW60675   6.898   6.491   3.121  0.6874  0.1009 -0.3663
19636SOL    HW160676   6.813   6.534   3.126 -0.4730 -2.0966  0.4905
19636SOL    HW260677   6.962   6.562   3.113 -1.0926  1.9043  0.6916
19637SOL     OW60678   1.086   1.741   5.287 -0.1856 -0.6465 -0.2271
19637SOL    HW160679   1.020   1.770   5.349 -0.0487 -2.6064  0.9057
19637SOL    HW260680   1.037   1.721   5.207 -0.4130  1.5023 -0.6807
19638SOL     OW60681   3.913   2.663   7.192 -0.5652 -0.3761 -0.2179
19638SOL    HW160682   3.931   2.743   7.143 -0.4474  0.0674  0.5334
19638SOL    HW260683   3.941   2.682   7.281 -0.8275 -1.1488  0.0434
19639SOL     OW60684   0.845   4.382   8.005  0.1930  0.2052 -0.2745
19639SOL    HW160685   0.790   4.452   8.039 -0.4222 -0.2801 -0.2658
19639SOL    HW260686   0.800   4.351   7.927  2.1205  2.0257 -2.2205
19640SOL     OW60687   8.972   6.576   7.872  0.4863  0.5162  0.2903
19640SOL    HW160688   8.882   6.605   7.862  0.3214  0.1022  0.5276
19640SOL    HW260689   8.975   6.535   7.959  0.8560  0.3702  0.2124
19641SOL     OW60690   6.509   8.988   0.035 -0.3045  0.2728  0.3767
19641SOL    HW160691   6.595   8.949   0.051  0.1885 -0.1100 -2.6369
19641SOL    HW260692   6.503   9.060   0.098  1.8152 -0.2524  1.2629
19642SOL     OW60693   0.314   0.314   2.193 -0.3735  0.5483  0.0551
19642SOL    HW160694   0.299   0.322   2.099 -0.2635  0.3989  0.0224
19642SOL    HW260695   0.230   0.289   2.230 -0.5211  1.0359  0.0545
19643SOL     OW60696   0.451   2.253   9.095 -0.0344 -0.3678 -0.2570
19643SOL    HW160697   0.483   2.265   9.006  0.4351  0.6112  0.0328
19643SOL    HW260698   0.369   2.303   9.098  0.0016 -0.3176 -0.1081
19644SOL     OW60699   1.151   3.821   5.961  0.0511 -0.5573 -0.2401
19644SOL    HW160700   1.084   3.871   5.915  0.5190  0.3362  0.0370
19644SOL    HW260701   1.113   3.733   5.968 -0.6402 -0.3408 -1.0183
19645SOL     OW60702   6.857   0.078   3.161  0.0409 -0.4084 -0.1897
19645SOL    HW160703   6.813  -0.006   3.149  0.1402 -0.7153  1.4094
19645SOL    HW260704   6.829   0.108   3.248  2.2078 -0.1573  0.4752
19646SOL     OW60705   1.700   4.024   4.471 -0.3551  0.0308 -0.1731
19646SOL    HW160706   1.776   3.990   4.422  0.7399  1.1034  0.7116
19646SOL    HW260707   1.654   4.080   4.407 -1.3160 -1.8112 -1.1745
19647SOL     OW60708   0.140   2.062   1.055  0.1443 -0.3880 -0.4581
19647SOL    HW160709   0.142   2.156   1.074  0.2193 -0.1212 -1.6892
19647SOL    HW260710   0.047   2.039   1.056  0.1778 -0.5441  0.8730
19648SOL     OW60711   9.555   6.149   9.410  0.1475  0.0685 -0.2021
19648SOL    HW160712   9.473   6.197   9.425 -2.0190 -3.2027 -0.5799
19648SOL    HW260713   9.580   6.172   9.321 -0.7214  0.6514 -0.3089
19649SOL     OW60714   6.673   0.090   4.020  1.0073  0.0318 -0.2124
19649SOL    HW160715   6.625   0.139   4.086  1.5593  1.4462 -0.8363
19649SOL    HW260716   6.648  -0.001   4.036  2.0852  0.1192  2.8025
19650SOL     OW60717   3.504   6.425   8.209 -0.8061  0.8427  0.1068
19650SOL    HW160718   3.529   6.381   8.128 -2.6140  0.3828 -0.2408
19650SOL    HW260719   3.587   6.438   8.256  0.2840  1.1396 -1.7914
19651SOL     OW60720   6.746   6.788   2.549  0.1614  0.1075 -0.5180
19651SOL    HW160721   6.738   6.701   2.588  1.3917 -0.3659 -1.2729
19651SOL    HW260722   6.662   6.830   2.568  0.5188 -0.2242  2.2816
19652SOL     OW60723   4.096   7.681   3.647  0.0276 -0.1435  0.3103
19652SOL    HW160724   4.152   7.604   3.657 -1.0862 -1.0934 -0.5282
19652SOL    HW260725   4.123   7.719   3.563 -0.7635 -0.7859 -0.2523
19653SOL     OW60726   7.613   7.268   3.414 -0.6468  0.2980  0.4530
19653SOL    HW160727   7.543   7.242   3.355  0.4858  0.0642 -0.8619
19653SOL    HW260728   7.590   7.229   3.498 -2.0357  0.1738  0.0372
19654SOL     OW60729   1.344   8.074   3.654  0.1751  0.0579 -0.1613
19654SOL    HW160730   1.301   8.024   3.585  1.6138  0.6963 -1.5852
19654SOL    HW260731   1.280   8.076   3.725 -1.3305 -0.7083 -1.4212
19655SOL     OW60732   4.418   3.011   0.982 -0.3062 -0.1490 -0.3291
19655SOL    HW160733   4.348   3.057   1.028  0.6417  0.9305  0.0823
19655SOL    HW260734   4.407   2.919   1.009 -1.4657  0.0182 -0.1742
19656SOL     OW60735   3.812   1.671   0.371 -0.3171  0.1078  0.2122
19656SOL    HW160736   3.867   1.694   0.296 -0.7275  0.0540 -0.1102
19656SOL    HW260737   3.874   1.653   0.442  0.0562  1.0121  0.1347
19657SOL     OW60738   7.184   7.995   6.167 -0.0467 -0.1135 -0.4209
19657SOL    HW160739   7.106   8.047   6.185  1.2374  1.8839 -0.2860
19657SOL    HW260740   7.220   8.033   6.086 -0.9660 -3.2133 -2.4462
19658SOL     OW60741   1.156   6.077   7.198 -0.7192  0.4572 -0.4121
19658SOL    HW160742   1.194   6.060   7.112 -0.0350  2.5400 -0.5812
19658SOL    HW260743   1.064   6.053   7.188 -0.1590 -1.7220 -0.9240
19659SOL     OW60744   8.375   1.175   0.965  0.0223 -0.3951  0.3915
19659SOL    HW160745   8.291   1.134   0.983 -1.2661  1.9619  0.1705
19659SOL    HW260746   8.434   1.102   0.948 -2.0414 -2.1331  0.2225
19660SOL     OW60747   4.549   0.718   6.967 -0.1803 -1.2292 -0.0493
19660SOL    HW160748   4.516   0.643   7.018  0.4334  0.3230  2.8952
19660SOL    HW260749   4.622   0.681   6.916 -0.2014 -2.7602  0.9328
19661SOL     OW60750   5.253   2.704   0.417 -0.1664  0.2376  0.5114
19661SOL    HW160751   5.274   2.686   0.509  0.5389  0.6973  0.4455
19661SOL    HW260752   5.271   2.797   0.406 -0.0279  0.1367 -0.1581
19662SOL     OW60753   6.240   2.786   4.198 -0.0350  0.5592 -0.2053
19662SOL    HW160754   6.149   2.756   4.191  0.2898 -1.3893  2.3304
19662SOL    HW260755   6.246   2.822   4.287  2.1247 -1.3442  0.5235
19663SOL     OW60756   2.227   5.136   1.838 -0.1268  0.3375 -0.0477
19663SOL    HW160757   2.176   5.215   1.823 -0.6705 -0.0698 -0.3860
19663SOL    HW260758   2.195   5.074   1.772  1.5191  0.3899 -0.9768
19664SOL     OW60759   9.119   2.177   7.491 -0.9402 -0.0487  0.5872
19664SOL    HW160760   9.158   2.091   7.503  0.7721  0.3766 -1.3031
19664SOL    HW260761   9.154   2.208   7.407 -1.4151  2.5304  1.2385
19665SOL     OW60762   7.317   9.204   0.665  0.3846 -0.2567  0.1321
19665SOL    HW160763   7.303   9.295   0.639 -1.5897 -0.8916 -1.2152
19665SOL    HW260764   7.278   9.197   0.752 -1.7031 -0.3398 -0.7628
19666SOL     OW60765   7.630   9.093   9.588 -0.1573  0.1161 -0.0632
19666SOL    HW160766   7.542   9.088   9.549 -0.9583 -1.5222  1.7981
19666SOL    HW260767   7.671   9.010   9.565  0.3874  0.2917  0.2560
19667SOL     OW60768   7.816   8.761   3.559  0.4012  0.3533 -0.8508
19667SOL    HW160769   7.852   8.752   3.471  3.4031 -1.1207  0.3842
19667SOL    HW260770   7.848   8.846   3.590  1.2923 -0.1054 -0.4509
19668SOL     OW60771   6.604   5.374   0.713  0.5455 -0.1469  0.2822
19668SOL    HW160772   6.668   5.396   0.782  0.0097 -2.0279  1.4518
19668SOL    HW260773   6.549   5.306   0.752 -0.4680 -0.5117 -1.6595
19669SOL     OW60774   4.190   4.989   2.558 -0.4941  0.6717  0.2465
19669SOL    HW160775   4.134   4.954   2.488 -0.8851  0.4454  0.6668
19669SOL    HW260776   4.265   4.929   2.560 -1.1219 -0.1202  0.9094
19670SOL     OW60777   6.834   4.051   2.488  0.3725  0.6293 -0.5006
19670SOL    HW160778   6.822   3.958   2.469  0.7860 -0.5345  3.7830
19670SOL    HW260779   6.746   4.083   2.511  0.6980  0.2005  1.5744
19671SOL     OW60780   4.893   5.829   6.131  0.0008  0.3200  0.0944
19671SOL    HW160781   4.958   5.865   6.192  0.8796  0.9878 -1.1988
19671SOL    HW260782   4.915   5.736   6.125 -0.0430  0.2611  0.7078
19672SOL     OW60783   0.270   1.155   0.849  0.3575 -0.0032 -0.2119
19672SOL    HW160784   0.301   1.096   0.918  2.1861  2.9167  1.6936
19672SOL    HW260785   0.348   1.178   0.800  0.1789  2.4971  0.5526
19673SOL     OW60786   4.165   6.953   4.349  0.0231 -0.2539 -0.0838
19673SOL    HW160787   4.142   7.001   4.429 -1.9887  0.3235 -0.9548
19673SOL    HW260788   4.256   6.925   4.364 -0.0226  0.5159  2.0526
19674SOL     OW60789   6.863   0.667   8.964  0.2707 -0.1323  0.2076
19674SOL    HW160790   6.859   0.712   8.880 -1.4474 -0.8692 -0.1567
19674SOL    HW260791   6.890   0.734   9.026 -1.1313  1.1337 -0.4938
19675SOL     OW60792   6.967   4.439   8.038 -0.3211 -0.0772  0.5641
19675SOL    HW160793   6.990   4.405   8.125  1.5659 -2.4679 -0.7429
19675SOL    HW260794   6.883   4.398   8.018  0.6319 -1.9098  0.1318
19676SOL     OW60795   2.575   0.364   2.912  0.1897 -0.2364  0.6726
19676SOL    HW160796   2.491   0.407   2.896  0.6194 -0.0739 -1.2899
19676SOL    HW260797   2.607   0.340   2.826  1.4031 -1.7991  1.5011
19677SOL     OW60798   9.648   2.911   9.501  0.7313 -0.4307 -0.3080
19677SOL    HW160799   9.620   2.984   9.556 -1.0777 -0.3341 -1.2863
19677SOL    HW260800   9.677   2.952   9.419  0.5358 -0.7498 -0.5401
19678SOL     OW60801   3.127   7.253   4.307  0.3964 -0.1360 -0.3028
19678SOL    HW160802   3.154   7.162   4.313  0.4387 -0.0484  1.2285
19678SOL    HW260803   3.169   7.296   4.382 -0.7287  0.8438 -0.1933
19679SOL     OW60804   6.121   4.529   2.588 -0.5221 -0.0723 -0.2303
19679SOL    HW160805   6.140   4.622   2.600 -0.8922 -0.1621  1.2210
19679SOL    HW260806   6.072   4.525   2.505  2.5894  0.5507 -2.2905
19680SOL     OW60807   0.983   5.090   0.953  0.1664  0.1340  0.0644
19680SOL    HW160808   0.995   5.134   0.868 -0.1691  1.3862  0.6429
19680SOL    HW260809   0.888   5.090   0.966  0.1393 -1.0973 -0.0812
19681SOL     OW60810   3.579   8.234   4.304 -0.1224 -0.1585 -0.2885
19681SOL    HW160811   3.644   8.183   4.256 -2.3106 -1.9241 -1.5906
19681SOL    HW260812   3.584   8.200   4.393  1.0592  0.1069 -0.2355
19682SOL     OW60813   4.577   7.361   4.942  0.3020 -0.4777 -0.4728
19682SOL    HW160814   4.482   7.355   4.950  0.0458  0.6346 -2.1615
19682SOL    HW260815   4.594   7.352   4.848  2.0391 -2.4596 -0.0395
19683SOL     OW60816   5.603   5.032   7.909 -0.1424  0.5230 -0.5024
19683SOL    HW160817   5.593   5.115   7.957 -0.5343 -0.3296  0.9580
19683SOL    HW260818   5.675   5.048   7.849  0.9263  1.4211  0.9435
19684SOL     OW60819   9.314   4.366   2.517  0.4865 -0.0280  0.0303
19684SOL    HW160820   9.273   4.282   2.540  0.9989  0.1884  1.9131
19684SOL    HW260821   9.362   4.392   2.596 -1.2341  3.0046  0.2183
19685SOL     OW60822   1.224   1.466   5.799 -0.1965 -0.1736 -0.5999
19685SOL    HW160823   1.227   1.467   5.703  3.5577 -0.7229 -0.6523
19685SOL    HW260824   1.308   1.505   5.825 -0.7134 -0.8851  2.4678
19686SOL     OW60825   6.789   3.116   3.490  0.6593 -0.8165  0.1132
19686SOL    HW160826   6.723   3.048   3.501  0.1677 -0.2398  0.8070
19686SOL    HW260827   6.860   3.073   3.442  0.9221 -2.1782  1.6402
19687SOL     OW60828   0.008   1.238   5.399  0.3181  0.2825 -0.1146
19687SOL    HW160829  -0.033   1.152   5.407 -1.4210  0.8693 -1.9246
19687SOL    HW260830   0.013   1.254   5.305 -2.3615  3.4132  0.0874
19688SOL     OW60831   1.893   8.984   2.978 -0.4008  0.0987 -0.3834
19688SOL    HW160832   1.810   9.010   2.939 -0.1769 -1.5522 -2.1181
19688SOL    HW260833   1.880   8.892   3.003  0.2698  0.4095  1.2563
19689SOL     OW60834   5.491   1.947   3.857  0.1962  0.0128  0.0037
19689SOL    HW160835   5.420   1.906   3.806  1.3033 -0.2773 -1.3509
19689SOL    HW260836   5.474   2.041   3.850 -1.3630 -0.0681  1.6792
19690SOL     OW60837   4.317   8.904   1.927 -0.2976  0.4812  0.2428
19690SOL    HW160838   4.241   8.873   1.977  0.7257 -0.2824  1.4136
19690SOL    HW260839   4.297   8.995   1.906 -1.0535  0.6403  1.5268
19691SOL     OW60840   5.557   5.811   3.280  0.8105  0.5693 -0.4594
19691SOL    HW160841   5.543   5.900   3.313  2.6934 -0.0103  2.2139
19691SOL    HW260842   5.513   5.755   3.344  1.6323 -0.5001 -0.8019
19692SOL     OW60843   4.949   2.927   8.742 -0.0532  0.3779 -0.0634
19692SOL    HW160844   4.902   2.863   8.689  1.2712 -1.4019  0.8231
19692SOL    HW260845   4.997   2.981   8.678  1.4234 -1.6483 -0.7719
19693SOL     OW60846   1.414   5.022   1.310  0.1906  0.0685  0.6042
19693SOL    HW160847   1.331   5.001   1.268 -0.6208  1.1600  1.5863
19693SOL    HW260848   1.446   4.938   1.343 -0.8991 -0.2700  0.8424
19694SOL     OW60849   3.433   4.532   8.005  0.5400  0.4832  0.3619
19694SOL    HW160850   3.388   4.558   7.924  0.1359  0.9274  0.7218
19694SOL    HW260851   3.500   4.470   7.977 -1.9342 -2.2385  0.0958
19695SOL     OW60852   3.581   7.204   6.708 -0.0633  0.2176 -0.1384
19695SOL    HW160853   3.502   7.256   6.694  0.0575  0.6491  0.7389
19695SOL    HW260854   3.628   7.208   6.625  0.0678  1.7277 -0.0237
19696SOL     OW60855   2.573   5.584   0.015 -0.3857 -0.7548 -0.0345
19696SOL    HW160856   2.606   5.666  -0.020 -0.8232 -0.2141  0.7827
19696SOL    HW260857   2.651   5.528   0.023 -0.4033 -1.2744 -2.7426
19697SOL     OW60858   6.965   3.642   2.986 -0.1399 -0.5489  0.3149
19697SOL    HW160859   6.942   3.703   3.056 -1.5798 -0.8696  0.1649
19697SOL    HW260860   6.904   3.569   2.997  0.9767 -1.5697 -0.0339
19698SOL     OW60861   1.268   7.554   5.279 -0.1214  0.4405  0.1257
19698SOL    HW160862   1.295   7.520   5.194  0.9048  0.6091  0.3642
19698SOL    HW260863   1.329   7.515   5.341 -1.3626 -0.3182  0.9053
19699SOL     OW60864   5.541   9.125   8.138 -0.3384  0.4431 -0.0424
19699SOL    HW160865   5.526   9.075   8.058  1.5829  0.9400 -0.7818
19699SOL    HW260866   5.625   9.169   8.122 -0.3024  1.1593  1.9462
19700SOL     OW60867   8.380   4.918   5.201 -0.0735 -0.0954 -0.2961
19700SOL    HW160868   8.393   4.879   5.114 -2.0094  0.4779 -0.8990
19700SOL    HW260869   8.379   4.844   5.261  2.3818 -0.4142 -0.5704
19701SOL     OW60870   6.117   8.785   7.910  0.0282  0.2310  0.0017
19701SOL    HW160871   6.192   8.801   7.968  0.5704 -0.0859 -0.5991
19701SOL    HW260872   6.075   8.870   7.901  0.6043  0.5123 -0.0546
19702SOL     OW60873   3.035   8.945   9.114  0.4408  0.3305 -0.2715
19702SOL    HW160874   3.055   8.996   9.193 -0.6540  1.6386 -0.8135
19702SOL    HW260875   2.990   8.867   9.147  0.0824  0.8126  0.4146
19703SOL     OW60876   1.698   9.273   7.209  0.0200  0.3963  0.5681
19703SOL    HW160877   1.658   9.349   7.166  0.8975  0.2556 -0.5671
19703SOL    HW260878   1.774   9.308   7.254  1.3013  0.0352 -1.1987
19704SOL     OW60879   2.897   4.795   7.675 -0.6027  0.1724 -0.3593
19704SOL    HW160880   2.802   4.806   7.670 -0.4838  1.1121 -0.9575
19704SOL    HW260881   2.917   4.727   7.610 -0.6572  1.6216 -1.9762
19705SOL     OW60882   1.223   4.430   2.322 -0.2780 -0.4215 -0.7342
19705SOL    HW160883   1.236   4.404   2.414  0.1226  0.7175 -0.4489
19705SOL    HW260884   1.146   4.488   2.325 -0.1686 -0.2568 -1.0924
19706SOL     OW60885   6.714   2.621   6.381  0.4627 -0.0102  0.0585
19706SOL    HW160886   6.695   2.633   6.288 -0.4860 -2.9175 -0.2278
19706SOL    HW260887   6.721   2.526   6.392  0.5159  0.2301  2.9763
19707SOL     OW60888   4.767   4.402   6.985  0.0357 -0.9333  0.1266
19707SOL    HW160889   4.842   4.343   6.969  0.8959 -0.0452  0.7711
19707SOL    HW260890   4.796   4.459   7.056 -0.5384  0.6870 -0.8903
19708SOL     OW60891   6.725   0.230   0.001 -0.2335 -0.4776  0.0170
19708SOL    HW160892   6.776   0.190  -0.069 -0.8491  0.4444 -0.9911
19708SOL    HW260893   6.741   0.324  -0.008 -0.4021 -0.3323  1.0579
19709SOL     OW60894   2.989   4.114   0.316  0.0332  0.0406 -0.1787
19709SOL    HW160895   3.024   4.126   0.404  0.0834 -1.4667  0.0407
19709SOL    HW260896   3.032   4.034   0.284 -1.5396 -0.6234 -0.7446
19710SOL     OW60897   9.081   5.197   0.399 -0.4913  0.0601 -0.3649
19710SOL    HW160898   9.015   5.242   0.453 -2.0994 -2.0572 -0.4239
19710SOL    HW260899   9.113   5.264   0.339 -3.4589  0.9975 -1.1009
19711SOL     OW60900   2.119   8.394   9.320  0.6594  0.1275 -0.8513
19711SOL    HW160901   2.076   8.462   9.372  3.6652  1.2043  0.4600
19711SOL    HW260902   2.060   8.319   9.325 -1.5910  1.8347 -0.2519
19712SOL     OW60903   7.541   6.198   9.048 -0.5253 -0.1216  0.4041
19712SOL    HW160904   7.465   6.235   9.005 -0.7838  0.1138  1.0573
19712SOL    HW260905   7.505   6.145   9.119 -0.0591  1.1398  1.6296
19713SOL     OW60906   5.210   5.205   9.731  0.0531 -0.5272 -0.5744
19713SOL    HW160907   5.175   5.208   9.821 -1.2972  0.9669 -1.0988
19713SOL    HW260908   5.158   5.137   9.688 -0.0591 -0.4723 -0.5265
19714SOL     OW60909   8.370   5.496   0.616 -0.6294  0.5097  0.1930
19714SOL    HW160910   8.442   5.522   0.675  0.8544  0.4533 -1.5180
19714SOL    HW260911   8.330   5.420   0.659  0.3157  0.5451  1.1892
19715SOL     OW60912   2.644   2.714   0.774 -0.3180  0.0749 -0.0560
19715SOL    HW160913   2.552   2.690   0.768 -0.0531 -1.0441  0.2650
19715SOL    HW260914   2.655   2.747   0.863 -0.0908 -1.2340  0.4211
19716SOL     OW60915   0.612   1.581   7.460  0.7505 -0.2308  0.3296
19716SOL    HW160916   0.700   1.617   7.447  1.5832 -1.7542  1.3487
19716SOL    HW260917   0.618   1.491   7.426 -0.7162 -0.0424 -0.5071
19717SOL     OW60918   6.147   6.240   1.053 -0.4278  0.4756  0.2682
19717SOL    HW160919   6.241   6.253   1.048 -0.4269  0.4850  0.3120
19717SOL    HW260920   6.124   6.198   0.970 -0.3110  0.0308  0.4578
19718SOL     OW60921   1.771   8.800   5.211  0.1963  0.2489  0.2944
19718SOL    HW160922   1.754   8.726   5.154 -0.4914  0.0402  0.7590
19718SOL    HW260923   1.838   8.769   5.272 -0.0400  0.0333  0.4441
19719SOL     OW60924   4.466   8.656   7.252 -0.2244 -0.3966  0.2959
19719SOL    HW160925   4.514   8.663   7.334 -0.6116  1.2214  0.4162
19719SOL    HW260926   4.521   8.600   7.196  0.1536 -1.3194  1.5462
19720SOL     OW60927   5.112   2.536   9.014 -0.3287 -0.1197 -0.5277
19720SOL    HW160928   5.164   2.464   8.979 -2.2808 -1.1020 -1.5342
19720SOL    HW260929   5.029   2.532   8.966 -0.0589  3.6474 -1.6082
19721SOL     OW60930   4.624   1.367   6.023  0.5244 -0.0186  0.1617
19721SOL    HW160931   4.617   1.458   5.996 -0.9376 -0.0779  0.2280
19721SOL    HW260932   4.718   1.352   6.035  0.6929  2.2297  2.6673
19722SOL     OW60933   7.680   3.224   1.388  0.6122 -0.3633 -0.1552
19722SOL    HW160934   7.680   3.136   1.425  0.7491 -0.8709 -1.3154
19722SOL    HW260935   7.739   3.218   1.313  1.0949  0.8798  0.1120
19723SOL     OW60936   0.872   7.663   2.492  0.2037 -0.3781 -0.4278
19723SOL    HW160937   0.936   7.599   2.524  1.0127 -1.2903 -3.5208
19723SOL    HW260938   0.919   7.714   2.426 -0.8346  2.6130  0.9570
19724SOL     OW60939   4.303   7.311   1.361 -0.2258 -0.1692 -0.1146
19724SOL    HW160940   4.256   7.239   1.319 -0.2587  0.3421 -0.9851
19724SOL    HW260941   4.240   7.348   1.422 -0.3327 -0.6392  0.0683
19725SOL     OW60942   9.651   0.175   5.153  0.1798  0.2911  0.1993
19725SOL    HW160943   9.605   0.248   5.194 -4.0916 -1.0683 -1.6243
19725SOL    HW260944   9.716   0.216   5.097  0.5080  2.4519  2.0125
19726SOL     OW60945   1.676   1.353   5.971  0.5125  0.2314  0.2358
19726SOL    HW160946   1.609   1.327   6.035  1.4915 -0.3624  1.0481
19726SOL    HW260947   1.685   1.277   5.914  0.2673  0.4386 -0.0866
19727SOL     OW60948   3.287   8.928   3.136  0.0443  0.1137 -0.4428
19727SOL    HW160949   3.218   8.991   3.113  2.3023  2.3663 -1.6509
19727SOL    HW260950   3.260   8.846   3.094 -2.3949  0.5723  0.0875
19728SOL     OW60951   0.581   9.097   7.560  0.5922  0.1960  0.7686
19728SOL    HW160952   0.599   9.004   7.544  1.4844  0.2756  1.2858
19728SOL    HW260953   0.495   9.111   7.520  0.9607 -0.5711 -0.3722
19729SOL     OW60954   5.939   8.962   4.510 -0.6285 -0.0336 -0.0490
19729SOL    HW160955   5.962   9.029   4.445  3.8160 -0.6902  0.5583
19729SOL    HW260956   5.955   9.004   4.594 -2.5188 -0.4409  0.5602
19730SOL     OW60957   8.801   3.482   8.291 -0.4953 -0.3261  0.0070
19730SOL    HW160958   8.710   3.509   8.307 -0.0642  2.2694 -1.4141
19730SOL    HW260959   8.811   3.484   8.196  0.9294 -1.1357  0.1041
19731SOL     OW60960   2.509   5.145   9.310  0.0940 -0.3458  0.0591
19731SOL    HW160961   2.480   5.234   9.291 -1.7767 -0.8734  0.2234
19731SOL    HW260962   2.605   5.150   9.309  0.0855  2.0663  1.9158
19732SOL     OW60963   9.623   2.129   0.654 -0.1812 -0.3922 -0.4000
19732SOL    HW160964   9.592   2.041   0.674  2.1055 -2.0011 -3.1458
19732SOL    HW260965   9.635   2.130   0.559  0.3066  2.7882 -0.4442
19733SOL     OW60966   6.001   5.702   6.523  0.3740 -0.0307 -0.2329
19733SOL    HW160967   5.975   5.623   6.571  0.4540  0.2418  0.2636
19733SOL    HW260968   5.937   5.709   6.452  1.1335 -1.2656 -1.0761
19734SOL     OW60969   7.337   1.909   6.497 -0.0663  0.0318  0.0998
19734SOL    HW160970   7.382   1.938   6.577 -1.2060  2.8225 -0.1842
19734SOL    HW260971   7.407   1.878   6.440  1.1604  1.2865  0.8643
19735SOL     OW60972   2.155   8.781   6.776  0.4323  0.6556  0.6049
19735SOL    HW160973   2.236   8.732   6.759 -0.4511 -0.5474 -0.3602
19735SOL    HW260974   2.087   8.731   6.731 -0.3631  3.5594 -1.7300
19736SOL     OW60975   4.248   3.785   3.215 -0.4425 -0.5149  0.4982
19736SOL    HW160976   4.203   3.706   3.247 -0.2130  0.0407  2.3040
19736SOL    HW260977   4.273   3.832   3.294  1.7405  0.1031 -0.4945
19737SOL     OW60978   3.603   5.845   3.615  0.2256 -0.5796 -0.1107
19737SOL    HW160979   3.609   5.755   3.646 -0.4534 -0.4730  0.3393
19737SOL    HW260980   3.566   5.894   3.688  0.0135 -0.0430 -0.5678
19738SOL     OW60981   3.366   5.540   0.049 -0.4158  0.4312  0.0471
19738SOL    HW160982   3.307   5.478   0.006 -1.1825  0.9498  0.3277
19738SOL    HW260983   3.319   5.567   0.128  0.3285  0.6259  0.4324
19739SOL     OW60984   4.900   1.320   6.065  0.2964  0.2318  0.1451
19739SOL    HW160985   4.965   1.365   6.119 -0.6875  0.8199  0.8825
19739SOL    HW260986   4.926   1.340   5.975  0.9651  0.6938  0.4304
19740SOL     OW60987   4.950   7.628   1.738  0.3953 -0.0271  0.1943
19740SOL    HW160988   5.019   7.565   1.761  0.2406  0.1719  1.2808
19740SOL    HW260989   4.950   7.630   1.643  1.5113 -0.4506  0.1679
19741SOL     OW60990   0.779   7.102   9.400  0.5716 -0.2889 -0.3166
19741SOL    HW160991   0.693   7.087   9.439 -1.0417  1.9094 -2.6865
19741SOL    HW260992   0.793   7.028   9.342 -0.9673  0.5292 -1.8091
19742SOL     OW60993   0.122   0.758   3.572 -0.1054  0.2314  0.2520
19742SOL    HW160994   0.144   0.849   3.589 -0.6230  0.2250  1.0260
19742SOL    HW260995   0.176   0.708   3.633 -0.5417  0.0848  0.5251
19743SOL     OW60996   3.409   3.382   9.536  0.0606 -0.5480 -0.1250
19743SOL    HW160997   3.465   3.325   9.483  0.9026  0.8163 -0.7687
19743SOL    HW260998   3.348   3.421   9.473  0.0212 -0.1281  0.1687
19744SOL     OW60999   5.347   7.102   0.358  0.0525 -0.2021  0.2589
19744SOL    HW161000   5.263   7.146   0.367 -1.3789 -3.0229  1.7156
19744SOL    HW261001   5.331   7.031   0.295  1.6256 -0.2025 -0.1931
19745SOL     OW61002   1.332   1.450   2.031 -0.3931 -0.0460 -0.1711
19745SOL    HW161003   1.310   1.370   1.982 -1.3703 -0.3543  0.7299
19745SOL    HW261004   1.384   1.419   2.105  0.1824  0.2917 -0.4317
19746SOL     OW61005   1.390   8.885   2.850 -0.0900 -0.1358  0.4652
19746SOL    HW161006   1.321   8.820   2.851  0.3275 -0.5951 -0.1360
19746SOL    HW261007   1.346   8.967   2.826 -0.9495  0.2284  2.9765
19747SOL     OW61008   4.968   5.037   3.619 -0.2992 -0.0258  0.2130
19747SOL    HW161009   4.955   4.945   3.641  0.7790 -0.3071 -0.2318
19747SOL    HW261010   4.940   5.085   3.697 -0.2622 -0.7756  0.6956
19748SOL     OW61011   4.344   8.720   5.092  0.5103 -0.1092  0.2520
19748SOL    HW161012   4.287   8.655   5.052 -0.2416 -0.6752  2.1725
19748SOL    HW261013   4.433   8.694   5.065  0.0273 -0.2653 -1.2766
19749SOL     OW61014   3.356   7.665   3.403  0.3995 -0.7935  0.3407
19749SOL    HW161015   3.286   7.718   3.441 -0.1293 -0.3812 -1.1506
19749SOL    HW261016   3.335   7.576   3.428  1.0487 -0.4030  2.4953
19750SOL     OW61017   7.115   3.367   0.782 -0.0744 -0.3105 -0.1960
19750SOL    HW161018   7.164   3.291   0.814  0.7940  0.6048  0.7050
19750SOL    HW261019   7.141   3.438   0.839 -0.2605  0.8704 -1.5276
19751SOL     OW61020   1.861   5.644   4.418  0.0570  0.1181  0.3250
19751SOL    HW161021   1.881   5.666   4.328 -1.5847  0.3214 -0.0341
19751SOL    HW261022   1.873   5.550   4.423  0.6682  0.1782  0.0413
19752SOL     OW61023   6.684   5.299   6.480 -0.1226 -0.4454  0.5189
19752SOL    HW161024   6.613   5.307   6.417 -0.8548  1.7738  1.5305
19752SOL    HW261025   6.639   5.283   6.564  0.6721 -0.5833  0.9261
19753SOL     OW61026   9.768   2.609   1.229 -0.1736  0.0796 -0.2724
19753SOL    HW161027   9.750   2.554   1.153 -0.2038 -1.2205  0.6315
19753SOL    HW261028   9.844   2.662   1.205  0.8304 -1.4801 -0.6431
19754SOL     OW61029   0.123   1.943   7.871 -0.3715 -0.4146  0.3691
19754SOL    HW161030   0.177   2.003   7.820 -1.4703 -0.6761 -1.1862
19754SOL    HW261031   0.071   2.001   7.928  0.0763 -0.0325  0.3966
19755SOL     OW61032   6.534   5.733   7.483 -0.5772 -0.0700 -0.2285
19755SOL    HW161033   6.612   5.755   7.433 -1.4637  0.2782 -1.4966
19755SOL    HW261034   6.525   5.803   7.547  0.2198 -0.1936  0.0286
19756SOL     OW61035   7.867   1.490   2.833  0.0666  0.0536  0.5118
19756SOL    HW161036   7.804   1.421   2.810 -0.6816  1.0485 -0.5134
19756SOL    HW261037   7.858   1.500   2.928 -1.3604  0.1907  0.3836
19757SOL     OW61038   1.391   8.412   7.914 -0.7332  0.4735 -0.5330
19757SOL    HW161039   1.485   8.392   7.908 -0.9060 -0.0356 -2.4327
19757SOL    HW261040   1.368   8.443   7.826 -2.5900 -0.5857 -0.4764
19758SOL     OW61041   0.551   6.319   0.785  0.6969 -0.1659 -0.0991
19758SOL    HW161042   0.471   6.367   0.761 -0.8126 -1.5876  1.7146
19758SOL    HW261043   0.569   6.262   0.710  0.3081  0.5227 -0.7269
19759SOL     OW61044   8.538   9.326   8.095 -0.2208 -0.4393 -0.4889
19759SOL    HW161045   8.518   9.235   8.071  0.3676 -0.3641 -1.2819
19759SOL    HW261046   8.606   9.318   8.162  0.5939 -0.5641 -1.3186
19760SOL     OW61047   0.626   9.682   9.186  0.4520  0.0619 -0.3579
19760SOL    HW161048   0.709   9.716   9.219 -0.0783 -0.5119  1.6969
19760SOL    HW261049   0.629   9.588   9.204 -0.2644 -0.1241 -1.1120
19761SOL     OW61050   6.956   8.218   3.642 -0.2765  0.1186 -0.0604
19761SOL    HW161051   7.020   8.193   3.709  2.1841  1.3460 -1.8201
19761SOL    HW261052   6.901   8.284   3.684 -0.1387 -0.6176  1.3410
19762SOL     OW61053   2.228   8.613   0.408  0.1384  0.2524  0.4788
19762SOL    HW161054   2.322   8.596   0.402 -0.0990 -0.6980 -0.7633
19762SOL    HW261055   2.186   8.531   0.381 -1.0397  1.2963 -1.0320
19763SOL     OW61056   4.880   7.754   6.847 -0.3089 -0.4891 -0.2950
19763SOL    HW161057   4.937   7.765   6.772 -2.1730 -1.9265 -2.0231
19763SOL    HW261058   4.865   7.843   6.879  0.7930  0.1230 -1.3924
19764SOL     OW61059   6.808   3.469   2.821 -0.0905 -0.6123 -0.4221
19764SOL    HW161060   6.752   3.392   2.831  1.5269 -1.9154 -1.0020
19764SOL    HW261061   6.896   3.434   2.809  0.6338  1.3185 -1.1934
19765SOL     OW61062   6.649   3.435   5.178  0.9222  0.0386  0.5069
19765SOL    HW161063   6.697   3.357   5.203 -1.0478 -1.3173  0.3343
19765SOL    HW261064   6.641   3.428   5.082  0.4679  0.2666  0.5246
19766SOL     OW61065   6.420   7.616   4.039 -0.7954  0.1515  0.3064
19766SOL    HW161066   6.479   7.688   4.060 -0.1349 -0.7822  1.9013
19766SOL    HW261067   6.336   7.658   4.020 -0.1796  1.3757  0.2032
19767SOL     OW61068   1.084   3.275   7.316  0.4385 -0.4776  0.2279
19767SOL    HW161069   1.086   3.201   7.377 -0.4993 -1.5602 -0.9937
19767SOL    HW261070   1.110   3.237   7.232  1.5502  0.9538 -0.1021
19768SOL     OW61071   8.889   0.014   3.923  0.5917 -0.4809  0.3469
19768SOL    HW161072   8.834  -0.063   3.909  1.2075 -1.0158  0.7574
19768SOL    HW261073   8.834   0.088   3.899 -0.2681 -1.0028  0.6632
19769SOL     OW61074   5.936   1.798   5.073 -0.1948  0.6901  0.3698
19769SOL    HW161075   5.852   1.834   5.102 -0.8636 -0.4724 -0.0809
19769SOL    HW261076   5.920   1.705   5.060  0.4880  0.8402 -2.1475
19770SOL     OW61077   1.971   1.823   8.502  0.1069  0.1211  0.5664
19770SOL    HW161078   1.889   1.818   8.454  0.4694 -2.4426  0.0757
19770SOL    HW261079   2.017   1.898   8.464 -1.0882  0.2685 -0.6458
19771SOL     OW61080   9.820   8.199   1.448 -0.0647 -0.4747 -0.4755
19771SOL    HW161081   9.810   8.294   1.443 -2.0440 -0.6037 -0.0883
19771SOL    HW261082   9.897   8.180   1.395 -0.1708  1.2522 -1.3335
19772SOL     OW61083   6.859   3.499   9.657  0.0062  0.3258  0.2434
19772SOL    HW161084   6.915   3.559   9.705  1.5242 -2.0505  1.5981
19772SOL    HW261085   6.915   3.424   9.636 -0.9309  0.5404 -4.0737
19773SOL     OW61086   8.575   3.567   7.289  0.3177 -0.4384 -0.1396
19773SOL    HW161087   8.582   3.574   7.385  0.6434 -2.3392  0.0206
19773SOL    HW261088   8.634   3.635   7.256  1.1140 -0.5200  1.0281
19774SOL     OW61089   8.522   1.540   2.753  0.6658  0.5355  0.0548
19774SOL    HW161090   8.615   1.562   2.756  0.8572 -0.1497 -0.6384
19774SOL    HW261091   8.482   1.612   2.704  0.9150  0.5588 -0.1172
19775SOL     OW61092   8.619   1.886   5.297 -0.2982  0.3261  0.4425
19775SOL    HW161093   8.677   1.809   5.295  0.0641  0.6082 -0.2575
19775SOL    HW261094   8.532   1.850   5.284 -0.0263  0.1171 -0.9631
19776SOL     OW61095   7.066   9.173   5.728  0.5135  0.5667 -0.1895
19776SOL    HW161096   7.161   9.161   5.721  0.6699  1.0927  0.8966
19776SOL    HW261097   7.051   9.264   5.702  0.5165  0.9931  1.2209
19777SOL     OW61098   5.621   1.056   6.192  0.5431  0.4714 -0.1606
19777SOL    HW161099   5.586   1.004   6.119 -0.6541 -1.1024  1.4416
19777SOL    HW261100   5.678   1.120   6.150  1.7104 -1.7938 -2.3396
19778SOL     OW61101   8.930   0.428   1.812  0.0718  0.3953 -0.1204
19778SOL    HW161102   8.882   0.486   1.753 -0.1901 -2.1179 -2.5779
19778SOL    HW261103   9.022   0.440   1.788  0.1964  1.1106  0.6748
19779SOL     OW61104   0.346   5.953   1.961  0.1196 -0.8497 -0.4563
19779SOL    HW161105   0.402   5.883   1.927  0.7428 -1.1151  1.0285
19779SOL    HW261106   0.283   5.909   2.018  1.0394 -0.1773  1.1639
19780SOL     OW61107   5.146   8.314   4.993  0.6822  0.4159  0.7073
19780SOL    HW161108   5.207   8.254   5.035  0.9483 -0.2910 -0.6331
19780SOL    HW261109   5.201   8.384   4.957  0.3555  1.6439  2.4609
19781SOL     OW61110   8.808   4.930   5.046  0.1318  0.3092  0.0985
19781SOL    HW161111   8.844   4.953   5.131 -0.6663 -1.2677  0.8825
19781SOL    HW261112   8.780   5.014   5.009  0.5417  1.0157  1.3375
19782SOL     OW61113   8.897   7.804   9.653  0.2022  0.1064 -0.2978
19782SOL    HW161114   8.968   7.756   9.695 -0.7498 -0.9487  0.1941
19782SOL    HW261115   8.903   7.893   9.686 -0.2909 -0.6012  1.8431
19783SOL     OW61116   2.084   3.373   5.653  0.3055  0.0869 -0.5069
19783SOL    HW161117   2.021   3.352   5.722  2.3741 -1.9580  0.8781
19783SOL    HW261118   2.060   3.313   5.581 -0.2896  0.4445 -0.6170
19784SOL     OW61119   1.468   1.079   3.702 -0.4302 -0.1632  0.2069
19784SOL    HW161120   1.480   1.168   3.668 -2.7809 -0.3689 -1.4063
19784SOL    HW261121   1.497   1.022   3.631 -2.0343 -0.6259 -0.1186
19785SOL     OW61122   8.429   6.443   1.645  0.5584 -0.3300  0.4088
19785SOL    HW161123   8.471   6.361   1.671  0.8741 -0.5232 -0.6709
19785SOL    HW261124   8.498   6.509   1.654  0.9452 -0.5487 -0.7790
19786SOL     OW61125   6.498   0.609   5.297 -0.1766  0.6224  0.3075
19786SOL    HW161126   6.564   0.560   5.346 -2.5332 -0.7100  2.4367
19786SOL    HW261127   6.516   0.701   5.317  0.3852  0.2196  1.7619
19787SOL     OW61128   0.274   9.603   3.885  0.3143 -0.1524  0.4407
19787SOL    HW161129   0.179   9.588   3.886  0.6618 -2.9414  0.4840
19787SOL    HW261130   0.300   9.600   3.977  0.6702 -1.5174  0.3152
19788SOL     OW61131   3.894   9.728   6.513  0.1907 -0.5287 -0.1021
19788SOL    HW161132   3.847   9.676   6.579  3.4476  0.0327  3.0038
19788SOL    HW261133   3.857   9.816   6.521 -0.0240 -0.6583  0.4189
19789SOL     OW61134   4.292   2.271   2.973 -0.1631  0.0971 -0.1841
19789SOL    HW161135   4.270   2.309   2.888 -1.7920 -0.9474 -0.2689
19789SOL    HW261136   4.298   2.177   2.957  1.0819  0.0284  0.5583
19790SOL     OW61137   6.344   8.924   3.622  0.0499 -0.0892  0.0523
19790SOL    HW161138   6.388   8.904   3.705  0.8460  2.2776  0.2678
19790SOL    HW261139   6.252   8.900   3.638  0.2786 -0.1423  1.4510
19791SOL     OW61140   0.195   3.263   5.151  0.0206 -0.8564  0.0965
19791SOL    HW161141   0.162   3.222   5.231  0.2565 -0.6821  0.2855
19791SOL    HW261142   0.278   3.304   5.177  0.9785 -2.2736 -0.6282
19792SOL     OW61143   5.533   2.258   8.652 -0.5051 -0.3894  0.0272
19792SOL    HW161144   5.481   2.313   8.594 -0.1810  1.9733  1.8140
19792SOL    HW261145   5.469   2.210   8.704 -0.8069 -0.7579 -0.6727
19793SOL     OW61146   5.726   1.755   8.195 -0.3824 -0.0923 -0.3036
19793SOL    HW161147   5.742   1.741   8.289 -0.3402 -0.2882 -0.3403
19793SOL    HW261148   5.702   1.847   8.189  0.8305  0.2355 -0.2615
19794SOL     OW61149   0.658   5.280   7.142  0.7256  0.3034 -0.1499
19794SOL    HW161150   0.632   5.263   7.233  1.0541 -0.6394 -0.2166
19794SOL    HW261151   0.625   5.204   7.094  2.7278 -0.4584 -0.3914
19795SOL     OW61152   7.878   4.656   6.821 -0.2346 -0.0178  0.0183
19795SOL    HW161153   7.961   4.657   6.869 -1.1276 -2.5018  1.8348
19795SOL    HW261154   7.812   4.673   6.889 -1.3708 -0.7833 -0.8650
19796SOL     OW61155   8.113   9.096   6.931  0.9594  0.3692  0.2954
19796SOL    HW161156   8.118   9.001   6.925  0.2600  0.4415 -2.4740
19796SOL    HW261157   8.043   9.113   6.994  2.4312 -0.8668  2.3807
19797SOL     OW61158   9.441   6.110   4.359 -0.2308 -0.0337 -0.4893
19797SOL    HW161159   9.429   6.092   4.452 -0.7309  0.2048 -0.5038
19797SOL    HW261160   9.524   6.158   4.354 -0.7766  0.9734 -0.0329
19798SOL     OW61161   7.166   6.656   3.767 -0.2844  0.4232  0.1477
19798SOL    HW161162   7.175   6.606   3.686  0.2404  0.0262  0.4502
19798SOL    HW261163   7.118   6.597   3.826  0.6878  0.1007  0.6411
19799SOL     OW61164   7.128   0.769   7.447 -0.3809  0.3224 -0.0523
19799SOL    HW161165   7.046   0.803   7.483 -0.2716 -0.0626  0.5911
19799SOL    HW261166   7.106   0.740   7.359 -0.7272  1.0337 -0.2014
19800SOL     OW61167   4.252   6.058   6.189 -0.5195 -0.5319 -0.2980
19800SOL    HW161168   4.159   6.046   6.170 -0.2195  0.1888 -2.5001
19800SOL    HW261169   4.254   6.106   6.272 -2.1643  1.0851 -1.1424
19801SOL     OW61170   0.285   8.148   4.419  0.5431  0.0133 -0.1314
19801SOL    HW161171   0.271   8.066   4.467 -0.0875  0.4796  0.4939
19801SOL    HW261172   0.244   8.134   4.334  0.4023 -0.3067 -0.0105
19802SOL     OW61173   8.170   3.511   4.213 -0.4958 -0.2025 -0.3567
19802SOL    HW161174   8.168   3.573   4.286 -2.1383  2.4917 -2.4634
19802SOL    HW261175   8.263   3.499   4.194 -0.0564  2.7057 -0.5769
19803SOL     OW61176   2.410   5.063   3.783 -0.2843  0.6345  0.7394
19803SOL    HW161177   2.332   5.012   3.761 -0.2213  1.0604 -0.5791
19803SOL    HW261178   2.468   5.002   3.827 -1.0798  0.1260  1.0872
19804SOL     OW61179   2.974   3.790   1.860  0.2277  0.1109 -0.0766
19804SOL    HW161180   2.912   3.738   1.910 -1.1049  0.8700 -0.8942
19804SOL    HW261181   3.011   3.730   1.796  1.6518 -0.7720  1.4988
19805SOL     OW61182   7.598   8.500   8.948 -0.1649 -0.0573 -0.0457
19805SOL    HW161183   7.542   8.577   8.952  0.8873  0.6814  1.3592
19805SOL    HW261184   7.684   8.534   8.925  0.3190 -0.8000  0.6032
19806SOL     OW61185   0.447   2.398   8.047 -0.1547  0.4815 -0.4525
19806SOL    HW161186   0.443   2.349   8.129  0.6956  1.0424 -0.0671
19806SOL    HW261187   0.518   2.461   8.059  1.1153 -0.5112 -2.2271
19807SOL     OW61188   8.612   5.983   9.143  0.0743 -0.1092 -0.4912
19807SOL    HW161189   8.574   6.071   9.142  0.3733  0.1436  2.4208
19807SOL    HW261190   8.541   5.926   9.173 -0.1702 -0.9651 -2.5242
19808SOL     OW61191   3.102   7.518   1.662  0.0697 -0.4320 -0.1475
19808SOL    HW161192   3.074   7.595   1.612  1.7277 -0.0157 -0.4925
19808SOL    HW261193   3.198   7.520   1.657  0.1817 -1.7768  0.9744
19809SOL     OW61194   8.433   3.339   8.852  0.5144  0.6133  0.0008
19809SOL    HW161195   8.526   3.344   8.870  0.5463 -1.7812  0.8686
19809SOL    HW261196   8.394   3.302   8.931 -1.1712  1.3946 -0.3980
19810SOL     OW61197   6.842   7.966   7.882  0.1202  0.2038 -0.1057
19810SOL    HW161198   6.928   7.959   7.924 -0.4614 -0.6144  0.9911
19810SOL    HW261199   6.816   8.057   7.896  0.6426  0.3562 -0.1053
19811SOL     OW61200   6.990   5.787   6.009 -0.2173 -0.4628 -0.2430
19811SOL    HW161201   7.043   5.800   5.931 -0.7483 -1.6839 -0.8362
19811SOL    HW261202   7.050   5.744   6.071 -0.4179 -1.6660 -0.8449
19812SOL     OW61203   9.453   6.722   3.335 -0.6301 -0.0722  0.3627
19812SOL    HW161204   9.488   6.778   3.405  1.4658 -0.8505  0.0121
19812SOL    HW261205   9.529   6.703   3.280 -1.5346 -2.2395 -0.2253
19813SOL     OW61206   8.945   3.909   4.744  0.4116  0.2481  0.5515
19813SOL    HW161207   8.962   3.841   4.808  1.0699 -0.4159 -0.3010
19813SOL    HW261208   8.914   3.984   4.795 -1.0960 -0.9299  1.4190
19814SOL     OW61209   5.727   8.465   9.735  0.0003 -0.1601 -0.1320
19814SOL    HW161210   5.700   8.377   9.762 -0.8992  0.7169  2.1279
19814SOL    HW261211   5.646   8.515   9.736  0.7036  0.9931  0.0079
19815SOL     OW61212   9.772   3.496   7.213 -0.1267 -0.3484  0.4907
19815SOL    HW161213   9.781   3.515   7.120 -1.2355  1.0243  0.6267
19815SOL    HW261214   9.781   3.582   7.255  0.2660 -0.9374  1.6496
19816SOL     OW61215   7.127   9.792   5.252  0.3623  0.1599  0.3015
19816SOL    HW161216   7.129   9.798   5.157 -0.0331 -1.3538  0.1744
19816SOL    HW261217   7.216   9.814   5.280  0.6881 -0.1555 -0.4676
19817SOL     OW61218   5.092   1.277   1.882  0.2092  0.0555 -0.1129
19817SOL    HW161219   5.141   1.213   1.933  0.3478  0.5197  0.3534
19817SOL    HW261220   5.002   1.269   1.913  0.2861  0.3088  0.1824
19818SOL     OW61221   3.017   4.037   9.847  0.2765  0.0860 -0.4157
19818SOL    HW161222   3.007   4.129   9.871  0.0895 -0.0542  0.0577
19818SOL    HW261223   2.961   4.026   9.770  1.3137  0.6711 -1.2795
19819SOL     OW61224   0.227   1.896   7.370  0.6705  0.2337  0.4492
19819SOL    HW161225   0.308   1.848   7.355  1.3660  0.7750  2.2448
19819SOL    HW261226   0.158   1.830   7.361  1.0528  0.1457 -3.1285
19820SOL     OW61227   0.599   5.636   4.707  0.0226 -0.6440  0.1727
19820SOL    HW161228   0.686   5.610   4.738 -0.4587 -1.2442  1.0565
19820SOL    HW261229   0.552   5.554   4.696 -0.4208 -0.3266 -0.3878
19821SOL     OW61230   0.899   5.622   9.631 -0.0928  0.4082  0.0834
19821SOL    HW161231   0.878   5.552   9.569  1.9776  1.4205 -1.9067
19821SOL    HW261232   0.841   5.694   9.606 -0.5824  0.2042  0.6049
19822SOL     OW61233   8.983   2.767   7.403  0.4774 -0.5805 -0.2439
19822SOL    HW161234   8.970   2.740   7.312  0.1551  0.3469 -0.4817
19822SOL    HW261235   9.059   2.825   7.400  0.8403 -1.0226  0.1809
19823SOL     OW61236   9.051   3.266   3.927  0.1312 -0.0994  0.1489
19823SOL    HW161237   9.013   3.286   4.013 -1.8724  0.9840 -0.9197
19823SOL    HW261238   9.113   3.337   3.912 -1.1573  1.0048 -0.2052
19824SOL     OW61239   1.146   9.237   7.427  0.2234 -0.4489 -0.2577
19824SOL    HW161240   1.218   9.294   7.400  0.3800 -0.9339 -0.8656
19824SOL    HW261241   1.128   9.182   7.351 -0.8999 -0.2321 -0.1676
19825SOL     OW61242   9.297   1.919   3.803 -0.0924  0.1172  0.1458
19825SOL    HW161243   9.370   1.869   3.766 -0.1881  1.9221 -2.8533
19825SOL    HW261244   9.220   1.865   3.786  0.2677 -0.7479  1.1916
19826SOL     OW61245   0.628   5.382   3.410  0.9177 -0.5315  0.1433
19826SOL    HW161246   0.609   5.301   3.362  0.8397  0.1055 -0.9290
19826SOL    HW261247   0.583   5.450   3.361 -1.2164 -0.1046  2.4473
19827SOL     OW61248   5.523   2.171   0.155  0.2742  0.1265 -0.9962
19827SOL    HW161249   5.606   2.217   0.145 -0.7518  2.4041  0.1782
19827SOL    HW261250   5.456   2.239   0.145 -1.3231 -0.7724  2.1707
19828SOL     OW61251   6.115   5.153   1.995  0.2000 -0.1107  0.0616
19828SOL    HW161252   6.120   5.130   2.087  0.6244  2.3133  0.7140
19828SOL    HW261253   6.185   5.104   1.953  0.7802 -0.3158  1.2550
19829SOL     OW61254   4.123   6.341   4.109  0.0988 -0.3998 -0.3873
19829SOL    HW161255   4.035   6.352   4.147  0.9153 -0.5672  1.6732
19829SOL    HW261256   4.133   6.246   4.099  0.2606 -0.4224 -0.0371
19830SOL     OW61257   6.095   3.629   6.521  0.1272  0.1496  0.5309
19830SOL    HW161258   6.074   3.686   6.447  2.7060  1.0741  0.4191
19830SOL    HW261259   6.078   3.682   6.599  0.7282  0.4168  0.4827
19831SOL     OW61260   5.840   4.810   1.655  0.2486 -0.1080 -0.6064
19831SOL    HW161261   5.922   4.848   1.687  0.2847  1.5157 -2.4266
19831SOL    HW261262   5.814   4.748   1.723  0.8461  2.2988  2.0234
19832SOL     OW61263   5.005   7.972   5.015  0.5063 -0.3638 -0.0417
19832SOL    HW161264   5.013   7.978   4.920  0.9310 -1.4603 -0.0893
19832SOL    HW261265   4.948   7.897   5.030  1.6606 -1.1567  0.5759
19833SOL     OW61266   4.227   4.285   9.114  0.1392  0.5588  0.3018
19833SOL    HW161267   4.313   4.314   9.144  0.0248  1.1319  0.0850
19833SOL    HW261268   4.210   4.206   9.166  0.2064  1.1979  1.3307
19834SOL     OW61269   9.613   1.034   9.353 -0.0534 -0.1672  0.0963
19834SOL    HW161270   9.678   0.964   9.362  0.8610  0.4336 -1.4542
19834SOL    HW261271   9.584   1.029   9.262  0.1403  1.5278 -0.1021
19835SOL     OW61272   1.812   6.170   9.387 -0.1349  0.4655  0.1765
19835SOL    HW161273   1.871   6.214   9.326 -1.7934  1.0923 -1.0625
19835SOL    HW261274   1.790   6.237   9.452 -1.1063  0.9060 -0.5794
19836SOL     OW61275   4.899   3.206   6.935  0.1705 -0.4518 -0.0614
19836SOL    HW161276   4.836   3.194   6.864 -0.2972 -0.5086  0.3558
19836SOL    HW261277   4.913   3.119   6.971  0.6779 -0.4751 -0.3083
19837SOL     OW61278   8.409   4.047   6.124  0.4088  0.1312  0.0849
19837SOL    HW161279   8.504   4.060   6.128  0.3816  0.5369 -0.4493
19837SOL    HW261280   8.376   4.085   6.205  0.4606  2.4153 -0.8822
19838SOL     OW61281   6.097   8.422   3.705 -0.1797 -0.0004 -0.2577
19838SOL    HW161282   6.037   8.440   3.632  0.0584  1.6768 -0.0948
19838SOL    HW261283   6.164   8.491   3.698  0.0394 -0.0093  1.3409
19839SOL     OW61284   0.359   8.345   7.769  0.0588  0.0821  0.4352
19839SOL    HW161285   0.364   8.390   7.685 -2.4557  1.3942  0.8977
19839SOL    HW261286   0.310   8.265   7.751 -0.8396  0.5648  0.7132
19840SOL     OW61287   4.925   1.984   4.345 -0.4134  0.2145  0.1430
19840SOL    HW161288   5.016   1.955   4.355 -0.5176 -0.1090  0.1644
19840SOL    HW261289   4.898   2.009   4.433 -1.3837 -2.7804  0.8221
19841SOL     OW61290   6.533   8.258   8.372  0.1076 -0.0528  0.2156
19841SOL    HW161291   6.532   8.277   8.278 -0.7641 -0.8374  0.0518
19841SOL    HW261292   6.445   8.277   8.402  0.5255  0.7204  1.0069
19842SOL     OW61293   6.029   0.561   2.328  0.5925  0.3229  0.6415
19842SOL    HW161294   6.024   0.573   2.422  0.3982 -0.3400  0.7171
19842SOL    HW261295   6.022   0.650   2.292 -1.2632  0.4419  1.1669
19843SOL     OW61296   5.459   6.451   7.723  0.6755  0.5061  0.4948
19843SOL    HW161297   5.409   6.371   7.707  0.0629  1.3280 -2.1542
19843SOL    HW261298   5.551   6.422   7.724  0.3563 -0.6184  2.7299
19844SOL     OW61299   8.591   2.000   0.670 -0.1763  0.5359  0.2259
19844SOL    HW161300   8.567   1.989   0.762  2.6657 -0.0867  0.9660
19844SOL    HW261301   8.644   1.923   0.649 -0.6012  0.7529 -1.9034
19845SOL     OW61302   2.744   8.976   6.735 -0.3499 -0.2840 -0.2835
19845SOL    HW161303   2.655   8.979   6.698 -0.2283  0.1430 -0.5405
19845SOL    HW261304   2.731   8.986   6.830 -0.5430  0.2553 -0.3635
19846SOL     OW61305   5.713   7.642   7.084  0.0470  0.0849 -0.3196
19846SOL    HW161306   5.625   7.673   7.064  0.2392  0.3707 -0.7418
19846SOL    HW261307   5.722   7.561   7.035 -0.1360 -0.1746  0.0732
19847SOL     OW61308   0.660   9.485   0.519 -1.2426  0.4022  0.7667
19847SOL    HW161309   0.652   9.559   0.458 -1.5450  1.0764  1.6066
19847SOL    HW261310   0.749   9.492   0.554 -0.5974 -0.7558 -0.5409
19848SOL     OW61311   8.832   2.310   3.588 -0.0848 -0.3422  0.0445
19848SOL    HW161312   8.899   2.374   3.611 -1.4111  0.8500  0.7758
19848SOL    HW261313   8.878   2.226   3.588  1.6943  0.5784 -0.9023
19849SOL     OW61314   3.346   6.106   2.259  0.8843 -0.2532 -0.0388
19849SOL    HW161315   3.269   6.101   2.315  1.5096  0.3478  0.9136
19849SOL    HW261316   3.420   6.103   2.321  1.6100 -0.4161 -0.8970
19850SOL     OW61317   3.704   0.282   8.339  0.0134 -0.6076 -0.0411
19850SOL    HW161318   3.664   0.269   8.253  0.7708 -0.6484 -0.3903
19850SOL    HW261319   3.766   0.354   8.327 -1.3261  0.7816  0.9616
19851SOL     OW61320   4.079   6.588   1.906 -0.4861  0.0360  0.0473
19851SOL    HW161321   4.022   6.538   1.965  0.1391 -0.0823  0.5677
19851SOL    HW261322   4.129   6.645   1.964  1.1599 -1.0860 -0.1999
19852SOL     OW61323   4.100   0.217   0.054  0.0505  0.3752  0.4296
19852SOL    HW161324   4.092   0.297   0.002  0.2271  0.0199 -0.1509
19852SOL    HW261325   4.012   0.178   0.050  0.4168 -0.3769 -0.8052
19853SOL     OW61326   1.506   2.018   4.576 -0.1588 -0.6177  0.5148
19853SOL    HW161327   1.531   1.936   4.533  1.3173 -1.0573  2.0992
19853SOL    HW261328   1.500   1.995   4.669 -1.1892  0.7608  0.8191
19854SOL     OW61329   2.889   9.010   5.186 -0.6354 -0.1197 -0.3524
19854SOL    HW161330   2.898   8.943   5.118 -2.0407 -0.2336 -0.4576
19854SOL    HW261331   2.795   9.012   5.205 -0.4199  0.7949  0.6979
19855SOL     OW61332   4.506   9.770   0.350 -0.4327  0.3085  0.1822
19855SOL    HW161333   4.459   9.850   0.375 -0.2618  0.7334 -0.8139
19855SOL    HW261334   4.456   9.734   0.277 -0.3909 -0.3874  0.4908
19856SOL     OW61335   9.061   8.740   3.731 -0.2132  0.0264 -0.6632
19856SOL    HW161336   9.006   8.670   3.767  0.6266 -1.4298 -2.1000
19856SOL    HW261337   9.004   8.787   3.671 -1.0181  1.1680  0.9052
19857SOL     OW61338   7.020   5.647   7.058 -0.1861 -0.6605 -0.0181
19857SOL    HW161339   7.114   5.636   7.068 -0.1384 -0.2723 -0.0270
19857SOL    HW261340   6.989   5.671   7.146 -0.2468 -0.5950 -0.0569
19858SOL     OW61341   0.421   8.743   6.921  0.1245 -0.1055 -0.1187
19858SOL    HW161342   0.486   8.775   6.858  0.6107  1.8064  1.2587
19858SOL    HW261343   0.472   8.714   6.996 -0.5381  2.0113  1.2449
19859SOL     OW61344   1.993   0.720   9.040 -0.1456  0.0287 -0.1503
19859SOL    HW161345   1.920   0.664   9.067  1.7493 -2.1029  0.8451
19859SOL    HW261346   2.013   0.691   8.951 -0.7542  0.9473 -0.6093
19860SOL     OW61347   4.734   3.942   7.402  0.4966  0.1971 -0.4466
19860SOL    HW161348   4.713   3.952   7.309 -0.6870 -0.7718 -0.2989
19860SOL    HW261349   4.694   4.019   7.444  0.5591  0.3480 -0.6631
19861SOL     OW61350   6.814   9.727   2.672 -0.0467 -0.1856 -0.0320
19861SOL    HW161351   6.804   9.719   2.578 -0.1824 -0.7599  0.0239
19861SOL    HW261352   6.822   9.636   2.703 -1.9583 -0.1462  0.7336
19862SOL     OW61353   5.719   3.301   1.039 -0.1629 -0.3557 -0.2447
19862SOL    HW161354   5.738   3.217   0.998 -0.1472 -0.9514  0.9183
19862SOL    HW261355   5.794   3.317   1.096 -0.5534  0.0158  0.1789
19863SOL     OW61356   2.356   9.710   6.897  0.1362  0.4890  0.4470
19863SOL    HW161357   2.397   9.758   6.969  1.0001 -0.6153  0.7231
19863SOL    HW261358   2.270   9.685   6.930  0.4413  0.1830  1.0221
19864SOL     OW61359   6.415   7.919   0.446  0.1430  0.4125  0.1925
19864SOL    HW161360   6.417   7.885   0.357  1.9587  1.0282 -0.0534
19864SOL    HW261361   6.324   7.942   0.462 -0.2111  0.2645 -1.5030
19865SOL     OW61362   6.221   6.678   8.621 -0.0856  0.2125 -0.3931
19865SOL    HW161363   6.242   6.768   8.595 -0.6314  0.0612 -1.3740
19865SOL    HW261364   6.126   6.676   8.626 -0.0537 -0.1899  0.1037
19866SOL     OW61365   2.892   0.025   1.967 -0.2270  0.0418 -0.7190
19866SOL    HW161366   2.965  -0.002   2.022 -0.8841  0.2422  0.2774
19866SOL    HW261367   2.856  -0.057   1.933 -0.1088 -0.1124 -0.4720
19867SOL     OW61368   1.010   3.938   1.520 -0.1355  0.0917 -0.2627
19867SOL    HW161369   1.094   3.947   1.565 -0.3914  0.0430  0.2308
19867SOL    HW261370   1.033   3.916   1.430  0.3698 -0.5714  0.0255
19868SOL     OW61371   7.773   2.947   6.442 -0.3513 -0.2802  0.2789
19868SOL    HW161372   7.841   2.995   6.490 -0.4486  0.4944 -0.3355
19868SOL    HW261373   7.756   3.001   6.365 -0.9434 -0.9821 -0.0929
19869SOL     OW61374   9.586   6.281   8.702  0.3039 -0.0216 -0.1648
19869SOL    HW161375   9.584   6.224   8.779 -0.5669  0.1322 -0.0710
19869SOL    HW261376   9.573   6.222   8.628  0.8547 -0.1306 -0.1806
19870SOL     OW61377   8.270   7.879   1.284 -0.1088  0.3077 -0.5459
19870SOL    HW161378   8.324   7.932   1.343 -0.8779  0.6189 -0.1032
19870SOL    HW261379   8.324   7.803   1.263  0.7241  0.9036 -0.5922
19871SOL     OW61380   2.097   1.996   6.791 -0.0350  0.0122  0.6888
19871SOL    HW161381   2.037   1.922   6.778  1.8037 -1.2116 -1.6162
19871SOL    HW261382   2.095   2.044   6.708 -1.0283  2.5327  2.0676
19872SOL     OW61383   9.785   1.521   2.784  0.1146 -0.7988 -0.0070
19872SOL    HW161384   9.770   1.468   2.706  0.5055  0.4044 -0.9366
19872SOL    HW261385   9.880   1.535   2.785 -0.1840  2.2362 -1.4735
19873SOL     OW61386   1.639   1.095   2.110  0.3021  0.0817  0.1152
19873SOL    HW161387   1.705   1.027   2.096  0.3374 -0.1733  1.4491
19873SOL    HW261388   1.565   1.049   2.151  0.1566  0.7654  0.6290
19874SOL     OW61389   0.709   2.489   5.574  0.1118  0.0075  0.2736
19874SOL    HW161390   0.694   2.503   5.667  2.3971 -0.6315  0.8113
19874SOL    HW261391   0.626   2.511   5.532 -0.4883  1.9238  2.2813
19875SOL     OW61392   6.726   9.278   9.668  0.2227 -0.1609 -0.0567
19875SOL    HW161393   6.705   9.212   9.602  1.1089 -0.4816 -0.0308
19875SOL    HW261394   6.772   9.347   9.620 -0.0518  0.0958  0.0453
19876SOL     OW61395   2.484   7.916   0.190  0.0006  0.4171 -0.5673
19876SOL    HW161396   2.417   7.876   0.134 -2.3930  0.8760  1.7815
19876SOL    HW261397   2.531   7.841   0.228  0.2481  0.0709 -1.5099
19877SOL     OW61398   6.509   2.941   3.367  0.0086  0.2141 -0.0426
19877SOL    HW161399   6.541   2.905   3.450 -1.6003 -1.2432  0.0205
19877SOL    HW261400   6.522   2.870   3.304 -1.1218  0.3273 -0.4354
19878SOL     OW61401   3.524   9.100   9.288 -0.2390  0.1584  0.3187
19878SOL    HW161402   3.567   9.018   9.315 -2.3877 -1.2192 -0.1568
19878SOL    HW261403   3.466   9.121   9.362 -0.3360  0.7682  0.0706
19879SOL     OW61404   2.206   4.573   9.399  0.0389 -0.2747  0.4914
19879SOL    HW161405   2.164   4.634   9.340 -0.5434 -1.5650 -0.4855
19879SOL    HW261406   2.230   4.625   9.475 -1.1282  0.9954  0.0244
19880SOL     OW61407   7.255   4.131   7.416  0.4440 -0.2880 -0.3962
19880SOL    HW161408   7.263   4.218   7.457  0.6608 -0.0208 -0.9898
19880SOL    HW261409   7.170   4.132   7.373  0.6781 -0.1656 -0.8622
19881SOL     OW61410   0.748   4.967   4.702  0.1584 -0.3010 -0.1804
19881SOL    HW161411   0.801   4.924   4.635 -1.3379  0.9714 -2.2999
19881SOL    HW261412   0.758   5.060   4.684 -1.4336  0.0179  0.4432
19882SOL     OW61413   8.612   1.534   7.177 -0.3690 -0.3774  0.3984
19882SOL    HW161414   8.538   1.507   7.232 -0.2745 -1.0728  0.1935
19882SOL    HW261415   8.592   1.624   7.152 -0.8798 -0.3787  0.7901
19883SOL     OW61416   9.544   1.274   6.254 -1.0034 -0.4989  0.0111
19883SOL    HW161417   9.471   1.225   6.216  0.0182 -1.6413 -0.5454
19883SOL    HW261418   9.578   1.218   6.323  0.1655 -0.5856 -0.6141
19884SOL     OW61419   8.159   2.313   8.589  0.2320  0.1637 -0.0791
19884SOL    HW161420   8.198   2.225   8.586 -2.3404 -1.0534 -2.0860
19884SOL    HW261421   8.231   2.370   8.616  1.9401 -2.5499  1.6576
19885SOL     OW61422   4.641   9.536   2.657 -0.3590  0.4239 -0.2974
19885SOL    HW161423   4.598   9.591   2.723  0.5826  0.9744 -0.1309
19885SOL    HW261424   4.693   9.474   2.708 -0.9494 -0.2572 -0.5012
19886SOL     OW61425   5.867   6.212   8.101  0.1972  0.5630 -0.0178
19886SOL    HW161426   5.814   6.288   8.077 -1.9517 -0.7948  0.1494
19886SOL    HW261427   5.875   6.162   8.020  1.2952  0.7558 -0.0472
19887SOL     OW61428   3.587   3.620   8.297 -0.1539  0.4720 -0.1119
19887SOL    HW161429   3.534   3.647   8.222  1.2249 -0.4578 -1.4592
19887SOL    HW261430   3.646   3.693   8.312  1.2675 -0.3209 -1.5812
19888SOL     OW61431   8.182   0.161   0.578  0.3858  0.2723  0.6319
19888SOL    HW161432   8.160   0.069   0.573 -1.0560  0.6311 -0.2246
19888SOL    HW261433   8.246   0.175   0.509  1.1212 -0.2101  1.2099
19889SOL     OW61434   7.570   8.190   9.351 -0.2476 -0.7127  0.1794
19889SOL    HW161435   7.501   8.128   9.327 -1.4810  0.3484  0.8514
19889SOL    HW261436   7.571   8.254   9.280 -0.2639 -0.4834  0.3831
19890SOL     OW61437   3.921   1.591   4.821  0.0998  0.1025 -0.4500
19890SOL    HW161438   3.956   1.563   4.905 -0.8229 -0.3280 -0.1936
19890SOL    HW261439   3.903   1.510   4.774 -2.0571  0.2083  0.0695
19891SOL     OW61440   3.652   0.836   4.995  0.0134  0.7314  0.5092
19891SOL    HW161441   3.688   0.748   4.983  1.2520  0.9842  2.0233
19891SOL    HW261442   3.561   0.829   4.967  0.4045 -0.7227 -0.5092
19892SOL     OW61443   4.316   5.611   6.955  0.4095  0.1140 -0.3073
19892SOL    HW161444   4.403   5.632   6.921 -0.4208  0.4017 -2.4366
19892SOL    HW261445   4.317   5.643   7.045  2.2828  0.6940 -0.4897
19893SOL     OW61446   2.603   0.153   6.945  0.3283  0.2867 -0.2990
19893SOL    HW161447   2.636   0.064   6.943  0.0618  0.1711  0.2850
19893SOL    HW261448   2.626   0.189   6.859  0.4291 -0.3404 -0.5395
19894SOL     OW61449   3.682   1.847   3.139 -0.4433  0.3470  0.0163
19894SOL    HW161450   3.753   1.786   3.119  0.4450  1.8831 -1.8124
19894SOL    HW261451   3.632   1.803   3.207  0.6488 -2.0225 -0.5935
19895SOL     OW61452   1.719   7.655   9.732  0.4504 -0.4266 -0.2229
19895SOL    HW161453   1.750   7.619   9.815  1.5549  0.5877 -0.1717
19895SOL    HW261454   1.787   7.632   9.669  0.4558  0.2743 -0.4853
19896SOL     OW61455   6.583   3.238   0.240  0.0328 -0.5384 -0.3455
19896SOL    HW161456   6.562   3.245   0.333 -1.6498 -2.5882 -0.4945
19896SOL    HW261457   6.498   3.240   0.196  0.7639 -0.1824 -1.8012
19897SOL     OW61458   2.087   3.363   7.146  0.3944 -0.3427  0.0430
19897SOL    HW161459   2.121   3.435   7.092  1.9082 -0.8686  0.2464
19897SOL    HW261460   2.141   3.288   7.122  0.4233 -0.8319  1.5573
19898SOL     OW61461   2.053   5.099   2.230 -0.7220 -0.1903  0.0011
19898SOL    HW161462   2.010   5.028   2.183 -2.4341  0.4362  0.5547
19898SOL    HW261463   2.006   5.105   2.313  2.4725 -1.5806  2.1182
19899SOL     OW61464   0.927   2.696   5.628 -0.1051 -0.4872  0.6967
19899SOL    HW161465   0.847   2.694   5.680 -0.2084  0.7131  0.6120
19899SOL    HW261466   0.902   2.734   5.545  0.5622 -0.0216  0.6972
19900SOL     OW61467   1.000   1.146   9.739 -0.7711  0.0312 -0.1342
19900SOL    HW161468   0.956   1.090   9.803 -1.0786  0.2541 -0.1479
19900SOL    HW261469   1.088   1.159   9.774 -0.5653 -0.7624 -0.3096
19901SOL     OW61470   0.301   3.637   7.898  0.5820 -0.3104 -0.5031
19901SOL    HW161471   0.242   3.573   7.859 -0.6394  1.5864 -1.9087
19901SOL    HW261472   0.323   3.600   7.984 -1.6520 -1.6761 -0.4454
19902SOL     OW61473   0.023   9.031   7.532 -0.7015  0.6759 -0.5483
19902SOL    HW161474  -0.047   9.001   7.474 -2.8745  1.7548  1.3570
19902SOL    HW261475   0.031   8.961   7.597 -0.9843  1.1403 -0.0018
19903SOL     OW61476   1.942   8.908   1.673  0.8540  0.1047 -0.1903
19903SOL    HW161477   1.887   8.862   1.737  1.3898  1.4840  1.3322
19903SOL    HW261478   1.966   8.841   1.609 -2.3372 -0.6191 -0.7857
19904SOL     OW61479   0.769   6.473   9.617 -0.2010  0.1842 -0.4593
19904SOL    HW161480   0.699   6.510   9.563  0.6661  0.0939 -1.6817
19904SOL    HW261481   0.754   6.379   9.616  0.7465  0.0290 -1.9268
19905SOL     OW61482   3.658   3.936   3.003  0.8777 -0.6484  0.1550
19905SOL    HW161483   3.564   3.940   2.984  1.1061 -0.4578 -0.9845
19905SOL    HW261484   3.663   3.933   3.099 -0.2818 -0.5150  0.2312
19906SOL     OW61485   5.917   5.298   6.915 -0.0784 -0.5519  0.3063
19906SOL    HW161486   5.981   5.246   6.964 -0.8150 -0.7023  1.1394
19906SOL    HW261487   5.868   5.234   6.864 -0.3296 -0.5674  0.5660
19907SOL     OW61488   7.466   4.216   7.159 -0.0324  0.0566 -0.6547
19907SOL    HW161489   7.473   4.295   7.212 -0.8391  1.2147 -2.1622
19907SOL    HW261490   7.433   4.247   7.074 -0.6976 -1.9409 -1.1959
19908SOL     OW61491   7.440   5.689   7.659  0.2217 -0.5304  0.8427
19908SOL    HW161492   7.503   5.686   7.586 -1.6228 -1.2383 -0.8144
19908SOL    HW261493   7.453   5.606   7.705  0.4283 -0.7192  0.4577
19909SOL     OW61494   2.753   7.008   7.693 -0.6848  0.0577 -0.3010
19909SOL    HW161495   2.778   6.953   7.618 -0.3560  1.5658 -1.3423
19909SOL    HW261496   2.715   7.086   7.654 -0.0536  1.1102  1.0839
19910SOL     OW61497   7.969   4.274   0.386 -0.2057  0.4116 -0.1201
19910SOL    HW161498   7.981   4.366   0.413 -2.1529  0.6160  0.1847
19910SOL    HW261499   7.954   4.227   0.468 -0.5382  0.0636 -0.3771
19911SOL     OW61500   2.510   5.541   9.589 -0.3397  0.4489  0.4182
19911SOL    HW161501   2.418   5.517   9.595 -0.1959 -0.2493 -0.0721
19911SOL    HW261502   2.553   5.488   9.656 -0.1889  0.2458  0.1590
19912SOL     OW61503   2.460   1.507   0.971  0.1290 -0.0150  0.7085
19912SOL    HW161504   2.543   1.539   1.005  2.0750 -1.0853 -2.6015
19912SOL    HW261505   2.427   1.580   0.918  0.5494 -0.6167 -0.4167
19913SOL     OW61506   9.202   3.704   3.199 -0.3015  0.0831  0.2515
19913SOL    HW161507   9.274   3.648   3.229 -0.8018  0.2567  1.8653
19913SOL    HW261508   9.210   3.784   3.250 -2.0301 -0.1684  0.9981
19914SOL     OW61509   6.272   6.230   3.546 -0.3025 -0.1000  0.0368
19914SOL    HW161510   6.245   6.143   3.576  0.0846 -0.6583 -1.1915
19914SOL    HW261511   6.263   6.227   3.451  1.2739  0.6446 -0.1719
19915SOL     OW61512   4.639   2.091   6.460 -0.1438  0.3558  0.9665
19915SOL    HW161513   4.726   2.123   6.435 -0.4624  0.1420 -0.5062
19915SOL    HW261514   4.655   2.004   6.496  0.1554 -0.2004 -0.4556
19916SOL     OW61515   6.916   7.246   1.105  0.8314 -0.2437  0.1172
19916SOL    HW161516   6.999   7.291   1.119  0.2746  1.3190 -1.3170
19916SOL    HW261517   6.931   7.157   1.140  1.7861  1.1174  3.6314
19917SOL     OW61518   7.083   4.953   6.940  0.3036  0.2445  0.7736
19917SOL    HW161519   7.069   4.964   7.034 -1.8536  1.8345  0.3553
19917SOL    HW261520   7.005   4.909   6.908  1.6170 -1.5715 -0.1432
19918SOL     OW61521   9.070   0.810   5.835 -0.0657 -0.1387 -0.2988
19918SOL    HW161522   9.162   0.784   5.838  0.3748  1.2883 -0.8323
19918SOL    HW261523   9.062   0.878   5.902 -0.7176 -0.2090 -0.3024
19919SOL     OW61524   6.221   5.256   4.077 -0.5032  0.4472  0.1523
19919SOL    HW161525   6.165   5.178   4.080 -0.3659  0.3202 -0.3994
19919SOL    HW261526   6.291   5.237   4.140 -0.4856  0.1353  0.0420
19920SOL     OW61527   7.793   1.127   3.530  0.0982 -0.1125 -0.1281
19920SOL    HW161528   7.736   1.177   3.472 -0.4433 -1.5933 -0.9420
19920SOL    HW261529   7.743   1.119   3.611 -0.4700 -0.6025 -0.5155
19921SOL     OW61530   9.343   6.944   4.357  0.4602  0.1983  0.7915
19921SOL    HW161531   9.320   6.876   4.421 -3.1269 -0.2332 -0.7223
19921SOL    HW261532   9.305   7.024   4.394 -1.4770 -0.0220 -0.5527
19922SOL     OW61533   4.645   3.109   8.548  0.2283 -0.0169  0.2569
19922SOL    HW161534   4.716   3.120   8.484 -0.1156  4.8056  0.3322
19922SOL    HW261535   4.680   3.148   8.629 -1.1440 -1.2977  1.5236
19923SOL     OW61536   0.136   1.789   4.801  0.2267 -0.5329  0.4289
19923SOL    HW161537   0.089   1.824   4.877  0.1744 -0.1379  0.2183
19923SOL    HW261538   0.199   1.727   4.838 -1.6567 -2.4873  0.6207
19924SOL     OW61539   3.111   3.306   8.668 -0.3540  0.7375  0.0673
19924SOL    HW161540   3.162   3.233   8.632 -0.3403  1.5450 -1.6157
19924SOL    HW261541   3.097   3.282   8.760  2.5620  0.2216  0.4600
19925SOL     OW61542   2.557   3.244   3.069 -0.1322  0.4230 -0.7169
19925SOL    HW161543   2.466   3.270   3.084 -0.0638  0.3093 -0.0618
19925SOL    HW261544   2.574   3.178   3.135  0.0767 -0.4157 -1.5957
19926SOL     OW61545   7.097   7.505   0.689  0.0902 -0.0180 -0.3262
19926SOL    HW161546   7.183   7.463   0.698 -0.2629 -0.7850 -0.4877
19926SOL    HW261547   7.069   7.523   0.779 -1.0366 -2.7757 -0.0423
19927SOL     OW61548   3.591   0.406   6.735  0.2521  0.3267 -0.0113
19927SOL    HW161549   3.662   0.402   6.671  0.6965  2.2090  0.2948
19927SOL    HW261550   3.628   0.457   6.808 -0.6089 -0.8109  1.2535
19928SOL     OW61551   2.934   7.549   3.640  0.4258  0.1576  0.3838
19928SOL    HW161552   2.854   7.580   3.683  0.2783  1.6361 -0.8838
19928SOL    HW261553   2.989   7.516   3.712 -0.8033  0.2781  1.4019
19929SOL     OW61554   6.054   1.543   6.023  0.0386  0.3265  0.1899
19929SOL    HW161555   5.988   1.526   6.091 -1.8289  0.9476 -1.3913
19929SOL    HW261556   6.010   1.523   5.941  3.1063 -3.3215 -0.8657
19930SOL     OW61557   9.532   0.415   1.754 -0.1874 -0.2172  0.4919
19930SOL    HW161558   9.566   0.378   1.836 -2.2560  0.4691  1.7442
19930SOL    HW261559   9.516   0.507   1.775 -1.0993 -0.1220 -0.5638
19931SOL     OW61560   5.424   0.411   7.979  0.0666 -0.2613 -0.1396
19931SOL    HW161561   5.500   0.446   7.931  0.5790 -0.2361  0.6732
19931SOL    HW261562   5.402   0.330   7.933  0.5141 -0.2072 -0.4572
19932SOL     OW61563   8.192   5.643   0.124 -0.1862  0.4006  0.0106
19932SOL    HW161564   8.204   5.610   0.214 -1.1892 -0.3197 -0.1018
19932SOL    HW261565   8.280   5.644   0.088  0.3146  1.2894  1.1980
19933SOL     OW61566   5.022   1.496   2.834 -0.2082  0.0890 -0.1032
19933SOL    HW161567   4.950   1.450   2.791  1.5078 -2.1208 -0.7997
19933SOL    HW261568   5.080   1.522   2.763  0.2132  0.9305  0.5224
19934SOL     OW61569   6.408   4.702   6.759  0.0318  0.0422  0.1301
19934SOL    HW161570   6.458   4.668   6.685  1.4755 -1.6563  1.7903
19934SOL    HW261571   6.346   4.633   6.780  0.1537  0.1764  0.9724
19935SOL     OW61572   8.729   8.555   0.664 -0.2524 -0.3470  0.4440
19935SOL    HW161573   8.706   8.531   0.754 -2.3888  0.6949  0.2343
19935SOL    HW261574   8.814   8.597   0.671 -0.2907 -0.4674  1.9581
19936SOL     OW61575   6.931   5.103   6.492  0.5466  0.0409 -0.1633
19936SOL    HW161576   6.929   5.194   6.462  2.6079 -0.2917 -1.5286
19936SOL    HW261577   6.917   5.108   6.586  0.6988  1.7996 -0.2044
19937SOL     OW61578   6.819   9.116   3.860 -0.3908 -0.5424  0.3509
19937SOL    HW161579   6.879   9.136   3.931  0.5452  0.4305 -0.6822
19937SOL    HW261580   6.844   9.175   3.789 -4.4040  2.1593  0.7970
19938SOL     OW61581   0.852   1.202   4.969  1.2130  0.3739 -0.0547
19938SOL    HW161582   0.758   1.212   4.952  1.3204 -0.3705 -1.1821
19938SOL    HW261583   0.891   1.188   4.883  2.5756  2.1401  0.2269
19939SOL     OW61584   9.023   6.445   1.459 -0.2730  0.1128 -0.0426
19939SOL    HW161585   8.939   6.400   1.465 -1.9492  2.8846 -0.7845
19939SOL    HW261586   9.040   6.453   1.365  1.4963 -1.4560  0.0919
19940SOL     OW61587   7.955   6.786   0.311  0.4274  0.2081  0.6449
19940SOL    HW161588   7.996   6.761   0.228  1.7545 -0.1757  1.3860
19940SOL    HW261589   7.908   6.707   0.338 -1.7786  0.9569 -0.7065
19941SOL     OW61590   8.308   8.011   7.197 -0.4181 -0.6511  0.9565
19941SOL    HW161591   8.372   8.081   7.212 -2.0358  1.1120  0.0323
19941SOL    HW261592   8.361   7.931   7.189  1.6103  0.6576  0.7057
19942SOL     OW61593   7.862   3.343   2.993  0.2771  0.0178 -0.4509
19942SOL    HW161594   7.919   3.420   2.994  2.0367 -1.2170  1.1715
19942SOL    HW261595   7.799   3.358   3.063 -0.8484  0.9380 -1.6065
19943SOL     OW61596   4.789   6.929   8.022  0.0778 -0.3456 -0.1166
19943SOL    HW161597   4.856   6.865   8.000 -1.4022 -2.8284  1.9523
19943SOL    HW261598   4.827   6.980   8.094 -0.2697 -2.0494  1.3745
19944SOL     OW61599   0.223   6.469   1.759 -0.1816 -0.1180  0.2492
19944SOL    HW161600   0.148   6.423   1.720 -0.3372  1.1130 -0.9847
19944SOL    HW261601   0.297   6.410   1.745 -0.2832  0.1675 -1.7332
19945SOL     OW61602   4.615   1.523   1.081 -0.6770  0.0529 -0.5054
19945SOL    HW161603   4.610   1.488   0.992 -0.3560 -0.8448 -0.1812
19945SOL    HW261604   4.681   1.592   1.075  1.4328 -1.8403 -0.4113
19946SOL     OW61605   7.929   4.482   4.159  0.1897 -0.1171  0.0609
19946SOL    HW161606   7.947   4.536   4.081 -0.1878 -0.8929 -0.5791
19946SOL    HW261607   7.989   4.409   4.152 -0.3998 -0.6093  0.0650
19947SOL     OW61608   9.809   6.113   0.347 -0.3703  0.4462  0.2723
19947SOL    HW161609   9.791   6.023   0.373 -1.0223  0.9687  1.7922
19947SOL    HW261610   9.888   6.109   0.294  0.0670 -0.9173  1.0117
19948SOL     OW61611   5.631   2.232   6.290 -0.4111  0.7078  0.1866
19948SOL    HW161612   5.639   2.141   6.261 -1.9504  0.2666  1.0564
19948SOL    HW261613   5.538   2.242   6.310 -0.3468  2.6136 -0.3189
19949SOL     OW61614   4.077   7.029   0.872 -0.5874 -0.3817  0.6118
19949SOL    HW161615   4.147   6.969   0.898  0.0355  0.1694  0.2611
19949SOL    HW261616   4.016   7.029   0.946  0.7461  0.5517  1.7667
19950SOL     OW61617   5.304   4.379   2.354  0.3120 -0.0767  0.0292
19950SOL    HW161618   5.280   4.310   2.291  1.4568  0.1895 -0.7276
19950SOL    HW261619   5.222   4.399   2.399 -0.2527 -1.2330 -0.4265
19951SOL     OW61620   0.182   5.867   3.532  0.0433  0.3505  0.1919
19951SOL    HW161621   0.215   5.856   3.621 -1.8738  2.3168  1.2348
19951SOL    HW261622   0.249   5.920   3.487  0.9569 -0.5462  0.4561
19952SOL     OW61623   2.244   1.948   4.462 -0.1389  0.0101 -0.1010
19952SOL    HW161624   2.183   1.980   4.529 -0.5429  0.7521 -0.7987
19952SOL    HW261625   2.288   2.027   4.431  1.9695 -0.6120  1.1015
19953SOL     OW61626   0.815   8.454   0.569  0.0977 -0.5631 -0.4518
19953SOL    HW161627   0.722   8.457   0.547  0.0060 -1.8712 -0.3246
19953SOL    HW261628   0.848   8.540   0.543 -1.1115 -0.1247 -0.6259
19954SOL     OW61629   8.354   8.432   4.951 -0.1849  0.2093  0.0758
19954SOL    HW161630   8.294   8.476   5.012 -0.2917 -1.0140  0.8939
19954SOL    HW261631   8.422   8.396   5.008  0.5899  0.4113 -0.7115
19955SOL     OW61632   9.354   1.301   1.839 -0.0066  0.0474  0.1901
19955SOL    HW161633   9.446   1.318   1.816 -0.6030  1.2592 -1.4813
19955SOL    HW261634   9.326   1.233   1.779 -0.2742 -0.1590  0.5455
19956SOL     OW61635   4.190   6.791   2.041  0.1328  0.6034 -0.0411
19956SOL    HW161636   4.122   6.855   2.057 -0.9210  0.8046 -4.1210
19956SOL    HW261637   4.260   6.840   1.998  0.7651 -0.4011 -0.2046
19957SOL     OW61638   1.940   8.130   8.797  0.3877  0.2168 -0.0870
19957SOL    HW161639   1.983   8.051   8.829  1.4606 -0.4499 -2.8953
19957SOL    HW261640   2.011   8.189   8.774 -0.3919  1.9031  1.5345
19958SOL     OW61641   8.276   8.529   5.494 -0.5008  0.3512  0.2198
19958SOL    HW161642   8.195   8.561   5.534 -1.3795 -1.2383 -0.1986
19958SOL    HW261643   8.276   8.435   5.512  1.5863  0.3944  0.7369
19959SOL     OW61644   7.954   2.109   6.824 -0.5061  0.4676  0.0543
19959SOL    HW161645   7.872   2.062   6.844 -1.3913  1.3723 -1.2823
19959SOL    HW261646   7.928   2.176   6.761  1.1640  1.2330  0.1447
19960SOL     OW61647   4.252   4.828   9.067 -0.3570 -0.6951  0.1784
19960SOL    HW161648   4.235   4.748   9.117 -0.7244 -2.1106 -2.1034
19960SOL    HW261649   4.178   4.885   9.089 -0.4954 -1.2511  1.2501
19961SOL     OW61650   4.552   0.990   6.633 -0.2730  0.1157 -0.1506
19961SOL    HW161651   4.533   1.084   6.628  0.7364  0.3760  0.5733
19961SOL    HW261652   4.568   0.964   6.542  0.1196  0.7978 -0.2832
19962SOL     OW61653   0.563   1.089   9.370  0.1363  0.1087 -0.2726
19962SOL    HW161654   0.516   1.071   9.289 -2.0072 -2.7797  1.3980
19962SOL    HW261655   0.550   1.182   9.386 -0.4752  0.4723 -2.5514
19963SOL     OW61656   9.211   7.593   3.587  0.3456  0.1555  0.7879
19963SOL    HW161657   9.187   7.593   3.495  2.4896  1.0203  0.1692
19963SOL    HW261658   9.134   7.626   3.633 -1.0606 -1.0967 -0.5546
19964SOL     OW61659   8.443   1.589   5.980  0.3369  0.3098  0.2839
19964SOL    HW161660   8.504   1.556   5.914  0.1198  0.2785  0.0953
19964SOL    HW261661   8.496   1.598   6.059  0.4664 -0.2211  0.2659
19965SOL     OW61662   9.683   5.922   8.022 -0.2195  0.2699  0.0965
19965SOL    HW161663   9.739   5.979   7.969 -1.3283  0.3837 -1.0158
19965SOL    HW261664   9.606   5.907   7.967 -1.2835  0.1200  1.5630
19966SOL     OW61665   1.607   5.856   4.166  0.6950  0.5605  0.2873
19966SOL    HW161666   1.581   5.832   4.077  1.6001 -0.8515  0.3750
19966SOL    HW261667   1.594   5.776   4.218 -0.6566  1.5928  1.6429
19967SOL     OW61668   1.871   8.644   0.353 -0.1394 -0.1459  0.0703
19967SOL    HW161669   1.820   8.565   0.370  0.4008 -0.6487 -0.5642
19967SOL    HW261670   1.954   8.611   0.319  0.2087  0.6903  0.0997
19968SOL     OW61671   9.670   7.013   9.706 -0.4448  0.4079  0.0139
19968SOL    HW161672   9.634   6.966   9.630 -4.5482  1.0760  1.3027
19968SOL    HW261673   9.694   7.099   9.671  0.6951 -0.2876 -1.0346
19969SOL     OW61674   6.135   6.869   4.576  0.0866 -0.4863  0.5032
19969SOL    HW161675   6.084   6.789   4.588 -1.4699  0.5880  1.4623
19969SOL    HW261676   6.213   6.857   4.631  0.2542 -1.6310  0.0301
19970SOL     OW61677   9.554   0.177   9.008  0.4354  0.3414 -0.2562
19970SOL    HW161678   9.625   0.127   8.967  0.0074  0.3363 -1.0136
19970SOL    HW261679   9.509   0.113   9.063  1.0145  0.3437  0.2284
19971SOL     OW61680   3.917   6.949   7.131 -0.7582  0.1921  0.0759
19971SOL    HW161681   3.921   7.028   7.185 -1.5794 -0.2555  0.8104
19971SOL    HW261682   3.831   6.952   7.090  0.3543  1.2587 -2.4181
19972SOL     OW61683   6.583   1.261   7.266  0.0351  0.4943 -0.4051
19972SOL    HW161684   6.609   1.183   7.316 -1.5110  0.9623  1.2222
19972SOL    HW261685   6.662   1.285   7.217  1.1337 -0.9505  0.5552
19973SOL     OW61686   3.690   2.457   8.850 -0.8936 -0.1059  0.2834
19973SOL    HW161687   3.636   2.481   8.925 -0.7827 -0.7759  0.5866
19973SOL    HW261688   3.776   2.439   8.888 -0.9063 -0.7192  0.0357
19974SOL     OW61689   6.957   0.394   4.622  0.3701 -0.0892 -0.3947
19974SOL    HW161690   6.865   0.416   4.605  0.7823 -0.1462 -3.2090
19974SOL    HW261691   6.978   0.439   4.704 -2.4199 -0.9290  0.8980
19975SOL     OW61692   3.462   9.527   3.341  0.1930  0.4233  0.1671
19975SOL    HW161693   3.423   9.474   3.271  1.5375  0.9121 -1.0038
19975SOL    HW261694   3.519   9.589   3.295  2.1213 -0.0815  1.7516
19976SOL     OW61695   7.804   4.881   8.916 -0.0124 -0.0931 -0.3148
19976SOL    HW161696   7.884   4.828   8.913  1.1409  1.6141 -0.5549
19976SOL    HW261697   7.783   4.897   8.824 -1.6461 -1.9357 -0.3246
19977SOL     OW61698   8.417   5.800   4.365 -0.0989 -0.0442  0.1144
19977SOL    HW161699   8.430   5.796   4.270  0.7195 -2.0695  0.2481
19977SOL    HW261700   8.493   5.847   4.397  1.1840 -1.8715 -0.0593
19978SOL     OW61701   2.026   8.558   2.945  0.0648 -0.0048  0.5084
19978SOL    HW161702   2.058   8.601   2.866 -1.1796  1.7084  0.8970
19978SOL    HW261703   2.098   8.500   2.971  0.4337 -0.7456 -1.9333
19979SOL     OW61704   5.943   0.381   5.001 -0.1014  0.5089 -0.2613
19979SOL    HW161705   6.020   0.338   4.964  0.4280  1.6563 -0.5333
19979SOL    HW261706   5.875   0.369   4.935  0.0406  0.0894 -0.3315
19980SOL     OW61707   5.719   3.833   1.879  0.0406 -0.1967 -0.1245
19980SOL    HW161708   5.736   3.753   1.928  0.9870  0.0100 -0.0952
19980SOL    HW261709   5.747   3.814   1.790  1.2388  0.4106  0.1010
19981SOL     OW61710   9.598   2.114   7.107  0.4749 -0.8822  0.2317
19981SOL    HW161711   9.530   2.158   7.055  1.6342  0.0810 -0.5044
19981SOL    HW261712   9.556   2.099   7.192  0.5355  3.4011  1.2430
19982SOL     OW61713   2.095   6.285   9.621  0.0648  0.4378 -0.7003
19982SOL    HW161714   2.106   6.190   9.611  0.8565  0.3690  0.5735
19982SOL    HW261715   2.045   6.312   9.544 -1.8888 -1.3049 -0.1370
19983SOL     OW61716   8.357   9.214   9.404 -0.1696 -0.1268  0.1283
19983SOL    HW161717   8.448   9.217   9.430 -1.0264  1.2554  3.4537
19983SOL    HW261718   8.331   9.123   9.416  1.2202 -1.1577 -3.2896
19984SOL     OW61719   6.415   7.878   3.757 -0.1448 -0.0136 -0.0016
19984SOL    HW161720   6.466   7.948   3.717  0.0195 -0.0844  0.0855
19984SOL    HW261721   6.390   7.912   3.843 -0.4132  0.0978 -0.1192
19985SOL     OW61722   9.540   7.829   8.376  0.0389 -0.0615 -0.1106
19985SOL    HW161723   9.595   7.905   8.356  2.1404 -1.6656 -0.7635
19985SOL    HW261724   9.554   7.813   8.469 -1.6764  1.2442  0.4236
19986SOL     OW61725   7.705   8.246   4.496 -0.7967  0.2593 -0.3906
19986SOL    HW161726   7.667   8.193   4.426 -2.3435  1.8333 -0.8350
19986SOL    HW261727   7.792   8.210   4.510 -1.1786 -1.3068 -1.7962
19987SOL     OW61728   3.598   9.746   1.331  0.1281 -0.1788  0.1675
19987SOL    HW161729   3.671   9.731   1.271 -0.8091  0.0535 -1.0464
19987SOL    HW261730   3.576   9.658   1.363  0.4843 -0.3246  0.0205
19988SOL     OW61731   5.999   7.828   5.734  0.0064 -0.3558 -0.1532
19988SOL    HW161732   5.975   7.746   5.777  0.0808  1.0079  2.6567
19988SOL    HW261733   5.960   7.897   5.788 -1.0147  1.5046 -3.0260
19989SOL     OW61734   8.661   4.640   9.836  0.8323 -0.4767  0.3564
19989SOL    HW161735   8.593   4.686   9.885  0.8553 -0.6496  0.5489
19989SOL    HW261736   8.727   4.707   9.818  1.2343 -0.6069  1.3091
19990SOL     OW61737   1.985   7.331   1.654  0.1329 -0.1168  0.0506
19990SOL    HW161738   1.928   7.269   1.608  0.8865 -0.2948 -0.6569
19990SOL    HW261739   1.929   7.407   1.669  0.2165  0.5625 -2.4957
19991SOL     OW61740   3.455   6.735   1.859  0.0089  0.4374 -0.1943
19991SOL    HW161741   3.372   6.705   1.894 -0.1621 -3.3475 -3.1504
19991SOL    HW261742   3.520   6.673   1.892  0.4825 -0.6310 -2.8199
19992SOL     OW61743   6.777   9.553   1.990  0.0792  0.2728  0.8541
19992SOL    HW161744   6.848   9.552   1.925 -0.7425  0.9494 -0.0769
19992SOL    HW261745   6.732   9.469   1.977  0.5643 -0.0604  1.2950
19993SOL     OW61746   4.292   6.134   3.296  0.2252 -0.4231 -0.5014
19993SOL    HW161747   4.386   6.150   3.307  0.0246  1.1822 -0.8694
19993SOL    HW261748   4.250   6.185   3.365 -0.4936  1.0596 -1.9776
19994SOL     OW61749   3.468   0.895   7.152 -0.3319  0.1093  0.5006
19994SOL    HW161750   3.476   0.918   7.060  0.1217 -0.2779  0.4396
19994SOL    HW261751   3.395   0.949   7.184  0.3688  1.2348  0.2416
19995SOL     OW61752   2.871   0.172   0.746 -0.6043  0.1039  0.1909
19995SOL    HW161753   2.810   0.212   0.807 -2.5380  2.1008 -2.7772
19995SOL    HW261754   2.897   0.243   0.687 -0.5513 -1.9846 -2.5424
19996SOL     OW61755   3.084   2.581   9.808 -0.1545 -0.0695  0.5970
19996SOL    HW161756   3.012   2.643   9.794 -0.8817 -0.3189  2.8430
19996SOL    HW261757   3.066   2.510   9.746 -1.0465  0.5180  0.1529
19997SOL     OW61758   3.216   0.678   5.710 -0.2401  0.7242 -0.3086
19997SOL    HW161759   3.213   0.583   5.713 -0.8750  0.7669  0.7308
19997SOL    HW261760   3.236   0.698   5.618  0.1879 -0.4039 -0.4792
19998SOL     OW61761   0.304   9.210   9.225 -0.3301 -0.3219 -0.3790
19998SOL    HW161762   0.349   9.130   9.252 -0.2704  0.3929  1.8396
19998SOL    HW261763   0.373   9.264   9.185  0.5880  0.2275  1.8037
19999SOL     OW61764   8.077   1.819   6.144  0.6596  0.0674 -0.4382
19999SOL    HW161765   8.082   1.742   6.087 -0.4652 -1.4684  1.4062
19999SOL    HW261766   8.055   1.891   6.085  0.8782 -1.1730 -2.1134
20000SOL     OW61767   8.254   3.394   7.923 -0.3154  0.4553  0.2878
20000SOL    HW161768   8.173   3.420   7.878 -0.0730  1.4607  0.3950
20000SOL    HW261769   8.266   3.461   7.991 -0.3774 -0.7205  1.4970
20001SOL     OW61770   2.833   3.750   7.063  0.3095  0.3888  0.4040
20001SOL    HW161771   2.827   3.705   7.147 -0.6039 -0.5062 -0.1260
20001SOL    HW261772   2.810   3.684   6.998  0.9781  1.0765 -0.5567
20002SOL     OW61773   3.381   9.034   6.943  0.0226 -0.7770  0.0061
20002SOL    HW161774   3.321   9.058   7.013 -0.1837 -0.5980 -0.2324
20002SOL    HW261775   3.454   8.990   6.988  0.6416  0.7021  0.5128
20003SOL     OW61776   2.015   1.223   4.708  0.4252 -0.1077  0.3944
20003SOL    HW161777   1.971   1.167   4.644 -0.7186 -0.2478  1.2723
20003SOL    HW261778   2.050   1.296   4.656 -0.0919 -0.4435 -0.4421
20004SOL     OW61779   7.750   2.058   6.112 -0.0314 -0.4485  0.0054
20004SOL    HW161780   7.826   2.046   6.169  1.6416 -1.8030 -2.3162
20004SOL    HW261781   7.751   2.151   6.090 -0.0067 -0.1465  1.1984
20005SOL     OW61782   4.993   2.938   3.197 -0.0013  0.2904  0.0687
20005SOL    HW161783   5.027   2.864   3.147 -1.4667  0.2801 -0.9883
20005SOL    HW261784   4.942   2.989   3.134 -2.9941 -0.3936  1.7111
20006SOL     OW61785   8.503   9.824   6.478  0.1229 -0.1578  0.3443
20006SOL    HW161786   8.478   9.906   6.437  0.8838 -0.1509 -0.1329
20006SOL    HW261787   8.421   9.786   6.509 -0.4074  0.1122 -0.6797
20007SOL     OW61788   8.012   0.229   5.665 -0.3806 -0.2367  0.0584
20007SOL    HW161789   7.941   0.263   5.610 -0.0137 -0.9655 -0.8926
20007SOL    HW261790   8.092   0.251   5.617  0.0040 -0.1060  0.7431
20008SOL     OW61791   1.759   0.293   3.481 -0.0810 -0.3966 -0.3382
20008SOL    HW161792   1.784   0.383   3.502  2.1045 -0.3369 -2.6718
20008SOL    HW261793   1.666   0.288   3.502 -0.2120  2.3275  0.0791
20009SOL     OW61794   2.404   9.125   8.668  0.3040 -0.5142 -0.1060
20009SOL    HW161795   2.444   9.209   8.646 -1.1702 -0.3439 -2.3525
20009SOL    HW261796   2.381   9.133   8.761  0.8773  1.2512 -0.0842
20010SOL     OW61797   7.931   0.371   0.385  0.1108  0.5311  0.4150
20010SOL    HW161798   7.922   0.449   0.330 -0.2917 -0.0726 -0.4114
20010SOL    HW261799   8.011   0.328   0.353  1.0044  1.2018  1.6680
20011SOL     OW61800   1.559   3.047   2.836 -0.1511 -0.0418 -0.3179
20011SOL    HW161801   1.614   3.068   2.912  1.8098 -3.1347 -0.6836
20011SOL    HW261802   1.621   3.039   2.763 -1.5651 -0.2168 -1.5351
20012SOL     OW61803   3.185   1.062   2.290 -0.0089 -0.0617  0.2299
20012SOL    HW161804   3.258   1.004   2.312  0.9979  1.1623  0.2199
20012SOL    HW261805   3.107   1.015   2.321  0.7384 -1.5118  0.0217
20013SOL     OW61806   5.025   8.918   6.842 -0.4258 -0.6139  0.0064
20013SOL    HW161807   5.036   9.012   6.837 -2.1267 -0.3608  0.3450
20013SOL    HW261808   5.099   8.887   6.894 -0.3693  0.6545  0.6981
20014SOL     OW61809   6.166   9.137   4.808 -0.7527  0.2172  0.1118
20014SOL    HW161810   6.073   9.137   4.785 -1.2012 -1.5152  1.6458
20014SOL    HW261811   6.197   9.050   4.783  0.6460  0.9577 -0.8979
20015SOL     OW61812   5.635   0.587   6.991 -0.0526 -0.2395  0.1878
20015SOL    HW161813   5.583   0.587   6.911  1.1001 -0.2381 -0.5811
20015SOL    HW261814   5.691   0.663   6.983 -1.1214  0.7835  1.8317
20016SOL     OW61815   3.458   7.012   8.923  0.3015  0.1978  0.1186
20016SOL    HW161816   3.420   7.014   8.835 -1.0744  2.2335  0.6723
20016SOL    HW261817   3.431   6.927   8.959  1.3400 -0.8938 -1.5644
20017SOL     OW61818   8.857   2.404   0.739 -0.0432  0.5880  0.4906
20017SOL    HW161819   8.880   2.484   0.787 -1.1241  0.2405  1.6688
20017SOL    HW261820   8.908   2.335   0.781 -0.8648  0.3086  1.0595
20018SOL     OW61821   0.986   2.083   8.049  0.6953 -0.4133  0.9043
20018SOL    HW161822   1.046   2.154   8.073  0.2586 -0.0129  0.8148
20018SOL    HW261823   0.899   2.117   8.070  0.4120 -0.5843  0.0624
20019SOL     OW61824   7.457   7.691   7.378  0.6107 -0.3602  0.3054
20019SOL    HW161825   7.542   7.658   7.348 -0.0396 -0.4501 -1.5704
20019SOL    HW261826   7.425   7.624   7.437  1.4612 -0.7447  0.3509
20020SOL     OW61827   0.399   8.022   5.709 -0.4469  0.0827  0.2876
20020SOL    HW161828   0.324   8.067   5.748 -0.8129  0.1393 -0.4663
20020SOL    HW261829   0.448   8.091   5.665  0.0595  0.0443  0.7754
20021SOL     OW61830   3.701   5.416   4.271  0.6742 -0.3212  0.7427
20021SOL    HW161831   3.746   5.346   4.319 -1.4311 -1.3620  1.2998
20021SOL    HW261832   3.644   5.456   4.336  0.5235  0.7344 -0.0228
20022SOL     OW61833   0.736   5.942   4.037  0.0400 -0.5643 -0.0440
20022SOL    HW161834   0.745   5.869   3.976  0.5242  0.1303 -0.8015
20022SOL    HW261835   0.642   5.944   4.056 -0.1842 -0.5012 -1.1098
20023SOL     OW61836   5.024   5.417   2.960 -0.1046  0.0607 -0.2970
20023SOL    HW161837   4.959   5.479   2.994  0.4829 -0.0768  1.1414
20023SOL    HW261838   4.979   5.332   2.962 -0.2910  0.1530 -0.5000
20024SOL     OW61839   1.445   2.384   6.964  0.1522 -0.3946  0.2398
20024SOL    HW161840   1.493   2.379   7.046 -0.2805 -1.3322  0.4481
20024SOL    HW261841   1.401   2.469   6.966  1.2576  0.1848  0.3398
20025SOL     OW61842   0.168   0.049   4.727 -0.2070 -0.2231 -0.5719
20025SOL    HW161843   0.152   0.143   4.743  2.2056 -0.0090  1.0125
20025SOL    HW261844   0.241   0.027   4.784 -1.8357 -3.5559  0.4805
20026SOL     OW61845   5.523   9.707   2.863 -0.4787  0.5704 -0.2254
20026SOL    HW161846   5.439   9.748   2.884  0.5333  2.0748  1.1771
20026SOL    HW261847   5.587   9.755   2.916  1.0654 -1.6348  0.0375
20027SOL     OW61848   2.267   6.557   5.672  0.3690 -0.1765 -0.2389
20027SOL    HW161849   2.207   6.628   5.694 -0.5184 -0.8357 -0.5231
20027SOL    HW261850   2.352   6.601   5.660  0.3771  0.5367  1.9447
20028SOL     OW61851   1.342   2.495   5.492  0.2237 -0.0718  0.0425
20028SOL    HW161852   1.397   2.416   5.486 -0.8022 -0.9359  1.4838
20028SOL    HW261853   1.260   2.469   5.450  0.1299  0.4826 -0.1223
20029SOL     OW61854   7.017   8.172   9.229 -0.8255  0.0064  0.5384
20029SOL    HW161855   6.986   8.255   9.192 -0.6247 -0.2104 -0.1418
20029SOL    HW261856   6.938   8.125   9.254 -0.9704  0.1134  0.2841
20030SOL     OW61857   6.773   4.298   1.230  0.7447  0.4230 -0.5037
20030SOL    HW161858   6.819   4.281   1.312  1.0789 -1.9269 -1.1201
20030SOL    HW261859   6.831   4.266   1.162  0.2178  1.7979 -1.6586
20031SOL     OW61860   6.181   9.669   7.475  0.0177 -0.5006 -0.9795
20031SOL    HW161861   6.272   9.681   7.504 -0.3696 -0.7941  0.4173
20031SOL    HW261862   6.143   9.756   7.478  0.0900 -0.4679 -0.9969
20032SOL     OW61863   3.059   9.579   0.816 -0.0342 -0.0217 -0.2869
20032SOL    HW161864   3.079   9.672   0.819  3.1298 -0.6017 -0.7976
20032SOL    HW261865   3.054   9.553   0.908 -1.5247  0.6844 -0.1272
20033SOL     OW61866   9.650   3.156   4.720  0.0493  0.2357 -0.3856
20033SOL    HW161867   9.559   3.126   4.714 -0.5457  1.6052  1.0222
20033SOL    HW261868   9.678   3.130   4.808  1.1988 -0.5597 -0.9579
20034SOL     OW61869   0.226   8.799   6.646  0.1853  0.1751 -0.0409
20034SOL    HW161870   0.169   8.871   6.672 -0.3556  0.2785 -1.4440
20034SOL    HW261871   0.281   8.835   6.577  0.8106 -0.3984  0.1429
20035SOL     OW61872   5.893   5.804   4.386  0.1671  0.1821 -0.6981
20035SOL    HW161873   5.973   5.829   4.339  1.5286 -1.6801  0.5383
20035SOL    HW261874   5.923   5.775   4.472 -1.7506 -1.3144 -0.4728
20036SOL     OW61875   1.019   6.009   8.072 -0.3097  0.0372  0.5922
20036SOL    HW161876   0.964   5.947   8.120 -1.3458  0.2086 -0.3345
20036SOL    HW261877   0.988   6.004   7.981 -0.1801  1.6506  0.4320
20037SOL     OW61878   0.715   6.297   5.326 -0.0996 -0.8259  0.4595
20037SOL    HW161879   0.706   6.207   5.356  1.1480 -0.8657  0.7325
20037SOL    HW261880   0.797   6.328   5.363 -0.3466  0.3255  0.1047
20038SOL     OW61881   8.741   8.016   0.105 -0.4865  0.0415 -0.5225
20038SOL    HW161882   8.772   7.993   0.018 -0.3781 -1.4303 -0.1209
20038SOL    HW261883   8.646   8.023   0.097 -0.3267  2.1827 -1.2259
20039SOL     OW61884   5.314   9.091   5.654 -0.5818 -0.2930 -0.5779
20039SOL    HW161885   5.359   9.073   5.571 -0.1474 -1.1968 -0.1593
20039SOL    HW261886   5.357   9.170   5.688  1.7254 -1.9118  0.4991
20040SOL     OW61887   1.155   9.632   5.954 -0.2994 -0.2368 -0.2990
20040SOL    HW161888   1.165   9.600   5.864  1.8700  0.7362 -0.4755
20040SOL    HW261889   1.245   9.647   5.984 -1.0378  1.0790  1.4223
20041SOL     OW61890   0.759   7.765   6.109  0.1574 -0.5272  0.2625
20041SOL    HW161891   0.764   7.827   6.181 -0.8108  0.4759 -0.4960
20041SOL    HW261892   0.733   7.818   6.034 -2.2037 -2.0628 -0.1079
20042SOL     OW61893   9.406   1.943   6.733 -0.3201 -0.1321  0.5702
20042SOL    HW161894   9.458   1.898   6.666 -0.3604  0.8862 -0.1667
20042SOL    HW261895   9.445   1.915   6.816  1.4380  0.5902  0.0429
20043SOL     OW61896   5.282   2.416   1.078 -0.0330 -0.2674  0.0702
20043SOL    HW161897   5.246   2.387   1.162  0.1468 -0.8758 -0.0565
20043SOL    HW261898   5.314   2.336   1.036 -0.4203 -0.0188 -0.7273
20044SOL     OW61899   0.006   6.547   8.661 -0.0273 -0.0006  0.2789
20044SOL    HW161900  -0.080   6.559   8.702  0.0680  1.3999  0.1191
20044SOL    HW261901  -0.013   6.530   8.569 -0.2960 -4.1692  0.8805
20045SOL     OW61902   2.789   8.855   0.472  0.9265  0.0603 -0.0704
20045SOL    HW161903   2.720   8.920   0.487  0.1638  0.1889 -3.2588
20045SOL    HW261904   2.869   8.897   0.504  0.7031  3.3291 -3.0841
20046SOL     OW61905   6.365   0.673   3.463  0.0384 -0.3783 -0.2017
20046SOL    HW161906   6.394   0.741   3.524 -0.8715  1.2496 -1.5089
20046SOL    HW261907   6.443   0.621   3.446  0.6806  0.1217  1.1012
20047SOL     OW61908   9.598   5.545   4.655 -0.2211 -0.0196  0.0863
20047SOL    HW161909   9.611   5.467   4.600 -0.5460  0.1698 -0.2593
20047SOL    HW261910   9.655   5.611   4.616  0.9840 -0.4185  1.0932
20048SOL     OW61911   7.735   0.316   7.215  0.3128 -0.2214 -0.5388
20048SOL    HW161912   7.696   0.230   7.230  0.7207 -0.4860 -0.9783
20048SOL    HW261913   7.829   0.301   7.216  0.3840  0.1851 -0.8358
20049SOL     OW61914   1.833   3.917   6.170  0.2331 -0.0114 -0.5969
20049SOL    HW161915   1.748   3.958   6.156  0.5951  1.6662  1.5551
20049SOL    HW261916   1.835   3.844   6.109 -2.2441  0.6209 -1.5462
20050SOL     OW61917   3.322   1.542   6.962  0.0792 -0.0659 -0.2883
20050SOL    HW161918   3.403   1.522   7.009  0.6720 -0.9483 -1.6363
20050SOL    HW261919   3.351   1.586   6.882 -0.8759  0.9027 -0.1222
20051SOL     OW61920   5.259   9.344   7.313  0.4915 -0.1470  0.2823
20051SOL    HW161921   5.245   9.292   7.234 -2.1495  1.5488 -0.4744
20051SOL    HW261922   5.221   9.291   7.383  1.2400 -0.8541  0.1832
20052SOL     OW61923   7.255   0.156   6.075  0.0182  0.0281  0.7918
20052SOL    HW161924   7.202   0.213   6.019 -0.5940  0.6626  1.9669
20052SOL    HW261925   7.339   0.202   6.085 -0.4652  0.7564  1.7166
20053SOL     OW61926   3.571   8.939   7.123  0.6269 -0.2933  0.0887
20053SOL    HW161927   3.570   8.859   7.177 -0.5746 -1.6689 -1.8367
20053SOL    HW261928   3.652   8.933   7.073 -0.3097 -1.3476 -1.4013
20054SOL     OW61929   1.144   5.852   6.276 -0.0319 -0.3346 -0.0759
20054SOL    HW161930   1.058   5.823   6.308 -0.0412  0.3693  0.5429
20054SOL    HW261931   1.150   5.943   6.302  1.1965 -0.5607  0.4958
20055SOL     OW61932   9.154   1.405   3.635  0.4673  0.7424  0.5417
20055SOL    HW161933   9.237   1.421   3.590 -0.1128 -2.1641 -1.8423
20055SOL    HW261934   9.172   1.331   3.693 -0.3887  0.1060  0.0256
20056SOL     OW61935   8.709   1.573   4.583 -0.3989 -0.0742  0.3985
20056SOL    HW161936   8.768   1.642   4.614  0.5163 -1.0413  0.8733
20056SOL    HW261937   8.728   1.498   4.639 -3.6538  0.1887  2.1102
20057SOL     OW61938   5.563   0.441   6.090  0.2701 -0.8262 -0.6684
20057SOL    HW161939   5.484   0.452   6.143  1.1363 -0.0653  0.5323
20057SOL    HW261940   5.540   0.475   6.004 -0.2818  0.8366  0.0865
20058SOL     OW61941   4.845   6.326   7.990 -0.3763  0.0221 -0.0243
20058SOL    HW161942   4.816   6.255   8.047  1.8188  0.1519  1.3817
20058SOL    HW261943   4.781   6.328   7.920 -1.5747 -2.0751  0.9106
20059SOL     OW61944   6.925   4.049   3.181  0.4742  0.2387  0.2293
20059SOL    HW161945   6.933   3.961   3.218 -1.5543 -1.1001 -2.1770
20059SOL    HW261946   7.015   4.074   3.158  1.1309 -0.9851  1.3046
20060SOL     OW61947   2.294   3.185   9.383  0.5859 -0.3798  0.2575
20060SOL    HW161948   2.245   3.203   9.303  1.5594  0.4768 -0.1768
20060SOL    HW261949   2.229   3.156   9.446 -1.0055  3.5380  0.6579
20061SOL     OW61950   9.120   2.784   0.286  0.1421  0.9866 -0.3075
20061SOL    HW161951   9.165   2.783   0.371 -0.6376 -0.3177  0.1252
20061SOL    HW261952   9.168   2.719   0.233 -0.6806  0.2054 -0.1205
20062SOL     OW61953   4.300   5.961   8.756  0.1329 -0.1420  0.1989
20062SOL    HW161954   4.358   5.988   8.685  0.1141 -0.7326 -0.0488
20062SOL    HW261955   4.321   6.020   8.828  0.2497  0.3723 -0.2526
20063SOL     OW61956   9.069   7.033   7.798 -0.1359 -0.0344 -0.4203
20063SOL    HW161957   8.974   7.023   7.798 -0.0608 -0.8812 -1.3550
20063SOL    HW261958   9.102   6.947   7.825  0.3519  0.6429  1.2489
20064SOL     OW61959   7.509   3.641   6.614 -0.5735 -0.0446 -0.2273
20064SOL    HW161960   7.554   3.682   6.687  0.3030 -0.6272 -0.4264
20064SOL    HW261961   7.466   3.713   6.568  1.4899  0.7805 -0.9720
20065SOL     OW61962   3.552   9.707   6.436 -0.5712  0.1944  0.4969
20065SOL    HW161963   3.603   9.741   6.510 -1.1998  0.5299  0.7848
20065SOL    HW261964   3.561   9.775   6.369 -0.9002  0.4022  0.6628
20066SOL     OW61965   8.673   4.807   0.731  0.0573 -0.0010  0.1414
20066SOL    HW161966   8.634   4.741   0.674  2.4874 -1.0773 -0.4304
20066SOL    HW261967   8.740   4.759   0.781  1.1371  1.7967  0.5328
20067SOL     OW61968   5.149   3.127   8.809 -0.6314 -0.3818  0.5277
20067SOL    HW161969   5.218   3.135   8.875  0.3907 -0.2555 -0.5354
20067SOL    HW261970   5.101   3.048   8.834 -0.7313  0.0460  1.8211
20068SOL     OW61971   5.342   2.472   0.807 -0.2271 -0.1867  0.0470
20068SOL    HW161972   5.435   2.464   0.827 -0.3803 -3.0848 -0.0358
20068SOL    HW261973   5.298   2.461   0.891 -0.5370 -1.2267 -0.2371
20069SOL     OW61974   8.760   3.580   4.080 -0.3527 -0.0367  0.3820
20069SOL    HW161975   8.678   3.593   4.031 -0.7159 -0.7433  0.7892
20069SOL    HW261976   8.806   3.664   4.071  0.1172 -0.4760 -2.1292
20070SOL     OW61977   4.455   7.232   2.112  0.4085 -0.0734  0.3205
20070SOL    HW161978   4.447   7.196   2.023  1.4923  1.1956 -0.3197
20070SOL    HW261979   4.543   7.207   2.140  0.8194  1.2021  0.2348
20071SOL     OW61980   3.439   0.129   8.647  0.3018  0.3121  0.2194
20071SOL    HW161981   3.414   0.041   8.618  0.9834  0.0414  0.4314
20071SOL    HW261982   3.423   0.128   8.741 -0.0022  0.5281  0.1712
20072SOL     OW61983   5.942   7.163   7.118  0.3963 -0.0892 -0.2534
20072SOL    HW161984   5.953   7.068   7.123  2.2444  0.1105  0.2977
20072SOL    HW261985   6.028   7.196   7.093  0.3391  1.5831  1.5320
20073SOL     OW61986   6.263   1.252   0.571 -0.0199  0.3603  0.0656
20073SOL    HW161987   6.186   1.304   0.597 -0.2897  0.2286 -0.4586
20073SOL    HW261988   6.319   1.252   0.648 -1.4587 -1.2511  1.1841
20074SOL     OW61989   9.812   3.751   8.353  0.0137  0.5751 -0.1160
20074SOL    HW161990   9.867   3.817   8.397  0.3004  0.5533 -0.4345
20074SOL    HW261991   9.756   3.717   8.422  1.8447 -0.9330  0.7274
20075SOL     OW61992   5.301   6.210   0.551 -0.1052 -0.3150 -0.3380
20075SOL    HW161993   5.336   6.246   0.469  4.0729  1.2268  1.7988
20075SOL    HW261994   5.260   6.285   0.594  0.9807 -0.1319  0.4370
20076SOL     OW61995   9.636   8.304   4.751 -0.0550 -0.0499 -0.1605
20076SOL    HW161996   9.596   8.361   4.816 -2.5371 -0.4624 -1.2229
20076SOL    HW261997   9.639   8.356   4.671 -1.1138 -0.9237 -0.8003
20077SOL     OW61998   6.721   6.760   5.279  0.2812 -0.1719  0.2655
20077SOL    HW161999   6.638   6.800   5.252  0.9678  0.1835 -1.4549
20077SOL    HW262000   6.696   6.675   5.315 -0.9874  0.7484  1.6429
20078SOL     OW62001   5.507   6.460   1.306  0.0401  0.1235 -0.3373
20078SOL    HW162002   5.513   6.379   1.255 -3.0366 -0.3727 -0.0992
20078SOL    HW262003   5.521   6.433   1.396 -0.8389 -0.1511 -0.2737
20079SOL     OW62004   2.840   5.890   6.031  0.7951  0.0478  0.4757
20079SOL    HW162005   2.809   5.892   6.121 -0.6157  2.3713  0.0142
20079SOL    HW262006   2.934   5.909   6.038  1.0202 -1.3271  1.5209
20080SOL     OW62007   4.216   2.338   8.677 -0.6086 -0.0909  0.2431
20080SOL    HW162008   4.231   2.408   8.613 -0.1504  1.0905  1.5990
20080SOL    HW262009   4.245   2.374   8.760  1.0111 -2.4217  0.7846
20081SOL     OW62010   1.387   3.497   1.768 -0.1120 -0.4437  0.4376
20081SOL    HW162011   1.481   3.491   1.756 -0.0862  1.2951 -0.5489
20081SOL    HW262012   1.371   3.460   1.855  1.5871  0.1169  1.0259
20082SOL     OW62013   2.749   4.223   3.762 -0.0387  0.1128  0.2635
20082SOL    HW162014   2.761   4.222   3.856  0.3122  1.9561  0.2712
20082SOL    HW262015   2.674   4.281   3.747 -0.9156 -1.1631 -0.5396
20083SOL     OW62016   6.722   4.423   3.704 -0.2566  0.4636 -0.4993
20083SOL    HW162017   6.776   4.348   3.730  1.2428  1.7689  0.2872
20083SOL    HW262018   6.654   4.385   3.647  0.8138 -1.3912 -0.6062
20084SOL     OW62019   4.655   5.736   5.175  0.0569  0.1846 -0.0942
20084SOL    HW162020   4.726   5.739   5.239  0.9453  0.1121 -1.0449
20084SOL    HW262021   4.637   5.642   5.163 -2.0231  0.2041  2.0398
20085SOL     OW62022   8.338   4.314   4.237 -0.3261  0.4486 -0.3210
20085SOL    HW162023   8.406   4.375   4.208 -0.5866  0.9516  0.0959
20085SOL    HW262024   8.382   4.230   4.244  0.2787  0.7867  0.0213
20086SOL     OW62025   1.526   6.581   3.954 -0.8730 -0.0571  0.2618
20086SOL    HW162026   1.537   6.486   3.958 -0.0390  0.0061 -0.1894
20086SOL    HW262027   1.505   6.607   4.043 -0.8791 -0.6472  0.4338
20087SOL     OW62028   3.998   0.170   1.598 -0.0831  0.2345  0.4721
20087SOL    HW162029   3.919   0.165   1.653  0.7353 -1.1160  1.5997
20087SOL    HW262030   3.989   0.098   1.536 -0.1364  0.6232  0.0234
20088SOL     OW62031   6.046   4.089   5.774 -0.5632  0.2057  0.1844
20088SOL    HW162032   6.048   4.012   5.717 -0.8516  0.1664  0.2238
20088SOL    HW262033   5.961   4.083   5.819 -0.1442 -0.0113  0.9584
20089SOL     OW62034   2.705   9.778   3.519  0.0538  0.8206 -0.3841
20089SOL    HW162035   2.787   9.781   3.471  1.8616  0.4133  2.4261
20089SOL    HW262036   2.676   9.686   3.514  0.5230  0.6656 -0.2732
20090SOL     OW62037   6.291   8.607   7.557 -0.0862  0.4050 -0.8878
20090SOL    HW162038   6.328   8.685   7.516 -0.0704 -0.0630 -1.7791
20090SOL    HW262039   6.298   8.624   7.651 -0.3810  1.6141 -1.0684
20091SOL     OW62040   3.365   6.854   0.857  0.1653 -0.0225  0.3095
20091SOL    HW162041   3.324   6.832   0.774 -0.3287  1.2040  0.2040
20091SOL    HW262042   3.331   6.790   0.919 -0.5405 -0.0886 -0.1427
20092SOL     OW62043   2.531   6.798   2.300 -0.5599  0.0691  0.0587
20092SOL    HW162044   2.477   6.733   2.345 -0.2150 -0.3638 -0.1477
20092SOL    HW262045   2.595   6.747   2.252 -1.3100  0.4917 -1.4600
20093SOL     OW62046   5.437   7.076   2.522 -0.0458  0.6912  0.5734
20093SOL    HW162047   5.488   7.006   2.563 -1.1144 -0.2858  0.2957
20093SOL    HW262048   5.471   7.156   2.561  1.6254  0.0856  0.4773
20094SOL     OW62049   3.534   4.700   3.230  0.1002 -0.4067  0.0340
20094SOL    HW162050   3.516   4.607   3.243 -0.0820 -0.7902 -2.4435
20094SOL    HW262051   3.594   4.702   3.156 -1.3882  1.4887 -1.2159
20095SOL     OW62052   7.226   8.709   2.099  0.3998  0.6300 -0.0257
20095SOL    HW162053   7.158   8.702   2.166 -0.4339  0.6078 -0.8541
20095SOL    HW262054   7.239   8.804   2.088  1.8862  0.6593  1.4592
20096SOL     OW62055   7.675   7.608   1.002 -0.2777 -0.2129  0.1243
20096SOL    HW162056   7.604   7.547   0.983 -0.4717 -0.0943  0.4615
20096SOL    HW262057   7.706   7.583   1.089 -0.2087  0.0235  0.1682
20097SOL     OW62058   6.319   7.290   8.084 -0.4488  0.5853 -0.0677
20097SOL    HW162059   6.313   7.243   8.001  0.2179  0.2684  0.0620
20097SOL    HW262060   6.243   7.349   8.083 -1.4062 -0.6083 -0.1419
20098SOL     OW62061   2.931   1.058   6.503  0.2101  0.0682  0.2288
20098SOL    HW162062   2.973   0.981   6.540  4.1223  2.5760  1.5948
20098SOL    HW262063   2.882   1.097   6.575 -1.1386 -0.6430 -0.2637
20099SOL     OW62064   9.458   3.966   0.063  0.1127 -0.3515 -0.0940
20099SOL    HW162065   9.512   3.888   0.074 -0.0678 -0.8628 -2.3237
20099SOL    HW262066   9.519   4.039   0.076  0.0935 -0.7699  2.8729
20100SOL     OW62067   1.613   3.422   2.673 -0.5654 -0.1388  0.1992
20100SOL    HW162068   1.639   3.382   2.590 -1.5902  0.3388 -0.3735
20100SOL    HW262069   1.530   3.379   2.695 -1.2760  1.0687 -0.0260
20101SOL     OW62070   6.441   5.818   0.187  0.7136 -0.4020  0.5036
20101SOL    HW162071   6.501   5.795   0.257  1.7876 -0.5724 -0.4484
20101SOL    HW262072   6.493   5.871   0.126 -0.8387  1.9579  1.0749
20102SOL     OW62073   1.064   2.044   0.566 -0.0161 -0.6551 -0.2526
20102SOL    HW162074   1.018   2.034   0.483 -0.5415  0.1337 -0.0610
20102SOL    HW262075   1.069   1.955   0.601  1.0234 -1.1354 -1.5449
20103SOL     OW62076   6.042   0.449   0.085  0.5833 -0.4246 -0.5810
20103SOL    HW162077   5.964   0.487   0.044 -0.3163 -2.3475 -0.7415
20103SOL    HW262078   6.028   0.462   0.179 -0.4435 -1.5841 -0.5381
20104SOL     OW62079   2.271   3.280   7.772  0.6204 -0.2278 -0.0731
20104SOL    HW162080   2.233   3.193   7.785  0.4673 -0.0383  0.7529
20104SOL    HW262081   2.353   3.279   7.821 -0.2411  0.6803  1.4480
20105SOL     OW62082   7.728   4.033   4.060 -0.0775 -0.2383 -0.6666
20105SOL    HW162083   7.737   4.112   4.005  0.8159  0.8540  0.9710
20105SOL    HW262084   7.816   4.017   4.094 -0.7621 -0.2970  1.1906
20106SOL     OW62085   5.627   4.904   8.686 -0.2042 -0.0170 -0.1070
20106SOL    HW162086   5.578   4.833   8.727 -0.8355  1.0849  1.1292
20106SOL    HW262087   5.599   4.903   8.595 -0.9962 -0.7079  0.1284
20107SOL     OW62088   6.704   4.262   7.014  0.0540 -0.0647  0.1383
20107SOL    HW162089   6.620   4.219   6.997 -0.6756  1.0707  0.7603
20107SOL    HW262090   6.681   4.352   7.037  1.4866  0.4239 -0.2288
20108SOL     OW62091   9.488   3.939   3.618  0.2876  0.0409 -0.3224
20108SOL    HW162092   9.511   3.850   3.591  0.0086 -0.1984  0.2067
20108SOL    HW262093   9.567   3.991   3.601  0.8647 -0.5521  0.4904
20109SOL     OW62094   2.579   8.609   1.764 -0.0819  0.3499  0.3060
20109SOL    HW162095   2.499   8.563   1.789  0.0130 -0.1335 -0.2544
20109SOL    HW262096   2.619   8.636   1.847 -0.6454  0.2887  0.6009
20110SOL     OW62097   3.116   4.500   3.740  0.4229  0.2736  0.0593
20110SOL    HW162098   3.196   4.546   3.768  0.6260 -0.1848  0.2443
20110SOL    HW262099   3.105   4.430   3.804  1.2364 -1.1881 -1.3241
20111SOL     OW62100   9.404   8.082   7.805  1.1389  0.1528  0.1985
20111SOL    HW162101   9.495   8.066   7.780  1.1004  1.2444 -0.6889
20111SOL    HW262102   9.405   8.167   7.848  0.3683  0.8011 -0.9926
20112SOL     OW62103   4.624   7.831   5.913 -0.0908  0.1917 -0.1977
20112SOL    HW162104   4.564   7.763   5.943  0.1230  0.5263  1.0680
20112SOL    HW262105   4.588   7.861   5.830 -0.4481 -1.1234 -0.5279
20113SOL     OW62106   3.254   4.149   8.508  0.1478  0.0821  0.1551
20113SOL    HW162107   3.333   4.098   8.520 -0.7527 -1.2267  0.8120
20113SOL    HW262108   3.279   4.221   8.450  1.4826 -1.0661 -0.7283
20114SOL     OW62109   0.378   1.003   8.294 -0.2142 -0.5244 -0.3602
20114SOL    HW162110   0.429   1.042   8.365  0.3079  1.5933 -1.8090
20114SOL    HW262111   0.308   0.956   8.339  0.3428  0.3576  1.5681
20115SOL     OW62112   5.006   7.040   5.790  0.6608  0.0604  0.1956
20115SOL    HW162113   5.004   7.079   5.702 -1.6070 -0.7254 -0.1598
20115SOL    HW262114   4.995   7.115   5.849 -3.0638  0.2091 -0.4558
20116SOL     OW62115   0.622   0.969   3.151  0.1034  0.0536 -0.0453
20116SOL    HW162116   0.572   1.040   3.110  0.0132 -0.4737 -0.8700
20116SOL    HW262117   0.713   0.993   3.138  0.0795 -0.2145 -0.7701
20117SOL     OW62118   7.420   3.545   7.027 -0.2773  0.5471  0.0676
20117SOL    HW162119   7.438   3.453   7.003 -1.3019  0.0047  1.2742
20117SOL    HW262120   7.468   3.558   7.109  2.2678  2.0358 -1.5189
20118SOL     OW62121   8.217   5.804   4.542 -0.4524  0.2916  0.1367
20118SOL    HW162122   8.299   5.806   4.493  1.0129  2.2464  2.4289
20118SOL    HW262123   8.170   5.882   4.512 -0.3206  0.5457  0.5787
20119SOL     OW62124   5.823   8.807   0.637 -0.3318  0.0840 -0.6178
20119SOL    HW162125   5.815   8.891   0.591  0.4328  0.0254 -0.8669
20119SOL    HW262126   5.911   8.808   0.673 -0.1882 -0.7718 -0.9319
20120SOL     OW62127   3.526   3.348   6.891 -0.0386 -0.3459  0.1302
20120SOL    HW162128   3.481   3.411   6.835 -1.3927 -0.1454  1.4033
20120SOL    HW262129   3.590   3.306   6.833 -0.8824  0.3775 -1.3684
20121SOL     OW62130   6.612   4.680   3.266 -0.1167 -0.4780 -0.5075
20121SOL    HW162131   6.684   4.704   3.206 -0.1439  0.0058 -0.3564
20121SOL    HW262132   6.542   4.741   3.243  0.6282  1.2545  1.4914
20122SOL     OW62133   1.294   0.316   5.485 -0.8291  0.5939 -0.1886
20122SOL    HW162134   1.295   0.276   5.572 -1.4801 -2.0521 -1.2929
20122SOL    HW262135   1.383   0.351   5.474 -0.3150 -0.2504  1.0300
20123SOL     OW62136   1.558   3.462   5.145  0.5213  0.0559  0.1585
20123SOL    HW162137   1.501   3.387   5.161  2.0361 -1.1293  0.1502
20123SOL    HW262138   1.507   3.537   5.175 -0.3341 -1.1456  1.8774
20124SOL     OW62139   8.155   6.351   3.448  0.2346 -0.4822  0.2688
20124SOL    HW162140   8.191   6.387   3.368 -0.8856 -0.6203 -0.3241
20124SOL    HW262141   8.096   6.419   3.481  0.5618 -0.4892  0.8849
20125SOL     OW62142   0.276   9.627   6.578  0.1271  0.7178 -0.6617
20125SOL    HW162143   0.333   9.577   6.520 -2.2538 -2.0150 -0.8595
20125SOL    HW262144   0.191   9.628   6.534 -0.7379  2.2067  0.8913
20126SOL     OW62145   0.417   5.944   1.101  0.5358  0.6339 -0.0430
20126SOL    HW162146   0.380   6.030   1.081 -1.0528 -0.3874 -1.7759
20126SOL    HW262147   0.484   5.930   1.034  0.9033  0.5542  0.3310
20127SOL     OW62148   5.771   7.755   6.422  0.4527  0.5384  0.2148
20127SOL    HW162149   5.817   7.819   6.366 -0.8113 -0.6284 -2.3316
20127SOL    HW262150   5.680   7.786   6.424  0.2367 -0.1065  0.6348
20128SOL     OW62151   9.410   7.312   8.614  0.2276 -0.3926  0.3430
20128SOL    HW162152   9.349   7.239   8.621 -0.3759  0.2554  2.9286
20128SOL    HW262153   9.362   7.387   8.647  2.0668  0.3365  1.5529
20129SOL     OW62154   0.825   5.991   7.883 -0.8212 -0.1737 -0.1183
20129SOL    HW162155   0.730   5.986   7.876 -0.7446 -0.4503 -1.0540
20129SOL    HW262156   0.852   6.048   7.811 -0.2952  0.0480  0.2506
20130SOL     OW62157   0.437   9.209   6.774  0.0194 -0.4136  0.3605
20130SOL    HW162158   0.360   9.186   6.826 -1.0076 -0.8263 -1.2370
20130SOL    HW262159   0.440   9.140   6.707  0.0590  1.1731 -1.3286
20131SOL     OW62160   4.852   1.774   3.937 -0.2478  0.0651 -0.0730
20131SOL    HW162161   4.880   1.865   3.934 -2.1619  0.6867 -0.2179
20131SOL    HW262162   4.829   1.759   4.029 -0.8085  0.0261 -0.2142
20132SOL     OW62163   1.628   4.562   7.483  0.3980 -0.0826 -0.0517
20132SOL    HW162164   1.677   4.491   7.441 -1.9225  0.6688 -4.7007
20132SOL    HW262165   1.695   4.615   7.526  3.2520 -1.1509 -2.7392
20133SOL     OW62166   6.356   0.112   9.014  0.0776  0.4067  0.5007
20133SOL    HW162167   6.393   0.053   8.949 -0.5921 -2.5863  2.5960
20133SOL    HW262168   6.430   0.140   9.067  0.1347 -0.7293  1.0558
20134SOL     OW62169   0.713   0.125   8.318 -0.3921  0.3834  0.6418
20134SOL    HW162170   0.770   0.113   8.242 -1.6231 -0.0304 -0.2494
20134SOL    HW262171   0.722   0.044   8.369  0.7396  0.8253  1.1582
20135SOL     OW62172   8.202   0.662   8.308  0.0576  0.3887 -0.6003
20135SOL    HW162173   8.282   0.676   8.257  0.0354 -1.0194 -1.0635
20135SOL    HW262174   8.131   0.663   8.243 -0.0736 -0.4638 -0.4807
20136SOL     OW62175   6.196   4.193   4.554 -0.2593  0.1147  0.0683
20136SOL    HW162176   6.192   4.153   4.467 -0.4455 -0.3677  0.2917
20136SOL    HW262177   6.240   4.277   4.540 -0.2109  0.0053 -0.4759
20137SOL     OW62178   9.142   5.242   5.465  0.3110  0.0733 -0.2900
20137SOL    HW162179   9.186   5.312   5.512 -0.8863  1.0695 -0.6061
20137SOL    HW262180   9.141   5.270   5.374 -2.4496  0.9841 -0.0884
20138SOL     OW62181   5.665   5.457   2.674  0.3882 -0.1635  0.0459
20138SOL    HW162182   5.637   5.547   2.657 -0.1140 -0.5438 -1.2561
20138SOL    HW262183   5.593   5.418   2.724  0.8873  0.3145  1.1870
20139SOL     OW62184   4.013   1.015   0.531  0.2001 -0.1603 -0.0243
20139SOL    HW162185   4.088   1.066   0.562  0.5762 -0.3099 -0.6675
20139SOL    HW262186   4.034   0.925   0.556  1.0514 -0.4602 -1.6581
20140SOL     OW62187   4.886   8.876   3.526 -0.5168 -0.8332  0.8797
20140SOL    HW162188   4.962   8.828   3.559  0.1008 -0.1694  0.4501
20140SOL    HW262189   4.842   8.908   3.604  0.6924  0.3596  1.1127
20141SOL     OW62190   2.660   1.840   3.675 -0.0535 -0.3367  0.7064
20141SOL    HW162191   2.616   1.796   3.602  1.6013  0.6938 -1.0159
20141SOL    HW262192   2.632   1.931   3.669  1.3264  0.0867  0.3247
20142SOL     OW62193   5.653   6.837   4.982 -0.2331 -0.2556 -1.0250
20142SOL    HW162194   5.593   6.854   4.909  0.5579  0.5984 -1.5158
20142SOL    HW262195   5.740   6.838   4.941  0.0933 -2.3967 -0.4977
20143SOL     OW62196   5.421   6.088   7.820 -0.4132  0.2534  0.3752
20143SOL    HW162197   5.363   6.156   7.785 -1.2254 -0.0458  1.1147
20143SOL    HW262198   5.487   6.076   7.751 -0.6180  1.3356 -0.0333
20144SOL     OW62199   1.522   2.560   6.736  0.0285  0.1873 -0.1214
20144SOL    HW162200   1.578   2.563   6.814  0.0549 -0.4017 -0.1140
20144SOL    HW262201   1.450   2.619   6.756 -0.7592 -1.0757  0.9673
20145SOL     OW62202   1.737   7.951   4.157  0.3946  0.3936  0.4171
20145SOL    HW162203   1.792   7.931   4.233  0.2807  0.3893  0.4995
20145SOL    HW262204   1.757   7.882   4.094 -1.1562 -0.9250  1.3023
20146SOL     OW62205   0.780   6.796   6.207 -0.7259  0.2443 -0.7969
20146SOL    HW162206   0.717   6.833   6.145 -1.4670 -0.5095 -0.5104
20146SOL    HW262207   0.734   6.723   6.247  0.8795 -1.4098 -1.7887
20147SOL     OW62208   9.255   0.697   1.826 -0.4343  0.4654  1.1457
20147SOL    HW162209   9.345   0.684   1.857 -0.9181 -0.5751  2.2046
20147SOL    HW262210   9.212   0.745   1.896 -1.5017 -1.7826  2.1579
20148SOL     OW62211   3.997   0.755   8.476 -0.6113 -0.3483 -0.6027
20148SOL    HW162212   3.959   0.838   8.506  0.0944  0.8006 -2.6011
20148SOL    HW262213   4.074   0.743   8.531 -1.1749 -0.1121  0.2535
20149SOL     OW62214   4.650   0.890   0.193 -0.2779 -0.2135  0.4622
20149SOL    HW162215   4.730   0.839   0.177 -0.8394 -0.9173 -0.1665
20149SOL    HW262216   4.627   0.870   0.284 -1.9675 -3.3189 -0.4768
20150SOL     OW62217   2.704   1.836   6.826 -0.1462 -0.3133  0.1193
20150SOL    HW162218   2.700   1.906   6.761  0.2561 -0.2755  0.1359
20150SOL    HW262219   2.631   1.779   6.804  0.9774 -1.2333 -1.4251
20151SOL     OW62220   2.947   3.577   2.905  0.3881 -0.0009  0.3972
20151SOL    HW162221   2.870   3.562   2.960  1.9670  1.5102  3.3073
20151SOL    HW262222   2.987   3.490   2.896 -0.9882 -0.6020 -0.1279
20152SOL     OW62223   5.505   4.474   0.824 -0.0226 -0.3944  0.0519
20152SOL    HW162224   5.441   4.532   0.782 -0.7591 -1.6278 -0.6000
20152SOL    HW262225   5.550   4.431   0.751 -0.1919 -1.3765  0.5052
20153SOL     OW62226   7.070   8.574   3.235  0.1716  0.0603  0.1744
20153SOL    HW162227   7.003   8.523   3.280  0.0633 -1.9308 -2.0283
20153SOL    HW262228   7.034   8.589   3.147  1.7746  0.6784 -0.4268
20154SOL     OW62229   3.514   1.431   9.083  0.1162 -1.0515 -0.0393
20154SOL    HW162230   3.489   1.422   9.175  0.4156  0.8514  0.2700
20154SOL    HW262231   3.443   1.481   9.043  1.3549  0.7296 -0.1209
20155SOL     OW62232   5.098   2.444   8.046 -0.4446  0.4119  0.5842
20155SOL    HW162233   5.146   2.510   8.095  0.7210  0.1304 -0.1450
20155SOL    HW262234   5.125   2.456   7.955  1.7579 -2.6039  0.7031
20156SOL     OW62235   3.394   1.661   8.676  0.4038 -0.3494 -0.0768
20156SOL    HW162236   3.343   1.709   8.611  0.0104 -2.0766 -1.1196
20156SOL    HW262237   3.481   1.654   8.637  0.9170  0.8586  0.7952
20157SOL     OW62238   9.549   9.233   6.866  0.3674  0.0730 -0.6166
20157SOL    HW162239   9.556   9.137   6.866 -1.3431 -0.1006  0.3749
20157SOL    HW262240   9.455   9.250   6.865  0.6498  1.7745 -1.5180
20158SOL     OW62241   2.596   1.167   2.939  0.1205 -0.0908 -0.0300
20158SOL    HW162242   2.602   1.260   2.919  0.6938 -0.2230 -0.4924
20158SOL    HW262243   2.531   1.133   2.877  0.1732 -0.0674 -0.0976
20159SOL     OW62244   9.417   7.652   4.845  0.3487 -0.4246 -0.4601
20159SOL    HW162245   9.343   7.593   4.830 -0.3171 -0.2506  1.7054
20159SOL    HW262246   9.377   7.740   4.848  1.0462 -0.0446 -1.7946
20160SOL     OW62247   4.608   6.586   0.684 -0.1209  0.2323  0.0999
20160SOL    HW162248   4.513   6.574   0.692 -0.2771 -0.9237 -2.3888
20160SOL    HW262249   4.638   6.606   0.773 -2.5052 -0.6849  1.1858
20161SOL     OW62250   9.027   4.662   4.550  0.4204  0.1033 -0.1717
20161SOL    HW162251   9.055   4.611   4.625 -0.1737 -1.1797 -0.7898
20161SOL    HW262252   9.047   4.607   4.474 -0.2502  0.7731 -0.8550
20162SOL     OW62253   2.756   5.200   0.067  0.0467 -0.4919 -0.4688
20162SOL    HW162254   2.699   5.219   0.142  1.4396 -1.1027  0.7827
20162SOL    HW262255   2.739   5.272   0.005 -1.0419  0.0854  0.4603
20163SOL     OW62256   8.896   6.090   4.918  0.2156 -0.6065 -0.7057
20163SOL    HW162257   8.813   6.075   4.873 -1.4012  0.4576  1.7158
20163SOL    HW262258   8.910   6.012   4.970  0.9967 -0.9580 -1.4168
20164SOL     OW62259   3.223   5.886   5.087  0.0304 -0.3806 -0.0551
20164SOL    HW162260   3.143   5.938   5.084 -0.0344 -0.4950 -0.3306
20164SOL    HW262261   3.209   5.816   5.023  0.6825  0.0729 -0.7029
20165SOL     OW62262   3.800   1.193   0.486  0.0965 -0.0750 -0.1592
20165SOL    HW162263   3.886   1.153   0.503  0.1723 -0.0710 -0.5316
20165SOL    HW262264   3.818   1.262   0.423 -0.1730 -0.0405 -0.1969
20166SOL     OW62265   3.144   7.536   7.564  0.3281 -0.8106  0.3432
20166SOL    HW162266   3.115   7.475   7.632 -1.4476 -0.0296  0.3475
20166SOL    HW262267   3.111   7.621   7.592 -0.9361 -0.5370 -1.7177
20167SOL     OW62268   2.200   3.550   8.194  0.2892 -0.1263 -0.4554
20167SOL    HW162269   2.145   3.595   8.129 -0.9192  1.1571  1.3545
20167SOL    HW262270   2.174   3.458   8.188 -2.8113  0.5405  0.9121
20168SOL     OW62271   3.792   3.131   6.752 -0.1881 -0.0158 -0.3724
20168SOL    HW162272   3.826   3.156   6.666 -0.3650 -0.3238 -0.5305
20168SOL    HW262273   3.773   3.038   6.745 -2.5134  0.4446 -0.7634
20169SOL     OW62274   1.001   7.764   0.138  0.0655  0.3437  0.0914
20169SOL    HW162275   1.006   7.772   0.233  1.5063 -2.1779  0.3083
20169SOL    HW262276   0.971   7.675   0.123  1.9076 -0.0437 -1.7919
20170SOL     OW62277   7.852   6.814   1.607 -0.1689  0.2835 -0.1021
20170SOL    HW162278   7.803   6.814   1.689  0.5992 -0.3930  0.3738
20170SOL    HW262279   7.789   6.783   1.541 -0.6664  0.4144  0.3054
20171SOL     OW62280   9.691   0.319   4.676 -0.1366 -0.2416 -0.3775
20171SOL    HW162281   9.680   0.228   4.704 -0.4151 -0.6558 -1.7863
20171SOL    HW262282   9.694   0.315   4.581  1.3482  1.0755 -0.4166
20172SOL     OW62283   5.169   8.607   9.815 -0.0123  0.6279 -0.0925
20172SOL    HW162284   5.246   8.650   9.777  0.0773  1.7357  1.2417
20172SOL    HW262285   5.112   8.680   9.841  0.1771 -0.0043  2.3319
20173SOL     OW62286   5.292   4.519   5.069 -0.4962  0.2356  0.0938
20173SOL    HW162287   5.247   4.440   5.098 -0.9267  0.5611  0.3391
20173SOL    HW262288   5.221   4.577   5.039 -0.0169 -0.7110 -3.2906
20174SOL     OW62289   6.728   9.238   6.044 -0.7093 -0.2806 -0.1130
20174SOL    HW162290   6.760   9.288   5.968  0.5331 -0.5368  0.2295
20174SOL    HW262291   6.633   9.254   6.044 -0.4848  1.2829 -0.5917
20175SOL     OW62292   9.207   9.764   0.022 -0.4686 -0.3362 -0.0540
20175SOL    HW162293   9.253   9.775  -0.061  0.5427 -0.3989  0.4856
20175SOL    HW262294   9.130   9.820   0.014  0.6896  1.3020 -0.2469
20176SOL     OW62295   9.526   3.212   0.400  0.2568 -0.0474 -0.0201
20176SOL    HW162296   9.509   3.226   0.493 -1.2674 -1.1985 -0.0801
20176SOL    HW262297   9.464   3.269   0.355 -0.2051 -0.7390 -0.2908
20177SOL     OW62298   1.127   4.353   7.938  0.2455  0.0677  0.2121
20177SOL    HW162299   1.034   4.375   7.931  0.5190  1.4508  0.5093
20177SOL    HW262300   1.140   4.336   8.031  0.1480 -0.8478  0.0611
20178SOL     OW62301   9.624   8.358   4.231 -0.5330 -0.2503 -0.7524
20178SOL    HW162302   9.529   8.355   4.239 -0.4875  0.2649  0.1754
20178SOL    HW262303   9.643   8.435   4.177 -0.6736 -1.0812 -2.0322
20179SOL     OW62304   2.793   7.357   6.111  0.8222 -0.2695  0.2865
20179SOL    HW162305   2.860   7.291   6.124  0.6723 -0.3637  0.5924
20179SOL    HW262306   2.744   7.327   6.035  0.3300 -0.8731  0.8280
20180SOL     OW62307   8.840   4.875   9.763 -0.1763  0.0667  0.1381
20180SOL    HW162308   8.812   4.934   9.693 -0.1986 -0.5768 -0.4098
20180SOL    HW262309   8.840   4.929   9.842 -0.5686  0.6950 -0.2844
20181SOL     OW62310   3.433   7.241   6.324  0.2972  0.1065  0.7466
20181SOL    HW162311   3.403   7.291   6.400  1.2765  2.0217 -0.0550
20181SOL    HW262312   3.437   7.305   6.253  2.7343 -0.8193 -0.0509
20182SOL     OW62313   1.850   5.830   7.630  0.1131 -0.0740 -0.1667
20182SOL    HW162314   1.773   5.860   7.679  0.8526 -1.5901  2.0701
20182SOL    HW262315   1.817   5.811   7.543 -2.1275 -0.8675  0.7900
20183SOL     OW62316   1.819   1.676   4.664  0.4579 -0.8020  0.5845
20183SOL    HW162317   1.909   1.694   4.690  0.6231 -2.0187  0.9441
20183SOL    HW262318   1.810   1.581   4.672 -1.0733 -0.6367  1.2538
20184SOL     OW62319   2.929   2.870   3.057 -0.1003 -0.0184  0.2608
20184SOL    HW162320   2.990   2.921   3.003 -0.4520  0.9274  0.7284
20184SOL    HW262321   2.886   2.811   2.996  1.7313 -1.1597  0.0172
20185SOL     OW62322   7.345   5.350   4.261 -0.3961 -0.1586 -0.3344
20185SOL    HW162323   7.415   5.317   4.317 -1.6489 -2.5111  0.0044
20185SOL    HW262324   7.390   5.399   4.192  1.4492 -0.3007  0.7075
20186SOL     OW62325   5.351   3.168   6.474 -0.1512  0.1336 -0.5596
20186SOL    HW162326   5.334   3.079   6.504 -1.6722  0.8710  0.9150
20186SOL    HW262327   5.294   3.179   6.397 -2.3546  0.7752  1.0755
20187SOL     OW62328   8.057   9.018   3.382 -0.0052 -0.0329  0.3479
20187SOL    HW162329   7.969   9.048   3.361 -0.2427 -2.3372 -2.5656
20187SOL    HW262330   8.114   9.072   3.327  0.1472 -0.4193  0.1262
20188SOL     OW62331   2.239   7.595   9.244  0.3453 -0.0732  0.8000
20188SOL    HW162332   2.234   7.568   9.152  0.0442  0.9932  0.4853
20188SOL    HW262333   2.331   7.582   9.268  0.0666 -2.0324  0.8970
20189SOL     OW62334   9.797   2.014   5.312 -0.0500 -0.0498  0.6209
20189SOL    HW162335   9.743   2.093   5.320  0.4467  0.2052  1.7306
20189SOL    HW262336   9.883   2.040   5.346  0.6916 -0.5494 -0.7964
20190SOL     OW62337   1.022   9.849   3.479  0.1675  0.0826 -0.1944
20190SOL    HW162338   1.099   9.829   3.531 -0.8669 -3.0885  0.2959
20190SOL    HW262339   0.950   9.854   3.542 -0.3337  1.3458 -0.8171
20191SOL     OW62340   7.042   5.150   4.177  0.3504  0.0899  0.3707
20191SOL    HW162341   7.071   5.061   4.154  1.5749  0.4275  0.5259
20191SOL    HW262342   6.973   5.137   4.242 -1.5211 -0.8135 -1.6713
20192SOL     OW62343   0.793   9.767   5.427 -0.0642 -0.2622 -0.1844
20192SOL    HW162344   0.784   9.828   5.354  2.1603  0.9544  0.4706
20192SOL    HW262345   0.719   9.787   5.484 -0.5408  0.3516 -0.9991
20193SOL     OW62346   0.911   4.153   2.280  0.3356 -0.3078  0.0505
20193SOL    HW162347   0.945   4.112   2.360  2.7496  0.4210 -0.4911
20193SOL    HW262348   0.990   4.171   2.228 -1.0786  0.1944 -2.0378
20194SOL     OW62349   1.506   4.766   1.339  0.0486 -0.2710  0.2112
20194SOL    HW162350   1.520   4.709   1.414 -0.4276 -1.3865 -0.5238
20194SOL    HW262351   1.584   4.756   1.285 -0.3731 -0.8343 -0.2997
20195SOL     OW62352   0.322   2.027   3.534  0.0807 -0.1229 -0.2738
20195SOL    HW162353   0.257   1.960   3.511 -2.0774  2.5332 -2.6908
20195SOL    HW262354   0.270   2.096   3.576  1.6970  1.2262 -0.4040
20196SOL     OW62355   2.310   4.080   2.144 -0.3507  0.1703 -0.3297
20196SOL    HW162356   2.344   3.998   2.180  0.3540  0.2262 -0.8405
20196SOL    HW262357   2.264   4.121   2.216 -0.1171 -0.3561  0.1237
20197SOL     OW62358   2.399   4.482   6.038 -0.2363  0.1899 -0.3867
20197SOL    HW162359   2.431   4.544   5.972 -1.5795  1.1499 -0.1657
20197SOL    HW262360   2.451   4.502   6.116  1.2547 -0.8488 -1.0496
20198SOL     OW62361   5.746   6.651   5.745 -0.2752  0.0536  0.2627
20198SOL    HW162362   5.772   6.742   5.730  0.9867 -0.7149 -3.1030
20198SOL    HW262363   5.816   6.615   5.799  0.3900  0.5328 -0.2611
20199SOL     OW62364   7.416   8.715   5.486  0.0623 -0.0750 -0.2018
20199SOL    HW162365   7.417   8.804   5.448 -0.6021  0.1828  0.3725
20199SOL    HW262366   7.438   8.728   5.578 -0.2282 -0.4905 -0.0741
20200SOL     OW62367   0.058   6.485   7.534  0.1410  0.2155 -0.8002
20200SOL    HW162368   0.080   6.573   7.505 -0.0610  0.7472  0.5906
20200SOL    HW262369  -0.020   6.462   7.483 -0.7929  1.5132 -0.0500
20201SOL     OW62370   3.867   8.672   0.985  0.2135 -0.2519  0.4647
20201SOL    HW162371   3.843   8.739   1.048  2.4812  0.8946  0.1900
20201SOL    HW262372   3.816   8.693   0.907 -1.4367 -0.7622  1.3653
20202SOL     OW62373   0.094   3.378   3.809 -0.1642  0.0834  0.2618
20202SOL    HW162374   0.087   3.374   3.905  0.5962  0.8657  0.3653
20202SOL    HW262375   0.092   3.472   3.789 -0.1207 -0.0686 -0.4778
20203SOL     OW62376   1.040   7.521   3.603 -0.0009 -0.5827 -0.2110
20203SOL    HW162377   1.068   7.604   3.641 -0.3679 -0.9368  0.8755
20203SOL    HW262378   1.115   7.462   3.616  0.4640 -0.2993 -1.4581
20204SOL     OW62379   3.556   0.296   1.288  0.3632 -0.2536 -0.0738
20204SOL    HW162380   3.643   0.260   1.274  0.5839  0.3063 -0.1691
20204SOL    HW262381   3.571   0.389   1.305 -0.1370 -0.3312  0.8524
20205SOL     OW62382   4.620   9.004   5.049 -0.0316 -0.2997  0.3558
20205SOL    HW162383   4.621   8.934   4.984 -0.2550 -0.1677  0.2084
20205SOL    HW262384   4.678   8.973   5.119  0.4845 -0.2902 -0.0635
20206SOL     OW62385   8.957   2.255   6.298  0.2790  0.0246 -0.6593
20206SOL    HW162386   9.012   2.334   6.302  0.8062 -0.2670 -1.6844
20206SOL    HW262387   8.905   2.267   6.219 -0.0275 -0.4108 -0.5217
20207SOL     OW62388   0.859   2.917   3.655  0.3845  0.2646  0.5416
20207SOL    HW162389   0.916   2.841   3.668 -0.4646 -0.4575  0.2131
20207SOL    HW262390   0.825   2.937   3.743  0.7004  0.3397  0.6473
20208SOL     OW62391   0.112   8.569   5.531 -0.7518 -0.2788  0.4074
20208SOL    HW162392   0.113   8.503   5.461 -1.1509  1.2598 -1.1292
20208SOL    HW262393   0.204   8.589   5.546 -0.6865  1.0514 -1.4096
20209SOL     OW62394   3.579   4.371   3.568  0.3283 -0.2885 -0.1120
20209SOL    HW162395   3.587   4.466   3.559 -0.7980 -0.2044 -0.4082
20209SOL    HW262396   3.485   4.355   3.574  0.5604 -1.1532  2.9493
20210SOL     OW62397   9.577   6.548   8.727 -0.2573  0.3491 -0.5903
20210SOL    HW162398   9.495   6.572   8.771  0.2791  0.0641  0.6146
20210SOL    HW262399   9.573   6.453   8.719  0.8264  0.0804  1.3824
20211SOL     OW62400   5.502   7.274   2.012 -0.1774  0.0716  0.0325
20211SOL    HW162401   5.464   7.186   2.004 -0.0911 -0.0645  0.9860
20211SOL    HW262402   5.457   7.313   2.087 -0.6691  1.0957 -0.7706
20212SOL     OW62403   8.821   4.085   4.896 -0.1421  0.5241  0.3823
20212SOL    HW162404   8.729   4.110   4.890  0.1228  1.7853  1.1103
20212SOL    HW262405   8.860   4.152   4.953  1.1513 -0.1835  0.3627
20213SOL     OW62406   0.667   4.740   3.005 -0.0241  0.0465  0.1099
20213SOL    HW162407   0.678   4.816   2.947  0.3883  0.4407  0.6888
20213SOL    HW262408   0.666   4.665   2.946  0.3903  0.4421 -0.4122
20214SOL     OW62409   2.209   2.298   1.202  0.3097  0.6649  0.1246
20214SOL    HW162410   2.205   2.254   1.286  0.3907 -0.8535 -0.6337
20214SOL    HW262411   2.158   2.243   1.143  1.7987  0.6819 -1.2418
20215SOL     OW62412   4.436   3.344   4.842  0.3026  0.7925  0.0103
20215SOL    HW162413   4.349   3.365   4.809  0.3236 -0.9257 -1.2915
20215SOL    HW262414   4.423   3.270   4.900  0.7450  1.4532  0.9794
20216SOL     OW62415   2.258   4.377   0.100  0.0960  0.0344 -0.2176
20216SOL    HW162416   2.208   4.432   0.039 -1.5256 -0.8529  0.2648
20216SOL    HW262417   2.347   4.379   0.065 -0.1764  1.8873 -0.9517
20217SOL     OW62418   0.284   3.374   2.763  0.0872 -0.2715 -0.2779
20217SOL    HW162419   0.346   3.410   2.698 -0.0351  0.5021  0.0198
20217SOL    HW262420   0.198   3.403   2.732 -0.0153 -0.3106 -0.0286
20218SOL     OW62421   7.628   4.733   4.986 -0.2177 -0.1515 -0.2649
20218SOL    HW162422   7.663   4.656   5.030 -0.4287 -0.3356 -0.4144
20218SOL    HW262423   7.539   4.742   5.020 -0.2218 -0.0193 -0.3074
20219SOL     OW62424   5.474   8.795   1.547 -0.0626 -0.5106 -0.1162
20219SOL    HW162425   5.425   8.808   1.465 -1.1594 -1.0666  0.4264
20219SOL    HW262426   5.502   8.883   1.572  0.9176 -0.4078 -1.4437
20220SOL     OW62427   7.341   8.385   5.230  0.1463  0.0756  0.5516
20220SOL    HW162428   7.285   8.432   5.292 -0.1513 -1.4796  1.5043
20220SOL    HW262429   7.415   8.355   5.283 -0.1759 -1.3932  0.2002
20221SOL     OW62430   2.337   2.202   2.001 -0.1770  0.3487 -0.1188
20221SOL    HW162431   2.350   2.119   2.046 -0.5620 -0.1814 -0.9546
20221SOL    HW262432   2.415   2.212   1.946  0.2976  0.9976  0.6547
20222SOL     OW62433   2.577   3.817   6.046 -0.0401 -0.7171  0.0744
20222SOL    HW162434   2.669   3.836   6.060 -0.0546 -0.2316 -0.4347
20222SOL    HW262435   2.534   3.903   6.047 -0.4236 -0.9029 -0.0930
20223SOL     OW62436   9.838   1.423   7.028 -0.0474  0.3426  0.0587
20223SOL    HW162437   9.903   1.476   6.983  2.1204 -1.5250  0.7652
20223SOL    HW262438   9.822   1.349   6.969  1.1140 -0.9525  1.2830
20224SOL     OW62439   5.965   9.849   6.129  0.5791  0.1613 -0.2444
20224SOL    HW162440   6.014   9.830   6.049  1.5931  0.6994  0.2307
20224SOL    HW262441   5.933   9.938   6.117  1.9259  0.7895  0.4919
20225SOL     OW62442   8.200   4.006   4.848  0.3493  0.0042  0.4739
20225SOL    HW162443   8.278   4.005   4.793  1.7156  2.6728  2.1589
20225SOL    HW262444   8.134   4.050   4.795  1.3189  1.5514  0.4931
20226SOL     OW62445   5.504   5.066   7.402  0.0509 -0.8096  0.0771
20226SOL    HW162446   5.534   5.153   7.426  0.4332 -0.5749 -1.1838
20226SOL    HW262447   5.575   5.007   7.429  1.1548 -0.3920 -1.7331
20227SOL     OW62448   5.111   8.103   9.035 -0.3238 -0.4939 -0.5064
20227SOL    HW162449   5.158   8.175   8.993  2.3639 -2.5298 -1.2794
20227SOL    HW262450   5.046   8.076   8.970 -1.1278  0.9463 -0.3425
20228SOL     OW62451   4.759   5.774   0.064 -0.3268  0.0210  0.0972
20228SOL    HW162452   4.740   5.851   0.011  1.0049 -1.6904 -3.1453
20228SOL    HW262453   4.839   5.797   0.112 -0.4419  0.9410 -0.1351
20229SOL     OW62454   5.598   8.943   3.714 -0.0421  0.5722 -0.3677
20229SOL    HW162455   5.534   9.013   3.714 -2.4312 -1.4491  1.4227
20229SOL    HW262456   5.675   8.981   3.670 -1.3343  4.0646  0.0770
20230SOL     OW62457   2.329   3.335   6.212  0.7457 -0.0124 -0.5404
20230SOL    HW162458   2.299   3.417   6.173  0.3553 -0.0010 -0.2189
20230SOL    HW262459   2.296   3.267   6.154  0.5552  0.0266 -0.4764
20231SOL     OW62460   5.658   3.628   7.043  0.2357  0.2449 -0.0358
20231SOL    HW162461   5.744   3.601   7.008  0.6411 -0.1975  1.2272
20231SOL    HW262462   5.614   3.545   7.061  0.4606  0.4348  1.4610
20232SOL     OW62463   9.651   6.337   3.068  0.5144 -0.1134 -0.2271
20232SOL    HW162464   9.661   6.276   2.995  0.3544 -1.9034  1.1480
20232SOL    HW262465   9.557   6.354   3.072  0.3690 -0.9332  0.2114
20233SOL     OW62466   8.390   6.809   0.976  0.2931  0.4131  0.4289
20233SOL    HW162467   8.456   6.778   1.038  1.0948  0.7937 -0.2208
20233SOL    HW262468   8.432   6.882   0.931 -0.9310  1.3050  0.6912
20234SOL     OW62469   7.094   1.100   5.369  0.7138 -0.3717  0.4439
20234SOL    HW162470   7.073   1.193   5.372 -2.5804 -0.9877  0.0887
20234SOL    HW262471   7.188   1.097   5.355  1.0174  2.8816  1.0913
20235SOL     OW62472   7.155   2.266   3.974  0.3041 -0.1329  0.4794
20235SOL    HW162473   7.127   2.355   3.950 -1.0011 -0.7135 -0.2653
20235SOL    HW262474   7.199   2.233   3.896 -2.4944 -1.4300 -0.6903
20236SOL     OW62475   2.742   4.195   0.251  0.2190  0.1056  0.2352
20236SOL    HW162476   2.833   4.169   0.256  0.2606  0.2603  0.3003
20236SOL    HW262477   2.693   4.113   0.247  0.4288  0.0240 -1.1012
20237SOL     OW62478   4.719   7.921   9.602  0.4302 -0.5131  1.5116
20237SOL    HW162479   4.802   7.883   9.573  0.6005  0.5244  0.5776
20237SOL    HW262480   4.738   7.959   9.688  0.7999 -0.6824  1.5066
20238SOL     OW62481   4.785   5.806   1.433 -0.3758 -0.0869  0.0288
20238SOL    HW162482   4.695   5.783   1.457 -0.2352 -1.1142 -0.3893
20238SOL    HW262483   4.811   5.873   1.497 -1.4560  0.2657  0.1125
20239SOL     OW62484   5.397   9.039   1.355  0.3175  0.4099 -0.5603
20239SOL    HW162485   5.366   8.965   1.304 -1.3470  0.6022  0.1242
20239SOL    HW262486   5.493   9.032   1.351  0.2096 -0.7756 -1.9103
20240SOL     OW62487   5.667   8.518   7.744  0.4189  1.0493 -0.5062
20240SOL    HW162488   5.597   8.570   7.704  1.0415  1.6443 -0.8527
20240SOL    HW262489   5.740   8.580   7.754  1.1207  0.2853 -0.7623
20241SOL     OW62490   0.688   2.827   7.986  0.0439 -1.0973  0.3387
20241SOL    HW162491   0.687   2.922   7.974  0.2128 -0.9838  1.1533
20241SOL    HW262492   0.772   2.809   8.027 -1.1212 -1.2259  2.8762
20242SOL     OW62493   9.447   0.901   0.755  0.2221  0.1047  0.0418
20242SOL    HW162494   9.421   0.878   0.844 -2.6175  1.3156 -0.3793
20242SOL    HW262495   9.492   0.984   0.764 -1.4660  1.0436  0.2656
20243SOL     OW62496   7.328   5.420   2.471 -0.2335 -0.0679 -0.2547
20243SOL    HW162497   7.363   5.339   2.506 -0.6521 -0.1995 -0.1293
20243SOL    HW262498   7.233   5.414   2.486 -0.2644  0.4667 -0.1865
20244SOL     OW62499   2.673   8.848   8.425  0.0139 -0.1056  0.7184
20244SOL    HW162500   2.677   8.828   8.518 -1.8068 -0.8291  0.6824
20244SOL    HW262501   2.596   8.904   8.416  1.3785  1.7600 -0.0941
20245SOL     OW62502   0.272   3.975   3.432 -0.4426 -0.0848 -0.2775
20245SOL    HW162503   0.325   4.053   3.418  0.7866 -1.0856 -1.3539
20245SOL    HW262504   0.272   3.964   3.528  0.0520  0.7543 -0.1672
20246SOL     OW62505   6.471   9.157   2.864  0.5263  0.1562  0.3011
20246SOL    HW162506   6.389   9.142   2.910 -0.0617  0.8031 -0.5039
20246SOL    HW262507   6.510   9.071   2.855 -0.4810 -0.2748 -0.0683
20247SOL     OW62508   0.349   0.423   6.402 -0.2223  0.0100  0.6216
20247SOL    HW162509   0.372   0.416   6.310 -1.7980 -1.0757  0.2758
20247SOL    HW262510   0.432   0.438   6.447  0.4244  2.1551 -1.0899
20248SOL     OW62511   1.162   9.577   8.193 -0.4279 -0.1955  0.2232
20248SOL    HW162512   1.209   9.656   8.169 -1.6454  0.8353  1.1090
20248SOL    HW262513   1.103   9.561   8.120  1.3150 -1.5951 -0.9767
20249SOL     OW62514   6.938   1.737   7.049  0.1699 -0.1186 -0.3242
20249SOL    HW162515   6.979   1.660   7.089  1.2144  0.1053 -0.9373
20249SOL    HW262516   6.902   1.704   6.967  0.5812  0.0416 -0.5674
20250SOL     OW62517   3.150   9.683   9.832  0.5229 -0.2099 -0.4249
20250SOL    HW162518   3.199   9.614   9.876  2.8219  2.3518  1.4494
20250SOL    HW262519   3.103   9.728   9.903 -0.2939  0.6398 -1.4568
20251SOL     OW62520   1.382   9.310   0.587 -0.3552  0.4371 -0.1693
20251SOL    HW162521   1.426   9.245   0.533  0.3825  0.2025  0.6940
20251SOL    HW262522   1.325   9.357   0.526  0.0486 -0.1745 -1.0405
20252SOL     OW62523   4.214   6.794   0.569 -0.2360  0.1403 -0.2317
20252SOL    HW162524   4.173   6.852   0.504  0.8756  1.1823 -0.0469
20252SOL    HW262525   4.263   6.854   0.626 -1.8740 -0.6213  2.1388
20253SOL     OW62526   0.696   9.075   3.905 -0.3704 -0.5803  0.0410
20253SOL    HW162527   0.742   9.144   3.857  0.0586 -1.2444 -0.5195
20253SOL    HW262528   0.636   9.038   3.841  1.2932 -2.5238 -0.5067
20254SOL     OW62529   0.379   4.694   1.944  0.4788  1.1071  0.0873
20254SOL    HW162530   0.298   4.734   1.914  0.5385  0.4043 -1.0622
20254SOL    HW262531   0.352   4.632   2.011  0.0508  0.7956 -0.3699
20255SOL     OW62532   4.161   6.534   4.458 -0.6060  0.3316 -0.8368
20255SOL    HW162533   4.245   6.546   4.504 -1.1343  1.4021 -0.1027
20255SOL    HW262534   4.148   6.439   4.457 -0.9919  0.2506  2.0794
20256SOL     OW62535   0.235   4.361   3.387  0.0261  0.0722  0.0161
20256SOL    HW162536   0.175   4.319   3.449  1.6231 -0.3357  1.3823
20256SOL    HW262537   0.200   4.340   3.301 -0.6087 -2.0054  0.7174
20257SOL     OW62538   5.940   7.946   3.290 -0.3814 -0.2591 -0.7887
20257SOL    HW162539   5.952   8.034   3.327 -0.7371 -0.8236  0.7445
20257SOL    HW262540   5.982   7.888   3.354 -0.1368 -1.2148 -1.7902
20258SOL     OW62541   9.813   7.351   1.219 -0.4634 -0.1203  0.3789
20258SOL    HW162542   9.880   7.327   1.155 -0.4317  2.1066 -0.5265
20258SOL    HW262543   9.730   7.343   1.171 -0.6201 -0.3391  0.6827
20259SOL     OW62544   8.926   7.743   6.181 -0.0375  0.2150  0.8641
20259SOL    HW162545   8.915   7.834   6.154 -0.7207  0.0618  0.6130
20259SOL    HW262546   9.020   7.734   6.198  0.6008  0.1415 -2.1700
20260SOL     OW62547   1.070   3.549   0.008 -0.5719 -0.3906  0.2194
20260SOL    HW162548   1.112   3.542  -0.077 -0.1440  0.8061  0.3056
20260SOL    HW262549   0.980   3.575  -0.011 -1.7578 -4.1177 -0.0288
20261SOL     OW62550   0.533   5.397   3.940  0.1898  0.6210  0.0499
20261SOL    HW162551   0.443   5.396   3.908  0.4528 -0.3792 -0.6871
20261SOL    HW262552   0.585   5.363   3.868  0.7719 -1.9310  1.5656
20262SOL     OW62553   1.121   2.576   1.224  0.0674 -0.4000 -0.1822
20262SOL    HW162554   1.077   2.561   1.308 -0.9677  1.8003 -0.2745
20262SOL    HW262555   1.175   2.654   1.239 -0.4623  0.2784 -1.6699
20263SOL     OW62556   7.205   6.183   1.388 -0.4335 -0.0359 -0.3596
20263SOL    HW162557   7.191   6.092   1.413  0.5109  0.0369  0.4927
20263SOL    HW262558   7.268   6.216   1.452  0.9875  0.5662 -1.9889
20264SOL     OW62559   3.407   7.254   9.730 -0.6607 -0.0356  0.0346
20264SOL    HW162560   3.444   7.262   9.643 -1.2524  1.9452 -0.0903
20264SOL    HW262561   3.330   7.197   9.719 -0.8797  0.4129 -0.7916
20265SOL     OW62562   3.492   7.713   0.146 -0.5641  0.2111 -0.2901
20265SOL    HW162563   3.445   7.648   0.094  0.0338 -0.4170 -0.0729
20265SOL    HW262564   3.426   7.748   0.206 -0.5693 -1.4506  0.7729
20266SOL     OW62565   7.025   5.452   6.034  0.0094  0.2311 -0.3435
20266SOL    HW162566   7.031   5.376   5.976 -1.0848 -1.8053  2.0187
20266SOL    HW262567   6.932   5.477   6.030 -0.0666  0.0990  0.4407
20267SOL     OW62568   0.330   6.729   0.629  0.1423  0.1840  0.0117
20267SOL    HW162569   0.401   6.712   0.567  1.4969 -1.7828  1.9669
20267SOL    HW262570   0.257   6.759   0.574  1.2412 -1.5134 -2.5501
20268SOL     OW62571   4.880   5.195   3.033 -0.0622  0.4505 -0.1404
20268SOL    HW162572   4.918   5.107   3.036  1.8379  1.0594 -2.6763
20268SOL    HW262573   4.787   5.181   3.015 -0.0992 -1.0353  1.0567
20269SOL     OW62574   8.469   3.447   1.811  0.1054 -0.1847 -0.2192
20269SOL    HW162575   8.449   3.415   1.722  1.7943 -0.1703 -0.6287
20269SOL    HW262576   8.564   3.444   1.817  0.0065 -1.5537  2.1146
20270SOL     OW62577   0.789   8.264   1.154 -0.2275  0.0407  0.3467
20270SOL    HW162578   0.766   8.313   1.233 -0.8820 -1.2704  1.0130
20270SOL    HW262579   0.879   8.289   1.135  0.0309  0.1882  1.6738
20271SOL     OW62580   9.066   5.192   8.931  0.4964  0.1363 -0.7764
20271SOL    HW162581   9.143   5.246   8.946  1.0766 -0.4167 -1.6460
20271SOL    HW262582   9.098   5.118   8.879  0.2097 -2.3387  2.2656
20272SOL     OW62583   0.476   6.706   1.465 -0.2611  0.5371 -0.0357
20272SOL    HW162584   0.528   6.662   1.532 -0.6044 -2.2972 -1.4626
20272SOL    HW262585   0.529   6.699   1.385 -1.7334 -0.2990 -1.0005
20273SOL     OW62586   3.590   5.359   3.788  0.2510 -0.4014 -0.1972
20273SOL    HW162587   3.612   5.451   3.801  1.6749 -0.8354  0.7061
20273SOL    HW262588   3.512   5.360   3.732  0.5302  1.3258 -0.5934
20274SOL     OW62589   4.140   9.434   4.214  0.6209  0.3492 -0.0006
20274SOL    HW162590   4.131   9.405   4.305  0.1764  0.7571  0.0897
20274SOL    HW262591   4.196   9.368   4.174 -0.2325 -0.5512  0.2333
20275SOL     OW62592   0.199   0.372   3.427 -0.3285  0.3137 -0.2253
20275SOL    HW162593   0.113   0.410   3.408 -0.3835  0.2672 -0.0646
20275SOL    HW262594   0.246   0.379   3.344 -1.2071 -1.6465 -0.9561
20276SOL     OW62595   6.952   4.784   0.014  0.4544 -0.7633 -0.3267
20276SOL    HW162596   6.912   4.750   0.094  2.3651  2.2269  2.1022
20276SOL    HW262597   6.883   4.837  -0.025  0.3176 -0.0073  0.8848
20277SOL     OW62598   9.270   8.998   3.699 -0.1250 -0.9755  0.4141
20277SOL    HW162599   9.242   9.063   3.634 -0.3375 -1.3460  0.1294
20277SOL    HW262600   9.330   9.046   3.757 -0.0443 -0.6041  0.0302
20278SOL     OW62601   5.046   0.948   5.770  0.0192  0.3614  0.2337
20278SOL    HW162602   5.114   0.997   5.816  0.5349 -0.3771  0.2625
20278SOL    HW262603   5.086   0.923   5.687  0.4027 -1.5317  0.9376
20279SOL     OW62604   1.675   4.271   0.941 -0.4728  0.2677 -0.1970
20279SOL    HW162605   1.743   4.261   0.875  0.5403 -0.3445  0.8963
20279SOL    HW262606   1.615   4.198   0.924  0.3250 -0.4947  0.1489
20280SOL     OW62607   1.485   1.754   7.237 -0.4782 -0.4708  0.3447
20280SOL    HW162608   1.484   1.850   7.241  0.1254 -0.4708  0.5447
20280SOL    HW262609   1.537   1.734   7.159  0.0440 -0.6440  0.7357
20281SOL     OW62610   7.034   2.927   7.235 -0.5965 -0.5441  0.3423
20281SOL    HW162611   7.101   2.863   7.210  0.3993 -0.1007  1.7529
20281SOL    HW262612   7.022   2.914   7.329 -1.4669  0.3532  0.3770
20282SOL     OW62613   8.288   7.826   7.931 -0.3255 -0.0680 -0.4151
20282SOL    HW162614   8.292   7.756   7.866 -0.7762 -3.0520  2.4405
20282SOL    HW262615   8.375   7.866   7.930  0.5178 -1.8291 -1.0739
20283SOL     OW62616   1.194   6.042   5.613 -0.3394 -0.1048 -0.5149
20283SOL    HW162617   1.118   5.993   5.646 -0.9883  1.4902  0.4720
20283SOL    HW262618   1.269   5.996   5.650 -1.0114  1.3082  3.0019
20284SOL     OW62619   1.736   8.056   5.154  0.0980  0.3523 -0.4803
20284SOL    HW162620   1.643   8.035   5.141  0.2697  0.3442 -1.8272
20284SOL    HW262621   1.744   8.147   5.127  0.4792  0.3628 -0.3326
20285SOL     OW62622   9.284   1.263   6.022  0.1746 -0.7598 -0.3057
20285SOL    HW162623   9.205   1.222   5.985 -0.1967 -2.1485  1.8484
20285SOL    HW262624   9.260   1.355   6.033 -0.8428 -0.9887 -0.4912
20286SOL     OW62625   0.204   8.844   5.694 -0.4350 -0.2011  0.0995
20286SOL    HW162626   0.146   8.840   5.618 -1.6635  1.9601  0.8175
20286SOL    HW262627   0.271   8.778   5.677 -2.6589 -2.3210 -1.1341
20287SOL     OW62628   5.772   8.272   7.608  0.0704  0.3724  0.6948
20287SOL    HW162629   5.731   8.345   7.655 -0.8310 -0.0910  0.6541
20287SOL    HW262630   5.712   8.199   7.621  0.5565 -0.1517  0.0522
20288SOL     OW62631   9.112   6.540   7.637  0.4081  0.3446 -0.3672
20288SOL    HW162632   9.100   6.448   7.616  0.0461  0.2511  0.2084
20288SOL    HW262633   9.068   6.551   7.722  1.5326  0.7677  0.1747
20289SOL     OW62634   7.430   2.045   7.571 -0.0203 -0.2881  0.4943
20289SOL    HW162635   7.480   1.984   7.516 -0.4406  1.8397 -2.4581
20289SOL    HW262636   7.338   2.028   7.549 -0.1849  0.7675  0.2963
20290SOL     OW62637   0.932   1.944   1.755 -0.6216  0.7008  0.0331
20290SOL    HW162638   0.990   1.932   1.830 -1.1114 -0.3114  0.2632
20290SOL    HW262639   0.880   2.021   1.777  0.6366  1.6546 -0.1971
20291SOL     OW62640   2.423   1.619   6.514 -0.1754 -0.4694  0.3288
20291SOL    HW162641   2.347   1.659   6.472  0.0962  1.5484  1.6391
20291SOL    HW262642   2.436   1.671   6.594  3.2706 -0.0078 -0.4162
20292SOL     OW62643   0.163   5.145   1.049  0.0781  0.2132 -0.3064
20292SOL    HW162644   0.122   5.092   1.117  0.6858  0.0358 -0.0688
20292SOL    HW262645   0.154   5.093   0.969  0.3654 -0.1005 -0.1396
20293SOL     OW62646   2.299   7.591   5.355  0.1193  0.5971  0.1414
20293SOL    HW162647   2.209   7.560   5.360  0.0910  0.6265 -0.1749
20293SOL    HW262648   2.293   7.686   5.366  0.2950  0.4108  2.0990
20294SOL     OW62649   2.097   9.105   0.738  0.0435  0.4137 -0.0591
20294SOL    HW162650   2.173   9.154   0.771 -0.6995  2.1663 -0.8460
20294SOL    HW262651   2.128   9.015   0.732  1.0931  0.4845  2.6673
20295SOL     OW62652   9.515   0.650   2.461  0.2230 -0.1830 -0.2896
20295SOL    HW162653   9.533   0.707   2.385 -1.6618  0.7543 -0.0997
20295SOL    HW262654   9.441   0.597   2.433 -0.1386 -0.2115  0.7027
20296SOL     OW62655   9.179   5.063   3.049 -0.8010  0.2929 -0.3626
20296SOL    HW162656   9.155   5.154   3.034  1.5761  0.7082 -2.1210
20296SOL    HW262657   9.153   5.017   2.969  2.0299  0.3645 -1.4217
20297SOL     OW62658   2.243   8.070   5.651 -0.1638 -0.0011  0.1544
20297SOL    HW162659   2.329   8.105   5.672  0.2804 -0.4460 -0.8694
20297SOL    HW262660   2.187   8.147   5.640  0.2590  0.3027  0.1386
20298SOL     OW62661   8.256   0.471   5.196  0.6101 -0.0682  0.4301
20298SOL    HW162662   8.242   0.531   5.269 -0.5040  1.6816 -1.1189
20298SOL    HW262663   8.277   0.528   5.122 -0.7558 -1.5512 -1.1860
20299SOL     OW62664   8.358   3.209   8.442 -0.2363  0.2498  0.1936
20299SOL    HW162665   8.432   3.152   8.424 -0.6541 -0.9757  2.0236
20299SOL    HW262666   8.393   3.298   8.435  0.7495 -0.2417 -1.4565
20300SOL     OW62667   2.597   3.808   3.494  0.1643  0.5733  0.4047
20300SOL    HW162668   2.608   3.851   3.579  0.5536 -0.8744  1.1154
20300SOL    HW262669   2.598   3.715   3.514 -1.8604  0.2075 -0.9444
20301SOL     OW62670   9.137   7.599   3.014  0.0020 -0.2795  0.1666
20301SOL    HW162671   9.061   7.652   3.037  0.7983  0.4271  1.2883
20301SOL    HW262672   9.152   7.617   2.922 -0.9690 -0.1440  0.0240
20302SOL     OW62673   1.973   3.005   7.164  0.2588  0.8341  0.1949
20302SOL    HW162674   2.028   2.928   7.149  0.2717  1.0668 -1.0523
20302SOL    HW262675   2.033   3.079   7.153  0.3091  1.0313  1.6535
20303SOL     OW62676   0.944   1.015   8.098  0.3070  0.2011 -0.1078
20303SOL    HW162677   0.989   0.972   8.025 -1.9026 -1.0382 -0.8438
20303SOL    HW262678   0.979   0.972   8.176  0.4815 -0.6417 -0.6387
20304SOL     OW62679   1.251   3.453   8.032 -0.0402  0.4506 -0.1617
20304SOL    HW162680   1.329   3.436   7.979 -0.0235  0.5533 -0.1703
20304SOL    HW262681   1.283   3.452   8.122 -0.3809 -1.5513 -0.0206
20305SOL     OW62682   4.858   5.903   8.492 -0.3552 -0.2236 -0.1504
20305SOL    HW162683   4.867   5.823   8.440  2.5791 -0.0168 -0.1345
20305SOL    HW262684   4.884   5.878   8.580  0.5371  0.6868 -0.1315
20306SOL     OW62685   7.032   5.856   4.702  0.2310  0.5920  0.1700
20306SOL    HW162686   7.068   5.937   4.666 -1.7126  2.0473  1.2584
20306SOL    HW262687   7.085   5.786   4.665  1.7577  2.3500 -1.0884
20307SOL     OW62688   7.807   6.590   8.521  0.3889  0.1964 -0.8502
20307SOL    HW162689   7.886   6.555   8.481  2.0515  0.8694  1.5901
20307SOL    HW262690   7.745   6.517   8.521  1.9225 -1.1542 -0.5296
20308SOL     OW62691   2.059   7.380   0.505 -0.4977  0.1075  0.4392
20308SOL    HW162692   2.133   7.437   0.484 -0.4600  0.0299  0.3623
20308SOL    HW262693   2.087   7.293   0.475  0.3920 -0.4208  2.6085
20309SOL     OW62694   7.236   6.390   8.982 -0.4242  0.3397 -0.0147
20309SOL    HW162695   7.147   6.425   8.975  0.4556  2.6520 -0.3192
20309SOL    HW262696   7.265   6.414   9.070 -0.4378 -1.3809  0.5054
20310SOL     OW62697   2.425   8.560   0.136 -0.6977 -0.2789  0.1820
20310SOL    HW162698   2.468   8.634   0.179 -0.7141 -0.7355  1.0108
20310SOL    HW262699   2.459   8.561   0.047  1.0052 -0.5936  0.7962
20311SOL     OW62700   3.539   8.263   5.151  0.5065 -0.4338 -0.2684
20311SOL    HW162701   3.617   8.301   5.110  0.5165 -0.8163 -0.6058
20311SOL    HW262702   3.481   8.244   5.078 -0.4142  0.9561  0.0578
20312SOL     OW62703   2.550   0.767   3.277  0.1359  0.2523 -0.3921
20312SOL    HW162704   2.484   0.723   3.330  0.6547 -0.0883 -0.0255
20312SOL    HW262705   2.612   0.699   3.253  1.3256  0.8756  0.7584
20313SOL     OW62706   7.946   8.328   6.542  0.0837 -0.7213  0.2496
20313SOL    HW162707   7.901   8.408   6.517 -0.4957 -0.4550  2.0191
20313SOL    HW262708   8.034   8.356   6.566  0.8012 -1.0452 -1.8191
20314SOL     OW62709   6.053   9.751   4.522 -0.0179  0.3653 -0.3385
20314SOL    HW162710   6.123   9.732   4.585 -0.0476  0.1385 -0.3754
20314SOL    HW262711   6.022   9.838   4.547  2.0825  1.6977 -1.9258
20315SOL     OW62712   8.863   8.323   7.188  0.1412  0.3967  0.4000
20315SOL    HW162713   8.905   8.409   7.182 -0.1309  0.4629 -0.8994
20315SOL    HW262714   8.913   8.268   7.127 -0.6050  0.0277  0.1123
20316SOL     OW62715   2.176   2.201   0.705 -0.3487  0.2458 -0.2289
20316SOL    HW162716   2.133   2.277   0.666  0.2406  0.5277 -0.3442
20316SOL    HW262717   2.147   2.202   0.797 -1.0276  0.1005 -0.4347
20317SOL     OW62718   0.618   8.523   5.223  0.4735  0.3521 -0.0286
20317SOL    HW162719   0.662   8.522   5.138 -1.0370  0.1806 -0.8463
20317SOL    HW262720   0.565   8.443   5.223 -0.1177  0.7285  0.7591
20318SOL     OW62721   0.737   4.943   5.662  0.9598  0.4077 -0.2231
20318SOL    HW162722   0.656   4.959   5.613  1.9115  0.3840 -1.8773
20318SOL    HW262723   0.725   4.855   5.700 -0.2842  0.9198  0.6513
20319SOL     OW62724   1.791   9.450   0.147  0.6813  0.2441  0.1938
20319SOL    HW162725   1.799   9.363   0.109  1.2756  0.7475 -0.9109
20319SOL    HW262726   1.816   9.440   0.239 -0.1374 -0.8972  0.3050
20320SOL     OW62727   1.643   5.372   7.804  0.3568 -0.5822  0.2603
20320SOL    HW162728   1.714   5.377   7.741 -0.2477  0.4650 -0.3512
20320SOL    HW262729   1.630   5.278   7.817 -0.1168 -0.8570 -1.8807
20321SOL     OW62730   8.875   3.487   1.001  0.1526 -0.2316 -0.5008
20321SOL    HW162731   8.877   3.559   0.938 -4.4204  1.4049  0.8220
20321SOL    HW262732   8.924   3.520   1.077 -1.8780  1.6759  0.0879
20322SOL     OW62733   4.798   1.496   2.075 -0.7987  0.0981 -0.1649
20322SOL    HW162734   4.770   1.472   2.163  3.4812 -1.7898  1.0029
20322SOL    HW262735   4.794   1.414   2.026 -2.1230  0.9057 -1.4866
20323SOL     OW62736   3.787   5.632   5.170 -0.0345  0.0074  0.2282
20323SOL    HW162737   3.791   5.545   5.130  2.6468  1.2909 -2.6669
20323SOL    HW262738   3.730   5.683   5.113  1.1626  1.0145 -0.1128
20324SOL     OW62739   3.924   0.867   6.403  0.3249 -0.3174 -0.1399
20324SOL    HW162740   3.870   0.819   6.340  0.4058 -0.7983  0.1509
20324SOL    HW262741   4.000   0.895   6.352  0.2166 -0.3883 -0.3439
20325SOL     OW62742   1.876   0.006   7.277  0.9073 -0.3373  0.7241
20325SOL    HW162743   1.909   0.045   7.196  0.3308 -1.0771  0.1308
20325SOL    HW262744   1.869   0.081   7.337 -0.8863  0.6595 -0.6172
20326SOL     OW62745   7.710   6.119   5.020  0.1619 -0.2619  0.0701
20326SOL    HW162746   7.664   6.055   5.074  0.1819  0.5197  1.0343
20326SOL    HW262747   7.799   6.121   5.055  0.3633 -0.2258 -0.4287
20327SOL     OW62748   2.647   2.027   5.244 -0.0486  0.3035  0.4052
20327SOL    HW162749   2.698   2.105   5.222 -1.1433  1.2440  1.1244
20327SOL    HW262750   2.706   1.954   5.223  0.2128  1.1978 -2.4088
20328SOL     OW62751   6.069   2.785   6.155  0.4955 -0.2618 -0.3969
20328SOL    HW162752   6.068   2.775   6.250  0.8371  0.0610 -0.3570
20328SOL    HW262753   6.055   2.879   6.141  1.5009 -0.1363 -0.6328
20329SOL     OW62754   3.816   2.313   0.446 -0.0602  0.0460 -0.0935
20329SOL    HW162755   3.820   2.223   0.413  1.2738 -0.0438  0.2818
20329SOL    HW262756   3.774   2.304   0.532  0.6220 -0.3156  0.2154
20330SOL     OW62757   4.773   0.449   0.355 -0.5347 -0.6748 -0.0205
20330SOL    HW162758   4.715   0.507   0.305 -2.3288 -0.9321  1.6478
20330SOL    HW262759   4.839   0.421   0.291 -1.3517  0.8255 -1.6236
20331SOL     OW62760   5.620   3.461   7.695  0.0641  0.5903  1.0538
20331SOL    HW162761   5.677   3.410   7.752 -0.9697 -0.1493  1.4546
20331SOL    HW262762   5.645   3.552   7.710  1.2029  0.2773  1.1299
20332SOL     OW62763   0.046   5.695   0.634 -0.6611  0.1828 -0.1466
20332SOL    HW162764  -0.048   5.706   0.648 -1.1717 -0.0187 -2.7767
20332SOL    HW262765   0.055   5.606   0.600  0.3100  0.5861 -1.0088
20333SOL     OW62766   8.188   9.827   0.289  0.0428  0.3274 -0.7300
20333SOL    HW162767   8.234   9.772   0.353  1.7542  2.8685  0.3832
20333SOL    HW262768   8.243   9.826   0.211 -0.6403 -0.5563 -1.2314
20334SOL     OW62769   6.352   3.008   2.644 -0.0669  0.1334 -0.0118
20334SOL    HW162770   6.317   2.999   2.555  1.4033 -1.2428 -0.5156
20334SOL    HW262771   6.400   3.091   2.642 -0.1046  0.1483 -0.4761
20335SOL     OW62772   2.889   3.751   3.501  0.3103  0.6736 -0.1638
20335SOL    HW162773   2.861   3.835   3.537 -0.6129  0.6638 -0.8106
20335SOL    HW262774   2.814   3.693   3.513  0.7740  0.0700 -0.1339
20336SOL     OW62775   2.606   7.995   4.719  0.1660  0.2162  0.5851
20336SOL    HW162776   2.664   8.020   4.648  1.4652  0.4268  1.6787
20336SOL    HW262777   2.598   7.899   4.711  1.6929  0.0195  1.1504
20337SOL     OW62778   4.139   9.332   3.125  0.2581 -0.5004 -0.4746
20337SOL    HW162779   4.213   9.278   3.153  0.0219 -1.5772 -1.8004
20337SOL    HW262780   4.143   9.330   3.030 -1.4478 -0.5486 -0.5711
20338SOL     OW62781   4.086   2.980   1.433  0.0919  0.5374  0.1779
20338SOL    HW162782   4.047   2.971   1.519 -1.3599 -4.4612 -0.6999
20338SOL    HW262783   4.015   2.964   1.371  1.8622 -0.4195 -1.7703
20339SOL     OW62784   8.054   6.361   9.047  0.7203 -0.2993 -0.2259
20339SOL    HW162785   8.085   6.437   9.096  1.0875 -0.9304  0.5472
20339SOL    HW262786   8.130   6.329   9.000  1.2046 -1.5872  1.3309
20340SOL     OW62787   1.555   1.989   5.735  0.0397 -0.3450  0.1614
20340SOL    HW162788   1.643   2.007   5.702  0.2070  0.5083  1.0278
20340SOL    HW262789   1.497   2.045   5.682 -0.1321 -1.6838 -1.1282
20341SOL     OW62790   7.586   4.576   2.947  0.6203  0.3411 -0.4553
20341SOL    HW162791   7.544   4.547   2.866  1.9975  1.8493 -1.7598
20341SOL    HW262792   7.658   4.513   2.960 -1.7680 -2.2099  1.7510
20342SOL     OW62793   7.364   4.868   9.594 -0.1838  0.3680  0.6004
20342SOL    HW162794   7.294   4.867   9.659  0.4886 -0.0166  1.3305
20342SOL    HW262795   7.426   4.933   9.628  0.3607 -0.1226  0.5581
20343SOL     OW62796   9.105   9.547   2.957 -0.1742  0.3494  0.1525
20343SOL    HW162797   9.159   9.626   2.955  0.8005 -0.3145 -1.8216
20343SOL    HW262798   9.018   9.578   2.983  0.2983  1.9836 -0.1261
20344SOL     OW62799   8.189   4.899   0.684  0.2219 -0.0506  0.9851
20344SOL    HW162800   8.274   4.911   0.641  0.4719 -0.2293  1.4300
20344SOL    HW262801   8.193   4.956   0.761 -0.4197  0.6605  0.5051
20345SOL     OW62802   9.713   7.804   5.475 -0.4444 -0.5621 -0.1777
20345SOL    HW162803   9.804   7.807   5.503 -0.3310 -1.5982 -0.4125
20345SOL    HW262804   9.702   7.717   5.437 -1.9078 -0.9991  1.1328
20346SOL     OW62805   8.770   2.495   6.405 -0.0510 -0.3819 -0.2616
20346SOL    HW162806   8.839   2.535   6.458 -0.9924  2.5822 -1.0887
20346SOL    HW262807   8.689   2.514   6.453 -0.6204 -0.5245 -1.1369
20347SOL     OW62808   6.058   0.475   4.304 -0.2521 -0.4721  0.3120
20347SOL    HW162809   6.088   0.385   4.297  1.1150 -0.1031  1.1204
20347SOL    HW262810   6.100   0.520   4.230 -0.9908 -0.4894 -0.1349
20348SOL     OW62811   4.613   8.706   6.556  0.2119 -0.7388  0.2961
20348SOL    HW162812   4.641   8.615   6.556 -0.5095 -0.9793 -0.7890
20348SOL    HW262813   4.691   8.755   6.580  1.4072 -1.4585 -1.8042
20349SOL     OW62814   7.785   9.630   7.754 -0.6138 -0.0898 -0.3028
20349SOL    HW162815   7.761   9.721   7.738 -0.9353  0.0953  1.0524
20349SOL    HW262816   7.779   9.587   7.669 -0.6552  1.1128 -0.9180
20350SOL     OW62817   8.071   5.346   7.801 -0.4927 -0.4013  0.0655
20350SOL    HW162818   8.096   5.438   7.809  1.2931 -0.8941  0.4978
20350SOL    HW262819   7.983   5.341   7.841  0.6772  0.5699  3.0716
20351SOL     OW62820   8.591   0.335   0.361  0.1341  0.1121 -0.1048
20351SOL    HW162821   8.523   0.401   0.376 -0.4941 -0.6716  0.6289
20351SOL    HW262822   8.660   0.382   0.315 -1.6450  0.5222 -2.5578
20352SOL     OW62823   4.218   9.222   8.711 -0.2238  0.0455 -0.1865
20352SOL    HW162824   4.136   9.271   8.709 -0.5550 -0.5162 -0.6820
20352SOL    HW262825   4.281   9.283   8.749 -0.7514  0.6613 -0.2726
20353SOL     OW62826   6.546   3.613   5.628 -0.2976 -0.0918 -0.4308
20353SOL    HW162827   6.586   3.537   5.670 -1.1679  0.0827  0.7753
20353SOL    HW262828   6.619   3.661   5.590  0.1797 -2.1487 -2.3285
20354SOL     OW62829   6.164   1.139   2.269 -0.1175 -0.0942 -0.6121
20354SOL    HW162830   6.165   1.110   2.360 -0.9672 -1.3369 -0.9656
20354SOL    HW262831   6.087   1.196   2.263 -0.4164 -0.5014 -0.6841
20355SOL     OW62832   7.180   1.862   7.340 -0.0146 -0.0015 -0.0859
20355SOL    HW162833   7.131   1.914   7.276  0.1412  0.5428  0.2356
20355SOL    HW262834   7.224   1.795   7.287 -1.8870 -1.1503 -0.3017
20356SOL     OW62835   9.140   4.331   7.495 -0.6382 -0.4299  0.5103
20356SOL    HW162836   9.116   4.297   7.582 -0.2454  2.2835  1.7997
20356SOL    HW262837   9.236   4.328   7.494 -0.5242  1.3977  1.0934
20357SOL     OW62838   7.478   9.223   5.885  0.5438  0.0299 -0.2172
20357SOL    HW162839   7.445   9.140   5.922 -1.2795  0.5563 -0.5728
20357SOL    HW262840   7.439   9.227   5.798 -1.3464  2.3426  0.6485
20358SOL     OW62841   5.066   6.451   9.294 -0.0049 -0.4790 -0.4871
20358SOL    HW162842   5.059   6.394   9.371 -0.7585 -3.1699 -2.3942
20358SOL    HW262843   5.126   6.521   9.321  0.1934 -1.6159  2.3415
20359SOL     OW62844   1.556   9.177   0.379 -0.5432  0.7695  0.9687
20359SOL    HW162845   1.570   9.098   0.431  1.4336  0.0392 -0.5124
20359SOL    HW262846   1.579   9.151   0.289 -4.1507  1.8629 -0.4380
20360SOL     OW62847   7.069   3.175   4.665  0.3759 -0.1283  0.1158
20360SOL    HW162848   7.088   3.085   4.638 -1.0582  0.1208 -1.8989
20360SOL    HW262849   6.996   3.167   4.727 -3.0242 -0.2578 -3.4859
20361SOL     OW62850   1.588   5.426   2.980  0.1596 -0.4033  0.3708
20361SOL    HW162851   1.588   5.438   3.075 -1.8659  0.5893  0.2992
20361SOL    HW262852   1.521   5.487   2.948  0.5942 -0.9235 -1.6748
20362SOL     OW62853   7.993   5.715   3.678  0.0867  0.2235  0.0515
20362SOL    HW162854   7.961   5.790   3.627  1.5181 -1.3853 -3.4979
20362SOL    HW262855   7.916   5.660   3.689 -0.8603  1.8175  2.2396
20363SOL     OW62856   5.564   2.614   2.951 -0.3187 -0.2950  0.2107
20363SOL    HW162857   5.536   2.664   2.874  2.4310  0.1516 -0.6398
20363SOL    HW262858   5.559   2.523   2.922  1.0096 -0.1184 -0.6988
20364SOL     OW62859   2.334   7.984   1.631  0.8400  0.2891  0.0207
20364SOL    HW162860   2.290   7.926   1.570  0.7890 -0.6095  0.8867
20364SOL    HW262861   2.371   7.926   1.698 -1.4258  1.2994  2.3591
20365SOL     OW62862   2.865   7.850   6.663  0.4238  0.3295 -0.0089
20365SOL    HW162863   2.874   7.862   6.569  2.4989 -0.5215  0.0374
20365SOL    HW262864   2.841   7.937   6.696 -3.4408  0.0502 -1.5331
20366SOL     OW62865   4.133   0.845   7.479 -0.3580  0.1962 -0.0700
20366SOL    HW162866   4.042   0.868   7.497 -0.2806  0.2665  0.2353
20366SOL    HW262867   4.184   0.899   7.539  0.0187  1.9097 -1.8312
20367SOL     OW62868   4.165   5.159   7.955  0.0644  0.1109  0.3542
20367SOL    HW162869   4.171   5.114   8.039  1.7059 -0.4556 -0.0143
20367SOL    HW262870   4.252   5.199   7.943  0.5771 -1.4637 -1.9249
20368SOL     OW62871   5.097   4.469   2.509 -0.1093  0.0570 -0.2172
20368SOL    HW162872   5.008   4.440   2.488  0.1431  0.3337 -1.8007
20368SOL    HW262873   5.088   4.516   2.592 -0.9119 -2.4217  1.1905
20369SOL     OW62874   2.526   2.171   1.499 -0.6090  0.1376  0.7751
20369SOL    HW162875   2.580   2.093   1.482 -0.8309  0.3364 -0.9409
20369SOL    HW262876   2.574   2.243   1.458 -0.6228  0.8762  1.9853
20370SOL     OW62877   2.136   1.452   3.462  0.1816 -0.1540  0.2640
20370SOL    HW162878   2.145   1.483   3.372 -1.1493  0.9185  0.4610
20370SOL    HW262879   2.214   1.486   3.507  0.0048  0.7802 -0.1091
20371SOL     OW62880   8.472   2.165   2.807 -0.1080 -0.3623 -0.4603
20371SOL    HW162881   8.445   2.074   2.794 -0.7387 -0.1143 -0.9514
20371SOL    HW262882   8.478   2.175   2.902  1.1021 -1.2298 -0.4140
20372SOL     OW62883   9.202   3.974   3.270  0.3586  0.4044  0.4358
20372SOL    HW162884   9.209   4.051   3.326  1.2671 -0.3083  1.3421
20372SOL    HW262885   9.128   3.925   3.305  1.8060 -0.7853  2.0504
20373SOL     OW62886   8.573   0.738   0.873  0.2462  0.4826 -0.5213
20373SOL    HW162887   8.591   0.828   0.902  1.4168 -0.1044  0.6224
20373SOL    HW262888   8.486   0.719   0.908 -0.2976  1.3688 -1.3163
20374SOL     OW62889   8.243   6.182   0.741 -0.6718  0.2702 -0.2912
20374SOL    HW162890   8.243   6.251   0.674  1.4315 -0.7407 -1.4169
20374SOL    HW262891   8.240   6.230   0.824 -1.0578  1.6495 -1.0689
20375SOL     OW62892   0.087   2.771   7.258 -0.3205  0.3490  0.2044
20375SOL    HW162893   0.056   2.718   7.184  2.4668  0.6407 -1.3145
20375SOL    HW262894   0.097   2.708   7.330 -1.2134 -0.3225 -0.2424
20376SOL     OW62895   7.649   7.970   0.363  0.0357 -0.1156  0.1136
20376SOL    HW162896   7.714   7.912   0.325  0.5274  0.1480  0.5425
20376SOL    HW262897   7.619   8.024   0.290 -0.0832 -0.5887 -0.1892
20377SOL     OW62898   3.634   8.123   6.418  0.4509  0.1841 -0.3897
20377SOL    HW162899   3.623   8.134   6.513  0.2609  0.4940 -0.4463
20377SOL    HW262900   3.712   8.069   6.409 -0.8130 -1.8527  0.0237
20378SOL     OW62901   0.267   6.183   8.356 -0.2825 -0.0239 -0.3262
20378SOL    HW162902   0.268   6.192   8.451  0.9770  0.6961 -0.3990
20378SOL    HW262903   0.197   6.243   8.327  0.0097  0.5157  0.0729
20379SOL     OW62904   5.764   6.098   3.240 -0.2669 -0.4878  0.4685
20379SOL    HW162905   5.770   6.020   3.184 -1.4525 -2.2525  2.6521
20379SOL    HW262906   5.852   6.106   3.277  0.1387 -0.1390 -0.5205
20380SOL     OW62907   8.424   7.743   7.191 -1.0659  0.0047 -0.1044
20380SOL    HW162908   8.387   7.706   7.111 -0.3438  0.5939 -0.7263
20380SOL    HW262909   8.406   7.677   7.258 -1.2857 -0.7080 -0.8440
20381SOL     OW62910   7.153   8.989   0.177  0.0356 -0.0526 -0.3278
20381SOL    HW162911   7.153   8.915   0.116  0.0008 -0.4049  0.0991
20381SOL    HW262912   7.175   8.951   0.262 -1.6572  0.1221  0.2449
20382SOL     OW62913   7.936   5.613   3.254  0.3193 -0.2703  0.4763
20382SOL    HW162914   7.981   5.692   3.283  1.0528 -0.3630 -0.4007
20382SOL    HW262915   7.932   5.620   3.159 -0.5578 -0.7901  0.4583
20383SOL     OW62916   6.032   6.039   3.372 -0.0459 -0.8375  0.0425
20383SOL    HW162917   6.047   5.969   3.308 -1.1844 -0.8812 -0.1985
20383SOL    HW262918   6.102   6.028   3.436  1.6526 -0.2589 -1.6358
20384SOL     OW62919   5.571   8.972   4.322  0.1988  0.4019 -0.0027
20384SOL    HW162920   5.590   9.064   4.305  0.5062  0.3103 -0.1624
20384SOL    HW262921   5.580   8.929   4.237  0.2484  0.1938  0.1069
20385SOL     OW62922   5.794   9.847   2.002 -0.2427  0.1321 -0.2437
20385SOL    HW162923   5.879   9.890   1.998  0.7528 -1.5443  1.1835
20385SOL    HW262924   5.784   9.805   1.916  1.5992 -1.7028  0.3407
20386SOL     OW62925   9.043   0.390   5.728  0.5172  0.5200  0.2050
20386SOL    HW162926   9.093   0.314   5.698 -0.7490 -0.7894  1.2690
20386SOL    HW262927   9.077   0.408   5.815  0.9712  1.3537 -0.1344
20387SOL     OW62928   5.629   2.646   7.028  0.0206 -0.2142  0.0102
20387SOL    HW162929   5.611   2.554   7.011  0.1476  0.0912 -1.9892
20387SOL    HW262930   5.719   2.647   7.061 -0.1923 -0.8521  0.6230
20388SOL     OW62931   3.449   1.649   6.728  0.5252  0.3918  0.1166
20388SOL    HW162932   3.445   1.739   6.697  1.1477  1.3501  2.5917
20388SOL    HW262933   3.537   1.639   6.763  0.7368 -1.4628 -0.7878
20389SOL     OW62934   6.092   5.535   6.060  0.0518  0.3515  0.7933
20389SOL    HW162935   6.187   5.540   6.069  0.0525 -0.3998  1.2148
20389SOL    HW262936   6.069   5.448   6.092 -0.4677 -0.6126 -1.9427
20390SOL     OW62937   9.577   3.687   2.506  0.2140 -0.7678  0.0266
20390SOL    HW162938   9.624   3.604   2.493 -0.4769 -1.1092 -0.3471
20390SOL    HW262939   9.521   3.671   2.582 -0.5470 -0.9383 -0.5551
20391SOL     OW62940   7.914   6.552   1.072 -0.3016  0.3451 -0.6487
20391SOL    HW162941   7.907   6.569   0.978 -2.0303  0.0723 -0.6032
20391SOL    HW262942   7.853   6.614   1.113 -0.7457 -0.5727  0.1475
20392SOL     OW62943   8.542   3.100   2.280  0.9098 -0.6494  0.1190
20392SOL    HW162944   8.546   3.142   2.194 -2.3654 -1.3513 -0.4962
20392SOL    HW262945   8.517   3.171   2.339  1.9295 -0.4290  0.3061
20393SOL     OW62946   6.513   4.158   8.702 -0.0680 -0.0684  0.7190
20393SOL    HW162947   6.472   4.173   8.617  0.1493  0.5434  0.7179
20393SOL    HW262948   6.445   4.116   8.755 -1.3646  2.5903  1.3112
20394SOL     OW62949   5.714   2.650   0.385 -0.5354  0.4173 -0.1260
20394SOL    HW162950   5.650   2.579   0.384  1.7239 -1.7873 -1.2225
20394SOL    HW262951   5.754   2.645   0.472 -0.2492  0.1828 -0.2669
20395SOL     OW62952   8.660   4.626   4.659 -0.1143  0.2555  0.1793
20395SOL    HW162953   8.648   4.717   4.631 -1.0375 -0.0332 -0.4154
20395SOL    HW262954   8.731   4.593   4.604 -1.0126  0.0887 -0.9006
20396SOL     OW62955   5.655   7.918   0.425 -0.1664  0.3383  0.8541
20396SOL    HW162956   5.650   7.831   0.464 -0.7526 -0.2840 -0.5447
20396SOL    HW262957   5.654   7.978   0.500 -1.7871 -0.7701  1.7722
20397SOL     OW62958   8.801   8.293   9.353 -0.2832 -0.1174 -0.1954
20397SOL    HW162959   8.760   8.224   9.300 -2.1118  0.0114  0.9888
20397SOL    HW262960   8.768   8.375   9.316 -1.4498 -0.0236  0.9876
20398SOL     OW62961   3.818   2.249   2.366  0.4021  0.3043  0.3331
20398SOL    HW162962   3.838   2.299   2.287 -1.3031  0.2818 -0.1705
20398SOL    HW262963   3.773   2.171   2.333  0.3596 -0.0787  1.2772
20399SOL     OW62964   1.877   8.647   3.894 -0.1572  0.6038 -0.3343
20399SOL    HW162965   1.810   8.581   3.882 -0.8505  1.3705 -0.8173
20399SOL    HW262966   1.830   8.730   3.886  0.3526  1.1914  2.0493
20400SOL     OW62967   3.537   2.617   9.647  1.1501  0.2171 -0.0550
20400SOL    HW162968   3.567   2.689   9.591  1.3539  1.7109  1.8577
20400SOL    HW262969   3.580   2.632   9.731  0.3402 -1.5442  0.7317
20401SOL     OW62970   5.137   3.956   7.767  0.1635 -0.3784  0.2245
20401SOL    HW162971   5.186   3.953   7.685  1.6228 -1.7233  1.0796
20401SOL    HW262972   5.048   3.928   7.743  0.3353  0.1036 -1.0291
20402SOL     OW62973   5.899   0.775   9.623 -0.2191  0.1146  0.4807
20402SOL    HW162974   5.856   0.697   9.658 -0.1975 -0.2525 -0.2745
20402SOL    HW262975   5.877   0.774   9.530 -0.6882  1.3288  0.5671
20403SOL     OW62976   3.450   3.614   3.022 -0.2088 -0.0772 -0.0899
20403SOL    HW162977   3.377   3.585   3.077 -0.7564 -0.7503 -1.1516
20403SOL    HW262978   3.528   3.586   3.070 -0.6872 -1.6383 -0.1622
20404SOL     OW62979   2.914   1.979   1.561 -0.2537  0.4384  0.5745
20404SOL    HW162980   2.958   1.898   1.535  0.3086 -0.1230  3.0244
20404SOL    HW262981   2.827   1.973   1.522  0.2694 -0.6422 -0.4907
20405SOL     OW62982   3.611   1.516   1.987 -0.3751  0.0613  0.1879
20405SOL    HW162983   3.571   1.481   1.907 -1.7030  0.4418  0.6538
20405SOL    HW262984   3.614   1.442   2.047 -2.3851  0.4885  0.8759
20406SOL     OW62985   9.003   5.927   1.208 -0.6383  0.1316  0.5928
20406SOL    HW162986   9.041   6.013   1.191 -1.5591  0.2248 -1.2162
20406SOL    HW262987   9.037   5.902   1.294  2.6312  0.6599 -0.4371
20407SOL     OW62988   5.757   7.421   6.037  0.0113  0.2414  0.1434
20407SOL    HW162989   5.705   7.431   6.116 -2.1415 -0.5901 -1.0690
20407SOL    HW262990   5.772   7.510   6.006  0.0016  0.5279  0.9609
20408SOL     OW62991   0.248   6.463   6.594  0.7091  0.7584  0.2212
20408SOL    HW162992   0.198   6.429   6.668 -0.4988  0.4353 -0.7077
20408SOL    HW262993   0.328   6.498   6.633  0.9326 -1.0129  1.4755
20409SOL     OW62994   4.013   6.903   8.966  0.2288  0.2389 -0.0084
20409SOL    HW162995   4.069   6.831   8.995 -0.6938  0.3098  2.2337
20409SOL    HW262996   3.948   6.862   8.910  1.8405 -0.0044 -1.7975
20410SOL     OW62997   6.762   2.049   7.114  0.1027  0.1630 -0.1177
20410SOL    HW162998   6.719   1.970   7.144 -0.7894  1.6394  2.7673
20410SOL    HW262999   6.696   2.095   7.063  0.6241 -0.8531 -1.8024
20411SOL     OW63000   9.171   1.486   1.900  0.3374  0.1111 -0.0144
20411SOL    HW163001   9.225   1.421   1.855 -0.4009 -0.8313  0.4214
20411SOL    HW263002   9.204   1.487   1.990  0.8308  0.9013 -0.1904
20412SOL     OW63003   7.383   7.598   9.349  0.0529 -0.6017 -0.3294
20412SOL    HW163004   7.304   7.636   9.310 -0.5614 -0.7988  0.6864
20412SOL    HW263005   7.428   7.673   9.389 -0.3078 -0.6855  0.2404
20413SOL     OW63006   3.589   3.810   4.034 -0.1382 -0.1386  0.5683
20413SOL    HW163007   3.522   3.811   3.965 -0.2455 -0.1757  0.6713
20413SOL    HW263008   3.539   3.818   4.115 -0.1638 -2.0616  0.7809
20414SOL     OW63009   1.556   4.423   1.193  0.0346 -0.1739 -0.9291
20414SOL    HW163010   1.632   4.475   1.219 -0.3646  0.4180 -0.9459
20414SOL    HW263011   1.593   4.349   1.144  0.6826 -0.5261  0.0827
20415SOL     OW63012   9.730   4.175   6.504 -0.4790 -0.8146 -0.2088
20415SOL    HW163013   9.736   4.163   6.599 -0.8728 -0.7346 -0.1711
20415SOL    HW263014   9.815   4.212   6.479  0.4817 -2.8690 -0.2070
20416SOL     OW63015   8.553   6.948   9.194  0.2432  0.1046 -0.1141
20416SOL    HW163016   8.480   6.980   9.142 -0.4932  0.4090  1.0788
20416SOL    HW263017   8.586   7.024   9.241 -0.1639 -0.4435  1.1132
20417SOL     OW63018   1.471   3.784   5.659  0.6240  0.0248 -0.2541
20417SOL    HW163019   1.405   3.720   5.633  0.0149  1.0467 -1.3312
20417SOL    HW263020   1.515   3.809   5.578  1.3976  0.3802  0.2551
20418SOL     OW63021   8.105   8.108   7.552  0.4776  0.2172 -0.8699
20418SOL    HW163022   8.097   8.166   7.477  1.6642 -0.5657 -1.6507
20418SOL    HW263023   8.088   8.164   7.628  0.8843  1.4124 -1.6298
20419SOL     OW63024   9.184   7.606   7.047 -0.1328 -0.6523 -0.1733
20419SOL    HW163025   9.201   7.632   7.137 -1.3340 -1.4660  0.3069
20419SOL    HW263026   9.227   7.673   6.994 -1.7691  1.4235  1.0060
20420SOL     OW63027   6.361   9.305   5.725  0.0549 -0.1313  0.1281
20420SOL    HW163028   6.445   9.322   5.682  0.5850  0.4205  1.3530
20420SOL    HW263029   6.331   9.222   5.687  1.1774 -0.3627 -0.2747
20421SOL     OW63030   8.189   4.538   2.543 -0.1394  0.2361  0.2842
20421SOL    HW163031   8.189   4.463   2.602  1.6656 -0.1963 -0.2125
20421SOL    HW263032   8.204   4.500   2.456 -2.6131  0.8701 -0.4929
20422SOL     OW63033   4.987   1.242   7.575 -0.2727  0.2659 -0.9677
20422SOL    HW163034   4.902   1.253   7.533  0.1368  1.0882 -1.6098
20422SOL    HW263035   4.989   1.150   7.601 -1.4433  0.2954 -0.7441
20423SOL     OW63036   0.891   5.226   1.211  0.4385  0.3594  0.2173
20423SOL    HW163037   0.930   5.230   1.124  1.6742  0.5772  0.7601
20423SOL    HW263038   0.854   5.314   1.225  0.4530  0.3983  0.0093
20424SOL     OW63039   2.713   6.560   9.602  0.3607 -0.4374 -0.0237
20424SOL    HW163040   2.657   6.509   9.661  1.6242 -0.3027  1.3351
20424SOL    HW263041   2.685   6.533   9.514 -2.0846 -0.0947  0.5630
20425SOL     OW63042   4.268   5.495   4.778 -0.5814  0.0603  0.6808
20425SOL    HW163043   4.331   5.539   4.721 -0.0099 -2.0640 -0.4423
20425SOL    HW263044   4.232   5.565   4.832  0.5990  1.8011 -0.6554
20426SOL     OW63045   1.754   4.285   8.342  0.1302 -0.0063  0.0831
20426SOL    HW163046   1.734   4.336   8.264 -0.5597  0.8758  0.8246
20426SOL    HW263047   1.669   4.253   8.372  0.4813 -1.0462  0.0147
20427SOL     OW63048   3.650   4.728   9.671 -0.1372 -0.1081 -0.3579
20427SOL    HW163049   3.677   4.687   9.588  0.1498  1.6457 -1.1854
20427SOL    HW263050   3.711   4.802   9.681  0.1066 -0.5519  1.6582
20428SOL     OW63051   5.697   6.155   3.805  0.0762  0.2743  0.0442
20428SOL    HW163052   5.689   6.066   3.771  1.1585  0.2965 -0.3095
20428SOL    HW263053   5.669   6.211   3.732  1.6425  0.2922 -0.5773
20429SOL     OW63054   3.306   7.341   1.394 -0.0164 -0.3650  0.2176
20429SOL    HW163055   3.386   7.295   1.366  0.3563 -0.0093  0.6812
20429SOL    HW263056   3.331   7.384   1.475 -0.2597  0.9103 -0.3550
20430SOL     OW63057   6.223   4.879   0.399  0.2487  0.2220 -0.1461
20430SOL    HW163058   6.285   4.841   0.461 -0.9682 -3.5890 -0.9960
20430SOL    HW263059   6.268   4.878   0.315 -0.1122 -0.2726 -0.3400
20431SOL     OW63060   1.386   3.437   6.772  0.4099 -0.2534 -0.5382
20431SOL    HW163061   1.292   3.437   6.757  0.2198  0.9846  0.5883
20431SOL    HW263062   1.420   3.377   6.705 -1.1285 -0.4892 -1.1506
20432SOL     OW63063   3.980   8.964   5.910 -0.0466  0.1344  0.1269
20432SOL    HW163064   4.049   9.027   5.928 -1.0089  1.6586 -1.2233
20432SOL    HW263065   4.001   8.930   5.822 -1.5048  1.3951 -0.7642
20433SOL     OW63066   1.866   3.242   1.529 -0.8225 -0.3302  0.0352
20433SOL    HW163067   1.955   3.259   1.498 -1.3173  0.1378 -1.1940
20433SOL    HW263068   1.872   3.247   1.624  0.3976  0.0381 -0.0453
20434SOL     OW63069   0.740   0.604   1.202  0.5269  0.2901 -0.4471
20434SOL    HW163070   0.776   0.619   1.114  0.7625  0.9501 -0.2499
20434SOL    HW263071   0.705   0.689   1.228  0.2493  0.0394  0.0029
20435SOL     OW63072   7.501   4.020   8.306  0.5241 -0.6826  0.1736
20435SOL    HW163073   7.566   4.045   8.371 -0.7816 -2.5604  2.3294
20435SOL    HW263074   7.552   3.984   8.233  1.9704  0.4643  0.5697
20436SOL     OW63075   4.201   5.133   8.754  0.0194  0.5788 -0.3521
20436SOL    HW163076   4.113   5.146   8.718 -0.7244 -0.8963  0.8420
20436SOL    HW263077   4.205   5.192   8.829  1.1286  2.7439 -2.0045
20437SOL     OW63078   7.619   5.897   6.709  0.6927  0.2792  0.2120
20437SOL    HW163079   7.533   5.889   6.667  0.1865  1.1722  1.0624
20437SOL    HW263080   7.681   5.893   6.636 -0.0874  0.1189 -0.4601
20438SOL     OW63081   7.953   6.285   8.030  0.1544 -0.1626  0.3867
20438SOL    HW163082   7.867   6.274   8.070 -0.0373  0.0903  0.0418
20438SOL    HW263083   7.939   6.346   7.958  0.4101 -0.9468 -0.3435
20439SOL     OW63084   1.388   8.194   4.153 -0.2553  0.2558  0.0958
20439SOL    HW163085   1.426   8.117   4.195  1.3742  0.4875 -0.8722
20439SOL    HW263086   1.302   8.165   4.124  0.8848 -1.7135 -1.5841
20440SOL     OW63087   7.288   8.175   4.903  1.0611  1.0422  0.5094
20440SOL    HW163088   7.329   8.170   4.817 -0.2409 -0.1435 -0.0745
20440SOL    HW263089   7.349   8.228   4.955  2.2792  1.0866 -0.8859
20441SOL     OW63090   4.647   8.220   4.576  0.1926  0.3118  0.1383
20441SOL    HW163091   4.580   8.271   4.622 -0.0777  0.0917 -0.0074
20441SOL    HW263092   4.608   8.202   4.490  1.2665  1.9649 -0.7444
20442SOL     OW63093   5.364   0.141   2.144 -0.0610  0.6260  0.6485
20442SOL    HW163094   5.446   0.093   2.157 -0.5142  0.1083  1.8405
20442SOL    HW263095   5.389   0.220   2.097  0.8802 -0.2428 -0.3783
20443SOL     OW63096   3.964   4.065   4.230  0.3924 -0.0838 -0.3036
20443SOL    HW163097   4.027   4.008   4.187  1.0718  0.5388 -0.1624
20443SOL    HW263098   3.957   4.029   4.319 -0.0020 -0.5818 -0.5345
20444SOL     OW63099   0.183   6.907   2.420 -0.0757 -0.8860  0.2180
20444SOL    HW163100   0.166   6.914   2.326 -0.0986 -2.7399  0.0424
20444SOL    HW263101   0.264   6.856   2.426  1.9687  2.1369  1.1879
20445SOL     OW63102   8.597   4.580   8.782 -0.0731 -0.0962  0.3367
20445SOL    HW163103   8.545   4.607   8.858 -0.4719  1.1187 -0.3391
20445SOL    HW263104   8.663   4.521   8.818 -1.5049 -1.1494  1.3041
20446SOL     OW63105   1.272   9.205   6.367  0.2429 -0.5320  0.0966
20446SOL    HW163106   1.344   9.237   6.421  0.4081  1.7068 -1.3165
20446SOL    HW263107   1.229   9.284   6.335 -0.5814 -1.7592 -2.0269
20447SOL     OW63108   5.914   9.817   3.904 -0.2187 -0.4876  0.4017
20447SOL    HW163109   5.980   9.882   3.926  1.1985 -1.7434  0.0024
20447SOL    HW263110   5.962   9.735   3.893 -1.8080 -1.4154 -0.1028
20448SOL     OW63111   7.538   3.441   2.100  0.6423 -0.1303  0.2583
20448SOL    HW163112   7.525   3.377   2.029  2.5800  0.4557 -0.6914
20448SOL    HW263113   7.539   3.525   2.055  1.1664  0.3126  1.0859
20449SOL     OW63114   2.692   7.222   4.703  0.1902  0.2213 -0.0813
20449SOL    HW163115   2.780   7.246   4.675  0.4801  0.3800  0.9249
20449SOL    HW263116   2.698   7.215   4.798 -1.0790  1.0761  0.0836
20450SOL     OW63117   3.639   9.650   2.515  0.5436 -0.0080  0.4155
20450SOL    HW163118   3.732   9.654   2.494  0.6064 -0.4544  0.6015
20450SOL    HW263119   3.622   9.557   2.531 -0.2022 -0.1226 -0.8773
20451SOL     OW63120   4.441   1.353   1.634  0.5490  0.2749  0.2229
20451SOL    HW163121   4.375   1.382   1.571  0.8356 -0.1258 -0.2616
20451SOL    HW263122   4.490   1.433   1.656  1.2547  0.2091 -1.0071
20452SOL     OW63123   5.429   9.770   3.662 -0.4485  0.0719 -0.8034
20452SOL    HW163124   5.397   9.844   3.714  1.6563  0.2639  0.2972
20452SOL    HW263125   5.428   9.696   3.722  2.1455  0.3257 -0.3290
20453SOL     OW63126   3.233   8.724   6.626  0.2552  0.9528  0.1739
20453SOL    HW163127   3.297   8.652   6.627 -0.1937  0.5572  0.5329
20453SOL    HW263128   3.219   8.745   6.718 -1.0685  0.1982  0.1697
20454SOL     OW63129   0.807   9.254   2.783  0.6719  0.2197 -0.2438
20454SOL    HW163130   0.854   9.204   2.717  1.2658  0.8935 -0.3350
20454SOL    HW263131   0.757   9.188   2.832  0.9671 -0.3848 -0.7488
20455SOL     OW63132   4.679   3.366   9.529  0.1948 -0.4249 -0.0275
20455SOL    HW163133   4.590   3.402   9.534  0.2033 -0.4037 -0.0271
20455SOL    HW263134   4.666   3.271   9.529  0.0838 -0.4248 -1.4352
20456SOL     OW63135   0.552   7.336   1.216  0.0094 -0.6037 -0.4199
20456SOL    HW163136   0.528   7.272   1.283 -1.2702  1.6987  1.4938
20456SOL    HW263137   0.478   7.337   1.156  0.3733 -1.4350 -0.8908
20457SOL     OW63138   2.216   4.900   0.971  0.4656 -0.4917 -0.0019
20457SOL    HW163139   2.204   4.807   0.952  3.5203 -0.8267 -0.9180
20457SOL    HW263140   2.311   4.910   0.982  0.2811  2.5841 -0.2425
20458SOL     OW63141   7.584   4.567   0.916 -0.2960  0.3242  0.4156
20458SOL    HW163142   7.515   4.552   0.980  0.7554  0.2351  1.5605
20458SOL    HW263143   7.615   4.656   0.934  0.6641 -0.0499  0.6923
20459SOL     OW63144   1.803   4.182   7.497 -0.4800 -0.0010  0.3805
20459SOL    HW163145   1.721   4.226   7.474 -0.0130  0.7410  0.0773
20459SOL    HW263146   1.782   4.089   7.495 -1.0030  0.1140 -1.0117
20460SOL     OW63147   4.931   2.115   6.494  0.1540 -0.0628  0.3510
20460SOL    HW163148   4.945   2.208   6.512  0.6352 -0.2160  0.8018
20460SOL    HW263149   5.012   2.087   6.451  0.1762 -0.3638  0.5871
20461SOL     OW63150   8.301   6.400   2.695  0.0037  0.5642 -0.0636
20461SOL    HW163151   8.262   6.313   2.708  0.4660  0.6043  1.9103
20461SOL    HW263152   8.262   6.431   2.613  0.4995 -1.8540 -1.3312
20462SOL     OW63153   1.025   3.874   7.611 -0.2268  0.1607  0.0362
20462SOL    HW163154   1.044   3.968   7.603  1.0590 -0.1617 -0.9497
20462SOL    HW263155   1.083   3.844   7.681  0.8710 -0.2714 -1.0283
20463SOL     OW63156   0.844   2.260   0.576 -0.7371 -0.2346  0.2946
20463SOL    HW163157   0.908   2.196   0.608 -0.4189 -0.4277 -0.6862
20463SOL    HW263158   0.892   2.311   0.510 -1.7688 -0.8369 -0.9593
20464SOL     OW63159   4.359   5.079   5.374  0.3292 -0.1793  0.0353
20464SOL    HW163160   4.367   4.985   5.355 -2.5325 -1.5078  3.9558
20464SOL    HW263161   4.269   5.100   5.351  1.1356  1.9057 -1.4606
20465SOL     OW63162   0.079   4.954   3.904  0.0902 -0.1066 -0.1529
20465SOL    HW163163   0.100   4.883   3.965 -0.5743  1.3262  1.8874
20465SOL    HW263164   0.129   5.028   3.937 -1.0721  0.9763 -0.7435
20466SOL     OW63165   7.450   1.775   9.523 -0.0914  0.0448 -0.2543
20466SOL    HW163166   7.487   1.772   9.611  0.7407  0.6233 -0.5720
20466SOL    HW263167   7.372   1.720   9.528 -1.3043  1.7797  1.4045
20467SOL     OW63168   1.975   6.003   2.304  0.0300  0.3378  0.7300
20467SOL    HW163169   2.053   6.057   2.311 -0.1649  0.6270  0.7199
20467SOL    HW263170   1.925   6.043   2.233 -0.1441  0.1798  0.7634
20468SOL     OW63171   2.378   0.709   7.757  0.4787 -0.1362  0.3255
20468SOL    HW163172   2.346   0.795   7.730  0.0437 -0.6534 -0.9319
20468SOL    HW263173   2.459   0.697   7.707  1.4049  0.1916  1.7140
20469SOL     OW63174   7.261   1.216   1.128  0.7568 -0.1902  0.3362
20469SOL    HW163175   7.350   1.181   1.130  1.3173  1.1639  0.3995
20469SOL    HW263176   7.271   1.302   1.087 -0.9759 -1.2305 -2.5791
20470SOL     OW63177   7.855   0.991   0.976 -0.3962 -0.0046 -0.6464
20470SOL    HW163178   7.934   0.995   0.923 -0.6892 -0.9997 -1.1945
20470SOL    HW263179   7.887   0.978   1.065  0.0620 -1.1765 -0.9623
20471SOL     OW63180   6.914   7.991   6.970  0.3537  0.8045 -0.3419
20471SOL    HW163181   6.981   7.964   7.034 -1.9059 -4.2644  0.3643
20471SOL    HW263182   6.940   7.948   6.889 -1.8033 -1.2050 -0.0693
20472SOL     OW63183   3.396   7.695   8.613 -0.4305  0.2820 -0.0641
20472SOL    HW163184   3.337   7.706   8.687 -0.0845  1.6270  0.0305
20472SOL    HW263185   3.447   7.776   8.610  1.0408 -0.6280 -0.4724
20473SOL     OW63186   5.112   3.016   8.019  0.3145  0.6249  0.0471
20473SOL    HW163187   5.077   3.092   7.974 -0.2280  0.9364  0.9589
20473SOL    HW263188   5.198   3.043   8.051 -0.4273  1.3521  1.5451
20474SOL     OW63189   3.078   2.694   2.470  0.4082  0.5717 -0.1940
20474SOL    HW163190   3.158   2.732   2.433 -0.2839  1.9149 -0.3569
20474SOL    HW263191   3.060   2.747   2.547  0.5143 -0.7181  0.7657
20475SOL     OW63192   7.677   2.822   6.008 -0.1223  0.0078 -0.4849
20475SOL    HW163193   7.652   2.754   6.071  0.5873 -0.6293 -0.8854
20475SOL    HW263194   7.640   2.903   6.045  0.7346 -0.2629  1.0223
20476SOL     OW63195   0.069   1.785   2.681  0.2523  0.1047  0.0464
20476SOL    HW163196   0.070   1.861   2.622 -0.0578  0.3131  0.3023
20476SOL    HW263197  -0.002   1.805   2.743 -0.2083 -0.6531 -0.2298
20477SOL     OW63198   9.124   4.316   3.117 -0.1248  0.3493  0.1901
20477SOL    HW163199   9.116   4.395   3.169 -0.3128 -0.0394  0.7619
20477SOL    HW263200   9.214   4.317   3.085  0.0868  0.4378  0.7805
20478SOL     OW63201   6.130   0.656   1.395 -0.5521 -0.2461  0.5906
20478SOL    HW163202   6.076   0.587   1.433 -0.8951 -0.9935 -1.1662
20478SOL    HW263203   6.211   0.612   1.369 -0.6296  0.0720 -0.2286
20479SOL     OW63204   1.761   8.668   6.122 -0.3724  0.5141 -0.2399
20479SOL    HW163205   1.820   8.658   6.047 -1.2874  1.8531 -1.1768
20479SOL    HW263206   1.745   8.578   6.151  2.4088  0.1147  0.3353
20480SOL     OW63207   3.212   4.812   6.317  0.2207 -0.0658  0.0831
20480SOL    HW163208   3.212   4.897   6.361 -0.8254  0.7150 -1.3595
20480SOL    HW263209   3.283   4.818   6.253 -0.3721  0.0175 -0.5680
20481SOL     OW63210   9.186   8.554   8.990 -0.7439 -0.3221 -0.0263
20481SOL    HW163211   9.269   8.539   9.034 -0.6187 -0.0918 -0.1842
20481SOL    HW263212   9.125   8.493   9.033 -0.4462 -0.6500 -0.0625
20482SOL     OW63213   0.782   1.163   6.562  0.2581  0.5133  0.1854
20482SOL    HW163214   0.750   1.086   6.515  0.9403  0.3092  0.0492
20482SOL    HW263215   0.704   1.198   6.605  0.0091 -0.4756  0.5672
20483SOL     OW63216   6.793   2.769   7.908 -0.4135  0.0933 -0.4146
20483SOL    HW163217   6.866   2.732   7.859 -1.7962 -1.4710 -1.4200
20483SOL    HW263218   6.718   2.760   7.849 -2.2320 -2.0827  1.9983
20484SOL     OW63219   5.714   2.912   3.500 -0.6343 -0.1600  0.1105
20484SOL    HW163220   5.656   2.906   3.576  0.1478 -0.6582  0.6874
20484SOL    HW263221   5.728   3.006   3.488 -1.9277 -0.0116 -0.3424
20485SOL     OW63222   2.430   9.831   1.091  0.2345 -0.1530  0.0117
20485SOL    HW163223   2.479   9.752   1.115  0.0237  0.1728  1.6299
20485SOL    HW263224   2.366   9.802   1.026  1.0528 -1.0312 -0.4160
20486SOL     OW63225   6.639   5.000   5.847  1.1064  0.2669 -0.0710
20486SOL    HW163226   6.689   5.082   5.846 -0.5188  1.2996 -0.4944
20486SOL    HW263227   6.570   5.015   5.911  1.2497 -1.1108  0.4500
20487SOL     OW63228   0.805   6.004   2.112 -0.3421  0.0061 -0.0134
20487SOL    HW163229   0.889   5.979   2.073 -0.0028 -0.1099  0.7707
20487SOL    HW263230   0.815   5.984   2.205 -1.5967 -0.9513 -0.0660
20488SOL     OW63231   8.843   3.940   4.499  0.4500 -0.2098  0.3926
20488SOL    HW163232   8.908   3.880   4.462  0.2613 -1.2088  1.6190
20488SOL    HW263233   8.870   3.951   4.590 -1.2641 -0.9003  1.0105
20489SOL     OW63234   7.157   5.503   4.398 -0.5498 -0.1386 -0.1129
20489SOL    HW163235   7.217   5.462   4.337 -1.3454  0.6722 -1.4954
20489SOL    HW263236   7.140   5.589   4.361 -1.8063  0.0087  0.7358
20490SOL     OW63237   3.078   6.789   2.908 -0.3496 -0.5163 -0.0393
20490SOL    HW163238   3.141   6.718   2.898  1.1795  0.8344 -0.5386
20490SOL    HW263239   3.069   6.825   2.820  1.1864  1.6991  0.6214
20491SOL     OW63240   6.890   3.443   8.268  0.1662 -0.1030 -0.1730
20491SOL    HW163241   6.967   3.467   8.320  3.3479 -0.2303 -4.3577
20491SOL    HW263242   6.850   3.527   8.245 -1.0313 -0.0313  1.8930
20492SOL     OW63243   5.030   8.293   7.492  0.1662  0.0715 -0.0805
20492SOL    HW163244   4.957   8.231   7.496 -0.2159  0.5694  0.8891
20492SOL    HW263245   5.102   8.243   7.454  0.8055 -1.9502  3.4116
20493SOL     OW63246   2.195   6.731   3.509  0.0918  0.3995  0.3834
20493SOL    HW163247   2.236   6.670   3.570 -2.4006 -1.0090  0.7657
20493SOL    HW263248   2.105   6.739   3.540 -1.7372 -1.3926 -3.7301
20494SOL     OW63249   1.133   5.687   6.013 -0.3132  0.4290 -0.2401
20494SOL    HW163250   1.145   5.739   6.092  0.1608  0.8826 -0.6064
20494SOL    HW263251   1.217   5.643   6.000 -0.8351 -0.7941  0.3084
20495SOL     OW63252   6.237   9.441   3.363 -0.2065  0.2527 -0.1349
20495SOL    HW163253   6.223   9.351   3.332  0.7353  0.7163 -2.0187
20495SOL    HW263254   6.148   9.476   3.373 -0.5706 -0.6498 -0.0732
20496SOL     OW63255   7.693   2.851   8.430 -0.0582 -0.2301  0.1008
20496SOL    HW163256   7.719   2.817   8.516 -1.0380  0.2325  0.6002
20496SOL    HW263257   7.598   2.858   8.435 -0.4701 -2.6882 -1.9394
20497SOL     OW63258   4.552   1.587   0.504 -0.4812 -0.5744  0.3508
20497SOL    HW163259   4.619   1.622   0.563 -0.8412  0.0554  0.3957
20497SOL    HW263260   4.481   1.560   0.561 -0.9264  0.2481  0.2089
20498SOL     OW63261   7.646   1.511   1.081 -0.2091  0.7488  0.5285
20498SOL    HW163262   7.733   1.514   1.120 -0.2887 -0.8728  0.9216
20498SOL    HW263263   7.630   1.600   1.050  1.5091  1.1073  0.5853
20499SOL     OW63264   3.318   5.378   7.562 -0.0515 -0.3909  0.6832
20499SOL    HW163265   3.249   5.412   7.505  1.2094  0.4899 -0.4099
20499SOL    HW263266   3.273   5.347   7.640 -2.1364 -3.6127 -1.5546
20500SOL     OW63267   3.384   4.625   0.125 -0.0087  0.3206  0.0961
20500SOL    HW163268   3.366   4.680   0.048  0.5387  0.2491 -0.0901
20500SOL    HW263269   3.479   4.612   0.123 -0.2657 -1.8806 -0.7195
20501SOL     OW63270   2.935   2.372   7.098  0.1638  1.1672  0.5239
20501SOL    HW163271   3.006   2.417   7.052  0.1251  1.8094  1.0859
20501SOL    HW263272   2.956   2.382   7.191 -1.3563  2.5259  0.7607
20502SOL     OW63273   7.978   4.575   1.202 -0.6626 -0.3462  0.5449
20502SOL    HW163274   8.000   4.617   1.285 -0.9701 -1.1060  1.0253
20502SOL    HW263275   8.041   4.503   1.194  0.5558  0.7898 -0.7905
20503SOL     OW63276   8.499   7.251   4.032  0.0819  0.1469  0.0831
20503SOL    HW163277   8.499   7.156   4.048  0.7788 -0.0506 -1.0084
20503SOL    HW263278   8.543   7.261   3.948  1.5300  1.5858  0.9749
20504SOL     OW63279   1.539   8.867   4.698  0.2976 -0.1386  0.0896
20504SOL    HW163280   1.488   8.803   4.648 -0.6431 -0.2968  1.2028
20504SOL    HW263281   1.627   8.831   4.702  0.4339 -0.0596 -1.5401
20505SOL     OW63282   6.678   4.280   6.665 -0.1214 -0.2471 -0.2957
20505SOL    HW163283   6.769   4.273   6.635 -0.1810 -1.9462 -0.1651
20505SOL    HW263284   6.645   4.191   6.662 -1.8842  0.3792 -0.5747
20506SOL     OW63285   2.804   5.159   9.268 -0.7417  0.0640  0.6725
20506SOL    HW163286   2.820   5.226   9.334  0.7157 -0.0932  0.5306
20506SOL    HW263287   2.769   5.206   9.193  0.0578  0.6593  0.6559
20507SOL     OW63288   0.340   3.661   3.375 -0.0732 -0.1419  0.0704
20507SOL    HW163289   0.284   3.736   3.393  1.9576  1.7642 -1.1062
20507SOL    HW263290   0.410   3.667   3.440 -1.5879 -3.0853  2.2110
20508SOL     OW63291   2.327   5.919   5.883  0.0937 -0.1326 -0.2843
20508SOL    HW163292   2.363   5.973   5.954  0.4887 -1.6460  0.7380
20508SOL    HW263293   2.404   5.883   5.839 -0.1550  0.7049 -1.4390
20509SOL     OW63294   1.821   0.531   6.341  0.0569  0.1829  0.0638
20509SOL    HW163295   1.756   0.602   6.341 -0.3768 -0.2025  0.4684
20509SOL    HW263296   1.873   0.546   6.262 -1.1221 -0.0343 -0.7823
20510SOL     OW63297   7.172   5.731   7.709 -0.1694 -0.5301  0.4765
20510SOL    HW163298   7.260   5.702   7.686 -1.0475 -1.8605 -1.4212
20510SOL    HW263299   7.134   5.762   7.627 -1.7950 -0.8724  1.0596
20511SOL     OW63300   2.581   8.404   3.182 -0.4078  1.1220 -0.7258
20511SOL    HW163301   2.531   8.485   3.180 -0.2896  1.1828 -3.0333
20511SOL    HW263302   2.644   8.412   3.110 -0.5798 -1.1191 -1.1987
20512SOL     OW63303   1.140   2.329   1.484 -0.3322  0.4937  0.0681
20512SOL    HW163304   1.132   2.236   1.506  0.1518  0.2645 -0.6830
20512SOL    HW263305   1.160   2.371   1.567 -2.3306  0.1810  0.7482
20513SOL     OW63306   4.192   1.738   0.484  0.4726 -0.2925  0.5547
20513SOL    HW163307   4.201   1.647   0.455  0.9651 -0.4772  1.2538
20513SOL    HW263308   4.102   1.744   0.515 -0.0982 -0.0574 -1.0683
20514SOL     OW63309   0.314   2.445   3.743 -0.4209  0.2195  0.4098
20514SOL    HW163310   0.229   2.477   3.774 -0.4038 -0.6071  1.3354
20514SOL    HW263311   0.300   2.426   3.651 -0.7583  1.7390  0.1120
20515SOL     OW63312   6.734   8.193   5.570 -0.1427  0.0429  0.6020
20515SOL    HW163313   6.759   8.197   5.662 -2.4075 -1.3068  1.3613
20515SOL    HW263314   6.660   8.253   5.562 -0.3968 -0.3542 -0.1771
20516SOL     OW63315   5.356   7.534   2.731  0.7070  0.2310 -0.6124
20516SOL    HW163316   5.271   7.524   2.687  1.1381  0.0151 -1.4294
20516SOL    HW263317   5.341   7.505   2.820  0.2777 -1.3154 -1.1571
20517SOL     OW63318   4.142   3.954   7.246 -0.2190 -0.2872  0.0530
20517SOL    HW163319   4.139   3.997   7.331 -0.8733 -0.8962  0.3520
20517SOL    HW263320   4.198   4.010   7.192  0.2366  0.0758  0.8954
20518SOL     OW63321   0.237   2.043   9.094 -0.1315 -0.2346  0.2294
20518SOL    HW163322   0.279   2.005   9.172 -0.9289  0.0982  0.8349
20518SOL    HW263323   0.212   2.131   9.121  0.1129  0.0884 -0.6027
20519SOL     OW63324   6.896   1.886   1.916  0.3992  0.1730  0.5303
20519SOL    HW163325   6.892   1.946   1.841  0.4184  0.6956  0.9367
20519SOL    HW263326   6.874   1.942   1.991 -0.2236 -0.4717  0.8385
20520SOL     OW63327   0.268   6.457   0.487  0.0421 -0.7075  0.7611
20520SOL    HW163328   0.282   6.493   0.399  1.4503 -0.3016  1.1237
20520SOL    HW263329   0.249   6.364   0.471  0.9814 -0.8027  0.0362
20521SOL     OW63330   8.928   5.282   7.895 -0.5710 -0.6832 -0.1091
20521SOL    HW163331   8.954   5.267   7.804 -0.6407  0.1589 -0.2777
20521SOL    HW263332   8.866   5.356   7.890 -0.1901 -0.2967  0.6721
20522SOL     OW63333   0.889   9.455   9.790 -0.3369 -0.0801 -0.5456
20522SOL    HW163334   0.856   9.400   9.718 -1.9458  0.1289 -0.0247
20522SOL    HW263335   0.827   9.527   9.795  0.8389  0.9286 -0.1587
20523SOL     OW63336   7.619   0.586   0.805  0.2173 -0.7053  0.2972
20523SOL    HW163337   7.694   0.631   0.844 -0.4372  0.0668  0.7053
20523SOL    HW263338   7.567   0.556   0.880 -1.2808  1.1718  0.0997
20524SOL     OW63339   3.380   5.732   3.750  0.5557  0.1209 -0.0711
20524SOL    HW163340   3.312   5.766   3.808  1.7501  0.7282  1.0175
20524SOL    HW263341   3.335   5.717   3.667 -1.6291 -2.4760  1.4405
20525SOL     OW63342   2.597   3.136   6.048 -0.0197  0.0001  0.3587
20525SOL    HW163343   2.505   3.115   6.062  0.0237  0.1223  0.8220
20525SOL    HW263344   2.614   3.209   6.107  0.0332  0.8444 -0.6732
20526SOL     OW63345   0.497   2.298   4.913  0.3391 -0.1803  0.2964
20526SOL    HW163346   0.435   2.319   4.844  0.4313  0.5159  0.4123
20526SOL    HW263347   0.539   2.217   4.885 -1.1538 -1.0963  0.5750
20527SOL     OW63348   7.868   9.649   9.502  0.0301  0.7071  0.0045
20527SOL    HW163349   7.948   9.627   9.548  0.1664  1.0534 -0.0649
20527SOL    HW263350   7.854   9.576   9.441  0.5572  0.8788 -0.3307
20528SOL     OW63351   0.378   0.503   0.759 -0.4835 -0.0552  0.4419
20528SOL    HW163352   0.446   0.462   0.813  0.6707  1.1124 -0.0843
20528SOL    HW263353   0.304   0.443   0.767  1.2572 -2.5869 -0.6971
20529SOL     OW63354   3.487   3.214   8.997  0.0737  0.1008 -0.1948
20529SOL    HW163355   3.425   3.287   9.004 -1.1337 -1.0441  2.4787
20529SOL    HW263356   3.433   3.136   8.989  1.2580 -0.7499 -0.2756
20530SOL     OW63357   2.924   0.072   6.943  0.0849 -0.0835  0.2624
20530SOL    HW163358   3.000   0.028   6.980  0.6162  0.5928 -0.0186
20530SOL    HW263359   2.874   0.001   6.901  0.8130 -0.4617  0.0131
20531SOL     OW63360   4.920   2.942   4.871 -0.0071 -0.2763 -0.4271
20531SOL    HW163361   4.831   2.955   4.838 -0.6642  0.7141  1.5695
20531SOL    HW263362   4.916   2.969   4.963  1.6209 -3.0613  0.6151
20532SOL     OW63363   4.580   2.785   3.187  0.1753  0.4832  0.0526
20532SOL    HW163364   4.519   2.724   3.145 -0.0918 -0.3097  1.5121
20532SOL    HW263365   4.525   2.856   3.219  0.1646  0.3339  0.3712
20533SOL     OW63366   1.043   2.764   2.456  0.1527 -0.0482 -0.0221
20533SOL    HW163367   1.037   2.758   2.552 -0.7748 -0.7358 -0.1028
20533SOL    HW263368   1.033   2.857   2.437  2.4177  0.3794  0.6462
20534SOL     OW63369   7.879   3.890   8.620  0.0186  0.3009 -0.0808
20534SOL    HW163370   7.829   3.907   8.700 -1.7306  0.2258 -1.0950
20534SOL    HW263371   7.833   3.816   8.579  1.1463  0.0500 -0.9426
20535SOL     OW63372   2.742   8.312   7.048 -0.1288 -0.0778 -0.4889
20535SOL    HW163373   2.758   8.406   7.036 -0.1862 -0.2449 -2.1767
20535SOL    HW263374   2.829   8.273   7.041 -0.0268 -0.1071  0.8484
20536SOL     OW63375   8.272   5.676   9.607  0.3124  0.3343  0.3983
20536SOL    HW163376   8.360   5.652   9.638 -0.1011 -0.2586  1.1424
20536SOL    HW263377   8.257   5.763   9.643  0.9329  0.8240 -0.4683
20537SOL     OW63378   8.271   0.524   0.031 -0.0167 -0.6335 -0.1303
20537SOL    HW163379   8.176   0.524   0.021 -0.2629 -0.8490  1.7578
20537SOL    HW263380   8.296   0.432   0.030  0.0859 -0.6075 -0.0233
20538SOL     OW63381   3.434   7.525   4.674  0.4731  0.0137  0.3125
20538SOL    HW163382   3.436   7.512   4.769 -1.6123 -2.5622  0.1207
20538SOL    HW263383   3.412   7.618   4.663  0.9167  0.4026  2.3334
20539SOL     OW63384   0.253   0.140   6.572  0.3416  0.4237 -0.5592
20539SOL    HW163385   0.222   0.130   6.482 -0.5947  1.6489 -0.3999
20539SOL    HW263386   0.312   0.215   6.569 -1.8246  2.2685  0.2912
20540SOL     OW63387   9.849   8.085   0.911  0.3320 -0.1889 -0.7475
20540SOL    HW163388   9.826   8.007   0.962 -0.3671  0.2482 -0.3857
20540SOL    HW263389   9.913   8.053   0.847  0.7250 -0.8794 -0.0327
20541SOL     OW63390   6.390   2.399   6.985  0.1019 -0.4303  0.7001
20541SOL    HW163391   6.450   2.405   7.059  0.2417  0.0908  0.5473
20541SOL    HW263392   6.332   2.475   6.995 -1.0630 -1.3507  1.3027
20542SOL     OW63393   3.263   6.414   7.304  0.3256 -0.1015 -0.2344
20542SOL    HW163394   3.340   6.376   7.263  0.0304 -1.0664  0.0867
20542SOL    HW263395   3.272   6.508   7.288  2.0950 -0.0638  0.6622
20543SOL     OW63396   6.044   3.685   4.215  0.0724 -0.2068 -0.6057
20543SOL    HW163397   5.982   3.673   4.143 -0.9415 -0.6432  0.3032
20543SOL    HW263398   6.075   3.597   4.236  1.9867  0.1079 -1.8350
20544SOL     OW63399   4.196   2.794   0.532  0.6238 -0.1750 -0.5323
20544SOL    HW163400   4.141   2.779   0.455  1.3686 -0.8411 -0.9616
20544SOL    HW263401   4.135   2.797   0.605 -0.0715  0.1355 -1.1105
20545SOL     OW63402   2.666   9.031   5.838 -0.2559 -0.3974 -0.5362
20545SOL    HW163403   2.706   9.036   5.924 -0.3328 -0.0434 -0.5183
20545SOL    HW263404   2.572   9.032   5.855 -0.2712 -0.4096 -0.6194
20546SOL     OW63405   9.653   8.281   7.715 -0.3695 -0.4248  0.1068
20546SOL    HW163406   9.702   8.276   7.797  0.0685 -1.3975 -0.1960
20546SOL    HW263407   9.654   8.191   7.681 -2.3689 -0.4934  0.0945
20547SOL     OW63408   5.976   2.134   5.623 -0.4692  0.0006 -0.1242
20547SOL    HW163409   5.899   2.175   5.583  0.8236  1.8222 -0.8694
20547SOL    HW263410   6.047   2.150   5.561  0.5100 -1.7947  0.4625
20548SOL     OW63411   6.851   8.418   3.776 -0.6807 -0.8770  0.4613
20548SOL    HW163412   6.893   8.497   3.741 -0.3075 -0.0501  2.6169
20548SOL    HW263413   6.811   8.447   3.858 -0.5636 -2.9287  1.3041
20549SOL     OW63414   0.674   2.685   8.390  0.0386 -0.3995  0.0597
20549SOL    HW163415   0.731   2.738   8.446  0.4838  0.5649 -1.2565
20549SOL    HW263416   0.666   2.601   8.436  0.9320  0.1197  1.2127
20550SOL     OW63417   7.654   2.777   7.465 -0.0894  0.1648  0.2568
20550SOL    HW163418   7.737   2.737   7.439  0.5940  1.5764  0.1501
20550SOL    HW263419   7.679   2.841   7.532 -1.2114  0.0106  0.8354
20551SOL     OW63420   6.897   0.263   6.161 -0.5866  0.0284  0.2035
20551SOL    HW163421   6.876   0.176   6.193 -2.7510  0.3818 -0.1171
20551SOL    HW263422   6.980   0.285   6.204  0.2444 -2.3208 -0.0557
20552SOL     OW63423   0.661   8.316   3.131  0.4369 -0.1037 -0.0014
20552SOL    HW163424   0.638   8.304   3.223  0.5471  0.7929  0.1546
20552SOL    HW263425   0.578   8.334   3.088  0.4570  0.0245  0.0147
20553SOL     OW63426   5.129   7.799   3.350 -0.4908 -0.1791  0.5490
20553SOL    HW163427   5.193   7.869   3.340  1.8221 -2.1924  0.1742
20553SOL    HW263428   5.114   7.766   3.261 -1.3845 -0.3186  0.7355
20554SOL     OW63429   6.399   4.426   6.064  0.3452 -0.5658  0.1888
20554SOL    HW163430   6.310   4.403   6.091  0.4066 -1.4624 -0.3329
20554SOL    HW263431   6.389   4.453   5.972  0.0512  2.9295  1.1127
20555SOL     OW63432   9.442   8.265   8.698 -0.2503  0.0931 -0.2499
20555SOL    HW163433   9.467   8.350   8.662 -1.3670 -0.3409 -2.1894
20555SOL    HW263434   9.514   8.242   8.757  1.1135  1.4074 -1.3271
20556SOL     OW63435   6.477   6.478   3.854  0.0288 -0.3295 -0.5892
20556SOL    HW163436   6.440   6.495   3.941  0.8128 -0.9757 -0.1092
20556SOL    HW263437   6.459   6.386   3.838 -0.4931 -0.1142 -1.3216
20557SOL     OW63438   9.265   9.356   1.215 -0.1519  0.3818  0.1376
20557SOL    HW163439   9.329   9.419   1.183 -0.3576  1.0418  0.9742
20557SOL    HW263440   9.301   9.324   1.297 -0.6368  0.3507  0.3426
20558SOL     OW63441   7.433   6.824   1.677 -0.2794 -0.2557  0.1942
20558SOL    HW163442   7.341   6.837   1.702 -0.1925  0.5791  0.0868
20558SOL    HW263443   7.458   6.743   1.722 -1.4134 -1.1588 -0.7097
20559SOL     OW63444   3.995   8.953   1.892  0.9985 -0.5382 -0.3069
20559SOL    HW163445   4.041   8.884   1.940 -0.6514 -1.3183  0.2024
20559SOL    HW263446   3.910   8.915   1.869  0.4026  1.0140 -0.8166
20560SOL     OW63447   1.739   4.196   4.934  0.1148  0.3209  0.5099
20560SOL    HW163448   1.729   4.289   4.955 -0.3090  0.2749  0.5290
20560SOL    HW263449   1.679   4.182   4.861  0.0923  0.0361  0.5824
20561SOL     OW63450   1.846   2.366   0.564 -0.1619  0.1644 -0.5102
20561SOL    HW163451   1.764   2.396   0.603 -0.2628 -0.6016 -0.1147
20561SOL    HW263452   1.820   2.329   0.479 -0.4537 -1.5107  0.2908
20562SOL     OW63453   5.622   0.599   1.812  0.0519  0.1255  0.3089
20562SOL    HW163454   5.542   0.635   1.775  1.0934 -0.0023 -2.2664
20562SOL    HW263455   5.644   0.658   1.883 -1.4552  1.0967  0.0083
20563SOL     OW63456   0.849   6.986   8.096  0.0411 -0.1264 -0.1950
20563SOL    HW163457   0.757   6.982   8.122  0.1396  3.0712  1.1202
20563SOL    HW263458   0.847   7.031   8.011  0.3995  1.3235  0.5308
20564SOL     OW63459   5.265   6.879   7.646 -0.0804  0.4251  0.1823
20564SOL    HW163460   5.291   6.953   7.591 -0.7689  0.1950 -0.4759
20564SOL    HW263461   5.182   6.907   7.685  0.2960  0.4986  0.9308
20565SOL     OW63462   9.646   8.286   1.827 -0.1665 -0.0092 -0.4305
20565SOL    HW163463   9.645   8.233   1.906  1.5647  0.9921  0.3259
20565SOL    HW263464   9.689   8.230   1.762 -0.1005 -0.2433 -0.1878
20566SOL     OW63465   7.164   0.587   7.666 -0.4973 -0.8416 -0.2692
20566SOL    HW163466   7.158   0.652   7.596  1.8268  0.3044  0.4973
20566SOL    HW263467   7.234   0.528   7.638 -0.4076 -1.1242  0.5319
20567SOL     OW63468   9.505   9.299   5.190 -0.1803 -0.3906  0.1080
20567SOL    HW163469   9.486   9.393   5.191 -0.0596 -0.3691  0.7920
20567SOL    HW263470   9.419   9.257   5.196 -0.1445 -0.3046  1.5813
20568SOL     OW63471   1.510   0.047   0.253 -0.0715  0.3118 -0.0549
20568SOL    HW163472   1.605   0.064   0.253  0.1094 -0.3557 -2.2818
20568SOL    HW263473   1.503  -0.045   0.230 -1.2890  0.3335  0.1917
20569SOL     OW63474   2.144   7.399   5.601 -0.5569  0.2485  0.3510
20569SOL    HW163475   2.126   7.337   5.671  1.1143 -0.1506  0.4867
20569SOL    HW263476   2.173   7.478   5.647  2.6231 -0.6907  0.1992
20570SOL     OW63477   9.343   9.191   6.489 -0.3404  0.0975 -0.1641
20570SOL    HW163478   9.374   9.275   6.522  0.6428 -0.2136 -0.2625
20570SOL    HW263479   9.268   9.169   6.545 -0.4106  0.8814  0.0596
20571SOL     OW63480   1.122   0.982   1.180  0.1133 -0.2355  0.5739
20571SOL    HW163481   1.062   0.983   1.105  0.0905 -4.6715  0.2366
20571SOL    HW263482   1.198   0.934   1.149  1.8407  1.1897  2.3783
20572SOL     OW63483   9.540   8.880   3.905 -0.2254 -0.0958 -0.4127
20572SOL    HW163484   9.615   8.842   3.859  1.2674 -0.1051  1.8804
20572SOL    HW263485   9.573   8.962   3.941 -1.3660 -0.0324  0.5402
20573SOL     OW63486   1.517   3.359   4.094  0.3382  0.1335  0.1427
20573SOL    HW163487   1.521   3.428   4.161  1.6588 -0.8220  1.0867
20573SOL    HW263488   1.486   3.282   4.141 -0.1120 -0.2028 -0.6796
20574SOL     OW63489   8.153   0.697   6.702 -0.4453  0.2945  0.5537
20574SOL    HW163490   8.078   0.748   6.674 -1.0038 -1.3214 -1.1089
20574SOL    HW263491   8.182   0.651   6.623  2.5464  1.1130  1.0312
20575SOL     OW63492   3.982   4.164   4.668 -0.3672  0.2805  0.2364
20575SOL    HW163493   3.955   4.118   4.747 -0.0464 -1.2044 -0.4640
20575SOL    HW263494   3.990   4.094   4.602  1.6524  1.1431 -0.4990
20576SOL     OW63495   7.152   3.884   7.631  0.3153 -0.4669  0.0875
20576SOL    HW163496   7.062   3.888   7.663 -0.5084 -1.9800 -1.8002
20576SOL    HW263497   7.168   3.971   7.593 -0.9192 -0.6193 -0.8475
20577SOL     OW63498   7.829   6.966   6.860 -0.5161 -0.5381  0.5903
20577SOL    HW163499   7.845   6.876   6.832 -1.2347 -0.8213  1.0571
20577SOL    HW263500   7.916   7.000   6.881 -0.3132 -1.3872  1.1857
20578SOL     OW63501   7.525   9.788   3.741  0.1031  0.3908  0.1482
20578SOL    HW163502   7.577   9.854   3.694 -1.5559  0.6914 -1.3858
20578SOL    HW263503   7.586   9.750   3.804  2.2352  0.5993 -1.6627
20579SOL     OW63504   6.593   2.224   2.373 -0.0986  0.4508 -0.4985
20579SOL    HW163505   6.572   2.155   2.310  0.6641  0.5782 -0.9047
20579SOL    HW263506   6.643   2.288   2.323  2.8194 -0.6589  0.7464
20580SOL     OW63507   4.845   6.260   3.866 -0.3984  0.7586  0.1733
20580SOL    HW163508   4.940   6.256   3.880 -0.3137  2.2712  0.2264
20580SOL    HW263509   4.811   6.297   3.948 -1.3777 -2.2514  1.2410
20581SOL     OW63510   4.634   2.898   3.594  0.4681 -0.4473  0.0668
20581SOL    HW163511   4.543   2.880   3.570 -0.2173  0.4574  1.8325
20581SOL    HW263512   4.682   2.891   3.512 -1.7390  2.6186 -1.7004
20582SOL     OW63513   3.859   7.762   8.872 -0.2622 -0.3163 -0.1519
20582SOL    HW163514   3.916   7.686   8.884  0.7770  0.3282 -0.8752
20582SOL    HW263515   3.786   7.729   8.820 -0.8610 -1.2711  1.2146
20583SOL     OW63516   7.600   6.778   8.995  0.0832  0.2231  0.5996
20583SOL    HW163517   7.654   6.748   8.922 -2.0680 -1.4679 -0.4278
20583SOL    HW263518   7.636   6.734   9.072 -0.5066 -1.9235 -0.2691
20584SOL     OW63519   3.372   1.730   5.048 -0.3324 -0.0575  0.3262
20584SOL    HW163520   3.409   1.664   4.989  0.0199  0.4296 -0.0072
20584SOL    HW263521   3.389   1.814   5.004  0.3404  0.3556  1.3358
20585SOL     OW63522   7.335   0.729   8.695 -0.0884 -0.8341  0.0933
20585SOL    HW163523   7.270   0.680   8.644 -0.6513 -0.2591  0.2525
20585SOL    HW263524   7.374   0.663   8.753 -2.5264 -0.7143  2.0410
20586SOL     OW63525   5.313   4.414   2.666  0.0464  0.5185  0.1325
20586SOL    HW163526   5.397   4.458   2.653  0.5399 -0.1017  1.0956
20586SOL    HW263527   5.274   4.410   2.579  1.8285 -0.7762 -0.6545
20587SOL     OW63528   5.594   3.940   3.196  0.2344 -0.2741  0.0420
20587SOL    HW163529   5.508   3.932   3.236 -0.2099  2.8415 -0.0641
20587SOL    HW263530   5.625   4.027   3.221  2.2618 -0.3045 -1.9722
20588SOL     OW63531   5.393   5.575   4.450 -0.1105 -0.2929 -0.0028
20588SOL    HW163532   5.390   5.590   4.544  0.4663 -0.9012  0.1220
20588SOL    HW263533   5.407   5.481   4.441  1.6987 -0.0098 -0.6382
20589SOL     OW63534   4.304   9.639   1.176  0.1592 -0.2219 -0.4322
20589SOL    HW163535   4.308   9.558   1.226 -3.3514 -1.3409 -1.6810
20589SOL    HW263536   4.348   9.619   1.094  3.4548  0.7558  0.9347
20590SOL     OW63537   5.237   8.115   6.236  0.2292  0.2544  0.2622
20590SOL    HW163538   5.313   8.084   6.285  0.2904  0.2280  0.1512
20590SOL    HW263539   5.235   8.060   6.157  1.4142  1.7515 -0.8604
20591SOL     OW63540   5.072   1.009   0.123 -0.3724  0.3168 -0.6293
20591SOL    HW163541   5.070   1.002   0.219  0.6042 -0.2276 -0.6345
20591SOL    HW263542   4.995   1.061   0.101 -1.0059 -0.1534  0.4027
20592SOL     OW63543   0.417   6.170   3.736 -0.5293  0.2680 -0.1268
20592SOL    HW163544   0.345   6.189   3.676 -0.0558  2.1888 -0.1586
20592SOL    HW263545   0.402   6.227   3.811 -0.4939 -1.2925  1.0933
20593SOL     OW63546   0.455   1.798   7.271  0.3974  0.1493 -0.3599
20593SOL    HW163547   0.493   1.863   7.212  1.0278  0.3605  0.2693
20593SOL    HW263548   0.529   1.767   7.324  0.0932 -1.0146 -0.5819
20594SOL     OW63549   8.645   0.945   7.515  0.1482  0.3084  0.0946
20594SOL    HW163550   8.619   0.992   7.594 -0.2454 -1.8586  1.3108
20594SOL    HW263551   8.654   1.014   7.449  0.0182  2.1297  1.8691
20595SOL     OW63552   1.143   8.402   8.422  0.3287  0.1091  0.3756
20595SOL    HW163553   1.232   8.415   8.455  0.4228  1.7847 -0.4712
20595SOL    HW263554   1.110   8.328   8.473  1.5735  0.5922  1.9581
20596SOL     OW63555   1.394   8.539   6.320 -0.1700  0.1920 -0.6599
20596SOL    HW163556   1.308   8.508   6.347  0.0297  0.5618  0.4124
20596SOL    HW263557   1.456   8.484   6.369  0.2037  2.4727  1.6189
20597SOL     OW63558   1.078   7.305   1.933  0.2273 -0.2387 -0.0149
20597SOL    HW163559   1.038   7.291   1.847  0.2124  1.4080 -0.3078
20597SOL    HW263560   1.007   7.290   1.995 -0.1450 -0.0325 -0.3800
20598SOL     OW63561   8.759   0.025   6.452  0.0461  0.3689 -0.1212
20598SOL    HW163562   8.665   0.035   6.467 -0.3059 -0.3664 -1.6017
20598SOL    HW263563   8.778  -0.066   6.476 -0.2807 -0.4346 -2.5955
20599SOL     OW63564   6.655   7.308   1.371  0.5343  0.1104 -0.1116
20599SOL    HW163565   6.588   7.302   1.303  0.1856 -3.7312  0.3185
20599SOL    HW263566   6.615   7.361   1.440 -0.7407  0.5962 -1.1802
20600SOL     OW63567   5.781   7.594   3.074  0.0922 -0.0601 -0.6292
20600SOL    HW163568   5.859   7.538   3.070  0.8177  0.8206  0.5466
20600SOL    HW263569   5.707   7.532   3.073  0.8490 -0.9973 -0.0843
20601SOL     OW63570   2.108   0.490   0.662  0.5082 -0.0743  0.4750
20601SOL    HW163571   2.127   0.440   0.741 -1.3222  0.8310  1.5541
20601SOL    HW263572   2.169   0.564   0.666  0.7542 -0.2874  0.7831
20602SOL     OW63573   2.245   6.937   4.648 -0.3193 -0.0932  0.3456
20602SOL    HW163574   2.318   6.990   4.681  0.0334  0.2725 -0.9584
20602SOL    HW263575   2.279   6.848   4.646  0.0538  0.0570 -0.1243
20603SOL     OW63576   2.195   6.299   1.379 -0.3661 -0.4824  0.1743
20603SOL    HW163577   2.239   6.282   1.462 -0.1532  0.0466  0.1693
20603SOL    HW263578   2.134   6.370   1.398 -0.5034 -0.5334 -0.0631
20604SOL     OW63579   7.390   6.560   8.852  0.6984  0.0330 -0.1285
20604SOL    HW163580   7.325   6.511   8.903  0.5947 -0.2791 -0.5558
20604SOL    HW263581   7.458   6.583   8.916 -0.7460  2.0742  0.7733
20605SOL     OW63582   7.997   3.119   6.589  0.1413  0.5997  0.5330
20605SOL    HW163583   8.084   3.149   6.562 -0.2346  0.8348 -0.4793
20605SOL    HW263584   8.003   3.110   6.684  1.5514 -0.2649  0.3992
20606SOL     OW63585   1.669   4.663   8.470  0.0181 -0.2777  0.2643
20606SOL    HW163586   1.653   4.726   8.541 -1.5114 -0.8360  0.4567
20606SOL    HW263587   1.582   4.640   8.439  0.6556 -0.0937 -1.7779
20607SOL     OW63588   6.583   6.333   6.762 -0.8068  0.4812  0.3983
20607SOL    HW163589   6.655   6.342   6.825 -1.5529 -1.4928  1.6252
20607SOL    HW263590   6.625   6.312   6.679  0.0715 -0.0098  0.9594
20608SOL     OW63591   9.848   2.461   1.693 -0.2885 -0.1662  0.4070
20608SOL    HW163592   9.794   2.387   1.721 -1.4384  0.6269  0.3815
20608SOL    HW263593   9.805   2.493   1.614  1.2906 -0.6199 -0.6863
20609SOL     OW63594   8.433   8.813   3.393  0.4125 -0.0313  0.5433
20609SOL    HW163595   8.449   8.721   3.371  2.3663  0.4075 -0.0385
20609SOL    HW263596   8.407   8.853   3.310 -0.0855  0.0387  0.7252
20610SOL     OW63597   0.269   3.214   4.014  0.2806  0.0056 -0.9565
20610SOL    HW163598   0.230   3.127   4.002 -1.3137  0.6838 -0.9492
20610SOL    HW263599   0.211   3.258   4.076 -0.9289  2.2086 -3.4541
20611SOL     OW63600   7.424   4.774   7.935  0.7317  0.1067  0.1420
20611SOL    HW163601   7.440   4.803   7.846 -2.8251 -1.0807 -1.0282
20611SOL    HW263602   7.419   4.678   7.929 -0.3808  0.0533  1.4375
20612SOL     OW63603   3.709   4.887   6.151 -0.0009  0.3880  0.7315
20612SOL    HW163604   3.647   4.815   6.163 -1.1641  1.1707 -0.3719
20612SOL    HW263605   3.706   4.935   6.234  0.6775 -0.7143  1.4234
20613SOL     OW63606   7.522   4.860   7.703  0.1170 -0.7251 -0.0564
20613SOL    HW163607   7.510   4.897   7.615  0.7527 -1.5147 -0.4823
20613SOL    HW263608   7.594   4.912   7.741 -0.9878  0.4543  0.4917
20614SOL     OW63609   0.763   1.140   2.075  0.1280  0.0979 -0.2990
20614SOL    HW163610   0.828   1.193   2.031  0.4594 -0.6147 -0.6689
20614SOL    HW263611   0.739   1.072   2.012 -1.7811  0.9750 -0.5957
20615SOL     OW63612   5.075   6.368   9.051 -0.4045  0.0523 -0.2085
20615SOL    HW163613   5.076   6.410   9.138 -1.1962 -1.2616  0.4559
20615SOL    HW263614   5.045   6.437   8.992 -2.1812  0.3159  0.9389
20616SOL     OW63615   8.111   7.628   4.905 -0.8758 -0.3177 -0.0874
20616SOL    HW163616   8.167   7.705   4.918 -0.0716 -1.0483  0.8729
20616SOL    HW263617   8.023   7.665   4.895 -0.4076  0.7711 -0.3830
20617SOL     OW63618   7.186   3.419   9.378  0.2139  0.6197 -0.1322
20617SOL    HW163619   7.232   3.337   9.392 -1.3221 -0.3612 -0.6430
20617SOL    HW263620   7.151   3.442   9.463  0.6554  0.7706  0.0140
20618SOL     OW63621   5.048   4.409   2.154 -0.1234 -0.3211 -0.0379
20618SOL    HW163622   5.101   4.334   2.180 -1.2320 -1.0182  0.3020
20618SOL    HW263623   4.978   4.371   2.100 -0.3540  0.5461 -0.3692
20619SOL     OW63624   0.925   9.086   4.138 -0.2239 -0.4352  0.0616
20619SOL    HW163625   0.835   9.101   4.111 -0.3724 -3.2257 -1.3331
20619SOL    HW263626   0.919   9.014   4.201  1.0640 -0.9140 -0.3417
20620SOL     OW63627   1.919   2.307   3.116  0.8084 -0.4737 -0.1110
20620SOL    HW163628   1.859   2.233   3.123  0.4754 -0.1750  0.2153
20620SOL    HW263629   2.000   2.276   3.155  0.3699 -0.3444  0.9273
20621SOL     OW63630   8.466   2.792   7.179 -0.0558  0.1869  0.2415
20621SOL    HW163631   8.528   2.824   7.244 -1.6383 -1.8147  2.9635
20621SOL    HW263632   8.414   2.870   7.156  2.2869  1.5361 -0.8984
20622SOL     OW63633   9.351   5.166   1.340 -0.0971  0.2584 -0.2740
20622SOL    HW163634   9.447   5.157   1.337 -0.1609 -0.3057 -0.9268
20622SOL    HW263635   9.333   5.244   1.288 -0.1580 -1.1929 -2.5692
20623SOL     OW63636   0.752   3.943   9.309 -0.0685 -0.2021  0.4148
20623SOL    HW163637   0.758   4.018   9.368  1.9733 -1.3326  1.7643
20623SOL    HW263638   0.843   3.918   9.293 -0.3592  0.9978 -4.6204
20624SOL     OW63639   0.150   8.066   1.948 -0.4248  0.1470 -0.0418
20624SOL    HW163640   0.113   8.154   1.947 -0.6953  0.0668  1.3076
20624SOL    HW263641   0.201   8.062   2.030  0.6058 -0.5454 -0.6874
20625SOL     OW63642   0.580   5.911   4.688  0.1764 -0.2944  0.3789
20625SOL    HW163643   0.492   5.912   4.651  0.6949 -1.3374 -0.9903
20625SOL    HW263644   0.601   5.818   4.696  1.0979 -0.0580  0.8314
20626SOL     OW63645   5.283   5.854   5.236  0.5804  0.3120  0.3449
20626SOL    HW163646   5.313   5.943   5.219  1.0170  0.0229 -0.4123
20626SOL    HW263647   5.351   5.815   5.291  0.0910  0.6295  1.2047
20627SOL     OW63648   1.133   9.485   9.450  0.4249 -0.1698  0.3896
20627SOL    HW163649   1.163   9.445   9.369  0.4549  0.1523  0.2392
20627SOL    HW263650   1.201   9.551   9.470 -0.5623  1.1364 -0.3836
20628SOL     OW63651   1.221   5.194   4.420  0.1410  0.3685  0.3049
20628SOL    HW163652   1.273   5.116   4.440  0.8334  0.9272  0.7684
20628SOL    HW263653   1.259   5.228   4.339  0.3707  0.6678  0.5370
20629SOL     OW63654   4.725   7.300   7.477 -0.0519  0.1908 -0.1983
20629SOL    HW163655   4.784   7.312   7.403 -0.6602  0.3129 -0.6731
20629SOL    HW263656   4.771   7.340   7.551  0.5181  0.1560 -0.5305
20630SOL     OW63657   2.880   0.173   5.356 -0.1238 -0.1283 -0.0087
20630SOL    HW163658   2.904   0.265   5.357  0.4177 -0.2746  0.7279
20630SOL    HW263659   2.822   0.162   5.431 -0.0102 -0.4322  0.0379
20631SOL     OW63660   4.913   6.408   8.487  0.0678 -0.3522 -0.4605
20631SOL    HW163661   4.840   6.407   8.425 -0.0942  0.4336 -0.2932
20631SOL    HW263662   4.894   6.336   8.547 -1.8496  1.2212  0.9881
20632SOL     OW63663   4.091   2.938   6.435  0.6831  0.3791 -0.5847
20632SOL    HW163664   4.041   2.894   6.504  2.3312  1.2677  1.3038
20632SOL    HW263665   4.115   3.022   6.474  2.8513  0.3411 -1.7102
20633SOL     OW63666   4.680   7.261   8.332 -0.4053  0.8241  0.6992
20633SOL    HW163667   4.695   7.356   8.328 -1.5938  1.0494  1.2829
20633SOL    HW263668   4.590   7.250   8.301  0.3759 -0.3435 -1.3618
20634SOL     OW63669   7.861   3.033   3.967 -0.5022  0.3318 -0.1055
20634SOL    HW163670   7.846   3.102   3.902 -0.1867  0.1622 -0.3607
20634SOL    HW263671   7.901   2.962   3.917 -0.6244  0.0471  0.2004
20635SOL     OW63672   9.673   6.213   7.378  0.7212  0.4798  0.0793
20635SOL    HW163673   9.610   6.284   7.368 -0.5308 -0.7669 -1.3411
20635SOL    HW263674   9.755   6.250   7.345  0.1203  1.3002 -0.5641
20636SOL     OW63675   3.961   5.553   2.787  0.1634  0.0979 -0.0505
20636SOL    HW163676   3.947   5.568   2.881  2.1045  0.2017  0.2572
20636SOL    HW263677   4.020   5.623   2.760 -3.5392  2.7015 -2.3887
20637SOL     OW63678   2.699   7.166   3.998 -0.1822 -0.2814  0.5388
20637SOL    HW163679   2.780   7.209   4.024 -0.7372  0.7170  0.6611
20637SOL    HW263680   2.697   7.085   4.048  1.3642 -0.9546 -0.4176
20638SOL     OW63681   2.382   3.788   9.145 -0.1630 -0.2820 -0.4735
20638SOL    HW163682   2.392   3.693   9.143  1.6900 -0.0988 -1.1668
20638SOL    HW263683   2.452   3.822   9.089  1.3356  1.6232  2.3070
20639SOL     OW63684   1.182   4.622   3.366 -0.4415  0.0237 -0.1440
20639SOL    HW163685   1.187   4.706   3.412  0.1183  1.5464 -2.7682
20639SOL    HW263686   1.272   4.592   3.362 -0.1770  0.9374 -1.9165
20640SOL     OW63687   3.407   0.875   1.437 -0.1561 -0.5387 -0.4596
20640SOL    HW163688   3.441   0.907   1.521 -0.6563  0.3421 -0.5870
20640SOL    HW263689   3.480   0.885   1.376 -0.4608  0.8701 -0.6177
20641SOL     OW63690   6.070   9.227   9.064  0.3087 -0.0945 -0.0950
20641SOL    HW163691   6.140   9.168   9.090 -1.4234 -0.7246  3.6578
20641SOL    HW263692   6.063   9.291   9.135 -1.5266  1.2633 -1.3702
20642SOL     OW63693   9.325   0.121   7.044  0.2965  0.0338  0.4524
20642SOL    HW163694   9.415   0.127   7.075  1.2375  0.3826 -2.1341
20642SOL    HW263695   9.332   0.099   6.951 -2.3167 -0.7447  0.3467
20643SOL     OW63696   6.768   6.783   6.942  0.4132 -0.1311 -0.3147
20643SOL    HW163697   6.679   6.749   6.952  0.9584 -1.0254  1.9725
20643SOL    HW263698   6.812   6.760   7.023  1.9525  2.7674 -0.2009
20644SOL     OW63699   6.092   8.134   4.617 -0.8294  0.1666 -0.0290
20644SOL    HW163700   6.122   8.225   4.621 -0.7110  0.2472 -1.7924
20644SOL    HW263701   6.169   8.082   4.641 -0.0267  0.4722 -1.7384
20645SOL     OW63702   0.225   1.636   8.944  0.4085 -0.1148  0.3639
20645SOL    HW163703   0.219   1.726   8.911 -1.6597  0.4735  2.1477
20645SOL    HW263704   0.221   1.581   8.865  3.7356  1.2641 -0.9655
20646SOL     OW63705   1.613   5.048   2.501  0.5953  0.0987  0.1229
20646SOL    HW163706   1.564   5.007   2.430  0.7869 -0.9500  0.5831
20646SOL    HW263707   1.597   5.142   2.490  1.3339  0.0440 -1.8387
20647SOL     OW63708   4.716   4.410   5.834  0.6525 -0.3253 -0.0709
20647SOL    HW163709   4.741   4.502   5.833 -0.6030  0.0372  0.2951
20647SOL    HW263710   4.749   4.375   5.752  0.9358  0.5051 -0.3171
20648SOL     OW63711   1.606   3.835   5.107 -0.1876 -0.4177  0.1899
20648SOL    HW163712   1.627   3.792   5.023 -1.7240 -0.7889 -0.0280
20648SOL    HW263713   1.555   3.770   5.155 -0.2156  0.1823  0.9833
20649SOL     OW63714   4.878   3.654   0.975 -0.3565 -0.7752 -0.1631
20649SOL    HW163715   4.911   3.596   1.043 -1.8631 -1.1979  0.2421
20649SOL    HW263716   4.854   3.734   1.021 -2.4030 -1.4479  0.0384
20650SOL     OW63717   7.655   6.553   6.379 -0.4313  0.1799  0.2628
20650SOL    HW163718   7.744   6.557   6.343  0.1510  0.0093  1.6559
20650SOL    HW263719   7.599   6.580   6.305  0.7205 -0.1684 -0.7756
20651SOL     OW63720   0.517   8.276   1.012 -0.3548 -0.2851  0.0925
20651SOL    HW163721   0.598   8.302   1.057 -0.2187 -1.0924  0.3340
20651SOL    HW263722   0.503   8.185   1.039 -0.7141 -0.5272 -0.8633
20652SOL     OW63723   2.968   0.923   6.222  0.4398 -0.2419  0.4681
20652SOL    HW163724   2.900   0.960   6.166  0.3017  0.3608  1.0220
20652SOL    HW263725   2.972   0.982   6.297  2.7039  0.6468 -0.2954
20653SOL     OW63726   9.741   0.014   8.926  0.0589  0.4161 -0.3204
20653SOL    HW163727   9.836  -0.002   8.930  0.3091  1.6963 -0.5225
20653SOL    HW263728   9.702  -0.072   8.918  1.0676 -0.3656  2.1821
20654SOL     OW63729   3.859   3.756   5.337  0.7213 -0.3674 -0.3587
20654SOL    HW163730   3.774   3.716   5.317 -0.2684  1.7506 -0.6691
20654SOL    HW263731   3.873   3.736   5.430  0.6255 -1.9520 -0.6488
20655SOL     OW63732   6.381   3.140   4.182 -0.5578 -0.0436 -0.1972
20655SOL    HW163733   6.462   3.095   4.160 -1.5196 -1.1060 -1.7997
20655SOL    HW263734   6.409   3.228   4.208  1.1393 -0.6105  0.0295
20656SOL     OW63735   7.254   4.674   3.616  0.0726  0.4439 -0.7619
20656SOL    HW163736   7.302   4.603   3.572 -1.3289  0.3557 -2.2403
20656SOL    HW263737   7.303   4.753   3.595  0.7766  0.1115 -0.4095
20657SOL     OW63738   6.168   7.959   2.421  0.3359 -0.0356 -0.2496
20657SOL    HW163739   6.172   7.894   2.490  0.1641 -0.8311 -0.9692
20657SOL    HW263740   6.107   8.026   2.454  0.3445 -0.3461  0.4049
20658SOL     OW63741   1.691   6.334   1.094  0.3001 -0.1770 -0.7802
20658SOL    HW163742   1.720   6.271   1.028  1.1351  1.8342 -2.4359
20658SOL    HW263743   1.702   6.419   1.053 -0.2203  1.1310  1.5860
20659SOL     OW63744   2.497   8.944   7.802  0.0763 -0.5664 -0.2302
20659SOL    HW163745   2.538   8.877   7.747  0.2494  0.0548 -0.8638
20659SOL    HW263746   2.521   9.027   7.761 -1.3866 -0.1696 -0.3225
20660SOL     OW63747   9.076   3.010   2.726  0.0033  0.1364  0.1845
20660SOL    HW163748   9.063   3.040   2.637 -0.1604  0.5246  0.3381
20660SOL    HW263749   9.041   3.080   2.781  1.9269  0.8579  0.5983
20661SOL     OW63750   5.981   3.861   4.429 -0.0326 -0.2409  0.0715
20661SOL    HW163751   5.925   3.923   4.382  1.3888  0.2827 -0.9604
20661SOL    HW263752   6.017   3.804   4.362  0.5376 -0.6985  0.7470
20662SOL     OW63753   7.397   4.021   6.192  0.4782 -0.9448 -0.1956
20662SOL    HW163754   7.394   4.042   6.286 -0.8054 -2.5104  0.1546
20662SOL    HW263755   7.488   3.996   6.176  0.1448 -3.6194  1.3986
20663SOL     OW63756   7.985   3.695   5.722 -0.8795  0.3600 -0.6702
20663SOL    HW163757   8.076   3.665   5.718 -0.8466  0.2133  0.6816
20663SOL    HW263758   7.951   3.659   5.804 -1.5928  1.9210 -0.2343
20664SOL     OW63759   8.556   6.269   0.565  0.2422  0.0648 -0.3501
20664SOL    HW163760   8.479   6.325   0.566 -0.3160 -0.5678  2.9103
20664SOL    HW263761   8.627   6.323   0.599  0.2985 -0.4616  0.3928
20665SOL     OW63762   6.165   3.642   8.683  0.4167  0.0602 -0.1339
20665SOL    HW163763   6.166   3.696   8.762  0.7343 -1.7849  1.1890
20665SOL    HW263764   6.242   3.670   8.633  0.9537  0.3753  0.8484
20666SOL     OW63765   4.650   6.709   4.662 -0.3221  0.2049  0.2774
20666SOL    HW163766   4.618   6.645   4.599  0.3387 -2.0501  2.0861
20666SOL    HW263767   4.693   6.776   4.609 -2.0360 -0.2185 -1.7732
20667SOL     OW63768   1.367   4.030   5.231 -0.5693  0.4602 -0.2130
20667SOL    HW163769   1.291   4.088   5.223  1.9716  4.0966 -0.6850
20667SOL    HW263770   1.368   3.981   5.148 -2.5023  0.0665 -0.0534
20668SOL     OW63771   8.994   2.014   1.311  0.2559  0.4971  0.4234
20668SOL    HW163772   9.024   1.969   1.232 -1.3349 -0.5204  0.3377
20668SOL    HW263773   8.968   2.101   1.280  2.2602  1.1179  0.3742
20669SOL     OW63774   5.502   8.802   8.789 -0.3426 -0.0902 -0.4429
20669SOL    HW163775   5.582   8.766   8.752 -0.2277 -0.6389  0.3167
20669SOL    HW263776   5.529   8.882   8.834 -0.4969  0.6282 -1.5956
20670SOL     OW63777   9.476   0.004   3.670 -0.0099  0.4089 -0.2257
20670SOL    HW163778   9.459  -0.086   3.695 -0.5343  0.6141  0.1860
20670SOL    HW263779   9.568   0.006   3.643 -0.1270 -0.3476 -0.7114
20671SOL     OW63780   4.985   2.368   8.547 -0.5115 -0.0054  0.1538
20671SOL    HW163781   4.929   2.298   8.581  0.7703 -0.7072  0.8809
20671SOL    HW263782   5.028   2.331   8.470 -0.3137  0.1959  0.1634
20672SOL     OW63783   8.595   0.986   0.987  0.2262 -0.0672 -0.0071
20672SOL    HW163784   8.589   0.983   1.083 -0.2174 -0.8342 -0.0514
20672SOL    HW263785   8.683   1.019   0.970  0.8813 -1.3772  0.6649
20673SOL     OW63786   4.159   7.638   4.463  0.4404 -0.6175 -0.8942
20673SOL    HW163787   4.086   7.587   4.497 -0.3349  0.7778 -0.4224
20673SOL    HW263788   4.165   7.613   4.371 -1.8373  0.5813 -1.4247
20674SOL     OW63789   3.188   7.237   2.982  0.3913 -0.0893  0.2877
20674SOL    HW163790   3.224   7.167   3.037  0.7501 -1.2939 -1.4196
20674SOL    HW263791   3.229   7.225   2.897 -1.2558  0.8009 -0.6864
20675SOL     OW63792   7.545   6.877   4.869 -0.2590  0.3802 -0.0722
20675SOL    HW163793   7.503   6.832   4.943  0.0247 -3.2611 -1.9130
20675SOL    HW263794   7.472   6.909   4.816 -0.4791  1.5723  0.9026
20676SOL     OW63795   5.385   6.974   1.383  0.3705  0.2107  0.7507
20676SOL    HW163796   5.382   7.053   1.436  2.4266  0.8611 -0.0351
20676SOL    HW263797   5.464   6.928   1.411 -0.8549 -1.7141  1.3102
20677SOL     OW63798   7.093   9.814   3.024 -0.5882 -0.3947 -0.3587
20677SOL    HW163799   7.006   9.853   3.012 -0.6252 -0.3360  0.0575
20677SOL    HW263800   7.076   9.726   3.057 -0.5022  0.4241  2.0884
20678SOL     OW63801   1.690   7.983   1.729 -0.0304 -0.2101  0.3601
20678SOL    HW163802   1.706   8.016   1.640  1.3653  1.3571  1.1485
20678SOL    HW263803   1.650   7.897   1.715  0.2041 -0.0361 -1.7834
20679SOL     OW63804   3.366   7.884   7.622 -0.2083 -0.4165 -0.0734
20679SOL    HW163805   3.312   7.874   7.701  3.2152  0.5260  2.6135
20679SOL    HW263806   3.399   7.796   7.605 -0.5252 -0.5213 -0.1658
20680SOL     OW63807   8.610   3.541   4.877 -0.5966  0.0464 -0.1820
20680SOL    HW163808   8.570   3.455   4.889 -0.1297 -0.1916 -0.3045
20680SOL    HW263809   8.671   3.529   4.804  2.2927 -0.5511  2.1128
20681SOL     OW63810   6.371   7.351   2.188 -0.4867 -0.3562 -0.0838
20681SOL    HW163811   6.331   7.274   2.148  0.7250 -0.3448 -1.4440
20681SOL    HW263812   6.402   7.322   2.273 -1.6221 -0.8791  0.1539
20682SOL     OW63813   2.478   0.561   3.451 -0.2333  0.2736 -0.4168
20682SOL    HW163814   2.513   0.472   3.451  0.8835  0.6261 -3.0181
20682SOL    HW263815   2.383   0.549   3.447 -0.1708 -0.7472  0.5717
20683SOL     OW63816   5.364   0.319   1.243  0.1372 -0.0613 -0.6055
20683SOL    HW163817   5.455   0.347   1.231  0.1933  0.2203  0.3610
20683SOL    HW263818   5.352   0.319   1.338 -1.5277  2.0651 -0.7366
20684SOL     OW63819   0.594   5.400   9.120 -0.6434 -0.2391 -0.0273
20684SOL    HW163820   0.508   5.414   9.079 -1.1054 -0.2755  0.9012
20684SOL    HW263821   0.611   5.481   9.167 -1.1876 -1.0000  1.5622
20685SOL     OW63822   6.319   8.131   1.528  0.3419  0.7875 -0.5214
20685SOL    HW163823   6.224   8.120   1.520  0.0924  1.0507  1.4276
20685SOL    HW263824   6.356   8.049   1.497 -0.5811  0.3328 -0.4563
20686SOL     OW63825   1.015   1.845   1.449  0.2431 -0.7678  0.5965
20686SOL    HW163826   0.935   1.877   1.408  0.0351 -0.6652  1.0846
20686SOL    HW263827   1.059   1.923   1.481 -0.0906 -0.9316  1.4676
20687SOL     OW63828   5.709   4.230   4.579  0.0465 -0.2105  0.1379
20687SOL    HW163829   5.702   4.198   4.489 -1.7976  0.4665  0.0024
20687SOL    HW263830   5.718   4.151   4.632  0.4831 -0.6531 -0.5774
20688SOL     OW63831   4.331   8.097   4.883  0.3255 -0.9318 -0.7873
20688SOL    HW163832   4.270   8.032   4.919 -0.3673 -0.5479 -1.2372
20688SOL    HW263833   4.288   8.129   4.804 -0.2511  1.4088  0.3676
20689SOL     OW63834   5.198   4.659   9.730 -0.5529  0.6736 -0.0785
20689SOL    HW163835   5.108   4.662   9.760 -1.0346 -1.8395 -1.0456
20689SOL    HW263836   5.243   4.603   9.793 -0.7843 -1.7683 -1.9325
20690SOL     OW63837   9.197   7.111   1.887 -0.0438  0.0727 -0.3997
20690SOL    HW163838   9.170   7.040   1.828 -0.7876 -0.3669  0.4452
20690SOL    HW263839   9.277   7.146   1.848 -0.1444 -0.6694 -1.2911
20691SOL     OW63840   0.132   9.206   6.636  0.0460 -0.5065 -0.3151
20691SOL    HW163841   0.078   9.258   6.575  0.9797 -0.0409 -0.7591
20691SOL    HW263842   0.218   9.201   6.594  0.7411 -0.1004  1.0112
20692SOL     OW63843   1.452   4.906   3.378 -0.3138 -0.7608 -0.1681
20692SOL    HW163844   1.458   4.924   3.472 -2.0877  0.5322 -0.2482
20692SOL    HW263845   1.433   4.812   3.373 -1.0245 -0.6907  0.8240
20693SOL     OW63846   0.788   6.975   2.601 -0.7328  0.3398  0.0798
20693SOL    HW163847   0.772   6.912   2.531 -0.3946  1.9307 -1.5095
20693SOL    HW263848   0.824   7.052   2.556  0.8843  0.9059  2.1864
20694SOL     OW63849   4.918   7.563   8.003  0.3632  0.4200 -0.4745
20694SOL    HW163850   4.936   7.632   8.066 -0.8807  1.4174 -1.1741
20694SOL    HW263851   5.000   7.553   7.955  1.0458  0.2650  0.6852
20695SOL     OW63852   3.941   2.444   8.921  0.6939  0.2683  0.1504
20695SOL    HW163853   3.968   2.354   8.902  1.6952  1.0192 -2.2906
20695SOL    HW263854   3.991   2.467   8.999 -1.0489 -1.8598  2.0555
20696SOL     OW63855   4.426   8.989   7.412 -0.5768 -0.2000 -0.3777
20696SOL    HW163856   4.343   8.955   7.445 -0.7083 -1.9208 -2.2959
20696SOL    HW263857   4.402   9.067   7.362 -0.6819  0.7884  1.1318
20697SOL     OW63858   0.457   0.445   9.708 -0.7136 -0.5981 -0.1271
20697SOL    HW163859   0.419   0.374   9.656  0.1219 -1.3429  0.2645
20697SOL    HW263860   0.449   0.414   9.799  0.3524 -0.5452 -0.0052
20698SOL     OW63861   9.544   7.231   4.709  0.0541  0.0797 -0.2328
20698SOL    HW163862   9.570   7.258   4.797  3.5814  1.1711 -1.4343
20698SOL    HW263863   9.475   7.166   4.724  0.8257 -0.1618  3.3575
20699SOL     OW63864   7.322   3.362   2.836 -0.5585  0.0512  0.1664
20699SOL    HW163865   7.383   3.292   2.858 -0.8260 -0.1788  0.1871
20699SOL    HW263866   7.333   3.426   2.906  0.4412  0.5294 -0.4020
20700SOL     OW63867   5.480   0.994   5.139  0.1071  0.6304  0.5352
20700SOL    HW163868   5.491   1.006   5.233  0.9760  2.9530  0.2159
20700SOL    HW263869   5.555   0.943   5.111  0.8910  1.5752  0.8630
20701SOL     OW63870   9.063   7.674   4.302  0.0142 -0.9049 -0.5740
20701SOL    HW163871   9.005   7.674   4.378  2.4390  0.1552  1.4201
20701SOL    HW263872   9.096   7.585   4.297  1.0660 -0.6078  0.6696
20702SOL     OW63873   7.646   5.697   4.374 -0.8666 -0.1691  0.2353
20702SOL    HW163874   7.667   5.730   4.462  0.0193 -1.7910  0.6768
20702SOL    HW263875   7.657   5.602   4.381 -4.0247 -0.7349 -0.7703
20703SOL     OW63876   0.957   1.754   8.605  0.2757 -0.1662 -0.1928
20703SOL    HW163877   0.942   1.695   8.678  1.2937  2.2985  2.1676
20703SOL    HW263878   1.052   1.753   8.593  0.2332  0.3935 -0.6422
20704SOL     OW63879   2.441   2.496   6.935 -1.2858  0.3170  0.0978
20704SOL    HW163880   2.421   2.482   7.028 -1.4746 -2.1705 -0.2364
20704SOL    HW263881   2.536   2.491   6.930 -1.3171 -0.4790  0.0748
20705SOL     OW63882   8.197   8.936   2.192  0.1830 -0.1191  0.6666
20705SOL    HW163883   8.283   8.977   2.185 -0.7803  1.9219 -0.2181
20705SOL    HW263884   8.155   8.980   2.266 -0.7210  0.2216 -0.0232
20706SOL     OW63885   0.169   2.120   6.580 -0.0039 -0.3985 -0.6200
20706SOL    HW163886   0.148   2.211   6.562  2.3384  0.3814  0.2158
20706SOL    HW263887   0.090   2.084   6.622 -0.5028  1.6166  0.2581
20707SOL     OW63888   5.022   7.315   8.082 -0.6213  0.3862  0.3484
20707SOL    HW163889   4.989   7.403   8.064  2.0832  1.3159 -0.5127
20707SOL    HW263890   4.977   7.259   8.018  1.8463  2.1600 -3.2397
20708SOL     OW63891   9.208   2.117   0.901  0.5450  0.1885 -0.1465
20708SOL    HW163892   9.147   2.050   0.871  0.0685  0.6163 -0.1462
20708SOL    HW263893   9.213   2.179   0.828  0.7160  0.3334 -0.0141
20709SOL     OW63894   7.434   7.736   7.068  0.4111 -1.0203 -0.3519
20709SOL    HW163895   7.360   7.676   7.077  0.4600 -1.0596 -0.2104
20709SOL    HW263896   7.456   7.760   7.158 -1.0739  1.0149 -0.4395
20710SOL     OW63897   4.485   7.450   1.222  0.6867  0.2662  0.0543
20710SOL    HW163898   4.570   7.419   1.193  1.3992 -0.3349  2.5165
20710SOL    HW263899   4.452   7.381   1.279 -2.0131 -0.0279 -1.6567
20711SOL     OW63900   3.079   9.801   6.585 -0.3193  0.0983  0.1328
20711SOL    HW163901   3.128   9.738   6.532 -0.1849  0.9218 -0.7588
20711SOL    HW263902   2.990   9.796   6.551 -0.4337 -0.0234  0.4515
20712SOL     OW63903   1.704   3.144   3.368 -0.1707  0.1050 -0.8930
20712SOL    HW163904   1.745   3.101   3.292  0.7486 -1.4272  0.4126
20712SOL    HW263905   1.668   3.073   3.420 -0.2499  1.0658  0.4198
20713SOL     OW63906   1.338   1.868   7.858 -0.2779  0.3040 -0.0556
20713SOL    HW163907   1.261   1.896   7.807 -0.3130  2.8297  1.1826
20713SOL    HW263908   1.396   1.828   7.794 -1.1805  1.4660 -1.6875
20714SOL     OW63909   2.761   3.221   6.547 -0.1273  0.1109 -0.0220
20714SOL    HW163910   2.809   3.163   6.487  1.5592 -0.3497  1.6911
20714SOL    HW263911   2.700   3.163   6.592  0.4525 -0.0771  0.5499
20715SOL     OW63912   7.165   4.864   6.499 -0.4175 -0.5808 -0.9488
20715SOL    HW163913   7.232   4.808   6.537 -1.8180 -1.2006  0.7221
20715SOL    HW263914   7.208   4.905   6.424  1.1075 -2.7022 -1.3209
20716SOL     OW63915   2.809   8.454   7.894  0.3083  0.6374  0.0440
20716SOL    HW163916   2.901   8.459   7.919  0.3339 -1.6306  0.6221
20716SOL    HW263917   2.761   8.453   7.977 -0.0654 -0.3096 -0.1684
20717SOL     OW63918   8.430   1.381   1.693  0.8071  0.2257 -0.1303
20717SOL    HW163919   8.498   1.425   1.743 -0.4152  2.0927 -0.0075
20717SOL    HW263920   8.424   1.293   1.731  2.8682  0.1397  0.0668
20718SOL     OW63921   1.378   9.617   3.832 -0.0914 -0.1719 -0.0201
20718SOL    HW163922   1.464   9.621   3.872  0.4499 -2.8933 -0.6625
20718SOL    HW263923   1.325   9.568   3.896 -1.1879  1.4393  0.3541
20719SOL     OW63924   7.854   6.363   2.174  0.3762 -0.0051 -0.6128
20719SOL    HW163925   7.777   6.307   2.165  0.0118  0.4199 -0.1940
20719SOL    HW263926   7.926   6.310   2.139  0.2139 -1.1335  0.6732
20720SOL     OW63927   3.149   3.977   7.943 -0.1324 -0.3849  0.3717
20720SOL    HW163928   3.221   4.004   7.886 -0.7779 -0.9163 -0.7443
20720SOL    HW263929   3.171   4.012   8.029  0.5217  1.1024 -0.3612
20721SOL     OW63930   5.363   2.725   7.577  0.2627  0.0932  0.5380
20721SOL    HW163931   5.269   2.740   7.586  0.1575 -0.0272 -0.3043
20721SOL    HW263932   5.391   2.787   7.509  0.6238 -0.4938  0.1484
20722SOL     OW63933   0.956   3.719   5.000 -0.3051  0.0500 -0.6695
20722SOL    HW163934   0.926   3.639   5.044  0.9118  0.4554  0.9788
20722SOL    HW263935   0.900   3.788   5.034  0.3883  0.3036 -0.0096
20723SOL     OW63936   1.018   7.145   4.380 -0.0947  0.6970  0.4098
20723SOL    HW163937   0.944   7.085   4.370  0.1752  0.1882  1.3614
20723SOL    HW263938   1.069   7.133   4.300 -1.0549  1.0844 -0.2768
20724SOL     OW63939   0.965   9.468   2.235  0.1289 -0.0973 -0.2853
20724SOL    HW163940   0.928   9.516   2.309 -1.0197 -0.3119 -0.7089
20724SOL    HW263941   0.936   9.518   2.158  0.9053 -0.1518 -0.6262
20725SOL     OW63942   1.185   3.272   4.045  0.0619  0.6957  0.1071
20725SOL    HW163943   1.089   3.265   4.046  0.1585 -1.0923 -0.1665
20725SOL    HW263944   1.204   3.325   3.968 -0.7003  1.1761  0.2332
20726SOL     OW63945   2.432   6.297   5.828 -0.1252  0.2834  0.1441
20726SOL    HW163946   2.391   6.287   5.742  0.1582  1.1668 -0.1031
20726SOL    HW263947   2.510   6.349   5.811  1.9862 -2.5469  0.3597
20727SOL     OW63948   9.548   7.370   3.278 -0.0658 -0.2848 -0.4426
20727SOL    HW163949   9.627   7.379   3.225  1.7755 -1.7178  1.8716
20727SOL    HW263950   9.478   7.407   3.223  2.6387  4.3420 -1.3365
20728SOL     OW63951   4.907   2.649   1.889 -0.5448 -0.6619  0.4119
20728SOL    HW163952   4.860   2.578   1.934 -1.2874  0.7953  2.0605
20728SOL    HW263953   4.841   2.716   1.875  0.5523  0.5159  0.7126
20729SOL     OW63954   4.850   4.092   6.444  1.2302 -0.1317 -0.0648
20729SOL    HW163955   4.936   4.070   6.409  0.6922  0.1988 -1.6900
20729SOL    HW263956   4.808   4.143   6.375 -0.8199 -1.5226  0.0544
20730SOL     OW63957   4.146   1.586   7.221 -0.9914  0.2343  0.2447
20730SOL    HW163958   4.056   1.567   7.194 -1.3550  1.6747  0.3575
20730SOL    HW263959   4.137   1.638   7.301 -0.0036 -0.8439  1.1115
20731SOL     OW63960   4.846   3.616   9.593 -0.4346 -0.0240 -0.8119
20731SOL    HW163961   4.788   3.541   9.603 -1.0931  0.7058  1.3301
20731SOL    HW263962   4.809   3.683   9.651  2.6682  0.3978  0.8838
20732SOL     OW63963   6.799   7.414   9.645  0.3214 -0.2403 -0.2555
20732SOL    HW163964   6.884   7.389   9.611  0.3933 -0.6943  0.2403
20732SOL    HW263965   6.807   7.403   9.740 -0.6323 -1.3929 -0.2803
20733SOL     OW63966   5.124   4.068   6.380  0.1382 -0.4135  0.0048
20733SOL    HW163967   5.141   4.150   6.426 -1.1639  0.8120 -1.5861
20733SOL    HW263968   5.207   4.049   6.335  0.6826 -0.3984  0.9702
20734SOL     OW63969   5.427   1.745   5.196 -0.3472  0.3037  0.1547
20734SOL    HW163970   5.505   1.799   5.207  0.5893 -1.3765  2.9425
20734SOL    HW263971   5.454   1.674   5.138 -1.0031  1.6350 -1.9010
20735SOL     OW63972   2.026   5.574   2.203  0.1441 -0.1080  0.3543
20735SOL    HW163973   2.105   5.524   2.224 -1.0225 -1.3383  2.0500
20735SOL    HW263974   1.978   5.518   2.142  0.2956  0.3850 -0.2259
20736SOL     OW63975   2.485   0.482   0.105 -0.1224 -0.0228  0.4388
20736SOL    HW163976   2.403   0.510   0.065  0.2142  0.1917 -0.1068
20736SOL    HW263977   2.461   0.455   0.193 -0.5586  1.4239  0.7850
20737SOL     OW63978   1.796   1.413   7.781 -0.5070  0.0878 -0.4128
20737SOL    HW163979   1.776   1.326   7.815  0.6374 -0.8200 -1.9287
20737SOL    HW263980   1.742   1.421   7.702  0.0792  0.3645 -0.7922
20738SOL     OW63981   0.889   3.050   9.105 -0.2167  0.1722 -0.0240
20738SOL    HW163982   0.864   3.056   9.197 -0.3085 -2.7047  0.2505
20738SOL    HW263983   0.890   3.140   9.074  0.2466  1.2719  2.8818
20739SOL     OW63984   2.584   3.532   4.743 -0.2618  0.1043  0.1703
20739SOL    HW163985   2.492   3.541   4.715  0.5094 -0.7333 -3.1826
20739SOL    HW263986   2.630   3.603   4.698  0.9699 -0.5444  0.3599
20740SOL     OW63987   2.203   8.235   6.671 -0.5255  0.7540  0.2633
20740SOL    HW163988   2.233   8.320   6.637 -0.1429  0.6516  0.3402
20740SOL    HW263989   2.194   8.179   6.594 -0.2206  0.6928  0.2733
20741SOL     OW63990   8.097   8.268   3.931  0.6460  0.7304  0.2353
20741SOL    HW163991   8.061   8.307   4.011  0.6643 -1.9794  1.6605
20741SOL    HW263992   8.176   8.223   3.959 -0.1561 -1.5769 -0.9552
20742SOL     OW63993   1.268   2.640   4.136  0.1975 -0.2262  0.1448
20742SOL    HW163994   1.216   2.623   4.214  0.0202 -1.3189 -0.2042
20742SOL    HW263995   1.233   2.723   4.102 -0.2612 -0.1553  0.7656
20743SOL     OW63996   1.532   8.675   5.837 -0.1592  0.1116 -0.3664
20743SOL    HW163997   1.546   8.751   5.894 -1.8503  0.8196 -0.8294
20743SOL    HW263998   1.539   8.600   5.896  1.5315  0.5925  0.1037
20744SOL     OW63999   2.502   1.849   0.993 -0.0038 -0.1121  0.2821
20744SOL    HW164000   2.490   1.933   1.037  2.5446 -0.2200  1.3295
20744SOL    HW264001   2.562   1.800   1.048  2.3276 -0.7869 -2.6033
20745SOL     OW64002   6.361   5.166   2.133 -0.1037  0.2362  0.6860
20745SOL    HW164003   6.446   5.177   2.090  1.2558 -1.1756  2.7916
20745SOL    HW264004   6.333   5.255   2.155  1.0471  0.6998  0.3562
20746SOL     OW64005   2.084   4.734   8.716 -0.5160  0.0950 -0.1971
20746SOL    HW164006   2.106   4.817   8.673  1.1226 -0.7202 -1.0611
20746SOL    HW264007   2.100   4.667   8.649  0.1884 -1.0646  1.0639
20747SOL     OW64008   0.289   8.084   2.191 -0.2878 -0.3757 -0.1024
20747SOL    HW164009   0.267   8.165   2.238 -2.0436  0.0054 -1.4575
20747SOL    HW264010   0.371   8.104   2.145 -0.0409  0.1963  0.5804
20748SOL     OW64011   5.834   1.154   1.209  0.0979 -0.1329 -0.0154
20748SOL    HW164012   5.789   1.225   1.254 -0.7939  0.3272 -1.5466
20748SOL    HW264013   5.789   1.147   1.125  1.1906 -1.4685 -0.5260
20749SOL     OW64014   7.003   5.214   1.761 -0.3611 -0.4056 -0.0600
20749SOL    HW164015   7.036   5.193   1.848 -1.5735 -1.6720  0.1219
20749SOL    HW264016   6.910   5.189   1.763 -0.5379  0.0057 -1.5519
20750SOL     OW64017   2.841   0.880   3.092 -0.5873 -0.3463 -0.4080
20750SOL    HW164018   2.925   0.878   3.139 -0.8246  0.0225  0.0404
20750SOL    HW264019   2.814   0.788   3.088 -0.0080 -0.5026 -0.8431
20751SOL     OW64020   9.298   2.286   7.212  0.5396  0.0257 -0.0458
20751SOL    HW164021   9.267   2.376   7.207  0.9096  0.3593  2.3647
20751SOL    HW264022   9.241   2.237   7.153 -1.5740  1.3529  0.8023
20752SOL     OW64023   4.203   6.388   3.863  0.1663  0.5389 -0.1207
20752SOL    HW164024   4.259   6.465   3.856  0.2314  0.4104 -1.2584
20752SOL    HW264025   4.191   6.375   3.957  0.0863  1.9814  0.0932
20753SOL     OW64026   2.927   0.906   3.693 -0.1736 -0.2193  0.0808
20753SOL    HW164027   2.896   0.927   3.782  0.1976  0.3740  0.0792
20753SOL    HW264028   2.916   0.812   3.685 -0.8545 -0.1873  0.5119
20754SOL     OW64029   9.026   3.588   9.627 -0.7563  0.5777  0.1987
20754SOL    HW164030   9.030   3.495   9.650 -2.3363  0.7224  1.1854
20754SOL    HW264031   9.092   3.630   9.682  2.0940 -0.2414 -2.2860
20755SOL     OW64032   6.592   2.698   6.149  0.1201  0.2964 -0.3705
20755SOL    HW164033   6.511   2.653   6.125 -0.2522  0.8415 -0.1569
20755SOL    HW264034   6.583   2.785   6.111  0.3878  0.5173  0.0673
20756SOL     OW64035   7.598   9.230   6.641 -0.7517 -0.0453 -0.8495
20756SOL    HW164036   7.671   9.170   6.655 -0.6818  0.1565 -0.3247
20756SOL    HW264037   7.592   9.239   6.546  1.8474  2.2907 -0.9413
20757SOL     OW64038   8.194   6.022   5.776  0.1471 -0.0167  0.5756
20757SOL    HW164039   8.135   6.094   5.797 -0.5862 -0.1632 -0.8283
20757SOL    HW264040   8.230   6.045   5.690 -0.4213 -1.4799 -0.0994
20758SOL     OW64041   2.832   9.525   9.374 -0.6986 -0.4726  0.2799
20758SOL    HW164042   2.830   9.432   9.354 -0.7810 -0.6578  1.1361
20758SOL    HW264043   2.922   9.541   9.404 -1.0083 -0.5178  1.2484
20759SOL     OW64044   3.917   3.443   6.825 -0.2231  0.2084 -0.0959
20759SOL    HW164045   3.905   3.391   6.905  0.0625 -0.8551 -0.7254
20759SOL    HW264046   4.012   3.453   6.818 -0.2277  4.6770  2.3911
20760SOL     OW64047   4.285   2.642   5.970  0.4839  0.2502 -0.8134
20760SOL    HW164048   4.344   2.662   6.043 -0.3952 -2.2677  0.7016
20760SOL    HW264049   4.206   2.694   5.988 -0.0076 -0.8875  0.5088
20761SOL     OW64050   1.377   1.690   3.118 -0.3375 -0.3601  0.0180
20761SOL    HW164051   1.444   1.683   3.051 -0.9938 -1.3289 -0.5753
20761SOL    HW264052   1.313   1.751   3.082 -0.2310 -0.1608  0.1686
20762SOL     OW64053   2.703   1.207   8.743  0.4334 -0.2004 -0.1885
20762SOL    HW164054   2.718   1.114   8.758  1.0174  0.0731  1.0113
20762SOL    HW264055   2.757   1.229   8.667 -0.0815 -0.9359 -0.7727
20763SOL     OW64056   0.843   9.152   5.440 -0.1266 -0.1792  0.0657
20763SOL    HW164057   0.874   9.062   5.436  0.9416 -0.0002  2.6767
20763SOL    HW264058   0.780   9.153   5.512 -1.2476  0.8857 -0.8865
20764SOL     OW64059   1.913   0.871   8.058  0.2156  0.7271 -0.2593
20764SOL    HW164060   1.984   0.935   8.070 -0.0387  1.0539 -0.4569
20764SOL    HW264061   1.913   0.820   8.138  0.8623  0.5357 -0.3747
20765SOL     OW64062   0.069   8.589   1.517  0.2807 -0.2171  0.3939
20765SOL    HW164063   0.020   8.532   1.457 -0.0057  0.5877 -0.1508
20765SOL    HW264064   0.050   8.553   1.604  0.5707 -1.2997  0.0342
20766SOL     OW64065   5.496   8.207   5.168 -0.8711  0.1167  1.1679
20766SOL    HW164066   5.407   8.210   5.202 -0.6259  0.7736  1.7802
20766SOL    HW264067   5.491   8.249   5.082 -1.2845 -0.5128  0.8817
20767SOL     OW64068   4.813   0.776   8.785  0.4010  0.0569 -0.0263
20767SOL    HW164069   4.752   0.714   8.744  0.7082  0.0988 -0.5596
20767SOL    HW264070   4.769   0.804   8.865  0.0528 -0.4942 -0.0217
20768SOL     OW64071   8.163   2.331   4.602  0.4271  0.3007  0.9854
20768SOL    HW164072   8.101   2.323   4.530  0.0203  0.8795  1.2627
20768SOL    HW264073   8.154   2.249   4.650  0.2221  0.1858  0.7552
20769SOL     OW64074   7.730   6.218   6.742  0.3927 -0.4041  0.1151
20769SOL    HW164075   7.735   6.268   6.661  0.2025 -1.5056 -0.5940
20769SOL    HW264076   7.747   6.127   6.716 -2.4760 -1.2484  0.8023
20770SOL     OW64077   0.395   5.345   5.053  0.1169 -0.0663  0.6232
20770SOL    HW164078   0.366   5.359   4.963 -1.2189 -2.0271  0.6686
20770SOL    HW264079   0.406   5.433   5.089 -1.6045  0.7984 -0.7659
20771SOL     OW64080   0.634   0.453   6.793  0.4076 -0.1731 -0.1318
20771SOL    HW164081   0.594   0.539   6.803  1.9490  0.6774 -0.9259
20771SOL    HW264082   0.631   0.415   6.881  1.8674  1.6912  0.7852
20772SOL     OW64083   3.030   8.504   0.653  0.1555 -0.2762 -0.4275
20772SOL    HW164084   3.003   8.412   0.648  2.2223 -0.9460 -0.3974
20772SOL    HW264085   3.052   8.527   0.563 -1.1419  0.4960 -0.5773
20773SOL     OW64086   1.113   3.952   4.962  0.7407 -0.4570  0.3966
20773SOL    HW164087   1.078   3.864   4.946  1.4269 -0.6545 -0.0974
20773SOL    HW264088   1.036   4.008   4.969  0.3147 -0.6133 -2.1737
20774SOL     OW64089   3.642   5.335   9.048 -1.0031 -0.6910 -0.0711
20774SOL    HW164090   3.565   5.343   8.992 -0.6178  0.5632 -0.4425
20774SOL    HW264091   3.613   5.369   9.133 -1.1147 -1.0577  0.0386
20775SOL     OW64092   4.256   1.178   6.295 -0.4276  0.2230 -0.7036
20775SOL    HW164093   4.182   1.229   6.326  0.5276  1.4871 -0.4237
20775SOL    HW264094   4.263   1.105   6.358 -0.4027  1.0419  0.2760
20776SOL     OW64095   1.649   6.308   2.715  0.4059  0.2349 -0.1852
20776SOL    HW164096   1.635   6.345   2.802  3.3503  0.6239  0.2216
20776SOL    HW264097   1.576   6.248   2.702 -1.1617  1.6131  1.7113
20777SOL     OW64098   3.888   8.830   7.423 -0.1103  0.4738 -0.1256
20777SOL    HW164099   3.939   8.788   7.354 -0.1351  0.9866 -0.4549
20777SOL    HW264100   3.924   8.793   7.504 -0.2682 -0.3329 -0.4158
20778SOL     OW64101   4.096   9.825   2.328 -0.1533  0.3488 -0.1354
20778SOL    HW164102   4.147   9.808   2.248  0.0733  1.6805 -0.2990
20778SOL    HW264103   4.076   9.919   2.323 -2.4548 -0.0822  0.0260
20779SOL     OW64104   7.671   4.197   8.438 -0.3337  0.4851 -0.0484
20779SOL    HW164105   7.745   4.215   8.380  1.2119 -0.2411  1.6397
20779SOL    HW264106   7.709   4.187   8.525 -2.2959 -0.9120  0.7247
20780SOL     OW64107   6.441   0.606   2.167 -0.4385 -0.5757 -0.0523
20780SOL    HW164108   6.366   0.564   2.209 -0.3105 -0.6375  0.1158
20780SOL    HW264109   6.408   0.635   2.082 -1.1070  0.9438  0.7095
20781SOL     OW64110   7.476   0.166   4.781  0.0381  0.3379  0.1470
20781SOL    HW164111   7.507   0.086   4.740  0.4090 -0.1302  1.3015
20781SOL    HW264112   7.512   0.237   4.728 -0.4113 -0.2504 -0.9651
20782SOL     OW64113   1.148   9.103   7.161 -0.1053 -0.3846  0.4370
20782SOL    HW164114   1.092   9.180   7.149  0.9606  0.4079  0.3495
20782SOL    HW264115   1.097   9.030   7.125 -0.7510  0.4310 -0.3465
20783SOL     OW64116   8.269   2.454   4.006  0.3320 -0.2051 -0.0787
20783SOL    HW164117   8.271   2.503   3.923 -0.6593  2.2329  1.2208
20783SOL    HW264118   8.259   2.363   3.980 -1.7558  0.6284 -2.6512
20784SOL     OW64119   0.971   2.201   1.106  0.3035  0.4780  0.3489
20784SOL    HW164120   1.036   2.157   1.051  1.7024  1.0772  1.4510
20784SOL    HW264121   1.007   2.195   1.194 -0.2707  2.3969  0.7529
20785SOL     OW64122   1.876   0.404   5.381  0.7711 -0.4584  0.0576
20785SOL    HW164123   1.970   0.418   5.375  0.7355 -0.2972 -0.1207
20785SOL    HW264124   1.862   0.319   5.337  0.8430 -0.5198  0.1536
20786SOL     OW64125   4.858   7.443   7.666 -0.2715 -0.3198 -0.1511
20786SOL    HW164126   4.806   7.514   7.703 -0.9872 -0.5371 -0.7164
20786SOL    HW264127   4.948   7.475   7.668 -0.6364  0.7834 -0.8133
20787SOL     OW64128   8.255   5.633   3.575 -0.1732  0.3742 -0.5299
20787SOL    HW164129   8.181   5.579   3.601  1.2201 -1.1385  0.5423
20787SOL    HW264130   8.245   5.714   3.625  0.6506 -1.1644  2.3932
20788SOL     OW64131   1.821   9.673   6.991  0.0429  0.8704 -0.3909
20788SOL    HW164132   1.736   9.650   7.030 -0.8012  0.4222 -2.3930
20788SOL    HW264133   1.865   9.589   6.979  1.2952  1.1758  1.6616
20789SOL     OW64134   3.781   1.143   1.357 -0.3264  0.0130  0.0494
20789SOL    HW164135   3.775   1.156   1.452  1.2264  0.5957  0.0887
20789SOL    HW264136   3.747   1.224   1.320 -0.9927 -0.2387  0.0818
20790SOL     OW64137   0.779   2.855   5.407  0.0094 -0.1933  0.7334
20790SOL    HW164138   0.861   2.885   5.368 -0.9758  1.3096 -0.2663
20790SOL    HW264139   0.737   2.802   5.339 -0.6626  0.5420  0.5598
20791SOL     OW64140   6.069   3.024   3.434  0.5388 -0.3176 -0.7621
20791SOL    HW164141   5.999   3.085   3.454  0.5259  0.3169 -2.5129
20791SOL    HW264142   6.025   2.944   3.404  0.5427 -0.2131 -1.0567
20792SOL     OW64143   3.598   3.293   2.881  0.4013 -0.2516  0.1103
20792SOL    HW164144   3.647   3.370   2.852 -1.2472  0.6163 -0.5466
20792SOL    HW264145   3.592   3.238   2.803 -1.7193  0.8174 -0.5552
20793SOL     OW64146   8.054   8.250   7.762 -0.1525  0.7156  0.0509
20793SOL    HW164147   7.981   8.309   7.780 -0.1830  0.2708  1.5793
20793SOL    HW264148   8.025   8.165   7.796  1.1257  0.5790  0.8690
20794SOL     OW64149   8.646   0.722   3.624  0.3869  1.0558 -0.9996
20794SOL    HW164150   8.622   0.736   3.532  1.4667  0.0352 -1.4582
20794SOL    HW264151   8.726   0.670   3.620  0.3397  0.8293  0.5354
20795SOL     OW64152   6.936   0.687   5.626 -0.2452 -0.0908  0.0694
20795SOL    HW164153   6.963   0.764   5.674 -0.8045  0.8680 -1.1046
20795SOL    HW264154   6.842   0.679   5.644 -0.7641  1.0888 -1.8972
20796SOL     OW64155   4.289   7.377   7.093  0.3686 -0.3972  0.5687
20796SOL    HW164156   4.372   7.423   7.082 -0.1635  0.2718 -0.9425
20796SOL    HW264157   4.261   7.399   7.182  0.4577  1.7273  0.1257
20797SOL     OW64158   5.645   1.562   6.752  0.5078  0.1104  0.0387
20797SOL    HW164159   5.561   1.599   6.781  0.4539 -0.4508  0.6103
20797SOL    HW264160   5.621   1.500   6.683  0.3522 -0.7320  0.8290
20798SOL     OW64161   1.649   6.271   7.753 -0.2094 -0.3223 -0.1923
20798SOL    HW164162   1.716   6.316   7.805 -0.6389 -0.8022  0.8138
20798SOL    HW264163   1.573   6.266   7.812 -0.8668 -0.4779 -1.0373
20799SOL     OW64164   1.775   6.038   3.671 -0.0413 -0.3618  0.0499
20799SOL    HW164165   1.860   5.994   3.669 -0.5995 -1.4568 -1.1607
20799SOL    HW264166   1.789   6.114   3.727  1.3296 -1.3158  1.0819
20800SOL     OW64167   9.111   6.905   2.434  0.4210 -0.0464  0.0146
20800SOL    HW164168   9.123   6.823   2.386  1.2122 -0.0094  0.1395
20800SOL    HW264169   9.167   6.896   2.511 -0.8856 -0.1301  0.9751
20801SOL     OW64170   1.282   2.667   6.843  0.1028  0.0403 -0.7189
20801SOL    HW164171   1.189   2.678   6.827 -0.2461 -2.4516 -0.7561
20801SOL    HW264172   1.297   2.709   6.927 -0.9009  1.0603 -1.0286
20802SOL     OW64173   0.894   7.921   2.076  0.2056  0.3268 -0.1442
20802SOL    HW164174   0.847   7.839   2.063 -1.4472  0.9872  1.2563
20802SOL    HW264175   0.936   7.912   2.162 -1.3443  1.5033  0.7812
20803SOL     OW64176   2.634   4.333   6.991  0.5659  0.7485 -0.0534
20803SOL    HW164177   2.540   4.333   7.009 -0.1652 -0.2892 -3.1651
20803SOL    HW264178   2.660   4.425   7.000 -0.8698  1.1455  0.3146
20804SOL     OW64179   3.688   2.958   7.276  0.4071  0.0085  0.1703
20804SOL    HW164180   3.777   2.988   7.296 -0.1083  1.0025  1.0830
20804SOL    HW264181   3.658   3.015   7.205  0.2371  0.1602  0.3627
20805SOL     OW64182   5.830   3.504   5.706 -0.3207  0.4342 -0.3584
20805SOL    HW164183   5.893   3.564   5.665 -0.5195  1.4574  0.7804
20805SOL    HW264184   5.760   3.561   5.737 -1.5822 -0.6409 -1.1457
20806SOL     OW64185   4.397   0.724   3.318  0.7134 -0.5652  0.3755
20806SOL    HW164186   4.402   0.631   3.339  1.3977 -1.2337 -2.3093
20806SOL    HW264187   4.412   0.728   3.224 -2.0691  2.0273 -0.1332
20807SOL     OW64188   9.593   1.341   9.348  0.1291  0.0417  0.1318
20807SOL    HW164189   9.573   1.353   9.255 -0.8600  1.8900  0.5206
20807SOL    HW264190   9.590   1.247   9.362  1.1768 -0.3325 -1.8795
20808SOL     OW64191   9.125   5.749   8.684  0.1326 -0.0657  0.3154
20808SOL    HW164192   9.152   5.680   8.623 -0.0905  0.1558 -0.0338
20808SOL    HW264193   9.039   5.777   8.653  0.4960  0.8219  0.0657
20809SOL     OW64194   0.505   0.994   0.209 -0.3491 -0.2331 -0.5861
20809SOL    HW164195   0.430   1.050   0.189 -0.2686 -0.7254 -2.4162
20809SOL    HW264196   0.576   1.055   0.231 -0.2517  0.4314 -2.5625
20810SOL     OW64197   2.302   9.377   6.692  0.4705 -0.4164  0.4256
20810SOL    HW164198   2.331   9.296   6.650 -0.3846 -0.9917  0.9037
20810SOL    HW264199   2.263   9.348   6.775  1.1481  0.5863  1.1291
20811SOL     OW64200   6.273   3.237   9.426  0.2228 -0.4843 -0.5475
20811SOL    HW164201   6.352   3.279   9.393 -0.1726 -0.7472 -1.8744
20811SOL    HW264202   6.250   3.288   9.504  0.4350  1.0076 -1.4180
20812SOL     OW64203   0.910   7.502   2.890  0.1873  0.5220 -0.3651
20812SOL    HW164204   0.984   7.457   2.848 -0.4307  0.6571 -1.6332
20812SOL    HW264205   0.935   7.594   2.891  0.3125  0.4886 -0.1706
20813SOL     OW64206   3.461   6.588   0.541  0.3122 -0.3865  0.1012
20813SOL    HW164207   3.534   6.537   0.575  1.1793  1.5118  1.2578
20813SOL    HW264208   3.502   6.660   0.494 -0.7958  0.7118  0.7553
20814SOL     OW64209   5.052   9.215   6.796  0.0184 -0.0784  0.5162
20814SOL    HW164210   5.122   9.224   6.860 -0.5020 -2.4854  1.5295
20814SOL    HW264211   5.075   9.276   6.726  1.1373  1.9160  2.4844
20815SOL     OW64212   1.369   4.777   1.686 -0.4930 -0.0942 -0.3398
20815SOL    HW164213   1.397   4.766   1.777 -0.7208  1.3870 -0.0634
20815SOL    HW264214   1.285   4.733   1.681 -0.6333  0.0889  0.2690
20816SOL     OW64215   5.911   2.272   4.835  0.6689  0.1190  0.3658
20816SOL    HW164216   5.896   2.343   4.897  0.0338  0.5684 -0.2917
20816SOL    HW264217   5.905   2.314   4.749  0.0350 -0.7784 -0.0330
20817SOL     OW64218   9.273   7.321   9.834  0.4576 -0.0728 -0.2168
20817SOL    HW164219   9.205   7.361   9.887  0.6419  0.8343 -0.6542
20817SOL    HW264220   9.227   7.281   9.761 -0.0348 -3.1039  1.5737
20818SOL     OW64221   6.947   9.060   9.223  0.0110 -0.2277 -0.5558
20818SOL    HW164222   7.027   9.008   9.218 -0.5098 -1.1314  0.2271
20818SOL    HW264223   6.908   9.051   9.136  0.3742 -0.4123 -0.7020
20819SOL     OW64224   0.958   3.860   9.519 -0.2300  0.7054  0.5878
20819SOL    HW164225   0.987   3.866   9.610 -0.7798 -1.2863  0.9302
20819SOL    HW264226   1.033   3.827   9.471 -0.6303 -0.4648  0.7446
20820SOL     OW64227   4.824   2.381   0.001 -0.0158 -0.0109 -0.1760
20820SOL    HW164228   4.732   2.359  -0.016 -0.4036  0.8194  0.7557
20820SOL    HW264229   4.843   2.342   0.086  0.1246  0.8301  0.1920
20821SOL     OW64230   0.276   4.913   2.118 -0.3596 -0.1285  0.2595
20821SOL    HW164231   0.340   4.844   2.099  1.7587  1.6032  0.7385
20821SOL    HW264232   0.286   4.976   2.048  1.1830  1.9735  2.2244
20822SOL     OW64233   5.472   7.159   6.648 -0.4645  0.7525  0.0410
20822SOL    HW164234   5.493   7.085   6.590 -0.8550 -0.3361  1.2434
20822SOL    HW264235   5.495   7.237   6.597  0.1378 -0.2002 -1.1914
20823SOL     OW64236   3.327   7.010   7.510  0.0238  0.0124  0.2516
20823SOL    HW164237   3.415   7.033   7.538  0.0363 -0.1563  0.3531
20823SOL    HW264238   3.280   7.094   7.505  0.4877  0.2135 -0.8484
20824SOL     OW64239   8.723   3.567   8.017 -0.1876 -0.1423 -0.0668
20824SOL    HW164240   8.673   3.630   7.966 -0.8150 -0.8050 -0.2791
20824SOL    HW264241   8.780   3.524   7.953 -0.8732 -0.8754 -0.1872
20825SOL     OW64242   8.553   8.483   8.922 -0.6135  0.0529  0.1930
20825SOL    HW164243   8.500   8.519   8.851  0.4500  2.5030  0.5210
20825SOL    HW264244   8.616   8.426   8.878  1.4315  3.1306 -1.3097
20826SOL     OW64245   2.227   3.907   1.253 -0.1827 -0.4910 -0.9383
20826SOL    HW164246   2.288   3.981   1.257 -0.6803 -0.0415 -1.5416
20826SOL    HW264247   2.279   3.832   1.284  0.2549  0.1415 -0.0783
20827SOL     OW64248   5.372   1.574   3.964  0.2312 -0.1325 -0.8179
20827SOL    HW164249   5.306   1.566   3.896 -0.8282  1.0439  0.0221
20827SOL    HW264250   5.351   1.657   4.008  0.7037 -0.9896  1.1182
20828SOL     OW64251   4.433   9.471   7.431  0.1361  0.6093 -0.3563
20828SOL    HW164252   4.506   9.414   7.455  0.4001  1.2080  0.3223
20828SOL    HW264253   4.391   9.492   7.514 -0.3705  0.8410 -0.6695
20829SOL     OW64254   3.643   5.267   2.523 -0.4955  0.3457  0.1517
20829SOL    HW164255   3.733   5.247   2.547 -1.1371 -1.6549  1.1143
20829SOL    HW264256   3.598   5.283   2.606 -1.5162 -0.9918 -0.1143
20830SOL     OW64257   9.450   5.725   8.399 -0.3440 -0.5014 -0.2010
20830SOL    HW164258   9.458   5.699   8.491 -0.8509  0.6639  0.1873
20830SOL    HW264259   9.538   5.754   8.375  0.2548 -2.4833 -0.6598
20831SOL     OW64260   8.561   8.214   4.775  0.6118 -0.5110  0.1511
20831SOL    HW164261   8.618   8.142   4.749 -0.3223 -0.6949 -1.4843
20831SOL    HW264262   8.478   8.173   4.797  0.2497  0.0139 -0.2122
20832SOL     OW64263   5.270   1.444   4.867  0.0972 -0.2644 -0.2314
20832SOL    HW164264   5.204   1.433   4.936  1.4411  0.5131  1.2649
20832SOL    HW264265   5.262   1.367   4.812 -1.8781 -0.2949  0.0490
20833SOL     OW64266   5.293   3.904   5.269  0.5010  0.1598 -1.0305
20833SOL    HW164267   5.317   3.994   5.249 -1.1648  1.4859  2.2794
20833SOL    HW264268   5.198   3.903   5.269  0.4673 -1.7775 -1.4861
20834SOL     OW64269   7.219   4.089   3.255  0.4527 -0.1217 -0.1449
20834SOL    HW164270   7.248   4.168   3.302  0.9196 -0.5049  0.2235
20834SOL    HW264271   7.280   4.082   3.182  0.9645 -0.6203  0.3181
20835SOL     OW64272   2.424   1.060   3.410  0.0986 -0.7860  0.1667
20835SOL    HW164273   2.417   1.087   3.501  0.3041  1.6433 -0.4650
20835SOL    HW264274   2.503   1.006   3.406  1.3280  0.8823  1.0702
20836SOL     OW64275   4.453   7.943   3.986 -0.2713 -0.0717  0.3664
20836SOL    HW164276   4.467   8.033   3.956  1.4275 -0.6273 -0.6631
20836SOL    HW264277   4.415   7.952   4.073 -1.9071  1.6220 -0.4617
20837SOL     OW64278   7.051   6.240   3.733 -0.2665 -0.3032  0.6423
20837SOL    HW164279   7.058   6.300   3.808  2.2847 -0.6534  0.7919
20837SOL    HW264280   7.098   6.162   3.761  1.0086 -0.3360 -1.3866
20838SOL     OW64281   8.815   8.949   8.374 -0.6098 -0.1780  0.0850
20838SOL    HW164282   8.757   8.913   8.307 -0.0620  0.8538 -0.9869
20838SOL    HW264283   8.769   8.934   8.457 -1.1177 -1.8348 -0.4615
20839SOL     OW64284   9.688   9.651   0.148 -0.4012 -0.3561  0.2748
20839SOL    HW164285   9.609   9.685   0.191 -0.8606 -2.1573  0.9572
20839SOL    HW264286   9.664   9.562   0.123  0.5868 -0.0759 -1.8565
20840SOL     OW64287   4.577   0.836   2.070 -0.2014  0.1641 -0.2030
20840SOL    HW164288   4.626   0.899   2.124  1.4643 -0.3428 -1.0690
20840SOL    HW264289   4.642   0.799   2.012 -1.5715 -0.8595 -1.1331
20841SOL     OW64290   7.575   6.510   5.115  0.7358  0.2558 -0.3532
20841SOL    HW164291   7.631   6.442   5.152  0.4523 -0.0817 -0.5367
20841SOL    HW264292   7.625   6.545   5.042 -0.2127 -1.6681 -2.0436
20842SOL     OW64293   6.762   5.663   2.377  0.2523 -0.0749  0.6830
20842SOL    HW164294   6.824   5.699   2.313 -0.4711 -0.0265  0.0028
20842SOL    HW264295   6.751   5.572   2.351 -0.2962  0.0301  0.5358
20843SOL     OW64296   4.709   8.664   2.858 -0.1310  0.0058 -0.5457
20843SOL    HW164297   4.633   8.697   2.905 -0.8666 -2.5092  0.1729
20843SOL    HW264298   4.784   8.696   2.908 -0.6893  2.0825 -0.9762
20844SOL     OW64299   8.338   2.546   4.979 -0.3945  0.0137 -0.1595
20844SOL    HW164300   8.356   2.527   4.887 -1.4678  0.6617 -0.5171
20844SOL    HW264301   8.243   2.548   4.985 -0.3335  1.1919  0.7105
20845SOL     OW64302   4.953   8.736   7.972 -0.9282  0.7337 -0.1427
20845SOL    HW164303   4.899   8.769   8.043 -0.2462 -0.0769  0.7746
20845SOL    HW264304   5.042   8.760   7.997 -0.5414 -0.7434 -0.0379
20846SOL     OW64305   6.027   8.764   1.249 -0.4560 -0.3923  0.0595
20846SOL    HW164306   5.931   8.771   1.247 -0.4017  0.4863  0.0052
20846SOL    HW264307   6.045   8.697   1.314 -1.0819  0.3107  0.9814
20847SOL     OW64308   7.648   2.827   9.050 -0.1820 -0.5013 -0.0497
20847SOL    HW164309   7.696   2.768   8.992 -1.3167 -1.0235 -0.5005
20847SOL    HW264310   7.647   2.783   9.135 -0.3517 -0.7603 -0.1852
20848SOL     OW64311   4.649   3.233   8.785  0.3471 -0.6048  0.2648
20848SOL    HW164312   4.575   3.225   8.845  0.0280  1.2750  0.1999
20848SOL    HW264313   4.701   3.305   8.821  1.3390 -0.9225 -0.5068
20849SOL     OW64314   3.451   4.553   6.567  0.1289 -0.7068  0.3062
20849SOL    HW164315   3.356   4.555   6.580  0.1780  0.8699  0.5900
20849SOL    HW264316   3.472   4.637   6.526  1.7079  0.0494  2.4897
20850SOL     OW64317   5.403   0.525   3.180 -0.3102  0.2007 -0.4734
20850SOL    HW164318   5.424   0.469   3.255  3.0428  0.8438 -0.7489
20850SOL    HW264319   5.405   0.465   3.105 -3.8928 -0.4878 -0.2075
20851SOL     OW64320   6.955   3.602   2.061 -0.2962 -0.5947 -0.0817
20851SOL    HW164321   6.976   3.552   2.140  1.1811 -0.6921 -0.5185
20851SOL    HW264322   6.925   3.687   2.094  0.8721 -0.4228  0.5875
20852SOL     OW64323   5.673   4.796   2.122 -0.2851  0.0736 -0.3270
20852SOL    HW164324   5.629   4.827   2.201  0.9692 -0.5808  0.6551
20852SOL    HW264325   5.606   4.745   2.076 -1.1019  0.6672  0.1844
20853SOL     OW64326   1.241   3.430   8.641  0.5004  0.0048 -0.0323
20853SOL    HW164327   1.177   3.423   8.571  2.7621 -0.0977 -2.2116
20853SOL    HW264328   1.205   3.497   8.700 -1.3019  0.3788 -1.4781
20854SOL     OW64329   2.171   3.970   2.790  0.2848 -0.2012 -0.2190
20854SOL    HW164330   2.215   4.054   2.782 -1.1822  0.4636 -2.0070
20854SOL    HW264331   2.234   3.907   2.757  2.5521 -0.3611  3.7841
20855SOL     OW64332   0.625   9.372   1.279 -0.1149  0.1874  0.8405
20855SOL    HW164333   0.536   9.352   1.250  0.7461  0.0158 -1.9122
20855SOL    HW264334   0.628   9.468   1.281 -0.2819  0.1967  0.6888
20856SOL     OW64335   1.536   7.009   0.113 -0.3502 -0.2567 -0.2552
20856SOL    HW164336   1.490   7.090   0.090 -0.1842  0.4329  1.6699
20856SOL    HW264337   1.481   6.970   0.181  0.5197 -0.8180  0.1349
20857SOL     OW64338   4.656   9.106   1.532 -0.2321  0.0807  0.1406
20857SOL    HW164339   4.599   9.034   1.504 -0.7054  1.0880 -1.6942
20857SOL    HW264340   4.720   9.115   1.461  2.1811 -0.8896  2.0625
20858SOL     OW64341   0.139   5.952   9.722 -0.4527 -0.5398  0.4026
20858SOL    HW164342   0.162   5.859   9.727  0.6225 -0.3748 -0.7934
20858SOL    HW264343   0.110   5.964   9.631  0.7419  0.5488  0.1333
20859SOL     OW64344   4.535   2.055   1.205 -0.0608 -0.4920  0.1086
20859SOL    HW164345   4.554   1.989   1.270 -1.8223 -0.0012  1.1937
20859SOL    HW264346   4.612   2.057   1.148  0.9990 -1.7751  1.4550
20860SOL     OW64347   5.207   7.857   8.001  0.5154  0.0127 -0.2874
20860SOL    HW164348   5.167   7.838   7.916 -1.4500  2.4554 -0.0139
20860SOL    HW264349   5.283   7.911   7.981 -0.2336  1.0118 -0.5181
20861SOL     OW64350   4.394   0.569   6.050  0.8992  0.7199 -0.3853
20861SOL    HW164351   4.444   0.646   6.077  2.8939 -0.8006  0.4800
20861SOL    HW264352   4.400   0.569   5.954  2.6255  0.5394 -0.2947
20862SOL     OW64353   8.685   0.739   6.137 -0.3032  0.4897 -0.4323
20862SOL    HW164354   8.619   0.682   6.176  0.0487  0.9267  0.8476
20862SOL    HW264355   8.692   0.709   6.047  0.7369 -2.3505  0.4900
20863SOL     OW64356   7.596   7.972   2.525 -0.1962  0.5806 -0.6618
20863SOL    HW164357   7.583   7.897   2.467  1.8642  0.0282 -0.4781
20863SOL    HW264358   7.515   7.979   2.575 -0.7079 -1.0380 -1.2297
20864SOL     OW64359   2.525   5.426   2.222 -0.1125 -0.3657  0.2977
20864SOL    HW164360   2.550   5.408   2.132  1.3397 -4.3308  1.2884
20864SOL    HW264361   2.444   5.377   2.235 -0.9891  1.1599  0.8901
20865SOL     OW64362   3.068   1.272   0.295 -0.2895 -0.2200  0.0906
20865SOL    HW164363   3.046   1.358   0.260 -0.1742 -0.5725 -0.8617
20865SOL    HW264364   2.985   1.226   0.302 -0.4627  0.2347  1.3897
20866SOL     OW64365   5.200   5.194   1.258  0.5555 -0.2166  0.4150
20866SOL    HW164366   5.294   5.176   1.263  1.2172  2.4712 -0.6671
20866SOL    HW264367   5.193   5.290   1.259 -1.8684 -0.1317 -3.1811
20867SOL     OW64368   5.823   2.244   3.008 -0.3578 -0.1107  0.3084
20867SOL    HW164369   5.790   2.275   3.092  0.7478 -0.0306  0.7235
20867SOL    HW264370   5.915   2.224   3.024  0.2875  1.3607 -1.2376
20868SOL     OW64371   7.021   0.065   5.767  0.0767 -0.1492  0.0909
20868SOL    HW164372   6.945   0.012   5.792  0.7622 -0.4975  1.5253
20868SOL    HW264373   7.070   0.008   5.708 -0.8465  0.1504 -1.0075
20869SOL     OW64374   5.127   3.159   5.720  0.0826 -0.0656 -0.3085
20869SOL    HW164375   5.205   3.103   5.718 -0.0900 -0.3287  0.0913
20869SOL    HW264376   5.159   3.246   5.698  0.2420 -0.4396 -1.7123
20870SOL     OW64377   2.873   4.561   1.134  0.3231 -0.1622 -0.6703
20870SOL    HW164378   2.800   4.510   1.169 -1.1278  2.3420  0.1826
20870SOL    HW264379   2.865   4.552   1.039 -2.0532  1.1592 -0.6811
20871SOL     OW64380   4.040   1.890   1.340 -0.1157 -0.2969  1.0812
20871SOL    HW164381   4.125   1.913   1.304  0.2736 -2.0642  0.7857
20871SOL    HW264382   4.054   1.806   1.384 -1.6047 -0.4085  1.3977
20872SOL     OW64383   7.832   2.522   5.240  0.4079 -0.4838  0.3740
20872SOL    HW164384   7.795   2.444   5.197  0.7933  0.2975 -1.4945
20872SOL    HW264385   7.759   2.560   5.288 -0.1107 -1.2959  0.2470
20873SOL     OW64386   3.979   3.821   1.732 -0.4024 -0.8319 -0.0074
20873SOL    HW164387   3.991   3.793   1.823  1.5714  0.7220  0.2812
20873SOL    HW264388   4.066   3.849   1.704 -1.7622  3.0244 -0.8905
20874SOL     OW64389   8.271   8.623   7.310 -0.0417 -0.4372 -0.4059
20874SOL    HW164390   8.356   8.604   7.349  0.4176 -0.3364 -1.3611
20874SOL    HW264391   8.212   8.632   7.386  0.9619  0.3755  0.2936
20875SOL     OW64392   1.128   1.287   4.035  0.6759  0.2094  0.2606
20875SOL    HW164393   1.036   1.311   4.026  0.7409  0.2105 -0.4413
20875SOL    HW264394   1.126   1.197   4.068  0.4271  0.3489  0.6326
20876SOL     OW64395   8.751   7.409   3.658  0.1183 -0.1351 -0.3781
20876SOL    HW164396   8.817   7.435   3.722 -1.0053 -1.8045  1.5830
20876SOL    HW264397   8.790   7.430   3.573  2.5305  0.2788  0.7502
20877SOL     OW64398   8.870   7.496   3.436 -0.0572  0.1042  0.0161
20877SOL    HW164399   8.797   7.477   3.377 -1.3961 -1.8120  2.1179
20877SOL    HW264400   8.947   7.501   3.379 -1.2990 -1.3852 -1.9071
20878SOL     OW64401   7.070   1.996   0.001 -0.0868  0.3754  0.2769
20878SOL    HW164402   7.149   1.955  -0.036 -0.6180 -1.4148  1.0223
20878SOL    HW264403   6.998   1.942  -0.033 -0.7771  0.3237  1.7804
20879SOL     OW64404   1.526   4.495   0.862  0.7317 -0.0290 -0.1673
20879SOL    HW164405   1.538   4.452   0.777 -0.2092 -0.8158  0.0831
20879SOL    HW264406   1.551   4.429   0.926  0.1166  0.0887  0.1993
20880SOL     OW64407   8.338   5.907   7.516 -0.0810 -0.2515 -0.0450
20880SOL    HW164408   8.374   5.965   7.448 -0.1681 -0.1932 -0.0421
20880SOL    HW264409   8.330   5.963   7.593  0.7535 -0.5087  0.2463
20881SOL     OW64410   8.981   5.457   8.143 -0.3130 -0.3216  0.3762
20881SOL    HW164411   9.000   5.546   8.114  2.2284 -0.7009  0.5883
20881SOL    HW264412   8.925   5.421   8.075  1.0946  0.5262 -1.3222
20882SOL     OW64413   2.744   2.220   6.813 -0.0030 -0.0328  0.4514
20882SOL    HW164414   2.820   2.171   6.847  0.2053  0.3260  0.5158
20882SOL    HW264415   2.778   2.308   6.799 -0.1356 -0.1335 -0.5383
20883SOL     OW64416   6.097   5.225   8.913 -0.3600 -0.1176  0.6830
20883SOL    HW164417   6.133   5.157   8.858 -0.0913  0.6166 -0.0665
20883SOL    HW264418   6.098   5.304   8.859  0.0958  0.6720  1.7786
20884SOL     OW64419   2.403   6.398   2.734  0.1671 -0.2099 -0.1310
20884SOL    HW164420   2.453   6.370   2.658  0.7398 -1.9200  0.8223
20884SOL    HW264421   2.452   6.365   2.809 -1.8261 -1.0633  0.8846
20885SOL     OW64422   8.669   6.634   7.137  0.6566  0.5912 -0.0105
20885SOL    HW164423   8.697   6.674   7.054  0.0320 -0.5489 -0.7901
20885SOL    HW264424   8.690   6.541   7.128 -0.6524  0.2145  0.5638
20886SOL     OW64425   7.821   4.489   4.395 -0.1962  0.3014 -0.2293
20886SOL    HW164426   7.854   4.478   4.305  2.3264 -3.4213  0.8970
20886SOL    HW264427   7.727   4.506   4.384 -0.4687 -2.2650 -3.6262
20887SOL     OW64428   5.218   9.144   1.061  0.4964  0.1434  0.0453
20887SOL    HW164429   5.290   9.188   1.107 -0.3466 -0.1617  1.7287
20887SOL    HW264430   5.261   9.078   1.007  1.4813 -0.3111  1.3360
20888SOL     OW64431   3.445   0.065   1.452  0.1164 -0.6649 -0.0655
20888SOL    HW164432   3.503   0.008   1.402 -0.4362  0.2003 -1.7423
20888SOL    HW264433   3.464   0.153   1.420 -1.1914 -0.2304  0.3080
20889SOL     OW64434   6.015   2.390   3.281 -0.0732  0.9574 -0.5776
20889SOL    HW164435   5.965   2.456   3.233 -1.7652 -0.3751 -0.7352
20889SOL    HW264436   5.949   2.341   3.331  1.1940 -0.2442 -0.0021
20890SOL     OW64437   4.676   6.640   4.919  0.4581  0.1913 -0.2875
20890SOL    HW164438   4.708   6.715   4.970 -0.3280  0.5129 -0.2609
20890SOL    HW264439   4.679   6.671   4.828  0.5004  0.1157 -0.3119
20891SOL     OW64440   8.952   4.145   8.692 -0.2738 -0.4576 -0.3987
20891SOL    HW164441   9.021   4.085   8.664  0.4063 -0.4598  1.1812
20891SOL    HW264442   8.952   4.215   8.627  1.5723 -0.1928 -0.1540
20892SOL     OW64443   8.254   1.797   1.210 -0.0976 -0.6518 -0.3129
20892SOL    HW164444   8.265   1.748   1.129 -0.9205  0.7196 -1.2945
20892SOL    HW264445   8.236   1.730   1.276 -2.1959 -1.6405 -1.7826
20893SOL     OW64446   8.373   8.771   9.310  0.0698  0.0448  0.0194
20893SOL    HW164447   8.344   8.843   9.366  0.6731  0.9791 -0.8301
20893SOL    HW264448   8.323   8.782   9.229 -0.0909 -0.7147  0.0033
20894SOL     OW64449   6.463   4.630   7.535  0.4475  0.6014  0.3921
20894SOL    HW164450   6.476   4.537   7.515  0.7563  1.0220 -1.6140
20894SOL    HW264451   6.543   4.655   7.582  0.6251 -0.0074  0.4280
20895SOL     OW64452   3.931   2.811   2.912 -0.5044  0.4668 -0.0503
20895SOL    HW164453   3.900   2.777   2.829 -1.0956  0.2285  0.2643
20895SOL    HW264454   3.953   2.734   2.963  1.3924  0.6320 -0.5417
20896SOL     OW64455   6.278   5.314   1.586 -0.4724 -0.3827  0.3277
20896SOL    HW164456   6.215   5.255   1.544 -1.1046  0.1819  0.4554
20896SOL    HW264457   6.224   5.372   1.639  0.2089 -0.2125  0.8484
20897SOL     OW64458   5.927   0.436   0.681 -0.0190 -0.1757  0.6236
20897SOL    HW164459   5.937   0.461   0.773  0.2361  1.5518  0.1591
20897SOL    HW264460   5.904   0.517   0.637 -2.6846 -1.4368 -0.5000
20898SOL     OW64461   3.543   6.924   5.222 -0.0292  1.0158  0.3031
20898SOL    HW164462   3.472   6.875   5.265  0.5971  0.9362  1.2688
20898SOL    HW264463   3.506   6.949   5.137 -1.1002  0.6901  0.6523
20899SOL     OW64464   5.986   8.054   6.670  0.2733  0.3769  0.3864
20899SOL    HW164465   6.010   8.038   6.761  1.3403  0.8047  0.1967
20899SOL    HW264466   5.892   8.071   6.673  0.3063  0.4558  1.4199
20900SOL     OW64467   0.557   9.463   6.745 -0.5236  0.6745  0.0857
20900SOL    HW164468   0.475   9.513   6.741 -0.7756  0.1896 -2.3412
20900SOL    HW264469   0.529   9.373   6.760 -0.4433  0.5645 -0.3888
20901SOL     OW64470   0.694   6.192   2.974 -0.3800  0.1247 -0.2394
20901SOL    HW164471   0.738   6.124   2.921  2.2143  0.6798  1.0276
20901SOL    HW264472   0.606   6.198   2.937  0.6692 -0.8655 -3.2296
20902SOL     OW64473   5.230   0.231   4.742 -0.1947 -0.4528  0.2369
20902SOL    HW164474   5.136   0.210   4.748 -0.7032  1.5924  0.0770
20902SOL    HW264475   5.235   0.299   4.675  0.8912  2.2006  2.8372
20903SOL     OW64476   3.200   0.264   3.772  0.2366 -0.8443  0.2927
20903SOL    HW164477   3.244   0.187   3.735  0.2962 -0.3377 -0.7077
20903SOL    HW264478   3.136   0.227   3.834 -1.4606 -1.8576 -1.9466
20904SOL     OW64479   5.214   7.562   3.413 -0.0319 -0.4050  0.0599
20904SOL    HW164480   5.177   7.649   3.396  1.0429 -0.0100 -0.3307
20904SOL    HW264481   5.305   7.579   3.438 -0.0899 -1.3594  0.9863
20905SOL     OW64482   8.255   7.138   8.236 -0.0486  0.4100 -0.4785
20905SOL    HW164483   8.325   7.204   8.238 -1.0500  1.5203  1.0605
20905SOL    HW264484   8.262   7.093   8.320  0.2650 -1.1096 -1.2885
20906SOL     OW64485   0.251   7.099   7.091 -0.0253 -0.1765  0.1754
20906SOL    HW164486   0.336   7.056   7.083 -0.5881 -1.4773  0.8663
20906SOL    HW264487   0.203   7.047   7.156 -1.8031 -0.2440 -1.1019
20907SOL     OW64488   3.448   5.448   1.604  0.2677  0.7838 -0.3452
20907SOL    HW164489   3.423   5.361   1.633 -0.3939  1.0510 -0.0851
20907SOL    HW264490   3.388   5.468   1.532 -1.7412  2.2381  1.5901
20908SOL     OW64491   8.561   5.215   4.076 -0.1229 -0.8264  0.2290
20908SOL    HW164492   8.575   5.278   4.147  0.9332 -0.5690 -0.1872
20908SOL    HW264493   8.564   5.268   3.996  0.3350 -1.3364 -0.1024
20909SOL     OW64494   6.028   4.257   7.814 -0.0424  0.3524  0.1958
20909SOL    HW164495   5.953   4.237   7.758 -1.0010  1.3888  1.0625
20909SOL    HW264496   5.994   4.318   7.879  1.8332  1.8233 -0.1173
20910SOL     OW64497   3.276   5.261   6.203  0.6166 -0.2320 -0.0851
20910SOL    HW164498   3.244   5.171   6.204  0.5098 -0.1914  0.8022
20910SOL    HW264499   3.214   5.308   6.147  0.3619 -0.5998 -0.1158
20911SOL     OW64500   1.467   1.620   6.104  0.0483 -0.4082 -0.0858
20911SOL    HW164501   1.443   1.696   6.157 -0.8890 -1.1099  0.5272
20911SOL    HW264502   1.533   1.654   6.043  0.2778  0.6923  0.7303
20912SOL     OW64503   0.111   1.350   3.168  0.0214  0.6319 -0.2738
20912SOL    HW164504   0.106   1.393   3.253  0.3032 -0.2166  0.1777
20912SOL    HW264505   0.150   1.415   3.110 -1.0838  1.5683  0.0032
20913SOL     OW64506   7.282   0.983   2.492  0.2087 -0.0402  0.1307
20913SOL    HW164507   7.305   0.910   2.550  0.6865 -0.5871 -0.7353
20913SOL    HW264508   7.361   1.037   2.489 -0.3104  0.8238  1.1886
20914SOL     OW64509   3.769   0.129   6.557 -0.3542  0.1584  0.0869
20914SOL    HW164510   3.678   0.121   6.586 -0.5684  0.4983 -0.4754
20914SOL    HW264511   3.813   0.172   6.630 -0.7610  0.4664  0.1604
20915SOL     OW64512   5.440   4.222   0.523  0.4833 -0.0212 -0.1572
20915SOL    HW164513   5.514   4.277   0.548 -0.2254  0.1610  1.7072
20915SOL    HW264514   5.431   4.160   0.596 -0.9341 -0.3052 -0.5392
20916SOL     OW64515   8.773   8.899   2.689  0.4569 -0.2923  0.2696
20916SOL    HW164516   8.845   8.937   2.738  0.4601  0.5067 -0.3317
20916SOL    HW264517   8.696   8.950   2.714 -0.0424 -1.4964  1.3389
20917SOL     OW64518   7.315   1.808   5.234  0.3391 -0.3129  0.0197
20917SOL    HW164519   7.312   1.720   5.272 -1.9363  0.0973  0.9285
20917SOL    HW264520   7.404   1.838   5.250  0.5504 -1.6609  1.5732
20918SOL     OW64521   1.825   1.739   5.076  0.1245 -0.3653  0.3729
20918SOL    HW164522   1.733   1.723   5.054  0.0506 -0.5258  0.7854
20918SOL    HW264523   1.834   1.834   5.071  0.4096 -0.4513 -1.4895
20919SOL     OW64524   6.366   2.872   2.348  0.5945  0.0701  0.6234
20919SOL    HW164525   6.273   2.895   2.345  0.5075 -0.3850 -1.4714
20919SOL    HW264526   6.412   2.951   2.320  0.5790 -0.6879 -1.7708
20920SOL     OW64527   8.860   1.437   7.298  0.3402 -0.2589  0.1887
20920SOL    HW164528   8.926   1.476   7.241  0.0005 -0.9176 -0.6829
20920SOL    HW264529   8.776   1.459   7.257  0.1288 -1.6815 -0.2097
20921SOL     OW64530   5.214   8.681   6.220 -0.3564 -0.0904  0.3396
20921SOL    HW164531   5.139   8.687   6.162 -0.8001 -0.2203  0.8989
20921SOL    HW264532   5.219   8.589   6.245 -0.0435 -0.0739  0.3524
20922SOL     OW64533   8.105   0.827   4.297 -0.4637 -0.8541 -0.4414
20922SOL    HW164534   8.177   0.764   4.294 -1.1673 -1.7046  0.1378
20922SOL    HW264535   8.141   0.906   4.255  0.0006 -2.0590 -2.4562
20923SOL     OW64536   6.383   0.473   5.679  0.0469 -0.4982 -0.6785
20923SOL    HW164537   6.382   0.561   5.643 -3.2373  0.0547  0.3858
20923SOL    HW264538   6.475   0.448   5.679  1.1063  2.8627 -1.1309
20924SOL     OW64539   3.830   4.787   3.486  0.1831 -0.7318  0.0256
20924SOL    HW164540   3.852   4.845   3.413  0.8082 -0.1228  0.6834
20924SOL    HW264541   3.808   4.847   3.558 -1.0247 -1.3239  0.1765
20925SOL     OW64542   9.277   5.474   2.917  0.8103  0.1135 -0.3047
20925SOL    HW164543   9.197   5.514   2.951  0.2956  0.3165 -1.6885
20925SOL    HW264544   9.287   5.511   2.830  2.3794  0.0243 -0.1934
20926SOL     OW64545   2.595   6.503   1.432 -0.1385  0.0992  0.0314
20926SOL    HW164546   2.581   6.598   1.434  0.1530  0.1359  1.2913
20926SOL    HW264547   2.548   6.470   1.508  1.8727 -0.4334  1.1164
20927SOL     OW64548   1.085   5.159   0.450  0.2335 -0.2028 -0.2562
20927SOL    HW164549   1.119   5.213   0.379 -0.2178  0.2496 -0.1349
20927SOL    HW264550   1.163   5.120   0.489  0.5435  0.1117 -0.5471
20928SOL     OW64551   0.896   9.175   0.581 -0.0066 -0.4704  0.0462
20928SOL    HW164552   0.817   9.154   0.631 -1.6702  0.7787 -1.9128
20928SOL    HW264553   0.956   9.213   0.646 -2.5585  2.3306  0.9918
20929SOL     OW64554   4.565   9.178   0.053  0.3300  0.0102 -0.3982
20929SOL    HW164555   4.625   9.193  -0.019  2.7368  0.9885  1.6682
20929SOL    HW264556   4.507   9.254   0.053 -0.8539 -0.8210 -2.2450
20930SOL     OW64557   0.347   9.537   0.079  0.3001 -0.4447  0.4470
20930SOL    HW164558   0.436   9.567   0.061  0.5672 -1.2238  0.3989
20930SOL    HW264559   0.353   9.441   0.075 -0.3713 -0.5358  1.2439
20931SOL     OW64560   9.353   8.447   7.313  0.0435 -0.2303  0.3834
20931SOL    HW164561   9.438   8.405   7.309  0.5804  0.8895 -0.4463
20931SOL    HW264562   9.297   8.394   7.256  1.0121  0.7858 -1.6187
20932SOL     OW64563   7.011   8.512   7.915 -0.2997 -0.2638  0.4869
20932SOL    HW164564   6.989   8.484   8.003 -0.0795 -0.1662  0.5729
20932SOL    HW264565   7.012   8.431   7.863 -0.8432 -0.2729  0.4845
20933SOL     OW64566   7.371   3.720   2.558 -0.0822 -0.3069 -0.1489
20933SOL    HW164567   7.437   3.712   2.490 -1.7979 -0.0840 -1.9299
20933SOL    HW264568   7.303   3.774   2.519 -1.2583 -0.3975  1.6609
20934SOL     OW64569   6.072   4.742   8.524 -0.3108 -0.1973 -0.4253
20934SOL    HW164570   6.011   4.802   8.482  0.5494  0.6772 -0.4841
20934SOL    HW264571   6.151   4.795   8.538 -0.0977 -0.8630  1.0280
20935SOL     OW64572   3.576   3.087   5.845  0.3075  0.0775  0.0344
20935SOL    HW164573   3.491   3.069   5.806  0.7513 -0.6398 -0.6241
20935SOL    HW264574   3.555   3.122   5.932 -0.6373 -1.9747  0.6934
20936SOL     OW64575   9.421   1.632   6.616  0.1190 -0.4678 -0.7181
20936SOL    HW164576   9.466   1.548   6.625 -1.0245 -1.0899 -0.5158
20936SOL    HW264577   9.412   1.644   6.521  1.1836 -0.0534 -0.7802
20937SOL     OW64578   2.444   2.995   1.975 -0.1541 -0.2826 -0.2058
20937SOL    HW164579   2.415   3.016   1.887 -0.9513  2.9347  0.6624
20937SOL    HW264580   2.535   3.024   1.978 -0.6129  1.2257  0.4035
20938SOL     OW64581   4.512   1.103   0.804  0.5976  0.0511  0.4114
20938SOL    HW164582   4.429   1.078   0.764  0.5633  0.8033  0.0008
20938SOL    HW264583   4.568   1.026   0.793  0.8093  0.4367 -1.7012
20939SOL     OW64584   1.813   8.109   0.400 -0.2005 -0.3728 -0.7472
20939SOL    HW164585   1.843   8.027   0.440  1.7559  0.5108 -0.3249
20939SOL    HW264586   1.887   8.140   0.348 -1.0150  0.9652 -1.1665
20940SOL     OW64587   9.215   6.210   5.356 -0.2424 -0.1867  0.0781
20940SOL    HW164588   9.150   6.178   5.293  1.0931 -1.5116 -0.6910
20940SOL    HW264589   9.166   6.227   5.436 -1.6107 -0.6455 -0.6467
20941SOL     OW64590   4.988   3.696   0.730 -0.0917 -0.1533 -0.2894
20941SOL    HW164591   4.950   3.699   0.818  0.8383  1.3424  0.0799
20941SOL    HW264592   5.075   3.659   0.743 -0.7863 -2.1546 -0.9370
20942SOL     OW64593   5.087   3.783   6.716  0.8826  0.0438 -0.0638
20942SOL    HW164594   5.008   3.838   6.711  0.5011 -0.4334  0.5423
20942SOL    HW264595   5.132   3.813   6.794  0.9392 -0.1491 -0.0209
20943SOL     OW64596   5.166   6.429   5.994 -0.2948 -0.3380  0.0912
20943SOL    HW164597   5.162   6.493   5.923 -0.8076 -0.1147  0.3157
20943SOL    HW264598   5.168   6.482   6.074  0.6020 -0.5793  0.2461
20944SOL     OW64599   2.552   8.756   0.728  0.2107 -0.1393  0.2205
20944SOL    HW164600   2.644   8.780   0.738  1.0665 -1.4082 -3.2550
20944SOL    HW264601   2.543   8.673   0.776  0.2102  1.0235  2.3810
20945SOL     OW64602   9.712   6.090   3.389  0.1064  0.6952  1.0123
20945SOL    HW164603   9.621   6.058   3.388  0.0582  0.8046 -0.2833
20945SOL    HW264604   9.706   6.180   3.357  0.6058  0.9386  1.5811
20946SOL     OW64605   6.060   9.575   1.881  0.1348 -0.0308 -0.2085
20946SOL    HW164606   5.992   9.516   1.847 -0.3322 -0.9199  2.0557
20946SOL    HW264607   6.142   9.536   1.850 -0.2871  0.3759 -1.9690
20947SOL     OW64608   6.140   6.221   6.288  0.2889 -0.2116 -0.1061
20947SOL    HW164609   6.185   6.230   6.372  0.2372  1.7331 -0.2365
20947SOL    HW264610   6.207   6.240   6.222  0.4416 -2.1543 -0.5655
20948SOL     OW64611   7.061   9.209   1.401  0.5667 -0.0146  0.1469
20948SOL    HW164612   6.985   9.240   1.449 -0.9926 -1.6993 -1.1129
20948SOL    HW264613   7.113   9.288   1.385 -1.0499  1.2230  0.7515
20949SOL     OW64614   6.692   9.105   4.836  0.4433  0.3695 -0.5212
20949SOL    HW164615   6.645   9.069   4.911  0.8072 -0.2136 -0.5683
20949SOL    HW264616   6.715   9.029   4.783  0.0497  0.7884 -1.3088
20950SOL     OW64617   9.491   4.472   3.007  0.0467  0.0196 -0.3524
20950SOL    HW164618   9.565   4.414   2.988  1.0230  0.8616  0.6806
20950SOL    HW264619   9.454   4.437   3.088  0.4092  0.6051  0.0725
20951SOL     OW64620   2.510   6.352   4.600 -0.2130 -0.0727  0.1369
20951SOL    HW164621   2.459   6.432   4.586 -0.2544 -0.3775 -1.6350
20951SOL    HW264622   2.446   6.287   4.628 -0.1131  0.5938  2.0415
20952SOL     OW64623   0.268   4.369   8.979  0.0605  0.0532 -0.1198
20952SOL    HW164624   0.178   4.345   8.958 -0.2542  1.0909 -0.0617
20952SOL    HW264625   0.302   4.408   8.899  0.5542 -0.6023 -0.2275
20953SOL     OW64626   7.241   0.831   2.786  0.4799  0.0462 -0.2080
20953SOL    HW164627   7.329   0.868   2.798  0.5310  0.5901 -1.9425
20953SOL    HW264628   7.250   0.739   2.808  1.5287  0.0769 -0.4511
20954SOL     OW64629   7.203   7.968   8.497 -0.3565 -0.2209 -0.2507
20954SOL    HW164630   7.229   7.891   8.548  0.3138 -1.2039 -1.9876
20954SOL    HW264631   7.271   8.033   8.515 -0.1205 -0.5579  0.0981
20955SOL     OW64632   3.415   3.623   4.539  0.4048  0.3752  0.0603
20955SOL    HW164633   3.358   3.547   4.539  1.2004 -0.3198  2.6276
20955SOL    HW264634   3.492   3.596   4.489 -0.0483  0.1215 -0.5059
20956SOL     OW64635   4.338   8.712   5.370  1.0251 -0.5655 -0.2893
20956SOL    HW164636   4.354   8.707   5.276  0.1611  1.4976 -0.6111
20956SOL    HW264637   4.288   8.633   5.390 -1.9665  0.6091 -2.3332
20957SOL     OW64638   6.307   2.702   6.699 -0.0825  0.0495  0.7314
20957SOL    HW164639   6.324   2.764   6.629  1.1309  1.1582  1.9568
20957SOL    HW264640   6.215   2.679   6.688 -0.5899  2.0963  0.2456
20958SOL     OW64641   7.876   4.956   3.525 -0.8506 -0.8922  0.0184
20958SOL    HW164642   7.792   4.911   3.521 -0.6466 -1.2747 -0.0946
20958SOL    HW264643   7.938   4.894   3.484 -0.6870 -0.2263 -0.7734
20959SOL     OW64644   1.401   7.992   3.279  0.3138 -0.1335 -0.1236
20959SOL    HW164645   1.337   7.952   3.338  0.6426 -0.0781  0.2766
20959SOL    HW264646   1.483   7.990   3.329  0.7130 -0.5668 -0.7762
20960SOL     OW64647   3.940   2.295   3.724 -0.6910  0.1218 -0.2224
20960SOL    HW164648   3.981   2.209   3.733  1.0104  1.0956  2.5032
20960SOL    HW264649   3.988   2.337   3.652 -0.3373 -0.5472 -0.3908
20961SOL     OW64650   5.075   0.978   7.295 -0.0380 -0.3733 -0.2313
20961SOL    HW164651   5.087   1.053   7.236  1.0053  0.2305  0.7152
20961SOL    HW264652   4.995   1.000   7.344  1.2795  1.0869  1.3778
20962SOL     OW64653   1.460   6.277   3.531 -0.8618  0.3789  0.5338
20962SOL    HW164654   1.456   6.231   3.447 -0.6420 -0.5332  0.9963
20962SOL    HW264655   1.371   6.306   3.547 -0.7027  1.5172 -0.5152
20963SOL     OW64656   3.752   7.688   3.088 -0.4929 -0.2444  0.4238
20963SOL    HW164657   3.690   7.643   3.030 -0.9962 -0.1670  0.8923
20963SOL    HW264658   3.700   7.712   3.164  0.1970 -0.4646  0.9741
20964SOL     OW64659   2.183   6.866   2.105 -0.2556  0.6027 -0.0200
20964SOL    HW164660   2.153   6.838   2.192  1.2314 -0.1270  0.2862
20964SOL    HW264661   2.120   6.826   2.045 -1.1321  0.8749  0.6963
20965SOL     OW64662   7.453   9.038   4.696  0.6318 -0.2749  0.0113
20965SOL    HW164663   7.485   9.093   4.625 -1.4179  1.4260  0.2992
20965SOL    HW264664   7.431   9.099   4.766 -2.7633 -1.2405 -0.0276
20966SOL     OW64665   7.952   0.680   5.252 -0.0423  0.3450  0.0448
20966SOL    HW164666   8.032   0.730   5.238  0.1233  0.2009  0.4544
20966SOL    HW264667   7.888   0.719   5.192  0.7409 -0.4994 -1.3928
20967SOL     OW64668   7.121   0.753   7.174 -0.1887 -0.0347  0.8709
20967SOL    HW164669   7.198   0.697   7.165  0.5163  0.9968  0.2138
20967SOL    HW264670   7.056   0.715   7.116  0.0966 -0.4696  0.8317
20968SOL     OW64671   5.294   9.407   3.592 -0.1253  0.0003 -0.5943
20968SOL    HW164672   5.382   9.372   3.610  0.3676  1.2151 -0.4851
20968SOL    HW264673   5.291   9.416   3.497 -0.6144 -1.1915 -0.7069
20969SOL     OW64674   9.765   5.143   1.999  0.0029 -0.7480  0.1585
20969SOL    HW164675   9.839   5.187   1.957  1.6615 -2.2379  1.3597
20969SOL    HW264676   9.703   5.128   1.928  0.5571  1.0434 -0.7827
20970SOL     OW64677   3.807   5.945   4.379  0.0838 -0.3904  0.1069
20970SOL    HW164678   3.729   5.983   4.338  0.8393  1.0547 -0.0489
20970SOL    HW264679   3.775   5.865   4.421 -0.8084 -1.7750 -2.9405
20971SOL     OW64680   7.406   5.964   7.663  0.4476 -0.2848 -0.6264
20971SOL    HW164681   7.408   5.977   7.568  0.7255  0.1000 -0.5694
20971SOL    HW264682   7.408   5.869   7.674 -3.0913 -0.5532 -1.1070
20972SOL     OW64683   5.163   8.593   6.498  0.5901  0.3688 -0.0878
20972SOL    HW164684   5.225   8.585   6.426  1.0505 -0.9889  0.4233
20972SOL    HW264685   5.078   8.606   6.456  0.8210 -0.6176 -0.9010
20973SOL     OW64686   2.133   4.259   7.762 -0.1109 -0.1287 -0.4905
20973SOL    HW164687   2.163   4.179   7.719  0.6298  0.5146 -1.2312
20973SOL    HW264688   2.069   4.230   7.826 -2.7331 -1.0231 -3.2858
20974SOL     OW64689   8.831   9.504   0.601 -0.0507  0.3916 -0.4392
20974SOL    HW164690   8.813   9.414   0.574 -1.5635  1.1095 -1.9788
20974SOL    HW264691   8.823   9.556   0.520 -1.9691  2.2707  0.8595
20975SOL     OW64692   3.545   8.357   1.506  0.1719  0.2961 -0.0859
20975SOL    HW164693   3.587   8.421   1.563 -0.1922  0.9790 -0.5668
20975SOL    HW264694   3.478   8.407   1.458 -1.2141 -0.7560  0.6674
20976SOL     OW64695   7.181   3.919   5.058  0.3948 -0.6127 -0.1207
20976SOL    HW164696   7.143   3.858   4.994  2.2169  0.0936 -1.9550
20976SOL    HW264697   7.122   3.994   5.058  0.8940 -0.1968 -1.7550
20977SOL     OW64698   9.677   2.241   4.468 -0.2290 -0.1786 -0.3910
20977SOL    HW164699   9.747   2.247   4.402 -1.8042 -0.0991 -2.1461
20977SOL    HW264700   9.607   2.296   4.433 -0.4878  1.3506  2.2949
20978SOL     OW64701   3.773   0.149   3.026 -0.0927  0.0899 -0.0321
20978SOL    HW164702   3.721   0.124   3.102 -0.8221  0.5582 -0.3619
20978SOL    HW264703   3.711   0.147   2.953  0.7885 -1.1924 -0.7764
20979SOL     OW64704   9.509   1.012   0.103  0.1784  0.6191  0.0415
20979SOL    HW164705   9.512   1.074   0.176 -2.7071 -0.9849  1.7318
20979SOL    HW264706   9.417   1.012   0.075  0.3749 -1.7708 -0.8808
20980SOL     OW64707   8.241   5.237   5.841 -0.5684  0.0742 -0.1196
20980SOL    HW164708   8.229   5.331   5.832 -1.2244  0.4599  3.3844
20980SOL    HW264709   8.159   5.206   5.879  0.7809 -1.3158  1.8288
20981SOL     OW64710   8.528   1.359   4.186 -0.0887 -0.3593  0.3058
20981SOL    HW164711   8.552   1.275   4.146  1.2615 -0.1331  0.6015
20981SOL    HW264712   8.599   1.378   4.247  0.9696  2.2021 -1.5458
20982SOL     OW64713   2.685   9.325   7.817  0.7753 -0.3107 -0.5882
20982SOL    HW164714   2.774   9.311   7.786  0.6657 -0.1268 -0.9860
20982SOL    HW264715   2.642   9.375   7.748  0.6894  0.5765  0.0890
20983SOL     OW64716   6.802   6.321   5.638  0.4505  0.1594  0.1044
20983SOL    HW164717   6.797   6.263   5.713 -0.3488  1.3750  1.0295
20983SOL    HW264718   6.851   6.272   5.572  0.5848 -1.1804  1.1758
20984SOL     OW64719   0.546   6.699   2.747  0.2095  0.5164  0.5640
20984SOL    HW164720   0.640   6.718   2.738  0.3388 -0.3347 -0.0494
20984SOL    HW264721   0.504   6.750   2.678  0.4204 -0.4286 -0.2846
20985SOL     OW64722   0.343   0.904   1.825 -0.2037  0.4484 -0.2070
20985SOL    HW164723   0.396   0.892   1.746 -0.7834 -0.9826 -0.4233
20985SOL    HW264724   0.258   0.863   1.804 -1.1184  1.9419  0.4163
20986SOL     OW64725   6.626   8.729   9.367  0.3284  0.1544  0.6419
20986SOL    HW164726   6.706   8.699   9.323  0.6528 -0.1608  1.4263
20986SOL    HW264727   6.657   8.789   9.435 -0.1830  0.7968  0.3300
20987SOL     OW64728   7.047   7.864   4.727 -0.1261  0.2719 -0.3545
20987SOL    HW164729   6.961   7.858   4.768 -1.6785  0.4089 -3.3095
20987SOL    HW264730   7.073   7.773   4.710  1.0966  0.1398  1.8272
20988SOL     OW64731   5.372   7.471   7.533  0.0925  0.4314 -0.4556
20988SOL    HW164732   5.412   7.421   7.605 -0.4432  0.0336 -0.4165
20988SOL    HW264733   5.444   7.494   7.476  0.3894 -0.2080 -0.3529
20989SOL     OW64734   4.342   7.086   6.645 -0.8886 -0.1551 -0.1490
20989SOL    HW164735   4.292   7.007   6.625 -0.6294 -0.1293 -0.9429
20989SOL    HW264736   4.299   7.123   6.722 -2.1368 -0.0965 -0.8494
20990SOL     OW64737   5.562   7.756   3.682 -0.3940 -0.4270  0.3813
20990SOL    HW164738   5.569   7.764   3.777  0.2267 -0.0879  0.3115
20990SOL    HW264739   5.575   7.662   3.665 -0.6839 -0.5163  0.6386
20991SOL     OW64740   7.687   5.100   8.268  0.1324  0.1662  0.4610
20991SOL    HW164741   7.629   5.091   8.344  0.5414  1.6336  0.9840
20991SOL    HW264742   7.676   5.191   8.240  3.1271  0.9237  1.4166
20992SOL     OW64743   5.327   7.196   4.645  0.4610 -0.3075 -0.4864
20992SOL    HW164744   5.308   7.289   4.643  0.6436 -0.2580 -0.1389
20992SOL    HW264745   5.270   7.157   4.579  0.9979  0.1551 -1.2339
20993SOL     OW64746   4.208   4.069   7.741  0.3261  0.0650 -0.1718
20993SOL    HW164747   4.149   4.009   7.786 -1.6633 -0.4796 -3.2261
20993SOL    HW264748   4.295   4.030   7.753  0.4538  1.1365  4.8632
20994SOL     OW64749   1.343   7.033   4.667 -0.1315  0.0536 -0.9940
20994SOL    HW164750   1.369   7.125   4.665  0.4070 -0.0674 -0.0965
20994SOL    HW264751   1.291   7.024   4.747  0.3389 -0.5474 -0.7476
20995SOL     OW64752   7.321   4.933   4.454 -0.1236 -0.0979  0.6882
20995SOL    HW164753   7.260   4.998   4.418  1.6184  1.5001  0.4875
20995SOL    HW264754   7.355   4.974   4.533  2.0721 -0.0935 -0.1885
20996SOL     OW64755   2.169   3.826   8.116 -0.1181 -0.2568 -0.4399
20996SOL    HW164756   2.229   3.891   8.080  1.0279 -1.6750 -1.1649
20996SOL    HW264757   2.225   3.765   8.165 -1.1756 -0.6532  0.3258
20997SOL     OW64758   7.888   6.923   2.904 -0.0619  0.4129 -0.7079
20997SOL    HW164759   7.906   6.917   2.998  0.7302 -1.1979 -0.9200
20997SOL    HW264760   7.924   7.007   2.877 -1.0347  1.2664  0.5744
20998SOL     OW64761   8.007   7.291   6.945 -0.5607 -0.0114  0.4116
20998SOL    HW164762   7.935   7.266   6.887 -0.9750  1.0870  0.4365
20998SOL    HW264763   8.061   7.212   6.951 -0.7782 -0.3021 -1.0761
20999SOL     OW64764   4.367   4.307   6.767 -0.4328  0.7980 -0.2342
20999SOL    HW164765   4.393   4.399   6.780  0.8666  0.6606 -1.5689
20999SOL    HW264766   4.381   4.291   6.673 -0.2216 -0.8718  0.0482
21000SOL     OW64767   3.897   8.918   9.004  0.1596 -0.1316  0.0137
21000SOL    HW164768   3.821   8.875   8.963  1.0678 -2.1659  0.3556
21000SOL    HW264769   3.953   8.942   8.931  0.2025 -0.6489 -0.1277
21001SOL     OW64770   2.653   2.427   6.482  0.1306 -0.4214  0.4196
21001SOL    HW164771   2.565   2.403   6.512 -1.3804  0.8399 -2.5754
21001SOL    HW264772   2.665   2.375   6.402  1.5344  0.4899  0.0127
21002SOL     OW64773   4.195   0.122   8.541  0.1445 -0.3228 -0.3768
21002SOL    HW164774   4.130   0.059   8.571  0.5658  0.0545  1.4449
21002SOL    HW264775   4.145   0.201   8.521 -0.2667 -0.9023 -1.7640
21003SOL     OW64776   8.092   8.138   7.266  0.3465  0.1028  0.4063
21003SOL    HW164777   8.021   8.085   7.231 -0.8107  1.2442  0.9593
21003SOL    HW264778   8.172   8.093   7.236 -0.5796 -0.7057 -0.9898
21004SOL     OW64779   2.952   1.780   3.593 -0.2278  0.4601 -0.1107
21004SOL    HW164780   2.871   1.808   3.636 -0.8041 -0.6224 -0.4703
21004SOL    HW264781   2.974   1.697   3.635  0.8043  0.8195  0.0997
21005SOL     OW64782   3.331   9.487   5.420 -0.2415  0.4954 -0.0114
21005SOL    HW164783   3.317   9.404   5.466 -1.4881  0.4503 -0.4387
21005SOL    HW264784   3.426   9.496   5.415 -0.0882 -0.8232  0.1830
21006SOL     OW64785   5.221   0.892   6.491 -0.3837  0.2557  0.7914
21006SOL    HW164786   5.142   0.909   6.543 -1.2084  0.4783 -0.4741
21006SOL    HW264787   5.292   0.934   6.539 -1.3070  1.4837  1.1343
21007SOL     OW64788   1.134   5.803   9.580  0.3497 -0.0885  0.5500
21007SOL    HW164789   1.058   5.748   9.560 -1.3522  2.2360  0.1808
21007SOL    HW264790   1.204   5.741   9.601 -1.8229 -2.3481  1.6210
21008SOL     OW64791   2.480   2.213   6.753 -0.2277  0.0531  0.4315
21008SOL    HW164792   2.441   2.297   6.776  0.9301  0.0462  2.7083
21008SOL    HW264793   2.571   2.219   6.782 -0.1621 -2.0432  0.8792
21009SOL     OW64794   8.201   5.627   5.087  0.0997 -0.0095  0.3178
21009SOL    HW164795   8.270   5.580   5.041 -0.2416 -0.9364  0.7279
21009SOL    HW264796   8.177   5.570   5.160  0.5687  1.3895  1.6284
21010SOL     OW64797   7.066   8.014   2.700 -0.1399  0.3116  0.4030
21010SOL    HW164798   7.016   7.952   2.648  1.1065 -0.2059 -0.2304
21010SOL    HW264799   7.062   7.980   2.789 -1.0173  0.3600  0.3841
21011SOL     OW64800   9.573   3.681   1.635  0.1958  0.2781 -0.0970
21011SOL    HW164801   9.521   3.675   1.555  1.6095 -1.6063 -0.9577
21011SOL    HW264802   9.513   3.652   1.705 -0.9068  1.4906 -0.5073
21012SOL     OW64803   3.187   8.365   2.031 -0.8570 -0.4447 -0.1226
21012SOL    HW164804   3.218   8.340   2.118  0.8697  3.0023  0.4039
21012SOL    HW264805   3.108   8.417   2.047  1.1555  2.9115 -0.1448
21013SOL     OW64806   4.202   3.725   1.648  0.5904  0.0873  0.2006
21013SOL    HW164807   4.297   3.717   1.663  0.3614 -1.7325  0.9722
21013SOL    HW264808   4.166   3.643   1.682 -1.2413  0.6186 -0.3683
21014SOL     OW64809   6.248   6.545   2.296  0.4606  0.1635  0.5480
21014SOL    HW164810   6.259   6.470   2.238 -1.2179  1.6117 -1.8418
21014SOL    HW264811   6.325   6.600   2.279 -1.4255  2.0456 -2.8750
21015SOL     OW64812   8.597   1.143   4.898 -0.0128 -0.1519 -0.3290
21015SOL    HW164813   8.546   1.138   4.979  0.1238 -0.3080 -0.2509
21015SOL    HW264814   8.680   1.101   4.920  0.2895  0.4321 -0.3454
21016SOL     OW64815   0.907   1.238   8.436  0.2375 -0.3484  0.1020
21016SOL    HW164816   0.871   1.249   8.348 -1.4290 -2.0255  0.5201
21016SOL    HW264817   0.876   1.314   8.485  0.4250  0.1325 -0.5168
21017SOL     OW64818   7.813   5.900   2.874  0.3875  0.0383 -0.4955
21017SOL    HW164819   7.794   5.837   2.805  0.5770 -1.4919  0.7765
21017SOL    HW264820   7.889   5.863   2.919 -0.2797  0.5024  1.0899
21018SOL     OW64821   3.005   6.944   1.180  0.0682  0.3005 -0.1995
21018SOL    HW164822   3.067   6.897   1.236  0.7914 -0.1680 -1.3609
21018SOL    HW264823   3.019   7.036   1.201  1.0886  0.1916 -0.3601
21019SOL     OW64824   9.568   6.877   8.663  0.3486 -0.3754 -0.3569
21019SOL    HW164825   9.479   6.907   8.650  0.6184  0.2806 -0.7462
21019SOL    HW264826   9.561   6.781   8.663 -0.2188 -0.3510 -1.4322
21020SOL     OW64827   9.341   9.513   2.211  0.8301 -0.1329  0.1334
21020SOL    HW164828   9.384   9.508   2.126  2.1464  1.9045  0.5951
21020SOL    HW264829   9.330   9.422   2.238  0.6813 -0.8245 -2.0299
21021SOL     OW64830   1.511   5.370   6.195 -0.1541  0.0625  0.0842
21021SOL    HW164831   1.594   5.417   6.201 -0.1046  0.1642 -1.2282
21021SOL    HW264832   1.446   5.432   6.228  0.3212 -0.1699  1.5272
21022SOL     OW64833   5.598   4.718   9.099  0.5472  0.2928  0.5740
21022SOL    HW164834   5.688   4.687   9.105 -0.4042 -2.6275  1.5589
21022SOL    HW264835   5.576   4.711   9.007  0.9259 -0.3446  0.5241
21023SOL     OW64836   7.906   0.363   0.900 -0.1835  0.4686 -0.2558
21023SOL    HW164837   7.998   0.339   0.893 -0.0366  1.5275 -3.8289
21023SOL    HW264838   7.868   0.337   0.816 -2.5477  2.3855  0.1151
21024SOL     OW64839   3.198   8.149   7.982 -0.0678  0.6644  0.1877
21024SOL    HW164840   3.103   8.154   7.977 -0.0173  1.7046  0.1574
21024SOL    HW264841   3.229   8.231   7.944  0.8362  0.4393  0.4101
21025SOL     OW64842   7.721   1.326   8.930  0.0143  0.2257 -0.2056
21025SOL    HW164843   7.640   1.275   8.940 -0.1440  0.2082 -1.4265
21025SOL    HW264844   7.699   1.413   8.962  0.6619 -0.6943  3.2133
21026SOL     OW64845   6.464   7.238   5.165 -0.3602 -0.0019  0.2568
21026SOL    HW164846   6.526   7.302   5.200 -1.7901  0.5243  1.9549
21026SOL    HW264847   6.489   7.229   5.073  1.2622  1.3274  0.5146
21027SOL     OW64848   2.052   7.876   2.503  0.1662  0.1118 -0.1857
21027SOL    HW164849   2.050   7.781   2.515 -2.8748  0.0202 -0.7744
21027SOL    HW264850   2.021   7.911   2.586 -1.1222  0.4403 -0.7891
21028SOL     OW64851   1.039   6.901   3.881  0.7931 -0.1849  0.3878
21028SOL    HW164852   1.045   6.994   3.862 -1.9301  0.6582  2.9812
21028SOL    HW264853   0.956   6.874   3.843  1.9212 -1.8509 -1.0610
21029SOL     OW64854   2.585   0.821   4.328 -0.7983 -0.2625  0.0228
21029SOL    HW164855   2.586   0.778   4.242 -0.3624  1.7874 -1.0428
21029SOL    HW264856   2.632   0.760   4.385 -0.8054 -1.5220 -1.2490
21030SOL     OW64857   5.355   8.968   3.054  0.0590  0.0411 -0.0228
21030SOL    HW164858   5.342   8.986   3.147  0.1284  1.9063 -0.3271
21030SOL    HW264859   5.443   9.002   3.035  0.0575 -0.3444 -0.7576
21031SOL     OW64860   2.517   6.547   9.035  0.0736  0.0680 -0.4952
21031SOL    HW164861   2.520   6.458   8.999  0.5373 -0.4767  0.8155
21031SOL    HW264862   2.424   6.567   9.045 -0.0265 -0.3914 -0.5107
21032SOL     OW64863   5.300   7.936   3.055  0.0769  0.6088  0.0558
21032SOL    HW164864   5.326   7.951   3.146  1.9518 -0.3529 -0.2575
21032SOL    HW264865   5.262   7.848   3.057  1.9160 -0.2597 -0.3398
21033SOL     OW64866   9.772   4.509   6.462 -0.5182  0.4432 -0.1285
21033SOL    HW164867   9.859   4.480   6.434 -1.1053 -0.5028 -1.0297
21033SOL    HW264868   9.752   4.457   6.539 -1.2580 -1.0775 -1.3076
21034SOL     OW64869   0.655   6.320   8.094 -0.6546  0.2345 -0.4399
21034SOL    HW164870   0.733   6.295   8.144  0.1036 -1.3025 -2.2648
21034SOL    HW264871   0.591   6.345   8.160  0.5362 -0.9861  1.2564
21035SOL     OW64872   5.539   7.770   6.254  0.7121  0.3166  0.3432
21035SOL    HW164873   5.516   7.842   6.195  3.1199  0.5799 -0.3904
21035SOL    HW264874   5.456   7.727   6.274 -0.6670  2.6932  0.0156
21036SOL     OW64875   4.229   7.949   2.557 -0.6118  0.3351  0.1873
21036SOL    HW164876   4.165   7.892   2.599 -1.7740  0.9131 -0.7304
21036SOL    HW264877   4.249   8.015   2.623  0.8260 -1.1207  1.2930
21037SOL     OW64878   6.506   1.470   3.881 -0.3909 -0.1860  0.0230
21037SOL    HW164879   6.578   1.531   3.894 -1.4873  1.0373  0.5641
21037SOL    HW264880   6.464   1.464   3.967 -0.9921 -0.8035 -0.3044
21038SOL     OW64881   6.463   7.197   3.886  0.1099  0.3170  0.2317
21038SOL    HW164882   6.429   7.174   3.799  1.1064 -1.5403  0.2757
21038SOL    HW264883   6.455   7.292   3.890  2.4828  0.8476 -3.0133
21039SOL     OW64884   0.190   8.958   1.407  0.0216  0.1817 -0.4971
21039SOL    HW164885   0.180   8.991   1.318  0.1629  2.2950  0.2135
21039SOL    HW264886   0.238   9.027   1.454  0.8662 -1.3109  0.9801
21040SOL     OW64887   7.466   8.031   3.364  0.2200 -0.5314  0.2043
21040SOL    HW164888   7.541   7.983   3.398  0.9609  0.3269 -0.1918
21040SOL    HW264889   7.404   8.035   3.437  1.3726  0.4217  1.1692
21041SOL     OW64890   6.090   6.200   1.476  0.2680 -0.3148  0.2974
21041SOL    HW164891   6.091   6.181   1.569 -2.0433  0.5284  0.5620
21041SOL    HW264892   6.053   6.121   1.435  1.7229 -0.8699  0.0141
21042SOL     OW64893   1.580   0.881   1.650  0.1995  0.5033 -0.0611
21042SOL    HW164894   1.630   0.890   1.569 -0.1027  2.1298 -0.1124
21042SOL    HW264895   1.618   0.806   1.694  0.3597 -0.4343 -1.7193
21043SOL     OW64896   0.230   7.901   4.121 -0.5085  0.3820 -0.0437
21043SOL    HW164897   0.284   7.978   4.138 -0.5944 -0.0639  2.6630
21043SOL    HW264898   0.293   7.831   4.103 -0.1827  0.2221  1.5484
21044SOL     OW64899   0.740   5.819   6.307  0.3054 -0.3549  0.3200
21044SOL    HW164900   0.785   5.749   6.353  2.8460  0.3549 -0.8744
21044SOL    HW264901   0.735   5.890   6.370 -1.3356 -1.1933  1.1992
21045SOL     OW64902   7.265   8.165   2.912 -0.9738  0.1449 -0.0178
21045SOL    HW164903   7.352   8.156   2.952 -0.8794 -1.9682 -0.5797
21045SOL    HW264904   7.274   8.240   2.853  0.6695 -0.3942 -0.5107
21046SOL     OW64905   5.832   0.804   7.016  0.0164 -0.4248  0.4138
21046SOL    HW164906   5.812   0.862   6.942 -2.1364 -1.2448  0.2721
21046SOL    HW264907   5.926   0.815   7.031  0.0146  1.7282 -0.7501
21047SOL     OW64908   3.784   1.614   1.767 -0.7162  0.5809  0.2241
21047SOL    HW164909   3.783   1.616   1.862 -1.7952  0.8276  0.2287
21047SOL    HW264910   3.702   1.569   1.743  0.3691 -1.0738 -0.5758
21048SOL     OW64911   1.743   4.769   0.665  0.2133 -0.0137  0.5919
21048SOL    HW164912   1.778   4.687   0.699  0.7674 -0.0074  0.0510
21048SOL    HW264913   1.765   4.768   0.572 -0.1589  0.5485  0.4945
21049SOL     OW64914   1.814   2.222   0.970  0.7521 -0.1234 -0.1658
21049SOL    HW164915   1.776   2.140   1.004  0.2130 -0.3726 -1.3212
21049SOL    HW264916   1.843   2.269   1.048 -0.7306 -0.5383  0.6806
21050SOL     OW64917   1.407   1.138   7.306  0.1494 -0.1922  0.0576
21050SOL    HW164918   1.370   1.185   7.380 -1.4564 -0.2346 -0.6684
21050SOL    HW264919   1.351   1.162   7.232  1.5297 -0.3662 -1.0982
21051SOL     OW64920   6.901   3.539   1.560  0.5316  0.1697 -0.1230
21051SOL    HW164921   6.814   3.500   1.569  0.6466 -0.3781 -1.2012
21051SOL    HW264922   6.920   3.533   1.467  1.4200  0.9725 -0.0085
21052SOL     OW64923   0.813   7.636   2.066 -0.6204  0.3355  0.1773
21052SOL    HW164924   0.759   7.580   2.011  0.2894  0.1088 -0.5119
21052SOL    HW264925   0.841   7.580   2.138 -1.1653  0.4123  0.4540
21053SOL     OW64926   6.051   4.341   6.653  0.3196  0.0005 -0.2150
21053SOL    HW164927   5.961   4.371   6.662  0.9104  1.5714  0.7743
21053SOL    HW264928   6.104   4.412   6.688  1.9380 -1.0870 -0.3452
21054SOL     OW64929   5.851   0.271   4.110 -0.2713 -0.2974  0.0238
21054SOL    HW164930   5.793   0.348   4.108 -2.3846 -1.7488 -2.9799
21054SOL    HW264931   5.816   0.217   4.181 -0.9736  0.0180 -0.0701
21055SOL     OW64932   8.063   7.410   3.949  0.0198  0.3266  0.5260
21055SOL    HW164933   8.106   7.479   3.898 -0.9501  2.2358  2.1321
21055SOL    HW264934   8.136   7.365   3.993  0.8550 -1.2924 -2.3191
21056SOL     OW64935   4.980   7.880   9.564 -0.4931  0.1942 -0.1067
21056SOL    HW164936   4.992   7.790   9.593  2.0659  0.4589 -0.0519
21056SOL    HW264937   5.036   7.931   9.622  0.3741  1.4295 -1.9094
21057SOL     OW64938   8.047   1.258   2.763 -0.2278  0.0588 -0.3459
21057SOL    HW164939   8.129   1.258   2.813 -0.9881 -1.3263  1.0002
21057SOL    HW264940   8.008   1.343   2.783  0.9651  0.8475 -1.2109
21058SOL     OW64941   5.208   1.124   0.835  0.2446  0.4816  0.4878
21058SOL    HW164942   5.286   1.176   0.816  0.8263 -0.0806  1.2645
21058SOL    HW264943   5.219   1.096   0.926 -0.7499  0.1885  0.5347
21059SOL     OW64944   5.868   8.415   4.222  0.3672 -0.3240  0.2659
21059SOL    HW164945   5.890   8.402   4.130  0.5564  0.5209  0.1813
21059SOL    HW264946   5.948   8.450   4.261  0.3971 -1.0032  0.8333
21060SOL     OW64947   7.906   7.156   5.842 -0.0124  0.3000 -0.3412
21060SOL    HW164948   7.957   7.196   5.772  0.4436 -0.3206 -0.3712
21060SOL    HW264949   7.871   7.230   5.892  0.9004  0.7350 -0.3312
21061SOL     OW64950   8.875   3.494   7.266 -0.2518 -0.1477  0.7235
21061SOL    HW164951   8.810   3.425   7.279  0.3695 -0.8749  0.0236
21061SOL    HW264952   8.878   3.506   7.172 -0.3488  0.8495  0.8350
21062SOL     OW64953   5.609   4.760   7.829  0.2826 -0.0112 -0.2413
21062SOL    HW164954   5.585   4.852   7.826 -1.9488 -0.5564 -1.3759
21062SOL    HW264955   5.603   4.731   7.738  0.0243 -1.4829  0.2176
21063SOL     OW64956   1.583   7.973   5.869  0.3116  0.6132  0.1008
21063SOL    HW164957   1.552   8.064   5.879  1.9373  1.4725 -1.9297
21063SOL    HW264958   1.510   7.920   5.901 -1.5120  2.6003 -0.4507
21064SOL     OW64959   5.724   8.294   1.636 -0.1989  0.2052  0.8979
21064SOL    HW164960   5.722   8.199   1.647  0.3648  0.1162  0.2601
21064SOL    HW264961   5.758   8.327   1.719 -0.6446 -0.1275  1.2190
21065SOL     OW64962   2.954   9.200   1.010 -0.7444  0.3596  0.0516
21065SOL    HW164963   2.997   9.183   0.926  0.9392  0.7026  0.8145
21065SOL    HW264964   2.994   9.281   1.042  0.3711 -0.9651  2.2438
21066SOL     OW64965   5.549   7.528   6.701 -0.6179  0.2841  0.4744
21066SOL    HW164966   5.527   7.472   6.627 -0.9620  0.8618  0.1351
21066SOL    HW264967   5.577   7.468   6.769  1.0916 -0.2019 -0.5799
21067SOL     OW64968   8.940   5.961   9.756 -0.0624  0.1117 -0.5275
21067SOL    HW164969   9.007   5.903   9.793  0.2524  0.2089 -0.9456
21067SOL    HW264970   8.980   6.048   9.756 -1.0687  0.6386  1.5077
21068SOL     OW64971   8.012   5.870   8.698 -0.1119 -0.2901 -0.3474
21068SOL    HW164972   7.920   5.888   8.679  0.1260  0.9330 -0.4124
21068SOL    HW264973   8.051   5.956   8.714  0.7287 -0.8890  1.0442
21069SOL     OW64974   7.007   6.480   1.094 -1.0964 -0.2087  0.4500
21069SOL    HW164975   7.012   6.454   1.002  0.9952 -0.9439  0.6979
21069SOL    HW264976   7.084   6.438   1.134 -1.6289  0.5827  2.4009
21070SOL     OW64977   5.724   8.189   9.787  0.3089  0.3523 -0.2497
21070SOL    HW164978   5.811   8.158   9.760  0.5083  0.1220  0.6134
21070SOL    HW264979   5.664   8.151   9.723  0.4705 -2.3545  1.0437
21071SOL     OW64980   7.045   5.841   4.972 -0.0996 -0.1854 -0.1358
21071SOL    HW164981   7.030   5.850   4.878  0.1538  0.8299 -0.0972
21071SOL    HW264982   7.023   5.750   4.992  2.0181 -1.1129 -1.5907
21072SOL     OW64983   5.835   5.032   5.629  0.3714 -0.3637  0.0017
21072SOL    HW164984   5.881   5.057   5.709  0.0982 -0.7894  0.2954
21072SOL    HW264985   5.888   5.070   5.558  0.2785  0.5435  0.4033
21073SOL     OW64986   6.621   8.931   9.589  0.0269 -0.8637  0.1747
21073SOL    HW164987   6.667   8.974   9.661  1.6962 -0.9686 -0.7819
21073SOL    HW264988   6.667   8.961   9.510 -1.8808 -0.5817 -0.8960
21074SOL     OW64989   2.327   9.037   5.474  0.1183  0.3700 -0.8816
21074SOL    HW164990   2.235   9.041   5.500  0.2111  2.8192 -0.6851
21074SOL    HW264991   2.350   8.945   5.482 -2.3378 -0.3319 -1.0667
21075SOL     OW64992   2.137   6.393   2.171 -0.4329 -0.3673 -0.0984
21075SOL    HW164993   2.158   6.409   2.079 -1.6430 -1.2842 -0.5558
21075SOL    HW264994   2.044   6.373   2.171 -0.4064 -0.5643  1.3141
21076SOL     OW64995   6.503   6.720   1.347  0.1016 -0.1375 -0.1469
21076SOL    HW164996   6.534   6.784   1.410  0.5694  1.0180 -1.4959
21076SOL    HW264997   6.551   6.640   1.367 -0.5580 -0.1284  1.6216
21077SOL     OW64998   9.575   6.241   9.788  0.7058 -0.2833 -0.4566
21077SOL    HW164999   9.599   6.150   9.806  0.5277 -0.3475 -0.5371
21077SOL    HW265000   9.573   6.282   9.874  1.3458 -0.2132 -0.4729
21078SOL     OW65001   5.017   3.476   2.422 -0.3564  0.5582  0.1098
21078SOL    HW165002   4.973   3.397   2.389  2.4022 -1.2797  0.4707
21078SOL    HW265003   4.984   3.546   2.366 -1.7688 -1.0886 -1.2737
21079SOL     OW65004   9.756   9.167   1.852  0.5258  0.1924  0.3061
21079SOL    HW165005   9.670   9.195   1.819  1.3886  0.1082 -2.2733
21079SOL    HW265006   9.794   9.247   1.889 -0.0347  0.6217 -0.0132
21080SOL     OW65007   4.615   3.715   4.006 -0.3561  0.4241  0.0946
21080SOL    HW165008   4.579   3.783   3.949  1.7806  1.3231 -0.2867
21080SOL    HW265009   4.603   3.634   3.957 -3.1154  0.3896  0.6328
21081SOL     OW65010   7.212   2.357   5.977 -0.5112 -0.2609 -0.0991
21081SOL    HW165011   7.283   2.317   6.026  0.0802  0.3090 -0.4654
21081SOL    HW265012   7.169   2.284   5.932 -1.4340 -0.8683  1.6813
21082SOL     OW65013   4.324   7.058   9.338 -0.7558 -0.3053  0.2508
21082SOL    HW165014   4.303   6.989   9.402 -1.4520 -1.0914 -0.8072
21082SOL    HW265015   4.396   7.021   9.287 -0.6573  0.0464  0.1339
21083SOL     OW65016   4.981   7.212   9.109  0.0451 -0.2269  0.2077
21083SOL    HW165017   4.930   7.202   9.190 -0.7821 -0.6786 -0.3461
21083SOL    HW265018   4.994   7.306   9.100 -1.4181 -0.0182 -0.0454
21084SOL     OW65019   4.161   0.804   9.492  0.3092  0.6639 -0.0700
21084SOL    HW165020   4.100   0.730   9.484  2.4333 -1.2770  0.6449
21084SOL    HW265021   4.173   0.835   9.402  0.7865 -1.1044 -0.6470
21085SOL     OW65022   4.237   6.769   7.537  0.2849  0.1168  0.0934
21085SOL    HW165023   4.159   6.819   7.513 -0.4620 -0.6049  0.9823
21085SOL    HW265024   4.277   6.745   7.453 -1.7559 -1.5458 -0.4741
21086SOL     OW65025   0.505   9.847   8.562 -0.0585  0.6476  0.0870
21086SOL    HW165026   0.542   9.908   8.626  0.7615  1.0007 -0.7071
21086SOL    HW265027   0.437   9.799   8.611  1.3433  0.0763  1.5507
21087SOL     OW65028   8.300   6.400   5.687 -0.1204 -0.0960 -0.6720
21087SOL    HW165029   8.206   6.405   5.705  0.1622  1.0464  0.5929
21087SOL    HW265030   8.335   6.344   5.756  0.0081 -1.4715 -1.7926
21088SOL     OW65031   1.127   7.280   3.126 -0.7502  0.6092 -0.3623
21088SOL    HW165032   1.156   7.360   3.170  0.7471 -0.0469 -0.1048
21088SOL    HW265033   1.166   7.209   3.176 -0.8405 -0.2344 -1.4411
21089SOL     OW65034   1.062   0.883   7.865  0.1308  0.0660 -0.4687
21089SOL    HW165035   1.074   0.796   7.902  0.7007  0.2724 -0.1554
21089SOL    HW265036   1.125   0.888   7.793  1.0408  0.6751  0.3401
21090SOL     OW65037   9.672   3.894   6.120 -0.6160 -0.8986 -0.3514
21090SOL    HW165038   9.749   3.886   6.063  0.0563 -1.4345  0.6038
21090SOL    HW265039   9.607   3.938   6.065  0.9724  1.3364 -0.6160
21091SOL     OW65040   0.584   3.361   6.219  0.1647 -0.3549 -0.1121
21091SOL    HW165041   0.489   3.350   6.231  0.1581 -0.1372  0.0466
21091SOL    HW265042   0.593   3.389   6.127  0.0685 -0.3069 -0.1075
21092SOL     OW65043   6.553   0.149   3.147  0.4831 -0.4407 -0.3654
21092SOL    HW165044   6.615   0.076   3.139  1.9684  0.3995  2.2126
21092SOL    HW265045   6.503   0.128   3.226  0.4203  0.9368 -0.0210
21093SOL     OW65046   4.790   8.115   8.961 -0.1274 -0.2158 -0.0955
21093SOL    HW165047   4.732   8.161   9.022 -0.0355 -1.0753  0.6622
21093SOL    HW265048   4.833   8.185   8.912 -0.6666  0.4740  0.3857
21094SOL     OW65049   9.654   5.413   0.425  0.5375 -0.2680  0.1086
21094SOL    HW165050   9.730   5.452   0.381 -0.1386  0.5522 -0.3515
21094SOL    HW265051   9.625   5.344   0.366 -1.1610  1.6621 -1.4568
21095SOL     OW65052   1.594   5.665   8.108  0.0847 -0.0815 -0.0301
21095SOL    HW165053   1.503   5.692   8.114  0.0770  0.1882 -1.2098
21095SOL    HW265054   1.619   5.646   8.199 -1.2504 -0.5461  0.2631
21096SOL     OW65055   1.074   2.568   9.334 -0.2149 -0.4800  0.3370
21096SOL    HW165056   1.068   2.584   9.240  0.6765 -0.6276  0.2527
21096SOL    HW265057   1.005   2.623   9.372  1.0970  1.5919 -0.1635
21097SOL     OW65058   1.397   8.745   4.949  0.0440  0.1640 -0.2142
21097SOL    HW165059   1.363   8.820   4.998  0.8590  0.4564 -0.0801
21097SOL    HW265060   1.455   8.783   4.883 -2.2464 -0.1068 -2.4936
21098SOL     OW65061   8.813   0.487   3.723 -0.1321 -0.0132 -0.1915
21098SOL    HW165062   8.883   0.541   3.761  0.6686  0.6315 -2.4606
21098SOL    HW265063   8.855   0.403   3.707 -0.0788  0.1355 -0.8493
21099SOL     OW65064   7.948   1.548   5.276 -0.6091  0.2992  0.8389
21099SOL    HW165065   7.994   1.469   5.306  2.6232  1.3129 -1.0120
21099SOL    HW265066   7.974   1.615   5.339 -0.7567  0.5658  0.6111
21100SOL     OW65067   5.717   0.867   5.078  0.5082  0.1045 -0.5852
21100SOL    HW165068   5.771   0.945   5.073  2.9415 -1.5507 -3.2137
21100SOL    HW265069   5.768   0.805   5.130 -0.1742 -0.5716 -0.6939
21101SOL     OW65070   9.489   8.558   5.179  0.7782  0.0137  0.3591
21101SOL    HW165071   9.551   8.539   5.250  0.7805 -0.5993  0.1978
21101SOL    HW265072   9.487   8.654   5.174  2.6907  0.0548 -0.4793
21102SOL     OW65073   2.878   1.864   0.338  0.2953 -0.4365 -0.3062
21102SOL    HW165074   2.883   1.885   0.245  0.7767  0.5090 -0.0870
21102SOL    HW265075   2.927   1.934   0.381 -1.2822  0.0784  0.7789
21103SOL     OW65076   8.571   1.941   9.152 -0.1529  0.0160  0.1622
21103SOL    HW165077   8.563   2.036   9.143 -1.0418 -0.2099 -2.0648
21103SOL    HW265078   8.501   1.918   9.213 -1.0754  0.6381 -0.6233
21104SOL     OW65079   5.861   1.583   1.598 -0.5735  0.1521  0.1505
21104SOL    HW165080   5.795   1.653   1.607 -1.3648 -0.4787 -0.6152
21104SOL    HW265081   5.837   1.538   1.518 -0.3885 -1.3342  0.9036
21105SOL     OW65082   5.038   0.128   3.747 -0.2568 -0.3287  0.4562
21105SOL    HW165083   4.972   0.197   3.745  1.4583  1.4154  1.3618
21105SOL    HW265084   5.033   0.088   3.660 -0.0834  2.1642 -0.7840
21106SOL     OW65085   8.587   2.849   6.120  1.0594 -0.4137 -0.0040
21106SOL    HW165086   8.599   2.898   6.201 -0.6509  1.2512 -0.6609
21106SOL    HW265087   8.515   2.789   6.139 -0.5721  1.2096 -0.6942
21107SOL     OW65088   1.381   2.031   1.655 -0.5498  0.0500  0.2461
21107SOL    HW165089   1.460   2.071   1.693 -0.9603 -0.4801  1.7344
21107SOL    HW265090   1.411   1.948   1.620  0.0042  0.9226 -1.4362
21108SOL     OW65091   9.154   2.348   8.731 -0.2890 -0.8828  0.2061
21108SOL    HW165092   9.157   2.441   8.755 -1.1618 -0.3815 -1.5027
21108SOL    HW265093   9.161   2.347   8.636  1.5837 -2.7046  0.2834
21109SOL     OW65094   8.588   3.668   5.135 -0.4563  0.0930 -0.8885
21109SOL    HW165095   8.609   3.615   5.058  0.3680 -1.4581  0.3582
21109SOL    HW265096   8.606   3.758   5.107 -1.1074 -0.3238 -2.7982
21110SOL     OW65097   5.356   4.145   5.207  0.6458  0.7981  0.2362
21110SOL    HW165098   5.356   4.209   5.277  1.5292  0.0436  0.9599
21110SOL    HW265099   5.434   4.166   5.155  0.0836  1.2546 -0.4398
21111SOL     OW65100   9.351   6.170   9.640 -0.1773  0.0543  0.5065
21111SOL    HW165101   9.429   6.186   9.693  0.0325 -0.3538  0.3290
21111SOL    HW265102   9.281   6.216   9.686 -0.4834 -2.1521  2.4466
21112SOL     OW65103   0.378   0.346   1.205 -0.3429  0.5936  0.2288
21112SOL    HW165104   0.428   0.387   1.276  0.6034 -0.3889  0.1625
21112SOL    HW265105   0.370   0.254   1.232 -1.0569  0.4745 -0.3556
21113SOL     OW65106   7.662   9.164   5.402 -0.2534  0.3737  0.3968
21113SOL    HW165107   7.668   9.193   5.493 -0.3506  0.8684  0.2491
21113SOL    HW265108   7.753   9.148   5.376 -0.3287 -1.4396  1.0970
21114SOL     OW65109   2.285   2.335   5.957  0.2476  0.5705  0.8270
21114SOL    HW165110   2.361   2.375   5.915  0.0454  0.8248  0.7046
21114SOL    HW265111   2.242   2.407   6.004 -0.6795  0.7216 -0.2086
21115SOL     OW65112   7.197   9.840   0.511 -0.6754 -0.3231  0.5493
21115SOL    HW165113   7.175   9.748   0.526  0.2473 -0.2693  2.6138
21115SOL    HW265114   7.113   9.885   0.505 -1.1733 -1.3897 -1.6244
21116SOL     OW65115   5.871   2.529   4.978 -0.4375  0.1871  0.4929
21116SOL    HW165116   5.951   2.574   4.950  0.0284 -1.0423 -0.2430
21116SOL    HW265117   5.800   2.574   4.933 -0.1267  1.0012  0.7981
21117SOL     OW65118   8.328   1.656   9.147  0.0262 -0.2689  0.2228
21117SOL    HW165119   8.244   1.621   9.117  0.6533 -0.7448 -1.0613
21117SOL    HW265120   8.383   1.656   9.068  1.0971  0.4384  0.9493
21118SOL     OW65121   0.080   1.819   0.227  0.2083  0.4032  0.2566
21118SOL    HW165122   0.038   1.897   0.191 -0.4090  0.1716  0.4729
21118SOL    HW265123   0.134   1.852   0.299 -1.5992  0.4174  1.6569
21119SOL     OW65124   8.289   2.455   6.460 -0.4884  0.2035  0.3214
21119SOL    HW165125   8.235   2.532   6.443  0.0272  0.8260  1.4378
21119SOL    HW265126   8.342   2.446   6.380 -0.8468  0.7516  0.0112
21120SOL     OW65127   3.299   1.386   1.814 -0.5452  0.2321 -0.0763
21120SOL    HW165128   3.350   1.331   1.875 -1.8314  0.2509  1.0771
21120SOL    HW265129   3.260   1.323   1.754 -0.9188 -0.0043  0.4014
21121SOL     OW65130   3.109   1.240   2.545 -0.4129  0.8253 -0.2269
21121SOL    HW165131   3.103   1.327   2.504 -0.7086  0.4809 -0.9458
21121SOL    HW265132   3.154   1.186   2.479  1.0819  0.7672  0.7984
21122SOL     OW65133   4.360   1.416   2.769 -0.2582 -0.0462  0.5939
21122SOL    HW165134   4.272   1.378   2.777 -0.7636  1.0296  0.3862
21122SOL    HW265135   4.417   1.341   2.755 -1.2035 -0.7414  0.3153
21123SOL     OW65136   8.262   6.987   9.314 -0.5801  0.8448  0.9243
21123SOL    HW165137   8.311   7.010   9.235  0.8830  1.6347  2.0123
21123SOL    HW265138   8.175   6.963   9.282  0.5697 -1.0345 -1.1606
21124SOL     OW65139   2.686   0.407   3.165  0.0559 -0.4154  0.2315
21124SOL    HW165140   2.629   0.407   3.088  0.5522  1.1570 -0.1758
21124SOL    HW265141   2.699   0.314   3.185 -1.7171 -0.8242 -0.3382
21125SOL     OW65142   0.239   2.819   2.768 -0.2472 -0.1919 -0.0015
21125SOL    HW165143   0.287   2.784   2.693 -1.0128 -0.0904 -0.5470
21125SOL    HW265144   0.272   2.768   2.843  0.4570 -0.3516 -0.4093
21126SOL     OW65145   1.853   1.620   8.728 -0.3549 -0.6676  0.5544
21126SOL    HW165146   1.902   1.547   8.691  0.2664  0.3871 -0.7623
21126SOL    HW265147   1.794   1.647   8.658  0.4873  1.0521  0.4599
21127SOL     OW65148   1.022   2.944   7.647 -0.2492 -0.0773 -0.1930
21127SOL    HW165149   1.068   2.925   7.729  1.2514  1.0026 -0.7379
21127SOL    HW265150   1.088   2.926   7.579 -1.0792  0.2205 -1.0907
21128SOL     OW65151   6.440   0.918   1.090  0.0056  0.0595  0.1983
21128SOL    HW165152   6.378   0.853   1.122 -3.3180  1.5610 -2.5049
21128SOL    HW265153   6.412   1.000   1.130 -0.4699  0.9210 -1.7808
21129SOL     OW65154   0.310   9.197   3.104  0.1378 -0.3938 -0.4039
21129SOL    HW165155   0.364   9.256   3.052 -0.3070 -0.9019 -1.4693
21129SOL    HW265156   0.221   9.212   3.072 -0.0154 -1.4150 -0.4755
21130SOL     OW65157   9.271   2.590   1.372 -0.0340 -0.3923 -0.5997
21130SOL    HW165158   9.300   2.678   1.348 -0.4881 -0.0041  0.2241
21130SOL    HW265159   9.250   2.548   1.289  2.0006 -0.3994 -1.1750
21131SOL     OW65160   1.589   3.224   6.180 -0.5040  0.0722 -0.3755
21131SOL    HW165161   1.521   3.210   6.245 -0.9475 -2.4549 -1.2881
21131SOL    HW265162   1.542   3.237   6.097  0.0220 -2.2248 -1.1091
21132SOL     OW65163   6.401   3.664   3.824  0.0091 -0.3229  0.4117
21132SOL    HW165164   6.413   3.644   3.917  1.8808  1.8346  0.7367
21132SOL    HW265165   6.306   3.671   3.813 -0.2918 -1.3064  1.9657
21133SOL     OW65166   1.765   5.171   6.725  0.3275  0.3219 -0.0606
21133SOL    HW165167   1.714   5.225   6.665 -1.2513 -1.0394  0.0142
21133SOL    HW265168   1.718   5.176   6.808  1.2178  0.3356  0.4548
21134SOL     OW65169   3.925   3.938   9.296 -0.2740 -0.0228  0.1329
21134SOL    HW165170   3.866   3.873   9.334  0.0819  0.7113  2.0255
21134SOL    HW265171   3.943   4.000   9.367  2.4555  0.0127 -0.4706
21135SOL     OW65172   3.088   8.438   1.322  0.1219  0.6025 -0.2023
21135SOL    HW165173   3.034   8.511   1.351 -1.3881 -0.7881  0.6907
21135SOL    HW265174   3.064   8.366   1.380  2.4808 -0.2921 -0.2239
21136SOL     OW65175   4.292   5.454   8.056 -0.1276 -0.2273  0.4612
21136SOL    HW165176   4.297   5.519   7.986  0.5866 -0.9101 -0.1365
21136SOL    HW265177   4.199   5.433   8.063 -0.4477  1.2761  1.0693
21137SOL     OW65178   6.437   6.373   5.366 -0.6153 -0.0262  0.0938
21137SOL    HW165179   6.389   6.383   5.449 -1.9716 -0.4107 -0.6059
21137SOL    HW265180   6.453   6.463   5.337 -0.8079  0.1123  0.4063
21138SOL     OW65181   9.746   2.923   6.129 -0.2209 -0.1785  0.1677
21138SOL    HW165182   9.706   3.006   6.102 -0.5982 -0.3269  0.2606
21138SOL    HW265183   9.675   2.859   6.122  1.0976 -1.5345 -4.5168
21139SOL     OW65184   5.051   7.157   9.684 -0.4802 -1.0073  0.1847
21139SOL    HW165185   5.040   7.170   9.778  1.2911 -0.6259  0.3825
21139SOL    HW265186   5.025   7.066   9.668  0.6219 -1.5403  1.3159
21140SOL     OW65187   6.732   1.174   1.957 -0.1628 -0.1643  0.3560
21140SOL    HW165188   6.824   1.156   1.975  0.1930  1.8924  0.9016
21140SOL    HW265189   6.733   1.224   1.875 -0.7616  0.0619  0.4776
21141SOL     OW65190   3.584   6.267   2.080  0.0958  0.0859  0.1230
21141SOL    HW165191   3.525   6.284   2.154 -1.0635  0.9567 -0.9663
21141SOL    HW265192   3.629   6.186   2.104 -2.5920 -1.4564  0.3797
21142SOL     OW65193   5.830   6.994   9.584 -0.2798  0.1109 -0.0647
21142SOL    HW165194   5.777   6.927   9.540 -0.2170  0.3766 -0.5557
21142SOL    HW265195   5.767   7.047   9.633 -0.2088 -1.0496  1.3521
21143SOL     OW65196   5.058   1.958   3.720  0.1746 -0.2135  0.4554
21143SOL    HW165197   4.968   1.959   3.687 -0.0480  0.4023  1.0708
21143SOL    HW265198   5.070   2.044   3.759  0.7840 -0.5573  1.0413
21144SOL     OW65199   9.557   3.321   7.166 -0.2659  0.1521  0.1598
21144SOL    HW165200   9.516   3.390   7.115 -2.4216  0.0734  1.6635
21144SOL    HW265201   9.623   3.366   7.219  0.4813  0.5410 -1.0451
21145SOL     OW65202   9.692   4.836   9.612 -0.3307  0.5517 -0.0427
21145SOL    HW165203   9.731   4.902   9.669  0.5289 -0.2058  0.2580
21145SOL    HW265204   9.658   4.769   9.671  1.1888 -0.5894 -0.3923
21146SOL     OW65205   5.469   4.089   2.480 -0.1798  0.3123  0.6887
21146SOL    HW165206   5.393   4.137   2.512 -0.4040  0.6332 -0.2706
21146SOL    HW265207   5.460   4.001   2.516 -1.7967 -0.0819 -0.5353
21147SOL     OW65208   4.525   6.567   2.690 -0.1477 -0.0352  0.0407
21147SOL    HW165209   4.572   6.572   2.607  0.0811 -0.3811  0.1447
21147SOL    HW265210   4.514   6.473   2.706  0.2623  0.0127  0.6491
21148SOL     OW65211   2.839   6.022   7.950 -0.3932 -0.5711 -0.2906
21148SOL    HW165212   2.780   5.982   8.014 -1.3968  2.7652  1.1021
21148SOL    HW265213   2.917   6.045   8.000 -0.1547 -0.1707 -0.8314
21149SOL     OW65214   8.083   0.798   4.904  0.1883  0.2551  0.0958
21149SOL    HW165215   8.103   0.803   4.998  0.8316  0.8764 -0.0697
21149SOL    HW265216   8.011   0.860   4.892  0.8998  1.0597 -0.0298
21150SOL     OW65217   1.707   2.270   4.259 -0.0786 -0.3407  0.2359
21150SOL    HW165218   1.656   2.332   4.310  0.3247  0.5168 -0.3744
21150SOL    HW265219   1.669   2.185   4.279 -0.8414  0.1342  0.8522
21151SOL     OW65220   0.224   4.620   4.416 -0.4127 -0.0634 -0.5228
21151SOL    HW165221   0.217   4.704   4.371 -0.1730 -0.4555 -1.3059
21151SOL    HW265222   0.299   4.630   4.474 -0.8935  0.5395  0.0105
21152SOL     OW65223   1.735   6.619   5.670  0.1531 -0.4349  0.1421
21152SOL    HW165224   1.659   6.622   5.729  1.0529  1.9764  1.3187
21152SOL    HW265225   1.697   6.612   5.583 -1.4312  0.2634  0.7274
21153SOL     OW65226   7.253   7.929   4.544 -1.2024  0.3217 -0.2998
21153SOL    HW165227   7.182   7.905   4.603  0.5984 -1.0010  1.4715
21153SOL    HW265228   7.247   7.866   4.472 -0.6537 -1.1585  0.8865
21154SOL     OW65229   3.698   1.672   2.446  0.4482 -1.0963  0.2317
21154SOL    HW165230   3.606   1.699   2.447  1.3795  2.6126  2.1194
21154SOL    HW265231   3.715   1.643   2.535  1.2960 -1.0755  0.0803
21155SOL     OW65232   0.451   6.113   5.926  0.2635  0.3096  0.0311
21155SOL    HW165233   0.473   6.021   5.938 -0.9376 -0.2429 -1.6840
21155SOL    HW265234   0.357   6.119   5.943  0.1297  1.0011 -0.8329
21156SOL     OW65235   7.541   5.589   7.184  0.3554 -0.3242  0.2188
21156SOL    HW165236   7.620   5.609   7.134  0.3500 -1.1590 -0.1538
21156SOL    HW265237   7.536   5.493   7.184 -1.7205 -0.3058 -1.5058
21157SOL     OW65238   2.650   6.758   6.878 -0.4300 -0.3384  0.0935
21157SOL    HW165239   2.649   6.681   6.936  0.0420  1.1897  2.2624
21157SOL    HW265240   2.725   6.743   6.821 -0.1310 -1.3313  0.7085
21158SOL     OW65241   4.747   8.526   8.208  0.0503  0.4470  0.2040
21158SOL    HW165242   4.721   8.617   8.198 -0.5033  0.1789 -0.8669
21158SOL    HW265243   4.760   8.494   8.119 -0.4076 -0.7048  0.5262
21159SOL     OW65244   2.141   4.969   1.657 -0.1447 -0.7505 -0.5565
21159SOL    HW165245   2.184   4.886   1.636 -0.5121 -0.7851 -1.1883
21159SOL    HW265246   2.057   4.965   1.611  0.4069  0.5452 -1.7621
21160SOL     OW65247   1.212   5.300   8.987 -0.2814  0.2156  0.0246
21160SOL    HW165248   1.164   5.254   9.056 -2.8060 -0.8522 -2.2788
21160SOL    HW265249   1.145   5.325   8.923  1.8371  1.6993 -1.7800
21161SOL     OW65250   0.774   1.544   3.113 -0.3436 -0.2571 -0.2646
21161SOL    HW165251   0.730   1.488   3.049 -0.2180 -0.4443 -0.1868
21161SOL    HW265252   0.867   1.538   3.091 -0.3931  0.4924 -0.7100
21162SOL     OW65253   2.247   5.957   7.689 -0.0194 -0.2308 -0.8588
21162SOL    HW165254   2.334   5.965   7.650 -0.4162  1.0956 -1.5048
21162SOL    HW265255   2.253   6.002   7.773 -0.3302  0.7389 -1.3418
21163SOL     OW65256   5.563   1.676   7.560  0.5774 -0.2616  0.2160
21163SOL    HW165257   5.587   1.584   7.543 -0.5271 -0.4127 -0.6521
21163SOL    HW265258   5.481   1.671   7.608 -1.2731  0.2139 -2.6123
21164SOL     OW65259   8.659   7.515   9.263  0.5602 -0.4884 -0.6744
21164SOL    HW165260   8.625   7.487   9.178 -0.2343  0.6697 -0.7594
21164SOL    HW265261   8.616   7.600   9.279  0.7415 -0.6667  0.8520
21165SOL     OW65262   0.858   5.354   8.261 -0.1114  0.2757  0.5248
21165SOL    HW165263   0.766   5.334   8.249  0.1355 -0.0614 -0.9540
21165SOL    HW265264   0.867   5.446   8.235 -0.1325  0.5207  1.3351
21166SOL     OW65265   1.182   4.398   2.589  0.2013  0.3345  0.0703
21166SOL    HW165266   1.090   4.375   2.602 -0.1962  1.9839  0.3093
21166SOL    HW265267   1.197   4.473   2.646  0.8371  2.0605 -2.2211
21167SOL     OW65268   0.404   5.434   2.903  0.5250 -0.1722 -0.1433
21167SOL    HW165269   0.357   5.477   2.974  0.3641 -0.2659 -0.1904
21167SOL    HW265270   0.339   5.374   2.866  0.7203 -0.3950 -0.1277
21168SOL     OW65271   9.223   6.608   8.176  0.2296  0.4554  0.4494
21168SOL    HW165272   9.151   6.630   8.236  1.0677  1.3169  1.1718
21168SOL    HW265273   9.250   6.692   8.140 -0.3653 -0.0667 -1.2975
21169SOL     OW65274   7.570   5.233   7.642 -0.0522 -0.1405  1.0569
21169SOL    HW165275   7.519   5.300   7.688 -0.4372 -0.3838  0.9886
21169SOL    HW265276   7.614   5.184   7.711  1.3291  1.0268  1.0660
21170SOL     OW65277   1.828   9.386   4.777  0.1140  0.2576  0.1306
21170SOL    HW165278   1.822   9.344   4.863  0.2671 -1.9576 -0.8689
21170SOL    HW265279   1.841   9.314   4.716  3.1574  1.9306 -1.4793
21171SOL     OW65280   7.381   1.649   4.444 -0.0179 -0.3491 -1.0979
21171SOL    HW165281   7.372   1.556   4.465  0.8370 -0.5159 -1.4502
21171SOL    HW265282   7.438   1.651   4.367  0.0858  0.4778 -1.0044
21172SOL     OW65283   7.793   1.557   1.362 -0.5304  0.5913  0.0552
21172SOL    HW165284   7.794   1.554   1.457 -0.2576 -0.0401  0.0338
21172SOL    HW265285   7.816   1.648   1.340 -0.0891  0.6059  0.5774
21173SOL     OW65286   3.092   1.691   8.356 -0.3965 -0.0633  0.7986
21173SOL    HW165287   3.170   1.653   8.316  0.2699  0.5453  1.4905
21173SOL    HW265288   3.095   1.783   8.330 -1.2951 -0.1923  0.2117
21174SOL     OW65289   8.350   9.579   2.943  0.0587  0.3088 -0.5116
21174SOL    HW165290   8.416   9.645   2.922  0.9508 -0.8920 -1.6076
21174SOL    HW265291   8.365   9.558   3.035  1.1799  0.0762 -0.7422
21175SOL     OW65292   5.926   7.798   4.249 -0.1326 -0.0406  0.2270
21175SOL    HW165293   5.951   7.711   4.217  1.4027  0.1171  0.8787
21175SOL    HW265294   5.903   7.785   4.341 -0.3415  0.1601  0.2026
21176SOL     OW65295   7.313   4.472   8.773 -0.2470 -0.2243 -0.2956
21176SOL    HW165296   7.235   4.464   8.718 -0.4556 -1.7800  0.1794
21176SOL    HW265297   7.376   4.411   8.733  0.7055  0.9020 -0.5879
21177SOL     OW65298   4.541   8.201   0.470 -0.4973 -0.5628 -0.0339
21177SOL    HW165299   4.606   8.178   0.536  1.2723 -1.9086 -2.1281
21177SOL    HW265300   4.478   8.257   0.517  1.6853  0.1330  2.2772
21178SOL     OW65301   7.021   4.707   3.966  0.5351  0.0726 -0.1763
21178SOL    HW165302   7.077   4.771   3.922  0.8447  0.2833  0.5193
21178SOL    HW265303   6.949   4.693   3.904  0.9849  0.3246 -0.7736
21179SOL     OW65304   8.003   7.018   7.103  0.1161  0.4443  0.6383
21179SOL    HW165305   8.088   6.992   7.139  0.0351  2.1634  2.2048
21179SOL    HW265306   7.984   7.102   7.144 -3.4897 -0.9847  2.3406
21180SOL     OW65307   7.637   1.722   3.389  0.1368 -0.0377  0.1630
21180SOL    HW165308   7.667   1.688   3.305  0.9560  0.3818  0.2800
21180SOL    HW265309   7.700   1.790   3.412 -0.2830  0.1020  0.9478
21181SOL     OW65310   8.929   0.500   6.582  0.1090 -0.6181 -0.3768
21181SOL    HW165311   9.013   0.531   6.617  0.5114 -0.9994 -0.9969
21181SOL    HW265312   8.944   0.486   6.489 -0.6522 -0.6708 -0.5026
21182SOL     OW65313   6.863   6.801   7.242 -0.2152 -0.6793  0.6563
21182SOL    HW165314   6.788   6.842   7.285  0.4303 -0.3483  1.5189
21182SOL    HW265315   6.896   6.739   7.307  0.4963 -0.5180  0.4563
21183SOL     OW65316   6.004   7.369   8.654  0.1027 -0.5116  0.3596
21183SOL    HW165317   6.003   7.455   8.695  1.2287 -0.7611  0.9578
21183SOL    HW265318   6.080   7.370   8.596 -0.2688 -0.8772 -0.1444
21184SOL     OW65319   5.062   0.762   9.019 -0.1775  0.2700  0.1892
21184SOL    HW165320   4.984   0.740   9.070 -0.1751  3.2032  1.6817
21184SOL    HW265321   5.027   0.807   8.941 -0.0317 -0.9215 -0.5895
21185SOL     OW65322   3.490   2.610   7.591  0.2858  0.2301 -0.4401
21185SOL    HW165323   3.565   2.637   7.538 -1.2468  2.4116 -1.6365
21185SOL    HW265324   3.529   2.581   7.674  2.5350 -0.4839 -1.6586
21186SOL     OW65325   4.982   4.699   6.009  0.1703  0.1067  0.7201
21186SOL    HW165326   4.943   4.652   5.935  0.6807 -0.3542  0.7444
21186SOL    HW265327   4.945   4.787   6.003 -1.4737 -0.5076  1.1762
21187SOL     OW65328   1.782   6.764   7.689  0.4173 -0.1630 -0.1427
21187SOL    HW165329   1.868   6.723   7.701  0.9175  0.8843 -0.0630
21187SOL    HW265330   1.723   6.709   7.740  1.6776  1.3401  3.2407
21188SOL     OW65331   0.577   3.831   4.791 -0.1174 -0.3841 -0.4700
21188SOL    HW165332   0.579   3.866   4.880 -2.6162  0.1074 -0.5318
21188SOL    HW265333   0.570   3.736   4.803 -2.1025 -0.2392 -0.0164
21189SOL     OW65334   7.410   0.471   7.580  0.8275 -0.3689 -0.1559
21189SOL    HW165335   7.374   0.417   7.510 -0.1532  1.5777 -1.2164
21189SOL    HW265336   7.480   0.522   7.538  0.2267  0.8222  0.2581
21190SOL     OW65337   6.271   5.879   7.135 -0.2137  0.1078 -0.1285
21190SOL    HW165338   6.300   5.804   7.186  1.2095  1.2912  0.8872
21190SOL    HW265339   6.334   5.886   7.063 -0.4671  0.1990 -0.3444
21191SOL     OW65340   1.662   5.014   1.146  0.0280  0.2834 -0.0788
21191SOL    HW165341   1.595   5.018   1.215 -0.8279 -1.2744 -0.7673
21191SOL    HW265342   1.669   5.105   1.115 -0.9602  0.6793  0.7737
21192SOL     OW65343   4.777   0.738   1.934  0.0766  0.7476  0.4597
21192SOL    HW165344   4.790   0.758   1.841  0.0575  1.3350  0.5818
21192SOL    HW265345   4.828   0.658   1.948 -0.4362  0.2861 -0.2005
21193SOL     OW65346   4.885   8.198   1.268 -0.5274  0.2413  0.0909
21193SOL    HW165347   4.973   8.199   1.306 -0.7647 -1.5658  0.8207
21193SOL    HW265348   4.894   8.142   1.190 -0.2101  3.3046 -2.2428
21194SOL     OW65349   1.584   8.975   0.828 -0.0862  0.1944 -0.3282
21194SOL    HW165350   1.517   9.017   0.883 -2.1308 -2.5281 -0.5304
21194SOL    HW265351   1.551   8.984   0.739  0.7392  0.3615 -0.6214
21195SOL     OW65352   5.683   3.703   7.795 -0.0865 -0.5830 -0.1425
21195SOL    HW165353   5.621   3.776   7.804  0.9123  0.3218 -0.4580
21195SOL    HW265354   5.743   3.713   7.869  2.3351  1.2024 -2.1851
21196SOL     OW65355   0.938   1.759   6.466 -0.2608  0.6614  0.1822
21196SOL    HW165356   0.876   1.716   6.408 -1.5057  3.7778 -1.0026
21196SOL    HW265357   0.900   1.750   6.553 -1.5072  1.0711 -0.3070
21197SOL     OW65358   8.172   1.250   3.058 -0.0262  0.3577 -0.2336
21197SOL    HW165359   8.225   1.176   3.028  1.0655  0.5026  1.2266
21197SOL    HW265360   8.113   1.212   3.122  0.4516  0.7128  0.4251
21198SOL     OW65361   1.660   3.826   7.203 -0.2863  0.1048  0.5431
21198SOL    HW165362   1.678   3.768   7.277 -0.0932 -0.5165  0.0171
21198SOL    HW265363   1.606   3.773   7.144 -0.3451  0.5559  0.1899
21199SOL     OW65364   7.941   8.425   0.784  0.3460 -0.3699  0.1439
21199SOL    HW165365   7.863   8.439   0.838 -1.4624 -0.7209 -2.1861
21199SOL    HW265366   7.955   8.330   0.787  0.7758 -0.2938  0.6522
21200SOL     OW65367   5.967   5.372   9.104 -0.9811  0.6437 -0.0843
21200SOL    HW165368   5.882   5.414   9.090 -1.3115 -0.2549 -0.8204
21200SOL    HW265369   5.984   5.324   9.023 -0.2625 -0.0422  0.4615
21201SOL     OW65370   8.078   1.816   9.787  0.1336  0.2535  0.3820
21201SOL    HW165371   8.170   1.845   9.791  0.7725 -1.7147  3.0778
21201SOL    HW265372   8.073   1.744   9.851 -2.9779 -0.6840 -0.7375
21202SOL     OW65373   8.040   6.516   7.510  0.0142 -0.3614 -0.0106
21202SOL    HW165374   8.028   6.439   7.455 -2.5679 -0.1532  0.0929
21202SOL    HW265375   7.957   6.524   7.558  1.1198  1.0632  1.8431
21203SOL     OW65376   9.669   1.520   1.499  0.5529  0.0257  0.1626
21203SOL    HW165377   9.749   1.562   1.531 -0.5573  0.2665  2.8374
21203SOL    HW265378   9.614   1.594   1.471  0.7346 -0.0536 -0.4181
21204SOL     OW65379   5.205   4.702   7.258 -0.2536  0.5141  0.3008
21204SOL    HW165380   5.253   4.705   7.176 -1.2398  1.8624 -0.2815
21204SOL    HW265381   5.170   4.613   7.263 -0.1156  0.3930 -0.7154
21205SOL     OW65382   1.383   9.777   4.291  0.3426 -0.3391  0.2488
21205SOL    HW165383   1.390   9.869   4.268  0.5452  0.3676  2.7911
21205SOL    HW265384   1.311   9.744   4.237 -0.2256  1.4867 -0.1946
21206SOL     OW65385   2.241   1.336   7.806 -0.1765  0.7403  0.5338
21206SOL    HW165386   2.266   1.298   7.890 -2.2274 -0.3905  0.7196
21206SOL    HW265387   2.320   1.332   7.752 -0.0696 -3.6840  0.6562
21207SOL     OW65388   6.131   1.900   9.348 -0.1040  0.4695 -0.4854
21207SOL    HW165389   6.148   1.832   9.283 -1.3900  0.0068 -0.3698
21207SOL    HW265390   6.038   1.892   9.367  0.4548 -0.2495  2.3592
21208SOL     OW65391   4.284   1.358   6.752  0.3183  0.3203  0.4722
21208SOL    HW165392   4.274   1.357   6.657  0.0162 -1.1833  0.4844
21208SOL    HW265393   4.274   1.266   6.777  2.0526  0.4538  1.7885
21209SOL     OW65394   0.517   1.723   0.481  0.5508 -0.2781 -0.2020
21209SOL    HW165395   0.454   1.790   0.454  0.0791 -0.2523  0.9030
21209SOL    HW265396   0.563   1.763   0.555  1.1809 -0.6714 -0.3844
21210SOL     OW65397   4.496   7.920   7.859 -0.3302 -0.0933  0.1893
21210SOL    HW165398   4.463   7.988   7.917 -1.6968 -0.7935  0.2583
21210SOL    HW265399   4.539   7.857   7.917  1.1726  0.7852  0.1031
21211SOL     OW65400   2.232   0.015   4.112  0.3060 -0.0207 -0.3740
21211SOL    HW165401   2.146   0.030   4.150 -0.0815 -1.0595 -0.7965
21211SOL    HW265402   2.252  -0.076   4.134  0.4352 -0.3919 -1.9008
21212SOL     OW65403   5.408   5.553   5.338  0.3354  0.7219 -0.2320
21212SOL    HW165404   5.361   5.504   5.405  2.7545 -0.9078  0.3968
21212SOL    HW265405   5.398   5.502   5.258 -1.0854  1.7562 -0.7547
21213SOL     OW65406   9.188   6.165   4.209 -0.1046 -0.0411  0.5466
21213SOL    HW165407   9.205   6.072   4.194  1.2101  0.3772 -0.7784
21213SOL    HW265408   9.262   6.195   4.262  0.1275  0.5005 -0.0644
21214SOL     OW65409   6.353   1.225   1.505 -0.2153  0.6135  0.4822
21214SOL    HW165410   6.262   1.201   1.524 -0.2691 -0.8119 -1.2985
21214SOL    HW265411   6.400   1.142   1.506  1.2643  1.4146  2.1111
21215SOL     OW65412   1.901   9.211   0.579  0.1306  0.4276 -0.3249
21215SOL    HW165413   1.987   9.179   0.606 -0.4652 -0.3232  0.7518
21215SOL    HW265414   1.874   9.271   0.648 -1.0954 -0.9583  0.4740
21216SOL     OW65415   9.217   6.341   9.230  0.2091 -0.2789 -0.4806
21216SOL    HW165416   9.216   6.435   9.214  0.4615 -0.4245 -1.3975
21216SOL    HW265417   9.285   6.329   9.296  1.1263  0.0491 -1.3343
21217SOL     OW65418   8.923   2.013   2.479  0.4042 -0.6623  0.2368
21217SOL    HW165419   8.977   1.936   2.499  2.3232  0.2379 -1.2099
21217SOL    HW265420   8.947   2.077   2.546  0.1623 -0.6938  0.3545
21218SOL     OW65421   3.060   5.383   0.839 -0.1503  0.2744  0.3230
21218SOL    HW165422   2.966   5.388   0.818  0.0735  0.8840 -0.5904
21218SOL    HW265423   3.095   5.468   0.813  0.4828  0.4377  1.6256
21219SOL     OW65424   9.715   1.969   1.260 -0.1780  0.2915  0.2476
21219SOL    HW165425   9.690   1.998   1.172 -1.5116 -2.9305 -0.5867
21219SOL    HW265426   9.781   1.902   1.245 -1.3430 -1.2312  1.5470
21220SOL     OW65427   5.416   5.468   4.893 -0.6886 -0.5502 -0.0270
21220SOL    HW165428   5.386   5.377   4.886  0.6395 -0.9877 -0.2977
21220SOL    HW265429   5.449   5.476   4.982 -1.8204  0.0082  0.3564
21221SOL     OW65430   8.960   0.689   6.158 -0.2196 -0.1652 -0.2223
21221SOL    HW165431   8.997   0.760   6.209 -2.2157  0.8534 -0.0916
21221SOL    HW265432   8.868   0.713   6.147 -0.2623 -1.2281 -2.7954
21222SOL     OW65433   1.646   7.410   4.841  0.1362 -0.2011  0.1306
21222SOL    HW165434   1.727   7.410   4.891  0.1555 -1.5984  0.1314
21222SOL    HW265435   1.578   7.386   4.904 -0.0776 -0.3585 -0.1532
21223SOL     OW65436   8.934   7.241   4.984 -0.0267  0.4874  0.7757
21223SOL    HW165437   8.906   7.299   4.913 -0.2017 -0.0587  0.3863
21223SOL    HW265438   9.029   7.246   4.984  0.0474 -0.5277 -0.3935
21224SOL     OW65439   2.828   2.692   4.733  0.1552  0.6182  0.5919
21224SOL    HW165440   2.780   2.715   4.653  2.5195  1.6933 -0.6118
21224SOL    HW265441   2.828   2.597   4.735 -2.3271  0.5555  0.9003
21225SOL     OW65442   9.844   2.476   0.983 -0.3023 -0.8296  0.6426
21225SOL    HW165443   9.784   2.415   0.939  1.9410 -0.5809 -3.2676
21225SOL    HW265444   9.826   2.560   0.942 -0.0257  0.1271  2.4132
21226SOL     OW65445   2.307   5.033   7.070  0.8118 -0.0389  0.4921
21226SOL    HW165446   2.367   4.964   7.097  0.3211 -0.2989  0.9356
21226SOL    HW265447   2.360   5.091   7.016  1.3028 -0.5982  0.3658
21227SOL     OW65448   0.676   1.663   2.185  0.0900  0.6433 -0.0315
21227SOL    HW165449   0.667   1.655   2.280  0.2404 -0.8391 -0.1203
21227SOL    HW265450   0.761   1.706   2.172  1.4820 -1.7840  0.4966
21228SOL     OW65451   5.743   8.254   0.746  0.0812  0.2267 -0.1638
21228SOL    HW165452   5.790   8.337   0.736  0.4359  0.0256 -0.2002
21228SOL    HW265453   5.780   8.216   0.826  0.7514 -0.4252 -0.7700
21229SOL     OW65454   1.208   4.218   6.488  0.7214 -0.0415 -0.4307
21229SOL    HW165455   1.246   4.148   6.541 -0.2658  0.3954  0.9081
21229SOL    HW265456   1.232   4.299   6.534 -0.8096  0.3000 -0.1900
21230SOL     OW65457   4.139   0.048   7.836 -0.3613 -0.3942 -0.0375
21230SOL    HW165458   4.118   0.100   7.914 -0.3070  0.7556 -0.7690
21230SOL    HW265459   4.168  -0.036   7.871  0.2053  0.2842  1.2121
21231SOL     OW65460   5.408   1.219   4.323 -0.5215  0.0867  0.1124
21231SOL    HW165461   5.489   1.190   4.281  0.2789  1.0686  0.9329
21231SOL    HW265462   5.358   1.262   4.253 -0.3309 -0.4842 -0.3847
21232SOL     OW65463   3.935   0.420   0.774  0.5233 -0.3816  0.8746
21232SOL    HW165464   3.915   0.346   0.717 -1.6243 -0.2992  1.4262
21232SOL    HW265465   4.028   0.438   0.759  0.2180 -0.7660 -2.0947
21233SOL     OW65466   5.593   5.707   2.589  0.3179  0.0933  0.0289
21233SOL    HW165467   5.652   5.771   2.550  1.6086 -1.1093 -0.0701
21233SOL    HW265468   5.505   5.738   2.566  0.8778  1.9721  0.2569
21234SOL     OW65469   9.050   4.758   6.104  0.1337 -0.3515 -0.1746
21234SOL    HW165470   9.073   4.725   6.191  0.6300  0.8519  0.1670
21234SOL    HW265471   9.095   4.842   6.097 -0.1636 -0.2770 -1.4744
21235SOL     OW65472   0.346   3.281   7.015 -0.1427  0.3144 -0.0022
21235SOL    HW165473   0.280   3.213   7.028 -0.4529  0.7242  0.6540
21235SOL    HW265474   0.397   3.281   7.095  0.8073 -0.1447 -0.5967
21236SOL     OW65475   3.176   7.095   8.286  0.0345 -0.1190  0.1877
21236SOL    HW165476   3.086   7.064   8.298  0.0198  0.6334  2.5550
21236SOL    HW265477   3.180   7.122   8.195 -2.1746 -0.1300  0.0320
21237SOL     OW65478   2.507   1.500   6.292 -0.6168 -0.4722  0.2349
21237SOL    HW165479   2.478   1.560   6.361  2.3761  0.4398  0.8264
21237SOL    HW265480   2.573   1.445   6.334  2.8151  1.4214 -2.1554
21238SOL     OW65481   5.295   3.979   8.119  0.0261  0.2606  0.4291
21238SOL    HW165482   5.216   4.010   8.163  1.4670  0.6639  2.8631
21238SOL    HW265483   5.299   3.886   8.138  1.1044  0.5910  2.0090
21239SOL     OW65484   3.539   4.277   4.653 -0.5341  0.6587 -0.4592
21239SOL    HW165485   3.533   4.341   4.723  2.9998  0.3102  0.3345
21239SOL    HW265486   3.533   4.329   4.573 -0.4730  1.6122  0.1362
21240SOL     OW65487   6.534   6.129   9.050 -0.8063  0.2352 -0.5220
21240SOL    HW165488   6.576   6.145   9.134 -0.2092  0.6364 -0.8894
21240SOL    HW265489   6.487   6.046   9.062 -1.3378  0.6616  0.4311
21241SOL     OW65490   6.012   8.982   5.578  0.1346 -0.0694 -0.2495
21241SOL    HW165491   6.088   8.925   5.587  0.2079 -0.0766 -0.8370
21241SOL    HW265492   6.034   9.039   5.504 -1.2526 -1.4303 -1.8053
21242SOL     OW65493   1.635   6.242   6.690  0.1210 -0.0787  0.1702
21242SOL    HW165494   1.717   6.213   6.650  0.6988  0.8324  0.6693
21242SOL    HW265495   1.598   6.304   6.628 -1.0758 -1.7129 -0.8572
21243SOL     OW65496   3.631   6.826   7.510 -0.3259 -0.1706  0.0015
21243SOL    HW165497   3.579   6.854   7.434  1.1353 -2.4688 -1.9955
21243SOL    HW265498   3.722   6.843   7.484  0.1646  1.4668  2.4159
21244SOL     OW65499   4.378   8.330   2.291  0.3813 -0.0173 -0.5728
21244SOL    HW165500   4.443   8.290   2.233 -0.1211 -2.1636  0.2469
21244SOL    HW265501   4.302   8.273   2.284 -0.3453  0.7440  0.7690
21245SOL     OW65502   2.141   0.434   5.691  0.5439 -0.3392  0.0007
21245SOL    HW165503   2.176   0.507   5.743 -1.3993 -0.3776  1.4657
21245SOL    HW265504   2.099   0.476   5.616 -1.9827  0.3054  1.6465
21246SOL     OW65505   8.974   6.111   8.822  0.1261  0.1805  0.0527
21246SOL    HW165506   8.905   6.168   8.788  1.0857  0.1003 -2.2240
21246SOL    HW265507   9.027   6.169   8.877 -0.9227  0.5762  0.6783
21247SOL     OW65508   7.197   8.525   6.403  0.1505 -0.4761 -0.0725
21247SOL    HW165509   7.187   8.481   6.487 -1.5664 -2.0436 -1.0347
21247SOL    HW265510   7.110   8.556   6.381  0.7882  0.9196 -0.7867
21248SOL     OW65511   3.025   8.552   2.193  0.6204 -0.3419  0.3616
21248SOL    HW165512   2.985   8.638   2.187  0.3455 -0.4121  1.0588
21248SOL    HW265513   3.093   8.562   2.260  0.2167 -0.7968  0.8481
21249SOL     OW65514   9.099   6.248   6.127  0.0878 -0.4043  0.0829
21249SOL    HW165515   9.096   6.154   6.147 -0.7138 -0.1589  1.1929
21249SOL    HW265516   9.071   6.291   6.208  0.2149  0.7913 -0.4872
21250SOL     OW65517   3.154   9.721   5.875 -0.6570  0.2225 -0.7407
21250SOL    HW165518   3.106   9.779   5.816 -0.9897  0.7801  0.0631
21250SOL    HW265519   3.116   9.738   5.961  0.7239  0.3854 -0.1488
21251SOL     OW65520   3.333   4.385   9.009  0.1127 -0.3029 -0.4703
21251SOL    HW165521   3.253   4.366   9.057  0.6737 -0.1028  0.5677
21251SOL    HW265522   3.370   4.299   8.988  1.1160 -0.4340  1.6188
21252SOL     OW65523   2.165   5.292   0.667  0.0746  0.0479 -0.7916
21252SOL    HW165524   2.143   5.301   0.760 -0.3813 -0.4900 -0.8397
21252SOL    HW265525   2.081   5.274   0.625  0.5339 -1.6935 -1.0391
21253SOL     OW65526   9.631   9.658   5.095  0.3211 -0.3145  0.5724
21253SOL    HW165527   9.714   9.706   5.098  1.0771 -1.5945  1.1622
21253SOL    HW265528   9.638   9.603   5.017 -0.3623  0.2230  0.1252
21254SOL     OW65529   6.078   2.316   6.281  0.5233 -0.3833 -0.5553
21254SOL    HW165530   6.120   2.235   6.309  0.0422 -1.1982 -2.0516
21254SOL    HW265531   6.037   2.293   6.197 -3.5685  0.1282  1.1096
21255SOL     OW65532   9.448   2.235   7.650 -0.4026  0.9932 -0.0098
21255SOL    HW165533   9.540   2.245   7.674 -0.7646  2.3644  0.9664
21255SOL    HW265534   9.448   2.177   7.574  1.1980  0.3676  0.4381
21256SOL     OW65535   7.377   8.461   4.002  0.3700  0.2589  1.2820
21256SOL    HW165536   7.308   8.446   4.067  0.8833 -0.4492  1.6765
21256SOL    HW265537   7.457   8.428   4.043  0.4292 -1.8981 -0.3787
21257SOL     OW65538   0.016   2.633   7.576 -0.4172 -0.0693  0.1064
21257SOL    HW165539   0.046   2.603   7.490 -0.0966  1.8419 -0.4892
21257SOL    HW265540  -0.077   2.652   7.564 -0.7157 -1.1337  0.5903
21258SOL     OW65541   7.978   5.819   9.015 -0.3118  0.6147  0.2892
21258SOL    HW165542   8.054   5.835   8.959  0.2934  1.9021  1.4045
21258SOL    HW265543   7.966   5.901   9.063 -1.7710  0.0830  0.8955
21259SOL     OW65544   3.880   0.969   5.036 -0.3474  0.4777 -0.4031
21259SOL    HW165545   3.952   0.916   5.003  0.0408  2.1337 -2.3987
21259SOL    HW265546   3.801   0.924   5.007 -0.1281 -0.5881  0.5773
21260SOL     OW65547   9.172   8.590   5.013 -0.2429 -0.2776  0.3325
21260SOL    HW165548   9.151   8.635   4.931  0.1757 -0.4034  0.1496
21260SOL    HW265549   9.172   8.497   4.989 -1.6877 -0.4372  0.8363
21261SOL     OW65550   8.350   0.586   1.316 -0.4991 -0.1312  0.3225
21261SOL    HW165551   8.374   0.519   1.380  0.5604 -0.3700 -0.2932
21261SOL    HW265552   8.430   0.637   1.304 -0.5734 -0.2952 -1.0418
21262SOL     OW65553   2.120   2.671   9.198 -0.2366 -0.4765  0.0666
21262SOL    HW165554   2.128   2.616   9.276 -1.6962 -0.9922 -0.1353
21262SOL    HW265555   2.151   2.616   9.126  1.4421  0.1135  0.2763
21263SOL     OW65556   4.085   8.532   5.984  0.0732 -0.2341 -0.1513
21263SOL    HW165557   4.174   8.565   5.995 -0.1870 -0.1496  2.0121
21263SOL    HW265558   4.029   8.604   6.012 -0.6641 -0.5403 -0.8112
21264SOL     OW65559   2.151   6.772   9.089 -0.0093  0.4122  0.6075
21264SOL    HW165560   2.185   6.715   9.020  0.2450 -0.0897  1.1418
21264SOL    HW265561   2.104   6.841   9.042  1.8885  1.2360 -0.1669
21265SOL     OW65562   1.141   2.846   4.003 -0.0744 -0.0211 -0.1147
21265SOL    HW165563   1.107   2.929   4.036 -2.2229 -1.0833  0.5626
21265SOL    HW265564   1.164   2.864   3.912  0.3248  1.5086  0.2607
21266SOL     OW65565   9.688   9.433   9.210  0.2547 -0.2738 -0.5963
21266SOL    HW165566   9.682   9.435   9.305 -1.0000 -0.5485 -0.6553
21266SOL    HW265567   9.780   9.454   9.191  0.4598  0.0124  0.6544
21267SOL     OW65568   4.105   3.548   8.196 -0.2680  0.0671 -0.3774
21267SOL    HW165569   4.061   3.600   8.263  0.6085  0.0660  0.2103
21267SOL    HW265570   4.198   3.562   8.211 -0.0369 -0.6923 -0.9957
21268SOL     OW65571   5.393   8.822   4.057  0.2251  0.7289  0.2531
21268SOL    HW165572   5.356   8.908   4.039  1.7126  1.2489 -0.4696
21268SOL    HW265573   5.488   8.834   4.048  0.4715 -0.9565  0.2695
21269SOL     OW65574   1.417   2.564   7.337  0.1600  0.3595 -0.2192
21269SOL    HW165575   1.328   2.553   7.371  0.3440 -0.7510 -0.0672
21269SOL    HW265576   1.460   2.622   7.399  0.0734 -0.5331  0.6967
21270SOL     OW65577   3.754   6.658   2.193  0.1969  0.5683 -0.0549
21270SOL    HW165578   3.797   6.742   2.207 -1.1755  1.4009 -0.6623
21270SOL    HW265579   3.674   6.662   2.244 -0.3013 -0.0200 -0.7572
21271SOL     OW65580   7.958   8.329   5.039 -0.3595 -0.4813 -0.0544
21271SOL    HW165581   7.893   8.399   5.046 -0.1374 -0.2516 -0.2475
21271SOL    HW265582   7.908   8.252   5.012 -0.1778  0.3703 -3.2030
21272SOL     OW65583   1.800   5.454   3.590  0.0623 -0.2742 -0.1169
21272SOL    HW165584   1.730   5.496   3.641  1.2032  1.5970 -0.0023
21272SOL    HW265585   1.876   5.510   3.603  1.4369 -1.9005 -0.7695
21273SOL     OW65586   3.416   0.405   0.242  0.3982  0.6349 -0.3739
21273SOL    HW165587   3.391   0.319   0.275  0.9134  0.1520 -1.2191
21273SOL    HW265588   3.409   0.463   0.318  0.1899 -0.1724  0.2333
21274SOL     OW65589   3.160   2.764   3.244  0.0435 -0.5223  0.0939
21274SOL    HW165590   3.235   2.824   3.242 -0.6406  0.3615 -1.2392
21274SOL    HW265591   3.120   2.774   3.157 -0.4636 -2.4735  0.0503
21275SOL     OW65592   0.217   0.062   1.130  0.0345 -0.3510 -0.1450
21275SOL    HW165593   0.155   0.033   1.063 -0.5201 -1.4137  0.7837
21275SOL    HW265594   0.301   0.027   1.103 -0.4118 -1.8534  0.3285
21276SOL     OW65595   4.830   8.340   6.999 -0.0059 -0.0522  0.0322
21276SOL    HW165596   4.828   8.425   7.042  3.6368 -1.3099  3.3683
21276SOL    HW265597   4.904   8.344   6.940 -0.8259 -0.4570 -1.0517
21277SOL     OW65598   8.890   7.871   1.713  0.1127  0.0444 -0.3514
21277SOL    HW165599   8.844   7.850   1.794  3.6530  2.2467  2.5439
21277SOL    HW265600   8.822   7.905   1.655 -2.5248 -1.1859  1.8118
21278SOL     OW65601   7.799   8.867   6.549 -0.7336  0.0770  0.0185
21278SOL    HW165602   7.868   8.822   6.500 -0.4556  0.9591 -0.4082
21278SOL    HW265603   7.735   8.798   6.568 -0.9284 -0.2764 -1.7281
21279SOL     OW65604   1.682   4.495   8.761 -0.4185  0.0199 -0.2264
21279SOL    HW165605   1.751   4.559   8.778  0.1220 -0.3076 -1.1019
21279SOL    HW265606   1.682   4.484   8.666 -0.2170 -1.5696 -0.0761
21280SOL     OW65607   5.679   1.804   9.154 -0.5626  0.2655  0.1021
21280SOL    HW165608   5.634   1.843   9.079  0.1308  1.2915  0.2067
21280SOL    HW265609   5.757   1.764   9.117 -0.9318 -0.4816  0.0943
21281SOL     OW65610   7.362   2.297   3.152  0.2772  0.2060 -0.0425
21281SOL    HW165611   7.449   2.273   3.184 -0.3011 -0.2744  1.2271
21281SOL    HW265612   7.303   2.235   3.194 -0.7132  0.7003 -0.6776
21282SOL     OW65613   0.226   1.586   2.738  0.1173  0.1752  0.4050
21282SOL    HW165614   0.178   1.664   2.713  1.0338  0.2035 -1.4405
21282SOL    HW265615   0.256   1.548   2.655  1.3485 -1.0629  1.3573
21283SOL     OW65616   2.019   6.329   9.366  0.5244 -0.5273  0.3999
21283SOL    HW165617   2.109   6.303   9.350  0.0771 -1.0197 -1.7783
21283SOL    HW265618   2.016   6.422   9.344  0.2783 -0.7934 -0.7633
21284SOL     OW65619   5.087   0.841   7.948  0.1083 -0.2946  0.7258
21284SOL    HW165620   5.030   0.786   7.895 -1.5753  0.1041  2.0468
21284SOL    HW265621   5.148   0.779   7.989 -0.3530 -0.9198  0.4831
21285SOL     OW65622   4.414   8.665   0.961 -0.7924 -0.2310  0.2215
21285SOL    HW165623   4.386   8.741   0.911 -2.2510 -0.3472  0.8245
21285SOL    HW265624   4.414   8.694   1.052  0.8047 -0.3304  0.2847
21286SOL     OW65625   4.271   5.663   2.208 -0.7199  0.8128 -0.1763
21286SOL    HW165626   4.343   5.724   2.224 -1.0983  1.1000  0.5105
21286SOL    HW265627   4.209   5.681   2.279 -0.9786 -0.1615 -0.1408
21287SOL     OW65628   5.713   3.312   8.669  0.4033  0.0254  0.3005
21287SOL    HW165629   5.746   3.238   8.720 -1.1937 -1.5994 -0.9057
21287SOL    HW265630   5.778   3.325   8.600 -0.4289 -1.9325 -0.9427
21288SOL     OW65631   7.487   1.295   2.257 -0.0805  0.5792 -0.1679
21288SOL    HW165632   7.394   1.274   2.256 -0.1862  1.0260 -0.0318
21288SOL    HW265633   7.521   1.252   2.335 -0.2123  0.5699 -0.1151
21289SOL     OW65634   7.505   4.819   0.079  0.6975  0.1114 -0.0441
21289SOL    HW165635   7.466   4.906   0.069 -0.6516 -0.3918  0.5413
21289SOL    HW265636   7.431   4.759   0.072  1.6487 -1.0207 -0.7321
21290SOL     OW65637   0.234   9.592   0.797  0.2367  0.2282 -0.2030
21290SOL    HW165638   0.241   9.541   0.717 -1.4226 -0.1744 -0.1232
21290SOL    HW265639   0.291   9.668   0.783 -1.5702  1.2470 -2.6195
21291SOL     OW65640   0.388   3.503   1.049  0.5440  0.0561  0.2542
21291SOL    HW165641   0.359   3.431   0.994  0.1279  0.4059  0.0064
21291SOL    HW265642   0.369   3.475   1.138  2.7407 -1.2209  0.3894
21292SOL     OW65643   4.057   1.528   5.776 -0.1394 -0.0482  0.1727
21292SOL    HW165644   3.995   1.596   5.802 -0.8545 -0.0669 -1.3238
21292SOL    HW265645   4.123   1.527   5.844 -0.5680  1.5670  0.6478
21293SOL     OW65646   4.662   4.673   5.357 -0.4990 -0.2300 -0.0826
21293SOL    HW165647   4.757   4.683   5.368 -0.3517 -0.3637 -1.1893
21293SOL    HW265648   4.652   4.595   5.302 -1.2276  0.2351 -0.6182
21294SOL     OW65649   3.706   4.199   3.875  0.2882  0.2171  0.0652
21294SOL    HW165650   3.753   4.254   3.938 -2.4645 -1.1120  3.6175
21294SOL    HW265651   3.732   4.109   3.897 -0.1614 -0.2827 -1.3065
21295SOL     OW65652   3.610   6.318   7.985  0.3610  0.7399 -0.1668
21295SOL    HW165653   3.560   6.340   7.907  0.0641  1.5421  0.2358
21295SOL    HW265654   3.701   6.335   7.960  0.1838  2.0348 -0.0279
21296SOL     OW65655   8.481   0.045   4.783 -0.3966 -0.5712 -0.1789
21296SOL    HW165656   8.441   0.131   4.792 -0.5106 -0.5499 -0.8352
21296SOL    HW265657   8.575   0.061   4.787 -0.4269 -0.5187  0.4951
21297SOL     OW65658   4.041   7.559   0.823  0.2511  0.0149  0.2366
21297SOL    HW165659   4.057   7.572   0.730 -0.8607  0.1535  0.0452
21297SOL    HW265660   4.009   7.468   0.829 -0.4416  0.2603  0.3645
21298SOL     OW65661   6.449   8.444   7.284 -0.1346  0.2795 -0.4151
21298SOL    HW165662   6.476   8.519   7.231 -2.0299  1.7416  0.5828
21298SOL    HW265663   6.501   8.452   7.365  1.1164 -0.6833 -1.0758
21299SOL     OW65664   7.847   5.343   3.555 -0.1016  0.2169  0.2038
21299SOL    HW165665   7.840   5.263   3.608 -0.4238 -0.0087 -0.1781
21299SOL    HW265666   7.830   5.314   3.466  0.5221  0.5854 -0.0381
21300SOL     OW65667   7.253   5.991   7.080  0.0922 -0.3240  0.0312
21300SOL    HW165668   7.215   6.075   7.055 -1.2706 -0.7471  0.5672
21300SOL    HW265669   7.347   6.006   7.082 -0.1298  1.1629  0.0185
21301SOL     OW65670   6.288   6.428   5.578  0.0887  0.3479 -0.8408
21301SOL    HW165671   6.207   6.446   5.626  1.1606  3.0245  0.1208
21301SOL    HW265672   6.355   6.418   5.646  1.1123  1.2715 -1.6733
21302SOL     OW65673   8.780   2.742   7.709 -0.0147 -0.1799 -0.3122
21302SOL    HW165674   8.740   2.732   7.623 -0.5099 -0.3464 -0.0677
21302SOL    HW265675   8.714   2.787   7.761  0.6424  0.7565 -0.2689
21303SOL     OW65676   4.685   0.860   2.954  0.1611 -0.6630 -0.4348
21303SOL    HW165677   4.759   0.821   3.000 -0.9964  0.1782  2.4109
21303SOL    HW265678   4.613   0.798   2.968 -0.1239 -0.6117 -1.5846
21304SOL     OW65679   0.796   4.492   2.844  0.4796 -0.1005  0.0305
21304SOL    HW165680   0.832   4.431   2.780  0.0793  0.1291 -0.4196
21304SOL    HW265681   0.872   4.541   2.876  0.7495 -0.5718  0.1208
21305SOL     OW65682   6.142   9.823   7.135  0.5627 -0.1911  0.2683
21305SOL    HW165683   6.071   9.886   7.127  0.4921  0.0146  1.9794
21305SOL    HW265684   6.190   9.829   7.052 -1.3491 -0.3006 -0.8937
21306SOL     OW65685   3.945   1.915   2.992 -0.4993  0.2168 -0.5051
21306SOL    HW165686   4.014   1.950   3.049  1.3073 -1.0069 -1.8245
21306SOL    HW265687   3.944   1.821   3.010 -1.1843  0.0799 -1.1837
21307SOL     OW65688   2.024   3.266   2.494 -0.3419 -0.3845  0.1472
21307SOL    HW165689   2.107   3.314   2.493 -0.2724 -0.4752  0.9690
21307SOL    HW265690   2.029   3.208   2.418  0.2194 -0.1719  0.0194
21308SOL     OW65691   2.306   4.324   0.760 -0.5146 -0.1305  0.3652
21308SOL    HW165692   2.345   4.332   0.673  0.2991 -0.7053  0.6687
21308SOL    HW265693   2.239   4.256   0.751 -0.1434 -0.4861  0.2828
21309SOL     OW65694   0.607   2.647   0.834 -0.2520 -0.0950 -0.2176
21309SOL    HW165695   0.663   2.643   0.757  1.3872 -0.2658  0.9224
21309SOL    HW265696   0.592   2.740   0.849  1.4335  0.0766  0.5980
21310SOL     OW65697   9.496   6.901   5.714  0.1720 -0.3449 -0.0782
21310SOL    HW165698   9.469   6.878   5.625  0.6693  1.0344 -0.6289
21310SOL    HW265699   9.418   6.940   5.753  0.0797 -0.5343 -0.0733
21311SOL     OW65700   5.434   1.489   2.433  0.1601  0.1906 -0.0462
21311SOL    HW165701   5.451   1.581   2.451 -0.3390  0.0270  1.4720
21311SOL    HW265702   5.395   1.456   2.515 -0.1580 -1.2321 -0.7401
21312SOL     OW65703   9.239   7.252   7.354  0.3275  0.6939 -0.1747
21312SOL    HW165704   9.154   7.234   7.312  0.1972  2.4126 -0.7141
21312SOL    HW265705   9.299   7.266   7.281  0.4593  2.1214  0.1797
21313SOL     OW65706   5.423   1.738   9.705  0.1397 -0.2802 -0.3329
21313SOL    HW165707   5.446   1.818   9.754  1.2749 -0.5472 -0.4025
21313SOL    HW265708   5.502   1.685   9.708 -0.5535 -1.3484 -0.4274
21314SOL     OW65709   4.251   6.845   9.535 -0.1429 -0.0849  0.3344
21314SOL    HW165710   4.265   6.764   9.585  0.7527 -0.5704 -0.6758
21314SOL    HW265711   4.218   6.816   9.450 -0.2776  0.6492  0.1256
21315SOL     OW65712   0.296   1.965   7.084 -0.6137  0.9031 -0.2926
21315SOL    HW165713   0.277   1.877   7.051  0.5098  0.7918 -0.6898
21315SOL    HW265714   0.268   1.963   7.176  2.0263 -0.8512  0.6150
21316SOL     OW65715   8.005   6.091   5.469  0.0714  0.4502 -0.0295
21316SOL    HW165716   7.933   6.030   5.487  0.5129  0.6180  2.7359
21316SOL    HW265717   8.062   6.043   5.409 -0.0493 -1.5770  1.3477
21317SOL     OW65718   6.206   2.929   1.080  0.1849  0.1373 -0.2182
21317SOL    HW165719   6.244   2.846   1.051  0.5533 -0.3218  1.5034
21317SOL    HW265720   6.277   2.972   1.127 -0.3000  1.0067 -0.2762
21318SOL     OW65721   5.334   4.109   9.292  0.1541  0.2534  0.3704
21318SOL    HW165722   5.342   4.205   9.297 -1.8498  0.4089  1.5324
21318SOL    HW265723   5.241   4.094   9.270  0.4616 -1.4326  0.0919
21319SOL     OW65724   4.167   9.679   4.463  0.1390 -0.1336  0.3566
21319SOL    HW165725   4.252   9.638   4.477  0.0454  0.1339  1.8543
21319SOL    HW265726   4.104   9.614   4.495 -0.0830  0.5643  1.3778
21320SOL     OW65727   7.756   2.638   0.218  0.1483 -0.3359 -0.0233
21320SOL    HW165728   7.773   2.662   0.309 -2.0553  0.4440  0.2542
21320SOL    HW265729   7.711   2.714   0.182 -0.1604 -1.1439 -1.3894
21321SOL     OW65730   4.901   3.696   7.101 -0.3805 -0.4373  0.4476
21321SOL    HW165731   4.990   3.683   7.068 -0.6235 -1.1531  0.0686
21321SOL    HW265732   4.854   3.739   7.029  0.2976  2.3718  1.5251
21322SOL     OW65733   6.911   4.803   3.486 -0.5072 -0.3295 -0.2537
21322SOL    HW165734   6.875   4.729   3.437 -0.2696 -0.4382 -0.2674
21322SOL    HW265735   6.950   4.860   3.419 -1.8675  0.4862 -0.3806
21323SOL     OW65736   8.272   1.588   3.687 -0.6460  0.0585 -0.1085
21323SOL    HW165737   8.356   1.552   3.658 -0.0063  1.0495  0.4513
21323SOL    HW265738   8.288   1.620   3.775 -1.6996  0.0065  0.1166
21324SOL     OW65739   3.429   0.808   9.082 -0.1626  0.3303 -0.3394
21324SOL    HW165740   3.372   0.741   9.044 -0.2822 -0.8148  1.7329
21324SOL    HW265741   3.510   0.801   9.031 -0.2241 -1.3186 -0.2570
21325SOL     OW65742   4.581   6.660   7.444  0.1283  0.1944  0.0913
21325SOL    HW165743   4.500   6.669   7.394  0.0207 -1.5234 -0.1292
21325SOL    HW265744   4.561   6.699   7.529 -0.3425  1.3448 -0.5300
21326SOL     OW65745   9.706   9.598   6.046  0.2254  0.6098  0.7820
21326SOL    HW165746   9.698   9.693   6.040 -2.9647  0.3561 -1.0905
21326SOL    HW265747   9.697   9.567   5.956 -0.2595 -1.5359  1.5011
21327SOL     OW65748   1.810   7.116   0.248  0.2497 -0.1169 -0.1243
21327SOL    HW165749   1.841   7.045   0.305  4.1739  0.5084 -1.1428
21327SOL    HW265750   1.791   7.188   0.308  3.0267  0.1027  0.6639
21328SOL     OW65751   3.721   6.591   9.522  0.3155  0.0035  0.4464
21328SOL    HW165752   3.763   6.663   9.570  2.0326 -0.1806 -0.6838
21328SOL    HW265753   3.738   6.514   9.576 -2.3876  0.4732  2.1757
21329SOL     OW65754   8.754   5.820   8.952 -0.0199  0.0484  0.0038
21329SOL    HW165755   8.718   5.863   9.030  1.6738 -0.0625  0.8945
21329SOL    HW265756   8.837   5.865   8.936 -0.5066  0.3159 -1.9906
21330SOL     OW65757   1.186   6.094   7.729  0.1658 -0.9121 -0.4490
21330SOL    HW165758   1.218   6.141   7.806 -0.9318  1.5202 -1.3829
21330SOL    HW265759   1.264   6.067   7.683  0.8662  0.3365 -0.0457
21331SOL     OW65760   1.339   2.121   5.281 -0.6022 -0.1111  0.0818
21331SOL    HW165761   1.271   2.181   5.312 -0.9601 -0.6690  0.3762
21331SOL    HW265762   1.318   2.037   5.322 -0.1364 -0.4542 -0.3754
21332SOL     OW65763   6.159   1.747   5.842  0.0859 -0.0029 -0.5802
21332SOL    HW165764   6.109   1.698   5.907  0.7080 -1.2404 -1.0068
21332SOL    HW265765   6.096   1.807   5.803 -0.4386  0.3207  0.7123
21333SOL     OW65766   3.078   9.582   1.538 -0.0621 -0.6785 -0.0004
21333SOL    HW165767   3.041   9.623   1.460  0.0881  1.5398  1.0390
21333SOL    HW265768   3.128   9.507   1.504  0.7640  0.7423 -2.1230
21334SOL     OW65769   7.926   6.963   3.656  0.6092 -0.1045  0.0417
21334SOL    HW165770   7.860   6.982   3.723  0.7211  1.9337 -0.3613
21334SOL    HW265771   8.010   6.982   3.700  0.7514  0.1680 -0.3502
21335SOL     OW65772   7.875   6.012   0.290 -0.3939 -0.1628 -0.1116
21335SOL    HW165773   7.857   5.924   0.323  0.1499  0.2004  1.2626
21335SOL    HW265774   7.960   6.006   0.247 -0.9117 -0.5531 -1.1091
21336SOL     OW65775   6.802   3.871   6.167 -0.3029 -0.4795 -0.0857
21336SOL    HW165776   6.786   3.868   6.261  0.0152 -1.5570 -0.0544
21336SOL    HW265777   6.789   3.963   6.143  1.2587  0.1604  1.2970
21337SOL     OW65778   8.869   4.809   1.920 -0.1037 -0.4665 -0.5452
21337SOL    HW165779   8.874   4.848   2.008  0.0538 -0.5569 -0.5137
21337SOL    HW265780   8.806   4.738   1.929 -1.5932  0.7528 -0.9704
21338SOL     OW65781   8.961   5.480   1.232 -0.7915  0.3824  0.1481
21338SOL    HW165782   8.962   5.547   1.301 -2.0397  1.0571 -0.4449
21338SOL    HW265783   9.011   5.517   1.161 -0.2601  0.0611  0.3472
21339SOL     OW65784   9.780   9.178   9.253 -0.1990  0.1486  0.1021
21339SOL    HW165785   9.732   9.261   9.247 -0.6047  0.3446  3.6665
21339SOL    HW265786   9.716   9.111   9.229 -0.9341  0.6743  0.5712
21340SOL     OW65787   6.838   5.618   7.713 -0.2740 -0.5175  0.6080
21340SOL    HW165788   6.904   5.668   7.665 -0.7527  0.0749  0.5566
21340SOL    HW265789   6.866   5.527   7.703  0.6928 -0.2606  0.8283
21341SOL     OW65790   9.248   6.960   1.429  0.0118  0.7301  0.1289
21341SOL    HW165791   9.228   6.913   1.510  0.5760 -0.8446 -0.5939
21341SOL    HW265792   9.341   6.943   1.415  0.1731  1.8861 -0.3129
21342SOL     OW65793   3.638   0.058   2.584 -0.0669  0.5346 -0.5364
21342SOL    HW165794   3.600  -0.027   2.562 -1.7759  0.6198  1.7252
21342SOL    HW265795   3.609   0.115   2.513  1.0041 -0.6883 -2.0169
21343SOL     OW65796   7.233   7.757   0.855  0.2112  0.2030 -0.5220
21343SOL    HW165797   7.171   7.713   0.914  0.3516  0.3519 -0.2615
21343SOL    HW265798   7.277   7.821   0.910 -1.6571  2.3821 -1.3854
21344SOL     OW65799   3.874   0.494   7.774 -0.4469 -0.5773  1.3578
21344SOL    HW165800   3.858   0.582   7.740  2.0398 -1.3433 -2.4013
21344SOL    HW265801   3.935   0.507   7.846 -0.6580  0.7895  1.3138
21345SOL     OW65802   6.153   8.279   4.172  0.3452 -0.0283  0.0440
21345SOL    HW165803   6.111   8.339   4.110  0.4095  1.4722  1.3929
21345SOL    HW265804   6.109   8.195   4.157  0.1323  0.3704 -1.7758
21346SOL     OW65805   2.126   3.192   8.789  0.1324 -0.5144 -0.0667
21346SOL    HW165806   2.169   3.277   8.793 -1.8410  0.5254  0.8671
21346SOL    HW265807   2.040   3.207   8.829  0.2849 -3.3151  1.5591
21347SOL     OW65808   2.486   4.451   8.044 -0.3047 -0.0679 -0.5321
21347SOL    HW165809   2.423   4.470   7.974  1.3971  0.1133 -2.1110
21347SOL    HW265810   2.481   4.527   8.102 -0.8678  0.3793 -1.1489
21348SOL     OW65811   1.573   0.157   2.163 -0.6847  0.3482  0.1625
21348SOL    HW165812   1.583   0.246   2.131 -2.1247  0.8204  0.9433
21348SOL    HW265813   1.576   0.165   2.258  1.8445 -0.8134  0.2627
21349SOL     OW65814   6.628   9.188   5.625 -0.2209 -0.0256 -0.5482
21349SOL    HW165815   6.636   9.129   5.699  0.5758 -2.3867 -2.3884
21349SOL    HW265816   6.714   9.185   5.582 -0.1051  2.6158 -0.6705
21350SOL     OW65817   8.058   1.382   6.045  0.2166 -0.3005  0.2289
21350SOL    HW165818   8.029   1.316   5.982  1.3947  0.3186 -1.0288
21350SOL    HW265819   7.977   1.414   6.086 -1.0125  1.4085 -3.1418
21351SOL     OW65820   7.941   3.788   1.636  0.2422 -0.3570  0.1242
21351SOL    HW165821   7.895   3.714   1.676  1.1859  0.5679  3.2494
21351SOL    HW265822   8.016   3.804   1.694  0.4575  2.5712 -0.7935
21352SOL     OW65823   2.562   5.138   8.698  0.0733  0.7107 -0.2557
21352SOL    HW165824   2.501   5.154   8.626 -0.7608  0.1827  0.3087
21352SOL    HW265825   2.554   5.045   8.716 -2.5745  1.3721  2.9275
21353SOL     OW65826   4.823   1.293   3.512 -0.1011 -0.6029  0.0507
21353SOL    HW165827   4.907   1.315   3.551 -0.2201 -1.9311  1.1148
21353SOL    HW265828   4.809   1.361   3.446  0.8954  0.7398  1.1559
21354SOL     OW65829   0.858   0.630   6.816  0.1764  0.5522 -0.1352
21354SOL    HW165830   0.779   0.680   6.839  0.2589  1.3683 -1.5166
21354SOL    HW265831   0.834   0.539   6.833 -0.8595  0.8408  0.0547
21355SOL     OW65832   2.313   1.581   5.414 -0.3396  0.8698 -0.2253
21355SOL    HW165833   2.273   1.545   5.335  0.8659 -1.4471  0.1145
21355SOL    HW265834   2.407   1.571   5.399 -0.0904  0.3480  1.5014
21356SOL     OW65835   1.678   2.707   4.402 -0.1737 -0.2606  0.5302
21356SOL    HW165836   1.752   2.680   4.347  0.4224 -0.0937  1.2399
21356SOL    HW265837   1.615   2.635   4.394 -0.2396 -0.1061 -0.6055
21357SOL     OW65838   6.320   3.523   7.904  0.2292 -0.2086  0.0450
21357SOL    HW165839   6.396   3.502   7.851 -0.9217 -0.5416 -1.5598
21357SOL    HW265840   6.340   3.607   7.945  1.7101 -0.6273  0.2187
21358SOL     OW65841   7.256   4.974   0.897 -0.0683  1.3635  0.1241
21358SOL    HW165842   7.161   4.960   0.904 -0.0811  2.0549  1.8576
21358SOL    HW265843   7.264   5.064   0.867  0.0866  0.3350 -3.4211
21359SOL     OW65844   9.838   1.365   0.681  0.0014 -0.3616 -0.3819
21359SOL    HW165845   9.875   1.364   0.593  0.1583  0.5231 -0.3333
21359SOL    HW265846   9.825   1.458   0.700 -1.9722 -0.6103 -0.2935
21360SOL     OW65847   3.288   4.974   9.098 -0.5553  0.8585 -0.0707
21360SOL    HW165848   3.198   5.005   9.107 -1.3652 -1.2397 -0.2689
21360SOL    HW265849   3.294   4.942   9.008  0.0583  0.0558  0.2434
21361SOL     OW65850   0.820   9.531   0.949  0.4604  0.1251 -0.3264
21361SOL    HW165851   0.840   9.615   0.990  1.2548 -1.0327  1.8165
21361SOL    HW265852   0.726   9.533   0.934  0.4161  1.2627  0.0010
21362SOL     OW65853   0.418   3.830   9.359 -0.2289  0.1347 -0.3762
21362SOL    HW165854   0.413   3.739   9.390 -0.1909  0.7638  1.6524
21362SOL    HW265855   0.412   3.824   9.264 -3.6504 -1.7994 -0.2212
21363SOL     OW65856   4.828   1.729   0.197  0.2103 -0.1908 -0.1245
21363SOL    HW165857   4.813   1.806   0.252 -1.6339  0.1956 -1.1085
21363SOL    HW265858   4.899   1.755   0.138  1.5480 -0.2780  1.3779
21364SOL     OW65859   5.390   5.063   8.215 -0.2366  0.4117 -0.4700
21364SOL    HW165860   5.382   5.154   8.186 -0.6297  0.0599 -1.5072
21364SOL    HW265861   5.361   5.011   8.139  0.1733 -0.5791  0.0390
21365SOL     OW65862   5.778   8.078   6.351  0.8833 -0.1038 -0.0927
21365SOL    HW165863   5.817   8.164   6.333  0.4453  0.1675  0.2488
21365SOL    HW265864   5.766   8.077   6.446 -0.0880 -0.1200 -0.2117
21366SOL     OW65865   6.267   6.843   4.248  0.0395  0.0893 -0.0483
21366SOL    HW165866   6.172   6.847   4.255 -0.2931 -3.1054 -1.3095
21366SOL    HW265867   6.288   6.902   4.176 -1.0423  0.2916 -0.2104
21367SOL     OW65868   6.995   1.278   8.577 -0.7178 -0.1721  0.1076
21367SOL    HW165869   6.915   1.292   8.627 -0.3908 -0.5859  0.7503
21367SOL    HW265870   6.964   1.254   8.489 -1.2911  0.1753  0.2109
21368SOL     OW65871   8.051   5.235   0.670 -0.2033  0.4198 -0.0343
21368SOL    HW165872   8.142   5.247   0.699 -0.6326 -0.9038  2.1135
21368SOL    HW265873   8.057   5.229   0.575  1.8358  1.3205 -0.0256
21369SOL     OW65874   8.176   0.491   6.531  0.6381 -0.2138 -0.2222
21369SOL    HW165875   8.169   0.489   6.435  0.5883 -2.1681 -0.2162
21369SOL    HW265876   8.095   0.449   6.561  2.5099 -3.6684  0.4883
21370SOL     OW65877   2.743   3.236   0.743 -0.1251 -0.2482 -0.4646
21370SOL    HW165878   2.777   3.166   0.799  0.6639 -0.7442 -1.5364
21370SOL    HW265879   2.672   3.275   0.794 -0.0458 -1.3015  0.4879
21371SOL     OW65880   2.615   6.347   4.216 -0.0534  0.1830  0.0552
21371SOL    HW165881   2.539   6.396   4.185  0.8402  0.5473 -1.6918
21371SOL    HW265882   2.671   6.413   4.257 -0.7155 -0.1189  1.5392
21372SOL     OW65883   4.742   7.290   6.725 -0.0328  0.2337 -0.0967
21372SOL    HW165884   4.799   7.301   6.649 -1.2344  0.3522 -1.0039
21372SOL    HW265885   4.798   7.309   6.800  1.2065  0.0085 -0.9390
21373SOL     OW65886   1.963   6.609   4.955  0.0279 -0.0952  0.0253
21373SOL    HW165887   1.934   6.519   4.966  1.0810 -0.4638 -0.2190
21373SOL    HW265888   1.985   6.638   5.044 -0.3358 -0.0576  0.1072
21374SOL     OW65889   6.929   8.689   8.965 -0.3963 -0.3431  0.2562
21374SOL    HW165890   6.851   8.654   9.008 -1.1281  0.9961  0.0554
21374SOL    HW265891   6.902   8.773   8.929  0.7349 -0.5417 -1.1597
21375SOL     OW65892   7.163   6.367   2.750 -0.3324  0.3937 -0.2216
21375SOL    HW165893   7.156   6.336   2.660  0.9201 -0.0502 -0.1825
21375SOL    HW265894   7.141   6.290   2.803  0.9029  0.0909 -0.1386
21376SOL     OW65895   6.994   9.359   0.993  0.3911 -0.8173 -0.4570
21376SOL    HW165896   6.992   9.366   0.897  1.7530 -0.6272 -0.4955
21376SOL    HW265897   7.082   9.389   1.017 -0.5271  0.8296  1.0113
21377SOL     OW65898   6.250   6.306   8.374  0.4960  0.7134  0.1698
21377SOL    HW165899   6.291   6.238   8.427 -0.0272  1.0004  0.9558
21377SOL    HW265900   6.156   6.294   8.387  0.0285 -1.5956 -3.6262
21378SOL     OW65901   6.090   4.884   1.764 -0.2756  0.2428 -0.3794
21378SOL    HW165902   6.133   4.964   1.796  1.0439  0.2757 -2.0648
21378SOL    HW265903   6.036   4.855   1.837  2.0474  0.6387  1.6406
21379SOL     OW65904   4.810   2.196   8.799 -0.3907 -0.0573 -0.3119
21379SOL    HW165905   4.877   2.247   8.844 -1.2148  2.1518 -1.4286
21379SOL    HW265906   4.856   2.119   8.768  0.6112 -0.7505  2.5849
21380SOL     OW65907   4.994   3.252   0.043 -0.5204  0.4618  0.5006
21380SOL    HW165908   4.997   3.348   0.048 -2.6745  0.6383 -0.4754
21380SOL    HW265909   4.906   3.233   0.010  0.5376 -1.7873 -1.2241
21381SOL     OW65910   6.617   5.869   2.192  0.1787 -0.2999  0.1117
21381SOL    HW165911   6.644   5.870   2.284 -1.8584  0.2031  0.7626
21381SOL    HW265912   6.535   5.819   2.191 -1.1560  1.7089 -0.9571
21382SOL     OW65913   4.956   5.541   9.178  0.1880  0.0667 -0.8149
21382SOL    HW165914   4.880   5.582   9.218 -0.0106 -0.9505 -0.0971
21382SOL    HW265915   5.030   5.597   9.203 -0.1474  0.3138 -0.3575
21383SOL     OW65916   9.241   0.378   7.477  0.0295 -0.0523 -0.3756
21383SOL    HW165917   9.236   0.473   7.473  1.8081  0.0587 -0.9525
21383SOL    HW265918   9.173   0.348   7.417  0.6988  0.9167 -1.6684
21384SOL     OW65919   8.151   6.243   9.614  0.3894 -0.3873  0.2183
21384SOL    HW165920   8.196   6.322   9.644  0.6669 -0.6432  0.4807
21384SOL    HW265921   8.112   6.206   9.693 -0.2313 -0.2089  0.0069
21385SOL     OW65922   8.433   2.952   2.551 -0.7347 -0.1504 -0.4473
21385SOL    HW165923   8.420   2.961   2.645 -0.8958  1.1289 -0.5701
21385SOL    HW265924   8.346   2.931   2.517 -0.6977 -0.5062 -0.3237
21386SOL     OW65925   3.704   5.446   7.469 -0.4523 -0.4677  0.1747
21386SOL    HW165926   3.792   5.439   7.505 -0.9175 -2.3056  1.0675
21386SOL    HW265927   3.716   5.432   7.374  0.4217  1.3768 -0.0177
21387SOL     OW65928   0.091   3.189   1.683 -0.0815 -0.2356  0.2001
21387SOL    HW165929   0.175   3.154   1.712  0.3890  1.6325  1.2119
21387SOL    HW265930   0.056   3.235   1.759 -1.6944 -0.3671 -0.4275
21388SOL     OW65931   3.912   7.416   5.029  0.3095 -0.1587 -0.7193
21388SOL    HW165932   3.987   7.376   5.071  0.0031  0.1448  0.1433
21388SOL    HW265933   3.903   7.502   5.071 -1.2916 -0.6991  0.1537
21389SOL     OW65934   9.313   3.199   6.953  0.4245 -0.4359  0.2204
21389SOL    HW165935   9.286   3.156   6.872 -0.5242  0.6170 -0.0492
21389SOL    HW265936   9.360   3.278   6.925  0.7527 -0.4550  0.6973
21390SOL     OW65937   5.191   5.139   8.426 -0.4304 -0.3972 -0.5615
21390SOL    HW165938   5.106   5.178   8.405 -0.9074  0.8264  2.9677
21390SOL    HW265939   5.192   5.055   8.380 -2.6201  0.4724 -2.3526
21391SOL     OW65940   1.098   1.857   4.605 -0.5048 -0.2293  0.1414
21391SOL    HW165941   1.029   1.791   4.601  0.3207 -1.2551  1.7356
21391SOL    HW265942   1.066   1.922   4.667 -0.2682 -0.4602  0.5140
21392SOL     OW65943   4.696   8.723   5.809  0.9976  0.4161 -0.0459
21392SOL    HW165944   4.735   8.796   5.763  0.0440  1.1621  0.2812
21392SOL    HW265945   4.644   8.764   5.879 -0.3820 -0.4949 -0.4865
21393SOL     OW65946   7.595   2.909   4.748  0.8655  0.5416  0.2618
21393SOL    HW165947   7.596   2.988   4.802 -1.0717  0.7191  0.0960
21393SOL    HW265948   7.598   2.941   4.658 -0.6001  0.4861  0.1761
21394SOL     OW65949   2.138   9.417   4.601  0.1803  0.1158 -0.0727
21394SOL    HW165950   2.087   9.490   4.564  1.1845  0.3307 -1.0827
21394SOL    HW265951   2.156   9.360   4.526  1.6660  0.1927  0.2017
21395SOL     OW65952   3.785   3.529   1.211 -0.0375 -0.3327  0.1881
21395SOL    HW165953   3.754   3.497   1.126 -0.5735 -0.1907  0.3258
21395SOL    HW265954   3.839   3.458   1.245  3.1077  0.8877 -1.7865
21396SOL     OW65955   6.552   9.107   8.572  0.1084 -0.1689 -0.0829
21396SOL    HW165956   6.515   9.047   8.637  2.6863  0.1122  1.8299
21396SOL    HW265957   6.536   9.194   8.608  2.6330 -0.0459  0.9480
21397SOL     OW65958   6.171   6.046   4.564  0.2918  0.5613  0.1543
21397SOL    HW165959   6.211   6.114   4.509 -1.3650  0.0088 -1.8495
21397SOL    HW265960   6.082   6.077   4.579 -0.6554 -1.3076 -1.1962
21398SOL     OW65961   3.154   0.622   7.423  0.0152 -0.0548 -0.2593
21398SOL    HW165962   3.131   0.616   7.330  1.0176  0.8851 -0.5793
21398SOL    HW265963   3.107   0.549   7.463  1.1979 -1.7766 -1.8355
21399SOL     OW65964   5.963   0.947   1.463  0.4212  0.0359  0.2950
21399SOL    HW165965   5.900   0.876   1.454 -0.3458  0.9132 -2.0860
21399SOL    HW265966   6.022   0.937   1.388  1.1458  1.1191  0.6871
21400SOL     OW65967   9.615   0.777   8.228  0.4158 -0.2558 -0.3086
21400SOL    HW165968   9.706   0.794   8.253  0.8205  1.7238 -2.7409
21400SOL    HW265969   9.615   0.780   8.132 -1.9211 -2.1357 -0.4688
21401SOL     OW65970   8.574   4.398   5.283 -0.6646  0.5622 -0.1222
21401SOL    HW165971   8.524   4.432   5.357  1.3806  1.3886  0.9706
21401SOL    HW265972   8.601   4.310   5.311 -2.4790 -0.4334 -1.2509
21402SOL     OW65973   9.113   8.313   5.760  0.1763 -0.4272  0.4575
21402SOL    HW165974   9.144   8.294   5.849 -1.2488  0.8349  1.2693
21402SOL    HW265975   9.180   8.371   5.724  0.1046  0.1510  1.2215
21403SOL     OW65976   7.381   1.615   5.435 -0.4384 -0.4199 -0.5382
21403SOL    HW165977   7.367   1.607   5.530 -0.9242 -1.8661 -0.7164
21403SOL    HW265978   7.472   1.587   5.422 -0.1834  0.3228 -0.4591
21404SOL     OW65979   8.061   5.980   0.649  0.0693 -0.1640 -0.3862
21404SOL    HW165980   8.119   6.050   0.678 -1.3172  0.9647 -0.2063
21404SOL    HW265981   7.973   6.015   0.662 -0.6585 -1.5174 -1.3656
21405SOL     OW65982   8.855   1.899   2.249  0.2856 -0.3478  0.4357
21405SOL    HW165983   8.868   1.956   2.324 -0.0064 -0.0105  0.2317
21405SOL    HW265984   8.892   1.815   2.276 -0.3433 -0.3941  1.1675
21406SOL     OW65985   6.407   9.245   2.007  0.3287  0.1226 -0.2505
21406SOL    HW165986   6.441   9.212   2.090  1.9672  0.3640 -0.7919
21406SOL    HW265987   6.338   9.183   1.983  1.9907 -1.8342 -0.2695
21407SOL     OW65988   4.095   5.271   7.018  0.5114  0.3093 -0.2774
21407SOL    HW165989   4.007   5.300   6.995  0.2757 -1.5462 -2.0427
21407SOL    HW265990   4.089   5.244   7.110 -1.1063 -0.8637 -0.6787
21408SOL     OW65991   0.087   1.306   5.117  0.1399  0.0384 -0.1860
21408SOL    HW165992   0.083   1.401   5.106  1.5288  0.0201 -1.0743
21408SOL    HW265993   0.161   1.291   5.175 -1.1276 -0.4447  1.3817
21409SOL     OW65994   7.239   2.957   1.313  0.6294 -0.2837  0.1925
21409SOL    HW165995   7.329   2.973   1.340  0.1575  0.9572  1.1873
21409SOL    HW265996   7.219   2.869   1.345  1.2631 -0.2708  0.6393
21410SOL     OW65997   0.230   0.938   7.825 -0.3167 -0.1528 -0.5331
21410SOL    HW165998   0.186   0.991   7.891 -0.2806 -1.3546  0.4833
21410SOL    HW265999   0.302   0.896   7.871  3.1354  3.0297 -2.4779
21411SOL     OW66000   3.110   9.139   1.393 -0.3972  0.0226 -0.3290
21411SOL    HW166001   3.028   9.188   1.397 -1.0146 -0.9744 -0.5262
21411SOL    HW266002   3.091   9.057   1.438 -0.3285 -1.3568 -2.6639
21412SOL     OW66003   5.094   2.810   5.203 -0.1022 -0.6647  0.1360
21412SOL    HW166004   5.099   2.846   5.292 -0.7199 -1.5928  0.5531
21412SOL    HW266005   5.185   2.803   5.174  0.0535  1.2901  0.0039
21413SOL     OW66006   0.386   9.503   7.035  0.3211  0.4304 -0.4479
21413SOL    HW166007   0.343   9.581   7.000 -0.0414  0.2943 -0.3072
21413SOL    HW266008   0.468   9.536   7.072  0.4343  0.6618 -0.8876
21414SOL     OW66009   2.355   0.089   6.414  0.3577 -0.1751 -0.1223
21414SOL    HW166010   2.332   0.039   6.492 -0.6827  0.2865 -0.1225
21414SOL    HW266011   2.338   0.180   6.437 -1.2102 -0.1313 -1.2908
21415SOL     OW66012   2.152   8.058   4.184 -0.1582 -0.1675 -0.0449
21415SOL    HW166013   2.084   8.007   4.229 -0.8988  0.3813 -0.5039
21415SOL    HW266014   2.110   8.142   4.165 -0.0568 -0.5261 -2.1580
21416SOL     OW66015   6.323   0.933   7.456  0.1948 -0.2689 -0.1791
21416SOL    HW166016   6.359   0.868   7.396  0.4025 -1.7644  1.4945
21416SOL    HW266017   6.237   0.899   7.480  0.0464  0.3894  0.2529
21417SOL     OW66018   1.683   6.997   5.419 -0.2176  0.0263 -0.4700
21417SOL    HW166019   1.743   6.968   5.488  0.8722  0.5308 -1.1703
21417SOL    HW266020   1.619   6.927   5.411 -0.6145  0.1419  1.3251
21418SOL     OW66021   4.433   7.592   2.971  0.5876 -0.1832 -0.1314
21418SOL    HW166022   4.513   7.619   2.927 -0.3792  1.8926 -0.7755
21418SOL    HW266023   4.426   7.498   2.952  2.2082 -0.1522 -1.1079
21419SOL     OW66024   8.282   1.955   8.972 -0.1337 -0.3672  0.1923
21419SOL    HW166025   8.370   1.917   8.979 -0.2095 -0.9707 -1.5425
21419SOL    HW266026   8.251   1.962   9.062  1.1214 -1.5391  0.7434
21420SOL     OW66027   2.606   4.110   5.393  0.4914 -0.4008  0.4572
21420SOL    HW166028   2.613   4.026   5.439 -1.5944 -1.2245 -0.6111
21420SOL    HW266029   2.549   4.162   5.449  0.3216 -0.3446  0.2296
21421SOL     OW66030   6.202   9.754   1.670 -0.0967 -0.4290  0.0156
21421SOL    HW166031   6.150   9.763   1.750 -1.6510 -0.3162 -0.9639
21421SOL    HW266032   6.250   9.672   1.682 -0.4531 -0.5180  0.9717
21422SOL     OW66033   4.680   6.264   3.346  0.4735 -0.4054  0.4865
21422SOL    HW166034   4.672   6.262   3.441 -1.1523  0.9632  0.4286
21422SOL    HW266035   4.675   6.172   3.319  0.8660 -0.7971  1.6995
21423SOL     OW66036   6.108   6.608   0.999 -0.1701  0.2057 -0.8646
21423SOL    HW166037   6.018   6.582   1.018 -1.5917  3.6164 -1.9866
21423SOL    HW266038   6.107   6.627   0.905  2.2246 -1.2429 -1.2400
21424SOL     OW66039   5.776   1.611   7.003  0.9366 -0.1263  0.5597
21424SOL    HW166040   5.744   1.595   6.915  1.6463 -0.6943  0.3958
21424SOL    HW266041   5.701   1.593   7.060  0.3367  0.7152  0.0522
21425SOL     OW66042   1.935   0.041   0.011 -0.0171 -0.3023 -0.1197
21425SOL    HW166043   1.908   0.121  -0.034  1.7115  0.7458  0.6156
21425SOL    HW266044   1.991  -0.004  -0.053  1.9406  0.8881  0.6789
21426SOL     OW66045   9.200   2.522   2.272  0.5100  0.2681  0.2167
21426SOL    HW166046   9.228   2.614   2.265  1.2831  0.0162 -0.1396
21426SOL    HW266047   9.280   2.474   2.292  0.7484 -0.7001 -2.5139
21427SOL     OW66048   8.538   6.035   8.617  0.1910  0.5900 -0.2698
21427SOL    HW166049   8.557   6.129   8.623  1.1991  0.4593 -1.1783
21427SOL    HW266050   8.617   5.992   8.649 -0.9355 -0.0045  2.0018
21428SOL     OW66051   0.073   4.553   0.739 -0.1377  0.3742  0.7808
21428SOL    HW166052   0.031   4.519   0.817  0.7384 -0.1224  1.0576
21428SOL    HW266053   0.166   4.557   0.762  0.2738 -0.7134 -0.5350
21429SOL     OW66054   2.271   8.068   9.646 -0.6512 -0.2082  0.0541
21429SOL    HW166055   2.355   8.024   9.641 -1.0929 -1.0327 -0.3761
21429SOL    HW266056   2.262   8.114   9.562 -1.1441 -1.0999 -0.3920
21430SOL     OW66057   4.778   5.667   7.580 -0.5668  0.6046  0.9702
21430SOL    HW166058   4.872   5.674   7.570 -0.4881  0.1890  1.3814
21430SOL    HW266059   4.742   5.714   7.504 -0.0388  1.0839  1.0055
21431SOL     OW66060   1.746   1.761   1.186 -0.5322  0.1390 -0.4276
21431SOL    HW166061   1.774   1.699   1.253  0.7201 -1.7892 -2.5945
21431SOL    HW266062   1.788   1.730   1.105 -0.7329  3.2173 -1.8481
21432SOL     OW66063   2.735   6.926   6.520  0.1311  0.0475  0.2714
21432SOL    HW166064   2.795   6.871   6.470  0.0904  0.0652  0.2015
21432SOL    HW266065   2.791   6.990   6.565  0.1096  0.5864 -0.4410
21433SOL     OW66066   2.678   7.334   5.657 -0.1839  0.1453 -0.0918
21433SOL    HW166067   2.648   7.363   5.744  2.1636 -0.9224  1.1767
21433SOL    HW266068   2.599   7.332   5.604 -1.7147  0.8881  2.0099
21434SOL     OW66069   3.394   1.317   0.672 -0.1147 -0.5375  0.1521
21434SOL    HW166070   3.316   1.328   0.617 -2.2275 -2.9594  2.4146
21434SOL    HW266071   3.367   1.257   0.741  2.8850  0.9161  2.8734
21435SOL     OW66072   9.130   5.436   0.299 -0.0950 -0.0951  0.3134
21435SOL    HW166073   9.171   5.498   0.360 -1.1641  0.0995  0.8583
21435SOL    HW266074   9.075   5.491   0.243  2.3482  0.0100 -2.1968
21436SOL     OW66075   2.308   3.208   5.222 -0.0498 -0.3416 -0.0001
21436SOL    HW166076   2.219   3.222   5.255  0.1043 -2.2394  1.3290
21436SOL    HW266077   2.346   3.296   5.218 -1.1958  0.2829  1.7114
21437SOL     OW66078   4.804   7.396   3.575  0.2890  0.2080 -0.5961
21437SOL    HW166079   4.778   7.487   3.566 -1.4901 -0.1425  0.5205
21437SOL    HW266080   4.724   7.346   3.560  1.1299 -1.1740 -0.7733
21438SOL     OW66081   6.761   6.845   2.273  0.2766  0.1913  0.3667
21438SOL    HW166082   6.774   6.838   2.367  1.1205 -2.0795  0.1318
21438SOL    HW266083   6.733   6.758   2.246 -0.5748  0.9653 -1.4220
21439SOL     OW66084   3.992   2.240   6.035  0.0863  0.0446  0.1963
21439SOL    HW166085   3.961   2.308   5.975  0.0843 -0.7030 -0.6738
21439SOL    HW266086   3.913   2.194   6.061  0.3877 -2.4552 -2.7477
21440SOL     OW66087   6.517   8.540   3.771  0.0141  0.4052 -0.0186
21440SOL    HW166088   6.589   8.540   3.708 -0.3111 -1.4001 -0.4421
21440SOL    HW266089   6.557   8.508   3.852  0.0291  0.9898  0.2130
21441SOL     OW66090   8.122   1.020   0.361 -0.3644  0.0728  0.1861
21441SOL    HW166091   8.130   1.074   0.283  1.6270 -1.3059 -0.6350
21441SOL    HW266092   8.177   1.063   0.426  0.6739 -0.5424 -0.2564
21442SOL     OW66093   6.529   4.457   6.332 -0.0227 -0.4301  0.3399
21442SOL    HW166094   6.590   4.530   6.340 -1.2686  0.6844  0.0501
21442SOL    HW266095   6.490   4.468   6.245 -0.3251 -1.3782  0.3457
21443SOL     OW66096   5.305   4.951   7.967  0.0584 -0.2066  0.4851
21443SOL    HW166097   5.362   4.879   7.992  0.2130 -0.2147  0.1112
21443SOL    HW266098   5.347   4.991   7.891  0.3932  0.7761  1.1636
21444SOL     OW66099   3.126   9.134   6.366 -0.0167  0.8269  0.4604
21444SOL    HW166100   3.185   9.140   6.290  0.7946  1.3591  1.1220
21444SOL    HW266101   3.112   9.040   6.378  0.1840  0.7241 -0.0865
21445SOL     OW66102   9.280   8.508   3.825  0.0322 -0.0720  0.4888
21445SOL    HW166103   9.202   8.466   3.788 -0.5924  1.0195  0.5056
21445SOL    HW266104   9.254   8.599   3.838  1.1591  0.2004  0.9757
21446SOL     OW66105   3.442   1.887   5.254 -0.6498  0.5344 -0.7032
21446SOL    HW166106   3.423   1.825   5.183  0.7586 -0.5917 -0.1614
21446SOL    HW266107   3.435   1.973   5.214 -1.5122 -0.0174 -1.7872
21447SOL     OW66108   8.752   2.382   1.070  0.1969 -0.6221 -0.3069
21447SOL    HW166109   8.815   2.429   1.126 -0.1570 -0.2298 -0.2315
21447SOL    HW266110   8.806   2.331   1.011  0.6406  0.9664 -1.3308
21448SOL     OW66111   2.310   2.386   3.401 -0.0404  0.3770  0.1298
21448SOL    HW166112   2.271   2.359   3.318 -0.8460  0.5775  0.4313
21448SOL    HW266113   2.404   2.375   3.388 -0.2524 -1.2139 -0.2309
21449SOL     OW66114   4.899   2.567   1.328 -0.5472 -0.6013 -0.2740
21449SOL    HW166115   4.905   2.627   1.253  1.1825 -1.2366 -0.6788
21449SOL    HW266116   4.914   2.480   1.290 -0.0794 -0.9743  0.7345
21450SOL     OW66117   1.887   3.329   4.113 -0.2260  0.4169  0.2100
21450SOL    HW166118   1.832   3.274   4.058 -1.4439 -0.1956  1.9350
21450SOL    HW266119   1.884   3.415   4.072 -2.3555  0.3565  0.1298
21451SOL     OW66120   3.053   2.520   7.745  0.5854  0.3346 -0.8241
21451SOL    HW166121   3.107   2.579   7.693  1.1791  1.1587  0.6688
21451SOL    HW266122   3.016   2.575   7.814  0.2053 -0.8066 -0.0805
21452SOL     OW66123   5.898   3.746   4.656 -0.5084  0.0654  0.1486
21452SOL    HW166124   5.823   3.701   4.617 -2.3868  1.7402  1.5711
21452SOL    HW266125   5.928   3.806   4.588 -2.0180  1.0344  0.2735
21453SOL     OW66126   3.520   0.063   6.633  0.0882  0.3834 -0.2462
21453SOL    HW166127   3.515   0.028   6.722  1.7060  0.9177  0.0832
21453SOL    HW266128   3.445   0.122   6.627  0.1708  0.6374  0.9041
21454SOL     OW66129   2.001   1.593   3.820 -0.7075  0.0528 -0.0273
21454SOL    HW166130   1.958   1.614   3.738 -0.3405 -1.5963 -0.6865
21454SOL    HW266131   2.082   1.644   3.819 -0.8219  0.2231 -0.5889
21455SOL     OW66132   7.979   6.299   2.954  0.1197  1.0616 -0.4380
21455SOL    HW166133   7.933   6.220   2.925  2.8268 -0.8686  0.0739
21455SOL    HW266134   7.999   6.346   2.873 -1.6230  1.3251 -0.7419
21456SOL     OW66135   8.803   7.011   7.765  0.2585  0.4934  0.0803
21456SOL    HW166136   8.751   6.938   7.799  1.9383 -1.1289 -0.6619
21456SOL    HW266137   8.782   7.085   7.823 -1.0584 -0.7200  1.2135
21457SOL     OW66138   3.925   4.793   6.895  0.3019  0.3459  1.3413
21457SOL    HW166139   3.972   4.870   6.927 -0.8742  0.2646  3.4932
21457SOL    HW266140   3.864   4.828   6.830 -1.7485  1.7354  3.7952
21458SOL     OW66141   1.950   8.535   8.749 -0.2259 -0.2050 -0.3237
21458SOL    HW166142   2.025   8.487   8.715  0.0542 -2.5294  3.0983
21458SOL    HW266143   1.876   8.509   8.693  0.9011 -0.2292 -1.8661
21459SOL     OW66144   2.254   0.347   0.898 -0.3624  0.1804  0.5465
21459SOL    HW166145   2.237   0.412   0.966 -3.5325  2.3869 -2.0778
21459SOL    HW266146   2.203   0.270   0.925  0.3123  0.1233  1.7500
21460SOL     OW66147   4.501   0.384   8.602  0.1294 -0.2889 -0.3509
21460SOL    HW166148   4.447   0.463   8.605  0.7231  0.2972 -2.7959
21460SOL    HW266149   4.447   0.321   8.554  0.5249 -0.6353 -0.3437
21461SOL     OW66150   3.046   4.665   1.819 -0.1772  0.3058 -0.1376
21461SOL    HW166151   3.031   4.757   1.796  0.6442  0.3499 -0.5592
21461SOL    HW266152   2.992   4.616   1.757  1.1882  0.4602 -1.5375
21462SOL     OW66153   2.527   0.876   8.370  0.0785 -0.9240 -0.4823
21462SOL    HW166154   2.512   0.869   8.465  0.0456 -0.4296 -0.4513
21462SOL    HW266155   2.462   0.939   8.340  1.4667  0.5491 -0.4991
21463SOL     OW66156   1.357   0.803   7.457 -0.1638  0.4811 -0.0204
21463SOL    HW166157   1.430   0.761   7.503 -0.3385  0.5133  0.2903
21463SOL    HW266158   1.399   0.856   7.389  0.1671  1.2371  0.7505
21464SOL     OW66159   7.954   7.333   6.074 -0.0122 -0.1915  0.2354
21464SOL    HW166160   8.042   7.296   6.083 -0.2767 -0.9626 -0.3411
21464SOL    HW266161   7.963   7.423   6.108  0.4195 -1.0274  2.5720
21465SOL     OW66162   0.764   9.662   5.051 -0.1386 -0.1560  0.5392
21465SOL    HW166163   0.845   9.623   5.085  0.3702  0.9499  0.6335
21465SOL    HW266164   0.789   9.702   4.968  0.2528  3.0592  2.0646
21466SOL     OW66165   2.020   4.265   1.176  0.1671  0.3630 -0.1743
21466SOL    HW166166   1.975   4.217   1.246 -0.4489  0.2212 -0.6508
21466SOL    HW266167   2.110   4.274   1.206 -0.1755  0.6375  0.8070
21467SOL     OW66168   5.919   6.527   2.976  0.5552  0.1866  0.0277
21467SOL    HW166169   5.977   6.452   2.982 -0.7888 -1.0293 -1.2067
21467SOL    HW266170   5.941   6.581   3.052  1.8960 -1.1966  0.6794
21468SOL     OW66171   8.506   0.561   2.827 -0.3773 -0.9419 -1.3799
21468SOL    HW166172   8.432   0.613   2.797 -0.6446 -0.6565 -0.2912
21468SOL    HW266173   8.514   0.583   2.920  1.3423 -0.6336 -1.5718
21469SOL     OW66174   7.521   5.185   8.949  0.5387 -0.2653 -0.3951
21469SOL    HW166175   7.569   5.152   9.025 -0.3645  1.7824  1.1463
21469SOL    HW266176   7.581   5.247   8.908  0.6362 -0.5934 -0.7524
21470SOL     OW66177   8.436   0.976   5.078  0.0897 -0.6650  0.0865
21470SOL    HW166178   8.356   0.933   5.109 -0.0184 -0.7649 -0.3311
21470SOL    HW266179   8.493   0.978   5.155 -0.4209 -0.3321  0.4634
21471SOL     OW66180   6.398   7.044   8.784  0.0938  0.5817  0.0653
21471SOL    HW166181   6.309   7.010   8.775  0.7027 -1.0944 -0.0002
21471SOL    HW266182   6.415   7.045   8.878  0.1988  0.3905  0.0480
21472SOL     OW66183   2.634   9.135   0.333  0.1737 -0.2332  0.2408
21472SOL    HW166184   2.552   9.087   0.325 -0.2847  0.5969 -0.1625
21472SOL    HW266185   2.611   9.225   0.313  1.0265  0.1602  0.9509
21473SOL     OW66186   5.481   3.441   1.105  0.1368  0.3959 -0.5840
21473SOL    HW166187   5.565   3.397   1.090 -0.6241 -1.5656  0.5246
21473SOL    HW266188   5.437   3.439   1.020  0.2021 -0.8894 -0.6115
21474SOL     OW66189   9.824   5.051   5.993  0.4432  0.0200 -0.0653
21474SOL    HW166190   9.870   5.110   5.932 -0.6689  0.5843 -0.3930
21474SOL    HW266191   9.768   5.109   6.044  0.2962 -0.6208  0.5126
21475SOL     OW66192   4.866   5.746   2.161 -0.4414  0.1429  0.1055
21475SOL    HW166193   4.781   5.779   2.189 -0.8491 -0.3199 -0.5463
21475SOL    HW266194   4.896   5.809   2.095  0.2012  0.8606  1.0657
21476SOL     OW66195   2.753   8.931   5.600  0.0733 -0.4647  0.2427
21476SOL    HW166196   2.828   8.881   5.632  0.5722  0.5194  0.6458
21476SOL    HW266197   2.703   8.953   5.679 -0.2316 -0.4696  0.0535
21477SOL     OW66198   7.325   8.604   6.787  0.2085 -0.2852  0.5625
21477SOL    HW166199   7.282   8.684   6.756  0.5322 -0.5668 -0.6407
21477SOL    HW266200   7.287   8.534   6.734  0.4927 -0.8316  1.0749
21478SOL     OW66201   3.222   8.402   8.747 -0.4481  0.1693  0.7966
21478SOL    HW166202   3.247   8.317   8.709 -1.6043  0.1889 -0.0635
21478SOL    HW266203   3.142   8.384   8.796 -0.0076  0.5325  1.6759
21479SOL     OW66204   6.104   4.797   2.644 -0.2350 -0.1176 -0.4157
21479SOL    HW166205   6.193   4.828   2.662 -0.7136  0.9051  0.2772
21479SOL    HW266206   6.049   4.846   2.705 -1.1427 -1.6416  0.0514
21480SOL     OW66207   8.716   7.937   0.402 -0.0920  0.0861 -0.1746
21480SOL    HW166208   8.639   7.992   0.385 -0.1864 -0.5622 -2.0448
21480SOL    HW266209   8.751   7.918   0.316  0.6947 -1.7429  0.5087
21481SOL     OW66210   4.911   8.931   0.391 -0.1955  0.3641 -0.6428
21481SOL    HW166211   4.965   9.008   0.410  0.1577  0.3271 -1.4477
21481SOL    HW266212   4.836   8.966   0.343 -0.1334  0.2410 -0.8331
21482SOL     OW66213   5.383   1.729   6.067 -0.3989 -0.3095 -0.1629
21482SOL    HW166214   5.365   1.712   5.975 -0.6478 -1.3379  0.0662
21482SOL    HW266215   5.432   1.653   6.097 -0.8338 -0.2671  0.7038
21483SOL     OW66216   5.538   8.213   4.428 -0.1573 -0.0888 -0.5467
21483SOL    HW166217   5.479   8.158   4.479 -0.0492  0.1942 -0.1087
21483SOL    HW266218   5.605   8.152   4.396  0.4553 -0.0985  0.6646
21484SOL     OW66219   2.106   0.424   6.636  0.0580  0.3351  0.0955
21484SOL    HW166220   2.138   0.391   6.552  0.5480  0.3628  0.2627
21484SOL    HW266221   2.011   0.429   6.627 -0.0498 -1.2761  0.1233
21485SOL     OW66222   5.173   9.189   4.288 -0.0209 -0.0692  0.4041
21485SOL    HW166223   5.116   9.264   4.271 -0.9109 -0.4793  1.4314
21485SOL    HW266224   5.231   9.219   4.358  0.8959  0.2709 -0.4828
21486SOL     OW66225   9.763   6.061   5.987  0.0232 -0.4940  0.3318
21486SOL    HW166226   9.672   6.034   5.983 -0.0643 -0.1435 -0.1996
21486SOL    HW266227   9.761   6.148   6.026  0.2848 -1.1330  1.8441
21487SOL     OW66228   0.317   0.749   3.019 -0.5302 -0.1168 -0.1602
21487SOL    HW166229   0.288   0.824   2.967 -0.3354 -0.3790 -0.6585
21487SOL    HW266230   0.270   0.757   3.102 -1.0907  0.1351 -0.4951
21488SOL     OW66231   6.685   5.074   7.042 -0.1411 -0.0698 -0.7955
21488SOL    HW166232   6.657   5.008   7.106 -0.5340  1.0076  0.1902
21488SOL    HW266233   6.715   5.023   6.967 -0.4334 -1.3674 -0.0755
21489SOL     OW66234   3.925   9.471   5.376  0.0610 -0.0888 -0.0139
21489SOL    HW166235   3.976   9.441   5.301  0.2607 -1.5587  0.6626
21489SOL    HW266236   3.978   9.446   5.452 -0.6245  0.4092  0.6397
21490SOL     OW66237   1.702   5.739   2.001  0.4440 -0.1059 -0.7360
21490SOL    HW166238   1.661   5.795   2.066 -0.0700 -0.4971 -0.7130
21490SOL    HW266239   1.792   5.770   1.995  0.2565  0.4934 -0.4771
21491SOL     OW66240   0.319   4.967   2.783 -0.1067  0.1671 -1.1009
21491SOL    HW166241   0.239   4.915   2.775  0.4995 -0.9804 -0.0784
21491SOL    HW266242   0.367   4.949   2.703 -0.1490 -0.4377 -0.9964
21492SOL     OW66243   7.529   8.822   7.471 -0.2132 -0.9258 -0.1384
21492SOL    HW166244   7.519   8.859   7.383 -0.4693  0.0406  0.2834
21492SOL    HW266245   7.566   8.735   7.457  1.2549 -0.1733 -1.1214
21493SOL     OW66246   4.211   9.323   2.537 -0.6352  1.0749  0.3479
21493SOL    HW166247   4.233   9.363   2.453 -0.3036  0.0279 -0.0845
21493SOL    HW266248   4.269   9.366   2.601 -0.2798  1.2661 -0.0975
21494SOL     OW66249   1.941   7.179   2.638 -0.3086  0.0763 -0.0302
21494SOL    HW166250   2.016   7.159   2.695 -0.4395  0.0437  0.1313
21494SOL    HW266251   1.920   7.095   2.598 -0.4827  0.0108  0.1957
21495SOL     OW66252   5.396   5.859   6.828  0.2420 -0.2521  0.4446
21495SOL    HW166253   5.368   5.771   6.803 -0.2169  0.2720 -0.9859
21495SOL    HW266254   5.315   5.905   6.848  0.2933  0.4349 -0.8615
21496SOL     OW66255   0.374   2.942   5.153 -0.0762 -0.4240 -0.1599
21496SOL    HW166256   0.450   2.988   5.116  0.4166  0.1322  1.4556
21496SOL    HW266257   0.311   2.940   5.082  1.1178 -0.1125 -1.2741
21497SOL     OW66258   2.770   4.158   6.087 -0.3109 -0.6970 -0.0199
21497SOL    HW166259   2.814   4.238   6.057 -0.6931 -1.2172 -2.1510
21497SOL    HW266260   2.700   4.145   6.023 -1.0104 -2.0828  1.0006
21498SOL     OW66261   3.921   3.076   8.869  0.3554  0.1984 -0.4625
21498SOL    HW166262   3.905   2.987   8.902 -2.2406  0.3361 -1.1262
21498SOL    HW266263   3.922   3.066   8.774  0.4290  0.8219 -0.5291
21499SOL     OW66264   0.995   4.342   6.348 -0.0304 -0.0296  0.4646
21499SOL    HW166265   1.064   4.278   6.367 -0.5557 -0.6297  0.3545
21499SOL    HW266266   0.914   4.292   6.351 -0.2613  0.0966 -2.1296
21500SOL     OW66267   1.326   1.371   4.377  0.0587  0.3919 -0.2451
21500SOL    HW166268   1.370   1.326   4.304  2.6532  1.6084  0.4461
21500SOL    HW266269   1.329   1.308   4.449  1.1143  0.5873 -0.0959
21501SOL     OW66270   2.446   8.944   6.327 -0.1164 -0.3508  0.1248
21501SOL    HW166271   2.475   8.910   6.412  2.3917  0.6842 -0.2435
21501SOL    HW266272   2.356   8.972   6.342  0.1637 -0.4838  2.3685
21502SOL     OW66273   9.709   7.114   2.433 -0.1479  0.3811 -0.3030
21502SOL    HW166274   9.751   7.141   2.515 -1.4999  0.5842  0.3558
21502SOL    HW266275   9.679   7.195   2.393 -0.3419  0.2060 -0.5154
21503SOL     OW66276   8.118   9.777   7.617 -0.4930  0.2688  0.4654
21503SOL    HW166277   8.147   9.808   7.703 -1.8502 -0.7332  1.3095
21503SOL    HW266278   8.174   9.702   7.598 -1.0627 -0.3171  1.0851
21504SOL     OW66279   9.421   3.934   1.024 -0.2022  0.2939 -0.6432
21504SOL    HW166280   9.440   3.880   0.947  1.2915 -0.3050  0.1010
21504SOL    HW266281   9.505   3.940   1.069 -1.1933  0.0793  1.2984
21505SOL     OW66282   1.085   8.842   1.055 -0.3888  0.5148 -0.4368
21505SOL    HW166283   1.029   8.764   1.054  0.5637 -0.2248  0.6622
21505SOL    HW266284   1.171   8.810   1.030  0.0803  1.1490  0.2997
21506SOL     OW66285   3.696   5.332   3.201  0.3814  0.2336  0.1099
21506SOL    HW166286   3.790   5.318   3.189  0.2040  0.2867 -1.7636
21506SOL    HW266287   3.656   5.255   3.160 -0.3949  1.0501 -0.7209
21507SOL     OW66288   0.286   7.976   0.302 -0.2895 -0.2135  0.4288
21507SOL    HW166289   0.221   8.042   0.278 -1.1846 -1.2943 -0.2561
21507SOL    HW266290   0.336   8.015   0.373 -0.5044  1.3613 -0.2469
21508SOL     OW66291   4.248   0.539   4.963  0.4561 -0.6644 -0.1203
21508SOL    HW166292   4.292   0.456   4.943 -0.5429 -1.0994 -0.5742
21508SOL    HW266293   4.170   0.513   5.012  0.5971  0.0829  0.5126
21509SOL     OW66294   8.211   1.793   4.326  0.0796  0.1381  0.6620
21509SOL    HW166295   8.204   1.701   4.352 -3.0762  0.5961  1.8198
21509SOL    HW266296   8.301   1.817   4.348  0.6024 -2.3199  1.4968
21510SOL     OW66297   1.360   0.832   0.781 -0.7859 -0.0943 -0.2162
21510SOL    HW166298   1.281   0.879   0.755 -0.8810 -0.9720 -1.6054
21510SOL    HW266299   1.350   0.745   0.742  0.9260 -0.1750 -0.5344
21511SOL     OW66300   8.225   6.257   8.004  0.1667 -0.5527 -0.5505
21511SOL    HW166301   8.133   6.232   7.994  0.5384 -1.6410 -1.5672
21511SOL    HW266302   8.243   6.245   8.098 -0.6078 -0.7456 -0.4192
21512SOL     OW66303   7.118   5.820   9.154 -0.0124 -0.0005  0.0465
21512SOL    HW166304   7.096   5.781   9.069  0.2064 -1.6914  0.7214
21512SOL    HW266305   7.052   5.888   9.166 -1.0824 -0.8423 -0.7504
21513SOL     OW66306   8.560   9.234   6.530 -0.0179  0.0004 -0.0035
21513SOL    HW166307   8.465   9.223   6.532 -0.0029 -0.0177  0.6477
21513SOL    HW266308   8.572   9.328   6.515 -0.1575  0.2947  1.5247
21514SOL     OW66309   4.573   7.932   5.611  0.1519 -0.1480  0.2726
21514SOL    HW166310   4.491   7.885   5.598 -0.3276  0.1782  1.9251
21514SOL    HW266311   4.630   7.899   5.542 -0.6141 -2.1146  0.5037
21515SOL     OW66312   5.287   0.493   6.180  0.0920  0.4714 -0.0906
21515SOL    HW166313   5.224   0.504   6.109  1.4357 -0.8809 -1.5615
21515SOL    HW266314   5.233   0.489   6.259 -1.7895 -1.3456 -1.3449
21516SOL     OW66315   2.073   1.307   7.606 -0.4604 -1.0180  0.3036
21516SOL    HW166316   2.123   1.335   7.683 -0.8035 -0.6897  0.4104
21516SOL    HW266317   2.050   1.389   7.562  1.2450 -1.2557 -1.1293
21517SOL     OW66318   2.946   6.784   3.147  0.1420  0.0669  0.9362
21517SOL    HW166319   2.860   6.811   3.114  0.1214 -0.3900  0.6135
21517SOL    HW266320   2.993   6.752   3.070  0.0387 -1.1520  1.3615
21518SOL     OW66321   3.126   4.153   9.603  0.0795  0.5370 -0.5674
21518SOL    HW166322   3.164   4.065   9.596  0.2213  0.3550  1.7524
21518SOL    HW266323   3.067   4.159   9.528  2.1324 -0.4476 -2.3863
21519SOL     OW66324   4.576   8.266   2.737 -0.1860  0.1561 -0.3217
21519SOL    HW166325   4.649   8.221   2.779 -0.7279  0.0387  0.5342
21519SOL    HW266326   4.512   8.278   2.807 -1.0461  0.1317 -1.0782
21520SOL     OW66327   5.050   3.299   7.481 -0.2291  0.1084  0.0076
21520SOL    HW166328   5.125   3.255   7.522 -1.2711 -0.4555  1.3602
21520SOL    HW266329   5.049   3.386   7.521 -2.8190 -1.2784  3.4171
21521SOL     OW66330   6.264   8.034   1.249  0.1458  0.2659 -0.3992
21521SOL    HW166331   6.208   8.112   1.248 -0.0618  0.1381  0.3479
21521SOL    HW266332   6.203   7.961   1.254  0.1424 -0.2214 -4.3731
21522SOL     OW66333   0.107   9.793   0.500  0.0685 -0.4616 -0.2412
21522SOL    HW166334   0.066   9.707   0.515 -0.2580 -0.2362  0.1829
21522SOL    HW266335   0.084   9.815   0.410 -0.3038 -0.5823 -0.1813
21523SOL     OW66336   2.357   8.517   2.875 -0.0849  0.4941 -0.4901
21523SOL    HW166337   2.304   8.597   2.872  1.3279  1.4339 -1.8149
21523SOL    HW266338   2.318   8.466   2.946 -0.0140  3.0929  1.6072
21524SOL     OW66339   0.576   6.196   4.052 -0.0656 -0.2061  0.4658
21524SOL    HW166340   0.553   6.107   4.078  0.1107  0.0957  1.7225
21524SOL    HW266341   0.492   6.237   4.029 -0.2123 -0.5140  0.4488
21525SOL     OW66342   0.029   9.347   5.738 -0.2636  0.8180  0.2256
21525SOL    HW166343  -0.047   9.405   5.750  0.5091  2.0624 -0.6791
21525SOL    HW266344   0.006   9.291   5.664 -0.5863  0.7006  0.4138
21526SOL     OW66345   5.329   9.619   9.795  0.2665 -1.0561 -0.2846
21526SOL    HW166346   5.312   9.557   9.723 -4.3585 -1.1953  0.6013
21526SOL    HW266347   5.342   9.563   9.872 -1.7930 -1.0619  0.1241
21527SOL     OW66348   4.842   8.954   2.988  0.4147  0.6438 -0.0581
21527SOL    HW166349   4.869   8.985   2.902  0.0485  1.9461  0.2778
21527SOL    HW266350   4.898   8.878   3.005  0.7722  0.6182 -1.2553
21528SOL     OW66351   4.601   8.180   7.088 -0.6995  0.5713  0.1014
21528SOL    HW166352   4.655   8.124   7.145 -1.4227 -1.1782 -0.8706
21528SOL    HW266353   4.661   8.249   7.058 -0.1555  1.2119  2.4660
21529SOL     OW66354   1.122   5.673   7.579  0.7886 -0.0526 -0.0727
21529SOL    HW166355   1.112   5.730   7.502 -0.3629  0.4186  0.3988
21529SOL    HW266356   1.205   5.629   7.566  1.0138  0.6660 -1.1745
21530SOL     OW66357   3.718   4.535   7.486  0.0967 -0.3078 -0.1329
21530SOL    HW166358   3.703   4.443   7.465  0.1399 -0.1927 -0.6796
21530SOL    HW266359   3.658   4.583   7.429  0.8812  0.0531 -0.6687
21531SOL     OW66360   1.806   3.832   8.908 -0.2474  0.5579 -0.0970
21531SOL    HW166361   1.862   3.755   8.919  0.9252  1.5072  0.7917
21531SOL    HW266362   1.729   3.799   8.862 -0.4033 -1.4261  1.4710
21532SOL     OW66363   8.583   4.859   6.802  0.4996 -0.5459  0.0296
21532SOL    HW166364   8.509   4.919   6.815  1.0414  0.1006  0.1770
21532SOL    HW266365   8.647   4.912   6.754  0.9376 -1.0517  0.0592
21533SOL     OW66366   3.371   5.961   8.301 -0.0754  0.0859  0.2535
21533SOL    HW166367   3.450   5.945   8.353  0.9401  0.1680 -1.2115
21533SOL    HW266368   3.400   6.019   8.231 -1.6009  0.6481  0.0516
21534SOL     OW66369   4.278   4.304   0.425  0.3273  0.6574 -0.5431
21534SOL    HW166370   4.214   4.293   0.355 -1.3848 -0.8334  1.1598
21534SOL    HW266371   4.247   4.380   0.474  1.4263  1.5877 -1.2149
21535SOL     OW66372   6.993   9.562   5.860 -0.0975 -0.2396  0.0197
21535SOL    HW166373   6.956   9.638   5.904 -0.6527 -0.5652  0.1205
21535SOL    HW266374   7.067   9.537   5.915 -0.6681 -0.5238  0.6683
21536SOL     OW66375   2.938   0.457   5.453  0.6407 -0.0696 -0.2543
21536SOL    HW166376   2.942   0.549   5.428 -0.0982  0.0502  0.0546
21536SOL    HW266377   2.994   0.450   5.530 -0.2186  0.3626  0.4201
21537SOL     OW66378   9.822   9.440   4.275 -0.4599  0.3378  0.0893
21537SOL    HW166379   9.728   9.441   4.292 -0.9425 -0.1607 -2.2151
21537SOL    HW266380   9.862   9.461   4.359 -2.6615  1.7407  0.8659
21538SOL     OW66381   0.742   6.450   6.245  0.4466 -0.2420 -0.2132
21538SOL    HW166382   0.765   6.408   6.162 -1.2849  0.2544 -1.0026
21538SOL    HW266383   0.654   6.484   6.230  0.3955  0.5133  1.6016
21539SOL     OW66384   8.186   3.881   6.299  0.3266  0.4339  0.0278
21539SOL    HW166385   8.256   3.932   6.338 -0.2237  1.1790  0.0694
21539SOL    HW266386   8.127   3.946   6.261 -0.3955 -0.1706  0.0899
21540SOL     OW66387   4.083   4.743   7.280 -0.0782 -0.0165 -0.3557
21540SOL    HW166388   4.063   4.820   7.227  0.2858  0.9249  0.8232
21540SOL    HW266389   4.163   4.707   7.241  0.6587  1.1429  0.0371
21541SOL     OW66390   5.464   3.974   0.706  0.0741 -0.2560 -0.4871
21541SOL    HW166391   5.383   3.929   0.686 -0.1697  0.5977 -1.5514
21541SOL    HW266392   5.437   4.052   0.755  0.4933 -1.2467  1.4019
21542SOL     OW66393   4.599   8.056   4.812 -0.0368  0.9060  1.0357
21542SOL    HW166394   4.618   8.121   4.745  1.5760 -0.2937  0.2647
21542SOL    HW266395   4.504   8.063   4.826 -0.2171  1.9953 -0.4896
21543SOL     OW66396   4.223   4.676   8.459 -0.9696 -0.8423  0.7377
21543SOL    HW166397   4.307   4.722   8.455 -1.5671  0.1882 -1.2939
21543SOL    HW266398   4.179   4.715   8.535 -0.0868 -0.5465  1.1119
21544SOL     OW66399   5.431   8.552   9.604  0.2324 -0.0252 -0.3809
21544SOL    HW166400   5.432   8.641   9.639 -0.5828  0.2721 -1.0775
21544SOL    HW266401   5.393   8.500   9.675 -1.3891  0.5669 -0.7714
21545SOL     OW66402   3.177   6.646   6.521 -0.1003 -0.6006  0.1339
21545SOL    HW166403   3.134   6.611   6.599 -0.7792 -1.0824 -0.4472
21545SOL    HW266404   3.230   6.573   6.488 -0.3359 -0.6085 -0.2297
21546SOL     OW66405   3.607   5.830   3.153  0.6032 -0.0551 -0.2576
21546SOL    HW166406   3.618   5.735   3.148  1.1176 -0.1521  1.8555
21546SOL    HW266407   3.697   5.865   3.150  0.4102  0.4004 -1.1951
21547SOL     OW66408   2.099   4.650   7.608 -0.0864  0.2215 -0.0757
21547SOL    HW166409   2.097   4.561   7.573  0.1065  0.4609 -0.7192
21547SOL    HW266410   2.185   4.657   7.650 -0.6803 -0.3681  1.2901
21548SOL     OW66411   2.657   8.070   4.102  0.3891  0.2473  0.5693
21548SOL    HW166412   2.595   8.143   4.103 -1.0768 -0.9404  0.8247
21548SOL    HW266413   2.658   8.042   4.010  0.6977  0.3776  0.5319
21549SOL     OW66414   8.062   8.662   4.118  0.3355 -0.5276 -0.2246
21549SOL    HW166415   7.983   8.609   4.131  0.1165 -0.1884 -0.1462
21549SOL    HW266416   8.083   8.653   4.025  0.5211 -1.0560 -0.1308
21550SOL     OW66417   9.377   7.815   2.354  0.1727 -0.2391 -0.5423
21550SOL    HW166418   9.370   7.811   2.258  1.6105  0.7496 -0.7174
21550SOL    HW266419   9.401   7.906   2.372  1.9749 -0.8846  0.5838
21551SOL     OW66420   3.815   0.780   5.446  0.1524  0.3210  0.5057
21551SOL    HW166421   3.734   0.750   5.489  0.0569 -2.2379 -1.1943
21551SOL    HW266422   3.785   0.815   5.362  0.7364  0.3348  0.3045
21552SOL     OW66423   4.986   1.905   8.157  0.1174  0.1764 -0.4256
21552SOL    HW166424   4.925   1.882   8.087 -0.2302 -0.8531  0.1875
21552SOL    HW266425   5.073   1.889   8.121 -0.1038 -2.2827 -0.0206
21553SOL     OW66426   8.441   2.291   6.928 -0.5422 -0.2644 -0.2670
21553SOL    HW166427   8.451   2.285   7.023 -1.3715 -0.8215 -0.2079
21553SOL    HW266428   8.347   2.293   6.914 -0.4295 -0.8125 -1.1177
21554SOL     OW66429   3.972   0.028   1.948  0.1825  0.0581  0.0772
21554SOL    HW166430   4.032  -0.020   1.892  0.6803 -0.7360  1.2556
21554SOL    HW266431   3.910  -0.038   1.979 -1.9196  1.0013 -1.8237
21555SOL     OW66432   4.038   4.941   1.060 -0.2828 -0.2006  0.5972
21555SOL    HW166433   4.075   4.868   1.010 -0.4963  0.7187 -0.9885
21555SOL    HW266434   3.953   4.910   1.089 -0.3073 -0.6515  0.0594
21556SOL     OW66435   5.589   8.093   7.690  0.0470  0.2392 -0.4726
21556SOL    HW166436   5.499   8.066   7.670  0.0388 -0.9258  0.9626
21556SOL    HW266437   5.643   8.021   7.656  0.3626  0.4672 -0.4506
21557SOL     OW66438   9.276   6.680   6.489  0.0595  0.2431 -0.1743
21557SOL    HW166439   9.262   6.686   6.395  1.5126  0.8375 -0.3803
21557SOL    HW266440   9.355   6.732   6.505 -1.2305  1.7928  1.6552
21558SOL     OW66441   7.377   7.896   0.500  0.3531 -0.3641 -0.1240
21558SOL    HW166442   7.339   7.850   0.425 -0.5821 -0.3133  0.3162
21558SOL    HW266443   7.450   7.946   0.462  1.1715 -1.8862 -0.6783
21559SOL     OW66444   1.490   3.851   2.404 -0.4621 -0.3081 -0.0799
21559SOL    HW166445   1.546   3.924   2.432 -2.3621  1.0831  0.3188
21559SOL    HW266446   1.486   3.792   2.479  0.4295 -0.4126 -0.1109
21560SOL     OW66447   1.859   6.779   6.591  0.1511  0.0175 -0.5286
21560SOL    HW166448   1.774   6.735   6.590 -0.9084  1.9508 -0.9128
21560SOL    HW266449   1.844   6.858   6.642  2.4705 -0.8810  1.7732
21561SOL     OW66450   6.663   6.893   1.470 -0.0610 -0.1373  0.2667
21561SOL    HW166451   6.735   6.954   1.459  0.6354 -0.8559  0.7770
21561SOL    HW266452   6.625   6.915   1.555 -0.7995  0.5836 -0.2261
21562SOL     OW66453   1.735   8.270   7.074  0.5135  0.4274 -0.2376
21562SOL    HW166454   1.767   8.346   7.122 -1.0557  1.6833 -1.0675
21562SOL    HW266455   1.723   8.203   7.141  0.7614  1.2985  0.7158
21563SOL     OW66456   9.208   4.505   5.810  0.3607  0.6184 -0.2793
21563SOL    HW166457   9.190   4.597   5.833  0.4319  0.4374  0.5563
21563SOL    HW266458   9.259   4.510   5.729  0.5553  1.3273 -0.1265
21564SOL     OW66459   3.800   4.488   8.756 -0.1970  0.2323 -0.2235
21564SOL    HW166460   3.752   4.409   8.730  0.5648 -0.2302 -0.2288
21564SOL    HW266461   3.741   4.533   8.817 -0.3556 -0.6593  0.2796
21565SOL     OW66462   8.157   1.964   2.501 -0.3199  0.0065 -0.1321
21565SOL    HW166463   8.085   2.003   2.452 -0.0220  0.2674 -0.3637
21565SOL    HW266464   8.157   2.011   2.584 -0.2396  0.1983 -0.2403
21566SOL     OW66465   4.369   4.835   3.823 -0.5929 -0.1699 -0.7737
21566SOL    HW166466   4.437   4.772   3.802 -0.1431  0.2180 -0.5067
21566SOL    HW266467   4.377   4.849   3.918 -1.3756 -0.5033 -0.6561
21567SOL     OW66468   2.868   8.039   6.412 -0.3773 -0.2736 -0.4275
21567SOL    HW166469   2.836   7.960   6.369 -0.4578 -0.0224 -0.8276
21567SOL    HW266470   2.950   8.058   6.368 -0.9535  0.5569 -1.1565
21568SOL     OW66471   5.565   7.674   5.596  0.1679 -0.5087  0.7085
21568SOL    HW166472   5.649   7.699   5.557 -0.1201 -0.4941  0.0800
21568SOL    HW266473   5.516   7.634   5.524 -0.7413  0.3633  0.8005
21569SOL     OW66474   1.104   5.867   7.010 -0.3138 -0.1712 -0.2727
21569SOL    HW166475   1.123   5.773   7.010 -0.8442 -0.3064 -1.8695
21569SOL    HW266476   1.011   5.872   7.031  0.2035  0.1911  2.3064
21570SOL     OW66477   8.953   6.387   0.204  0.3970  0.2354 -0.1057
21570SOL    HW166478   9.018   6.450   0.173  0.2713  0.8236  0.7953
21570SOL    HW266479   8.897   6.437   0.263  0.7289 -0.8655  1.2056
21571SOL     OW66480   2.985   6.791   1.988  0.3554 -0.2373 -0.9659
21571SOL    HW166481   3.025   6.739   1.919 -0.5250 -0.0519 -1.6258
21571SOL    HW266482   2.898   6.812   1.956 -0.1517 -0.3285  0.3020
21572SOL     OW66483   7.234   3.553   4.902 -0.3120 -0.3338  0.3707
21572SOL    HW166484   7.145   3.518   4.898 -0.6426  0.5594 -0.5227
21572SOL    HW266485   7.241   3.592   4.989 -0.9968  0.0639  0.2596
21573SOL     OW66486   9.701   8.710   4.957 -0.2064  0.0337 -0.1657
21573SOL    HW166487   9.639   8.780   4.979  1.4535  1.6143 -0.2982
21573SOL    HW266488   9.779   8.756   4.926  0.8508 -1.9082 -0.5325
21574SOL     OW66489   7.511   6.593   0.997 -0.3299 -0.5596 -0.5349
21574SOL    HW166490   7.561   6.562   1.073  1.0756 -3.0049 -2.2961
21574SOL    HW266491   7.444   6.651   1.034  2.0043  0.6181  2.2417
21575SOL     OW66492   1.541   1.140   9.341  0.1288  0.1874  0.1173
21575SOL    HW166493   1.466   1.133   9.401  0.5759 -1.1514  0.5569
21575SOL    HW266494   1.502   1.143   9.254 -0.4265 -2.2961  0.2258
21576SOL     OW66495   0.091   7.392   7.611 -0.2178 -0.3602 -0.7498
21576SOL    HW166496   0.032   7.321   7.635 -0.7999 -0.1492 -1.5058
21576SOL    HW266497   0.154   7.397   7.684 -0.1442 -1.6514 -0.6956
21577SOL     OW66498   5.459   1.592   1.762  0.0383 -0.2991 -0.4001
21577SOL    HW166499   5.365   1.582   1.775 -0.1853  1.5615 -0.2891
21577SOL    HW266500   5.493   1.503   1.762 -1.6570 -0.9839  0.0315
21578SOL     OW66501   9.525   9.835   9.186 -0.4126 -0.7710  0.1727
21578SOL    HW166502   9.602   9.846   9.241  1.8839 -0.6941 -2.8131
21578SOL    HW266503   9.537   9.750   9.143 -1.1641 -0.0817 -1.5104
21579SOL     OW66504   2.136   1.498   2.455  0.0381  1.1104 -0.7027
21579SOL    HW166505   2.177   1.548   2.384  0.2743  0.9521 -0.6771
21579SOL    HW266506   2.055   1.546   2.473  0.8648  2.2286  0.1924
21580SOL     OW66507   8.173   8.839   2.747  0.8653 -0.2579 -0.1971
21580SOL    HW166508   8.094   8.787   2.753  1.8167 -2.0194 -1.8091
21580SOL    HW266509   8.227   8.810   2.820  1.4864 -1.7978 -1.2189
21581SOL     OW66510   6.089   8.992   1.394 -0.2684 -0.1011 -0.3904
21581SOL    HW166511   6.054   8.912   1.355 -2.3675 -0.3456  1.7692
21581SOL    HW266512   6.113   8.966   1.483  0.0270  1.4231 -0.0074
21582SOL     OW66513   6.415   6.257   0.156 -0.0532 -0.0473 -0.0398
21582SOL    HW166514   6.499   6.273   0.198  0.4104  1.3006 -1.3961
21582SOL    HW266515   6.428   6.176   0.107  0.0246 -0.5448  0.7844
21583SOL     OW66516   4.789   4.708   4.970 -0.6048 -0.1404 -0.2989
21583SOL    HW166517   4.858   4.689   4.906  0.0453 -1.8151  0.8428
21583SOL    HW266518   4.805   4.648   5.042 -0.6262  2.4512  2.0207
21584SOL     OW66519   3.353   7.373   9.146 -0.1349  0.2247  0.1880
21584SOL    HW166520   3.414   7.446   9.134  0.8289 -0.6139 -0.1612
21584SOL    HW266521   3.337   7.340   9.057  0.2359 -0.6170  0.4249
21585SOL     OW66522   1.220   1.062   3.070 -0.3672  0.1819  0.4786
21585SOL    HW166523   1.263   0.980   3.047 -0.2399 -0.0264  1.4529
21585SOL    HW266524   1.204   1.056   3.164 -0.0562  1.4048  0.6310
21586SOL     OW66525   4.978   1.521   4.752  0.5296 -0.2141  0.0255
21586SOL    HW166526   4.986   1.609   4.788  1.2799 -0.5076  0.5994
21586SOL    HW266527   5.015   1.463   4.819 -1.5028 -1.1626  0.4177
21587SOL     OW66528   2.618   5.820   1.781 -0.0312  0.4261  0.4701
21587SOL    HW166529   2.578   5.850   1.699 -1.6003 -0.8867  0.6945
21587SOL    HW266530   2.712   5.823   1.764 -0.3155 -0.4934 -1.6696
21588SOL     OW66531   9.484   0.562   4.961 -0.1798  0.9413 -0.3145
21588SOL    HW166532   9.580   0.552   4.962 -0.1440  1.2367  1.5213
21588SOL    HW266533   9.456   0.532   5.047 -1.6799  1.5697 -0.5618
21589SOL     OW66534   1.312   6.549   4.340 -0.1238  0.2399 -0.2817
21589SOL    HW166535   1.240   6.538   4.277 -0.5720  0.9951  0.0848
21589SOL    HW266536   1.380   6.594   4.290 -0.0144 -0.2061 -0.5446
21590SOL     OW66537   0.954   0.249   9.658 -0.2922  0.2691  0.4361
21590SOL    HW166538   1.002   0.302   9.722  0.5076  0.0210  0.0457
21590SOL    HW266539   0.870   0.295   9.648  0.0114  0.9284  0.8235
21591SOL     OW66540   3.310   1.715   3.052 -0.5261  0.4413  0.1871
21591SOL    HW166541   3.245   1.710   2.982  0.0342 -1.6568 -0.2549
21591SOL    HW266542   3.365   1.638   3.039  1.5640  1.6873  1.0380
21592SOL     OW66543   8.749   9.468   9.338 -0.6730  0.1003  0.1962
21592SOL    HW166544   8.698   9.407   9.285 -1.3118  0.7302  0.0755
21592SOL    HW266545   8.823   9.492   9.281  2.5428 -4.3424  1.9285
21593SOL     OW66546   6.897   8.389   5.321  0.6034  0.4292 -0.1524
21593SOL    HW166547   6.837   8.364   5.250 -0.2865  1.0192  0.3760
21593SOL    HW266548   6.929   8.305   5.355  0.6284  0.1256 -0.8969
21594SOL     OW66549   2.199   9.715   9.345  0.1372 -0.1442  0.3296
21594SOL    HW166550   2.214   9.799   9.390  0.5571  0.5988 -1.1403
21594SOL    HW266551   2.111   9.690   9.371  0.0897  0.6337  0.9691
21595SOL     OW66552   0.629   2.545   7.802 -0.3598  0.2456  0.0143
21595SOL    HW166553   0.642   2.462   7.849  1.5280 -0.3366 -1.4110
21595SOL    HW266554   0.718   2.576   7.783 -1.0496  1.1314 -1.9776
21596SOL     OW66555   4.765   1.890   2.018  0.0325 -0.1179  0.2309
21596SOL    HW166556   4.780   1.925   2.106  2.5354 -0.5515  0.0529
21596SOL    HW266557   4.784   1.964   1.960  0.2563 -0.3439  0.0128
21597SOL     OW66558   3.856   2.021   0.014  0.0320  0.0359  0.5467
21597SOL    HW166559   3.793   2.008  -0.057  0.7734 -2.2534  0.2272
21597SOL    HW266560   3.806   2.008   0.094 -0.0402 -1.3583  0.3015
21598SOL     OW66561   5.305   0.111   8.907  0.3100 -0.5777  0.0401
21598SOL    HW166562   5.335   0.083   8.993 -0.4201  0.0818  0.5196
21598SOL    HW266563   5.381   0.099   8.850  0.8020 -1.0143  0.7709
21599SOL     OW66564   3.493   0.551   7.606 -0.3520  0.0868  0.3056
21599SOL    HW166565   3.534   0.567   7.521 -1.3450  0.5052 -0.1134
21599SOL    HW266566   3.517   0.628   7.658  2.1624 -1.2172  1.1932
21600SOL     OW66567   8.010   1.974   7.631  0.1242 -0.1278 -0.1292
21600SOL    HW166568   7.983   2.061   7.604  0.1015 -0.4658 -1.2153
21600SOL    HW266569   7.949   1.915   7.587 -0.4825 -0.6692  1.3523
21601SOL     OW66570   7.264   0.316   5.164 -0.3813  0.0841 -0.0019
21601SOL    HW166571   7.185   0.268   5.140  0.7429 -0.6916 -2.5394
21601SOL    HW266572   7.233   0.403   5.188 -2.0792 -0.4760 -0.0385
21602SOL     OW66573   6.092   6.469   2.556  0.7591 -0.1995 -0.7986
21602SOL    HW166574   6.154   6.540   2.573  2.2131 -1.7121  0.6001
21602SOL    HW266575   6.108   6.443   2.465  0.6908  0.7796 -1.0992
21603SOL     OW66576   6.591   2.092   5.227  0.3051 -0.1342 -0.7223
21603SOL    HW166577   6.684   2.090   5.249 -0.1439 -0.5197  1.3181
21603SOL    HW266578   6.557   2.009   5.260 -0.8214  0.1024 -1.2384
21604SOL     OW66579   2.407   6.629   2.469 -0.1166 -0.0316  0.0228
21604SOL    HW166580   2.409   6.700   2.533  1.2766 -0.6484  0.6965
21604SOL    HW266581   2.338   6.570   2.500 -2.1098  1.5353 -1.1729
21605SOL     OW66582   2.244   2.761   3.207  0.1874 -0.3619  0.3873
21605SOL    HW166583   2.192   2.691   3.246  0.2345 -1.5097 -1.4964
21605SOL    HW266584   2.180   2.815   3.160  0.5073 -0.9775 -0.7838
21606SOL     OW66585   6.481   9.847   2.521 -0.0748  0.3634  0.6030
21606SOL    HW166586   6.533   9.840   2.441  1.4930  0.9716  1.5077
21606SOL    HW266587   6.391   9.860   2.491  0.2623 -0.8424 -1.0363
21607SOL     OW66588   2.730   6.147   5.571  0.1593  0.4419 -0.0747
21607SOL    HW166589   2.812   6.192   5.592 -0.0251  0.3640  0.8921
21607SOL    HW266590   2.695   6.121   5.657 -0.9902  0.6900 -0.4476
21608SOL     OW66591   8.998   7.337   9.772  0.4814 -0.0121 -0.3120
21608SOL    HW166592   8.933   7.360   9.839  1.4315  0.6121  0.4169
21608SOL    HW266593   8.950   7.282   9.710 -1.1213  1.5903 -0.5538
21609SOL     OW66594   9.358   3.075   3.828 -0.0882  0.3561  0.0872
21609SOL    HW166595   9.402   3.152   3.864  0.3897  1.4139 -2.5498
21609SOL    HW266596   9.315   3.107   3.749 -0.4929 -1.9570 -0.6887
21610SOL     OW66597   6.331   5.870   2.466 -0.5257 -0.0981  0.0902
21610SOL    HW166598   6.340   5.846   2.374 -0.0965 -1.4791  0.4707
21610SOL    HW266599   6.382   5.804   2.514 -0.9187  0.4605  1.3302
21611SOL     OW66600   3.117   4.605   8.227  0.1233  0.3043  0.4213
21611SOL    HW166601   3.107   4.632   8.319  1.2113 -1.4452  1.1007
21611SOL    HW266602   3.163   4.678   8.186  1.3643  0.3220  1.7479
21612SOL     OW66603   2.959   2.692   6.605 -0.1259 -0.2193 -0.1819
21612SOL    HW166604   3.017   2.717   6.533  1.0757  1.2767  1.2411
21612SOL    HW266605   2.875   2.734   6.584  0.1698  0.0834 -0.7758
21613SOL     OW66606   0.125   8.553   4.633  0.5482 -0.5481  0.5302
21613SOL    HW166607   0.056   8.619   4.632 -0.3754 -1.5014  0.0506
21613SOL    HW266608   0.090   8.480   4.582  2.0114 -0.9546  0.0521
21614SOL     OW66609   1.205   7.823   3.037  0.0729  0.4236 -0.0582
21614SOL    HW166610   1.300   7.819   3.041  0.0649  1.0973  1.1084
21614SOL    HW266611   1.175   7.802   3.125 -0.7560  2.1088  0.1211
21615SOL     OW66612   2.301   8.113   1.210  0.1284  0.9219  0.6395
21615SOL    HW166613   2.293   8.109   1.115 -1.6282  0.8817  0.7486
21615SOL    HW266614   2.320   8.023   1.237 -3.6856 -0.0845  0.5575
21616SOL     OW66615   9.254   0.121   5.448 -0.1786 -0.0143 -0.0772
21616SOL    HW166616   9.220   0.071   5.522  2.1497 -0.1181  1.0162
21616SOL    HW266617   9.245   0.213   5.474 -0.2154 -0.0195 -0.0719
21617SOL     OW66618   1.698   3.794   8.310  0.1093  0.7011 -0.3228
21617SOL    HW166619   1.732   3.871   8.355  1.2883 -0.9020  1.7416
21617SOL    HW266620   1.649   3.746   8.377  1.0698 -1.2910 -0.9462
21618SOL     OW66621   8.985   1.513   9.010  0.9790  0.2525 -0.3648
21618SOL    HW166622   9.059   1.541   9.064  0.1921  0.0387  0.8620
21618SOL    HW266623   8.986   1.417   9.017  2.2983  0.0344 -2.7020
21619SOL     OW66624   3.618   0.581   0.823  0.2290 -0.5887  0.1274
21619SOL    HW166625   3.604   0.656   0.880 -0.3965 -1.4338  1.1091
21619SOL    HW266626   3.534   0.568   0.779  1.0668  0.8972 -2.0892
21620SOL     OW66627   7.234   6.499   6.940  0.4609 -0.1158 -0.8034
21620SOL    HW166628   7.179   6.577   6.952  0.9725  0.1935 -0.4085
21620SOL    HW266629   7.182   6.441   6.885 -0.5025 -0.0682  0.0345
21621SOL     OW66630   3.600   1.239   3.332 -0.2149 -0.2240 -0.2319
21621SOL    HW166631   3.511   1.216   3.359 -0.2254 -0.4952 -0.4862
21621SOL    HW266632   3.646   1.155   3.331 -0.3258 -0.2858 -1.4648
21622SOL     OW66633   3.220   2.268   3.208 -0.2413 -0.7121 -0.3066
21622SOL    HW166634   3.267   2.211   3.269  1.5736 -0.2705 -1.2062
21622SOL    HW266635   3.282   2.282   3.136 -1.3536  0.8264 -1.0256
21623SOL     OW66636   5.494   5.616   9.168 -0.3138 -0.2666  0.3202
21623SOL    HW166637   5.459   5.704   9.174  0.2227 -0.1031  1.2639
21623SOL    HW266638   5.589   5.629   9.156  0.2285 -0.6661  3.4332
21624SOL     OW66639   6.612   7.569   9.386 -0.5864 -0.1144  0.0390
21624SOL    HW166640   6.578   7.483   9.409 -0.8849  0.0072  0.0580
21624SOL    HW266641   6.651   7.556   9.299  2.0289 -0.9708  1.2366
21625SOL     OW66642   6.216   9.684   0.507  0.1806 -0.1117 -0.3733
21625SOL    HW166643   6.287   9.715   0.450  0.3859 -0.2282 -0.1849
21625SOL    HW266644   6.212   9.748   0.578 -1.3420  1.0856 -1.4884
21626SOL     OW66645   7.477   2.863   3.265  0.3129  0.0395  0.1404
21626SOL    HW166646   7.451   2.930   3.328 -0.3135 -0.2602  0.2045
21626SOL    HW266647   7.498   2.787   3.319 -1.1316 -0.5219 -0.0463
21627SOL     OW66648   1.880   6.750   2.841 -0.1103 -0.0025  0.2561
21627SOL    HW166649   1.935   6.740   2.919 -1.6091 -3.2705  1.0610
21627SOL    HW266650   1.939   6.732   2.768  0.6755  0.0660  0.8601
21628SOL     OW66651   5.532   6.727   2.192 -0.1788  0.5176  0.4312
21628SOL    HW166652   5.623   6.717   2.163 -0.3083 -1.2064  0.5174
21628SOL    HW266653   5.485   6.658   2.144 -1.1777  0.4771  1.4460
21629SOL     OW66654   5.833   0.756   3.810  0.2837 -0.3027  0.1866
21629SOL    HW166655   5.749   0.789   3.777  0.5894 -0.1794 -0.4769
21629SOL    HW266656   5.865   0.827   3.867  1.2821  0.9368 -1.7996
21630SOL     OW66657   0.806   1.186   3.335 -0.1283 -0.3266 -0.8143
21630SOL    HW166658   0.754   1.243   3.279  0.7998 -1.3235 -2.7901
21630SOL    HW266659   0.856   1.131   3.274  1.8450 -0.6651  0.9858
21631SOL     OW66660   7.788   8.728   8.076 -0.0426 -0.1908 -0.1047
21631SOL    HW166661   7.771   8.815   8.039 -1.3949 -0.4278 -0.1093
21631SOL    HW266662   7.870   8.700   8.036  0.1687  0.8982 -0.4532
21632SOL     OW66663   8.094   3.536   0.957 -0.6843  0.1486  0.1289
21632SOL    HW166664   8.171   3.593   0.956  1.1382 -2.1671 -0.6726
21632SOL    HW266665   8.067   3.534   1.048  1.3696 -0.3814  0.7837
21633SOL     OW66666   6.292   6.939   9.504 -0.0735  0.3553 -0.2093
21633SOL    HW166667   6.285   6.848   9.475  1.0889  0.9650 -2.7569
21633SOL    HW266668   6.202   6.970   9.508 -0.4605 -0.7564  0.1995
21634SOL     OW66669   0.600   3.060   2.245 -0.2346 -0.6256 -0.0209
21634SOL    HW166670   0.656   3.129   2.281  1.0530 -1.0472 -1.1271
21634SOL    HW266671   0.640   2.979   2.277 -0.4405 -0.9221 -0.5072
21635SOL     OW66672   8.700   2.554   9.647  0.0910 -0.3618  0.4011
21635SOL    HW166673   8.774   2.506   9.684 -1.2180 -1.6145  1.5188
21635SOL    HW266674   8.647   2.578   9.722 -1.6148 -1.1795 -0.4872
21636SOL     OW66675   6.504   1.367   8.270  0.0282 -0.2500  0.2250
21636SOL    HW166676   6.493   1.273   8.284  0.7729 -0.1781  1.5164
21636SOL    HW266677   6.566   1.373   8.197  0.1781 -0.7673  0.3030
21637SOL     OW66678   7.991   2.785   4.354 -0.5432 -0.7824 -0.0686
21637SOL    HW166679   7.903   2.788   4.316 -0.1482 -0.2185 -0.9673
21637SOL    HW266680   7.977   2.798   4.448 -1.2210  2.4803 -0.5024
21638SOL     OW66681   5.141   8.494   8.316 -0.2983 -0.0465  0.2634
21638SOL    HW166682   5.075   8.563   8.311 -1.3109 -0.8969  1.2348
21638SOL    HW266683   5.202   8.513   8.245 -0.3872  1.9960  0.6831
21639SOL     OW66684   7.127   7.722   3.839 -0.1375  0.2416 -0.2153
21639SOL    HW166685   7.196   7.724   3.905  0.0526 -1.4937 -0.3360
21639SOL    HW266686   7.048   7.696   3.888 -0.2171 -0.0244 -0.4841
21640SOL     OW66687   3.143   2.979   7.226  1.0059  0.1266 -0.5591
21640SOL    HW166688   3.233   2.959   7.254  0.3938 -1.6234  0.3191
21640SOL    HW266689   3.094   2.899   7.244 -0.4151  0.4817 -2.5374
21641SOL     OW66690   0.113   8.520   0.947  0.1854  0.0884 -0.6241
21641SOL    HW166691   0.082   8.439   0.988 -1.1587  1.0539  0.3859
21641SOL    HW266692   0.116   8.583   1.019 -3.0014  2.0906 -2.0057
21642SOL     OW66693   2.922   5.545   4.639  0.0098 -0.4172 -0.2460
21642SOL    HW166694   2.881   5.615   4.690  0.2870 -0.0690 -0.4990
21642SOL    HW266695   2.849   5.487   4.616 -0.1388 -0.5013  0.4183
21643SOL     OW66696   3.558   6.950   8.232  0.8615  0.1876  0.0309
21643SOL    HW166697   3.513   6.917   8.154  0.5911 -1.7307  0.9269
21643SOL    HW266698   3.649   6.925   8.219  0.8074 -0.1799  0.3278
21644SOL     OW66699   4.441   2.079   9.376  0.0250 -0.5450  0.6983
21644SOL    HW166700   4.516   2.121   9.335 -1.3969  0.2811 -1.2643
21644SOL    HW266701   4.433   1.994   9.333 -1.8996  0.6134 -1.4743
21645SOL     OW66702   5.713   6.548   5.231  0.4618 -0.0041 -0.2184
21645SOL    HW166703   5.706   6.643   5.236  4.1575  0.3871  0.1984
21645SOL    HW266704   5.726   6.520   5.322  0.1910 -0.8556 -0.4252
21646SOL     OW66705   0.027   1.103   0.077 -0.3772  0.4457 -0.2422
21646SOL    HW166706  -0.049   1.125   0.132 -1.9088 -1.5376 -1.4202
21646SOL    HW266707   0.019   1.163   0.003  0.2795  1.4494  0.4670
21647SOL     OW66708   2.268   3.115   8.141 -0.4621  0.4700  0.3918
21647SOL    HW166709   2.355   3.156   8.136 -0.0242 -0.4718 -0.0074
21647SOL    HW266710   2.270   3.046   8.074 -1.6043  0.5732  0.2232
21648SOL     OW66711   9.297   4.463   4.009  0.1049 -0.6695  0.2846
21648SOL    HW166712   9.284   4.551   3.972 -0.4117 -1.1411 -0.6910
21648SOL    HW266713   9.391   4.447   4.000 -0.1078 -1.1417 -1.7838
21649SOL     OW66714   9.617   4.945   5.858  0.1976 -0.0215 -0.7302
21649SOL    HW166715   9.696   4.975   5.903  0.0007  0.5490 -0.7627
21649SOL    HW266716   9.546   4.966   5.919 -0.2695  2.3218 -1.9881
21650SOL     OW66717   9.172   8.760   2.431 -0.2234 -0.1685  0.3154
21650SOL    HW166718   9.084   8.723   2.420  0.5593 -2.1092  0.1873
21650SOL    HW266719   9.205   8.770   2.341 -0.3820  0.8035  0.3521
21651SOL     OW66720   4.172   3.775   8.541  0.3191 -0.2865  0.1072
21651SOL    HW166721   4.193   3.826   8.618 -0.3777 -0.2855  0.3045
21651SOL    HW266722   4.091   3.729   8.563 -0.5242  0.5878 -1.0096
21652SOL     OW66723   4.160   8.497   2.592  0.7723  0.4079  0.0608
21652SOL    HW166724   4.131   8.574   2.544 -1.8320 -0.1391  0.6236
21652SOL    HW266725   4.124   8.508   2.679 -0.0848 -1.6645  0.0132
21653SOL     OW66726   2.689   3.120   9.803 -0.1368  0.6822 -0.2223
21653SOL    HW166727   2.642   3.118   9.886 -0.0516  1.1331 -0.1661
21653SOL    HW266728   2.619   3.118   9.737 -0.2173 -2.4552 -0.2241
21654SOL     OW66729   9.454   2.499   1.562  0.2113 -0.2575 -0.2535
21654SOL    HW166730   9.389   2.549   1.512  0.3649  1.3828  1.1114
21654SOL    HW266731   9.538   2.532   1.531  0.3113  0.5412  0.8579
21655SOL     OW66732   3.923   4.541   3.470 -0.4325  0.5072  0.3558
21655SOL    HW166733   3.893   4.632   3.481 -1.3390  0.2149  0.3470
21655SOL    HW266734   3.928   4.529   3.375 -0.0179  0.6404  0.3598
21656SOL     OW66735   8.835   6.358   5.727  0.2791  0.5992 -0.2433
21656SOL    HW166736   8.923   6.363   5.689 -0.3045 -0.5758 -1.8748
21656SOL    HW266737   8.843   6.294   5.798  0.7204  0.4369 -0.4364
21657SOL     OW66738   0.491   4.559   4.884 -0.3390 -0.0586  0.1162
21657SOL    HW166739   0.584   4.544   4.871 -0.1032  0.8772  0.6411
21657SOL    HW266740   0.480   4.653   4.872 -1.2001 -0.1452  0.1717
21658SOL     OW66741   0.299   5.587   2.670 -0.3030  0.6945 -0.1610
21658SOL    HW166742   0.372   5.565   2.728 -0.3478 -2.0572 -1.0308
21658SOL    HW266743   0.278   5.677   2.693  1.5633  0.6775  2.0436
21659SOL     OW66744   1.363   5.794   5.374  0.2787 -0.3388  0.2286
21659SOL    HW166745   1.360   5.797   5.470  0.6839 -2.2364  0.3403
21659SOL    HW266746   1.386   5.703   5.354  2.7264  0.5985 -1.6182
21660SOL     OW66747   2.787   3.925   1.125 -0.1884  0.0784  0.0384
21660SOL    HW166748   2.802   4.019   1.134  0.4692 -0.1414  1.7506
21660SOL    HW266749   2.813   3.904   1.036  0.6573  1.3552 -0.0395
21661SOL     OW66750   6.769   6.879   4.021  0.3101  0.3831  0.1104
21661SOL    HW166751   6.807   6.792   4.031 -1.5429 -0.4452  0.3966
21661SOL    HW266752   6.711   6.889   4.097  3.0401  3.3331  2.0339
21662SOL     OW66753   2.976   2.291   4.204 -0.0933 -0.3963  0.2190
21662SOL    HW166754   2.943   2.286   4.294  1.8360  0.7262  1.0631
21662SOL    HW266755   3.052   2.349   4.210  0.2358 -0.4966 -2.1122
21663SOL     OW66756   6.980   9.093   6.797 -0.0767 -0.0431  0.1248
21663SOL    HW166757   7.074   9.074   6.800 -0.1053 -0.0847  0.7551
21663SOL    HW266758   6.964   9.148   6.873 -0.1397  1.8757 -1.2019
21664SOL     OW66759   0.876   2.227   2.692  0.0146 -0.7671 -0.0527
21664SOL    HW166760   0.969   2.230   2.714  0.4501  0.2790 -1.7842
21664SOL    HW266761   0.831   2.231   2.777  1.5426  1.6134  0.7510
21665SOL     OW66762   1.627   1.815   4.446 -0.3338  0.1612  0.0884
21665SOL    HW166763   1.563   1.748   4.423  0.2662 -0.9731  1.5711
21665SOL    HW266764   1.689   1.771   4.504  0.6529  1.7456  0.3100
21666SOL     OW66765   2.416   1.168   6.326 -0.1784  0.1470  0.1806
21666SOL    HW166766   2.447   1.090   6.280  0.1548 -0.0117  0.6686
21666SOL    HW266767   2.494   1.204   6.368 -0.1041  1.3845 -0.9532
21667SOL     OW66768   4.723   3.501   8.401 -0.1561  0.5127 -0.3761
21667SOL    HW166769   4.662   3.471   8.468  0.8292 -1.1454 -0.1614
21667SOL    HW266770   4.709   3.595   8.397 -2.4931  0.2479 -0.1278
21668SOL     OW66771   5.147   9.526   8.853 -0.3712 -0.5417  0.4659
21668SOL    HW166772   5.234   9.565   8.858 -0.3973 -0.5929  1.4017
21668SOL    HW266773   5.137   9.502   8.761 -0.3552  1.6724 -0.1663
21669SOL     OW66774   3.945   3.118   3.517 -0.0536 -0.0332  0.1756
21669SOL    HW166775   3.897   3.051   3.468 -0.6304 -0.4810  1.3115
21669SOL    HW266776   4.037   3.103   3.494 -0.3807  0.7223 -1.8872
21670SOL     OW66777   7.971   2.253   9.648 -0.0812  0.0215 -0.0757
21670SOL    HW166778   8.004   2.180   9.699 -0.5408  0.0432  0.2595
21670SOL    HW266779   7.876   2.243   9.650 -0.2578  1.4777  1.2784
21671SOL     OW66780   8.498   4.902   4.680  0.4862 -0.3330 -0.9285
21671SOL    HW166781   8.492   4.850   4.601  1.5801  0.1932 -1.3918
21671SOL    HW266782   8.513   4.992   4.649 -1.1591  0.2526 -0.1508
21672SOL     OW66783   5.761   9.052   0.505  0.0722 -0.0045 -0.0133
21672SOL    HW166784   5.797   9.090   0.425 -1.4225  1.1544 -0.1725
21672SOL    HW266785   5.784   9.114   0.574  0.4124 -0.4558  0.2849
21673SOL     OW66786   4.922   8.399   2.567  0.2130  0.3107 -0.4308
21673SOL    HW166787   4.843   8.447   2.540 -1.0508 -1.2551  0.2628
21673SOL    HW266788   4.995   8.451   2.534 -1.1357  0.6205 -3.1955
21674SOL     OW66789   9.543   8.922   4.678 -0.1996  0.3759 -0.0163
21674SOL    HW166790   9.528   8.832   4.649 -1.5626  0.8893 -0.9747
21674SOL    HW266791   9.521   8.921   4.771  0.2534 -0.3776  0.0946
21675SOL     OW66792   0.530   4.335   9.252  0.0973 -0.1916  0.0101
21675SOL    HW166793   0.521   4.411   9.310 -0.7743 -0.6042  0.4348
21675SOL    HW266794   0.622   4.311   9.259  0.5310  1.1855 -0.6105
21676SOL     OW66795   6.726   8.865   0.122 -0.2352 -0.3310  0.6381
21676SOL    HW166796   6.777   8.850   0.042 -1.9871  1.5030 -0.9355
21676SOL    HW266797   6.715   8.778   0.161  1.3308 -1.1646 -0.6576
21677SOL     OW66798   3.184   1.201   4.642  0.4770 -0.1539  0.3835
21677SOL    HW166799   3.163   1.126   4.698  0.3562 -0.1849  0.2946
21677SOL    HW266800   3.274   1.184   4.613  0.2812 -0.5040 -0.0263
21678SOL     OW66801   8.917   3.028   7.239  0.6840  0.2895 -0.0668
21678SOL    HW166802   8.977   3.101   7.222  0.7238  0.2357 -0.1648
21678SOL    HW266803   8.920   2.976   7.158  0.7054  0.1457  0.0247
21679SOL     OW66804   4.147   0.996   4.449  0.2848 -0.1573 -0.8031
21679SOL    HW166805   4.161   1.044   4.531 -0.8325  0.3729 -0.9051
21679SOL    HW266806   4.234   0.962   4.427  0.6258 -0.2227  0.5376
21680SOL     OW66807   0.838   5.211   9.467 -0.2971  0.3430  0.5684
21680SOL    HW166808   0.837   5.206   9.562  2.0102  1.0427  0.7020
21680SOL    HW266809   0.900   5.144   9.440 -0.4395  0.5827 -0.3989
21681SOL     OW66810   9.000   2.345   2.300 -0.5260  0.2652  0.7199
21681SOL    HW166811   8.941   2.367   2.372 -0.5123  0.2242  0.7439
21681SOL    HW266812   9.058   2.420   2.292 -0.7121  0.3914  0.5617
21682SOL     OW66813   9.323   6.579   7.939 -0.2084  0.1805 -0.4342
21682SOL    HW166814   9.323   6.498   7.887 -0.8291  1.0677 -1.8542
21682SOL    HW266815   9.287   6.552   8.023 -0.2420 -1.0645 -0.8213
21683SOL     OW66816   2.784   2.905   1.758  0.1262 -0.2307  0.1870
21683SOL    HW166817   2.706   2.851   1.769  0.7238 -1.4162 -1.0448
21683SOL    HW266818   2.854   2.853   1.797  0.5934  0.0006 -0.3296
21684SOL     OW66819   9.076   1.669   3.424  0.4939 -0.1132 -0.0809
21684SOL    HW166820   9.027   1.675   3.506  0.8976 -0.0293  0.1525
21684SOL    HW266821   9.101   1.759   3.404 -2.6491  0.4867 -2.1731
21685SOL     OW66822   1.432   3.978   2.026 -0.0017 -0.5974 -0.3547
21685SOL    HW166823   1.376   3.977   2.104  1.4298 -1.3085  0.7072
21685SOL    HW266824   1.396   3.909   1.970  0.2466 -1.5830  0.6577
21686SOL     OW66825   7.112   3.903   6.348 -0.4470 -0.3105  0.2634
21686SOL    HW166826   7.058   3.849   6.291 -1.5050  0.5813  0.4016
21686SOL    HW266827   7.103   3.992   6.313  3.3367 -0.4541 -1.5975
21687SOL     OW66828   2.085   8.576   9.084 -0.2278 -0.0107 -0.5210
21687SOL    HW166829   2.027   8.641   9.125 -0.0864 -0.1405 -0.1164
21687SOL    HW266830   2.026   8.509   9.051 -0.3103 -0.1388 -0.1168
21688SOL     OW66831   9.494   4.929   4.370 -0.2612 -0.3291  0.5109
21688SOL    HW166832   9.546   4.849   4.366 -0.4439 -0.5398  2.0219
21688SOL    HW266833   9.556   4.999   4.347 -0.3194 -0.9355 -1.7702
21689SOL     OW66834   7.241   3.714   6.909  0.0067 -0.5672 -0.0702
21689SOL    HW166835   7.216   3.663   6.831 -1.0561 -1.2977  0.7198
21689SOL    HW266836   7.287   3.651   6.964  0.9795  0.0159 -0.2109
21690SOL     OW66837   1.472   0.221   2.800 -0.4568  0.2113 -0.5292
21690SOL    HW166838   1.491   0.228   2.894 -0.8719 -0.6685 -0.3774
21690SOL    HW266839   1.544   0.168   2.765 -0.5668  0.1275 -0.6274
21691SOL     OW66840   4.617   0.013   5.251  0.4057 -0.4911  0.4115
21691SOL    HW166841   4.696   0.037   5.299  0.3417  0.8529 -0.1103
21691SOL    HW266842   4.546   0.053   5.300  0.3246  0.7511 -0.6675
21692SOL     OW66843   0.452   0.471   5.041  0.2661 -1.5189  0.1514
21692SOL    HW166844   0.416   0.502   4.958 -0.8518 -1.2435  0.7227
21692SOL    HW266845   0.544   0.495   5.038 -0.4236  1.5025  0.3810
21693SOL     OW66846   2.703   6.228   6.971 -0.1633  0.1308 -0.0388
21693SOL    HW166847   2.753   6.148   6.959  0.3244  0.5209 -0.6473
21693SOL    HW266848   2.620   6.199   7.010  1.0890 -0.3815  2.4079
21694SOL     OW66849   4.574   1.362   8.945  0.6658  0.3573 -0.1921
21694SOL    HW166850   4.658   1.344   8.903  0.6160 -0.1527 -0.0748
21694SOL    HW266851   4.509   1.319   8.889  0.6165 -0.4762  0.5005
21695SOL     OW66852   3.023   3.469   7.759  0.9387  0.1163  0.4569
21695SOL    HW166853   3.049   3.494   7.670  1.7721  0.2139  0.7260
21695SOL    HW266854   3.011   3.553   7.804 -3.4980  0.3127 -0.6157
21696SOL     OW66855   8.472   6.232   1.053  0.6917 -0.1834  0.1156
21696SOL    HW166856   8.408   6.233   1.124 -0.6388 -1.9923 -0.9943
21696SOL    HW266857   8.494   6.325   1.040 -0.7676  0.3844  1.3382
21697SOL     OW66858   9.030   4.027   4.099  0.3793 -0.1728  0.1940
21697SOL    HW166859   9.054   4.051   4.189 -1.3850  0.4050  0.5540
21697SOL    HW266860   9.059   4.102   4.046 -0.0911  0.2693  0.5443
21698SOL     OW66861   2.727   2.298   3.890 -0.1057 -0.2611 -0.0343
21698SOL    HW166862   2.729   2.260   3.978  0.3775 -0.8565 -0.2990
21698SOL    HW266863   2.768   2.232   3.834  0.8812  0.6978 -0.4795
21699SOL     OW66864   4.990   3.306   3.066  0.3431 -0.3831 -0.1307
21699SOL    HW166865   5.048   3.313   2.989 -0.4648 -1.5105 -0.8845
21699SOL    HW266866   4.949   3.220   3.056  0.5215 -0.7419  1.8066
21700SOL     OW66867   3.410   2.884   3.272 -0.3217  0.0831 -0.4795
21700SOL    HW166868   3.482   2.821   3.263 -1.8996 -2.2490  1.8932
21700SOL    HW266869   3.453   2.967   3.291  1.7698 -1.0303 -0.0880
21701SOL     OW66870   1.913   1.361   1.921  0.3560 -0.7274 -0.3840
21701SOL    HW166871   1.941   1.429   1.981 -1.2851 -0.8012  0.5080
21701SOL    HW266872   1.916   1.402   1.834  0.3567  0.1419  0.0268
21702SOL     OW66873   9.665   0.885   2.810 -0.1814 -0.2684  0.1823
21702SOL    HW166874   9.660   0.931   2.726 -3.6248 -1.7054 -0.5351
21702SOL    HW266875   9.698   0.798   2.788 -1.8750 -0.9253  0.1167
21703SOL     OW66876   7.916   5.221   2.260 -0.1032  0.7412  0.1813
21703SOL    HW166877   7.946   5.147   2.312 -0.5074  1.2498  1.1859
21703SOL    HW266878   7.821   5.213   2.260 -0.1467  1.2308  0.2597
21704SOL     OW66879   3.522   2.195   7.536  0.3078  0.5008  0.2551
21704SOL    HW166880   3.510   2.198   7.441 -1.5296  0.9045  0.4654
21704SOL    HW266881   3.576   2.117   7.550  1.7635  1.1841 -1.1854
21705SOL     OW66882   7.400   9.717   1.673 -0.1338 -0.4850 -0.3355
21705SOL    HW166883   7.436   9.782   1.733 -0.1290 -1.0295  0.2689
21705SOL    HW266884   7.319   9.757   1.640 -3.3333 -2.2226  4.3334
21706SOL     OW66885   4.905   5.905   9.539 -0.4737  0.2057  0.1323
21706SOL    HW166886   4.987   5.884   9.583 -0.7270  0.1882  0.5993
21706SOL    HW266887   4.903   5.846   9.463 -0.1558  0.0599  0.2341
21707SOL     OW66888   4.346   0.033   7.632  0.4192 -0.1031 -0.6075
21707SOL    HW166889   4.421   0.029   7.690 -0.0368 -0.3734 -0.0258
21707SOL    HW266890   4.273   0.059   7.688 -0.0628 -0.5368 -1.0165
21708SOL     OW66891   1.324   2.742   1.347  0.3865 -0.1210  0.0436
21708SOL    HW166892   1.408   2.741   1.393  0.3727 -0.7017  0.0707
21708SOL    HW266893   1.261   2.776   1.410  0.1801 -1.8392  0.8117
21709SOL     OW66894   9.159   6.556   8.844 -0.2683 -0.0274  0.3088
21709SOL    HW166895   9.177   6.497   8.918  1.1166  0.7360  0.6096
21709SOL    HW266896   9.150   6.642   8.884  0.5359  0.3986 -0.4155
21710SOL     OW66897   4.698   7.645   7.744 -0.0260  0.1539  0.0011
21710SOL    HW166898   4.720   7.690   7.826  0.1718 -1.0359  0.6235
21710SOL    HW266899   4.603   7.633   7.748 -0.3789  2.1500 -1.0522
21711SOL     OW66900   1.011   1.276   2.090  0.1111  0.7738 -0.2923
21711SOL    HW166901   1.093   1.228   2.091 -0.4132 -0.1550 -0.5506
21711SOL    HW266902   0.977   1.268   2.179 -1.4335 -1.9885 -1.0125
21712SOL     OW66903   1.570   0.107   4.723 -0.0241  0.1610  0.3002
21712SOL    HW166904   1.612   0.053   4.790 -0.4616  0.2765  0.6723
21712SOL    HW266905   1.479   0.077   4.722  0.0741 -0.1313 -0.5434
21713SOL     OW66906   6.806   9.840   1.332  0.0675 -0.1146  0.3970
21713SOL    HW166907   6.874   9.809   1.273  0.6993 -2.3021  2.1205
21713SOL    HW266908   6.726   9.798   1.301  0.4412 -1.4583  1.1596
21714SOL     OW66909   1.410   8.367   3.691 -0.3353 -0.1668  0.4005
21714SOL    HW166910   1.475   8.381   3.622 -0.7709  1.0730  0.2241
21714SOL    HW266911   1.379   8.277   3.676  0.3335 -0.2864 -0.3552
21715SOL     OW66912   9.622   7.994   8.588 -0.4941 -0.1730 -0.4173
21715SOL    HW166913   9.531   8.024   8.598 -1.2225 -2.4331  0.1907
21715SOL    HW266914   9.644   7.954   8.672  1.9827  2.4043  0.3493
21716SOL     OW66915   6.635   7.806   3.247  0.3361  0.3807 -0.1018
21716SOL    HW166916   6.723   7.832   3.221  0.1203  0.0884 -1.1653
21716SOL    HW266917   6.647   7.731   3.305  0.7480 -0.2189 -0.9595
21717SOL     OW66918   0.502   3.287   4.650  0.0114  0.2254 -0.0292
21717SOL    HW166919   0.480   3.358   4.590 -0.0857 -0.7765 -1.2090
21717SOL    HW266920   0.598   3.289   4.655  0.0124  0.3998 -0.1013
21718SOL     OW66921   2.204   6.184   6.476 -0.0115  0.0484 -0.1954
21718SOL    HW166922   2.222   6.260   6.532 -1.7127 -0.5751  1.3042
21718SOL    HW266923   2.289   6.142   6.464  0.5685  0.8150  1.0394
21719SOL     OW66924   4.475   3.846   2.902 -0.1726  0.3179 -0.0907
21719SOL    HW166925   4.555   3.884   2.936 -1.7424  0.9243  3.3137
21719SOL    HW266926   4.407   3.910   2.923 -1.9127 -1.2787 -0.5723
21720SOL     OW66927   0.561   5.189   4.721 -0.1503  0.0064  0.3106
21720SOL    HW166928   0.496   5.238   4.771 -1.8260 -0.8816 -0.9328
21720SOL    HW266929   0.641   5.241   4.729 -2.0961  3.7891 -2.0415
21721SOL     OW66930   6.484   2.763   7.009 -0.6044  0.1336  0.9742
21721SOL    HW166931   6.408   2.706   7.020 -0.6572  0.3370  1.6889
21721SOL    HW266932   6.547   2.711   6.960 -2.0146  0.6714 -1.6306
21722SOL     OW66933   4.952   6.246   3.112 -0.1043  0.0463  0.0122
21722SOL    HW166934   4.915   6.159   3.093  1.3054 -0.7905  0.9564
21722SOL    HW266935   5.029   6.252   3.056  1.0274 -0.2279  1.4839
21723SOL     OW66936   4.633   5.939   4.811  0.4266  0.4292  0.1508
21723SOL    HW166937   4.690   5.998   4.860  2.0775 -1.2028  0.3230
21723SOL    HW266938   4.576   5.900   4.877  2.7476 -1.8816  0.9819
21724SOL     OW66939   0.131   1.090   3.818  0.4218 -0.3360  0.6183
21724SOL    HW166940   0.171   1.041   3.746 -0.8280 -0.4509 -0.0211
21724SOL    HW266941   0.111   1.175   3.780 -1.4261 -0.8196  0.4067
21725SOL     OW66942   9.738   8.594   5.328  0.1333 -0.4616 -0.3207
21725SOL    HW166943   9.777   8.660   5.271  0.2475  0.3197  0.6276
21725SOL    HW266944   9.810   8.535   5.349  0.9606  1.1186  1.6254
21726SOL     OW66945   3.459   9.794   5.595 -0.0844 -0.2318  0.1049
21726SOL    HW166946   3.481   9.854   5.524 -0.2560  0.2224  0.4296
21726SOL    HW266947   3.368   9.769   5.579 -0.1083 -0.1658  0.1358
21727SOL     OW66948   3.903   9.527   4.056 -0.4731  0.6425  0.1156
21727SOL    HW166949   3.986   9.509   4.101  1.4375 -0.3337 -3.4013
21727SOL    HW266950   3.901   9.622   4.047 -0.8952  0.8646  2.0744
21728SOL     OW66951   3.372   6.204   3.626  0.1429  0.5205 -0.2351
21728SOL    HW166952   3.415   6.221   3.542 -0.6467 -0.8571 -0.9547
21728SOL    HW266953   3.436   6.231   3.692  1.0730  0.9212 -1.2754
21729SOL     OW66954   0.018   3.080   6.752  0.0682 -0.1313 -0.5487
21729SOL    HW166955  -0.017   3.159   6.793 -1.9593 -1.0790 -0.3822
21729SOL    HW266956   0.113   3.095   6.750 -0.2089  2.0546 -0.0223
21730SOL     OW66957   5.638   8.535   6.016 -0.2806  0.3665  0.0620
21730SOL    HW166958   5.691   8.606   6.052 -0.2479 -0.1279  1.0233
21730SOL    HW266959   5.664   8.530   5.924 -0.5595  1.8425 -0.1304
21731SOL     OW66960   1.015   3.238   4.766 -0.1993 -0.6139  0.2285
21731SOL    HW166961   1.051   3.158   4.803  2.4291  0.7093  0.7671
21731SOL    HW266962   1.078   3.306   4.789 -2.9889  1.9197  0.9877
21732SOL     OW66963   6.578   5.139   7.846 -0.0563 -0.3179  0.5917
21732SOL    HW166964   6.537   5.217   7.884  1.3401  1.1054 -0.6680
21732SOL    HW266965   6.506   5.078   7.834 -1.9669  2.1141 -1.6529
21733SOL     OW66966   4.748   3.262   2.446 -0.3447 -0.4042 -0.3721
21733SOL    HW166967   4.731   3.339   2.392  1.1808  0.8741  0.8283
21733SOL    HW266968   4.703   3.280   2.529 -1.4467 -1.6610 -0.6567
21734SOL     OW66969   2.032   7.723   3.995 -0.2063 -0.1927 -0.6298
21734SOL    HW166970   2.053   7.744   3.904  0.9650 -2.1003 -0.8734
21734SOL    HW266971   1.937   7.732   4.001 -0.2888  0.0883 -2.0005
21735SOL     OW66972   0.803   8.296   4.304 -0.7529  0.3570 -0.1369
21735SOL    HW166973   0.720   8.306   4.352 -0.3905  0.2214  0.5318
21735SOL    HW266974   0.856   8.370   4.333 -0.4441  0.1435 -0.1550
21736SOL     OW66975   8.911   3.999   6.944 -0.1703  0.0246  0.0736
21736SOL    HW166976   8.943   4.080   6.984  0.5758  0.9075 -2.1503
21736SOL    HW266977   8.848   4.029   6.878  0.4635 -1.1603 -1.1091
21737SOL     OW66978   5.033   6.046   3.762  0.1704 -0.0468  0.7533
21737SOL    HW166979   5.105   6.000   3.719 -0.8929 -1.4869  0.4507
21737SOL    HW266980   5.074   6.124   3.800  1.7439 -0.4539 -0.0178
21738SOL     OW66981   2.549   6.645   2.940 -0.0097 -0.2512  0.6294
21738SOL    HW166982   2.622   6.701   2.914 -1.0211 -0.1340 -2.3563
21738SOL    HW266983   2.581   6.556   2.928 -0.3581 -0.1989 -0.8773
21739SOL     OW66984   4.842   3.254   1.050 -0.1762  0.3843  0.1569
21739SOL    HW166985   4.926   3.234   1.091 -0.6209  0.8382  1.3051
21739SOL    HW266986   4.785   3.180   1.074 -0.4588  0.6870  0.4297
21740SOL     OW66987   8.892   2.229   6.015 -0.1707  0.0744  0.1377
21740SOL    HW166988   8.979   2.188   6.019 -0.8824 -1.4888  0.2915
21740SOL    HW266989   8.904   2.305   5.958  1.6031  0.7204  1.2848
21741SOL     OW66990   7.918   0.179   8.683  0.3367  0.0867 -0.1299
21741SOL    HW166991   7.927   0.198   8.590  3.2746  0.7315  0.2025
21741SOL    HW266992   7.958   0.093   8.694 -1.3575 -0.6875  0.3738
21742SOL     OW66993   0.409   0.341   3.592 -0.6174 -0.6517 -0.0013
21742SOL    HW166994   0.332   0.366   3.541 -0.5053 -0.1511  0.0658
21742SOL    HW266995   0.441   0.262   3.550  0.8926  1.0274 -2.2690
21743SOL     OW66996   3.540   0.643   4.726 -0.2217  0.4951 -0.1022
21743SOL    HW166997   3.544   0.565   4.781  0.0098  1.2784  1.0225
21743SOL    HW266998   3.502   0.612   4.644 -1.6802 -0.4925  0.8886
21744SOL     OW66999   5.157   1.970   1.570 -0.1164 -0.7826 -0.2609
21744SOL    HW167000   5.194   1.946   1.486 -1.9814 -1.9910 -0.8034
21744SOL    HW267001   5.098   2.043   1.551  1.5120  0.8085  0.5058
21745SOL     OW67002   0.606   6.460   0.437 -0.3532  0.4711 -0.6073
21745SOL    HW167003   0.551   6.405   0.492  0.1490  1.6570  1.1793
21745SOL    HW267004   0.695   6.426   0.450 -0.0591  1.5395  0.3866
21746SOL     OW67005   6.913   1.565   8.733 -0.1142 -0.4132  0.3880
21746SOL    HW167006   6.962   1.586   8.812  1.2422  0.1321 -0.5436
21746SOL    HW267007   6.822   1.565   8.760  0.3801 -1.8301  2.2904
21747SOL     OW67008   5.181   1.104   3.549  0.1207 -0.4951  0.2171
21747SOL    HW167009   5.261   1.113   3.498 -0.6014 -0.0440 -0.8737
21747SOL    HW267010   5.161   1.193   3.578 -0.3216 -0.4985 -0.0597
21748SOL     OW67011   9.437   9.635   6.922  0.2053  0.3136  0.0993
21748SOL    HW167012   9.512   9.579   6.940 -0.0607  0.6816  2.8895
21748SOL    HW267013   9.371   9.577   6.884  1.1713 -0.4415 -0.4558
21749SOL     OW67014   3.457   9.531   7.493  0.2778  0.6703 -0.2824
21749SOL    HW167015   3.534   9.492   7.536 -0.6409  0.6599  1.4385
21749SOL    HW267016   3.427   9.597   7.555 -0.6530  1.2218 -1.3018
21750SOL     OW67017   7.084   7.609   1.713  0.3462  0.2507  0.5818
21750SOL    HW167018   6.998   7.592   1.751  0.1822  0.8768  0.5078
21750SOL    HW267019   7.144   7.613   1.788  0.4181 -0.7449  0.5925
21751SOL     OW67020   7.250   7.188   4.711  0.4283  0.1195  0.5455
21751SOL    HW167021   7.221   7.096   4.712  0.1790  0.1906  0.0961
21751SOL    HW267022   7.250   7.214   4.803 -0.2650 -0.0989  0.6171
21752SOL     OW67023   0.619   7.841   4.427  0.0607 -0.4095  0.0870
21752SOL    HW167024   0.704   7.833   4.470 -0.3098 -2.3795  0.5530
21752SOL    HW267025   0.628   7.790   4.347  0.1081  1.5767 -1.2354
21753SOL     OW67026   0.498   9.267   6.191  0.0120 -0.2199  0.2631
21753SOL    HW167027   0.422   9.325   6.199  0.3237  0.5659 -1.7794
21753SOL    HW267028   0.464   9.190   6.145  0.0857 -0.6293  0.8958
21754SOL     OW67029   5.361   1.383   2.660  0.5666 -0.1710 -0.2548
21754SOL    HW167030   5.332   1.450   2.721  1.0975 -0.4039  0.2539
21754SOL    HW267031   5.431   1.337   2.705  1.2682 -0.0681 -1.1945
21755SOL     OW67032   2.280   6.819   5.378  0.3818 -0.2508  0.0420
21755SOL    HW167033   2.305   6.738   5.332  0.9169 -0.2913  0.3957
21755SOL    HW267034   2.221   6.863   5.317 -1.7267 -1.9299  0.7257
21756SOL     OW67035   5.958   8.112   8.685 -0.3311  0.0023 -0.3056
21756SOL    HW167036   5.874   8.069   8.672 -0.0734 -0.3317 -0.9050
21756SOL    HW267037   5.936   8.205   8.698 -0.8170 -0.1563  0.0137
21757SOL     OW67038   5.644   3.692   0.309  0.3750 -0.0486 -0.0380
21757SOL    HW167039   5.574   3.730   0.362  0.0356  0.1959 -0.6579
21757SOL    HW267040   5.718   3.752   0.322  0.3419 -0.0751  0.2821
21758SOL     OW67041   5.753   1.737   1.301 -0.1869  0.4175  0.1258
21758SOL    HW167042   5.814   1.737   1.228 -0.5721  0.8940 -0.1969
21758SOL    HW267043   5.769   1.653   1.346  0.0366  0.1212 -0.5035
21759SOL     OW67044   6.978   9.372   3.125 -0.4289  0.2609 -0.2962
21759SOL    HW167045   6.969   9.278   3.142 -0.6937  0.7490  2.9189
21759SOL    HW267046   6.928   9.414   3.195  2.4395  2.8339  0.4495
21760SOL     OW67047   5.079   0.577   2.766  0.0134 -0.0761 -0.2176
21760SOL    HW167048   5.115   0.618   2.844 -0.0262  0.6360 -0.5629
21760SOL    HW267049   4.984   0.580   2.778  0.0283 -1.2875  0.3580
21761SOL     OW67050   4.113   8.064   5.311 -0.2189 -0.0035 -0.1508
21761SOL    HW167051   4.163   8.061   5.393  1.1869 -2.3014 -0.9845
21761SOL    HW267052   4.038   8.007   5.327 -0.0099 -0.3531 -0.4073
21762SOL     OW67053   7.663   6.929   9.391 -0.4532 -0.4025 -0.6029
21762SOL    HW167054   7.700   6.893   9.310 -0.3235  0.9336 -1.1512
21762SOL    HW267055   7.637   7.018   9.368  0.2633  0.2634  1.0109
21763SOL     OW67056   2.007   0.171   9.216 -0.3965  0.3531 -0.0739
21763SOL    HW167057   1.982   0.247   9.164  0.9003  0.4245 -0.6227
21763SOL    HW267058   2.088   0.140   9.176  1.3386  1.1006  2.6027
21764SOL     OW67059   9.169   5.947   6.214 -0.0906 -0.2214  0.1537
21764SOL    HW167060   9.206   5.980   6.296  0.6368 -0.5736 -0.0128
21764SOL    HW267061   9.076   5.935   6.232 -0.0629  0.3617  0.7101
21765SOL     OW67062   4.085   1.701   1.817 -0.0578  0.3463 -0.2921
21765SOL    HW167063   4.043   1.634   1.870 -0.3504 -0.9200 -2.0165
21765SOL    HW267064   4.022   1.773   1.814 -0.3687  0.1088  0.3984
21766SOL     OW67065   5.418   3.659   4.891  0.0954 -0.0114 -0.2436
21766SOL    HW167066   5.396   3.732   4.832 -0.7844  0.3816  0.5516
21766SOL    HW267067   5.450   3.591   4.832 -0.1402  0.6093 -1.1203
21767SOL     OW67068   9.690   3.159   4.994  0.1635  0.2426 -0.1934
21767SOL    HW167069   9.722   3.098   5.061  0.3370 -0.3927 -0.8414
21767SOL    HW267070   9.612   3.199   5.033 -0.6093 -1.2196 -0.1951
21768SOL     OW67071   7.132   1.672   0.033 -0.2864 -0.1203 -0.0569
21768SOL    HW167072   7.216   1.639   0.000  0.2681  1.1764  0.0344
21768SOL    HW267073   7.067   1.620  -0.015  0.5410  0.0256 -1.3998
21769SOL     OW67074   2.979   5.471   6.264  0.6237  0.4520 -0.4563
21769SOL    HW167075   3.025   5.547   6.300  1.3485 -0.7111  1.2120
21769SOL    HW267076   3.029   5.447   6.186  0.0719  1.9668 -1.3156
21770SOL     OW67077   9.520   5.871   4.722  0.1566  0.7929 -0.0767
21770SOL    HW167078   9.591   5.910   4.772 -0.3316 -0.5466  1.8166
21770SOL    HW267079   9.519   5.779   4.750 -0.6108  0.1278 -2.0944
21771SOL     OW67080   9.311   6.122   6.426  0.4322 -0.2027 -0.4457
21771SOL    HW167081   9.276   6.126   6.515  0.9151  0.3611 -0.2765
21771SOL    HW267082   9.320   6.214   6.399 -0.0779 -0.3704 -1.2229
21772SOL     OW67083   6.274   0.891   9.811  0.5980 -0.3384  0.1082
21772SOL    HW167084   6.294   0.801   9.839 -1.5152 -0.3591  1.8263
21772SOL    HW267085   6.257   0.938   9.893 -1.9554  0.6711 -0.9199
21773SOL     OW67086   8.983   7.205   5.608  0.3292  0.7649  0.2074
21773SOL    HW167087   8.967   7.287   5.560  0.7060  0.3773 -0.5990
21773SOL    HW267088   8.958   7.136   5.546  0.0997  0.2664  0.8506
21774SOL     OW67089   8.096   0.183   3.514  0.1531  0.5807  0.2125
21774SOL    HW167090   8.118   0.246   3.583 -1.1453 -0.7403  1.9129
21774SOL    HW267091   8.179   0.140   3.493  0.3137 -0.2313  2.2663
21775SOL     OW67092   3.903   7.096   8.449 -0.0122  0.4319  0.1306
21775SOL    HW167093   3.941   7.153   8.383  0.3931  0.1709  0.1332
21775SOL    HW267094   3.965   7.023   8.456 -1.6374 -1.2257 -1.5519
21776SOL     OW67095   9.808   2.181   2.351  0.1404 -0.3673  0.0817
21776SOL    HW167096   9.740   2.113   2.351 -1.8912  1.5155 -1.6623
21776SOL    HW267097   9.839   2.185   2.261 -2.2665  3.1739 -0.7869
21777SOL     OW67098   1.885   7.958   2.703  0.0598 -1.0457 -0.4580
21777SOL    HW167099   1.835   8.030   2.666  1.0665 -0.9444 -1.6540
21777SOL    HW267100   1.870   7.965   2.798 -0.3475  0.3505 -0.6047
21778SOL     OW67101   3.611   0.179   2.814 -0.5543  0.3580 -0.5161
21778SOL    HW167102   3.539   0.241   2.801 -1.0683  0.4981  2.3819
21778SOL    HW267103   3.617   0.132   2.731 -1.9573  2.3959 -1.8677
21779SOL     OW67104   2.248   1.528   2.766 -0.0517 -0.1097  0.2355
21779SOL    HW167105   2.220   1.437   2.762  0.0843 -0.1183 -0.5915
21779SOL    HW267106   2.302   1.541   2.688 -1.4522  1.1486 -0.5742
21780SOL     OW67107   4.654   6.288   3.651 -0.0435  0.1183  0.2632
21780SOL    HW167108   4.691   6.283   3.740 -0.4264  0.2537  0.4320
21780SOL    HW267109   4.560   6.279   3.664 -0.1548  0.7482 -0.0688
21781SOL     OW67110   7.103   7.342   7.537 -0.5650  0.3385  0.5615
21781SOL    HW167111   7.133   7.284   7.467 -2.1908  1.2285 -0.9464
21781SOL    HW267112   7.158   7.319   7.612  0.0539 -1.8837 -0.4837
21782SOL     OW67113   3.051   0.285   2.895  0.0292 -0.2933  0.3380
21782SOL    HW167114   2.975   0.255   2.945 -0.8164  1.3248  0.0930
21782SOL    HW267115   3.120   0.223   2.917 -1.8302 -3.0654 -0.9795
21783SOL     OW67116   0.667   9.834   3.378 -0.1101  0.5272 -0.4666
21783SOL    HW167117   0.597   9.882   3.422  0.1074  0.7243 -0.3358
21783SOL    HW267118   0.689   9.887   3.302  0.2129  0.6938 -0.2554
21784SOL     OW67119   9.130   5.798   3.057  0.9641 -0.0711 -0.2505
21784SOL    HW167120   9.219   5.792   3.022  0.4978 -0.8844 -1.3677
21784SOL    HW267121   9.077   5.827   2.983  0.2370  0.0237  0.2959
21785SOL     OW67122   7.533   5.710   0.911 -0.1063  0.4371 -0.5488
21785SOL    HW167123   7.519   5.628   0.864  1.1160 -0.2531  0.2125
21785SOL    HW267124   7.448   5.733   0.947 -0.4231 -0.6534 -0.5653
21786SOL     OW67125   9.193   2.914   1.119 -0.2751 -0.0310 -0.2818
21786SOL    HW167126   9.281   2.882   1.134 -0.0916 -0.2596 -1.6785
21786SOL    HW267127   9.143   2.887   1.196  0.5336 -1.1830 -0.1525
21787SOL     OW67128   5.012   1.307   9.741  0.0285  0.4932 -0.1196
21787SOL    HW167129   4.971   1.371   9.682 -0.0738 -1.5013 -2.3621
21787SOL    HW267130   5.096   1.287   9.699  0.5387 -0.0555  1.1203
21788SOL     OW67131   5.305   8.669   2.158  0.2575 -0.1512 -0.3859
21788SOL    HW167132   5.218   8.702   2.178  1.3710  1.8794  1.5521
21788SOL    HW267133   5.360   8.747   2.155  2.0293 -1.3620 -1.6582
21789SOL     OW67134   7.248   8.237   0.571  0.1248  0.0865  0.0579
21789SOL    HW167135   7.280   8.325   0.589 -1.8138  0.9521 -0.3992
21789SOL    HW267136   7.252   8.192   0.656 -0.1732  1.0943  0.6220
21790SOL     OW67137   9.085   4.161   9.278 -0.2500  0.4494  0.0771
21790SOL    HW167138   9.045   4.212   9.207  0.3169  1.3234  0.3747
21790SOL    HW267139   9.179   4.175   9.267  0.0811 -2.0565 -0.9804
21791SOL     OW67140   8.698   6.528   9.032 -0.2541 -0.1853 -0.6045
21791SOL    HW167141   8.768   6.503   9.093 -0.1095 -0.0581 -0.7154
21791SOL    HW267142   8.722   6.616   9.003  0.8554 -1.0363 -2.5085
21792SOL     OW67143   5.961   5.583   2.875  0.4138 -0.2616 -0.5748
21792SOL    HW167144   5.957   5.666   2.828  0.1603  0.6530  0.9844
21792SOL    HW267145   6.055   5.564   2.883  0.4647 -0.2503 -1.1312
21793SOL     OW67146   9.236   0.346   8.206  0.3587  0.2372  0.3749
21793SOL    HW167147   9.290   0.331   8.283  1.8526  0.4749 -0.5903
21793SOL    HW267148   9.240   0.441   8.192  2.5531 -0.0770 -1.6608
21794SOL     OW67149   1.320   3.089   1.951  0.1401  0.0512 -0.4520
21794SOL    HW167150   1.409   3.121   1.966  0.7276  0.4129 -3.8685
21794SOL    HW267151   1.331   2.999   1.920 -0.9105 -0.7245  1.2863
21795SOL     OW67152   6.845   5.718   0.350 -0.4462  0.3200  0.4366
21795SOL    HW167153   6.917   5.658   0.372 -1.7771 -1.0854  1.2025
21795SOL    HW267154   6.854   5.790   0.412  0.7452  0.5592  0.0099
21796SOL     OW67155   2.302   7.650   1.861  0.0906 -0.3804 -0.1615
21796SOL    HW167156   2.367   7.699   1.811  0.0801  1.9668  1.9548
21796SOL    HW267157   2.261   7.715   1.917 -0.3692 -2.7305  2.4134
21797SOL     OW67158   4.250   7.627   1.459 -0.0943  0.3339 -0.5010
21797SOL    HW167159   4.313   7.614   1.388  1.1038 -0.2525  0.6352
21797SOL    HW267160   4.230   7.539   1.490 -0.5702  0.5895 -0.0616
21798SOL     OW67161   5.120   6.716   9.066 -0.0740 -0.5250  0.6547
21798SOL    HW167162   5.028   6.690   9.073 -0.3010  0.3357  0.9059
21798SOL    HW267163   5.123   6.806   9.097  0.7156 -0.2562 -0.1480
21799SOL     OW67164   1.325   5.043   9.266  0.5196  0.4775 -0.2397
21799SOL    HW167165   1.383   5.057   9.191  0.3983 -0.7927 -0.6011
21799SOL    HW267166   1.258   4.982   9.233  2.2752 -2.7937  1.6930
21800SOL     OW67167   2.694   2.769   9.307 -0.3476  0.0495 -0.7182
21800SOL    HW167168   2.692   2.809   9.394 -2.3928 -0.7187 -0.3353
21800SOL    HW267169   2.786   2.754   9.289  0.2302  1.6980  0.6220
21801SOL     OW67170   9.667   2.983   9.136 -0.5064 -0.7164 -0.5754
21801SOL    HW167171   9.680   3.001   9.043  1.7339 -0.0620 -0.2022
21801SOL    HW267172   9.681   2.888   9.144 -0.5431 -0.7476 -0.8709
21802SOL     OW67173   8.747   1.276   1.883 -0.4544  0.2161 -0.2952
21802SOL    HW167174   8.732   1.304   1.973  0.6524  0.3293 -0.1259
21802SOL    HW267175   8.842   1.266   1.877 -0.2990  2.0083 -1.9566
21803SOL     OW67176   2.998   5.519   3.531 -0.2514  0.4062  0.5722
21803SOL    HW167177   3.044   5.599   3.506  0.1130 -0.2298 -0.8915
21803SOL    HW267178   3.054   5.480   3.598 -0.0467  0.9770  0.7466
21804SOL     OW67179   5.005   0.522   0.725 -0.7450  0.2664  0.3089
21804SOL    HW167180   4.962   0.514   0.640  1.0933 -0.2722 -0.6159
21804SOL    HW267181   4.975   0.446   0.775 -1.6306  0.4473  0.0743
21805SOL     OW67182   4.831   2.485   3.451 -0.1822  0.0440  0.6686
21805SOL    HW167183   4.918   2.491   3.412  0.0967 -1.5942  1.0160
21805SOL    HW267184   4.842   2.516   3.541 -0.0548  0.1910  0.6035
21806SOL     OW67185   5.530   9.786   8.161  0.2903 -0.3460 -0.6789
21806SOL    HW167186   5.515   9.742   8.078 -2.7552 -2.4590  0.7844
21806SOL    HW267187   5.444   9.818   8.188  1.5907  2.4392  0.6069
21807SOL     OW67188   5.887   3.816   0.083 -0.3791 -0.2237 -1.2706
21807SOL    HW167189   5.964   3.762   0.060  0.0240  0.8315 -2.5246
21807SOL    HW267190   5.915   3.906   0.065 -1.0225  0.4566  0.8285
21808SOL     OW67191   1.482   8.367   1.103  0.7798  0.5814  0.3195
21808SOL    HW167192   1.491   8.357   1.198  2.2306 -1.5871  0.0190
21808SOL    HW267193   1.414   8.304   1.079 -2.0056  3.3573  0.1872
21809SOL     OW67194   4.065   9.368   3.766 -0.9293 -0.0699  0.4795
21809SOL    HW167195   4.089   9.425   3.839 -0.8349  0.0126  0.3840
21809SOL    HW267196   4.117   9.289   3.779 -0.1464  0.3414 -0.0586
21810SOL     OW67197   9.170   6.240   0.319 -0.0939  0.1229  0.2166
21810SOL    HW167198   9.137   6.192   0.395 -0.6646  0.9058  0.4771
21810SOL    HW267199   9.092   6.270   0.273  0.1833 -1.9419 -1.7866
21811SOL     OW67200   3.059   4.125   7.574 -0.0444 -0.9429  0.3000
21811SOL    HW167201   3.022   4.135   7.662 -2.4531 -1.7544 -0.5495
21811SOL    HW267202   3.125   4.057   7.584  0.0550 -0.6949  1.5502
21812SOL     OW67203   6.143   4.491   3.708  0.1529  0.8291 -0.1090
21812SOL    HW167204   6.055   4.475   3.675 -0.2175 -0.7714  1.4746
21812SOL    HW267205   6.147   4.442   3.790  1.7153  2.8444  1.1133
21813SOL     OW67206   9.625   4.617   1.942 -0.3318  0.8481 -1.0077
21813SOL    HW167207   9.679   4.683   1.986 -0.6885  0.8368 -0.5439
21813SOL    HW267208   9.670   4.600   1.860 -0.3198  1.7886 -1.2061
21814SOL     OW67209   7.921   5.571   7.063  0.2009 -0.0405  0.4563
21814SOL    HW167210   7.901   5.482   7.033  0.5626  0.5229 -1.5817
21814SOL    HW267211   7.929   5.562   7.158 -1.1727 -1.9020  0.4634
21815SOL     OW67212   3.351   2.120   5.144 -0.3527  0.5961 -0.0926
21815SOL    HW167213   3.350   2.180   5.069 -1.7024  0.7633  0.0399
21815SOL    HW267214   3.259   2.103   5.163 -0.0380 -1.8317 -0.3755
21816SOL     OW67215   2.316   5.733   4.121  0.4479 -0.6505 -0.0378
21816SOL    HW167216   2.364   5.745   4.039  0.4089  0.1897  0.0525
21816SOL    HW267217   2.365   5.665   4.168  0.7836 -0.7443 -0.5163
21817SOL     OW67218   1.642   4.905   8.158 -0.0832 -0.3218  0.7050
21817SOL    HW167219   1.624   4.891   8.251  0.6706 -0.9123  0.7661
21817SOL    HW267220   1.731   4.873   8.145  0.4600  1.3153  0.1381
21818SOL     OW67221   0.944   1.584   2.349  0.0261 -0.1937 -0.2561
21818SOL    HW167222   0.984   1.614   2.430  0.2649  1.1223 -0.8466
21818SOL    HW267223   0.952   1.657   2.289 -0.3368 -1.0747 -1.4164
21819SOL     OW67224   0.547   0.009   5.585  0.0405  0.3376 -0.3786
21819SOL    HW167225   0.482   0.057   5.533 -0.4274  1.2127  0.9748
21819SOL    HW267226   0.550   0.055   5.669  1.6728 -0.3053 -0.0459
21820SOL     OW67227   3.739   2.584   0.860  0.4545 -0.5189 -0.7121
21820SOL    HW167228   3.685   2.550   0.931 -0.8085 -0.5705 -1.6650
21820SOL    HW267229   3.761   2.673   0.887  2.0786 -1.3372  0.8552
21821SOL     OW67230   6.490   0.825   3.807 -0.3439 -0.2047 -0.3127
21821SOL    HW167231   6.504   0.857   3.896  0.0733 -0.1146 -0.4092
21821SOL    HW267232   6.395   0.821   3.798 -0.4329  1.6283 -0.5245
21822SOL     OW67233   0.665   1.654   3.833  0.3882  0.2325 -0.3197
21822SOL    HW167234   0.712   1.579   3.796  1.0021  0.5238 -0.1498
21822SOL    HW267235   0.581   1.655   3.788 -1.4956 -3.1605  2.6390
21823SOL     OW67236   0.037   1.661   1.567  0.4356  0.2956 -0.8704
21823SOL    HW167237   0.045   1.741   1.619 -1.0965 -1.2278  1.9904
21823SOL    HW267238   0.111   1.607   1.595 -1.1912 -1.1185  1.0677
21824SOL     OW67239   4.056   4.989   4.026  0.1855 -0.4436  0.4756
21824SOL    HW167240   4.083   4.960   3.939  0.5694  1.1437  0.0271
21824SOL    HW267241   3.970   4.948   4.039  1.1602 -2.6461  0.4058
21825SOL     OW67242   0.720   7.607   3.093 -0.3242  0.2138 -0.4272
21825SOL    HW167243   0.797   7.659   3.115 -0.8882  1.1797 -0.6666
21825SOL    HW267244   0.649   7.648   3.143 -0.4956 -1.3460  0.6765
21826SOL     OW67245   1.706   8.157   8.983  0.0489  0.0676  0.6934
21826SOL    HW167246   1.635   8.107   9.023 -0.1087 -0.0602  0.2580
21826SOL    HW267247   1.704   8.133   8.890  0.4100  0.3610  0.6035
21827SOL     OW67248   4.064   0.050   5.395 -0.0998 -0.0977 -0.3578
21827SOL    HW167249   4.003  -0.024   5.388 -0.5054  0.1289  0.6307
21827SOL    HW267250   4.122   0.040   5.319 -1.4148 -0.2632 -1.3834
21828SOL     OW67251   9.285   3.736   8.560 -0.8089 -0.1129  0.2271
21828SOL    HW167252   9.240   3.690   8.631  0.3724 -0.1382  0.9739
21828SOL    HW267253   9.371   3.695   8.555  0.8270  2.8582  1.8482
21829SOL     OW67254   8.797   8.195   1.341 -0.1903 -0.3114 -0.6577
21829SOL    HW167255   8.737   8.267   1.321 -0.7786 -0.3576  0.7650
21829SOL    HW267256   8.868   8.236   1.391 -0.4165 -0.6558 -0.0353
21830SOL     OW67257   8.758   6.885   9.514  0.5079 -0.3462  0.0703
21830SOL    HW167258   8.824   6.823   9.485  1.3399  0.0952  0.9623
21830SOL    HW267259   8.765   6.958   9.452 -0.1821 -0.9432 -0.7251
21831SOL     OW67260   4.404   6.905   5.013 -0.3441  0.2093 -0.3367
21831SOL    HW167261   4.347   6.955   4.955  0.2386  2.1445  0.6703
21831SOL    HW267262   4.476   6.965   5.033  0.6222 -1.2120  0.5901
21832SOL     OW67263   3.824   4.392   0.385 -0.1368  0.7179 -1.1054
21832SOL    HW167264   3.742   4.352   0.357 -0.0502 -0.5605  0.3227
21832SOL    HW267265   3.890   4.326   0.365 -0.0839 -0.3546  2.0510
21833SOL     OW67266   5.970   4.427   0.495 -0.1272  0.2444 -0.3354
21833SOL    HW167267   5.959   4.381   0.412 -0.2833  1.2956 -0.9034
21833SOL    HW267268   5.964   4.520   0.473  0.5098  0.5623  0.7508
21834SOL     OW67269   4.913   6.612   3.872 -0.0263 -0.1893  0.1143
21834SOL    HW167270   4.837   6.553   3.873  0.0805 -0.3286 -0.1012
21834SOL    HW267271   4.970   6.577   3.804  0.9984 -1.0607  1.3559
21835SOL     OW67272   3.034   6.691   0.289 -0.4472  0.9369 -0.3789
21835SOL    HW167273   2.946   6.726   0.279 -2.0087 -2.3660  0.3585
21835SOL    HW267274   3.022   6.596   0.293  3.2008  0.3021 -0.5668
21836SOL     OW67275   8.834   1.066   5.042  0.0065  0.0498  0.4762
21836SOL    HW167276   8.798   1.001   5.102 -0.3537  0.7633  1.0470
21836SOL    HW267277   8.855   1.141   5.098  1.8894 -0.1345  0.0875
21837SOL     OW67278   9.677   6.950   5.319 -0.2030 -0.3152  0.3733
21837SOL    HW167279   9.737   6.994   5.379  0.2988 -0.9518  0.3517
21837SOL    HW267280   9.734   6.902   5.259 -0.7006  0.0876 -0.4477
21838SOL     OW67281   7.995   3.625   7.513  0.0625 -0.2249 -0.4882
21838SOL    HW167282   7.909   3.652   7.546  0.8025  3.5363 -1.2037
21838SOL    HW267283   8.036   3.707   7.484  3.7390 -1.9376 -0.5992
21839SOL     OW67284   4.104   7.624   6.876 -0.2048 -0.7375  0.1236
21839SOL    HW167285   4.193   7.590   6.874 -0.2839 -0.9353 -1.1397
21839SOL    HW267286   4.113   7.718   6.861 -0.3001 -1.0684 -2.4355
21840SOL     OW67287   0.791   6.205   1.154 -0.2068  0.0741  0.5844
21840SOL    HW167288   0.764   6.271   1.218  0.1449  2.5366 -1.6144
21840SOL    HW267289   0.886   6.202   1.163  0.1834  2.5316 -1.5233
21841SOL     OW67290   7.729   7.241   4.178  0.4027 -0.3229  0.0688
21841SOL    HW167291   7.789   7.249   4.252 -0.5812  1.0311  0.7496
21841SOL    HW267292   7.766   7.297   4.110  1.9263 -2.4261 -0.9762
21842SOL     OW67293   7.202   0.048   2.315 -0.3174 -0.3275 -0.2216
21842SOL    HW167294   7.218   0.022   2.224 -0.1115  0.7786 -0.5176
21842SOL    HW267295   7.287   0.037   2.359 -0.1629  0.0798 -0.4103
21843SOL     OW67296   5.189   8.285   9.651 -0.1361 -0.0899 -0.1766
21843SOL    HW167297   5.244   8.255   9.579 -0.2251  0.5959 -0.5307
21843SOL    HW267298   5.249   8.321   9.715 -0.1855  0.9004 -0.6792
21844SOL     OW67299   8.729   3.894   1.810 -0.1163  0.0017  0.6178
21844SOL    HW167300   8.754   3.985   1.823  0.6848 -0.0591 -0.3858
21844SOL    HW267301   8.693   3.892   1.721 -2.0600 -0.2734  1.3646
21845SOL     OW67302   8.356   1.036   6.199 -0.2408  0.5932 -0.1133
21845SOL    HW167303   8.306   1.106   6.157 -1.0145 -1.7133 -3.4274
21845SOL    HW267304   8.342   0.960   6.143 -0.4351 -2.6284  3.8513
21846SOL     OW67305   3.809   8.194   9.598 -0.3020  0.5385  0.0535
21846SOL    HW167306   3.816   8.108   9.556  0.2994  0.0196  1.1677
21846SOL    HW267307   3.761   8.177   9.679  0.7863  1.0467  0.8216
21847SOL     OW67308   4.092   7.632   0.542  0.6993 -0.3054  0.1019
21847SOL    HW167309   4.169   7.686   0.524  1.2131 -1.1202 -0.2110
21847SOL    HW267310   4.102   7.556   0.484 -1.3607  0.5176 -1.4462
21848SOL     OW67311   0.786   7.529   8.233  0.3264  0.1585 -0.2413
21848SOL    HW167312   0.803   7.439   8.262 -0.5158 -0.0946 -0.5056
21848SOL    HW267313   0.770   7.521   8.139 -0.9058  0.4143 -0.0715
21849SOL     OW67314   7.751   8.000   2.110 -0.3528  0.0121  0.3255
21849SOL    HW167315   7.669   8.040   2.139 -1.5214  0.0000 -2.6435
21849SOL    HW267316   7.737   7.906   2.122 -0.9109 -0.0074 -0.3887
21850SOL     OW67317   2.467   4.782   7.100 -0.4302  0.0791 -0.3544
21850SOL    HW167318   2.518   4.792   7.019 -0.1284 -1.4849 -0.3739
21850SOL    HW267319   2.422   4.699   7.090  0.5266 -0.7338  1.5757
21851SOL     OW67320   6.187   0.064   4.305 -0.6318  0.6348 -0.0270
21851SOL    HW167321   6.130   0.086   4.378 -1.7457 -0.5013 -0.5316
21851SOL    HW267322   6.177  -0.030   4.293  0.0500  0.6893 -1.2137
21852SOL     OW67323   4.865   1.046   2.567  0.6915  0.0661  0.1822
21852SOL    HW167324   4.929   1.046   2.496 -0.0842 -2.3759 -0.6151
21852SOL    HW267325   4.789   1.092   2.531 -0.6505 -3.2498 -1.6662
21853SOL     OW67326   3.917   2.647   1.996 -0.2184  0.5567 -0.5006
21853SOL    HW167327   3.978   2.683   1.931  0.0611 -0.7253 -0.9868
21853SOL    HW267328   3.960   2.664   2.080 -0.4086  1.9053 -0.6471
21854SOL     OW67329   4.072   0.153   8.083 -0.1653  0.1452 -0.0603
21854SOL    HW167330   4.152   0.206   8.080 -0.0106 -0.1057 -1.2153
21854SOL    HW267331   4.061   0.131   8.175 -0.7207  2.8763  0.6124
21855SOL     OW67332   8.700   6.522   4.234 -0.2153 -0.1896  0.0570
21855SOL    HW167333   8.765   6.490   4.296 -0.7316 -0.7115  0.3421
21855SOL    HW267334   8.751   6.546   4.156  0.1958 -1.9235 -0.2535
21856SOL     OW67335   0.742   8.436   1.350  0.2299 -0.2854 -0.1315
21856SOL    HW167336   0.797   8.375   1.400 -1.0824 -0.8692  0.6585
21856SOL    HW267337   0.766   8.522   1.383  0.8403 -0.5068  0.0197
21857SOL     OW67338   9.321   7.731   8.866  0.0131  0.5559 -0.3949
21857SOL    HW167339   9.410   7.735   8.903 -0.8988  0.3462  2.0171
21857SOL    HW267340   9.294   7.823   8.859 -0.5287  0.5735  1.4796
21858SOL     OW67341   1.686   8.467   3.926 -0.6733  0.1128 -0.6495
21858SOL    HW167342   1.713   8.377   3.910 -0.9780 -0.3110  1.0748
21858SOL    HW267343   1.649   8.466   4.014 -0.4611  1.9796 -0.5022
21859SOL     OW67344   6.653   4.516   1.654 -0.3385 -0.0264 -0.2225
21859SOL    HW167345   6.645   4.612   1.654 -0.2636  0.0185  1.4321
21859SOL    HW267346   6.563   4.485   1.662 -0.4971 -0.1683 -2.1455
21860SOL     OW67347   2.438   4.206   1.162 -0.5099 -0.0708 -0.0110
21860SOL    HW167348   2.487   4.145   1.217  1.2126  1.9930  0.8965
21860SOL    HW267349   2.356   4.221   1.210  0.0773  0.1254  0.9537
21861SOL     OW67350   6.075   7.071   3.486  0.0823 -0.4908 -0.3061
21861SOL    HW167351   6.059   7.136   3.554  0.0341 -0.2223 -0.5723
21861SOL    HW267352   6.020   6.996   3.510 -1.7116  0.4488 -1.2771
21862SOL     OW67353   9.675   8.004   7.789 -0.1571 -0.2011 -0.0700
21862SOL    HW167354   9.637   7.935   7.844 -0.3929  0.6866  0.9029
21862SOL    HW267355   9.746   8.041   7.843 -1.2369  1.5700  0.2204
21863SOL     OW67356   8.217   6.350   4.312  0.6893  0.2809 -0.9894
21863SOL    HW167357   8.295   6.368   4.259  1.3205  0.8625  0.0921
21863SOL    HW267358   8.193   6.436   4.348 -0.4826  0.1116 -1.3292
21864SOL     OW67359   7.079   0.994   9.653 -0.3682  0.0908  0.4276
21864SOL    HW167360   7.091   1.020   9.745  0.6566  1.1156  0.0202
21864SOL    HW267361   7.063   1.076   9.607  2.0680 -0.0181 -0.7538
21865SOL     OW67362   1.336   4.032   3.575  0.2159  0.2536 -0.3302
21865SOL    HW167363   1.312   3.943   3.549  0.9604 -0.2549  0.6333
21865SOL    HW267364   1.270   4.056   3.640  0.6620 -0.0492  0.2455
21866SOL     OW67365   0.644   6.553   0.173 -0.3918  0.5148  0.3249
21866SOL    HW167366   0.631   6.498   0.250 -0.0034  1.7759  1.3164
21866SOL    HW267367   0.558   6.591   0.157 -0.2941  0.8705  0.6303
21867SOL     OW67368   0.470   2.811   9.592 -0.6148  0.2311 -0.0579
21867SOL    HW167369   0.514   2.891   9.563 -1.0463  0.7630  0.7394
21867SOL    HW267370   0.509   2.792   9.678 -2.3866  1.0754  0.9668
21868SOL     OW67371   6.701   2.708   4.622  0.2414  0.4019  0.4779
21868SOL    HW167372   6.664   2.693   4.709 -0.6575 -1.0611 -0.1077
21868SOL    HW267373   6.626   2.730   4.567  0.2359 -1.8629 -0.5697
21869SOL     OW67374   0.166   3.393   2.363 -0.4721 -0.2800  1.0705
21869SOL    HW167375   0.165   3.487   2.376  0.3930 -0.1770  0.4453
21869SOL    HW267376   0.259   3.370   2.354 -0.7054 -1.1022  0.5980
21870SOL     OW67377   2.040   7.084   4.789  0.2490  0.1070 -0.3936
21870SOL    HW167378   1.981   7.009   4.798  0.5740 -0.2871 -1.3963
21870SOL    HW267379   2.117   7.048   4.745  1.0753  0.7037  0.5149
21871SOL     OW67380   3.094   5.514   7.294  0.0108  0.0327  0.0389
21871SOL    HW167381   3.117   5.574   7.223  0.4658  1.0121  0.9903
21871SOL    HW267382   3.051   5.440   7.250  1.7625 -0.1744 -1.4138
21872SOL     OW67383   8.483   0.040   1.703 -0.1899  0.1681 -0.1743
21872SOL    HW167384   8.499  -0.002   1.619 -1.0606  1.4980 -1.0472
21872SOL    HW267385   8.560   0.095   1.717  0.6845 -1.2150  0.6945
21873SOL     OW67386   1.613   0.356   1.587  0.4607 -0.2660 -0.1316
21873SOL    HW167387   1.697   0.344   1.542  1.9538 -0.0728  2.4056
21873SOL    HW267388   1.549   0.313   1.530  1.5581  2.7273 -4.0516
21874SOL     OW67389   4.708   0.058   0.537 -0.4861 -0.0361  0.3453
21874SOL    HW167390   4.776   0.088   0.477 -2.1839  0.2681 -1.5430
21874SOL    HW267391   4.748  -0.015   0.585  1.4086  0.6731 -0.0773
21875SOL     OW67392   1.067   0.625   4.068 -0.4112 -0.0425  0.2505
21875SOL    HW167393   1.131   0.557   4.091  0.5065  0.2510 -1.2459
21875SOL    HW267394   1.064   0.683   4.144 -0.3386 -1.1215  1.0870
21876SOL     OW67395   2.534   2.186   8.363 -0.4470  0.1251  0.0250
21876SOL    HW167396   2.465   2.253   8.361 -0.3954  0.1938  0.4185
21876SOL    HW267397   2.551   2.172   8.456  1.1579  1.2380 -0.0470
21877SOL     OW67398   7.087   8.392   6.060 -0.2588  0.2210 -0.1524
21877SOL    HW167399   7.001   8.424   6.089 -0.0903  0.2929  0.2868
21877SOL    HW267400   7.092   8.303   6.094  0.1192  0.4556  0.4190
21878SOL     OW67401   0.480   7.647   7.175  0.2571  0.3853  0.4369
21878SOL    HW167402   0.538   7.707   7.222 -0.6151  0.3723  1.5492
21878SOL    HW267403   0.400   7.697   7.162  0.2478  0.1481 -0.4496
21879SOL     OW67404   5.845   9.147   1.851  0.1807 -0.1490  0.3081
21879SOL    HW167405   5.761   9.193   1.860  0.2547  0.0071  0.2082
21879SOL    HW267406   5.830   9.062   1.892 -0.6036 -0.8732 -1.4074
21880SOL     OW67407   7.454   2.937   7.639  0.0674 -0.2301  0.0497
21880SOL    HW167408   7.505   2.956   7.718 -1.9890 -0.0566  1.4304
21880SOL    HW267409   7.443   2.842   7.640  0.0615 -0.2297 -0.0147
21881SOL     OW67410   5.327   5.656   9.819 -0.1938  0.3870  0.1754
21881SOL    HW167411   5.368   5.582   9.775  0.7051  0.9444  0.0464
21881SOL    HW267412   5.233   5.637   9.817 -0.0866 -0.1108 -1.0276
21882SOL     OW67413   2.661   5.545   5.613  0.2784 -0.7619 -0.1793
21882SOL    HW167414   2.703   5.506   5.536  1.9716  1.3250 -0.4046
21882SOL    HW267415   2.734   5.575   5.668 -0.9193 -0.1439  1.1354
21883SOL     OW67416   6.375   9.837   8.598 -0.3555  1.3484  0.0447
21883SOL    HW167417   6.292   9.884   8.604 -1.2956 -0.3167  0.7418
21883SOL    HW267418   6.376   9.802   8.509 -0.6103  0.9998  0.1793
21884SOL     OW67419   9.178   5.869   3.535 -0.3689  0.2901  0.1384
21884SOL    HW167420   9.112   5.889   3.601 -0.5457  1.6345 -0.4134
21884SOL    HW267421   9.258   5.910   3.567 -0.1311 -0.1816  0.1548
21885SOL     OW67422   5.382   2.849   5.154  0.0331 -0.4340 -0.0231
21885SOL    HW167423   5.373   2.817   5.064  0.3672  0.4636 -0.3952
21885SOL    HW267424   5.435   2.929   5.145 -0.0673 -0.2492  0.9538
21886SOL     OW67425   5.658   9.501   2.312 -0.0549 -0.5824 -0.2031
21886SOL    HW167426   5.572   9.462   2.302 -0.1458 -1.3590  2.6976
21886SOL    HW267427   5.699   9.452   2.383  2.6696  0.0065 -1.2190
21887SOL     OW67428   9.520   6.415   4.332 -0.5428 -0.5874 -0.1669
21887SOL    HW167429   9.592   6.353   4.336 -0.7471 -0.8051  0.1711
21887SOL    HW267430   9.557   6.497   4.364 -0.9496 -1.1853  1.9499
21888SOL     OW67431   1.403   7.605   3.466  0.6718  0.1407  0.0516
21888SOL    HW167432   1.410   7.540   3.536 -1.4607 -0.1180  0.0735
21888SOL    HW267433   1.405   7.689   3.513  1.8065  0.0792  0.1583
21889SOL     OW67434   4.403   6.007   8.169  0.3191  0.1007  0.0608
21889SOL    HW167435   4.410   5.925   8.218  0.7848 -0.4503 -0.9133
21889SOL    HW267436   4.309   6.024   8.164  0.2040 -0.5495 -0.0282
21890SOL     OW67437   2.549   1.903   6.144  0.1446 -0.4359  0.3037
21890SOL    HW167438   2.600   1.927   6.221 -0.5782  1.2991  0.2738
21890SOL    HW267439   2.495   1.980   6.125 -1.4114 -1.6738 -0.5476
21891SOL     OW67440   9.606   4.702   5.423 -0.0363 -0.0583 -1.0433
21891SOL    HW167441   9.539   4.766   5.446  0.6609  0.2541  0.1964
21891SOL    HW267442   9.585   4.624   5.474  1.4480  0.5990  0.6972
21892SOL     OW67443   9.522   7.009   1.184 -0.0739  0.1083 -0.6559
21892SOL    HW167444   9.472   7.047   1.112  2.0993  2.0373 -1.2957
21892SOL    HW267445   9.498   7.061   1.260  0.9328  1.1001 -0.9830
21893SOL     OW67446   4.741   0.415   8.500  0.0312 -0.1170  0.3268
21893SOL    HW167447   4.662   0.415   8.555  1.3442  1.5785  2.3370
21893SOL    HW267448   4.793   0.342   8.533 -0.6310 -1.2756 -1.0424
21894SOL     OW67449   5.776   9.297   6.535 -0.0358  0.0989 -0.1963
21894SOL    HW167450   5.864   9.333   6.550 -0.0257  0.6946 -1.5220
21894SOL    HW267451   5.757   9.318   6.444 -1.0465 -1.1675 -0.3031
21895SOL     OW67452   9.516   2.157   3.749  0.6353  0.0265 -0.0073
21895SOL    HW167453   9.458   2.106   3.805 -1.5050  1.2790 -0.9401
21895SOL    HW267454   9.512   2.112   3.664  0.8403  0.2552 -0.1391
21896SOL     OW67455   5.474   0.105   4.232  0.0894  0.0175 -0.3979
21896SOL    HW167456   5.405   0.043   4.254  1.6671 -1.9892 -0.7233
21896SOL    HW267457   5.520   0.064   4.158  0.5197  2.1617 -1.4127
21897SOL     OW67458   1.059   6.829   7.752 -0.1697 -0.5141  0.1141
21897SOL    HW167459   1.142   6.874   7.763 -1.1947  1.1253  1.5618
21897SOL    HW267460   1.011   6.882   7.688  0.1556 -1.9288 -1.3948
21898SOL     OW67461   0.835   6.491   4.502 -0.7300  0.1167 -0.7601
21898SOL    HW167462   0.921   6.497   4.544 -0.4020 -0.1439 -1.3817
21898SOL    HW267463   0.811   6.399   4.511 -1.0434  0.2295 -0.4085
21899SOL     OW67464   0.894   7.678   3.357  0.1090 -0.3863  0.4202
21899SOL    HW167465   0.932   7.602   3.402 -1.7590 -1.2586  0.6286
21899SOL    HW267466   0.834   7.716   3.421  0.0348  0.4982 -0.1523
21900SOL     OW67467   4.047   8.717   0.734  0.3400 -0.8152  0.2653
21900SOL    HW167468   4.016   8.667   0.809 -1.2757  0.3298  0.4192
21900SOL    HW267469   4.053   8.653   0.663 -2.1532 -1.2274  0.3168
21901SOL     OW67470   8.406   2.485   2.894  0.5793  0.3620 -0.2393
21901SOL    HW167471   8.386   2.477   2.987  0.8017  0.0048 -0.2222
21901SOL    HW267472   8.495   2.453   2.885  0.5330  0.3246 -0.5891
21902SOL     OW67473   9.017   3.112   1.276 -0.0981 -0.0829  0.0416
21902SOL    HW167474   8.995   3.184   1.335 -0.7011 -0.2777  0.0641
21902SOL    HW267475   9.099   3.077   1.310 -0.1269  0.1956  0.4032
21903SOL     OW67476   2.891   8.276   0.937  0.2399 -0.9198 -0.3998
21903SOL    HW167477   2.811   8.234   0.906 -1.0882  2.3624 -1.8446
21903SOL    HW267478   2.945   8.286   0.859  0.1535  0.7107 -0.2735
21904SOL     OW67479   5.590   7.805   6.662 -0.5174  0.2066  0.4385
21904SOL    HW167480   5.520   7.804   6.597 -0.5738 -0.6261  0.4934
21904SOL    HW267481   5.607   7.712   6.680  0.9446  0.3823  0.0733
21905SOL     OW67482   2.539   2.309   5.440 -0.3765 -0.4419 -0.2255
21905SOL    HW167483   2.478   2.272   5.503  0.5674  0.1543  1.0992
21905SOL    HW267484   2.626   2.288   5.475  0.1734  1.0097 -0.6224
21906SOL     OW67485   5.302   9.222   1.798  0.2020 -0.6726 -0.2208
21906SOL    HW167486   5.210   9.215   1.824  0.2966  2.3148  1.4457
21906SOL    HW267487   5.299   9.259   1.710 -0.2440 -0.4310 -0.1095
21907SOL     OW67488   0.178   5.631   7.222  0.3698 -0.7113  0.5397
21907SOL    HW167489   0.256   5.657   7.272  0.4447  0.4212 -0.1340
21907SOL    HW267490   0.183   5.536   7.217  2.3101 -0.5968 -0.4379
21908SOL     OW67491   9.784   1.706   2.051  0.0274 -0.4617  0.5163
21908SOL    HW167492   9.861   1.699   1.994  1.2233  1.3680  1.7788
21908SOL    HW267493   9.749   1.618   2.055  1.5541 -1.1891 -0.7882
21909SOL     OW67494   4.466   1.350   6.242  0.3249  0.1064  0.4728
21909SOL    HW167495   4.408   1.275   6.254  0.1818  0.0496 -0.4877
21909SOL    HW267496   4.513   1.332   6.161  0.2061  1.0987  0.1616
21910SOL     OW67497   7.621   9.819   6.016 -0.2253 -0.0984 -0.1104
21910SOL    HW167498   7.678   9.743   6.031  0.6996  0.6600  0.3103
21910SOL    HW267499   7.613   9.825   5.921 -0.0332 -0.5184 -0.1538
21911SOL     OW67500   9.740   0.734   7.352  0.0681 -0.4279  0.0404
21911SOL    HW167501   9.770   0.701   7.436  1.6259  2.1383  0.5872
21911SOL    HW267502   9.818   0.733   7.297 -0.1088  1.1425 -0.2738
21912SOL     OW67503   0.860   2.536   5.337 -0.4560 -0.3623  0.2621
21912SOL    HW167504   0.784   2.558   5.282 -0.5301  2.6831  1.3857
21912SOL    HW267505   0.825   2.532   5.426  0.3395 -1.1843  0.5500
21913SOL     OW67506   6.934   0.890   0.577  0.2394 -0.0677 -0.0704
21913SOL    HW167507   7.029   0.878   0.572  0.2376 -0.2286  0.2503
21913SOL    HW267508   6.917   0.965   0.521  1.0740  2.5063  2.8214
21914SOL     OW67509   0.880   2.627   3.413 -0.0147 -0.3031  0.2549
21914SOL    HW167510   0.822   2.578   3.355  1.2209 -0.1070 -1.2026
21914SOL    HW267511   0.927   2.560   3.464  1.3867 -0.6795 -1.4513
21915SOL     OW67512   4.370   0.714   4.765 -0.1131  0.5057 -0.3174
21915SOL    HW167513   4.459   0.701   4.732 -0.8963 -0.5753 -2.2047
21915SOL    HW267514   4.357   0.642   4.827  1.0159  1.9432  1.7086
21916SOL     OW67515   5.544   1.046   5.408  0.2379 -0.3592  0.0616
21916SOL    HW167516   5.639   1.050   5.393  0.2314  0.2166  0.1655
21916SOL    HW267517   5.530   1.096   5.488 -0.1881 -0.1948 -0.1117
21917SOL     OW67518   1.574   9.213   1.550 -0.4295  0.5039 -0.4929
21917SOL    HW167519   1.603   9.228   1.460 -0.0396 -1.0173 -0.6568
21917SOL    HW267520   1.609   9.288   1.599  0.8009  0.5021 -1.3168
21918SOL     OW67521   4.085   8.722   1.597  0.1753  0.1919  0.0598
21918SOL    HW167522   4.161   8.768   1.633 -0.4571  1.3864 -0.0574
21918SOL    HW267523   4.042   8.788   1.542 -0.2592 -0.8397 -0.8757
21919SOL     OW67524   5.926   4.279   2.026 -0.2066  0.5644 -0.4402
21919SOL    HW167525   5.943   4.250   2.115 -1.4540  0.8855 -0.0730
21919SOL    HW267526   5.852   4.339   2.034 -0.4945  0.4210 -1.7195
21920SOL     OW67527   7.462   6.629   3.975  0.1992 -0.1347 -0.0720
21920SOL    HW167528   7.499   6.683   4.045 -0.6795 -0.8410  0.9534
21920SOL    HW267529   7.387   6.679   3.942 -0.3529 -0.5274  0.5831
21921SOL     OW67530   6.765   1.827   1.625  0.4348  0.4911 -0.0602
21921SOL    HW167531   6.763   1.922   1.639  0.1592  0.1218  3.2779
21921SOL    HW267532   6.857   1.803   1.637  0.2453  0.1762  0.8466
21922SOL     OW67533   1.063   0.012   4.370 -0.0872 -0.1630 -0.5793
21922SOL    HW167534   1.119  -0.026   4.303  0.0913 -1.1387  0.1012
21922SOL    HW267535   0.974   0.003   4.335  0.0916  0.4847 -1.2240
21923SOL     OW67536   3.289   5.384   1.103 -0.5026  0.5386  0.1606
21923SOL    HW167537   3.330   5.302   1.131 -0.3851  0.5062 -0.1011
21923SOL    HW267538   3.207   5.388   1.152 -0.8930 -0.1340 -0.4194
21924SOL     OW67539   6.824   4.228   9.693 -0.1614  0.4825 -0.1405
21924SOL    HW167540   6.851   4.141   9.662 -1.5076  0.4049 -1.1768
21924SOL    HW267541   6.904   4.265   9.732  1.0044 -0.3656 -1.6016
21925SOL     OW67542   2.981   4.224   7.135 -0.1157 -0.1310  0.4809
21925SOL    HW167543   3.035   4.146   7.119  1.3585  0.9895 -0.1896
21925SOL    HW267544   2.925   4.199   7.209 -0.7176 -2.3220 -0.6295
21926SOL     OW67545   0.289   5.357   2.510 -0.0872  0.1352 -0.3078
21926SOL    HW167546   0.276   5.382   2.419 -0.8119 -0.5961 -0.4149
21926SOL    HW267547   0.291   5.440   2.558  1.8691  0.6166 -1.1513
21927SOL     OW67548   3.159   3.557   2.236  0.3556  0.1874 -0.1148
21927SOL    HW167549   3.229   3.492   2.248  0.5652  0.4227 -0.0281
21927SOL    HW267550   3.200   3.640   2.262 -0.5292  0.0636  1.8751
21928SOL     OW67551   2.599   0.337   3.526  0.4441 -0.3153 -0.0741
21928SOL    HW167552   2.555   0.253   3.542 -3.1268  0.8138 -2.6184
21928SOL    HW267553   2.672   0.315   3.468  0.0369 -1.7355 -0.0976
21929SOL     OW67554   4.329   7.204   0.505 -0.2294  0.0588 -0.1862
21929SOL    HW167555   4.255   7.142   0.505 -0.4546  0.3271  0.1498
21929SOL    HW267556   4.393   7.164   0.446 -0.0347 -0.8980  0.6380
21930SOL     OW67557   1.852   5.723   9.399 -0.1612 -0.0173  0.4991
21930SOL    HW167558   1.871   5.797   9.341  2.3639  0.8223  2.1878
21930SOL    HW267559   1.786   5.756   9.459 -1.2798 -0.2039 -0.5929
21931SOL     OW67560   9.424   5.116   4.578  0.2410 -0.1018  0.6199
21931SOL    HW167561   9.386   5.075   4.656 -1.2461 -1.4712 -0.7556
21931SOL    HW267562   9.443   5.043   4.519  1.0362  0.9242 -0.4496
21932SOL     OW67563   4.136   3.047   5.810 -0.6116 -0.7210  0.3257
21932SOL    HW167564   4.040   3.042   5.805 -0.6997  0.2786  0.7945
21932SOL    HW267565   4.159   3.120   5.753 -0.1825 -0.5033  0.7774
21933SOL     OW67566   0.133   8.906   4.525  0.1982  0.7831 -0.1716
21933SOL    HW167567   0.194   8.915   4.597 -0.6212  1.3823  0.4677
21933SOL    HW267568   0.100   8.995   4.510 -1.6447  0.2657  0.5236
21934SOL     OW67569   4.788   1.096   5.727 -0.3112  0.3427  0.1830
21934SOL    HW167570   4.790   1.174   5.782 -0.7860 -0.2695  1.0912
21934SOL    HW267571   4.858   1.040   5.761 -0.8080 -0.1729  0.3712
21935SOL     OW67572   2.699   0.868   6.714  0.1355 -0.2909  0.1562
21935SOL    HW167573   2.751   0.819   6.778 -1.4596 -0.4219  1.4167
21935SOL    HW267574   2.698   0.812   6.636 -1.7655 -2.4679  1.5960
21936SOL     OW67575   3.166   0.366   8.688 -0.4911 -0.1634 -0.1355
21936SOL    HW167576   3.078   0.368   8.652 -0.9137 -0.8492  0.7971
21936SOL    HW267577   3.174   0.279   8.728  0.5798 -0.0867 -0.1437
21937SOL     OW67578   9.471   8.210   6.308  0.3325 -0.0506 -0.3223
21937SOL    HW167579   9.533   8.209   6.236  0.9004 -0.6890  0.1687
21937SOL    HW267580   9.525   8.214   6.387 -0.2821  1.5119  0.0764
21938SOL     OW67581   8.060   0.711   1.305  0.3910 -0.1575 -0.1724
21938SOL    HW167582   8.067   0.783   1.367  0.7094  1.7936 -2.3291
21938SOL    HW267583   8.143   0.665   1.311  0.0479 -0.6221  1.4883
21939SOL     OW67584   4.069   5.356   6.507 -0.2797  0.0611 -0.2205
21939SOL    HW167585   4.077   5.439   6.460 -0.9173  0.1922 -0.1092
21939SOL    HW267586   3.985   5.362   6.552 -0.5643 -0.8350 -0.6002
21940SOL     OW67587   7.841   2.556   5.608 -0.4837 -0.2973  0.0427
21940SOL    HW167588   7.936   2.548   5.598 -0.6183 -0.4877 -1.2985
21940SOL    HW267589   7.825   2.651   5.606 -0.1473 -0.1025  2.5959
21941SOL     OW67590   4.120   1.982   0.297 -0.2087 -0.1605 -0.3963
21941SOL    HW167591   4.037   2.024   0.278 -0.6566 -0.4192  0.8779
21941SOL    HW267592   4.114   1.957   0.390 -0.0198 -3.0610 -1.0490
21942SOL     OW67593   9.386   6.272   2.233  0.7744 -0.1142  0.0060
21942SOL    HW167594   9.431   6.249   2.314 -0.5319  0.4103  0.8888
21942SOL    HW267595   9.455   6.313   2.179  2.0807 -2.0467  0.1110
21943SOL     OW67596   8.773   9.087   3.729  0.3059  0.3754 -0.1154
21943SOL    HW167597   8.686   9.098   3.690  0.2960  3.0917  0.5238
21943SOL    HW267598   8.775   9.149   3.802  2.4269 -0.3864  0.5341
21944SOL     OW67599   6.575   9.223   3.603  0.2729  0.0291  0.7268
21944SOL    HW167600   6.554   9.201   3.694  0.5279 -0.3735  0.6947
21944SOL    HW267601   6.503   9.186   3.553  0.0037  0.4752  0.7879
21945SOL     OW67602   5.113   2.652   2.313  0.2563  0.4521 -0.6296
21945SOL    HW167603   5.105   2.731   2.367 -2.1683 -1.6984  2.4930
21945SOL    HW267604   5.024   2.630   2.287  0.6892 -1.8118 -0.4603
21946SOL     OW67605   1.742   3.920   1.644 -0.6435  0.4159  0.2893
21946SOL    HW167606   1.682   3.977   1.691  0.5392  2.2582 -0.3050
21946SOL    HW267607   1.822   3.920   1.696  0.6764  2.4638 -1.5379
21947SOL     OW67608   8.297   7.995   9.610 -0.6216  0.0166 -0.6269
21947SOL    HW167609   8.393   7.997   9.617 -0.6608 -1.2774  0.9462
21947SOL    HW267610   8.277   8.057   9.541  1.1053  3.3792  1.6286
21948SOL     OW67611   7.409   8.546   1.440 -0.0883 -0.1273 -0.4278
21948SOL    HW167612   7.363   8.466   1.415  0.8560 -0.5120 -0.9591
21948SOL    HW267613   7.501   8.522   1.439  0.1160  0.4155  1.4227
21949SOL     OW67614   1.561   3.201   8.883  0.2095 -0.4996  0.2740
21949SOL    HW167615   1.513   3.208   8.965  1.0312 -0.7481  0.7872
21949SOL    HW267616   1.494   3.194   8.816 -0.5696  2.3999  0.6343
21950SOL     OW67617   8.277   0.243   5.047 -0.1087 -0.1674  0.0799
21950SOL    HW167618   8.243   0.184   5.114 -2.0704  0.8722  0.0737
21950SOL    HW267619   8.282   0.329   5.090 -1.0965  0.4504 -0.9706
21951SOL     OW67620   4.899   1.372   1.257  0.2219 -0.0685  0.2052
21951SOL    HW167621   4.886   1.292   1.206 -1.3067  0.6048 -0.5101
21951SOL    HW267622   4.811   1.399   1.283  0.6047  1.8099 -0.2619
21952SOL     OW67623   4.837   7.480   9.596  0.0227  0.7212 -0.2803
21952SOL    HW167624   4.857   7.545   9.664  1.1696 -0.0767  0.1778
21952SOL    HW267625   4.813   7.401   9.645  1.8855 -0.1908 -0.7344
21953SOL     OW67626   9.443   4.267   8.918 -0.1884  0.4434 -0.0380
21953SOL    HW167627   9.371   4.203   8.920  0.7331 -0.7792 -2.2245
21953SOL    HW267628   9.442   4.307   9.005 -2.1438 -1.0469  0.7060
21954SOL     OW67629   5.461   6.677   6.677 -0.0169 -0.1466 -0.4061
21954SOL    HW167630   5.511   6.750   6.640  3.4919 -2.3451 -0.5222
21954SOL    HW267631   5.423   6.712   6.757  1.6814  1.8004 -0.3570
21955SOL     OW67632   7.888   6.081   9.076 -0.3750 -0.5611  0.2882
21955SOL    HW167633   7.831   6.059   9.149  1.3710 -1.7909  1.3338
21955SOL    HW267634   7.969   6.112   9.116 -0.2515  1.1935 -1.1623
21956SOL     OW67635   5.189   1.865   5.124  0.0371  0.0746  0.1908
21956SOL    HW167636   5.126   1.801   5.158 -0.4052  0.6917  0.5602
21956SOL    HW267637   5.274   1.822   5.134 -0.0498  0.2546  2.2389
21957SOL     OW67638   4.885   9.272   3.052  0.0387 -0.3902  0.1761
21957SOL    HW167639   4.829   9.220   3.110 -1.4300  0.5114 -0.4066
21957SOL    HW267640   4.966   9.220   3.045  0.0758 -0.7827  2.5908
21958SOL     OW67641   1.595   8.538   5.231  0.0463  0.3715  0.8772
21958SOL    HW167642   1.557   8.602   5.170 -1.4244 -0.4678  0.8565
21958SOL    HW267643   1.578   8.453   5.191  4.3659 -0.0657 -0.4523
21959SOL     OW67644   2.644   2.778   7.679 -0.4775  0.1785  0.0177
21959SOL    HW167645   2.585   2.723   7.628  0.5466 -1.0214  0.0975
21959SOL    HW267646   2.599   2.862   7.685 -2.2037 -0.7191  0.1299
21960SOL     OW67647   8.503   1.687   6.735  0.3322  0.2389  0.3379
21960SOL    HW167648   8.447   1.687   6.812 -0.4823  0.0836 -0.2422
21960SOL    HW267649   8.503   1.597   6.705  0.7705  0.2686  0.2403
21961SOL     OW67650   5.086   1.474   6.200  0.0430 -0.4467 -0.0095
21961SOL    HW167651   5.074   1.519   6.117 -1.4413 -0.4409  0.1952
21961SOL    HW267652   5.103   1.543   6.264  0.9659 -0.4373 -0.2431
21962SOL     OW67653   5.553   0.737   2.879 -0.5551  0.5252 -0.4738
21962SOL    HW167654   5.574   0.648   2.849 -1.9810  0.0089 -0.0451
21962SOL    HW267655   5.615   0.793   2.834  0.4285 -0.7030 -0.7052
21963SOL     OW67656   0.640   6.819   3.687  0.2289 -0.2724  0.0555
21963SOL    HW167657   0.621   6.809   3.593  1.6403  1.3247 -0.4656
21963SOL    HW267658   0.555   6.813   3.730 -0.7175  0.8602 -1.5438
21964SOL     OW67659   8.850   7.025   4.685  0.6049 -0.0439 -0.3354
21964SOL    HW167660   8.834   6.986   4.599  2.5806  0.3008 -0.9074
21964SOL    HW267661   8.925   6.977   4.719 -0.2935 -0.3346  1.3426
21965SOL     OW67662   5.399   8.954   3.329 -0.4837  0.0866  0.2107
21965SOL    HW167663   5.492   8.968   3.311 -0.2588  0.2108  1.3396
21965SOL    HW267664   5.394   8.861   3.353 -0.8193 -0.1513 -0.7442
21966SOL     OW67665   4.787   5.203   3.462 -0.2601 -0.1047  0.3740
21966SOL    HW167666   4.708   5.210   3.516 -1.4503 -1.2348 -1.1271
21966SOL    HW267667   4.851   5.161   3.519 -1.3193 -0.8254  1.0758
21967SOL     OW67668   2.706   9.795   0.419  0.3820  0.2151  0.0464
21967SOL    HW167669   2.667   9.708   0.413  1.2055 -0.0664 -1.6155
21967SOL    HW267670   2.631   9.854   0.429 -0.3055 -0.5186 -0.6910
21968SOL     OW67671   5.749   0.782   7.776 -0.3267  0.4782  0.0473
21968SOL    HW167672   5.832   0.830   7.784 -0.6668  0.9280  0.8787
21968SOL    HW267673   5.727   0.788   7.683  0.9544 -0.2885 -0.3376
21969SOL     OW67674   9.646   1.696   6.406  0.3209 -0.4219  0.1122
21969SOL    HW167675   9.624   1.639   6.332 -1.4178 -0.7478  0.8413
21969SOL    HW267676   9.595   1.775   6.391  2.2906  0.7772 -0.5941
21970SOL     OW67677   0.876   3.461   9.504  0.0528 -0.1389  0.7113
21970SOL    HW167678   0.843   3.508   9.581  1.1971  2.1895 -0.1160
21970SOL    HW267679   0.900   3.375   9.537 -1.3874  0.0834  2.5062
21971SOL     OW67680   4.844   1.953   0.692  0.2491  0.0959  0.4608
21971SOL    HW167681   4.908   2.023   0.681 -0.1008  0.7155  2.1161
21971SOL    HW267682   4.895   1.872   0.687  0.9091  0.5229  0.2195
21972SOL     OW67683   1.939   9.002   9.324 -0.3323 -0.4128 -0.5822
21972SOL    HW167684   1.905   8.999   9.413  2.7302 -0.7010  0.6981
21972SOL    HW267685   1.909   9.086   9.289 -0.5357  0.2898  1.1946
21973SOL     OW67686   2.469   2.234   1.773  0.3401 -0.0650  0.2778
21973SOL    HW167687   2.464   2.139   1.763 -0.6075  0.0312 -0.2451
21973SOL    HW267688   2.530   2.262   1.705  1.2535 -0.3644  0.9497
21974SOL     OW67689   3.521   5.035   2.127 -0.1220 -0.0359 -0.6538
21974SOL    HW167690   3.570   5.109   2.091 -0.1214  0.4084  0.2311
21974SOL    HW267691   3.560   4.958   2.086 -0.1446  0.4500 -1.6109
21975SOL     OW67692   7.134   3.455   7.984 -0.2626 -0.1748 -0.2322
21975SOL    HW167693   7.084   3.534   7.962 -0.7190  0.1832  1.8707
21975SOL    HW267694   7.215   3.463   7.934 -0.1510  1.8383  0.1950
21976SOL     OW67695   2.993   6.161   2.824 -0.2103  0.2313  0.0183
21976SOL    HW167696   3.063   6.097   2.810 -0.5355 -0.2406  0.5222
21976SOL    HW267697   3.038   6.242   2.845  0.1952  0.0070  0.0215
21977SOL     OW67698   8.504   1.701   0.328 -0.2118  0.1269  0.1103
21977SOL    HW167699   8.594   1.724   0.306 -0.0043 -0.2844  0.5247
21977SOL    HW267700   8.453   1.779   0.305  0.1553  0.1357 -0.7341
21978SOL     OW67701   0.978   8.039   7.726  0.5088  0.6551 -0.0357
21978SOL    HW167702   0.926   8.120   7.720  2.6749  2.0441 -1.8667
21978SOL    HW267703   1.065   8.069   7.751  1.3589 -1.1387 -0.6944
21979SOL     OW67704   7.362   2.684   6.380 -0.2303 -1.2514  0.4635
21979SOL    HW167705   7.341   2.723   6.295  0.5228 -1.4776  0.1709
21979SOL    HW267706   7.279   2.688   6.429 -0.2768  0.3828  0.3149
21980SOL     OW67707   2.002   1.157   5.391  0.8407 -0.1087  0.0162
21980SOL    HW167708   1.986   1.237   5.341  0.1367 -0.9477 -1.1554
21980SOL    HW267709   1.956   1.089   5.342 -1.0339 -0.7709  2.5553
21981SOL     OW67710   0.792   2.208   5.415 -0.4529  0.2822  0.0199
21981SOL    HW167711   0.700   2.205   5.441 -0.3826 -1.2314  0.1758
21981SOL    HW267712   0.815   2.301   5.416 -1.8134  0.6221  0.5546
21982SOL     OW67713   1.525   3.217   0.869  0.1388 -0.2165  0.7308
21982SOL    HW167714   1.565   3.232   0.783  0.1124 -0.6250  0.6427
21982SOL    HW267715   1.554   3.291   0.923 -2.2929  1.7474 -0.4541
21983SOL     OW67716   3.813   8.287   8.150  0.2446 -0.6970  0.2042
21983SOL    HW167717   3.881   8.265   8.214 -0.7311 -1.5990  0.9741
21983SOL    HW267718   3.731   8.277   8.198 -0.4399  1.0802 -0.4912
21984SOL     OW67719   4.764   7.882   6.608 -0.3298 -0.7935 -0.0095
21984SOL    HW167720   4.847   7.834   6.605 -0.3453 -0.9049 -3.5509
21984SOL    HW267721   4.707   7.833   6.548 -2.0580  0.7689  0.2985
21985SOL     OW67722   2.381   5.877   2.933  0.0106  0.2439 -0.6504
21985SOL    HW167723   2.423   5.963   2.939  2.3315 -0.8272 -0.0767
21985SOL    HW267724   2.419   5.827   3.006 -0.8654 -1.4097 -1.2826
21986SOL     OW67725   6.470   9.434   4.753  0.1851 -0.0954  0.5814
21986SOL    HW167726   6.484   9.528   4.745 -0.2035  0.0516  1.4385
21986SOL    HW267727   6.514   9.410   4.834  0.8644 -0.7868  0.0213
21987SOL     OW67728   8.557   6.700   4.635  0.4307  0.6938  0.4643
21987SOL    HW167729   8.564   6.776   4.578  1.1326 -0.1964 -0.6710
21987SOL    HW267730   8.642   6.694   4.678 -0.0553  1.2909  1.5429
21988SOL     OW67731   4.535   4.895   9.575  0.0138 -0.0337 -0.2730
21988SOL    HW167732   4.465   4.866   9.515 -1.2926  2.8668 -0.3273
21988SOL    HW267733   4.524   4.841   9.653 -0.4459 -1.5537 -1.3412
21989SOL     OW67734   3.683   8.089   9.002  0.0020  0.0496  0.1413
21989SOL    HW167735   3.615   8.105   8.937  0.4639  0.4094 -0.2562
21989SOL    HW267736   3.717   8.176   9.024  0.1936 -0.1090  0.4945
21990SOL     OW67737   5.730   2.440   8.727 -0.5624  0.4011  0.4440
21990SOL    HW167738   5.729   2.482   8.813 -0.0351  1.4087 -0.0234
21990SOL    HW267739   5.689   2.355   8.742  0.7798 -0.0406  1.9815
21991SOL     OW67740   4.791   1.344   4.954 -0.1092  0.1571 -0.8635
21991SOL    HW167741   4.715   1.402   4.953 -1.1102 -1.0992 -0.6779
21991SOL    HW267742   4.801   1.314   4.863 -1.4789 -1.6707 -0.4759
21992SOL     OW67743   4.273   5.135   1.790 -0.2146  0.2837  0.5244
21992SOL    HW167744   4.227   5.052   1.806 -0.4625  0.5402  1.1655
21992SOL    HW267745   4.336   5.114   1.721 -0.5160 -0.3528  0.4327
21993SOL     OW67746   0.361   3.074   1.359 -0.0855  0.2721  0.4628
21993SOL    HW167747   0.388   3.038   1.274  2.0175  0.2679  1.0930
21993SOL    HW267748   0.359   2.999   1.418 -0.9162  0.3802  0.5867
21994SOL     OW67749   7.638   6.523   7.025  0.1509  0.0046  0.3578
21994SOL    HW167750   7.575   6.463   7.065  0.3687 -0.2825  0.2719
21994SOL    HW267751   7.605   6.537   6.937 -0.4347  0.7871  0.6810
21995SOL     OW67752   7.615   3.742   0.149  0.1601 -0.3796  0.9810
21995SOL    HW167753   7.689   3.801   0.148 -0.3682  0.2963  0.2220
21995SOL    HW267754   7.634   3.678   0.079  0.0224 -0.1891  0.7670
21996SOL     OW67755   8.443   9.018   2.337  0.7583  0.0441  0.3970
21996SOL    HW167756   8.383   9.007   2.410 -1.1048 -0.1459 -1.0849
21996SOL    HW267757   8.496   9.094   2.359  0.6734 -0.3856  2.1890
21997SOL     OW67758   3.338   7.829   0.316 -0.2349  0.1631 -0.7141
21997SOL    HW167759   3.314   7.803   0.405  0.1508 -1.0570 -0.9395
21997SOL    HW267760   3.402   7.899   0.327 -0.2766  0.0961 -0.0298
21998SOL     OW67761   8.576   4.381   3.918 -0.3256  0.7693 -0.7198
21998SOL    HW167762   8.583   4.286   3.919 -2.2630  0.5873 -0.7989
21998SOL    HW267763   8.658   4.412   3.957 -0.3603 -0.9605  0.8253
21999SOL     OW67764   6.422   2.871   5.767 -0.7473  0.2820  0.1092
21999SOL    HW167765   6.480   2.796   5.777  1.5695  1.9894  0.4161
21999SOL    HW267766   6.420   2.911   5.854 -1.7004  0.7278 -0.1123
22000SOL     OW67767   8.931   1.718   5.765  0.0404 -0.9880 -0.2818
22000SOL    HW167768   8.861   1.771   5.804  0.6877  0.0128 -0.4633
22000SOL    HW267769   8.986   1.693   5.840  0.5161 -0.2128 -0.3611
22001SOL     OW67770   4.256   8.266   5.125 -0.3644  0.2973  0.4799
22001SOL    HW167771   4.191   8.232   5.187 -0.1483 -1.2706 -0.1011
22001SOL    HW267772   4.272   8.192   5.066  1.6330  0.7946  0.3525
22002SOL     OW67773   3.434   8.518   1.897 -0.4122 -0.1341 -0.2649
22002SOL    HW167774   3.507   8.473   1.939 -0.0310  0.4477 -0.2868
22002SOL    HW267775   3.405   8.583   1.961  0.4587  1.0550 -1.0238
22003SOL     OW67776   9.091   5.017   4.935  0.4446  0.3526  0.3008
22003SOL    HW167777   9.077   5.036   5.028  2.0636 -0.8536  0.8485
22003SOL    HW267778   9.093   4.921   4.931  0.0241  0.3873 -1.0622
22004SOL     OW67779   7.987   6.135   3.822  0.9759 -0.0428 -0.1947
22004SOL    HW167780   7.960   6.116   3.733  0.6694  0.0948 -0.1343
22004SOL    HW267781   7.975   6.230   3.831 -0.4255 -0.2605  0.4525
22005SOL     OW67782   3.027   8.641   0.905  0.0727  0.2885 -0.1630
22005SOL    HW167783   3.080   8.596   0.971  2.2353  0.2829 -1.8052
22005SOL    HW267784   3.016   8.577   0.835 -0.6571  0.8578 -0.5866
22006SOL     OW67785   6.418   0.161   0.233  0.1209 -0.3828 -0.3814
22006SOL    HW167786   6.428   0.121   0.146  0.1957 -0.5405 -0.2999
22006SOL    HW267787   6.332   0.202   0.230  0.2146 -0.1981 -0.6075
22007SOL     OW67788   2.600   1.265   8.414  0.0275  0.3473  0.3158
22007SOL    HW167789   2.565   1.353   8.400 -1.3514 -0.6914 -4.5097
22007SOL    HW267790   2.680   1.263   8.360 -0.3246 -1.4775 -0.1903
22008SOL     OW67791   9.295   4.511   2.833 -0.3445 -0.5596 -0.3105
22008SOL    HW167792   9.373   4.491   2.885  0.5303 -0.3808 -1.4984
22008SOL    HW267793   9.264   4.425   2.802 -1.8080 -0.8446  1.7073
22009SOL     OW67794   0.382   8.821   0.986 -0.0212 -0.1791 -0.1636
22009SOL    HW167795   0.478   8.811   0.986  0.1829  1.4859  0.4531
22009SOL    HW267796   0.366   8.892   0.924 -0.7566  0.3616  0.6434
22010SOL     OW67797   7.747   6.251   5.996  0.0163 -0.3670  0.0870
22010SOL    HW167798   7.668   6.211   6.032  0.9718 -2.0887  0.3568
22010SOL    HW267799   7.817   6.189   6.017  1.7730  1.8904  1.3995
22011SOL     OW67800   6.011   3.109   5.967  0.3268 -1.2189  0.5721
22011SOL    HW167801   5.948   3.062   6.021  0.4923 -0.1264  1.7753
22011SOL    HW267802   5.957   3.158   5.905 -0.0607 -0.2207  1.6503
22012SOL     OW67803   2.530   9.309   2.314  0.7535 -0.1800 -0.0073
22012SOL    HW167804   2.441   9.291   2.344  0.3629  0.4164 -0.7563
22012SOL    HW267805   2.583   9.242   2.355 -0.0184 -0.4464  0.5874
22013SOL     OW67806   5.888   3.077   7.121 -0.1498  0.3979 -0.1221
22013SOL    HW167807   5.937   3.088   7.202 -0.5398 -0.1776  0.1961
22013SOL    HW267808   5.922   2.997   7.082 -0.7950  0.0190  0.0767
22014SOL     OW67809   6.920   3.157   5.975 -0.3810  0.1713 -0.5956
22014SOL    HW167810   6.915   3.240   6.024 -1.1943 -0.4014  0.3299
22014SOL    HW267811   6.894   3.181   5.886 -2.0215  0.6873 -0.0178
22015SOL     OW67812   1.647   2.237   0.748  0.0579  0.0716  0.1137
22015SOL    HW167813   1.705   2.221   0.823 -0.4174  0.3039  0.5445
22015SOL    HW267814   1.563   2.261   0.789 -0.3430 -0.2775 -0.4916
22016SOL     OW67815   0.050   4.989   1.283  0.1241  0.0926  0.5590
22016SOL    HW167816   0.060   4.894   1.281 -0.7003  0.0082 -0.5451
22016SOL    HW267817   0.068   5.013   1.374  2.5747 -0.8290  0.3824
22017SOL     OW67818   6.465   2.621   7.285  0.0808  0.0419  0.0168
22017SOL    HW167819   6.526   2.578   7.225 -0.3763 -0.8214  0.1584
22017SOL    HW267820   6.383   2.573   7.274  0.4211 -1.2834  2.5967
22018SOL     OW67821   8.302   0.654   9.615 -0.5645  0.2769  0.5322
22018SOL    HW167822   8.257   0.635   9.697 -1.6184 -1.4170 -0.3945
22018SOL    HW267823   8.297   0.750   9.607 -1.9965  0.3220  1.5804
22019SOL     OW67824   0.922   6.222   6.122  0.0323  0.4632  0.1720
22019SOL    HW167825   0.910   6.192   6.212 -0.7195 -1.1298 -0.4264
22019SOL    HW267826   1.004   6.181   6.094 -2.0989 -3.2538 -1.4000
22020SOL     OW67827   8.434   5.881   1.925 -0.4943 -0.2109 -0.0643
22020SOL    HW167828   8.403   5.797   1.960 -0.6807  0.2713  0.9999
22020SOL    HW267829   8.353   5.932   1.913 -0.2789  0.4308  1.0262
22021SOL     OW67830   7.017   6.261   7.498 -0.2465 -0.0883  0.1989
22021SOL    HW167831   7.099   6.242   7.452 -0.1771  0.6268  0.0228
22021SOL    HW267832   7.043   6.283   7.587 -0.2674 -0.0666  0.1996
22022SOL     OW67833   1.791   3.717   8.605  0.2520  0.0533  0.5243
22022SOL    HW167834   1.700   3.696   8.583  0.8735 -1.6752 -0.5431
22022SOL    HW267835   1.844   3.658   8.552  2.1254  2.6140 -0.6627
22023SOL     OW67836   7.065   0.150   4.237  0.0477  0.2686 -0.1867
22023SOL    HW167837   7.043   0.101   4.157  1.4703 -0.0784 -0.3889
22023SOL    HW267838   6.982   0.190   4.264 -0.8622 -1.1488 -0.7690
22024SOL     OW67839   0.920   5.611   9.280  0.0290  0.3636 -0.1400
22024SOL    HW167840   0.829   5.594   9.305 -0.3268  0.8983 -1.0552
22024SOL    HW267841   0.916   5.686   9.221  1.1782  1.0692  0.6392
22025SOL     OW67842   0.600   7.007   0.657 -0.5351  0.5698  0.6086
22025SOL    HW167843   0.681   7.026   0.705 -0.3768  0.1131  0.5292
22025SOL    HW267844   0.625   6.939   0.595 -1.1983 -0.2814  1.2428
22026SOL     OW67845   1.666   9.788   6.322  0.2086 -0.3501  0.4270
22026SOL    HW167846   1.705   9.735   6.252  0.0453 -0.8178  0.6807
22026SOL    HW267847   1.618   9.725   6.375 -0.7162  0.1920  0.2420
22027SOL     OW67848   4.677   4.973   3.713 -0.6046 -0.6283  0.0104
22027SOL    HW167849   4.598   5.027   3.704 -0.5320 -0.4598  0.3424
22027SOL    HW267850   4.648   4.884   3.691 -1.0344 -0.6729  0.7284
22028SOL     OW67851   0.715   0.955   6.395 -0.1699  0.1343 -0.2719
22028SOL    HW167852   0.718   0.908   6.478  0.4359  0.9722  0.1865
22028SOL    HW267853   0.647   0.909   6.345 -0.7610 -0.1905  0.7915
22029SOL     OW67854   0.313   1.765   6.882  0.5396 -0.3518 -0.1169
22029SOL    HW167855   0.394   1.715   6.882  0.4592 -0.4822  0.4186
22029SOL    HW267856   0.338   1.852   6.849  1.0666 -0.1163  0.8856
22030SOL     OW67857   8.196   5.984   4.809 -0.5754  0.2803 -0.0603
22030SOL    HW167858   8.124   5.922   4.823 -0.2416 -0.0947  0.0342
22030SOL    HW267859   8.184   6.050   4.877  0.2268 -0.7758  1.1774
22031SOL     OW67860   3.363   4.143   3.248 -0.1062 -0.5283  0.0440
22031SOL    HW167861   3.406   4.185   3.174  1.4992  0.8564  1.6588
22031SOL    HW267862   3.428   4.080   3.280 -0.4427 -0.5292  0.7404
22032SOL     OW67863   9.232   5.037   8.755  0.1959  0.1377  0.4326
22032SOL    HW167864   9.214   4.952   8.714 -0.3280 -0.0887  1.1261
22032SOL    HW267865   9.237   5.098   8.681  2.1253 -0.7270 -0.2290
22033SOL     OW67866   8.483   8.007   8.739  0.5490 -0.7078 -0.7029
22033SOL    HW167867   8.514   7.932   8.792 -1.4696 -0.9726  0.2001
22033SOL    HW267868   8.441   7.967   8.664 -2.3938 -0.6805  0.7968
22034SOL     OW67869   2.683   0.482   9.598 -0.6421  0.4535  0.1123
22034SOL    HW167870   2.779   0.486   9.593 -0.4689 -0.0921  2.1476
22034SOL    HW267871   2.657   0.432   9.521  0.7833 -0.1840  0.0134
22035SOL     OW67872   3.284   7.030   3.175  0.0538 -0.3104  0.4067
22035SOL    HW167873   3.260   6.942   3.203 -1.0758  0.0740  0.7243
22035SOL    HW267874   3.292   7.080   3.256  2.0319 -0.4190  0.3108
22036SOL     OW67875   4.327   5.738   1.758 -0.3985  0.4047  0.0822
22036SOL    HW167876   4.246   5.731   1.706 -0.3098 -1.1650  0.1179
22036SOL    HW267877   4.317   5.673   1.827 -0.1477  1.8968  1.6016
22037SOL     OW67878   9.806   8.150   0.575 -0.6221  0.0911  0.0460
22037SOL    HW167879   9.883   8.099   0.603 -0.1607  0.7774  0.0460
22037SOL    HW267880   9.787   8.116   0.487 -1.2564 -1.1301  0.6266
22038SOL     OW67881   7.507   8.406   8.181  0.4202  0.2987  0.2769
22038SOL    HW167882   7.441   8.456   8.230 -0.9723  1.4552 -2.5757
22038SOL    HW267883   7.458   8.335   8.139  1.3644 -0.0450 -0.2864
22039SOL     OW67884   8.504   0.770   8.877  0.0612 -0.0838  0.2638
22039SOL    HW167885   8.593   0.767   8.841 -0.6872  1.3387 -1.8569
22039SOL    HW267886   8.513   0.820   8.958  0.9764  1.3118 -0.6689
22040SOL     OW67887   2.965   9.186   1.739  0.2531  0.1089  0.0989
22040SOL    HW167888   2.920   9.185   1.654  0.6569 -0.8952 -0.1142
22040SOL    HW267889   2.955   9.098   1.773 -0.3070  0.6341  1.3350
22041SOL     OW67890   5.822   7.498   3.904 -0.2691  0.2767  0.0448
22041SOL    HW167891   5.728   7.486   3.912 -0.3716  1.3253  0.6107
22041SOL    HW267892   5.859   7.414   3.932 -1.0183 -0.0061  0.2109
22042SOL     OW67893   2.693   2.944   5.042 -0.1701 -0.6136 -0.3636
22042SOL    HW167894   2.747   2.865   5.032  0.0867 -0.5734  0.5792
22042SOL    HW267895   2.631   2.922   5.111  1.5567  0.8271  1.7794
22043SOL     OW67896   1.221   5.526   0.497  0.2567  0.6220 -0.4470
22043SOL    HW167897   1.191   5.564   0.579  1.0590  0.1800  0.0583
22043SOL    HW267898   1.147   5.474   0.466  0.4964 -0.5040  0.8075
22044SOL     OW67899   7.748   6.921   4.490  0.3947 -0.4319  0.1913
22044SOL    HW167900   7.698   6.861   4.544  2.3628 -2.1154  0.2504
22044SOL    HW267901   7.768   6.872   4.411 -1.0850  1.4515 -1.4660
22045SOL     OW67902   8.582   4.028   8.559  0.1433 -0.5238 -0.4993
22045SOL    HW167903   8.589   3.965   8.631 -1.1915  0.4758  0.5572
22045SOL    HW267904   8.591   3.976   8.480  1.6522 -1.6614  0.3704
22046SOL     OW67905   7.297   6.411   4.329  0.0670  0.2103  0.0652
22046SOL    HW167906   7.321   6.398   4.420 -1.7057  0.4615  0.6031
22046SOL    HW267907   7.355   6.351   4.280  1.0384  0.0881  1.3274
22047SOL     OW67908   7.488   9.619   7.905 -0.1460  0.2306 -0.9698
22047SOL    HW167909   7.565   9.568   7.926  2.6102  4.1400 -0.4337
22047SOL    HW267910   7.436   9.620   7.985 -0.1914 -1.4308 -0.9557
22048SOL     OW67911   8.182   8.332   3.218 -0.0572  0.6304  0.6366
22048SOL    HW167912   8.095   8.295   3.203  0.0817 -0.4008  2.1657
22048SOL    HW267913   8.234   8.300   3.144 -0.8315  0.8322 -0.0160
22049SOL     OW67914   3.059   2.961   8.737  0.3649 -0.3236  0.0104
22049SOL    HW167915   3.089   3.033   8.791 -1.1218  0.2021  0.1920
22049SOL    HW267916   3.139   2.922   8.702  1.2793  0.2614  1.3665
22050SOL     OW67917   6.258   0.019   8.300  0.0361  0.1970 -0.4925
22050SOL    HW167918   6.175   0.066   8.296  0.6999  1.3643 -0.8342
22050SOL    HW267919   6.233  -0.073   8.315 -1.3174  0.4581 -1.0595
22051SOL     OW67920   3.132   0.138   8.816 -0.6129  0.5296  0.3588
22051SOL    HW167921   3.070   0.075   8.853 -0.3842 -1.7985 -2.8536
22051SOL    HW267922   3.217   0.112   8.853  0.4120 -4.6135 -4.2825
22052SOL     OW67923   5.828   6.160   8.576 -0.3864 -0.3471  0.1853
22052SOL    HW167924   5.737   6.159   8.545 -0.0273  1.7729 -1.1164
22052SOL    HW267925   5.823   6.122   8.664 -2.8082  1.0889  0.7766
22053SOL     OW67926   4.481   5.531   4.608 -0.2488 -0.1432  0.0938
22053SOL    HW167927   4.548   5.586   4.648 -0.6761 -0.2339  0.9565
22053SOL    HW267928   4.530   5.462   4.563  0.2973  0.9884 -1.0895
22054SOL     OW67929   5.768   0.593   2.165  0.2152  0.6425  0.3022
22054SOL    HW167930   5.740   0.509   2.201 -1.6762  0.4668 -1.3672
22054SOL    HW267931   5.826   0.571   2.092 -0.3264  0.7673 -0.1736
22055SOL     OW67932   6.619   8.591   5.118  0.6180 -0.1100 -0.1291
22055SOL    HW167933   6.629   8.497   5.130 -0.4976 -0.3730 -1.0765
22055SOL    HW267934   6.612   8.626   5.207 -1.3777 -1.2327  0.2070
22056SOL     OW67935   3.961   8.084   3.305 -0.2330 -0.0598  0.1018
22056SOL    HW167936   3.927   8.121   3.223  0.5460  0.6858  0.1010
22056SOL    HW267937   3.972   8.160   3.362 -0.3056 -0.5188  0.7289
22057SOL     OW67938   2.263   7.657   5.741  0.4913  0.1104  0.5628
22057SOL    HW167939   2.319   7.711   5.686  0.3372  1.3089  1.5521
22057SOL    HW267940   2.313   7.646   5.822 -0.2522  0.3154  1.0597
22058SOL     OW67941   4.359   9.752   6.547 -0.1076  0.0386  0.2921
22058SOL    HW167942   4.388   9.661   6.552 -1.0113 -0.3325 -0.8045
22058SOL    HW267943   4.337   9.775   6.637 -0.5451 -1.0714  0.4832
22059SOL     OW67944   7.760   8.812   3.926 -0.2318 -0.4603 -0.5107
22059SOL    HW167945   7.849   8.818   3.890  1.0976 -0.0249  2.4878
22059SOL    HW267946   7.730   8.903   3.929  0.4170 -0.2689  1.0408
22060SOL     OW67947   2.295   3.931   3.493  0.0307 -0.9740 -0.1624
22060SOL    HW167948   2.374   3.898   3.534  0.5746  0.0175 -0.3814
22060SOL    HW267949   2.252   3.853   3.456  2.7204 -1.2142 -3.2555
22061SOL     OW67950   3.450   3.221   6.058 -0.1678 -0.1317  0.4525
22061SOL    HW167951   3.359   3.243   6.042  0.3046 -0.7276 -4.3876
22061SOL    HW267952   3.494   3.306   6.064 -0.8570  0.1484  2.4063
22062SOL     OW67953   4.839   7.223   2.532 -0.5401 -0.0162 -1.2904
22062SOL    HW167954   4.880   7.166   2.597 -1.8248  1.2721  0.7477
22062SOL    HW267955   4.752   7.186   2.520 -0.7805  0.5273 -1.2532
22063SOL     OW67956   4.237   2.356   5.937 -0.1269 -0.2079  0.6208
22063SOL    HW167957   4.250   2.449   5.951 -2.3137  0.0786  1.1057
22063SOL    HW267958   4.154   2.336   5.982  0.8458 -2.6229  1.5232
22064SOL     OW67959   3.829   1.613   3.085  0.5682 -0.2122  0.2047
22064SOL    HW167960   3.913   1.630   3.130 -0.3266  1.5372  1.3514
22064SOL    HW267961   3.792   1.538   3.131  1.3156 -0.7386 -0.0379
22065SOL     OW67962   3.854   1.252   1.871 -0.2128  0.6537  1.1941
22065SOL    HW167963   3.804   1.274   1.949  0.2266  2.8148  0.9288
22065SOL    HW267964   3.912   1.181   1.898 -0.7613  0.7148  2.5565
22066SOL     OW67965   0.218   3.717   6.208  0.8037  0.2429  0.4019
22066SOL    HW167966   0.262   3.759   6.133  0.5544  0.3909  0.3376
22066SOL    HW267967   0.219   3.624   6.187  1.9399  0.1360  0.8485
22067SOL     OW67968   0.602   9.656   7.173 -0.1275 -0.3575  0.1497
22067SOL    HW167969   0.671   9.716   7.201  0.5724 -1.8051  1.7003
22067SOL    HW267970   0.575   9.612   7.254 -1.2392 -1.4981 -0.8069
22068SOL     OW67971   4.872   4.845   2.833 -0.0806  0.1984  0.7348
22068SOL    HW167972   4.861   4.875   2.743 -0.1169 -2.4073 -0.1951
22068SOL    HW267973   4.786   4.855   2.873  0.3091  2.9725  1.0998
22069SOL     OW67974   0.041   7.730   0.358  0.2744  0.0702  0.3730
22069SOL    HW167975   0.074   7.734   0.268  1.2421 -1.0174  0.6472
22069SOL    HW267976  -0.054   7.742   0.349  0.1569 -1.4017 -0.9725
22070SOL     OW67977   8.769   4.587   0.892  0.0403  0.4449 -0.5202
22070SOL    HW167978   8.723   4.543   0.963 -0.8348  0.2024 -1.2313
22070SOL    HW267979   8.813   4.661   0.935 -0.7721  0.5159  0.2143
22071SOL     OW67980   7.513   3.433   4.323  0.2512 -0.3657  0.2191
22071SOL    HW167981   7.585   3.495   4.310 -0.8452  0.8312 -0.2795
22071SOL    HW267982   7.518   3.375   4.247  1.0268 -0.6586  0.4772
22072SOL     OW67983   0.786   2.170   1.795 -0.1218 -0.0604 -0.0542
22072SOL    HW167984   0.704   2.127   1.820 -0.4840  0.7235  0.1139
22072SOL    HW267985   0.802   2.235   1.863  0.3953  0.1178 -0.3361
22073SOL     OW67986   9.710   1.660   7.010 -0.1549  0.0594  0.0948
22073SOL    HW167987   9.757   1.577   7.001 -0.5136 -0.1097 -0.2101
22073SOL    HW267988   9.620   1.641   6.985 -0.2712  0.5120  0.1484
22074SOL     OW67989   1.640   8.052   3.461  0.0911  0.2228  0.0256
22074SOL    HW167990   1.670   8.142   3.446 -0.1304  0.2140 -0.4570
22074SOL    HW267991   1.633   8.046   3.556 -1.0744  1.1000  0.0241
22075SOL     OW67992   8.509   4.611   8.530  0.3702 -0.2151  0.2326
22075SOL    HW167993   8.533   4.565   8.610  1.3665  0.9452  0.6267
22075SOL    HW267994   8.414   4.618   8.533  0.3391 -0.8696  0.9161
22076SOL     OW67995   3.622   0.408   2.542  0.2503  0.3145  0.7770
22076SOL    HW167996   3.557   0.477   2.541  0.8180  0.8616  1.0211
22076SOL    HW267997   3.591   0.344   2.478  0.3437  1.3734 -0.3572
22077SOL     OW67998   7.723   2.757   2.799  0.4616  0.1702 -0.1244
22077SOL    HW167999   7.764   2.839   2.769 -0.1704  0.4745 -0.1580
22077SOL    HW268000   7.631   2.779   2.812 -0.0444 -0.9031 -1.5986
22078SOL     OW68001   8.215   8.591   9.674  0.2086  0.5392 -0.2808
22078SOL    HW168002   8.214   8.611   9.580  0.6080 -0.5554 -0.5281
22078SOL    HW268003   8.130   8.622   9.706  0.1561  1.1141 -0.9547
22079SOL     OW68004   1.351   1.937   3.544  0.2838 -0.5364 -0.1887
22079SOL    HW168005   1.432   1.939   3.493  0.4251 -2.5591 -0.1485
22079SOL    HW268006   1.281   1.942   3.479  0.3757  1.7476 -0.1911
22080SOL     OW68007   0.903   5.700   2.772  0.3031  0.4051 -0.0642
22080SOL    HW168008   0.833   5.655   2.726  0.7625  0.9071 -1.2975
22080SOL    HW268009   0.962   5.730   2.703  0.7265  1.6864  0.8038
22081SOL     OW68010   7.334   6.990   4.485 -0.3272  0.7379  0.6854
22081SOL    HW168011   7.390   6.917   4.457  1.4406  2.2300  0.0692
22081SOL    HW268012   7.330   6.982   4.580 -2.5175 -1.7097  0.5134
22082SOL     OW68013   8.964   6.080   0.573  0.1885 -0.2139 -0.2935
22082SOL    HW168014   8.900   6.063   0.641 -1.5927  1.5421 -1.3861
22082SOL    HW268015   8.985   6.173   0.583  0.2187 -0.0215 -1.7926
22083SOL     OW68016   3.215   3.169   2.221 -0.7423 -0.4084 -0.9980
22083SOL    HW168017   3.142   3.116   2.189 -1.7266  0.6265 -0.5563
22083SOL    HW268018   3.281   3.165   2.152 -2.1114  0.3839 -2.4116
22084SOL     OW68019   8.193   1.464   5.661 -0.0811  0.3380  0.1663
22084SOL    HW168020   8.220   1.446   5.571 -1.2323 -1.0093  0.0352
22084SOL    HW268021   8.267   1.437   5.714  1.3224  2.7882 -0.3912
22085SOL     OW68022   8.562   8.920   0.369  0.2156  0.1448  0.5765
22085SOL    HW168023   8.576   8.904   0.276  0.3614 -0.1562  0.6507
22085SOL    HW268024   8.507   8.998   0.371 -0.9072 -0.6087  0.1998
22086SOL     OW68025   7.571   7.561   5.320  0.0447  0.5337 -0.0279
22086SOL    HW168026   7.523   7.491   5.365  0.4509  0.2838  0.0314
22086SOL    HW268027   7.594   7.622   5.390 -0.2900  0.7132 -0.0758
22087SOL     OW68028   3.133   7.494   0.397  0.0553 -0.2774  0.7034
22087SOL    HW168029   3.165   7.421   0.450  1.3714  0.6286  1.2162
22087SOL    HW268030   3.121   7.457   0.310 -0.1428 -1.2979  1.1510
22088SOL     OW68031   1.154   1.383   0.696 -0.1633  0.2771 -0.1788
22088SOL    HW168032   1.113   1.391   0.610  0.1763  0.4110 -0.3322
22088SOL    HW268033   1.241   1.420   0.684 -0.2006  0.5250  0.2857
22089SOL     OW68034   5.926   3.600   9.696  0.2303 -0.0511  0.6137
22089SOL    HW168035   5.872   3.646   9.632 -0.0228 -1.5651 -0.3292
22089SOL    HW268036   5.868   3.532   9.731  1.2696 -1.2060  0.1534
22090SOL     OW68037   5.583   1.962   9.804  0.3300 -0.4298 -0.4007
22090SOL    HW168038   5.584   2.013   9.886  0.3449 -0.2812 -0.4929
22090SOL    HW268039   5.669   1.919   9.801  1.6442  2.0860 -1.9149
22091SOL     OW68040   6.382   9.589   6.200 -0.1891  0.4735  0.1849
22091SOL    HW168041   6.446   9.521   6.177 -0.1101  0.7634 -0.4486
22091SOL    HW268042   6.427   9.644   6.263 -0.0986  0.2049  0.3588
22092SOL     OW68043   9.149   4.639   2.537  0.0167 -0.2153 -0.1907
22092SOL    HW168044   9.214   4.607   2.474 -0.1087 -1.5735  0.3381
22092SOL    HW268045   9.148   4.573   2.606 -1.3157  0.2218  0.2389
22093SOL     OW68046   1.018   1.038   8.578 -0.1577  0.7353  0.4970
22093SOL    HW168047   0.947   1.001   8.632 -0.6192  0.4701 -0.2759
22093SOL    HW268048   0.973   1.091   8.513  0.2670 -0.3982 -0.7611
22094SOL     OW68049   0.741   1.642   6.316 -0.0804  0.2514  0.0652
22094SOL    HW168050   0.742   1.548   6.301 -0.0456  0.3944 -0.8772
22094SOL    HW268051   0.649   1.668   6.304  0.0540  0.4634 -0.5287
22095SOL     OW68052   8.045   9.811   5.749 -0.0890  0.0409 -0.3652
22095SOL    HW168053   8.131   9.767   5.745 -0.5728 -0.8473 -1.8245
22095SOL    HW268054   8.061   9.898   5.713  0.1520 -0.2375 -0.9527
22096SOL     OW68055   1.284   6.661   6.155  0.3805  0.3804  0.2508
22096SOL    HW168056   1.246   6.611   6.228  2.5033 -1.3712  0.2876
22096SOL    HW268057   1.262   6.610   6.077 -2.4644  2.6028 -0.5529
22097SOL     OW68058   3.401   7.021   4.011  0.2668 -0.5364  0.2098
22097SOL    HW168059   3.359   7.100   3.976  0.9127  0.3801  1.4089
22097SOL    HW268060   3.492   7.028   3.983 -0.0069 -1.7529 -1.1097
22098SOL     OW68061   6.594   5.372   3.056  0.1477  0.2875  0.2300
22098SOL    HW168062   6.511   5.362   3.009  0.3289 -0.0563 -0.0262
22098SOL    HW268063   6.604   5.466   3.069  0.1810  0.4076 -0.5919
22099SOL     OW68064   0.114   4.685   1.346 -0.0776  0.0729  0.0130
22099SOL    HW168065   0.162   4.604   1.362 -0.6885 -0.5810 -1.2538
22099SOL    HW268066   0.025   4.666   1.377  0.0497  0.6730  0.7671
22100SOL     OW68067   9.430   6.922   1.846 -0.7303 -0.4593 -0.3360
22100SOL    HW168068   9.463   6.991   1.788  0.8589 -0.8382  0.0750
22100SOL    HW268069   9.340   6.908   1.816 -1.7431  2.9291  0.6585
22101SOL     OW68070   2.962   2.848   9.477 -0.5109 -0.3283 -0.6474
22101SOL    HW168071   2.916   2.779   9.526 -0.0561 -1.2507 -1.4905
22101SOL    HW268072   2.999   2.803   9.401 -0.6329  0.9462 -1.4911
22102SOL     OW68073   3.875   2.575   0.365 -0.5022  0.3657 -0.1660
22102SOL    HW168074   3.894   2.488   0.401  2.2093  0.8677 -0.1454
22102SOL    HW268075   3.901   2.636   0.434  1.7240  1.2429 -1.6237
22103SOL     OW68076   1.101   8.619   4.159  0.0820  0.0032  0.2867
22103SOL    HW168077   1.184   8.664   4.140  0.8110 -1.2059  0.4727
22103SOL    HW268078   1.065   8.598   4.073 -0.6712  1.6173  0.1831
22104SOL     OW68079   7.468   1.155   0.248  0.1167 -0.1483 -0.0010
22104SOL    HW168080   7.510   1.237   0.275  0.8788 -0.7610  0.7560
22104SOL    HW268081   7.379   1.180   0.225  0.2922  0.8756  0.3639
22105SOL     OW68082   6.945   3.246   8.795 -0.2007  0.2280  0.6380
22105SOL    HW168083   6.895   3.167   8.775  1.1582 -0.8854  1.4737
22105SOL    HW268084   7.003   3.258   8.719  0.0492  0.0478  0.8006
22106SOL     OW68085   6.663   7.393   5.284 -0.6601 -0.5797  0.6492
22106SOL    HW168086   6.742   7.435   5.250 -2.8480  1.7362 -2.1782
22106SOL    HW268087   6.629   7.455   5.349 -1.3795 -0.2637 -0.0010
22107SOL     OW68088   7.028   2.407   0.764  1.0353 -0.2012 -0.2229
22107SOL    HW168089   6.945   2.451   0.781  1.2190  0.6474 -1.3665
22107SOL    HW268090   7.003   2.323   0.727  0.6331  0.6509 -2.0097
22108SOL     OW68091   3.612   9.565   5.619 -0.0487  0.0679  0.4084
22108SOL    HW168092   3.550   9.635   5.637  0.4836  0.9971 -1.1561
22108SOL    HW268093   3.626   9.570   5.524 -1.5400 -3.4792 -0.1438
22109SOL     OW68094   8.363   0.801   6.374 -0.6543  0.0369 -0.0985
22109SOL    HW168095   8.283   0.838   6.410 -0.4710  0.2414  0.0976
22109SOL    HW268096   8.387   0.859   6.301 -0.7039 -0.0459 -0.1816
22110SOL     OW68097   6.485   6.686   4.143 -0.3960 -0.6442  0.0512
22110SOL    HW168098   6.426   6.745   4.190 -0.0753  0.5528 -0.9976
22110SOL    HW268099   6.572   6.706   4.178 -0.1595  0.2353 -0.9843
22111SOL     OW68100   2.366   6.673   5.929 -0.2198 -0.5011  0.1808
22111SOL    HW168101   2.413   6.669   5.846  0.2359 -0.9005  0.4467
22111SOL    HW268102   2.428   6.636   5.993 -0.9417 -1.1435  0.5232
22112SOL     OW68103   1.064   2.779   6.159 -0.1183  0.1143  0.1830
22112SOL    HW168104   1.084   2.705   6.102 -1.7001 -1.2338  1.2679
22112SOL    HW268105   1.069   2.743   6.247 -1.0022  1.2727  0.7314
22113SOL     OW68106   7.170   3.184   0.062 -0.1346 -0.5634  0.5570
22113SOL    HW168107   7.194   3.216   0.149 -0.6396  0.5460  0.3093
22113SOL    HW268108   7.243   3.127   0.036  0.6333  0.1122  1.1752
22114SOL     OW68109   7.880   5.080   5.389 -0.6593  0.1126  0.0721
22114SOL    HW168110   7.889   4.990   5.420 -0.8277  0.3015  0.6709
22114SOL    HW268111   7.843   5.070   5.301  0.5145 -0.4456 -0.3737
22115SOL     OW68112   6.198   8.282   9.698  0.2203 -0.0478 -1.0739
22115SOL    HW168113   6.216   8.199   9.654 -0.5957 -0.6347 -0.3444
22115SOL    HW268114   6.108   8.304   9.673  0.4074  0.5940 -1.2154
22116SOL     OW68115   7.270   2.541   3.695 -0.3793  0.0679 -0.4409
22116SOL    HW168116   7.222   2.492   3.628  0.7457  1.5163 -2.3851
22116SOL    HW268117   7.208   2.547   3.768 -2.6786  0.6974 -2.3213
22117SOL     OW68118   1.909   8.787   0.624  0.3267 -0.7182 -0.1729
22117SOL    HW168119   1.825   8.825   0.650 -0.0302 -1.4531 -0.2225
22117SOL    HW268120   1.901   8.774   0.529  1.5101  1.6684 -0.6873
22118SOL     OW68121   3.443   3.996   6.069  0.3458 -0.1781 -0.4197
22118SOL    HW168122   3.533   4.024   6.059  0.3062  0.0268 -0.2170
22118SOL    HW268123   3.418   4.025   6.157 -0.5269  1.5122 -1.1782
22119SOL     OW68124   6.900   3.656   3.586  0.1854  0.0056  0.5575
22119SOL    HW168125   6.916   3.748   3.607  0.0103  0.1825 -0.0550
22119SOL    HW268126   6.806   3.645   3.598 -0.0856  0.3668 -1.0400
22120SOL     OW68127   9.621   8.273   9.153  0.2956  0.1018  0.0110
22120SOL    HW168128   9.708   8.300   9.181 -0.0840  0.2123  1.1007
22120SOL    HW268129   9.619   8.179   9.170  0.5723 -0.1162 -1.0453
22121SOL     OW68130   3.041   3.053   0.674  0.0880  0.1507 -0.6832
22121SOL    HW168131   3.083   3.016   0.597 -0.5411 -0.2975 -0.8184
22121SOL    HW268132   2.957   3.087   0.642 -0.0504  0.2212 -0.2581
22122SOL     OW68133   2.732   3.802   0.488 -0.1783  0.4029  0.2293
22122SOL    HW168134   2.731   3.896   0.506 -0.1943  0.1379  1.7520
22122SOL    HW268135   2.669   3.790   0.416 -0.2721  1.5286  0.1107
22123SOL     OW68136   4.161   5.290   2.036 -0.3476 -0.3411 -0.0380
22123SOL    HW168137   4.073   5.257   2.024 -0.6996 -0.2283  1.9402
22123SOL    HW268138   4.208   5.264   1.956 -2.7678  1.7902 -2.3377
22124SOL     OW68139   8.466   9.593   8.177  0.1964 -0.1653  0.1543
22124SOL    HW168140   8.514   9.516   8.146  0.5074  0.8716 -2.1010
22124SOL    HW268141   8.501   9.609   8.265  1.6901 -1.2917 -0.1987
22125SOL     OW68142   1.488   0.096   3.745 -0.0990  0.3727 -0.0748
22125SOL    HW168143   1.399   0.069   3.721 -0.2788  0.2601  0.6747
22125SOL    HW268144   1.515   0.154   3.674 -0.9627  0.7968 -0.0815
22126SOL     OW68145   4.202   0.873   7.223  0.4383 -0.1343 -0.4998
22126SOL    HW168146   4.136   0.921   7.173 -1.0313 -2.9475 -1.5344
22126SOL    HW268147   4.161   0.859   7.309  0.9317  0.5838 -0.1429
22127SOL     OW68148   0.206   0.864   9.657  0.2534  0.6343  0.1839
22127SOL    HW168149   0.274   0.797   9.664 -0.3623  0.0883  1.3749
22127SOL    HW268150   0.125   0.814   9.649 -0.0030  1.2775 -1.5177
22128SOL     OW68151   0.942   2.998   3.421 -0.2967  0.5641  0.0037
22128SOL    HW168152   0.898   2.964   3.499  2.1180 -0.8956  0.8693
22128SOL    HW268153   1.024   3.034   3.455  0.3116  0.8904 -1.7394
22129SOL     OW68154   1.195   8.348   5.515  0.2367  0.4746 -0.0150
22129SOL    HW168155   1.212   8.432   5.474  1.8630  1.0814  1.7161
22129SOL    HW268156   1.166   8.370   5.604  3.8268 -0.6243  1.6439
22130SOL     OW68157   2.455   4.649   6.571  0.4884 -0.3424 -0.0716
22130SOL    HW168158   2.383   4.625   6.513  0.1192  0.1479  0.1808
22130SOL    HW268159   2.491   4.565   6.599  0.3823 -0.5862 -0.6489
22131SOL     OW68160   6.740   2.890   6.964  0.6375  0.8913  0.2334
22131SOL    HW168161   6.725   2.918   6.874 -1.5746  0.0317  0.2753
22131SOL    HW268162   6.735   2.795   6.961 -1.5923  0.8991  1.5338
22132SOL     OW68163   4.890   8.271   5.795  0.1418 -0.0749  0.2891
22132SOL    HW168164   4.927   8.220   5.867 -0.0371 -0.7029 -0.0484
22132SOL    HW268165   4.916   8.223   5.716  1.4777  1.3240 -0.1683
22133SOL     OW68166   9.301   0.119   9.513  0.0311  0.8522  0.3672
22133SOL    HW168167   9.273   0.173   9.587  2.5630  0.4540  1.7361
22133SOL    HW268168   9.272   0.031   9.536 -1.1498  1.0554 -0.2520
22134SOL     OW68169   9.467   7.685   7.130 -0.1798 -0.7229  0.0324
22134SOL    HW168170   9.555   7.682   7.167  0.2027 -3.0439 -0.8897
22134SOL    HW268171   9.409   7.692   7.205  0.6543 -3.3826  1.0472
22135SOL     OW68172   0.538   7.593   1.309 -0.0171  0.2387 -0.0951
22135SOL    HW168173   0.530   7.562   1.399  1.3578 -1.2536 -0.4394
22135SOL    HW268174   0.569   7.517   1.260 -1.1136  0.9070 -1.9273
22136SOL     OW68175   6.953   5.881   2.199  0.1607 -0.0475  0.1673
22136SOL    HW168176   6.973   5.805   2.253  0.7435 -0.2446 -0.3132
22136SOL    HW268177   7.035   5.901   2.154 -0.0891  0.6314 -0.0013
22137SOL     OW68178   6.015   2.465   8.598 -0.2641 -0.2684  0.3494
22137SOL    HW168179   5.934   2.471   8.649 -0.3087 -1.3233  0.4245
22137SOL    HW268180   5.991   2.499   8.512 -0.6195  0.0273  0.5597
22138SOL     OW68181   7.949   3.976   7.009 -0.1256  0.2606 -0.4076
22138SOL    HW168182   7.935   3.915   6.936 -1.1919 -2.0058  1.5391
22138SOL    HW268183   7.883   3.951   7.074 -0.2081  3.1655  0.7687
22139SOL     OW68184   3.811   3.711   2.859  0.1764  0.0798  0.2069
22139SOL    HW168185   3.789   3.787   2.912 -1.5598 -0.1276 -0.1500
22139SOL    HW268186   3.732   3.693   2.808  1.0412 -1.0694 -0.8130
22140SOL     OW68187   2.147   3.797   5.832  0.0456 -0.1069 -0.2045
22140SOL    HW168188   2.127   3.841   5.914 -2.3177  0.1408 -0.8135
22140SOL    HW268189   2.090   3.720   5.832  1.3062 -1.0775 -0.8592
22141SOL     OW68190   6.163   0.682   3.082 -0.0386  0.1092  0.1800
22141SOL    HW168191   6.131   0.760   3.127 -0.9243 -0.0542 -0.1426
22141SOL    HW268192   6.097   0.614   3.101  0.7501 -0.5766  0.5138
22142SOL     OW68193   9.613   0.699   8.834  0.2103  0.1247  0.6717
22142SOL    HW168194   9.563   0.700   8.752 -0.5289 -1.6100  1.0486
22142SOL    HW268195   9.704   0.686   8.807  0.3308  1.9743  0.0406
22143SOL     OW68196   2.266   0.299   9.810 -0.9107 -0.0824 -0.3559
22143SOL    HW168197   2.324   0.224   9.794 -0.8236 -0.1219  0.1102
22143SOL    HW268198   2.241   0.290   9.902 -1.7148 -0.1021 -0.5637
22144SOL     OW68199   6.846   9.583   8.250  0.0332  0.0291  0.0250
22144SOL    HW168200   6.871   9.493   8.230  1.8298  0.5189 -0.1359
22144SOL    HW268201   6.796   9.611   8.173 -0.1758 -0.6936 -0.1097
22145SOL     OW68202   1.752   4.296   2.506  0.2370  0.2661 -0.0191
22145SOL    HW168203   1.809   4.366   2.474 -1.6568  2.6115  1.4479
22145SOL    HW268204   1.791   4.270   2.589 -0.8300  1.9898  1.0689
22146SOL     OW68205   1.295   6.659   0.178  0.6091 -0.2321 -0.0799
22146SOL    HW168206   1.222   6.709   0.141 -0.1881 -2.4220 -1.6766
22146SOL    HW268207   1.351   6.641   0.102  2.2965  0.5186  0.9412
22147SOL     OW68208   1.964   8.818   4.768  0.2973  0.0251  0.1850
22147SOL    HW168209   2.026   8.887   4.744 -0.2048  1.1034  1.7712
22147SOL    HW268210   1.882   8.865   4.785  0.6600 -0.4269  4.1813
22148SOL     OW68211   1.656   2.318   2.335  0.6471  0.3215  0.4899
22148SOL    HW168212   1.604   2.333   2.414 -0.4680 -1.3517  0.1253
22148SOL    HW268213   1.643   2.397   2.283 -1.2905  0.1233  0.5855
22149SOL     OW68214   6.523   6.284   2.834  0.5207 -0.5487 -0.0959
22149SOL    HW168215   6.566   6.362   2.798  0.6953 -0.1695  0.8893
22149SOL    HW268216   6.430   6.300   2.822  0.2991  1.4432  3.0895
22150SOL     OW68217   4.380   2.922   5.867 -0.1532 -0.5210 -0.5473
22150SOL    HW168218   4.296   2.929   5.823 -0.4262 -1.6843 -0.2522
22150SOL    HW268219   4.442   2.898   5.798 -0.2938 -0.8221 -0.5725
22151SOL     OW68220   2.718   7.329   9.544  0.2532 -0.5499 -0.5330
22151SOL    HW168221   2.769   7.249   9.529 -0.5768 -1.1544 -0.2894
22151SOL    HW268222   2.704   7.366   9.457 -0.0269 -1.1217 -0.7391
22152SOL     OW68223   5.351   1.168   1.924 -0.1840 -0.5518  0.0951
22152SOL    HW168224   5.408   1.096   1.949 -0.3149 -1.1535 -1.2589
22152SOL    HW268225   5.363   1.177   1.829  0.1557  1.5037  0.2932
22153SOL     OW68226   7.863   2.525   3.070  0.2496 -0.2484  0.6322
22153SOL    HW168227   7.917   2.604   3.076  1.9994 -1.2781 -0.6665
22153SOL    HW268228   7.840   2.519   2.977 -0.4821 -0.8850  0.8520
22154SOL     OW68229   3.498   6.791   6.887  0.4590  0.2664 -0.1889
22154SOL    HW168230   3.440   6.836   6.826 -0.2355 -0.3624 -0.0222
22154SOL    HW268231   3.512   6.705   6.847  0.6048  0.1239  0.1666
22155SOL     OW68232   7.808   3.582   7.042  0.0063 -0.5387  0.3574
22155SOL    HW168233   7.821   3.555   6.951  0.7732 -0.4430  0.4313
22155SOL    HW268234   7.895   3.577   7.081 -0.5274 -1.9383  1.4614
22156SOL     OW68235   7.306   4.991   3.799  0.3973 -0.0382  0.0592
22156SOL    HW168236   7.302   5.069   3.854  0.7969 -0.0069  0.0445
22156SOL    HW268237   7.219   4.985   3.759  0.9935  1.5583 -1.5561
22157SOL     OW68238   3.407   8.768   5.310 -0.3541  0.3074  0.4861
22157SOL    HW168239   3.435   8.828   5.240 -1.7619  2.9504  2.0161
22157SOL    HW268240   3.479   8.769   5.372 -0.9205  1.6475  1.1742
22158SOL     OW68241   0.239   8.005   7.833  0.3517 -0.2078 -0.0061
22158SOL    HW168242   0.289   8.019   7.913 -0.3611 -1.5880  0.7070
22158SOL    HW268243   0.155   8.048   7.849 -0.4951 -2.0547  0.7720
22159SOL     OW68244   2.058   8.428   5.374 -0.5396  0.0996  0.3907
22159SOL    HW168245   2.031   8.379   5.452 -2.7671 -0.4539 -0.6435
22159SOL    HW268246   2.009   8.510   5.379  1.7689  1.5261  1.1586
22160SOL     OW68247   1.157   7.218   8.772  0.3919  0.2104 -0.0756
22160SOL    HW168248   1.185   7.126   8.774  1.7808  0.4667 -2.8150
22160SOL    HW268249   1.169   7.244   8.681 -0.2354  3.0528  0.5788
22161SOL     OW68250   6.625   8.816   1.791 -0.0030 -0.4439 -0.3707
22161SOL    HW168251   6.706   8.853   1.755  0.3871 -0.8627  0.0596
22161SOL    HW268252   6.625   8.844   1.883 -0.7504  0.2226 -0.5644
22162SOL     OW68253   8.402   3.124   4.190  0.2231  0.0429  0.2752
22162SOL    HW168254   8.409   3.095   4.099  0.0047 -0.8341  0.5313
22162SOL    HW268255   8.475   3.081   4.235 -1.2439 -1.7506  1.0614
22163SOL     OW68256   8.549   6.298   2.682 -0.2807  0.5148 -0.3710
22163SOL    HW168257   8.583   6.302   2.592 -2.5465 -1.1054 -1.3900
22163SOL    HW268258   8.458   6.327   2.675 -0.3283  0.9621  1.5418
22164SOL     OW68259   3.124   4.281   0.587  0.1248 -0.0379 -0.4188
22164SOL    HW168260   3.151   4.219   0.654 -0.1302  0.0038 -0.2760
22164SOL    HW268261   3.199   4.339   0.574  0.3301 -0.3206 -0.4876
22165SOL     OW68262   3.979   5.927   6.338  0.0395  0.2193 -0.9068
22165SOL    HW168263   3.949   5.836   6.329 -1.1745  0.3704  0.9429
22165SOL    HW268264   3.952   5.970   6.257 -2.2891 -0.3561 -0.5072
22166SOL     OW68265   7.750   2.376   4.493 -0.2356  0.1525 -0.1232
22166SOL    HW168266   7.686   2.388   4.424 -1.1431 -0.8836  0.5146
22166SOL    HW268267   7.700   2.383   4.574  0.3170 -1.2473  0.3741
22167SOL     OW68268   2.024   8.080   0.998 -0.4168 -0.6247 -0.0105
22167SOL    HW168269   2.065   7.994   0.999 -1.4852 -1.1410  0.2201
22167SOL    HW268270   1.938   8.066   0.959 -0.0484  0.6079 -1.4098
22168SOL     OW68271   7.658   9.328   3.851 -0.0176 -0.1061 -0.0952
22168SOL    HW168272   7.738   9.312   3.902 -0.0222  0.3796  0.0626
22168SOL    HW268273   7.622   9.409   3.887 -0.6806 -0.4179 -0.0415
22169SOL     OW68274   7.771   3.851   7.250 -0.4770 -0.6638  0.9055
22169SOL    HW168275   7.710   3.908   7.204  0.2263  0.7203  1.6030
22169SOL    HW268276   7.731   3.764   7.247  0.3261 -1.1394 -3.8874
22170SOL     OW68277   7.319   5.481   6.433 -0.2865 -0.6681 -0.3666
22170SOL    HW168278   7.232   5.446   6.416 -1.0593  1.8666 -2.2981
22170SOL    HW268279   7.303   5.565   6.475  1.2679 -0.4243 -0.2185
22171SOL     OW68280   3.938   3.659   9.113  0.5511 -0.4949  0.3779
22171SOL    HW168281   3.910   3.749   9.094 -1.0899 -0.7535  1.4071
22171SOL    HW268282   3.861   3.606   9.094  1.0031 -1.5057  1.3018
22172SOL     OW68283   1.024   5.219   0.043  0.0380  0.0997 -0.4643
22172SOL    HW168284   0.941   5.265   0.033  0.0117  0.1632  0.0212
22172SOL    HW268285   1.056   5.208  -0.047 -1.1066 -1.0751 -0.7689
22173SOL     OW68286   0.602   6.341   7.401  0.4064 -0.4536  0.6359
22173SOL    HW168287   0.598   6.245   7.404  0.6745 -0.4672  0.5770
22173SOL    HW268288   0.512   6.368   7.389  0.6194 -0.8036 -2.3365
22174SOL     OW68289   3.168   1.991   4.319 -0.3707  0.2113  0.0914
22174SOL    HW168290   3.082   1.996   4.360  0.0780 -1.2662  1.2991
22174SOL    HW268291   3.214   2.069   4.350 -1.2492  1.0224 -0.5791
22175SOL     OW68292   2.538   0.829   0.645  0.4376  0.1648  0.0901
22175SOL    HW168293   2.627   0.823   0.680  0.2210 -1.1026  0.4868
22175SOL    HW268294   2.493   0.890   0.704  0.8373  0.2065  0.3571
22176SOL     OW68295   7.438   7.795   7.957  0.5361  0.0733  0.7389
22176SOL    HW168296   7.398   7.802   7.871 -0.7701  1.7121  1.4185
22176SOL    HW268297   7.432   7.702   7.979 -0.2484 -0.1690 -0.4154
22177SOL     OW68298   2.943   3.009   6.691  0.1505 -0.3532 -0.1841
22177SOL    HW168299   3.016   2.959   6.728  0.9212  0.6275 -0.3154
22177SOL    HW268300   2.953   3.000   6.597  0.7713  0.6731 -0.2306
22178SOL     OW68301   7.500   7.059   8.461  0.0591 -0.2957 -0.9681
22178SOL    HW168302   7.547   6.978   8.481 -0.1197 -0.6476 -1.9037
22178SOL    HW268303   7.562   7.129   8.479  0.4424 -0.6786 -0.7930
22179SOL     OW68304   5.882   9.336   8.426 -0.0978  0.1898 -0.4088
22179SOL    HW168305   5.803   9.387   8.445  0.1361  0.4207 -0.0490
22179SOL    HW268306   5.867   9.252   8.469  0.7006  0.9223  1.4338
22180SOL     OW68307   8.697   8.059   1.558 -0.2794  0.2600 -0.0150
22180SOL    HW168308   8.768   8.049   1.495  0.4335 -1.5031  1.0008
22180SOL    HW268309   8.710   8.147   1.595  0.0597  0.8007 -1.3546
22181SOL     OW68310   8.290   9.812   0.043 -0.0216  0.1694  0.1663
22181SOL    HW168311   8.362   9.775  -0.008  0.0482  0.4049  0.0909
22181SOL    HW268312   8.216   9.811  -0.018 -0.3940 -1.1461  0.6047
22182SOL     OW68313   9.839   3.772   7.281  1.1191  0.2189  0.2748
22182SOL    HW168314   9.797   3.852   7.250  1.8555  0.2693 -0.6430
22182SOL    HW268315   9.932   3.793   7.283  1.1809 -0.0605  1.7399
22183SOL     OW68316   2.577   9.566   9.280  0.5757  0.1766  0.5851
22183SOL    HW168317   2.528   9.495   9.322  1.6105 -0.1796  1.2429
22183SOL    HW268318   2.666   9.557   9.315  0.8644  1.4427  0.2303
22184SOL     OW68319   7.664   7.085   5.068  0.7668  0.5738 -0.2687
22184SOL    HW168320   7.653   7.024   4.995 -0.2521  0.4350 -0.0116
22184SOL    HW268321   7.738   7.140   5.042 -0.4920  1.5040 -2.1164
22185SOL     OW68322   2.422   5.425   3.439 -0.2691 -0.7729  0.1137
22185SOL    HW168323   2.504   5.377   3.449 -0.1667 -0.7925 -0.6950
22185SOL    HW268324   2.357   5.358   3.419 -1.0178 -1.0599  3.1155
22186SOL     OW68325   6.576   0.875   2.954  0.1062  0.1826 -0.8563
22186SOL    HW168326   6.508   0.937   2.979  0.0067  0.5684 -2.0247
22186SOL    HW268327   6.598   0.829   3.035 -0.8357  0.7453 -0.2692
22187SOL     OW68328   6.122   7.013   8.818  0.0904 -0.2339  0.1297
22187SOL    HW168329   6.101   7.107   8.820 -2.2087 -0.6240 -1.1601
22187SOL    HW268330   6.135   6.994   8.725 -1.8085 -1.5798  0.0845
22188SOL     OW68331   9.468   3.455   5.512 -0.7530  0.0769 -0.2609
22188SOL    HW168332   9.494   3.546   5.497  0.3332 -0.2559 -0.4816
22188SOL    HW268333   9.549   3.411   5.538 -0.5608 -1.4581 -3.0486
22189SOL     OW68334   1.659   0.330   6.784 -0.1780  0.1767  0.3751
22189SOL    HW168335   1.620   0.389   6.719  2.2858  0.7007 -0.7541
22189SOL    HW268336   1.739   0.298   6.742  0.7646 -0.6122  2.6196
22190SOL     OW68337   3.554   5.457   7.718  1.0904  0.1754 -0.0504
22190SOL    HW168338   3.601   5.429   7.640  3.0635 -0.6874  1.3532
22190SOL    HW268339   3.514   5.378   7.753  0.2927  0.5380 -0.1013
22191SOL     OW68340   5.906   6.848   2.645 -0.1823  0.7523 -0.0647
22191SOL    HW168341   5.863   6.808   2.721  2.4118 -1.9712  0.1510
22191SOL    HW268342   5.970   6.908   2.682 -0.2675  0.9026 -0.1621
22192SOL     OW68343   7.299   6.544   7.342 -0.6484 -0.4666 -0.1121
22192SOL    HW168344   7.359   6.601   7.293  0.3059 -2.4496 -1.4118
22192SOL    HW268345   7.344   6.528   7.425 -0.9342  0.6696  0.2671
22193SOL     OW68346   9.428   0.547   6.230  0.2291  0.2574  0.1408
22193SOL    HW168347   9.514   0.506   6.215  0.6292  0.5625  1.4824
22193SOL    HW268348   9.412   0.599   6.151  0.6176 -0.9067 -0.7384
22194SOL     OW68349   8.764   3.112   3.393  0.2543 -0.0268  0.5293
22194SOL    HW168350   8.669   3.120   3.380  0.1878 -0.1057  0.9519
22194SOL    HW268351   8.799   3.095   3.305 -0.0717  0.4525  0.3007
22195SOL     OW68352   4.387   7.520   9.156  0.1091 -1.2939 -0.0031
22195SOL    HW168353   4.482   7.527   9.147 -0.0703 -0.3814 -1.5190
22195SOL    HW268354   4.362   7.452   9.093 -0.3573 -0.7310 -0.4285
22196SOL     OW68355   6.180   6.807   2.371  0.2142  0.5518 -0.0944
22196SOL    HW168356   6.165   6.715   2.351  0.5529  0.5937 -0.5613
22196SOL    HW268357   6.112   6.853   2.322  0.5045  0.5970 -0.4584
22197SOL     OW68358   9.158   2.548   1.105 -0.2530  0.3098 -0.4919
22197SOL    HW168359   9.081   2.604   1.095  0.2301  1.4555  1.7055
22197SOL    HW268360   9.219   2.578   1.037  0.0158  2.5818  0.6690
22198SOL     OW68361   6.395   6.321   2.441  0.7200 -0.6771  0.3746
22198SOL    HW168362   6.345   6.242   2.421 -1.4115  0.8292 -0.6542
22198SOL    HW268363   6.456   6.330   2.367 -0.2521 -0.4452 -0.4220
22199SOL     OW68364   1.118   5.757   6.651 -0.5757 -0.1032 -0.1012
22199SOL    HW168365   1.188   5.698   6.624 -0.1073  0.3181  0.1772
22199SOL    HW268366   1.095   5.728   6.739  0.9874  1.3038  0.8272
22200SOL     OW68367   7.702   5.449   8.854  0.1158 -0.3942  0.4609
22200SOL    HW168368   7.712   5.482   8.944 -0.3181 -0.1378  0.4169
22200SOL    HW268369   7.792   5.430   8.826  0.5709  2.1561 -0.0563
22201SOL     OW68370   2.672   1.264   8.020  0.6841  0.2518 -0.0237
22201SOL    HW168371   2.708   1.312   7.946  0.2743 -0.6440 -0.8268
22201SOL    HW268372   2.716   1.302   8.096 -0.3354  2.5931 -0.4915
22202SOL     OW68373   3.200   4.783   0.650 -0.3246 -0.3039 -0.2627
22202SOL    HW168374   3.120   4.797   0.598  0.0163  0.9056 -0.4810
22202SOL    HW268375   3.169   4.737   0.728 -1.5025  1.4452  0.3600
22203SOL     OW68376   5.299   4.266   1.901  0.0349 -0.0163 -0.6172
22203SOL    HW168377   5.386   4.271   1.861  1.6296 -1.3290  2.2979
22203SOL    HW268378   5.292   4.175   1.930 -2.5062 -0.0188 -1.0698
22204SOL     OW68379   1.056   7.926   5.322 -0.2711 -0.8005 -0.0521
22204SOL    HW168380   1.131   7.971   5.361 -1.0203  0.1003  0.3870
22204SOL    HW268381   0.987   7.934   5.388 -0.9055 -1.1936 -0.6595
22205SOL     OW68382   9.302   8.485   3.289 -0.2700 -0.0284 -0.5724
22205SOL    HW168383   9.297   8.509   3.196 -2.1399 -1.4705 -0.9028
22205SOL    HW268384   9.328   8.566   3.333  0.2457  0.7942 -2.3036
22206SOL     OW68385   3.589   6.617   9.267 -1.2489 -1.2745 -0.0287
22206SOL    HW168386   3.633   6.616   9.352  0.9604 -2.6409 -1.0816
22206SOL    HW268387   3.613   6.534   9.227 -1.6087 -0.3686 -2.2891
22207SOL     OW68388   7.883   1.176   9.132  0.0045 -0.0279 -0.3196
22207SOL    HW168389   7.863   1.215   9.217  1.5652 -0.3226  0.2035
22207SOL    HW268390   7.858   1.244   9.069 -0.6156  0.4219  0.3837
22208SOL     OW68391   8.352   0.401   8.531 -0.1018  0.4728 -0.1906
22208SOL    HW168392   8.367   0.494   8.511 -0.9556  0.6015 -0.2659
22208SOL    HW268393   8.339   0.360   8.445 -0.6462  0.4588 -0.1073
22209SOL     OW68394   7.887   2.631   7.391 -0.0734 -0.1417  0.0978
22209SOL    HW168395   7.852   2.666   7.309  0.5927 -0.0664 -0.1645
22209SOL    HW268396   7.862   2.538   7.390 -2.5042  0.4166  1.1511
22210SOL     OW68397   3.000   3.044   6.414 -0.3068 -0.8066  0.0458
22210SOL    HW168398   2.927   3.037   6.352 -1.0839  2.0299  0.5210
22210SOL    HW268399   3.038   3.131   6.397 -1.1341  0.5263  4.0675
22211SOL     OW68400   9.596   4.642   5.153  0.3607  0.0764 -0.2664
22211SOL    HW168401   9.536   4.717   5.161 -0.3560 -0.5843  0.8475
22211SOL    HW268402   9.630   4.629   5.242  1.5837 -0.0390 -0.7380
22212SOL     OW68403   5.748   5.563   4.276  0.5333  0.1420 -0.0278
22212SOL    HW168404   5.660   5.568   4.238  0.0946  0.6378  1.0021
22212SOL    HW268405   5.775   5.654   4.287 -0.5461  0.2031  3.3896
22213SOL     OW68406   6.354   1.531   8.720 -0.5919  0.6573  0.5858
22213SOL    HW168407   6.381   1.621   8.737  2.2342  0.6216 -2.7057
22213SOL    HW268408   6.413   1.478   8.775 -0.2223  0.7662  0.2971
22214SOL     OW68409   0.948   0.324   0.248  0.7630  0.1753  0.4612
22214SOL    HW168410   0.989   0.240   0.231 -0.5796 -0.5571  0.7225
22214SOL    HW268411   1.021   0.385   0.259  1.7492 -0.9718  0.4070
22215SOL     OW68412   0.492   6.602   6.639  0.0282  0.4493 -0.3594
22215SOL    HW168413   0.488   6.643   6.553 -1.4607  0.3396 -0.3713
22215SOL    HW268414   0.584   6.578   6.650  0.0958 -0.3325 -2.2883
22216SOL     OW68415   3.267   6.515   2.031  0.1568 -0.1048 -0.8355
22216SOL    HW168416   3.293   6.424   2.016 -1.0473 -0.8022  0.8527
22216SOL    HW268417   3.177   6.519   1.998  1.0075  1.2069 -3.1656
22217SOL     OW68418   9.062   8.800   2.147  0.0079  0.5819 -0.0258
22217SOL    HW168419   8.984   8.794   2.202 -0.1253 -1.4754 -0.3688
22217SOL    HW268420   9.091   8.709   2.136  1.8573  1.2151 -0.7622
22218SOL     OW68421   5.839   6.521   7.388 -0.1047  0.4542 -0.6248
22218SOL    HW168422   5.777   6.548   7.321  0.2616 -1.0171 -1.5766
22218SOL    HW268423   5.925   6.541   7.351  0.1039 -0.4741 -0.6554
22219SOL     OW68424   2.855   6.583   4.036  0.0434  0.3100 -0.4543
22219SOL    HW168425   2.772   6.603   3.993  0.0888 -0.4663 -0.9185
22219SOL    HW268426   2.837   6.505   4.088  0.6838 -0.3913 -1.2410
22220SOL     OW68427   0.577   3.777   8.132  0.1345  0.3480  0.1211
22220SOL    HW168428   0.659   3.749   8.171  0.0938  0.8521  0.5854
22220SOL    HW268429   0.601   3.804   8.043  0.6981  1.5692  0.6111
22221SOL     OW68430   8.122   2.482   9.659 -0.1564  0.3656  0.3697
22221SOL    HW168431   8.157   2.475   9.748  3.2202 -0.5151 -0.8757
22221SOL    HW268432   8.073   2.401   9.646  2.0224 -1.0475  0.4624
22222SOL     OW68433   3.944   8.286   5.356 -0.5613  0.4196  0.5177
22222SOL    HW168434   3.924   8.354   5.421  0.1322  0.4833  0.6757
22222SOL    HW268435   3.910   8.205   5.394  2.0022 -0.0031  2.1687
22223SOL     OW68436   3.780   5.932   8.109  0.1544  0.1181 -0.2384
22223SOL    HW168437   3.844   5.944   8.039 -0.6486 -0.5020 -1.0903
22223SOL    HW268438   3.800   5.845   8.144 -0.4246 -0.2140 -0.7238
22224SOL     OW68439   2.733   2.122   0.316  0.5434  0.6360  0.1494
22224SOL    HW168440   2.765   2.192   0.373 -0.4813  1.1515  0.1137
22224SOL    HW268441   2.810   2.066   0.302  0.9875  0.8667  1.4737
22225SOL     OW68442   2.128   0.243   1.459  0.4577 -0.2270 -0.3369
22225SOL    HW168443   2.187   0.167   1.451  0.7372 -0.0291 -0.1600
22225SOL    HW268444   2.113   0.252   1.553  1.8487  1.0133 -0.2011
22226SOL     OW68445   0.727   0.888   1.238  0.0723  0.2491 -0.2730
22226SOL    HW168446   0.764   0.921   1.320 -0.6331  1.7297 -0.5085
22226SOL    HW268447   0.632   0.891   1.252 -0.0504  0.2304 -1.0334
22227SOL     OW68448   7.342   0.089   4.323 -0.1027  0.1853 -0.0399
22227SOL    HW168449   7.325   0.107   4.415 -1.0093  1.4638 -0.4112
22227SOL    HW268450   7.260   0.112   4.279  0.5838  0.4420 -1.2469
22228SOL     OW68451   0.534   2.838   4.755 -0.1194 -0.1245  0.1914
22228SOL    HW168452   0.607   2.893   4.783  2.0593 -1.6215 -2.1565
22228SOL    HW268453   0.536   2.842   4.660 -1.9841 -1.6861  0.0283
22229SOL     OW68454   1.256   3.749   0.129  0.5669 -0.1977  0.4799
22229SOL    HW168455   1.307   3.829   0.119  2.5938 -1.4282  0.4578
22229SOL    HW268456   1.244   3.717   0.040  0.1763 -0.1697  0.5215
22230SOL     OW68457   5.494   6.748   8.361 -0.4221  0.2570 -0.2543
22230SOL    HW168458   5.410   6.707   8.342 -1.3734  2.2693 -0.6640
22230SOL    HW268459   5.512   6.725   8.452 -2.1578  0.9227  0.2997
22231SOL     OW68460   0.728   8.935   5.189 -0.0913 -0.0392 -0.0744
22231SOL    HW168461   0.793   9.002   5.208  0.2337 -0.1524 -0.7752
22231SOL    HW268462   0.755   8.859   5.242  0.1892  0.0062 -0.1514
22232SOL     OW68463   1.916   7.321   7.011  0.0966 -0.5276  0.1773
22232SOL    HW168464   1.999   7.319   7.059 -0.9241 -0.8874  1.9983
22232SOL    HW268465   1.911   7.411   6.977  1.5487 -0.7054 -0.6111
22233SOL     OW68466   0.527   5.994   6.901 -0.4733 -0.7218  0.4494
22233SOL    HW168467   0.522   5.951   6.815 -1.3260 -0.6194  0.4418
22233SOL    HW268468   0.583   6.070   6.886  0.7069 -1.5725  0.3666
22234SOL     OW68469   4.191   3.277   5.638  0.2969 -0.0724 -0.7044
22234SOL    HW168470   4.242   3.358   5.642  0.1342  0.0402 -0.9223
22234SOL    HW268471   4.106   3.304   5.605  0.8317 -0.6147 -2.6402
22235SOL     OW68472   5.871   6.573   4.305 -0.0002  0.4733  0.5961
22235SOL    HW168473   5.862   6.642   4.371  0.8382  0.8846  0.2870
22235SOL    HW268474   5.908   6.617   4.229 -0.5338 -0.0933 -0.0049
22236SOL     OW68475   7.396   7.274   9.134  0.1329 -0.2363 -0.1437
22236SOL    HW168476   7.442   7.320   9.064 -0.1477 -2.4489 -1.9073
22236SOL    HW268477   7.343   7.208   9.088  1.4037 -3.0900  2.1933
22237SOL     OW68478   6.303   5.684   7.327 -0.2812 -0.0887 -0.1577
22237SOL    HW168479   6.245   5.698   7.403 -1.3485  1.0162 -1.1124
22237SOL    HW268480   6.389   5.666   7.365 -1.0024 -0.6016  1.3140
22238SOL     OW68481   5.526   8.073   4.709 -0.0541 -0.2282  0.1468
22238SOL    HW168482   5.621   8.081   4.701 -0.0921 -0.1771 -0.2819
22238SOL    HW268483   5.512   7.995   4.762  0.1784 -2.0578 -2.3281
22239SOL     OW68484   1.086   5.193   8.309 -0.1657 -0.4866 -0.3482
22239SOL    HW168485   1.009   5.250   8.306 -0.6060 -1.0076  0.7483
22239SOL    HW268486   1.052   5.107   8.333  0.7330 -0.7591 -0.0020
22240SOL     OW68487   8.076   1.225   0.843 -0.1589 -0.0317  0.4045
22240SOL    HW168488   8.105   1.301   0.793  2.2905 -0.6220  0.7952
22240SOL    HW268489   8.051   1.161   0.777  0.8960 -0.0207 -0.0098
22241SOL     OW68490   4.562   7.364   8.806  0.2003  0.2635  0.5963
22241SOL    HW168491   4.628   7.336   8.742  1.2908 -0.9408  2.1725
22241SOL    HW268492   4.508   7.286   8.820  0.9332 -0.0038  2.2326
22242SOL     OW68493   4.160   9.106   0.363 -0.2172  0.1009 -0.1522
22242SOL    HW168494   4.114   9.189   0.377 -1.3293 -0.6653  0.8970
22242SOL    HW268495   4.171   9.100   0.269 -2.4029  0.2533 -0.4570
22243SOL     OW68496   7.922   7.352   4.744  0.2342 -0.4870  0.0519
22243SOL    HW168497   7.954   7.362   4.655  0.8023 -0.1735  0.2887
22243SOL    HW268498   7.835   7.313   4.734  0.1170 -0.0604 -0.6553
22244SOL     OW68499   3.823   3.914   3.697 -0.7236 -0.5205 -0.1625
22244SOL    HW168500   3.836   3.933   3.790 -0.5846  1.6584 -0.5723
22244SOL    HW268501   3.740   3.957   3.675  0.1218  0.5580 -1.4100
22245SOL     OW68502   9.463   9.340   6.239 -0.6936  0.0041  0.1514
22245SOL    HW168503   9.508   9.423   6.253 -0.3037 -0.0006 -1.0106
22245SOL    HW268504   9.522   9.288   6.184 -1.1766 -0.8278  0.3870
22246SOL     OW68505   4.763   4.086   0.664 -0.0887 -0.7090 -0.0005
22246SOL    HW168506   4.814   4.048   0.592  1.9826  2.6271 -0.5185
22246SOL    HW268507   4.692   4.133   0.620  0.3892  0.2177  0.2029
22247SOL     OW68508   5.613   6.028   2.271 -0.3658  0.4362 -0.0996
22247SOL    HW168509   5.521   6.007   2.286 -0.3587  1.1855  1.2087
22247SOL    HW268510   5.661   5.968   2.329 -0.1545  1.2998  0.6533
22248SOL     OW68511   2.021   2.482   2.921 -0.6101  0.3417  0.2637
22248SOL    HW168512   2.084   2.425   2.877  0.0326  0.4363  1.0360
22248SOL    HW268513   1.972   2.424   2.979 -1.5963  0.1808 -0.6918
22249SOL     OW68514   0.601   3.452   5.967 -0.6343 -0.1269  0.3941
22249SOL    HW168515   0.656   3.524   5.936 -0.6811 -0.0320  0.5298
22249SOL    HW268516   0.633   3.375   5.920  0.3719 -0.2919  1.3057
22250SOL     OW68517   6.358   3.697   5.808  0.1822  0.6464 -0.1055
22250SOL    HW168518   6.392   3.661   5.889 -0.2914 -0.3280 -0.3163
22250SOL    HW268519   6.424   3.674   5.742 -0.1912 -0.0149 -0.2670
22251SOL     OW68520   5.047   4.553   3.769 -0.0888  0.1408 -0.5469
22251SOL    HW168521   4.967   4.542   3.820  0.3648 -3.0607 -0.3117
22251SOL    HW268522   5.072   4.464   3.744  3.2715  1.0014 -0.8104
22252SOL     OW68523   6.250   0.314   1.580 -0.4539 -0.3847 -0.6949
22252SOL    HW168524   6.233   0.368   1.503  0.2831 -0.0172 -0.5997
22252SOL    HW268525   6.339   0.281   1.568  0.2530  0.8954  0.7187
22253SOL     OW68526   2.295   6.847   8.529 -0.1970 -0.0559 -0.8348
22253SOL    HW168527   2.311   6.914   8.463 -1.2658 -1.0186 -2.1552
22253SOL    HW268528   2.382   6.824   8.562  0.4514  0.0248 -2.3841
22254SOL     OW68529   6.380   3.759   1.489  0.4559 -0.4094  0.0793
22254SOL    HW168530   6.288   3.784   1.480  1.1888  2.2705 -0.8922
22254SOL    HW268531   6.392   3.747   1.584 -0.9764 -1.3852  0.1708
22255SOL     OW68532   6.305   8.206   3.018  0.1398 -0.2891  0.0765
22255SOL    HW168533   6.369   8.239   2.955 -0.3411 -2.3532 -1.6161
22255SOL    HW268534   6.294   8.114   2.994  0.0366 -1.2376  3.3073
22256SOL     OW68535   6.050   7.002   9.719  0.1959 -0.2913  0.1911
22256SOL    HW168536   5.976   6.988   9.659 -0.3331  0.8092  0.5580
22256SOL    HW268537   6.071   7.095   9.711  2.1773 -0.7591 -0.5875
22257SOL     OW68538   7.046   8.487   4.301 -0.6087  0.1742 -0.1658
22257SOL    HW168539   7.049   8.581   4.287 -2.1844  0.3735  0.6079
22257SOL    HW268540   6.956   8.470   4.330 -0.3077 -1.5424 -0.1362
22258SOL     OW68541   5.918   8.521   2.554 -0.1327  0.4478  0.6180
22258SOL    HW168542   5.911   8.466   2.632  0.3148 -0.0748  0.2950
22258SOL    HW268543   6.010   8.513   2.528 -0.8329 -1.6156 -1.5721
22259SOL     OW68544   1.377   2.208   0.861 -0.0304  0.2224  0.3081
22259SOL    HW168545   1.369   2.282   0.922  1.4347  0.8763 -0.2419
22259SOL    HW268546   1.287   2.184   0.841 -0.5387  0.9209  1.6193
22260SOL     OW68547   7.772   2.259   4.115 -0.5340 -0.0483  0.3796
22260SOL    HW168548   7.826   2.286   4.041  0.1562 -1.6946  0.2555
22260SOL    HW268549   7.686   2.296   4.096  0.0337  0.9363 -0.4110
22261SOL     OW68550   3.874   2.754   3.705 -0.2104  0.2259 -0.2070
22261SOL    HW168551   3.782   2.738   3.723 -1.3111  3.9429 -1.5969
22261SOL    HW268552   3.887   2.723   3.615 -0.6542  1.2298 -0.6416
22262SOL     OW68553   7.272   3.268   6.508  0.7355  0.0050 -0.0249
22262SOL    HW168554   7.211   3.320   6.561 -1.1494 -0.7947 -1.3136
22262SOL    HW268555   7.302   3.329   6.440 -0.5551 -0.1989 -0.8265
22263SOL     OW68556   7.763   2.759   5.776  0.0958 -0.1725  0.2166
22263SOL    HW168557   7.715   2.759   5.859  1.0806 -0.0642  0.7913
22263SOL    HW268558   7.781   2.851   5.758  1.5497 -0.3031  0.8747
22264SOL     OW68559   3.746   2.864   6.731  0.2025 -0.0339  0.3487
22264SOL    HW168560   3.659   2.889   6.700  0.3519 -0.4093 -0.3828
22264SOL    HW268561   3.729   2.819   6.814 -0.3450 -0.5510 -0.0362
22265SOL     OW68562   1.656   7.898   2.208  0.9208  0.3855  0.1007
22265SOL    HW168563   1.738   7.886   2.256  0.3106 -1.1409  0.8131
22265SOL    HW268564   1.597   7.938   2.272 -0.1125 -2.2961  0.9629
22266SOL     OW68565   4.496   9.395   2.440  0.4334  0.5845 -0.4345
22266SOL    HW168566   4.524   9.436   2.522  0.4538 -1.3752  0.6120
22266SOL    HW268567   4.482   9.468   2.380 -0.5439  2.2017  1.5995
22267SOL     OW68568   2.151   7.113   3.054 -0.0285 -0.0827 -0.0742
22267SOL    HW168569   2.178   7.180   3.117  0.5199 -1.5215  1.2735
22267SOL    HW268570   2.208   7.039   3.072 -1.1238 -1.1976 -1.0315
22268SOL     OW68571   6.398   7.961   3.257  0.2846  0.5015  0.1535
22268SOL    HW168572   6.352   7.917   3.328 -0.5207 -1.3231 -1.4227
22268SOL    HW268573   6.478   7.909   3.244  0.1404  0.4590 -0.6326
22269SOL     OW68574   4.182   5.636   8.438 -0.3831  0.0476  0.7365
22269SOL    HW168575   4.276   5.637   8.454 -0.5718 -1.6216  2.3637
22269SOL    HW268576   4.147   5.708   8.491  0.1327  2.2073 -1.6907
22270SOL     OW68577   1.586   7.050   7.408  0.2663 -0.0421 -0.2052
22270SOL    HW168578   1.629   7.054   7.494  0.5468  1.5872 -0.3923
22270SOL    HW268579   1.618   6.968   7.370  0.9091 -0.3079  0.8432
22271SOL     OW68580   7.781   6.556   7.549  0.4160 -0.8972 -0.2393
22271SOL    HW168581   7.694   6.559   7.509 -0.3674 -0.7325  1.4156
22271SOL    HW268582   7.827   6.632   7.511 -1.8255  2.0343  2.4052
22272SOL     OW68583   0.213   6.526   8.387 -0.1611  0.0371  1.0529
22272SOL    HW168584   0.183   6.616   8.372 -0.8332 -0.2310  0.7242
22272SOL    HW268585   0.144   6.472   8.349  1.2404 -0.6157 -0.6675
22273SOL     OW68586   5.245   5.102   6.093 -0.4491  0.0433 -0.5586
22273SOL    HW168587   5.321   5.152   6.122 -1.1268  1.5727 -1.2818
22273SOL    HW268588   5.172   5.139   6.143 -0.9536 -0.2650 -1.0614
22274SOL     OW68589   6.675   9.739   3.156  0.3908 -0.4387  0.1405
22274SOL    HW168590   6.661   9.715   3.064 -0.7635  2.8475 -0.6698
22274SOL    HW268591   6.601   9.700   3.203  0.2523 -1.0149 -0.5363
22275SOL     OW68592   3.325   4.880   3.181  0.0209 -0.2102 -0.2848
22275SOL    HW168593   3.252   4.851   3.126 -1.0314  0.0555  0.9428
22275SOL    HW268594   3.382   4.803   3.187 -0.4056 -0.5749 -0.8366
22276SOL     OW68595   1.213   4.519   9.811  0.1426 -0.2580 -0.7509
22276SOL    HW168596   1.213   4.429   9.778  0.3332 -0.4735 -0.1755
22276SOL    HW268597   1.267   4.516   9.890  0.5389  0.4635 -0.9846
22277SOL     OW68598   7.728   3.357   0.863 -0.0300 -0.1724  0.0568
22277SOL    HW168599   7.768   3.438   0.896  0.7877 -0.0809 -1.0952
22277SOL    HW268600   7.668   3.387   0.794  1.7317 -0.6317 -1.7623
22278SOL     OW68601   8.310   8.748   1.669  0.0778  0.1391  0.3956
22278SOL    HW168602   8.276   8.727   1.756  2.0956 -0.8471  1.0049
22278SOL    HW268603   8.264   8.687   1.610  1.2680 -1.7336  1.3001
22279SOL     OW68604   6.399   4.135   2.862  0.3710 -0.2695 -0.0540
22279SOL    HW168605   6.356   4.193   2.799  0.9520  0.0937 -0.1248
22279SOL    HW268606   6.380   4.174   2.947 -0.6290 -0.9024  0.0237
22280SOL     OW68607   4.289   4.706   3.468  0.6201  0.1992  0.1812
22280SOL    HW168608   4.316   4.623   3.508  0.0733 -0.7913 -1.3686
22280SOL    HW268609   4.231   4.747   3.532 -1.4081 -2.0033 -0.1087
22281SOL     OW68610   3.787   3.685   6.850  0.3608  0.0072  0.0282
22281SOL    HW168611   3.852   3.746   6.817 -0.0500 -0.9029 -2.7283
22281SOL    HW268612   3.832   3.601   6.852  0.3981  0.0222  2.0842
22282SOL     OW68613   6.343   1.840   5.092  0.1589  0.2759 -0.8699
22282SOL    HW168614   6.363   1.837   5.186  0.8745  0.0270 -1.0224
22282SOL    HW268615   6.266   1.897   5.085 -1.3565 -1.5360  0.1150
22283SOL     OW68616   4.217   7.429   0.367 -0.3384  0.2996  0.4379
22283SOL    HW168617   4.192   7.352   0.315  1.2797 -0.0996  0.2192
22283SOL    HW268618   4.248   7.393   0.450  2.8722  0.4661 -0.5882
22284SOL     OW68619   2.211   1.775   6.960  0.5839  0.1423  0.3518
22284SOL    HW168620   2.142   1.838   6.941 -0.1727 -0.7936 -0.1116
22284SOL    HW268621   2.194   1.748   7.051  0.7857  0.4673  0.4834
22285SOL     OW68622   3.543   0.587   6.162  0.1458  0.0593 -0.2978
22285SOL    HW168623   3.530   0.566   6.070  0.0236 -0.7003 -0.1128
22285SOL    HW268624   3.569   0.504   6.202  2.4901  0.8563 -0.0651
22286SOL     OW68625   7.545   3.305   9.498  0.4755  0.1619 -0.4086
22286SOL    HW168626   7.480   3.243   9.464  1.0516 -0.9276  0.3682
22286SOL    HW268627   7.624   3.287   9.448  0.7818 -0.0979  0.1474
22287SOL     OW68628   2.566   4.385   0.144  0.0009 -0.4456  0.1931
22287SOL    HW168629   2.562   4.442   0.220  1.5277 -0.6518  0.4519
22287SOL    HW268630   2.639   4.326   0.161  0.5333 -0.3462 -1.5459
22288SOL     OW68631   1.598   1.151   2.799  0.1843  0.4447  0.5699
22288SOL    HW168632   1.637   1.070   2.766  0.0557  0.5267  0.2187
22288SOL    HW268633   1.641   1.166   2.883  1.0649  0.6465  0.0940
22289SOL     OW68634   5.528   6.350   1.561  0.1925 -0.6998  0.3506
22289SOL    HW168635   5.565   6.432   1.592  0.0165  0.6086 -2.5364
22289SOL    HW268636   5.599   6.286   1.569  0.5231 -0.1497  2.0541
22290SOL     OW68637   7.104   6.793   6.286  0.4931 -0.1099 -0.0445
22290SOL    HW168638   7.193   6.828   6.278  0.4808 -0.3148 -1.2313
22290SOL    HW268639   7.064   6.845   6.356  1.1862  0.7423 -0.2717
22291SOL     OW68640   6.130   5.182   3.402 -0.1524 -0.5164 -0.2332
22291SOL    HW168641   6.201   5.225   3.355 -1.5336 -0.8426 -2.7753
22291SOL    HW268642   6.171   5.106   3.443  0.9665 -0.8009 -1.7821
22292SOL     OW68643   3.132   1.125   8.647  0.4252 -0.4860  0.3651
22292SOL    HW168644   3.059   1.185   8.633 -0.4363 -1.1082  1.9240
22292SOL    HW268645   3.195   1.175   8.698 -0.3349 -0.9048  1.7463
22293SOL     OW68646   1.165   7.740   9.552  0.4166  0.2598 -0.0499
22293SOL    HW168647   1.247   7.764   9.509  0.3796 -0.2599 -0.4251
22293SOL    HW268648   1.123   7.678   9.492 -0.9601  1.6294 -0.5731
22294SOL     OW68649   3.665   6.628   3.376  0.7926 -0.1951 -0.2897
22294SOL    HW168650   3.747   6.659   3.338  0.5455 -0.6496 -1.2040
22294SOL    HW268651   3.636   6.701   3.431  2.0322 -0.2039  0.4311
22295SOL     OW68652   5.791   4.444   4.748  0.4626  0.3684  0.2854
22295SOL    HW168653   5.759   4.373   4.692  0.5889  0.2650  0.3427
22295SOL    HW268654   5.839   4.502   4.688 -1.7923  1.7915 -0.2535
22296SOL     OW68655   1.157   3.205   1.277 -0.9034  1.1752 -0.2498
22296SOL    HW168656   1.212   3.248   1.212 -0.0554  2.5388  1.2846
22296SOL    HW268657   1.080   3.261   1.284 -0.5562  1.5658  0.5748
22297SOL     OW68658   0.035   2.939   4.888  0.4753 -0.4733  0.3360
22297SOL    HW168659  -0.004   3.002   4.827 -0.0374 -2.1626 -1.1575
22297SOL    HW268660  -0.027   2.932   4.960  0.9950  1.4093  1.0191
22298SOL     OW68661   1.523   1.780   7.624 -0.3009 -0.2971  0.4321
22298SOL    HW168662   1.597   1.817   7.672  0.5490 -1.0841 -0.2273
22298SOL    HW268663   1.563   1.721   7.560 -1.4834 -0.4165 -0.2269
22299SOL     OW68664   3.918   0.185   6.829  1.1601  0.8434  0.5570
22299SOL    HW168665   3.952   0.213   6.914  2.6298 -1.0325  0.6500
22299SOL    HW268666   3.856   0.116   6.850  1.2775  0.6067  0.1245
22300SOL     OW68667   9.487   5.320   8.156  0.1475  0.6562 -0.8133
22300SOL    HW168668   9.566   5.355   8.196  0.6008 -0.0665 -1.0684
22300SOL    HW268669   9.418   5.382   8.181  0.9336  1.7700 -1.2955
22301SOL     OW68670   7.380   3.933   2.374 -0.1712  0.0196  0.1540
22301SOL    HW168671   7.314   3.918   2.307 -0.1335 -1.2629  0.3671
22301SOL    HW268672   7.373   4.026   2.395 -1.7069 -0.0325 -0.0211
22302SOL     OW68673   3.949   8.865   3.287  0.5229  0.7832  0.0319
22302SOL    HW168674   3.968   8.814   3.208 -0.8916  0.0673  0.1156
22302SOL    HW268675   3.996   8.819   3.357  0.8375  0.7475 -0.1981
22303SOL     OW68676   4.616   0.357   5.497 -0.0215  0.6042  0.0264
22303SOL    HW168677   4.663   0.277   5.522 -1.0370 -0.1179 -0.3135
22303SOL    HW268678   4.533   0.326   5.460  0.1910  1.7456 -1.5194
22304SOL     OW68679   1.153   0.809   9.733  0.2980 -0.0393  0.0465
22304SOL    HW168680   1.218   0.876   9.755 -0.7674  0.8109  0.6796
22304SOL    HW268681   1.150   0.808   9.638  2.8079 -1.6565 -0.1364
22305SOL     OW68682   4.504   4.063   9.270 -0.2432  0.2802 -0.3943
22305SOL    HW168683   4.484   4.153   9.243 -1.7173 -0.2546 -1.2273
22305SOL    HW268684   4.463   4.008   9.203 -0.2078 -1.0356  0.6106
22306SOL     OW68685   8.018   0.130   6.625  0.1626 -0.2564 -0.4978
22306SOL    HW168686   8.014   0.081   6.707 -2.0599 -1.5667 -1.3038
22306SOL    HW268687   8.043   0.064   6.560 -1.4123 -0.0377 -1.3686
22307SOL     OW68688   0.936   4.789   0.167 -0.4340 -0.6714 -0.3258
22307SOL    HW168689   0.900   4.860   0.220 -0.5277 -2.0107  1.4872
22307SOL    HW268690   0.977   4.731   0.230 -0.9330 -2.5829 -1.6823
22308SOL     OW68691   8.932   7.445   5.470 -0.1534  0.0700 -0.2553
22308SOL    HW168692   8.980   7.519   5.433  0.2299  0.0663  0.2238
22308SOL    HW268693   8.845   7.451   5.430  0.2963 -0.0473 -1.2956
22309SOL     OW68694   5.607   5.923   9.390  0.7996  0.1990 -0.0975
22309SOL    HW168695   5.644   6.009   9.412  0.8698  0.4187 -1.0190
22309SOL    HW268696   5.675   5.880   9.338  0.5705 -0.2250 -0.0559
22310SOL     OW68697   1.350   2.687   0.131 -0.4088 -0.0877  0.1141
22310SOL    HW168698   1.433   2.678   0.084 -1.2384  0.7397 -1.6064
22310SOL    HW268699   1.356   2.623   0.202  1.5389 -0.3028 -0.1770
22311SOL     OW68700   5.296   6.644   3.602 -0.7920  0.5372 -0.2372
22311SOL    HW168701   5.303   6.645   3.507 -0.0142 -0.1795 -0.1977
22311SOL    HW268702   5.223   6.585   3.620 -0.2567 -0.1788 -0.3684
22312SOL     OW68703   5.994   4.410   5.342  0.1087  1.1204 -0.4153
22312SOL    HW168704   6.033   4.335   5.296  0.5029  1.2036 -0.2179
22312SOL    HW268705   5.987   4.382   5.433 -2.2702  0.2954 -0.7734
22313SOL     OW68706   4.741   9.484   7.874  0.2034 -0.1317 -0.4130
22313SOL    HW168707   4.788   9.554   7.829 -0.6487  1.1431  0.5885
22313SOL    HW268708   4.757   9.502   7.967 -1.0266 -0.5395 -0.1121
22314SOL     OW68709   5.827   3.064   1.604  0.0391  0.0885 -0.5653
22314SOL    HW168710   5.745   3.017   1.587 -0.1876  0.2265  0.0979
22314SOL    HW268711   5.843   3.113   1.523 -1.4685  1.4037 -0.1451
22315SOL     OW68712   9.552   4.022   2.874 -0.2842 -0.2993  0.2165
22315SOL    HW168713   9.610   4.089   2.910  1.3311 -1.3448 -0.3439
22315SOL    HW268714   9.567   3.945   2.928  0.5875 -1.2514 -1.3255
22316SOL     OW68715   8.788   3.804   6.138 -0.1538  0.6714 -0.3699
22316SOL    HW168716   8.865   3.830   6.187  1.2664 -1.4427 -1.3441
22316SOL    HW268717   8.780   3.871   6.069  1.2605  0.5115 -0.7094
22317SOL     OW68718   5.583   4.112   0.225  0.5558 -0.2763  0.1060
22317SOL    HW168719   5.590   4.043   0.159  1.2069 -0.1466  0.0285
22317SOL    HW268720   5.635   4.080   0.299  2.3991  0.8836 -0.6113
22318SOL     OW68721   6.818   1.385   5.656 -0.1997  0.6172  0.4460
22318SOL    HW168722   6.884   1.322   5.627  0.5943  1.0043  1.3656
22318SOL    HW268723   6.738   1.358   5.612  0.3475 -0.4647  0.0924
22319SOL     OW68724   7.029   7.545   0.951 -0.6187 -0.2054  0.3819
22319SOL    HW168725   7.064   7.479   1.012  0.3139  0.6565  0.8050
22319SOL    HW268726   6.992   7.612   1.008  0.8774  0.9518  0.0684
22320SOL     OW68727   7.823   9.057   6.733  0.0674  0.0166  0.0812
22320SOL    HW168728   7.794   8.983   6.680  0.0053  0.8028 -1.0163
22320SOL    HW268729   7.885   9.104   6.676  1.3907 -0.0957  1.3559
22321SOL     OW68730   6.103   3.827   7.921 -0.5725 -0.3457  0.0711
22321SOL    HW168731   6.188   3.787   7.934 -0.8353 -0.8216  0.3355
22321SOL    HW268732   6.111   3.914   7.960  0.6646  0.7208 -2.3221
22322SOL     OW68733   0.237   8.164   1.283  0.7866  0.8794 -1.0314
22322SOL    HW168734   0.250   8.069   1.290  1.2598  1.0399  1.4218
22322SOL    HW268735   0.319   8.201   1.317 -0.5969  2.0741  1.3076
22323SOL     OW68736   8.624   9.052   7.394  0.0709 -0.3972  0.4920
22323SOL    HW168737   8.558   9.107   7.436 -1.1232 -1.5143  0.1710
22323SOL    HW268738   8.699   9.109   7.380  0.8287 -0.0394  4.6612
22324SOL     OW68739   3.871   1.262   8.882 -0.1873 -0.0475 -0.1633
22324SOL    HW168740   3.954   1.306   8.866 -0.4923 -0.0170 -1.7658
22324SOL    HW268741   3.805   1.322   8.848 -0.6024 -1.6879 -2.4347
22325SOL     OW68742   3.660   8.604   2.214  0.2432  0.1547 -0.3107
22325SOL    HW168743   3.670   8.690   2.171  0.8420 -0.4745 -1.4862
22325SOL    HW268744   3.748   8.583   2.245  0.2387 -0.3295 -0.6224
22326SOL     OW68745   9.143   7.719   1.644  0.1690 -0.2162  0.0635
22326SOL    HW168746   9.178   7.731   1.732 -0.3015 -1.7230  0.4911
22326SOL    HW268747   9.049   7.733   1.653  0.4559  2.9065 -0.9004
22327SOL     OW68748   9.610   3.930   8.602 -0.4290 -0.0345 -0.4185
22327SOL    HW168749   9.625   3.836   8.598 -0.2892 -0.0225 -0.1764
22327SOL    HW268750   9.588   3.948   8.693 -0.7258  0.1290 -0.5188
22328SOL     OW68751   4.496   3.905   3.829 -0.2667 -0.2803 -0.1972
22328SOL    HW168752   4.504   3.999   3.847  0.2526 -0.6798  1.9243
22328SOL    HW268753   4.493   3.899   3.734  2.6735  1.7018 -0.5549
22329SOL     OW68754   2.862   3.425   1.949  0.5083 -0.0513  0.7106
22329SOL    HW168755   2.782   3.397   1.993  0.9917  2.2239  3.2991
22329SOL    HW268756   2.860   3.381   1.864 -3.9111  0.6140  0.2583
22330SOL     OW68757   2.132   7.485   2.841  0.4096  0.3417  0.1803
22330SOL    HW168758   2.109   7.572   2.873  1.0343  0.9805 -1.0495
22330SOL    HW268759   2.205   7.458   2.897 -1.4559 -0.5793  2.3490
22331SOL     OW68760   1.698   4.154   1.204  0.1702  0.1680  0.4234
22331SOL    HW168761   1.747   4.169   1.285 -0.3300  3.8983  0.1815
22331SOL    HW268762   1.752   4.193   1.136 -0.3406 -1.1791 -0.8063
22332SOL     OW68763   7.104   5.452   3.650 -0.0129  0.1192 -0.2404
22332SOL    HW168764   7.160   5.509   3.597 -0.4009 -0.2389 -1.0484
22332SOL    HW268765   7.164   5.395   3.697  0.3815  1.1727  0.5594
22333SOL     OW68766   3.734   0.987   6.569 -0.5973  0.5523 -0.1465
22333SOL    HW168767   3.779   0.962   6.487  0.4145 -1.2259  0.8820
22333SOL    HW268768   3.643   1.001   6.543 -0.5660 -1.2209 -1.4105
22334SOL     OW68769   2.154   2.562   0.890  0.5117 -0.1604 -0.1335
22334SOL    HW168770   2.104   2.488   0.854  0.3126  0.7320 -1.8407
22334SOL    HW268771   2.169   2.540   0.981  0.9248 -2.5519 -0.7259
22335SOL     OW68772   6.149   5.399   0.525  0.0999 -0.0195 -0.0599
22335SOL    HW168773   6.203   5.474   0.549  0.9696 -0.6730  0.0843
22335SOL    HW268774   6.210   5.337   0.485 -0.8261 -0.1548 -1.3000
22336SOL     OW68775   1.599   2.746   1.837  0.6041  0.2757  0.4672
22336SOL    HW168776   1.643   2.825   1.805  0.1500  1.3295  2.2810
22336SOL    HW268777   1.592   2.760   1.931 -1.2880 -1.0280  0.5705
22337SOL     OW68778   9.431   0.051   8.149 -0.0107 -0.4174  0.0601
22337SOL    HW168779   9.393   0.108   8.082  0.4723 -0.0453  0.0929
22337SOL    HW268780   9.449  -0.031   8.104 -2.5571 -1.2848  0.4671
22338SOL     OW68781   2.350   8.775   8.558  0.1733  0.1545  0.2492
22338SOL    HW168782   2.344   8.712   8.486 -0.3955  0.9246 -0.4077
22338SOL    HW268783   2.259   8.786   8.587  0.4177 -0.2572  1.1856
22339SOL     OW68784   2.898   8.769   3.468  0.3563  0.1447 -0.2988
22339SOL    HW168785   2.992   8.753   3.470  0.1582 -1.0812  0.1889
22339SOL    HW268786   2.866   8.716   3.395  0.0602  0.6273 -0.5188
22340SOL     OW68787   1.218   1.761   7.329 -0.1346  0.3654 -0.1173
22340SOL    HW168788   1.210   1.733   7.420  0.0901  0.5692 -0.0369
22340SOL    HW268789   1.312   1.763   7.312 -0.1395 -2.8114 -1.3185
22341SOL     OW68790   2.992   9.265   6.701 -0.3204  0.3222  0.3791
22341SOL    HW168791   3.050   9.191   6.720  0.2494  0.6382 -0.0987
22341SOL    HW268792   3.050   9.341   6.700 -0.7073  0.6175 -0.3313
22342SOL     OW68793   8.485   9.348   1.319 -0.2942 -0.3635  0.1974
22342SOL    HW168794   8.516   9.353   1.228  2.0992  2.0349  1.0135
22342SOL    HW268795   8.415   9.412   1.324 -1.6341 -1.7265 -0.2905
22343SOL     OW68796   3.803   5.265   6.933  0.2127  0.0674  0.1964
22343SOL    HW168797   3.760   5.191   6.977 -0.4942  0.2204 -0.2263
22343SOL    HW268798   3.742   5.291   6.865 -0.1141  1.8194  1.0961
22344SOL     OW68799   4.375   1.716   2.012  0.2568 -0.2783  0.2301
22344SOL    HW168800   4.462   1.702   1.975 -0.2282 -1.7299 -0.4267
22344SOL    HW268801   4.322   1.644   1.978 -1.2427  0.6378  0.5090
22345SOL     OW68802   1.314   1.509   2.902  0.0825  0.1876 -0.1869
22345SOL    HW168803   1.320   1.599   2.934  1.8541 -0.0889  0.3366
22345SOL    HW268804   1.399   1.471   2.922  0.1005 -0.9891 -2.2645
22346SOL     OW68805   2.640   1.011   2.066  0.5275  0.1672  0.6210
22346SOL    HW168806   2.547   0.989   2.057  0.6789 -0.0358 -0.6355
22346SOL    HW268807   2.671   0.957   2.139  0.0736 -1.1520 -0.1244
22347SOL     OW68808   3.776   8.895   1.107  0.5506  0.0339  0.3190
22347SOL    HW168809   3.795   8.978   1.064 -0.7917  0.7111  0.9646
22347SOL    HW268810   3.753   8.919   1.197 -0.0072 -1.0032  0.4714
22348SOL     OW68811   8.707   3.129   4.642  0.1285 -0.1585 -0.3908
22348SOL    HW168812   8.633   3.176   4.681 -0.0577 -0.0545 -0.8602
22348SOL    HW268813   8.722   3.055   4.702 -0.4059 -0.2262 -0.3281
22349SOL     OW68814   0.877   8.000   9.688  0.2647 -0.0278  0.0087
22349SOL    HW168815   0.956   8.037   9.728  0.7128 -0.6855 -0.2647
22349SOL    HW268816   0.906   7.968   9.602 -0.3281 -0.1614 -0.1461
22350SOL     OW68817   3.032   6.947   8.915  0.1858 -0.4556  0.5444
22350SOL    HW168818   2.998   6.929   8.827 -0.1961 -0.0382  0.5986
22350SOL    HW268819   2.956   6.935   8.973  0.7718 -2.2079  1.0129
22351SOL     OW68820   1.016   1.457   4.886 -0.4939 -0.4248  0.3497
22351SOL    HW168821   1.031   1.511   4.809 -1.3222 -0.9007 -0.1668
22351SOL    HW268822   0.980   1.375   4.851  3.6308 -2.7035  0.7542
22352SOL     OW68823   7.905   9.257   8.586 -0.1981  0.5936  0.7884
22352SOL    HW168824   7.971   9.271   8.518 -2.2024  0.8142 -1.2167
22352SOL    HW268825   7.935   9.179   8.633  1.3044  0.5080 -0.2363
22353SOL     OW68826   8.103   7.088   6.335  0.4352  0.3031  0.1359
22353SOL    HW168827   8.120   7.125   6.249  3.0701  1.3452  1.0151
22353SOL    HW268828   8.091   7.164   6.392 -1.9414 -0.3629  0.6684
22354SOL     OW68829   3.324   8.430   0.673  0.3786  0.0705 -0.6718
22354SOL    HW168830   3.299   8.340   0.694  0.4611  0.1038 -0.4263
22354SOL    HW268831   3.242   8.473   0.649 -0.3354  0.9168  2.7383
22355SOL     OW68832   8.537   7.975   7.579 -0.0312  0.1026 -0.3283
22355SOL    HW168833   8.449   7.950   7.548 -0.2502 -0.4522  0.6929
22355SOL    HW268834   8.528   7.979   7.674  0.9398  0.5136 -0.2472
22356SOL     OW68835   4.650   7.264   6.078 -0.3281 -0.1974  0.2078
22356SOL    HW168836   4.647   7.182   6.128  0.9613 -0.7656 -0.5869
22356SOL    HW268837   4.568   7.265   6.029 -0.7466 -0.5780  0.8835
22357SOL     OW68838   6.405   9.432   6.539  0.3926  0.1012  0.6412
22357SOL    HW168839   6.434   9.458   6.626  0.1314 -0.5128  0.9182
22357SOL    HW268840   6.405   9.336   6.541  0.8071  0.0729 -0.1756
22358SOL     OW68841   4.536   1.347   3.933 -0.0608 -0.3000 -0.5896
22358SOL    HW168842   4.629   1.369   3.945 -0.3572  0.8284 -0.2907
22358SOL    HW268843   4.513   1.300   4.014  0.5635 -1.7795 -1.2224
22359SOL     OW68844   6.856   5.922   3.480  0.3693  0.6628 -0.1923
22359SOL    HW168845   6.794   5.966   3.422 -0.7794 -0.7556 -0.0788
22359SOL    HW268846   6.908   5.866   3.423 -0.0527  0.0684 -0.0056
22360SOL     OW68847   4.752   9.804   2.921  0.4080  0.7579  0.3671
22360SOL    HW168848   4.799   9.738   2.870  1.3150  0.6654  1.2967
22360SOL    HW268849   4.671   9.761   2.948 -0.3017  0.9597 -1.3508
22361SOL     OW68850   4.926   9.676   1.362  0.2169  0.3516 -0.2752
22361SOL    HW168851   4.884   9.759   1.382  1.6174  0.7106  1.4276
22361SOL    HW268852   4.900   9.618   1.434  1.9312  0.3647  0.4115
22362SOL     OW68853   3.939   2.585   9.400 -0.2259 -0.4057 -0.0522
22362SOL    HW168854   3.997   2.563   9.474  0.1606  0.5000 -0.0685
22362SOL    HW268855   3.895   2.503   9.379 -1.2678 -0.4414  1.9879
22363SOL     OW68856   4.437   2.573   5.758 -0.0451  0.4548 -0.5222
22363SOL    HW168857   4.442   2.622   5.676  0.0123  0.7807 -0.3265
22363SOL    HW268858   4.372   2.621   5.811 -0.4059 -0.0024 -0.5458
22364SOL     OW68859   8.043   7.453   5.111 -0.3410 -0.4032 -0.3935
22364SOL    HW168860   7.948   7.462   5.112 -0.3734 -0.7280 -0.5213
22364SOL    HW268861   8.070   7.496   5.030 -0.1584  1.7544  0.7236
22365SOL     OW68862   2.121   0.639   9.260 -0.1913 -0.5545  0.0950
22365SOL    HW168863   2.215   0.657   9.266 -0.4593  0.9773 -0.0164
22365SOL    HW268864   2.093   0.683   9.180 -1.0119 -1.0147  0.1174
22366SOL     OW68865   7.102   9.527   5.304 -1.2379 -0.1116  0.2139
22366SOL    HW168866   7.019   9.519   5.256 -0.7194  0.1915 -0.7622
22366SOL    HW268867   7.126   9.619   5.294 -0.8593 -0.1645  0.6255
22367SOL     OW68868   1.473   6.058   8.346  0.2705 -0.0097  0.1748
22367SOL    HW168869   1.517   5.990   8.397  0.0097 -0.7090 -0.5070
22367SOL    HW268870   1.408   6.010   8.294  1.1025  0.5559 -1.4633
22368SOL     OW68871   0.210   2.994   3.625  0.3440 -0.2588 -0.2323
22368SOL    HW168872   0.252   2.916   3.661  1.5284  0.8946  0.9995
22368SOL    HW268873   0.126   2.999   3.670 -0.6783 -1.8745 -1.7866
22369SOL     OW68874   0.466   7.784   2.952  0.6633  0.1887  0.7898
22369SOL    HW168875   0.380   7.749   2.974 -0.4340  1.7492 -0.7830
22369SOL    HW268876   0.516   7.777   3.034 -0.1804 -2.7962  1.1803
22370SOL     OW68877   7.116   1.323   2.605 -0.1349  0.2555  0.5864
22370SOL    HW168878   7.138   1.231   2.594  1.1862  0.6845 -0.5549
22370SOL    HW268879   7.141   1.343   2.696 -0.6285 -0.5469  0.9042
22371SOL     OW68880   2.102   3.758   6.544 -0.3921 -0.1966  0.3093
22371SOL    HW168881   2.171   3.802   6.494 -0.9438  0.0616 -0.2327
22371SOL    HW268882   2.029   3.752   6.484 -1.3874  0.9119  1.3476
22372SOL     OW68883   6.664   9.736   1.664 -0.5587 -0.2437 -0.1758
22372SOL    HW168884   6.629   9.708   1.748  0.0993  0.9378  0.5118
22372SOL    HW268885   6.661   9.832   1.667 -0.4133 -0.1792 -1.4505
22373SOL     OW68886   4.957   5.249   1.534  0.4563 -0.2343 -0.2750
22373SOL    HW168887   4.886   5.311   1.548  2.0105  1.4177  0.6969
22373SOL    HW268888   4.958   5.234   1.439 -0.3839  0.6841 -0.4436
22374SOL     OW68889   3.385   2.592   2.763  0.2100  0.0210 -0.3147
22374SOL    HW168890   3.393   2.516   2.706 -0.0123 -1.1899  1.1965
22374SOL    HW268891   3.294   2.591   2.792  0.3658  0.4881  0.2157
22375SOL     OW68892   3.608   1.245   0.166  0.0629  0.0095  0.4855
22375SOL    HW168893   3.600   1.306   0.093 -0.1994  0.2328  0.6956
22375SOL    HW268894   3.666   1.289   0.228  1.7030 -0.9260 -0.3355
22376SOL     OW68895   3.816   3.353   9.523  0.3900  0.9498  0.0782
22376SOL    HW168896   3.773   3.293   9.463  0.3110 -1.8292  2.6526
22376SOL    HW268897   3.873   3.406   9.468 -2.3921  1.2299 -2.7989
22377SOL     OW68898   1.021   8.953   3.292 -0.1081  0.4079 -0.1811
22377SOL    HW168899   1.042   8.992   3.377 -0.6542 -0.2995  0.2873
22377SOL    HW268900   1.106   8.926   3.257  0.0737  0.2557  0.3652
22378SOL     OW68901   3.560   6.041   3.837  0.3204  0.6940  0.3644
22378SOL    HW168902   3.600   6.128   3.841 -1.0142  1.2888  1.5157
22378SOL    HW268903   3.471   6.055   3.868  0.8837 -1.5921  3.4288
22379SOL     OW68904   6.024   6.545   1.698 -0.6376  0.0656  0.7508
22379SOL    HW168905   6.113   6.547   1.734  0.0059 -1.9868 -0.5465
22379SOL    HW268906   5.974   6.493   1.762 -0.3408 -0.6563  0.4076
22380SOL     OW68907   5.103   8.405   0.439  0.2126  0.0231 -0.8110
22380SOL    HW168908   5.124   8.428   0.349 -2.4700  2.0977 -1.0345
22380SOL    HW268909   5.161   8.461   0.492 -0.0838  0.8116 -1.2992
22381SOL     OW68910   6.617   9.313   3.104  0.0328  0.1307 -0.4010
22381SOL    HW168911   6.656   9.340   3.021 -3.1788  2.0309 -1.4621
22381SOL    HW268912   6.528   9.287   3.082 -0.5984 -0.3773  2.3156
22382SOL     OW68913   5.987   7.363   5.175 -0.0777  0.3071  0.4037
22382SOL    HW168914   5.905   7.317   5.153 -0.4012  0.6671  0.8528
22382SOL    HW268915   6.035   7.367   5.092  0.5309 -1.9542  0.5754
22383SOL     OW68916   1.412   1.594   8.945  0.3034  0.2485 -0.3340
22383SOL    HW168917   1.448   1.508   8.924 -0.1856 -0.2728  0.8957
22383SOL    HW268918   1.468   1.626   9.016  0.3141  0.8441 -0.6013
22384SOL     OW68919   7.077   1.718   8.543 -0.1426 -0.1667 -0.0356
22384SOL    HW168920   7.037   1.676   8.619 -2.3105 -1.4715 -1.7731
22384SOL    HW268921   7.008   1.775   8.508 -0.0680 -1.3657 -2.3023
22385SOL     OW68922   7.082   2.267   8.104  0.1801 -0.2363  0.3458
22385SOL    HW168923   7.076   2.202   8.175  0.2310 -2.0588 -1.2314
22385SOL    HW268924   7.157   2.239   8.052 -0.0170  0.8906 -0.5897
22386SOL     OW68925   6.437   0.621   4.424 -0.2276 -0.1990  0.6847
22386SOL    HW168926   6.372   0.553   4.442 -1.6410  0.7738 -0.4628
22386SOL    HW268927   6.418   0.690   4.488  1.2214 -0.8520  1.8691
22387SOL     OW68928   7.368   2.642   0.362  0.1151 -0.4224 -0.0254
22387SOL    HW168929   7.326   2.637   0.276 -1.8594  1.1483  0.7835
22387SOL    HW268930   7.315   2.586   0.418  1.2552 -1.2478  0.2863
22388SOL     OW68931   8.029   5.842   3.322 -0.5339 -0.5839 -0.7969
22388SOL    HW168932   7.966   5.913   3.307 -0.6174 -0.7118 -1.0730
22388SOL    HW268933   8.108   5.871   3.277 -0.8027 -0.9965 -1.5566
22389SOL     OW68934   1.879   0.572   1.908 -0.6324 -0.1003  0.0346
22389SOL    HW168935   1.844   0.609   1.826  0.6922 -0.1470 -0.5816
22389SOL    HW268936   1.956   0.627   1.927 -0.7665 -0.2703  1.1057
22390SOL     OW68937   3.468   0.966   3.926 -0.0229 -0.3156  0.0275
22390SOL    HW168938   3.545   0.930   3.971  0.6970  0.1099 -0.8500
22390SOL    HW268939   3.503   1.012   3.851 -1.0865  0.5711  0.0512
22391SOL     OW68940   0.308   3.398   9.610  0.3091  0.2697  0.4867
22391SOL    HW168941   0.217   3.405   9.580  0.4027 -3.0278 -0.9872
22391SOL    HW268942   0.345   3.485   9.594 -1.9952  1.1016 -0.8896
22392SOL     OW68943   1.820   8.471   7.238  0.2099 -0.1733 -0.1264
22392SOL    HW168944   1.815   8.427   7.323 -1.5321  2.1076  1.0840
22392SOL    HW268945   1.899   8.525   7.244 -0.1427  0.3141  0.2553
22393SOL     OW68946   9.561   9.366   4.326 -0.2349  0.4569 -0.3865
22393SOL    HW168947   9.499   9.294   4.337 -0.2525  0.6513  1.0242
22393SOL    HW268948   9.520   9.424   4.263 -1.5392  0.6235  0.5900
22394SOL     OW68949   0.531   6.567   3.069  0.3414  0.5029 -0.0101
22394SOL    HW168950   0.614   6.604   3.099 -0.0216  1.6828 -0.3805
22394SOL    HW268951   0.523   6.598   2.979 -0.1192 -0.2896 -0.2498
22395SOL     OW68952   9.077   5.961   7.967  0.8205  0.2737  0.2841
22395SOL    HW168953   9.047   5.944   8.056 -0.8246 -0.0384 -0.2886
22395SOL    HW268954   9.147   5.896   7.952 -1.3164 -2.1671  0.1661
22396SOL     OW68955   7.769   2.350   7.382  0.4496 -0.0535  0.8462
22396SOL    HW168956   7.803   2.358   7.293  1.5231  2.2500  1.3905
22396SOL    HW268957   7.690   2.405   7.382 -0.0240 -0.7242  1.1054
22397SOL     OW68958   9.163   1.332   2.439  0.3695  0.0229 -0.7400
22397SOL    HW168959   9.214   1.251   2.452  0.3041  0.1908  0.6534
22397SOL    HW268960   9.074   1.302   2.424  0.5504 -0.1972 -1.4517
22398SOL     OW68961   0.539   8.595   7.480 -0.7807  0.6703  0.3385
22398SOL    HW168962   0.538   8.623   7.571 -2.0027  1.2407  0.1617
22398SOL    HW268963   0.463   8.538   7.471  0.3890 -0.9350  0.1254
22399SOL     OW68964   0.163   6.664   2.571  0.2431  0.1232 -0.0220
22399SOL    HW168965   0.119   6.748   2.559  2.0015  1.1416  0.3122
22399SOL    HW268966   0.204   6.670   2.657  0.8523 -0.8490 -0.2242
22400SOL     OW68967   7.731   5.788   2.303 -0.2255 -0.1183 -0.1086
22400SOL    HW168968   7.703   5.697   2.305 -0.5363 -0.0577 -1.1500
22400SOL    HW268969   7.678   5.829   2.235  0.2409  0.7308  0.0102
22401SOL     OW68970   7.724   3.555   4.674 -0.3831  0.4656 -0.7457
22401SOL    HW168971   7.722   3.623   4.742 -1.2878 -2.2450  2.2137
22401SOL    HW268972   7.816   3.546   4.651 -0.0861  1.6443 -0.1012
22402SOL     OW68973   1.145   0.714   5.443 -0.5210 -0.1632  0.0332
22402SOL    HW168974   1.146   0.728   5.538 -0.4891  0.4199 -0.0500
22402SOL    HW268975   1.088   0.638   5.431  2.2644 -2.5714  0.8191
22403SOL     OW68976   1.490   5.872   2.515  0.5004 -0.3359 -0.2693
22403SOL    HW168977   1.516   5.783   2.541  2.2822 -0.0072 -0.7442
22403SOL    HW268978   1.403   5.884   2.552  1.6814 -0.9189  3.0773
22404SOL     OW68979   2.591   1.247   9.130 -0.4030  0.0095 -0.5518
22404SOL    HW168980   2.617   1.165   9.088  1.1473  0.2589 -0.1590
22404SOL    HW268981   2.645   1.314   9.087 -1.6327  0.8341 -0.8580
22405SOL     OW68982   3.582   7.322   4.071 -0.7087 -0.1948 -0.1481
22405SOL    HW168983   3.652   7.259   4.058 -1.7943 -0.9803 -2.8712
22405SOL    HW268984   3.624   7.395   4.118  1.2174 -1.7516  0.6877
22406SOL     OW68985   5.048   5.261   4.098 -0.1405  0.3775  0.2436
22406SOL    HW168986   5.101   5.276   4.176 -2.7407  2.2224  1.8084
22406SOL    HW268987   5.088   5.315   4.031  2.6433 -1.8730 -0.1020
22407SOL     OW68988   2.674   4.264   5.664 -0.2107 -0.2020  0.0626
22407SOL    HW168989   2.670   4.346   5.615  0.9929 -0.1633 -0.0043
22407SOL    HW268990   2.765   4.257   5.691 -0.3925 -1.3071  0.4402
22408SOL     OW68991   1.953   2.635   3.949  0.0219 -0.1425 -0.5132
22408SOL    HW168992   1.991   2.698   4.010 -1.0567  0.6816 -0.6657
22408SOL    HW268993   1.933   2.686   3.871 -1.6558 -0.4753 -0.3265
22409SOL     OW68994   8.187   5.886   2.244  0.3602 -0.2048 -0.2262
22409SOL    HW168995   8.171   5.797   2.275 -0.3682 -0.3297 -0.9176
22409SOL    HW268996   8.122   5.939   2.290  0.8773  0.0018  0.2818
22410SOL     OW68997   6.827   8.737   0.524  0.1751  0.0907  0.2482
22410SOL    HW168998   6.852   8.663   0.579 -1.2901 -0.0447  0.7716
22410SOL    HW268999   6.858   8.714   0.436  1.0806 -0.4362  0.6970
22411SOL     OW69000   7.120   4.078   4.003 -0.0801  0.0475 -0.5147
22411SOL    HW169001   7.214   4.069   4.014 -0.1431 -0.6487 -0.4757
22411SOL    HW269002   7.107   4.076   3.908 -0.0461  0.2193 -0.5221
22412SOL     OW69003   3.952   4.047   7.931 -0.1619 -0.1229 -0.2694
22412SOL    HW169004   3.914   4.116   7.876  2.5572  1.6446 -0.1358
22412SOL    HW269005   3.962   4.088   8.017  0.4588 -1.0748  0.1336
22413SOL     OW69006   7.729   6.987   8.687 -0.3383 -0.1394  0.6471
22413SOL    HW169007   7.734   7.073   8.644 -0.5131  0.7622  2.3179
22413SOL    HW269008   7.666   6.938   8.635 -0.6940  0.9702 -0.0127
22414SOL     OW69009   7.420   5.126   9.372  0.1992 -0.1906 -0.3582
22414SOL    HW169010   7.510   5.122   9.340 -0.4581 -0.8862 -2.2302
22414SOL    HW269011   7.375   5.055   9.327 -1.5451  0.8302 -0.3303
22415SOL     OW69012   0.388   3.507   2.557 -0.4217  0.7398  0.1240
22415SOL    HW169013   0.366   3.600   2.556 -0.4284  0.7372 -0.3917
22415SOL    HW269014   0.424   3.490   2.470 -1.5609 -0.0124 -0.2265
22416SOL     OW69015   2.419   0.452   7.280 -0.1299  0.6146  0.3746
22416SOL    HW169016   2.370   0.532   7.300 -0.6390 -0.0593  1.9135
22416SOL    HW269017   2.466   0.432   7.360  0.3421 -0.4050 -0.1371
22417SOL     OW69018   5.079   0.087   4.392  0.7153 -0.3233  0.3559
22417SOL    HW169019   5.013   0.144   4.431  1.8283 -0.9397  3.4055
22417SOL    HW269020   5.157   0.099   4.446  2.3838 -1.4224 -1.6439
22418SOL     OW69021   5.959   8.888   4.159 -0.4058 -0.4536 -0.0920
22418SOL    HW169022   5.923   8.906   4.246  0.7588  0.1268  0.2951
22418SOL    HW269023   6.043   8.846   4.176 -0.7605 -1.5766 -0.9688
22419SOL     OW69024   4.260   7.681   0.292  0.7853 -0.6559 -0.6644
22419SOL    HW169025   4.194   7.699   0.224  0.7680  0.0088 -0.4801
22419SOL    HW269026   4.255   7.587   0.306 -0.5978 -0.5246 -0.1800
22420SOL     OW69027   7.326   5.028   8.711 -0.8325 -0.1811  0.1508
22420SOL    HW169028   7.346   4.939   8.681 -0.3204  0.4935 -1.6969
22420SOL    HW269029   7.410   5.073   8.709 -0.7403 -0.0664  2.8467
22421SOL     OW69030   3.238   0.309   4.518  0.3487  0.1325  0.4119
22421SOL    HW169031   3.281   0.331   4.435 -0.7443  1.1218  0.0833
22421SOL    HW269032   3.304   0.327   4.585  0.4248  1.7677 -0.0736
22422SOL     OW69033   1.076   5.204   2.317 -0.1582  0.1690  0.0619
22422SOL    HW169034   0.984   5.183   2.299 -0.2431 -0.3010  0.9588
22422SOL    HW269035   1.099   5.270   2.252 -1.6655  1.6450  0.9570
22423SOL     OW69036   5.980   2.711   6.448 -0.0022  0.0010 -0.0228
22423SOL    HW169037   6.038   2.644   6.411 -1.8711 -0.9456 -1.4628
22423SOL    HW269038   6.038   2.769   6.497  2.0130 -1.3667 -0.6419
22424SOL     OW69039   2.482   7.744   7.959  0.1579 -0.2312 -0.6045
22424SOL    HW169040   2.452   7.655   7.976 -1.4196  0.4438  0.3960
22424SOL    HW269041   2.419   7.779   7.896 -1.3261  1.2202  1.5376
22425SOL     OW69042   6.112   0.152   8.912  0.1585 -0.0581  0.1034
22425SOL    HW169043   6.090   0.244   8.930  0.6901 -0.3421  2.5998
22425SOL    HW269044   6.198   0.140   8.953  1.2858 -1.0747 -2.3505
22426SOL     OW69045   6.930   7.116   7.694 -0.2858 -0.1573 -0.5180
22426SOL    HW169046   6.988   7.159   7.632 -0.0336 -0.8900 -0.8039
22426SOL    HW269047   6.854   7.090   7.643  1.1167 -3.3108 -1.2726
22427SOL     OW69048   1.647   0.574   7.071  0.0310  0.3979 -0.2259
22427SOL    HW169049   1.711   0.541   7.009  2.1069  2.2324  0.8272
22427SOL    HW269050   1.626   0.662   7.041 -2.0633 -0.1436 -0.5309
22428SOL     OW69051   5.344   7.872   9.758  0.1902  0.1486 -0.1746
22428SOL    HW169052   5.363   7.806   9.824  2.8260  0.7997 -0.1784
22428SOL    HW269053   5.411   7.859   9.691 -0.0542  1.9711 -0.8286
22429SOL     OW69054   4.297   8.498   1.824  0.2698 -0.3916  0.3829
22429SOL    HW169055   4.243   8.458   1.892  0.7296  0.7540  1.4598
22429SOL    HW269056   4.367   8.543   1.872  0.2830  0.9313 -0.7946
22430SOL     OW69057   3.979   2.176   1.245 -0.2103 -0.0908 -0.2394
22430SOL    HW169058   4.017   2.091   1.224 -0.2548 -0.4358  1.0127
22430SOL    HW269059   3.891   2.155   1.276 -0.2193  0.4057  0.0731
22431SOL     OW69060   9.076   7.999   0.030 -0.5742  0.0357  0.4314
22431SOL    HW169061   9.152   7.945   0.053  1.2062  2.1024 -0.2085
22431SOL    HW269062   9.114   8.081   0.000 -3.0554  0.6409 -1.3639
22432SOL     OW69063   5.475   3.317   2.584  0.3121  0.0952 -0.0217
22432SOL    HW169064   5.395   3.357   2.549 -0.1493  0.0440  0.9289
22432SOL    HW269065   5.521   3.388   2.628  0.7323  0.0946 -0.4510
22433SOL     OW69066   3.682   8.465   1.976  0.0721  0.3681  0.2948
22433SOL    HW169067   3.697   8.370   1.976 -2.7885 -0.1590 -0.2802
22433SOL    HW269068   3.689   8.490   2.069 -1.6060 -0.8883  0.8043
22434SOL     OW69069   0.254   8.414   3.320 -0.1081  0.4692 -0.6500
22434SOL    HW169070   0.203   8.356   3.377 -1.2505  0.5645 -1.5337
22434SOL    HW269071   0.303   8.470   3.380  0.6415 -1.0631  0.2233
22435SOL     OW69072   2.081   4.931   7.819  0.5481  0.2333  0.4785
22435SOL    HW169073   2.157   4.990   7.814  0.0096  1.1217  2.0383
22435SOL    HW269074   2.102   4.872   7.891  0.6946 -0.9578 -0.5133
22436SOL     OW69075   7.501   2.271   8.111  0.0045  0.5780 -0.5225
22436SOL    HW169076   7.484   2.304   8.199  1.7707 -0.4308  0.2634
22436SOL    HW269077   7.597   2.273   8.103  0.0952 -2.2765 -1.1889
22437SOL     OW69078   4.313   4.560   1.963 -0.2425 -0.0254 -0.3482
22437SOL    HW169079   4.248   4.501   1.926 -1.2392 -0.9490  2.5445
22437SOL    HW269080   4.289   4.566   2.056  2.0879  1.9544  0.2277
22438SOL     OW69081   4.753   6.428   4.299 -0.1292  0.0392  0.6300
22438SOL    HW169082   4.842   6.454   4.277  0.1882 -0.7028  0.9979
22438SOL    HW269083   4.739   6.347   4.250 -0.8883  0.5584 -0.0400
22439SOL     OW69084   2.631   6.080   2.791 -0.8179  0.2417  0.5280
22439SOL    HW169085   2.660   6.157   2.839 -1.3192  0.4711  0.4596
22439SOL    HW269086   2.708   6.023   2.790 -0.2697  0.9708  0.0972
22440SOL     OW69087   4.133   0.571   3.224  0.3067  0.1033  0.2951
22440SOL    HW169088   4.130   0.654   3.176  2.0360  0.6219  1.0092
22440SOL    HW269089   4.096   0.592   3.310  0.1182 -0.0506  0.2536
22441SOL     OW69090   9.398   3.887   2.447  0.1050 -0.3125  0.2167
22441SOL    HW169091   9.419   3.794   2.449  0.4459 -0.2811  3.4048
22441SOL    HW269092   9.469   3.929   2.495  1.0760  1.9657 -2.9065
22442SOL     OW69093   2.114   8.337   2.346 -0.0346 -0.7197  0.8057
22442SOL    HW169094   2.178   8.298   2.405  0.1253 -0.1115  1.0386
22442SOL    HW269095   2.149   8.319   2.258  0.6306 -0.1043  0.9355
22443SOL     OW69096   3.478   5.517   4.378  0.1214  0.0249 -0.0718
22443SOL    HW169097   3.470   5.546   4.287  2.4437  1.3166  0.0789
22443SOL    HW269098   3.391   5.532   4.415 -0.1635  2.0193 -1.3844
22444SOL     OW69099   7.433   0.396   3.474 -0.1217  0.4478  0.0805
22444SOL    HW169100   7.467   0.307   3.481 -0.8844  0.0978 -0.5100
22444SOL    HW269101   7.368   0.401   3.545  0.5993  0.8679  0.7308
22445SOL     OW69102   0.886   4.548   4.649  0.3200 -0.1091 -0.1760
22445SOL    HW169103   0.891   4.473   4.708  1.0107 -0.5237 -0.7367
22445SOL    HW269104   0.912   4.623   4.702 -0.9368 -0.1548  0.5493
22446SOL     OW69105   7.937   3.881   2.200  0.5578  0.2475 -0.2877
22446SOL    HW169106   7.967   3.840   2.119 -0.4754 -1.4789  0.1522
22446SOL    HW269107   7.845   3.856   2.207  1.2053 -1.8330  2.6294
22447SOL     OW69108   1.114   6.085   8.474 -0.0053  0.2321 -0.6997
22447SOL    HW169109   1.031   6.058   8.513  0.0331  1.6591  0.4499
22447SOL    HW269110   1.104   6.179   8.457  1.3343  0.4154 -0.6071
22448SOL     OW69111   5.223   3.787   1.647 -0.0917 -0.0356 -0.1727
22448SOL    HW169112   5.151   3.799   1.709 -0.0306 -1.1893  0.1376
22448SOL    HW269113   5.290   3.739   1.697  0.5109  0.1991 -0.7403
22449SOL     OW69114   8.217   1.788   1.775 -0.4584 -0.1952 -0.3536
22449SOL    HW169115   8.144   1.736   1.808 -0.5567 -0.6824 -1.3118
22449SOL    HW269116   8.242   1.745   1.693  0.6385  0.2081 -0.2449
22450SOL     OW69117   4.853   2.489   8.925  0.3654  0.7250 -0.1004
22450SOL    HW169118   4.762   2.505   8.951 -0.5751 -2.6111 -0.9381
22450SOL    HW269119   4.851   2.494   8.829  0.3771 -2.0274 -0.3080
22451SOL     OW69120   8.915   6.667   7.291  0.0687  0.0562  0.1267
22451SOL    HW169121   8.956   6.581   7.299  0.0364  0.0340  0.0511
22451SOL    HW269122   8.833   6.650   7.244 -0.2203  0.0354  0.6233
22452SOL     OW69123   2.785   0.197   5.654  0.2626  0.0405  0.3131
22452SOL    HW169124   2.743   0.270   5.699  0.1039 -0.2243  0.5994
22452SOL    HW269125   2.713   0.138   5.632  0.3725  0.0451 -0.0541
22453SOL     OW69126   1.909   3.493   8.462 -0.4607 -0.3074  0.5332
22453SOL    HW169127   1.941   3.403   8.458 -0.2635 -0.2240  0.0550
22453SOL    HW269128   1.914   3.523   8.371 -1.4539 -0.1375  0.5270
22454SOL     OW69129   1.023   0.201   7.475  0.1928 -0.1735  0.0666
22454SOL    HW169130   1.080   0.278   7.481  1.5535 -1.1130 -0.3863
22454SOL    HW269131   0.966   0.219   7.399  0.5814  0.3358 -0.1080
22455SOL     OW69132   9.283   8.768   3.896  0.0724 -0.6754 -0.1363
22455SOL    HW169133   9.236   8.792   3.816 -0.1492  0.0480  0.2082
22455SOL    HW269134   9.365   8.818   3.892  0.6180 -1.5729 -0.5040
22456SOL     OW69135   0.841   9.590   3.486 -0.5193 -0.5102  0.2480
22456SOL    HW169136   0.751   9.570   3.460 -0.0850 -1.1089 -0.8709
22456SOL    HW269137   0.841   9.684   3.502 -0.8589 -0.0571 -1.9686
22457SOL     OW69138   5.658   9.578   4.719  0.1724  0.0558  0.3428
22457SOL    HW169139   5.628   9.546   4.804  0.6567 -1.0983  0.0871
22457SOL    HW269140   5.657   9.502   4.662 -0.7103  0.9276 -0.8676
22458SOL     OW69141   7.140   7.123   4.328  0.3233  0.2141 -0.0436
22458SOL    HW169142   7.198   7.077   4.388 -0.9611 -1.6656 -0.1582
22458SOL    HW269143   7.199   7.169   4.268  1.6482 -0.4517  0.7102
22459SOL     OW69144   0.161   0.539   5.380  0.5032  0.2522  0.1333
22459SOL    HW169145   0.096   0.595   5.424 -0.5627 -0.3927 -0.5621
22459SOL    HW269146   0.115   0.505   5.303  1.5060 -0.6630 -0.0865
22460SOL     OW69147   6.482   8.238   3.890 -0.4609 -0.0493  0.2780
22460SOL    HW169148   6.572   8.214   3.867  0.3675  1.9894  1.2226
22460SOL    HW269149   6.435   8.233   3.807  0.5894 -0.7909 -0.3040
22461SOL     OW69150   5.441   6.627   8.729 -0.0128 -0.0753  0.2073
22461SOL    HW169151   5.475   6.540   8.748 -0.5747 -0.8757 -2.1088
22461SOL    HW269152   5.357   6.631   8.775 -0.0319 -0.8144  0.2388
22462SOL     OW69153   8.489   7.985   2.943 -0.1408  0.2711  0.5681
22462SOL    HW169154   8.510   7.966   2.851 -0.4819 -1.4879  0.8177
22462SOL    HW269155   8.513   7.905   2.990 -2.5934  0.0641  1.6043
22463SOL     OW69156   1.481   4.018   0.569 -0.4072 -0.4181 -0.6996
22463SOL    HW169157   1.523   3.933   0.556  0.7817 -0.0599  0.5595
22463SOL    HW269158   1.526   4.076   0.507  0.7729 -0.1130  0.4023
22464SOL     OW69159   6.054   0.072   5.643  0.1106 -0.3460  0.2619
22464SOL    HW169160   6.049   0.009   5.572 -2.3647  2.2268 -2.0938
22464SOL    HW269161   6.144   0.105   5.641  0.2928 -0.8862 -1.1622
22465SOL     OW69162   2.641   3.309   5.460 -0.2405  0.2118  0.2166
22465SOL    HW169163   2.629   3.299   5.366 -2.5006  1.8390  0.2722
22465SOL    HW269164   2.731   3.342   5.470  0.5436 -1.3660 -1.2007
22466SOL     OW69165   7.626   8.132   6.677  0.0191  0.1184 -0.1042
22466SOL    HW169166   7.550   8.081   6.650 -0.8752  0.4038  1.7264
22466SOL    HW269167   7.693   8.110   6.612 -0.6040 -2.6563  0.0610
22467SOL     OW69168   8.557   2.656   9.848 -0.2159 -0.3002 -0.3939
22467SOL    HW169169   8.570   2.711   9.925  0.4947  0.6567 -1.1603
22467SOL    HW269170   8.467   2.622   9.857 -1.0627  1.8007 -0.3792
22468SOL     OW69171   7.894   0.392   9.564  0.0774 -0.1078  0.7348
22468SOL    HW169172   7.826   0.393   9.496  1.1379  1.6040 -0.3800
22468SOL    HW269173   7.972   0.359   9.519  0.1156 -1.7263  1.9054
22469SOL     OW69174   4.433   7.368   3.528 -0.0939  0.8134 -0.1094
22469SOL    HW169175   4.482   7.356   3.447  0.9207 -0.7408  0.6722
22469SOL    HW269176   4.413   7.279   3.557 -1.8972  1.3811  0.5070
22470SOL     OW69177   7.277   0.201   7.017 -0.5230  0.0467  0.2754
22470SOL    HW169178   7.239   0.191   7.104  0.1894 -3.7575  0.3152
22470SOL    HW269179   7.231   0.136   6.963  0.3496  1.0128 -1.7268
22471SOL     OW69180   8.703   8.893   0.789 -1.0638  0.5067 -0.2381
22471SOL    HW169181   8.720   8.836   0.865 -0.5074 -0.3317 -0.9653
22471SOL    HW269182   8.624   8.856   0.749 -0.1274 -0.4119 -1.2935
22472SOL     OW69183   5.538   7.315   2.635  0.8320  0.3803  0.1906
22472SOL    HW169184   5.621   7.360   2.617  0.9143 -0.2420 -1.1057
22472SOL    HW269185   5.491   7.375   2.693  1.7920  1.1779  0.1876
22473SOL     OW69186   0.010   0.853   6.371  0.4669  0.0253  0.0461
22473SOL    HW169187   0.069   0.783   6.399  0.2922  0.2936  1.1281
22473SOL    HW269188  -0.062   0.808   6.327  0.5718 -0.4378  0.3458
22474SOL     OW69189   7.879   3.144   9.686 -0.3389  0.5162  0.1753
22474SOL    HW169190   7.829   3.194   9.623  1.1688  1.3123 -0.4387
22474SOL    HW269191   7.911   3.209   9.749 -1.3245 -0.1803  1.4554
22475SOL     OW69192   2.443   9.287   4.097 -0.0214  0.5560  0.2206
22475SOL    HW169193   2.512   9.347   4.068  1.9195 -1.8793 -0.5294
22475SOL    HW269194   2.416   9.241   4.018  0.6325 -1.5590  1.1488
22476SOL     OW69195   4.740   4.818   7.835  0.4712 -0.0263  0.6413
22476SOL    HW169196   4.771   4.728   7.825  1.6010  0.5682 -1.9265
22476SOL    HW269197   4.671   4.826   7.769  0.5727  1.0864  0.6662
22477SOL     OW69198   5.801   0.501   2.937 -0.0071  0.1863 -0.2117
22477SOL    HW169199   5.717   0.499   2.891  0.7731  1.4945 -1.8011
22477SOL    HW269200   5.846   0.422   2.908 -1.1539 -1.2702  1.7232
22478SOL     OW69201   0.017   2.821   1.584 -0.4079  0.2051  0.3195
22478SOL    HW169202   0.106   2.826   1.618 -0.1587  0.1152 -0.3045
22478SOL    HW269203   0.007   2.901   1.532 -0.4790 -0.0747 -0.1029
22479SOL     OW69204   3.759   2.431   1.362 -0.3592 -0.2597  0.0191
22479SOL    HW169205   3.849   2.439   1.395 -1.3884  1.0742  2.7542
22479SOL    HW269206   3.717   2.369   1.421 -1.8447  0.9165  0.2711
22480SOL     OW69207   6.622   3.197   6.915  0.3792  0.3804  0.2533
22480SOL    HW169208   6.658   3.247   6.841  0.9727  0.4148  0.5582
22480SOL    HW269209   6.685   3.210   6.985  0.6376 -0.9302  0.2937
22481SOL     OW69210   9.689   5.780   8.246 -0.2409  0.5620 -0.4741
22481SOL    HW169211   9.775   5.803   8.280  0.4354 -0.2773 -1.5753
22481SOL    HW269212   9.672   5.845   8.178  0.0756  0.0032 -1.0970
22482SOL     OW69213   2.231   6.727   7.162 -0.2546  0.0633 -0.1277
22482SOL    HW169214   2.224   6.632   7.168  0.1465 -0.0869 -1.6580
22482SOL    HW269215   2.297   6.743   7.095 -0.0370  1.4321  0.3680
22483SOL     OW69216   5.155   4.919   5.664 -0.1381  0.1511  0.3779
22483SOL    HW169217   5.217   4.939   5.734 -1.1306  1.5156  0.8929
22483SOL    HW269218   5.152   4.999   5.612 -1.4034  0.0719  0.3167
22484SOL     OW69219   4.843   4.026   2.421 -0.0336  0.0296 -0.0735
22484SOL    HW169220   4.937   4.009   2.429 -0.0540 -1.9057 -2.6517
22484SOL    HW269221   4.803   3.978   2.493  0.9408  1.6058  1.5994
22485SOL     OW69222   7.666   3.887   1.550  0.0145  0.6170 -0.4305
22485SOL    HW169223   7.712   3.817   1.596 -0.2451  0.6633 -0.0986
22485SOL    HW269224   7.582   3.849   1.526  0.9254 -0.1126 -2.7542
22486SOL     OW69225   7.869   3.949   4.995  0.1629 -0.1275 -0.2103
22486SOL    HW169226   7.937   3.902   5.043 -0.6122 -3.0998 -1.7916
22486SOL    HW269227   7.906   4.036   4.981  2.4250 -0.7305  1.4077
22487SOL     OW69228   1.755   6.930   5.156  0.0875  0.3712 -0.2795
22487SOL    HW169229   1.748   6.975   5.240  0.0526  0.3133 -0.2512
22487SOL    HW269230   1.737   6.997   5.090 -1.0937  0.1454 -0.2013
22488SOL     OW69231   6.276   5.025   5.743  0.2779 -0.1291  0.4200
22488SOL    HW169232   6.258   5.019   5.649 -1.5011 -0.8415  0.7498
22488SOL    HW269233   6.306   5.114   5.757 -1.0236  0.5024 -0.6133
22489SOL     OW69234   2.029   0.210   7.052  0.1510 -1.0529  0.3251
22489SOL    HW169235   2.083   0.186   6.977  0.5203 -1.5719  0.7514
22489SOL    HW269236   1.940   0.181   7.028 -0.7513  2.8148 -1.8640
22490SOL     OW69237   1.638   4.993   7.360  0.1521  0.0751 -0.0976
22490SOL    HW169238   1.565   5.028   7.309 -0.9371 -0.9972  0.6844
22490SOL    HW269239   1.708   4.982   7.297  0.5165  3.3866 -0.4578
22491SOL     OW69240   5.399   9.801   6.546 -0.4453 -0.1361  0.6202
22491SOL    HW169241   5.432   9.774   6.632  0.7411 -1.3701 -0.1882
22491SOL    HW269242   5.398   9.721   6.494 -0.4067  0.7164 -0.7493
22492SOL     OW69243   4.477   3.340   6.112 -0.3441 -0.3039 -0.2481
22492SOL    HW169244   4.528   3.281   6.056 -0.5225 -1.2224  0.5344
22492SOL    HW269245   4.544   3.386   6.164 -0.2033  0.2127 -0.8759
22493SOL     OW69246   5.649   9.798   7.601 -0.4934 -0.2806 -0.2657
22493SOL    HW169247   5.745   9.799   7.597 -0.4332 -2.6673 -1.3127
22493SOL    HW269248   5.621   9.798   7.509 -1.4523 -0.7871  0.0168
22494SOL     OW69249   4.878   7.843   2.994  0.3647 -0.5932 -0.2555
22494SOL    HW169250   4.939   7.909   3.028 -1.2572  0.9641 -0.2217
22494SOL    HW269251   4.823   7.820   3.069 -0.7489 -0.0293 -0.8859
22495SOL     OW69252   6.653   3.730   7.934  0.1425  0.1871 -0.3205
22495SOL    HW169253   6.690   3.797   7.876  1.3997  0.6981  1.0073
22495SOL    HW269254   6.726   3.706   7.992 -0.5752 -1.6197 -0.1263
22496SOL     OW69255   9.107   7.332   2.612  0.3102 -0.0733 -0.1707
22496SOL    HW169256   9.034   7.323   2.550  0.8859 -1.9289 -0.6488
22496SOL    HW269257   9.067   7.365   2.692 -1.1952 -1.7009 -0.2098
22497SOL     OW69258   7.292   8.533   3.010  0.2004 -0.4565  0.4247
22497SOL    HW169259   7.385   8.548   3.028  0.2472 -1.1695  0.8593
22497SOL    HW269260   7.254   8.620   3.004  0.9049 -0.1569  0.2026
22498SOL     OW69261   8.472   9.096   1.435 -0.2160 -0.0856  0.1257
22498SOL    HW169262   8.384   9.073   1.465 -0.4400  0.1418 -0.3424
22498SOL    HW269263   8.463   9.183   1.398 -0.0878 -0.5747 -1.1170
22499SOL     OW69264   2.334   7.244   9.767 -0.3696  0.0212  0.2931
22499SOL    HW169265   2.332   7.186   9.843 -1.6518 -2.8485 -1.7675
22499SOL    HW269266   2.403   7.208   9.711 -1.3066  0.3488 -1.1126
22500SOL     OW69267   0.116   0.070   0.764  0.3006 -0.3944  0.2868
22500SOL    HW169268   0.112  -0.004   0.825 -0.4827  0.0348  0.7769
22500SOL    HW269269   0.108   0.031   0.678 -0.9474 -0.8368  0.5731
22501SOL     OW69270   0.823   0.694   5.304  0.0952  0.0886  0.6310
22501SOL    HW169271   0.864   0.630   5.362  0.8867  1.7563  1.9851
22501SOL    HW269272   0.861   0.778   5.329 -1.6578  1.2588 -0.3676
22502SOL     OW69273   4.145   5.160   0.902  0.4399  0.2426 -0.0395
22502SOL    HW169274   4.115   5.089   0.958  2.2252  0.1352  0.8441
22502SOL    HW269275   4.205   5.118   0.840 -0.9822  0.4771 -1.6507
22503SOL     OW69276   2.163   8.840   2.533 -0.0657 -0.3751  0.3926
22503SOL    HW169277   2.122   8.755   2.516 -0.0614 -0.2123 -0.5082
22503SOL    HW269278   2.105   8.882   2.597 -1.7890  0.1524 -1.3968
22504SOL     OW69279   5.533   5.807   8.671 -0.7703 -0.2004  0.1004
22504SOL    HW169280   5.530   5.798   8.576 -1.3872 -0.1253  0.1078
22504SOL    HW269281   5.495   5.893   8.688 -0.9901 -0.3626  0.4376
22505SOL     OW69282   6.386   0.621   9.403  0.0622  0.5651 -0.1949
22505SOL    HW169283   6.375   0.698   9.459  1.0885  2.2933 -2.2324
22505SOL    HW269284   6.472   0.632   9.363 -0.7324 -0.3867 -2.3517
22506SOL     OW69285   6.403   6.303   1.028 -0.4102 -0.3622  0.6655
22506SOL    HW169286   6.492   6.298   0.993 -0.3840 -0.4743  0.7453
22506SOL    HW269287   6.403   6.383   1.080 -1.0725  0.9597 -1.2713
22507SOL     OW69288   2.826   2.451   0.716 -0.0267  0.2474 -0.4352
22507SOL    HW169289   2.838   2.357   0.728  0.6153  0.0269 -2.4498
22507SOL    HW269290   2.871   2.490   0.790 -1.0085 -1.0222  0.8911
22508SOL     OW69291   5.900   6.113   2.416 -0.5100 -0.1859 -0.7420
22508SOL    HW169292   5.918   6.069   2.333 -0.9639 -2.1079  0.1069
22508SOL    HW269293   5.859   6.196   2.391 -1.7941 -1.2579 -2.4495
22509SOL     OW69294   3.711   0.241   3.711 -0.0285 -0.2785  0.2193
22509SOL    HW169295   3.675   0.316   3.663 -0.9816 -1.2254 -0.5945
22509SOL    HW269296   3.637   0.181   3.720  0.7498 -1.1904  0.7361
22510SOL     OW69297   2.198   7.454   8.564 -0.2395 -0.0581  0.3437
22510SOL    HW169298   2.229   7.543   8.577  1.3646 -0.8483  2.5687
22510SOL    HW269299   2.262   7.416   8.503  0.3518 -0.2597  1.0674
22511SOL     OW69300   5.354   4.499   1.652 -0.1819  0.3147 -0.4292
22511SOL    HW169301   5.282   4.526   1.708 -1.0455 -0.7638 -0.9855
22511SOL    HW269302   5.420   4.464   1.712 -0.6074  0.2423 -0.0079
22512SOL     OW69303   9.409   3.417   8.535 -0.1843  0.2115  0.6919
22512SOL    HW169304   9.446   3.377   8.614  0.2047  1.3640  1.1151
22512SOL    HW269305   9.463   3.494   8.519  0.4784 -0.6241 -1.4068
22513SOL     OW69306   2.347   6.209   4.338 -0.6899  0.4096  0.8899
22513SOL    HW169307   2.415   6.209   4.404 -0.5902  3.4098  0.9118
22513SOL    HW269308   2.350   6.296   4.299 -3.2703  0.0367 -0.4177
22514SOL     OW69309   0.579   2.138   5.926 -0.4133  0.0587 -0.3088
22514SOL    HW169310   0.486   2.163   5.931 -1.0795 -2.0316 -1.1810
22514SOL    HW269311   0.585   2.058   5.978  0.5603 -0.6878 -1.5377
22515SOL     OW69312   7.101   5.269   0.107  0.0001 -0.3873  0.4132
22515SOL    HW169313   7.189   5.255   0.142 -0.0322 -0.1021  0.6178
22515SOL    HW269314   7.044   5.261   0.183 -0.0866  0.0790  0.4022
22516SOL     OW69315   1.011   0.268   8.658  0.5125  0.3480  0.0390
22516SOL    HW169316   1.101   0.245   8.682 -0.3145 -1.2006  2.0152
22516SOL    HW269317   0.983   0.330   8.725 -0.0724  0.3478 -0.1965
22517SOL     OW69318   6.380   4.570   5.035  0.2227  0.4116  0.8863
22517SOL    HW169319   6.301   4.521   5.013 -0.5887  1.5558  1.1486
22517SOL    HW269320   6.451   4.522   4.993 -0.6442 -0.5045  0.4417
22518SOL     OW69321   4.181   0.526   8.252  0.5559  0.5114  0.1222
22518SOL    HW169322   4.265   0.549   8.292  0.6327  2.8942 -1.2057
22518SOL    HW269323   4.195   0.438   8.217  2.3085  0.6207  0.4371
22519SOL     OW69324   0.315   3.163   2.969  0.2901 -0.5355 -0.3881
22519SOL    HW169325   0.301   3.217   2.891  1.3528 -0.1412 -0.3282
22519SOL    HW269326   0.228   3.151   3.006  0.0827  1.8704  0.0803
22520SOL     OW69327   5.386   0.101   7.122 -0.3304 -0.8836 -0.5671
22520SOL    HW169328   5.343   0.068   7.042 -0.6338 -0.3208 -0.6434
22520SOL    HW269329   5.322   0.088   7.191 -0.8482  0.4080 -0.7657
22521SOL     OW69330   0.672   0.464   3.810  0.4505 -0.1706  0.1411
22521SOL    HW169331   0.634   0.494   3.728 -0.1550 -0.5882  0.2622
22521SOL    HW269332   0.759   0.505   3.813  0.0062  0.8066 -0.1262
22522SOL     OW69333   3.609   4.962   4.331 -0.2783 -0.2324  0.5124
22522SOL    HW169334   3.568   5.009   4.404 -0.3035 -0.0725  0.3941
22522SOL    HW269335   3.569   4.999   4.253  1.6212  1.4903  0.2540
22523SOL     OW69336   8.280   6.880   0.295  0.0650 -0.3351 -0.1217
22523SOL    HW169337   8.296   6.822   0.370  0.5064 -0.0234  0.0300
22523SOL    HW269338   8.338   6.955   0.310 -0.6894  0.2722 -0.1724
22524SOL     OW69339   6.983   9.203   7.414 -0.9494  0.3381 -0.1567
22524SOL    HW169340   7.010   9.203   7.506  0.5736 -0.1070 -0.5774
22524SOL    HW269341   6.989   9.295   7.387 -1.5146  0.4872  0.2066
22525SOL     OW69342   6.084   5.608   5.576 -0.0730  0.5373 -0.1000
22525SOL    HW169343   6.006   5.554   5.588 -0.2045  0.4098 -1.3685
22525SOL    HW269344   6.056   5.696   5.603 -0.2137  0.2288  0.8123
22526SOL     OW69345   5.091   2.509   5.340 -0.4677  0.2200  0.3712
22526SOL    HW169346   5.161   2.444   5.347 -0.9426 -0.2121  1.3750
22526SOL    HW269347   5.020   2.463   5.294 -0.2035  0.5704 -0.4015
22527SOL     OW69348   7.902   7.987   2.411 -0.0781 -0.0642  0.5680
22527SOL    HW169349   7.897   8.057   2.345 -1.0202  1.2285  1.9435
22527SOL    HW269350   7.995   7.980   2.431  0.0713  0.5129  0.1019
22528SOL     OW69351   4.540   1.224   8.357 -0.3865 -0.0552  0.0435
22528SOL    HW169352   4.528   1.142   8.404  0.3628 -0.3656 -0.2913
22528SOL    HW269353   4.456   1.268   8.364 -1.1638 -1.3533 -0.7219
22529SOL     OW69354   6.733   3.815   5.218 -0.1011  0.0509 -0.0795
22529SOL    HW169355   6.824   3.843   5.232  0.2898 -0.9321 -0.5629
22529SOL    HW269356   6.714   3.839   5.128 -0.5814  0.9303  0.2497
22530SOL     OW69357   5.701   4.395   7.849  0.5247 -0.0228  0.5018
22530SOL    HW169358   5.771   4.409   7.913  2.3283  1.9865 -1.7148
22530SOL    HW269359   5.707   4.471   7.791 -0.7635 -1.8977 -2.2678
22531SOL     OW69360   9.340   3.406   0.303  0.3416 -0.5964 -0.1273
22531SOL    HW169361   9.282   3.368   0.237  0.5369 -1.2706  0.0849
22531SOL    HW269362   9.395   3.467   0.254 -3.4205  3.6141  0.2286
22532SOL     OW69363   1.537   6.207   9.200  0.3823 -0.5744 -0.0985
22532SOL    HW169364   1.601   6.147   9.240  0.5161 -2.0838 -2.4281
22532SOL    HW269365   1.496   6.156   9.131 -0.0496  1.8169 -1.7114
22533SOL     OW69366   6.106   7.145   9.428 -0.0525 -0.6290 -0.0626
22533SOL    HW169367   6.019   7.164   9.465  0.5550  2.1409  0.1790
22533SOL    HW269368   6.088   7.124   9.336 -0.9729  0.6181 -0.2017
22534SOL     OW69369   5.238   9.624   7.297 -0.3774  0.2371 -0.8075
22534SOL    HW169370   5.236   9.528   7.301  0.4362  0.1826 -1.4448
22534SOL    HW269371   5.146   9.650   7.307 -0.4040 -0.4828  1.6824
22535SOL     OW69372   1.509   9.544   7.496  0.3092 -0.0498  0.6281
22535SOL    HW169373   1.567   9.491   7.550  0.8849 -1.0516 -0.9066
22535SOL    HW269374   1.567   9.605   7.450  0.0305 -0.3305 -0.1070
22536SOL     OW69375   6.622   7.980   5.915  0.4389  0.4828  1.0661
22536SOL    HW169376   6.573   8.031   5.851 -0.0718  1.2595  2.0538
22536SOL    HW269377   6.628   7.893   5.876 -1.0282  0.5760  0.5635
22537SOL     OW69378   6.580   1.282   3.700  0.2526 -0.7927 -0.2883
22537SOL    HW169379   6.561   1.338   3.776 -0.0027 -2.1675  0.6847
22537SOL    HW269380   6.494   1.267   3.660  0.1929 -1.2585  0.0092
22538SOL     OW69381   8.480   0.303   4.000  0.4455 -0.2027 -0.9049
22538SOL    HW169382   8.385   0.293   3.997  0.3377  0.6221 -0.5894
22538SOL    HW269383   8.510   0.234   4.059 -0.3330  1.6666  1.8764
22539SOL     OW69384   0.088   0.915   4.786 -0.0409 -1.0978  0.1554
22539SOL    HW169385   0.124   0.872   4.864 -0.0041  0.2203  0.8878
22539SOL    HW269386   0.033   0.985   4.821  1.1382  0.4514 -0.9980
22540SOL     OW69387   2.087   0.963   4.557  0.5134 -0.1206  0.2914
22540SOL    HW169388   2.043   0.934   4.637  0.2686 -1.9790 -0.4704
22540SOL    HW269389   2.015   0.979   4.495  0.6792  1.6028  0.4946
22541SOL     OW69390   9.146   7.128   6.932  0.5009  0.5364 -0.2055
22541SOL    HW169391   9.218   7.119   6.870  0.4536 -0.6074 -0.1288
22541SOL    HW269392   9.187   7.114   7.018  0.2492  0.2209 -0.1353
22542SOL     OW69393   0.246   2.470   4.363 -0.3454  0.1082  0.2858
22542SOL    HW169394   0.233   2.559   4.398 -1.4305 -0.2542  0.8589
22542SOL    HW269395   0.339   2.453   4.375 -0.0473  1.3019 -0.1595
22543SOL     OW69396   0.093   1.122   4.392 -0.0626 -0.2439 -0.3960
22543SOL    HW169397   0.145   1.133   4.313 -0.1932 -0.9974 -0.5969
22543SOL    HW269398   0.019   1.182   4.381  0.4786  0.4427 -0.3469
22544SOL     OW69399   8.251   4.931   6.588 -0.0771 -0.1520  0.1944
22544SOL    HW169400   8.244   4.924   6.493  1.4293 -1.4626  0.1352
22544SOL    HW269401   8.161   4.945   6.618 -0.5711  0.2946 -1.4067
22545SOL     OW69402   8.859   4.343   7.510 -0.2214 -0.2545  0.1827
22545SOL    HW169403   8.822   4.383   7.590 -1.2996 -0.7375 -0.0469
22545SOL    HW269404   8.938   4.393   7.492 -1.5598  1.8449 -0.1399
22546SOL     OW69405   4.885   3.328   4.422 -0.6506  0.4156 -0.8409
22546SOL    HW169406   4.953   3.346   4.487 -0.4924  0.4135 -1.0020
22546SOL    HW269407   4.864   3.235   4.434  0.0367  0.1714 -1.3956
22547SOL     OW69408   6.277   4.968   8.533  0.1903 -0.5950  0.2429
22547SOL    HW169409   6.323   4.979   8.449 -0.5504 -0.5772 -0.1735
22547SOL    HW269410   6.333   5.012   8.597  1.0433 -1.0952 -0.1514
22548SOL     OW69411   6.747   5.332   7.689 -0.0470  0.0510 -0.4268
22548SOL    HW169412   6.703   5.340   7.774 -1.0266 -1.0572 -0.8120
22548SOL    HW269413   6.688   5.375   7.628  0.2084  0.0040 -0.7081
22549SOL     OW69414   8.098   5.271   0.386  0.1697 -0.1822 -0.1831
22549SOL    HW169415   8.111   5.180   0.360  1.9232  0.0427 -0.1775
22549SOL    HW269416   8.056   5.311   0.309 -0.7157 -0.9954 -0.1434
22550SOL     OW69417   0.818   3.746   1.508  0.1362 -0.1041  0.4466
22550SOL    HW169418   0.896   3.802   1.517 -0.4334  1.1477 -1.7263
22550SOL    HW269419   0.829   3.704   1.423 -1.0667 -0.7426  0.5957
22551SOL     OW69420   9.008   0.750   9.310 -0.0042 -0.0123 -0.5501
22551SOL    HW169421   9.016   0.843   9.289  1.5557 -0.1612 -0.7156
22551SOL    HW269422   8.924   0.743   9.355 -0.6687  1.2911 -1.5019
22552SOL     OW69423   7.583   5.124   0.971 -0.1343  0.3837 -0.0554
22552SOL    HW169424   7.556   5.075   1.049 -0.1951 -1.1532 -1.0126
22552SOL    HW269425   7.677   5.108   0.964  0.0701  1.3608  0.2534
22553SOL     OW69426   3.138   6.664   4.314  0.0629 -0.2869  0.2648
22553SOL    HW169427   3.159   6.683   4.405  2.0061  0.3300 -0.2633
22553SOL    HW269428   3.085   6.739   4.285 -0.9306 -0.6968  0.9756
22554SOL     OW69429   5.921   4.825   4.722 -0.0203 -0.4813 -0.0330
22554SOL    HW169430   5.932   4.908   4.675  2.5291  0.4645  1.9825
22554SOL    HW269431   5.826   4.815   4.730 -0.4366  1.5491 -1.4628
22555SOL     OW69432   1.570   5.129   6.090 -0.3830  0.2441  0.6526
22555SOL    HW169433   1.536   5.212   6.125  1.2479  0.8054  0.9989
22555SOL    HW269434   1.528   5.120   6.005  1.0578  2.6369 -0.4328
22556SOL     OW69435   4.587   8.575   4.743  1.0530  0.2259  0.3047
22556SOL    HW169436   4.583   8.488   4.783  0.3129  0.8077  1.5346
22556SOL    HW269437   4.640   8.562   4.664 -1.0820 -1.8689 -0.9213
22557SOL     OW69438   3.641   4.844   5.249 -0.7597  0.4707 -0.3170
22557SOL    HW169439   3.650   4.750   5.239 -0.7780  0.6416 -2.7486
22557SOL    HW269440   3.721   4.880   5.210 -1.0861  1.4510 -0.1115
22558SOL     OW69441   2.513   0.183   1.964 -0.3412  0.1634 -0.1539
22558SOL    HW169442   2.488   0.105   1.915 -0.2488 -0.3616  0.6300
22558SOL    HW269443   2.586   0.156   2.019 -2.1500 -0.0344  2.3391
22559SOL     OW69444   0.714   4.851   0.515  0.1324 -0.2141  0.0015
22559SOL    HW169445   0.741   4.874   0.427 -0.9792 -1.0026 -0.5770
22559SOL    HW269446   0.647   4.783   0.503  0.8402 -1.2542  1.4890
22560SOL     OW69447   1.353   1.917   3.869  0.1561  0.4267 -0.2796
22560SOL    HW169448   1.269   1.876   3.850  0.0107 -0.6886  2.2572
22560SOL    HW269449   1.404   1.907   3.789 -1.8282  0.4070 -1.6061
22561SOL     OW69450   8.040   8.667   5.312 -0.9283 -0.1589  0.0423
22561SOL    HW169451   7.983   8.743   5.320  0.9519  1.2815  0.5984
22561SOL    HW269452   8.076   8.654   5.400  1.2681  0.4173 -0.7062
22562SOL     OW69453   3.248   2.020   5.437 -0.2632  0.2316 -0.0192
22562SOL    HW169454   3.314   1.970   5.390 -0.0382 -0.3402  0.8807
22562SOL    HW269455   3.193   1.954   5.479 -0.2544  0.7229  0.7870
22563SOL     OW69456   8.283   0.527   4.911 -0.3698 -0.3589 -0.5155
22563SOL    HW169457   8.351   0.492   4.854  0.3921  0.5534 -0.2006
22563SOL    HW269458   8.218   0.564   4.850  0.0061 -0.1741 -0.8109
22564SOL     OW69459   6.180   1.030   4.647  0.0451 -0.2426 -0.9422
22564SOL    HW169460   6.212   1.090   4.580  1.3744 -0.4764 -0.5314
22564SOL    HW269461   6.160   1.086   4.722 -0.2817 -0.1278 -1.1126
22565SOL     OW69462   2.899   9.452   3.583  0.5052 -0.4694 -0.1656
22565SOL    HW169463   2.878   9.362   3.608  1.6233 -0.7396 -0.1500
22565SOL    HW269464   2.916   9.448   3.488 -0.3411 -0.0949 -0.3421
22566SOL     OW69465   9.372   5.632   7.275 -0.6557 -0.2621 -0.0532
22566SOL    HW169466   9.362   5.572   7.349 -0.3133 -0.2124  0.0381
22566SOL    HW269467   9.315   5.706   7.296  1.6351  1.1907  1.6780
22567SOL     OW69468   8.034   8.297   0.475 -0.3423  0.0349  0.2606
22567SOL    HW169469   7.943   8.313   0.454 -1.1025 -1.3262  2.1884
22567SOL    HW269470   8.033   8.218   0.529  2.0913 -0.6074 -0.4975
22568SOL     OW69471   3.292   4.535   2.628  0.5592  0.2450  0.2123
22568SOL    HW169472   3.237   4.613   2.637  0.7956  0.4445 -0.0641
22568SOL    HW269473   3.239   4.464   2.664  0.1786  0.4616  0.0847
22569SOL     OW69474   4.801   9.723   0.716 -0.4273  0.0160  0.1177
22569SOL    HW169475   4.874   9.768   0.759 -0.2895 -0.9092  0.9062
22569SOL    HW269476   4.755   9.680   0.788 -0.7525 -0.8024 -0.5681
22570SOL     OW69477   8.493   2.620   3.589 -0.0820 -0.0477 -0.6688
22570SOL    HW169478   8.517   2.540   3.543 -1.1876 -0.1301 -1.1370
22570SOL    HW269479   8.412   2.598   3.636  0.7423  0.1938  0.9123
22571SOL     OW69480   4.899   4.336   0.225 -0.5705  0.0669  0.6697
22571SOL    HW169481   4.829   4.395   0.196 -1.4282 -2.1421 -2.3008
22571SOL    HW269482   4.977   4.368   0.179 -0.7052 -0.2247  0.2330
22572SOL     OW69483   4.275   2.978   4.133 -0.0963 -0.7956 -0.8670
22572SOL    HW169484   4.360   3.011   4.105 -0.4510 -0.2306 -1.3001
22572SOL    HW269485   4.272   2.994   4.227 -0.3354  0.6183 -1.0914
22573SOL     OW69486   4.631   8.188   9.839  0.2441  0.5754  0.2921
22573SOL    HW169487   4.702   8.187   9.902  0.1680  0.7455  0.3820
22573SOL    HW269488   4.614   8.281   9.823 -0.2172  0.5426  0.5682
22574SOL     OW69489   9.404   8.812   1.483 -0.5516  0.1879 -0.6415
22574SOL    HW169490   9.380   8.805   1.390 -0.6252 -1.1465 -0.5488
22574SOL    HW269491   9.437   8.724   1.505 -1.5570  0.1640  0.8713
22575SOL     OW69492   4.061   0.268   3.699  0.7083  0.0484  0.2063
22575SOL    HW169493   4.049   0.358   3.729  0.6739  0.0893  0.0696
22575SOL    HW269494   3.977   0.243   3.663  1.2251  0.5939 -1.4484
22576SOL     OW69495   6.894   6.666   8.580  0.5089  0.4753  0.5196
22576SOL    HW169496   6.878   6.730   8.649  2.8628  1.5352  0.1678
22576SOL    HW269497   6.983   6.635   8.597  0.4716 -0.5492 -1.0301
22577SOL     OW69498   4.053   1.767   9.425 -0.5712 -0.1239  0.0749
22577SOL    HW169499   4.047   1.855   9.461 -1.7017 -0.0815 -0.1907
22577SOL    HW269500   3.963   1.744   9.402 -0.3885 -1.5864  0.7074
22578SOL     OW69501   5.836   3.082   1.199  0.8635 -0.1777  0.3499
22578SOL    HW169502   5.807   3.165   1.238 -1.9077 -1.3306  0.9348
22578SOL    HW269503   5.907   3.053   1.255  0.0333  0.4810  1.7937
22579SOL     OW69504   0.701   4.680   4.281  0.7923 -0.2927  0.1528
22579SOL    HW169505   0.630   4.729   4.239  1.0045  0.4765  0.6541
22579SOL    HW269506   0.724   4.611   4.219  1.0217  0.7409 -0.9352
22580SOL     OW69507   0.837   1.017   4.008 -0.6506 -0.0325  0.0449
22580SOL    HW169508   0.884   1.026   3.926 -0.8566 -0.8737 -0.1757
22580SOL    HW269509   0.766   0.956   3.989 -0.4928 -0.5168  0.9254
22581SOL     OW69510   8.383   2.316   7.185 -0.0044 -0.2031  0.2805
22581SOL    HW169511   8.440   2.391   7.205 -3.2044  2.3484  0.6836
22581SOL    HW269512   8.317   2.318   7.254 -0.2460 -3.5036  0.2851
22582SOL     OW69513   1.477   8.425   8.215 -0.4710  0.0253  0.4439
22582SOL    HW169514   1.425   8.403   8.293 -0.4976  2.6654  1.2679
22582SOL    HW269515   1.568   8.421   8.246 -0.5055  1.6616  0.8258
22583SOL     OW69516   9.023   8.922   6.798 -0.6802  0.1120  0.2239
22583SOL    HW169517   9.039   8.832   6.828  1.2649  0.2076 -0.3930
22583SOL    HW269518   9.060   8.924   6.710  0.2576  1.7901  0.6177
22584SOL     OW69519   1.193   7.671   1.545 -0.0626  0.1355 -0.1580
22584SOL    HW169520   1.236   7.703   1.466  1.2510 -0.2066  0.3942
22584SOL    HW269521   1.212   7.577   1.547 -0.8163 -0.0229  0.1244
22585SOL     OW69522   1.006   9.323   5.034 -0.4864  0.1611 -0.2307
22585SOL    HW169523   1.008   9.418   5.024 -0.5743  0.1830 -0.0410
22585SOL    HW269524   1.058   9.290   4.961 -1.3286  0.3154 -0.9177
22586SOL     OW69525   0.036   2.537   4.113 -0.2332  0.0987  0.1961
22586SOL    HW169526  -0.048   2.579   4.097  0.6168  1.7216 -0.1835
22586SOL    HW269527   0.030   2.505   4.203 -1.3656 -0.1084  0.0604
22587SOL     OW69528   3.753   5.342   1.113 -0.2786  0.3235 -0.4297
22587SOL    HW169529   3.715   5.258   1.136  0.4908  0.2072  0.4858
22587SOL    HW269530   3.719   5.403   1.179  0.5411  0.3597 -0.0266
22588SOL     OW69531   6.769   5.641   5.912  0.5240 -0.0677 -0.0704
22588SOL    HW169532   6.826   5.693   5.970  1.4666  0.5348 -1.4753
22588SOL    HW269533   6.829   5.589   5.860 -0.2765 -0.2871 -0.7952
22589SOL     OW69534   7.024   3.670   0.622 -0.2862  0.1110  0.0893
22589SOL    HW169535   6.967   3.599   0.654  0.5117 -1.1050 -1.0728
22589SOL    HW269536   7.106   3.626   0.601  0.8069  1.6830  0.8825
22590SOL     OW69537   3.318   7.970   8.425 -0.4705  0.6063 -0.1821
22590SOL    HW169538   3.313   8.003   8.335 -0.1954 -1.1817 -0.8923
22590SOL    HW269539   3.339   7.877   8.415  2.5760  0.9477  1.8061
22591SOL     OW69540   3.473   6.700   5.839 -0.0865  0.1222  0.4763
22591SOL    HW169541   3.479   6.715   5.744 -0.0082 -0.6475  0.3525
22591SOL    HW269542   3.441   6.610   5.847  0.7625 -0.1286  1.1879
22592SOL     OW69543   7.237   0.296   0.398 -0.5519 -0.1992 -0.2025
22592SOL    HW169544   7.163   0.271   0.453 -0.7249  0.0505 -0.3215
22592SOL    HW269545   7.214   0.262   0.311 -0.3963 -0.3691 -0.1783
22593SOL     OW69546   4.025   8.788   7.192  0.2637  0.7983  0.6850
22593SOL    HW169547   4.064   8.732   7.125  1.4521 -0.3929  2.3202
22593SOL    HW269548   4.093   8.853   7.211 -1.0339  2.8069 -1.0667
22594SOL     OW69549   3.674   8.975   1.357 -0.0980 -0.2102 -0.0939
22594SOL    HW169550   3.692   9.021   1.439  0.8959  0.6494 -0.7803
22594SOL    HW269551   3.580   8.957   1.361 -0.3289  1.0031  0.6445
22595SOL     OW69552   1.403   1.304   4.119 -0.0540  0.3087  0.2083
22595SOL    HW169553   1.321   1.318   4.071  0.4774  1.6046 -0.3751
22595SOL    HW269554   1.460   1.260   4.056  0.3905  1.3376 -0.1423
22596SOL     OW69555   7.264   1.758   0.974  0.1780 -0.2642  0.0881
22596SOL    HW169556   7.179   1.753   0.929 -0.6164 -0.1850  1.5252
22596SOL    HW269557   7.264   1.845   1.015  2.2769  1.0254 -2.3307
22597SOL     OW69558   0.093   3.985   0.835  0.3847  0.1739  0.2377
22597SOL    HW169559   0.133   3.902   0.859  0.1182 -0.5750 -1.7556
22597SOL    HW269560   0.147   4.018   0.763  0.4156  1.6914  0.9162
22598SOL     OW69561   5.678   4.463   1.581 -0.0755 -0.2327 -0.0589
22598SOL    HW169562   5.627   4.539   1.554  0.6592 -0.0404 -0.9847
22598SOL    HW269563   5.769   4.492   1.577  0.1403 -0.7158  1.0592
22599SOL     OW69564   8.372   7.607   4.190 -0.7552  0.0574  0.0668
22599SOL    HW169565   8.284   7.646   4.196 -1.4570 -0.8378 -2.7746
22599SOL    HW269566   8.368   7.532   4.249 -1.4657  0.7689  0.9518
22600SOL     OW69567   6.014   3.749   5.331 -0.0930 -0.0512 -0.1501
22600SOL    HW169568   5.929   3.707   5.320 -0.4218  0.1163  1.5659
22600SOL    HW269569   6.035   3.783   5.244 -0.5628 -2.3200 -1.2316
22601SOL     OW69570   0.156   4.132   3.868 -0.0383 -0.3909 -0.1814
22601SOL    HW169571   0.119   4.176   3.945 -0.6885  1.4024 -1.4459
22601SOL    HW269572   0.201   4.202   3.821  0.0641 -1.3832 -1.5968
22602SOL     OW69573   7.764   9.290   6.926  0.2272 -0.6863  0.1701
22602SOL    HW169574   7.794   9.218   6.870 -1.2701 -0.1680 -1.3534
22602SOL    HW269575   7.721   9.351   6.867 -2.0607 -0.4422  1.9356
22603SOL     OW69576   1.734   6.060   2.039 -0.3718 -0.0485 -0.2140
22603SOL    HW169577   1.743   6.009   2.119 -0.0569  2.4602  1.4309
22603SOL    HW269578   1.645   6.096   2.043  0.0513  1.0300 -0.4173
22604SOL     OW69579   7.842   9.150   0.080  0.5360 -0.5655  0.1098
22604SOL    HW169580   7.860   9.064   0.042 -1.3505 -0.3228 -1.4755
22604SOL    HW269581   7.750   9.166   0.061  0.6679  1.5372  0.9567
22605SOL     OW69582   0.949   3.291   8.961  0.5910 -0.3319 -0.2932
22605SOL    HW169583   0.909   3.352   8.899 -0.6126 -0.4569  0.3284
22605SOL    HW269584   0.938   3.333   9.046  1.7184 -0.4248 -0.0929
22606SOL     OW69585   9.416   4.814   1.959 -0.2670  0.5049  0.2865
22606SOL    HW169586   9.505   4.790   1.986 -0.6733  0.0752  1.3190
22606SOL    HW269587   9.379   4.732   1.926 -0.6102  0.4432  0.8166
22607SOL     OW69588   5.722   3.913   9.010 -0.2140 -0.3825  0.2363
22607SOL    HW169589   5.666   3.840   9.036  0.5002 -1.1300 -0.2650
22607SOL    HW269590   5.684   3.946   8.929  1.3327 -2.4284 -1.4497
22608SOL     OW69591   0.957   1.078   9.262  0.2793  0.3014 -0.0109
22608SOL    HW169592   0.904   1.114   9.192  0.0738 -1.2814 -0.7108
22608SOL    HW269593   0.937   1.132   9.338  0.4039  1.9656 -1.1230
22609SOL     OW69594   1.630   4.868   8.701  0.2234  0.1865 -0.0006
22609SOL    HW169595   1.696   4.899   8.763  1.6277  1.1999 -1.8738
22609SOL    HW269596   1.615   4.943   8.644 -3.4887  0.4005  0.9989
22610SOL     OW69597   4.601   5.561   9.577  0.2439 -0.7175 -0.6703
22610SOL    HW169598   4.561   5.571   9.664  0.4473  0.7426 -0.7260
22610SOL    HW269599   4.581   5.471   9.552  0.9897 -1.4967  1.2982
22611SOL     OW69600   7.044   5.247   7.002 -0.0344  0.1379  0.1643
22611SOL    HW169601   7.077   5.159   7.017 -0.2608  0.0115 -0.0611
22611SOL    HW269602   7.113   5.290   6.952  0.0227  0.0480  0.1661
22612SOL     OW69603   6.781   7.642   1.805 -0.2482  0.1857  0.3830
22612SOL    HW169604   6.838   7.719   1.805 -1.9773  1.5421  0.0271
22612SOL    HW269605   6.759   7.628   1.713 -1.5142  0.5395  0.6047
22613SOL     OW69606   8.255   4.093   4.032 -0.5008 -0.2412  0.0213
22613SOL    HW169607   8.211   4.008   4.039  0.9634 -1.0325  0.1741
22613SOL    HW269608   8.289   4.095   3.942 -0.1294 -0.0253  0.1638
22614SOL     OW69609   4.751   1.177   4.121  0.0018  0.5432  0.2146
22614SOL    HW169610   4.788   1.114   4.059 -0.5487 -0.2636  0.6801
22614SOL    HW269611   4.666   1.140   4.144  0.3621  0.5862  1.7710
22615SOL     OW69612   5.848   6.272   5.242  0.0387  0.3840 -0.0335
22615SOL    HW169613   5.869   6.288   5.334 -2.8567 -0.4020  0.8760
22615SOL    HW269614   5.824   6.358   5.208  1.0819  0.6728 -0.0734
22616SOL     OW69615   9.209   9.026   0.831 -0.1664 -0.0149  0.1780
22616SOL    HW169616   9.237   9.113   0.802  0.2113 -0.1265  0.2101
22616SOL    HW269617   9.150   8.996   0.762  2.3117 -1.1551 -1.5902
22617SOL     OW69618   2.735   9.425   6.270  0.2394  0.3050  0.0143
22617SOL    HW169619   2.644   9.454   6.266  0.5090  1.7456  2.6105
22617SOL    HW269620   2.742   9.378   6.353  2.1600  1.4002  0.5305
22618SOL     OW69621   4.289   2.937   9.234 -0.0148 -0.1480 -0.0309
22618SOL    HW169622   4.324   2.857   9.195  1.6467  1.2476 -1.5885
22618SOL    HW269623   4.227   2.970   9.169  1.0694  1.0116 -0.5158
22619SOL     OW69624   9.417   9.318   7.860  0.0656 -0.4754  0.7270
22619SOL    HW169625   9.507   9.286   7.869  0.5477 -0.2960 -2.3123
22619SOL    HW269626   9.427   9.406   7.824 -1.3509  0.4820  2.5206
22620SOL     OW69627   8.128   9.457   4.075  0.3008 -0.0598  0.1935
22620SOL    HW169628   8.172   9.427   4.155  0.1621  0.5609  0.5131
22620SOL    HW269629   8.114   9.551   4.090 -1.5074 -0.3107  0.2957
22621SOL     OW69630   0.465   2.097   1.536  0.6541  0.2163 -0.0291
22621SOL    HW169631   0.405   2.107   1.462 -1.6572  1.2487  1.8180
22621SOL    HW269632   0.552   2.115   1.500 -0.4410  1.3153 -2.3282
22622SOL     OW69633   9.779   9.373   8.407  0.4741 -0.3553 -0.6267
22622SOL    HW169634   9.702   9.429   8.398 -0.0140 -1.1281 -1.3148
22622SOL    HW269635   9.749   9.286   8.383  1.3341 -0.8500  0.0110
22623SOL     OW69636   1.749   3.255   6.450  0.1998 -0.3727 -0.7935
22623SOL    HW169637   1.694   3.298   6.385  0.6603 -0.0480 -0.9667
22623SOL    HW269638   1.829   3.232   6.403  0.2526 -0.7611 -0.5170
22624SOL     OW69639   8.896   6.638   5.162  0.0219  0.8749  0.5963
22624SOL    HW169640   8.952   6.564   5.138 -0.4249  0.6075  0.3670
22624SOL    HW269641   8.835   6.647   5.089  0.0165  1.4149  0.6651
22625SOL     OW69642   7.247   7.122   1.110 -0.4514 -0.3692 -0.4063
22625SOL    HW169643   7.178   7.073   1.155  1.1202 -0.6369  1.9132
22625SOL    HW269644   7.325   7.066   1.119 -0.0493 -0.5364 -3.7829
22626SOL     OW69645   4.259   0.934   0.978 -0.2245  0.1085  0.5193
22626SOL    HW169646   4.168   0.960   0.961 -0.2647 -0.3613 -0.0179
22626SOL    HW269647   4.269   0.850   0.933  0.2400 -0.2462  1.2717
22627SOL     OW69648   3.227   2.468   0.699  0.1369 -0.1263 -0.1981
22627SOL    HW169649   3.227   2.564   0.697  1.8586 -0.1002 -0.1057
22627SOL    HW269650   3.190   2.446   0.784 -2.4127  0.3513 -1.0713
22628SOL     OW69651   9.205   5.450   9.192  0.4008  0.1236  0.2102
22628SOL    HW169652   9.274   5.516   9.199  1.4969 -0.9565 -0.0342
22628SOL    HW269653   9.179   5.451   9.100  0.8281 -0.1721  0.0822
22629SOL     OW69654   5.615   5.238   3.482  0.3063  0.6709  0.1873
22629SOL    HW169655   5.702   5.203   3.461  1.1142  3.2749 -1.1802
22629SOL    HW269656   5.614   5.244   3.578  1.3204 -0.0496  0.2610
22630SOL     OW69657   3.549   5.271   6.129 -0.0188  0.0255 -0.1201
22630SOL    HW169658   3.575   5.184   6.158 -0.7298 -0.3217 -0.4977
22630SOL    HW269659   3.468   5.289   6.177  0.8256  1.0533  0.9715
22631SOL     OW69660   4.905   1.498   7.282 -1.1458  0.4429  0.1473
22631SOL    HW169661   4.891   1.580   7.234 -1.2275 -0.4804 -1.4897
22631SOL    HW269662   4.972   1.519   7.346 -1.6103  1.9422  0.1955
22632SOL     OW69663   0.824   9.304   8.035 -0.1773  0.0262 -0.2217
22632SOL    HW169664   0.847   9.301   8.127 -1.2529 -2.0944  0.0504
22632SOL    HW269665   0.895   9.256   7.991 -1.0707 -1.4726 -0.0955
22633SOL     OW69666   0.024   8.974   6.691  0.3625  0.2577  0.0888
22633SOL    HW169667   0.076   9.054   6.682 -0.7339  1.0658  0.7753
22633SOL    HW269668  -0.052   8.988   6.634 -1.1574  0.8377  2.1539
22634SOL     OW69669   7.544   3.070   7.029 -0.2601  0.1383  0.2070
22634SOL    HW169670   7.536   2.997   6.967 -1.7239  1.1031 -0.8034
22634SOL    HW269671   7.638   3.073   7.049  0.0617 -1.0340 -0.9445
22635SOL     OW69672   4.414   2.113   5.268 -0.0521  0.0728  0.3632
22635SOL    HW169673   4.326   2.097   5.303 -0.1038  1.1360  0.7651
22635SOL    HW269674   4.443   2.028   5.237 -0.6035 -0.6370  1.6820
22636SOL     OW69675   9.746   9.268   7.588  0.2878  0.2030  0.2008
22636SOL    HW169676   9.776   9.179   7.568  1.0739  0.2984  0.8614
22636SOL    HW269677   9.776   9.320   7.514  0.3078  0.0085  0.0700
22637SOL     OW69678   5.528   9.057   1.677  0.3859 -0.3986  0.9001
22637SOL    HW169679   5.514   9.052   1.771  0.3088 -1.9004  0.8237
22637SOL    HW269680   5.492   9.142   1.652 -1.5820 -0.9067  1.8861
22638SOL     OW69681   5.718   7.855   8.744 -0.2613  0.0537  0.0036
22638SOL    HW169682   5.728   7.914   8.670  1.1237 -1.0004 -0.6877
22638SOL    HW269683   5.715   7.767   8.705 -0.6697 -0.4480  1.1152
22639SOL     OW69684   4.569   4.167   5.697  0.2965  0.0489 -0.3630
22639SOL    HW169685   4.570   4.251   5.744  0.5631 -0.2327  0.1427
22639SOL    HW269686   4.658   4.135   5.704  0.1596 -0.3479 -0.4289
22640SOL     OW69687   0.106   9.305   4.746 -1.0454 -0.5149  0.2253
22640SOL    HW169688   0.174   9.253   4.789 -1.9586 -1.4832  0.5535
22640SOL    HW269689   0.092   9.380   4.804  0.0745 -0.0351 -0.1007
22641SOL     OW69690   1.933   1.544   8.336  0.2699  0.2515  0.1948
22641SOL    HW169691   1.859   1.603   8.354  1.7838  1.8008  1.8242
22641SOL    HW269692   1.973   1.580   8.257 -0.4960 -0.4231 -0.5279
22642SOL     OW69693   4.771   9.843   1.798 -0.5365  0.7207 -0.3541
22642SOL    HW169694   4.736   9.878   1.880 -0.1249  0.6232 -0.1322
22642SOL    HW269695   4.765   9.916   1.737  0.7386  1.3640  0.2255
22643SOL     OW69696   1.786   4.425   6.169  0.1818 -0.6337 -0.1036
22643SOL    HW169697   1.713   4.381   6.212  0.9922 -0.5174  1.4606
22643SOL    HW269698   1.839   4.355   6.133  0.3844 -0.8334  0.5772
22644SOL     OW69699   4.617   6.369   4.717  0.4715  0.0599 -1.0461
22644SOL    HW169700   4.550   6.326   4.665  0.6828  0.7771 -1.9596
22644SOL    HW269701   4.700   6.341   4.677  0.6939 -0.2728 -0.3700
22645SOL     OW69702   8.840   5.176   8.596  0.1793 -0.1832  0.0365
22645SOL    HW169703   8.899   5.213   8.531  0.9227  0.0430  0.8167
22645SOL    HW269704   8.869   5.085   8.607  0.9311  0.1518  1.0039
22646SOL     OW69705   7.677   8.363   2.423 -0.2315  0.7793  0.0120
22646SOL    HW169706   7.744   8.323   2.367 -1.1134 -0.6493 -0.0612
22646SOL    HW269707   7.601   8.374   2.366 -0.0848  2.4462  0.0818
22647SOL     OW69708   0.647   2.928   2.734  0.1177  0.5775 -0.1724
22647SOL    HW169709   0.577   2.981   2.695  0.2412 -0.2885 -1.6869
22647SOL    HW269710   0.608   2.893   2.814 -0.6859  1.2770 -0.2402
22648SOL     OW69711   0.678   9.567   4.236  0.0320  0.3254 -0.0136
22648SOL    HW169712   0.657   9.642   4.180  0.7236 -0.4953 -1.4322
22648SOL    HW269713   0.612   9.501   4.213  0.0319  0.1482  0.4942
22649SOL     OW69714   3.159   7.000   4.323 -0.2359  0.2443  0.0221
22649SOL    HW169715   3.217   6.940   4.276 -0.3661 -0.2597  0.4908
22649SOL    HW269716   3.134   6.951   4.402 -1.3828  0.4036 -0.2309
22650SOL     OW69717   6.788   4.724   5.511  0.3596 -0.0138 -0.1060
22650SOL    HW169718   6.699   4.709   5.543 -0.1453  0.3105 -1.2765
22650SOL    HW269719   6.798   4.662   5.439  0.2537  1.3907 -1.4007
22651SOL     OW69720   4.611   2.442   7.843 -0.0007 -0.5472 -0.2445
22651SOL    HW169721   4.554   2.383   7.893  1.5849 -0.9187  1.2093
22651SOL    HW269722   4.695   2.437   7.887  0.8157  1.0296 -1.5261
22652SOL     OW69723   5.610   0.820   9.425 -0.2034  0.5890  0.3116
22652SOL    HW169724   5.614   0.912   9.449 -0.3328  0.4260  0.9590
22652SOL    HW269725   5.702   0.794   9.415 -0.1732  0.8589 -0.1827
22653SOL     OW69726   7.915   8.335   2.696 -0.2458  0.1243 -0.1905
22653SOL    HW169727   7.836   8.389   2.699  0.1587  0.7538 -0.4354
22653SOL    HW269728   7.887   8.253   2.656 -1.3476 -0.7148  2.1239
22654SOL     OW69729   1.881   7.993   0.059  0.4375 -0.3365 -0.3771
22654SOL    HW169730   1.954   7.986  -0.003  0.0222  0.4398 -0.9716
22654SOL    HW269731   1.904   7.933   0.130  0.3837 -2.1749 -1.8139
22655SOL     OW69732   3.592   2.506   4.545  0.1151  0.1836  0.2282
22655SOL    HW169733   3.644   2.506   4.625 -0.4786 -1.7300  0.6723
22655SOL    HW269734   3.523   2.571   4.562 -1.1663 -1.5400  2.1317
22656SOL     OW69735   6.049   4.873   1.192 -0.3193  0.3055  0.3237
22656SOL    HW169736   6.027   4.900   1.281  1.5853  0.1483  0.8812
22656SOL    HW269737   6.013   4.942   1.137  0.6043  1.6874  1.3985
22657SOL     OW69738   8.820   6.181   8.005  0.2563  0.5857 -0.3623
22657SOL    HW169739   8.825   6.182   8.101 -2.8858 -0.9120 -0.0735
22657SOL    HW269740   8.760   6.252   7.983 -1.2424 -0.8053 -0.9426
22658SOL     OW69741   5.293   0.121   0.727  0.0487  0.1748 -0.0048
22658SOL    HW169742   5.349   0.147   0.654 -0.0539 -0.2583 -0.2433
22658SOL    HW269743   5.354   0.098   0.797  0.1491  2.4923  0.7693
22659SOL     OW69744   8.675   8.580   7.284  0.1142  0.1455  0.3009
22659SOL    HW169745   8.609   8.537   7.337 -0.6867  0.2881 -0.5574
22659SOL    HW269746   8.714   8.510   7.232 -0.8509  0.3584 -0.7402
22660SOL     OW69747   8.257   8.226   8.686  0.3155 -0.0036 -0.0186
22660SOL    HW169748   8.298   8.147   8.722 -1.6953 -1.2941 -0.3807
22660SOL    HW269749   8.259   8.289   8.758 -1.2956 -1.6366  1.5651
22661SOL     OW69750   4.674   3.006   4.110 -1.0897  0.2719  0.1378
22661SOL    HW169751   4.686   3.101   4.115  0.5183  0.1029 -0.0514
22661SOL    HW269752   4.658   2.988   4.018  0.4307  0.1950 -0.1327
22662SOL     OW69753   2.311   9.438   5.489  0.2482 -0.1032  0.8159
22662SOL    HW169754   2.309   9.499   5.562  0.6630  2.0247 -0.8248
22662SOL    HW269755   2.226   9.395   5.490  0.0569  0.2848  2.2121
22663SOL     OW69756   5.333   2.254   6.327  0.8619 -0.5160 -0.0788
22663SOL    HW169757   5.241   2.263   6.352  1.2666  0.4090  1.1530
22663SOL    HW269758   5.344   2.315   6.254  0.7873  0.3197  0.5949
22664SOL     OW69759   5.295   9.209   2.645  0.1557 -0.4680  0.4316
22664SOL    HW169760   5.390   9.202   2.641  0.0540 -1.7337 -0.9244
22664SOL    HW269761   5.265   9.118   2.648 -1.0007 -0.0864  2.5378
22665SOL     OW69762   5.973   3.006   8.437 -0.0847 -0.4284  0.4149
22665SOL    HW169763   5.933   2.986   8.521  1.3965 -3.3685  0.5467
22665SOL    HW269764   6.050   3.059   8.459 -1.4395  1.6065  0.5237
22666SOL     OW69765   6.158   6.954   3.858 -0.0315 -0.1887 -0.1496
22666SOL    HW169766   6.147   7.038   3.903 -0.6936 -1.1129  1.5160
22666SOL    HW269767   6.225   6.971   3.792  0.6615  1.3872  0.8856
22667SOL     OW69768   6.569   0.332   3.566 -0.8366 -0.7320  0.0545
22667SOL    HW169769   6.514   0.401   3.604  0.7912  0.5941  0.1399
22667SOL    HW269770   6.572   0.264   3.632 -0.4168  0.2670  1.1096
22668SOL     OW69771   3.504   7.929   7.250  0.7344 -0.0378 -0.0835
22668SOL    HW169772   3.497   7.979   7.168 -1.6784 -0.1367 -0.0177
22668SOL    HW269773   3.436   7.862   7.242  0.7808 -0.3589  1.8080
22669SOL     OW69774   0.071   3.641   3.789  0.3878 -0.1730 -0.5462
22669SOL    HW169775   0.041   3.677   3.872  1.8400 -0.2880  0.0640
22669SOL    HW269776   0.005   3.669   3.725  0.3476  1.7238  0.2689
22670SOL     OW69777   1.502   9.139   3.877  0.7468 -0.3654  0.0001
22670SOL    HW169778   1.555   9.116   3.800  0.4151 -2.4194  0.3218
22670SOL    HW269779   1.502   9.059   3.930 -1.9993 -0.1895  0.3806
22671SOL     OW69780   0.075   6.978   5.880 -0.1716 -0.2564 -0.0819
22671SOL    HW169781   0.016   7.009   5.812 -0.9746 -1.3763  0.0722
22671SOL    HW269782   0.124   6.907   5.838  2.0276  1.4818 -0.6054
22672SOL     OW69783   6.821   7.149   3.616  0.0393 -0.5083 -0.5098
22672SOL    HW169784   6.910   7.116   3.601  0.4057  0.4173 -0.4438
22672SOL    HW269785   6.807   7.140   3.710 -0.1768 -1.2164 -0.6016
22673SOL     OW69786   8.801   3.004   4.868 -0.3994 -0.2499  0.2644
22673SOL    HW169787   8.858   2.968   4.800 -1.7999 -0.3664 -0.8957
22673SOL    HW269788   8.792   2.933   4.932 -1.3320 -1.1747 -0.8705
22674SOL     OW69789   5.705   3.276   4.766  0.2009 -0.5870  0.0011
22674SOL    HW169790   5.745   3.323   4.839  0.1813 -0.4195 -0.0954
22674SOL    HW269791   5.693   3.186   4.799 -1.0132 -0.2138  0.6821
22675SOL     OW69792   5.050   0.581   8.779  0.1706  0.0419 -0.5651
22675SOL    HW169793   4.981   0.646   8.794  0.1097 -0.3187  0.7818
22675SOL    HW269794   5.022   0.504   8.828  1.0875 -0.4296 -0.7601
22676SOL     OW69795   9.549   7.381   6.101  0.1431  0.4163 -0.0064
22676SOL    HW169796   9.477   7.424   6.147  0.4476  0.4090  0.4856
22676SOL    HW269797   9.523   7.382   6.009  0.3152  1.9936 -0.0650
22677SOL     OW69798   1.481   3.901   7.682  0.2320  0.2147  0.2942
22677SOL    HW169799   1.489   3.956   7.760  1.0424  1.0846 -0.3694
22677SOL    HW269800   1.568   3.864   7.670  0.1653  0.2480 -0.3029
22678SOL     OW69801   7.379   4.126   1.493 -0.1391 -0.1007 -0.0808
22678SOL    HW169802   7.303   4.089   1.447  0.0109 -1.3681  0.6385
22678SOL    HW269803   7.365   4.102   1.585  1.4615 -0.9892 -0.0350
22679SOL     OW69804   1.773   3.986   8.641 -0.3181 -0.2310  0.2941
22679SOL    HW169805   1.679   3.998   8.658  0.1887  1.9957  2.0374
22679SOL    HW269806   1.787   3.891   8.649 -2.3516 -0.5680  0.3329
22680SOL     OW69807   4.478   9.607   8.692  0.1273 -0.2906 -0.3982
22680SOL    HW169808   4.573   9.608   8.688  0.1183  0.4619 -0.4823
22680SOL    HW269809   4.454   9.687   8.737 -0.5206  0.4063 -1.9062
22681SOL     OW69810   9.750   5.736   0.858  0.0383 -0.3215 -0.4967
22681SOL    HW169811   9.749   5.744   0.953 -0.9070  1.8778 -0.6268
22681SOL    HW269812   9.834   5.775   0.831  0.7599 -1.8523 -0.5378
22682SOL     OW69813   4.060   6.300   8.055  0.5718  0.5764 -0.3903
22682SOL    HW169814   4.002   6.310   7.980 -0.1988 -0.2413  0.0617
22682SOL    HW269815   4.092   6.388   8.074 -2.0705  1.4381  0.5160
22683SOL     OW69816   1.366   6.133   8.999  0.2200 -0.1519 -0.4590
22683SOL    HW169817   1.293   6.195   9.000 -0.2505 -0.6967 -0.2166
22683SOL    HW269818   1.331   6.055   9.043  0.2476 -1.1959 -2.1951
22684SOL     OW69819   3.737   8.756   2.496  0.2305 -0.2048 -0.2712
22684SOL    HW169820   3.764   8.749   2.588  0.8583  1.9299 -0.2392
22684SOL    HW269821   3.803   8.706   2.448  1.3754  0.7392  0.2611
22685SOL     OW69822   5.068   8.564   8.866 -0.3822  0.1476  0.2703
22685SOL    HW169823   5.108   8.588   8.783 -1.4159  0.3400 -0.1825
22685SOL    HW269824   5.110   8.622   8.930 -0.5095  0.9142 -0.3201
22686SOL     OW69825   8.085   3.126   2.861 -0.6297  0.4250  0.6255
22686SOL    HW169826   8.167   3.090   2.894 -1.4894 -1.1436  1.1806
22686SOL    HW269827   8.105   3.217   2.839  1.2258  0.0898  0.7864
22687SOL     OW69828   8.698   7.617   1.226  0.1482  0.4050  0.6839
22687SOL    HW169829   8.720   7.528   1.254  0.8771  0.7747  1.3419
22687SOL    HW269830   8.695   7.668   1.308 -0.8200  0.8773  0.3752
22688SOL     OW69831   0.648   7.839   6.338  0.3778 -0.4195 -0.4947
22688SOL    HW169832   0.639   7.933   6.324  0.2477 -0.4048 -0.3160
22688SOL    HW269833   0.559   7.804   6.326  0.4749 -0.5542 -0.8245
22689SOL     OW69834   8.499   7.076   1.931 -0.1179 -0.0932 -0.0133
22689SOL    HW169835   8.437   7.012   1.966 -0.4481  0.2354  0.0104
22689SOL    HW269836   8.455   7.160   1.943  0.5034  0.1834  0.3733
22690SOL     OW69837   7.818   8.238   8.998 -0.1661 -0.1298 -0.4342
22690SOL    HW169838   7.804   8.332   8.991  0.8850 -0.0205 -1.3626
22690SOL    HW269839   7.881   8.229   9.071 -1.0035 -0.2088  0.2976
22691SOL     OW69840   9.315   5.759   7.992  0.3175 -0.6273 -0.2293
22691SOL    HW169841   9.370   5.828   7.954  1.0761  1.0472  3.4366
22691SOL    HW269842   9.373   5.684   8.001  0.6759 -0.3948 -0.5655
22692SOL     OW69843   6.347   6.982   9.825 -0.3266 -0.3461 -0.3499
22692SOL    HW169844   6.300   7.006   9.905 -0.5166  0.4631 -0.6872
22692SOL    HW269845   6.279   6.971   9.760 -0.2574 -2.1033 -0.1565
22693SOL     OW69846   2.661   7.267   9.811 -0.1803  0.3858 -0.1770
22693SOL    HW169847   2.590   7.317   9.849  0.8022  2.1615 -0.5530
22693SOL    HW269848   2.664   7.296   9.719  0.5848 -0.1772 -0.3415
22694SOL     OW69849   9.533   6.804   6.498 -0.0026 -0.2776  0.3150
22694SOL    HW169850   9.622   6.792   6.465 -0.3164 -0.3031 -0.5427
22694SOL    HW269851   9.491   6.861   6.434 -0.1701  0.9730  1.4958
22695SOL     OW69852   8.312   6.941   7.149 -0.4882 -0.1777 -0.3501
22695SOL    HW169853   8.361   6.952   7.067  0.4153  0.3638  0.2346
22695SOL    HW269854   8.368   6.884   7.203  1.3120  3.1586  1.6532
22696SOL     OW69855   2.918   1.355   6.506 -0.5953  0.6865 -0.0710
22696SOL    HW169856   3.008   1.325   6.499 -0.5378  0.4885  1.2513
22696SOL    HW269857   2.924   1.445   6.536 -0.8265  0.3628  1.0094
22697SOL     OW69858   9.839   5.781   6.797 -0.2702  0.1158  0.2998
22697SOL    HW169859   9.844   5.760   6.890  4.1318 -0.7449  0.0724
22697SOL    HW269860   9.897   5.856   6.786 -1.7963  1.1188 -1.6446
22698SOL     OW69861   6.528   4.409   7.227 -0.1536 -0.3603 -0.0306
22698SOL    HW169862   6.461   4.342   7.239  2.0054 -2.8315 -0.8828
22698SOL    HW269863   6.512   4.442   7.138 -1.3390  0.5069  0.4622
22699SOL     OW69864   9.528   3.394   1.908  0.7763  0.0001 -0.3049
22699SOL    HW169865   9.497   3.361   1.992  1.7141 -0.6826 -0.2085
22699SOL    HW269866   9.541   3.488   1.923 -0.6827  0.2038 -0.2012
22700SOL     OW69867   5.552   0.430   0.079 -0.1472  0.1163  0.2921
22700SOL    HW169868   5.498   0.470   0.147 -0.2900  1.2572 -0.4523
22700SOL    HW269869   5.642   0.451   0.104 -0.1823  0.2332  0.3221
22701SOL     OW69870   2.462   1.748   0.748 -0.2098  0.1017  0.0997
22701SOL    HW169871   2.480   1.779   0.837 -0.0386 -1.7558  0.7603
22701SOL    HW269872   2.542   1.764   0.700 -1.1730  3.7467 -0.6006
22702SOL     OW69873   0.594   7.696   2.401  0.7529  0.0423 -0.0420
22702SOL    HW169874   0.572   7.787   2.382  2.4448  0.7388  1.1104
22702SOL    HW269875   0.689   7.695   2.408  0.6886 -1.5178  1.3869
22703SOL     OW69876   9.747   8.541   8.461 -0.3335  0.1864  0.0202
22703SOL    HW169877   9.826   8.580   8.498 -0.4952 -0.3871  1.0055
22703SOL    HW269878   9.697   8.511   8.537 -0.7627 -0.8618 -0.6448
22704SOL     OW69879   3.099   5.608   3.966  0.3620 -0.0734 -0.2656
22704SOL    HW169880   3.052   5.687   3.938 -0.0321  0.0280  0.6535
22704SOL    HW269881   3.108   5.556   3.887  1.3779  1.2655 -1.0909
22705SOL     OW69882   7.111   8.427   7.528  0.3547 -0.6442 -0.4348
22705SOL    HW169883   7.105   8.442   7.434  1.7356  0.4802 -0.3946
22705SOL    HW269884   7.198   8.389   7.541  1.1177  1.2514  0.5443
22706SOL     OW69885   2.635   4.574   5.620 -0.1267 -0.0491 -0.0642
22706SOL    HW169886   2.568   4.609   5.679 -0.1553  1.6086 -1.0279
22706SOL    HW269887   2.591   4.562   5.536  1.1387  3.1015 -1.3429
22707SOL     OW69888   0.456   0.627   1.587 -0.6486 -0.5756  0.5401
22707SOL    HW169889   0.363   0.619   1.566 -1.0646  0.9707  1.6902
22707SOL    HW269890   0.466   0.583   1.671 -0.7420  0.8887  1.3456
22708SOL     OW69891   9.162   5.111   0.994  0.4208 -0.1244 -0.2853
22708SOL    HW169892   9.248   5.069   0.991 -0.3726 -1.7805 -2.1737
22708SOL    HW269893   9.169   5.185   0.933 -0.0148 -1.4810 -2.0643
22709SOL     OW69894   3.327   8.357   0.226  0.2323 -0.2445  0.5064
22709SOL    HW169895   3.400   8.410   0.257 -0.2087  0.8941 -0.3565
22709SOL    HW269896   3.273   8.417   0.175 -1.9279 -0.7836  2.0477
22710SOL     OW69897   9.751   2.088   1.854 -0.4614 -0.0271 -0.1299
22710SOL    HW169898   9.759   2.149   1.928  1.7846  1.0576 -1.1438
22710SOL    HW269899   9.735   2.145   1.778  2.0167 -0.5673 -1.1548
22711SOL     OW69900   9.340   3.741   3.820 -0.0027 -1.0086 -0.2169
22711SOL    HW169901   9.374   3.823   3.782  2.4757 -1.9998 -0.3239
22711SOL    HW269902   9.279   3.770   3.888 -0.0539  0.8950 -0.9876
22712SOL     OW69903   4.888   4.946   6.037 -0.2409 -0.2878  0.8592
22712SOL    HW169904   4.792   4.944   6.036 -0.3075  1.3506  0.8928
22712SOL    HW269905   4.911   4.951   6.130  0.0111 -3.1325  1.0181
22713SOL     OW69906   4.384   7.057   9.687  0.5042  0.2623  0.0830
22713SOL    HW169907   4.329   7.121   9.733 -0.0062  1.7449 -2.3938
22713SOL    HW269908   4.322   6.996   9.648  0.8416 -0.0877  0.0952
22714SOL     OW69909   3.846   7.117   2.850  0.5328 -0.2768 -0.4259
22714SOL    HW169910   3.806   7.090   2.933 -0.7176  0.7764 -0.6538
22714SOL    HW269911   3.836   7.041   2.793 -0.2351 -0.3897 -0.1530
22715SOL     OW69912   8.781   0.366   9.387  0.4113  0.0441 -0.0256
22715SOL    HW169913   8.778   0.462   9.380 -1.4560 -0.0680 -1.7661
22715SOL    HW269914   8.757   0.336   9.299 -0.2088 -2.0161  0.8093
22716SOL     OW69915   7.395   1.414   3.425  0.1975  0.3954 -0.0963
22716SOL    HW169916   7.323   1.367   3.466  0.3936 -0.0980 -0.3067
22716SOL    HW269917   7.462   1.347   3.410  0.5954  0.7987 -0.1381
22717SOL     OW69918   7.482   7.867   4.368  0.0527  0.1887  0.3920
22717SOL    HW169919   7.404   7.828   4.328  1.1683 -0.4935 -1.2707
22717SOL    HW269920   7.496   7.817   4.448 -1.2617  0.4008  0.7756
22718SOL     OW69921   1.139   4.571   1.931  0.1998  0.2383  0.0849
22718SOL    HW169922   1.135   4.591   1.838  0.3713  0.5520  0.1418
22718SOL    HW269923   1.095   4.487   1.940  1.4338 -0.5097 -0.4949
22719SOL     OW69924   5.417   4.230   6.822 -0.0720 -0.0979  0.6644
22719SOL    HW169925   5.479   4.212   6.750 -1.5495  0.7801 -0.8954
22719SOL    HW269926   5.391   4.143   6.853  0.5382 -0.4982  0.1043
22720SOL     OW69927   3.387   0.376   5.044 -0.1382  0.0344  0.0864
22720SOL    HW169928   3.294   0.398   5.049 -0.2483 -0.6803  2.6525
22720SOL    HW269929   3.393   0.289   5.084  1.5744 -0.1792 -0.5562
22721SOL     OW69930   7.130   8.534   8.892 -0.1973  0.4417 -0.3668
22721SOL    HW169931   7.091   8.529   8.805 -0.2357  3.8119 -0.6877
22721SOL    HW269932   7.064   8.578   8.946  0.3881 -0.2873  0.9868
22722SOL     OW69933   6.973   8.255   0.936 -0.0509 -0.0924  0.1721
22722SOL    HW169934   7.042   8.190   0.951  0.5401  0.6625  0.7828
22722SOL    HW269935   6.949   8.243   0.845  1.0204 -0.2539 -0.1057
22723SOL     OW69936   8.994   8.491   3.856 -0.2052 -0.1002 -0.6355
22723SOL    HW169937   8.960   8.548   3.925 -0.9935  1.2550 -2.0847
22723SOL    HW269938   8.930   8.498   3.785  0.0513 -2.2725 -1.1297
22724SOL     OW69939   5.746   4.083   3.892 -0.4508 -0.1324  0.3392
22724SOL    HW169940   5.758   4.170   3.930  0.0362  0.7802 -1.7579
22724SOL    HW269941   5.831   4.040   3.901 -0.3835  0.0160  0.4042
22725SOL     OW69942   5.038   4.282   0.744  0.3559 -0.4413  0.2125
22725SOL    HW169943   5.067   4.306   0.832 -0.0214 -0.0457  0.2331
22725SOL    HW269944   4.977   4.209   0.758  1.1304 -1.1034  0.1888
22726SOL     OW69945   6.447   8.753   0.458 -0.1100  0.1984 -0.0608
22726SOL    HW169946   6.425   8.660   0.464 -3.0636  0.7961 -0.0098
22726SOL    HW269947   6.409   8.781   0.375  0.3976  1.4538  0.1133
22727SOL     OW69948   1.231   3.966   2.265 -0.2141  0.2894  0.1400
22727SOL    HW169949   1.199   3.876   2.265 -2.3208  0.9775 -0.6557
22727SOL    HW269950   1.266   3.979   2.353 -0.2342 -1.1694  0.3875
22728SOL     OW69951   7.364   9.213   6.797  0.6782 -0.5354  0.3475
22728SOL    HW169952   7.296   9.189   6.733  1.1228 -2.7374  0.6183
22728SOL    HW269953   7.445   9.209   6.747  0.7812  0.2847  0.4514
22729SOL     OW69954   5.416   4.642   5.721  0.0995 -0.1545 -0.3943
22729SOL    HW169955   5.385   4.639   5.630  0.9158 -0.1330 -0.6750
22729SOL    HW269956   5.358   4.581   5.767  0.5556 -1.2326 -1.2020
22730SOL     OW69957   8.266   4.955   2.147  0.2457  0.4879  0.3310
22730SOL    HW169958   8.356   4.985   2.160  0.7935 -0.6959 -0.5280
22730SOL    HW269959   8.274   4.862   2.128 -1.0708  0.5871 -0.9071
22731SOL     OW69960   3.895   0.889   2.038 -0.1973 -0.3747 -0.1640
22731SOL    HW169961   3.971   0.930   1.997 -0.6113  0.2971 -0.2732
22731SOL    HW269962   3.889   0.930   2.124 -0.4544 -0.4118 -0.1636
22732SOL     OW69963   2.941   6.494   3.175  0.2735 -0.9536 -0.3044
22732SOL    HW169964   2.974   6.582   3.155  0.3623 -0.9827 -0.2850
22732SOL    HW269965   2.933   6.493   3.271 -0.7752 -0.5873 -0.3675
22733SOL     OW69966   4.308   6.632   7.306 -0.3752  0.1599 -0.1753
22733SOL    HW169967   4.214   6.654   7.308 -0.2626  0.6532 -0.2008
22733SOL    HW269968   4.311   6.546   7.264 -0.8982 -0.3059  0.6833
22734SOL     OW69969   6.250   6.387   0.723 -0.0687 -0.1091  0.7485
22734SOL    HW169970   6.249   6.357   0.813  0.0420 -0.7167  0.5524
22734SOL    HW269971   6.273   6.309   0.672 -1.4505 -0.0865  0.0701
22735SOL     OW69972   1.476   0.137   6.233 -0.0051 -0.3468 -0.2783
22735SOL    HW169973   1.527   0.061   6.260 -1.1447 -0.7655  0.7655
22735SOL    HW269974   1.521   0.169   6.154 -0.4062 -3.0781 -1.7479
22736SOL     OW69975   7.530   9.226   1.592  0.2861 -0.3160 -0.0336
22736SOL    HW169976   7.443   9.208   1.628  0.3865 -0.3149  0.2097
22736SOL    HW269977   7.576   9.273   1.662  0.4888 -0.3299 -0.1566
22737SOL     OW69978   6.994   6.390   1.435 -0.6089 -0.1076 -0.0540
22737SOL    HW169979   7.071   6.346   1.400  0.0189 -0.5096  1.7343
22737SOL    HW269980   7.016   6.483   1.433 -0.4761 -0.1467 -0.4554
22738SOL     OW69981   0.437   8.666   9.287  0.5108  0.4835  0.0944
22738SOL    HW169982   0.454   8.710   9.370 -1.2521  1.7221 -0.1509
22738SOL    HW269983   0.426   8.574   9.310 -1.0934  0.9652  1.4583
22739SOL     OW69984   9.105   8.300   5.020 -0.9153  0.0883  0.6518
22739SOL    HW169985   9.038   8.248   4.976  0.0972 -2.1610  1.6259
22739SOL    HW269986   9.055   8.364   5.070 -2.2793 -0.5515  0.1851
22740SOL     OW69987   3.802   7.203   9.334 -0.2206  0.3679 -0.4535
22740SOL    HW169988   3.813   7.172   9.244 -1.3224 -0.2893 -0.3854
22740SOL    HW269989   3.807   7.124   9.388  0.8540  0.8047  0.1227
22741SOL     OW69990   0.368   0.825   0.444  0.2341  0.9271  0.0857
22741SOL    HW169991   0.397   0.884   0.375 -0.3241 -0.3827 -1.3295
22741SOL    HW269992   0.284   0.790   0.412  0.1633 -0.0144  1.2414
22742SOL     OW69993   4.571   7.559   5.547 -0.3480  0.2370  0.1135
22742SOL    HW169994   4.508   7.561   5.618 -2.0469 -1.9788 -1.2027
22742SOL    HW269995   4.518   7.568   5.467  0.6196 -3.5163 -1.1609
22743SOL     OW69996   1.796   9.176   1.006  0.3387 -0.5155  0.3022
22743SOL    HW169997   1.715   9.208   1.047  0.0525 -0.0702 -0.5759
22743SOL    HW269998   1.765   9.117   0.937  0.6696  0.9032 -1.1090
22744SOL     OW69999   2.523   0.274   4.359 -0.2206 -0.1564  0.2865
22744SOL    HW170000   2.546   0.356   4.402 -1.9502 -0.1587  1.3054
22744SOL    HW270001   2.474   0.301   4.281 -0.4364 -0.1992  0.4050
22745SOL     OW70002   6.557   1.534   6.897  0.0496  0.0419 -0.2344
22745SOL    HW170003   6.637   1.488   6.919 -1.0689 -1.2234  1.5027
22745SOL    HW270004   6.551   1.530   6.802  1.7433 -0.3162 -0.3405
22746SOL     OW70005   4.356   1.521   2.477 -0.2603  0.7555  0.0692
22746SOL    HW170006   4.381   1.501   2.567 -1.1575  0.7653  0.3302
22746SOL    HW270007   4.435   1.503   2.426  0.2165  0.6122  0.8346
22747SOL     OW70008   3.355   6.300   0.070  0.3774 -0.1490  0.0794
22747SOL    HW170009   3.332   6.209   0.089 -2.4600  0.7954  1.7495
22747SOL    HW270010   3.305   6.321  -0.009  0.1051  0.2687  0.3604
22748SOL     OW70011   2.462   7.311   6.304  0.4959  0.0803  0.2916
22748SOL    HW170012   2.522   7.237   6.296  1.4706  0.9127 -0.2230
22748SOL    HW270013   2.416   7.295   6.387 -1.1548 -2.3906 -0.9621
22749SOL     OW70014   9.522   1.787   3.617  0.5224  0.3476  0.0681
22749SOL    HW170015   9.617   1.795   3.631  0.3308  1.8580  0.7432
22749SOL    HW270016   9.513   1.761   3.526  1.6563 -3.1605  0.8249
22750SOL     OW70017   2.982   8.857   5.724 -0.1929 -0.0081 -0.1474
22750SOL    HW170018   3.044   8.791   5.756  0.8637  0.4613 -1.1438
22750SOL    HW270019   2.959   8.908   5.802  0.1164 -0.6485  0.3708
22751SOL     OW70020   6.344   6.169   9.283 -0.3603  0.4957  0.1327
22751SOL    HW170021   6.433   6.168   9.318 -0.9180  1.0568  1.6173
22751SOL    HW270022   6.324   6.077   9.265  0.4778  0.3571 -0.1313
22752SOL     OW70023   5.028   4.099   6.012  0.0746  0.0973 -0.1150
22752SOL    HW170024   4.986   4.053   6.084  0.6197  0.8873  0.7356
22752SOL    HW270025   4.999   4.190   6.022  0.4055  0.2723 -0.6995
22753SOL     OW70026   1.309   9.801   8.548 -0.7672 -0.2301  0.1251
22753SOL    HW170027   1.372   9.863   8.511 -0.9085  0.3883  0.8860
22753SOL    HW270028   1.274   9.846   8.625 -1.4474 -0.9486  0.2478
22754SOL     OW70029   3.455   0.929   7.949 -0.2565  0.3933 -0.0718
22754SOL    HW170030   3.447   0.897   8.039  1.8041  0.4704  0.1889
22754SOL    HW270031   3.507   1.009   7.957  0.9358 -0.2092 -1.4251
22755SOL     OW70032   3.312   5.811   6.497 -0.3337  0.2762  0.2382
22755SOL    HW170033   3.396   5.824   6.454 -0.3049  2.2299  0.7965
22755SOL    HW270034   3.327   5.739   6.559  0.5268 -0.2919 -0.5984
22756SOL     OW70035   1.587   1.399   9.486 -0.0828 -0.0089 -0.4436
22756SOL    HW170036   1.564   1.313   9.450 -1.7433  1.1612 -2.3530
22756SOL    HW270037   1.640   1.440   9.418 -0.1788  0.8990  0.0213
22757SOL     OW70038   2.048   2.306   9.592 -0.2753  0.2525  0.0378
22757SOL    HW170039   1.957   2.278   9.594  0.3129 -1.7673  1.2305
22757SOL    HW270040   2.093   2.248   9.654  1.8061  1.2833 -0.4021
22758SOL     OW70041   6.600   6.679   4.486  0.2047 -0.1479 -0.2065
22758SOL    HW170042   6.540   6.728   4.542 -1.5001 -0.1660 -1.9234
22758SOL    HW270043   6.653   6.747   4.444  0.2941 -0.0288  0.0925
22759SOL     OW70044   2.600   6.198   3.591 -0.2842  0.4550  0.3246
22759SOL    HW170045   2.651   6.265   3.636 -0.5677  0.8991 -0.0121
22759SOL    HW270046   2.546   6.158   3.659 -0.8670  1.2609  0.3525
22760SOL     OW70047   2.992   6.712   3.680 -0.2999 -0.5941 -0.0566
22760SOL    HW170048   3.043   6.749   3.608  0.1892  0.3795  0.7576
22760SOL    HW270049   3.026   6.624   3.691  0.8847 -0.1263  0.1474
22761SOL     OW70050   1.971   0.407   4.033 -0.3246 -0.2235 -0.1651
22761SOL    HW170051   2.049   0.439   3.987 -0.0319  1.0045  1.1119
22761SOL    HW270052   2.006   0.371   4.115 -1.2155  2.5299  1.5553
22762SOL     OW70053   0.604   1.246   8.662  0.7689 -0.2205 -0.0205
22762SOL    HW170054   0.617   1.255   8.567 -0.1710 -1.1200 -0.2561
22762SOL    HW270055   0.579   1.333   8.691 -0.2284 -0.2125 -0.8393
22763SOL     OW70056   2.093   0.827   1.645 -0.6659  0.4319 -0.2303
22763SOL    HW170057   2.179   0.868   1.647  0.0369 -0.9038 -1.1681
22763SOL    HW270058   2.032   0.896   1.669  0.7838  1.0557  1.9204
22764SOL     OW70059   8.298   4.173   7.132 -0.4232  0.1751 -0.6573
22764SOL    HW170060   8.223   4.230   7.114  0.3822  1.8174  0.8283
22764SOL    HW270061   8.369   4.209   7.078 -0.6556 -1.3722 -2.0600
22765SOL     OW70062   1.257   9.449   4.025 -0.4442  0.0217 -0.0400
22765SOL    HW170063   1.307   9.378   4.064 -0.7797 -0.7256 -0.9374
22765SOL    HW270064   1.191   9.471   4.090  1.9305  2.1132  1.8815
22766SOL     OW70065   5.212   1.543   6.883  0.4027 -0.1881  0.6907
22766SOL    HW170066   5.251   1.516   6.800  2.5870 -1.6936  2.1057
22766SOL    HW270067   5.122   1.510   6.879  0.3276  0.1445 -1.2096
22767SOL     OW70068   4.549   7.714   1.296  0.0954  0.3209  0.1227
22767SOL    HW170069   4.527   7.623   1.275 -1.7201  0.1844  2.2598
22767SOL    HW270070   4.611   7.707   1.369 -0.2528  0.7859  0.4665
22768SOL     OW70071   8.942   9.018   5.718  0.1369 -0.9871  0.9318
22768SOL    HW170072   8.946   9.049   5.809  1.4495  0.1353  0.5351
22768SOL    HW270073   8.880   9.077   5.675  0.3751 -0.7845  0.8587
22769SOL     OW70074   2.569   7.675   0.300  0.2068  0.2641 -0.2647
22769SOL    HW170075   2.577   7.612   0.372  0.3603 -0.2339 -0.7156
22769SOL    HW270076   2.524   7.628   0.231  0.6912  0.5145 -0.7589
22770SOL     OW70077   5.308   5.482   8.594  0.2808 -0.5694  0.1339
22770SOL    HW170078   5.214   5.468   8.603  0.0540  0.2904 -0.7656
22770SOL    HW270079   5.329   5.549   8.659  0.0920 -0.0836 -0.2984
22771SOL     OW70080   6.425   7.790   9.600  0.8002  0.2777  0.1700
22771SOL    HW170081   6.427   7.814   9.508  4.2134 -2.1147 -0.5630
22771SOL    HW270082   6.486   7.851   9.642 -2.6648  3.1509  1.6246
22772SOL     OW70083   9.823   3.357   0.416 -0.5152  0.7589  0.2816
22772SOL    HW170084   9.889   3.333   0.351  1.1996  0.9550  1.8565
22772SOL    HW270085   9.744   3.312   0.387  1.2032 -2.5328  0.2199
22773SOL     OW70086   7.683   2.436   8.912  0.0178  0.4416 -0.7313
22773SOL    HW170087   7.718   2.433   9.001  0.2291 -0.9311 -0.8388
22773SOL    HW270088   7.614   2.369   8.911 -2.2595  2.6116 -0.7085
22774SOL     OW70089   4.666   5.083   6.275  0.5397  0.3790  0.2432
22774SOL    HW170090   4.760   5.071   6.290  0.7595  0.6100 -0.8819
22774SOL    HW270091   4.625   5.009   6.320  1.2965 -0.0266  0.2860
22775SOL     OW70092   1.636   1.155   1.391 -0.0084  0.2157 -0.2480
22775SOL    HW170093   1.635   1.063   1.417 -0.0908 -0.3263 -2.0447
22775SOL    HW270094   1.544   1.180   1.390  0.0902  0.8325  1.8126
22776SOL     OW70095   0.361   5.644   1.822 -0.2112 -0.1748 -0.8584
22776SOL    HW170096   0.425   5.595   1.874 -0.4156  0.6714  0.2201
22776SOL    HW270097   0.277   5.604   1.845 -0.2468 -0.1735 -0.9860
22777SOL     OW70098   1.952   0.513   0.187 -0.0752 -0.1652 -0.0747
22777SOL    HW170099   1.917   0.530   0.099  1.0807 -1.1140 -0.7532
22777SOL    HW270100   2.015   0.443   0.174  2.2769  1.6058  1.0103
22778SOL     OW70101   3.167   1.680   0.984  0.0732  0.5680 -0.1200
22778SOL    HW170102   3.189   1.671   1.077  1.0072 -0.4519 -0.4185
22778SOL    HW270103   3.188   1.595   0.946 -1.0142  0.7286 -1.1364
22779SOL     OW70104   8.535   6.035   2.759 -0.0425 -0.2642  0.5899
22779SOL    HW170105   8.461   6.010   2.703  1.2018 -0.0746 -1.2000
22779SOL    HW270106   8.550   6.127   2.738  1.8026 -0.7568 -0.3803
22780SOL     OW70107   6.250   1.719   9.747  0.2601  0.2766 -0.3812
22780SOL    HW170108   6.174   1.750   9.795  0.7756 -0.2295  0.8019
22780SOL    HW270109   6.325   1.751   9.798  0.8520  0.6403 -1.4396
22781SOL     OW70110   8.866   4.938   7.294 -0.2772 -0.0412  0.0953
22781SOL    HW170111   8.879   4.923   7.388  1.9640  0.1073 -0.1312
22781SOL    HW270112   8.822   5.022   7.288  1.1648  0.8061  0.9950
22782SOL     OW70113   2.388   8.086   7.077  0.3628 -0.6107  0.0650
22782SOL    HW170114   2.385   8.134   6.994  1.3696 -1.8930 -0.7460
22782SOL    HW270115   2.427   8.148   7.138 -0.4878  0.3919 -0.3735
22783SOL     OW70116   7.622   0.935   8.788 -0.5745 -0.7479  0.3401
22783SOL    HW170117   7.572   0.864   8.828 -0.0314 -0.4962  1.5086
22783SOL    HW270118   7.598   1.013   8.838  1.5957 -0.7656  1.5337
22784SOL     OW70119   5.317   8.135   4.160  0.1786  0.1710  0.2204
22784SOL    HW170120   5.251   8.070   4.136  0.2978 -0.0433  0.4642
22784SOL    HW270121   5.395   8.108   4.113 -0.1088  0.8633 -0.6745
22785SOL     OW70122   1.345   9.334   0.197  0.2788  0.6209 -0.0955
22785SOL    HW170123   1.425   9.295   0.231 -0.2738  1.1260  1.9261
22785SOL    HW270124   1.354   9.427   0.217 -0.3230  0.8566 -0.8915
22786SOL     OW70125   8.327   8.155   4.028 -0.4903 -0.2912 -0.2460
22786SOL    HW170126   8.327   8.061   4.014  0.7166 -0.2918 -0.3624
22786SOL    HW270127   8.384   8.190   3.960  2.0890  0.1151  1.9179
22787SOL     OW70128   7.517   3.380   0.175 -0.3318  0.0418 -0.2216
22787SOL    HW170129   7.483   3.290   0.173 -1.5109  0.4935 -0.7575
22787SOL    HW270130   7.509   3.411   0.086  0.1707  0.6650 -0.0568
22788SOL     OW70131   2.591   6.631   5.119 -0.1752 -0.7564 -0.1077
22788SOL    HW170132   2.615   6.655   5.030  1.5609 -0.2902  0.4437
22788SOL    HW270133   2.608   6.710   5.171 -1.4396 -0.9206  0.6168
22789SOL     OW70134   4.177   6.916   3.417  0.3525 -0.4615  0.0353
22789SOL    HW170135   4.272   6.920   3.413  0.3793 -0.8188  0.2391
22789SOL    HW270136   4.157   6.822   3.419 -0.0787 -0.4478 -1.7705
22790SOL     OW70137   2.552   3.646   8.781  0.0383 -0.1192  0.2329
22790SOL    HW170138   2.554   3.551   8.768 -0.1046 -0.1267  0.2690
22790SOL    HW270139   2.506   3.680   8.704  2.7726  0.2008 -1.3965
22791SOL     OW70140   1.905   7.384   2.810 -0.3238  0.1982  0.2481
22791SOL    HW170141   1.919   7.309   2.752  0.0745 -0.2509  0.9145
22791SOL    HW270142   1.992   7.422   2.820 -0.4827  0.6018  0.1209
22792SOL     OW70143   3.192   9.323   4.839  0.4538  0.1157  0.6190
22792SOL    HW170144   3.161   9.262   4.906  0.4209  0.1657  0.6499
22792SOL    HW270145   3.253   9.271   4.786  2.0731  0.6069  1.9281
22793SOL     OW70146   7.314   6.461   7.822 -0.1585 -0.0637  0.2484
22793SOL    HW170147   7.282   6.504   7.743  0.9147  0.2756 -0.0034
22793SOL    HW270148   7.324   6.369   7.797  0.2539  0.0583 -0.0299
22794SOL     OW70149   4.403   6.643   4.925 -0.0047  0.3403  0.0342
22794SOL    HW170150   4.496   6.624   4.926  0.1960  1.1209 -1.2241
22794SOL    HW270151   4.395   6.729   4.967 -0.3751 -0.4459  1.6442
22795SOL     OW70152   2.410   2.652   7.579  0.6057  0.3754  0.2410
22795SOL    HW170153   2.393   2.574   7.632  2.2259  0.7851  1.4180
22795SOL    HW270154   2.324   2.694   7.571 -0.0194 -0.7424  0.8492
22796SOL     OW70155   5.865   0.649   6.036  0.2170  0.2063  0.5844
22796SOL    HW170156   5.825   0.614   6.116 -1.7912  0.3698 -0.2960
22796SOL    HW270157   5.850   0.582   5.970 -0.4355  1.1415 -0.2463
22797SOL     OW70158   8.456   9.657   0.729  0.3889  0.4041 -0.2839
22797SOL    HW170159   8.385   9.623   0.783  2.1277 -2.4833  0.4071
22797SOL    HW270160   8.477   9.586   0.669  2.6610  1.1209 -0.4282
22798SOL     OW70161   9.817   4.949   5.576 -0.2278  1.0194  0.3923
22798SOL    HW170162   9.722   4.953   5.589 -0.2213 -1.5023  1.7557
22798SOL    HW270163   9.854   5.002   5.646 -0.5913  1.0092  0.5905
22799SOL     OW70164   0.481   1.743   4.752  0.0094  0.4095 -0.6011
22799SOL    HW170165   0.419   1.672   4.740 -0.8864  1.3236 -1.6058
22799SOL    HW270166   0.567   1.702   4.747 -0.4554 -0.4043 -2.7258
22800SOL     OW70167   2.167   7.132   9.502  0.3343  0.3689  0.1282
22800SOL    HW170168   2.085   7.180   9.510  0.8754  1.4170 -0.4199
22800SOL    HW270169   2.156   7.055   9.557 -0.5828  1.0849  0.9581
22801SOL     OW70170   3.411   4.776   2.179  0.0395 -0.0971  0.4797
22801SOL    HW170171   3.427   4.868   2.201 -1.2960 -0.2676  2.3478
22801SOL    HW270172   3.494   4.732   2.195 -0.0215  0.3610  2.2267
22802SOL     OW70173   8.675   2.269   6.651 -0.2104 -0.0252  0.0403
22802SOL    HW170174   8.653   2.262   6.558  0.7322 -0.3282 -0.1678
22802SOL    HW270175   8.650   2.184   6.688  1.3158 -0.6857 -0.3631
22803SOL     OW70176   6.693   1.256   9.559 -0.1616 -0.2713 -0.2127
22803SOL    HW170177   6.623   1.217   9.611 -1.4183  0.4782 -1.2658
22803SOL    HW270178   6.666   1.347   9.548  1.4227  0.2702  0.0441
22804SOL     OW70179   6.627   3.779   7.335  0.1025 -0.2439  0.0166
22804SOL    HW170180   6.688   3.827   7.278 -0.7907  0.5347 -0.3043
22804SOL    HW270181   6.615   3.836   7.411  0.0907 -0.5859  0.2744
22805SOL     OW70182   3.046   2.140   3.501 -0.3134 -0.4737 -0.5436
22805SOL    HW170183   3.114   2.164   3.563  1.7280  1.3114 -3.2238
22805SOL    HW270184   3.034   2.219   3.447 -2.4267 -1.6721 -1.9872
22806SOL     OW70185   5.036   8.193   0.760  0.5878  0.1030  0.1454
22806SOL    HW170186   5.042   8.167   0.668 -2.3338  2.9401 -1.0433
22806SOL    HW270187   5.062   8.285   0.761 -0.3060  0.3833  1.9865
22807SOL     OW70188   9.151   5.258   4.513  0.0483  0.3949  0.5905
22807SOL    HW170189   9.133   5.352   4.508 -1.0378  0.1434 -1.8698
22807SOL    HW270190   9.237   5.252   4.553  1.9513  2.7440 -2.6256
22808SOL     OW70191   3.160   0.764   6.165 -0.6732  0.3029  0.7992
22808SOL    HW170192   3.130   0.684   6.207  0.3591  0.2294  1.4393
22808SOL    HW270193   3.091   0.828   6.184 -2.6819 -0.9533 -1.7074
22809SOL     OW70194   7.805   5.581   1.211  0.0562  0.2876 -0.3468
22809SOL    HW170195   7.833   5.636   1.137  1.9942 -0.2309 -0.0654
22809SOL    HW270196   7.807   5.640   1.286  0.2730  0.2913 -0.3536
22810SOL     OW70197   5.727   4.064   6.926  0.1429 -0.0723 -0.0458
22810SOL    HW170198   5.729   4.144   6.873  1.4032 -0.3114 -0.3874
22810SOL    HW270199   5.644   4.069   6.972  0.0171  1.2548 -0.3560
22811SOL     OW70200   3.633   9.347   3.514 -0.2201 -0.2408  0.3347
22811SOL    HW170201   3.589   9.404   3.451  0.4607 -0.8841 -0.7780
22811SOL    HW270202   3.722   9.383   3.521 -0.0572 -0.6302  0.3125
22812SOL     OW70203   9.485   2.537   6.527 -0.9298 -0.1195  0.2427
22812SOL    HW170204   9.546   2.540   6.601  0.7933  3.7520 -1.0172
22812SOL    HW270205   9.402   2.566   6.563 -0.1546  1.5579  0.7856
22813SOL     OW70206   2.516   0.285   4.909  0.0194  0.2153  0.7042
22813SOL    HW170207   2.543   0.194   4.897  1.5656  0.7384 -0.0682
22813SOL    HW270208   2.490   0.291   5.001  0.1638 -0.9202  0.8341
22814SOL     OW70209   8.097   8.683   4.435 -0.5691  0.3615 -0.1736
22814SOL    HW170210   8.122   8.692   4.343 -0.1880  1.1828 -0.0010
22814SOL    HW270211   8.012   8.638   4.433  0.2051 -1.1759 -0.8452
22815SOL     OW70212   5.684   9.800   0.037  0.1010 -0.5988  0.6642
22815SOL    HW170213   5.714   9.829  -0.049 -1.1776  1.0339  0.7110
22815SOL    HW270214   5.666   9.706   0.027 -1.6227 -0.1282 -1.3591
22816SOL     OW70215   6.480   1.144   9.075 -0.8569  0.4203 -0.7909
22816SOL    HW170216   6.435   1.166   9.157 -0.5030 -1.0126 -0.1795
22816SOL    HW270217   6.422   1.079   9.033 -1.2920  1.5193 -1.9463
22817SOL     OW70218   0.824   5.188   7.382 -0.7113 -0.4127  0.0988
22817SOL    HW170219   0.790   5.101   7.364 -1.1716 -0.0245 -1.0351
22817SOL    HW270220   0.755   5.231   7.433  0.2617 -1.2570  2.2363
22818SOL     OW70221   7.922   1.058   6.228  0.0137 -0.0630 -0.6850
22818SOL    HW170222   7.830   1.069   6.204 -0.1308 -1.6877 -1.0079
22818SOL    HW270223   7.920   1.019   6.315  0.3847 -0.2045 -0.7344
22819SOL     OW70224   8.429   4.707   4.491  0.1694  0.3274  0.4455
22819SOL    HW170225   8.474   4.627   4.517 -0.4498  0.0475  0.6789
22819SOL    HW270226   8.369   4.679   4.422 -0.9455  0.3377  1.3728
22820SOL     OW70227   8.500   4.979   3.452 -0.4297 -0.2467 -0.4966
22820SOL    HW170228   8.585   5.019   3.472  0.9729 -2.0872 -2.3647
22820SOL    HW270229   8.471   4.943   3.536  1.2582 -0.6673 -0.0509
22821SOL     OW70230   5.228   6.729   1.552  0.6594  0.3731  0.1022
22821SOL    HW170231   5.297   6.786   1.517  0.3793 -0.2282 -1.5438
22821SOL    HW270232   5.242   6.645   1.507  0.2406 -0.4721  1.4686
22822SOL     OW70233   4.285   4.088   5.365  0.1369 -0.3503  0.2114
22822SOL    HW170234   4.293   4.056   5.455  0.4452 -1.6461 -0.2552
22822SOL    HW270235   4.232   4.021   5.320  0.2149  0.1349 -0.6303
22823SOL     OW70236   0.920   9.572   4.140 -0.1142 -0.2500 -0.1841
22823SOL    HW170237   0.836   9.576   4.186  0.1284 -0.1842  0.2556
22823SOL    HW270238   0.956   9.486   4.164  0.2251 -0.0228  0.1292
22824SOL     OW70239   3.893   3.633   3.708  0.1823  0.6184  0.0216
22824SOL    HW170240   3.892   3.651   3.802 -1.1466 -0.1485  0.1808
22824SOL    HW270241   3.860   3.713   3.667  1.6132  1.2913  0.1029
22825SOL     OW70242   8.366   9.446   7.056 -0.1514  0.5235  0.2754
22825SOL    HW170243   8.279   9.416   7.083 -0.8002  1.7923 -0.3403
22825SOL    HW270244   8.359   9.461   6.962  0.2344  2.2262  0.4821
22826SOL     OW70245   0.967   9.234   6.875  0.1426 -0.3429  0.0623
22826SOL    HW170246   0.878   9.237   6.909 -0.5259 -0.5567 -1.5542
22826SOL    HW270247   1.013   9.304   6.922 -0.9992  0.0775  0.6026
22827SOL     OW70248   4.033   8.180   8.353  0.0688 -0.1044 -0.0350
22827SOL    HW170249   4.095   8.148   8.419  1.8922 -1.7898 -2.3923
22827SOL    HW270250   4.085   8.237   8.297 -1.0639  0.1784 -0.8292
22828SOL     OW70251   5.266   7.852   4.101 -0.1297 -0.2043  0.0062
22828SOL    HW170252   5.274   7.862   4.006  0.3409 -2.1776 -0.1949
22828SOL    HW270253   5.229   7.765   4.113  2.1413 -1.0160  1.6772
22829SOL     OW70254   5.654   4.194   2.282 -0.2190  0.3204 -0.2306
22829SOL    HW170255   5.666   4.120   2.223  1.3720  0.1845  0.2360
22829SOL    HW270256   5.579   4.170   2.336 -0.7450 -0.2066 -1.1617
22830SOL     OW70257   0.516   1.854   4.219 -0.2816  0.2396 -0.2701
22830SOL    HW170258   0.444   1.888   4.273  0.1771 -0.0645  0.5573
22830SOL    HW270259   0.505   1.897   4.135  0.7560  3.1034  0.9275
22831SOL     OW70260   3.317   0.684   3.587 -0.7564  0.5523 -0.3575
22831SOL    HW170261   3.226   0.691   3.558 -1.7057 -3.0001  1.1572
22831SOL    HW270262   3.315   0.706   3.680 -0.0308  0.6665 -0.3608
22832SOL     OW70263   5.623   0.136   9.085 -0.2330  0.0949  0.3788
22832SOL    HW170264   5.708   0.153   9.126  0.1123  2.0978 -1.0074
22832SOL    HW270265   5.622   0.193   9.008 -2.6841 -0.1678  0.1394
22833SOL     OW70266   3.526   3.050   9.648  0.2056 -0.3484  0.3817
22833SOL    HW170267   3.439   3.067   9.685 -0.7727 -3.6641 -0.0703
22833SOL    HW270268   3.574   3.006   9.717 -1.0550 -5.0109 -1.3640
22834SOL     OW70269   0.676   7.802   8.246 -0.2060  0.1938  0.2292
22834SOL    HW170270   0.653   7.711   8.264 -2.4994  0.8271  0.8349
22834SOL    HW270271   0.710   7.836   8.329 -2.4420  0.7107  1.0092
22835SOL     OW70272   8.045   7.703   0.097  0.2959  0.5999 -0.4517
22835SOL    HW170273   8.122   7.651   0.121  0.1251  0.6427  0.2063
22835SOL    HW270274   8.071   7.748   0.017  1.1878  1.0974  0.1042
22836SOL     OW70275   2.720   3.074   7.894 -0.1127 -0.3002  0.3841
22836SOL    HW170276   2.625   3.086   7.899 -0.3222 -1.0770 -1.0825
22836SOL    HW270277   2.741   3.085   7.801  1.4159  0.9603  0.8158
22837SOL     OW70278   8.320   2.542   7.595  0.1958 -0.3256 -0.1886
22837SOL    HW170279   8.384   2.493   7.646  0.3881  0.0859 -0.0287
22837SOL    HW270280   8.340   2.634   7.613  0.0199 -0.1822 -0.7039
22838SOL     OW70281   2.049   0.291   7.663  0.1445  0.4202 -0.3096
22838SOL    HW170282   2.063   0.386   7.665 -0.3974  0.4967 -0.0537
22838SOL    HW270283   1.973   0.279   7.605  1.3434 -0.0049 -1.8705
22839SOL     OW70284   3.113   1.151   1.232  0.7123 -0.1957  0.0386
22839SOL    HW170285   3.164   1.092   1.288  0.7726  0.1078  0.3064
22839SOL    HW270286   3.071   1.093   1.168  0.2365 -0.6121  0.7102
22840SOL     OW70287   8.724   8.986   8.668 -0.1536 -0.1390 -0.3707
22840SOL    HW170288   8.776   8.941   8.734 -1.2600 -2.0092 -0.7001
22840SOL    HW270289   8.748   9.078   8.678  1.5716 -0.6621  0.9190
22841SOL     OW70290   8.192   3.246   4.881  0.2574 -0.9622  0.7786
22841SOL    HW170291   8.110   3.216   4.921 -0.4720 -1.1881 -0.8194
22841SOL    HW270292   8.178   3.339   4.865  0.9711 -0.6207  2.0069
22842SOL     OW70293   3.132   3.029   8.198  0.1649  0.3362 -0.1681
22842SOL    HW170294   3.080   3.107   8.219 -0.7299  0.5051 -2.7537
22842SOL    HW270295   3.086   2.958   8.243 -0.6352  0.8964 -0.0684
22843SOL     OW70296   6.640   8.614   7.475 -0.1075 -0.0183  0.2846
22843SOL    HW170297   6.619   8.595   7.566  1.9177 -0.3569  0.7383
22843SOL    HW270298   6.681   8.534   7.443 -0.4399  0.2401 -0.8159
22844SOL     OW70299   6.732   3.226   4.399 -0.0549  0.5272 -0.2534
22844SOL    HW170300   6.705   3.306   4.354 -1.3875  0.0247 -0.3613
22844SOL    HW270301   6.816   3.204   4.358 -0.1875  1.2816 -0.9714
22845SOL     OW70302   0.669   7.991   9.181  0.6160 -0.1647 -0.3507
22845SOL    HW170303   0.661   7.926   9.250 -2.0660  1.4759  1.0201
22845SOL    HW270304   0.740   8.049   9.211 -0.0580  0.1329  0.7280
22846SOL     OW70305   3.389   6.671   8.235  0.2186 -0.2262  0.1659
22846SOL    HW170306   3.413   6.712   8.151  2.4764  1.1844  1.4057
22846SOL    HW270307   3.426   6.582   8.229 -0.7206 -0.5795 -0.7740
22847SOL     OW70308   4.026   5.928   8.868  0.3312  0.1831 -0.5127
22847SOL    HW170309   3.997   6.015   8.896  1.3089 -0.3018  2.2761
22847SOL    HW270310   4.118   5.940   8.845  0.9962 -0.3663  1.6268
22848SOL     OW70311   3.708   5.644   8.338  0.2628 -0.5855  0.1896
22848SOL    HW170312   3.792   5.606   8.362 -0.0151 -0.5467  1.2975
22848SOL    HW270313   3.673   5.585   8.270  0.5898 -1.3559  0.6722
22849SOL     OW70314   0.649   2.733   5.230 -0.3761 -0.5280 -0.1730
22849SOL    HW170315   0.560   2.766   5.243 -0.0211  0.7410 -0.8480
22849SOL    HW270316   0.639   2.666   5.161 -0.6457  0.5402 -1.2117
22850SOL     OW70317   4.761   0.371   2.534  0.4614 -0.3054 -0.0232
22850SOL    HW170318   4.783   0.386   2.442  0.0623 -0.9861 -0.2364
22850SOL    HW270319   4.768   0.277   2.546 -0.7025 -0.3692  0.3164
22851SOL     OW70320   9.848   0.708   4.625  0.3619  0.1960  0.0662
22851SOL    HW170321   9.853   0.784   4.683  1.2396  0.8177 -0.7861
22851SOL    HW270322   9.780   0.731   4.561 -1.6033 -1.0584  1.5798
22852SOL     OW70323   4.678   5.780   7.837 -1.2913  0.3063 -0.3161
22852SOL    HW170324   4.691   5.735   7.753 -1.0381  1.0011 -0.6620
22852SOL    HW270325   4.742   5.852   7.835 -1.6389  0.6373  0.2462
22853SOL     OW70326   7.093   0.117   6.824  0.5209 -0.3223  0.4749
22853SOL    HW170327   7.029   0.155   6.885 -0.7129 -1.0304 -0.3464
22853SOL    HW270328   7.045   0.048   6.778  1.6138 -0.2585 -0.8214
22854SOL     OW70329   6.033   1.289   0.951  0.4856 -0.4355  0.4676
22854SOL    HW170330   5.961   1.343   0.983  1.7026  1.1797  0.6219
22854SOL    HW270331   5.991   1.221   0.899 -1.2494 -0.6921  2.1177
22855SOL     OW70332   6.814   4.985   3.787  0.0377 -0.0732 -0.3831
22855SOL    HW170333   6.813   4.892   3.809  1.3443 -0.5844 -2.1570
22855SOL    HW270334   6.758   5.026   3.852 -0.3925 -2.0648  0.5947
22856SOL     OW70335   3.777   1.721   9.379  0.4315 -0.6171  0.8133
22856SOL    HW170336   3.749   1.650   9.320  1.9499  0.4120 -1.2658
22856SOL    HW270337   3.712   1.790   9.366  0.8859 -0.3059  0.1266
22857SOL     OW70338   9.180   6.748   7.458 -0.2577  0.5639  0.4430
22857SOL    HW170339   9.224   6.822   7.500  0.1810  1.2963 -1.2029
22857SOL    HW270340   9.156   6.690   7.530  0.2821  1.8278  1.6930
22858SOL     OW70341   7.152   6.690   8.720  0.4545  0.0957  0.2536
22858SOL    HW170342   7.240   6.661   8.697  0.2233 -0.6681  0.2837
22858SOL    HW270343   7.142   6.668   8.813  0.4800  0.8162  0.4254
22859SOL     OW70344   2.411   6.662   0.819  0.1011 -0.0492 -0.0189
22859SOL    HW170345   2.456   6.682   0.736  0.8876  1.1970  0.6732
22859SOL    HW270346   2.400   6.748   0.860  0.3240 -0.7216  1.4769
22860SOL     OW70347   3.648   6.402   5.774  0.1057 -0.0393 -0.7798
22860SOL    HW170348   3.729   6.453   5.781  0.1011  0.1892 -2.0567
22860SOL    HW270349   3.630   6.399   5.680 -0.3863 -1.6436 -0.6607
22861SOL     OW70350   0.970   1.316   2.374  0.0253  0.5212  0.2349
22861SOL    HW170351   1.055   1.321   2.419  0.4222  1.3975 -0.5848
22861SOL    HW270352   0.954   1.405   2.343 -0.2444 -0.0459 -1.3228
22862SOL     OW70353   9.202   4.379   6.446 -0.1701  0.4459 -0.5425
22862SOL    HW170354   9.280   4.327   6.427  0.1557  1.0324 -0.8767
22862SOL    HW270355   9.231   4.441   6.513 -0.6400 -0.0044  0.0856
22863SOL     OW70356   0.235   1.289   6.801  0.5139  0.2324 -0.0625
22863SOL    HW170357   0.301   1.344   6.758  0.2971  1.0424  0.6227
22863SOL    HW270358   0.262   1.287   6.893 -1.3740  2.1162  0.6250
22864SOL     OW70359   0.343   6.219   2.001 -0.5635 -0.2031 -0.2456
22864SOL    HW170360   0.328   6.207   1.907  1.5163  0.6948 -0.7351
22864SOL    HW270361   0.395   6.143   2.027  0.8509  0.7030 -0.3521
22865SOL     OW70362   8.454   0.297   1.884  0.0588  0.3199 -0.0549
22865SOL    HW170363   8.486   0.380   1.921  0.0545  0.3181 -0.0468
22865SOL    HW270364   8.389   0.266   1.948  0.4062  0.0686  0.1815
22866SOL     OW70365   2.480   8.303   2.690 -0.2205 -0.4533  0.1394
22866SOL    HW170366   2.415   8.332   2.754  0.5803  0.0419  0.7616
22866SOL    HW270367   2.519   8.225   2.729  0.1565 -0.2471  0.1777
22867SOL     OW70368   3.247   3.478   3.161 -0.1235  0.1610  0.1303
22867SOL    HW170369   3.155   3.486   3.186 -0.0420 -0.3939  0.6226
22867SOL    HW270370   3.278   3.399   3.206 -0.0894 -1.1842 -2.1056
22868SOL     OW70371   5.022   9.403   4.918  0.1934  0.4250 -0.1366
22868SOL    HW170372   5.099   9.400   4.976 -0.0925 -0.0934  0.2226
22868SOL    HW270373   5.058   9.430   4.833  0.8335 -0.1801 -0.0677
22869SOL     OW70374   4.983   3.194   2.560  0.0724  0.1489 -0.6392
22869SOL    HW170375   4.913   3.242   2.515 -2.3157 -2.2810  0.2237
22869SOL    HW270376   4.949   3.106   2.572  2.0571 -0.3674  2.5683
22870SOL     OW70377   0.340   8.202   8.783 -0.4498 -0.0778 -0.0064
22870SOL    HW170378   0.283   8.267   8.825  0.7480 -0.2540  2.0137
22870SOL    HW270379   0.281   8.148   8.731 -1.5634  2.2510 -1.3372
22871SOL     OW70380   4.293   1.909   7.542 -0.1625 -0.6662  0.6650
22871SOL    HW170381   4.333   1.974   7.484 -0.2606 -1.2212 -0.0443
22871SOL    HW270382   4.233   1.959   7.597  0.8432  0.0464  1.1332
22872SOL     OW70383   6.024   1.759   7.860 -0.0883 -0.1234 -0.6294
22872SOL    HW170384   5.974   1.836   7.836 -0.4883 -0.5766 -1.3065
22872SOL    HW270385   5.972   1.685   7.827 -0.1674 -0.7377  0.8116
22873SOL     OW70386   7.854   0.863   3.495  0.4164 -0.4132  0.6211
22873SOL    HW170387   7.818   0.951   3.500  0.0411 -0.6331  3.0868
22873SOL    HW270388   7.945   0.872   3.523  1.0030 -0.5506 -1.1170
22874SOL     OW70389   5.107   3.609   2.731  0.3232 -0.1992 -0.0434
22874SOL    HW170390   5.074   3.520   2.720  1.1830 -0.2237 -4.0034
22874SOL    HW270391   5.186   3.599   2.785 -0.4950 -1.5421  0.9598
22875SOL     OW70392   8.465   0.765   1.693  0.4251 -0.1424  0.0133
22875SOL    HW170393   8.444   0.823   1.620 -0.5154  0.8107  1.0017
22875SOL    HW270394   8.559   0.778   1.709  0.2157  1.1389  0.2400
22876SOL     OW70395   2.345   8.977   3.311 -0.2255  0.3069  0.0458
22876SOL    HW170396   2.387   8.969   3.226 -0.3830  2.0555 -0.2201
22876SOL    HW270397   2.285   9.051   3.302 -1.9575 -0.8837  0.9927
22877SOL     OW70398   0.376   4.188   4.099 -0.2538 -0.0634  0.2996
22877SOL    HW170399   0.381   4.247   4.174  1.6532 -1.2898  1.2115
22877SOL    HW270400   0.463   4.193   4.059 -0.1407 -1.9948  0.2316
22878SOL     OW70401   8.176   7.445   8.272  0.6089 -0.0379  0.8143
22878SOL    HW170402   8.256   7.416   8.315  2.0142  1.1847 -0.8200
22878SOL    HW270403   8.190   7.424   8.179 -1.6796 -1.2733  0.6932
22879SOL     OW70404   8.464   7.090   2.618  0.1579 -0.0656  0.3970
22879SOL    HW170405   8.446   7.122   2.530 -0.1000  0.1379  0.5232
22879SOL    HW270406   8.410   7.144   2.675 -1.5538 -1.7593  0.5043
22880SOL     OW70407   0.248   3.923   4.079  0.1820  0.2408 -0.2460
22880SOL    HW170408   0.226   4.008   4.040 -2.3811 -0.1960  0.1159
22880SOL    HW270409   0.215   3.929   4.169 -0.2265 -1.2065 -0.2811
22881SOL     OW70410   3.384   4.069   1.193 -0.4458  0.4681  0.0205
22881SOL    HW170411   3.397   3.988   1.243  3.0051  0.4095 -0.7502
22881SOL    HW270412   3.443   4.132   1.234 -1.2946  1.8953 -0.8995
22882SOL     OW70413   5.347   1.641   2.913 -0.1740  0.6423  0.2392
22882SOL    HW170414   5.295   1.680   2.842 -1.2934 -0.0706  0.6394
22882SOL    HW270415   5.301   1.559   2.933  0.5918  0.4526  1.2413
22883SOL     OW70416   1.251   4.059   9.519  0.5404 -0.1669  0.1886
22883SOL    HW170417   1.316   4.087   9.454  0.5688  0.3706  0.4447
22883SOL    HW270418   1.248   3.964   9.510  1.1563 -0.1714 -0.0238
22884SOL     OW70419   8.901   0.872   3.899  0.0631 -0.0100 -0.2406
22884SOL    HW170420   8.929   0.961   3.878 -0.6746  0.8764  2.2380
22884SOL    HW270421   8.923   0.861   3.991 -1.9529 -1.5391  0.1184
22885SOL     OW70422   3.023   4.817   0.373 -0.6057 -0.0607 -0.1338
22885SOL    HW170423   3.022   4.827   0.278 -0.5858  1.2463 -0.0111
22885SOL    HW270424   3.070   4.894   0.404 -0.8185 -0.3607  0.9536
22886SOL     OW70425   7.134   0.301   8.821  0.1014  0.1126  0.4533
22886SOL    HW170426   7.220   0.293   8.780 -0.3950 -0.6727 -0.4703
22886SOL    HW270427   7.153   0.322   8.912  1.3097 -1.4880  0.6131
22887SOL     OW70428   8.912   5.565   8.384  0.1906  0.0478  0.9005
22887SOL    HW170429   8.976   5.515   8.435 -0.7038 -0.6519  1.3836
22887SOL    HW270430   8.923   5.534   8.294 -0.5112 -1.2314  1.2327
22888SOL     OW70431   7.644   3.300   4.623 -0.3401  0.1367  0.2439
22888SOL    HW170432   7.587   3.330   4.552 -2.9411 -1.7990  1.3647
22888SOL    HW270433   7.679   3.381   4.661 -1.1616  1.3237 -1.4233
22889SOL     OW70434   6.251   1.446   6.597 -0.2081  0.1967  0.8626
22889SOL    HW170435   6.286   1.357   6.602 -1.8116 -0.4073  2.2767
22889SOL    HW270436   6.166   1.435   6.555 -0.2300  1.1369  0.6586
22890SOL     OW70437   9.251   1.899   1.821  0.0126 -0.2416  0.2362
22890SOL    HW170438   9.228   1.863   1.907  0.6445 -1.8294 -0.2139
22890SOL    HW270439   9.346   1.889   1.816  0.0691  0.5428 -0.3588
22891SOL     OW70440   9.673   6.569   6.933 -0.4885 -0.5456 -0.1128
22891SOL    HW170441   9.643   6.621   7.008  2.0963  1.0420 -0.0397
22891SOL    HW270442   9.639   6.616   6.857 -0.8797 -0.6049  0.0254
22892SOL     OW70443   5.875   0.787   4.200  0.2852  0.1050  0.4875
22892SOL    HW170444   5.897   0.846   4.272  0.4090 -0.4607  0.9235
22892SOL    HW270445   5.907   0.832   4.121  1.1959  0.2174  0.9043
22893SOL     OW70446   3.000   2.494   5.924 -0.3174  0.3745  0.3910
22893SOL    HW170447   3.084   2.450   5.912  0.7637  2.7303 -1.5456
22893SOL    HW270448   2.992   2.505   6.019  1.5691  0.1042  0.6123
22894SOL     OW70449   4.276   7.298   9.039  0.1134 -0.2441 -0.2204
22894SOL    HW170450   4.284   7.205   9.059  0.3950 -0.7556 -2.4762
22894SOL    HW270451   4.277   7.303   8.943 -3.1849  1.7467 -0.3442
22895SOL     OW70452   6.714   7.001   7.568 -0.3081 -0.4325  0.6271
22895SOL    HW170453   6.661   6.989   7.489  0.4954 -1.3277  0.1951
22895SOL    HW270454   6.719   6.913   7.607  0.4198 -0.2631  0.9406
22896SOL     OW70455   1.731   8.003   6.699  0.0726  0.0902 -0.2367
22896SOL    HW170456   1.692   7.994   6.786  0.1277  0.5761 -0.1617
22896SOL    HW270457   1.660   8.036   6.644 -0.0432 -0.4893 -0.4465
22897SOL     OW70458   2.378   0.815   6.255 -0.0361  0.0676 -0.0211
22897SOL    HW170459   2.317   0.850   6.191  0.7454  1.7169  0.0748
22897SOL    HW270460   2.374   0.720   6.244  0.0514  0.2963 -2.4771
22898SOL     OW70461   3.771   3.488   6.555 -0.7234 -0.2286  0.1541
22898SOL    HW170462   3.811   3.401   6.552  0.2911  0.2431 -0.6044
22898SOL    HW270463   3.815   3.533   6.627 -1.5894 -0.4849  0.8628
22899SOL     OW70464   6.873   3.069   0.245  0.0509  0.1655  0.0352
22899SOL    HW170465   6.840   3.130   0.179  0.9345  0.6781  0.0661
22899SOL    HW270466   6.968   3.072   0.236  0.4356  2.5066  3.2944
22900SOL     OW70467   7.546   1.518   2.107  0.4049 -0.5529  0.2472
22900SOL    HW170468   7.505   1.592   2.152  1.1321  0.0103  0.0205
22900SOL    HW270469   7.526   1.442   2.160 -1.1078 -0.3315  0.0232
22901SOL     OW70470   1.687   2.010   1.062 -0.1033  0.2519  0.0119
22901SOL    HW170471   1.674   1.973   1.149  0.9776  0.2574  0.1884
22901SOL    HW270472   1.618   1.969   1.009  0.0333 -0.7498  0.5738
22902SOL     OW70473   3.347   3.797   8.580 -0.1499 -0.3257  0.3927
22902SOL    HW170474   3.349   3.704   8.604 -2.0059 -0.6461 -0.5570
22902SOL    HW270475   3.281   3.803   8.511  0.5981  1.5700 -0.2223
22903SOL     OW70476   1.080   4.495   3.962 -0.0280  0.2193  0.1511
22903SOL    HW170477   1.073   4.405   3.932 -1.0579 -0.2422  1.6432
22903SOL    HW270478   1.066   4.548   3.883  0.1730 -0.9118 -0.6663
22904SOL     OW70479   5.487   2.005   3.164  0.7390 -0.3432  0.3698
22904SOL    HW170480   5.506   1.929   3.109  1.3644 -0.5893  0.8982
22904SOL    HW270481   5.446   2.068   3.105  1.5336 -0.5369 -0.4136
22905SOL     OW70482   9.337   7.418   6.965  0.3738  0.3257  0.3852
22905SOL    HW170483   9.294   7.491   7.009 -0.1012  1.0256 -1.1880
22905SOL    HW270484   9.404   7.459   6.910  0.7516 -0.5000  0.2180
22906SOL     OW70485   2.757   4.842   7.252  0.0596  0.0823 -0.0011
22906SOL    HW170486   2.707   4.813   7.328  0.3134  0.0926  0.1712
22906SOL    HW270487   2.742   4.774   7.186  0.2225 -0.1718  0.2204
22907SOL     OW70488   4.352   6.573   2.176  0.3692 -0.6966  0.7227
22907SOL    HW170489   4.380   6.638   2.241 -0.8919 -1.2999  1.9357
22907SOL    HW270490   4.397   6.598   2.096 -2.3003  3.5466  0.2297
22908SOL     OW70491   4.950   1.014   5.306 -0.5430 -0.2695 -0.5325
22908SOL    HW170492   4.912   1.010   5.394  1.8739  1.1146  0.6580
22908SOL    HW270493   4.896   1.078   5.259  0.3963  1.8717  1.1953
22909SOL     OW70494   8.352   7.418   4.387 -0.2670  0.1281  0.9894
22909SOL    HW170495   8.279   7.447   4.441 -0.6096 -0.8571  1.0798
22909SOL    HW270496   8.430   7.447   4.434 -0.5105 -1.9342  2.8061
22910SOL     OW70497   9.746   0.430   3.150  0.0796  0.9314 -0.0324
22910SOL    HW170498   9.753   0.486   3.227  0.4112 -0.0714  0.6994
22910SOL    HW270499   9.657   0.445   3.117  0.2652  2.0942 -0.0405
22911SOL     OW70500   2.987   0.189   6.140 -0.0587 -0.0026 -0.4160
22911SOL    HW170501   3.050   0.137   6.191 -1.3049 -0.1459  1.0317
22911SOL    HW270502   2.933   0.125   6.096 -0.8002  0.0600  0.3779
22912SOL     OW70503   8.694   3.530   6.456  0.2729 -0.1159 -0.4425
22912SOL    HW170504   8.700   3.513   6.362  1.4173 -0.2189 -0.3530
22912SOL    HW270505   8.692   3.626   6.463 -0.0147 -0.1096 -0.5728
22913SOL     OW70506   6.323   8.861   7.474  0.3069  0.2617  0.3622
22913SOL    HW170507   6.339   8.950   7.441 -0.6142 -0.5887 -2.7363
22913SOL    HW270508   6.292   8.874   7.563 -1.4409  3.2336 -0.5174
22914SOL     OW70509   6.602   4.366   7.510 -0.8142  0.3227 -0.0550
22914SOL    HW170510   6.632   4.378   7.420  0.6131  1.6031  0.5295
22914SOL    HW270511   6.678   4.329   7.555 -0.9891  1.1045  0.9129
22915SOL     OW70512   8.468   0.678   0.162 -0.1164  0.0931 -0.4199
22915SOL    HW170513   8.433   0.629   0.088  1.6386 -0.3333 -1.0285
22915SOL    HW270514   8.487   0.765   0.126  1.6831 -0.4130 -0.8041
22916SOL     OW70515   2.641   6.655   5.978  0.1880 -0.1821  0.2904
22916SOL    HW170516   2.645   6.571   5.932  0.4523 -1.0268  1.7667
22916SOL    HW270517   2.686   6.717   5.921 -3.2671 -0.0667 -2.6856
22917SOL     OW70518   0.408   7.456   3.303 -0.0436  0.0046  0.0389
22917SOL    HW170519   0.461   7.476   3.380  0.7965  1.9240 -0.9602
22917SOL    HW270520   0.349   7.531   3.294  0.3550  0.1701 -1.5344
22918SOL     OW70521   6.726   8.763   5.987  0.5924 -0.2857 -0.2926
22918SOL    HW170522   6.808   8.786   6.030  0.5324  0.6694 -0.6586
22918SOL    HW270523   6.659   8.805   6.041  0.4495  0.1366 -0.8029
22919SOL     OW70524   9.150   6.050   5.588 -0.1850  0.2123 -0.3613
22919SOL    HW170525   9.234   6.067   5.631  0.1385 -2.9219  0.5186
22919SOL    HW270526   9.174   6.015   5.502 -0.3001 -3.1562  0.8140
22920SOL     OW70527   0.171   9.488   8.392  0.2694 -0.1008  0.1185
22920SOL    HW170528   0.248   9.432   8.388  0.1007 -0.3994  0.8507
22920SOL    HW270529   0.097   9.428   8.389  0.0502  0.2169 -1.0386
22921SOL     OW70530   5.719   1.164   9.809  0.1253 -0.1379 -0.8319
22921SOL    HW170531   5.799   1.215   9.798 -0.0013  0.4928  0.9865
22921SOL    HW270532   5.749   1.074   9.822  0.8109  0.4843  2.8283
22922SOL     OW70533   4.469   1.052   5.966 -0.1151  0.3115 -0.0970
22922SOL    HW170534   4.488   1.111   5.892 -0.8606  0.7605  0.0514
22922SOL    HW270535   4.381   1.078   5.994 -0.3218 -0.6683  0.1810
22923SOL     OW70536   0.485   4.792   0.898  0.0725  0.3068 -0.4462
22923SOL    HW170537   0.511   4.853   0.828 -0.1818 -0.4804 -1.2464
22923SOL    HW270538   0.392   4.812   0.913 -0.0865 -0.0518 -0.9058
22924SOL     OW70539   9.542   6.564   4.078  0.1363 -0.2214 -0.0119
22924SOL    HW170540   9.503   6.651   4.084  0.6710  0.0975 -0.8950
22924SOL    HW270541   9.570   6.544   4.167 -1.4177 -0.1832  0.5129
22925SOL     OW70542   2.082   3.294   6.712 -0.3684 -0.4373  0.1307
22925SOL    HW170543   2.154   3.346   6.747 -1.6955  0.7127  1.2880
22925SOL    HW270544   2.052   3.344   6.636 -1.6633  0.5732  1.2606
22926SOL     OW70545   0.953   9.428   6.388 -0.2049  0.3938  0.1791
22926SOL    HW170546   0.956   9.360   6.455 -2.1716  0.8736  0.8337
22926SOL    HW270547   0.981   9.507   6.433 -0.5890  0.5324  0.1783
22927SOL     OW70548   6.951   4.259   3.726 -0.5394  0.0897  0.0425
22927SOL    HW170549   7.031   4.218   3.757 -0.7221  0.0722  0.5078
22927SOL    HW270550   6.980   4.336   3.678 -0.1193 -1.3541 -2.1483
22928SOL     OW70551   3.182   1.285   4.256 -0.0123 -0.4352  0.0587
22928SOL    HW170552   3.210   1.219   4.193 -0.8902 -0.6227 -0.1600
22928SOL    HW270553   3.136   1.234   4.324 -0.0172 -0.1280  0.2858
22929SOL     OW70554   5.834   2.072   3.538  0.3888 -0.0931 -0.5120
22929SOL    HW170555   5.796   2.124   3.609  0.2105 -0.3685 -0.4042
22929SOL    HW270556   5.759   2.045   3.485  0.6291  1.2152 -1.5651
22930SOL     OW70557   5.955   2.945   8.004  0.2723  0.1423 -0.3775
22930SOL    HW170558   5.908   2.995   8.071 -0.7565 -1.2164 -0.0534
22930SOL    HW270559   5.945   2.998   7.925 -0.4028  0.6859  0.0515
22931SOL     OW70560   1.191   2.501   7.454 -0.1095  0.3868 -0.2415
22931SOL    HW170561   1.100   2.479   7.474  0.0606  0.5706  0.8027
22931SOL    HW270562   1.242   2.453   7.520  0.3700  2.4410  0.9591
22932SOL     OW70563   3.030   2.863   3.677 -0.0816  0.0904  0.4342
22932SOL    HW170564   3.117   2.856   3.715 -1.2850 -2.1817  3.1519
22932SOL    HW270565   3.014   2.776   3.639 -1.3562  0.3053  0.4511
22933SOL     OW70566   1.386   8.962   5.097 -0.1028  1.0925 -0.0385
22933SOL    HW170567   1.471   8.977   5.139 -0.3567  1.7661  0.2540
22933SOL    HW270568   1.336   9.042   5.114 -0.1902  1.4355 -1.7251
22934SOL     OW70569   1.574   0.084   9.295  0.4195  0.1414 -0.2645
22934SOL    HW170570   1.501   0.056   9.350  2.0308 -1.4828  1.1631
22934SOL    HW270571   1.594   0.173   9.325 -1.4883  0.9912 -1.3169
22935SOL     OW70572   8.140   8.244   1.258 -0.0797 -0.1227  0.0580
22935SOL    HW170573   8.054   8.209   1.234 -0.7019  2.5525 -2.0712
22935SOL    HW270574   8.202   8.192   1.206 -0.6250 -0.4685 -0.2640
22936SOL     OW70575   6.643   3.316   2.060  0.2767  0.4457  0.8985
22936SOL    HW170576   6.707   3.245   2.057 -0.3902 -0.1413 -2.0448
22936SOL    HW270577   6.684   3.388   2.012 -1.3592 -0.1262 -1.5118
22937SOL     OW70578   8.184   4.728   5.085 -0.1807  0.1626  0.5448
22937SOL    HW170579   8.253   4.775   5.038 -1.6715  1.2706 -0.6151
22937SOL    HW270580   8.225   4.646   5.111  1.3111  0.3840 -0.9292
22938SOL     OW70581   2.204   7.610   2.278 -0.2432  0.8388 -0.2200
22938SOL    HW170582   2.177   7.621   2.369 -0.0582  1.0259 -0.1847
22938SOL    HW270583   2.224   7.517   2.270  1.6801  1.1323  0.4930
22939SOL     OW70584   1.374   0.149   7.751 -0.1942  0.0940 -0.5315
22939SOL    HW170585   1.286   0.173   7.782  0.3472 -0.5374  1.7285
22939SOL    HW270586   1.433   0.208   7.800  0.7526 -1.0580 -0.2443
22940SOL     OW70587   5.082   5.107   6.493  0.1746 -0.6641  0.2507
22940SOL    HW170588   5.145   5.175   6.516 -1.2401  0.4243  1.0907
22940SOL    HW270589   5.037   5.087   6.575  0.1997 -2.2807 -0.0843
22941SOL     OW70590   4.906   3.662   4.398 -0.0113  0.3270  0.4092
22941SOL    HW170591   4.897   3.569   4.379 -0.4352  0.7073 -1.3845
22941SOL    HW270592   5.000   3.679   4.391 -0.1120  0.3723 -1.0384
22942SOL     OW70593   5.379   9.325   8.982 -0.2257  0.1388  1.0180
22942SOL    HW170594   5.291   9.288   8.979 -0.7620  1.3102  1.6381
22942SOL    HW270595   5.366   9.419   8.970  0.8032  0.5008  2.4487
22943SOL     OW70596   8.098   8.564   3.860  0.1950 -0.3305  0.5127
22943SOL    HW170597   8.172   8.557   3.799 -0.2992  0.5740 -0.2017
22943SOL    HW270598   8.064   8.475   3.865  1.2283 -0.7386  0.7391
22944SOL     OW70599   2.763   0.325   4.120  0.3826 -0.1346 -0.0638
22944SOL    HW170600   2.775   0.396   4.058 -0.4833  0.9960  1.0198
22944SOL    HW270601   2.707   0.262   4.074  1.1167 -0.1156 -1.0135
22945SOL     OW70602   1.648   4.828   4.208  0.3651  0.0207  0.1515
22945SOL    HW170603   1.596   4.895   4.165 -0.6890 -0.4269  0.6973
22945SOL    HW270604   1.611   4.822   4.296  2.5882  1.0697  1.2645
22946SOL     OW70605   9.133   2.176   3.760  0.2778 -0.4091 -0.8916
22946SOL    HW170606   9.184   2.112   3.811  0.3155  0.0700 -0.3225
22946SOL    HW270607   9.098   2.236   3.826  0.1787  0.1106 -1.4189
22947SOL     OW70608   5.761   8.897   6.479 -0.3260 -0.6326 -0.1269
22947SOL    HW170609   5.740   8.804   6.483 -1.1731 -0.4102  2.9221
22947SOL    HW270610   5.792   8.911   6.389  1.4258 -4.1403 -0.2099
22948SOL     OW70611   5.438   3.535   9.242  0.4257  0.2351  0.5341
22948SOL    HW170612   5.436   3.482   9.162 -0.4298  0.6269  0.2808
22948SOL    HW270613   5.473   3.476   9.309 -0.3682 -0.6220  0.2185
22949SOL     OW70614   1.577   1.831   5.346 -0.2515 -0.2868  0.5173
22949SOL    HW170615   1.486   1.849   5.369 -0.0640  0.1835  0.8934
22949SOL    HW270616   1.599   1.896   5.279  1.0649  2.4332  3.3234
22950SOL     OW70617   3.840   4.458   5.484 -0.0313 -1.3052  0.4948
22950SOL    HW170618   3.888   4.514   5.545  0.9405 -1.7581  0.1640
22950SOL    HW270619   3.822   4.515   5.409 -0.4203 -1.0109  0.8021
22951SOL     OW70620   8.863   5.144   6.917 -0.0411  0.2674 -0.3596
22951SOL    HW170621   8.847   5.118   6.826  0.2077 -1.2477  0.0029
22951SOL    HW270622   8.901   5.066   6.957  0.0648  0.9976  0.9914
22952SOL     OW70623   1.793   1.126   2.999  0.3261 -0.0085 -0.2885
22952SOL    HW170624   1.810   1.032   2.995  0.0646 -0.0271 -1.1078
22952SOL    HW270625   1.841   1.156   3.076 -0.1691 -0.9352  0.3948
22953SOL     OW70626   0.664   4.233   3.517 -0.6535 -0.3101 -0.0215
22953SOL    HW170627   0.604   4.201   3.450 -0.1666  0.8372 -1.0314
22953SOL    HW270628   0.607   4.254   3.591 -1.6494  1.5601 -1.2563
22954SOL     OW70629   6.688   2.877   8.750  0.5463 -0.3297 -0.3497
22954SOL    HW170630   6.633   2.896   8.675  0.3468  1.5973  0.2362
22954SOL    HW270631   6.660   2.939   8.817  1.3374 -1.3881  1.0150
22955SOL     OW70632   6.353   1.389   7.811  0.0928  0.0291 -0.0553
22955SOL    HW170633   6.325   1.300   7.832 -0.0406  0.0329 -0.2179
22955SOL    HW270634   6.350   1.435   7.895 -1.1342  0.2356 -0.2016
22956SOL     OW70635   3.230   0.046   1.798 -0.3579 -0.7147  0.1002
22956SOL    HW170636   3.195   0.133   1.778 -0.7610 -0.8501  0.2131
22956SOL    HW270637   3.191  -0.011   1.732  0.7806 -0.6245 -0.6722
22957SOL     OW70638   2.700   8.924   2.943 -0.4419 -1.0258 -0.0819
22957SOL    HW170639   2.755   9.001   2.958 -2.7503  1.2980 -2.3029
22957SOL    HW270640   2.741   8.854   2.993  2.9828  1.1214  0.4218
22958SOL     OW70641   5.926   6.249   3.504  0.5204 -0.1024 -0.2653
22958SOL    HW170642   5.942   6.169   3.455 -0.6919  0.3718 -1.5078
22958SOL    HW270643   5.955   6.319   3.446 -0.9520  0.4668 -0.3692
22959SOL     OW70644   4.884   5.986   3.042 -0.4632  0.1697  0.0382
22959SOL    HW170645   4.966   5.953   3.006 -0.9843 -0.8911 -0.2041
22959SOL    HW270646   4.877   5.946   3.129 -0.6061  0.4489  0.1575
22960SOL     OW70647   4.453   5.333   5.361 -0.1198 -0.4420  0.4026
22960SOL    HW170648   4.448   5.240   5.384 -0.0520 -0.7310 -0.7377
22960SOL    HW270649   4.545   5.347   5.338 -0.6329 -0.7095 -1.9556
22961SOL     OW70650   4.937   0.807   4.106 -0.3732 -0.5029 -0.2927
22961SOL    HW170651   4.849   0.825   4.137  0.3915  1.3672  0.9909
22961SOL    HW270652   4.986   0.781   4.185  0.4218 -0.6816 -0.8273
22962SOL     OW70653   1.110   8.423   1.839  0.7965  0.0405  0.0301
22962SOL    HW170654   1.106   8.336   1.799  1.6431 -0.8518  1.7479
22962SOL    HW270655   1.075   8.410   1.927  1.9117  1.1817  0.6809
22963SOL     OW70656   7.825   8.625   4.483  0.0620 -0.2759  0.1847
22963SOL    HW170657   7.851   8.627   4.575 -0.1267 -1.4405  0.2809
22963SOL    HW270658   7.740   8.581   4.483 -0.4150  0.6211 -0.4532
22964SOL     OW70659   7.903   4.871   5.836  0.2272  0.1223  0.4200
22964SOL    HW170660   7.881   4.948   5.783  0.6794  0.8325  1.2395
22964SOL    HW270661   7.858   4.886   5.919  1.4315  0.1993  1.0805
22965SOL     OW70662   2.576   7.083   9.234 -0.0007  0.4906 -0.1853
22965SOL    HW170663   2.593   6.990   9.221 -2.0192  0.0918 -0.2712
22965SOL    HW270664   2.633   7.108   9.306  0.1402 -0.9587  0.2395
22966SOL     OW70665   6.701   6.506   1.402  0.4371  0.7863  0.6825
22966SOL    HW170666   6.767   6.535   1.338  1.1449 -0.2358  0.9274
22966SOL    HW270667   6.746   6.512   1.486 -0.1156  1.0292  0.9621
22967SOL     OW70668   3.539   0.540   8.296  0.0011  0.2546 -0.2898
22967SOL    HW170669   3.542   0.449   8.267  0.7896  0.4820 -0.9663
22967SOL    HW270670   3.524   0.590   8.215 -0.2745  0.7348  0.0535
22968SOL     OW70671   8.531   9.236   7.674  0.3405 -0.3325 -0.2296
22968SOL    HW170672   8.506   9.275   7.757 -1.4812 -0.8077 -0.5106
22968SOL    HW270673   8.549   9.310   7.616 -0.5150  0.0547 -0.0107
22969SOL     OW70674   5.453   8.397   2.980 -0.4993 -0.3882 -0.4938
22969SOL    HW170675   5.454   8.305   2.953  1.4159  0.1613 -2.6390
22969SOL    HW270676   5.365   8.412   3.012 -0.9806 -2.8657 -0.4638
22970SOL     OW70677   1.283   4.609   9.559  0.2322  0.1418 -0.7106
22970SOL    HW170678   1.236   4.564   9.629 -0.7748 -0.1808 -1.5733
22970SOL    HW270679   1.273   4.702   9.578  1.3857  0.0489  0.4774
22971SOL     OW70680   3.523   1.153   0.389 -0.2397  0.0891  0.1778
22971SOL    HW170681   3.562   1.182   0.307 -1.0584  2.6810  0.6045
22971SOL    HW270682   3.596   1.121   0.442  0.5274 -0.0022 -0.9226
22972SOL     OW70683   4.328   6.709   0.190  0.1408  0.2516 -0.5565
22972SOL    HW170684   4.269   6.732   0.119 -0.4418  0.7035  0.0541
22972SOL    HW270685   4.361   6.794   0.222  3.1788 -0.0375 -2.5390
22973SOL     OW70686   5.702   5.767   3.938 -0.8746  0.0453 -0.2633
22973SOL    HW170687   5.759   5.823   3.992  0.7340 -0.9398 -0.8513
22973SOL    HW270688   5.625   5.751   3.993  0.6128 -0.8007  1.7281
22974SOL     OW70689   6.377   9.407   1.526 -0.5102 -0.1292 -0.3237
22974SOL    HW170690   6.314   9.444   1.464 -1.2748 -0.3470  0.3044
22974SOL    HW270691   6.462   9.420   1.485 -0.8664  1.2032 -0.6766
22975SOL     OW70692   1.353   0.524   9.473 -0.2604  0.0794 -0.2964
22975SOL    HW170693   1.336   0.491   9.561  3.8258  2.5552  1.7192
22975SOL    HW270694   1.354   0.446   9.418  1.4401 -2.2831  2.7415
22976SOL     OW70695   1.978   2.697   8.617  0.0878  0.3582  0.3851
22976SOL    HW170696   2.023   2.778   8.640  1.5104 -0.6414  1.2733
22976SOL    HW270697   1.972   2.649   8.700  1.1182 -1.3154 -0.4607
22977SOL     OW70698   9.029   9.598   8.205  0.4027 -0.0887 -0.0684
22977SOL    HW170699   9.011   9.504   8.205  0.0539 -0.0378  0.8902
22977SOL    HW270700   9.014   9.625   8.115  1.0766 -1.0506 -0.4894
22978SOL     OW70701   1.417   6.051   6.011 -0.3354  0.6324  0.1108
22978SOL    HW170702   1.486   6.041   5.945 -0.1320  1.3780  0.2036
22978SOL    HW270703   1.463   6.077   6.091 -0.6017 -0.0668  0.5017
22979SOL     OW70704   5.610   2.006   7.967  0.2578  0.3618  0.3244
22979SOL    HW170705   5.524   1.969   7.948  0.3455  0.1835  0.2719
22979SOL    HW270706   5.669   1.964   7.905  0.5886 -0.4086  1.1373
22980SOL     OW70707   8.070   9.386   2.044  0.2609  0.4590 -0.6416
22980SOL    HW170708   8.091   9.475   2.017  1.4947  0.5763  0.6217
22980SOL    HW270709   8.154   9.345   2.062 -0.3909 -0.2784  0.8776
22981SOL     OW70710   6.039   1.092   2.523  0.0057 -0.1564 -0.4746
22981SOL    HW170711   5.954   1.127   2.495  0.7747  1.0285 -1.4802
22981SOL    HW270712   6.052   1.128   2.610  0.8339  2.3752 -1.5284
22982SOL     OW70713   0.837   9.170   5.801  0.0543 -0.1670  0.1046
22982SOL    HW170714   0.872   9.094   5.754 -0.5287  1.6759 -3.7435
22982SOL    HW270715   0.745   9.148   5.815  0.2752 -0.8208  0.5803
22983SOL     OW70716   4.487   6.332   6.902 -0.6698 -0.2305 -0.3114
22983SOL    HW170717   4.485   6.338   6.997 -3.9605 -0.0178 -0.3001
22983SOL    HW270718   4.483   6.423   6.872 -2.6473 -0.3475 -0.5505
22984SOL     OW70719   6.799   8.497   6.052  0.0476  0.4190 -0.3217
22984SOL    HW170720   6.764   8.566   5.996 -2.2299 -0.6192 -0.3261
22984SOL    HW270721   6.770   8.520   6.140 -0.2344 -0.2142 -0.2404
22985SOL     OW70722   1.849   2.917   4.851 -0.1154 -0.0326 -0.3175
22985SOL    HW170723   1.757   2.926   4.826 -0.9678 -0.4228  2.3304
22985SOL    HW270724   1.863   2.988   4.914  0.6676 -1.3779  1.1023
22986SOL     OW70725   9.372   5.872   2.092 -0.2575  0.0867 -0.1128
22986SOL    HW170726   9.325   5.819   2.156 -3.2330  0.8312 -1.5003
22986SOL    HW270727   9.394   5.811   2.022 -2.0065  0.2597 -0.8560
22987SOL     OW70728   4.877   6.429   1.562  0.3023  0.0192 -0.1684
22987SOL    HW170729   4.884   6.362   1.494 -0.3508  0.0299 -0.2516
22987SOL    HW270730   4.793   6.412   1.604  1.1741 -0.6519  1.3750
22988SOL     OW70731   8.878   2.295   3.177  0.3268  0.5174 -0.4335
22988SOL    HW170732   8.945   2.349   3.220  2.1813 -1.2635 -0.9514
22988SOL    HW270733   8.892   2.207   3.212 -0.3318 -0.3178 -2.1670
22989SOL     OW70734   6.800   4.340   4.256 -0.7733  0.0639  0.0676
22989SOL    HW170735   6.752   4.281   4.198  3.5115 -2.0983 -1.7516
22989SOL    HW270736   6.821   4.416   4.200  1.7730 -1.1801 -0.8024
22990SOL     OW70737   4.528   5.929   1.625 -0.0983 -0.3114  0.2239
22990SOL    HW170738   4.460   5.861   1.631 -0.5532  0.1144 -0.0792
22990SOL    HW270739   4.490   5.997   1.569  0.1843  0.4031  0.8873
22991SOL     OW70740   8.139   9.453   1.132  0.0200  0.3289 -0.0859
22991SOL    HW170741   8.088   9.534   1.125 -0.8633 -0.0481  1.4528
22991SOL    HW270742   8.195   9.467   1.209  1.9320  0.5302 -1.4532
22992SOL     OW70743   5.415   5.808   1.966 -0.6996 -0.0933  0.5398
22992SOL    HW170744   5.500   5.845   1.989 -0.2000 -1.0378  0.2528
22992SOL    HW270745   5.374   5.875   1.912  0.1161  0.1285  0.1788
22993SOL     OW70746   1.971   9.115   5.958  0.3359 -0.6942 -0.3858
22993SOL    HW170747   1.980   9.188   6.019  1.3116 -0.9362 -0.2278
22993SOL    HW270748   1.877   9.103   5.949  0.0970  1.3905 -1.3890
22994SOL     OW70749   8.215   6.560   9.141  0.5791  0.2575  0.1401
22994SOL    HW170750   8.256   6.607   9.214  0.6666  0.9423 -0.3498
22994SOL    HW270751   8.277   6.567   9.069 -0.6551  1.9289 -0.8468
22995SOL     OW70752   7.899   7.797   4.862 -0.4544  0.1274 -0.0245
22995SOL    HW170753   7.845   7.790   4.783  0.4466  1.9615 -0.8783
22995SOL    HW270754   7.837   7.820   4.931 -1.0996 -0.2918 -0.4503
22996SOL     OW70755   8.497   0.502   4.775  0.1578 -0.3866 -0.1365
22996SOL    HW170756   8.453   0.490   4.690 -0.6466 -3.3081  0.5675
22996SOL    HW270757   8.577   0.450   4.767 -0.5719 -1.8098  1.2666
22997SOL     OW70758   7.999   8.996   1.386 -0.4914 -0.3909 -0.2213
22997SOL    HW170759   8.072   9.058   1.392 -1.5654  0.9238 -0.0845
22997SOL    HW270760   7.925   9.042   1.427 -1.2930 -1.8541  0.0606
22998SOL     OW70761   8.509   5.402   2.505  0.2054 -0.5329  0.1647
22998SOL    HW170762   8.564   5.347   2.561 -0.7130 -2.1270 -0.4256
22998SOL    HW270763   8.433   5.347   2.486 -1.0850  1.2111  0.0806
22999SOL     OW70764   3.638   3.275   1.492  0.5185  0.1257  0.0702
22999SOL    HW170765   3.721   3.292   1.446 -0.4388  1.5015 -1.2767
22999SOL    HW270766   3.590   3.358   1.485 -1.5910 -1.0776 -0.5192
23000SOL     OW70767   1.462   2.890   3.143 -0.8701 -0.4593  0.1466
23000SOL    HW170768   1.470   2.800   3.175 -0.0631 -0.4220  0.0643
23000SOL    HW270769   1.400   2.931   3.203  1.5358 -0.0355  2.5617
23001SOL     OW70770   8.552   8.496   6.929 -0.3935  0.1854 -0.1716
23001SOL    HW170771   8.582   8.410   6.959 -1.9237 -0.1479  0.5261
23001SOL    HW270772   8.461   8.501   6.959 -0.0110  2.5322  0.7666
23002SOL     OW70773   1.235   8.325   5.202 -0.1597  0.1063  0.1277
23002SOL    HW170774   1.247   8.345   5.295  0.1615 -3.2394  0.9012
23002SOL    HW270775   1.141   8.325   5.190 -0.2106  0.4080  0.4832
23003SOL     OW70776   1.044   0.216   6.649 -0.4065 -0.3408 -0.2259
23003SOL    HW170777   1.031   0.165   6.569 -1.1648 -1.7764  0.7709
23003SOL    HW270778   1.066   0.304   6.618 -1.7371 -0.5842 -2.0142
23004SOL     OW70779   7.850   0.721   1.582 -0.2038  0.2100  0.2588
23004SOL    HW170780   7.778   0.737   1.643 -1.9594 -1.9314 -1.0965
23004SOL    HW270781   7.807   0.696   1.501  2.0932 -0.9631 -0.6725
23005SOL     OW70782   4.662   4.119   0.044 -0.0859  0.1519  0.1059
23005SOL    HW170783   4.745   4.084   0.077  0.3175  1.5650  0.6468
23005SOL    HW270784   4.603   4.118   0.120 -0.6046 -0.9248 -0.2966
23006SOL     OW70785   3.381   1.570   5.815 -0.8320 -0.1205  0.1205
23006SOL    HW170786   3.297   1.524   5.813 -1.9718  1.7788  1.3153
23006SOL    HW270787   3.380   1.624   5.735  0.2871 -1.7358 -1.0287
23007SOL     OW70788   3.578   2.855   8.567 -0.2962 -0.2057 -0.2990
23007SOL    HW170789   3.640   2.782   8.573 -0.6479 -0.5154 -0.4079
23007SOL    HW270790   3.634   2.933   8.563  0.0747 -0.3982  0.7417
23008SOL     OW70791   1.081   4.450   6.962  0.3103 -0.3395 -0.1344
23008SOL    HW170792   1.159   4.471   6.911  0.9827  0.8186  1.3021
23008SOL    HW270793   1.056   4.533   7.002 -0.3694 -1.1430  1.1511
23009SOL     OW70794   7.845   2.497   2.181 -0.0089 -0.2514  0.4610
23009SOL    HW170795   7.940   2.503   2.189 -0.1497  1.1454  1.4606
23009SOL    HW270796   7.820   2.577   2.134 -0.6995 -0.6129  0.1945
23010SOL     OW70797   4.926   8.858   5.004  0.3810  0.9417 -0.2052
23010SOL    HW170798   4.888   8.774   5.027 -1.7620  1.9185  0.0439
23010SOL    HW270799   4.963   8.845   4.917 -1.6996  0.2155 -1.0425
23011SOL     OW70800   1.583   3.182   6.894  0.9444 -0.5856  0.1138
23011SOL    HW170801   1.652   3.172   6.829 -0.1865 -0.6526 -1.1110
23011SOL    HW270802   1.521   3.243   6.854  0.3641 -0.4052  1.2533
23012SOL     OW70803   6.160   1.613   1.945  0.0639  0.0996  0.4049
23012SOL    HW170804   6.074   1.638   1.912 -0.9759 -0.3834  2.5666
23012SOL    HW270805   6.218   1.618   1.869 -1.8967  0.2684 -1.1423
23013SOL     OW70806   5.264   6.124   6.189 -0.1328 -0.0231  0.8430
23013SOL    HW170807   5.226   6.182   6.256 -0.2056  1.3892 -0.3743
23013SOL    HW270808   5.303   6.184   6.126  0.0769 -1.3406 -0.3023
23014SOL     OW70809   4.903   1.037   4.979 -0.0883  0.1073  0.4135
23014SOL    HW170810   4.914   1.069   4.890 -0.6880  1.8989  0.9453
23014SOL    HW270811   4.810   1.017   4.987  0.0513 -0.5629  0.5041
23015SOL     OW70812   5.687   4.930   3.679  0.3133 -0.1763 -0.1070
23015SOL    HW170813   5.689   4.876   3.600 -0.1506 -0.6285  0.1822
23015SOL    HW270814   5.775   4.965   3.687  0.8587 -1.5341  0.1347
23016SOL     OW70815   1.495   5.517   3.249  0.8527  0.5957  0.3878
23016SOL    HW170816   1.402   5.534   3.242  0.9026  0.7122 -0.0608
23016SOL    HW270817   1.535   5.603   3.263  1.1167  0.9528 -2.0051
23017SOL     OW70818   4.813   0.238   6.308 -0.2194  0.6750  0.1120
23017SOL    HW170819   4.900   0.230   6.347  0.2476 -3.3175 -1.2814
23017SOL    HW270820   4.820   0.311   6.248  1.4287  1.8808  1.6666
23018SOL     OW70821   0.998   0.565   0.852  0.2505  0.0695 -0.2943
23018SOL    HW170822   0.916   0.615   0.855  0.8128  1.1567 -1.9298
23018SOL    HW270823   1.059   0.616   0.907 -0.1105 -0.7101  0.8772
23019SOL     OW70824   8.982   0.079   8.504  0.0179 -0.2830  0.1753
23019SOL    HW170825   8.979   0.113   8.414 -0.5823 -1.0915 -0.1173
23019SOL    HW270826   9.020   0.151   8.555  2.5840 -0.6363 -1.0753
23020SOL     OW70827   7.639   9.321   9.225  0.2710  0.1020  0.0060
23020SOL    HW170828   7.674   9.406   9.253  2.6611 -0.6997 -0.2913
23020SOL    HW270829   7.593   9.288   9.302  0.0011  1.3122  0.3886
23021SOL     OW70830   7.920   3.193   4.927  0.0154  0.6583 -0.1141
23021SOL    HW170831   7.880   3.179   5.013  0.2227  0.9859  0.0356
23021SOL    HW270832   7.850   3.173   4.865  0.0470 -0.2005  0.1121
23022SOL     OW70833   9.294   8.715   2.863 -0.0176  0.3707 -0.6523
23022SOL    HW170834   9.374   8.663   2.852 -0.2160  0.5133 -3.3162
23022SOL    HW270835   9.310   8.765   2.943  1.5883 -1.2491  0.1264
23023SOL     OW70836   1.492   5.536   0.508  0.0304  0.4173 -0.5568
23023SOL    HW170837   1.518   5.554   0.599  0.7836 -2.4988 -0.0945
23023SOL    HW270838   1.397   5.529   0.512 -0.0381  1.3112 -0.2416
23024SOL     OW70839   9.763   9.126   5.010  0.4728  0.7139  0.0848
23024SOL    HW170840   9.699   9.147   4.942  1.4941 -0.5642 -1.3129
23024SOL    HW270841   9.716   9.065   5.068 -0.0033  0.8335 -0.1639
23025SOL     OW70842   5.170   9.833   0.500  1.0186 -0.6854  0.1807
23025SOL    HW170843   5.145   9.741   0.509  0.3308 -0.5356 -0.1315
23025SOL    HW270844   5.240   9.845   0.564 -0.2090 -0.9523  1.6473
23026SOL     OW70845   4.163   4.264   4.143 -0.6096 -0.4923 -0.4218
23026SOL    HW170846   4.165   4.295   4.233  0.2145 -0.0254 -0.5852
23026SOL    HW270847   4.170   4.168   4.150  0.2117 -0.4130 -0.0042
23027SOL     OW70848   8.956   8.340   8.840 -0.1983  0.1874  0.3818
23027SOL    HW170849   8.923   8.288   8.914  0.8677 -1.3976 -0.1905
23027SOL    HW270850   9.050   8.321   8.837  0.1470  1.7990 -0.1832
23028SOL     OW70851   1.454   4.559   3.370 -0.0311  0.2774 -0.3847
23028SOL    HW170852   1.467   4.471   3.404 -1.4011  0.1650 -0.1050
23028SOL    HW270853   1.515   4.613   3.420 -0.0401 -0.3252  0.2894
23029SOL     OW70854   7.917   2.250   4.949  0.3210 -0.7423 -0.3772
23029SOL    HW170855   8.008   2.265   4.977 -0.4004  1.7925  0.9005
23029SOL    HW270856   7.872   2.222   5.028 -0.0836 -1.7006 -0.9411
23030SOL     OW70857   5.005   0.054   7.061 -0.1791 -0.4389 -0.5102
23030SOL    HW170858   4.920   0.066   7.017 -0.4325 -1.2961 -0.2856
23030SOL    HW270859   5.069   0.083   6.996 -0.6549  0.6402 -0.5196
23031SOL     OW70860   5.357   9.646   7.560  0.1926  0.1469  0.2031
23031SOL    HW170861   5.422   9.710   7.533  0.5941 -0.8668 -1.3409
23031SOL    HW270862   5.308   9.626   7.480 -1.9159  0.7029  1.2496
23032SOL     OW70863   2.791   6.303   3.086 -0.1721  0.0494 -0.3018
23032SOL    HW170864   2.846   6.225   3.090 -0.0701  0.0893 -0.8976
23032SOL    HW270865   2.842   6.370   3.132 -0.6177 -0.4376  0.9326
23033SOL     OW70866   4.413   8.016   1.416  0.2225 -0.0013  0.0659
23033SOL    HW170867   4.402   7.947   1.350 -1.5747 -0.5280  0.8676
23033SOL    HW270868   4.505   8.008   1.443  0.9640  0.1093 -2.1820
23034SOL     OW70869   3.361   2.926   0.198 -0.7002  0.4753  0.7543
23034SOL    HW170870   3.378   2.979   0.276  0.3377 -1.9028  2.2680
23034SOL    HW270871   3.441   2.932   0.147 -0.8398  0.8906  0.5818
23035SOL     OW70872   4.704   2.546   6.241  0.3963  1.0080  0.5044
23035SOL    HW170873   4.678   2.624   6.290 -1.0726  0.4859  0.5772
23035SOL    HW270874   4.752   2.581   6.166  1.1648  1.8938  1.3649
23036SOL     OW70875   7.900   5.833   5.786 -0.0227  0.2364 -0.0386
23036SOL    HW170876   7.853   5.914   5.765  1.9337  2.0565  1.9662
23036SOL    HW270877   7.831   5.770   5.807 -1.6232  1.3704 -1.5799
23037SOL     OW70878   0.024   4.200   3.514 -0.1914 -0.6631 -0.7065
23037SOL    HW170879   0.026   4.219   3.608 -0.1768  0.0077 -0.8432
23037SOL    HW270880  -0.006   4.109   3.510  1.2692 -1.2140  0.0170
23038SOL     OW70881   6.767   8.216   7.868 -0.0582  0.5509  0.5487
23038SOL    HW170882   6.699   8.206   7.801 -0.1868  0.4525  0.6945
23038SOL    HW270883   6.844   8.248   7.819  0.6043 -1.8072 -0.0585
23039SOL     OW70884   0.370   2.633   2.935  0.1687 -0.1005 -0.1221
23039SOL    HW170885   0.457   2.598   2.917  0.9571  0.2893  2.4503
23039SOL    HW270886   0.350   2.602   3.023 -1.5100  1.3125  0.0504
23040SOL     OW70887   5.984   0.669   4.928  0.3431  0.1977 -0.2178
23040SOL    HW170888   6.046   0.708   4.866 -1.2893  0.9715 -1.4525
23040SOL    HW270889   6.002   0.575   4.925  0.2165  0.1947 -2.0219
23041SOL     OW70890   4.853   6.668   8.618 -0.0590  0.0667  0.0471
23041SOL    HW170891   4.863   6.628   8.532 -1.1692  0.4746 -0.2794
23041SOL    HW270892   4.759   6.681   8.628 -0.0638 -0.9374  1.7644
23042SOL     OW70893   1.870   8.579   2.024  0.1113  0.2319  0.4754
23042SOL    HW170894   1.843   8.531   2.102 -0.6927 -1.9612 -1.0570
23042SOL    HW270895   1.800   8.563   1.961  3.2943 -3.1335 -2.6894
23043SOL     OW70896   1.421   6.876   7.026  0.7014 -0.3941  0.5494
23043SOL    HW170897   1.445   6.959   7.068 -0.9464  0.7377 -0.6296
23043SOL    HW270898   1.463   6.880   6.941  0.0387 -0.4305  0.2157
23044SOL     OW70899   3.686   3.513   5.828 -0.0463 -0.3883 -0.1175
23044SOL    HW170900   3.648   3.455   5.763  1.1642  1.0885 -2.2369
23044SOL    HW270901   3.775   3.480   5.842 -0.0046 -0.1735  0.1437
23045SOL     OW70902   4.133   2.676   5.259 -0.5667  0.0510  0.2203
23045SOL    HW170903   4.143   2.698   5.166 -2.8614  3.3617  0.6071
23045SOL    HW270904   4.050   2.629   5.264 -0.2700 -0.4463  0.5957
23046SOL     OW70905   0.869   1.685   5.788 -0.0918  0.3810 -0.0359
23046SOL    HW170906   0.781   1.725   5.794  0.9454  2.8258  0.2523
23046SOL    HW270907   0.884   1.647   5.874 -1.1562 -0.7974 -0.3406
23047SOL     OW70908   7.012   1.293   4.410 -0.5541  0.3308  0.1932
23047SOL    HW170909   6.995   1.368   4.353 -0.6274  1.0635  1.1561
23047SOL    HW270910   7.000   1.327   4.499 -2.5714 -1.3197  0.6105
23048SOL     OW70911   6.833   1.646   6.811  0.0719  0.1698  0.1681
23048SOL    HW170912   6.850   1.576   6.747 -1.3365 -0.1552  0.1185
23048SOL    HW270913   6.744   1.674   6.792  0.2411  1.2617  0.8968
23049SOL     OW70914   7.585   9.112   1.939 -1.0650 -0.0460  0.2213
23049SOL    HW170915   7.536   9.030   1.931 -0.3691 -0.6835  1.9201
23049SOL    HW270916   7.557   9.147   2.024 -1.0868  1.3086 -0.3322
23050SOL     OW70917   2.258   4.544   4.135  0.4048  0.2447 -0.2747
23050SOL    HW170918   2.236   4.490   4.211  0.3624  0.8636  0.1664
23050SOL    HW270919   2.270   4.632   4.171  0.8795  0.4517 -0.9155
23051SOL     OW70920   2.571   0.471   8.814 -0.3931 -0.1084 -0.1136
23051SOL    HW170921   2.519   0.432   8.884  0.1686  1.8218  1.4708
23051SOL    HW270922   2.659   0.434   8.826 -0.0436  0.9928  0.9124
23052SOL     OW70923   6.225   8.687   4.831 -0.0055 -0.3242  0.1778
23052SOL    HW170924   6.139   8.660   4.864 -1.0231  0.3241 -1.7858
23052SOL    HW270925   6.212   8.698   4.737  2.1741  0.0953 -0.1256
23053SOL     OW70926   1.008   7.206   7.399  0.0092 -0.0222 -0.0261
23053SOL    HW170927   0.924   7.164   7.381  0.5269 -1.1170  0.0659
23053SOL    HW270928   1.025   7.260   7.321  0.4206 -1.7736 -1.1983
23054SOL     OW70929   2.768   6.092   0.352  0.1207 -0.3666  0.1843
23054SOL    HW170930   2.839   6.030   0.372  1.7810  0.6781 -2.0250
23054SOL    HW270931   2.797   6.174   0.391 -0.5690 -0.2419  0.4416
23055SOL     OW70932   2.649   9.819   9.345 -0.2305 -0.6421  0.4867
23055SOL    HW170933   2.617   9.745   9.293 -1.3553  0.6164 -0.6875
23055SOL    HW270934   2.744   9.815   9.336 -0.3126 -1.5471 -0.1230
23056SOL     OW70935   1.521   3.027   7.295  0.1157  0.1910 -0.0063
23056SOL    HW170936   1.610   3.063   7.296  1.0424 -1.9827 -0.1726
23056SOL    HW270937   1.497   3.025   7.203  0.5579 -0.6994 -0.1158
23057SOL     OW70938   2.630   0.640   8.595  0.2041  0.4258 -0.0856
23057SOL    HW170939   2.579   0.588   8.657  0.5726 -1.2591 -1.1543
23057SOL    HW270940   2.585   0.725   8.593 -1.9714 -0.6686 -0.2227
23058SOL     OW70941   0.300   5.923   6.527 -0.4533 -0.3923 -0.3211
23058SOL    HW170942   0.299   5.985   6.453  0.8374  0.5348  0.4155
23058SOL    HW270943   0.225   5.866   6.510 -1.2616  0.9207 -1.4089
23059SOL     OW70944   0.028   7.819   0.996  0.3811 -0.2900 -0.3138
23059SOL    HW170945  -0.021   7.803   1.076 -0.1271 -0.1236 -0.5881
23059SOL    HW270946   0.110   7.771   1.007  1.9882  2.6015  1.8794
23060SOL     OW70947   7.696   4.781   2.694  0.3343  0.0484  0.1624
23060SOL    HW170948   7.696   4.800   2.788 -0.9098  1.4021 -0.0658
23060SOL    HW270949   7.766   4.718   2.682  0.5535 -0.1152  1.9966
23061SOL     OW70950   3.400   6.550   4.913 -0.1110  0.1081  0.1159
23061SOL    HW170951   3.467   6.512   4.970 -0.3137 -0.3200  0.0801
23061SOL    HW270952   3.435   6.635   4.886  1.7700 -1.2615 -2.2382
23062SOL     OW70953   5.817   3.970   3.025 -0.1197  0.4955 -0.4454
23062SOL    HW170954   5.757   3.975   3.099  0.7990 -0.7914  0.4274
23062SOL    HW270955   5.771   3.919   2.959 -0.6973  1.1254 -0.5439
23063SOL     OW70956   6.142   5.211   7.632 -0.3907  0.2906 -0.0961
23063SOL    HW170957   6.132   5.197   7.538  2.5571  2.4585 -0.8755
23063SOL    HW270958   6.184   5.131   7.663 -0.0654  0.1413 -0.8981
23064SOL     OW70959   7.329   0.423   2.332 -0.2803  0.4223  0.0707
23064SOL    HW170960   7.271   0.397   2.260 -0.6117  1.8348 -0.1866
23064SOL    HW270961   7.373   0.502   2.301  1.2886 -0.2318  0.5447
23065SOL     OW70962   1.368   6.846   3.035 -0.1561  0.0043 -0.0533
23065SOL    HW170963   1.444   6.795   3.006  0.1453 -0.7913  1.9673
23065SOL    HW270964   1.366   6.922   2.977  3.6382  1.3387  1.2801
23066SOL     OW70965   4.221   9.207   8.159 -0.2275  0.3328 -0.1364
23066SOL    HW170966   4.237   9.132   8.101 -0.6603  0.6341 -0.6501
23066SOL    HW270967   4.176   9.170   8.235 -2.5908  0.3915 -1.4236
23067SOL     OW70968   5.205   3.649   0.164  0.3224  0.3415  0.3534
23067SOL    HW170969   5.117   3.624   0.136 -0.3589  1.0986  1.7207
23067SOL    HW270970   5.207   3.744   0.156  2.0080  0.1918 -2.3206
23068SOL     OW70971   1.349   7.312   1.947 -0.2390 -0.0468  0.4347
23068SOL    HW170972   1.256   7.304   1.964 -0.7024  0.5240 -1.5296
23068SOL    HW270973   1.384   7.224   1.961 -0.7494  0.0603  2.6903
23069SOL     OW70974   9.623   1.614   0.502  0.3957  0.3196  0.3380
23069SOL    HW170975   9.668   1.696   0.485  0.6210  0.3787  1.1799
23069SOL    HW270976   9.612   1.611   0.598 -0.4540 -0.1791  0.2414
23070SOL     OW70977   0.488   1.239   0.625 -0.1741  0.1725 -0.0552
23070SOL    HW170978   0.558   1.301   0.644  0.1710 -0.6634  1.5868
23070SOL    HW270979   0.533   1.156   0.609 -0.7626 -0.4196  1.2050
23071SOL     OW70980   0.873   6.591   0.932  0.2374 -0.0289  1.0467
23071SOL    HW170981   0.879   6.584   0.837  3.6191  0.4491  1.0983
23071SOL    HW270982   0.799   6.535   0.956 -1.4949  0.7959 -1.8953
23072SOL     OW70983   7.359   4.688   0.478 -0.0804  0.0954 -0.1128
23072SOL    HW170984   7.326   4.755   0.419  0.2918  0.5555  0.1990
23072SOL    HW270985   7.291   4.678   0.544  0.1074  0.5779  0.1612
23073SOL     OW70986   9.512   5.254   0.000  0.2135  0.2981 -0.0964
23073SOL    HW170987   9.419   5.232   0.010 -0.1170  1.3423 -0.6802
23073SOL    HW270988   9.521   5.281  -0.091  0.6787  1.9751  0.4062
23074SOL     OW70989   2.251   3.428   5.852  0.5728 -0.0682 -0.5192
23074SOL    HW170990   2.201   3.429   5.770 -1.5616  2.3671  0.6908
23074SOL    HW270991   2.322   3.491   5.838 -0.9192  1.8008  0.0896
23075SOL     OW70992   8.491   1.824   4.929  0.5809 -0.1380  0.1939
23075SOL    HW170993   8.573   1.776   4.947  0.9597  0.2659 -0.4248
23075SOL    HW270994   8.438   1.762   4.879  0.4049 -0.4892  0.8084
23076SOL     OW70995   0.346   9.570   1.222  0.1011 -0.2717  0.0477
23076SOL    HW170996   0.334   9.475   1.219  0.7272 -0.3382 -0.8084
23076SOL    HW270997   0.369   9.594   1.132  1.9625  0.4145  0.6593
23077SOL     OW70998   1.998   4.957   4.722 -0.0706 -0.2982 -0.0809
23077SOL    HW170999   1.990   4.867   4.688  0.2128  0.1387 -1.3522
23077SOL    HW271000   1.958   5.012   4.654  0.2887  0.5949  0.4137
23078SOL     OW71001   8.833   9.209   7.803  0.1846 -0.0421  0.0766
23078SOL    HW171002   8.877   9.250   7.877  1.9234 -1.1004 -0.3341
23078SOL    HW271003   8.765   9.154   7.843  0.5840 -0.0012  0.8252
23079SOL     OW71004   8.262   4.879   6.298 -0.0118 -0.3070  0.0589
23079SOL    HW171005   8.258   4.962   6.251  0.5654  0.2439  0.9352
23079SOL    HW271006   8.339   4.835   6.262 -0.1976 -0.3718 -0.2611
23080SOL     OW71007   8.956   4.673   8.957 -0.2863 -0.2067 -0.2397
23080SOL    HW171008   8.893   4.620   8.908 -0.1842  0.3814 -1.0396
23080SOL    HW271009   9.001   4.725   8.889  0.3218  0.1455  0.4199
23081SOL     OW71010   6.517   6.844   3.318 -0.0589  0.6032 -0.0996
23081SOL    HW171011   6.427   6.874   3.301 -0.5436 -0.8209 -0.2247
23081SOL    HW271012   6.531   6.863   3.410 -1.4863 -1.4727  0.6118
23082SOL     OW71013   9.183   1.044   0.687  0.4506 -0.5479  0.2558
23082SOL    HW171014   9.152   0.956   0.707  1.3434 -1.6528 -2.6553
23082SOL    HW271015   9.253   1.031   0.623  1.1521  2.2572  0.3095
23083SOL     OW71016   9.678   1.584   4.432  0.2989 -0.3615 -0.2662
23083SOL    HW171017   9.625   1.641   4.487 -0.7247  1.3240 -2.8170
23083SOL    HW271018   9.767   1.615   4.444 -0.0812  0.9131 -0.5664
23084SOL     OW71019   3.261   2.559   3.056 -0.3091 -0.2584 -0.3339
23084SOL    HW171020   3.237   2.615   3.130  0.9676 -1.7824  1.3261
23084SOL    HW271021   3.203   2.587   2.985 -0.5023  2.3322  0.7421
23085SOL     OW71022   2.714   6.456   6.522  1.1005 -0.2770 -0.2873
23085SOL    HW171023   2.627   6.441   6.484  1.6854  0.0202 -1.7899
23085SOL    HW271024   2.720   6.391   6.592 -0.5017 -0.0090  0.1532
23086SOL     OW71025   3.585   3.443   9.309  0.2278 -0.1223  0.1109
23086SOL    HW171026   3.597   3.365   9.363 -1.6751 -2.4658 -2.5029
23086SOL    HW271027   3.490   3.449   9.297  0.4199  1.8093 -0.8527
23087SOL     OW71028   9.130   3.660   7.549 -0.1343  0.2527 -0.4093
23087SOL    HW171029   9.172   3.659   7.463 -0.1729 -0.4090 -0.4286
23087SOL    HW271030   9.202   3.644   7.611 -0.0352  1.1545 -0.2797
23088SOL     OW71031   7.258   8.044   5.291  0.4474 -0.1593 -0.5067
23088SOL    HW171032   7.323   8.007   5.350 -0.8181  2.2892  2.7300
23088SOL    HW271033   7.303   8.116   5.247  0.5978 -0.0532 -0.1800
23089SOL     OW71034   4.059   7.076   5.803 -0.1023  0.5032 -0.4234
23089SOL    HW171035   4.017   7.001   5.845 -0.7553  0.0767 -1.7710
23089SOL    HW271036   4.152   7.051   5.798 -0.4851 -0.8432 -2.0032
23090SOL     OW71037   5.637   6.399   7.081  0.1109 -0.1477 -0.2338
23090SOL    HW171038   5.559   6.347   7.101  0.0487 -0.1051 -0.3629
23090SOL    HW271039   5.656   6.379   6.989  0.6715 -0.7045 -0.0011
23091SOL     OW71040   2.451   2.997   0.420 -0.4416  0.5141  0.3478
23091SOL    HW171041   2.378   2.981   0.479 -0.6645 -0.5488 -0.1859
23091SOL    HW271042   2.444   3.090   0.397 -0.5410  0.8557  1.7086
23092SOL     OW71043   1.993   1.586   9.236  0.1411 -0.4249 -0.3833
23092SOL    HW171044   1.965   1.640   9.162  0.6737 -1.3727 -1.2947
23092SOL    HW271045   1.955   1.629   9.313 -0.7251  0.3699 -1.2363
23093SOL     OW71046   8.771   8.749   6.599 -0.4311  0.6881  0.6126
23093SOL    HW171047   8.708   8.805   6.554 -0.1600  0.8531  0.4319
23093SOL    HW271048   8.761   8.771   6.691 -0.2787  1.0864  0.5381
23094SOL     OW71049   7.473   2.560   1.052 -0.6205 -0.4492 -0.3211
23094SOL    HW171050   7.447   2.552   1.144  1.7980 -2.2001  0.3198
23094SOL    HW271051   7.401   2.520   1.003 -1.5306 -0.3426  0.8785
23095SOL     OW71052   7.836   8.667   4.765  0.3823 -0.2717  0.4026
23095SOL    HW171053   7.878   8.646   4.848  0.2390  1.1851  0.8626
23095SOL    HW271054   7.764   8.725   4.788  0.7159  0.6587 -0.7863
23096SOL     OW71055   6.966   9.754   9.022 -0.2242 -0.5713 -0.4658
23096SOL    HW171056   7.044   9.739   8.969  0.6037 -1.0418  0.8479
23096SOL    HW271057   6.997   9.749   9.112 -1.9660 -1.7897  0.1039
23097SOL     OW71058   0.159   1.794   5.744 -0.3203 -0.1080  0.0593
23097SOL    HW171059   0.213   1.741   5.802 -0.6071  0.8131  1.1937
23097SOL    HW271060   0.202   1.788   5.658 -0.1768 -1.8938  0.2224
23098SOL     OW71061   9.566   0.175   9.470  0.1461  0.0831  0.0303
23098SOL    HW171062   9.479   0.140   9.487  0.6054 -1.0853  0.0780
23098SOL    HW271063   9.601   0.119   9.400  0.9476  0.3816  0.1772
23099SOL     OW71064   2.786   3.001   3.600  0.4297  0.0817  0.0173
23099SOL    HW171065   2.730   2.949   3.542 -1.9456  1.2807  1.0908
23099SOL    HW271066   2.848   2.938   3.636 -1.5325 -1.8181  0.3091
23100SOL     OW71067   9.578   7.299   0.993  0.2770  0.1424  0.1335
23100SOL    HW171068   9.525   7.297   0.914 -0.0462  0.1986  0.3491
23100SOL    HW271069   9.648   7.236   0.976  1.3202  1.5354 -0.9664
23101SOL     OW71070   6.962   8.092   3.394 -0.0696 -0.7343  0.4690
23101SOL    HW171071   6.965   8.126   3.484 -1.8491  1.6073 -0.2488
23101SOL    HW271072   7.036   8.133   3.350 -0.4670 -0.1428  0.3448
23102SOL     OW71073   4.186   8.424   8.873 -0.4495  0.2538  0.1924
23102SOL    HW171074   4.230   8.363   8.931 -0.1011  2.8510  2.8481
23102SOL    HW271075   4.253   8.452   8.811 -0.3984 -1.3049 -0.5022
23103SOL     OW71076   2.362   7.400   7.731  0.4367 -0.8187 -0.2720
23103SOL    HW171077   2.281   7.421   7.685  0.3945 -1.3805 -0.4581
23103SOL    HW271078   2.335   7.346   7.806  0.7277 -1.9400 -0.9457
23104SOL     OW71079   5.628   5.241   8.144 -0.9614 -0.3410  0.2413
23104SOL    HW171080   5.554   5.244   8.083 -1.7036 -2.0787  0.9851
23104SOL    HW271081   5.672   5.325   8.133 -2.8954  0.6420 -0.4164
23105SOL     OW71082   7.831   7.467   2.274 -0.2898 -0.7949  0.2539
23105SOL    HW171083   7.892   7.442   2.344  0.2081  0.4101  0.2772
23105SOL    HW271084   7.752   7.495   2.319 -0.2194 -0.6764  0.3034
23106SOL     OW71085   4.283   6.116   0.306 -0.2435  0.1303 -0.5965
23106SOL    HW171086   4.335   6.195   0.320 -0.0904 -0.0375 -0.1901
23106SOL    HW271087   4.326   6.072   0.233  0.8531 -0.5479  0.4151
23107SOL     OW71088   7.809   5.459   1.994  0.3697 -0.4970  0.1746
23107SOL    HW171089   7.773   5.507   1.920 -2.8967 -0.2594  1.7463
23107SOL    HW271090   7.901   5.446   1.972  0.6978  3.6592 -1.7687
23108SOL     OW71091   0.727   0.400   9.637  0.1404  1.1905 -0.3272
23108SOL    HW171092   0.637   0.409   9.668  0.9185  2.1887  1.8540
23108SOL    HW271093   0.727   0.440   9.550 -1.5008  1.2260 -0.3252
23109SOL     OW71094   6.852   1.127   4.969 -0.0810  0.2164  0.0896
23109SOL    HW171095   6.824   1.183   5.041 -0.2474 -0.4004  0.5165
23109SOL    HW271096   6.783   1.062   4.960  0.1593  0.0110 -0.3211
23110SOL     OW71097   1.212   2.001   8.293  0.0798  0.2944 -0.6372
23110SOL    HW171098   1.226   2.094   8.275 -1.8514  0.4258 -1.7385
23110SOL    HW271099   1.162   2.000   8.374  0.4704  0.1908 -0.3965
23111SOL     OW71100   4.921   6.091   1.614 -0.1882  0.1027  0.4368
23111SOL    HW171101   4.839   6.062   1.654  0.3614  0.3771  1.8283
23111SOL    HW271102   4.961   6.147   1.680 -0.2222  2.3703 -1.3316
23112SOL     OW71103   7.538   5.957   2.515  0.7441  0.4027 -0.3281
23112SOL    HW171104   7.593   6.024   2.475  0.0755 -0.1594 -2.3099
23112SOL    HW271105   7.581   5.938   2.598  0.6895  3.5856  0.5717
23113SOL     OW71106   5.214   1.005   0.592 -0.2802  0.6103 -0.1422
23113SOL    HW171107   5.215   0.913   0.618 -1.5900  0.2460 -1.3428
23113SOL    HW271108   5.205   1.053   0.675 -2.2575 -0.4487  0.3039
23114SOL     OW71109   0.481   0.838   3.435  0.0090  0.4970 -0.7347
23114SOL    HW171110   0.549   0.781   3.399  1.3389  2.0996 -0.8884
23114SOL    HW271111   0.449   0.887   3.359  0.7239  1.7534 -0.2703
23115SOL     OW71112   7.431   0.707   6.301  0.1046  0.0033 -0.2394
23115SOL    HW171113   7.477   0.637   6.254  0.3598  0.1252 -0.1734
23115SOL    HW271114   7.373   0.746   6.236  0.8928  0.5658 -0.6196
23116SOL     OW71115   0.594   9.264   2.443  0.7207 -0.4336  0.5015
23116SOL    HW171116   0.519   9.209   2.421 -0.5248  0.6254  1.9072
23116SOL    HW271117   0.602   9.324   2.369 -0.3088 -0.0705  0.6686
23117SOL     OW71118   2.702   4.385   4.577 -0.0828  0.5933 -0.4863
23117SOL    HW171119   2.713   4.365   4.670 -0.2596  0.2729 -0.5339
23117SOL    HW271120   2.702   4.300   4.534 -1.4469  0.6459 -0.6264
23118SOL     OW71121   5.219   7.135   1.184 -0.2265 -0.3391  0.2096
23118SOL    HW171122   5.142   7.096   1.224 -0.1852  0.7191  1.4137
23118SOL    HW271123   5.200   7.137   1.091 -1.2078 -1.0422  0.3841
23119SOL     OW71124   6.186   8.828   1.043 -0.5593  0.2829  0.0934
23119SOL    HW171125   6.254   8.762   1.031 -0.1056  0.6635  0.5126
23119SOL    HW271126   6.143   8.805   1.124 -0.4384  0.4619  0.2106
23120SOL     OW71127   3.843   5.043   2.205  0.2667 -0.9488 -0.4381
23120SOL    HW171128   3.840   5.011   2.295  2.2626  1.0033  0.4215
23120SOL    HW271129   3.840   5.138   2.213 -1.7082 -0.7130 -2.6309
23121SOL     OW71130   8.800   0.927   0.374 -0.0562 -0.6094  0.4431
23121SOL    HW171131   8.825   0.970   0.456  0.9185 -1.9352  0.8696
23121SOL    HW271132   8.717   0.883   0.394 -1.1769  1.1643 -0.0579
23122SOL     OW71133   4.566   5.382   2.669 -0.4159  0.8170  0.2792
23122SOL    HW171134   4.591   5.411   2.581 -1.3121  0.7264 -0.0110
23122SOL    HW271135   4.645   5.339   2.702  0.0811  1.2523 -0.2977
23123SOL     OW71136   6.937   0.612   0.343 -0.1934 -0.2589  0.6196
23123SOL    HW171137   6.850   0.645   0.366  0.1714  1.9772 -0.9219
23123SOL    HW271138   6.973   0.579   0.425 -1.2212  1.8367  1.9857
23124SOL     OW71139   0.290   2.053   3.950 -0.0809 -0.0843 -0.1194
23124SOL    HW171140   0.273   2.098   3.867 -0.3264  0.1835  0.0737
23124SOL    HW271141   0.385   2.049   3.957 -0.0582 -0.2770 -0.5032
23125SOL     OW71142   6.674   3.184   0.734  0.1176  0.4795  0.4271
23125SOL    HW171143   6.630   3.236   0.802 -0.3975  0.7746 -0.1140
23125SOL    HW271144   6.726   3.120   0.782  1.6490  2.1710  1.1511
23126SOL     OW71145   8.118   0.026   8.816 -0.1302 -0.2261  0.2852
23126SOL    HW171146   8.192   0.056   8.763 -0.7281 -0.9677 -1.0112
23126SOL    HW271147   8.121  -0.069   8.812 -2.9864 -0.3577 -2.5701
23127SOL     OW71148   3.682   2.652   5.213  1.1239  0.3148 -0.6180
23127SOL    HW171149   3.621   2.684   5.147 -1.3065 -0.9605  0.8658
23127SOL    HW271150   3.627   2.624   5.286  3.5956  0.5539  1.5145
23128SOL     OW71151   8.536   9.001   2.737 -0.5131 -0.0045 -0.3286
23128SOL    HW171152   8.503   9.090   2.747 -0.4573  0.0656 -0.7341
23128SOL    HW271153   8.488   8.966   2.662 -1.7295 -0.8813  0.8186
23129SOL     OW71154   0.595   3.322   2.808  0.0597  0.3780 -0.1072
23129SOL    HW171155   0.601   3.267   2.886 -1.7795 -0.3529 -0.4294
23129SOL    HW271156   0.520   3.380   2.825  0.3969  1.0405 -0.8257
23130SOL     OW71157   0.299   8.272   6.926  0.1595  0.0344 -0.1326
23130SOL    HW171158   0.214   8.252   6.888 -1.0257 -0.4091  2.5325
23130SOL    HW271159   0.312   8.206   6.993  1.9856  0.9073  0.4519
23131SOL     OW71160   0.407   5.176   3.740  0.1806  0.1867 -0.3068
23131SOL    HW171161   0.362   5.254   3.771 -2.0905 -1.4491  0.7097
23131SOL    HW271162   0.496   5.207   3.718 -0.4699  2.9001  0.5435
23132SOL     OW71163   8.645   8.671   4.364 -0.0704 -0.1156  0.5604
23132SOL    HW171164   8.568   8.712   4.403 -0.0612  1.7053 -1.1337
23132SOL    HW271165   8.616   8.643   4.277  0.2098 -2.9419  1.3011
23133SOL     OW71166   1.207   6.507   2.336  0.0745 -0.0773 -0.0788
23133SOL    HW171167   1.217   6.554   2.419  2.8031  0.9295 -0.8603
23133SOL    HW271168   1.283   6.534   2.285  0.2975 -3.2967 -1.6412
23134SOL     OW71169   5.501   0.181   0.582 -0.1266 -0.4022 -0.9611
23134SOL    HW171170   5.504   0.087   0.562  1.7127 -0.4852 -0.4807
23134SOL    HW271171   5.527   0.224   0.500  0.0241 -0.3772 -0.9016
23135SOL     OW71172   0.532   5.019   5.491  1.1582  0.2047  0.1693
23135SOL    HW171173   0.475   5.033   5.567 -0.9504 -0.5220 -1.1724
23135SOL    HW271174   0.527   5.101   5.443 -1.9785 -0.9737 -1.8632
23136SOL     OW71175   7.466   8.222   1.139  0.6449 -0.1301  0.3092
23136SOL    HW171176   7.536   8.159   1.120  0.9640  0.4843 -0.6457
23136SOL    HW271177   7.478   8.291   1.073 -1.5641 -0.5895 -0.6490
23137SOL     OW71178   3.748   3.813   4.843  0.3624 -0.1826  0.0153
23137SOL    HW171179   3.709   3.726   4.854 -1.4675  0.7173  1.0053
23137SOL    HW271180   3.841   3.799   4.858 -0.1607 -1.6290  2.3843
23138SOL     OW71181   0.800   6.326   2.330 -0.2655  0.6430  0.1050
23138SOL    HW171182   0.751   6.302   2.251 -1.3576  1.3438  0.5395
23138SOL    HW271183   0.740   6.306   2.402  0.7253 -0.0200  0.7859
23139SOL     OW71184   4.458   5.568   9.110  0.4789 -0.7107 -0.4115
23139SOL    HW171185   4.437   5.499   9.046 -1.5970 -2.2718  1.7576
23139SOL    HW271186   4.387   5.563   9.173  3.0007 -0.1145  2.7116
23140SOL     OW71187   3.975   0.714   2.775 -0.0025  0.7815  0.1400
23140SOL    HW171188   3.998   0.651   2.707  0.8143  1.2655 -0.0518
23140SOL    HW271189   3.962   0.796   2.728 -0.6769  0.8403  0.4291
23141SOL     OW71190   2.685   6.952   9.846  0.3210 -0.6073  0.6298
23141SOL    HW171191   2.671   7.047   9.836  0.5807 -0.5671  0.6420
23141SOL    HW271192   2.608   6.912   9.805  1.1548 -0.4513 -1.1735
23142SOL     OW71193   1.341   9.143   2.751 -0.4033 -0.3191  0.3767
23142SOL    HW171194   1.283   9.140   2.675 -2.0659  0.1646  1.5730
23142SOL    HW271195   1.346   9.236   2.774 -0.3167 -0.5089  1.1473
23143SOL     OW71196   8.327   6.101   5.525  0.3077  0.1197  0.0576
23143SOL    HW171197   8.369   6.081   5.442  1.4454  2.1237  0.0739
23143SOL    HW271198   8.285   6.186   5.511 -0.2067  0.0911  1.2713
23144SOL     OW71199   8.616   9.453   2.805  0.2116  0.3989 -0.6600
23144SOL    HW171200   8.696   9.445   2.753  2.3192 -0.2697  2.3922
23144SOL    HW271201   8.573   9.531   2.771  3.7391  2.6044 -0.6310
23145SOL     OW71202   3.555   5.522   0.348 -0.6604  0.3419  0.7562
23145SOL    HW171203   3.638   5.531   0.396 -0.7023  0.9175  0.7155
23145SOL    HW271204   3.541   5.607   0.307 -0.8917  0.0071  0.1397
23146SOL     OW71205   7.163   3.864   0.963  0.5840  0.0476 -0.0257
23146SOL    HW171206   7.082   3.913   0.973 -0.4718 -1.4039 -1.0516
23146SOL    HW271207   7.199   3.857   1.051 -0.6371  0.3228  0.5051
23147SOL     OW71208   5.763   7.683   2.816  0.0606  0.2549 -0.6407
23147SOL    HW171209   5.688   7.742   2.811  1.1609  1.9586  1.3290
23147SOL    HW271210   5.773   7.666   2.909  0.7705 -1.7986 -1.0499
23148SOL     OW71211   4.985   0.116   4.121  0.3734  0.0005  0.1622
23148SOL    HW171212   5.013   0.042   4.066  1.1581  1.4592 -1.5298
23148SOL    HW271213   5.026   0.099   4.206 -0.7424 -2.2596  0.3252
23149SOL     OW71214   7.562   7.940   2.834 -0.1518 -0.0296 -0.4085
23149SOL    HW171215   7.470   7.944   2.857  0.2262 -0.3285  1.2868
23149SOL    HW271216   7.582   8.027   2.798 -0.8903  0.3113 -0.0027
23150SOL     OW71217   9.079   7.095   3.871  0.0246 -0.4375  0.1972
23150SOL    HW171218   9.139   7.072   3.942 -2.0500 -0.2731  2.1123
23150SOL    HW271219   9.014   7.024   3.871 -1.3468  0.7694  0.1035
23151SOL     OW71220   6.262   3.120   2.897 -0.2844 -0.0499 -0.9565
23151SOL    HW171221   6.310   3.093   2.976 -1.2392 -1.5998 -0.8554
23151SOL    HW271222   6.303   3.070   2.826 -0.5667  0.0060 -1.1590
23152SOL     OW71223   7.472   4.619   3.196  0.4302 -0.5111  0.0359
23152SOL    HW171224   7.382   4.588   3.183  0.0949 -0.4084  1.8748
23152SOL    HW271225   7.518   4.591   3.117 -1.3923  0.1910 -1.3587
23153SOL     OW71226   6.837   3.279   6.346  0.3906 -0.0373 -0.1645
23153SOL    HW171227   6.827   3.186   6.327  0.0135  0.1703 -1.0762
23153SOL    HW271228   6.748   3.314   6.339  0.6189  0.4997 -0.4914
23154SOL     OW71229   1.826   4.700   8.838  0.0240  0.1411 -0.4309
23154SOL    HW171230   1.916   4.709   8.806  0.2752 -1.0619 -0.0964
23154SOL    HW271231   1.795   4.790   8.847  1.3902  0.5971 -0.0160
23155SOL     OW71232   3.151   5.681   6.254  0.0321  0.6872 -0.6047
23155SOL    HW171233   3.246   5.679   6.247  0.3579  1.2847  2.5362
23155SOL    HW271234   3.125   5.758   6.203  0.9719 -0.4207 -2.9225
23156SOL     OW71235   1.733   6.135   4.786  0.2070  0.6225 -0.3005
23156SOL    HW171236   1.799   6.200   4.761 -1.6188  3.2714  1.2466
23156SOL    HW271237   1.655   6.160   4.736 -0.6099 -0.2498  0.5163
23157SOL     OW71238   1.492   2.669   3.320 -0.3010 -0.2156 -0.5180
23157SOL    HW171239   1.528   2.612   3.252 -1.8512  0.0206 -1.5867
23157SOL    HW271240   1.463   2.609   3.389  0.3996 -0.5155 -0.4709
23158SOL     OW71241   6.613   8.852   9.109 -0.0453  0.2972  0.1723
23158SOL    HW171242   6.628   8.761   9.083  1.0651  0.9462 -1.6388
23158SOL    HW271243   6.599   8.847   9.204 -2.1386 -1.9622 -0.1655
23159SOL     OW71244   4.812   1.108   0.062  0.2043  0.3091  0.1549
23159SOL    HW171245   4.806   1.202   0.077  1.5554  0.3697  0.4105
23159SOL    HW271246   4.763   1.069   0.135  1.2439  0.7760  1.1211
23160SOL     OW71247   1.471   4.850   6.185 -0.2144 -0.0448  0.2243
23160SOL    HW171248   1.378   4.847   6.162  0.0188 -0.4499 -0.7395
23160SOL    HW271249   1.485   4.774   6.240 -0.6344  0.5153  1.1217
23161SOL     OW71250   1.715   1.260   4.432  0.2937  0.3686  0.6056
23161SOL    HW171251   1.682   1.337   4.478 -1.3636  1.3176 -1.9680
23161SOL    HW271252   1.763   1.295   4.357  0.0957 -1.0879 -0.2493
23162SOL     OW71253   2.489   5.409   5.372 -0.3095 -0.3658  0.2837
23162SOL    HW171254   2.497   5.353   5.295  0.5977 -1.8177  1.3741
23162SOL    HW271255   2.511   5.351   5.446  0.6238  1.4237  1.4703
23163SOL     OW71256   2.410   8.582   9.095  0.8330  0.5138  0.0099
23163SOL    HW171257   2.348   8.647   9.062  2.2641  1.0890 -1.6980
23163SOL    HW271258   2.492   8.630   9.105  0.9849 -0.1431  2.5572
23164SOL     OW71259   1.116   4.280   4.711  0.1367 -0.4076 -0.4291
23164SOL    HW171260   1.164   4.357   4.741 -0.9317  0.2066 -0.2193
23164SOL    HW271261   1.025   4.297   4.737  0.0563 -2.2955  0.6988
23165SOL     OW71262   2.458   5.598   2.405  1.1732  0.3213  0.3601
23165SOL    HW171263   2.494   5.558   2.484  0.8378 -1.2722 -0.2690
23165SOL    HW271264   2.482   5.539   2.334  0.2052  0.9506 -0.5303
23166SOL     OW71265   7.243   2.034   2.045 -0.3011 -0.5339 -0.0915
23166SOL    HW171266   7.184   2.054   2.118  0.4898 -0.3330  0.5108
23166SOL    HW271267   7.195   2.061   1.967 -1.4884 -1.5056  0.2814
23167SOL     OW71268   8.946   5.236   8.349  0.5439 -0.3485 -0.9819
23167SOL    HW171269   8.984   5.307   8.298 -2.0661 -0.6355 -3.5659
23167SOL    HW271270   8.985   5.156   8.313  1.2439 -0.4189 -0.1137
23168SOL     OW71271   9.833   1.834   5.101 -0.0422  0.1941 -0.1660
23168SOL    HW171272   9.845   1.913   5.153 -0.3795  0.8139 -0.9937
23168SOL    HW271273   9.760   1.855   5.043 -0.3889 -0.8705 -0.1381
23169SOL     OW71274   3.304   8.156   7.166 -0.2878 -0.3467  0.1893
23169SOL    HW171275   3.278   8.234   7.117 -0.8146 -0.0264  0.9479
23169SOL    HW271276   3.330   8.093   7.100  1.0713  0.7827 -0.4074
23170SOL     OW71277   2.285   0.186   0.581 -0.7763  0.2626 -0.1234
23170SOL    HW171278   2.217   0.158   0.644 -1.4500  0.9883 -0.5094
23170SOL    HW271279   2.363   0.199   0.635 -0.8757 -0.7815  0.3026
23171SOL     OW71280   8.931   8.822   9.611 -0.1939 -0.5390 -0.1713
23171SOL    HW171281   8.955   8.901   9.661  2.0362 -0.0890 -1.8149
23171SOL    HW271282   8.843   8.842   9.577 -0.5291  0.3433  1.1184
23172SOL     OW71283   5.049   2.151   7.216 -0.3132  0.6511  0.0107
23172SOL    HW171284   5.008   2.210   7.280 -1.4438  1.4454 -1.3788
23172SOL    HW271285   5.063   2.069   7.263 -2.8604  0.5839  0.7704
23173SOL     OW71286   0.887   6.006   7.167  0.0667 -0.5640  0.2796
23173SOL    HW171287   0.869   6.004   7.261  2.0999 -0.7800  0.7146
23173SOL    HW271288   0.815   5.957   7.128 -1.6643  0.8318  1.5294
23174SOL     OW71289   3.114   2.770   2.125 -0.3673  0.1813  0.0518
23174SOL    HW171290   3.052   2.772   2.052  1.0442  1.0935 -1.1798
23174SOL    HW271291   3.079   2.834   2.187 -0.4240  1.0735 -0.8596
23175SOL     OW71292   3.343   8.403   3.876  0.0796 -0.3960  0.2647
23175SOL    HW171293   3.261   8.448   3.854 -0.3252 -1.3211 -0.1931
23175SOL    HW271294   3.315   8.318   3.910  0.8627 -0.8829 -0.2748
23176SOL     OW71295   2.580   2.001   5.867 -0.1868 -0.1912 -0.2050
23176SOL    HW171296   2.623   2.060   5.805  1.1723 -1.9518 -1.0467
23176SOL    HW271297   2.621   2.022   5.951 -0.4286  0.6996 -0.2944
23177SOL     OW71298   0.543   8.669   7.764  0.0800 -0.0754  0.2709
23177SOL    HW171299   0.482   8.743   7.765  1.8665  1.4645  1.1902
23177SOL    HW271300   0.618   8.700   7.814  2.0937 -1.4955 -1.7067
23178SOL     OW71301   0.637   9.203   3.198 -0.1093 -0.3411 -0.1588
23178SOL    HW171302   0.667   9.189   3.108  1.2632  1.5784 -0.0581
23178SOL    HW271303   0.655   9.120   3.242 -0.4175 -1.1821 -1.5386
23179SOL     OW71304   7.637   3.907   1.994  0.2164  0.4667  0.0262
23179SOL    HW171305   7.591   3.991   1.984  0.1275  0.3095 -0.9746
23179SOL    HW271306   7.656   3.902   2.088 -0.4378  1.2565  0.2205
23180SOL     OW71307   4.970   3.398   8.289  0.3796  0.2206  0.2768
23180SOL    HW171308   4.907   3.426   8.356  0.7488 -0.4344  0.9124
23180SOL    HW271309   4.917   3.353   8.224  0.2397 -0.9017  1.1285
23181SOL     OW71310   0.258   9.248   0.108 -0.0855  0.9202 -0.1800
23181SOL    HW171311   0.261   9.205   0.022  2.4536  1.7595 -0.5867
23181SOL    HW271312   0.304   9.188   0.167 -0.8075  0.8856  0.3682
23182SOL     OW71313   5.228   6.528   5.367  0.1026  0.3762 -0.1602
23182SOL    HW171314   5.146   6.521   5.416  0.7120  2.3617  1.2821
23182SOL    HW271315   5.281   6.454   5.397 -0.1390  0.6701  1.0295
23183SOL     OW71316   9.086   0.340   8.585  0.2309  0.1597  0.4551
23183SOL    HW171317   9.115   0.330   8.494  0.6025  0.9447  0.4794
23183SOL    HW271318   9.133   0.417   8.617 -0.3485  0.2427  1.1295
23184SOL     OW71319   3.960   8.965   4.266 -0.5147 -0.2609  0.3455
23184SOL    HW171320   3.939   9.044   4.316 -0.6836 -0.1245  0.0598
23184SOL    HW271321   3.984   8.900   4.333  0.5239  0.2975  0.5460
23185SOL     OW71322   3.619   7.097   6.455 -0.1819 -0.2456  0.1002
23185SOL    HW171323   3.554   7.160   6.423  0.1485 -0.1342 -0.3622
23185SOL    HW271324   3.675   7.080   6.379  0.0490 -0.6946  0.3696
23186SOL     OW71325   4.123   1.282   7.566  0.3557 -0.1301  0.0549
23186SOL    HW171326   4.199   1.230   7.591 -0.1670 -0.4102  1.1126
23186SOL    HW271327   4.066   1.221   7.519  0.8363  0.1143 -0.8590
23187SOL     OW71328   2.269   8.586   0.729 -0.6058  0.1292 -0.1479
23187SOL    HW171329   2.280   8.644   0.804 -1.1972  0.7944 -0.5600
23187SOL    HW271330   2.323   8.625   0.660 -1.6373  0.6770 -0.6772
23188SOL     OW71331   9.175   0.115   6.669  0.6708  0.2735 -0.2478
23188SOL    HW171332   9.254   0.069   6.697 -0.3326 -0.6103  1.3410
23188SOL    HW271333   9.125   0.049   6.621  0.0285  0.1824  0.5054
23189SOL     OW71334   1.218   0.251   1.566 -0.4121  0.0577 -0.2348
23189SOL    HW171335   1.137   0.207   1.542 -0.8945  0.2290  1.0328
23189SOL    HW271336   1.263   0.188   1.623 -0.7842  0.8937  1.0198
23190SOL     OW71337   9.744   2.260   5.381 -0.4712  0.1676  0.0979
23190SOL    HW171338   9.686   2.302   5.318 -2.3518 -1.4915  0.6367
23190SOL    HW271339   9.825   2.312   5.377 -1.8547  2.3937 -0.8755
23191SOL     OW71340   1.599   5.243   6.930  0.7194 -0.2238 -0.2552
23191SOL    HW171341   1.648   5.277   7.005 -1.0017 -1.5514  1.6025
23191SOL    HW271342   1.534   5.311   6.911  0.4336 -0.3496  0.2356
23192SOL     OW71343   2.491   4.820   3.306 -0.1944  0.2271  0.1458
23192SOL    HW171344   2.556   4.751   3.291 -0.5915 -0.4322  1.3085
23192SOL    HW271345   2.473   4.816   3.400 -2.7119 -0.3607 -0.2820
23193SOL     OW71346   8.161   3.188   4.001 -0.2912 -0.1593 -0.0823
23193SOL    HW171347   8.133   3.098   3.986 -0.7938  0.1952 -1.3634
23193SOL    HW271348   8.257   3.183   4.006 -0.3151 -0.7523 -0.1944
23194SOL     OW71349   4.970   8.681   6.087  0.6557 -0.2288  0.2026
23194SOL    HW171350   4.888   8.651   6.126  0.6152  1.8703  1.8827
23194SOL    HW271351   4.986   8.619   6.016 -1.6945 -1.4632  0.6373
23195SOL     OW71352   7.048   2.460   6.678 -0.4208  0.0299  0.2534
23195SOL    HW171353   6.964   2.442   6.721 -1.5682  1.9682 -1.0233
23195SOL    HW271354   7.112   2.459   6.749 -1.3110 -2.3891  1.1434
23196SOL     OW71355   9.079   9.590   0.558 -0.6318  0.7490  0.2874
23196SOL    HW171356   9.066   9.657   0.626 -2.6360 -0.3738  1.1010
23196SOL    HW271357   8.999   9.538   0.560  1.1844 -2.2616  0.3254
23197SOL     OW71358   6.869   2.652   0.616 -0.2290 -0.1572 -0.0587
23197SOL    HW171359   6.884   2.672   0.709 -0.8014 -0.6690  0.1512
23197SOL    HW271360   6.776   2.629   0.611 -0.3500  0.4596 -0.8726
23198SOL     OW71361   5.858   7.699   5.467  0.2538 -0.0289  0.5318
23198SOL    HW171362   5.914   7.659   5.401  0.9285 -0.2965  1.2512
23198SOL    HW271363   5.913   7.706   5.545 -0.2836  1.0124  0.8392
23199SOL     OW71364   8.385   0.936   0.084  0.1931 -0.1866  0.4462
23199SOL    HW171365   8.408   0.996   0.013  0.2816  0.7437  1.2316
23199SOL    HW271366   8.434   0.969   0.160  0.0693 -1.1284  0.9513
23200SOL     OW71367   0.108   7.460   8.755 -0.1024  0.7154 -0.0437
23200SOL    HW171368   0.108   7.443   8.849 -1.8675  1.7293  0.1778
23200SOL    HW271369   0.027   7.420   8.723 -0.8630  2.6279 -0.6501
23201SOL     OW71370   5.497   1.487   3.203 -0.7276 -0.0935  0.1342
23201SOL    HW171371   5.587   1.471   3.234 -0.5942  1.5748  0.6935
23201SOL    HW271372   5.508   1.519   3.114 -0.5795  2.0676  0.8791
23202SOL     OW71373   4.102   1.523   7.882  0.0230 -0.5584 -0.1856
23202SOL    HW171374   4.124   1.441   7.926 -1.7951 -1.0798 -0.1546
23202SOL    HW271375   4.006   1.523   7.878 -0.0016  1.3415 -0.6250
23203SOL     OW71376   0.103   7.814   8.574  0.2878  0.0607  1.0079
23203SOL    HW171377   0.194   7.785   8.564  1.3690  3.2610  0.3773
23203SOL    HW271378   0.060   7.784   8.494  0.9906 -0.6951  0.8847
23204SOL     OW71379   8.385   5.248   7.605  0.2182  0.3238  0.0208
23204SOL    HW171380   8.421   5.332   7.576  1.0263 -0.6829 -2.1225
23204SOL    HW271381   8.298   5.244   7.567  0.2066  0.1713  0.0610
23205SOL     OW71382   5.587   6.176   9.141 -0.1409 -0.2188 -0.3088
23205SOL    HW171383   5.673   6.176   9.182  1.0378  0.4060 -2.6063
23205SOL    HW271384   5.541   6.250   9.181  0.7530  0.0386  0.2657
23206SOL     OW71385   1.366   9.129   0.889 -0.1838 -0.4421 -0.2143
23206SOL    HW171386   1.386   9.223   0.887  1.5243 -0.7190  1.1851
23206SOL    HW271387   1.276   9.125   0.920 -0.1175  0.7330  0.2109
23207SOL     OW71388   4.217   9.837   9.801 -0.2982  0.5687  0.0808
23207SOL    HW171389   4.197   9.924   9.837 -0.3429  0.4917  0.2446
23207SOL    HW271390   4.131   9.797   9.785 -0.3312  1.3295 -1.9398
23208SOL     OW71391   2.855   0.915   8.067 -0.2054  0.3770 -0.1297
23208SOL    HW171392   2.834   0.908   8.160 -0.5185  0.9726 -0.1543
23208SOL    HW271393   2.787   0.865   8.023 -0.5866  0.8527 -0.0932
23209SOL     OW71394   5.062   0.290   1.902  0.0201 -0.0908 -0.2774
23209SOL    HW171395   5.088   0.198   1.890 -0.2827 -0.1550 -0.4423
23209SOL    HW271396   4.991   0.303   1.840  0.1661  0.3018 -0.3628
23210SOL     OW71397   6.394   0.493   2.987 -1.0050  0.3257 -0.4043
23210SOL    HW171398   6.330   0.441   2.939 -1.7829  0.6982  0.2166
23210SOL    HW271399   6.362   0.495   3.077  0.5323 -0.5258  0.2093
23211SOL     OW71400   7.914   7.601   3.708 -0.1562  0.2847 -0.1014
23211SOL    HW171401   7.861   7.626   3.632 -0.1410 -0.6965 -0.4570
23211SOL    HW271402   7.942   7.512   3.688  0.9596  0.4992  0.4546
23212SOL     OW71403   2.678   1.006   9.046  0.1446 -0.4045  0.5426
23212SOL    HW171404   2.686   0.983   8.953 -0.9866 -0.0386  0.3408
23212SOL    HW271405   2.680   0.922   9.092  1.1449 -0.5617  0.2361
23213SOL     OW71406   6.383   8.288   9.189  0.2884 -0.5067 -0.1063
23213SOL    HW171407   6.324   8.362   9.204 -0.6904 -1.4593  0.9283
23213SOL    HW271408   6.344   8.241   9.115  1.3010  0.3713 -1.2310
23214SOL     OW71409   6.434   1.370   3.302  1.0463 -0.1353  0.0690
23214SOL    HW171410   6.527   1.384   3.318  0.7000  1.2550  1.0416
23214SOL    HW271411   6.397   1.354   3.389  0.4022 -0.8953 -0.3334
23215SOL     OW71412   3.675   3.108   6.455  0.2723 -0.1663 -0.4385
23215SOL    HW171413   3.605   3.063   6.502  0.4230  0.1254  0.0659
23215SOL    HW271414   3.629   3.164   6.393  0.0810 -1.6736 -1.7357
23216SOL     OW71415   8.328   6.663   1.441 -0.1457 -0.1471  0.1791
23216SOL    HW171416   8.292   6.600   1.379 -1.0314  0.4123  0.0994
23216SOL    HW271417   8.351   6.612   1.518 -0.3783 -0.6395 -0.0759
23217SOL     OW71418   7.536   3.983   2.659  0.5358 -0.4076 -0.7144
23217SOL    HW171419   7.528   3.963   2.566 -1.8553 -0.9799 -0.4431
23217SOL    HW271420   7.458   4.035   2.679  0.6212 -0.9368  1.1330
23218SOL     OW71421   4.049   2.540   2.346  0.2069 -0.2488  0.2909
23218SOL    HW171422   4.022   2.620   2.301 -1.1160 -1.3253 -0.9280
23218SOL    HW271423   4.033   2.558   2.439  0.2961  1.0091  0.0807
23219SOL     OW71424   5.388   0.677   4.988 -0.0844  0.7094 -0.1640
23219SOL    HW171425   5.430   0.606   5.037 -0.6225  0.1869 -0.4422
23219SOL    HW271426   5.433   0.677   4.904  0.3148  1.0902  0.0502
23220SOL     OW71427   4.945   6.271   5.222 -0.4420 -0.4996  0.3949
23220SOL    HW171428   4.979   6.217   5.150  0.2034 -0.4595  0.6741
23220SOL    HW271429   5.012   6.268   5.289 -0.7838 -0.0433  0.7633
23221SOL     OW71430   1.532   9.334   1.042 -0.8693  0.3890  0.2254
23221SOL    HW171431   1.442   9.362   1.054 -1.1645 -0.7041  0.7469
23221SOL    HW271432   1.561   9.376   0.961 -1.6219  1.2662  0.3990
23222SOL     OW71433   2.411   4.919   7.932  0.2026  0.4313 -0.3171
23222SOL    HW171434   2.470   4.927   8.007  0.7591  0.6623 -0.7677
23222SOL    HW271435   2.344   4.858   7.961 -0.8109  2.1348  1.1438
23223SOL     OW71436   2.419   0.846   5.498  0.2105  0.0590  0.0354
23223SOL    HW171437   2.418   0.764   5.448  0.5179  0.2440 -0.2763
23223SOL    HW271438   2.502   0.887   5.476 -0.5904  1.1914 -1.0196
23224SOL     OW71439   2.331   8.432   7.985  0.0702 -0.1487 -0.3370
23224SOL    HW171440   2.351   8.462   7.896  0.4747  0.7623  0.0447
23224SOL    HW271441   2.409   8.455   8.036 -0.9094  1.1181  0.6484
23225SOL     OW71442   1.325   9.742   3.218 -0.0666  0.4908  0.5250
23225SOL    HW171443   1.378   9.683   3.163  1.5374  1.7661  0.6596
23225SOL    HW271444   1.298   9.687   3.292 -1.3192 -0.9492 -0.9085
23226SOL     OW71445   7.829   6.428   4.956  0.4511  0.1581 -0.6050
23226SOL    HW171446   7.853   6.347   5.002  0.1723  0.4845  0.1173
23226SOL    HW271447   7.906   6.484   4.964  1.1468 -0.4981 -2.2219
23227SOL     OW71448   4.189   7.118   9.844  0.1172 -0.5092  0.0860
23227SOL    HW171449   4.161   7.198   9.888 -0.0675 -0.2556 -0.4969
23227SOL    HW271450   4.109   7.079   9.810  0.0134 -1.6587  1.5190
23228SOL     OW71451   0.942   8.157   8.198 -0.4516  0.4133  0.3837
23228SOL    HW171452   0.939   8.244   8.238 -2.9456  0.8794 -0.6757
23228SOL    HW271453   0.868   8.110   8.236  0.7168 -1.2147  0.7597
23229SOL     OW71454   0.492   1.036   7.583 -0.1531  0.1079  0.1386
23229SOL    HW171455   0.535   1.062   7.664 -1.3673 -1.5695  1.4012
23229SOL    HW271456   0.409   1.084   7.584  0.3887  1.0951 -0.8078
23230SOL     OW71457   9.140   1.000   4.469 -0.7555  0.1290 -0.5442
23230SOL    HW171458   9.186   1.020   4.551 -0.6180 -0.3600 -0.4968
23230SOL    HW271459   9.048   1.015   4.489 -0.9738 -1.9518  0.3574
23231SOL     OW71460   1.170   9.379   1.516  0.4024  0.2200 -0.6846
23231SOL    HW171461   1.224   9.330   1.453  1.0036  1.2852 -1.0236
23231SOL    HW271462   1.199   9.470   1.507 -1.5141  0.8464 -0.9174
23232SOL     OW71463   8.021   2.300   5.648 -0.2671  0.3159 -0.2618
23232SOL    HW171464   7.936   2.273   5.681 -1.4114  2.2345 -1.4698
23232SOL    HW271465   8.062   2.218   5.618 -1.9009 -0.5726 -0.1808
23233SOL     OW71466   1.286   7.446   4.273  0.0883 -0.6925  0.2373
23233SOL    HW171467   1.293   7.522   4.216 -0.2425 -0.5887  0.3311
23233SOL    HW271468   1.225   7.473   4.342 -0.2290 -1.1206  0.1339
23234SOL     OW71469   0.109   9.450   8.070 -0.2506 -0.2333  0.2670
23234SOL    HW171470   0.052   9.379   8.101 -0.3004 -0.7238 -0.9053
23234SOL    HW271471   0.088   9.524   8.128 -1.7816 -0.5188  0.1264
23235SOL     OW71472   3.019   7.435   2.974 -0.0926 -0.0158  0.3963
23235SOL    HW171473   3.071   7.514   2.991  0.5084 -0.2445 -0.2818
23235SOL    HW271474   3.084   7.364   2.971 -0.2168 -0.1194 -1.8618
23236SOL     OW71475   7.082   6.738   4.211 -0.0037  0.3235  0.2617
23236SOL    HW171476   7.073   6.828   4.179 -1.1550  0.3722  0.6733
23236SOL    HW271477   7.171   6.734   4.246  0.9092  0.5748 -1.8981
23237SOL     OW71478   4.950   5.327   9.017  0.2564 -0.5458 -0.3550
23237SOL    HW171479   4.864   5.296   9.046  0.5738 -0.0067  1.3095
23237SOL    HW271480   4.965   5.407   9.069  1.0992  0.2400 -1.7413
23238SOL     OW71481   9.629   2.454   5.642  0.0698 -0.2921 -0.0749
23238SOL    HW171482   9.723   2.460   5.662  0.0364 -0.5209  0.1658
23238SOL    HW271483   9.594   2.399   5.712 -0.5290  1.1039  0.7646
23239SOL     OW71484   5.661   4.293   8.435  0.0391  0.0578 -0.7460
23239SOL    HW171485   5.602   4.223   8.404  0.3933  0.9206 -3.7198
23239SOL    HW271486   5.611   4.374   8.422  0.1709  0.5108  1.2818
23240SOL     OW71487   1.512   0.913   7.266 -0.6833  0.7555  0.3335
23240SOL    HW171488   1.478   1.002   7.272 -1.5295  0.5452 -1.0189
23240SOL    HW271489   1.605   0.924   7.243 -0.6797  1.2733  0.5786
23241SOL     OW71490   0.363   8.778   1.492 -0.2697 -0.2683 -0.0753
23241SOL    HW171491   0.282   8.817   1.460 -0.4904 -1.1488 -0.6300
23241SOL    HW271492   0.380   8.705   1.433 -0.0073 -1.1773  1.0768
23242SOL     OW71493   1.089   9.041   8.940 -0.1263  0.1920  0.0376
23242SOL    HW171494   1.044   9.099   8.877  0.3533 -0.2176 -0.6876
23242SOL    HW271495   1.180   9.070   8.939 -0.2059  0.5152  0.9348
23243SOL     OW71496   2.489   2.985   5.248  0.6301  0.3322  0.2110
23243SOL    HW171497   2.454   3.065   5.207 -1.2050 -0.7074 -0.3602
23243SOL    HW271498   2.415   2.925   5.250  1.4253 -0.6635  2.5317
23244SOL     OW71499   8.333   2.634   1.354  0.2356  0.3993 -0.3314
23244SOL    HW171500   8.323   2.701   1.287 -1.2212 -0.5301 -1.0774
23244SOL    HW271501   8.253   2.641   1.407  0.6938  0.1418  0.4087
23245SOL     OW71502   2.713   2.502   6.979 -0.0743  0.3966  0.1851
23245SOL    HW171503   2.781   2.449   7.021 -0.3850 -1.3889 -1.4546
23245SOL    HW271504   2.753   2.532   6.897 -0.3041  1.8137  0.5525
23246SOL     OW71505   3.169   7.791   4.402 -0.0320  0.5938 -0.1744
23246SOL    HW171506   3.242   7.821   4.348  0.1606  1.6030  0.6053
23246SOL    HW271507   3.147   7.704   4.368  0.3362  1.0369 -1.5914
23247SOL     OW71508   8.521   9.062   6.006  0.2802 -0.1042  0.3405
23247SOL    HW171509   8.563   9.107   5.933 -0.7020 -2.0830 -1.5668
23247SOL    HW271510   8.430   9.093   6.004  0.3911  0.3092  1.1649
23248SOL     OW71511   3.789   2.358   9.278 -0.4297  0.5755 -0.0608
23248SOL    HW171512   3.840   2.290   9.235  1.5923  1.4971  0.7472
23248SOL    HW271513   3.700   2.343   9.249  0.3349 -0.9121 -1.8241
23249SOL     OW71514   8.082   2.517   5.319  0.0179  0.3383 -0.0015
23249SOL    HW171515   8.093   2.598   5.368 -1.3058 -0.0953  1.0602
23249SOL    HW271516   7.992   2.520   5.286 -1.0830 -1.8793  2.4183
23250SOL     OW71517   7.288   5.838   8.696 -0.2764  0.3436 -0.6638
23250SOL    HW171518   7.239   5.857   8.616 -0.7945 -1.9283 -0.9593
23250SOL    HW271519   7.365   5.894   8.691 -1.0767  1.3904 -1.9596
23251SOL     OW71520   5.222   3.927   0.170 -0.3587  0.4443  0.6148
23251SOL    HW171521   5.173   4.001   0.204 -0.5379  1.4159 -1.5643
23251SOL    HW271522   5.283   3.966   0.106  1.4033 -1.0130  1.3234
23252SOL     OW71523   5.969   4.663   7.844 -0.1269 -0.4246 -0.0832
23252SOL    HW171524   6.002   4.713   7.769  0.8930 -0.8997  0.0314
23252SOL    HW271525   5.926   4.727   7.899 -1.2424 -0.1201 -1.2562
23253SOL     OW71526   5.897   5.402   5.639 -0.2379  0.3285 -0.2286
23253SOL    HW171527   5.895   5.375   5.548 -0.7786 -1.8750  0.3755
23253SOL    HW271528   5.957   5.341   5.681 -0.4613  0.9176  1.0068
23254SOL     OW71529   6.240   2.630   7.018 -0.0240  0.3070  0.1404
23254SOL    HW171530   6.210   2.674   7.097  0.0021 -0.3304  0.5103
23254SOL    HW271531   6.161   2.621   6.964  0.0969  1.4315 -0.2542
23255SOL     OW71532   0.141   8.607   0.501  0.3914  0.2511  0.2403
23255SOL    HW171533   0.074   8.555   0.457  0.1069 -1.3764  2.4066
23255SOL    HW271534   0.093   8.680   0.541 -0.2508 -1.0814  2.0540
23256SOL     OW71535   6.789   8.036   5.342  0.2136  0.2097 -0.2273
23256SOL    HW171536   6.776   8.102   5.409  0.3495 -1.0044  1.0478
23256SOL    HW271537   6.883   8.036   5.325  0.2318  0.2429 -0.1222
23257SOL     OW71538   7.151   4.318   2.971 -0.0460 -0.0349  0.1315
23257SOL    HW171539   7.066   4.280   2.951  0.1511 -0.2680 -0.2818
23257SOL    HW271540   7.186   4.344   2.885  0.6145 -0.6137  0.2219
23258SOL     OW71541   4.596   1.694   1.388 -0.3086 -0.3649 -0.2411
23258SOL    HW171542   4.629   1.677   1.300  1.0913  0.4757  0.0812
23258SOL    HW271543   4.501   1.702   1.378 -0.2905 -1.3768 -1.4741
23259SOL     OW71544   6.024   4.613   1.076 -0.5129 -0.1944 -0.3128
23259SOL    HW171545   6.008   4.702   1.106  1.2894  0.1830 -0.3463
23259SOL    HW271546   6.044   4.564   1.156 -0.8261 -0.4060 -0.3632
23260SOL     OW71547   4.728   6.147   0.326  0.0849 -0.0939  0.1244
23260SOL    HW171548   4.683   6.167   0.244  0.0482 -0.9227 -0.0607
23260SOL    HW271549   4.720   6.228   0.377 -0.7379  0.1091 -0.2990
23261SOL     OW71550   7.017   9.111   4.058  0.0105 -0.2012 -0.1947
23261SOL    HW171551   7.069   9.110   3.978 -0.6437 -0.5441 -0.6271
23261SOL    HW271552   7.080   9.100   4.129  0.8143  1.8225 -0.5350
23262SOL     OW71553   3.365   5.941   0.615 -0.1530 -0.3738 -0.4490
23262SOL    HW171554   3.296   5.942   0.548  0.2243  1.8081 -0.8822
23262SOL    HW271555   3.318   5.930   0.698 -1.0158  0.6240 -0.7739
23263SOL     OW71556   0.447   3.641   6.525 -0.3003 -0.2188 -0.0715
23263SOL    HW171557   0.471   3.709   6.462 -2.0567  0.6639  0.1462
23263SOL    HW271558   0.513   3.648   6.594 -0.8157  1.7427  0.2793
23264SOL     OW71559   1.025   1.141   1.640  0.2584 -0.8773 -0.0059
23264SOL    HW171560   0.968   1.217   1.651 -0.3203 -1.5310  1.6686
23264SOL    HW271561   1.039   1.135   1.545 -0.6934  0.5629 -0.2600
23265SOL     OW71562   6.481   7.567   2.418 -0.6841 -0.4301 -0.1349
23265SOL    HW171563   6.387   7.583   2.422 -0.9847 -2.1742  2.6370
23265SOL    HW271564   6.504   7.541   2.507  2.8891  2.1190 -0.1097
23266SOL     OW71565   3.338   8.759   7.346 -0.1036 -0.1342  0.1836
23266SOL    HW171566   3.430   8.780   7.331 -0.8557  2.8183 -0.9861
23266SOL    HW271567   3.324   8.778   7.438  0.3442 -0.1134  0.2500
23267SOL     OW71568   8.904   9.433   1.344 -0.1612 -0.1488  0.5777
23267SOL    HW171569   8.875   9.377   1.272 -0.5595  0.0460  0.5844
23267SOL    HW271570   8.950   9.506   1.301 -0.1801 -0.1614  0.5359
23268SOL     OW71571   1.266   1.805   2.146  0.1263  0.2572  0.1599
23268SOL    HW171572   1.231   1.718   2.165  2.1443 -0.5899  0.2657
23268SOL    HW271573   1.237   1.824   2.057  0.9681 -1.2687 -0.4876
23269SOL     OW71574   9.806   7.312   5.705  0.3724  0.7367 -0.3023
23269SOL    HW171575   9.825   7.288   5.796  0.1931  1.5690 -0.0355
23269SOL    HW271576   9.768   7.232   5.667  1.0152  0.1884  0.1701
23270SOL     OW71577   2.977   8.183   3.097 -0.0382 -0.4109  0.3003
23270SOL    HW171578   2.971   8.229   3.181 -0.6833 -1.4685  0.8469
23270SOL    HW271579   2.889   8.150   3.081 -0.0995  0.3973 -1.1687
23271SOL     OW71580   2.002   7.857   4.679 -0.1389 -0.4262 -0.2794
23271SOL    HW171581   1.928   7.895   4.727 -0.3707 -0.8333 -0.3134
23271SOL    HW271582   2.076   7.914   4.701 -0.3695 -0.2656  0.0930
23272SOL     OW71583   5.120   0.775   6.785  0.2879  0.0828 -0.1460
23272SOL    HW171584   5.090   0.758   6.874  0.1553  0.2762 -0.1521
23272SOL    HW271585   5.210   0.807   6.796  0.4210 -0.2948 -0.1123
23273SOL     OW71586   6.447   9.323   6.031 -0.0800 -0.6351 -0.3173
23273SOL    HW171587   6.429   9.306   6.123 -0.6958  2.0473  0.1651
23273SOL    HW271588   6.361   9.326   5.990  0.0654 -0.0155 -0.5915
23274SOL     OW71589   6.545   7.005   6.293 -0.0013 -0.1615 -0.1646
23274SOL    HW171590   6.601   7.014   6.370 -1.0483  1.7941  0.4248
23274SOL    HW271591   6.478   7.073   6.303 -0.8847 -0.6474 -2.1984
23275SOL     OW71592   7.734   1.819   8.920 -0.8278  0.2494 -0.3371
23275SOL    HW171593   7.813   1.771   8.947 -0.2413  1.3889  0.0330
23275SOL    HW271594   7.681   1.824   9.000 -1.0437 -0.0512 -0.4572
23276SOL     OW71595   3.542   5.584   3.989 -0.4636  0.0903 -0.4670
23276SOL    HW171596   3.538   5.662   4.044 -1.0779  0.2074 -0.6792
23276SOL    HW271597   3.491   5.606   3.911  0.0077 -0.2437 -0.8778
23277SOL     OW71598   3.848   9.508   2.743  0.1255  0.0980 -0.2898
23277SOL    HW171599   3.823   9.416   2.747 -1.6356  0.5806  1.8559
23277SOL    HW271600   3.915   9.518   2.811 -0.7037  0.6235  0.4800
23278SOL     OW71601   8.385   3.112   9.014 -0.6884  0.3765 -0.3574
23278SOL    HW171602   8.458   3.095   8.954  1.2040 -1.4485  2.2160
23278SOL    HW271603   8.339   3.028   9.019  0.7754 -0.3888  2.5287
23279SOL     OW71604   5.951   8.125   7.985 -0.6345 -0.2026 -0.1062
23279SOL    HW171605   6.029   8.165   7.949 -0.4494  1.7286  2.2168
23279SOL    HW271606   5.975   8.033   7.999  0.2699 -0.2764 -1.8487
23280SOL     OW71607   2.421   7.045   8.400  0.1823 -0.1498 -0.4704
23280SOL    HW171608   2.336   7.083   8.377 -0.2146 -1.3667 -1.1160
23280SOL    HW271609   2.456   7.012   8.317  0.5180 -1.1377  0.0435
23281SOL     OW71610   0.237   7.363   9.751  0.3661  0.1567 -0.4015
23281SOL    HW171611   0.312   7.358   9.691  1.6343 -0.6351  1.1515
23281SOL    HW271612   0.276   7.389   9.835 -1.3796  1.4780  0.0690
23282SOL     OW71613   4.626   9.769   3.625  0.1434 -0.0082  0.0999
23282SOL    HW171614   4.672   9.851   3.608  0.4731 -0.5426 -1.8854
23282SOL    HW271615   4.682   9.721   3.686  0.7657  0.5480 -0.0313
23283SOL     OW71616   4.742   6.451   6.765  0.3557  0.4422 -0.5886
23283SOL    HW171617   4.667   6.473   6.710 -0.0475  2.2963  0.6387
23283SOL    HW271618   4.715   6.373   6.813 -0.0807  0.0524 -1.4434
23284SOL     OW71619   4.760   2.262   4.224 -0.2459  0.4429 -0.3858
23284SOL    HW171620   4.803   2.187   4.266 -1.4250 -0.4092 -0.6273
23284SOL    HW271621   4.829   2.303   4.172  0.3437 -0.7240 -0.5728
23285SOL     OW71622   0.292   4.664   9.462 -0.3454 -0.0276 -0.0119
23285SOL    HW171623   0.236   4.702   9.530 -0.0523 -1.7644  1.2525
23285SOL    HW271624   0.232   4.618   9.404 -0.3291 -1.4197  1.0305
23286SOL     OW71625   5.460   1.028   1.384 -1.5050  0.3920  0.1140
23286SOL    HW171626   5.485   1.115   1.414 -1.6077  1.0430 -1.5410
23286SOL    HW271627   5.453   0.975   1.463 -1.2238  1.8356  1.1297
23287SOL     OW71628   8.025   9.690   1.087  0.5704 -0.4135  0.0649
23287SOL    HW171629   7.974   9.713   1.165  1.1667  0.0837  0.3143
23287SOL    HW271630   8.043   9.774   1.045  1.0403 -0.6051 -0.1147
23288SOL     OW71631   8.195   6.514   9.516 -0.3318  0.0130  0.1025
23288SOL    HW171632   8.249   6.513   9.595 -2.5793  0.8583  1.7320
23288SOL    HW271633   8.200   6.604   9.484 -2.6815  0.7911  1.7222
23289SOL     OW71634   2.820   1.810   5.231 -0.5043  0.1023 -0.1529
23289SOL    HW171635   2.888   1.757   5.189 -1.3350 -0.8446 -0.3371
23289SOL    HW271636   2.802   1.766   5.313  0.2280  1.2617  0.6592
23290SOL     OW71637   1.094   8.699   4.979 -0.3403 -0.6490  0.5417
23290SOL    HW171638   1.059   8.644   4.910 -0.5434  0.2981 -0.1268
23290SOL    HW271639   1.186   8.714   4.954  0.4780 -2.6919  2.0167
23291SOL     OW71640   3.052   2.438   6.580 -0.0746 -0.1544  0.8414
23291SOL    HW171641   3.093   2.419   6.664  2.2664  0.5164 -0.0730
23291SOL    HW271642   3.025   2.530   6.586  1.6464  0.4260  0.3334
23292SOL     OW71643   3.266   0.651   0.937 -0.3056 -0.1515  0.2572
23292SOL    HW171644   3.325   0.699   0.995 -0.7555 -0.4004  0.9264
23292SOL    HW271645   3.265   0.562   0.971 -0.1847 -0.4303 -0.4392
23293SOL     OW71646   3.732   8.785   1.590  0.0139 -0.1102  0.3407
23293SOL    HW171647   3.739   8.738   1.507  0.7392 -0.1394  0.4075
23293SOL    HW271648   3.773   8.870   1.572 -3.0975  1.3822 -0.3907
23294SOL     OW71649   2.835   5.198   7.959 -0.1249  1.1904 -0.3004
23294SOL    HW171650   2.842   5.153   7.875 -2.1303 -2.6884  1.3604
23294SOL    HW271651   2.741   5.206   7.975  0.1915  0.8088  2.0379
23295SOL     OW71652   7.612   1.912   7.346  0.0176  0.4397  0.4258
23295SOL    HW171653   7.654   1.871   7.422  0.1618 -0.1124  0.0563
23295SOL    HW271654   7.681   1.966   7.307  1.0221 -1.8503 -1.2269
23296SOL     OW71655   1.312   1.500   6.740  0.5440  0.5010  0.4054
23296SOL    HW171656   1.399   1.489   6.779  0.2311 -0.0920  0.9725
23296SOL    HW271657   1.326   1.559   6.666  1.4793  0.1924  0.3154
23297SOL     OW71658   5.499   8.645   8.283 -0.3636  0.2814 -0.4149
23297SOL    HW171659   5.504   8.579   8.214 -0.1591 -0.8638  0.6561
23297SOL    HW271660   5.589   8.657   8.312 -0.5902 -0.3976  0.6618
23298SOL     OW71661   9.423   3.566   1.105 -0.1791  0.5958 -0.3501
23298SOL    HW171662   9.486   3.510   1.058 -2.2726 -1.0785 -1.3546
23298SOL    HW271663   9.413   3.643   1.049 -0.1002  0.2046 -0.9152
23299SOL     OW71664   0.163   4.154   8.777  0.0233  0.2307  0.0984
23299SOL    HW171665   0.109   4.203   8.715 -0.4413  0.0629  0.3619
23299SOL    HW271666   0.248   4.147   8.734 -0.1088  0.6627 -0.2428
23300SOL     OW71667   0.631   6.196   8.527 -0.0748  1.0651 -0.2063
23300SOL    HW171668   0.654   6.203   8.620 -1.7752 -0.0740  0.3312
23300SOL    HW271669   0.578   6.273   8.509  0.3149  1.3236 -0.2722
23301SOL     OW71670   2.797   9.114   8.533 -0.5016 -0.2873  0.1021
23301SOL    HW171671   2.774   9.040   8.477 -0.7069  0.5805 -0.9923
23301SOL    HW271672   2.839   9.074   8.609 -3.3287 -1.7604  1.0204
23302SOL     OW71673   2.657   6.206   0.649 -0.5803  0.2113 -0.0803
23302SOL    HW171674   2.640   6.233   0.559 -1.4436  1.6804  0.4854
23302SOL    HW271675   2.751   6.194   0.653 -0.6173 -0.7077 -1.3904
23303SOL     OW71676   7.235   6.859   9.396  0.1099  0.7695  0.2647
23303SOL    HW171677   7.298   6.847   9.467  0.4280  0.9938  0.0209
23303SOL    HW271678   7.287   6.862   9.316 -0.2787  0.1924 -0.0180
23304SOL     OW71679   6.342   7.773   2.672  0.3731 -0.7663  0.1558
23304SOL    HW171680   6.292   7.715   2.730  0.6880  0.0753  1.2956
23304SOL    HW271681   6.387   7.833   2.731  1.4713 -0.4917 -0.9255
23305SOL     OW71682   1.254   3.166   8.723 -0.2785 -0.3811  0.3443
23305SOL    HW171683   1.230   3.258   8.715 -3.0882 -1.0471 -0.0686
23305SOL    HW271684   1.177   3.124   8.761  0.5405 -2.7009 -0.3617
23306SOL     OW71685   1.832   8.100   9.639  0.4632 -0.2028 -0.2351
23306SOL    HW171686   1.911   8.048   9.651  0.0400 -0.7339  0.3962
23306SOL    HW271687   1.772   8.068   9.707 -0.0205  0.7138 -0.2142
23307SOL     OW71688   9.840   8.928   2.192 -0.1372 -0.4285  0.1046
23307SOL    HW171689   9.861   8.965   2.106  0.7398  0.2136  0.5799
23307SOL    HW271690   9.844   9.003   2.252 -1.0031 -0.8212  0.6715
23308SOL     OW71691   6.224   9.682   2.794 -0.3333  0.2228 -0.7895
23308SOL    HW171692   6.221   9.606   2.735  1.2747 -0.0019 -0.6306
23308SOL    HW271693   6.234   9.644   2.881  0.4723  0.6031 -0.7094
23309SOL     OW71694   3.337   0.590   0.051 -0.5899  0.6358  0.6973
23309SOL    HW171695   3.378   0.544   0.124 -0.9221 -0.3244  0.3016
23309SOL    HW271696   3.299   0.520  -0.002  1.2778  1.1209 -1.4372
23310SOL     OW71697   1.414   5.416   1.265  0.0970 -0.2193 -0.0482
23310SOL    HW171698   1.484   5.478   1.284  0.2525 -0.2627 -0.4829
23310SOL    HW271699   1.446   5.364   1.192  0.9416 -2.3759  1.7603
23311SOL     OW71700   1.562   2.830   2.133  0.9418  0.2965  0.4559
23311SOL    HW171701   1.481   2.792   2.166  0.0294  0.6915 -1.1951
23311SOL    HW271702   1.632   2.783   2.178 -0.1725 -1.6262  0.2571
23312SOL     OW71703   3.547   2.786   4.511  0.0981  0.2077 -0.0247
23312SOL    HW171704   3.508   2.837   4.581  0.1605 -1.8130  1.5813
23312SOL    HW271705   3.597   2.849   4.460  0.1154  1.7387  1.7786
23313SOL     OW71706   8.137   4.048   9.739  0.3480 -0.7259 -0.6516
23313SOL    HW171707   8.097   3.962   9.752 -0.1279 -0.3051  0.9919
23313SOL    HW271708   8.230   4.031   9.730  0.6323 -1.3043  2.3333
23314SOL     OW71709   7.350   7.553   6.077  0.2607 -0.5385  0.1026
23314SOL    HW171710   7.306   7.481   6.033  0.7431 -1.2150  0.7035
23314SOL    HW271711   7.439   7.521   6.094  1.1673  0.9614 -1.5096
23315SOL     OW71712   7.876   6.440   7.824 -0.4595 -0.0213  0.3485
23315SOL    HW171713   7.846   6.414   7.737  0.9223  3.7677 -1.4538
23315SOL    HW271714   7.806   6.411   7.883 -1.5508 -2.5345 -1.9665
23316SOL     OW71715   1.308   1.381   9.295  0.2221 -0.0351 -0.0393
23316SOL    HW171716   1.305   1.474   9.319  1.5757  0.1928 -0.6576
23316SOL    HW271717   1.312   1.335   9.378  0.3654  0.5059  0.2573
23317SOL     OW71718   6.656   7.985   8.278  0.5113  0.1345  0.1413
23317SOL    HW171719   6.641   8.072   8.314 -1.0051  0.1514 -0.4236
23317SOL    HW271720   6.583   7.971   8.218  1.4734 -0.9804 -0.8309
23318SOL     OW71721   2.303   3.366   2.436  0.0683 -0.0558 -0.2838
23318SOL    HW171722   2.384   3.401   2.397  0.7467 -2.2691 -1.0193
23318SOL    HW271723   2.330   3.334   2.522 -0.0162 -0.8008 -0.5307
23319SOL     OW71724   0.704   7.696   9.828 -0.3351  0.2345  0.5713
23319SOL    HW171725   0.614   7.680   9.799  0.4558  0.9029 -2.6910
23319SOL    HW271726   0.714   7.791   9.826  1.1798  0.1369 -2.1625
23320SOL     OW71727   3.858   2.566   6.486  0.3608  0.8820  0.3517
23320SOL    HW171728   3.900   2.619   6.554  0.5443  1.1152  0.0607
23320SOL    HW271729   3.898   2.597   6.404  0.4053  0.3546  0.1709
23321SOL     OW71730   6.956   3.353   3.157  0.0363  0.1765 -0.4059
23321SOL    HW171731   6.927   3.421   3.217 -1.3725  0.6821 -1.5822
23321SOL    HW271732   7.030   3.312   3.201 -0.1839  1.3046  1.1135
23322SOL     OW71733   6.973   1.108   3.199  0.5005 -0.2595 -0.5383
23322SOL    HW171734   6.898   1.149   3.156  1.0802  0.5350 -0.8214
23322SOL    HW271735   6.989   1.028   3.149  0.5919  0.1879 -1.2504
23323SOL     OW71736   2.066   1.937   3.530 -0.2753  0.0095 -0.3474
23323SOL    HW171737   2.002   1.912   3.464  0.2213  0.3083 -0.9573
23323SOL    HW271738   2.021   1.926   3.613 -1.7107  1.8407 -0.8177
23324SOL     OW71739   3.905   0.660   0.936  0.3664 -0.5893 -0.0082
23324SOL    HW171740   3.862   0.745   0.935 -0.3690 -0.9480 -1.2994
23324SOL    HW271741   3.969   0.666   1.007 -1.6376  0.0274  1.8346
23325SOL     OW71742   5.661   8.309   1.929 -0.0523 -0.3764 -0.0905
23325SOL    HW171743   5.582   8.261   1.952  0.5519 -0.8330  1.1660
23325SOL    HW271744   5.633   8.400   1.920 -0.9078 -0.7024 -0.7854
23326SOL     OW71745   3.745   7.184   0.683 -0.3565 -0.2087  0.6205
23326SOL    HW171746   3.695   7.260   0.654  3.0803  2.4151  0.9683
23326SOL    HW271747   3.698   7.152   0.760 -3.0258  0.1331 -0.7376
23327SOL     OW71748   6.737   8.222   1.636 -0.4566  0.7194  0.3338
23327SOL    HW171749   6.830   8.240   1.651 -0.1449  0.3140 -0.9851
23327SOL    HW271750   6.691   8.281   1.696  0.6254  2.0489 -0.1055
23328SOL     OW71751   9.420   5.651   1.086  0.0699 -0.1600 -0.1774
23328SOL    HW171752   9.340   5.671   1.037  0.2710 -1.5200 -1.1125
23328SOL    HW271753   9.470   5.594   1.028  2.2705  1.5600 -0.0946
23329SOL     OW71754   7.332   3.813   8.442  0.0093  0.2234  0.8088
23329SOL    HW171755   7.397   3.868   8.398  0.4935 -0.3211  0.8438
23329SOL    HW271756   7.293   3.761   8.373  0.3237 -0.1754  0.9284
23330SOL     OW71757   3.360   4.447   1.370 -0.2049  0.0413  0.7853
23330SOL    HW171758   3.294   4.419   1.306  1.0822 -1.0913 -0.1001
23330SOL    HW271759   3.417   4.506   1.321 -0.5112  0.9719  1.5311
23331SOL     OW71760   8.056   4.822   7.239  0.6734  0.7238 -0.1758
23331SOL    HW171761   7.970   4.855   7.214 -0.9206 -2.2774  0.8096
23331SOL    HW271762   8.063   4.841   7.332 -0.2372 -1.4336  0.3874
23332SOL     OW71763   0.066   0.755   2.249 -0.0830  0.0824 -1.0413
23332SOL    HW171764   0.086   0.726   2.338  4.1574  1.7578 -1.1741
23332SOL    HW271765   0.095   0.683   2.193  2.2928  0.9771 -1.0923
23333SOL     OW71766   3.225   0.082   9.157 -0.0558  0.2052  0.3439
23333SOL    HW171767   3.181   0.007   9.118  1.4477 -0.0469 -0.9616
23333SOL    HW271768   3.286   0.045   9.221  0.8794  0.2613 -0.4904
23334SOL     OW71769   2.717   3.665   4.394 -0.1833  0.0836  0.1606
23334SOL    HW171770   2.711   3.671   4.298 -1.0505 -1.1084  0.1189
23334SOL    HW271771   2.698   3.573   4.413 -0.5910  0.4374  1.5234
23335SOL     OW71772   0.922   3.547   2.205 -0.4909  0.0922 -0.3257
23335SOL    HW171773   0.863   3.550   2.130  0.1645  0.0681 -0.8586
23335SOL    HW271774   0.869   3.576   2.279 -2.0080 -2.7245 -0.1906
23336SOL     OW71775   2.803   1.406   5.666  0.1581 -0.1576 -0.1785
23336SOL    HW171776   2.736   1.363   5.612 -0.0158  1.5981 -1.4623
23336SOL    HW271777   2.757   1.431   5.746 -0.0873 -1.0889 -0.0192
23337SOL     OW71778   7.036   0.487   4.890 -0.0997  0.3644 -0.2707
23337SOL    HW171779   6.955   0.536   4.909 -0.0605  0.6414 -0.8023
23337SOL    HW271780   7.084   0.488   4.973 -1.1487 -0.7789  0.3771
23338SOL     OW71781   0.764   1.231   1.236 -0.6016 -0.9704 -0.2078
23338SOL    HW171782   0.803   1.157   1.283 -1.7934 -1.0016  0.7763
23338SOL    HW271783   0.677   1.240   1.274 -1.1313 -0.1719 -1.5433
23339SOL     OW71784   4.737   2.764   1.591 -0.1124  0.4236  0.0237
23339SOL    HW171785   4.658   2.745   1.540  0.2024 -0.4874 -0.1304
23339SOL    HW271786   4.711   2.835   1.650 -1.3909 -0.6239  0.7750
23340SOL     OW71787   4.160   3.125   9.684 -0.0697  0.4734  0.1619
23340SOL    HW171788   4.159   3.221   9.682  0.0971  0.5001 -2.3576
23340SOL    HW271789   4.226   3.100   9.619  0.4119 -1.3815  1.2810
23341SOL     OW71790   0.933   9.353   8.285 -0.0293  0.4188  0.3173
23341SOL    HW171791   0.869   9.424   8.276  1.4045  1.8132  0.5412
23341SOL    HW271792   1.015   9.391   8.252  0.9062 -0.9571  0.9652
23342SOL     OW71793   7.664   5.298   0.632  0.0846 -0.5768  0.8979
23342SOL    HW171794   7.700   5.229   0.687  1.1832 -0.1750  0.7000
23342SOL    HW271795   7.717   5.375   0.651 -0.0202 -0.2267 -0.1278
23343SOL     OW71796   8.668   2.160   5.283 -0.8152  0.1954  0.2046
23343SOL    HW171797   8.667   2.067   5.303 -2.5408  0.0496 -0.4217
23343SOL    HW271798   8.617   2.169   5.203 -1.6090  1.7852  0.8292
23344SOL     OW71799   9.491   8.046   6.962 -0.5104  0.5958  0.1179
23344SOL    HW171800   9.502   8.139   6.983  0.5711  0.3631  0.6469
23344SOL    HW271801   9.565   8.025   6.904 -0.1004 -0.1811  0.8875
23345SOL     OW71802   1.799   3.142   7.929 -0.2661 -0.2935 -0.1434
23345SOL    HW171803   1.871   3.201   7.905  0.1672 -1.1886 -1.1001
23345SOL    HW271804   1.769   3.105   7.846 -1.2237 -0.6407  0.3407
23346SOL     OW71805   4.217   4.158   0.041 -0.0836 -0.3544 -0.0696
23346SOL    HW171806   4.155   4.172  -0.031 -1.1752 -0.3500  0.8452
23346SOL    HW271807   4.272   4.085   0.011  0.0747  0.2227 -1.2702
23347SOL     OW71808   2.222   5.447   9.515 -0.3487  0.5039  0.3244
23347SOL    HW171809   2.192   5.520   9.569 -0.1213  0.1727  0.9097
23347SOL    HW271810   2.149   5.386   9.513 -0.3118  0.4584  0.3597
23348SOL     OW71811   9.666   2.519   3.597 -0.2193 -0.0025 -0.4937
23348SOL    HW171812   9.711   2.436   3.580  0.7828  0.4404 -0.1079
23348SOL    HW271813   9.712   2.583   3.542 -0.8514  0.3395 -0.6335
23349SOL     OW71814   9.020   1.237   2.843  0.1771  0.5334 -0.0504
23349SOL    HW171815   9.089   1.187   2.886  1.5229  2.4848  0.1560
23349SOL    HW271816   9.057   1.324   2.830 -1.3752  0.9744 -2.1599
23350SOL     OW71817   8.636   7.091   2.405  0.0283 -0.0631  0.1025
23350SOL    HW171818   8.585   7.064   2.481  0.9587 -0.6205  0.5460
23350SOL    HW271819   8.683   7.170   2.435 -2.1197  1.7361 -0.9569
23351SOL     OW71820   5.573   8.429   8.614  0.1968 -0.1783 -0.3145
23351SOL    HW171821   5.569   8.395   8.525 -0.7968  0.2975 -0.4661
23351SOL    HW271822   5.485   8.414   8.649  0.3638  0.3185  0.3377
23352SOL     OW71823   5.183   6.449   0.624  0.1053  0.3992  1.1545
23352SOL    HW171824   5.119   6.495   0.680 -0.7704  0.1908  0.3559
23352SOL    HW271825   5.192   6.506   0.548 -0.7220 -0.5673  0.3135
23353SOL     OW71826   4.321   7.230   6.867 -0.1855 -0.3383  0.4424
23353SOL    HW171827   4.379   7.157   6.888  0.1888  0.3620  1.9379
23353SOL    HW271828   4.329   7.290   6.941 -0.2274  1.4020 -0.8897
23354SOL     OW71829   0.819   3.648   4.290  0.1299  0.3051  0.5102
23354SOL    HW171830   0.757   3.577   4.272 -0.8345  1.2989 -0.2739
23354SOL    HW271831   0.864   3.662   4.207  1.1380 -0.1397  0.9726
23355SOL     OW71832   0.927   4.856   0.699 -0.3070  0.5612  0.3109
23355SOL    HW171833   0.971   4.779   0.735  1.8423  1.2625 -0.6459
23355SOL    HW271834   0.871   4.821   0.630  0.9531 -0.1621 -0.3979
23356SOL     OW71835   4.130   0.990   2.860  0.3990 -0.4093 -0.2238
23356SOL    HW171836   4.073   0.980   2.783  1.7165  0.2373 -1.3281
23356SOL    HW271837   4.115   1.080   2.888  1.1944 -0.0889 -0.8001
23357SOL     OW71838   5.478   2.013   5.933  0.3285  0.1822  0.0237
23357SOL    HW171839   5.388   1.994   5.907 -0.0512  1.0778  0.5909
23357SOL    HW271840   5.529   2.004   5.853 -0.4002  0.4252 -0.4856
23358SOL     OW71841   8.821   4.426   8.864 -0.4515  0.2828 -0.1512
23358SOL    HW171842   8.902   4.406   8.817  0.4807  0.0157  1.5002
23358SOL    HW271843   8.817   4.361   8.935 -0.6578  1.9505  1.4496
23359SOL     OW71844   8.674   3.903   7.609  0.0043  0.1432  0.1319
23359SOL    HW171845   8.590   3.948   7.620 -0.0427 -0.3806  2.3504
23359SOL    HW271846   8.737   3.974   7.596 -0.6629  0.5792 -0.8548
23360SOL     OW71847   4.134   6.831   2.725 -0.5589  0.7523 -0.5142
23360SOL    HW171848   4.155   6.925   2.724 -2.0433  1.1202 -0.5466
23360SOL    HW271849   4.193   6.794   2.790 -0.9891  2.0106  0.6473
23361SOL     OW71850   3.441   4.146   8.991  0.2277 -0.0106  0.5196
23361SOL    HW171851   3.411   4.086   8.923 -1.1598  0.1812  0.9466
23361SOL    HW271852   3.534   4.158   8.972 -0.5577  2.1801 -3.0907
23362SOL     OW71853   3.175   4.121   5.929  0.0619  0.0010  0.2713
23362SOL    HW171854   3.174   4.144   6.022  2.3672  0.3866  0.2566
23362SOL    HW271855   3.257   4.157   5.896 -1.5352  1.5332 -2.3906
23363SOL     OW71856   1.844   7.435   8.017 -0.2406 -0.2141 -0.2334
23363SOL    HW171857   1.842   7.451   8.112 -0.1709 -0.3083 -0.2151
23363SOL    HW271858   1.935   7.408   8.000 -0.0877  0.3907 -0.4254
23364SOL     OW71859   7.336   1.732   7.776 -0.2041  0.2678 -0.0169
23364SOL    HW171860   7.282   1.806   7.800 -2.0034 -1.3413  1.1335
23364SOL    HW271861   7.275   1.658   7.768  1.6177 -1.3237 -0.1132
23365SOL     OW71862   4.447   2.311   5.597 -0.1676  0.3332  0.0551
23365SOL    HW171863   4.468   2.349   5.511  0.0003  0.4484  0.1460
23365SOL    HW271864   4.447   2.386   5.657  0.8647  0.1084  0.3633
23366SOL     OW71865   0.962   5.494   1.548 -0.1314  0.1193  0.2103
23366SOL    HW171866   0.945   5.422   1.609 -0.4018  0.4676  0.5544
23366SOL    HW271867   0.896   5.484   1.479 -0.5602  0.3906  0.5769
23367SOL     OW71868   4.095   6.732   9.307 -0.0173 -0.0750  0.2255
23367SOL    HW171869   4.164   6.765   9.249  0.2493 -2.2405 -0.8035
23367SOL    HW271870   4.034   6.687   9.249 -0.6055 -0.9277  1.4574
23368SOL     OW71871   8.356   3.810   0.660  0.4521  0.0179  0.3315
23368SOL    HW171872   8.411   3.799   0.583 -1.7012 -2.7240 -0.9947
23368SOL    HW271873   8.351   3.904   0.673  1.9386  0.5099 -2.0997
23369SOL     OW71874   1.570   8.491   0.678 -0.4862  0.2172  0.5637
23369SOL    HW171875   1.504   8.559   0.690 -0.4181 -0.0103  2.4618
23369SOL    HW271876   1.608   8.478   0.765  0.7940 -0.9479 -0.1259
23370SOL     OW71877   0.544   8.518   3.827  0.4566 -0.9600  0.5372
23370SOL    HW171878   0.622   8.572   3.834 -0.1293 -0.1011  0.5552
23370SOL    HW271879   0.541   8.490   3.735 -0.6766  1.2882 -0.1881
23371SOL     OW71880   4.961   2.321   4.049 -0.6143 -0.3909  0.1429
23371SOL    HW171881   4.982   2.290   3.961  0.7891 -1.2973  0.7666
23371SOL    HW271882   5.045   2.350   4.085 -1.3020  0.7341  0.9048
23372SOL     OW71883   4.698   3.754   7.849 -0.6601 -0.0661 -0.3311
23372SOL    HW171884   4.701   3.682   7.786 -0.4548 -0.7870  0.4826
23372SOL    HW271885   4.757   3.819   7.813 -2.3729  0.5983 -2.1196
23373SOL     OW71886   8.645   6.469   9.406  0.1143 -0.2642  0.1458
23373SOL    HW171887   8.574   6.410   9.383 -1.3969  0.4751  2.5799
23373SOL    HW271888   8.602   6.550   9.432  1.8034  0.1498  1.8805
23374SOL     OW71889   5.108   3.687   8.111 -0.3450  0.2025 -0.1985
23374SOL    HW171890   5.015   3.681   8.091 -0.0710 -1.1730 -1.3294
23374SOL    HW271891   5.147   3.727   8.033 -0.0312  1.1940  0.4498
23375SOL     OW71892   4.153   5.006   3.500  0.4436  1.0884  0.0445
23375SOL    HW171893   4.200   5.086   3.477  0.3249  1.0188 -0.4428
23375SOL    HW271894   4.144   4.959   3.418  0.2832  0.6938  0.2863
23376SOL     OW71895   9.264   6.869   0.302 -0.3971  0.2146  0.0988
23376SOL    HW171896   9.219   6.952   0.288  0.6725  0.9582  0.9517
23376SOL    HW271897   9.341   6.874   0.245 -1.4202 -1.1321 -1.5047
23377SOL     OW71898   5.576   0.845   4.135  0.0212  0.0076  0.1859
23377SOL    HW171899   5.511   0.793   4.088  1.1209 -0.2723 -1.0975
23377SOL    HW271900   5.655   0.791   4.134  1.3924  1.8639 -1.7278
23378SOL     OW71901   3.168   5.954   4.407 -0.1398  0.6369  0.3988
23378SOL    HW171902   3.105   6.012   4.450  0.4550 -0.5343  3.0431
23378SOL    HW271903   3.125   5.868   4.405  0.7992  0.1423  0.8848
23379SOL     OW71904   7.436   5.141   8.445  0.7191  0.0337  0.3174
23379SOL    HW171905   7.343   5.123   8.460  1.1303 -0.2930  2.9375
23379SOL    HW271906   7.447   5.232   8.471  0.7127  0.9566 -2.5456
23380SOL     OW71907   1.581   7.455   2.668 -0.2403  0.1961  0.2427
23380SOL    HW171908   1.597   7.361   2.662 -0.2432  0.1723  0.6286
23380SOL    HW271909   1.631   7.483   2.745 -0.0954  0.5400  0.0260
23381SOL     OW71910   6.661   6.052   2.754  0.0454  0.6783  0.0597
23381SOL    HW171911   6.706   6.087   2.677  0.5249  2.1448  0.9698
23381SOL    HW271912   6.625   6.129   2.798 -0.7443 -0.1968  0.9768
23382SOL     OW71913   2.070   5.022   2.506  0.7002 -0.1884  0.5355
23382SOL    HW171914   2.075   5.075   2.585  1.6329  0.2225  0.2139
23382SOL    HW271915   2.013   4.949   2.530  1.1817 -0.2151  1.6695
23383SOL     OW71916   6.679   0.062   9.471  0.0905  0.0610 -0.2501
23383SOL    HW171917   6.617   0.129   9.497  0.6190  0.6896 -0.5901
23383SOL    HW271918   6.660  -0.012   9.529  0.1481  0.8344  0.7797
23384SOL     OW71919   1.253   4.370   0.681  0.0319 -0.0157  0.0044
23384SOL    HW171920   1.269   4.439   0.745 -1.1200 -0.2720  0.5903
23384SOL    HW271921   1.324   4.379   0.618  0.3736  1.1626  0.5326
23385SOL     OW71922   4.344   0.092   9.239 -0.2399  0.2960 -1.1456
23385SOL    HW171923   4.418   0.038   9.211  0.0398  0.9166 -1.6506
23385SOL    HW271924   4.284   0.092   9.164 -1.1245 -0.8139 -0.4643
23386SOL     OW71925   0.448   7.708   6.142 -0.6792 -0.1970 -0.1200
23386SOL    HW171926   0.496   7.626   6.148 -0.9861 -0.3201  0.9730
23386SOL    HW271927   0.361   7.687   6.178 -0.4710  0.8052  1.0187
23387SOL     OW71928   6.229   6.120   2.456  0.0836 -0.2350 -0.0621
23387SOL    HW171929   6.146   6.105   2.411  0.2479  0.2301 -0.5227
23387SOL    HW271930   6.260   6.032   2.478 -0.3086 -0.4332 -0.2858
23388SOL     OW71931   3.104   9.257   5.827  1.1643 -0.3070  0.3390
23388SOL    HW171932   3.037   9.205   5.782  0.3507 -0.8568  2.1017
23388SOL    HW271933   3.157   9.294   5.756 -0.8400 -0.0500 -1.1353
23389SOL     OW71934   2.979   8.899   9.843 -0.0350  0.1045 -0.7608
23389SOL    HW171935   2.888   8.892   9.814 -0.4625 -1.1020  0.6959
23389SOL    HW271936   2.972   8.937   9.931  1.1106  2.6110 -1.6645
23390SOL     OW71937   8.550   8.002   2.539 -0.5445  0.1485 -0.0875
23390SOL    HW171938   8.605   8.023   2.463 -1.4542  1.5378 -0.3940
23390SOL    HW271939   8.538   8.086   2.583  0.1741 -0.6787  1.7682
23391SOL     OW71940   7.974   6.700   0.047 -0.1720 -0.7305 -0.2550
23391SOL    HW171941   7.894   6.753   0.042  0.8884  0.9456 -0.4773
23391SOL    HW271942   7.945   6.610   0.034 -1.9998 -0.1454 -0.4477
23392SOL     OW71943   1.125   8.092   9.764 -0.7834 -0.6326  0.1306
23392SOL    HW171944   1.172   8.086   9.848 -2.1035 -0.2904  0.9159
23392SOL    HW271945   1.194   8.110   9.700  0.0758  1.0027  1.4062
23393SOL     OW71946   9.778   9.609   0.412  0.1506  0.1267 -0.1393
23393SOL    HW171947   9.775   9.600   0.316 -0.1108  0.2906 -0.1487
23393SOL    HW271948   9.692   9.644   0.435 -0.4284 -1.5266  0.3377
23394SOL     OW71949   7.682   1.339   6.723  0.4460  0.7602 -0.0312
23394SOL    HW171950   7.763   1.384   6.747 -0.0066  1.1106  0.8947
23394SOL    HW271951   7.629   1.341   6.803 -0.7474  1.1380 -0.8070
23395SOL     OW71952   9.364   2.903   8.496  0.0124  0.0879  0.1074
23395SOL    HW171953   9.280   2.885   8.455  1.1022 -2.4645 -1.2786
23395SOL    HW271954   9.388   2.990   8.466 -2.5859  1.3592  1.4668
23396SOL     OW71955   7.485   1.777   0.426 -0.2734 -0.2773 -0.9936
23396SOL    HW171956   7.416   1.749   0.486 -1.2980  0.7613 -1.6202
23396SOL    HW271957   7.565   1.739   0.461 -0.7071  0.8828  1.4563
23397SOL     OW71958   7.901   5.404   6.338 -0.2755  0.2545 -0.4780
23397SOL    HW171959   7.807   5.425   6.338 -0.3222  0.0697  0.2341
23397SOL    HW271960   7.905   5.312   6.363  0.1650  0.6746  1.1499
23398SOL     OW71961   5.863   0.499   8.591 -0.1227  0.1009  0.2935
23398SOL    HW171962   5.846   0.583   8.634 -2.2188  0.1860 -0.5568
23398SOL    HW271963   5.890   0.521   8.502  0.2109 -0.1217  0.3365
23399SOL     OW71964   9.836   5.874   2.556 -0.5598 -0.1759  0.0104
23399SOL    HW171965   9.844   5.843   2.646  0.3392 -1.9442 -0.6221
23399SOL    HW271966   9.888   5.954   2.553  0.7666 -0.9806  0.7028
23400SOL     OW71967   5.997   4.974   2.843  0.6816  0.3028  0.7990
23400SOL    HW171968   5.934   4.935   2.903  0.2289  0.2256  0.2869
23400SOL    HW271969   5.950   5.048   2.804 -0.3463 -1.6998 -2.0925
23401SOL     OW71970   5.295   4.253   8.635 -0.1090 -0.5768 -0.5740
23401SOL    HW171971   5.264   4.286   8.551 -1.2312  1.7818  0.6777
23401SOL    HW271972   5.351   4.322   8.669 -0.0047 -1.3109  0.7989
23402SOL     OW71973   7.929   9.388   5.969 -0.6873  0.5955 -0.4542
23402SOL    HW171974   7.956   9.338   6.046 -1.2603  0.5661 -0.2691
23402SOL    HW271975   7.912   9.321   5.902 -2.2511  0.4674  0.0391
23403SOL     OW71976   7.972   7.006   3.155  0.3024  0.2038  0.2736
23403SOL    HW171977   7.951   7.087   3.201 -0.2759  0.2078  0.0083
23403SOL    HW271978   7.931   6.938   3.207 -1.8225  0.3434 -1.0944
23404SOL     OW71979   4.567   5.227   6.512  0.5400 -0.1322 -0.0193
23404SOL    HW171980   4.647   5.215   6.564  1.2208  0.2276 -0.9439
23404SOL    HW271981   4.591   5.194   6.425 -0.2885  0.0820 -0.3320
23405SOL     OW71982   8.324   0.083   3.358  0.2727  0.3415  0.8516
23405SOL    HW171983   8.280   0.060   3.276  1.2364  0.2493  0.3435
23405SOL    HW271984   8.384   0.154   3.333 -0.7827  1.6235  1.8666
23406SOL     OW71985   2.530   3.868   3.990  0.3822 -0.1050 -0.6137
23406SOL    HW171986   2.456   3.819   4.025 -1.9506  3.9011  0.6110
23406SOL    HW271987   2.570   3.909   4.066  3.6286 -1.5846 -1.3286
23407SOL     OW71988   7.697   4.237   2.805  0.1745 -0.1208  0.3309
23407SOL    HW171989   7.602   4.227   2.804  0.0557  0.7247 -1.7877
23407SOL    HW271990   7.718   4.256   2.897 -1.9899  2.1479  0.4831
23408SOL     OW71991   5.906   7.741   0.228  0.3043 -0.5596  0.2191
23408SOL    HW171992   5.822   7.702   0.203  0.1510  0.1104 -0.3570
23408SOL    HW271993   5.920   7.712   0.318 -0.4261 -0.8875  0.2355
23409SOL     OW71994   4.318   9.241   4.100 -0.2155 -0.2752 -0.0146
23409SOL    HW171995   4.341   9.230   4.008 -0.2573  1.0356 -0.1958
23409SOL    HW271996   4.279   9.157   4.125 -0.8924 -0.3990 -1.3937
23410SOL     OW71997   7.849   2.211   1.065  0.3801 -0.2246 -0.2188
23410SOL    HW171998   7.759   2.198   1.094  0.9488 -1.8716  0.9470
23410SOL    HW271999   7.841   2.266   0.987 -1.7142 -1.1426 -0.7383
23411SOL     OW72000   0.791   9.483   7.815 -0.4440  0.1821 -0.0558
23411SOL    HW172001   0.789   9.437   7.899  0.0305  2.6976  1.4164
23411SOL    HW272002   0.712   9.454   7.769 -1.1737 -0.5875  1.6176
23412SOL     OW72003   0.301   7.021   3.918 -0.2237 -0.3649 -0.1112
23412SOL    HW172004   0.255   6.940   3.939  0.0259 -0.0615  1.7293
23412SOL    HW272005   0.384   7.015   3.965  0.2370  0.5307 -0.7629
23413SOL     OW72006   3.292   4.316   5.290  0.1230  0.4113 -0.3654
23413SOL    HW172007   3.237   4.285   5.363  1.2044  0.3402  0.4352
23413SOL    HW272008   3.229   4.338   5.221 -0.8996  0.0654  0.4267
23414SOL     OW72009   4.300   4.523   4.060  0.7573  0.4287 -0.2861
23414SOL    HW172010   4.267   4.470   4.132 -1.1192 -0.0943 -1.4443
23414SOL    HW272011   4.221   4.551   4.013  1.7785  3.0250 -0.5781
23415SOL     OW72012   7.048   2.976   8.317  0.1373 -0.0099 -0.6346
23415SOL    HW172013   7.026   2.898   8.266 -0.0062  0.0582 -0.6786
23415SOL    HW272014   6.986   2.974   8.390  0.5535 -0.2806 -0.2857
23416SOL     OW72015   2.225   8.763   2.929  0.1704 -0.1298 -0.1319
23416SOL    HW172016   2.261   8.847   2.901  0.6997 -0.4087 -0.2869
23416SOL    HW272017   2.158   8.787   2.993 -0.3319  0.4552 -0.8546
23417SOL     OW72018   1.902   4.207   2.927  0.2100 -0.4111  0.3855
23417SOL    HW172019   1.924   4.207   2.834 -1.0840 -0.2153  0.0596
23417SOL    HW272020   1.831   4.271   2.935 -1.0983 -1.8866  1.1528
23418SOL     OW72021   2.439   2.616   4.161  0.4799 -0.5080  0.5276
23418SOL    HW172022   2.519   2.666   4.146  0.6266 -0.6427  0.8751
23418SOL    HW272023   2.372   2.664   4.111  1.3233 -2.0822 -2.3656
23419SOL     OW72024   3.966   4.201   8.143  0.0094 -0.3415  0.1210
23419SOL    HW172025   4.055   4.225   8.170 -0.3452  0.8017  0.3159
23419SOL    HW272026   3.921   4.284   8.131 -0.9397 -0.9022 -0.3355
23420SOL     OW72027   5.652   1.745   7.235  0.3637  0.0297  0.3897
23420SOL    HW172028   5.583   1.803   7.269 -0.2418  0.3361 -1.2458
23420SOL    HW272029   5.734   1.789   7.259 -0.0799  1.3725 -0.4008
23421SOL     OW72030   3.095   4.893   8.814  0.1009 -0.1051  0.3258
23421SOL    HW172031   3.021   4.920   8.760  0.1189 -0.5607  0.0623
23421SOL    HW272032   3.066   4.907   8.904 -0.0446  0.3697  0.2061
23422SOL     OW72033   3.811   7.727   1.373  0.5863  0.3070  0.3565
23422SOL    HW172034   3.800   7.781   1.451  0.8678 -1.0231  1.3620
23422SOL    HW272035   3.842   7.643   1.407  0.3942 -0.4094 -1.1671
23423SOL     OW72036   1.839   9.441   5.957 -0.0290 -0.5521  0.1428
23423SOL    HW172037   1.818   9.467   5.867  0.0257  3.8822  1.1866
23423SOL    HW272038   1.933   9.425   5.956 -0.0856 -0.9139 -0.6015
23424SOL     OW72039   3.276   6.992   0.609  0.1688  0.2875  0.8550
23424SOL    HW172040   3.215   6.919   0.617  1.1146 -0.6644 -0.2811
23424SOL    HW272041   3.246   7.055   0.675 -0.9586 -0.9024  1.5388
23425SOL     OW72042   1.673   8.128   7.327 -0.1918 -0.6289  0.2064
23425SOL    HW172043   1.701   8.038   7.309 -2.3451 -1.5378  1.0147
23425SOL    HW272044   1.599   8.143   7.269  0.6426  0.9851 -0.5218
23426SOL     OW72045   2.440   4.908   1.517  0.0273 -0.0775 -0.3197
23426SOL    HW172046   2.451   4.924   1.610 -0.6131 -0.8810 -0.0849
23426SOL    HW272047   2.528   4.894   1.483  0.1830 -0.8506  0.3824
23427SOL     OW72048   3.949   5.140   1.892 -0.2098  0.3424 -0.2484
23427SOL    HW172049   3.951   5.056   1.846  0.2621  0.9888 -1.4598
23427SOL    HW272050   3.975   5.204   1.826 -0.6182  1.4577  0.6349
23428SOL     OW72051   5.453   5.427   7.274  0.2186  0.1015  0.5090
23428SOL    HW172052   5.379   5.366   7.270 -0.9558  1.5366 -1.8423
23428SOL    HW272053   5.472   5.447   7.183  2.6482  0.8509  1.1106
23429SOL     OW72054   1.419   4.415   2.952 -0.7097 -0.2734  0.0406
23429SOL    HW172055   1.445   4.505   2.973  0.9294 -0.7405  0.1440
23429SOL    HW272056   1.442   4.404   2.860 -0.7013 -0.6522  0.0854
23430SOL     OW72057   5.173   5.219   2.306 -0.3084 -0.1241  0.5631
23430SOL    HW172058   5.149   5.303   2.345  2.4459 -0.3231  3.0401
23430SOL    HW272059   5.122   5.154   2.355 -2.1446 -0.0603 -1.0957
23431SOL     OW72060   8.007   7.984   3.170  0.6332  0.2583 -0.0449
23431SOL    HW172061   8.013   7.895   3.136  0.6589  0.3631 -0.3175
23431SOL    HW272062   7.920   8.014   3.142  1.3982  1.0386 -1.7227
23432SOL     OW72063   1.041   2.773   6.768  0.6540  0.1132  0.0212
23432SOL    HW172064   1.015   2.825   6.692 -1.1560 -0.6183  0.0985
23432SOL    HW272065   1.024   2.829   6.843 -0.2785 -0.1760  0.0386
23433SOL     OW72066   9.747   6.621   2.207  0.2671 -0.2736  0.6758
23433SOL    HW172067   9.749   6.681   2.132  1.0990  1.0106  1.6919
23433SOL    HW272068   9.753   6.678   2.284 -1.0615 -1.5267  1.7655
23434SOL     OW72069   3.030   2.912   5.139 -0.0510 -0.5533 -0.5827
23434SOL    HW172070   2.976   2.860   5.080  1.4977 -3.1712  0.1192
23434SOL    HW272071   3.113   2.864   5.145  0.3477  0.2526  2.6552
23435SOL     OW72072   0.760   3.007   3.886 -0.1575 -0.3035 -0.4558
23435SOL    HW172073   0.727   3.093   3.911  0.3145 -0.1339 -0.4159
23435SOL    HW272074   0.685   2.948   3.898 -0.9481  0.3360 -1.9049
23436SOL     OW72075   2.566   1.220   0.734 -0.0459 -0.7904 -0.3201
23436SOL    HW172076   2.578   1.166   0.656 -0.9370 -1.3437 -0.0828
23436SOL    HW272077   2.522   1.299   0.702 -1.4656 -1.5164 -0.2185
23437SOL     OW72078   1.776   8.744   2.538  0.3109 -0.2255  0.4350
23437SOL    HW172079   1.723   8.749   2.618  2.4377 -1.0908  2.0029
23437SOL    HW272080   1.760   8.827   2.494 -0.8333  0.3408  1.8249
23438SOL     OW72081   8.970   0.082   2.213 -0.1001  0.1649 -0.0109
23438SOL    HW172082   8.937   0.091   2.124  0.4761  0.9033 -0.1589
23438SOL    HW272083   9.007  -0.006   2.216 -0.8858 -0.1891 -0.2275
23439SOL     OW72084   5.704   6.054   6.270  0.0779  0.3065 -0.3518
23439SOL    HW172085   5.758   6.072   6.348  0.6435  0.3845 -0.7575
23439SOL    HW272086   5.614   6.065   6.301  0.0595 -3.0661  1.2094
23440SOL     OW72087   3.736   0.909   8.305  0.0431 -0.9222  0.5481
23440SOL    HW172088   3.691   0.989   8.280 -3.6076 -2.7132  0.7660
23440SOL    HW272089   3.768   0.873   8.222  0.5476  0.0675  0.2973
23441SOL     OW72090   7.097   7.472   4.336 -0.0324 -0.8448  0.0876
23441SOL    HW172091   7.109   7.441   4.246 -0.9626  0.1715 -0.4178
23441SOL    HW272092   7.045   7.405   4.379 -1.7539 -0.2015 -0.8933
23442SOL     OW72093   7.843   8.860   3.084 -0.0448  0.5771 -0.3540
23442SOL    HW172094   7.804   8.843   2.998 -0.3776 -0.2683 -0.0495
23442SOL    HW272095   7.772   8.845   3.146 -0.6858  4.1293 -0.0512
23443SOL     OW72096   9.771   6.941   7.929 -0.3136  0.3850  0.0609
23443SOL    HW172097   9.765   6.914   8.021  1.8119  1.7654  0.6927
23443SOL    HW272098   9.772   7.037   7.932 -3.0864  0.5682 -1.6936
23444SOL     OW72099   7.252   7.763   0.296 -0.3488  0.2893 -0.3820
23444SOL    HW172100   7.297   7.734   0.217  0.7665  0.0760  0.3070
23444SOL    HW272101   7.187   7.694   0.313 -2.8081  1.8342 -2.8007
23445SOL     OW72102   7.126   3.409   7.573 -0.0197 -0.3041 -0.2114
23445SOL    HW172103   7.160   3.353   7.503  0.0229  0.9081 -1.2120
23445SOL    HW272104   7.042   3.440   7.539  0.3095  0.8315 -0.0428
23446SOL     OW72105   4.130   1.471   6.167  0.3565  0.0357  0.4362
23446SOL    HW172106   4.177   1.484   6.085  1.0482  0.4603  0.8873
23446SOL    HW272107   4.094   1.383   6.160 -0.9813  0.6459 -1.0011
23447SOL     OW72108   1.710   9.566   6.582  0.2993  0.2254 -0.0337
23447SOL    HW172109   1.727   9.647   6.630  1.5892 -0.5714  0.9038
23447SOL    HW272110   1.618   9.574   6.554  0.1029  1.5614  0.8743
23448SOL     OW72111   7.144   2.918   4.512  0.1366 -0.3414  0.0758
23448SOL    HW172112   7.153   2.831   4.473  0.2929 -0.8358  1.1746
23448SOL    HW272113   7.098   2.903   4.594  0.7627  0.5203  0.6039
23449SOL     OW72114   3.514   3.831   4.322 -0.3834  0.7767  0.4936
23449SOL    HW172115   3.553   3.827   4.409 -0.4108  2.5798  0.6265
23449SOL    HW272116   3.481   3.743   4.306  0.8324  0.0637  1.7323
23450SOL     OW72117   9.130   9.810   2.995  0.0736 -0.1659 -0.8115
23450SOL    HW172118   9.086   9.812   3.080 -0.7106  2.4373 -1.1936
23450SOL    HW272119   9.160   9.900   2.981  0.3364 -0.5562 -3.2203
23451SOL     OW72120   2.002   1.991   1.797  0.1405  0.7951  0.7090
23451SOL    HW172121   1.952   1.991   1.879 -0.3647  1.7593  0.4065
23451SOL    HW272122   2.053   1.910   1.801  0.7642  1.2220  2.3628
23452SOL     OW72123   6.579   2.229   2.951 -0.4508  0.1692  0.0332
23452SOL    HW172124   6.509   2.209   2.890  0.1736 -1.2065 -0.2794
23452SOL    HW272125   6.643   2.279   2.900 -0.4957  0.0785 -0.1116
23453SOL     OW72126   4.111   5.143   0.321 -0.0400  0.3390  0.4730
23453SOL    HW172127   4.113   5.239   0.324 -2.3002  0.4388  0.1746
23453SOL    HW272128   4.051   5.119   0.392  0.3738 -0.8610  0.4300
23454SOL     OW72129   3.600   0.696   5.582 -0.7381 -0.1183 -0.0632
23454SOL    HW172130   3.539   0.640   5.533 -0.1037  0.8427 -2.0564
23454SOL    HW272131   3.550   0.776   5.599 -1.2653 -0.8018  1.7619
23455SOL     OW72132   4.853   5.268   4.266 -0.1703 -0.3894  0.1410
23455SOL    HW172133   4.911   5.236   4.197 -0.3731 -1.2028  0.3383
23455SOL    HW272134   4.785   5.317   4.219 -0.0632 -0.5645 -0.1993
23456SOL     OW72135   5.693   0.943   6.789 -0.1233  0.1005 -0.1798
23456SOL    HW172136   5.631   1.003   6.831 -0.2089 -0.3994  0.4165
23456SOL    HW272137   5.638   0.879   6.744 -0.0313  0.3675 -0.6885
23457SOL     OW72138   1.807   0.709   4.562  0.2851  0.1393  0.1655
23457SOL    HW172139   1.733   0.673   4.513  0.2118 -0.5668  0.7654
23457SOL    HW272140   1.789   0.803   4.567 -0.9688 -0.1024  0.9186
23458SOL     OW72141   4.514   1.499   6.975  0.0149 -0.1624  0.3198
23458SOL    HW172142   4.460   1.542   7.042 -1.5802  0.1079 -1.0659
23458SOL    HW272143   4.479   1.410   6.970  0.7186 -0.4497  0.4546
23459SOL     OW72144   5.166   5.164   7.472 -0.2765  0.1567 -0.4189
23459SOL    HW172145   5.131   5.101   7.410 -2.2130 -1.5152  2.1484
23459SOL    HW272146   5.200   5.111   7.544  1.5170  1.9869  0.1815
23460SOL     OW72147   0.589   5.348   4.196 -0.0080 -0.0541  0.7196
23460SOL    HW172148   0.523   5.393   4.249  0.1027  1.0984 -0.0856
23460SOL    HW272149   0.566   5.371   4.106  0.8820 -0.4872  0.3783
23461SOL     OW72150   6.033   3.358   6.203 -0.4393 -0.4446  0.1998
23461SOL    HW172151   6.015   3.273   6.163  1.2225 -0.6438 -0.1825
23461SOL    HW272152   5.980   3.420   6.152 -0.0621 -0.9826 -0.8734
23462SOL     OW72153   0.564   8.420   9.616 -0.3011  0.9068  0.6119
23462SOL    HW172154   0.524   8.425   9.529  0.7916 -0.1939 -0.0003
23462SOL    HW272155   0.647   8.467   9.607 -0.7054  1.7995  1.4112
23463SOL     OW72156   0.964   8.745   3.451  0.4867 -0.0561 -0.4078
23463SOL    HW172157   0.947   8.680   3.383  0.2883  0.4713 -0.8703
23463SOL    HW272158   0.973   8.828   3.404 -0.3161  0.4303  0.2563
23464SOL     OW72159   2.365   4.456   4.667  0.5722 -0.8735 -0.4060
23464SOL    HW172160   2.328   4.461   4.756  0.6071 -0.0896 -0.4258
23464SOL    HW272161   2.383   4.547   4.644  2.0141 -1.1934 -0.6132
23465SOL     OW72162   3.697   8.187   0.017  0.2320  0.1396 -0.3019
23465SOL    HW172163   3.603   8.200   0.009  0.0975  0.0196  0.9503
23465SOL    HW272164   3.708   8.096   0.042  0.5995  0.4756  0.8051
23466SOL     OW72165   6.134   4.275   5.992 -0.1033  0.4333  0.1322
23466SOL    HW172166   6.115   4.369   5.982 -0.9929  0.3253  0.6642
23466SOL    HW272167   6.125   4.239   5.904 -0.1588  0.7784 -0.0048
23467SOL     OW72168   0.007   5.868   5.275  0.1979 -0.5695  0.3124
23467SOL    HW172169   0.064   5.793   5.256  1.3326 -0.0452  1.5092
23467SOL    HW272170   0.067   5.938   5.298 -0.8928  0.4697  0.0734
23468SOL     OW72171   5.815   2.385   9.066 -0.4015 -0.2281 -0.0196
23468SOL    HW172172   5.818   2.340   9.151  2.6967  0.9088  0.5951
23468SOL    HW272173   5.848   2.321   9.004 -1.5901 -0.6796 -0.2143
23469SOL     OW72174   4.611   4.425   3.069 -0.3276  0.0051  0.2889
23469SOL    HW172175   4.556   4.350   3.090 -1.4536  0.8507  0.4370
23469SOL    HW272176   4.639   4.410   2.979 -2.2581  0.4234 -0.4135
23470SOL     OW72177   1.729   1.101   4.851  0.9236 -1.1176  0.4152
23470SOL    HW172178   1.775   1.184   4.860  1.6985 -1.5103  0.1255
23470SOL    HW272179   1.666   1.101   4.923 -1.5201  1.2303 -1.5396
23471SOL     OW72180   5.494   6.088   8.694  1.0115 -0.2606 -0.5188
23471SOL    HW172181   5.532   6.161   8.741 -2.3636  0.8979  0.7383
23471SOL    HW272182   5.482   6.120   8.605 -0.1458  0.6923 -0.0530
23472SOL     OW72183   8.223   8.344   9.469 -0.1487  0.3882 -0.1571
23472SOL    HW172184   8.312   8.375   9.481 -0.0278  0.7559 -1.7075
23472SOL    HW272185   8.232   8.267   9.412 -0.8408  0.8143 -0.8749
23473SOL     OW72186   2.214   2.748   4.325  0.0371  0.4050 -0.0055
23473SOL    HW172187   2.212   2.696   4.406 -1.2383 -1.4435 -1.1573
23473SOL    HW272188   2.286   2.709   4.274  1.0590  1.7793  0.3228
23474SOL     OW72189   9.237   9.722   5.604 -0.0380  0.0179  0.1293
23474SOL    HW172190   9.310   9.661   5.595 -0.7722 -0.8206 -0.3399
23474SOL    HW272191   9.170   9.688   5.545 -0.8303  0.7377  0.5886
23475SOL     OW72192   1.407   8.177   2.597  0.0920 -0.6703 -0.2465
23475SOL    HW172193   1.457   8.185   2.678 -1.2925 -1.7831  0.7734
23475SOL    HW272194   1.400   8.267   2.565  1.4002 -0.3105  0.3961
23476SOL     OW72195   8.561   2.096   2.426 -0.0542  0.0359  0.6201
23476SOL    HW172196   8.627   2.065   2.489 -0.4435 -1.2376  0.4322
23476SOL    HW272197   8.611   2.109   2.345 -0.2232 -2.5274 -0.0035
23477SOL     OW72198   2.550   3.711   2.832 -0.2411 -0.6462  0.2440
23477SOL    HW172199   2.529   3.690   2.741  0.1950 -2.4118  0.5167
23477SOL    HW272200   2.534   3.805   2.839 -2.7486 -0.8882 -0.9997
23478SOL     OW72201   3.509   0.297   9.766  0.5272  0.1717  0.0743
23478SOL    HW172202   3.490   0.320   9.675 -0.3718  1.4142  0.5357
23478SOL    HW272203   3.426   0.262   9.800  0.6066  0.4890  0.6173
23479SOL     OW72204   4.755   5.349   0.316  0.5125  0.0749  0.2025
23479SOL    HW172205   4.746   5.262   0.356  0.1151  0.4633  0.9768
23479SOL    HW272206   4.666   5.378   0.300  0.6582  0.0345 -0.7698
23480SOL     OW72207   6.835   4.994   2.919  0.1062 -1.2452 -0.0035
23480SOL    HW172208   6.773   5.032   2.981  1.6815  0.4123  0.6190
23480SOL    HW272209   6.905   4.958   2.973 -0.2225 -3.0756 -0.7011
23481SOL     OW72210   3.727   5.167   5.603 -0.1118 -0.3442 -0.2855
23481SOL    HW172211   3.798   5.222   5.636 -0.7398  0.8622 -0.8880
23481SOL    HW272212   3.768   5.082   5.585  0.6220 -0.5043  1.8405
23482SOL     OW72213   0.807   6.363   7.611  0.0103 -0.0897 -0.2058
23482SOL    HW172214   0.762   6.377   7.695  0.8151 -0.9522  0.3816
23482SOL    HW272215   0.743   6.316   7.558 -0.5245  0.5044 -0.1116
23483SOL     OW72216   5.077   4.506   3.277 -0.0525 -0.5383 -0.0738
23483SOL    HW172217   5.149   4.494   3.339 -1.1129  1.6783  1.7569
23483SOL    HW272218   4.998   4.486   3.328 -0.8491 -1.7824 -1.6910
23484SOL     OW72219   1.771   1.286   2.297 -0.5165  0.4761  0.1662
23484SOL    HW172220   1.715   1.236   2.239  1.0485 -1.0053 -0.1415
23484SOL    HW272221   1.751   1.378   2.277 -1.5522 -0.0096 -1.1435
23485SOL     OW72222   3.064   8.574   5.952 -0.0033 -0.2811  0.7677
23485SOL    HW172223   3.124   8.613   5.889 -1.7441 -0.4955 -1.1272
23485SOL    HW272224   3.077   8.480   5.944  1.2802 -0.2784  2.3496
23486SOL     OW72225   6.818   9.616   8.524 -0.2687 -0.3458 -0.0814
23486SOL    HW172226   6.808   9.585   8.434  0.9735 -1.4162  0.1218
23486SOL    HW272227   6.762   9.557   8.575  0.8307 -1.2624  0.1057
23487SOL     OW72228   8.873   3.849   8.427 -0.3889  0.4931  0.3390
23487SOL    HW172229   8.880   3.819   8.517 -0.8867  0.9703  0.5449
23487SOL    HW272230   8.779   3.847   8.409 -0.2211 -0.5545 -0.5061
23488SOL     OW72231   2.799   8.221   5.976 -0.0052 -0.2567 -0.3713
23488SOL    HW172232   2.736   8.272   5.924 -0.2228  0.5538  0.6395
23488SOL    HW272233   2.844   8.286   6.029 -0.7274 -1.1588  1.4259
23489SOL     OW72234   3.410   8.153   0.073  0.0300 -0.1695  0.4605
23489SOL    HW172235   3.392   8.223   0.136 -1.2206 -1.4136  1.5465
23489SOL    HW272236   3.325   8.135   0.032  0.3825 -0.9253  0.0452
23490SOL     OW72237   8.684   0.242   5.139 -0.0259 -0.4260 -0.0261
23490SOL    HW172238   8.651   0.332   5.142 -0.5168 -0.5379 -1.3599
23490SOL    HW272239   8.757   0.241   5.201  0.2995  1.0216 -0.3500
23491SOL     OW72240   7.996   4.557   0.423  0.4998  0.4898 -0.7785
23491SOL    HW172241   7.933   4.620   0.457 -0.0634 -0.8184  0.6726
23491SOL    HW272242   8.048   4.608   0.360  0.6413  2.6299  0.9429
23492SOL     OW72243   6.556   6.279   0.516  0.2654  0.3513  0.4469
23492SOL    HW172244   6.578   6.331   0.438  1.0257  0.5514  0.7928
23492SOL    HW272245   6.590   6.192   0.497  0.9822  0.5496  0.7974
23493SOL     OW72246   5.546   6.370   8.828  0.3693 -0.7544 -0.4441
23493SOL    HW172247   5.544   6.350   8.922  2.1820 -0.9628 -0.4251
23493SOL    HW272248   5.625   6.422   8.816 -0.1627 -0.2174 -1.7787
23494SOL     OW72249   1.963   6.735   1.166  0.0058 -0.0618  0.2426
23494SOL    HW172250   1.927   6.761   1.251 -1.2332  0.5521 -0.4513
23494SOL    HW272251   1.961   6.639   1.168 -0.9990 -0.0493  0.5073
23495SOL     OW72252   5.369   5.312   5.480 -0.4115 -0.1712 -0.5766
23495SOL    HW172253   5.396   5.312   5.388 -0.1373 -0.1240 -0.4988
23495SOL    HW272254   5.427   5.248   5.521 -1.1645 -0.8904 -0.6160
23496SOL     OW72255   8.122   8.880   0.759  0.1708 -0.3586 -0.4939
23496SOL    HW172256   8.083   8.907   0.676 -1.1662 -0.3884  0.1096
23496SOL    HW272257   8.052   8.889   0.824  1.2147 -0.2351  0.6628
23497SOL     OW72258   3.896   4.377   8.460 -0.3414 -0.3172  0.3080
23497SOL    HW172259   3.988   4.401   8.452  0.4572 -2.2485  2.2857
23497SOL    HW272260   3.862   4.436   8.527 -0.4149  0.0920 -0.0895
23498SOL     OW72261   5.462   1.510   1.471 -0.3789  0.4660  0.2811
23498SOL    HW172262   5.553   1.489   1.450 -0.5045 -0.1505  0.3517
23498SOL    HW272263   5.466   1.556   1.555 -0.2198 -0.4332  0.7686
23499SOL     OW72264   7.651   5.750   8.036 -0.0104  0.0233  1.0393
23499SOL    HW172265   7.573   5.696   8.046 -0.6446  1.0125  1.5868
23499SOL    HW272266   7.618   5.840   8.037  1.0628  0.4393  0.5708
23500SOL     OW72267   8.171   3.148   5.629 -0.6895  0.0181 -0.7446
23500SOL    HW172268   8.184   3.242   5.617 -0.1758  0.1772  0.7844
23500SOL    HW272269   8.120   3.121   5.553  0.8242  1.1531 -2.2713
23501SOL     OW72270   0.440   4.547   7.570  0.1491  0.2077 -0.8903
23501SOL    HW172271   0.456   4.506   7.486  0.4331 -0.8930 -0.3066
23501SOL    HW272272   0.370   4.495   7.610  0.0119  0.7205 -0.4364
23502SOL     OW72273   1.245   7.345   9.383  0.1856 -0.4695 -0.5340
23502SOL    HW172274   1.163   7.357   9.430  1.1000 -0.6882  1.1824
23502SOL    HW272275   1.269   7.254   9.400  1.5754  0.0359  0.3494
23503SOL     OW72276   7.476   8.229   6.901 -0.3918 -0.4770 -0.1733
23503SOL    HW172277   7.471   8.133   6.894  1.4454 -0.5909 -0.7214
23503SOL    HW272278   7.442   8.249   6.988  2.5049 -2.0439  1.5017
23504SOL     OW72279   0.629   4.409   0.066  0.2490 -0.0268  0.1596
23504SOL    HW172280   0.641   4.489   0.118 -0.7731  0.8538 -0.8954
23504SOL    HW272281   0.687   4.422  -0.010 -0.9633  0.4012 -0.7287
23505SOL     OW72282   7.405   7.455   3.894  0.0743  0.6080 -0.3815
23505SOL    HW172283   7.404   7.498   3.980 -0.5937  2.2871 -1.1760
23505SOL    HW272284   7.477   7.392   3.899 -1.4639 -1.1196  2.2083
23506SOL     OW72285   5.857   3.181   3.515  0.3158  0.5220 -0.2593
23506SOL    HW172286   5.869   3.236   3.592  1.7320  0.6546 -0.5507
23506SOL    HW272287   5.810   3.237   3.453  1.8247  1.4845 -0.5864
23507SOL     OW72288   8.401   2.961   3.230 -0.3438  0.5911 -0.5101
23507SOL    HW172289   8.466   2.915   3.284  0.1935  2.9910  1.0910
23507SOL    HW272290   8.318   2.920   3.252  0.2112 -0.2320  0.1300
23508SOL     OW72291   7.976   0.891   9.383 -0.5881 -0.4225 -0.4977
23508SOL    HW172292   8.038   0.855   9.320 -0.7161 -1.3089 -0.1394
23508SOL    HW272293   7.890   0.883   9.340 -0.4543  1.0491 -1.1018
23509SOL     OW72294   8.926   3.460   9.140 -0.4275 -0.5365  0.0492
23509SOL    HW172295   8.862   3.388   9.134 -0.1492 -0.6842 -1.4291
23509SOL    HW272296   9.007   3.422   9.106 -0.7427  0.9922 -2.6243
23510SOL     OW72297   6.661   5.564   3.714 -0.1641  0.0891 -0.4920
23510SOL    HW172298   6.661   5.569   3.810 -1.0461 -0.2527 -0.4584
23510SOL    HW272299   6.572   5.535   3.693  0.2793 -0.6283 -1.3742
23511SOL     OW72300   0.809   5.120   2.610 -0.1116  0.2556 -0.2653
23511SOL    HW172301   0.896   5.100   2.643 -0.8560 -0.0414  1.6772
23511SOL    HW272302   0.803   5.216   2.613 -0.3028  0.2233  0.9462
23512SOL     OW72303   5.156   2.256   4.332  0.3403 -0.5227  0.0813
23512SOL    HW172304   5.225   2.269   4.396  0.4824 -1.7501  0.2011
23512SOL    HW272305   5.166   2.165   4.303 -0.8638 -0.5550 -0.3131
23513SOL     OW72306   9.814   8.003   0.038 -0.6264 -0.6384  0.1223
23513SOL    HW172307   9.758   7.936   0.076 -0.0137 -0.9328  0.5267
23513SOL    HW272308   9.902   7.980   0.068 -0.5534  1.0591  1.3284
23514SOL     OW72309   6.528   7.237   4.891  0.3148 -0.0101  0.4943
23514SOL    HW172310   6.502   7.178   4.820  0.1876  0.0344  0.5035
23514SOL    HW272311   6.623   7.245   4.882  0.3762 -0.4760  0.6958
23515SOL     OW72312   1.440   5.849   0.337  0.4136  0.5313 -0.3714
23515SOL    HW172313   1.399   5.767   0.310  2.0978 -0.8933  1.1233
23515SOL    HW272314   1.387   5.878   0.411  0.6858 -0.0498  0.0633
23516SOL     OW72315   7.299   4.505   4.100 -0.4699  0.2830 -0.5916
23516SOL    HW172316   7.363   4.548   4.157 -0.9553 -0.8379  0.8771
23516SOL    HW272317   7.215   4.524   4.140 -1.0321  1.2073 -2.1490
23517SOL     OW72318   2.103   9.841   2.644 -0.0325 -0.6201  0.3494
23517SOL    HW172319   2.175   9.792   2.607  0.9558  0.6028  0.5735
23517SOL    HW272320   2.070   9.895   2.572  0.5091  0.2006  0.7091
23518SOL     OW72321   1.656   2.096   2.157 -0.7829  0.3194  0.4618
23518SOL    HW172322   1.674   2.155   2.230  3.4292  0.1998 -0.2273
23518SOL    HW272323   1.607   2.024   2.195 -3.1613  2.5889  2.0025
23519SOL     OW72324   1.140   5.585   5.195 -0.9866 -0.5462  0.6466
23519SOL    HW172325   1.198   5.661   5.194 -2.1377  0.3522  0.2120
23519SOL    HW272326   1.115   5.573   5.104 -1.1461 -1.1955  0.7704
23520SOL     OW72327   6.311   5.292   7.891 -0.1197 -0.0069  0.3858
23520SOL    HW172328   6.280   5.276   7.980  1.4148 -0.0014  0.9545
23520SOL    HW272329   6.299   5.209   7.846  0.1251 -0.3433  0.9301
23521SOL     OW72330   0.138   6.092   5.324 -0.0796  0.4097 -0.0575
23521SOL    HW172331   0.094   6.162   5.373  0.7291  0.3265  0.8326
23521SOL    HW272332   0.231   6.103   5.345 -0.0066 -1.4988  0.9120
23522SOL     OW72333   7.447   7.354   4.376 -0.4365  0.2244  0.1360
23522SOL    HW172334   7.411   7.428   4.425 -1.4052  1.0952 -1.7552
23522SOL    HW272335   7.488   7.298   4.442 -0.0962  2.1992  1.6905
23523SOL     OW72336   8.837   5.994   7.823 -0.1702  0.2514  0.2116
23523SOL    HW172337   8.898   5.925   7.850  1.1295  0.2127 -2.4299
23523SOL    HW272338   8.830   6.051   7.899  2.5536 -0.2169  0.9377
23524SOL     OW72339   4.119   5.882   1.411 -0.6448 -0.1262 -0.5968
23524SOL    HW172340   4.094   5.804   1.460 -0.3778 -0.4065 -0.8992
23524SOL    HW272341   4.092   5.955   1.467 -1.5330 -0.4197 -0.6200
23525SOL     OW72342   1.569   3.565   3.878 -0.1968 -0.0624  0.0480
23525SOL    HW172343   1.502   3.621   3.917  0.5333 -0.1891  1.5572
23525SOL    HW272344   1.580   3.494   3.941  2.4845  0.8018  0.6995
23526SOL     OW72345   7.971   3.983   4.206  0.0914  0.0343  0.2468
23526SOL    HW172346   7.945   3.925   4.278  2.1107 -1.5007 -0.1757
23526SOL    HW272347   8.001   4.063   4.249  1.1271 -0.8060  1.1372
23527SOL     OW72348   5.134   5.610   3.532 -0.1869 -0.3889  0.5936
23527SOL    HW172349   5.045   5.603   3.496 -0.0486 -0.1143  0.1838
23527SOL    HW272350   5.169   5.522   3.528  0.1688 -0.2082 -0.8733
23528SOL     OW72351   7.262   0.913   3.464 -0.0983 -0.3220  0.2527
23528SOL    HW172352   7.218   0.864   3.395  1.7381 -0.6150 -0.7583
23528SOL    HW272353   7.334   0.857   3.491  1.2269  1.2293  0.0484
23529SOL     OW72354   8.945   1.417   3.937  0.8733 -0.3140 -0.0782
23529SOL    HW172355   8.912   1.448   3.853  0.3674 -0.7422 -0.0449
23529SOL    HW272356   9.013   1.354   3.915 -0.1354 -1.3979 -0.2090
23530SOL     OW72357   4.759   3.432   6.740 -0.5296 -0.0602  0.3827
23530SOL    HW172358   4.845   3.458   6.773 -1.6105  2.0524  1.6919
23530SOL    HW272359   4.700   3.446   6.813 -1.7929 -3.3546  0.1871
23531SOL     OW72360   0.501   9.749   6.403  0.9977 -0.1603 -0.6450
23531SOL    HW172361   0.579   9.693   6.403  0.2911 -1.1761 -0.6174
23531SOL    HW272362   0.467   9.743   6.492  0.9755  0.4074 -0.6128
23532SOL     OW72363   4.374   5.083   3.738  0.8860  0.1299  0.0446
23532SOL    HW172364   4.362   5.113   3.828  0.6259 -0.6244  0.2729
23532SOL    HW272365   4.384   4.988   3.746  2.0410  0.1817 -0.6140
23533SOL     OW72366   2.019   4.873   6.371  1.0186 -0.2627 -0.0595
23533SOL    HW172367   2.046   4.791   6.412 -1.1910 -0.4134  1.2845
23533SOL    HW272368   1.976   4.922   6.441  0.6547  1.2439 -1.2709
23534SOL     OW72369   0.495   3.335   5.648 -0.2977  0.6898  0.0582
23534SOL    HW172370   0.583   3.371   5.661  0.0437 -0.0511 -0.1495
23534SOL    HW272371   0.475   3.291   5.731  0.4294 -0.9916 -0.6080
23535SOL     OW72372   3.076   1.112   5.888  0.2075 -0.0830  0.1028
23535SOL    HW172373   3.150   1.052   5.889  1.3085  1.1121 -2.0016
23535SOL    HW272374   3.079   1.155   5.974  1.6269 -0.4472  0.2634
23536SOL     OW72375   9.146   9.351   7.289 -0.0078  0.1112 -0.0273
23536SOL    HW172376   9.232   9.363   7.248  0.3814 -2.7771 -0.2428
23536SOL    HW272377   9.088   9.407   7.238  1.2346 -0.1442 -1.8274
23537SOL     OW72378   5.563   2.940   5.920 -0.5963  0.0941 -0.2239
23537SOL    HW172379   5.624   2.963   5.850 -0.6566  0.2288 -0.2314
23537SOL    HW272380   5.620   2.920   5.995 -0.5495  0.3705 -0.1863
23538SOL     OW72381   8.873   4.373   6.051 -0.1965 -0.8246 -0.4052
23538SOL    HW172382   8.934   4.344   6.118  0.5102 -0.6705 -0.9768
23538SOL    HW272383   8.921   4.367   5.969 -0.5123  0.4940 -0.7261
23539SOL     OW72384   3.013   1.833   2.385 -0.2889  0.4174 -0.5195
23539SOL    HW172385   2.967   1.893   2.444 -1.3047 -0.2216 -0.6256
23539SOL    HW272386   3.088   1.802   2.435 -1.6218 -0.8201  0.8266
23540SOL     OW72387   0.212   5.776   7.906  0.2629  0.6671  0.2840
23540SOL    HW172388   0.270   5.848   7.931 -1.2173  1.1774  2.4650
23540SOL    HW272389   0.249   5.699   7.951 -1.0864  1.1430  2.3416
23541SOL     OW72390   0.640   5.294   5.271 -0.2474 -0.4950 -0.1364
23541SOL    HW172391   0.619   5.257   5.185 -0.6959 -0.9562  0.1669
23541SOL    HW272392   0.706   5.361   5.252  0.0822 -0.9842 -0.7743
23542SOL     OW72393   7.476   5.631   3.796  0.1045  0.2667 -0.2281
23542SOL    HW172394   7.537   5.627   3.722  0.1973 -1.2562 -0.1066
23542SOL    HW272395   7.405   5.572   3.771 -0.6165  0.9070  0.2583
23543SOL     OW72396   0.602   3.983   5.334 -0.4839 -0.4200  0.5664
23543SOL    HW172397   0.518   4.030   5.344 -0.8117 -0.7893 -0.3391
23543SOL    HW272398   0.655   4.013   5.408 -1.2075  0.2721  0.8226
23544SOL     OW72399   2.571   5.368   4.882 -0.1712  1.0761  0.5298
23544SOL    HW172400   2.517   5.349   4.805  0.7793 -0.5105  0.1858
23544SOL    HW272401   2.653   5.403   4.845  0.7392 -0.7716  0.6771
23545SOL     OW72402   4.405   9.490   2.135 -0.3485  0.1282 -0.2262
23545SOL    HW172403   4.413   9.557   2.202  1.6317 -1.5430  1.3363
23545SOL    HW272404   4.334   9.434   2.166  0.2911 -0.4087  0.3022
23546SOL     OW72405   0.711   5.479   6.738  0.0478  0.7610 -0.2754
23546SOL    HW172406   0.630   5.479   6.685  0.0073 -0.2447 -0.2431
23546SOL    HW272407   0.778   5.448   6.677 -0.0527 -0.6934  0.3015
23547SOL     OW72408   3.415   5.984   8.948  0.2980  0.2493  0.5922
23547SOL    HW172409   3.501   6.004   8.912 -0.1144  2.0071  0.4984
23547SOL    HW272410   3.433   5.947   9.034  1.1307  1.2286  0.8522
23548SOL     OW72411   4.460   9.072   7.788 -0.0449 -0.6771 -0.2263
23548SOL    HW172412   4.528   9.136   7.766 -0.5869 -0.8256 -2.5133
23548SOL    HW272413   4.470   9.059   7.882  1.2480  1.4246  0.0014
23549SOL     OW72414   7.636   4.771   8.595  0.5224  0.1893 -0.1625
23549SOL    HW172415   7.692   4.712   8.545  0.7501  0.6111 -0.4067
23549SOL    HW272416   7.680   4.856   8.592 -0.2372  0.5889 -0.5507
23550SOL     OW72417   1.973   0.409   5.000 -0.4849  0.4976  0.1004
23550SOL    HW172418   1.945   0.494   4.966 -1.3213 -0.7647 -2.6110
23550SOL    HW272419   2.065   0.401   4.975 -0.6798  0.2011 -0.5277
23551SOL     OW72420   2.998   4.036   8.454  0.3270  0.0666  0.0308
23551SOL    HW172421   3.091   4.056   8.470  0.5390 -0.9614  0.2040
23551SOL    HW272422   2.959   4.120   8.431  1.6435  0.2609 -1.7398
23552SOL     OW72423   2.983   4.744   2.070 -0.2822  0.3813 -0.0646
23552SOL    HW172424   3.039   4.696   2.130 -0.4210  1.4175  0.9311
23552SOL    HW272425   2.985   4.693   1.989  0.3183 -0.7674  0.6480
23553SOL     OW72426   0.193   8.502   9.475 -0.2939 -0.0016 -0.0921
23553SOL    HW172427   0.137   8.554   9.418 -0.5524 -0.7618 -0.5280
23553SOL    HW272428   0.184   8.544   9.561 -4.3505 -2.1122  0.7610
23554SOL     OW72429   7.121   9.515   6.799  0.2675  0.2253  0.0399
23554SOL    HW172430   7.153   9.583   6.859 -0.0489  0.8018 -0.4406
23554SOL    HW272431   7.075   9.453   6.856  0.6080  0.3808  0.4880
23555SOL     OW72432   9.819   7.432   9.752 -0.5652 -0.1408 -0.0283
23555SOL    HW172433   9.913   7.445   9.757 -0.3778 -0.7012 -1.5178
23555SOL    HW272434   9.785   7.516   9.719 -0.3589 -0.4808 -1.1716
23556SOL     OW72435   1.739   3.709   5.494  0.1991 -0.3481  0.1093
23556SOL    HW172436   1.834   3.695   5.487 -0.0197 -1.7787 -0.1240
23556SOL    HW272437   1.720   3.774   5.427  1.3279  1.6540  1.6106
23557SOL     OW72438   2.534   7.709   4.631  0.1098 -0.2134  0.1407
23557SOL    HW172439   2.534   7.752   4.546 -0.4272  1.0974  0.7816
23557SOL    HW272440   2.551   7.617   4.611 -2.3655 -0.3943 -1.6086
23558SOL     OW72441   1.914   7.912   5.993  0.2571  0.1592  0.1403
23558SOL    HW172442   1.972   7.927   5.919 -0.2184  0.2984 -0.2099
23558SOL    HW272443   1.952   7.963   6.065  0.6736  0.0876 -0.0293
23559SOL     OW72444   1.325   3.460   8.292  0.0888 -0.5336  0.1286
23559SOL    HW172445   1.258   3.528   8.300  0.1558 -0.3658 -0.6320
23559SOL    HW272446   1.367   3.458   8.378  0.2532  0.5675  0.0921
23560SOL     OW72447   3.496   3.760   6.313  0.1931 -0.0711 -0.0411
23560SOL    HW172448   3.588   3.760   6.287  0.3812 -1.3759  0.5699
23560SOL    HW272449   3.475   3.852   6.327  1.4241  0.2337 -0.1037
23561SOL     OW72450   0.515   4.013   9.541  0.0654  0.3936 -0.2012
23561SOL    HW172451   0.495   3.930   9.496 -2.5293 -0.6200  2.4217
23561SOL    HW272452   0.454   4.076   9.503  3.4445  1.9444 -3.7221
23562SOL     OW72453   7.972   0.517   2.671  0.4067  0.2898 -0.2842
23562SOL    HW172454   7.901   0.485   2.727 -0.9136 -0.4609 -2.2902
23562SOL    HW272455   8.010   0.438   2.633  0.1379  0.8253 -1.7362
23563SOL     OW72456   7.246   8.820   6.963  0.0607  0.2612 -0.0080
23563SOL    HW172457   7.331   8.786   6.935  0.5353 -1.4663  3.0374
23563SOL    HW272458   7.263   8.912   6.985  0.7243  0.3818 -0.9629
23564SOL     OW72459   0.568   5.965   2.611 -0.3677 -0.1659 -0.4499
23564SOL    HW172460   0.544   5.901   2.679 -2.8378  1.6164  0.4757
23564SOL    HW272461   0.572   5.913   2.531  2.0445 -2.2298  0.8285
23565SOL     OW72462   1.617   3.421   8.253  0.3294  0.3538  0.7669
23565SOL    HW172463   1.590   3.333   8.226  0.4140  0.7063 -0.5759
23565SOL    HW272464   1.571   3.437   8.335 -1.8049  0.0661 -0.3001
23566SOL     OW72465   3.637   6.731   8.397 -0.4869  0.1122  0.0133
23566SOL    HW172466   3.562   6.747   8.340  0.0819  1.0982 -0.4809
23566SOL    HW272467   3.712   6.764   8.347  0.2804 -0.8186  0.5121
23567SOL     OW72468   1.878   1.632   7.144  0.0413 -0.4107 -0.0771
23567SOL    HW172469   1.785   1.630   7.168  0.1278  1.6340  0.6080
23567SOL    HW272470   1.910   1.715   7.179  1.3354  0.5733 -3.2278
23568SOL     OW72471   6.769   7.033   2.899 -0.0505  0.3759 -0.3996
23568SOL    HW172472   6.780   7.124   2.926 -0.6635  0.1149  0.8452
23568SOL    HW272473   6.799   6.982   2.974  0.3692 -0.4581 -1.1134
23569SOL     OW72474   2.483   9.063   7.544  0.4041  0.2535 -0.1722
23569SOL    HW172475   2.533   8.990   7.507  0.0214 -0.2625  0.3072
23569SOL    HW272476   2.391   9.039   7.528  0.2913  1.0361 -0.7591
23570SOL     OW72477   1.593   0.305   7.477 -0.2979  0.6498 -0.1681
23570SOL    HW172478   1.557   0.281   7.391  0.8540 -0.3125 -0.4094
23570SOL    HW272479   1.599   0.400   7.475 -1.0017  0.6880 -0.8604
23571SOL     OW72480   9.233   1.525   2.604 -0.3646 -0.1160 -0.4515
23571SOL    HW172481   9.241   1.504   2.511 -0.1420 -1.1521 -0.2188
23571SOL    HW272482   9.296   1.595   2.619 -0.5810  0.2283 -1.1303
23572SOL     OW72483   5.688   4.918   4.122  0.5238 -0.5241  0.1665
23572SOL    HW172484   5.596   4.930   4.098  0.3544  0.4456  1.2250
23572SOL    HW272485   5.721   5.007   4.136  1.5852 -0.8689 -0.0501
23573SOL     OW72486   9.273   5.151   0.012  0.2427 -0.1364 -0.5560
23573SOL    HW172487   9.202   5.144  -0.052  0.1353  1.1728 -0.6086
23573SOL    HW272488   9.315   5.066   0.011 -1.4671 -1.0268 -0.3731
23574SOL     OW72489   0.848   2.610   9.784  0.0806  0.0439  0.8223
23574SOL    HW172490   0.940   2.589   9.799 -0.4855 -2.4265  1.1680
23574SOL    HW272491   0.845   2.643   9.694  1.2495 -0.1178  0.7155
23575SOL     OW72492   4.823   0.673   6.323 -0.1006 -0.4130  0.2751
23575SOL    HW172493   4.761   0.663   6.395 -0.1135 -0.3900  0.2668
23575SOL    HW272494   4.859   0.761   6.334 -0.3342 -0.2899  0.0679
23576SOL     OW72495   3.448   0.945   5.601 -0.3270  0.0791 -0.2163
23576SOL    HW172496   3.509   0.999   5.651 -0.1873  0.5622 -0.8930
23576SOL    HW272497   3.371   1.000   5.589 -1.1106 -0.6986  1.0434
23577SOL     OW72498   9.516   7.509   0.443 -0.4190 -0.2643  0.9131
23577SOL    HW172499   9.430   7.524   0.482 -0.5996 -0.3092  0.5305
23577SOL    HW272500   9.552   7.437   0.494 -1.1982 -1.2147  0.1717
23578SOL     OW72501   3.895   9.601   3.326  0.2231 -0.4245 -0.4092
23578SOL    HW172502   3.906   9.546   3.403 -0.8160  0.4717  0.4202
23578SOL    HW272503   3.981   9.640   3.312  0.8446 -1.8452 -0.7277
23579SOL     OW72504   5.279   8.157   0.149 -0.0881 -0.1470  0.8128
23579SOL    HW172505   5.362   8.110   0.140  0.0594 -0.1410  1.9642
23579SOL    HW272506   5.217   8.090   0.178 -0.0928  0.1567  1.5413
23580SOL     OW72507   6.930   4.178   6.580 -0.0217  0.1260  0.1083
23580SOL    HW172508   6.960   4.204   6.493 -2.2499  0.4728 -0.6275
23580SOL    HW272509   6.953   4.085   6.587 -1.2173 -0.3325 -1.5409
23581SOL     OW72510   0.556   5.771   0.912  0.5858 -0.2133 -0.7886
23581SOL    HW172511   0.482   5.727   0.869  0.4617 -1.4348  0.6059
23581SOL    HW272512   0.630   5.756   0.852 -0.2105  0.8550 -2.0990
23582SOL     OW72513   3.698   7.513   7.335 -0.0761 -0.0013  0.0837
23582SOL    HW172514   3.648   7.485   7.413 -0.7973  0.4504 -0.2033
23582SOL    HW272515   3.752   7.585   7.367 -0.9943  0.7441 -0.0077
23583SOL     OW72516   1.356   8.661   8.605  0.4211  0.7159 -0.0576
23583SOL    HW172517   1.363   8.745   8.559 -1.3412  1.0576  0.2183
23583SOL    HW272518   1.332   8.685   8.694 -0.3637 -0.0810 -0.0484
23584SOL     OW72519   2.450   6.171   7.331  0.6927 -0.3352 -0.1494
23584SOL    HW172520   2.446   6.266   7.343 -0.7618 -0.3034 -0.7557
23584SOL    HW272521   2.476   6.137   7.416 -0.7493  0.4749  0.6393
23585SOL     OW72522   5.302   6.465   4.087  0.1083 -0.6694 -0.0437
23585SOL    HW172523   5.391   6.496   4.104 -1.1197  2.3423  1.8865
23585SOL    HW272524   5.273   6.429   4.171 -0.8493 -0.4904 -0.2798
23586SOL     OW72525   1.163   9.421   6.198 -0.5103  0.1396 -0.2535
23586SOL    HW172526   1.077   9.419   6.158 -0.4057 -0.7354 -0.4665
23586SOL    HW272527   1.169   9.506   6.241 -1.8565 -0.1750  0.5971
23587SOL     OW72528   1.344   2.607   2.205  0.3339  0.0206 -0.2319
23587SOL    HW172529   1.336   2.513   2.188  3.3979 -0.1945 -1.2159
23587SOL    HW272530   1.371   2.613   2.296  0.3693 -0.0788 -0.2359
23588SOL     OW72531   5.450   0.878   8.556  0.6997  0.1090 -0.2030
23588SOL    HW172532   5.451   0.783   8.568  0.7813  0.1876  0.4690
23588SOL    HW272533   5.488   0.913   8.637 -3.2504  0.9060  1.5221
23589SOL     OW72534   1.827   7.865   8.867 -0.0122 -0.6272  0.0928
23589SOL    HW172535   1.760   7.822   8.919 -0.2977 -2.8304 -1.9876
23589SOL    HW272536   1.808   7.959   8.877 -2.7430 -1.1411  0.3814
23590SOL     OW72537   7.860   7.348   6.474  0.3668  0.4346 -0.0850
23590SOL    HW172538   7.778   7.299   6.479  0.0986  0.9297  0.5063
23590SOL    HW272539   7.917   7.306   6.539  1.1106 -0.8471 -1.5156
23591SOL     OW72540   8.048   5.797   2.971 -0.1531 -0.3295 -0.2866
23591SOL    HW172541   8.077   5.811   2.881 -0.2434 -0.2048 -0.2969
23591SOL    HW272542   8.122   5.754   3.013 -0.2271 -0.6714 -0.4992
23592SOL     OW72543   3.868   6.329   7.130  0.8874 -0.3395  0.1262
23592SOL    HW172544   3.921   6.258   7.168  1.1270  0.1097  0.6409
23592SOL    HW272545   3.816   6.362   7.203 -0.4725 -1.0818 -0.4729
23593SOL     OW72546   3.859   6.896   2.223  0.0758 -0.0120 -0.4920
23593SOL    HW172547   3.860   6.948   2.303  1.9589 -0.3905 -0.2265
23593SOL    HW272548   3.908   6.949   2.159  0.7256 -0.7938 -0.6521
23594SOL     OW72549   5.511   1.512   0.708  0.1789  0.0377  0.2394
23594SOL    HW172550   5.575   1.466   0.653 -0.2387 -1.4309  0.9431
23594SOL    HW272551   5.548   1.600   0.718 -0.5527  1.0174 -3.7958
23595SOL     OW72552   7.867   9.814   1.794 -0.1444 -0.2768  0.4728
23595SOL    HW172553   7.783   9.798   1.836 -0.0329 -0.3584  0.6630
23595SOL    HW272554   7.932   9.782   1.856  0.0728  0.7579  0.7944
23596SOL     OW72555   4.194   6.125   5.564 -0.2369 -0.1841 -0.2515
23596SOL    HW172556   4.163   6.172   5.486  0.8403  0.0278 -0.5730
23596SOL    HW272557   4.247   6.054   5.529 -1.0146 -1.0446  0.2684
23597SOL     OW72558   0.603   0.112   6.793  0.0380 -0.1880  0.2413
23597SOL    HW172559   0.690   0.129   6.756  0.1633  0.2749  0.7297
23597SOL    HW272560   0.615   0.030   6.843  0.2974  0.0676  0.6107
23598SOL     OW72561   8.331   2.407   0.421  0.3024  0.5856 -0.0279
23598SOL    HW172562   8.377   2.363   0.493  0.5639  0.8128 -0.0533
23598SOL    HW272563   8.277   2.339   0.382 -0.9204  0.7756  1.2544
23599SOL     OW72564   6.884   0.767   5.027  0.8055 -0.3657 -0.1674
23599SOL    HW172565   6.840   0.828   4.969 -0.2637 -1.3928 -0.4658
23599SOL    HW272566   6.842   0.683   5.011  3.5324 -1.6646 -1.2442
23600SOL     OW72567   2.068   7.661   6.062  0.1083 -0.5301  0.5883
23600SOL    HW172568   2.136   7.660   6.129  2.4693  1.0775 -1.6461
23600SOL    HW272569   2.067   7.750   6.028 -1.2530 -1.1779 -1.2944
23601SOL     OW72570   1.738   1.918   8.839  0.0554 -0.1372 -0.4346
23601SOL    HW172571   1.809   1.979   8.856  1.3897 -1.7772  0.1037
23601SOL    HW272572   1.709   1.938   8.750  3.4360 -1.5558 -1.9939
23602SOL     OW72573   3.733   7.889   1.602  0.2194  0.3218 -0.4173
23602SOL    HW172574   3.698   7.978   1.595 -0.0779  0.1653 -0.9244
23602SOL    HW272575   3.819   7.901   1.644  0.0982  0.8249 -0.2990
23603SOL     OW72576   2.527   4.554   0.364  0.4463 -0.0732 -0.0643
23603SOL    HW172577   2.557   4.490   0.429 -1.3290 -1.3539 -0.4275
23603SOL    HW272578   2.437   4.575   0.391  0.6790  1.6186 -0.4738
23604SOL     OW72579   8.506   7.564   3.700  0.4051 -0.8850 -0.2538
23604SOL    HW172580   8.519   7.574   3.795 -1.6617 -0.8318  0.0784
23604SOL    HW272581   8.582   7.516   3.670  1.2466 -0.6618  1.3940
23605SOL     OW72582   5.469   8.345   0.603  0.3473 -0.6454  0.1890
23605SOL    HW172583   5.423   8.271   0.641 -0.5382  0.1455  0.6792
23605SOL    HW272584   5.539   8.365   0.666  0.2368 -0.7127  0.3324
23606SOL     OW72585   8.879   2.700   4.183  0.0234  0.4181 -0.2775
23606SOL    HW172586   8.920   2.626   4.228  0.2542  0.1587 -0.9010
23606SOL    HW272587   8.900   2.776   4.238 -1.1483 -0.1135  0.9549
23607SOL     OW72588   0.864   1.467   8.643  0.0736 -0.1657  0.0037
23607SOL    HW172589   0.813   1.544   8.615  0.6609  0.5740  0.9093
23607SOL    HW272590   0.816   1.433   8.719  0.7790  0.4124  0.7334
23608SOL     OW72591   4.681   2.642   8.147  0.0458  0.8512  0.0655
23608SOL    HW172592   4.697   2.548   8.148 -0.7751  0.7106  0.4106
23608SOL    HW272593   4.729   2.674   8.071 -0.4393  0.0160 -0.5989
23609SOL     OW72594   2.365   1.505   3.623  0.3578 -0.1094  0.4499
23609SOL    HW172595   2.325   1.558   3.692 -0.5951  0.6751 -0.6433
23609SOL    HW272596   2.444   1.552   3.599 -0.7549  1.1795 -0.8776
23610SOL     OW72597   4.066   1.220   5.789 -0.0051 -0.7977 -0.3367
23610SOL    HW172598   4.006   1.279   5.743  1.2423 -1.3327 -2.7919
23610SOL    HW272599   4.153   1.255   5.771  0.5678 -0.3162  2.7534
23611SOL     OW72600   1.623   2.697   1.268 -0.4032  0.0421 -0.1019
23611SOL    HW172601   1.614   2.609   1.232 -1.4274  0.1310 -0.1021
23611SOL    HW272602   1.658   2.750   1.197 -0.2676 -0.2552 -0.2566
23612SOL     OW72603   7.553   8.583   9.665  0.1360 -0.5213  0.2145
23612SOL    HW172604   7.537   8.562   9.573 -0.8220 -1.4327  0.5588
23612SOL    HW272605   7.634   8.537   9.687  0.5736  0.0035 -0.2504
23613SOL     OW72606   8.194   8.487   5.778 -0.2306  0.0547 -0.0017
23613SOL    HW172607   8.277   8.529   5.801 -0.2401  0.3194 -0.4239
23613SOL    HW272608   8.217   8.427   5.706 -0.3912  0.0892 -0.0838
23614SOL     OW72609   9.292   9.037   9.566  0.0294  0.1809 -0.7337
23614SOL    HW172610   9.347   9.115   9.557  0.1995  0.6615  2.8481
23614SOL    HW272611   9.205   9.066   9.537  0.0384  1.8529  0.7213
23615SOL     OW72612   1.835   8.616   3.574 -0.3251 -0.0501 -0.0899
23615SOL    HW172613   1.791   8.700   3.588 -0.1864  0.2944 -1.4925
23615SOL    HW272614   1.923   8.629   3.609 -0.3296  0.3767 -0.2271
23616SOL     OW72615   9.738   9.042   1.380  0.0286  0.0896 -0.2066
23616SOL    HW172616   9.824   9.081   1.366  0.3942 -0.7647 -0.4126
23616SOL    HW272617   9.729   8.977   1.310 -0.2670 -0.6805  0.5234
23617SOL     OW72618   5.070   5.958   6.304  0.5444  0.4386 -0.0943
23617SOL    HW172619   5.127   5.915   6.367  1.3067 -0.5623 -1.4064
23617SOL    HW272620   5.130   5.993   6.238 -0.2436  1.2601 -0.3977
23618SOL     OW72621   6.544   6.354   7.675 -0.6115 -0.2837  0.0988
23618SOL    HW172622   6.487   6.351   7.751 -1.4140 -1.0546 -0.5189
23618SOL    HW272623   6.630   6.329   7.709 -0.8716 -0.2205  0.8212
23619SOL     OW72624   5.700   0.005   9.614 -0.4909 -0.6732  0.0490
23619SOL    HW172625   5.773   0.067   9.609 -1.8376  0.9009 -1.3890
23619SOL    HW272626   5.705  -0.043   9.531  0.4616 -2.4859  1.0982
23620SOL     OW72627   9.117   7.796   0.735 -0.1413  0.5046  0.1061
23620SOL    HW172628   9.087   7.706   0.726 -0.7181  0.7105 -0.1534
23620SOL    HW272629   9.091   7.838   0.653 -1.2808  1.2869  0.8349
23621SOL     OW72630   5.877   9.398   9.615  0.3953  0.4089  0.2454
23621SOL    HW172631   5.940   9.469   9.605  1.0370 -0.2018 -0.2067
23621SOL    HW272632   5.930   9.322   9.638 -0.3650  0.2450  1.5465
23622SOL     OW72633   2.433   8.411   3.899 -0.3938  0.2178  0.6321
23622SOL    HW172634   2.488   8.437   3.973 -0.7068 -1.1340  1.3759
23622SOL    HW272635   2.426   8.316   3.907 -0.0293 -0.0274 -1.4467
23623SOL     OW72636   9.450   6.664   9.070 -0.5913  0.5012 -0.1409
23623SOL    HW172637   9.526   6.667   9.128 -2.3367 -0.7668  2.4199
23623SOL    HW272638   9.446   6.572   9.041 -1.7590  0.2517  0.7308
23624SOL     OW72639   5.034   0.570   0.112 -0.3889 -0.0156  0.3967
23624SOL    HW172640   5.054   0.484   0.151 -0.9722 -0.6485 -0.6525
23624SOL    HW272641   4.972   0.610   0.173 -1.1532 -0.9218  0.2462
23625SOL     OW72642   9.002   4.849   2.415  0.4430 -0.4521  0.1060
23625SOL    HW172643   9.065   4.919   2.431 -1.2508  1.3124 -0.5705
23625SOL    HW272644   9.051   4.769   2.430  2.5141  0.8609  0.7439
23626SOL     OW72645   8.097   8.149   6.050 -0.2201  0.7335  0.0187
23626SOL    HW172646   8.041   8.072   6.058 -0.4522  0.4991 -2.8138
23626SOL    HW272647   8.037   8.223   6.049 -0.2916  0.6731 -0.5342
23627SOL     OW72648   2.860   5.120   8.907  0.0938 -0.0764 -0.2520
23627SOL    HW172649   2.854   5.048   8.845  3.3512 -1.5168  0.8813
23627SOL    HW272650   2.851   5.199   8.853  2.0101 -1.2829 -2.5296
23628SOL     OW72651   1.513   5.297   6.626  0.2491  0.6758 -0.3359
23628SOL    HW172652   1.517   5.208   6.662  0.1638  0.5102 -0.7359
23628SOL    HW272653   1.467   5.347   6.693 -2.1625 -0.1617 -1.2527
23629SOL     OW72654   5.136   4.287   3.707 -0.2290 -0.3051  0.0161
23629SOL    HW172655   5.123   4.238   3.788  0.8731 -1.1439 -0.2985
23629SOL    HW272656   5.096   4.233   3.639 -0.2202 -0.1069 -0.1501
23630SOL     OW72657   0.887   9.482   7.010 -0.0908 -0.0069  0.5497
23630SOL    HW172658   0.822   9.469   7.079 -0.7361  0.9952  0.1549
23630SOL    HW272659   0.917   9.572   7.021  1.0477 -0.3637  0.5537
23631SOL     OW72660   0.219   0.665   0.948  0.0889 -0.1552  0.3021
23631SOL    HW172661   0.269   0.590   0.918  0.2251  0.1544 -0.2623
23631SOL    HW272662   0.206   0.719   0.870  0.6474  0.7813  0.8226
23632SOL     OW72663   7.954   1.774   7.803  0.3477  0.1141 -0.0773
23632SOL    HW172664   7.977   1.859   7.766 -0.1260  0.2904  0.0300
23632SOL    HW272665   7.919   1.725   7.728 -0.2268  0.3291  0.0463
23633SOL     OW72666   0.378   7.254   2.853  0.4525 -0.3693  0.0610
23633SOL    HW172667   0.412   7.315   2.788  0.8007  1.9411  2.2271
23633SOL    HW272668   0.451   7.241   2.914 -0.2874 -1.2974  0.7856
23634SOL     OW72669   0.588   7.588   0.214 -0.1966 -0.4193 -0.0498
23634SOL    HW172670   0.624   7.583   0.302 -0.2602  1.4672  0.1283
23634SOL    HW272671   0.653   7.637   0.164 -1.4413  1.1224 -0.2659
23635SOL     OW72672   3.523   6.274   7.716 -0.5023 -0.3288  0.2024
23635SOL    HW172673   3.545   6.254   7.625 -0.7039  0.8980 -0.1359
23635SOL    HW272674   3.471   6.354   7.711  0.3826  0.3661  1.4654
23636SOL     OW72675   4.970   1.330   3.184 -0.3871  0.0816  0.1434
23636SOL    HW172676   5.049   1.322   3.238 -0.1009  0.7687 -0.1643
23636SOL    HW272677   4.954   1.241   3.152  0.6327  0.0455 -0.3054
23637SOL     OW72678   1.512   6.115   0.218  0.4591  0.2499 -0.0137
23637SOL    HW172679   1.480   6.040   0.268 -1.1549  0.7582 -0.2325
23637SOL    HW272680   1.548   6.175   0.284  0.8175 -0.2574  0.2571
23638SOL     OW72681   8.682   3.013   6.948  0.0122 -0.3687 -0.4242
23638SOL    HW172682   8.777   3.010   6.960 -0.2057 -1.0757  1.6132
23638SOL    HW272683   8.651   2.930   6.985 -1.5782  0.9482  1.3931
23639SOL     OW72684   3.865   9.066   5.533 -0.4408  0.0100 -0.2101
23639SOL    HW172685   3.814   9.022   5.601 -1.3549  1.2044 -0.0901
23639SOL    HW272686   3.914   9.134   5.579 -0.5758  0.4169 -0.6573
23640SOL     OW72687   0.661   0.648   5.076 -0.6147 -0.1097  0.4951
23640SOL    HW172688   0.716   0.632   5.153 -0.7144 -1.7505  0.2532
23640SOL    HW272689   0.659   0.744   5.068  2.0101  0.0251  0.6466
23641SOL     OW72690   7.602   5.927   5.191  0.1622 -0.1709 -0.1327
23641SOL    HW172691   7.510   5.899   5.185  0.5285 -1.1269 -1.6545
23641SOL    HW272692   7.638   5.874   5.262  0.2563 -1.9804 -1.4625
23642SOL     OW72693   2.441   0.008   7.744 -0.3161  0.1782  0.5433
23642SOL    HW172694   2.487  -0.074   7.725 -0.8446  0.0313 -0.1128
23642SOL    HW272695   2.398   0.031   7.662 -0.3395  1.0121  0.7836
23643SOL     OW72696   8.765   6.343   2.820 -0.2500 -0.1079 -0.0750
23643SOL    HW172697   8.809   6.330   2.736  1.2187  0.8805  0.5049
23643SOL    HW272698   8.673   6.322   2.803  0.2264 -1.0178 -1.6371
23644SOL     OW72699   5.028   1.860   0.013 -0.0663 -0.5489 -0.0314
23644SOL    HW172700   5.017   1.879  -0.080 -0.1900 -0.2097  0.0509
23644SOL    HW272701   5.067   1.940   0.049  0.1776 -0.7575  0.1692
23645SOL     OW72702   2.314   1.259   3.689 -0.3648 -0.0300  0.4877
23645SOL    HW172703   2.246   1.277   3.755 -0.8950  0.9740 -0.3117
23645SOL    HW272704   2.345   1.346   3.663  1.2642 -0.4753  0.8535
23646SOL     OW72705   3.131   5.425   6.023 -0.3202  0.5071  0.1895
23646SOL    HW172706   3.089   5.443   5.939  0.7713 -0.9382 -0.7195
23646SOL    HW272707   3.211   5.479   6.022 -0.1375  0.2394  0.1349
23647SOL     OW72708   2.358   3.235   2.685  0.3443  0.2533 -0.2261
23647SOL    HW172709   2.446   3.272   2.697 -0.2890  1.8043 -0.1871
23647SOL    HW272710   2.373   3.154   2.635  1.9589 -0.5211  1.3916
23648SOL     OW72711   9.615   8.961   5.833  0.2836  0.5087 -0.5759
23648SOL    HW172712   9.544   8.920   5.784  1.1441 -0.7477 -0.7948
23648SOL    HW272713   9.673   8.997   5.766 -0.5190  2.2967 -0.3952
23649SOL     OW72714   9.197   1.188   3.174 -0.5193 -0.4259  0.1567
23649SOL    HW172715   9.283   1.224   3.194  0.2519 -2.7433  1.4797
23649SOL    HW272716   9.188   1.198   3.079  1.0067  0.2619  0.0594
23650SOL     OW72717   4.816   1.882   7.935 -0.2165 -0.7304 -0.2883
23650SOL    HW172718   4.880   1.831   7.886  0.7447 -2.6778  2.7205
23650SOL    HW272719   4.739   1.825   7.941 -0.8165  0.0301 -0.6776
23651SOL     OW72720   4.608   0.729   0.949  0.1324  0.0567  0.6039
23651SOL    HW172721   4.597   0.764   1.038 -1.4263 -0.0314  0.4737
23651SOL    HW272722   4.576   0.640   0.954 -1.1410  0.4439 -0.3119
23652SOL     OW72723   3.145   8.231   6.713  0.1226  0.7660 -0.9086
23652SOL    HW172724   3.084   8.306   6.713 -0.8687 -0.0015 -1.9873
23652SOL    HW272725   3.118   8.179   6.638  0.7671 -0.7088 -0.1466
23653SOL     OW72726   4.521   9.744   5.523  0.3712  0.5386 -0.5019
23653SOL    HW172727   4.613   9.730   5.545  0.2115 -0.5306 -0.4539
23653SOL    HW272728   4.502   9.677   5.457 -0.5283  0.3409 -0.0634
23654SOL     OW72729   6.108   2.415   3.844  0.4336  0.7399  0.2260
23654SOL    HW172730   6.116   2.503   3.880 -0.7898  0.6985  0.6634
23654SOL    HW272731   6.067   2.427   3.758  2.2410  0.7434 -0.6751
23655SOL     OW72732   4.726   8.906   3.819 -0.7476  0.1620 -0.1106
23655SOL    HW172733   4.649   8.921   3.764  0.4676  1.4631 -1.5628
23655SOL    HW272734   4.716   8.969   3.891 -1.4001 -0.1898  0.1103
23656SOL     OW72735   1.313   5.029   0.510  0.0046 -0.1630  0.4286
23656SOL    HW172736   1.392   5.062   0.553 -0.3075  0.4107  0.5616
23656SOL    HW272737   1.339   4.943   0.477  0.4666 -0.2936  1.1118
23657SOL     OW72738   8.409   4.482   8.050 -0.4602 -0.1456  0.1673
23657SOL    HW172739   8.412   4.398   8.096  0.1122 -0.6567 -0.7535
23657SOL    HW272740   8.341   4.470   7.984  0.6598 -0.4504 -0.9696
23658SOL     OW72741   7.441   6.369   8.320  0.6888  0.1402 -0.3052
23658SOL    HW172742   7.376   6.425   8.362  1.8049  0.6021  0.8674
23658SOL    HW272743   7.415   6.368   8.227 -1.4769 -0.4037  0.2425
23659SOL     OW72744   0.454   4.652   1.532  0.0943  0.1837  0.6002
23659SOL    HW172745   0.386   4.646   1.465  1.9958  1.4326 -1.5591
23659SOL    HW272746   0.479   4.562   1.550  0.4839 -0.1343 -1.3959
23660SOL     OW72747   5.515   7.180   5.703 -0.1803 -0.0388  0.1328
23660SOL    HW172748   5.526   7.104   5.646 -1.0929 -0.7473  0.8679
23660SOL    HW272749   5.590   7.176   5.763 -0.5662 -0.7492  0.5852
23661SOL     OW72750   5.277   9.425   3.281 -0.4651  0.3171 -0.1821
23661SOL    HW172751   5.285   9.412   3.186 -0.6063  0.3250 -0.1956
23661SOL    HW272752   5.294   9.518   3.294  0.3130  0.1662 -0.1123
23662SOL     OW72753   7.332   8.698   6.017 -0.1409  0.0632 -0.4528
23662SOL    HW172754   7.254   8.660   5.978  0.3863 -1.5096 -0.0288
23662SOL    HW272755   7.342   8.654   6.101  0.9432  0.5634 -0.2910
23663SOL     OW72756   8.365   3.049   8.740  0.3848 -0.0851 -0.7951
23663SOL    HW172757   8.446   3.031   8.692  0.0714 -2.8103 -0.4565
23663SOL    HW272758   8.380   3.135   8.780  4.1285 -1.4893  1.3094
23664SOL     OW72759   1.573   6.960   3.664  0.3028  0.2736 -0.2032
23664SOL    HW172760   1.585   6.865   3.657 -0.1475  0.2572 -0.8360
23664SOL    HW272761   1.478   6.971   3.674  0.4380  0.6122  0.8252
23665SOL     OW72762   0.937   2.811   6.526 -0.1962  0.1066  0.2316
23665SOL    HW172763   0.887   2.730   6.521  0.3394 -0.2465  0.4510
23665SOL    HW272764   0.872   2.881   6.521 -0.5460 -0.2876 -1.8967
23666SOL     OW72765   1.718   5.485   8.973  0.2861 -0.3719 -0.6725
23666SOL    HW172766   1.766   5.440   9.042 -1.3546  1.7170  2.0635
23666SOL    HW272767   1.774   5.558   8.947  0.1840 -0.1335 -0.2295
23667SOL     OW72768   6.058   2.802   5.557  0.5361  0.5112 -0.5808
23667SOL    HW172769   6.040   2.801   5.463 -0.4171  1.6625 -0.4384
23667SOL    HW272770   6.072   2.710   5.580  2.9837  0.3727 -2.2105
23668SOL     OW72771   1.271   3.952   1.690 -0.4227  0.6376 -0.4436
23668SOL    HW172772   1.228   4.037   1.684 -0.3465  0.7675  0.6133
23668SOL    HW272773   1.215   3.901   1.748  0.1480  0.3577 -0.1351
23669SOL     OW72774   6.161   3.437   9.603 -0.1383  0.4761  0.6860
23669SOL    HW172775   6.096   3.503   9.629  1.3892  2.6090 -0.5915
23669SOL    HW272776   6.239   3.461   9.653  0.5110 -0.2436  0.0171
23670SOL     OW72777   6.440   0.239   2.059 -0.2055  0.2519  0.3931
23670SOL    HW172778   6.366   0.224   2.118 -1.0655 -2.1173 -1.1579
23670SOL    HW272779   6.400   0.245   1.972  1.2796  0.8433 -0.2767
23671SOL     OW72780   5.508   6.138   3.992  0.0866  0.1548 -0.0111
23671SOL    HW172781   5.584   6.173   3.945  2.4012 -4.3723 -0.1433
23671SOL    HW272782   5.443   6.122   3.924  0.3382  0.8829 -0.4302
23672SOL     OW72783   1.917   5.778   5.793 -0.0638 -0.5681 -0.1796
23672SOL    HW172784   1.937   5.822   5.875  0.4837 -2.8579  0.9917
23672SOL    HW272785   1.995   5.791   5.739 -0.2181  0.5011 -0.1706
23673SOL     OW72786   1.182   4.932   6.368  0.0410 -0.3429  0.3896
23673SOL    HW172787   1.179   5.027   6.369 -0.8614 -0.2895 -1.6177
23673SOL    HW272788   1.122   4.905   6.438 -0.5196  0.5791  0.2831
23674SOL     OW72789   8.075   8.676   6.081 -0.4533  0.0557 -0.2575
23674SOL    HW172790   8.122   8.760   6.083  0.3224 -0.3615 -0.7932
23674SOL    HW272791   8.115   8.625   6.151  0.2894 -0.4991 -1.0670
23675SOL     OW72792   8.038   3.573   7.219  0.4623 -0.1044  0.6240
23675SOL    HW172793   7.995   3.588   7.304 -0.0781  0.5884  0.2322
23675SOL    HW272794   8.131   3.586   7.237  0.8318 -3.4234  1.9248
23676SOL     OW72795   8.266   7.191   4.581 -0.3329 -0.0480  0.2312
23676SOL    HW172796   8.356   7.195   4.547 -1.2810  0.3048 -2.4441
23676SOL    HW272797   8.247   7.280   4.609  0.0133 -0.0256  0.3957
23677SOL     OW72798   3.530   6.335   7.198 -0.0703  0.1237 -0.1547
23677SOL    HW172799   3.604   6.374   7.245 -0.5431  0.4412  0.3298
23677SOL    HW272800   3.563   6.249   7.170  0.9622  0.8269 -1.1993
23678SOL     OW72801   4.111   1.777   7.417  0.1577  0.3807 -0.4747
23678SOL    HW172802   4.071   1.756   7.501 -0.3521 -1.6318 -1.1569
23678SOL    HW272803   4.199   1.809   7.440  0.1411 -0.4141  0.8213
23679SOL     OW72804   2.517   7.695   2.484  0.3247  0.2197  0.5054
23679SOL    HW172805   2.583   7.644   2.530  0.7327 -0.9289 -1.2544
23679SOL    HW272806   2.486   7.637   2.414 -1.0726  1.4688  0.0409
23680SOL     OW72807   7.101   6.250   5.518 -0.8556  0.1752 -0.4423
23680SOL    HW172808   7.160   6.253   5.442 -0.2343  0.1657  0.0326
23680SOL    HW272809   7.141   6.310   5.581 -1.1360 -0.1454  0.0428
23681SOL     OW72810   4.585   7.058   9.476 -0.0953  0.2837 -0.5370
23681SOL    HW172811   4.511   7.077   9.418 -0.2248  0.9462 -0.1623
23681SOL    HW272812   4.549   7.068   9.564  0.5928  1.2347 -0.3560
23682SOL     OW72813   0.586   6.597   4.471  0.0821  0.3007 -0.7680
23682SOL    HW172814   0.671   6.554   4.462 -0.4556 -0.6723 -1.3185
23682SOL    HW272815   0.603   6.688   4.446  1.1621  0.3625  0.0886
23683SOL     OW72816   8.404   7.314   5.348 -0.5243  0.2846 -0.4400
23683SOL    HW172817   8.321   7.361   5.340 -1.3130 -1.2294 -1.6264
23683SOL    HW272818   8.398   7.244   5.284  0.3211 -1.8546  1.6697
23684SOL     OW72819   6.237   7.603   1.842  0.3584  0.0164 -0.3108
23684SOL    HW172820   6.319   7.643   1.813 -0.3167  1.6229 -0.0884
23684SOL    HW272821   6.228   7.629   1.933 -1.1464  1.1976 -0.7581
23685SOL     OW72822   7.956   1.358   5.654  0.0667  0.0158 -0.3742
23685SOL    HW172823   7.940   1.330   5.744 -0.1748  0.8536 -0.1444
23685SOL    HW272824   8.045   1.394   5.656 -0.4879  1.4776 -0.0745
23686SOL     OW72825   3.175   3.891   4.193 -0.1742 -0.4342 -0.1644
23686SOL    HW172826   3.150   3.799   4.190 -0.4788 -0.5353  2.7763
23686SOL    HW272827   3.268   3.890   4.215 -0.2839 -0.0518  0.3366
23687SOL     OW72828   1.386   5.805   1.797  0.5437  0.9614 -0.9126
23687SOL    HW172829   1.329   5.761   1.734  0.6425  1.6726 -1.5139
23687SOL    HW272830   1.475   5.786   1.765  0.6927 -0.5349  0.2789
23688SOL     OW72831   7.985   8.715   3.319  0.1217  0.2374  0.3142
23688SOL    HW172832   7.995   8.807   3.297 -0.7213  0.0451 -0.9703
23688SOL    HW272833   8.010   8.668   3.240  0.3560 -0.6421  0.8895
23689SOL     OW72834   3.573   4.888   6.960  0.0033 -0.2574  0.0708
23689SOL    HW172835   3.620   4.812   6.997 -0.8928 -2.3237 -2.6988
23689SOL    HW272836   3.481   4.861   6.960 -0.2016  0.2723 -2.0716
23690SOL     OW72837   3.150   2.093   0.918 -0.7001  0.4760  0.1399
23690SOL    HW172838   3.162   2.164   0.981 -0.4058  2.7174 -2.2856
23690SOL    HW272839   3.233   2.089   0.870 -1.9051  0.9816 -2.1207
23691SOL     OW72840   4.671   8.425   5.482 -0.2835  0.0419  0.1919
23691SOL    HW172841   4.692   8.336   5.509 -0.9921 -0.3468 -0.4909
23691SOL    HW272842   4.606   8.414   5.412  0.3484  1.0635 -0.5792
23692SOL     OW72843   4.106   0.006   3.835  0.3961  0.3001  0.3558
23692SOL    HW172844   4.139   0.089   3.801  1.5869 -0.7275 -1.1408
23692SOL    HW272845   4.053  -0.029   3.763 -1.8096  0.6463  1.7095
23693SOL     OW72846   5.294   7.527   2.084 -0.1606 -0.3264  0.5645
23693SOL    HW172847   5.201   7.549   2.090  0.4398  2.4667  0.9369
23693SOL    HW272848   5.320   7.557   1.997  0.4856 -0.7214  0.6129
23694SOL     OW72849   1.013   0.181   2.261 -0.9743  0.1598 -0.8127
23694SOL    HW172850   0.956   0.229   2.321 -0.6499 -1.1970  0.6641
23694SOL    HW272851   1.086   0.240   2.244 -1.6936  1.0503 -0.9125
23695SOL     OW72852   7.386   4.899   3.536 -0.8545  0.0898  0.3144
23695SOL    HW172853   7.423   4.922   3.621 -1.2110  0.8704  0.2668
23695SOL    HW272854   7.337   4.977   3.509 -1.0915 -0.3001 -0.4138
23696SOL     OW72855   5.761   9.129   1.528  0.6306 -0.2342 -0.6117
23696SOL    HW172856   5.823   9.061   1.555  0.0988 -0.8416 -0.9083
23696SOL    HW272857   5.689   9.121   1.590  1.0509  0.7946  0.0379
23697SOL     OW72858   2.616   0.241   7.187  0.2841 -0.1990  0.0390
23697SOL    HW172859   2.622   0.216   7.095  0.4507  1.7335 -0.5239
23697SOL    HW272860   2.527   0.274   7.197  0.0763 -0.9381  0.7346
23698SOL     OW72861   8.405   3.323   9.211 -0.0043 -0.2312  0.6736
23698SOL    HW172862   8.387   3.233   9.184  1.0899 -0.5663  1.0284
23698SOL    HW272863   8.347   3.337   9.287  0.5849 -1.0154  1.2874
23699SOL     OW72864   1.399   1.409   6.436 -0.1533 -0.0687 -0.3514
23699SOL    HW172865   1.406   1.330   6.489  0.1792  0.6369  0.6749
23699SOL    HW272866   1.412   1.481   6.497  0.7711  0.7570 -1.4567
23700SOL     OW72867   8.131   5.362   4.036  0.2905  0.0087 -0.1987
23700SOL    HW172868   8.193   5.413   3.983 -0.0086 -1.4046 -1.9730
23700SOL    HW272869   8.173   5.277   4.047 -0.0790 -0.0344  1.0765
23701SOL     OW72870   3.397   3.346   2.632  0.8646 -0.1543  0.1164
23701SOL    HW172871   3.454   3.382   2.564  1.7789 -0.2002  0.8296
23701SOL    HW272872   3.403   3.410   2.703  2.8924 -1.8371  1.6004
23702SOL     OW72873   0.276   8.069   0.039  0.2862  0.5541 -0.0688
23702SOL    HW172874   0.218   8.141   0.063 -0.0199  0.4869 -0.5840
23702SOL    HW272875   0.317   8.042   0.121 -0.9652  0.1201  0.4338
23703SOL     OW72876   5.240   8.338   2.365  0.3586  0.1212  0.6032
23703SOL    HW172877   5.217   8.245   2.356  0.9404 -0.2206  2.3409
23703SOL    HW272878   5.185   8.382   2.301 -0.6006 -1.3254  0.3769
23704SOL     OW72879   1.030   5.872   4.023 -0.0780  0.4935 -0.0426
23704SOL    HW172880   0.938   5.894   4.037  0.2794  1.9307  0.2303
23704SOL    HW272881   1.078   5.945   4.062  1.2306 -0.9012  1.1288
23705SOL     OW72882   2.258   3.197   5.991  0.2918 -0.2394 -0.1690
23705SOL    HW172883   2.266   3.276   5.937  3.1344  0.6181  1.3175
23705SOL    HW272884   2.273   3.125   5.929 -0.2940  0.4779 -1.1861
23706SOL     OW72885   2.660   9.306   0.841 -0.0346  0.6804 -0.1229
23706SOL    HW172886   2.754   9.288   0.845 -0.2167 -1.1238 -2.2075
23706SOL    HW272887   2.642   9.321   0.748 -1.7558  1.5413  0.2995
23707SOL     OW72888   2.294   2.978   4.696  0.4062 -0.2832  0.0802
23707SOL    HW172889   2.219   3.032   4.672 -0.1087 -0.8963  0.2697
23707SOL    HW272890   2.366   3.009   4.640 -0.4633 -0.9375 -1.4520
23708SOL     OW72891   1.089   2.282   3.914  1.2344 -0.4465 -0.4996
23708SOL    HW172892   1.173   2.248   3.946 -0.3428 -3.0932  1.2293
23708SOL    HW272893   1.034   2.204   3.904 -1.2482  1.2505 -0.8828
23709SOL     OW72894   4.516   5.298   1.618 -0.0633 -0.1682 -0.5472
23709SOL    HW172895   4.480   5.218   1.580  0.8915 -1.1382  0.5418
23709SOL    HW272896   4.579   5.329   1.553  0.5858 -1.0728 -0.3552
23710SOL     OW72897   7.682   9.442   8.055  0.4355  0.1240  0.0959
23710SOL    HW172898   7.628   9.452   8.133  1.5925 -1.8526  1.2313
23710SOL    HW272899   7.767   9.479   8.080  0.5931  0.1936 -0.5198
23711SOL     OW72900   8.350   0.267   5.798 -0.6533 -0.1472 -0.4005
23711SOL    HW172901   8.413   0.196   5.801  2.2614  2.2315 -0.7587
23711SOL    HW272902   8.348   0.301   5.887 -1.8893 -0.5194 -0.2687
23712SOL     OW72903   5.152   5.952   6.941  0.0217  0.3430 -0.2141
23712SOL    HW172904   5.095   5.876   6.928 -1.5643  1.2382  1.1008
23712SOL    HW272905   5.116   6.020   6.884  0.5394  0.5555 -0.2959
23713SOL     OW72906   5.874   5.262   6.568  0.5577  0.4452  0.3622
23713SOL    HW172907   5.846   5.184   6.520 -0.4758  0.7851  0.3982
23713SOL    HW272908   5.814   5.331   6.539  1.2784  1.1668  0.5434
23714SOL     OW72909   3.870   1.492   8.461  0.0186  0.1336  0.3162
23714SOL    HW172910   3.788   1.452   8.430 -0.1482  1.0094 -0.4140
23714SOL    HW272911   3.847   1.531   8.545 -0.1302 -0.2257  0.4463
23715SOL     OW72912   5.141   7.206   5.222  0.1124  0.1755 -0.0151
23715SOL    HW172913   5.229   7.237   5.198  0.5370 -0.8423  0.1919
23715SOL    HW272914   5.129   7.126   5.171 -1.5977  1.4148 -1.7257
23716SOL     OW72915   8.337   3.497   8.665  0.3681  0.1858  0.2686
23716SOL    HW172916   8.381   3.448   8.735 -0.0558 -0.7440 -0.0977
23716SOL    HW272917   8.399   3.494   8.592  0.6887  0.9107  0.5057
23717SOL     OW72918   3.992   1.826   6.946 -0.4636 -0.2243  0.0093
23717SOL    HW172919   4.043   1.794   7.020  0.6356  0.4330 -0.4479
23717SOL    HW272920   3.962   1.912   6.973 -0.4635 -0.1798 -0.1316
23718SOL     OW72921   0.808   0.448   1.763  0.4970 -0.1618  0.2514
23718SOL    HW172922   0.798   0.543   1.774 -2.7520 -0.4852  1.2755
23718SOL    HW272923   0.860   0.421   1.839  0.4761  0.6658  0.5735
23719SOL     OW72924   1.605   2.242   6.309  0.3266  0.0589 -0.4241
23719SOL    HW172925   1.565   2.297   6.242 -0.0287  0.1872 -0.1096
23719SOL    HW272926   1.538   2.175   6.328 -0.5630  1.4134  1.5088
23720SOL     OW72927   4.810   4.074   9.258  0.4818  0.3287  0.5495
23720SOL    HW172928   4.771   3.995   9.220  0.5882  0.6274 -0.1813
23720SOL    HW272929   4.874   4.040   9.322 -1.8941 -0.1955  2.8305
23721SOL     OW72930   1.032   6.088   3.461  0.6410  0.5001  0.1623
23721SOL    HW172931   1.048   5.998   3.431 -2.4015 -0.0817 -0.0535
23721SOL    HW272932   0.943   6.086   3.496  0.1403  3.6193 -0.6375
23722SOL     OW72933   1.749   4.845   7.836  0.3050  0.2994  0.6455
23722SOL    HW172934   1.727   4.792   7.759  0.4996 -1.0471  1.4948
23722SOL    HW272935   1.749   4.783   7.909  0.3764  1.5074  1.7020
23723SOL     OW72936   5.316   2.533   2.436 -0.2659  0.2448  0.1137
23723SOL    HW172937   5.301   2.440   2.424  4.4475 -0.5810 -1.0650
23723SOL    HW272938   5.240   2.575   2.395 -2.0405 -2.9964 -0.1946
23724SOL     OW72939   6.415   6.668   2.063  0.2295  0.0289 -0.0336
23724SOL    HW172940   6.396   6.759   2.039 -1.8684 -0.0477  1.1374
23724SOL    HW272941   6.446   6.673   2.153 -0.9179 -0.4943  0.3994
23725SOL     OW72942   0.480   3.653   7.225 -0.5960 -0.4699  0.4388
23725SOL    HW172943   0.413   3.595   7.262 -0.8874 -0.2931  0.1879
23725SOL    HW272944   0.475   3.640   7.131 -0.8154  0.1289  0.3644
23726SOL     OW72945   6.082   1.402   4.099 -0.1931  0.5555 -0.1376
23726SOL    HW172946   6.176   1.383   4.103 -0.3024  0.1057  2.4738
23726SOL    HW272947   6.056   1.412   4.191 -2.6899  0.7526 -0.7901
23727SOL     OW72948   3.454   5.925   7.095 -0.1023  0.0247  0.2849
23727SOL    HW172949   3.470   5.906   7.187 -2.5158 -1.3451  0.5097
23727SOL    HW272950   3.468   5.842   7.050  1.3155  0.7407 -0.6796
23728SOL     OW72951   5.586   2.336   2.919  0.3178  0.2502  0.6354
23728SOL    HW172952   5.513   2.290   2.960 -0.8035  1.0127 -0.4154
23728SOL    HW272953   5.663   2.282   2.938 -0.5358 -0.6649  1.6183
23729SOL     OW72954   7.495   1.950   0.201  0.2099  0.5282 -0.0295
23729SOL    HW172955   7.508   1.861   0.233 -1.1889  0.0892 -0.5827
23729SOL    HW272956   7.535   2.006   0.267  1.3650 -0.5127  0.1818
23730SOL     OW72957   8.359   1.587   3.338  0.1204  0.0408 -0.3509
23730SOL    HW172958   8.282   1.553   3.383  1.2364 -0.7419  1.0594
23730SOL    HW272959   8.345   1.566   3.246 -1.9327  1.1012 -0.3297
23731SOL     OW72960   2.551   6.311   2.944  0.6852  1.0565 -0.2659
23731SOL    HW172961   2.631   6.331   2.994  3.5242 -3.1638 -2.4740
23731SOL    HW272962   2.515   6.234   2.988  0.3746  0.3203 -1.7596
23732SOL     OW72963   1.474   0.786   5.014  0.5535 -0.6226 -0.4578
23732SOL    HW172964   1.501   0.695   5.024 -1.9778 -1.4549 -0.4900
23732SOL    HW272965   1.428   0.807   5.094 -1.3493 -0.3402 -1.5738
23733SOL     OW72966   6.133   4.113   7.604  0.0289 -0.1000 -0.7512
23733SOL    HW172967   6.112   4.146   7.692 -3.3954 -1.2906 -0.9664
23733SOL    HW272968   6.085   4.170   7.545  0.0057 -1.0202 -1.6435
23734SOL     OW72969   1.776   2.306   3.982 -0.2444  0.1640 -0.1069
23734SOL    HW172970   1.765   2.338   4.072  0.7029 -0.7570  0.3567
23734SOL    HW272971   1.846   2.242   3.988 -1.5873 -1.4930 -1.1139
23735SOL     OW72972   9.611   3.764   8.964 -0.2332  0.0186  0.0256
23735SOL    HW172973   9.554   3.737   9.036 -1.7561 -0.4261 -1.3099
23735SOL    HW272974   9.571   3.844   8.930  0.6967  0.4481 -0.1043
23736SOL     OW72975   7.861   9.693   7.494 -0.9933 -0.6319 -0.5758
23736SOL    HW172976   7.932   9.730   7.547 -1.0822  0.1533 -0.9857
23736SOL    HW272977   7.875   9.599   7.498  0.1418 -0.4901 -0.7246
23737SOL     OW72978   3.305   7.543   0.705  0.0954  0.0999  0.7690
23737SOL    HW172979   3.372   7.475   0.701  0.5916  0.5340  1.4069
23737SOL    HW272980   3.271   7.538   0.794 -0.2407  0.3298  0.6547
23738SOL     OW72981   8.309   8.146   5.289  0.4508 -0.3690  0.2315
23738SOL    HW172982   8.239   8.209   5.308  0.5060 -0.7439  1.7888
23738SOL    HW272983   8.290   8.071   5.345  1.2433 -1.1211 -0.4774
23739SOL     OW72984   2.699   8.205   7.505  0.7911 -0.3573 -0.3071
23739SOL    HW172985   2.712   8.289   7.548  0.5162  0.6175 -2.0664
23739SOL    HW272986   2.677   8.226   7.415 -1.1210 -2.2592 -0.3811
23740SOL     OW72987   9.548   1.444   4.082  0.3325  0.4072 -0.2989
23740SOL    HW172988   9.471   1.490   4.049  0.7203  0.4324 -1.2201
23740SOL    HW272989   9.534   1.436   4.176 -0.6312  0.7070 -0.4128
23741SOL     OW72990   3.832   4.773   8.515 -0.2040  0.7250 -0.2434
23741SOL    HW172991   3.898   4.753   8.581 -1.1442 -0.5679  0.3589
23741SOL    HW272992   3.838   4.867   8.502  0.6608  0.8610  0.9745
23742SOL     OW72993   6.317   9.317   9.360  0.1664  0.4692 -0.3110
23742SOL    HW172994   6.319   9.225   9.389  0.5140  0.7375  0.5219
23742SOL    HW272995   6.224   9.339   9.358  0.1045  0.2307 -0.0881
23743SOL     OW72996   8.553   7.088   8.867 -0.0739  0.0853  0.5639
23743SOL    HW172997   8.649   7.082   8.864 -0.0052  1.0450 -1.8800
23743SOL    HW272998   8.523   7.006   8.826 -0.1506  0.9973 -1.3154
23744SOL     OW72999   6.473   5.453   1.105  0.3613 -0.1327 -0.3054
23744SOL    HW173000   6.513   5.540   1.102 -1.0665  0.5558  0.1473
23744SOL    HW273001   6.391   5.463   1.057  0.5694 -1.4574 -0.9723
23745SOL     OW73002   5.895   2.560   2.900 -0.8460  0.2288  0.7373
23745SOL    HW173003   5.862   2.566   2.990 -0.5186 -2.0397  1.0608
23745SOL    HW273004   5.865   2.474   2.869  0.6796  0.1537 -0.6420
23746SOL     OW73005   3.289   3.489   9.782 -0.2406  0.0438  0.3582
23746SOL    HW173006   3.302   3.584   9.778 -0.8127  0.1037 -0.2648
23746SOL    HW273007   3.327   3.456   9.701 -0.9465 -0.1381  0.0909
23747SOL     OW73008   6.163   8.915   9.693  0.2683  0.5858  0.3225
23747SOL    HW173009   6.095   8.878   9.749  0.5114  0.4109  0.5067
23747SOL    HW273010   6.238   8.856   9.705  1.1016  1.8695  1.6357
23748SOL     OW73011   6.465   1.271   6.241  0.7540 -0.1586 -0.3964
23748SOL    HW173012   6.482   1.180   6.217 -1.0565 -0.3566 -1.1102
23748SOL    HW273013   6.485   1.321   6.162 -1.2968 -0.3508 -1.1102
23749SOL     OW73014   8.485   0.572   5.993  0.0667  0.3398  0.2821
23749SOL    HW173015   8.444   0.497   6.037  1.3208 -1.6356 -1.7150
23749SOL    HW273016   8.564   0.536   5.953  1.0089  2.8828 -0.3352
23750SOL     OW73017   3.138   4.700   1.400 -0.1081 -0.1900 -0.2915
23750SOL    HW173018   3.133   4.662   1.313 -0.1001 -0.4437 -0.1823
23750SOL    HW273019   3.229   4.730   1.408 -0.8396  2.6887 -1.5508
23751SOL     OW73020   6.640   3.639   3.712 -0.2176 -0.2928  0.3322
23751SOL    HW173021   6.618   3.547   3.696  0.1934 -0.3518  0.1043
23751SOL    HW273022   6.568   3.671   3.766  0.2103 -1.0465  1.3906
23752SOL     OW73023   8.539   0.544   6.358 -0.1114 -0.1383  0.1403
23752SOL    HW173024   8.459   0.575   6.316  0.1570 -0.8897 -0.9781
23752SOL    HW273025   8.521   0.549   6.451 -0.9588  0.9922 -0.0596
23753SOL     OW73026   1.576   3.978   3.170 -0.3531  0.1364  0.3762
23753SOL    HW173027   1.509   4.046   3.175 -0.7915 -0.3244  0.8367
23753SOL    HW273028   1.527   3.896   3.169  0.1676 -0.1739 -0.3534
23754SOL     OW73029   8.555   5.370   1.081  0.7541  0.0750 -0.1135
23754SOL    HW173030   8.616   5.367   1.155  0.8910  0.1726 -0.2208
23754SOL    HW273031   8.476   5.409   1.117  0.6549 -0.3118  0.0957
23755SOL     OW73032   4.220   7.109   5.405  1.1807 -0.0126  0.0110
23755SOL    HW173033   4.178   7.105   5.319  1.2401  1.6320 -0.1255
23755SOL    HW273034   4.213   7.201   5.431  1.7642 -0.3519  1.4700
23756SOL     OW73035   0.636   7.193   4.824 -0.3112  0.1620 -0.6231
23756SOL    HW173036   0.601   7.280   4.807 -2.4914 -0.4366  0.4763
23756SOL    HW273037   0.604   7.139   4.752  0.3395  0.0871 -0.8617
23757SOL     OW73038   1.919   6.648   1.656 -0.0044  0.1002  0.4467
23757SOL    HW173039   1.966   6.600   1.588  0.3713 -2.2917  2.2765
23757SOL    HW273040   1.842   6.595   1.674  0.0035  0.5775  1.9994
23758SOL     OW73041   6.421   3.493   1.123 -0.1910 -0.1007 -0.6564
23758SOL    HW173042   6.473   3.436   1.067  2.1621  0.4667  0.8074
23758SOL    HW273043   6.443   3.582   1.094 -1.1959  0.1443 -0.7030
23759SOL     OW73044   2.084   1.737   4.698 -0.0749 -0.0915 -0.3667
23759SOL    HW173045   2.140   1.811   4.722  0.8831 -0.6381 -0.8277
23759SOL    HW273046   2.141   1.660   4.710 -1.1587 -0.7957  0.4629
23760SOL     OW73047   8.015   0.182   3.123 -0.1069 -0.3771 -0.2051
23760SOL    HW173048   8.057   0.168   3.208  0.5561  0.7474 -0.3291
23760SOL    HW273049   7.958   0.106   3.112  0.4549 -0.9786  0.8452
23761SOL     OW73050   5.507   1.437   1.123  0.1101  0.4971 -0.4263
23761SOL    HW173051   5.450   1.394   1.187 -0.7308  1.4413 -0.5156
23761SOL    HW273052   5.585   1.460   1.174 -0.2335  0.5718  0.0802
23762SOL     OW73053   4.321   7.868   5.112  0.3291  0.2422  0.0832
23762SOL    HW173054   4.399   7.828   5.074  0.0356  0.4456 -0.7697
23762SOL    HW273055   4.355   7.931   5.176  0.8809  0.5290 -0.4744
23763SOL     OW73056   7.627   8.992   8.857  0.1041 -0.4108  0.2367
23763SOL    HW173057   7.544   9.022   8.820 -0.3056 -1.5674  0.1767
23763SOL    HW273058   7.669   9.072   8.888 -1.5561  0.1023  1.3477
23764SOL     OW73059   4.517   0.595   3.034  0.2879 -0.5842 -0.3236
23764SOL    HW173060   4.590   0.548   3.075 -1.0470 -1.2215  1.4693
23764SOL    HW273061   4.445   0.532   3.035 -0.5397  0.3052 -1.2682
23765SOL     OW73062   9.069   4.103   3.527  0.1458  0.3966 -0.3322
23765SOL    HW173063   9.164   4.112   3.524  0.3173 -0.3479  1.3834
23765SOL    HW273064   9.054   4.008   3.531 -0.4283  0.5044  2.7309
23766SOL     OW73065   4.147   1.849   5.320  0.3211 -0.2571 -0.2612
23766SOL    HW173066   4.240   1.830   5.322  0.7938  1.7029 -1.0516
23766SOL    HW273067   4.137   1.928   5.375 -0.8301 -0.2974 -0.3759
23767SOL     OW73068   0.687   5.767   3.015 -0.4474 -1.1590 -0.7816
23767SOL    HW173069   0.634   5.764   3.095  2.4746  0.2115  1.4086
23767SOL    HW273070   0.706   5.676   2.995 -0.7712 -1.5188  0.4618
23768SOL     OW73071   7.121   4.370   1.007  0.0720  0.4366  0.0268
23768SOL    HW173072   7.080   4.455   0.991 -0.5662 -0.0006 -0.7651
23768SOL    HW273073   7.058   4.322   1.061  0.7920  0.7445  1.1734
23769SOL     OW73074   8.260   1.604   7.640  0.4661 -0.0780 -0.4028
23769SOL    HW173075   8.260   1.616   7.545  0.7568 -0.1386 -0.4118
23769SOL    HW273076   8.168   1.592   7.663  0.3395  0.4418 -0.6122
23770SOL     OW73077   0.504   2.600   4.888  0.4577  0.0453 -0.2785
23770SOL    HW173078   0.534   2.690   4.871  1.9343 -0.7711 -2.5653
23770SOL    HW273079   0.578   2.545   4.861 -0.4731 -1.8857  0.9002
23771SOL     OW73080   0.128   3.331   8.965  0.6617 -0.4439 -0.1808
23771SOL    HW173081   0.200   3.391   8.946  0.2138  0.1558 -0.0195
23771SOL    HW273082   0.169   3.258   9.009  1.2916 -0.4916 -0.8228
23772SOL     OW73083   2.574   7.401   1.250  0.2445 -0.3940  0.4804
23772SOL    HW173084   2.632   7.380   1.323 -0.4682  1.2640  1.5946
23772SOL    HW273085   2.596   7.338   1.181  0.8346 -2.1076  2.1753
23773SOL     OW73086   2.782   4.535   1.893  0.8484 -0.0636  0.1548
23773SOL    HW173087   2.717   4.513   1.960  0.3002 -1.9656 -0.9499
23773SOL    HW273088   2.736   4.595   1.834  0.2099 -1.0847 -0.3980
23774SOL     OW73089   4.361   7.746   5.972 -0.6932  0.3479 -0.0784
23774SOL    HW173090   4.337   7.830   6.010 -2.3384 -0.5522  0.9807
23774SOL    HW273091   4.311   7.681   6.021  0.8989 -1.3259 -0.5311
23775SOL     OW73092   8.708   3.962   9.633  0.0061  0.1865  0.0156
23775SOL    HW173093   8.707   3.873   9.599  0.5967 -0.3069  1.2289
23775SOL    HW273094   8.786   4.002   9.595 -0.1322  0.1141 -0.3462
23776SOL     OW73095   5.134   3.635   1.400 -0.2492 -0.0621 -0.2250
23776SOL    HW173096   5.189   3.628   1.322  1.2007 -0.7807  0.8218
23776SOL    HW273097   5.189   3.678   1.465 -1.1194 -0.2652  0.6806
23777SOL     OW73098   2.815   8.374   5.389 -0.2230  0.1292 -0.4765
23777SOL    HW173099   2.842   8.458   5.426  1.3472  0.0330 -1.3025
23777SOL    HW273100   2.731   8.391   5.349  0.2606  1.4301 -0.9866
23778SOL     OW73101   7.402   1.170   4.815  0.1503 -0.3215  0.2067
23778SOL    HW173102   7.342   1.142   4.747  0.4238 -1.3595  0.3829
23778SOL    HW273103   7.355   1.239   4.862  0.4873  1.4290 -1.8788
23779SOL     OW73104   9.746   5.163   0.746 -0.1759  0.6801 -0.4829
23779SOL    HW173105   9.741   5.108   0.824  1.4653  1.2546  0.0747
23779SOL    HW273106   9.721   5.105   0.674 -1.6702  0.1247  0.4347
23780SOL     OW73107   7.951   0.186   8.389 -0.2661 -0.0660 -0.5174
23780SOL    HW173108   7.992   0.271   8.371  1.9506 -0.9724 -0.1105
23780SOL    HW273109   7.908   0.162   8.307  0.6378  0.6568 -1.2367
23781SOL     OW73110   5.943   8.519   6.134 -0.0933  0.0969 -0.3040
23781SOL    HW173111   5.999   8.595   6.152 -0.4230  0.6318 -1.4260
23781SOL    HW273112   5.879   8.551   6.070 -1.2531 -0.6966  0.4255
23782SOL     OW73113   8.325   2.045   1.832  0.8297  0.4341  0.3338
23782SOL    HW173114   8.275   1.966   1.813  1.2066  0.2953 -0.1065
23782SOL    HW273115   8.306   2.065   1.924  1.6278 -0.8337  0.8039
23783SOL     OW73116   0.224   2.387   9.103  0.2910 -0.7101 -0.4387
23783SOL    HW173117   0.131   2.368   9.101  0.5154 -2.0273  0.0901
23783SOL    HW273118   0.236   2.459   9.042 -1.3555  0.9056  1.0212
23784SOL     OW73119   8.049   1.779   5.446  0.6643 -0.4773  0.6393
23784SOL    HW173120   8.128   1.826   5.421 -0.9957  1.1876 -1.8359
23784SOL    HW273121   8.066   1.750   5.536  2.7370  2.7617  1.4409
23785SOL     OW73122   3.228   5.998   8.546  0.0483 -0.4596  0.6993
23785SOL    HW173123   3.276   5.978   8.465  1.6637  0.0716  1.4833
23785SOL    HW273124   3.265   6.081   8.575 -2.0882  0.5243  0.8386
23786SOL     OW73125   9.748   9.075   3.754  0.2850  0.3868 -0.2845
23786SOL    HW173126   9.699   9.069   3.672 -2.0558 -2.3410  1.1284
23786SOL    HW273127   9.811   9.003   3.749  0.0400  0.1229  0.3324
23787SOL     OW73128   7.078   5.870   6.889  0.6399  0.0448  0.1322
23787SOL    HW173129   7.112   5.902   6.972 -2.1105 -0.7080  1.6558
23787SOL    HW273130   7.011   5.806   6.913  1.3204 -1.9353 -2.7083
23788SOL     OW73131   1.610   6.440   8.922  0.9609  0.2639 -0.3343
23788SOL    HW173132   1.556   6.363   8.902  1.8263 -0.1522 -1.1822
23788SOL    HW273133   1.578   6.508   8.862  0.9409  0.2158 -0.3790
23789SOL     OW73134   5.199   2.406   0.582  0.2033  0.1539 -0.1743
23789SOL    HW173135   5.272   2.418   0.522  0.1183 -0.4605 -0.4051
23789SOL    HW273136   5.234   2.432   0.668  0.9819 -1.0011 -0.1191
23790SOL     OW73137   4.314   7.587   1.011 -0.2604 -0.2922 -0.1016
23790SOL    HW173138   4.363   7.578   1.093 -1.9969 -1.7994  0.8731
23790SOL    HW273139   4.267   7.504   1.002  0.3884 -0.4498 -3.0305
23791SOL     OW73140   0.864   3.238   3.303 -0.2703 -0.2915 -0.1994
23791SOL    HW173141   0.950   3.241   3.261  0.1920  0.7380  0.7488
23791SOL    HW273142   0.863   3.153   3.348  0.9126  0.3169  1.0490
23792SOL     OW73143   3.663   7.419   7.681  0.0373  0.5409 -0.1412
23792SOL    HW173144   3.626   7.466   7.755 -0.8442 -0.2802 -0.0418
23792SOL    HW273145   3.758   7.423   7.694 -0.0910  0.9275  0.6964
23793SOL     OW73146   0.828   4.268   6.686  0.0495  0.9869  0.4221
23793SOL    HW173147   0.856   4.177   6.703 -0.9451  0.8030  1.1505
23793SOL    HW273148   0.813   4.305   6.773 -1.5447  1.2057  0.0759
23794SOL     OW73149   3.286   0.975   6.362  0.7842 -0.2768 -0.7558
23794SOL    HW173150   3.314   0.995   6.273 -0.5537 -2.1848 -1.6607
23794SOL    HW273151   3.316   0.886   6.377 -0.3041 -0.5054  0.1654
23795SOL     OW73152   0.945   1.756   2.138  0.5748 -0.1209  0.5630
23795SOL    HW173153   1.015   1.725   2.082  0.2925  0.8608 -0.3509
23795SOL    HW273154   0.903   1.826   2.089 -1.5818 -1.2145  0.7014
23796SOL     OW73155   9.058   5.364   3.033  0.0731  0.4237  0.3467
23796SOL    HW173156   9.000   5.390   2.961 -1.7398 -0.0918  1.5574
23796SOL    HW273157   9.026   5.413   3.109  2.2606  1.3537  0.7645
23797SOL     OW73158   1.281   9.623   1.793  0.9938 -0.2162 -0.3720
23797SOL    HW173159   1.262   9.531   1.776  0.5759 -0.1042 -0.5013
23797SOL    HW273160   1.317   9.624   1.882  0.6889 -0.4639 -0.2454
23798SOL     OW73161   1.505   7.846   9.485 -0.1324  0.2118  0.1473
23798SOL    HW173162   1.516   7.831   9.579 -0.0199  2.5553  0.5661
23798SOL    HW273163   1.546   7.769   9.444  2.6228  0.5514  1.9736
23799SOL     OW73164   6.572   7.268   6.867  0.5626 -0.2774 -0.1124
23799SOL    HW173165   6.627   7.198   6.833  0.7258 -0.4522  0.4901
23799SOL    HW273166   6.582   7.262   6.962 -1.2707 -0.9689  0.0713
23800SOL     OW73167   2.867   3.892   4.161 -0.7237  0.1943  0.2165
23800SOL    HW173168   2.811   3.966   4.184  0.1954  0.6657  1.0168
23800SOL    HW273169   2.807   3.818   4.154 -1.4673  0.7072  0.9347
23801SOL     OW73170   3.600   6.763   3.022 -0.4387  0.2121 -0.4841
23801SOL    HW173171   3.604   6.737   2.930  0.3429  3.1949 -1.3749
23801SOL    HW273172   3.576   6.855   3.020  0.9639  0.7341  2.2535
23802SOL     OW73173   5.679   8.878   7.707 -0.2911 -0.4395  0.0488
23802SOL    HW173174   5.709   8.947   7.648  2.8761  0.8824  2.8956
23802SOL    HW273175   5.751   8.815   7.709 -0.2500 -0.4116  2.4488
23803SOL     OW73176   2.495   0.117   0.437  0.0960  0.1826  0.0637
23803SOL    HW173177   2.412   0.136   0.479 -0.5446 -1.8899 -0.1545
23803SOL    HW273178   2.518   0.198   0.391 -1.8100  0.7832  0.0839
23804SOL     OW73179   5.606   4.002   8.792  0.0742 -0.4366  0.1916
23804SOL    HW173180   5.675   3.965   8.737 -1.6339 -0.9273 -1.7526
23804SOL    HW273181   5.612   4.097   8.777 -1.2166 -0.6557 -1.9789
23805SOL     OW73182   6.605   7.625   9.732 -1.0619 -0.3985 -0.1178
23805SOL    HW173183   6.558   7.668   9.660  0.2635 -0.4405 -1.0314
23805SOL    HW273184   6.660   7.560   9.690 -0.3414 -0.5042  0.9511
23806SOL     OW73185   3.912   1.748   0.870 -0.5353  0.3279 -0.2570
23806SOL    HW173186   3.927   1.654   0.881 -0.0433  0.3275 -0.8532
23806SOL    HW273187   3.892   1.780   0.958 -1.6943 -0.5033 -0.1920
23807SOL     OW73188   8.392   5.270   7.006  0.6665 -0.0697  0.1525
23807SOL    HW173189   8.412   5.278   7.099  0.4017 -0.0259  0.2070
23807SOL    HW273190   8.403   5.358   6.971  0.7302 -0.0786  0.1493
23808SOL     OW73191   0.921   8.651   1.937 -0.0420  0.1919  0.9765
23808SOL    HW173192   0.988   8.718   1.927 -0.2465  0.2270 -0.4366
23808SOL    HW273193   0.967   8.575   1.973  0.7053  0.3257  0.3379
23809SOL     OW73194   4.397   7.003   5.819 -0.1517 -0.3684  0.7380
23809SOL    HW173195   4.362   6.924   5.777  1.2484 -0.8191  0.3321
23809SOL    HW273196   4.431   6.971   5.904  1.4365 -0.4757  0.1025
23810SOL     OW73197   4.715   1.189   6.361  0.3119 -0.3559  0.1769
23810SOL    HW173198   4.654   1.226   6.298  0.2090  2.8440  1.9121
23810SOL    HW273199   4.668   1.191   6.444  2.1499  0.6526  1.2748
23811SOL     OW73200   8.894   4.067   1.534  0.3570 -0.1879  0.0922
23811SOL    HW173201   8.887   4.059   1.630 -1.7285  0.3790  0.0389
23811SOL    HW273202   8.867   4.157   1.516 -1.5610 -0.9400 -1.1585
23812SOL     OW73203   6.489   8.452   9.684  0.7163  0.1563 -0.3453
23812SOL    HW173204   6.577   8.468   9.718  0.2892  1.6763  0.1110
23812SOL    HW273205   6.446   8.400   9.752  0.9271  0.3363 -0.0710
23813SOL     OW73206   9.392   9.037   6.255 -0.0330  0.3523 -0.0740
23813SOL    HW173207   9.403   9.104   6.322  1.8910  2.8462 -2.6545
23813SOL    HW273208   9.474   9.040   6.205 -0.7609 -2.4612 -1.6429
23814SOL     OW73209   6.854   7.106   1.469 -0.1122  0.1364 -0.1641
23814SOL    HW173210   6.803   7.178   1.433 -1.1943  0.5097  1.9987
23814SOL    HW273211   6.887   7.138   1.552  0.0570 -1.5933  0.4808
23815SOL     OW73212   8.324   7.247   8.737 -0.1885  0.1300 -0.2579
23815SOL    HW173213   8.410   7.284   8.716 -0.1019 -1.2910 -2.8452
23815SOL    HW273214   8.342   7.181   8.804  0.6074  0.3963 -0.1911
23816SOL     OW73215   7.659   3.103   2.546  0.0584  0.1121 -0.2133
23816SOL    HW173216   7.712   3.071   2.619 -1.8967 -0.2554  1.1193
23816SOL    HW273217   7.605   3.028   2.521 -0.0335  0.5451 -1.3774
23817SOL     OW73218   4.674   0.318   0.558 -0.1091  0.1763  0.0619
23817SOL    HW173219   4.733   0.353   0.492  0.5548  1.3499  1.2210
23817SOL    HW273220   4.693   0.225   0.562  0.2847  0.2128 -0.9387
23818SOL     OW73221   5.789   1.405   0.938  0.0479 -0.5773 -0.0940
23818SOL    HW173222   5.801   1.488   0.891  0.3376 -0.0502  0.8606
23818SOL    HW273223   5.695   1.398   0.951  0.0466 -0.1951  0.1419
23819SOL     OW73224   8.216   5.591   7.075 -0.3538  0.4975 -0.3977
23819SOL    HW173225   8.151   5.598   7.005  0.5099  0.9510 -1.1829
23819SOL    HW273226   8.220   5.679   7.112 -1.9134 -0.0784  1.2903
23820SOL     OW73227   9.746   4.863   0.244  0.1583 -0.0184 -0.2319
23820SOL    HW173228   9.834   4.826   0.252 -0.2031 -1.0480 -0.7602
23820SOL    HW273229   9.691   4.804   0.296 -0.1540  0.9026  0.5065
23821SOL     OW73230   7.205   2.320   6.516  0.3295  0.5341  0.7327
23821SOL    HW173231   7.141   2.356   6.577  0.5151  2.0423  0.0839
23821SOL    HW273232   7.215   2.387   6.449  0.2395 -0.9982 -0.9044
23822SOL     OW73233   1.752   6.875   0.471 -0.1280  0.1746 -0.7641
23822SOL    HW173234   1.813   6.909   0.537 -0.1207  1.2209 -1.2941
23822SOL    HW273235   1.674   6.929   0.480 -1.8323 -2.3404  1.2261
23823SOL     OW73236   6.392   7.016   4.065 -0.3758  0.3770  0.2415
23823SOL    HW173237   6.393   7.100   4.019  1.1277  0.7479  0.9029
23823SOL    HW273238   6.478   7.010   4.106 -1.2909 -0.4037  2.1749
23824SOL     OW73239   0.382   6.150   5.364 -0.9331  0.1190  0.5268
23824SOL    HW173240   0.408   6.189   5.447 -0.6818  0.7213  0.1759
23824SOL    HW273241   0.459   6.101   5.335 -0.3376  1.4580 -0.2504
23825SOL     OW73242   3.298   1.953   1.616  0.4928 -0.3096 -0.2154
23825SOL    HW173243   3.208   1.981   1.601  1.0050  2.5717  1.3194
23825SOL    HW273244   3.337   1.950   1.528 -0.5755  0.5464 -0.7452
23826SOL     OW73245   9.812   8.812   0.557  1.1395  0.3370  0.1900
23826SOL    HW173246   9.843   8.901   0.538 -0.3361  0.7168 -0.6059
23826SOL    HW273247   9.809   8.808   0.652 -1.0530  2.0337  0.2802
23827SOL     OW73248   9.601   0.097   7.094 -0.3061  0.3798 -0.0442
23827SOL    HW173249   9.666   0.090   7.024 -0.5982  2.6347 -0.6013
23827SOL    HW273250   9.639   0.160   7.155  0.1849 -1.9061  2.1959
23828SOL     OW73251   7.702   5.049   9.341  0.8757  0.0684  0.1596
23828SOL    HW173252   7.754   5.086   9.413  2.5542 -0.0958 -0.8983
23828SOL    HW273253   7.726   5.102   9.265 -1.3443  0.6392 -0.1958
23829SOL     OW73254   3.126   7.318   9.311  0.1984  0.0067 -0.0212
23829SOL    HW173255   3.199   7.321   9.249 -0.5084 -1.3926 -0.9558
23829SOL    HW273256   3.079   7.238   9.290  0.2113 -0.7983  2.6838
23830SOL     OW73257   5.513   1.280   8.394 -0.1901 -0.4484  0.1407
23830SOL    HW173258   5.597   1.263   8.436  0.5929  1.4407 -0.5303
23830SOL    HW273259   5.513   1.226   8.316  0.1888 -0.8146  0.3925
23831SOL     OW73260   1.137   6.453   3.783  0.0016  0.4559  0.2244
23831SOL    HW173261   1.177   6.416   3.705 -0.1332  1.5858 -0.4063
23831SOL    HW273262   1.043   6.439   3.771  0.1012 -2.0426  1.6239
23832SOL     OW73263   6.243   7.602   5.687  0.5378  0.1075 -0.0010
23832SOL    HW173264   6.292   7.611   5.605  1.0309 -1.0442  0.1510
23832SOL    HW273265   6.151   7.610   5.661  0.6583 -0.8549 -0.7606
23833SOL     OW73266   1.839   6.276   3.455  0.1062 -0.1125  0.3105
23833SOL    HW173267   1.829   6.230   3.372 -2.0843  0.7725  0.0027
23833SOL    HW273268   1.931   6.264   3.478  0.8899 -0.1224 -2.4017
23834SOL     OW73269   8.047   4.822   8.524 -0.0550 -0.1977 -0.5177
23834SOL    HW173270   8.080   4.747   8.474  0.9930  0.7012 -1.2234
23834SOL    HW273271   8.009   4.880   8.458 -1.9704 -0.6088  0.1515
23835SOL     OW73272   7.982   6.606   5.687  0.1346  0.0258  0.0093
23835SOL    HW173273   8.030   6.616   5.605 -0.4709  0.1771 -0.3265
23835SOL    HW273274   7.919   6.536   5.670 -0.0143  0.0779  0.3394
23836SOL     OW73275   9.341   1.829   7.010  0.7586 -0.5541 -0.2253
23836SOL    HW173276   9.373   1.740   6.993  2.0111 -0.0990 -0.3678
23836SOL    HW273277   9.324   1.832   7.104 -0.6203 -1.3379 -0.4179
23837SOL     OW73278   3.726   6.758   4.103  0.3421 -0.3984  0.1771
23837SOL    HW173279   3.711   6.797   4.189  1.9136  0.6677  0.0066
23837SOL    HW273280   3.647   6.706   4.086 -0.5947  0.4837  1.6384
23838SOL     OW73281   3.445   9.649   7.141  0.5646  0.3175  0.5628
23838SOL    HW173282   3.383   9.694   7.199 -0.9296  1.4266 -1.7208
23838SOL    HW273283   3.436   9.557   7.164 -0.8708  0.6089  1.3016
23839SOL     OW73284   0.116   3.000   9.129  0.1973  0.2006  0.6892
23839SOL    HW173285   0.177   3.053   9.179 -1.3610  0.8743  1.9725
23839SOL    HW273286   0.031   3.014   9.172 -1.0142 -0.0792 -1.4805
23840SOL     OW73287   3.757   6.660   6.604  0.2120  0.2281 -0.2539
23840SOL    HW173288   3.722   6.615   6.681  2.1508 -0.1211  0.4715
23840SOL    HW273289   3.769   6.751   6.632  0.0088  0.3245 -0.4709
23841SOL     OW73290   3.672   3.272   3.131  0.3010 -0.2497  0.4356
23841SOL    HW173291   3.647   3.260   3.040  2.4614 -0.3774 -0.1982
23841SOL    HW273292   3.683   3.367   3.141  2.0704 -0.3759 -0.0565
23842SOL     OW73293   9.361   4.808   0.804 -0.2322 -0.7897 -0.2098
23842SOL    HW173294   9.381   4.901   0.793 -1.1462 -0.5188  0.2503
23842SOL    HW273295   9.287   4.793   0.745 -0.1517 -1.2004 -0.2079
23843SOL     OW73296   8.623   4.900   9.033  0.3895 -0.0928 -0.1435
23843SOL    HW173297   8.685   4.972   9.046  0.8937 -0.5106 -0.1746
23843SOL    HW273298   8.626   4.884   8.938 -0.0966  0.1753 -0.2028
23844SOL     OW73299   4.623   0.146   8.863  0.7505  0.0383 -0.3558
23844SOL    HW173300   4.624   0.103   8.778  1.4016 -2.0960  0.6779
23844SOL    HW273301   4.656   0.081   8.924 -1.2172  0.9210  1.8217
23845SOL     OW73302   3.295   1.071   9.110 -0.8750 -0.6436 -0.0925
23845SOL    HW173303   3.274   1.143   9.169  0.9142  0.9334 -1.2606
23845SOL    HW273304   3.335   1.004   9.166  1.3501  1.0656  0.4914
23846SOL     OW73305   2.040   3.381   9.557 -0.1411 -0.0423  0.1516
23846SOL    HW173306   2.004   3.389   9.469  2.1039  0.8285 -0.7659
23846SOL    HW273307   2.075   3.292   9.561 -0.5239 -0.1873  0.2806
23847SOL     OW73308   6.476   7.452   7.830  0.5859 -0.1225  0.2243
23847SOL    HW173309   6.524   7.370   7.818  0.8785 -0.0015  0.5556
23847SOL    HW273310   6.393   7.438   7.785  0.5144 -0.7095  0.5322
23848SOL     OW73311   9.583   8.070   4.353 -0.8196 -0.0310  0.2488
23848SOL    HW173312   9.494   8.068   4.391 -0.6515  0.8778  0.7218
23848SOL    HW273313   9.590   8.157   4.314 -0.7469 -0.7283 -1.3355
23849SOL     OW73314   5.697   9.651   5.604  0.2223 -0.1905  0.0498
23849SOL    HW173315   5.728   9.733   5.642 -1.9362  1.3515 -1.3514
23849SOL    HW273316   5.604   9.648   5.624  0.0450 -1.8087 -0.8297
23850SOL     OW73317   2.174   8.876   5.219  0.7078 -0.5292 -0.4066
23850SOL    HW173318   2.250   8.933   5.228  1.2860 -1.4737  1.1852
23850SOL    HW273319   2.203   8.805   5.162  0.5948 -0.2087 -0.8638
23851SOL     OW73320   4.074   1.331   3.684 -0.2663  0.0681  0.5979
23851SOL    HW173321   3.988   1.303   3.653  0.4037  0.0218 -1.3399
23851SOL    HW273322   4.126   1.250   3.687  0.2713  0.3657 -0.2336
23852SOL     OW73323   2.364   4.132   9.508  0.2465 -0.9613  0.4940
23852SOL    HW173324   2.410   4.159   9.588 -2.3175  0.2918  1.6670
23852SOL    HW273325   2.300   4.067   9.538 -2.0114  0.8412 -0.0962
23853SOL     OW73326   1.767   6.347   5.218 -0.0300 -0.4226  0.0442
23853SOL    HW173327   1.841   6.341   5.158  1.1294 -0.0023  1.3800
23853SOL    HW273328   1.787   6.284   5.287 -0.5592  0.2027  0.7877
23854SOL     OW73329   2.181   1.847   5.067 -0.5141  0.6040  0.0318
23854SOL    HW173330   2.209   1.763   5.031 -0.4710  0.6026  0.0687
23854SOL    HW273331   2.225   1.853   5.152 -0.9606  0.4076  0.2794
23855SOL     OW73332   6.202   9.104   1.899 -0.1336  0.1003  0.4112
23855SOL    HW173333   6.157   9.162   1.837 -1.3351  0.0704  1.2260
23855SOL    HW273334   6.257   9.048   1.844 -0.1697  0.9442 -0.5151
23856SOL     OW73335   8.380   1.459   8.707  0.1274 -0.2915 -0.0378
23856SOL    HW173336   8.356   1.368   8.694  0.9696 -0.8358  1.8818
23856SOL    HW273337   8.411   1.488   8.621  1.1163 -2.2139 -0.3791
23857SOL     OW73338   4.493   5.802   1.987 -0.0101  0.0745 -0.6783
23857SOL    HW173339   4.433   5.813   1.913 -0.0676  1.7151 -0.4249
23857SOL    HW273340   4.445   5.838   2.062  0.3169 -0.9314  0.0327
23858SOL     OW73341   0.185   8.442   6.254  0.0161 -0.3169  0.0296
23858SOL    HW173342   0.258   8.420   6.311  0.9555  0.4333 -0.8244
23858SOL    HW273343   0.126   8.495   6.308  0.7825  0.2056  0.3684
23859SOL     OW73344   1.019   3.692   6.621  0.2792  0.3063  0.3837
23859SOL    HW173345   0.948   3.679   6.559 -0.4663 -1.5590  1.5348
23859SOL    HW273346   0.993   3.769   6.672 -0.1368  0.5713 -0.2232
23860SOL     OW73347   6.846   8.192   8.223  0.0073  0.1085 -0.2333
23860SOL    HW173348   6.827   8.100   8.201 -1.1170  0.2344  0.1197
23860SOL    HW273349   6.846   8.193   8.319  0.2142  0.4361 -0.2378
23861SOL     OW73350   5.375   4.508   4.012 -0.0382  0.6543 -0.1981
23861SOL    HW173351   5.289   4.467   4.024  0.5077 -1.0422 -1.5937
23861SOL    HW273352   5.431   4.466   4.077  0.2486 -0.0090 -0.8521
23862SOL     OW73353   8.713   7.631   7.053 -0.1330  0.1686 -0.5775
23862SOL    HW173354   8.627   7.672   7.059  0.1169  0.5770  0.5429
23862SOL    HW273355   8.774   7.704   7.043  0.0239 -0.1739 -2.5777
23863SOL     OW73356   7.859   7.723   5.200 -0.2562 -0.3142  0.3293
23863SOL    HW173357   7.919   7.705   5.273 -1.1182 -2.0045  0.6685
23863SOL    HW273358   7.779   7.677   5.223 -1.2183  0.7497 -0.7854
23864SOL     OW73359   1.196   4.600   2.797 -0.4169  0.2176 -0.2560
23864SOL    HW173360   1.190   4.591   2.892  0.2630  1.0614 -0.1230
23864SOL    HW273361   1.272   4.656   2.783 -0.7183  0.3885 -1.2852
23865SOL     OW73362   1.032   6.800   1.337 -0.4883 -0.2424  0.0719
23865SOL    HW173363   0.997   6.821   1.250 -0.6904 -1.6608 -0.2076
23865SOL    HW273364   1.127   6.799   1.326 -0.4444  0.8568  0.1902
23866SOL     OW73365   9.504   4.778   9.192  0.7074 -0.0954  0.6497
23866SOL    HW173366   9.495   4.791   9.097  0.8841  0.0441  0.6524
23866SOL    HW273367   9.414   4.771   9.223  0.5638  1.4875  0.6912
23867SOL     OW73368   3.860   3.719   5.898  0.2529 -0.1724  0.3389
23867SOL    HW173369   3.866   3.725   5.802 -1.2011  0.9394  0.2920
23867SOL    HW273370   3.773   3.683   5.915  1.2319 -2.2394  1.2287
23868SOL     OW73371   2.977   4.675   6.325  0.0183 -0.5673  0.2543
23868SOL    HW173372   3.069   4.701   6.328 -0.0241 -0.1517 -1.1112
23868SOL    HW273373   2.974   4.590   6.370  0.9406 -0.2697  0.9000
23869SOL     OW73374   0.151   5.561   5.990  0.2859  0.3910  0.5637
23869SOL    HW173375   0.097   5.639   5.997 -0.7682 -0.3902  1.4912
23869SOL    HW273376   0.213   5.568   6.062  2.0364  1.6806 -0.9644
23870SOL     OW73377   7.701   2.395   0.094  0.1978  0.2147  0.2812
23870SOL    HW173378   7.785   2.349   0.096  0.5353  0.8416  0.9379
23870SOL    HW273379   7.713   2.471   0.152 -0.4557  0.9396 -0.5022
23871SOL     OW73380   6.447   5.442   4.649  0.1113 -0.1758  0.0866
23871SOL    HW173381   6.518   5.507   4.649 -0.0447  0.0260 -1.3433
23871SOL    HW273382   6.432   5.423   4.742  1.7537  0.0750  0.4351
23872SOL     OW73383   7.834   8.222   5.452  0.5569 -0.1691 -0.3475
23872SOL    HW173384   7.856   8.309   5.422  0.3978  0.1554  0.4408
23872SOL    HW273385   7.889   8.163   5.400  1.9291  0.4977  0.3016
23873SOL     OW73386   8.602   3.826   8.352  0.1511  0.2204 -0.2735
23873SOL    HW173387   8.610   3.851   8.260  0.3270  0.4446 -0.1966
23873SOL    HW273388   8.556   3.742   8.350 -2.8318  1.7175 -0.4340
23874SOL     OW73389   1.338   9.544   9.240  0.1308  0.1032 -0.1093
23874SOL    HW173390   1.318   9.552   9.146  0.1661  1.7409 -0.0028
23874SOL    HW273391   1.434   9.541   9.243  0.1550  0.6332 -0.1143
23875SOL     OW73392   9.648   4.622   7.772  0.4613  0.4371  0.0027
23875SOL    HW173393   9.566   4.600   7.817  0.9485 -1.1570  0.1701
23875SOL    HW273394   9.688   4.689   7.827 -1.0893  1.8600 -0.5117
23876SOL     OW73395   7.418   3.565   5.663 -0.1137  0.0913  0.4317
23876SOL    HW173396   7.402   3.574   5.757  0.5729  1.4613  0.4553
23876SOL    HW273397   7.358   3.629   5.623  0.9882  0.9553  0.1102
23877SOL     OW73398   2.506   1.588   4.299  0.5458 -0.0882 -0.0632
23877SOL    HW173399   2.569   1.658   4.283  0.7656 -0.3633 -0.4255
23877SOL    HW273400   2.460   1.614   4.379 -0.9454  1.6120 -1.3747
23878SOL     OW73401   7.487   1.134   8.926 -0.3311  0.2042  0.4802
23878SOL    HW173402   7.424   1.084   8.874  0.8938  0.1554 -1.0374
23878SOL    HW273403   7.491   1.089   9.010  1.0106 -2.5668 -0.9471
23879SOL     OW73404   4.490   0.290   6.952  0.1697  0.3226  0.5370
23879SOL    HW173405   4.478   0.354   7.022 -0.9123 -0.4720  1.0958
23879SOL    HW273406   4.435   0.216   6.977 -0.6811  0.2277 -1.4269
23880SOL     OW73407   2.737   4.874   2.116  0.0615 -0.1023 -0.2834
23880SOL    HW173408   2.783   4.957   2.110 -0.4016  0.1360 -0.5909
23880SOL    HW273409   2.804   4.807   2.102  0.5966  0.1786  0.7908
23881SOL     OW73410   3.924   5.568   7.039  0.0496  0.3539 -0.3259
23881SOL    HW173411   4.011   5.585   7.075 -0.4561  1.5346  0.3894
23881SOL    HW273412   3.940   5.549   6.946  0.9901  1.6655 -0.4644
23882SOL     OW73413   2.722   9.289   1.294  0.6306  0.1768  0.3476
23882SOL    HW173414   2.632   9.304   1.265  0.2846 -2.0932  0.0595
23882SOL    HW273415   2.770   9.266   1.215  0.9298 -0.8450  0.8094
23883SOL     OW73416   2.674   1.621   6.132  0.0840 -0.2894 -0.3939
23883SOL    HW173417   2.658   1.714   6.150  0.3605  0.0336 -1.7545
23883SOL    HW273418   2.624   1.576   6.200  0.3803  0.8506  0.6266
23884SOL     OW73419   0.762   5.051   3.115 -0.5474 -0.0446 -0.4365
23884SOL    HW173420   0.742   4.957   3.106 -0.3142 -0.0789 -0.5933
23884SOL    HW273421   0.681   5.095   3.089 -0.3239 -0.1759 -1.3702
23885SOL     OW73422   6.334   4.773   1.620 -0.1607 -0.0131  0.3170
23885SOL    HW173423   6.257   4.799   1.671 -0.7270 -0.6311 -0.2124
23885SOL    HW273424   6.300   4.759   1.532  0.2606 -1.8589  0.4271
23886SOL     OW73425   7.283   5.663   2.791  0.0562  0.2260 -0.4174
23886SOL    HW173426   7.321   5.579   2.816  1.3998  1.2254  1.0774
23886SOL    HW273427   7.189   5.650   2.801  0.3610 -0.3352  2.4611
23887SOL     OW73428   1.448   0.039   5.782 -0.2985 -0.1347 -0.2077
23887SOL    HW173429   1.451  -0.056   5.787  2.4194 -0.2287 -1.4765
23887SOL    HW273430   1.526   0.068   5.830 -0.1134  1.2952 -1.2867
23888SOL     OW73431   7.124   1.753   4.472 -0.7493  0.2398  0.2177
23888SOL    HW173432   7.099   1.823   4.413 -1.9382 -1.2443 -1.1443
23888SOL    HW273433   7.220   1.754   4.472 -0.7185  0.5248 -1.4554
23889SOL     OW73434   0.988   7.432   6.578  0.1592  0.0784  0.2521
23889SOL    HW173435   0.932   7.509   6.568 -0.0114 -0.0824 -0.0454
23889SOL    HW273436   0.960   7.373   6.509 -0.1325 -0.5154  0.8678
23890SOL     OW73437   9.033   5.831   2.080  0.3177  0.0208 -0.0073
23890SOL    HW173438   9.126   5.808   2.083  0.4279  0.0229 -1.8501
23890SOL    HW273439   8.988   5.748   2.067  0.1051  0.0668  0.4371
23891SOL     OW73440   8.677   9.338   2.207  0.5235 -0.0975 -0.0268
23891SOL    HW173441   8.636   9.374   2.129 -2.0200  0.7265  1.5777
23891SOL    HW273442   8.653   9.398   2.277  4.4188  0.3263  1.1687
23892SOL     OW73443   9.623   8.370   2.398  0.3224 -0.3704 -0.2241
23892SOL    HW173444   9.617   8.394   2.306  2.5671  0.4895 -0.2131
23892SOL    HW273445   9.535   8.341   2.421 -0.2547 -0.7669 -2.6605
23893SOL     OW73446   8.969   5.743   7.725  0.4779 -0.3673 -0.3803
23893SOL    HW173447   8.988   5.826   7.682  1.7682 -1.0924 -1.2764
23893SOL    HW273448   8.877   5.725   7.704  0.9273 -0.4640 -2.4786
23894SOL     OW73449   5.852   0.088   6.653  0.2372 -0.0623  0.2693
23894SOL    HW173450   5.776   0.033   6.634  0.3184 -0.3978  0.8984
23894SOL    HW273451   5.927   0.029   6.643  0.4390  0.3098 -0.5260
23895SOL     OW73452   6.394   8.236   1.102  0.4398  0.3404  0.6702
23895SOL    HW173453   6.474   8.186   1.089 -1.0993 -1.9066 -0.8590
23895SOL    HW273454   6.337   8.178   1.152 -1.5658  0.3012 -1.5054
23896SOL     OW73455   4.474   0.656   1.556 -0.5286  0.1846 -0.0776
23896SOL    HW173456   4.486   0.567   1.523 -1.1278 -0.5182  1.4483
23896SOL    HW273457   4.504   0.713   1.486 -1.7658 -1.1860 -1.8040
23897SOL     OW73458   1.920   9.736   6.708  0.0685 -0.0265  0.5515
23897SOL    HW173459   1.898   9.733   6.802 -1.6515  1.6264  0.2657
23897SOL    HW273460   1.860   9.801   6.672  3.5283  2.6398 -0.9632
23898SOL     OW73461   9.647   0.019   2.239 -0.4726  0.0515  0.3429
23898SOL    HW173462   9.650  -0.014   2.329  0.4182  1.5380  0.8962
23898SOL    HW273463   9.738   0.036   2.216 -0.8026  1.0963 -0.2781
23899SOL     OW73464   2.434   2.284   0.083  0.8610  0.0765  0.1815
23899SOL    HW173465   2.504   2.290   0.018 -0.5029 -0.8887 -1.4785
23899SOL    HW273466   2.423   2.190   0.098 -1.9899 -0.0646 -1.9202
23900SOL     OW73467   0.534   0.247   2.714 -0.1194 -0.4782  0.0405
23900SOL    HW173468   0.627   0.237   2.734 -0.2922 -0.5342  0.8472
23900SOL    HW273469   0.531   0.317   2.649  0.3731  0.5998  1.1422
23901SOL     OW73470   0.180   5.123   8.547  0.6908 -0.6275 -0.7660
23901SOL    HW173471   0.180   5.029   8.564  1.6555 -0.9026 -2.1599
23901SOL    HW273472   0.103   5.137   8.492  1.6583 -0.9565 -2.2429
23902SOL     OW73473   1.084   7.276   2.779 -0.2038  0.4060  0.0531
23902SOL    HW173474   1.103   7.187   2.807 -1.0087 -0.0916 -0.9179
23902SOL    HW273475   1.163   7.326   2.799 -0.2908 -0.1793  1.9968
23903SOL     OW73476   5.862   6.809   6.488 -0.3183  0.1462 -0.5491
23903SOL    HW173477   5.797   6.806   6.418  0.8121  0.9698 -1.6870
23903SOL    HW273478   5.871   6.902   6.509  0.3910  0.0352 -0.3261
23904SOL     OW73479   8.020   9.364   5.177 -0.1059 -0.3955  0.7232
23904SOL    HW173480   8.115   9.379   5.171 -0.3783  0.9876 -0.8921
23904SOL    HW273481   7.999   9.384   5.269  1.0137  0.3974  0.8316
23905SOL     OW73482   5.066   2.728   2.792 -0.3926 -0.2481 -0.2340
23905SOL    HW173483   5.135   2.684   2.742  1.0658 -0.2996  1.7030
23905SOL    HW273484   4.997   2.663   2.801  1.3517 -1.9744  1.8424
23906SOL     OW73485   6.719   6.051   7.574 -0.0103  0.4208 -0.0478
23906SOL    HW173486   6.765   6.095   7.646 -2.1339  0.6340  1.2628
23906SOL    HW273487   6.626   6.069   7.591 -0.6625 -0.9295 -1.9381
23907SOL     OW73488   7.495   8.782   8.456 -0.1092 -0.2842  0.2478
23907SOL    HW173489   7.570   8.841   8.451 -1.6943  1.8650  0.4933
23907SOL    HW273490   7.442   8.804   8.379 -0.0698 -2.4587 -0.4793
23908SOL     OW73491   0.592   5.017   0.693 -0.0288 -0.4776  0.2563
23908SOL    HW173492   0.636   4.954   0.636 -1.1396 -0.9657 -0.0808
23908SOL    HW273493   0.501   5.019   0.662  0.0887  1.6764 -0.0665
23909SOL     OW73494   3.060   1.035   7.932 -0.2409  0.6836  0.5839
23909SOL    HW173495   2.994   0.982   7.975 -0.2522  0.8838  0.8155
23909SOL    HW273496   3.063   1.002   7.842  2.8841 -2.7499  1.7227
23910SOL     OW73497   8.963   4.675   3.732 -0.2946 -0.2466  0.1570
23910SOL    HW173498   9.054   4.704   3.728  0.1236 -1.5448 -0.7361
23910SOL    HW273499   8.935   4.694   3.821  1.8285 -2.4595  1.4285
23911SOL     OW73500   0.861   7.899   7.124 -0.1491  0.0468 -0.3687
23911SOL    HW173501   0.881   7.989   7.150  2.2872 -0.3555 -0.5689
23911SOL    HW273502   0.840   7.905   7.030 -0.8075  0.4779 -0.2027
23912SOL     OW73503   8.109   1.730   5.714 -0.3987  0.3185  0.1242
23912SOL    HW173504   8.115   1.744   5.809 -0.9067  1.5072 -0.0022
23912SOL    HW273505   8.128   1.637   5.703  0.7104  0.3641  1.2936
23913SOL     OW73506   4.614   6.016   8.546 -0.1808 -0.3326 -0.2330
23913SOL    HW173507   4.630   6.018   8.640  2.2692  2.8623 -0.5215
23913SOL    HW273508   4.699   5.995   8.507  0.3989  3.7148 -1.6700
23914SOL     OW73509   5.335   8.146   0.442 -0.3234  0.1488 -0.7074
23914SOL    HW173510   5.295   8.176   0.360  0.7207  1.4416 -0.7783
23914SOL    HW273511   5.389   8.220   0.471 -0.9192 -0.1464  1.3213
23915SOL     OW73512   4.453   5.692   8.566  0.2877  0.0380 -0.0250
23915SOL    HW173513   4.401   5.681   8.646  0.5034 -0.4778  0.0528
23915SOL    HW273514   4.541   5.709   8.598 -0.0647  2.3667 -0.1419
23916SOL     OW73515   7.489   3.934   3.324 -0.5849 -0.0606 -0.0049
23916SOL    HW173516   7.565   3.975   3.283 -1.2267  0.5366 -0.6326
23916SOL    HW273517   7.439   3.897   3.250 -1.6319  0.8147  0.2341
23917SOL     OW73518   9.095   7.471   1.128 -0.4457  0.3363 -0.2389
23917SOL    HW173519   9.028   7.499   1.066 -0.1447 -0.7668 -1.0939
23917SOL    HW273520   9.129   7.553   1.165 -0.3264  1.0477 -1.8493
23918SOL     OW73521   1.286   3.621   6.490 -0.3296 -0.2077  0.1902
23918SOL    HW173522   1.249   3.540   6.525 -0.8871  0.5032  1.3204
23918SOL    HW273523   1.240   3.691   6.537  0.9780  0.7502  0.1177
23919SOL     OW73524   9.659   6.149   6.728 -0.1854  0.0144 -0.2071
23919SOL    HW173525   9.631   6.058   6.716 -0.5889  0.3850 -2.3251
23919SOL    HW273526   9.704   6.148   6.813 -0.5966 -2.0468  0.0536
23920SOL     OW73527   1.520   7.472   0.801 -0.4974  0.2449  0.0856
23920SOL    HW173528   1.447   7.447   0.857 -0.0944  0.8763  0.9033
23920SOL    HW273529   1.479   7.519   0.728 -1.0135 -0.5130 -0.1241
23921SOL     OW73530   5.650   6.968   8.324  0.0355 -0.2781 -0.4322
23921SOL    HW173531   5.595   6.891   8.335 -0.6131  0.4132  1.5224
23921SOL    HW273532   5.606   7.019   8.257 -2.0564  0.4845  1.4092
23922SOL     OW73533   9.045   7.360   8.534 -0.7177  0.6344  0.3446
23922SOL    HW173534   9.107   7.393   8.469 -0.6666 -0.1589 -0.0124
23922SOL    HW273535   9.089   7.286   8.575 -0.2371  1.8701  2.1790
23923SOL     OW73536   7.590   3.584   6.129 -0.3125 -0.5902 -0.2233
23923SOL    HW173537   7.605   3.627   6.213  0.0647 -0.1119 -0.5278
23923SOL    HW273538   7.655   3.514   6.125 -0.7842 -1.0585  0.1797
23924SOL     OW73539   2.556   0.576   2.615  0.5035 -0.0946 -0.0022
23924SOL    HW173540   2.463   0.577   2.636  0.9348 -0.0903  2.1287
23924SOL    HW273541   2.574   0.487   2.586 -0.0728 -0.1968 -0.0535
23925SOL     OW73542   5.912   3.003   7.541  0.0230  0.2549  0.4269
23925SOL    HW173543   5.864   2.921   7.533  0.7850 -0.2184  0.5903
23925SOL    HW273544   5.983   2.995   7.476 -0.7743  1.4278 -0.6427
23926SOL     OW73545   0.675   8.957   0.946  0.4400 -0.6261 -0.8527
23926SOL    HW173546   0.682   8.870   0.906  0.6169 -1.5451  1.0610
23926SOL    HW273547   0.728   9.014   0.890  1.4179 -2.0290 -1.3961
23927SOL     OW73548   4.037   6.095   1.559  0.4469  0.0368 -0.6448
23927SOL    HW173549   3.969   6.071   1.622  2.0716  0.3814  1.3183
23927SOL    HW273550   4.012   6.182   1.529  0.0851  0.2029  0.1293
23928SOL     OW73551   9.447   8.541   6.939  0.0443  0.3202  0.7247
23928SOL    HW173552   9.484   8.465   6.985  0.7884  1.5804  2.2983
23928SOL    HW273553   9.352   8.528   6.946  0.1467 -0.8681  0.2348
23929SOL     OW73554   1.712   8.459   0.124  0.3540  0.1570  0.1958
23929SOL    HW173555   1.703   8.475   0.218  0.9491 -0.6984  0.4115
23929SOL    HW273556   1.788   8.401   0.117 -1.5197 -2.4277 -0.4854
23930SOL     OW73557   6.476   2.976   4.631  0.1438  0.4043  0.5197
23930SOL    HW173558   6.472   3.066   4.663 -0.3387  0.6562 -0.2326
23930SOL    HW273559   6.405   2.932   4.677 -1.9126  1.2579 -1.6471
23931SOL     OW73560   4.325   8.215   1.614  0.2932  0.5486 -0.1876
23931SOL    HW173561   4.363   8.152   1.553 -1.4988 -0.3804 -0.3997
23931SOL    HW273562   4.231   8.200   1.609 -0.0390  1.8404  1.3157
23932SOL     OW73563   2.808   5.437   7.239  0.2670  0.3494  0.1543
23932SOL    HW173564   2.717   5.431   7.212  0.0104  0.7413  0.9163
23932SOL    HW273565   2.858   5.406   7.163 -0.5743 -2.4036  0.6395
23933SOL     OW73566   1.465   3.500   0.557 -0.5602  0.2442  0.4144
23933SOL    HW173567   1.462   3.547   0.640  2.6248  1.6859 -0.1272
23933SOL    HW273568   1.536   3.436   0.568  1.5699  2.0194 -1.7750
23934SOL     OW73569   5.375   3.757   2.215  0.4521  0.0555 -0.6081
23934SOL    HW173570   5.347   3.828   2.157  0.9550  0.2736 -0.5931
23934SOL    HW273571   5.362   3.792   2.304 -2.6040 -1.1395 -0.4666
23935SOL     OW73572   4.062   8.241   4.570 -0.3273 -0.4286 -0.1326
23935SOL    HW173573   4.077   8.217   4.661 -0.4622  0.5618  0.1689
23935SOL    HW273574   3.967   8.252   4.563 -0.2415  0.3576 -0.1518
23936SOL     OW73575   0.360   0.302   5.221  0.0141  0.0915  0.1874
23936SOL    HW173576   0.272   0.279   5.191 -0.0471 -0.2334  0.6165
23936SOL    HW273577   0.384   0.378   5.167 -0.4850  0.1173 -0.0050
23937SOL     OW73578   1.383   8.282   0.130  0.1490 -0.1490 -0.5137
23937SOL    HW173579   1.401   8.206   0.185 -0.4587  1.1655  1.6005
23937SOL    HW273580   1.469   8.307   0.095  0.8621 -0.0237  1.2302
23938SOL     OW73581   1.813   0.908   2.079 -0.5317 -0.1991  0.0085
23938SOL    HW173582   1.817   0.839   2.013  0.7791 -1.2241  1.0858
23938SOL    HW273583   1.883   0.968   2.055  1.2430 -1.5562  1.3948
23939SOL     OW73584   4.693   3.369   4.695  0.0111 -0.0185 -0.0038
23939SOL    HW173585   4.763   3.397   4.754 -0.2396 -1.5863  1.1040
23939SOL    HW273586   4.616   3.359   4.751 -1.8820  3.9405 -1.5491
23940SOL     OW73587   0.781   0.935   0.971  0.4455 -1.0890  0.0385
23940SOL    HW173588   0.784   0.897   1.058  0.4909 -2.1128 -0.3943
23940SOL    HW273589   0.871   0.963   0.954 -0.0659  1.6834  1.3812
23941SOL     OW73590   7.348   6.765   5.553 -0.2633  0.2942 -0.5895
23941SOL    HW173591   7.425   6.783   5.607  1.4455  0.6572 -2.9809
23941SOL    HW273592   7.382   6.712   5.481 -2.0804  1.1751 -2.1747
23942SOL     OW73593   6.585   8.534   7.721  0.1933  0.2172 -0.2170
23942SOL    HW173594   6.570   8.442   7.743  2.2397  0.2293  1.6380
23942SOL    HW273595   6.507   8.579   7.754 -0.1861 -0.6964  0.1823
23943SOL     OW73596   8.028   6.133   7.185  0.2941 -0.0979 -0.7406
23943SOL    HW173597   7.967   6.091   7.125 -0.3655  0.8124 -0.7404
23943SOL    HW273598   8.017   6.227   7.169 -1.7220  0.3568  2.4412
23944SOL     OW73599   1.300   2.622   6.527  0.5603 -0.5851 -0.2745
23944SOL    HW173600   1.214   2.586   6.550 -0.1894  0.7845 -0.7626
23944SOL    HW273601   1.353   2.546   6.503  0.0189 -1.6212  1.6420
23945SOL     OW73602   7.419   7.938   6.852 -0.0824  0.3741  0.6603
23945SOL    HW173603   7.468   7.895   6.782 -0.9225  0.4844  0.0085
23945SOL    HW273604   7.409   7.870   6.919 -1.2882 -0.4231 -0.3091
23946SOL     OW73605   5.636   6.252   0.744  0.2407  0.1751  0.4106
23946SOL    HW173606   5.544   6.271   0.761  0.0464 -0.7661  0.5034
23946SOL    HW273607   5.654   6.294   0.660  0.0628  1.3553  0.9385
23947SOL     OW73608   2.888   1.452   1.991  0.1524  0.1880 -0.3533
23947SOL    HW173609   2.917   1.378   2.044 -2.9981  1.1214  3.0623
23947SOL    HW273610   2.936   1.527   2.025 -1.1169  0.6183  0.5864
23948SOL     OW73611   4.495   8.580   3.937 -0.0520  0.0834  0.5130
23948SOL    HW173612   4.557   8.539   3.876 -1.1223 -1.5095  0.4397
23948SOL    HW273613   4.469   8.509   3.996  0.5293  1.4538  2.5213
23949SOL     OW73614   9.235   8.234   8.882  0.0034  0.8292 -0.0273
23949SOL    HW173615   9.284   8.160   8.918  1.1513  1.6921  0.2180
23949SOL    HW273616   9.272   8.247   8.795  0.5870  1.8069  0.3513
23950SOL     OW73617   8.184   3.924   0.915 -0.6515  0.2786 -0.2964
23950SOL    HW173618   8.203   3.923   0.821 -0.9753 -2.4678 -0.3991
23950SOL    HW273619   8.247   3.987   0.951  1.8387 -1.1187 -1.9299
23951SOL     OW73620   4.653   5.570   6.654 -0.7622  0.0868  0.4794
23951SOL    HW173621   4.681   5.529   6.572  0.1292 -1.1678  1.3710
23951SOL    HW273622   4.641   5.662   6.633  0.2017 -0.0774 -0.8816
23952SOL     OW73623   9.388   7.985   2.112  0.0555 -0.2887  0.4386
23952SOL    HW173624   9.462   8.046   2.113 -0.1188 -0.0344 -0.7144
23952SOL    HW273625   9.315   8.035   2.146  0.1415 -0.1548  0.4260
23953SOL     OW73626   0.608   2.710   0.000 -0.3030 -0.4181 -0.1007
23953SOL    HW173627   0.580   2.667   0.081  1.7326 -0.2428  0.7634
23953SOL    HW273628   0.687   2.664  -0.026  1.8843  2.4910  0.7660
23954SOL     OW73629   4.937   2.609   9.199 -0.7334 -0.3878  0.0394
23954SOL    HW173630   4.997   2.585   9.129 -0.8783 -1.9368  0.3890
23954SOL    HW273631   4.990   2.659   9.261 -0.2372 -0.2829 -0.4645
23955SOL     OW73632   5.084   7.429   7.334  0.0395  0.1288 -0.1177
23955SOL    HW173633   4.998   7.432   7.294  1.3521 -0.3470 -3.2920
23955SOL    HW273634   5.097   7.336   7.355  0.8345 -0.3394 -2.4159
23956SOL     OW73635   0.723   0.714   1.771 -0.0532 -0.1343 -0.4850
23956SOL    HW173636   0.804   0.763   1.774  0.7514 -1.4624  0.6418
23956SOL    HW273637   0.706   0.700   1.677 -0.2533  2.1088 -0.8267
23957SOL     OW73638   5.826   2.579   0.637  0.1282  0.2380  0.3365
23957SOL    HW173639   5.870   2.520   0.697  0.7545  1.0896  0.7426
23957SOL    HW273640   5.777   2.639   0.694  0.4606  0.8501 -0.0110
23958SOL     OW73641   0.141   4.774   1.847 -0.2014  0.0500 -0.0926
23958SOL    HW173642   0.141   4.689   1.804  1.1560 -0.1860  0.3462
23958SOL    HW273643   0.064   4.772   1.904 -1.6263  0.1000 -1.9293
23959SOL     OW73644   3.143   5.182   7.411 -0.6096  0.5690 -0.5672
23959SOL    HW173645   3.157   5.216   7.499 -0.2390 -1.1985  0.0933
23959SOL    HW273646   3.065   5.126   7.419 -1.1260  1.1168 -1.5848
23960SOL     OW73647   4.717   9.030   2.010  0.0848 -0.1045  0.8118
23960SOL    HW173648   4.723   9.087   1.934  0.8213  0.0891  1.0120
23960SOL    HW273649   4.795   9.049   2.061  1.1966 -2.4594  0.1039
23961SOL     OW73650   8.716   0.298   0.710  0.4251 -0.0082 -0.7099
23961SOL    HW173651   8.677   0.229   0.656 -0.6216  0.4882 -0.5987
23961SOL    HW273652   8.696   0.272   0.800 -0.5916  0.7966 -0.6935
23962SOL     OW73653   5.605   8.835   0.244 -0.1258  0.3529  0.2009
23962SOL    HW173654   5.584   8.928   0.235  1.1487  0.7050  0.7023
23962SOL    HW273655   5.700   8.831   0.236 -0.0346 -0.7337  1.5034
23963SOL     OW73656   4.680   4.850   1.468  0.1719  0.4012 -0.1711
23963SOL    HW173657   4.591   4.867   1.498  0.4200 -1.4142  1.8489
23963SOL    HW273658   4.711   4.935   1.436 -1.5899  1.5474  0.9793
23964SOL     OW73659   1.890   9.214   4.575  0.7720  0.3509  0.1394
23964SOL    HW173660   1.980   9.192   4.548  0.5179 -0.4341 -0.0966
23964SOL    HW273661   1.838   9.204   4.496  0.4302  0.5675  0.3339
23965SOL     OW73662   2.460   8.114   8.983 -0.0068 -0.2222  0.3177
23965SOL    HW173663   2.408   8.079   9.056 -0.5990  2.0463  1.0903
23965SOL    HW273664   2.547   8.075   8.995 -0.4544 -0.9346  1.4458
23966SOL     OW73665   8.630   8.392   1.253  0.0081 -0.6033 -0.0750
23966SOL    HW173666   8.689   8.467   1.243  0.0828 -0.3454  1.9541
23966SOL    HW273667   8.569   8.401   1.180 -0.6210  2.0734  0.6456
23967SOL     OW73668   5.366   1.208   8.756 -0.0171 -0.6467 -0.1200
23967SOL    HW173669   5.408   1.143   8.699 -1.3485 -1.6006 -0.0934
23967SOL    HW273670   5.398   1.187   8.844  0.4423 -0.5150 -0.2528
23968SOL     OW73671   3.342   5.421   2.957 -0.1739  0.1387  0.0306
23968SOL    HW173672   3.329   5.334   2.995  1.5032 -0.1493  0.0293
23968SOL    HW273673   3.355   5.479   3.033 -1.8529  0.5242  0.0573
23969SOL     OW73674   5.799   3.275   5.847 -0.2846  0.3818 -0.0089
23969SOL    HW173675   5.823   3.359   5.808  0.2135  0.1253 -0.2703
23969SOL    HW273676   5.784   3.217   5.773 -0.3960  0.1799  0.1711
23970SOL     OW73677   2.124   6.121   5.424 -0.1017  0.1622 -0.4571
23970SOL    HW173678   2.108   6.200   5.476  0.6680  0.3386 -0.4761
23970SOL    HW273679   2.208   6.089   5.456 -0.7737 -1.0993  0.1047
23971SOL     OW73680   4.401   9.525   4.516  0.2089  0.3069  0.3343
23971SOL    HW173681   4.437   9.453   4.465  0.0370 -0.1226  0.8130
23971SOL    HW273682   4.408   9.496   4.607 -1.9231 -0.0767  0.4210
23972SOL     OW73683   4.980   7.148   1.302  0.4343 -0.7198  0.1779
23972SOL    HW173684   4.894   7.182   1.328  0.4912  1.5548 -2.2382
23972SOL    HW273685   4.970   7.053   1.307 -2.0437 -0.5218  0.5065
23973SOL     OW73686   6.992   7.197   6.752  0.0962 -0.0115  0.2170
23973SOL    HW173687   6.970   7.202   6.845  2.0963 -1.3289  0.8323
23973SOL    HW273688   6.965   7.109   6.726  0.8233 -0.1572 -0.0655
23974SOL     OW73689   8.595   1.480   5.757  0.5205  0.0109 -0.0767
23974SOL    HW173690   8.530   1.412   5.742  2.0859 -1.5775  0.0721
23974SOL    HW273691   8.677   1.433   5.773  1.3687  1.8687  1.5679
23975SOL     OW73692   1.842   7.372   5.206 -0.6723  0.0351  0.2555
23975SOL    HW173693   1.858   7.450   5.152 -0.0734 -0.9022 -0.9525
23975SOL    HW273694   1.886   7.393   5.289  1.9204 -0.0568 -0.9704
23976SOL     OW73695   5.657   0.474   3.987  0.1648  0.1293 -0.1914
23976SOL    HW173696   5.688   0.518   4.066  1.5481 -0.4225 -0.3998
23976SOL    HW273697   5.588   0.414   4.018  0.1079  0.5185  0.4586
23977SOL     OW73698   5.935   5.386   3.816  0.5144 -0.2110  0.1388
23977SOL    HW173699   5.937   5.385   3.912  0.4874  0.4220  0.1485
23977SOL    HW273700   5.983   5.307   3.791 -0.8410 -1.2473  0.6797
23978SOL     OW73701   4.457   2.352   2.085 -0.3391 -0.2199  0.0543
23978SOL    HW173702   4.448   2.291   2.157  0.6221 -1.7013 -1.0236
23978SOL    HW273703   4.482   2.298   2.010 -1.3920  1.2365 -1.4389
23979SOL     OW73704   8.568   4.739   3.650 -0.1487  0.1220 -0.3545
23979SOL    HW173705   8.621   4.780   3.582 -2.2411  1.4059 -1.3517
23979SOL    HW273706   8.581   4.794   3.727  1.4071 -0.7086  0.0011
23980SOL     OW73707   1.197   9.159   4.376  0.0532  0.0708  0.4481
23980SOL    HW173708   1.231   9.076   4.343  0.0310  0.1850  0.1303
23980SOL    HW273709   1.170   9.140   4.466 -1.2215 -0.6334 -0.0510
23981SOL     OW73710   3.977   3.341   3.834  0.1097 -0.4135  0.0896
23981SOL    HW173711   4.015   3.271   3.780 -1.5096  0.2250 -2.0141
23981SOL    HW273712   3.935   3.399   3.771  0.3917  1.8579  1.8694
23982SOL     OW73713   5.850   5.150   1.974 -0.1960 -0.8955  0.0650
23982SOL    HW173714   5.945   5.152   1.965  0.1422 -3.3098  2.0030
23982SOL    HW273715   5.828   5.232   2.019  1.0548 -0.5931  0.1607
23983SOL     OW73716   7.088   6.375   4.926  0.5219  0.6066  0.0130
23983SOL    HW173717   7.074   6.419   5.010 -1.1932  3.5880 -1.6656
23983SOL    HW273718   7.002   6.337   4.905  0.6705  0.6826 -0.7725
23984SOL     OW73719   4.414   7.669   7.707  0.1009  0.4418  0.0414
23984SOL    HW173720   4.386   7.688   7.796  0.3965  0.4286  0.1394
23984SOL    HW273721   4.337   7.688   7.653  0.1954  1.3292  0.2000
23985SOL     OW73722   8.624   7.113   3.246  0.9371 -0.4016 -0.0557
23985SOL    HW173723   8.576   7.147   3.322  1.5025 -0.3672  0.2948
23985SOL    HW273724   8.563   7.121   3.174  0.0413 -1.3384  0.5795
23986SOL     OW73725   1.179   7.966   3.460 -0.0793  0.4649 -0.0597
23986SOL    HW173726   1.105   7.953   3.519  0.1284  0.9196  0.3061
23986SOL    HW273727   1.148   8.028   3.395 -1.0485 -1.6702 -1.7659
23987SOL     OW73728   8.337   0.233   6.694 -0.2398  0.3653  0.7476
23987SOL    HW173729   8.301   0.182   6.621  0.3236  0.1788  0.5987
23987SOL    HW273730   8.260   0.270   6.737 -0.5951  0.2266  0.2420
23988SOL     OW73731   3.168   4.635   7.180 -0.0181 -0.3731 -0.2086
23988SOL    HW173732   3.079   4.605   7.160  0.5222 -0.7035 -2.3308
23988SOL    HW273733   3.224   4.561   7.157  0.7966 -0.4930  1.9240
23989SOL     OW73734   8.265   1.892   7.710  0.1585  0.3342  0.1485
23989SOL    HW173735   8.206   1.942   7.654 -0.2454 -0.4110 -0.1137
23989SOL    HW273736   8.259   1.802   7.676  0.1973 -0.0556  1.1452
23990SOL     OW73737   2.060   6.092   1.277  0.3690  0.1049 -0.7192
23990SOL    HW173738   2.100   6.175   1.301 -0.8287  0.0475  1.8711
23990SOL    HW273739   2.044   6.047   1.360 -2.7849 -0.8921 -1.6840
23991SOL     OW73740   6.598   3.472   6.584  0.2308  0.5761 -0.2154
23991SOL    HW173741   6.585   3.533   6.657 -0.8725 -0.0643  0.1556
23991SOL    HW273742   6.532   3.497   6.519 -1.0059 -0.8712  0.4123
23992SOL     OW73743   3.050   4.431   9.573  0.0698  0.0022  0.9303
23992SOL    HW173744   3.046   4.339   9.600  0.8685  0.1819  1.6901
23992SOL    HW273745   3.068   4.479   9.654  0.4064  0.7579  0.4156
23993SOL     OW73746   2.895   0.444   8.618 -0.0299  0.2055  0.0733
23993SOL    HW173747   2.810   0.478   8.590  0.2044  0.1747 -0.7112
23993SOL    HW273748   2.886   0.429   8.712 -0.4441  1.5063  0.2526
23994SOL     OW73749   8.957   4.605   8.485 -0.3796  0.0821 -0.0033
23994SOL    HW173750   8.869   4.629   8.514 -0.0340 -0.4184  1.5777
23994SOL    HW273751   8.942   4.551   8.407 -1.5329 -0.7023  0.7235
23995SOL     OW73752   6.807   8.335   9.074 -0.0891 -0.0958  0.3631
23995SOL    HW173753   6.781   8.267   9.013 -1.6101 -0.8145  1.7343
23995SOL    HW273754   6.765   8.311   9.156  1.1583  1.3119  1.4726
23996SOL     OW73755   2.220   0.506   7.587 -0.1353 -0.5698 -0.0591
23996SOL    HW173756   2.263   0.538   7.667 -0.2216 -1.0986  0.2073
23996SOL    HW273757   2.291   0.466   7.536 -0.2025 -0.9030  0.1033
23997SOL     OW73758   0.730   6.776   6.991 -0.1228  0.2069  0.1780
23997SOL    HW173759   0.823   6.792   7.008 -0.7829  3.7357  1.1898
23997SOL    HW273760   0.708   6.703   7.050  1.6214  0.4498  1.2131
23998SOL     OW73761   3.039   4.972   5.969  0.1939  0.3174 -0.0885
23998SOL    HW173762   2.995   5.021   6.039 -1.0172  2.1200 -1.9891
23998SOL    HW273763   3.132   4.991   5.981  0.0149  0.5019  1.0783
23999SOL     OW73764   5.505   3.135   1.213  0.0836 -0.1911 -0.5198
23999SOL    HW173765   5.496   3.127   1.118  2.7323  0.9335 -0.9590
23999SOL    HW273766   5.599   3.125   1.229  0.0571  2.1487  1.6926
24000SOL     OW73767   0.149   2.531   8.870 -0.7395 -0.1869  0.3005
24000SOL    HW173768   0.101   2.614   8.871 -0.5808 -0.0715 -0.5158
24000SOL    HW273769   0.081   2.464   8.860 -0.7641 -0.0352 -0.6857
24001SOL     OW73770   6.936   5.485   4.784  0.2689  0.1721 -0.4614
24001SOL    HW173771   6.958   5.502   4.875  0.0403 -2.9511  0.2820
24001SOL    HW273772   6.849   5.522   4.772  0.1675  0.3156  0.6816
24002SOL     OW73773   8.159   8.062   8.319 -0.5024  0.5925 -0.1602
24002SOL    HW173774   8.247   8.082   8.351 -0.2452 -1.0841  0.2726
24002SOL    HW273775   8.103   8.127   8.361  0.7501  3.1821 -2.2386
24003SOL     OW73776   2.729   0.677   6.529 -0.4591 -0.3595 -0.2102
24003SOL    HW173777   2.644   0.639   6.550  0.3484 -2.6087 -0.7657
24003SOL    HW273778   2.723   0.699   6.436 -0.1814 -1.3395 -0.4748
24004SOL     OW73779   4.217   4.391   2.194 -0.5645 -0.4143  0.0895
24004SOL    HW173780   4.142   4.415   2.249 -0.6570 -2.0076  0.7149
24004SOL    HW273781   4.293   4.410   2.249 -0.4819  1.0756 -0.4953
24005SOL     OW73782   2.832   2.293   1.588 -0.4425  0.0680  0.2828
24005SOL    HW173783   2.921   2.287   1.552 -1.3585  1.6324 -2.6244
24005SOL    HW273784   2.828   2.224   1.653  2.6772 -0.5321  0.0155
24006SOL     OW73785   9.187   3.524   6.721 -0.0093  0.3928 -0.2049
24006SOL    HW173786   9.107   3.561   6.685 -1.3255 -0.8089  1.3319
24006SOL    HW273787   9.170   3.519   6.815  0.7919 -2.3748 -0.1273
24007SOL     OW73788   4.427   0.658   1.841 -0.3183  0.2539 -0.1217
24007SOL    HW173789   4.497   0.708   1.883 -0.9279  0.5841  0.5174
24007SOL    HW273790   4.441   0.672   1.747 -0.7120  1.9753  0.0436
24008SOL     OW73791   8.343   2.497   8.610  0.0341  0.1754  0.0173
24008SOL    HW173792   8.424   2.482   8.561 -0.2809 -1.1234 -0.1456
24008SOL    HW273793   8.370   2.551   8.685  1.0586 -0.2707 -0.0088
24009SOL     OW73794   8.018   4.970   9.479  0.2141 -0.1109  0.2772
24009SOL    HW173795   7.983   4.985   9.567 -0.9229 -0.4417 -0.0971
24009SOL    HW273796   8.066   5.050   9.458  2.7601 -1.0070  2.1964
24010SOL     OW73797   1.761   6.630   6.265  0.4355  0.0821 -0.4723
24010SOL    HW173798   1.696   6.664   6.326  0.8416 -0.9557  0.5689
24010SOL    HW273799   1.713   6.620   6.183 -0.8111 -0.9113  0.3336
24011SOL     OW73800   8.013   4.772   0.067 -0.1924 -0.0754  0.2921
24011SOL    HW173801   8.004   4.853   0.016  0.1180  1.0779  1.9869
24011SOL    HW273802   7.926   4.732   0.062  0.0101 -0.3927 -1.6938
24012SOL     OW73803   4.203   1.291   7.985 -0.1245  0.4156  0.2760
24012SOL    HW173804   4.135   1.224   7.992  0.0762  0.2694  0.8388
24012SOL    HW273805   4.218   1.320   8.074  1.3220 -0.3281  0.3133
24013SOL     OW73806   4.712   0.783   9.628 -0.2396 -0.3152  0.1656
24013SOL    HW173807   4.750   0.864   9.661  0.9721 -0.2932 -1.2112
24013SOL    HW273808   4.626   0.778   9.670  0.1535  1.0660  1.1840
24014SOL     OW73809   4.764   8.082   2.878 -0.4120  0.0256  0.2890
24014SOL    HW173810   4.736   8.108   2.966  0.7880  0.0711  0.6794
24014SOL    HW273811   4.784   7.988   2.886 -2.6524 -0.5989 -0.5781
24015SOL     OW73812   3.917   1.430   1.464 -0.3472 -0.2579  0.0017
24015SOL    HW173813   3.890   1.521   1.475 -0.8595 -0.6186  2.0616
24015SOL    HW273814   3.949   1.426   1.374  0.0211  2.0386 -0.0421
24016SOL     OW73815   6.523   5.463   7.533  0.5493 -0.2208 -0.3899
24016SOL    HW173816   6.540   5.488   7.442  0.6879 -0.6894 -0.4946
24016SOL    HW273817   6.501   5.545   7.576 -2.0958 -0.3083 -1.4077
24017SOL     OW73818   8.359   5.194   1.945 -0.3942  0.2967  0.3034
24017SOL    HW173819   8.353   5.271   2.002  0.9903  0.9068 -0.3432
24017SOL    HW273820   8.383   5.229   1.860 -2.1166 -0.6492 -0.6195
24018SOL     OW73821   4.999   7.109   4.906  0.4737 -0.0826 -0.1710
24018SOL    HW173822   4.958   7.131   4.822 -1.8437  1.6350  1.3023
24018SOL    HW273823   5.016   7.193   4.947  1.8025 -0.8946  1.0235
24019SOL     OW73824   5.739   8.728   2.509  0.1725  0.1454 -0.3276
24019SOL    HW173825   5.704   8.679   2.435  0.6126  0.0553 -0.4778
24019SOL    HW273826   5.818   8.681   2.535  0.4658  0.6327 -0.3192
24020SOL     OW73827   8.638   9.682   5.478 -0.4429  0.0672  0.1070
24020SOL    HW173828   8.607   9.750   5.538  2.3901  1.5341  0.1306
24020SOL    HW273829   8.653   9.729   5.396  2.6465 -0.1054  0.4301
24021SOL     OW73830   7.059   6.363   1.871 -0.4328 -0.0895  0.0996
24021SOL    HW173831   6.979   6.388   1.917  0.5639  2.0950  0.7662
24021SOL    HW273832   7.129   6.380   1.933  0.6900 -0.2861 -1.0766
24022SOL     OW73833   0.993   6.912   3.320 -0.4724 -0.2249  0.4520
24022SOL    HW173834   0.988   6.999   3.359  1.9504  0.9388 -1.5901
24022SOL    HW273835   0.989   6.852   3.395 -0.6886  1.6868  2.0409
24023SOL     OW73836   0.457   0.820   6.509  0.4129  0.3342  0.4620
24023SOL    HW173837   0.447   0.915   6.516  0.7158  0.4422 -0.4591
24023SOL    HW273838   0.480   0.804   6.418 -0.1430 -0.6763  0.4757
24024SOL     OW73839   6.934   7.750   9.577  0.0898  0.4567  0.6634
24024SOL    HW173840   6.979   7.826   9.540  0.6651  0.2350  0.8958
24024SOL    HW273841   6.854   7.786   9.617  0.2092  0.8930  0.5080
24025SOL     OW73842   9.828   4.691   0.513  0.2424 -0.2113 -0.2624
24025SOL    HW173843   9.734   4.675   0.527  0.0060  0.8360 -0.5465
24025SOL    HW273844   9.872   4.636   0.577 -0.4531 -2.6710 -1.7838
24026SOL     OW73845   2.285   1.672   4.463  0.5077 -0.0655 -0.0470
24026SOL    HW173846   2.270   1.766   4.457  2.0694  0.1092 -2.1502
24026SOL    HW273847   2.304   1.657   4.556  0.8213  1.7877  0.2245
24027SOL     OW73848   8.059   1.138   8.092  0.1081  0.3320  0.8470
24027SOL    HW173849   7.994   1.103   8.153  0.7804  1.5091  2.3170
24027SOL    HW273850   8.142   1.099   8.120  0.3597  0.5125  0.3673
24028SOL     OW73851   8.332   1.228   3.883  0.2668 -0.3965 -0.1111
24028SOL    HW173852   8.256   1.281   3.908 -0.6158 -2.1637  1.1525
24028SOL    HW273853   8.399   1.292   3.858 -0.2886  1.3906  2.5493
24029SOL     OW73854   9.548   8.961   7.679 -0.0087  0.0637 -0.0601
24029SOL    HW173855   9.558   8.866   7.685 -0.4568 -0.0375 -0.8988
24029SOL    HW273856   9.454   8.976   7.676  0.0275  0.6019  0.9647
24030SOL     OW73857   8.057   0.846   6.445 -0.0649  0.2903 -0.4530
24030SOL    HW173858   7.977   0.812   6.485  1.5524 -2.9950  0.3129
24030SOL    HW273859   8.060   0.806   6.358  0.4830  0.8496 -0.7034
24031SOL     OW73860   4.869   5.999   5.003 -0.2602 -0.4269  0.1177
24031SOL    HW173861   4.905   5.916   5.033  0.9765  0.2046  0.4592
24031SOL    HW273862   4.918   6.020   4.924  1.1798  1.0965  1.3202
24032SOL     OW73863   7.248   2.429   6.875 -0.0518  0.5022  0.0248
24032SOL    HW173864   7.319   2.409   6.813 -0.0249 -0.8324  0.4356
24032SOL    HW273865   7.244   2.351   6.931 -2.2564  0.2645 -0.3740
24033SOL     OW73866   8.817   3.855   5.069  0.5381 -0.0002  0.0433
24033SOL    HW173867   8.882   3.788   5.046 -0.0737 -0.3761 -0.6554
24033SOL    HW273868   8.837   3.928   5.009  0.0442 -0.2946 -0.4933
24034SOL     OW73869   1.274   8.229   6.287 -0.4164 -0.2341  0.3228
24034SOL    HW173870   1.224   8.149   6.300 -1.8015  0.7165  1.1049
24034SOL    HW273871   1.325   8.239   6.368  0.8812 -1.0403 -0.3508
24035SOL     OW73872   1.168   4.882   3.493  0.4924 -0.0143 -0.2338
24035SOL    HW173873   1.226   4.921   3.558  0.8012  1.0360 -1.1175
24035SOL    HW273874   1.166   4.945   3.421 -1.0018 -0.4650 -0.6262
24036SOL     OW73875   2.582   1.803   4.573 -0.0672 -0.0090 -0.0896
24036SOL    HW173876   2.659   1.841   4.615  0.8484 -0.3215 -1.4108
24036SOL    HW273877   2.589   1.830   4.481 -1.4490 -0.1845 -0.2682
24037SOL     OW73878   0.697   0.925   8.407 -0.2148  0.1520  0.2033
24037SOL    HW173879   0.641   0.899   8.334 -2.4213  0.5483  1.6794
24037SOL    HW273880   0.753   0.993   8.370  1.8026 -2.5639 -2.2116
24038SOL     OW73881   4.138   6.717   6.191 -0.3618  0.1241  0.3966
24038SOL    HW173882   4.061   6.748   6.239  0.3917  3.4215 -0.2192
24038SOL    HW273883   4.105   6.652   6.130 -2.7269  1.5226  0.0832
24039SOL     OW73884   6.246   3.398   6.935  0.1144  0.5959  0.0768
24039SOL    HW173885   6.236   3.494   6.937 -0.3382  0.5437  0.4775
24039SOL    HW273886   6.276   3.376   7.023 -0.4171  0.3031  0.1882
24040SOL     OW73887   0.085   3.547   5.987 -0.0862  0.3243 -0.5957
24040SOL    HW173888   0.016   3.497   6.030 -1.7221  1.4224 -1.8232
24040SOL    HW273889   0.149   3.482   5.960 -1.3828 -0.9214 -0.7813
24041SOL     OW73890   2.059   6.805   1.851 -0.5497  0.3163  0.0643
24041SOL    HW173891   2.001   6.764   1.787 -3.0452  0.9910  1.7383
24041SOL    HW273892   2.070   6.894   1.819 -0.3979  0.1710 -0.2899
24042SOL     OW73893   3.625   7.297   5.154  0.3354  0.0165 -0.2439
24042SOL    HW173894   3.564   7.251   5.211 -0.0580  0.0293 -0.6551
24042SOL    HW273895   3.709   7.254   5.169  0.0408 -0.5973 -0.3575
24043SOL     OW73896   4.063   2.276   0.550  0.9808  0.5079  0.7006
24043SOL    HW173897   4.083   2.188   0.581  0.9656  0.6450  1.1142
24043SOL    HW273898   3.968   2.280   0.547  0.8523 -0.8550 -3.3237
24044SOL     OW73899   5.017   8.578   7.506 -0.4663 -0.3822  0.2852
24044SOL    HW173900   4.997   8.484   7.514 -0.5164 -0.4533 -0.5501
24044SOL    HW273901   4.951   8.621   7.560  1.9295 -0.9797  4.0847
24045SOL     OW73902   3.316   3.109   7.971 -0.4927  0.2937  0.2383
24045SOL    HW173903   3.250   3.152   7.917  0.1695  0.0448 -0.8148
24045SOL    HW273904   3.267   3.055   8.032 -1.2626 -0.2134 -0.8067
24046SOL     OW73905   6.043   0.778   0.421  0.1897  0.0166 -0.0127
24046SOL    HW173906   6.058   0.685   0.405  0.3418 -0.2360  1.4116
24046SOL    HW273907   6.115   0.822   0.375  1.5285 -0.7576  1.2405
24047SOL     OW73908   4.300   0.065   7.353 -0.2122  0.3434  0.3499
24047SOL    HW173909   4.217   0.073   7.400  0.2138 -1.1939  1.4349
24047SOL    HW273910   4.366   0.063   7.422  0.4717 -1.4973 -0.3080
24048SOL     OW73911   1.426   0.135   3.268  0.1415 -0.0287  0.2949
24048SOL    HW173912   1.388   0.051   3.245  0.0180  0.1547 -0.1794
24048SOL    HW273913   1.354   0.197   3.260  0.6068  0.3725 -0.9196
24049SOL     OW73914   2.400   7.028   8.139  0.0641 -0.7604 -0.0459
24049SOL    HW173915   2.442   7.114   8.133  1.0682 -1.0624  1.9565
24049SOL    HW273916   2.377   7.007   8.048 -0.2652  1.6204 -0.5761
24050SOL     OW73917   5.712   2.063   4.253 -0.2509 -0.5797 -0.6252
24050SOL    HW173918   5.703   1.999   4.324  1.5586  0.6463  0.7632
24050SOL    HW273919   5.648   2.131   4.274  0.9635  0.2776  0.4471
24051SOL     OW73920   4.042   9.443   5.135 -0.3680 -0.3309 -0.6927
24051SOL    HW173921   4.041   9.357   5.092 -0.0617 -1.1696  0.9277
24051SOL    HW273922   4.129   9.478   5.117 -0.0869 -0.8681 -0.4082
24052SOL     OW73923   2.129   7.958   0.707 -0.1932 -0.0031 -0.7157
24052SOL    HW173924   2.053   7.926   0.657 -0.3013  0.1391 -0.6416
24052SOL    HW273925   2.132   8.051   0.688 -1.4249  0.4544  1.0874
24053SOL     OW73926   3.698   4.929   7.721  0.3024  0.2793  0.0554
24053SOL    HW173927   3.743   4.958   7.641 -1.5216 -1.7106 -1.8399
24053SOL    HW273928   3.635   4.999   7.740 -0.1215  0.2260 -1.0576
24054SOL     OW73929   8.737   7.771   1.446  0.1135 -0.7151 -0.4449
24054SOL    HW173930   8.656   7.819   1.426 -0.4877 -1.0908  0.9714
24054SOL    HW273931   8.804   7.816   1.395 -0.2978  2.0967  1.2571
24055SOL     OW73932   3.110   0.369   5.969 -0.3504  0.8693 -0.0654
24055SOL    HW173933   3.045   0.317   6.017 -0.3655  0.2386 -0.7525
24055SOL    HW273934   3.190   0.360   6.019 -0.5045  0.6777  0.1486
24056SOL     OW73935   3.219   2.526   6.852  0.9329  0.1266  0.5821
24056SOL    HW173936   3.237   2.495   6.941  0.2792 -0.1149  0.6331
24056SOL    HW273937   3.166   2.604   6.865  0.5132 -0.1265  0.3985
24057SOL     OW73938   9.698   7.816   7.603  0.2433  0.6409 -0.8639
24057SOL    HW173939   9.613   7.779   7.629  0.6199 -0.4451 -1.1041
24057SOL    HW273940   9.703   7.899   7.649 -0.4258  0.1506  0.1338
24058SOL     OW73941   7.469   2.423   8.373  0.2384  0.0846  0.3046
24058SOL    HW173942   7.513   2.469   8.444  0.4520 -0.3624  0.4657
24058SOL    HW273943   7.437   2.492   8.315 -1.1156  0.5325  1.5210
24059SOL     OW73944   7.110   1.275   3.504 -0.8769 -0.2068  0.4318
24059SOL    HW173945   7.093   1.257   3.412 -0.9264 -2.1184  0.7718
24059SOL    HW273946   7.087   1.194   3.549  1.2565 -0.0972  1.8742
24060SOL     OW73947   4.820   7.439   1.898 -0.6803 -0.1036 -0.1240
24060SOL    HW173948   4.883   7.447   1.826 -0.0969 -0.6626  0.3038
24060SOL    HW273949   4.807   7.344   1.907 -0.4755 -0.0562  0.7237
24061SOL     OW73950   6.604   5.495   9.150  0.4268  0.1270  0.4235
24061SOL    HW173951   6.657   5.443   9.089  0.7714 -0.9053  1.5727
24061SOL    HW273952   6.517   5.458   9.143  0.0540  1.1524 -0.7019
24062SOL     OW73953   0.715   6.510   3.402  0.5335  0.0153 -0.1000
24062SOL    HW173954   0.694   6.447   3.471  1.9655  0.9297  1.2267
24062SOL    HW273955   0.770   6.461   3.341 -0.0694 -0.5782 -0.1756
24063SOL     OW73956   7.232   0.262   8.091  0.0282  0.0500  0.1009
24063SOL    HW173957   7.232   0.292   8.000  0.0043 -1.1505 -0.3217
24063SOL    HW273958   7.144   0.229   8.105  0.4824 -1.2527  0.0195
24064SOL     OW73959   7.457   6.819   9.561 -0.2094  0.5873 -0.3771
24064SOL    HW173960   7.447   6.862   9.646 -0.7770 -0.3729  0.0539
24064SOL    HW273961   7.544   6.846   9.531  0.1059  0.7463  0.6231
24065SOL     OW73962   4.533   1.206   5.357 -0.5164  0.2160  0.3244
24065SOL    HW173963   4.619   1.204   5.316 -0.0106 -1.4993  1.4240
24065SOL    HW273964   4.512   1.300   5.363  1.5777  0.6980  0.7122
24066SOL     OW73965   3.669   6.195   4.702 -0.2231 -0.2602  0.6565
24066SOL    HW173966   3.716   6.215   4.621  0.8824 -2.3096  0.7365
24066SOL    HW273967   3.690   6.269   4.760  0.8804  0.0826 -0.1448
24067SOL     OW73968   6.768   9.532   4.720  0.3401 -0.5064  0.5357
24067SOL    HW173969   6.768   9.627   4.729  0.9327 -0.4180 -0.3214
24067SOL    HW273970   6.773   9.499   4.810 -0.1710  0.2610  0.8562
24068SOL     OW73971   3.680   7.228   4.347 -0.1065  0.2925  0.3153
24068SOL    HW173972   3.775   7.227   4.345 -0.0124  0.7692  2.5490
24068SOL    HW273973   3.656   7.317   4.324  0.2281  1.3489  3.5926
24069SOL     OW73974   2.727   1.125   3.248 -0.4574  0.5060  0.3990
24069SOL    HW173975   2.662   1.194   3.235 -0.6739  0.3263  0.5231
24069SOL    HW273976   2.725   1.108   3.342  0.4881  1.2023  0.5619
24070SOL     OW73977   0.120   7.665   6.642 -0.0845 -0.3330  0.1537
24070SOL    HW173978   0.153   7.646   6.730  0.6199 -0.0952 -0.0522
24070SOL    HW273979   0.113   7.761   6.640 -1.5505 -0.4074  0.4556
24071SOL     OW73980   4.318   2.631   7.598  0.1480  0.1092 -0.5250
24071SOL    HW173981   4.376   2.555   7.606  0.4695  0.5027  1.4221
24071SOL    HW273982   4.301   2.638   7.504  2.0201 -0.9378 -1.0026
24072SOL     OW73983   7.792   7.412   2.004  0.4789 -0.2587  0.3130
24072SOL    HW173984   7.824   7.427   2.093  0.9625 -1.3649  0.3480
24072SOL    HW273985   7.802   7.317   1.991 -0.4441 -0.2447 -0.5906
24073SOL     OW73986   5.653   9.310   0.080  0.8094  0.2230  0.0534
24073SOL    HW173987   5.731   9.347   0.121  0.0151  2.1479 -0.0421
24073SOL    HW273988   5.654   9.344  -0.009  1.3944 -2.1795 -0.9144
24074SOL     OW73989   8.473   9.421   4.805  0.2038  0.5195 -0.2110
24074SOL    HW173990   8.433   9.335   4.820  2.8718 -0.8274 -0.2217
24074SOL    HW273991   8.434   9.477   4.872 -1.0789 -0.8619  0.2669
24075SOL     OW73992   7.026   4.151   5.037 -0.3716 -0.4618  0.3375
24075SOL    HW173993   7.030   4.212   5.111  1.4159 -1.4564  1.1104
24075SOL    HW273994   6.940   4.167   4.998 -0.2640  2.0181  0.9497
24076SOL     OW73995   6.360   3.170   4.839 -0.3556  0.1679 -0.1607
24076SOL    HW173996   6.339   3.264   4.839 -1.1608  0.0178 -1.2843
24076SOL    HW273997   6.333   3.140   4.925  0.0720  1.0060  0.2747
24077SOL     OW73998   2.562   1.283   5.581 -0.2618 -0.2870 -0.4086
24077SOL    HW173999   2.526   1.230   5.510  0.7357  1.2729 -2.1450
24077SOL    HW274000   2.521   1.368   5.571  0.0802  0.0354  0.7647
24078SOL     OW74001   5.892   1.235   0.722  0.2727 -0.4815  0.1141
24078SOL    HW174002   5.878   1.296   0.794  0.3217 -1.6716  1.1641
24078SOL    HW274003   5.932   1.288   0.653  2.1418  0.2900  1.6914
24079SOL     OW74004   1.459   1.093   1.778 -0.3502 -0.4534  0.0902
24079SOL    HW174005   1.542   1.128   1.812 -0.4509 -0.8443  0.7554
24079SOL    HW274006   1.485   1.036   1.706  0.0802 -1.6317  1.1444
24080SOL     OW74007   6.773   7.008   1.746 -0.3340  0.2856  0.1851
24080SOL    HW174008   6.683   6.999   1.713 -0.3822  0.0722  0.3658
24080SOL    HW274009   6.762   7.013   1.841  0.0083 -2.5603  0.4598
24081SOL     OW74010   7.636   7.938   0.636 -0.2797  0.1494  0.2475
24081SOL    HW174011   7.651   8.020   0.683 -0.2225 -0.2658  0.9728
24081SOL    HW274012   7.629   7.963   0.544  1.8905  0.7234  0.1863
24082SOL     OW74013   6.205   4.711   1.375  0.4481  0.4303  0.0721
24082SOL    HW174014   6.173   4.768   1.305 -0.2299  1.1962  0.9665
24082SOL    HW274015   6.134   4.649   1.391 -0.1236  1.3439  1.2181
24083SOL     OW74016   1.238   1.353   7.736 -0.2742  0.4263 -0.5227
24083SOL    HW174017   1.251   1.427   7.795  1.0934 -0.1953 -0.0008
24083SOL    HW274018   1.205   1.282   7.791  0.7555 -0.0754 -0.5132
24084SOL     OW74019   9.282   6.609   9.575  0.5030  0.6364 -0.3882
24084SOL    HW174020   9.295   6.690   9.625  0.9780  0.5678 -0.4016
24084SOL    HW274021   9.189   6.612   9.550  0.4880  1.1243 -0.2976
24085SOL     OW74022   0.026   7.186   2.628  0.5695  0.2024 -0.3333
24085SOL    HW174023   0.116   7.171   2.601  0.6412  0.0036  0.0086
24085SOL    HW274024   0.028   7.269   2.675  0.9244 -0.6597  1.2549
24086SOL     OW74025   6.868   6.533   5.108 -0.6324 -0.3045 -0.7669
24086SOL    HW174026   6.838   6.563   5.194 -0.3066  1.1255 -1.1236
24086SOL    HW274027   6.793   6.547   5.050 -1.8993 -3.9778 -0.2548
24087SOL     OW74028   5.350   2.285   4.945 -0.3922  0.4885  0.0998
24087SOL    HW174029   5.298   2.361   4.974 -4.4846 -2.3911  1.1970
24087SOL    HW274030   5.341   2.286   4.849  2.0954  2.8157 -0.2282
24088SOL     OW74031   8.886   1.259   1.110  0.2829 -0.2253 -0.7541
24088SOL    HW174032   8.861   1.172   1.142  1.9620  0.0415  1.5150
24088SOL    HW274033   8.967   1.279   1.157  0.0511  2.4870 -1.3942
24089SOL     OW74034   9.758   7.373   9.214 -0.3000  0.6522 -0.2256
24089SOL    HW174035   9.721   7.314   9.148  1.3817  0.5380 -1.1179
24089SOL    HW274036   9.807   7.438   9.164  1.5005  0.2334  0.8950
24090SOL     OW74037   4.552   4.166   6.164  0.0530  0.6337 -0.0381
24090SOL    HW174038   4.628   4.198   6.214  0.9165  0.6278 -1.2909
24090SOL    HW274039   4.525   4.241   6.112  0.5730  0.0338 -1.2050
24091SOL     OW74040   6.391   7.223   6.368  0.1565  0.3404 -0.3861
24091SOL    HW174041   6.296   7.207   6.367  0.0124  1.1363 -0.5014
24091SOL    HW274042   6.400   7.313   6.337  0.9320  0.4003 -0.0049
24092SOL     OW74043   1.206   5.279   8.077  0.2658  0.5442 -0.1755
24092SOL    HW174044   1.172   5.263   8.165  0.9731 -0.3701 -0.0479
24092SOL    HW274045   1.273   5.211   8.065  0.3312  0.7982 -1.3324
24093SOL     OW74046   6.926   6.258   8.374  0.0022  0.3869 -0.0137
24093SOL    HW174047   6.936   6.298   8.460 -0.0702  0.4521 -0.0351
24093SOL    HW274048   6.833   6.236   8.369  0.2549 -0.8866  0.4873
24094SOL     OW74049   1.606   3.552   2.116  0.8865 -0.0666  0.1670
24094SOL    HW174050   1.671   3.606   2.072  0.8289 -0.8581 -0.9092
24094SOL    HW274051   1.527   3.607   2.118  0.0441 -0.9316 -3.2182
24095SOL     OW74052   9.031   8.936   1.916  0.1380  0.5506 -0.4104
24095SOL    HW174053   9.023   8.912   2.009 -1.8544  0.8571 -0.4656
24095SOL    HW274054   9.016   8.855   1.869  1.4805  0.3252 -0.5035
24096SOL     OW74055   5.871   0.330   5.244  0.2532  0.4597 -0.0587
24096SOL    HW174056   5.847   0.413   5.283  0.5542 -0.0698  1.2931
24096SOL    HW274057   5.905   0.353   5.157  0.2275  1.7215  0.2537
24097SOL     OW74058   1.648   9.800   3.937  0.3573  0.0711 -0.4798
24097SOL    HW174059   1.682   9.833   4.020 -0.1315 -0.2338 -0.1558
24097SOL    HW274060   1.620   9.878   3.889 -0.0798  0.1910 -0.0371
24098SOL     OW74061   1.785   4.442   3.777  0.2280  0.3876 -0.0067
24098SOL    HW174062   1.695   4.445   3.810  0.1150 -2.9096  0.3847
24098SOL    HW274063   1.775   4.421   3.684  0.5438 -0.2081  0.0861
24099SOL     OW74064   0.877   5.147   6.614 -0.0215  0.0382 -0.0703
24099SOL    HW174065   0.841   5.210   6.552  3.1389  0.3566 -1.7965
24099SOL    HW274066   0.906   5.073   6.559 -0.4248 -1.3692  1.5148
24100SOL     OW74067   0.517   9.036   0.651  0.0193  0.0240 -0.2119
24100SOL    HW174068   0.421   9.036   0.655  0.0067  0.1479 -0.4921
24100SOL    HW274069   0.542   9.123   0.682  0.0358  0.0235 -0.2231
24101SOL     OW74070   8.303   4.173   7.442  0.3142 -0.6456 -0.6092
24101SOL    HW174071   8.337   4.250   7.397 -1.9448  0.9778  0.2257
24101SOL    HW274072   8.217   4.158   7.403  0.3446 -2.2349 -0.1538
24102SOL     OW74073   9.433   4.322   4.334 -0.3770 -0.3935 -0.0908
24102SOL    HW174074   9.482   4.285   4.261 -0.1070  0.2934 -0.2702
24102SOL    HW274075   9.446   4.261   4.406  0.2671 -0.5115 -0.3037
24103SOL     OW74076   1.657   6.312   5.590  0.1251  0.2444 -0.9555
24103SOL    HW174077   1.607   6.367   5.530 -1.1900  0.7234  0.5010
24103SOL    HW274078   1.711   6.257   5.533 -1.2194  0.5159 -2.5785
24104SOL     OW74079   6.138   3.593   4.612 -0.0216  0.1442  0.3585
24104SOL    HW174080   6.049   3.627   4.618  0.5072  1.6754 -0.0568
24104SOL    HW274081   6.194   3.668   4.632  1.2540  0.0794 -2.5799
24105SOL     OW74082   9.639   4.027   0.391 -0.1733  0.1958 -0.0646
24105SOL    HW174083   9.694   3.950   0.379  0.2465  0.5769 -0.6533
24105SOL    HW274084   9.698   4.101   0.376 -0.6234  0.6260  0.2642
24106SOL     OW74085   2.145   2.197   4.222  0.4753 -0.1430  0.1558
24106SOL    HW174086   2.133   2.271   4.162 -1.1291 -0.7308 -0.2826
24106SOL    HW274087   2.104   2.225   4.304  1.3164  0.0635  0.5195
24107SOL     OW74088   0.243   1.496   8.408  0.1398 -0.1850 -0.3389
24107SOL    HW174089   0.260   1.404   8.384  1.2325 -0.3355  0.8839
24107SOL    HW274090   0.328   1.539   8.398 -0.0611  0.3930  0.4051
24108SOL     OW74091   6.605   4.383   5.732 -0.3604  0.0410  0.1476
24108SOL    HW174092   6.586   4.462   5.682 -0.2423  1.5653  2.3452
24108SOL    HW274093   6.692   4.355   5.703  0.0446  1.3493  0.0544
24109SOL     OW74094   6.164   6.846   5.834 -0.2273  0.3941  0.0615
24109SOL    HW174095   6.075   6.878   5.837 -1.4347 -2.4893 -0.9296
24109SOL    HW274096   6.200   6.880   5.752 -0.7718  0.7533 -0.0256
24110SOL     OW74097   9.809   5.080   5.056  0.2677 -0.2057 -0.5130
24110SOL    HW174098   9.735   5.075   5.116 -1.4288 -0.2093 -2.5072
24110SOL    HW274099   9.850   4.994   5.062  0.2402 -0.1556  0.7231
24111SOL     OW74100   6.326   8.859   0.214  0.2901 -0.2299  0.1025
24111SOL    HW174101   6.372   8.869   0.131 -0.5385  0.7163 -0.2641
24111SOL    HW274102   6.335   8.945   0.256 -1.8381  0.2757 -0.3633
24112SOL     OW74103   7.245   9.223   7.856  0.4711 -0.2637  0.0255
24112SOL    HW174104   7.338   9.221   7.879  0.4529  1.5934  0.3658
24112SOL    HW274105   7.208   9.150   7.907  1.0849  1.4108  3.1494
24113SOL     OW74106   0.689   8.402   6.714  0.3651  0.9835 -0.3178
24113SOL    HW174107   0.642   8.467   6.661  0.6353  1.2880 -0.1864
24113SOL    HW274108   0.626   8.331   6.726 -0.5587  1.9735  0.9952
24114SOL     OW74109   5.509   6.903   8.672 -0.0144 -0.4189  0.0516
24114SOL    HW174110   5.598   6.932   8.693 -0.0396 -1.0229  1.0772
24114SOL    HW274111   5.515   6.808   8.670 -0.3129 -0.4244 -1.4962
24115SOL     OW74112   8.529   4.482   3.049 -0.2067  0.3048 -0.3081
24115SOL    HW174113   8.478   4.419   3.100  0.9299 -0.7821 -0.4772
24115SOL    HW274114   8.546   4.554   3.110  1.1464 -0.9717  0.9224
24116SOL     OW74115   5.181   5.990   9.072  0.4539  0.3208  0.2452
24116SOL    HW174116   5.165   5.989   9.167 -0.7233 -3.4315  0.1900
24116SOL    HW274117   5.274   6.009   9.064  1.6573 -3.4426  2.6029
24117SOL     OW74118   2.149   2.755   5.873  0.3722 -0.1958  0.2556
24117SOL    HW174119   2.058   2.783   5.884  0.5329 -0.4237  2.6789
24117SOL    HW274120   2.159   2.682   5.935  1.7489 -1.3413 -1.2391
24118SOL     OW74121   9.460   6.763   1.056  0.1359 -0.0062 -0.4659
24118SOL    HW174122   9.430   6.843   1.011  0.5240  0.5582  0.2677
24118SOL    HW274123   9.509   6.795   1.131  0.8916 -0.9454 -0.5525
24119SOL     OW74124   7.578   0.085   7.272  0.0038  0.2710  0.5502
24119SOL    HW174125   7.632   0.013   7.240  0.1702  0.2334  0.9038
24119SOL    HW274126   7.492   0.071   7.232  0.7299  1.3926 -1.5404
24120SOL     OW74127   9.199   8.080   3.125 -0.0707  0.0647  0.1900
24120SOL    HW174128   9.117   8.034   3.104 -0.0267  0.9774 -2.2547
24120SOL    HW274129   9.170   8.164   3.163 -0.2752  0.2031 -0.2639
24121SOL     OW74130   4.602   7.337   3.306  0.1078 -0.2560  0.2390
24121SOL    HW174131   4.631   7.287   3.230 -0.5904  2.3538 -1.8644
24121SOL    HW274132   4.609   7.428   3.280 -3.7202  0.7299  1.9182
24122SOL     OW74133   8.827   6.583   8.346  0.0900 -1.1157 -0.2123
24122SOL    HW174134   8.913   6.625   8.340 -0.3318 -0.3421 -1.2131
24122SOL    HW274135   8.773   6.647   8.392 -0.1820 -1.2156 -0.3952
24123SOL     OW74136   1.844   8.980   0.416 -0.4668  0.6953 -0.1937
24123SOL    HW174137   1.871   9.060   0.460  1.1173 -0.7235  1.5785
24123SOL    HW274138   1.920   8.956   0.361  0.2737 -1.0187  1.4684
24124SOL     OW74139   6.650   5.647   1.116  0.5003 -0.4141  0.6239
24124SOL    HW174140   6.618   5.735   1.099  0.0936 -0.7080 -0.1925
24124SOL    HW274141   6.720   5.658   1.180  1.4751  0.6701 -0.5802
24125SOL     OW74142   0.682   1.855   9.504  0.5046 -0.2416  0.1256
24125SOL    HW174143   0.742   1.930   9.509 -0.8333  0.7793  2.2146
24125SOL    HW274144   0.597   1.891   9.528 -1.2076 -1.4746 -3.3978
24126SOL     OW74145   3.788   5.972   7.313 -0.3292 -0.0735  0.4643
24126SOL    HW174146   3.883   5.969   7.317 -0.0655 -0.2149 -2.9131
24126SOL    HW274147   3.761   5.881   7.307 -1.0300 -0.2578  4.1538
24127SOL     OW74148   6.350   5.978   6.037 -0.0543 -0.4136  0.5407
24127SOL    HW174149   6.429   5.929   6.012 -0.3143  0.0942 -1.3570
24127SOL    HW274150   6.286   5.958   5.969 -0.8327  0.9662  0.8284
24128SOL     OW74151   6.647   4.329   2.792 -0.8011  0.1761 -0.6974
24128SOL    HW174152   6.594   4.383   2.850  1.3719  0.1412  1.4888
24128SOL    HW274153   6.627   4.239   2.818  0.7466  0.1756  0.6455
24129SOL     OW74154   4.517   1.870   5.999  0.6034 -0.0836  0.3035
24129SOL    HW174155   4.541   1.860   6.091 -0.8622 -0.4869  0.6769
24129SOL    HW274156   4.465   1.950   5.996  0.4087 -0.2214 -0.1178
24130SOL     OW74157   9.440   2.962   1.532  0.2614 -0.8181 -0.3100
24130SOL    HW174158   9.458   3.047   1.492  0.9846 -0.9841 -0.3429
24130SOL    HW274159   9.459   2.975   1.625 -0.6284 -0.6620 -0.1387
24131SOL     OW74160   4.112   1.030   1.967  0.1823  0.1086  0.1659
24131SOL    HW174161   4.148   0.967   2.029  0.3417  0.6297  0.6172
24131SOL    HW274162   4.134   1.115   2.005  1.1670  0.4570 -1.1009
24132SOL     OW74163   4.024   1.626   3.620 -0.4028 -0.1294  0.6384
24132SOL    HW174164   4.080   1.684   3.568 -0.2322  0.0214  0.9904
24132SOL    HW274165   3.940   1.627   3.574 -0.2462 -0.0182  0.3492
24133SOL     OW74166   6.034   8.544   4.464 -0.2388 -0.2588 -0.4633
24133SOL    HW174167   5.963   8.539   4.527  0.0892  0.7302  0.0047
24133SOL    HW274168   6.070   8.455   4.462 -1.1154 -0.6283 -0.2884
24134SOL     OW74169   1.212   2.900   9.344 -0.0525  0.4079 -0.3599
24134SOL    HW174170   1.155   2.892   9.267  0.0710  0.2416 -0.4354
24134SOL    HW274171   1.153   2.925   9.415 -0.2475  0.0764 -0.4024
24135SOL     OW74172   9.757   6.401   9.451 -0.1814 -0.6243  0.2827
24135SOL    HW174173   9.802   6.380   9.369  1.8771  1.2739  0.8284
24135SOL    HW274174   9.692   6.332   9.461  0.2018 -1.4863 -2.4114
24136SOL     OW74175   7.117   8.786   2.569 -0.7135 -0.2040  0.3007
24136SOL    HW174176   7.209   8.794   2.592 -0.3162 -1.0718 -0.8881
24136SOL    HW274177   7.072   8.846   2.628  0.4000 -1.0624  2.1237
24137SOL     OW74178   2.567   4.828   6.841  0.0589 -0.3386  0.2837
24137SOL    HW174179   2.493   4.813   6.782  0.2064 -1.3580  0.3485
24137SOL    HW274180   2.639   4.853   6.782  0.0298 -0.6989  0.0956
24138SOL     OW74181   0.860   6.796   1.551 -0.3018 -0.2137  0.0107
24138SOL    HW174182   0.922   6.823   1.619 -0.1209 -0.2353 -0.1424
24138SOL    HW274183   0.914   6.789   1.472 -0.7091  0.9256 -0.3876
24139SOL     OW74184   1.265   2.238   0.547 -0.1033  0.1554 -0.0627
24139SOL    HW174185   1.195   2.177   0.571 -0.1410  0.5499  0.8641
24139SOL    HW274186   1.219   2.315   0.513 -0.1090  0.2561  0.1709
24140SOL     OW74187   7.677   1.653   6.395  0.0382 -0.2873  0.1321
24140SOL    HW174188   7.673   1.575   6.450 -0.2292 -0.9878 -0.8610
24140SOL    HW274189   7.771   1.667   6.381  0.0606 -1.1595 -0.6811
24141SOL     OW74190   2.515   7.436   0.476  0.1441  0.7053  0.2327
24141SOL    HW174191   2.430   7.463   0.441  0.9732  0.3910 -2.3044
24141SOL    HW274192   2.552   7.379   0.407  2.4746  0.9962  1.1386
24142SOL     OW74193   3.994   3.903   3.436 -0.8480 -0.1786  0.2064
24142SOL    HW174194   4.084   3.929   3.420 -1.1534  0.2581 -0.9183
24142SOL    HW274195   3.972   3.942   3.521 -0.1014  0.0408  0.2999
24143SOL     OW74196   7.644   6.595   1.545 -0.3252  0.0094  0.6822
24143SOL    HW174197   7.619   6.683   1.516 -0.3367  0.3821  1.7618
24143SOL    HW274198   7.605   6.587   1.632 -0.4737 -1.1410  0.5226
24144SOL     OW74199   9.497   3.130   6.434  0.5633  0.3916  0.3979
24144SOL    HW174200   9.404   3.136   6.411  0.4020  0.4733  1.0412
24144SOL    HW274201   9.543   3.149   6.352  0.0440 -2.2177 -0.5856
24145SOL     OW74202   5.372   3.384   3.261  0.0550 -0.2531 -0.0807
24145SOL    HW174203   5.397   3.368   3.352  1.9090  3.3874  0.2283
24145SOL    HW274204   5.286   3.426   3.267  0.5277  0.7234  0.1227
24146SOL     OW74205   0.270   1.050   4.592  0.0440 -0.0547  0.5222
24146SOL    HW174206   0.222   1.003   4.661  0.0522 -0.9751 -0.0808
24146SOL    HW274207   0.205   1.062   4.523  0.5858 -1.0734 -0.1882
24147SOL     OW74208   6.963   6.415   0.502  0.0589 -0.0597 -0.4554
24147SOL    HW174209   6.964   6.506   0.532 -1.5826  0.5138 -1.9353
24147SOL    HW274210   7.029   6.412   0.433  0.3576 -0.0824 -0.1683
24148SOL     OW74211   0.140   8.149   5.797 -0.4142  0.2432 -0.5433
24148SOL    HW174212   0.084   8.080   5.831  0.4926 -0.6111 -0.7509
24148SOL    HW274213   0.116   8.226   5.849 -1.3320 -0.2473 -0.2066
24149SOL     OW74214   8.778   6.638   7.720 -0.5591 -0.3272 -0.3120
24149SOL    HW174215   8.797   6.545   7.707  0.4283 -0.0973 -0.5959
24149SOL    HW274216   8.682   6.643   7.718 -0.6222 -1.0491 -2.4506
24150SOL     OW74217   7.788   1.975   3.413  0.0184  0.1359  0.2277
24150SOL    HW174218   7.724   1.975   3.484 -0.8489  0.8863 -0.5062
24150SOL    HW274219   7.873   1.976   3.456 -0.4903  1.1991  1.2789
24151SOL     OW74220   1.843   1.689   5.670 -0.9252 -0.3912  0.0590
24151SOL    HW174221   1.769   1.645   5.627 -0.2124 -0.6357 -0.9702
24151SOL    HW274222   1.822   1.687   5.763 -1.6064 -1.6066 -0.1018
24152SOL     OW74223   0.387   9.013   2.881 -0.4616  0.0186  0.1906
24152SOL    HW174224   0.374   8.918   2.872  0.7896 -0.2896  1.2335
24152SOL    HW274225   0.382   9.028   2.976 -1.5436  1.1600 -0.0267
24153SOL     OW74226   2.692   8.622   3.318 -0.3332  0.3402  0.6344
24153SOL    HW174227   2.628   8.641   3.387 -0.5784 -0.3696  0.6077
24153SOL    HW274228   2.688   8.527   3.307  0.7631  0.2779  0.6617
24154SOL     OW74229   1.537   0.109   8.166  0.1643 -0.3837  0.1209
24154SOL    HW174230   1.593   0.149   8.099  0.4204 -0.2157  0.4347
24154SOL    HW274231   1.574   0.021   8.178 -0.2969 -0.6661 -0.4479
24155SOL     OW74232   9.621   9.513   5.782  0.3773 -0.0900 -0.1154
24155SOL    HW174233   9.533   9.478   5.795 -0.8641  3.1456  1.1707
24155SOL    HW274234   9.613   9.567   5.703  2.4044 -2.8425 -2.4432
24156SOL     OW74235   2.138   1.115   6.473 -0.1887 -0.8223 -0.5750
24156SOL    HW174236   2.069   1.181   6.462  0.0814 -0.2812  0.8323
24156SOL    HW274237   2.218   1.166   6.487  0.4146 -1.4519 -1.5741
24157SOL     OW74238   9.775   6.772   6.397  0.2234  0.2875 -0.4466
24157SOL    HW174239   9.854   6.721   6.416 -0.2825  0.0730  1.2511
24157SOL    HW274240   9.806   6.844   6.342  1.6942  0.4651  0.5399
24158SOL     OW74241   7.837   2.254   3.451 -0.4115 -0.1122  0.5254
24158SOL    HW174242   7.861   2.312   3.524 -0.1550 -1.4982  1.5768
24158SOL    HW274243   7.859   2.166   3.482  0.4667 -0.6724 -1.5388
24159SOL     OW74244   3.891   5.109   0.773 -0.0862  0.4097  0.1662
24159SOL    HW174245   3.859   5.035   0.825  0.4912  1.0284  1.4565
24159SOL    HW274246   3.967   5.141   0.823  1.1084  0.4259 -1.5766
24160SOL     OW74247   2.068   4.238   3.148 -0.0288  0.4052  0.3645
24160SOL    HW174248   2.019   4.220   3.067 -1.4953 -1.3698  1.5504
24160SOL    HW274249   2.036   4.323   3.177  1.5520  1.7688 -1.5599
24161SOL     OW74250   6.834   9.661   0.622 -0.0978 -0.3180  0.2054
24161SOL    HW174251   6.789   9.613   0.692 -0.9401  0.1217 -0.0183
24161SOL    HW274252   6.766   9.674   0.555  0.9373 -1.6477 -1.1781
24162SOL     OW74253   2.010   5.344   6.965 -0.2687 -0.5023 -0.1852
24162SOL    HW174254   2.101   5.372   6.966  0.2548 -2.0414 -1.1146
24162SOL    HW274255   2.000   5.290   7.043 -0.6838  0.4443  0.4417
24163SOL     OW74256   0.698   2.028   7.956 -0.8212 -0.2513 -0.1464
24163SOL    HW174257   0.621   1.988   7.914 -0.8244 -0.8258  0.4035
24163SOL    HW274258   0.765   1.960   7.952 -0.5209  0.0407 -0.0853
24164SOL     OW74259   3.786   1.417   3.274  0.2002 -0.3369  0.2294
24164SOL    HW174260   3.852   1.347   3.268  0.5400  0.0833 -1.9154
24164SOL    HW274261   3.703   1.371   3.285  0.6275 -0.9688  0.9036
24165SOL     OW74262   0.193   9.115   3.336  0.3287 -0.2058  0.3515
24165SOL    HW174263   0.156   9.028   3.323 -0.1428  0.1588 -0.8665
24165SOL    HW274264   0.243   9.132   3.256 -1.0722  1.3546 -0.2367
24166SOL     OW74265   6.885   3.914   1.027  0.2557 -0.7834 -0.2533
24166SOL    HW174266   6.798   3.920   0.988  0.5448 -0.1464 -0.8144
24166SOL    HW274267   6.875   3.853   1.100 -0.3072 -1.9315 -1.2694
24167SOL     OW74268   5.039   5.164   5.880 -0.2924  0.2241 -0.3470
24167SOL    HW174269   5.132   5.172   5.902 -0.1534 -0.5623 -0.6175
24167SOL    HW274270   5.007   5.095   5.938 -0.3495 -0.5619 -1.2737
24168SOL     OW74271   5.548   3.731   3.370 -0.4187  0.0906 -0.5675
24168SOL    HW174272   5.586   3.648   3.342  1.7514  0.5186  0.8646
24168SOL    HW274273   5.541   3.782   3.290  1.0121 -0.4529 -1.0830
24169SOL     OW74274   9.292   9.634   3.211  0.2437  0.5272  0.1212
24169SOL    HW174275   9.267   9.689   3.285 -2.1775  1.6678 -1.4033
24169SOL    HW274276   9.214   9.581   3.193  0.9994 -0.2028 -1.1862
24170SOL     OW74277   6.349   7.035   3.634  0.3577 -0.4773  0.6398
24170SOL    HW174278   6.432   7.023   3.588  1.4861  0.2760  2.3570
24170SOL    HW274279   6.288   6.975   3.591  2.5401 -3.2863  1.1478
24171SOL     OW74280   0.589   6.904   6.063 -0.2560 -0.3273  0.2724
24171SOL    HW174281   0.498   6.874   6.058 -0.5652  0.4927  0.8953
24171SOL    HW274282   0.593   6.980   6.006  0.0325 -0.3297  0.2871
24172SOL     OW74283   7.006   6.640   9.201 -0.3278  0.2115 -0.2251
24172SOL    HW174284   6.966   6.702   9.262 -0.0905  0.2193 -0.0775
24172SOL    HW274285   7.020   6.561   9.254 -1.6487 -0.3591 -0.6833
24173SOL     OW74286   6.295   1.404   1.255  0.1993  0.0468  0.7702
24173SOL    HW174287   6.337   1.327   1.294 -0.7062 -1.6469 -1.3934
24173SOL    HW274288   6.201   1.389   1.269  0.0150  0.7595  0.3371
24174SOL     OW74289   8.579   8.969   4.153 -0.2982  0.4771  0.3323
24174SOL    HW174290   8.569   8.900   4.218 -0.1610  1.2800  1.2327
24174SOL    HW274291   8.535   8.936   4.075 -0.7366 -0.3760  0.9312
24175SOL     OW74292   5.555   4.581   8.439 -0.4471  0.6410  0.3327
24175SOL    HW174293   5.526   4.582   8.530  1.3623  3.5864  0.9977
24175SOL    HW274294   5.495   4.641   8.394  0.1516  1.1152  0.1484
24176SOL     OW74295   1.653   5.581   8.358  0.0063 -0.0971  0.0055
24176SOL    HW174296   1.694   5.552   8.439  0.3719  1.0718  0.2573
24176SOL    HW274297   1.568   5.538   8.358  0.4251 -0.9440  0.4833
24177SOL     OW74298   3.501   5.400   5.141 -0.5047 -0.2644  0.4439
24177SOL    HW174299   3.496   5.305   5.132  0.6879 -0.4001  1.0377
24177SOL    HW274300   3.486   5.416   5.234  1.1067 -0.0382  0.6930
24178SOL     OW74301   8.919   6.021   6.177  0.5549  0.1468  0.1984
24178SOL    HW174302   8.872   5.979   6.104  1.9525  1.0277 -1.2860
24178SOL    HW274303   8.852   6.034   6.244 -0.5770 -1.6009 -0.5071
24179SOL     OW74304   7.246   3.809   6.026  0.2685 -0.0144  0.4112
24179SOL    HW174305   7.233   3.860   5.946  1.1925  0.7236  0.7049
24179SOL    HW274306   7.282   3.872   6.089 -0.5133 -0.5629  1.4371
24180SOL     OW74307   9.577   8.446   2.157  0.1479 -0.1628  0.3027
24180SOL    HW174308   9.490   8.483   2.138  0.6538  0.5285 -0.7394
24180SOL    HW274309   9.636   8.494   2.099  0.9598 -1.9860 -0.4291
24181SOL     OW74310   4.694   6.976   2.980  0.1808 -1.2402  0.7298
24181SOL    HW174311   4.668   6.899   2.929  0.2620 -1.3166  0.8032
24181SOL    HW274312   4.777   6.951   3.019 -0.6175 -1.7684  2.1638
24182SOL     OW74313   5.966   9.401   3.893  0.5156  0.1931 -0.2640
24182SOL    HW174314   6.001   9.344   3.961  0.3877 -1.0507 -1.2071
24182SOL    HW274315   5.998   9.363   3.811 -1.4258  0.1530 -1.0447
24183SOL     OW74316   5.673   9.313   7.057 -0.3303  0.3756  0.0715
24183SOL    HW174317   5.614   9.372   7.011 -0.0739 -0.7478 -1.8423
24183SOL    HW274318   5.739   9.290   6.991  0.4932 -0.7507  1.2414
24184SOL     OW74319   1.473   4.733   9.290  0.9327  0.0508  0.6667
24184SOL    HW174320   1.463   4.815   9.338  0.4765 -0.5580  1.6374
24184SOL    HW274321   1.383   4.701   9.279  0.9126  0.7139 -1.5909
24185SOL     OW74322   2.078   1.003   8.906  0.3729  0.2517 -0.5673
24185SOL    HW174323   2.071   1.098   8.912 -1.1754  0.1031  0.3628
24185SOL    HW274324   2.154   0.982   8.960 -0.3676  0.8277  0.7472
24186SOL     OW74325   7.648   6.471   4.196  0.6360 -0.2594  0.1786
24186SOL    HW174326   7.646   6.381   4.226  0.8199 -0.1569  0.5045
24186SOL    HW274327   7.653   6.465   4.101  1.1302 -0.5932  0.2248
24187SOL     OW74328   4.463   0.575   8.097  0.9481 -0.4045  0.3401
24187SOL    HW174329   4.478   0.661   8.058  1.5398  0.0910  1.6070
24187SOL    HW274330   4.543   0.526   8.081  0.9542 -0.4108  0.3866
24188SOL     OW74331   9.418   8.004   8.988  0.2866  0.0924 -0.3029
24188SOL    HW174332   9.487   7.987   9.052 -0.2836 -0.4746  0.1752
24188SOL    HW274333   9.339   7.968   9.028 -0.2164  0.3947 -1.0082
24189SOL     OW74334   8.564   2.420   5.083  0.3207  0.3718  0.3092
24189SOL    HW174335   8.477   2.447   5.055 -0.1366  0.5049  1.7933
24189SOL    HW274336   8.571   2.329   5.054  0.8399  1.1608 -2.3415
24190SOL     OW74337   4.264   7.712   2.360 -0.0370  0.3012 -0.6135
24190SOL    HW174338   4.182   7.680   2.323 -1.0148 -2.0034  3.0186
24190SOL    HW274339   4.330   7.647   2.336  0.7457  1.8281 -2.9901
24191SOL     OW74340   7.595   6.807   8.509 -0.2719 -0.2125 -0.7345
24191SOL    HW174341   7.513   6.761   8.529  0.1712 -0.5468  0.4007
24191SOL    HW274342   7.660   6.738   8.502  0.3555  0.1870  0.7439
24192SOL     OW74343   7.487   4.131   5.634  0.4933  0.1915  0.1974
24192SOL    HW174344   7.532   4.142   5.550 -2.1386  0.7963 -1.2108
24192SOL    HW274345   7.479   4.220   5.669  0.5290  0.0597  0.5522
24193SOL     OW74346   2.669   0.782   6.276  0.0429 -0.0271  0.1350
24193SOL    HW174347   2.576   0.802   6.261 -0.3599 -0.3740  1.9671
24193SOL    HW274348   2.711   0.867   6.289 -0.2422  0.0690  0.4393
24194SOL     OW74349   2.517   1.047   7.940 -0.4102 -0.0323 -0.1114
24194SOL    HW174350   2.567   1.116   7.984 -0.6784  0.0293  0.1046
24194SOL    HW274351   2.477   0.997   8.012  0.6566 -1.0907 -0.2278
24195SOL     OW74352   2.813   9.625   1.889 -0.0360  0.3518 -0.2626
24195SOL    HW174353   2.791   9.572   1.812  0.2867  0.9129 -0.7532
24195SOL    HW274354   2.888   9.581   1.928 -0.0211  0.2185 -0.4371
24196SOL     OW74355   8.962   3.839   0.120 -0.4365 -0.2623  0.2844
24196SOL    HW174356   8.944   3.747   0.143 -1.2233 -0.1004  0.3370
24196SOL    HW274357   9.046   3.858   0.163 -0.5320 -0.7974  0.7228
24197SOL     OW74358   8.890   4.897   2.180  0.5318 -0.3262 -0.5638
24197SOL    HW174359   8.933   4.890   2.265  0.8003  0.8771 -0.5890
24197SOL    HW274360   8.801   4.866   2.196  0.2885  0.7987  0.4027
24198SOL     OW74361   7.956   8.620   7.042 -0.1142 -1.0130 -0.7026
24198SOL    HW174362   8.001   8.559   7.101  0.1228  0.0003  0.2099
24198SOL    HW274363   8.018   8.693   7.032  0.3362 -1.6297 -3.1509
24199SOL     OW74364   6.062   7.324   1.851  0.5836  0.2736 -0.5272
24199SOL    HW174365   5.969   7.309   1.833  1.1725 -1.2853 -2.7451
24199SOL    HW274366   6.080   7.411   1.816  0.3009 -0.1076 -1.6454
24200SOL     OW74367   0.211   7.540   5.765  0.0950 -0.0581  0.2255
24200SOL    HW174368   0.299   7.566   5.737 -0.0602 -0.5399 -0.7450
24200SOL    HW274369   0.170   7.622   5.792  0.0150  0.5922 -1.6816
24201SOL     OW74370   2.412   6.788   7.926  0.1058  0.3050  0.2244
24201SOL    HW174371   2.390   6.881   7.917  0.8805  0.6154  1.2788
24201SOL    HW274372   2.508   6.786   7.922  0.0861 -0.4700  0.0807
24202SOL     OW74373   8.764   6.008   2.947  0.5944 -0.0296 -0.1204
24202SOL    HW174374   8.693   6.025   2.886  2.5746  1.1927 -2.2252
24202SOL    HW274375   8.749   6.070   3.019 -1.3440 -0.9726  0.3529
24203SOL     OW74376   6.282   0.153   1.268  0.3502 -0.4268  0.1818
24203SOL    HW174377   6.314   0.243   1.276  0.4957 -0.5161  0.6030
24203SOL    HW274378   6.187   0.163   1.257  0.5734 -0.1172 -1.9214
24204SOL     OW74379   0.232   9.304   4.107 -0.1936  0.4135  0.2145
24204SOL    HW174380   0.273   9.222   4.079  1.2579  1.6813 -1.5966
24204SOL    HW274381   0.150   9.308   4.059  0.1503  0.4330 -0.3780
24205SOL     OW74382   3.054   1.279   8.106 -0.1753  0.0432 -0.0596
24205SOL    HW174383   3.110   1.269   8.183 -0.3496  1.4083  0.2748
24205SOL    HW274384   3.079   1.208   8.048  0.4909 -0.5580  0.9463
24206SOL     OW74385   9.549   7.984   3.380 -0.0485  0.2107  0.0572
24206SOL    HW174386   9.533   7.901   3.425  2.0850  0.6553  1.7991
24206SOL    HW274387   9.486   8.045   3.419  0.8889  0.2654  1.5727
24207SOL     OW74388   6.986   1.841   2.322  0.2547  0.3174  0.2198
24207SOL    HW174389   7.069   1.874   2.357  0.2707  0.8419 -0.2966
24207SOL    HW274390   6.923   1.856   2.393  0.4679  0.5366  0.3666
24208SOL     OW74391   6.635   8.248   9.301 -0.4458  0.3201 -0.4391
24208SOL    HW174392   6.610   8.260   9.393 -1.8914 -0.2363 -0.7420
24208SOL    HW274393   6.553   8.254   9.252 -0.1417 -2.1683 -1.4088
24209SOL     OW74394   8.533   2.533   0.272  0.0486  0.5350 -0.4592
24209SOL    HW174395   8.562   2.478   0.198  0.4747  1.4442 -0.9831
24209SOL    HW274396   8.460   2.484   0.310 -0.2480  0.0831 -1.5456
24210SOL     OW74397   2.645   8.066   5.430  0.0402  0.3107 -0.0669
24210SOL    HW174398   2.700   8.100   5.501  3.7980 -0.7576 -2.1868
24210SOL    HW274399   2.641   7.972   5.445  2.2063 -0.1705 -1.8939
24211SOL     OW74400   6.670   1.066   5.735 -0.3284  0.6829  0.0658
24211SOL    HW174401   6.753   1.097   5.699  0.3297 -1.5301 -0.4744
24211SOL    HW274402   6.681   1.074   5.830  0.5193  0.3646  0.0014
24212SOL     OW74403   7.636   2.735   1.783  0.1055  0.0261 -0.6318
24212SOL    HW174404   7.643   2.815   1.731 -1.6852  0.1961 -0.6605
24212SOL    HW274405   7.716   2.735   1.837  1.0397  0.8377 -1.9603
24213SOL     OW74406   8.457   9.273   2.417  0.4882 -0.2000 -0.3163
24213SOL    HW174407   8.515   9.346   2.397  1.3494 -1.1389 -1.3376
24213SOL    HW274408   8.411   9.301   2.497 -0.2988  2.0834 -1.4539
24214SOL     OW74409   4.438   0.984   8.497  0.3760 -0.1442  0.7438
24214SOL    HW174410   4.372   0.997   8.429  0.3747 -0.0797  0.7576
24214SOL    HW274411   4.487   0.907   8.468 -0.7526 -1.2118  1.5599
24215SOL     OW74412   2.468   4.105   9.229  0.5475 -0.0529  0.1631
24215SOL    HW174413   2.425   4.100   9.144  2.3345  2.4879 -0.9895
24215SOL    HW274414   2.397   4.127   9.290 -0.2345  1.8101 -1.3199
24216SOL     OW74415   5.734   9.401   2.552 -0.1437  0.1971 -0.7479
24216SOL    HW174416   5.696   9.423   2.638  0.8331 -2.8714  0.6076
24216SOL    HW274417   5.706   9.311   2.536  1.6430 -0.0968 -2.5631
24217SOL     OW74418   3.420   2.899   4.714 -0.2453 -0.0928  0.2147
24217SOL    HW174419   3.456   2.906   4.802  1.1455 -0.9677 -0.2582
24217SOL    HW274420   3.425   2.989   4.679 -0.0639  0.1094  0.7535
24218SOL     OW74421   5.218   9.666   5.280  0.4136 -0.5571 -0.1116
24218SOL    HW174422   5.198   9.689   5.190  2.1761  1.0413 -0.1515
24218SOL    HW274423   5.150   9.708   5.332  0.9449  0.8879 -0.5344
24219SOL     OW74424   1.715   9.310   8.499 -0.1176 -0.4666 -0.6600
24219SOL    HW174425   1.773   9.242   8.464  2.1810  1.2839 -0.5373
24219SOL    HW274426   1.665   9.340   8.424  1.2381 -0.0957 -1.4586
24220SOL     OW74427   8.284   1.894   5.496  0.2604 -0.2554 -0.4127
24220SOL    HW174428   8.347   1.941   5.441 -1.5947  0.3409 -2.1293
24220SOL    HW274429   8.330   1.814   5.520  0.4050 -1.8713 -5.0303
24221SOL     OW74430   2.643   0.259   8.313  0.1804  0.3424 -0.1538
24221SOL    HW174431   2.717   0.311   8.281  0.9888 -0.7182 -0.0527
24221SOL    HW274432   2.581   0.258   8.239 -0.7115  2.9490  0.4573
24222SOL     OW74433   7.910   6.588   0.805 -0.2322  0.0718 -0.2546
24222SOL    HW174434   7.842   6.630   0.753  1.2609  1.0921 -1.4753
24222SOL    HW274435   7.933   6.509   0.756  1.1871  1.0413 -1.2271
24223SOL     OW74436   5.894   7.094   1.635 -0.1417  0.4500 -0.0885
24223SOL    HW174437   5.881   6.999   1.625 -1.2354  0.4334  1.1874
24223SOL    HW274438   5.988   7.107   1.624 -0.0746 -0.6822 -1.0080
24224SOL     OW74439   7.822   4.654   8.422 -0.1781  0.4950 -0.4579
24224SOL    HW174440   7.805   4.632   8.330 -0.4040  0.4156 -0.3980
24224SOL    HW274441   7.913   4.684   8.423  0.3243 -0.9381 -0.4514
24225SOL     OW74442   8.112   2.876   5.248  0.2160 -0.2445  0.4637
24225SOL    HW174443   8.178   2.821   5.291 -0.2350 -0.7227  0.5483
24225SOL    HW274444   8.141   2.882   5.157 -0.8511 -2.3972 -0.0760
24226SOL     OW74445   6.172   5.761   5.899  0.0288 -0.2873 -0.2829
24226SOL    HW174446   6.085   5.794   5.919 -0.0712  0.1534 -1.3778
24226SOL    HW274447   6.165   5.666   5.909  0.2943 -0.1023  2.8231
24227SOL     OW74448   4.979   7.511   3.785  0.1810 -0.3188 -0.1099
24227SOL    HW174449   5.015   7.484   3.869 -0.9466  1.2097  0.9060
24227SOL    HW274450   4.931   7.434   3.754 -0.6652 -0.4330  1.3880
24228SOL     OW74451   9.219   1.397   9.317 -0.0892 -0.4045  0.0237
24228SOL    HW174452   9.136   1.381   9.362 -0.1755 -0.2713 -0.0874
24228SOL    HW274453   9.261   1.311   9.313  0.0402 -0.3693  0.5992
24229SOL     OW74454   1.575   1.630   9.155  0.0240 -0.4188  0.3865
24229SOL    HW174455   1.655   1.654   9.108 -0.8037 -1.2722 -1.5623
24229SOL    HW274456   1.595   1.546   9.195 -0.4689 -1.6053 -1.7447
24230SOL     OW74457   3.996   0.559   1.942  0.4160  0.2793 -0.7523
24230SOL    HW174458   3.981   0.622   2.013  0.1376 -1.0683  0.4272
24230SOL    HW274459   3.947   0.481   1.968  0.6792 -0.4157 -2.2192
24231SOL     OW74460   9.123   4.666   6.975 -0.0567  0.1160  0.2444
24231SOL    HW174461   9.201   4.697   7.022 -0.2121  0.7145  0.1174
24231SOL    HW274462   9.053   4.726   7.002 -0.3602 -0.1110 -0.0291
24232SOL     OW74463   7.611   0.017   7.954 -0.3498  0.1641 -0.2847
24232SOL    HW174464   7.564   0.091   7.991  0.1067  1.0830 -1.4764
24232SOL    HW274465   7.557  -0.060   7.975 -0.6766  0.7787  1.2287
24233SOL     OW74466   8.375   1.467   7.274 -0.5686  0.6556 -0.0712
24233SOL    HW174467   8.345   1.452   7.185  1.3820  0.1574 -0.6895
24233SOL    HW274468   8.364   1.382   7.318 -1.2700  0.8271  0.0901
24234SOL     OW74469   5.006   8.212   2.814 -0.2177  0.2374 -0.2744
24234SOL    HW174470   4.934   8.150   2.826  0.2407 -0.0641  1.0309
24234SOL    HW274471   4.972   8.295   2.846  0.1559 -0.0136  0.8220
24235SOL     OW74472   3.289   0.102   2.578  0.0725  0.7740 -0.1165
24235SOL    HW174473   3.281   0.176   2.637  0.8392  0.7316  0.0418
24235SOL    HW274474   3.316   0.029   2.634 -1.7277  0.0823 -0.0674
24236SOL     OW74475   6.882   0.291   8.704  0.0313  0.0684  0.4107
24236SOL    HW174476   6.958   0.281   8.761  1.5428 -0.6950 -1.5864
24236SOL    HW274477   6.845   0.203   8.697 -0.1255  0.1489  0.2058
24237SOL     OW74478   1.468   1.735   0.749  0.4515 -0.1848 -0.3908
24237SOL    HW174479   1.457   1.811   0.806 -1.4959 -0.3346 -0.4820
24237SOL    HW274480   1.557   1.741   0.716  0.9013  1.0785  0.9937
24238SOL     OW74481   5.642   5.221   9.680 -0.3559 -0.0644  0.1000
24238SOL    HW174482   5.584   5.145   9.679 -0.8949  0.3197  0.8404
24238SOL    HW274483   5.680   5.220   9.768  0.2667  0.0510 -0.1692
24239SOL     OW74484   8.951   5.475   2.812 -0.5123 -0.8207  0.0180
24239SOL    HW174485   8.983   5.552   2.765  1.0344 -0.5402  1.4389
24239SOL    HW274486   8.989   5.401   2.766 -3.3778 -0.9635 -2.4235
24240SOL     OW74487   4.332   6.299   5.744  0.2148  0.0810 -0.0441
24240SOL    HW174488   4.399   6.235   5.720  1.5507  1.3894  0.0700
24240SOL    HW274489   4.256   6.275   5.690  0.5377 -1.7972  0.2558
24241SOL     OW74490   4.353   8.257   7.083  0.3408  0.0373 -0.0714
24241SOL    HW174491   4.366   8.344   7.123  1.6815 -1.2580  2.5898
24241SOL    HW274492   4.441   8.222   7.072 -0.1531 -0.7890 -1.7273
24242SOL     OW74493   8.592   2.307   4.277  0.0310 -0.2278  0.2722
24242SOL    HW174494   8.606   2.218   4.244  0.3938 -0.3763  0.8036
24242SOL    HW274495   8.513   2.300   4.331  1.0951 -0.6661  1.8347
24243SOL     OW74496   2.534   9.676   8.950 -0.4541 -0.3821 -0.6496
24243SOL    HW174497   2.468   9.645   9.012  0.8712 -0.8649  0.5580
24243SOL    HW274498   2.487   9.740   8.896 -1.8211 -0.4301  0.4205
24244SOL     OW74499   3.365   7.127   0.138  0.1342  0.0244 -0.3779
24244SOL    HW174500   3.394   7.172   0.059  0.5087 -0.7502 -0.6853
24244SOL    HW274501   3.274   7.103   0.119  0.0885  0.2106 -0.4030
24245SOL     OW74502   5.708   5.583   1.933 -0.0239  0.0056  0.2186
24245SOL    HW174503   5.740   5.666   1.898 -0.4747  0.1133  0.0546
24245SOL    HW274504   5.657   5.545   1.862 -0.3607 -0.1041  0.5162
24246SOL     OW74505   9.558   4.177   1.345 -0.5907  0.0827  0.2976
24246SOL    HW174506   9.597   4.221   1.269  0.5561  0.0561  0.8569
24246SOL    HW274507   9.622   4.111   1.371 -1.0961 -0.1006  1.1223
24247SOL     OW74508   2.743   4.143   1.478 -0.4716  0.1989 -0.0248
24247SOL    HW174509   2.760   4.205   1.406  1.5443  0.0977  0.3054
24247SOL    HW274510   2.760   4.193   1.557  0.7098 -0.5988  0.2586
24248SOL     OW74511   8.364   2.688   0.483 -0.3539  0.5448 -0.0988
24248SOL    HW174512   8.428   2.728   0.424  1.1511 -0.3252  0.8600
24248SOL    HW274513   8.347   2.602   0.445  2.7706 -1.2020  2.0096
24249SOL     OW74514   9.367   2.300   4.315 -0.0649  0.0882  0.0841
24249SOL    HW174515   9.291   2.336   4.269  0.0480  0.4730  0.1944
24249SOL    HW274516   9.348   2.314   4.407 -0.2231 -0.5474  0.1501
24250SOL     OW74517   5.356   8.085   1.540  0.3311  0.3065  0.0210
24250SOL    HW174518   5.357   8.098   1.446 -0.0644 -0.1052 -0.0411
24250SOL    HW274519   5.274   8.040   1.558 -0.0416  1.1938  0.6732
24251SOL     OW74520   0.370   8.628   5.546  0.1532  0.9062  0.4109
24251SOL    HW174521   0.390   8.556   5.607 -0.8843 -0.4616 -0.7847
24251SOL    HW274522   0.450   8.638   5.495 -0.5741 -1.5074 -1.3984
24252SOL     OW74523   1.549   6.378   2.346 -0.4212 -0.1199 -0.0909
24252SOL    HW174524   1.483   6.351   2.409  0.5289 -1.1357  0.4987
24252SOL    HW274525   1.536   6.320   2.271  0.7008 -1.2929  0.6007
24253SOL     OW74526   5.172   9.376   5.121  0.4182  0.3232 -0.3891
24253SOL    HW174527   5.102   9.409   5.177  1.2836  1.5148  0.0235
24253SOL    HW274528   5.246   9.433   5.139  1.1847 -0.2521 -1.6117
24254SOL     OW74529   6.283   9.097   5.536 -0.0089  0.3341  0.0517
24254SOL    HW174530   6.363   9.097   5.483  1.6351  1.2801  2.3359
24254SOL    HW274531   6.238   9.016   5.512  0.8552  0.5047 -2.3827
24255SOL     OW74532   8.608   6.840   0.364 -0.0036 -0.1086  0.1573
24255SOL    HW174533   8.668   6.865   0.434 -1.3212 -0.2400  1.3874
24255SOL    HW274534   8.543   6.910   0.361 -0.2932 -0.3952 -0.5353
24256SOL     OW74535   8.626   4.202   2.407 -0.6211 -0.0951 -0.4294
24256SOL    HW174536   8.595   4.119   2.371  1.0857 -1.0135  0.1069
24256SOL    HW274537   8.695   4.230   2.347 -0.1426  0.1326  0.2136
24257SOL     OW74538   0.184   6.386   2.437 -0.5404 -0.3173  0.2935
24257SOL    HW174539   0.248   6.377   2.366  0.0363 -2.1316  0.9867
24257SOL    HW274540   0.135   6.465   2.415  0.3738 -0.1984 -1.5136
24258SOL     OW74541   0.082   6.742   9.445  0.2272 -0.1839 -0.9199
24258SOL    HW174542   0.030   6.722   9.523  0.0818  1.4141 -0.5794
24258SOL    HW274543   0.048   6.682   9.379 -1.9901  0.6975 -0.6786
24259SOL     OW74544   4.582   8.143   2.139 -0.0175  0.2190 -0.6347
24259SOL    HW174545   4.665   8.189   2.152 -0.6216  1.2590 -0.3055
24259SOL    HW274546   4.597   8.088   2.062  1.4128 -0.7042  0.2395
24260SOL     OW74547   1.412   7.097   3.491  0.3167  0.1905  0.1216
24260SOL    HW174548   1.495   7.082   3.535 -1.0306 -2.0764  2.1323
24260SOL    HW274549   1.396   7.017   3.441 -0.3688  0.8836 -0.8198
24261SOL     OW74550   0.640   4.589   0.979 -0.2819  0.1260  0.5189
24261SOL    HW174551   0.598   4.669   0.949 -0.7899 -0.3724 -0.1028
24261SOL    HW274552   0.583   4.557   1.049 -1.2681 -0.8433 -0.6905
24262SOL     OW74553   5.070   4.074   4.707  0.0641  0.2764 -0.2068
24262SOL    HW174554   5.074   4.168   4.724 -0.5428  0.3211 -0.3009
24262SOL    HW274555   4.979   4.050   4.722  0.5967 -0.6973  1.8167
24263SOL     OW74556   7.694   5.881   3.630 -0.3259  0.1015  0.2166
24263SOL    HW174557   7.654   5.968   3.621 -0.4843  0.0731  0.6168
24263SOL    HW274558   7.727   5.879   3.720  0.4672  0.0763 -0.0703
24264SOL     OW74559   1.892   1.682   5.343  0.7878  0.1028  0.0950
24264SOL    HW174560   1.802   1.683   5.374  0.5786  0.9444 -0.5203
24264SOL    HW274561   1.885   1.696   5.248  1.3715 -2.7799 -0.4971
24265SOL     OW74562   6.315   2.943   9.492  0.2947  0.7533  0.0035
24265SOL    HW174563   6.324   3.032   9.456 -0.7902  0.9854  0.2800
24265SOL    HW274564   6.221   2.931   9.503  0.3735 -0.6797 -0.6326
24266SOL     OW74565   6.951   6.577   7.890  0.1440 -0.0096  0.0680
24266SOL    HW174566   6.871   6.556   7.937 -0.2409  2.2001  0.5062
24266SOL    HW274567   6.948   6.671   7.878  1.0888 -0.2658 -2.8810
24267SOL     OW74568   4.204   1.011   5.227 -0.5161 -0.1116  0.1940
24267SOL    HW174569   4.296   1.022   5.249 -0.5479  1.0488 -0.1523
24267SOL    HW274570   4.195   0.919   5.202  0.3733 -0.4265  0.9690
24268SOL     OW74571   0.903   2.388   4.225 -0.5098 -0.6956  0.2215
24268SOL    HW174572   0.969   2.440   4.181 -1.4064  0.7364  0.5106
24268SOL    HW274573   0.831   2.382   4.162 -0.8178 -0.7287  0.5749
24269SOL     OW74574   1.618   3.140   3.684 -0.1494 -0.3499  0.4530
24269SOL    HW174575   1.554   3.081   3.647  0.0059  0.7101 -1.6665
24269SOL    HW274576   1.701   3.114   3.644 -0.0230  1.0270 -0.2514
24270SOL     OW74577   9.470   2.981   2.143  0.1307  0.2220 -0.2554
24270SOL    HW174578   9.557   2.943   2.145 -0.1519 -0.6899 -2.2420
24270SOL    HW274579   9.437   2.960   2.055 -1.8345  1.1021  0.2138
24271SOL     OW74580   9.179   7.973   1.499 -0.2959  0.5805  0.0969
24271SOL    HW174581   9.255   7.933   1.458  0.1713  1.0182  0.5184
24271SOL    HW274582   9.166   7.923   1.580 -0.7694  0.1815 -0.2267
24272SOL     OW74583   3.696   7.616   8.238 -0.8562  0.1208  0.4883
24272SOL    HW174584   3.761   7.561   8.282  0.3831 -0.5444 -2.0204
24272SOL    HW274585   3.723   7.706   8.260 -0.7506 -0.1750  1.6627
24273SOL     OW74586   0.309   3.068   6.462  0.1271  0.0273  0.1986
24273SOL    HW174587   0.256   3.069   6.382 -0.3090 -1.5003  0.4397
24273SOL    HW274588   0.251   3.105   6.529 -0.3512 -0.7915  0.2644
24274SOL     OW74589   7.019   2.768   8.609 -0.2908 -0.2249  0.1849
24274SOL    HW174590   7.109   2.741   8.624  0.5907  1.4712 -1.6303
24274SOL    HW274591   6.989   2.714   8.535 -1.1333 -1.4423  1.3684
24275SOL     OW74592   6.933   3.681   7.950 -0.5356 -0.1368 -0.0318
24275SOL    HW174593   6.911   3.747   7.884  0.7550 -0.6160 -0.9684
24275SOL    HW274594   6.903   3.719   8.033 -0.0601  1.5064 -0.5899
24276SOL     OW74595   8.084   5.817   5.973 -0.2742  0.3323 -0.1423
24276SOL    HW174596   8.013   5.818   5.908 -0.2453 -1.2833 -0.2564
24276SOL    HW274597   8.162   5.838   5.922  0.1675 -3.3951 -1.3182
24277SOL     OW74598   4.777   8.249   3.652  0.4952  0.1740  0.3596
24277SOL    HW174599   4.725   8.177   3.617  0.5933  1.0339 -1.7155
24277SOL    HW274600   4.839   8.208   3.713 -1.1982 -1.1141  1.2895
24278SOL     OW74601   6.647   5.270   1.004  0.3133 -0.9713 -0.5413
24278SOL    HW174602   6.580   5.230   0.948 -1.5718  0.2945  0.6985
24278SOL    HW274603   6.600   5.336   1.055  2.2240 -1.0058  1.4410
24279SOL     OW74604   3.456   6.452   8.525 -0.5633  0.1849 -0.3048
24279SOL    HW174605   3.422   6.542   8.530 -2.1193 -0.4308  1.5173
24279SOL    HW274606   3.550   6.463   8.512 -0.7166  2.0874 -0.1426
24280SOL     OW74607   5.738   2.305   1.622  0.4357  0.3571  0.3582
24280SOL    HW174608   5.823   2.327   1.584  0.4030  0.0755  0.1252
24280SOL    HW274609   5.750   2.321   1.716  0.3367  1.6134  0.1760
24281SOL     OW74610   9.436   8.852   0.436  0.4328  0.2067 -0.0082
24281SOL    HW174611   9.452   8.863   0.342  1.5422  0.0004  0.1444
24281SOL    HW274612   9.463   8.935   0.475  0.4681  0.0993  0.1944
24282SOL     OW74613   2.399   4.437   0.989  0.6709  0.0038 -0.2714
24282SOL    HW174614   2.420   4.367   1.051  0.9286 -1.0319 -1.4704
24282SOL    HW274615   2.400   4.393   0.903 -1.9170  0.8663 -0.8300
24283SOL     OW74616   4.293   0.952   0.631  0.3426 -0.1943  0.1213
24283SOL    HW174617   4.267   1.040   0.659  1.0414  0.2832 -0.7013
24283SOL    HW274618   4.293   0.900   0.712  1.3604  0.9166  0.8715
24284SOL     OW74619   2.794   1.787   2.666 -0.6494  0.1322  0.3567
24284SOL    HW174620   2.884   1.781   2.700 -0.6361  0.0012  0.2989
24284SOL    HW274621   2.771   1.697   2.643 -1.3336 -0.0672  1.7380
24285SOL     OW74622   7.879   3.625   8.507 -0.3442  0.3780  0.1950
24285SOL    HW174623   7.964   3.641   8.548 -0.0842  0.0974 -0.2184
24285SOL    HW274624   7.841   3.552   8.557 -0.1483  0.2151  0.1085
24286SOL     OW74625   8.293   9.382   4.274  0.0658 -0.1302 -0.0165
24286SOL    HW174626   8.327   9.360   4.361 -0.0124 -1.0715 -0.2136
24286SOL    HW274627   8.340   9.461   4.249  1.3336 -0.7837  0.1835
24287SOL     OW74628   1.711   2.728   5.463 -0.5477  0.1016 -0.0264
24287SOL    HW174629   1.757   2.738   5.380 -0.4211 -0.4239 -0.0258
24287SOL    HW274630   1.624   2.764   5.448 -0.8062 -0.7498 -0.6457
24288SOL     OW74631   0.299   1.800   8.034  0.3707 -0.6514 -0.5302
24288SOL    HW174632   0.241   1.857   7.983 -0.1447  1.0256  1.7898
24288SOL    HW274633   0.248   1.776   8.111  1.6312 -1.8717 -0.0389
24289SOL     OW74634   5.964   6.913   2.223  0.4591 -0.0333  0.5012
24289SOL    HW174635   5.885   6.921   2.277  0.7182  2.4198  0.6668
24289SOL    HW274636   5.933   6.920   2.133  0.2666 -1.7793  0.3965
24290SOL     OW74637   8.952   1.910   1.732  0.5427  0.0400 -0.0969
24290SOL    HW174638   8.980   1.940   1.818  0.3446 -0.3057  0.0898
24290SOL    HW274639   9.033   1.906   1.681  0.5991  0.6849 -0.0675
24291SOL     OW74640   3.090   8.271   9.115 -0.0607 -0.2789  0.0847
24291SOL    HW174641   3.048   8.221   9.185 -0.7478  1.2142  0.7802
24291SOL    HW274642   3.184   8.259   9.130 -0.2010 -0.0633  1.2175
24292SOL     OW74643   5.647   5.333   7.450 -0.5467  0.4066  0.5957
24292SOL    HW174644   5.721   5.391   7.433  0.1798 -0.6979 -0.0690
24292SOL    HW274645   5.571   5.380   7.416 -0.2785  1.8540  1.8940
24293SOL     OW74646   8.188   0.096   7.849  0.0884  0.0381 -0.7982
24293SOL    HW174647   8.100   0.068   7.874 -0.0668  0.5070 -0.8011
24293SOL    HW274648   8.245   0.063   7.919 -0.0777 -0.3295 -0.8355
24294SOL     OW74649   4.784   4.284   6.272  0.2002 -0.4161  0.0260
24294SOL    HW174650   4.844   4.307   6.201 -0.2273  0.6393 -0.0023
24294SOL    HW274651   4.783   4.361   6.329  0.1710 -1.0718  0.9231
24295SOL     OW74652   4.201   2.215   9.369  0.3485 -0.2327  0.0074
24295SOL    HW174653   4.187   2.217   9.274 -0.2945 -1.1175  0.0652
24295SOL    HW274654   4.290   2.181   9.379  0.6210  0.3779 -0.2809
24296SOL     OW74655   4.981   9.414   9.720  0.6708  0.2894  0.0384
24296SOL    HW174656   4.980   9.510   9.719  0.9567  0.3034  0.7034
24296SOL    HW274657   4.930   9.389   9.643  0.6477  0.9754 -0.1756
24297SOL     OW74658   8.866   2.612   4.698 -0.0692  0.1972  0.0228
24297SOL    HW174659   8.830   2.588   4.783 -0.5755 -0.4284 -0.3580
24297SOL    HW274660   8.791   2.608   4.638  0.6709 -1.5004 -0.8612
24298SOL     OW74661   1.010   7.489   0.097 -0.1275  0.3648  0.2146
24298SOL    HW174662   1.053   7.409   0.128  0.4832  0.7818  0.4662
24298SOL    HW274663   1.080   7.555   0.097 -0.3146  0.5786 -1.2451
24299SOL     OW74664   0.113   5.320   1.254 -0.3411 -0.5363  0.3153
24299SOL    HW174665   0.030   5.307   1.207 -0.3575  1.0523 -0.1259
24299SOL    HW274666   0.180   5.283   1.197 -0.8013 -2.8983  1.1770
24300SOL     OW74667   1.103   0.407   9.822  0.2550  0.1577  0.8723
24300SOL    HW174668   1.179   0.459   9.795  0.7624 -1.4259 -0.9825
24300SOL    HW274669   1.038   0.472   9.849  1.5429  1.6456  0.5494
24301SOL     OW74670   8.305   6.513   3.279 -0.2149 -0.2689 -0.1387
24301SOL    HW174671   8.350   6.597   3.280 -1.7611  0.6023 -0.3465
24301SOL    HW274672   8.305   6.486   3.187 -0.4643 -0.0709 -0.1974
24302SOL     OW74673   8.646   8.053   1.152 -0.0156 -0.7718 -0.1156
24302SOL    HW174674   8.685   8.002   1.081  1.1261 -1.5335  1.0249
24302SOL    HW274675   8.721   8.087   1.201 -0.7343  1.5256 -0.4618
24303SOL     OW74676   2.300   4.953   5.343 -0.7767 -0.4129 -0.0008
24303SOL    HW174677   2.342   4.915   5.420 -0.7072  0.5750  0.4718
24303SOL    HW274678   2.214   4.910   5.339 -0.9045 -0.2657  0.8155
24304SOL     OW74679   1.508   4.065   7.422  0.2936  0.2972  0.0383
24304SOL    HW174680   1.595   4.027   7.412  0.4641  0.7059 -0.0624
24304SOL    HW274681   1.465   4.012   7.488  1.1267  0.9750  1.1580
24305SOL     OW74682   9.116   0.812   0.186  0.0085 -0.5654  0.5001
24305SOL    HW174683   9.144   0.785   0.099  0.4616 -0.0726  0.4856
24305SOL    HW274684   9.129   0.735   0.241  2.7124  0.0038  0.7942
24306SOL     OW74685   7.203   2.838   7.028 -0.1591  0.6000 -0.2529
24306SOL    HW174686   7.164   2.886   6.955  0.5855  0.3804 -0.8122
24306SOL    HW274687   7.251   2.904   7.077 -1.5775  0.9660  0.7190
24307SOL     OW74688   3.051   5.272   3.459 -0.3186  0.0706 -0.1213
24307SOL    HW174689   3.037   5.366   3.465 -0.3380 -0.0337  2.5174
24307SOL    HW274690   3.056   5.255   3.365  1.6446  2.9611 -0.6876
24308SOL     OW74691   4.288   2.093   4.868  0.0512 -0.3139 -0.2818
24308SOL    HW174692   4.329   2.179   4.857  1.5010 -0.7879  1.0115
24308SOL    HW274693   4.200   2.104   4.834 -0.0927  1.9453  0.6507
24309SOL     OW74694   7.531   6.767   8.175  0.2732  0.3276 -0.2258
24309SOL    HW174695   7.564   6.712   8.246 -0.3460 -0.5086 -0.5620
24309SOL    HW274696   7.552   6.718   8.095 -0.6260  0.3904 -0.5139
24310SOL     OW74697   1.479   3.878   6.126  0.2614  0.1203  0.1949
24310SOL    HW174698   1.473   3.797   6.175  1.0837 -0.2872 -0.3468
24310SOL    HW274699   1.389   3.911   6.122 -0.0067 -0.5167  0.8205
24311SOL     OW74700   1.522   8.276   5.777  0.0933  0.1982  0.1266
24311SOL    HW174701   1.503   8.345   5.714 -0.7734  1.2114  1.4206
24311SOL    HW274702   1.460   8.206   5.756 -2.7761  1.9663  1.9522
24312SOL     OW74703   2.804   9.134   3.316 -0.0447 -0.0067 -0.3789
24312SOL    HW174704   2.892   9.127   3.354  0.4077 -2.1719 -1.6112
24312SOL    HW274705   2.752   9.072   3.367 -1.1753  1.9949  1.0035
24313SOL     OW74706   5.011   7.599   2.039  0.0301 -0.6201 -0.2893
24313SOL    HW174707   4.950   7.573   1.969  0.4153 -0.4722 -0.6834
24313SOL    HW274708   4.982   7.548   2.115 -1.8137  0.8713  0.0826
24314SOL     OW74709   7.141   6.163   7.903 -0.1896 -0.0335 -0.6138
24314SOL    HW174710   7.103   6.075   7.894 -0.0975 -0.2325  0.6492
24314SOL    HW274711   7.209   6.152   7.970  2.0336  0.3473 -2.6953
24315SOL     OW74712   0.703   2.650   1.148  0.1922  0.9382  0.0135
24315SOL    HW174713   0.706   2.630   1.054 -0.1823  1.0341 -0.0210
24315SOL    HW274714   0.635   2.593   1.183  1.1658  0.0159  0.4544
24316SOL     OW74715   6.705   5.755   7.285  0.1500  0.1507  0.2172
24316SOL    HW174716   6.682   5.720   7.199 -1.7827 -0.0279  0.7619
24316SOL    HW274717   6.725   5.848   7.269  0.4547 -0.0327 -0.5022
24317SOL     OW74718   2.430   9.366   9.387  0.9898 -0.3431 -0.3356
24317SOL    HW174719   2.335   9.365   9.377  0.7081  1.1818  1.6021
24317SOL    HW274720   2.462   9.310   9.316 -1.3822 -1.6859 -0.4608
24318SOL     OW74721   2.924   7.415   1.468  0.2102  0.2363 -0.5756
24318SOL    HW174722   3.004   7.430   1.518 -0.2853  2.7787 -0.4367
24318SOL    HW274723   2.864   7.484   1.496 -1.8758 -1.2829 -1.0524
24319SOL     OW74724   5.826   9.112   8.580 -0.2527 -0.7745  0.2619
24319SOL    HW174725   5.903   9.080   8.627  0.4089 -1.0369 -0.9428
24319SOL    HW274726   5.812   9.047   8.510 -0.5532  0.1218 -0.5390
24320SOL     OW74727   6.610   7.695   7.297 -0.6021  0.0672 -0.3693
24320SOL    HW174728   6.555   7.692   7.375  0.4740 -0.5869  0.3979
24320SOL    HW274729   6.668   7.619   7.305 -0.5952 -0.1206 -1.9129
24321SOL     OW74730   1.174   9.382   5.462  0.3117 -0.2995  0.7728
24321SOL    HW174731   1.107   9.367   5.529  0.7173 -1.4056  0.9564
24321SOL    HW274732   1.150   9.466   5.423 -0.1010  0.2201  2.0911
24322SOL     OW74733   3.705   9.643   9.098  0.3771  0.1434 -0.0807
24322SOL    HW174734   3.691   9.552   9.071  1.7917  0.5472 -2.4336
24322SOL    HW274735   3.799   9.649   9.115  0.7339  1.6005 -2.1290
24323SOL     OW74736   8.081   4.701   2.280 -0.4455  0.5981 -0.4662
24323SOL    HW174737   8.149   4.730   2.341 -0.0878  3.0018 -1.9049
24323SOL    HW274738   8.108   4.613   2.254  0.6870  0.4842  0.9531
24324SOL     OW74739   7.937   3.937   9.200 -0.0050  0.1332  0.1421
24324SOL    HW174740   7.881   3.894   9.264 -0.9489  1.0468 -0.0377
24324SOL    HW274741   7.920   3.890   9.118 -0.5975  0.4715  0.0663
24325SOL     OW74742   9.726   5.511   7.835  0.1416 -0.5323  0.0592
24325SOL    HW174743   9.765   5.438   7.788  0.1167 -1.0573  0.8300
24325SOL    HW274744   9.693   5.569   7.767 -1.5406 -2.1476 -0.5843
24326SOL     OW74745   7.004   9.795   9.478 -0.3061 -0.3124  0.4118
24326SOL    HW174746   6.969   9.727   9.534 -0.2059 -0.0503  0.7989
24326SOL    HW274747   6.962   9.876   9.509 -1.0806 -0.3110 -0.6006
24327SOL     OW74748   4.223   3.929   8.789 -0.1655 -0.0724  0.0302
24327SOL    HW174749   4.220   3.899   8.880 -0.3285 -0.6328 -0.1501
24327SOL    HW274750   4.268   4.013   8.792 -1.8897  0.8815  0.8815
24328SOL     OW74751   7.802   4.278   3.058 -1.1076 -0.3492 -0.1728
24328SOL    HW174752   7.826   4.306   3.146 -1.5061  0.3416 -0.2773
24328SOL    HW274753   7.874   4.221   3.030 -0.3701  0.4344  0.1089
24329SOL     OW74754   1.556   8.861   9.100  0.3716 -0.8515  0.2815
24329SOL    HW174755   1.592   8.943   9.135  0.4144 -1.6428  2.1784
24329SOL    HW274756   1.575   8.796   9.167  0.7449 -2.5461 -1.4009
24330SOL     OW74757   6.451   6.652   6.301 -0.1715  0.1962  0.0362
24330SOL    HW174758   6.427   6.662   6.393 -0.1972 -2.5828  0.4106
24330SOL    HW274759   6.487   6.564   6.294 -1.7320 -0.3510 -2.9423
24331SOL     OW74760   3.587   3.834   0.850  0.2496 -0.2048  0.2267
24331SOL    HW174761   3.629   3.749   0.863  0.9872 -0.0916 -1.2336
24331SOL    HW274762   3.610   3.859   0.760 -0.9140  1.0071  0.2294
24332SOL     OW74763   4.756   0.532   6.854 -0.3334 -0.1106  0.3441
24332SOL    HW174764   4.748   0.460   6.792 -2.9233 -1.6442  2.2122
24332SOL    HW274765   4.725   0.609   6.807 -1.0997 -0.9949 -0.6252
24333SOL     OW74766   8.689   1.317   6.127  0.0408  0.0983  0.1891
24333SOL    HW174767   8.707   1.313   6.033 -1.6504  0.1596 -0.1783
24333SOL    HW274768   8.643   1.236   6.146  1.7153 -0.6456  1.3335
24334SOL     OW74769   0.204   0.261   2.473 -0.4571  0.8128  0.5683
24334SOL    HW174770   0.211   0.311   2.555  1.1146  2.5479 -0.5259
24334SOL    HW274771   0.156   0.319   2.414 -0.7056 -0.0033 -0.0428
24335SOL     OW74772   8.322   6.138   7.245 -0.9058  0.2748 -0.0509
24335SOL    HW174773   8.261   6.148   7.173 -2.7126  0.4926  1.4400
24335SOL    HW274774   8.268   6.145   7.324  0.8899 -0.5684  1.3332
24336SOL     OW74775   9.615   7.342   8.111  0.0220  0.5275 -0.0065
24336SOL    HW174776   9.526   7.333   8.076  0.4944  0.9355 -1.3662
24336SOL    HW274777   9.603   7.349   8.206 -1.3181 -0.4278 -0.0833
24337SOL     OW74778   1.094   2.793   3.740  0.7921  0.0771  0.4875
24337SOL    HW174779   1.168   2.771   3.684 -0.0275 -1.4814 -0.0328
24337SOL    HW274780   1.072   2.711   3.785  0.3466  0.8854  1.8136
24338SOL     OW74781   9.573   1.056   5.060  0.4320  0.7940 -0.0721
24338SOL    HW174782   9.498   0.997   5.065  0.4931  0.6518 -0.7535
24338SOL    HW274783   9.552   1.115   4.988 -0.4877  2.8249  1.7235
24339SOL     OW74784   5.135   7.492   7.662 -0.2272 -0.1243 -0.4609
24339SOL    HW174785   5.163   7.476   7.752  1.0875  0.0501 -0.8159
24339SOL    HW274786   5.214   7.476   7.609 -1.1390 -0.8629 -1.6484
24340SOL     OW74787   8.263   9.437   5.078  0.3217 -0.1490 -0.1479
24340SOL    HW174788   8.260   9.449   4.983  0.4477 -3.2761 -0.6720
24340SOL    HW274789   8.345   9.479   5.105  1.2847 -0.8688 -1.7800
24341SOL     OW74790   8.586   7.337   7.664  0.2970 -0.0851 -0.0292
24341SOL    HW174791   8.600   7.252   7.622  1.3639  0.2063 -0.3103
24341SOL    HW274792   8.509   7.373   7.621 -0.1930 -0.9310  0.1280
24342SOL     OW74793   6.738   4.294   2.160  0.0911 -0.3119  0.2333
24342SOL    HW174794   6.832   4.277   2.166  0.0144 -0.6284  0.5456
24342SOL    HW274795   6.724   4.373   2.212  0.1900 -0.2367  0.1464
24343SOL     OW74796   1.710   3.472   4.924 -0.3302  0.3613 -0.0498
24343SOL    HW174797   1.663   3.469   5.008 -0.4430  1.1078 -0.0739
24343SOL    HW274798   1.754   3.388   4.918 -1.7536 -0.4092 -0.0728
24344SOL     OW74799   1.453   7.514   6.031  0.0128  0.3226 -0.8042
24344SOL    HW174800   1.489   7.593   6.070 -0.5593  0.3164 -0.2471
24344SOL    HW274801   1.364   7.508   6.066  0.0515 -0.5704 -0.8274
24345SOL     OW74802   6.100   7.655   6.138 -0.2847  0.6333  0.3877
24345SOL    HW174803   6.102   7.573   6.188 -1.5835  0.4013  0.0981
24345SOL    HW274804   6.115   7.723   6.204  1.4660  0.1532  0.5312
24346SOL     OW74805   7.953   7.823   0.565 -0.3209  0.5022 -0.0960
24346SOL    HW174806   7.884   7.799   0.503 -0.6796  0.8313  0.1723
24346SOL    HW274807   7.909   7.826   0.650  0.2897 -0.5485  0.2781
24347SOL     OW74808   1.728   7.012   7.633 -0.2985  0.5230  0.2090
24347SOL    HW174809   1.722   6.918   7.648 -0.2782  0.4130 -0.4306
24347SOL    HW274810   1.816   7.036   7.662  0.3763  0.0087 -1.3019
24348SOL     OW74811   7.734   4.871   2.945  0.1527  0.1336  0.2364
24348SOL    HW174812   7.676   4.944   2.924  1.2772  1.2858  1.0029
24348SOL    HW274813   7.710   4.846   3.034  1.3306  1.1613  0.8760
24349SOL     OW74814   2.620   7.997   5.809 -0.6446 -0.0074  0.0796
24349SOL    HW174815   2.696   8.052   5.793 -0.8713 -0.2489 -2.0743
24349SOL    HW274816   2.547   8.059   5.820 -0.5706  0.1610 -0.3907
24350SOL     OW74817   1.030   9.304   2.966 -0.3880  0.6776 -0.8192
24350SOL    HW174818   1.017   9.260   3.050  1.1032 -0.4231 -1.1337
24350SOL    HW274819   0.950   9.284   2.916 -1.2369  1.2490  0.2656
24351SOL     OW74820   5.480   2.338   5.266 -0.0643  0.4919  0.4776
24351SOL    HW174821   5.529   2.420   5.267  1.2799 -0.2823  1.8329
24351SOL    HW274822   5.480   2.312   5.173 -1.0545  2.2928 -0.0781
24352SOL     OW74823   6.942   7.797   1.025  0.0096  0.4712 -1.0064
24352SOL    HW174824   7.017   7.846   1.058 -0.5267  0.2459  0.6433
24352SOL    HW274825   6.897   7.858   0.966 -0.0268  1.5965  0.1424
24353SOL     OW74826   4.508   8.833   1.451 -0.3549  0.4885 -0.0024
24353SOL    HW174827   4.600   8.807   1.445 -0.2740  1.1151 -2.2972
24353SOL    HW274828   4.481   8.803   1.537  1.7487 -0.5256  0.3779
24354SOL     OW74829   2.165   5.934   3.722 -0.1043 -0.2442 -0.3105
24354SOL    HW174830   2.168   6.030   3.716  1.8412 -0.1919  0.8138
24354SOL    HW274831   2.239   5.904   3.669  1.4087 -0.9041  2.0312
24355SOL     OW74832   1.059   9.732   1.312  0.7532  0.0429  0.2977
24355SOL    HW174833   1.079   9.744   1.219 -0.3707 -0.6391 -0.0472
24355SOL    HW274834   0.985   9.672   1.313  0.6607  0.1560  1.6374
24356SOL     OW74835   3.128   5.199   7.719 -0.0363  0.5773  0.3395
24356SOL    HW174836   3.136   5.257   7.795  0.2924  2.9138 -1.3696
24356SOL    HW274837   3.034   5.200   7.699 -0.1931 -0.4210  0.9478
24357SOL     OW74838   7.202   4.003   2.984  0.6849  0.4921  0.2568
24357SOL    HW174839   7.178   4.093   3.006 -0.5065  0.3337 -0.3127
24357SOL    HW274840   7.149   3.982   2.908 -0.3856 -1.2936  1.4258
24358SOL     OW74841   9.162   5.200   8.052  0.7759  0.2270  0.2267
24358SOL    HW174842   9.087   5.244   8.011 -0.5366 -1.8210  0.2758
24358SOL    HW274843   9.183   5.253   8.128 -1.1809  0.4476  0.6682
24359SOL     OW74844   6.005   2.483   0.829 -0.6384  0.2863 -0.6612
24359SOL    HW174845   6.089   2.473   0.785  0.6738 -1.0083  1.9868
24359SOL    HW274846   6.007   2.572   0.864 -0.5510  0.3852 -0.9118
24360SOL     OW74847   8.289   2.832   0.909  0.2554 -0.1002 -0.3498
24360SOL    HW174848   8.290   2.854   1.003  0.4894  0.8029 -0.5527
24360SOL    HW274849   8.381   2.836   0.883  0.0811  0.7617 -0.8606
24361SOL     OW74850   0.635   1.431   4.106  0.1405 -0.4988  0.6133
24361SOL    HW174851   0.651   1.525   4.107 -0.9757 -0.2956  0.6643
24361SOL    HW274852   0.705   1.395   4.051  0.6471  0.3325  0.6914
24362SOL     OW74853   9.354   5.302   0.567 -0.3064 -0.2169  0.0469
24362SOL    HW174854   9.417   5.239   0.532  1.5249 -0.1102  2.8655
24362SOL    HW274855   9.309   5.335   0.490  2.2516 -1.1900 -2.0229
24363SOL     OW74856   6.763   2.251   8.969 -0.7101  0.2838  0.0172
24363SOL    HW174857   6.759   2.282   9.060 -0.7100 -0.6834  0.3617
24363SOL    HW274858   6.696   2.182   8.965 -0.1164 -0.2671 -0.4811
24364SOL     OW74859   9.402   7.779   7.507  0.6996 -0.1471 -0.2904
24364SOL    HW174860   9.455   7.709   7.470  1.7466  1.4114 -1.8879
24364SOL    HW274861   9.407   7.765   7.602  1.3622 -1.8646 -0.5512
24365SOL     OW74862   0.064   6.785   7.529 -0.2231 -0.4699  0.3229
24365SOL    HW174863   0.134   6.805   7.591  0.5518 -0.7245 -0.4485
24365SOL    HW274864  -0.017   6.798   7.579  0.3793 -0.6450  1.3709
24366SOL     OW74865   2.026   3.343   5.053 -0.0151 -0.0910 -0.4167
24366SOL    HW174866   2.042   3.388   4.970  1.1317 -0.4305 -0.4053
24366SOL    HW274867   2.085   3.386   5.115 -1.7094  0.9660  0.5376
24367SOL     OW74868   9.725   1.927   6.199  0.1139  0.7304 -0.2700
24367SOL    HW174869   9.665   1.894   6.132  0.9622  4.0577 -2.9959
24367SOL    HW274870   9.812   1.901   6.169  0.4022  0.4766  0.7370
24368SOL     OW74871   5.212   4.712   0.718  0.3418  0.3763 -0.4463
24368SOL    HW174872   5.287   4.762   0.684 -0.0494  0.4244 -1.2680
24368SOL    HW274873   5.172   4.673   0.640  0.2357 -0.6734  0.1179
24369SOL     OW74874   3.923   1.334   4.152 -0.0528  0.7776  0.5556
24369SOL    HW174875   3.862   1.326   4.079  0.5890  0.1820  0.0772
24369SOL    HW274876   3.918   1.427   4.177 -2.9795  0.2997  2.1578
24370SOL     OW74877   6.148   1.532   9.535  0.0035  0.6561  0.2061
24370SOL    HW174878   6.194   1.589   9.596  3.0052  0.1593 -1.3690
24370SOL    HW274879   6.199   1.451   9.536 -1.4893 -0.3341 -0.8990
24371SOL     OW74880   3.542   6.020   4.426  0.2878  0.4079  0.3630
24371SOL    HW174881   3.520   6.112   4.439 -0.4042  0.5099 -1.2417
24371SOL    HW274882   3.524   5.979   4.510  1.8465  1.9279  1.5035
24372SOL     OW74883   2.501   7.527   1.591  0.2029 -0.7842 -0.2789
24372SOL    HW174884   2.455   7.510   1.509 -0.2684  0.2802 -0.2554
24372SOL    HW274885   2.548   7.445   1.610 -0.9428 -1.5884 -0.7857
24373SOL     OW74886   7.269   3.055   8.447  0.5253 -0.2898 -0.1816
24373SOL    HW174887   7.190   3.037   8.397  1.4239 -2.1289 -1.0553
24373SOL    HW274888   7.251   3.137   8.492 -1.1669  0.2836 -1.7791
24374SOL     OW74889   5.172   0.880   3.699 -0.4551  0.1456  0.2403
24374SOL    HW174890   5.175   0.965   3.656 -0.9386  1.0623  1.9062
24374SOL    HW274891   5.108   0.891   3.770 -0.4108 -1.5550  0.5977
24375SOL     OW74892   3.736   2.656   8.644  0.2992  0.6005 -0.0992
24375SOL    HW174893   3.699   2.595   8.708 -0.9028 -1.5733 -2.6672
24375SOL    HW274894   3.822   2.618   8.622  0.4937  1.0672 -0.1591
24376SOL     OW74895   7.239   1.413   9.185 -0.2654 -0.3590 -0.3732
24376SOL    HW174896   7.334   1.413   9.180 -0.2683  1.1872 -0.8886
24376SOL    HW274897   7.219   1.363   9.265  0.9821 -0.4132 -0.0814
24377SOL     OW74898   5.653   5.928   3.655  0.2574  0.3643  0.3507
24377SOL    HW174899   5.694   5.887   3.579 -2.1315 -0.3058 -0.6907
24377SOL    HW274900   5.598   5.859   3.693  0.3035  1.1013  1.8450
24378SOL     OW74901   1.707   1.222   9.043  0.0405 -0.2276  0.2984
24378SOL    HW174902   1.715   1.275   8.964  0.2586 -0.1253  0.3905
24378SOL    HW274903   1.712   1.131   9.012 -0.6062 -0.2067  0.1089
24379SOL     OW74904   2.302   8.917   7.267  0.4671  0.4085  0.6156
24379SOL    HW174905   2.258   8.970   7.333 -0.6785  0.7131 -0.3645
24379SOL    HW274906   2.286   8.826   7.295  0.9518  0.5400  1.3500
24380SOL     OW74907   1.418   3.113   9.353 -0.3228  0.0097 -0.0773
24380SOL    HW174908   1.497   3.109   9.406 -0.5393  1.1073  0.3526
24380SOL    HW274909   1.364   3.040   9.384  0.2080 -0.3052  0.1145
24381SOL     OW74910   2.419   4.151   3.737  0.0621 -0.2837 -0.2108
24381SOL    HW174911   2.368   4.076   3.769 -0.2026 -0.2183 -0.4792
24381SOL    HW274912   2.503   4.113   3.711  1.2203 -0.0260  2.7490
24382SOL     OW74913   1.887   6.486   9.827  0.0385 -0.4036  0.4040
24382SOL    HW174914   1.864   6.394   9.841 -0.1923 -0.3044  0.6907
24382SOL    HW274915   1.804   6.533   9.838  0.0314 -0.2215 -0.3617
24383SOL     OW74916   5.377   3.117   5.440 -0.2291 -0.3741 -0.5243
24383SOL    HW174917   5.355   3.195   5.491  1.5177 -0.4110  0.3629
24383SOL    HW274918   5.405   3.151   5.355  0.2133 -0.0357 -0.2516
24384SOL     OW74919   6.961   1.527   9.679 -0.5375 -0.1018  0.6916
24384SOL    HW174920   6.880   1.521   9.627  0.1698 -2.9776 -0.2477
24384SOL    HW274921   6.955   1.455   9.741  1.2300 -0.3034  0.6783
24385SOL     OW74922   0.856   9.658   8.009 -0.1470 -0.2252 -0.0953
24385SOL    HW174923   0.856   9.632   7.917 -0.0385 -0.0805 -0.1348
24385SOL    HW274924   0.814   9.743   8.010  0.9715  0.3459 -0.1669
24386SOL     OW74925   0.133   8.619   9.112  0.3004 -1.1146  0.5886
24386SOL    HW174926   0.196   8.681   9.148 -0.3319  1.5290 -2.4321
24386SOL    HW274927   0.055   8.629   9.168  1.2632 -1.7560  2.1320
24387SOL     OW74928   8.841   8.955   1.367  0.2526  0.5548  0.2385
24387SOL    HW174929   8.931   8.981   1.385 -0.0306  0.3275  2.1755
24387SOL    HW274930   8.787   9.019   1.413 -0.5544  0.0342  0.0504
24388SOL     OW74931   6.563   3.995   3.243 -0.1264  0.4925 -0.0100
24388SOL    HW174932   6.609   3.911   3.239 -0.5347  0.1509  1.6754
24388SOL    HW274933   6.620   4.050   3.296 -0.0345  1.1923 -0.8105
24389SOL     OW74934   2.056   9.413   9.063  0.4554  0.3505  0.1362
24389SOL    HW174935   2.003   9.489   9.086 -0.6251 -0.1545 -0.5849
24389SOL    HW274936   2.136   9.449   9.024 -0.4361  1.1263 -1.0376
24390SOL     OW74937   5.118   4.121   9.105  0.1853  0.1138 -0.1509
24390SOL    HW174938   5.146   4.107   9.015  0.7739  0.5022 -0.0287
24390SOL    HW274939   5.079   4.209   9.105  0.0036  0.0337 -0.0685
24391SOL     OW74940   0.718   9.169   1.434 -0.2113 -0.5912 -0.7530
24391SOL    HW174941   0.792   9.201   1.484  0.4923 -1.1568 -1.4136
24391SOL    HW274942   0.706   9.235   1.365  1.5428 -1.8998 -2.4074
24392SOL     OW74943   8.756   6.789   5.338 -0.5811 -0.4676 -0.3329
24392SOL    HW174944   8.706   6.790   5.256 -2.4385 -0.5897  0.7465
24392SOL    HW274945   8.814   6.713   5.330 -0.9742 -0.6810 -1.3828
24393SOL     OW74946   7.443   8.976   5.986 -0.0569  0.7484 -0.3188
24393SOL    HW174947   7.413   8.895   6.028 -0.0882  0.9468  0.0466
24393SOL    HW274948   7.524   8.952   5.941 -0.5054  0.3175 -0.9115
24394SOL     OW74949   4.766   3.661   5.002 -0.8544 -0.7661  0.0426
24394SOL    HW174950   4.799   3.660   5.091  0.7474  0.9927 -0.4708
24394SOL    HW274951   4.839   3.627   4.949 -0.1455  2.1020 -0.9961
24395SOL     OW74952   0.170   5.067   6.290 -0.0499 -0.0115  0.0592
24395SOL    HW174953   0.168   5.136   6.224  1.6653 -0.1451 -0.1888
24395SOL    HW274954   0.139   4.989   6.245  0.2101  0.1076 -0.3322
24396SOL     OW74955   0.567   2.589   0.230 -0.8659  0.3210  0.1898
24396SOL    HW174956   0.512   2.514   0.254 -1.5730  0.0552 -2.0482
24396SOL    HW274957   0.654   2.553   0.219 -0.1784  0.6763  3.3741
24397SOL     OW74958   0.017   1.128   7.453  0.0971 -0.3052  0.2997
24397SOL    HW174959  -0.025   1.180   7.385 -0.1492 -1.0769 -0.1455
24397SOL    HW274960  -0.046   1.059   7.473 -0.0051  0.1402  1.6010
24398SOL     OW74961   5.951   0.276   6.106  0.5200 -0.1357  0.2440
24398SOL    HW174962   6.029   0.329   6.123  1.6770 -0.7605 -2.5482
24398SOL    HW274963   5.914   0.314   6.027 -2.0773  0.1032  1.4748
24399SOL     OW74964   1.125   2.416   3.009  0.0084  0.1404  0.0317
24399SOL    HW174965   1.032   2.393   3.005 -0.0281  0.1732  0.6177
24399SOL    HW274966   1.128   2.509   2.990  0.0416 -0.0948 -1.1782
24400SOL     OW74967   6.018   3.343   4.860  0.1465 -0.3121 -0.2293
24400SOL    HW174968   6.087   3.351   4.795 -0.3571  1.5929 -0.5756
24400SOL    HW274969   6.050   3.391   4.936 -0.2793 -0.4740  0.0611
24401SOL     OW74970   2.669   1.307   5.240  0.3917 -0.0372 -0.3875
24401SOL    HW174971   2.745   1.259   5.272  1.8854  1.2269 -1.8561
24401SOL    HW274972   2.594   1.253   5.265  1.7854 -1.5748  0.6701
24402SOL     OW74973   8.418   5.823   8.523 -0.0580 -0.1705 -0.6980
24402SOL    HW174974   8.427   5.909   8.565 -0.7322 -0.5611  0.2836
24402SOL    HW274975   8.325   5.802   8.530  0.4941 -2.3354  1.9162
24403SOL     OW74976   5.038   5.739   4.205 -0.4899 -0.1124  0.6506
24403SOL    HW174977   5.005   5.667   4.152  1.0535 -0.0350 -0.4779
24403SOL    HW274978   5.133   5.728   4.205 -0.2098  1.8314  0.5507
24404SOL     OW74979   4.267   5.734   6.145  0.0217 -0.4430  0.0901
24404SOL    HW174980   4.177   5.743   6.113 -0.1116  0.7802  0.7559
24404SOL    HW274981   4.301   5.824   6.148  0.7936 -0.7513  1.1834
24405SOL     OW74982   9.012   8.347   0.596 -0.3096  0.0834  0.3368
24405SOL    HW174983   8.929   8.299   0.604  0.3965 -0.9432  1.9294
24405SOL    HW274984   9.079   8.282   0.618  0.7694  1.5122  1.3803
24406SOL     OW74985   4.094   8.402   2.053  0.0630  0.2327  0.0516
24406SOL    HW174986   4.059   8.400   2.142 -0.3793  0.9645 -0.0922
24406SOL    HW274987   4.021   8.372   1.998  0.8617 -1.9179  0.0562
24407SOL     OW74988   9.803   8.720   3.061  0.4278  0.2521  0.1033
24407SOL    HW174989   9.841   8.649   3.113  0.3841  0.9111  1.0681
24407SOL    HW274990   9.858   8.725   2.983  0.8766 -0.3617  0.3700
24408SOL     OW74991   9.015   0.651   3.796 -0.1351 -0.1129  0.7367
24408SOL    HW174992   9.099   0.687   3.767 -1.7295  1.4865 -2.4226
24408SOL    HW274993   8.964   0.727   3.821 -1.5610 -0.7182 -0.1915
24409SOL     OW74994   3.978   4.420   6.738  0.6352 -0.2958 -0.6576
24409SOL    HW174995   3.987   4.478   6.813  0.8673  0.6359 -1.3734
24409SOL    HW274996   3.884   4.407   6.727  0.4651  1.4200 -1.5430
24410SOL     OW74997   7.698   9.801   0.190  0.3174  0.2658  0.2891
24410SOL    HW174998   7.653   9.783   0.107  1.3509  0.3103 -0.2930
24410SOL    HW274999   7.653   9.878   0.225  0.1087  0.4700 -0.4014
24411SOL     OW75000   5.633   8.488   2.701  0.3321  0.4479  0.5650
24411SOL    HW175001   5.625   8.429   2.777  0.8326 -1.2191 -0.6176
24411SOL    HW275002   5.568   8.456   2.639 -0.9320  2.5665  0.7066
24412SOL     OW75003   7.631   8.040   4.738 -0.1395  0.3129 -0.4874
24412SOL    HW175004   7.674   7.963   4.702  0.2389  0.4330 -0.3001
24412SOL    HW275005   7.623   8.022   4.832  2.5108  1.6253  0.1100
24413SOL     OW75006   1.166   7.028   4.908 -0.1579  0.1638  0.3880
24413SOL    HW175007   1.076   7.029   4.874 -0.0642 -1.5203  0.0434
24413SOL    HW275008   1.163   6.969   4.983  0.1078  2.2162  2.1420
24414SOL     OW75009   7.456   4.408   5.689  0.8733 -0.2975  0.4724
24414SOL    HW175010   7.500   4.488   5.658  1.3287 -0.6608  0.1814
24414SOL    HW275011   7.368   4.438   5.715  1.1002  0.3299  0.5344
24415SOL     OW75012   4.992   0.339   0.235 -0.0072 -0.2352 -0.4147
24415SOL    HW175013   4.967   0.285   0.310 -2.0305 -1.4903 -1.9053
24415SOL    HW275014   5.073   0.298   0.203 -0.6773 -1.4623 -0.5945
24416SOL     OW75015   0.723   3.483   7.392 -0.4107 -0.1274  0.4323
24416SOL    HW175016   0.721   3.399   7.438  2.2951 -1.6342 -1.8835
24416SOL    HW275017   0.638   3.523   7.412 -1.0955 -2.5525  3.0919
24417SOL     OW75018   9.454   3.293   3.490  0.1605 -0.4346  0.3734
24417SOL    HW175019   9.521   3.260   3.430 -0.2073 -0.6935  0.0968
24417SOL    HW275020   9.379   3.235   3.477 -0.4273  0.3741  0.0279
24418SOL     OW75021   4.074   6.545   9.511 -0.0425 -0.0746 -0.1464
24418SOL    HW175022   4.131   6.490   9.457  1.9080  0.1317  1.5965
24418SOL    HW275023   4.059   6.623   9.458  0.1463 -0.7101 -1.1763
24419SOL     OW75024   1.637   7.768   5.694  0.0434  0.8187 -0.3683
24419SOL    HW175025   1.612   7.827   5.766  1.5506 -0.4031  1.2660
24419SOL    HW275026   1.628   7.680   5.732  1.0796  0.1519 -1.6068
24420SOL     OW75027   1.820   0.320   1.189 -0.3796  0.3993 -0.5631
24420SOL    HW175028   1.787   0.239   1.152 -1.0546  1.0157 -1.3655
24420SOL    HW275029   1.812   0.384   1.118  0.9351  0.9798 -0.2296
24421SOL     OW75030   6.145   2.528   2.749  0.1266 -0.0259 -0.1716
24421SOL    HW175031   6.068   2.538   2.805  1.0044  0.0416  1.0750
24421SOL    HW275032   6.219   2.542   2.808  1.1153 -0.7533 -1.1970
24422SOL     OW75033   5.394   6.693   0.740 -0.2743  0.3194  0.5138
24422SOL    HW175034   5.462   6.631   0.715 -1.7943 -0.6901 -1.4268
24422SOL    HW275035   5.416   6.774   0.694  0.1082  0.2909  0.6468
24423SOL     OW75036   5.078   7.947   7.553 -0.0492  0.5758 -0.1049
24423SOL    HW175037   5.052   7.861   7.519  1.2359  0.6130 -1.2702
24423SOL    HW275038   5.001   8.002   7.540 -0.2041  0.1063 -1.3195
24424SOL     OW75039   5.224   5.358   3.498 -0.6872 -0.6889  0.8262
24424SOL    HW175040   5.286   5.304   3.547 -0.0203 -1.6069 -0.9153
24424SOL    HW275041   5.189   5.299   3.431 -1.4023  0.5390  0.0814
24425SOL     OW75042   9.477   3.143   8.414 -0.6352 -0.2566 -0.0429
24425SOL    HW175043   9.492   3.204   8.486  1.0383  0.8304 -1.2408
24425SOL    HW275044   9.473   3.198   8.336 -1.8291 -1.4620 -0.8734
24426SOL     OW75045   1.991   4.060   0.974 -0.1761  0.1963  0.0495
24426SOL    HW175046   2.018   4.131   1.032  0.9288  0.3960 -0.6766
24426SOL    HW275047   1.985   3.983   1.031  3.0171 -0.1124  0.1436
24427SOL     OW75048   0.043   9.694   7.904  0.2968 -0.1383 -0.2133
24427SOL    HW175049   0.074   9.617   7.951 -0.2545  0.3342  0.9515
24427SOL    HW275050   0.106   9.705   7.832  0.6409 -1.3856 -0.1146
24428SOL     OW75051   5.465   5.688   0.197  0.2591 -0.4991 -0.1426
24428SOL    HW175052   5.505   5.602   0.210  2.3609  0.5135  0.5145
24428SOL    HW275053   5.404   5.675   0.124  1.3714 -2.2946 -0.8308
24429SOL     OW75054   5.827   1.802   0.003  0.5377 -0.3781 -0.4232
24429SOL    HW175055   5.901   1.863  -0.002  0.9546 -0.4080  2.8330
24429SOL    HW275056   5.862   1.726   0.051 -0.7652 -1.8998 -1.7655
24430SOL     OW75057   8.822   7.651   5.832 -0.0460 -0.1975  0.0423
24430SOL    HW175058   8.816   7.678   5.923  0.7643 -3.1594  1.1055
24430SOL    HW275059   8.737   7.612   5.812 -0.1678  0.2959 -0.4078
24431SOL     OW75060   0.841   6.572   4.201 -0.0400 -0.1559  0.4707
24431SOL    HW175061   0.828   6.520   4.281  1.6884  0.7281  1.3827
24431SOL    HW275062   0.929   6.609   4.210 -0.2777  0.9707 -1.2787
24432SOL     OW75063   4.669   8.076   0.683 -0.7993 -0.3267  0.1210
24432SOL    HW175064   4.630   8.012   0.742  0.3690  0.5630  1.9247
24432SOL    HW275065   4.718   8.135   0.740  0.6651  0.3796 -1.7736
24433SOL     OW75066   4.629   5.393   8.706  0.0926  0.1162  0.1138
24433SOL    HW175067   4.548   5.432   8.737 -0.2607 -0.5575  0.0583
24433SOL    HW275068   4.645   5.320   8.766  0.0208 -0.4802 -0.5752
24434SOL     OW75069   9.283   2.972   9.614  0.1135  0.5341 -0.2100
24434SOL    HW175070   9.361   3.007   9.655 -0.0182  0.0279  0.4935
24434SOL    HW275071   9.292   2.877   9.622 -0.9943  0.4755  0.7330
24435SOL     OW75072   6.099   8.245   6.455 -0.2804 -0.4915  0.0016
24435SOL    HW175073   6.122   8.302   6.382 -1.7223 -0.0652 -0.1536
24435SOL    HW275074   6.023   8.287   6.495 -1.5902 -2.4474 -0.3001
24436SOL     OW75075   6.895   2.832   3.868 -0.1614  0.0903  0.0666
24436SOL    HW175076   6.885   2.927   3.858 -1.9072 -0.1051 -0.4562
24436SOL    HW275077   6.864   2.796   3.784  2.5941 -0.8969 -0.6505
24437SOL     OW75078   1.315   0.832   1.616  0.0729  0.2559  0.3558
24437SOL    HW175079   1.406   0.855   1.594  0.3458  0.2446  1.4181
24437SOL    HW275080   1.314   0.737   1.614 -1.1647  0.0999 -4.4789
24438SOL     OW75081   7.619   2.646   0.533 -0.4899  0.1431 -0.2756
24438SOL    HW175082   7.524   2.659   0.536 -0.6991 -1.2495  2.6224
24438SOL    HW275083   7.630   2.561   0.490 -0.6765 -0.3959  0.7283
24439SOL     OW75084   4.311   5.233   3.517  0.3683  0.3802 -0.2940
24439SOL    HW175085   4.317   5.182   3.597  0.7213 -0.7593 -1.0297
24439SOL    HW275086   4.360   5.313   3.536 -1.5119  1.2429  1.4190
24440SOL     OW75087   0.111   0.435   7.373 -0.6689 -0.2362 -0.4223
24440SOL    HW175088   0.041   0.381   7.410 -0.3640 -0.3498 -0.0045
24440SOL    HW275089   0.116   0.511   7.431  1.6869 -1.7217  1.4903
24441SOL     OW75090   2.018   4.969   0.171  0.3623  0.2461  0.0773
24441SOL    HW175091   1.976   4.892   0.134  1.1384  0.0402 -0.4001
24441SOL    HW275092   2.080   4.997   0.104  0.5720  0.8799  0.5294
24442SOL     OW75093   6.541   7.427   4.199 -0.4231 -0.8796  0.3268
24442SOL    HW175094   6.532   7.446   4.293 -0.9941 -2.0857  0.5280
24442SOL    HW275095   6.474   7.482   4.158  0.0153 -0.1310  0.5798
24443SOL     OW75096   6.992   0.152   8.161 -0.7357  0.3226 -0.0521
24443SOL    HW175097   6.974   0.245   8.174  1.2507  0.9256 -1.1436
24443SOL    HW275098   6.942   0.108   8.230 -1.4583  2.2083  0.7004
24444SOL     OW75099   7.107   0.330   9.643  0.1055  0.0877 -0.0706
24444SOL    HW175100   7.153   0.407   9.677 -0.1696  0.4749 -0.5622
24444SOL    HW275101   7.073   0.357   9.558  1.9936 -1.2984 -1.3546
24445SOL     OW75102   2.699   9.546   4.664  0.4948 -0.2447 -0.0975
24445SOL    HW175103   2.716   9.600   4.587  0.7861  0.1942  0.2724
24445SOL    HW275104   2.645   9.474   4.631  0.2356  0.1830 -0.6228
24446SOL     OW75105   9.780   4.848   2.006  0.6621 -0.1517  0.0463
24446SOL    HW175106   9.791   4.834   2.100 -2.2802  0.3015  0.5326
24446SOL    HW275107   9.837   4.923   1.986  0.0045  0.8970  1.8660
24447SOL     OW75108   1.950   4.086   6.607 -0.4349 -0.3849  0.3098
24447SOL    HW175109   1.949   4.101   6.513 -0.1339  0.0220  0.3697
24447SOL    HW275110   2.042   4.089   6.632 -0.6008  1.0725  0.8511
24448SOL     OW75111   1.911   0.648   4.877  0.5537 -0.1682 -0.1043
24448SOL    HW175112   1.855   0.646   4.798  0.8621  0.5938 -0.3526
24448SOL    HW275113   1.953   0.734   4.874 -0.9838  0.7512  1.9781
24449SOL     OW75114   3.218   1.610   1.912 -0.0518 -0.0567 -0.1743
24449SOL    HW175115   3.297   1.661   1.928 -0.1099  1.4672 -3.7666
24449SOL    HW275116   3.249   1.528   1.875 -0.1256 -0.0280 -0.2992
24450SOL     OW75117   3.861   9.069   0.917 -0.2104  0.1044 -0.7188
24450SOL    HW175118   3.955   9.051   0.920 -0.2213  0.1673  1.0277
24450SOL    HW275119   3.845   9.103   0.828  1.6739  1.5073 -0.5666
24451SOL     OW75120   8.306   3.269   1.303  0.3688  0.3203 -0.1916
24451SOL    HW175121   8.271   3.239   1.219 -0.8515  0.9851  0.0555
24451SOL    HW275122   8.327   3.188   1.350 -0.7896 -0.1248 -0.3908
24452SOL     OW75123   5.863   9.681   2.293  0.1283  0.7724 -0.0522
24452SOL    HW175124   5.811   9.601   2.293 -1.2467  1.6294  0.1982
24452SOL    HW275125   5.904   9.683   2.380 -1.9446  1.6026  0.9835
24453SOL     OW75126   7.767   1.835   8.648  0.3366  0.2497 -0.3047
24453SOL    HW175127   7.737   1.826   8.738  1.0908 -0.4147 -0.1018
24453SOL    HW275128   7.764   1.746   8.613 -1.2769  0.6908 -1.3961
24454SOL     OW75129   3.159   7.830   5.660  0.1286 -0.5226 -0.2316
24454SOL    HW175130   3.137   7.765   5.726  1.1591  1.5478  2.3334
24454SOL    HW275131   3.217   7.784   5.599 -0.7221 -2.4623  0.3463
24455SOL     OW75132   4.775   4.922   5.125  0.2911  0.3520 -0.1314
24455SOL    HW175133   4.703   4.986   5.123  0.6659  0.7841  0.0364
24455SOL    HW275134   4.754   4.860   5.055 -0.0940  0.6411 -0.2745
24456SOL     OW75135   3.453   2.560   3.390 -0.1250 -0.5336  0.6078
24456SOL    HW175136   3.498   2.635   3.350 -2.6446  1.5442  1.3626
24456SOL    HW275137   3.510   2.485   3.372  2.3424  1.4605 -0.5709
24457SOL     OW75138   7.503   8.380   9.185 -0.1048 -0.3951  0.0497
24457SOL    HW175139   7.443   8.316   9.147 -1.0479 -0.0802  0.9583
24457SOL    HW275140   7.537   8.428   9.109 -1.3840 -0.2587 -0.4827
24458SOL     OW75141   1.967   2.031   5.543  0.1714 -0.8953  0.0478
24458SOL    HW175142   2.060   2.037   5.521  0.4927 -0.7860  1.3276
24458SOL    HW275143   1.964   1.963   5.611 -0.6360 -0.6350  0.2731
24459SOL     OW75144   9.589   4.500   0.375 -0.5080  0.2881 -0.2238
24459SOL    HW175145   9.536   4.538   0.445  1.0289 -0.3002  1.3641
24459SOL    HW275146   9.585   4.406   0.391  1.1952  0.2453  0.1385
24460SOL     OW75147   6.069   1.083   4.244  0.0143 -0.3497  0.0010
24460SOL    HW175148   6.122   1.052   4.171 -0.0284  0.9010 -0.5884
24460SOL    HW275149   6.133   1.102   4.313  0.0904 -1.1768  0.1635
24461SOL     OW75150   7.145   2.767   0.854  0.2320  0.2135  0.3134
24461SOL    HW175151   7.099   2.799   0.776 -0.4178 -2.6836 -0.5821
24461SOL    HW275152   7.076   2.729   0.908  1.0641 -0.3716  0.9785
24462SOL     OW75153   6.894   0.186   9.022 -0.4560 -0.2358  0.2706
24462SOL    HW175154   6.944   0.105   9.007 -1.6291 -0.9279  0.0206
24462SOL    HW275155   6.876   0.186   9.116  3.4311  2.0847  1.2625
24463SOL     OW75156   7.236   4.940   2.324 -0.0150  0.0073  0.0926
24463SOL    HW175157   7.328   4.963   2.316 -0.7114  3.0517 -0.0948
24463SOL    HW275158   7.207   4.984   2.404 -1.9105  1.3874 -1.2976
24464SOL     OW75159   1.857   2.166   9.706  0.1574  0.1823 -0.3508
24464SOL    HW175160   1.763   2.153   9.717  0.3531  0.7637  2.8347
24464SOL    HW275161   1.894   2.077   9.704 -0.4202 -0.0475 -1.7287
24465SOL     OW75162   3.222   5.778   9.528 -0.6188  0.5663  0.2880
24465SOL    HW175163   3.277   5.745   9.599 -0.3414  1.0705  0.3065
24465SOL    HW275164   3.244   5.871   9.521 -0.1361  0.3786 -0.9024
24466SOL     OW75165   6.079   5.449   8.732 -0.6419 -0.2912  0.3106
24466SOL    HW175166   6.170   5.430   8.707 -1.2714 -2.1086 -0.7247
24466SOL    HW275167   6.088   5.506   8.809  1.3615  0.0325 -0.0837
24467SOL     OW75168   3.468   0.870   5.331 -0.3686  0.2448 -0.1108
24467SOL    HW175169   3.455   0.900   5.421 -1.3600 -0.8419  0.1326
24467SOL    HW275170   3.404   0.800   5.320  0.9897 -0.8971 -1.0691
24468SOL     OW75171   9.438   4.135   4.536  0.3610 -0.7097  0.1824
24468SOL    HW175172   9.502   4.088   4.590  0.9387  0.2386  0.3358
24468SOL    HW275173   9.414   4.211   4.587  1.4057  0.5637 -1.1243
24469SOL     OW75174   0.736   5.840   7.009 -0.2910  0.3926  0.0213
24469SOL    HW175175   0.646   5.868   6.989 -0.4448  0.9905  1.3914
24469SOL    HW275176   0.725   5.768   7.071  0.1642 -0.1037 -0.4775
24470SOL     OW75177   7.617   1.974   7.787 -0.2488 -0.6108 -0.1047
24470SOL    HW175178   7.682   1.949   7.722  0.0088 -0.4412  0.0862
24470SOL    HW275179   7.540   1.998   7.736  0.2145  0.3003 -0.3891
24471SOL     OW75180   4.508   1.176   6.987 -0.7099  0.0134 -0.2203
24471SOL    HW175181   4.507   1.081   7.002 -0.2850 -0.0178 -0.3661
24471SOL    HW275182   4.570   1.188   6.915 -2.2634  0.2210 -1.5746
24472SOL     OW75183   6.646   3.483   1.445 -0.3833 -0.4703 -0.4716
24472SOL    HW175184   6.564   3.495   1.494 -0.0004 -1.7939  0.5686
24472SOL    HW275185   6.636   3.396   1.404  0.3635 -0.4960 -0.6009
24473SOL     OW75186   8.892   4.482   9.271 -0.3716  0.0243  0.2122
24473SOL    HW175187   8.858   4.399   9.237 -0.1287 -0.5703  1.3555
24473SOL    HW275188   8.976   4.493   9.226 -0.1273 -0.6591  0.4832
24474SOL     OW75189   5.033   8.388   6.853 -0.6264  0.1586  0.4079
24474SOL    HW175190   5.103   8.443   6.819 -2.5876  0.3891 -3.9880
24474SOL    HW275191   5.072   8.300   6.858  0.4356  0.5681 -0.3543
24475SOL     OW75192   1.550   9.221   5.440  0.1121 -0.3524  0.0796
24475SOL    HW175193   1.637   9.202   5.475 -0.2028 -1.6322  0.2165
24475SOL    HW275194   1.566   9.251   5.350  0.7614  0.5731  0.4916
24476SOL     OW75195   0.630   7.840   3.927 -0.3141  0.6531 -0.6999
24476SOL    HW175196   0.682   7.920   3.936 -0.8587  0.7512  2.5018
24476SOL    HW275197   0.694   7.770   3.913  0.4255  1.1926 -0.0358
24477SOL     OW75198   4.728   7.658   3.490 -0.2941 -0.7925  0.2011
24477SOL    HW175199   4.775   7.706   3.558  1.5374  0.1623 -1.6472
24477SOL    HW275200   4.637   7.686   3.500  0.7039  3.8288 -1.2032
24478SOL     OW75201   9.302   6.553   7.017  0.4279  0.1755  0.3562
24478SOL    HW175202   9.316   6.553   7.111 -2.6002 -1.8992  0.9792
24478SOL    HW275203   9.348   6.475   6.985 -1.3886 -1.1560  0.8067
24479SOL     OW75204   8.700   4.754   8.413  0.2020 -0.3828 -0.5880
24479SOL    HW175205   8.709   4.830   8.470  0.0940 -1.0706  0.3779
24479SOL    HW275206   8.625   4.706   8.448 -0.8861 -0.0322 -2.2775
24480SOL     OW75207   0.070   4.548   2.515  0.2419  0.3577 -0.1702
24480SOL    HW175208   0.089   4.511   2.601  0.8995  3.5436  1.1698
24480SOL    HW275209   0.141   4.610   2.499 -0.1912  0.2917 -2.7941
24481SOL     OW75210   1.102   0.225   4.113 -0.0210 -0.0542  0.8941
24481SOL    HW175211   1.070   0.269   4.035 -2.7969  0.2084  2.0649
24481SOL    HW275212   1.100   0.132   4.091 -1.0283  0.0023  0.7169
24482SOL     OW75213   7.620   7.857   4.041 -0.3980 -0.3960  0.1146
24482SOL    HW175214   7.648   7.948   4.036 -1.4864  0.2162  3.0048
24482SOL    HW275215   7.701   7.806   4.035  0.0935  0.5019 -3.4979
24483SOL     OW75216   2.159   7.656   3.400  0.0124  0.1494  1.0008
24483SOL    HW175217   2.196   7.708   3.328  0.1830 -0.9740  0.2413
24483SOL    HW275218   2.080   7.618   3.363  0.7731 -1.4670  0.9510
24484SOL     OW75219   0.763   3.818   4.017  0.4550 -0.3916  0.1277
24484SOL    HW175220   0.673   3.800   4.042  0.2264  0.4452 -0.0557
24484SOL    HW275221   0.800   3.732   3.996 -0.2475 -0.7559  0.3563
24485SOL     OW75222   8.322   2.064   1.145  0.2886  0.2127  0.6348
24485SOL    HW175223   8.313   1.972   1.170 -0.5541  0.0784 -0.1187
24485SOL    HW275224   8.242   2.084   1.097 -0.5541  1.9446  2.5801
24486SOL     OW75225   5.794   6.488   8.906 -0.6121  0.2515  0.0503
24486SOL    HW175226   5.864   6.526   8.960 -0.2509  1.4603 -1.2059
24486SOL    HW275227   5.839   6.462   8.826 -1.5270  0.5852 -0.5770
24487SOL     OW75228   6.566   2.584   9.297  0.5005 -0.1738 -0.1082
24487SOL    HW175229   6.487   2.623   9.260  1.4210  0.9815 -0.9084
24487SOL    HW275230   6.557   2.596   9.392 -0.3195 -0.1429 -0.1890
24488SOL     OW75231   9.689   3.350   5.620 -0.5858 -0.0103 -0.2383
24488SOL    HW175232   9.774   3.309   5.634 -0.8249 -0.3239  0.3139
24488SOL    HW275233   9.646   3.348   5.706  0.2393  3.3239  0.4196
24489SOL     OW75234   9.199   0.162   3.703 -0.0377  0.0841 -0.2596
24489SOL    HW175235   9.289   0.136   3.683 -0.2722  0.3363 -1.6938
24489SOL    HW275236   9.177   0.111   3.781  1.1862 -0.3136 -0.1471
24490SOL     OW75237   6.282   0.486   7.645 -0.4182  0.1330  0.3702
24490SOL    HW175238   6.305   0.433   7.569 -1.0564 -2.1768  1.6835
24490SOL    HW275239   6.346   0.556   7.645 -0.0688 -0.1111 -1.9671
24491SOL     OW75240   1.996   0.561   2.170 -0.1726  0.2230  0.3735
24491SOL    HW175241   1.939   0.600   2.104  0.8013  0.6657 -0.2158
24491SOL    HW275242   2.070   0.526   2.121 -0.9135 -2.2496  0.8833
24492SOL     OW75243   1.806   8.630   1.647 -0.2860  0.5369  0.0370
24492SOL    HW175244   1.739   8.637   1.579  0.0326  0.2799 -0.3083
24492SOL    HW275245   1.757   8.629   1.729 -0.7608 -0.3723 -0.2387
24493SOL     OW75246   3.265   4.595   4.162  0.2504 -0.4083 -0.6214
24493SOL    HW175247   3.171   4.592   4.146 -0.1778 -1.4851  1.7244
24493SOL    HW275248   3.279   4.678   4.207  1.0932  1.5145 -4.0730
24494SOL     OW75249   1.595   5.616   6.381 -0.3547 -0.0528  0.0513
24494SOL    HW175250   1.633   5.703   6.384 -1.8084  0.5767  2.5990
24494SOL    HW275251   1.607   5.580   6.469  1.1912 -2.9369 -1.1900
24495SOL     OW75252   8.378   1.370   5.468 -0.0599  0.1366 -0.0006
24495SOL    HW175253   8.376   1.363   5.372 -1.8745 -0.4594  0.0387
24495SOL    HW275254   8.435   1.298   5.496  0.0925  0.0188 -0.5997
24496SOL     OW75255   9.559   2.326   1.188  0.1005  0.4594 -0.3242
24496SOL    HW175256   9.504   2.405   1.189 -1.7531 -0.7707 -0.0180
24496SOL    HW275257   9.522   2.272   1.118 -0.3753 -1.2480  1.1830
24497SOL     OW75258   0.297   8.599   3.556 -0.0333  0.2676  0.7693
24497SOL    HW175259   0.289   8.632   3.646 -1.7290  1.9621  0.0488
24497SOL    HW275260   0.327   8.509   3.567 -2.1826 -0.2680  3.1569
24498SOL     OW75261   8.846   7.255   2.466 -0.1155 -0.1738  0.2318
24498SOL    HW175262   8.873   7.202   2.392  1.5198 -0.4452  0.9766
24498SOL    HW275263   8.829   7.342   2.430  1.5408 -0.0650 -0.3481
24499SOL     OW75264   5.824   0.112   7.206 -0.6291  0.4350  0.0090
24499SOL    HW175265   5.775   0.184   7.165  0.5433  0.8822 -0.6666
24499SOL    HW275266   5.878   0.155   7.273  2.4251  0.7862 -2.4303
24500SOL     OW75267   6.247   2.418   7.278 -0.0466  0.0143 -0.2179
24500SOL    HW175268   6.208   2.393   7.362 -0.1861 -1.1094 -0.5949
24500SOL    HW275269   6.228   2.344   7.220 -0.6153  1.0969 -1.4664
24501SOL     OW75270   8.314   8.564   3.650  0.0934 -0.0248  0.4860
24501SOL    HW175271   8.248   8.624   3.615 -1.1873 -1.5161  0.2240
24501SOL    HW275272   8.333   8.504   3.578 -1.8807 -2.5684  1.9133
24502SOL     OW75273   6.540   8.097   7.168  0.2152 -0.5773 -0.0297
24502SOL    HW175274   6.555   8.077   7.261  2.8859 -0.1192 -0.2912
24502SOL    HW275275   6.558   8.014   7.123  2.3261  0.0185 -0.3693
24503SOL     OW75276   0.818   4.549   5.537  0.1206  0.1626  0.0324
24503SOL    HW175277   0.859   4.473   5.496 -1.6473 -1.1521  0.5626
24503SOL    HW275278   0.877   4.572   5.609  1.0444 -0.2435 -0.5723
24504SOL     OW75279   3.488   7.490   7.163 -0.2531  0.3547  0.3573
24504SOL    HW175280   3.564   7.496   7.221  0.1368  0.6227 -0.1676
24504SOL    HW275281   3.436   7.568   7.182  0.0040  0.5739  0.1733
24505SOL     OW75282   5.569   1.473   7.150  0.0141 -0.5127 -0.1771
24505SOL    HW175283   5.588   1.547   7.206 -0.6339 -0.8163  0.4555
24505SOL    HW275284   5.474   1.464   7.152  0.0850 -1.4135 -0.1682
24506SOL     OW75285   2.196   7.851   9.333  0.3382  0.0458  0.0677
24506SOL    HW175286   2.216   7.824   9.423 -1.8455 -0.6273  0.4073
24506SOL    HW275287   2.202   7.771   9.281  0.8448  0.2909 -0.2597
24507SOL     OW75288   2.095   1.120   1.336  0.0245  0.1522  0.4170
24507SOL    HW175289   2.017   1.091   1.289 -0.7544 -0.4963  2.0431
24507SOL    HW275290   2.168   1.098   1.278 -0.7730 -2.0469  0.1592
24508SOL     OW75291   5.115   7.747   2.316 -0.2000  0.2024  0.1528
24508SOL    HW175292   5.020   7.735   2.322 -0.4313  1.2878 -0.8623
24508SOL    HW275293   5.138   7.712   2.230  0.0857  1.1453 -0.1698
24509SOL     OW75294   4.858   4.274   4.937  0.0348  0.3023 -0.7111
24509SOL    HW175295   4.830   4.323   4.859  0.3099 -0.1736 -1.1112
24509SOL    HW275296   4.786   4.213   4.954 -0.6712  1.3473  0.2547
24510SOL     OW75297   5.210   8.137   4.405  0.2078 -0.5525  0.0182
24510SOL    HW175298   5.231   8.045   4.421  2.3024 -0.1926 -0.3267
24510SOL    HW275299   5.263   8.160   4.329  1.5194  1.5068  1.4480
24511SOL     OW75300   2.080   3.705   8.908 -0.1164  0.1713 -0.2967
24511SOL    HW175301   2.160   3.754   8.924  0.7288 -0.9276 -1.0548
24511SOL    HW275302   2.071   3.704   8.813 -0.8635 -0.0083 -0.2325
24512SOL     OW75303   4.576   4.206   2.521 -0.2465  0.1938  0.0279
24512SOL    HW175304   4.638   4.134   2.535 -1.8841 -0.7918  2.8015
24512SOL    HW275305   4.495   4.163   2.495 -0.8323  1.1567  0.2336
24513SOL     OW75306   1.658   7.784   2.682  0.1994  0.1099  0.2499
24513SOL    HW175307   1.750   7.810   2.684  0.4435 -0.7349  0.9575
24513SOL    HW275308   1.644   7.740   2.766 -1.5152  2.3809  1.2815
24514SOL     OW75309   5.869   4.757   5.848  0.0781  0.1730  0.3165
24514SOL    HW175310   5.926   4.696   5.801  0.9335  0.7591  0.5625
24514SOL    HW275311   5.788   4.759   5.797  0.4302 -0.3646 -0.2749
24515SOL     OW75312   7.701   7.556   6.977  0.2941  0.5443  0.1214
24515SOL    HW175313   7.780   7.517   6.941 -0.9597  0.0924 -2.3134
24515SOL    HW275314   7.682   7.630   6.919 -0.5938  1.2104  1.2084
24516SOL     OW75315   2.460   4.673   8.518  0.8466 -0.0781 -0.3605
24516SOL    HW175316   2.480   4.767   8.509 -2.6156  0.7700 -0.7503
24516SOL    HW275317   2.488   4.634   8.435  0.4140  1.0647 -1.0729
24517SOL     OW75318   0.296   6.135   9.047 -0.2999 -0.6827 -0.7281
24517SOL    HW175319   0.212   6.088   9.051 -1.9532  2.0061 -1.3722
24517SOL    HW275320   0.336   6.105   8.966 -1.4774 -0.7828 -1.3005
24518SOL     OW75321   0.891   9.688   1.735 -0.1320  0.1641  0.3408
24518SOL    HW175322   0.874   9.753   1.802  0.3866  1.9727 -1.1765
24518SOL    HW275323   0.985   9.696   1.717 -0.2435 -0.3378 -0.5312
24519SOL     OW75324   3.264   8.980   2.010 -0.4503  0.1690  0.1686
24519SOL    HW175325   3.324   8.906   2.010  0.2071  0.6961  0.3511
24519SOL    HW275326   3.320   9.057   2.024 -0.9973  0.7901 -0.8836
24520SOL     OW75327   6.705   8.208   9.788 -0.4431  0.1491  0.3980
24520SOL    HW175328   6.693   8.290   9.741 -0.8523 -0.5574 -0.7638
24520SOL    HW275329   6.700   8.232   9.880  2.5340  1.9158  0.2125
24521SOL     OW75330   0.115   1.461   7.557 -0.2502  0.4433  0.0277
24521SOL    HW175331   0.200   1.497   7.581 -0.2964 -0.9674  2.6816
24521SOL    HW275332   0.135   1.384   7.504 -0.0863  2.2804 -2.8132
24522SOL     OW75333   5.531   6.588   7.444  0.2144  0.6770 -0.5159
24522SOL    HW175334   5.449   6.542   7.427 -0.3734  1.0118  1.1914
24522SOL    HW275335   5.557   6.625   7.359 -1.1760  0.2177 -1.1569
24523SOL     OW75336   1.987   0.642   5.197 -0.7382 -0.1489  0.5965
24523SOL    HW175337   2.011   0.605   5.112 -0.2677  1.6251 -0.0652
24523SOL    HW275338   1.891   0.649   5.194 -0.7219 -0.0731  0.2035
24524SOL     OW75339   2.341   5.656   3.299 -0.7101 -0.2235  0.2480
24524SOL    HW175340   2.246   5.647   3.309 -0.8616 -1.2247 -1.6566
24524SOL    HW275341   2.377   5.574   3.331 -0.5796 -0.2603  0.0127
24525SOL     OW75342   8.882   3.566   7.537  0.3772 -0.4387  0.4859
24525SOL    HW175343   8.963   3.612   7.558  0.8487 -0.7158 -0.6756
24525SOL    HW275344   8.900   3.522   7.454 -1.2668  0.2430 -0.2762
24526SOL     OW75345   4.083   4.483   8.881 -0.0432 -0.0708 -0.3268
24526SOL    HW175346   3.993   4.496   8.851 -0.3758  2.0512  1.3774
24526SOL    HW275347   4.076   4.417   8.949  0.1858 -2.0832 -2.1363
24527SOL     OW75348   5.748   1.140   3.461 -0.0738 -0.1077  0.7801
24527SOL    HW175349   5.679   1.165   3.523 -0.9326  1.9887 -0.8820
24527SOL    HW275350   5.708   1.074   3.405 -0.8457  1.1334 -0.2061
24528SOL     OW75351   9.459   7.759   7.792 -0.1952 -0.1628 -0.0028
24528SOL    HW175352   9.435   7.776   7.883  1.7833  1.2973  0.2999
24528SOL    HW275353   9.407   7.682   7.768 -1.3409 -0.1244  2.0930
24529SOL     OW75354   7.896   1.642   9.594  0.0206 -0.3580  0.5596
24529SOL    HW175355   7.899   1.669   9.686 -0.4490  0.9076  0.2241
24529SOL    HW275356   7.889   1.547   9.597 -2.5227 -0.2187  1.9145
24530SOL     OW75357   6.200   2.720   3.843  0.6975  0.0759  0.1214
24530SOL    HW175358   6.141   2.767   3.785 -0.9040 -2.5157 -0.5343
24530SOL    HW275359   6.185   2.758   3.930 -0.0080  1.1758 -0.4708
24531SOL     OW75360   3.026   7.616   7.937  0.1369 -0.4200  0.5515
24531SOL    HW175361   3.100   7.624   7.996  0.2123  0.7059  0.3265
24531SOL    HW275362   2.993   7.706   7.927 -0.6874 -0.7736 -0.0671
24532SOL     OW75363   5.713   3.960   5.000  0.0248  0.3444  0.2934
24532SOL    HW175364   5.681   3.885   5.050 -0.2776  0.2633 -0.0171
24532SOL    HW275365   5.792   3.988   5.046 -0.4632  0.5131  1.0307
24533SOL     OW75366   5.366   7.097   6.037  0.4776  0.3174 -0.3111
24533SOL    HW175367   5.396   7.186   6.020  0.3555  0.5018  0.4372
24533SOL    HW275368   5.401   7.046   5.963  1.5963  0.7466 -0.0980
24534SOL     OW75369   8.912   9.071   7.025  0.0056  0.1665 -0.1307
24534SOL    HW175370   8.930   9.013   6.951  0.7245  0.0873  0.0912
24534SOL    HW275371   8.927   9.159   6.991 -0.6361  0.1963 -0.3434
24535SOL     OW75372   2.584   5.309   1.702 -0.0925 -0.0059 -0.1012
24535SOL    HW175373   2.559   5.388   1.654  0.8816 -0.4399 -1.3895
24535SOL    HW275374   2.501   5.270   1.730 -0.6054  1.1481  0.0246
24536SOL     OW75375   7.966   1.797   2.989 -0.0029 -0.1776 -0.5448
24536SOL    HW175376   7.978   1.852   3.066 -0.3091  0.9835 -1.3048
24536SOL    HW275377   7.871   1.793   2.977  0.0452 -0.3175 -0.8869
24537SOL     OW75378   8.263   4.003   4.345  0.7523 -0.0583  0.1530
24537SOL    HW175379   8.315   4.019   4.266 -0.5996 -0.9184 -0.9489
24537SOL    HW275380   8.191   4.067   4.340  1.3706  0.7842  1.4047
24538SOL     OW75381   9.328   0.433   0.589  0.4771  0.0253  0.2775
24538SOL    HW175382   9.317   0.502   0.654  0.4690 -0.6638  1.0272
24538SOL    HW275383   9.353   0.356   0.640  1.5498 -0.2655 -0.6364
24539SOL     OW75384   3.264   6.673   4.649 -0.1885  0.2994  0.8065
24539SOL    HW175385   3.249   6.601   4.711  0.4831  0.3468  1.0390
24539SOL    HW275386   3.357   6.666   4.627  0.1567  1.7246  1.6489
24540SOL     OW75387   8.429   4.840   4.946 -0.5809  0.9036 -0.6710
24540SOL    HW175388   8.517   4.808   4.966 -1.8271 -1.4302  1.5588
24540SOL    HW275389   8.430   4.854   4.851  2.0380  0.5344 -0.7682
24541SOL     OW75390   0.013   8.295   7.031  0.1187 -0.2333  0.1155
24541SOL    HW175391   0.023   8.280   7.126  1.1073  0.4587  0.1438
24541SOL    HW275392   0.031   8.389   7.020 -3.4135  0.5258 -0.3423
24542SOL     OW75393   9.158   4.057   3.826 -0.0946  0.4549 -0.4047
24542SOL    HW175394   9.121   4.062   3.738  3.3757 -0.3745 -2.0807
24542SOL    HW275395   9.122   3.976   3.862 -1.0363  0.4381 -1.3211
24543SOL     OW75396   1.315   2.198   7.837 -0.5093  0.1237  0.6171
24543SOL    HW175397   1.238   2.146   7.815 -0.2859 -0.4761  1.2208
24543SOL    HW275398   1.301   2.224   7.928 -0.5265  0.9704  0.3832
24544SOL     OW75399   6.185   8.431   6.736  0.3626  0.7998 -0.0721
24544SOL    HW175400   6.195   8.350   6.685 -0.3602  0.6662 -0.0152
24544SOL    HW275401   6.155   8.401   6.822 -0.6459  1.1650 -0.2810
24545SOL     OW75402   7.426   5.109   0.654  0.4308  0.6664 -0.3767
24545SOL    HW175403   7.351   5.167   0.665  0.1410  0.3934 -0.8923
24545SOL    HW275404   7.499   5.156   0.695 -0.2030  0.5352  0.9425
24546SOL     OW75405   7.249   4.450   9.311 -0.1603  0.4515 -0.1546
24546SOL    HW175406   7.239   4.512   9.240  0.2046 -1.2741 -1.7820
24546SOL    HW275407   7.302   4.496   9.376 -1.3665  2.4280 -0.4758
24547SOL     OW75408   6.497   4.054   7.005 -0.0360  0.2048 -0.7844
24547SOL    HW175409   6.412   4.010   7.014  0.1525  0.0599  0.4260
24547SOL    HW275410   6.545   4.000   6.942 -0.6916  0.0608 -1.1737
24548SOL     OW75411   7.091   5.972   0.788 -0.3091 -1.0083  0.1717
24548SOL    HW175412   7.155   5.947   0.722 -0.0907 -1.3191  0.4978
24548SOL    HW275413   7.125   6.053   0.825 -1.0955 -0.1136 -0.9919
24549SOL     OW75414   5.766   2.598   0.115  0.0123  0.1958  0.5940
24549SOL    HW175415   5.752   2.627   0.205  1.0704  1.0964  0.5035
24549SOL    HW275416   5.716   2.660   0.062  1.8594  1.6521  0.4291
24550SOL     OW75417   1.706   0.319   9.332 -0.4618  0.7962 -0.5679
24550SOL    HW175418   1.771   0.277   9.388 -0.7705  0.0661 -0.7518
24550SOL    HW275419   1.718   0.413   9.348 -0.2272  0.6164  0.3679
24551SOL     OW75420   6.743   1.635   0.951 -0.5955  0.1203 -0.7196
24551SOL    HW175421   6.758   1.715   1.002  3.2150 -2.2755  2.4665
24551SOL    HW275422   6.804   1.641   0.878 -0.0603 -0.0186 -0.2855
24552SOL     OW75423   4.589   0.283   1.721 -0.0744 -0.3817 -0.2961
24552SOL    HW175424   4.565   0.308   1.632  2.9613 -1.3906 -1.5574
24552SOL    HW275425   4.551   0.196   1.732  2.0111 -1.6058 -1.9223
24553SOL     OW75426   7.464   0.261   2.547  0.8031  0.9765  0.2461
24553SOL    HW175427   7.387   0.295   2.502 -0.7342 -1.0720  1.1771
24553SOL    HW275428   7.472   0.171   2.515  1.7565  0.6053  1.4825
24554SOL     OW75429   5.712   2.218   6.747 -0.1743 -0.4337  0.1493
24554SOL    HW175430   5.741   2.288   6.688 -1.6047  0.5278  0.5246
24554SOL    HW275431   5.669   2.154   6.689 -0.0911 -0.3233 -0.0370
24555SOL     OW75432   1.510   5.060   4.160 -0.4155  0.0097  0.0018
24555SOL    HW175433   1.480   5.150   4.150 -0.3934  0.0839  0.5502
24555SOL    HW275434   1.445   5.008   4.114 -0.7367  0.2655  0.1601
24556SOL     OW75435   4.562   5.635   3.090 -0.2152 -0.1254 -0.1983
24556SOL    HW175436   4.615   5.644   3.168 -2.6937  0.5590  1.5457
24556SOL    HW275437   4.519   5.550   3.099 -2.6184  1.0735  0.7334
24557SOL     OW75438   6.392   5.027   6.030  0.1429  0.4087 -0.5223
24557SOL    HW175439   6.337   4.996   5.957  1.0140  0.2939 -1.1417
24557SOL    HW275440   6.366   4.973   6.104  0.4356 -0.6473 -1.1704
24558SOL     OW75441   3.115   0.022   5.264  0.3035 -0.0306 -0.0386
24558SOL    HW175442   3.067  -0.025   5.196  1.7607 -1.3987 -0.1846
24558SOL    HW275443   3.047   0.064   5.316 -0.8938  0.3759 -1.8283
24559SOL     OW75444   6.579   2.061   8.261 -0.3093  0.1232 -0.0147
24559SOL    HW175445   6.651   2.067   8.324 -0.3955  0.2662  0.0696
24559SOL    HW275446   6.544   1.973   8.273  0.3541 -0.2367 -0.5999
24560SOL     OW75447   9.230   0.806   3.723  0.1415  0.0664  0.1341
24560SOL    HW175448   9.215   0.894   3.690  0.2249 -0.4007 -1.1786
24560SOL    HW275449   9.257   0.819   3.814  2.2342  1.5614 -0.6139
24561SOL     OW75450   4.978   8.709   3.289 -0.7451 -0.1027  0.1771
24561SOL    HW175451   5.023   8.704   3.374 -0.3384  3.1168  0.2975
24561SOL    HW275452   4.904   8.768   3.305 -0.5939  0.6566 -1.7233
24562SOL     OW75453   1.428   1.335   3.619  0.2004 -0.0862  0.0575
24562SOL    HW175454   1.357   1.388   3.653 -1.5728 -1.7149 -0.8950
24562SOL    HW275455   1.406   1.321   3.527  2.0042 -0.2824 -0.3948
24563SOL     OW75456   8.178   5.630   7.719  0.1843  0.6337  0.1037
24563SOL    HW175457   8.219   5.630   7.633  0.9968  0.9952  0.4737
24563SOL    HW275458   8.095   5.676   7.707  0.3236  0.7414 -0.4672
24564SOL     OW75459   9.272   8.498   1.270  0.6919 -0.0088  0.0802
24564SOL    HW175460   9.208   8.430   1.249 -0.2302  0.5026  1.1463
24564SOL    HW275461   9.297   8.480   1.360  2.1684 -0.2565 -0.3436
24565SOL     OW75462   1.526   4.043   8.778  0.7100  0.0944 -0.1958
24565SOL    HW175463   1.435   4.038   8.750  0.5760  1.3004 -0.0026
24565SOL    HW275464   1.536   4.131   8.814  1.2578 -0.8457  2.1542
24566SOL     OW75465   0.950   7.283   9.542  0.5387  0.0424  0.0001
24566SOL    HW175466   0.880   7.224   9.515  0.6602 -0.3109  0.4654
24566SOL    HW275467   0.906   7.354   9.588  0.4421  0.0545 -0.1118
24567SOL     OW75468   5.042   1.587   2.474  0.2465 -0.6336  0.3885
24567SOL    HW175469   4.970   1.651   2.468 -0.6729 -1.6548  0.0515
24567SOL    HW275470   5.054   1.557   2.384 -0.6557 -2.3115  0.7811
24568SOL     OW75471   3.442   6.665   3.211 -0.1249 -0.7264 -0.8714
24568SOL    HW175472   3.505   6.691   3.144  1.1455  0.3274  0.6662
24568SOL    HW275473   3.496   6.634   3.284 -1.4729 -1.8504 -0.3003
24569SOL     OW75474   2.748   0.225   6.525  0.1033 -0.6941  0.3468
24569SOL    HW175475   2.733   0.134   6.499 -0.5812 -0.4099 -0.2873
24569SOL    HW275476   2.753   0.273   6.443 -0.9636  0.0505  0.6910
24570SOL     OW75477   0.701   1.362   0.747  0.2917 -0.1657 -0.0096
24570SOL    HW175478   0.708   1.306   0.824  0.5812 -0.2383 -0.0874
24570SOL    HW275479   0.790   1.365   0.711  0.3681  0.6991  0.2337
24571SOL     OW75480   2.999   9.466   5.162 -0.8544 -0.2154  0.2453
24571SOL    HW175481   3.085   9.452   5.203 -0.5421  0.4448 -0.1579
24571SOL    HW275482   2.991   9.396   5.098  1.1358  1.7993 -2.4798
24572SOL     OW75483   4.813   2.121   1.823 -0.1056  0.2436 -0.0010
24572SOL    HW175484   4.727   2.112   1.783 -0.1273 -0.5690  0.2227
24572SOL    HW275485   4.801   2.186   1.892 -0.2493  1.0537 -0.7649
24573SOL     OW75486   3.174   0.353   1.731  0.4654  0.2188  0.1486
24573SOL    HW175487   3.229   0.419   1.689  0.7576  0.5334  0.9839
24573SOL    HW275488   3.127   0.311   1.660 -0.9120  2.3788 -0.3134
24574SOL     OW75489   8.200   4.442   3.820  0.1348 -0.1614  0.5302
24574SOL    HW175490   8.280   4.469   3.775  0.2470  2.6603  2.1240
24574SOL    HW275491   8.131   4.453   3.755  0.6800  0.5946  0.0614
24575SOL     OW75492   4.513   3.742   8.059  0.2680 -0.0631 -0.2928
24575SOL    HW175493   4.567   3.741   7.980  1.3230  1.1737  0.3887
24575SOL    HW275494   4.491   3.834   8.072 -0.5467 -0.3488  0.4278
24576SOL     OW75495   8.652   6.911   8.082  0.1223  0.3293 -0.0477
24576SOL    HW175496   8.581   6.959   8.037 -0.0401  1.4494  1.3157
24576SOL    HW275497   8.622   6.821   8.085 -2.1816  1.0494  2.0739
24577SOL     OW75498   6.599   3.614   0.125 -0.3219 -0.0782  0.0185
24577SOL    HW175499   6.662   3.561   0.174 -1.1104  0.0493  1.2144
24577SOL    HW275500   6.604   3.580   0.035  1.0349 -0.4350  0.2058
24578SOL     OW75501   0.840   5.349   4.356 -0.2709  0.3013 -0.5093
24578SOL    HW175502   0.822   5.366   4.449 -0.7134 -1.3937 -0.2435
24578SOL    HW275503   0.761   5.377   4.311 -0.4495  0.1997 -0.2609
24579SOL     OW75504   7.272   4.713   4.621  0.7669 -0.3416 -0.7881
24579SOL    HW175505   7.295   4.781   4.558 -0.7011  0.6390 -0.3149
24579SOL    HW275506   7.264   4.759   4.704 -2.3906 -0.5893 -0.8265
24580SOL     OW75507   3.295   9.233   8.378  0.1288 -0.1202  0.0460
24580SOL    HW175508   3.237   9.270   8.445 -0.4069  1.1881 -1.0955
24580SOL    HW275509   3.313   9.144   8.408 -0.6241  0.2194  1.5848
24581SOL     OW75510   4.774   0.445   1.068 -0.0783  0.2986 -0.5307
24581SOL    HW175511   4.685   0.459   1.036 -0.0176 -0.3792 -1.0197
24581SOL    HW275512   4.796   0.356   1.041 -0.0293 -0.3327  1.4014
24582SOL     OW75513   8.141   7.078   6.064 -0.0476 -0.3614  0.0813
24582SOL    HW175514   8.174   6.990   6.045 -2.2987 -0.9432 -1.7465
24582SOL    HW275515   8.185   7.135   6.001  0.0221 -0.5286 -0.0199
24583SOL     OW75516   8.950   3.887   2.428  0.0002  0.1149  0.0450
24583SOL    HW175517   8.956   3.962   2.487  0.0694  0.7260 -0.7298
24583SOL    HW275518   8.948   3.925   2.340 -0.6213 -0.7570 -0.3339
24584SOL     OW75519   2.737   2.117   7.976  0.1214 -0.2400 -0.0730
24584SOL    HW175520   2.776   2.157   7.899  1.4570  1.2958  1.3312
24584SOL    HW275521   2.644   2.139   7.970  0.1064 -0.5786 -1.4623
24585SOL     OW75522   0.518   8.641   2.557 -0.7390  0.5452 -0.5452
24585SOL    HW175523   0.511   8.639   2.461 -0.0266  1.1645 -0.6153
24585SOL    HW275524   0.434   8.678   2.586 -1.0808  0.0734 -0.9013
24586SOL     OW75525   2.464   2.337   0.381  0.0471 -0.3937 -0.4519
24586SOL    HW175526   2.395   2.272   0.394  0.3404 -0.6744 -0.2816
24586SOL    HW275527   2.483   2.333   0.288 -1.4403  0.9880 -0.8523
24587SOL     OW75528   1.288   8.619   9.088 -0.1880  0.5048 -0.3151
24587SOL    HW175529   1.319   8.562   9.158 -0.1244  0.2340 -0.5601
24587SOL    HW275530   1.350   8.605   9.016  0.3694  1.5710 -0.0718
24588SOL     OW75531   6.242   6.926   3.315 -0.3960 -0.4281 -0.3229
24588SOL    HW175532   6.185   6.977   3.373  1.4262 -0.1737  1.3790
24588SOL    HW275533   6.185   6.859   3.278 -2.2222  1.0316 -0.3321
24589SOL     OW75534   9.399   2.190   5.259  0.3265 -0.0426  0.2460
24589SOL    HW175535   9.335   2.161   5.194  0.7886 -0.9512  0.1832
24589SOL    HW275536   9.414   2.113   5.314  0.6658  0.4345  0.8332
24590SOL     OW75537   3.194   9.197   2.241  0.0943 -0.1781 -0.2154
24590SOL    HW175538   3.255   9.147   2.186 -0.6907  0.6196 -1.8767
24590SOL    HW275539   3.113   9.200   2.190  0.5381  4.1181 -1.0229
24591SOL     OW75540   4.199   5.231   4.877 -0.0324 -0.0365  0.4468
24591SOL    HW175541   4.118   5.239   4.928 -0.2868  1.9236 -0.2056
24591SOL    HW275542   4.235   5.320   4.874  0.1336 -0.1064 -2.5193
24592SOL     OW75543   8.122   8.079   8.899 -0.1795 -0.0429 -0.0526
24592SOL    HW175544   8.091   8.054   8.986  0.5603  1.0490  0.5482
24592SOL    HW275545   8.170   8.003   8.868 -0.9945 -0.6839  0.2052
24593SOL     OW75546   7.394   5.033   4.696  0.2777  0.4785 -0.3723
24593SOL    HW175547   7.346   4.990   4.767 -0.8479  1.2900 -0.6110
24593SOL    HW275548   7.486   5.020   4.718  0.0512 -2.7874 -0.8927
24594SOL     OW75549   5.384   1.468   6.266  0.1633  0.1161  0.3288
24594SOL    HW175550   5.374   1.461   6.361 -3.1252 -0.1877  0.0477
24594SOL    HW275551   5.317   1.411   6.230  1.2520  0.3162 -2.2275
24595SOL     OW75552   5.065   4.429   9.014  0.1687 -0.3822 -0.2259
24595SOL    HW175553   5.083   4.501   9.075 -1.3317 -0.8876  0.8884
24595SOL    HW275554   4.976   4.402   9.036 -0.2323 -0.9157 -2.3632
24596SOL     OW75555   6.095   9.051   5.295  0.3166 -0.0070  0.1865
24596SOL    HW175556   6.093   9.116   5.225 -2.7637 -0.5953 -0.4373
24596SOL    HW275557   6.134   8.973   5.254  0.8789  0.4108 -0.0851
24597SOL     OW75558   2.391   6.850   2.625  0.0398 -0.0980  0.2032
24597SOL    HW175559   2.443   6.927   2.649 -3.3324  2.6631 -0.4809
24597SOL    HW275560   2.347   6.824   2.706 -0.7591  0.3324 -0.0877
24598SOL     OW75561   1.517   5.279   8.204 -0.1077 -0.5358  0.1868
24598SOL    HW175562   1.492   5.328   8.283  1.2119 -0.1758  0.4060
24598SOL    HW275563   1.473   5.326   8.133  0.3978  0.4516  0.4936
24599SOL     OW75564   9.675   1.932   6.910 -0.0821 -0.2205 -0.3276
24599SOL    HW175565   9.697   2.006   6.965 -3.4251  0.2377  0.5841
24599SOL    HW275566   9.699   1.855   6.962  1.0989  0.1951 -0.2380
24600SOL     OW75567   4.828   6.898   4.988  0.1369 -0.2473 -0.2744
24600SOL    HW175568   4.768   6.968   5.016 -0.4383 -1.2846  1.2326
24600SOL    HW275569   4.896   6.943   4.938 -0.0735  1.4392  0.8730
24601SOL     OW75570   2.693   6.090   1.381  0.0488  0.8713  0.5964
24601SOL    HW175571   2.765   6.134   1.425 -0.4386  1.3588  0.9299
24601SOL    HW275572   2.735   6.030   1.319  0.7369  1.7658  0.1658
24602SOL     OW75573   7.746   4.422   5.516  0.2360 -0.3589  0.1976
24602SOL    HW175574   7.683   4.367   5.470 -0.7833  1.3196 -0.4940
24602SOL    HW275575   7.822   4.425   5.458  0.1851 -0.7859  0.1058
24603SOL     OW75576   1.162   0.378   8.984  0.8308 -0.4548  0.0112
24603SOL    HW175577   1.207   0.398   8.902  1.6968 -1.8352  0.1189
24603SOL    HW275578   1.071   0.364   8.959  1.2195 -1.6182 -0.8636
24604SOL     OW75579   8.061   8.195   6.842 -0.1700  0.2021  0.6388
24604SOL    HW175580   8.008   8.130   6.888  1.0522  0.9094  3.2767
24604SOL    HW275581   8.124   8.144   6.792 -0.9735 -0.6356  0.4755
24605SOL     OW75582   7.676   5.722   2.688 -0.2526  0.0873  0.4363
24605SOL    HW175583   7.598   5.703   2.637  1.5622 -1.8980 -1.8161
24605SOL    HW275584   7.645   5.725   2.779 -3.1772  1.1717 -0.4716
24606SOL     OW75585   2.713   0.871   9.654  0.1606 -0.4193  0.0633
24606SOL    HW175586   2.780   0.806   9.676  0.6060 -0.9368 -2.4485
24606SOL    HW275587   2.737   0.949   9.704  0.1408 -1.8636  2.4525
24607SOL     OW75588   9.263   3.180   6.131 -0.1805  0.5889 -0.4440
24607SOL    HW175589   9.244   3.134   6.049  2.9409 -0.4220 -0.7292
24607SOL    HW275590   9.358   3.192   6.131 -0.4203  3.6957  1.4590
24608SOL     OW75591   6.896   3.010   8.567 -0.0581  0.3770 -0.3974
24608SOL    HW175592   6.972   2.965   8.604 -1.5621 -0.5485  1.8123
24608SOL    HW275593   6.823   2.950   8.582 -1.3415  1.4519 -1.9806
24609SOL     OW75594   2.818   8.808   6.289 -0.2482 -0.1933  0.3707
24609SOL    HW175595   2.906   8.786   6.258 -0.1122  0.6750  0.1056
24609SOL    HW275596   2.824   8.804   6.384  0.2413  0.4619  0.3687
24610SOL     OW75597   1.153   4.981   9.611 -0.2391  0.5373  0.3818
24610SOL    HW175598   1.234   4.949   9.571  0.1525 -0.2628  1.7235
24610SOL    HW275599   1.137   4.921   9.684 -1.5996  1.1759  0.6476
24611SOL     OW75600   9.200   6.365   5.778 -0.2189 -0.2564  0.2841
24611SOL    HW175601   9.135   6.353   5.709  0.2002  0.2741 -0.2199
24611SOL    HW275602   9.251   6.284   5.776 -0.2905 -0.2993  0.0581
24612SOL     OW75603   0.415   7.957   9.055 -0.3421  0.0022 -0.3557
24612SOL    HW175604   0.369   8.040   9.069  0.4372  0.3027  0.4982
24612SOL    HW275605   0.507   7.977   9.069  0.0710 -0.6374 -1.8665
24613SOL     OW75606   0.140   3.719   2.233  0.3075 -0.5269  0.0453
24613SOL    HW175607   0.112   3.789   2.174  2.1543  1.2748  1.1941
24613SOL    HW275608   0.169   3.649   2.174 -0.0449  0.3034 -1.1542
24614SOL     OW75609   8.545   7.554   3.993 -0.4788  0.1791  0.0151
24614SOL    HW175610   8.510   7.610   4.061 -1.8789  0.8965 -1.2358
24614SOL    HW275611   8.502   7.470   4.006  0.3829 -0.1398  0.8941
24615SOL     OW75612   5.678   3.448   2.904  0.6104 -0.3270  0.2419
24615SOL    HW175613   5.608   3.384   2.918  0.0758  0.5032  1.5580
24615SOL    HW275614   5.671   3.471   2.811 -0.6216 -0.5561  0.2598
24616SOL     OW75615   4.502   3.905   8.609 -0.1572  0.0313  0.2420
24616SOL    HW175616   4.549   3.960   8.672 -0.6823 -1.5105  2.0996
24616SOL    HW275617   4.480   3.826   8.659 -1.4681 -0.8593 -1.6367
24617SOL     OW75618   4.682   2.330   0.385 -0.5084  0.5128 -0.1180
24617SOL    HW175619   4.588   2.321   0.395 -0.2304 -2.8548  1.0060
24617SOL    HW275620   4.716   2.330   0.475  0.5969  0.3869 -0.5101
24618SOL     OW75621   8.283   0.069   9.038 -0.2204  0.4215  0.3555
24618SOL    HW175622   8.333   0.001   8.993 -0.2482 -0.4418  1.5656
24618SOL    HW275623   8.222   0.102   8.972  1.3467  0.9112 -0.9129
24619SOL     OW75624   2.748   6.866   1.850  0.2115 -0.3571  0.2832
24619SOL    HW175625   2.759   6.933   1.783 -1.0677 -0.0123  0.3944
24619SOL    HW275626   2.687   6.904   1.912  1.1327 -0.8006  1.4974
24620SOL     OW75627   0.362   9.838   3.220  0.0239  0.2718  0.0986
24620SOL    HW175628   0.405   9.791   3.148 -0.2895  0.8084 -0.4503
24620SOL    HW275629   0.338   9.922   3.182  0.4421  0.8224  1.0245
24621SOL     OW75630   6.264   3.552   7.570 -0.1733 -0.4301 -0.0049
24621SOL    HW175631   6.356   3.529   7.559 -0.0627 -0.1138  0.2438
24621SOL    HW275632   6.264   3.626   7.631 -0.6604 -1.0821  0.8067
24622SOL     OW75633   4.143   9.494   9.423 -0.4444 -0.6817 -0.0119
24622SOL    HW175634   4.104   9.578   9.449 -1.5427  0.1019 -3.6691
24622SOL    HW275635   4.078   9.429   9.449 -0.9875 -0.0745  0.1915
24623SOL     OW75636   8.864   7.473   9.425 -0.6868  0.0822  0.1034
24623SOL    HW175637   8.778   7.466   9.383 -0.2455 -0.5015 -0.7352
24623SOL    HW275638   8.925   7.485   9.352  0.3745 -3.1262  0.3223
24624SOL     OW75639   0.512   1.465   5.062 -0.4729  0.3697  0.4483
24624SOL    HW175640   0.570   1.541   5.058  1.7942 -1.2999 -0.0908
24624SOL    HW275641   0.501   1.448   5.155  1.1739 -0.1807  0.5599
24625SOL     OW75642   6.570   5.901   1.074  0.2739  0.0912 -0.6351
24625SOL    HW175643   6.623   5.955   1.016  1.8769  0.1659  0.8406
24625SOL    HW275644   6.507   5.962   1.112  0.8686  0.5525 -0.3775
24626SOL     OW75645   1.131   5.711   1.618  0.3114  0.1624 -0.1879
24626SOL    HW175646   1.175   5.739   1.538 -0.5831  0.1558 -0.6911
24626SOL    HW275647   1.072   5.641   1.590 -1.3428  1.3792  0.1389
24627SOL     OW75648   8.062   2.877   7.814  0.0551  0.4199  0.2132
24627SOL    HW175649   8.146   2.876   7.769 -0.6683  0.1404 -1.2119
24627SOL    HW275650   8.046   2.970   7.833 -0.2458  0.7302 -1.4092
24628SOL     OW75651   5.392   3.336   7.707 -0.0058  0.0340  0.7633
24628SOL    HW175652   5.325   3.404   7.705  0.3784  0.4075  0.1956
24628SOL    HW275653   5.472   3.380   7.677 -0.3426 -1.2809 -2.4516
24629SOL     OW75654   5.242   4.733   7.536 -0.0560  0.0946  0.6825
24629SOL    HW175655   5.239   4.727   7.440  1.3268 -0.6250  0.6637
24629SOL    HW275656   5.167   4.681   7.565  0.0373 -0.4325  0.0122
24630SOL     OW75657   3.261   1.109   0.399 -0.1955  0.1409 -0.7900
24630SOL    HW175658   3.353   1.132   0.399 -0.1631  0.0119 -1.0334
24630SOL    HW275659   3.219   1.175   0.344 -0.6988  1.9422  1.5594
24631SOL     OW75660   1.368   2.184   9.807  0.3354 -0.1612  0.0673
24631SOL    HW175661   1.319   2.106   9.832 -0.1165  0.3646  0.8872
24631SOL    HW275662   1.388   2.227   9.890  0.7175  0.5128 -0.3625
24632SOL     OW75663   2.281   1.848   6.403 -0.0973  0.2348 -0.5010
24632SOL    HW175664   2.304   1.909   6.473 -0.3645  0.0217 -0.2244
24632SOL    HW275665   2.198   1.881   6.369 -1.3254 -1.0987  1.0163
24633SOL     OW75666   5.116   6.255   7.982  0.2401  0.7647 -0.2726
24633SOL    HW175667   5.148   6.277   8.069  0.6378 -0.6257 -0.0433
24633SOL    HW275668   5.032   6.300   7.975  0.6080  1.6114  0.4718
24634SOL     OW75669   2.274   8.149   7.952 -0.1067  0.5685  0.0207
24634SOL    HW175670   2.280   8.244   7.963 -0.2529  0.7045 -1.0120
24634SOL    HW275671   2.288   8.135   7.859 -1.3075 -0.3316 -0.0381
24635SOL     OW75672   1.752   3.511   7.818  0.1730 -0.2496  0.2341
24635SOL    HW175673   1.815   3.456   7.771  0.3369  1.2871 -1.4767
24635SOL    HW275674   1.672   3.505   7.767 -0.0012  0.5227  0.4009
24636SOL     OW75675   8.513   0.618   3.101 -0.8892 -0.3395  0.4683
24636SOL    HW175676   8.587   0.579   3.149 -1.2506 -2.2093 -0.4101
24636SOL    HW275677   8.518   0.711   3.122  0.8887 -0.6201  1.5365
24637SOL     OW75678   2.711   3.567   6.769 -0.3535 -0.3133  0.1447
24637SOL    HW175679   2.725   3.564   6.674 -0.7987 -2.0693  0.1005
24637SOL    HW275680   2.731   3.479   6.798 -0.5363  0.1257  1.6617
24638SOL     OW75681   5.322   7.861   4.402 -0.0052 -0.0428  0.3211
24638SOL    HW175682   5.302   7.845   4.310  0.2978 -1.6757  0.5253
24638SOL    HW275683   5.403   7.813   4.419  1.0673  1.8575  0.9665
24639SOL     OW75684   0.612   5.736   7.739  0.0513  0.1782 -0.0410
24639SOL    HW175685   0.688   5.741   7.682  0.1664  1.0838  0.1688
24639SOL    HW275686   0.599   5.826   7.769 -1.2524  0.0871 -0.2665
24640SOL     OW75687   6.887   2.112   8.760 -0.0905 -0.1224  0.2007
24640SOL    HW175688   6.851   2.173   8.823  1.3670 -0.5184  1.4633
24640SOL    HW275689   6.810   2.075   8.716 -1.0374  1.6258  0.3025
24641SOL     OW75690   5.754   3.232   6.255 -0.4531 -0.0729  0.2684
24641SOL    HW175691   5.778   3.269   6.340  1.9692  2.3189 -1.3095
24641SOL    HW275692   5.795   3.146   6.254 -0.6628 -0.2102  1.5591
24642SOL     OW75693   5.004   5.797   6.622 -0.4858  0.3081 -0.1152
24642SOL    HW175694   4.933   5.810   6.559  0.2404 -0.1771 -1.0691
24642SOL    HW275695   5.084   5.812   6.571  0.1300 -0.2783  0.6476
24643SOL     OW75696   3.501   4.788   8.768  0.1996 -0.0393  0.4025
24643SOL    HW175697   3.501   4.759   8.677  1.2639 -0.2404  0.4612
24643SOL    HW275698   3.498   4.707   8.819 -1.5152  0.0842  0.5736
24644SOL     OW75699   0.240   3.003   0.207 -0.0684 -0.1659 -0.0749
24644SOL    HW175700   0.324   2.958   0.208  0.2711  0.3238 -2.3607
24644SOL    HW275701   0.183   2.946   0.156  0.0528  1.3755 -2.0208
24645SOL     OW75702   7.117   0.342   2.153 -0.3760 -0.1722  0.3184
24645SOL    HW175703   7.073   0.389   2.224 -0.3729  3.3939 -1.7716
24645SOL    HW275704   7.047   0.292   2.110 -1.3158  1.0422  0.3578
24646SOL     OW75705   5.121   4.879   4.316  0.0423  0.4289 -0.4111
24646SOL    HW175706   5.083   4.800   4.277  0.5794  0.3256 -0.7347
24646SOL    HW275707   5.165   4.922   4.244 -0.5106  1.1990 -0.3044
24647SOL     OW75708   9.834   7.567   6.969  0.5759 -0.1866 -0.3031
24647SOL    HW175709   9.812   7.554   7.061  0.0558 -1.5839 -0.6029
24647SOL    HW275710   9.930   7.571   6.967  0.6002  3.7724  0.7384
24648SOL     OW75711   5.481   5.296   4.572 -0.3252  0.4303 -0.5969
24648SOL    HW175712   5.460   5.278   4.664 -1.1274 -0.2515 -0.8990
24648SOL    HW275713   5.409   5.255   4.523  0.6581 -0.1611 -1.5855
24649SOL     OW75714   6.887   2.258   4.723  0.6204 -0.8326 -0.3725
24649SOL    HW175715   6.974   2.259   4.683  1.1322 -2.5078  0.6143
24649SOL    HW275716   6.838   2.194   4.670 -0.5955  1.2774 -1.9640
24650SOL     OW75717   2.301   7.823   6.839  0.5201  0.2055 -0.1194
24650SOL    HW175718   2.379   7.878   6.847  2.1676 -1.9970  0.0799
24650SOL    HW275719   2.316   7.752   6.902 -2.4522  0.5429  1.1038
24651SOL     OW75720   3.334   1.915   7.127  0.0345 -0.2854 -0.2464
24651SOL    HW175721   3.422   1.919   7.088  0.0383  1.6446 -0.1372
24651SOL    HW275722   3.343   1.852   7.199  1.1598 -0.6075 -0.6468
24652SOL     OW75723   0.027   4.058   5.767 -0.1453  0.4533  0.1641
24652SOL    HW175724   0.098   3.994   5.758 -0.2476  0.2630  0.6680
24652SOL    HW275725   0.009   4.060   5.861 -0.6979  0.6195  0.0563
24653SOL     OW75726   6.270   0.410   8.287 -0.2138  0.3289  0.0631
24653SOL    HW175727   6.315   0.344   8.233  0.6358  1.3932 -0.5636
24653SOL    HW275728   6.181   0.412   8.253  0.0444  0.2594 -0.6302
24654SOL     OW75729   5.313   5.109   4.491  0.0958 -0.0251  0.3065
24654SOL    HW175730   5.266   5.090   4.572  1.5779 -1.3754  0.9028
24654SOL    HW275731   5.371   5.034   4.479  1.3229  1.0722 -0.9532
24655SOL     OW75732   7.991   3.028   6.143 -0.2990 -0.1274 -0.3495
24655SOL    HW175733   7.998   3.098   6.078 -0.1399  1.0301  0.8583
24655SOL    HW275734   8.081   3.006   6.164 -0.3182  0.5895  0.5646
24656SOL     OW75735   1.959   3.597   4.910  0.2779 -0.4735 -0.1123
24656SOL    HW175736   2.001   3.662   4.967  0.6973 -1.1935  0.4203
24656SOL    HW275737   1.866   3.603   4.932  0.4314 -0.7408  0.6708
24657SOL     OW75738   5.640   0.429   9.266  0.1453  0.0802 -0.0289
24657SOL    HW175739   5.565   0.399   9.215  0.8425 -2.3041  0.1942
24657SOL    HW275740   5.607   0.431   9.356 -0.2279  1.1926 -0.1820
24658SOL     OW75741   2.946   4.132   7.822 -0.0131  0.3256  0.0279
24658SOL    HW175742   2.851   4.128   7.833  0.1565  0.9333  2.3698
24658SOL    HW275743   2.980   4.078   7.892  1.3625  2.1468  0.8510
24659SOL     OW75744   0.019   0.285   1.121  0.6295  0.3022  0.3796
24659SOL    HW175745   0.093   0.225   1.135  1.5307  1.6449  1.6285
24659SOL    HW275746  -0.023   0.292   1.206 -0.8030 -0.1977 -0.2517
24660SOL     OW75747   6.395   4.914   8.274 -0.2570 -0.2625  0.3682
24660SOL    HW175748   6.435   4.827   8.276  0.2192 -0.1384 -1.6833
24660SOL    HW275749   6.313   4.901   8.226  0.6896  0.6902 -1.6117
24661SOL     OW75750   2.649   7.659   4.190 -0.0818  0.2499  0.1200
24661SOL    HW175751   2.629   7.710   4.268 -1.7587  1.7216 -1.2022
24661SOL    HW275752   2.696   7.720   4.133 -1.6560  0.1975 -1.2789
24662SOL     OW75753   1.538   8.452   7.257  0.4153  0.2607  0.0593
24662SOL    HW175754   1.629   8.475   7.236 -0.0735  1.2006 -1.1371
24662SOL    HW275755   1.524   8.369   7.212  1.1341 -0.7505  1.5796
24663SOL     OW75756   6.867   6.183   5.416  0.5825 -0.0609  0.4134
24663SOL    HW175757   6.955   6.207   5.446  1.2315 -0.8853 -0.7564
24663SOL    HW275758   6.879   6.158   5.324 -0.5896 -1.8358  0.7016
24664SOL     OW75759   2.946   8.477   6.422 -0.6275 -0.2013 -0.5092
24664SOL    HW175760   2.925   8.562   6.461  0.1234 -0.4539  0.4775
24664SOL    HW275761   3.041   8.476   6.416 -0.6737 -0.6658 -1.2383
24665SOL     OW75762   6.502   6.254   9.518 -0.7178 -0.5510  0.0738
24665SOL    HW175763   6.487   6.175   9.569  2.2510  0.1146  2.2441
24665SOL    HW275764   6.491   6.326   9.580  0.2314  0.4821 -0.9042
24666SOL     OW75765   4.960   3.978   3.330  0.0880  0.4917  0.9983
24666SOL    HW175766   4.878   3.930   3.313 -0.1853  0.7372  1.5889
24666SOL    HW275767   5.001   3.987   3.244 -0.6500  0.6220  0.6519
24667SOL     OW75768   7.825   3.521   4.062 -0.1176 -0.0416  0.5668
24667SOL    HW175769   7.824   3.613   4.036  0.8733 -0.1683  0.0483
24667SOL    HW275770   7.816   3.523   4.158 -1.6500  0.5134  0.4439
24668SOL     OW75771   9.238   3.877   0.467  0.2556  0.1654  0.2202
24668SOL    HW175772   9.210   3.786   0.450  1.1329  0.0881 -0.9324
24668SOL    HW275773   9.319   3.868   0.517  0.3772  0.3042  0.0497
24669SOL     OW75774   3.698   9.241   2.867 -0.1235 -0.4134 -0.0617
24669SOL    HW175775   3.769   9.181   2.885 -0.1595 -0.1501  1.0304
24669SOL    HW275776   3.705   9.308   2.935 -2.7303 -1.5632  1.4668
24670SOL     OW75777   3.440   8.211   5.914  0.2120  0.0294  0.2665
24670SOL    HW175778   3.418   8.135   5.860  2.9247 -0.3731 -0.3875
24670SOL    HW275779   3.406   8.286   5.865 -3.7081 -0.6736  1.5465
24671SOL     OW75780   4.698   7.778   5.411 -0.0237  0.2617 -0.0064
24671SOL    HW175781   4.706   7.788   5.316  0.8210  0.6858  0.0940
24671SOL    HW275782   4.628   7.715   5.423 -0.1500  0.2127 -0.9153
24672SOL     OW75783   7.392   1.134   3.791  0.2244 -1.0440 -0.0927
24672SOL    HW175784   7.484   1.153   3.775  0.3584 -1.5584  0.0557
24672SOL    HW275785   7.384   1.127   3.886 -0.4519  1.3713  0.1074
24673SOL     OW75786   6.252   6.247   3.202 -0.4600  0.2698  0.0315
24673SOL    HW175787   6.239   6.158   3.171 -0.8889 -0.1923  1.4745
24673SOL    HW275788   6.347   6.260   3.197 -0.3678 -0.3647  0.0478
24674SOL     OW75789   9.373   2.589   4.520 -0.1130  0.1464  0.1500
24674SOL    HW175790   9.457   2.633   4.532 -0.1278  0.4805 -0.8377
24674SOL    HW275791   9.319   2.618   4.593  0.6873 -0.2187  0.8982
24675SOL     OW75792   3.329   3.227   8.521  0.7185  0.4182 -0.3742
24675SOL    HW175793   3.397   3.248   8.585  0.3710 -0.1197  0.1759
24675SOL    HW275794   3.364   3.259   8.438  1.6933  0.0511 -0.1196
24676SOL     OW75795   0.118   0.948   1.247  0.7744 -0.4616 -0.6343
24676SOL    HW175796   0.063   0.925   1.173 -1.9888  2.1704  0.3711
24676SOL    HW275797   0.120   1.044   1.247  1.9702 -0.4035  1.7818
24677SOL     OW75798   5.935   9.612   4.786 -0.2827  0.0682 -0.3309
24677SOL    HW175799   5.976   9.632   4.702  1.8249  0.3704  0.7012
24677SOL    HW275800   5.844   9.590   4.764  0.4434 -0.8149 -2.7808
24678SOL     OW75801   3.880   6.129   9.722 -0.6295  0.5713 -0.0730
24678SOL    HW175802   3.893   6.037   9.701  0.7052  0.7480 -0.1230
24678SOL    HW275803   3.964   6.158   9.758 -0.9131  1.8472 -0.3747
24679SOL     OW75804   7.714   0.231   3.423 -0.1151  0.1513  1.2399
24679SOL    HW175805   7.637   0.190   3.383  1.2603 -0.1917 -1.2617
24679SOL    HW275806   7.714   0.320   3.388  0.8654  0.0020  0.8426
24680SOL     OW75807   9.140   4.067   7.319 -0.7670  0.1780  0.0032
24680SOL    HW175808   9.166   4.021   7.399 -0.9302 -0.9286 -0.5661
24680SOL    HW275809   9.049   4.041   7.305 -1.5798  2.3301  0.7940
24681SOL     OW75810   9.586   5.784   2.268 -0.3378  0.1330 -0.2370
24681SOL    HW175811   9.509   5.830   2.234  1.1727  3.0476 -0.0477
24681SOL    HW275812   9.585   5.801   2.362  0.4249  0.0675 -0.2084
24682SOL     OW75813   2.882   5.049   3.889  0.0723  0.2238 -0.4909
24682SOL    HW175814   2.879   5.145   3.883  0.1048  0.2029 -0.8404
24682SOL    HW275815   2.877   5.019   3.798  2.7403 -0.0382 -0.6491
24683SOL     OW75816   7.601   1.398   9.532  0.8216 -0.0740  0.1760
24683SOL    HW175817   7.603   1.335   9.604 -0.5581 -0.6735 -0.2873
24683SOL    HW275818   7.585   1.482   9.574 -2.1824 -0.6995  0.4608
24684SOL     OW75819   4.217   8.250   0.451 -0.2936 -0.1358 -0.0258
24684SOL    HW175820   4.142   8.309   0.440  0.2496  0.5954  0.0916
24684SOL    HW275821   4.278   8.299   0.506 -0.3384 -1.2985  1.0941
24685SOL     OW75822   8.789   2.642   0.258  0.1770  0.3702  0.0821
24685SOL    HW175823   8.696   2.621   0.254  0.1990  0.3455 -0.2664
24685SOL    HW275824   8.792   2.728   0.300  0.0327  0.1120  0.6340
24686SOL     OW75825   8.678   6.062   4.768  0.0359  0.1271 -0.3888
24686SOL    HW175826   8.669   6.129   4.700 -1.6257  0.1902 -0.1543
24686SOL    HW275827   8.663   5.979   4.722  0.1643  0.0714 -0.3298
24687SOL     OW75828   0.441   1.073   5.024  0.4102 -0.3200 -0.2356
24687SOL    HW175829   0.389   1.000   5.055  0.0386 -0.7525 -1.7905
24687SOL    HW275830   0.396   1.103   4.945  1.4421  0.5521 -0.5175
24688SOL     OW75831   8.254   8.055   6.508  0.2218  0.2298 -0.0610
24688SOL    HW175832   8.346   8.067   6.529  0.3845 -0.7652 -0.1968
24688SOL    HW275833   8.219   8.145   6.504  0.6735  0.5556  2.1614
24689SOL     OW75834   7.753   5.940   3.886  0.1526 -0.2389 -0.0827
24689SOL    HW175835   7.759   5.914   3.978 -0.4567  0.9430  0.3127
24689SOL    HW275836   7.821   6.007   3.876  0.0694 -0.2047 -0.4316
24690SOL     OW75837   1.360   7.804   5.917  0.0542  0.1719  0.7930
24690SOL    HW175838   1.311   7.768   5.990 -0.3412 -1.1529 -0.0909
24690SOL    HW275839   1.320   7.765   5.839  0.7522  1.1925 -0.1152
24691SOL     OW75840   0.003   7.166   4.255  0.5052  0.0936 -0.2386
24691SOL    HW175841   0.080   7.203   4.298 -0.0819  1.4005 -0.2514
24691SOL    HW275842  -0.010   7.082   4.297  0.2124  1.1245  1.8485
24692SOL     OW75843   8.544   8.641   4.112 -0.9216 -0.0682  0.0246
24692SOL    HW175844   8.539   8.579   4.040 -1.7766 -0.2947  0.2666
24692SOL    HW275845   8.459   8.685   4.112 -1.0917 -0.3620  1.1345
24693SOL     OW75846   8.521   7.108   9.702 -0.5449  0.0279  0.4420
24693SOL    HW175847   8.433   7.104   9.665 -0.9596 -3.1651  1.4003
24693SOL    HW275848   8.569   7.037   9.658  0.9706  0.5165  1.2278
24694SOL     OW75849   4.279   5.428   8.712  0.3047 -0.1178 -0.0789
24694SOL    HW175850   4.297   5.518   8.738 -1.6783  0.2626  0.0792
24694SOL    HW275851   4.193   5.408   8.748  1.3147 -2.6352  1.2539
24695SOL     OW75852   9.731   3.462   2.475  0.4739  0.7678  0.0538
24695SOL    HW175853   9.820   3.437   2.501  0.1450 -2.1632 -1.1666
24695SOL    HW275854   9.681   3.381   2.484 -1.0178  1.1130 -3.6078
24696SOL     OW75855   8.268   2.667   0.132  0.3309  0.3989 -0.3461
24696SOL    HW175856   8.307   2.747   0.166  2.2141 -0.3911 -0.5562
24696SOL    HW275857   8.176   2.671   0.160  0.8202  1.7565  1.1829
24697SOL     OW75858   6.184   5.686   7.615 -0.2732  0.0533 -0.3506
24697SOL    HW175859   6.198   5.759   7.676 -0.8885  1.3867 -1.7193
24697SOL    HW275860   6.141   5.619   7.667  1.3074  0.2022  1.2329
24698SOL     OW75861   4.074   0.063   4.581  0.3012 -0.4403  0.0084
24698SOL    HW175862   4.081   0.155   4.554  1.8176 -0.1016  1.3841
24698SOL    HW275863   4.127   0.015   4.518  0.7257 -0.1648  0.1519
24699SOL     OW75864   7.790   0.597   6.379 -0.0938  0.3120  0.0172
24699SOL    HW175865   7.848   0.536   6.424  0.1530  0.5953  0.0926
24699SOL    HW275866   7.724   0.542   6.337  0.7642 -0.0768 -0.8510
24700SOL     OW75867   0.758   9.188   4.955 -0.2293  0.2152  0.2576
24700SOL    HW175868   0.776   9.095   4.946 -1.9694 -0.0376 -1.3226
24700SOL    HW275869   0.844   9.229   4.967  0.7504 -1.4154 -0.8358
24701SOL     OW75870   0.043   9.849   0.230 -0.9548 -0.5922 -0.0437
24701SOL    HW175871   0.087   9.903   0.165 -0.0690 -0.1551  0.8902
24701SOL    HW275872   0.005   9.777   0.180  0.0570 -0.4840 -0.9888
24702SOL     OW75873   9.748   6.275   1.321 -0.8069  0.6278 -0.1807
24702SOL    HW175874   9.689   6.297   1.249 -0.7375 -0.5255 -0.6132
24702SOL    HW275875   9.750   6.179   1.322 -1.0027  0.6086  1.5153
24703SOL     OW75876   7.647   4.644   9.247 -0.1561  0.0401  0.3920
24703SOL    HW175877   7.576   4.698   9.281  2.2329  3.3123  0.6383
24703SOL    HW275878   7.608   4.598   9.172 -3.5468 -1.6220  2.9191
24704SOL     OW75879   3.461   2.362   5.189  0.9833 -0.6393 -0.0835
24704SOL    HW175880   3.456   2.267   5.202  0.9752 -0.4232  1.7519
24704SOL    HW275881   3.494   2.372   5.100 -0.0784 -2.3433 -0.7096
24705SOL     OW75882   1.774   8.156   6.375 -0.1290  0.5781 -0.3242
24705SOL    HW175883   1.767   8.125   6.465 -0.2599 -0.3232 -0.6347
24705SOL    HW275884   1.861   8.196   6.369  0.5956 -0.9542 -0.2794
24706SOL     OW75885   2.045   7.936   9.692  0.0508  0.0865  0.1058
24706SOL    HW175886   2.080   7.849   9.671 -2.5280 -0.8909 -0.6042
24706SOL    HW275887   2.121   7.992   9.699  1.8845 -2.3354  1.1203
24707SOL     OW75888   2.888   9.809   6.010  1.1225 -0.1612 -0.3786
24707SOL    HW175889   2.945   9.750   6.059  0.2568  0.4409  1.4816
24707SOL    HW275890   2.889   9.776   5.920  1.6166 -2.2493  0.3407
24708SOL     OW75891   7.100   7.379   4.058 -0.2581 -0.2598 -0.2343
24708SOL    HW175892   7.153   7.398   3.980  0.6306  0.0081  0.4115
24708SOL    HW275893   7.010   7.394   4.030 -0.0312 -0.9872 -1.4442
24709SOL     OW75894   9.031   6.728   3.262 -0.3875  0.2017 -0.2058
24709SOL    HW175895   8.946   6.771   3.269 -0.4880 -0.0778  0.4073
24709SOL    HW275896   9.045   6.716   3.168 -0.6772  0.9258 -0.3434
24710SOL     OW75897   0.376   9.149   3.528  0.6538  0.5097  0.5501
24710SOL    HW175898   0.316   9.113   3.464 -0.1226 -1.6167  2.3399
24710SOL    HW275899   0.343   9.237   3.546 -0.6582  0.1617 -0.0478
24711SOL     OW75900   2.791   8.906   2.079  0.1637  0.0480  0.0838
24711SOL    HW175901   2.724   8.938   2.020  1.8743  0.7356 -1.5805
24711SOL    HW275902   2.742   8.866   2.152 -2.0551 -1.5566 -2.1162
24712SOL     OW75903   4.003   6.711   4.319  0.6357 -0.3916 -0.1069
24712SOL    HW175904   4.066   6.654   4.362  4.0929  0.8060 -3.0602
24712SOL    HW275905   4.038   6.799   4.329  0.4100  0.1717 -3.1716
24713SOL     OW75906   6.684   9.491   0.807 -0.1173 -0.1631  0.5846
24713SOL    HW175907   6.693   9.472   0.900  3.1648  0.3371  0.4596
24713SOL    HW275908   6.716   9.412   0.763  0.6801  0.4987 -0.0591
24714SOL     OW75909   6.378   8.279   7.071 -0.1842 -0.0656 -0.2807
24714SOL    HW175910   6.397   8.361   7.118 -1.8089 -0.7146  1.6655
24714SOL    HW275911   6.454   8.224   7.088  0.8561  0.9198 -1.4769
24715SOL     OW75912   8.153   2.631   8.431  0.6264 -0.1426  0.8070
24715SOL    HW175913   8.145   2.610   8.338  0.2348 -0.2197  0.8555
24715SOL    HW275914   8.204   2.559   8.468 -1.5846 -1.6287  1.1659
24716SOL     OW75915   0.074   4.387   6.692  0.1593  0.1805 -0.5924
24716SOL    HW175916   0.142   4.454   6.697  0.2188  0.0728  0.0290
24716SOL    HW275917  -0.002   4.427   6.734  0.4711 -0.4832  0.6375
24717SOL     OW75918   1.894   4.457   4.033 -0.1821  1.0762 -0.1563
24717SOL    HW175919   1.938   4.379   4.066 -0.1668  1.1199 -0.0753
24717SOL    HW275920   1.854   4.428   3.950  0.1183  1.0758 -0.3016
24718SOL     OW75921   4.529   1.093   1.617  0.2947 -0.6489  0.5434
24718SOL    HW175922   4.473   1.170   1.628  0.5926 -0.4289  0.5217
24718SOL    HW275923   4.529   1.077   1.522  1.2511  0.0898  0.4094
24719SOL     OW75924   5.337   2.655   4.346  0.0884  0.9033  0.2232
24719SOL    HW175925   5.380   2.740   4.348  0.5971  0.6477  0.9202
24719SOL    HW275926   5.407   2.592   4.365 -0.6115  0.4903  1.5908
24720SOL     OW75927   9.342   2.330   4.570 -0.1773 -0.7444 -0.1980
24720SOL    HW175928   9.309   2.319   4.660  1.9539  1.9007  1.0503
24720SOL    HW275929   9.371   2.421   4.566  0.2762 -0.9090 -3.4723
24721SOL     OW75930   4.188   3.098   9.015 -0.1064  0.2263 -0.8014
24721SOL    HW175931   4.160   3.189   9.028  0.7143  0.3018  0.5516
24721SOL    HW275932   4.106   3.048   9.018 -0.3418  0.6399  1.2787
24722SOL     OW75933   6.952   4.781   4.878 -0.0411 -0.6687 -0.1249
24722SOL    HW175934   6.882   4.823   4.927 -0.5666 -1.8414  0.1528
24722SOL    HW275935   6.930   4.796   4.786 -0.7109 -1.1137 -0.0384
24723SOL     OW75936   0.611   2.506   5.824  0.1534  0.2196 -0.2149
24723SOL    HW175937   0.634   2.482   5.914 -0.8842 -0.4574 -0.1121
24723SOL    HW275938   0.533   2.561   5.833 -0.3697 -0.4284 -0.7393
24724SOL     OW75939   0.769   1.287   1.602  0.1376  0.1948  0.1699
24724SOL    HW175940   0.700   1.311   1.664  0.2075 -0.7085  0.6120
24724SOL    HW275941   0.791   1.369   1.557 -2.9828  0.1374 -1.8024
24725SOL     OW75942   4.893   9.431   7.423 -0.8202 -0.2988  0.4764
24725SOL    HW175943   4.975   9.392   7.453 -0.0017  0.2272 -1.0012
24725SOL    HW275944   4.908   9.525   7.428 -1.4241 -0.1950  0.4193
24726SOL     OW75945   0.905   4.810   6.853 -0.1993 -0.4825 -0.3978
24726SOL    HW175946   0.912   4.905   6.858 -0.0060 -0.4536 -1.0432
24726SOL    HW275947   0.822   4.789   6.896  0.7330 -0.2285  1.6520
24727SOL     OW75948   4.728   7.036   7.563  0.7233 -0.2802 -1.0499
24727SOL    HW175949   4.744   7.127   7.537  0.1379  0.3189  0.5415
24727SOL    HW275950   4.660   7.005   7.502 -0.9824  1.2355 -0.0289
24728SOL     OW75951   2.373   9.523   0.801  0.5964 -0.2449  0.3006
24728SOL    HW175952   2.400   9.595   0.744  0.3828 -1.8211 -1.9280
24728SOL    HW275953   2.455   9.479   0.825  0.5911 -0.4477 -0.0409
24729SOL     OW75954   6.854   2.540   4.175 -0.2415 -0.0261 -0.1448
24729SOL    HW175955   6.887   2.627   4.194  1.6452 -0.6174 -0.5223
24729SOL    HW275956   6.775   2.532   4.228 -1.3853  2.4617 -1.2779
24730SOL     OW75957   0.588   7.522   8.594  0.2119  0.1019  0.2293
24730SOL    HW175958   0.597   7.606   8.640 -0.2734  0.0024  0.5094
24730SOL    HW275959   0.513   7.535   8.536 -0.6066 -0.5186  1.1229
24731SOL     OW75960   5.225   9.483   2.748 -0.0635 -0.8238  0.1637
24731SOL    HW175961   5.278   9.546   2.699  0.0806 -0.8705  0.2575
24731SOL    HW275962   5.248   9.398   2.711 -1.5250 -0.6811 -1.1290
24732SOL     OW75963   6.680   2.539   0.056 -0.0977 -0.6583 -0.5932
24732SOL    HW175964   6.697   2.558   0.148 -0.1898 -0.5256 -0.6029
24732SOL    HW275965   6.736   2.464   0.036 -2.6312 -3.0082  0.4885
24733SOL     OW75966   4.995   9.110   5.452 -0.0070 -0.5022 -0.1478
24733SOL    HW175967   5.055   9.067   5.391 -1.0302 -3.0642  0.5499
24733SOL    HW275968   4.913   9.120   5.404 -0.3206 -1.0138  0.2726
24734SOL     OW75969   1.954   4.574   3.477  0.2247  0.3025 -0.4493
24734SOL    HW175970   1.958   4.513   3.403 -0.2484  0.1659 -0.3667
24734SOL    HW275971   1.986   4.524   3.552 -1.0702 -0.1771 -0.1779
24735SOL     OW75972   0.603   2.488   4.511  0.1109  0.0176  0.0038
24735SOL    HW175973   0.606   2.516   4.602  0.1097 -0.6137  0.2064
24735SOL    HW275974   0.570   2.398   4.515  0.2256 -0.0561 -0.6102
24736SOL     OW75975   4.216   9.822   0.931 -0.5224 -0.2211  0.0434
24736SOL    HW175976   4.233   9.728   0.927  1.9911  0.1188  0.9543
24736SOL    HW275977   4.162   9.840   0.853  0.1809 -2.1622 -0.9606
24737SOL     OW75978   6.805   6.460   9.682  0.1356  0.0669  0.5894
24737SOL    HW175979   6.777   6.550   9.666  1.1556  0.1019 -1.3514
24737SOL    HW275980   6.884   6.449   9.628  0.1728 -1.9040  0.9518
24738SOL     OW75981   4.122   6.773   8.139 -0.0247 -0.9935 -0.1249
24738SOL    HW175982   4.067   6.789   8.063  0.9909 -0.5887 -0.8003
24738SOL    HW275983   4.203   6.821   8.121 -0.3484  0.4973  1.9405
24739SOL     OW75984   4.576   1.297   8.087  0.0304  0.2741 -0.3076
24739SOL    HW175985   4.554   1.272   8.177 -1.1829  2.6177  0.1201
24739SOL    HW275986   4.548   1.388   8.080  2.6140  1.0384 -2.2370
24740SOL     OW75987   5.793   5.654   9.676  0.0784  0.1262  0.4290
24740SOL    HW175988   5.709   5.648   9.630  0.0434  1.2398  0.3114
24740SOL    HW275989   5.785   5.591   9.748 -0.7997  0.0896  0.3183
24741SOL     OW75990   7.997   1.646   1.823 -0.0622  0.1407 -0.5513
24741SOL    HW175991   7.952   1.581   1.768  0.5038 -0.5198 -0.2549
24741SOL    HW275992   7.928   1.705   1.852 -0.5242 -0.0712 -1.1856
24742SOL     OW75993   0.657   3.541   4.809 -0.2279 -0.1390 -0.2625
24742SOL    HW175994   0.709   3.519   4.886  0.1454  0.4445 -0.3388
24742SOL    HW275995   0.723   3.558   4.741 -0.5309  0.1750 -0.4787
24743SOL     OW75996   3.058   7.166   7.594  0.2238  0.2235 -0.5908
24743SOL    HW175997   3.060   7.237   7.658 -1.0442  0.7752 -1.1328
24743SOL    HW275998   2.987   7.108   7.624  0.1608  0.0559 -1.0593
24744SOL     OW75999   1.454   6.613   2.751  0.0328 -0.3012  0.2764
24744SOL    HW176000   1.497   6.646   2.830 -0.7314  0.0813  0.5448
24744SOL    HW276001   1.525   6.604   2.687  0.7163 -0.9428  1.1017
24745SOL     OW76002   5.750   2.169   7.231  0.8907  0.2087  0.5257
24745SOL    HW176003   5.672   2.213   7.265  1.4668  2.1777 -0.5593
24745SOL    HW276004   5.745   2.181   7.136  1.8843 -0.7565  0.3300
24746SOL     OW76005   4.611   6.104   4.295  0.2515 -0.2789 -0.0583
24746SOL    HW176006   4.566   6.171   4.347  0.6821  0.1736 -0.2571
24746SOL    HW276007   4.695   6.144   4.273 -0.7663  0.4721 -3.0260
24747SOL     OW76008   8.305   4.847   0.999  0.1642  0.1513 -0.1448
24747SOL    HW176009   8.299   4.751   0.996  0.5781  0.1506 -1.0340
24747SOL    HW276010   8.396   4.867   0.978  0.6073  0.6824  1.9626
24748SOL     OW76011   5.429   1.636   5.789 -0.0922 -0.0672  0.7537
24748SOL    HW176012   5.506   1.684   5.759  0.0268  0.2654  1.5593
24748SOL    HW276013   5.359   1.662   5.728 -0.0354  1.1440  1.1768
24749SOL     OW76014   0.152   9.686   9.716 -0.1459 -0.3690 -0.6646
24749SOL    HW176015   0.069   9.713   9.755 -0.2831 -0.5871 -0.7983
24749SOL    HW276016   0.158   9.592   9.736 -0.4626 -0.5980 -1.5883
24750SOL     OW76017   2.109   7.897   5.797  0.0212 -0.5626 -0.0030
24750SOL    HW176018   2.160   7.816   5.801  1.1404  0.1438  1.4844
24750SOL    HW276019   2.147   7.946   5.725 -1.7617 -1.9804 -2.0272
24751SOL     OW76020   5.403   2.192   1.494 -0.2147 -0.3179  0.2930
24751SOL    HW176021   5.417   2.185   1.400 -0.6710  0.7510  0.1278
24751SOL    HW276022   5.366   2.108   1.520  0.9609 -1.0356 -0.2685
24752SOL     OW76023   1.255   3.075   2.972  0.1936 -0.5632  0.0446
24752SOL    HW176024   1.227   3.021   3.045  1.7706  0.1019  1.2110
24752SOL    HW276025   1.351   3.067   2.971  0.8774  4.0004  1.9005
24753SOL     OW76026   6.964   6.410   8.989  0.3734 -0.1731  0.1533
24753SOL    HW176027   6.894   6.435   8.928  1.7792  0.9070 -1.1024
24753SOL    HW276028   6.947   6.463   9.067 -1.2009 -1.2458  0.5895
24754SOL     OW76029   4.978   0.676   9.707 -0.3660 -0.3480  0.6232
24754SOL    HW176030   4.984   0.642   9.796 -1.0366  0.6890  1.0706
24754SOL    HW276031   4.885   0.668   9.684 -0.1157 -1.1251 -0.2069
24755SOL     OW76032   5.112   6.832   0.041 -0.2148  0.7823 -0.2887
24755SOL    HW176033   5.108   6.783  -0.041 -1.7209 -0.5785  0.5350
24755SOL    HW276034   5.029   6.811   0.085 -0.0581  2.5944  0.9517
24756SOL     OW76035   5.457   9.605   7.951 -0.4319  0.0243 -0.2581
24756SOL    HW176036   5.473   9.667   7.879  1.5012 -1.0734 -0.8432
24756SOL    HW276037   5.456   9.519   7.909 -0.1599 -0.5772  0.9299
24757SOL     OW76038   3.852   0.755   7.578 -0.4589  0.4640 -0.0904
24757SOL    HW176039   3.856   0.671   7.532 -0.9356  0.7528 -0.6890
24757SOL    HW276040   3.780   0.801   7.535 -0.5534  0.9644  0.5951
24758SOL     OW76041   0.057   9.123   6.079  0.6054 -0.0185  0.4729
24758SOL    HW176042   0.123   9.132   6.010  1.0909 -0.8195  0.8167
24758SOL    HW276043   0.031   9.213   6.099  0.3237  0.2184 -0.8716
24759SOL     OW76044   0.709   4.059   8.498  0.1898  0.0565  0.1532
24759SOL    HW176045   0.689   4.082   8.408  0.7374  2.1991  0.5247
24759SOL    HW276046   0.725   4.143   8.542  2.2724 -1.0342  1.6855
24760SOL     OW76047   6.589   1.822   4.017 -0.4422 -0.2876 -0.2300
24760SOL    HW176048   6.541   1.829   4.099  0.2092  2.0715  0.0428
24760SOL    HW276049   6.653   1.753   4.033 -0.0620  0.3791  1.4421
24761SOL     OW76050   0.150   2.100   8.533  0.8694 -0.1616  0.8262
24761SOL    HW176051   0.228   2.047   8.516  1.6240  0.8244  1.1207
24761SOL    HW276052   0.093   2.083   8.458  0.5048 -2.4024  1.5441
24762SOL     OW76053   7.003   3.805   3.270 -0.5403  0.0395  0.0915
24762SOL    HW176054   7.064   3.734   3.249 -0.9562 -0.2055 -0.2997
24762SOL    HW276055   7.043   3.849   3.345 -1.0233 -1.5380  1.3180
24763SOL     OW76056   8.041   6.972   7.577 -0.3556  0.2957 -0.4515
24763SOL    HW176057   7.988   6.947   7.653 -1.5565 -0.4600 -1.5094
24763SOL    HW276058   8.021   6.906   7.511 -0.3794  1.6969 -1.8963
24764SOL     OW76059   7.051   8.496   8.657 -0.6674 -0.1071  0.0743
24764SOL    HW176060   6.994   8.553   8.605 -0.3089 -1.4435 -1.9144
24764SOL    HW276061   6.993   8.425   8.685 -1.0724  1.0666  2.3797
24765SOL     OW76062   5.902   8.459   0.781 -0.0893 -0.4494  0.4668
24765SOL    HW176063   5.962   8.442   0.709  0.5666 -0.9919  1.1268
24765SOL    HW276064   5.957   8.459   0.860 -0.6060  1.2938  0.8715
24766SOL     OW76065   0.430   7.689   9.293 -0.5097  0.5631 -0.8671
24766SOL    HW176066   0.488   7.763   9.309  1.0158 -0.8128  0.1988
24766SOL    HW276067   0.377   7.682   9.372 -0.8280  0.6554 -1.0696
24767SOL     OW76068   1.976   0.435   3.158  0.2789 -0.2256  0.2394
24767SOL    HW176069   1.994   0.497   3.229  1.5269  1.2239 -1.2681
24767SOL    HW276070   2.063   0.412   3.124 -0.2696 -1.4544 -0.3755
24768SOL     OW76071   9.826   6.934   3.917  0.3169  0.0079  0.3945
24768SOL    HW176072   9.733   6.919   3.896  0.7161 -0.0236 -1.5399
24768SOL    HW276073   9.872   6.911   3.837  1.8352  1.9888  0.6254
24769SOL     OW76074   5.850   6.358   1.864  0.2692  0.2580  0.1773
24769SOL    HW176075   5.815   6.313   1.787 -0.6594 -0.0110  0.7355
24769SOL    HW276076   5.927   6.307   1.889 -1.4646 -1.8833  1.5669
24770SOL     OW76077   5.724   8.044   6.613  0.3483 -0.3348  0.0697
24770SOL    HW176078   5.685   8.126   6.645 -1.1576 -0.5247 -1.1403
24770SOL    HW276079   5.668   7.975   6.650  1.0031 -0.7726  0.2634
24771SOL     OW76080   2.332   6.637   7.538 -0.1552  0.4434  0.1859
24771SOL    HW176081   2.423   6.666   7.544 -0.0769  0.0130  1.1765
24771SOL    HW276082   2.328   6.587   7.456  0.6981 -0.1971  0.5188
24772SOL     OW76083   1.907   4.956   6.612  0.0556  0.2102  0.3609
24772SOL    HW176084   1.979   4.938   6.672 -0.2263  0.6204  0.8254
24772SOL    HW276085   1.876   5.044   6.636  0.7602  0.9282 -1.2146
24773SOL     OW76086   9.593   4.913   6.225  0.4389  0.7457  0.5720
24773SOL    HW176087   9.672   4.874   6.262  0.5032  0.1115 -0.1965
24773SOL    HW276088   9.521   4.868   6.270  0.4959  1.4697  1.4217
24774SOL     OW76089   0.481   2.477   2.060 -0.0906 -0.2577  0.2952
24774SOL    HW176090   0.462   2.468   1.967  3.3548 -0.7594 -0.4849
24774SOL    HW276091   0.496   2.387   2.090  1.3546  0.0937  0.6744
24775SOL     OW76092   3.570   9.744   3.200 -0.2137 -0.0862 -1.2754
24775SOL    HW176093   3.608   9.822   3.241 -1.6998  0.1231 -0.1977
24775SOL    HW276094   3.640   9.708   3.146  1.7341 -0.1143  1.0914
24776SOL     OW76095   7.179   0.816   0.289 -0.0643  0.2476 -0.5896
24776SOL    HW176096   7.107   0.753   0.289  1.3585 -1.5376  1.6773
24776SOL    HW276097   7.205   0.823   0.381  3.5360 -0.2943 -1.4188
24777SOL     OW76098   4.369   0.255   5.404 -0.3906  0.0090 -0.0209
24777SOL    HW176099   4.322   0.200   5.341 -0.2006 -0.4787  0.2615
24777SOL    HW276100   4.366   0.206   5.486 -0.7347  0.6935  0.3876
24778SOL     OW76101   9.419   5.180   9.210  0.2212  0.3592  0.4523
24778SOL    HW176102   9.510   5.160   9.192  0.9375  2.3184  1.6595
24778SOL    HW276103   9.397   5.125   9.286  0.4644  0.0994  0.3378
24779SOL     OW76104   6.619   4.514   3.967 -0.2998 -0.0019 -0.8790
24779SOL    HW176105   6.637   4.490   3.877  0.5661  2.0643 -1.3136
24779SOL    HW276106   6.681   4.584   3.986  2.0506 -2.6443  2.5081
24780SOL     OW76107   7.018   3.086   0.645 -0.2956  1.0378  0.1311
24780SOL    HW176108   7.088   3.137   0.605  0.2798 -0.3012 -0.6322
24780SOL    HW276109   7.027   2.998   0.608 -0.0611 -0.1759  2.7893
24781SOL     OW76110   8.588   8.230   0.371  0.0452  0.4206 -0.8088
24781SOL    HW176111   8.582   8.314   0.325  0.7572  0.7563 -0.3129
24781SOL    HW276112   8.505   8.223   0.418  0.4607  1.4510  0.1185
24782SOL     OW76113   4.352   7.796   9.209  0.1871 -0.1043 -0.1837
24782SOL    HW176114   4.418   7.816   9.275  0.0915  0.8258 -0.3513
24782SOL    HW276115   4.374   7.708   9.178  0.2226 -0.5513  1.0835
24783SOL     OW76116   7.736   1.524   9.152  0.2996 -0.2386 -0.1222
24783SOL    HW176117   7.752   1.447   9.208  1.0888  1.4905  2.1974
24783SOL    HW276118   7.781   1.596   9.197 -1.7452  1.9397 -1.3338
24784SOL     OW76119   6.048   1.084   7.828  0.3101  0.6371  0.1124
24784SOL    HW176120   5.964   1.086   7.874 -0.2934 -0.5369 -0.8958
24784SOL    HW276121   6.047   1.163   7.774  0.2760  1.1186  0.8029
24785SOL     OW76122   4.248   6.410   9.327  0.2797  0.2250  0.3678
24785SOL    HW176123   4.223   6.387   9.238  1.5404  3.3239 -0.9003
24785SOL    HW276124   4.343   6.413   9.326  0.3234  0.2229  1.8627
24786SOL     OW76125   8.848   6.084   6.435 -0.1429  0.4143  0.0063
24786SOL    HW176126   8.767   6.134   6.427  0.6915  1.7236 -0.4219
24786SOL    HW276127   8.841   6.044   6.522 -0.5217  1.8494  0.6719
24787SOL     OW76128   5.725   4.519   8.237  0.0483 -0.4826 -0.0945
24787SOL    HW176129   5.809   4.487   8.270  0.9409  1.5557 -0.2364
24787SOL    HW276130   5.681   4.554   8.314 -0.1099 -0.4251 -0.2109
24788SOL     OW76131   0.782   1.808   7.676  0.2379  0.1787  0.1200
24788SOL    HW176132   0.767   1.840   7.587 -0.8462 -1.2040 -0.2488
24788SOL    HW276133   0.700   1.827   7.722 -0.1729 -1.3682  0.0773
24789SOL     OW76134   4.062   2.331   7.528 -0.0533  0.4812 -0.2916
24789SOL    HW176135   3.982   2.282   7.509 -0.2567 -0.4218  2.3858
24789SOL    HW276136   4.125   2.263   7.553  1.2162  1.2709 -1.2617
24790SOL     OW76137   8.260   9.686   6.519  0.4648 -0.0927  0.6067
24790SOL    HW176138   8.223   9.605   6.554 -0.3905  0.1460  0.2795
24790SOL    HW276139   8.188   9.727   6.472  1.1435  0.4057 -0.0274
24791SOL     OW76140   0.720   1.522   4.674 -0.0295  0.0895 -0.2328
24791SOL    HW176141   0.686   1.464   4.743  2.8295  0.1316  1.3690
24791SOL    HW276142   0.714   1.470   4.594  1.1074 -1.9347  0.9163
24792SOL     OW76143   2.728   6.234   6.689 -0.8229 -0.6238  0.3146
24792SOL    HW176144   2.821   6.209   6.689 -0.8610 -0.8181 -1.2488
24792SOL    HW276145   2.704   6.233   6.782  1.0188  0.5445  0.8714
24793SOL     OW76146   5.732   7.762   3.292 -0.1443  0.4572 -0.3236
24793SOL    HW176147   5.748   7.722   3.206 -0.2966  0.5820 -0.4095
24793SOL    HW276148   5.787   7.841   3.292  0.6883 -0.1087  0.1127
24794SOL     OW76149   4.813   3.784   1.821  0.9344  0.1883 -0.1357
24794SOL    HW176150   4.875   3.747   1.885  0.5150 -0.1281  0.0938
24794SOL    HW276151   4.864   3.789   1.739  1.5386  0.7938  0.2625
24795SOL     OW76152   8.966   9.516   4.413 -0.4354 -0.1006  0.8928
24795SOL    HW176153   8.925   9.452   4.471 -1.1149 -0.6682 -0.1583
24795SOL    HW276154   8.990   9.589   4.470 -1.1724 -0.5846  1.8614
24796SOL     OW76155   9.325   6.515   0.236 -0.0474 -0.4969 -0.6396
24796SOL    HW176156   9.412   6.475   0.240  0.3975  0.5229  0.3591
24796SOL    HW276157   9.267   6.450   0.277  0.5390 -0.4668  0.2738
24797SOL     OW76158   7.619   8.063   8.996  0.2769 -0.0734 -0.6775
24797SOL    HW176159   7.628   8.017   9.080 -2.5399  1.3442  0.5324
24797SOL    HW276160   7.698   8.116   8.989  2.0859 -2.5931 -0.5632
24798SOL     OW76161   3.664   1.063   9.135 -0.3208  0.2989  0.5290
24798SOL    HW176162   3.608   0.998   9.179  0.7282 -0.3691  0.9076
24798SOL    HW276163   3.746   1.016   9.118 -0.3772  0.8134 -1.3416
24799SOL     OW76164   4.286   5.950   9.405  0.2847 -0.3668 -0.0049
24799SOL    HW176165   4.330   6.001   9.473  0.5909 -0.3891 -0.1841
24799SOL    HW276166   4.326   5.863   9.410 -1.2256 -1.0243  1.2530
24800SOL     OW76167   8.763   0.529   7.491 -0.3458 -0.2836  0.3088
24800SOL    HW176168   8.687   0.579   7.459  0.5148  0.5715 -0.4820
24800SOL    HW276169   8.808   0.501   7.411 -0.2940 -1.5374  0.7632
24801SOL     OW76170   3.561   3.466   3.975 -0.2961 -0.0992 -0.2164
24801SOL    HW176171   3.593   3.537   3.919  0.5086  0.1819  0.5636
24801SOL    HW276172   3.490   3.426   3.926  0.0417  0.4784 -1.1992
24802SOL     OW76173   4.049   9.692   7.046  0.2697 -0.3474 -0.4318
24802SOL    HW176174   3.956   9.683   7.066  0.5130 -0.8682  0.5410
24802SOL    HW276175   4.077   9.768   7.097  1.0038 -1.9762  1.7913
24803SOL     OW76176   0.094   6.076   1.777  0.6134  0.1695 -0.0550
24803SOL    HW176177   0.154   6.095   1.849  0.9907 -2.0842  0.2841
24803SOL    HW276178   0.143   6.019   1.719 -0.8650 -0.9309 -0.2721
24804SOL     OW76179   3.535   1.733   8.442  0.2298 -0.3016  0.5193
24804SOL    HW176180   3.470   1.665   8.425 -0.0238  0.2587 -0.8174
24804SOL    HW276181   3.570   1.756   8.356 -0.4830  2.0528  0.7921
24805SOL     OW76182   4.737   4.420   3.665  0.2260 -0.0801  0.0533
24805SOL    HW176183   4.743   4.449   3.756 -2.3095 -1.0388  0.6053
24805SOL    HW276184   4.731   4.325   3.670 -2.1293 -0.0518 -0.8821
24806SOL     OW76185   4.549   7.544   0.421  0.7690 -0.4570  0.6612
24806SOL    HW176186   4.553   7.466   0.366 -2.2429 -1.2667  1.3901
24806SOL    HW276187   4.501   7.608   0.368  1.4762  0.2218  0.8176
24807SOL     OW76188   7.802   2.531   1.603 -0.0480 -0.1943  0.2386
24807SOL    HW176189   7.765   2.606   1.556 -0.0386 -0.5568 -0.3541
24807SOL    HW276190   7.769   2.454   1.556  1.2469 -0.5332 -0.1448
24808SOL     OW76191   5.674   9.830   1.359  0.5105  0.3514 -0.4823
24808SOL    HW176192   5.698   9.740   1.338  1.1322  0.8647 -2.1064
24808SOL    HW276193   5.624   9.823   1.441  1.2500 -1.3670 -0.1296
24809SOL     OW76194   1.611   6.715   5.060  0.4610  0.4686  0.3451
24809SOL    HW176195   1.689   6.766   5.082  0.3236  0.4139  0.9647
24809SOL    HW276196   1.539   6.777   5.066  0.2523  0.1410  1.4176
24810SOL     OW76197   1.154   7.774   7.748  0.6801 -0.3435  0.0011
24810SOL    HW176198   1.140   7.868   7.762  0.8087 -0.4067  0.5798
24810SOL    HW276199   1.236   7.755   7.793  1.1706 -0.5401 -0.9767
24811SOL     OW76200   9.623   3.649   2.785  0.2286  0.0414  1.0534
24811SOL    HW176201   9.695   3.705   2.813  0.8168  0.0999 -0.4439
24811SOL    HW276202   9.651   3.561   2.810  0.6484  0.1074  0.8311
24812SOL     OW76203   4.292   2.485   4.770 -0.1983 -0.4083 -0.5129
24812SOL    HW176204   4.213   2.526   4.734 -0.3326 -0.1808  0.0278
24812SOL    HW276205   4.362   2.546   4.751 -0.5093  0.4342  0.9073
24813SOL     OW76206   5.585   4.487   0.546  0.1363  0.6476 -0.2020
24813SOL    HW176207   5.566   4.548   0.474 -0.2493  0.8105  0.0368
24813SOL    HW276208   5.672   4.513   0.577  0.3016  0.5835 -0.6008
24814SOL     OW76209   6.130   7.316   9.705  0.1912  0.1989 -0.0172
24814SOL    HW176210   6.198   7.323   9.638  0.7650 -0.8783  0.4178
24814SOL    HW276211   6.153   7.383   9.770  0.3510  0.4051 -0.2870
24815SOL     OW76212   6.532   6.543   8.325 -0.1917 -0.3507 -0.7771
24815SOL    HW176213   6.510   6.516   8.236 -1.2756 -3.0338  0.2303
24815SOL    HW276214   6.468   6.612   8.345  1.0441  1.4404 -2.5292
24816SOL     OW76215   7.491   0.315   4.276  0.0172  0.0227 -0.3299
24816SOL    HW176216   7.465   0.337   4.187 -1.4076  2.6030  0.6280
24816SOL    HW276217   7.450   0.229   4.292  1.8699 -1.4033 -2.6916
24817SOL     OW76218   3.660   1.932   0.212  0.7321  0.1493  0.4338
24817SOL    HW176219   3.639   1.883   0.132 -0.5490  0.8570  0.3144
24817SOL    HW276220   3.588   1.912   0.272  1.7978 -0.5493  1.5099
24818SOL     OW76221   7.419   8.737   3.952 -0.6464  0.1855 -0.3158
24818SOL    HW176222   7.413   8.642   3.952 -0.5383  0.0913  2.7660
24818SOL    HW276223   7.463   8.758   3.870 -0.0076 -2.4497 -0.7400
24819SOL     OW76224   3.352   4.156   2.487 -0.6535 -0.5953 -0.6533
24819SOL    HW176225   3.290   4.180   2.418 -1.2834 -0.0609  0.0720
24819SOL    HW276226   3.302   4.099   2.545 -0.2054 -0.8398 -0.5007
24820SOL     OW76227   5.462   4.876   1.397 -0.0548 -0.4045 -0.6040
24820SOL    HW176228   5.499   4.831   1.473 -0.5341 -0.7362 -0.5617
24820SOL    HW276229   5.533   4.933   1.366  0.0952 -0.1517  0.1766
24821SOL     OW76230   4.096   8.689   8.880  0.5580  0.2654 -0.4682
24821SOL    HW176231   4.139   8.721   8.801  0.0482  0.8527 -0.5132
24821SOL    HW276232   4.141   8.607   8.900  1.7609  0.9045 -0.4658
24822SOL     OW76233   5.769   3.530   4.287 -0.0333  0.3257  0.9590
24822SOL    HW176234   5.789   3.439   4.267 -1.1161 -0.1477  1.9304
24822SOL    HW276235   5.780   3.537   4.381  1.8160  1.6852  0.6882
24823SOL     OW76236   5.591   9.236   4.299  0.1444 -0.3217 -0.3175
24823SOL    HW176237   5.517   9.294   4.283  0.0354 -0.3282  0.1431
24823SOL    HW276238   5.652   9.288   4.351  0.8459 -0.0431 -1.3800
24824SOL     OW76239   2.176   3.133   7.501 -0.3050 -0.1872  0.4503
24824SOL    HW176240   2.149   3.206   7.445  2.0159 -0.0867 -0.6742
24824SOL    HW276241   2.254   3.165   7.545  0.4130 -1.7646  0.3919
24825SOL     OW76242   5.751   2.369   4.579  0.1579 -0.3302 -0.2948
24825SOL    HW176243   5.771   2.290   4.529  1.9033 -0.8442  1.0887
24825SOL    HW276244   5.661   2.358   4.607  0.2628 -1.6701 -0.4320
24826SOL     OW76245   9.149   3.000   5.341  0.6566 -0.9989  0.2857
24826SOL    HW176246   9.076   2.969   5.288  0.0173  1.7339 -0.6182
24826SOL    HW276247   9.213   2.929   5.338 -0.7499 -2.2904 -1.3494
24827SOL     OW76248   6.421   0.797   0.596 -0.3089 -0.0591 -0.5683
24827SOL    HW176249   6.374   0.840   0.524  0.5460 -1.4868 -2.0252
24827SOL    HW276250   6.427   0.865   0.664 -0.8047  1.4513 -1.9660
24828SOL     OW76251   2.390   9.840   8.797 -0.6229 -0.3337 -0.9903
24828SOL    HW176252   2.306   9.884   8.784 -1.1972 -1.6476 -1.9438
24828SOL    HW276253   2.413   9.806   8.711  0.4447 -0.7823 -0.5471
24829SOL     OW76254   6.734   7.188   6.003  0.0703  0.3948  0.4302
24829SOL    HW176255   6.723   7.180   5.908 -0.0441  1.0660  0.3859
24829SOL    HW276256   6.672   7.124   6.039 -1.6794  1.8308  0.1002
24830SOL     OW76257   2.945   3.329   2.259 -0.2644  0.1795 -0.3685
24830SOL    HW176258   2.917   3.372   2.340  3.5115 -1.0151  1.8105
24830SOL    HW276259   3.024   3.377   2.233  0.2859 -1.3480 -1.6340
24831SOL     OW76260   8.869   1.582   3.108 -0.0204  0.3639  0.1746
24831SOL    HW176261   8.878   1.673   3.137  0.3808 -0.1083  1.6213
24831SOL    HW276262   8.897   1.530   3.184 -1.6367 -0.9947 -0.1198
24832SOL     OW76263   5.174   8.835   6.616 -0.0659  0.3855  0.2804
24832SOL    HW176264   5.189   8.743   6.595  0.5399  0.6312 -0.4222
24832SOL    HW276265   5.108   8.834   6.685 -0.0506 -0.5744  0.2894
24833SOL     OW76266   4.799   2.606   4.627 -0.0051  0.1622  0.4129
24833SOL    HW176267   4.894   2.614   4.612  0.1953 -0.9472  0.9913
24833SOL    HW276268   4.767   2.559   4.550  0.1573 -0.7363  0.8808
24834SOL     OW76269   0.687   4.367   4.249  0.4242  0.8993  0.1810
24834SOL    HW176270   0.654   4.394   4.335  0.2204 -2.0923  1.1663
24834SOL    HW276271   0.771   4.324   4.267  0.4776  0.3840 -1.1424
24835SOL     OW76272   0.107   7.977   3.732  0.4638 -0.0735  0.8428
24835SOL    HW176273   0.100   7.960   3.638  0.1531  0.1356  0.8278
24835SOL    HW276274   0.019   7.960   3.766  1.1883 -2.9657  1.5672
24836SOL     OW76275   6.772   7.642   4.496 -0.2192 -0.2556 -0.5509
24836SOL    HW176276   6.809   7.681   4.417  0.2210  0.5287  0.0295
24836SOL    HW276277   6.742   7.717   4.547  0.2929 -0.6971  0.4105
24837SOL     OW76278   3.012   0.229   1.006  0.0662 -0.2095 -0.1715
24837SOL    HW176279   3.033   0.195   1.093 -0.0373  0.5347  0.1605
24837SOL    HW276280   3.088   0.283   0.983 -0.1355  0.0223 -0.3035
24838SOL     OW76281   6.536   0.121   6.614  0.1851  0.4809 -0.4065
24838SOL    HW176282   6.485   0.041   6.614  0.3503  0.3570 -1.4686
24838SOL    HW276283   6.535   0.151   6.705 -0.2435 -0.4839 -0.0832
24839SOL     OW76284   1.629   6.736   2.956  0.6166 -0.1214 -0.0350
24839SOL    HW176285   1.712   6.748   2.910  1.3494  1.7413  1.6703
24839SOL    HW276286   1.653   6.729   3.048 -1.0153 -1.2917  0.3443
24840SOL     OW76287   0.478   7.953   8.088 -0.0259 -0.0927  0.1883
24840SOL    HW176288   0.560   7.915   8.120  0.5064  1.4713  0.7286
24840SOL    HW276289   0.457   8.022   8.151 -2.1467 -0.9115  0.4533
24841SOL     OW76290   1.275   9.410   1.024  0.0336  0.1377  0.2109
24841SOL    HW176291   1.224   9.385   1.101  0.8848 -0.7835  0.4953
24841SOL    HW276292   1.260   9.504   1.014 -1.0966  0.0298  0.7358
24842SOL     OW76293   8.353   0.919   3.269  0.4247 -0.8382  0.4435
24842SOL    HW176294   8.365   1.012   3.287  0.0874 -0.9637  1.3431
24842SOL    HW276295   8.294   0.916   3.193 -1.7744 -0.3181  2.0476
24843SOL     OW76296   9.684   8.399   5.692 -0.1037 -0.0345 -0.0881
24843SOL    HW176297   9.632   8.473   5.661  0.1168 -0.2946 -1.1245
24843SOL    HW276298   9.769   8.409   5.648 -0.3289 -1.3190 -0.8867
24844SOL     OW76299   6.337   2.177   8.044 -0.0080  0.1703  0.6905
24844SOL    HW176300   6.249   2.213   8.033  0.6669  1.9103  0.5511
24844SOL    HW276301   6.361   2.199   8.134 -0.0682 -1.1554  1.0400
24845SOL     OW76302   2.970   4.903   8.453  0.6165 -0.3703 -0.0575
24845SOL    HW176303   3.020   4.823   8.468 -1.0536 -1.4199  0.1814
24845SOL    HW276304   2.972   4.915   8.358 -2.0786 -2.8088 -0.5662
24846SOL     OW76305   8.864   1.221   6.695  0.4149 -0.4367 -0.2511
24846SOL    HW176306   8.863   1.316   6.705  0.2926 -0.4710  0.0677
24846SOL    HW276307   8.820   1.206   6.611 -0.1396 -0.2472  0.0007
24847SOL     OW76308   1.926   6.411   5.691  0.2026  0.3270  0.2033
24847SOL    HW176309   1.878   6.396   5.772 -0.0373  1.8657  0.3635
24847SOL    HW276310   1.872   6.472   5.641  0.3397 -0.5822 -1.1405
24848SOL     OW76311   3.121   3.319   6.313 -0.0408  0.4432 -0.6801
24848SOL    HW176312   3.064   3.394   6.334 -1.6379 -0.9612  0.2365
24848SOL    HW276313   3.196   3.330   6.371  0.0721  1.6517 -1.0080
24849SOL     OW76314   9.607   2.489   4.956 -0.3849  0.0176  0.1055
24849SOL    HW176315   9.681   2.501   4.897  0.3458 -1.0564  0.7789
24849SOL    HW276316   9.558   2.572   4.950  0.8316  0.7248 -0.3920
24850SOL     OW76317   2.128   1.529   4.296 -0.3945  0.1882  0.2869
24850SOL    HW176318   2.180   1.580   4.357 -1.1570  0.9795  0.3036
24850SOL    HW276319   2.172   1.541   4.211  1.1969 -1.6615  0.7792
24851SOL     OW76320   8.353   3.882   2.633  0.0690 -0.3815 -0.6079
24851SOL    HW176321   8.286   3.893   2.565 -1.3287 -1.0224  0.5892
24851SOL    HW276322   8.372   3.789   2.632 -1.3181 -0.7412  1.0186
24852SOL     OW76323   1.082   4.310   2.939  0.7886  0.3438 -0.1128
24852SOL    HW176324   1.177   4.294   2.944  0.5503 -0.6252  1.9947
24852SOL    HW276325   1.044   4.254   3.006 -1.2581  1.1374 -0.5362
24853SOL     OW76326   8.455   4.452   9.757 -0.0495  0.0732  0.6751
24853SOL    HW176327   8.508   4.474   9.833  0.4777 -1.1895  0.6871
24853SOL    HW276328   8.496   4.499   9.685  1.7211 -1.6256  0.4989
24854SOL     OW76329   2.870   1.716   0.022  0.3063  0.5240  0.0093
24854SOL    HW176330   2.900   1.705  -0.068 -1.6961 -0.7679 -0.5788
24854SOL    HW276331   2.885   1.808   0.042 -0.1918  1.1024 -2.0624
24855SOL     OW76332   9.270   1.161   7.097 -0.2844  0.2019 -0.1343
24855SOL    HW176333   9.215   1.234   7.071  1.6554  1.6346 -0.4618
24855SOL    HW276334   9.303   1.184   7.183  0.2525 -0.3438 -0.1827
24856SOL     OW76335   5.837   7.888   9.015  0.4858 -0.1479 -0.6287
24856SOL    HW176336   5.777   7.863   8.945 -0.0634 -0.4850 -0.0458
24856SOL    HW276337   5.840   7.983   9.012 -2.1507  0.0819  1.0104
24857SOL     OW76338   5.970   2.493   4.464 -0.4110 -0.1183 -0.0337
24857SOL    HW176339   5.901   2.509   4.528  0.3489 -0.1767  0.8069
24857SOL    HW276340   5.976   2.398   4.458 -0.3444 -0.1133 -0.0483
24858SOL     OW76341   8.660   9.339   5.076  0.5053  0.1805 -0.0565
24858SOL    HW176342   8.620   9.252   5.071 -0.4135  0.4514  1.8255
24858SOL    HW276343   8.620   9.388   5.003 -2.1961  0.2338  1.3447
24859SOL     OW76344   9.190   7.758   6.169  0.1687 -0.1340 -0.0867
24859SOL    HW176345   9.244   7.776   6.246  1.4011 -0.0506 -0.9219
24859SOL    HW276346   9.254   7.741   6.099 -0.8803  1.1505 -1.4178
24860SOL     OW76347   7.880   0.242   5.917 -0.4932  0.0819 -0.1301
24860SOL    HW176348   7.927   0.235   5.834  0.3908  1.5123  0.2139
24860SOL    HW276349   7.834   0.326   5.911 -2.9884 -1.2121 -0.4090
24861SOL     OW76350   0.141   2.136   4.156 -0.1160 -0.7222 -0.0697
24861SOL    HW176351   0.187   2.090   4.086  0.6995  2.4128 -1.7856
24861SOL    HW276352   0.055   2.155   4.119 -1.7331 -3.5343  1.8554
24862SOL     OW76353   4.303   9.070   4.819  0.5241 -0.4001  0.1243
24862SOL    HW176354   4.377   9.030   4.772  0.1878  0.7363 -1.4767
24862SOL    HW276355   4.245   8.998   4.838  1.0217 -1.0157 -0.6035
24863SOL     OW76356   8.400   0.937   3.996 -0.1904  0.4240 -0.4063
24863SOL    HW176357   8.390   1.032   4.000 -0.7919  0.3249  0.8729
24863SOL    HW276358   8.442   0.921   3.912  0.2318  1.8512 -0.4957
24864SOL     OW76359   1.900   7.273   5.862 -0.1441 -0.1160 -0.4098
24864SOL    HW176360   1.890   7.199   5.923  0.3212  1.5614  1.8580
24864SOL    HW276361   1.834   7.259   5.795 -1.2060 -1.7109  0.8921
24865SOL     OW76362   3.560   1.982   2.485 -0.4087 -0.3782  0.2179
24865SOL    HW176363   3.517   2.034   2.552 -0.0742  0.3173 -0.0947
24865SOL    HW276364   3.494   1.918   2.458 -0.9316  0.0759  0.4035
24866SOL     OW76365   6.590   2.047   8.921 -0.0412  0.4881 -0.0215
24866SOL    HW176366   6.553   1.970   8.964  0.4790  1.1115  1.6452
24866SOL    HW276367   6.606   2.020   8.831  0.3906 -1.4366  0.5971
24867SOL     OW76368   2.059   8.271   4.963 -0.0317 -0.1773  0.0907
24867SOL    HW176369   1.974   8.273   5.007 -0.4508  1.1491 -0.7208
24867SOL    HW276370   2.037   8.257   4.871  0.6254  0.2198 -0.1307
24868SOL     OW76371   2.040   8.939   7.103  0.0953  0.3536  0.0920
24868SOL    HW176372   1.957   8.898   7.127  0.0890 -0.0010 -0.5108
24868SOL    HW276373   2.107   8.887   7.149  0.0107  0.3806  0.2447
24869SOL     OW76374   7.016   2.241   5.417  0.0533  0.2829  0.0913
24869SOL    HW176375   7.039   2.206   5.503  1.6332  0.4018 -0.2660
24869SOL    HW276376   7.091   2.221   5.361 -1.1899 -0.3491 -1.4407
24870SOL     OW76377   3.213   7.021   5.393 -0.0741 -0.0082 -0.0489
24870SOL    HW176378   3.154   7.060   5.329 -1.8460  0.3438  1.6722
24870SOL    HW276379   3.182   6.931   5.403  1.0925 -0.4980 -0.6808
24871SOL     OW76380   1.379   7.708   1.341 -0.3464 -0.1541  0.2718
24871SOL    HW176381   1.364   7.619   1.308 -0.7522  0.1396 -0.3535
24871SOL    HW276382   1.474   7.716   1.348 -0.3182 -1.4439  2.6087
24872SOL     OW76383   3.023   0.722   9.397  0.5813 -0.0751  0.2725
24872SOL    HW176384   2.943   0.715   9.450  0.5438 -0.0327  0.2221
24872SOL    HW276385   3.085   0.769   9.452  0.1432  1.0587 -0.1758
24873SOL     OW76386   4.660   9.173   2.536  0.8240 -0.5761  0.0807
24873SOL    HW176387   4.583   9.126   2.566  0.8686  0.6279  2.2513
24873SOL    HW276388   4.625   9.256   2.501  1.0665 -0.3482  0.3754
24874SOL     OW76389   9.192   5.040   7.013  0.2346  0.2631 -0.2685
24874SOL    HW176390   9.155   5.095   7.083  2.5128  0.6429  0.7210
24874SOL    HW276391   9.154   4.954   7.030 -0.0698  0.5807  0.8102
24875SOL     OW76392   5.113   6.251   3.916  0.2863  0.2911  0.2936
24875SOL    HW176393   5.161   6.332   3.931 -0.0042  0.1416  2.3350
24875SOL    HW276394   5.178   6.182   3.932  0.2089  0.0907 -0.2141
24876SOL     OW76395   3.065   8.880   2.169  0.8059  0.4190 -0.0338
24876SOL    HW176396   2.996   8.943   2.147  1.0101  0.6054 -0.1483
24876SOL    HW276397   3.140   8.907   2.115  1.2503  0.7621  0.7295
24877SOL     OW76398   1.189   3.106   7.055 -0.4184 -0.5670  0.6608
24877SOL    HW176399   1.120   3.119   6.990 -0.1338 -0.1642  0.4343
24877SOL    HW276400   1.256   3.055   7.010  0.6568  1.3311 -0.0118
24878SOL     OW76401   1.839   9.469   2.051  0.3272 -0.3237  0.1802
24878SOL    HW176402   1.925   9.427   2.052 -0.1898 -1.3946  0.7910
24878SOL    HW276403   1.778   9.399   2.071 -0.7870  0.2478 -1.1116
24879SOL     OW76404   5.887   0.675   5.191 -0.0506 -0.3568 -1.2150
24879SOL    HW176405   5.964   0.651   5.243 -0.6497 -0.6548 -0.4493
24879SOL    HW276406   5.918   0.674   5.100  0.3927 -2.2756 -1.0669
24880SOL     OW76407   0.322   7.485   4.941 -0.1725 -0.0414 -0.5251
24880SOL    HW176408   0.264   7.492   5.017  0.2087  1.2406 -0.3279
24880SOL    HW276409   0.271   7.520   4.868 -0.2945 -0.6299 -0.7235
24881SOL     OW76410   7.290   0.208   5.499  0.5285 -0.1415  0.5832
24881SOL    HW176411   7.256   0.246   5.579  1.8783  0.6421  0.8002
24881SOL    HW276412   7.223   0.227   5.433 -0.4766 -0.5898  1.4495
24882SOL     OW76413   2.824   8.803   4.423 -0.4688  0.6952 -0.1742
24882SOL    HW176414   2.875   8.846   4.354  1.1716  1.3094  1.3298
24882SOL    HW276415   2.829   8.864   4.497  0.8228 -1.4161  1.6120
24883SOL     OW76416   3.374   2.924   1.919 -0.6009 -0.3202 -0.8199
24883SOL    HW176417   3.326   2.859   1.868 -2.0011  0.6903 -0.8732
24883SOL    HW276418   3.386   2.883   2.005 -0.4373 -1.0844 -1.2008
24884SOL     OW76419   5.682   1.740   5.752 -0.0197  0.9280  0.2535
24884SOL    HW176420   5.774   1.744   5.776  0.0967  1.4346 -0.2524
24884SOL    HW276421   5.657   1.831   5.737 -0.4415  0.7443 -0.1913
24885SOL     OW76422   8.353   7.115   9.079 -0.0547 -0.4021  0.6733
24885SOL    HW176423   8.411   7.114   9.002 -0.5178 -0.9724  0.3159
24885SOL    HW276424   8.265   7.121   9.042 -0.4180 -2.5439  1.0406
24886SOL     OW76425   8.218   5.367   7.251 -0.0875 -0.2313  0.0921
24886SOL    HW176426   8.228   5.419   7.171 -0.1398  0.4177  0.4980
24886SOL    HW276427   8.126   5.376   7.274 -0.3825 -1.5357 -0.5105
24887SOL     OW76428   3.950   4.039   4.920 -0.6448  0.3379  0.3197
24887SOL    HW176429   3.964   3.958   4.969 -1.0697  0.0764  0.0125
24887SOL    HW276430   3.907   4.098   4.982 -1.3839 -0.0674  0.2045
24888SOL     OW76431   7.196   6.303   6.648  0.3620  0.4313 -0.7270
24888SOL    HW176432   7.275   6.294   6.595  2.9077  1.5001  2.5709
24888SOL    HW276433   7.171   6.394   6.639 -0.0438  0.2740 -1.1856
24889SOL     OW76434   9.380   0.727   6.029  0.2586 -1.0964  0.4372
24889SOL    HW176435   9.382   0.759   5.939  2.1428 -0.4115  0.6906
24889SOL    HW276436   9.329   0.793   6.077  0.4236 -0.7534  0.1427
24890SOL     OW76437   5.035   1.404   5.021 -0.5423  0.6086  0.2923
24890SOL    HW176438   4.945   1.372   5.011 -0.3959  0.0576  0.7269
24890SOL    HW276439   5.034   1.450   5.105 -0.2817  0.1328  0.5574
24891SOL     OW76440   8.455   8.210   9.106 -0.3118 -0.3241 -0.1464
24891SOL    HW176441   8.468   8.229   9.013  0.2735 -0.4469 -0.0975
24891SOL    HW276442   8.372   8.252   9.128  0.9681  2.4241 -0.0176
24892SOL     OW76443   8.766   3.474   6.190  0.2860 -0.4724  0.6473
24892SOL    HW176444   8.861   3.483   6.194  0.3447 -0.0656 -1.0212
24892SOL    HW276445   8.742   3.509   6.105 -1.3047 -1.1202  0.7971
24893SOL     OW76446   5.128   6.185   4.491  0.1598 -0.0978 -0.0744
24893SOL    HW176447   5.037   6.156   4.483 -0.1062  0.2612  1.4015
24893SOL    HW276448   5.163   6.134   4.564  1.0268  0.0614 -0.3711
24894SOL     OW76449   0.661   2.454   8.795 -0.7274  0.2406 -0.1813
24894SOL    HW176450   0.724   2.521   8.768 -0.4985  0.2810  0.4324
24894SOL    HW276451   0.575   2.493   8.780 -0.6139  0.2504 -0.8626
24895SOL     OW76452   2.849   2.454   7.583  0.2302 -0.0623  0.2327
24895SOL    HW176453   2.783   2.434   7.650 -0.0058 -0.0251  0.0122
24895SOL    HW276454   2.922   2.492   7.632 -0.6405  1.6351  0.2868
24896SOL     OW76455   3.092   1.826   0.745  0.3950  0.1327  0.3420
24896SOL    HW176456   3.143   1.805   0.823 -0.4151 -1.3043  0.5152
24896SOL    HW276457   3.153   1.873   0.688  2.6257 -3.1871 -0.3159
24897SOL     OW76458   7.542   3.916   4.610  0.1024 -0.3078  0.0757
24897SOL    HW176459   7.502   3.871   4.684 -1.0658  0.3978 -0.0998
24897SOL    HW276460   7.544   4.008   4.637  1.7774 -0.3421  0.1360
24898SOL     OW76461   9.781   3.873   7.921  0.5577  0.2034  0.7245
24898SOL    HW176462   9.820   3.794   7.959  1.4277  0.1034 -0.3407
24898SOL    HW276463   9.765   3.930   7.997 -1.2484 -1.4433  1.6681
24899SOL     OW76464   8.460   5.507   4.951  0.2590  0.3851 -0.4335
24899SOL    HW176465   8.479   5.418   4.980  0.7623  0.5711 -0.1894
24899SOL    HW276466   8.493   5.511   4.861 -0.5521  0.0651 -0.7614
24900SOL     OW76467   5.119   3.469   3.784  0.8414 -0.5940 -0.4000
24900SOL    HW176468   5.144   3.385   3.746 -1.8895 -0.8527 -1.8737
24900SOL    HW276469   5.052   3.447   3.849  0.2537  0.3931 -0.6480
24901SOL     OW76470   6.239   8.282   7.353 -0.4361 -0.0519 -0.8262
24901SOL    HW176471   6.285   8.362   7.326 -1.3931  0.1035 -2.0872
24901SOL    HW276472   6.304   8.213   7.342  0.4220  0.5277  0.3307
24902SOL     OW76473   5.817   6.109   1.408  0.1130 -0.4730  0.3069
24902SOL    HW176474   5.727   6.077   1.403 -0.4142  1.0820 -1.5263
24902SOL    HW276475   5.857   6.080   1.326  0.9251 -0.1248  0.5678
24903SOL     OW76476   7.056   9.703   7.842 -0.3493  0.4381  0.1713
24903SOL    HW176477   7.111   9.757   7.899 -0.0232  1.3063 -0.9143
24903SOL    HW276478   7.107   9.623   7.828  0.1595  0.7781  0.0443
24904SOL     OW76479   6.612   8.545   2.966  0.0105 -0.2209  0.2125
24904SOL    HW176480   6.598   8.560   3.059  0.0974  1.2970 -0.0020
24904SOL    HW276481   6.706   8.528   2.959  0.2204  0.8395  0.2777
24905SOL     OW76482   5.261   6.028   5.683  0.3313  0.1813  0.0815
24905SOL    HW176483   5.209   5.948   5.685 -0.4087  0.6619  0.3203
24905SOL    HW276484   5.322   6.018   5.756 -0.3456  0.2204  0.6650
24906SOL     OW76485   3.618   8.720   5.479 -0.1712  0.4907 -0.2928
24906SOL    HW176486   3.649   8.644   5.528  1.2788  1.6859  0.7599
24906SOL    HW276487   3.692   8.745   5.423  0.5090  2.7537  1.4428
24907SOL     OW76488   7.208   0.660   9.092  0.3267 -0.0631 -0.1065
24907SOL    HW176489   7.147   0.691   9.159  0.8614  0.6973  0.0383
24907SOL    HW276490   7.195   0.719   9.018  1.2009  0.3963  0.0916
24908SOL     OW76491   5.429   5.295   7.995  0.0605  0.0521  0.6518
24908SOL    HW176492   5.387   5.371   8.036 -0.7294  1.2638 -2.1604
24908SOL    HW276493   5.385   5.286   7.911  0.2263 -3.5114  0.7986
24909SOL     OW76494   7.970   2.086   5.330  0.3685  0.7798  0.2158
24909SOL    HW176495   7.995   2.003   5.290  0.4595  0.3366  1.1710
24909SOL    HW276496   8.045   2.144   5.315 -0.0853  1.0236 -1.3274
24910SOL     OW76497   0.937   2.091   7.142  0.0797 -0.2629  0.3402
24910SOL    HW176498   0.957   2.023   7.206  0.4540 -2.3129 -1.8371
24910SOL    HW276499   1.003   2.159   7.158  1.1704 -1.4459  1.0861
24911SOL     OW76500   9.780   2.647   6.348  0.4422 -0.1327 -0.5597
24911SOL    HW176501   9.724   2.569   6.339  1.0837 -0.5523 -0.9590
24911SOL    HW276502   9.856   2.628   6.293  0.7978  0.6023 -0.3249
24912SOL     OW76503   3.576   1.284   8.556 -0.2271 -0.0485  0.6973
24912SOL    HW176504   3.553   1.290   8.649 -1.6437 -0.5859  0.4018
24912SOL    HW276505   3.560   1.192   8.533  1.4667 -0.2594  0.2506
24913SOL     OW76506   3.906   8.422   4.840  0.3238  0.3893 -0.4489
24913SOL    HW176507   3.869   8.393   4.756 -0.0428 -0.5581  0.0264
24913SOL    HW276508   3.895   8.517   4.839 -0.1809  0.3366 -1.2376
24914SOL     OW76509   5.220   6.316   8.225  0.2931 -0.2361 -0.1419
24914SOL    HW176510   5.178   6.234   8.252  0.3781 -1.2615 -2.8609
24914SOL    HW276511   5.270   6.343   8.302  0.7372 -3.0382  0.6740
24915SOL     OW76512   5.208   0.726   0.531 -0.1101 -0.1273 -0.5752
24915SOL    HW176513   5.276   0.660   0.545  0.6238  0.6776 -0.2291
24915SOL    HW276514   5.230   0.766   0.446  0.2777  0.6090 -0.1430
24916SOL     OW76515   1.193   7.024   2.218 -0.2320  0.6689 -0.0653
24916SOL    HW176516   1.197   6.974   2.300  0.2013  0.0088 -0.4847
24916SOL    HW276517   1.192   7.115   2.246  0.1411  0.4548  0.6714
24917SOL     OW76518   9.541   0.244   2.614 -0.2622 -0.1015 -0.0429
24917SOL    HW176519   9.585   0.266   2.532 -0.8526  0.8567 -0.1117
24917SOL    HW276520   9.597   0.281   2.682 -0.4531  0.2678 -0.0839
24918SOL     OW76521   0.581   9.742   6.922  0.1134  0.2258  0.0428
24918SOL    HW176522   0.635   9.675   6.880  3.5577  2.2621  0.8303
24918SOL    HW276523   0.572   9.712   7.013  0.0271 -0.0362 -0.0496
24919SOL     OW76524   2.710   1.535   5.085 -0.5009 -0.2117 -0.0467
24919SOL    HW176525   2.718   1.450   5.128 -2.3851  0.1010  1.0510
24919SOL    HW276526   2.669   1.591   5.151 -1.6114  0.8652 -1.5856
24920SOL     OW76527   4.262   3.833   9.567  0.6833  0.1752  0.4641
24920SOL    HW176528   4.336   3.838   9.507  0.2342  2.3252 -0.0009
24920SOL    HW276529   4.244   3.924   9.591 -2.8292 -0.0396 -0.7585
24921SOL     OW76530   3.445   4.573   6.835  0.5143 -0.4211 -0.0542
24921SOL    HW176531   3.413   4.662   6.820 -1.1772 -0.9788  0.0800
24921SOL    HW276532   3.466   4.540   6.747  1.9454  0.3628 -0.0345
24922SOL     OW76533   1.088   9.052   9.219  0.3762  0.5689  0.2062
24922SOL    HW176534   1.166   9.106   9.226  0.2069  0.9290 -0.6000
24922SOL    HW276535   1.091   9.016   9.130  0.1820 -0.2766  0.5313
24923SOL     OW76536   3.191   8.728   9.732 -0.6775 -0.7724 -0.2122
24923SOL    HW176537   3.124   8.788   9.763 -1.2920 -1.2320 -0.6282
24923SOL    HW276538   3.214   8.675   9.809  2.0589  1.8787  1.0389
24924SOL     OW76539   4.386   3.796   6.394 -0.4784  0.0669  0.1063
24924SOL    HW176540   4.345   3.877   6.366  1.8474  0.8324 -1.4144
24924SOL    HW276541   4.363   3.732   6.326  0.3639  0.3669 -0.4814
24925SOL     OW76542   8.462   4.680   9.032  0.4662 -0.3161  0.4386
24925SOL    HW176543   8.505   4.608   9.078  1.6912  0.6070  0.8100
24925SOL    HW276544   8.497   4.759   9.073 -1.2397  0.5138  0.4138
24926SOL     OW76545   3.294   2.061   2.365 -0.4927 -0.4602  0.2581
24926SOL    HW176546   3.311   2.017   2.281 -0.8707 -0.9560  0.4340
24926SOL    HW276547   3.288   1.989   2.428 -2.1558 -0.2437  0.3867
24927SOL     OW76548   7.404   7.976   9.818  0.3945  0.2874 -0.3833
24927SOL    HW176549   7.311   7.969   9.839  0.6816  0.6768  1.2138
24927SOL    HW276550   7.423   7.900   9.764 -0.0714 -1.9420  2.3886
24928SOL     OW76551   1.405   5.331   5.206 -0.4140  0.5051 -0.1801
24928SOL    HW176552   1.313   5.305   5.207 -0.0353 -0.9562  1.7756
24928SOL    HW276553   1.450   5.257   5.167  0.2127 -0.0377  1.5042
24929SOL     OW76554   6.817   8.173   8.501  0.8118  0.4257 -0.6354
24929SOL    HW176555   6.878   8.241   8.530  1.0825 -0.4810  1.0823
24929SOL    HW276556   6.757   8.162   8.575  0.0614 -0.4044 -1.3445
24930SOL     OW76557   7.134   9.604   3.241 -0.1888  0.0972 -0.0650
24930SOL    HW176558   7.163   9.520   3.206  1.0836  0.1771  0.7437
24930SOL    HW276559   7.054   9.584   3.289 -0.6573 -0.3991 -1.0300
24931SOL     OW76560   4.495   5.724   7.191 -0.1315  0.0120 -0.1509
24931SOL    HW176561   4.562   5.664   7.221  0.9272  1.4925  0.5683
24931SOL    HW276562   4.514   5.738   7.098 -0.1274 -0.4203 -0.2158
24932SOL     OW76563   0.996   1.511   0.462 -0.0075  0.2763 -0.3609
24932SOL    HW176564   1.002   1.587   0.404 -2.2024 -0.2676 -1.4074
24932SOL    HW276565   0.964   1.546   0.544 -1.7029  0.4442 -1.0573
24933SOL     OW76566   2.573   3.543   7.666  0.1977 -0.2499  0.4761
24933SOL    HW176567   2.655   3.496   7.680  0.6286  0.1938 -0.4720
24933SOL    HW276568   2.582   3.583   7.579 -1.1401 -0.4436  0.2163
24934SOL     OW76569   1.536   4.750   4.955  0.3089 -0.1069  0.4627
24934SOL    HW176570   1.561   4.761   4.863  0.0270 -0.9674  0.2733
24934SOL    HW276571   1.613   4.779   5.004  0.8941 -0.6961 -0.0720
24935SOL     OW76572   9.644   0.782   2.258 -0.2226  0.5183  0.1449
24935SOL    HW176573   9.608   0.726   2.188 -1.8438 -0.9375  2.0296
24935SOL    HW276574   9.739   0.782   2.242 -0.5801  0.7261 -2.3620
24936SOL     OW76575   5.935   1.508   5.787 -0.0164  0.5020  0.3993
24936SOL    HW176576   5.844   1.478   5.791 -0.3976  1.6125  0.3591
24936SOL    HW276577   5.946   1.541   5.697  0.1542  1.1747  0.6599
24937SOL     OW76578   3.704   0.374   7.957  0.1184 -0.3949 -0.6428
24937SOL    HW176579   3.726   0.415   7.873 -0.5006 -1.4476 -1.3438
24937SOL    HW276580   3.778   0.315   7.974 -0.1024 -0.7255 -0.8223
24938SOL     OW76581   6.299   7.231   4.508 -0.2611  0.2717  0.2025
24938SOL    HW176582   6.272   7.220   4.599 -1.0221 -1.1457 -0.1632
24938SOL    HW276583   6.377   7.285   4.512 -0.7867  0.9637  1.6291
24939SOL     OW76584   1.830   5.650   0.467  0.0795  0.6458 -0.4354
24939SOL    HW176585   1.919   5.667   0.437 -0.3462  0.8637 -1.5948
24939SOL    HW276586   1.775   5.709   0.416 -0.7347  0.5414  0.3004
24940SOL     OW76587   5.709   9.008   0.041 -0.8652 -0.1074 -0.1162
24940SOL    HW176588   5.649   9.055  -0.017 -0.9634 -0.9376 -0.6951
24940SOL    HW276589   5.746   9.077   0.097 -1.6088  0.5521 -0.4049
24941SOL     OW76590   8.104   3.532   4.876  0.4288 -0.2691  0.0371
24941SOL    HW176591   8.163   3.583   4.931 -0.5217 -0.3860  1.2195
24941SOL    HW276592   8.135   3.547   4.787  0.3040  2.2235  0.3412
24942SOL     OW76593   0.930   3.940   5.739  0.0416 -0.3719  0.4193
24942SOL    HW176594   0.901   3.871   5.680 -0.4778 -0.2997  0.5813
24942SOL    HW276595   0.978   4.001   5.683  1.0063 -1.1499  0.3818
24943SOL     OW76596   3.192   1.067   9.646 -0.0595 -0.4136  0.7138
24943SOL    HW176597   3.147   1.135   9.697 -1.5861  0.4192 -1.5599
24943SOL    HW276598   3.258   1.032   9.705 -1.2743  0.9155  3.0034
24944SOL     OW76599   5.302   6.531   3.224 -0.2538  0.1006  0.3620
24944SOL    HW176600   5.299   6.435   3.225 -2.6446  0.1231  0.5080
24944SOL    HW276601   5.212   6.557   3.208  0.1484  2.3690  1.4906
24945SOL     OW76602   5.821   0.767   6.399 -0.2216 -0.5501  0.0711
24945SOL    HW176603   5.898   0.767   6.342 -0.8073 -0.9241 -0.7373
24945SOL    HW276604   5.770   0.691   6.370 -1.8696  0.8077 -0.7415
24946SOL     OW76605   3.536   9.649   0.977 -0.4854  0.2201 -0.2885
24946SOL    HW176606   3.504   9.583   1.038 -0.1498  1.1288  0.9208
24946SOL    HW276607   3.615   9.684   1.019 -0.3326  0.9811 -1.1774
24947SOL     OW76608   7.748   1.432   7.891  0.2646 -0.2110  0.2044
24947SOL    HW176609   7.839   1.425   7.862  0.4772  1.1483  0.4423
24947SOL    HW276610   7.734   1.356   7.947  0.6844 -1.4059 -1.2559
24948SOL     OW76611   1.903   3.303   5.846 -0.5743 -0.3215  0.2075
24948SOL    HW176612   1.918   3.258   5.929 -1.3986  0.8897  1.0391
24948SOL    HW276613   1.824   3.355   5.860 -1.2645 -0.7961 -1.6401
24949SOL     OW76614   5.429   2.831   7.343 -0.1544  0.2362  0.0073
24949SOL    HW176615   5.466   2.918   7.360  1.2370  0.1525 -2.1413
24949SOL    HW276616   5.387   2.840   7.257  0.7111 -1.3695 -0.6198
24950SOL     OW76617   1.830   6.408   2.355  0.0426 -0.1026  0.1281
24950SOL    HW176618   1.737   6.399   2.331  0.3237 -1.6126 -0.5524
24950SOL    HW276619   1.829   6.456   2.438 -1.3023  0.5154 -0.2209
24951SOL     OW76620   7.164   1.904   6.797 -0.0663 -0.2185 -0.4180
24951SOL    HW176621   7.210   1.859   6.868  0.0215  1.0671  0.3761
24951SOL    HW276622   7.121   1.835   6.748  1.0594 -1.2684  0.0322
24952SOL     OW76623   7.994   4.073   6.189  0.2720 -0.1948  0.5472
24952SOL    HW176624   8.015   4.151   6.138  1.5011 -1.3007 -0.7189
24952SOL    HW276625   7.973   4.007   6.124  1.8869 -1.6611  1.4285
24953SOL     OW76626   8.074   7.553   6.582 -0.8327  0.0539  0.0125
24953SOL    HW176627   8.130   7.625   6.554 -2.6158  1.7268  0.5465
24953SOL    HW276628   7.989   7.573   6.545 -1.5045 -1.5225  0.6194
24954SOL     OW76629   5.825   8.366   6.668  0.4455  0.1478  0.2185
24954SOL    HW176630   5.743   8.362   6.718  0.4102  3.9648  0.7474
24954SOL    HW276631   5.894   8.366   6.735  0.5327  2.3222  0.1950
24955SOL     OW76632   2.219   4.871   8.501  0.3719 -0.3568 -0.0641
24955SOL    HW176633   2.216   4.941   8.566  0.5503 -0.0567 -0.3766
24955SOL    HW276634   2.299   4.888   8.451  0.8035 -1.1958  0.3137
24956SOL     OW76635   1.088   1.006   4.708  0.0718 -0.2755  0.4327
24956SOL    HW176636   1.051   0.961   4.632 -2.3047 -1.0212  1.8978
24956SOL    HW276637   1.130   0.937   4.759 -0.9272 -0.3557  1.1921
24957SOL     OW76638   6.397   0.891   7.015 -0.2942 -0.0187 -0.0353
24957SOL    HW176639   6.317   0.859   6.972  0.2068 -0.8794 -0.3489
24957SOL    HW276640   6.451   0.813   7.025  1.2957  0.8501 -1.4740
24958SOL     OW76641   2.245   2.584   7.145 -0.4643 -0.2581  0.2351
24958SOL    HW176642   2.305   2.655   7.170 -0.4329 -0.6318  1.3013
24958SOL    HW276643   2.182   2.625   7.087 -1.3383  1.0402  1.9912
24959SOL     OW76644   1.539   6.375   5.808  0.5114  0.1040  0.3133
24959SOL    HW176645   1.518   6.285   5.831 -1.2885  0.1093 -1.0369
24959SOL    HW276646   1.608   6.368   5.742 -2.1062 -0.6564 -2.6276
24960SOL     OW76647   6.164   7.129   2.022  0.0629  0.5260  0.1772
24960SOL    HW176648   6.148   7.201   1.961 -0.1222 -0.7844 -1.4112
24960SOL    HW276649   6.091   7.133   2.084 -2.0482 -0.4400 -2.0874
24961SOL     OW76650   6.646   0.582   3.806 -0.1254 -0.0655 -0.0278
24961SOL    HW176651   6.698   0.600   3.728  0.5696  1.2541  0.7183
24961SOL    HW276652   6.566   0.632   3.794 -1.0311 -1.6106 -0.8840
24962SOL     OW76653   6.265   5.012   6.521 -0.1665  0.1642 -0.4609
24962SOL    HW176654   6.249   5.106   6.528 -1.8380 -0.2098  2.7702
24962SOL    HW276655   6.186   4.979   6.477 -0.3543  0.1273 -0.1026
24963SOL     OW76656   5.005   0.430   5.364  0.1458  0.2471 -0.3296
24963SOL    HW176657   4.995   0.518   5.399  0.2513  0.5398 -1.0120
24963SOL    HW276658   4.916   0.394   5.362 -0.3823  1.4749 -2.9051
24964SOL     OW76659   0.817   9.249   9.114 -0.4654  0.4761  0.1388
24964SOL    HW176660   0.795   9.203   9.033  0.7808  0.0940  0.0050
24964SOL    HW276661   0.863   9.328   9.086  1.2602 -0.3601  0.4742
24965SOL     OW76662   1.733   2.243   7.387 -0.2766 -0.2199  0.5449
24965SOL    HW176663   1.790   2.192   7.329 -1.1113 -1.6839  0.9543
24965SOL    HW276664   1.657   2.186   7.401 -1.5570  1.4178  0.5211
24966SOL     OW76665   5.043   6.721   3.337  0.5981  0.3492  0.5266
24966SOL    HW176666   5.122   6.775   3.333  1.2632 -0.6364 -0.5796
24966SOL    HW276667   5.014   6.715   3.246 -0.2001 -0.0927  0.7975
24967SOL     OW76668   7.145   8.967   0.663 -0.0038 -0.1403 -0.1708
24967SOL    HW176669   7.196   9.043   0.634  0.0832  0.1173  0.6027
24967SOL    HW276670   7.061   8.975   0.618 -0.8428  1.6924  1.5639
24968SOL     OW76671   6.096   0.269   6.598  0.1485 -0.0557  0.5139
24968SOL    HW176672   6.047   0.247   6.678 -0.6039 -0.6843 -0.1077
24968SOL    HW276673   6.117   0.184   6.559 -1.8335  0.2392 -1.3608
24969SOL     OW76674   0.483   3.726   3.588 -0.0055 -0.1577 -0.0063
24969SOL    HW176675   0.470   3.650   3.644 -4.0732  0.3753  0.0977
24969SOL    HW276676   0.422   3.791   3.621  0.7177  1.8663 -2.3030
24970SOL     OW76677   0.299   3.387   5.892  0.3959  0.0997 -0.1095
24970SOL    HW176678   0.305   3.291   5.898  0.4386 -0.0042 -1.4585
24970SOL    HW276679   0.369   3.419   5.949 -0.2005 -0.6428  1.0823
24971SOL     OW76680   6.465   6.988   5.358 -0.5352 -0.3552  0.1990
24971SOL    HW176681   6.539   6.989   5.418  0.4958 -1.5317 -1.0006
24971SOL    HW276682   6.471   7.072   5.312 -1.7962  0.9170  2.1942
24972SOL     OW76683   3.835   0.793   3.186  0.0783  0.9905 -0.3684
24972SOL    HW176684   3.917   0.783   3.235 -0.1962  3.0371  0.6260
24972SOL    HW276685   3.836   0.722   3.122  1.1613 -0.9161  1.6240
24973SOL     OW76686   3.566   4.670   6.314  0.4068  0.4445  0.1192
24973SOL    HW176687   3.524   4.584   6.317 -0.3844  0.8471  1.0471
24973SOL    HW276688   3.633   4.667   6.382 -0.4452  0.9650  1.0002
24974SOL     OW76689   1.846   5.463   8.067 -0.5068 -0.1009  0.1872
24974SOL    HW176690   1.868   5.541   8.118 -1.8371 -0.4791  1.4109
24974SOL    HW276691   1.759   5.482   8.032  0.4236  0.2013 -2.1352
24975SOL     OW76692   7.379   3.612   1.186 -0.0260  0.4589  0.2257
24975SOL    HW176693   7.386   3.522   1.219 -1.3291  0.2963  0.1136
24975SOL    HW276694   7.400   3.605   1.093 -0.3602  0.2261  0.1658
24976SOL     OW76695   0.771   6.085   5.767  0.4616  0.1611 -0.4371
24976SOL    HW176696   0.740   5.994   5.766 -3.1914  1.1746  1.9336
24976SOL    HW276697   0.855   6.081   5.813  1.9414 -2.2308 -3.0147
24977SOL     OW76698   7.937   1.354   7.073 -0.1736 -0.3906  0.4000
24977SOL    HW176699   7.953   1.401   7.155 -0.1480 -1.8575  1.2791
24977SOL    HW276700   7.921   1.264   7.100 -2.5923 -0.4638 -1.0405
24978SOL     OW76701   5.395   3.996   5.650  0.3721  0.3806  0.0878
24978SOL    HW176702   5.324   3.932   5.648  0.7406 -0.2331  2.9498
24978SOL    HW276703   5.449   3.974   5.573  0.1937 -2.4284  0.6499
24979SOL     OW76704   1.158   5.255   9.623  0.6536  0.1800  0.3536
24979SOL    HW176705   1.138   5.162   9.612  2.1406  0.1076 -3.0741
24979SOL    HW276706   1.114   5.298   9.550 -0.9496  2.4507  2.4637
24980SOL     OW76707   9.626   4.845   7.148 -0.1108  0.1895 -0.5560
24980SOL    HW176708   9.650   4.937   7.156  1.1185 -0.1028 -0.6655
24980SOL    HW276709   9.684   4.811   7.080 -0.2249 -0.7722 -0.1840
24981SOL     OW76710   5.773   5.581   9.141  0.6013 -0.1115  0.0414
24981SOL    HW176711   5.775   5.598   9.235  1.7011  0.5021 -0.0769
24981SOL    HW276712   5.751   5.665   9.102 -1.1559 -0.6454 -0.2167
24982SOL     OW76713   8.478   1.620   5.488 -0.5274 -0.4423  0.2841
24982SOL    HW176714   8.558   1.624   5.540  0.0477 -0.1771 -0.6051
24982SOL    HW276715   8.454   1.527   5.487  1.0549 -0.8787 -1.3424
24983SOL     OW76716   6.594   1.941   3.601  0.0401 -0.0909 -0.3719
24983SOL    HW176717   6.615   1.865   3.546 -1.3465 -0.0145 -1.0544
24983SOL    HW276718   6.569   1.903   3.685 -1.5296 -0.5003 -0.9836
24984SOL     OW76719   9.175   4.881   4.487 -0.1339  0.2628 -0.3798
24984SOL    HW176720   9.132   4.805   4.526 -1.3789  1.3423  0.4442
24984SOL    HW276721   9.254   4.894   4.540  1.1410 -1.5346 -1.6995
24985SOL     OW76722   3.402   2.989   7.523 -0.2973 -0.1790 -0.3416
24985SOL    HW176723   3.405   2.948   7.609  1.9134  0.3034 -0.1286
24985SOL    HW276724   3.470   3.056   7.526 -0.0094 -0.2997 -2.5289
24986SOL     OW76725   3.563   7.560   2.928 -0.3630 -0.6882  0.2397
24986SOL    HW176726   3.476   7.587   2.959  0.5228  0.9450  1.4294
24986SOL    HW276727   3.572   7.470   2.960 -1.4800 -0.7705  0.3791
24987SOL     OW76728   3.506   4.828   1.885  0.2210  0.0931  0.0482
24987SOL    HW176729   3.505   4.732   1.886  2.4045  0.0058 -0.9219
24987SOL    HW276730   3.414   4.853   1.899 -0.6877 -2.1519 -1.4004
24988SOL     OW76731   5.866   2.464   2.550 -0.4486 -0.0478 -0.0544
24988SOL    HW176732   5.889   2.557   2.550  0.2758 -0.2188 -0.7143
24988SOL    HW276733   5.778   2.461   2.588 -0.3104  0.8607  0.3597
24989SOL     OW76734   2.552   4.845   4.966  0.1907  0.2505  0.0411
24989SOL    HW176735   2.518   4.934   4.972 -0.0053  0.1009  1.7951
24989SOL    HW276736   2.647   4.856   4.959  0.1343  0.6112 -0.1431
24990SOL     OW76737   9.284   7.810   0.124  0.5576 -0.3378  0.3214
24990SOL    HW176738   9.351   7.878   0.114 -0.6948  1.2095  1.7062
24990SOL    HW276739   9.313   7.739   0.067  2.7235  0.7443 -0.0473
24991SOL     OW76740   3.830   9.734   5.401 -0.1633  0.3957 -0.0431
24991SOL    HW176741   3.830   9.640   5.383  1.6407  0.3154  0.1846
24991SOL    HW276742   3.802   9.740   5.493  3.8500 -0.3811  1.4426
24992SOL     OW76743   4.452   9.322   4.356 -0.0844 -0.3688  0.3409
24992SOL    HW176744   4.412   9.314   4.270 -1.3438 -2.7414  1.0613
24992SOL    HW276745   4.441   9.236   4.396  1.0263  0.4667  2.6379
24993SOL     OW76746   0.513   0.507   6.072  0.3360  0.2752  0.1065
24993SOL    HW176747   0.490   0.588   6.026  0.0115  1.5488  2.3684
24993SOL    HW276748   0.432   0.457   6.076 -0.1994  1.1817  1.1801
24994SOL     OW76749   1.837   2.789   2.885 -0.1728 -0.3976 -0.6409
24994SOL    HW176750   1.895   2.749   2.949  0.6594 -1.1510 -1.8114
24994SOL    HW276751   1.806   2.869   2.927 -1.7027 -2.0682  1.7016
24995SOL     OW76752   3.821   1.569   4.218 -0.0524 -0.3215 -0.4022
24995SOL    HW176753   3.734   1.546   4.248  0.4730  0.6078  2.0315
24995SOL    HW276754   3.842   1.652   4.262  2.6477 -1.3188  0.4367
24996SOL     OW76755   0.515   8.856   5.963  0.8429 -0.1553  0.0696
24996SOL    HW176756   0.508   8.841   5.869  1.8416  0.9690 -0.2097
24996SOL    HW276757   0.498   8.770   6.003  2.0240 -1.0207 -1.2061
24997SOL     OW76758   6.846   9.356   1.583  0.4290  0.0984 -0.0700
24997SOL    HW176759   6.846   9.352   1.679  1.1454 -0.1640 -0.0801
24997SOL    HW276760   6.893   9.437   1.563 -1.4521  1.2410 -0.1760
24998SOL     OW76761   9.643   3.248   6.626 -0.2072  0.4629 -0.0721
24998SOL    HW176762   9.600   3.203   6.554  0.2969  0.4976 -0.4022
24998SOL    HW276763   9.574   3.300   6.667 -0.7966 -0.6098  0.3221
24999SOL     OW76764   0.416   0.007   8.007 -0.2115 -0.1437  0.1271
24999SOL    HW176765   0.480   0.074   7.985  0.2682 -1.4440 -2.9815
24999SOL    HW276766   0.388   0.028   8.096 -0.4025  4.3750 -0.7667
25000SOL     OW76767   8.335   6.247   5.906 -0.2185  0.3603  0.0613
25000SOL    HW176768   8.395   6.261   5.979  0.8067 -1.2661 -0.4076
25000SOL    HW276769   8.346   6.154   5.883 -2.2282  0.2364 -0.6645
25001SOL     OW76770   0.328   0.393   3.201  0.5500  0.1050  0.0271
25001SOL    HW176771   0.375   0.474   3.179  1.1489 -0.1229  0.4351
25001SOL    HW276772   0.335   0.339   3.122  2.4496 -0.5990  0.6040
25002SOL     OW76773   4.481   3.666   1.699  0.4605  0.0776  0.4796
25002SOL    HW176774   4.517   3.696   1.782 -0.4185 -0.6086  1.1269
25002SOL    HW276775   4.494   3.571   1.701 -0.3176 -0.0419  0.2080
25003SOL     OW76776   8.271   7.241   5.887  0.0103 -0.4868  0.9888
25003SOL    HW176777   8.332   7.305   5.925 -0.6035  0.8779 -0.2067
25003SOL    HW276778   8.325   7.186   5.831  0.1748  0.7598 -0.1227
25004SOL     OW76779   5.632   1.400   2.947  0.5305  0.1718  0.1172
25004SOL    HW176780   5.644   1.347   2.869  2.0338 -0.4284  0.7110
25004SOL    HW276781   5.623   1.336   3.018  0.0144  0.7127  0.5508
25005SOL     OW76782   2.674   2.385   9.340  0.0410 -0.6637  0.1184
25005SOL    HW176783   2.628   2.302   9.328 -0.3623 -0.4632  0.2539
25005SOL    HW276784   2.606   2.451   9.330  0.4433 -0.3276 -0.4557
25006SOL     OW76785   6.975   5.709   8.216  0.3285  0.1674 -0.3747
25006SOL    HW176786   6.951   5.801   8.202 -0.5275 -0.0649 -0.4767
25006SOL    HW276787   7.026   5.685   8.139  0.0196  0.3834 -0.6477
25007SOL     OW76788   9.265   2.390   6.100  0.9269 -0.4855 -0.0171
25007SOL    HW176789   9.267   2.428   6.012 -0.6288 -2.2025 -0.8529
25007SOL    HW276790   9.284   2.464   6.158 -0.7088  1.3101 -1.6294
25008SOL     OW76791   0.503   2.834   8.909  0.0872 -0.5715  0.0331
25008SOL    HW176792   0.449   2.818   8.832 -0.4593  0.0753  0.2728
25008SOL    HW276793   0.442   2.828   8.982  0.5022 -0.6353  0.3775
25009SOL     OW76794   4.890   0.979   6.773  0.1527  0.1386 -0.5071
25009SOL    HW176795   4.838   0.903   6.799 -1.3292  1.1635 -0.3807
25009SOL    HW276796   4.976   0.943   6.752 -0.7412 -1.6827 -1.2351
25010SOL     OW76797   4.742   9.434   5.666  0.0265 -0.0056  0.8034
25010SOL    HW176798   4.792   9.394   5.595 -0.9753  0.7860 -0.3870
25010SOL    HW276799   4.733   9.364   5.731  3.1120 -0.0302  1.3803
25011SOL     OW76800   4.109   7.870   1.260  0.0756  0.1413 -0.5940
25011SOL    HW176801   4.109   7.840   1.169  1.8514  1.1298 -0.9564
25011SOL    HW276802   4.026   7.837   1.296 -1.3122  0.8518 -2.9333
25012SOL     OW76803   7.268   6.528   5.165  0.6326 -0.6811  0.3889
25012SOL    HW176804   7.359   6.559   5.158  0.2302  0.3102 -1.1327
25012SOL    HW276805   7.273   6.434   5.151  1.4677 -0.6799  0.6556
25013SOL     OW76806   3.526   7.349   5.919  0.0746  0.0454  0.1920
25013SOL    HW176807   3.479   7.348   5.836  0.3951  0.2311  0.0053
25013SOL    HW276808   3.618   7.338   5.894  0.3022  1.2681  0.4273
25014SOL     OW76809   1.584   0.583   7.363  0.4534 -0.2057 -0.5107
25014SOL    HW176810   1.647   0.586   7.290 -0.5452  0.6959 -1.3643
25014SOL    HW276811   1.507   0.628   7.330 -1.3248 -2.7273 -0.0975
25015SOL     OW76812   5.468   4.911   2.693 -0.4275  0.1802  0.7989
25015SOL    HW176813   5.376   4.894   2.673 -0.2613  0.3518 -0.1419
25015SOL    HW276814   5.466   4.995   2.740 -0.8382 -0.3248  1.7162
25016SOL     OW76815   4.686   5.439   5.557  0.2181  0.1404 -0.4941
25016SOL    HW176816   4.705   5.468   5.647  1.0735  1.1221 -0.9600
25016SOL    HW276817   4.596   5.408   5.560 -0.1057  1.0870  0.5043
25017SOL     OW76818   8.500   1.781   8.634  0.5688 -0.1874  0.2614
25017SOL    HW176819   8.495   1.779   8.730 -0.3648 -2.2508  0.2160
25017SOL    HW276820   8.580   1.829   8.615  0.3105  1.0421  2.0503
25018SOL     OW76821   7.089   9.721   1.256 -0.3467  0.0762  0.0383
25018SOL    HW176822   7.048   9.635   1.247 -0.9024  0.3659 -0.2302
25018SOL    HW276823   7.047   9.775   1.189  1.7799 -0.1055 -1.5509
25019SOL     OW76824   2.814   3.246   3.894  0.2275  0.4533 -0.3255
25019SOL    HW176825   2.734   3.196   3.879  0.0790  0.7855 -0.6360
25019SOL    HW276826   2.844   3.217   3.981 -1.7418  2.3726  1.0811
25020SOL     OW76827   0.192   0.256   4.470 -0.1462  0.1078 -0.3342
25020SOL    HW176828   0.218   0.202   4.545 -1.2715 -0.0261 -0.0064
25020SOL    HW276829   0.166   0.340   4.509 -2.0497 -0.4172 -0.3777
25021SOL     OW76830   0.906   2.710   1.367  0.1154 -0.0973 -0.0975
25021SOL    HW176831   0.889   2.726   1.274 -0.3134 -2.4367 -0.5011
25021SOL    HW276832   0.975   2.772   1.390  0.2176  0.5564 -1.9832
25022SOL     OW76833   8.153   3.864   7.626 -0.6511  0.8385  0.4507
25022SOL    HW176834   8.095   3.886   7.552  0.4664  0.9454 -0.4220
25022SOL    HW276835   8.105   3.894   7.703 -0.8771  2.8364 -0.3960
25023SOL     OW76836   3.583   4.064   3.670 -0.4541 -0.3107 -0.0431
25023SOL    HW176837   3.614   4.136   3.725 -0.4055 -1.2809  1.2686
25023SOL    HW276838   3.501   4.096   3.632 -0.1710  0.6163  0.1104
25024SOL     OW76839   5.776   4.786   1.113 -0.3392 -0.1305 -0.5474
25024SOL    HW176840   5.734   4.716   1.063 -1.9645 -1.0898  1.9701
25024SOL    HW276841   5.716   4.861   1.104 -0.2084 -0.0434 -0.6957
25025SOL     OW76842   7.311   7.281   7.720  0.0228 -0.3953 -0.0745
25025SOL    HW176843   7.374   7.292   7.791 -0.5490 -0.5977  0.4728
25025SOL    HW276844   7.337   7.201   7.676  0.1865 -0.4482  0.1179
25026SOL     OW76845   0.524   5.085   4.213  0.3507 -0.5048 -0.4596
25026SOL    HW176846   0.539   5.180   4.215 -3.2588  0.1847  1.3602
25026SOL    HW276847   0.598   5.048   4.261  1.5182  1.4254 -0.6775
25027SOL     OW76848   4.546   5.329   6.783  0.2863  0.1711 -0.3124
25027SOL    HW176849   4.586   5.415   6.780  2.3166 -0.6930  0.2048
25027SOL    HW276850   4.545   5.305   6.875 -2.8802  0.7108 -0.0793
25028SOL     OW76851   0.022   5.599   3.044  0.2658 -0.1995 -0.1578
25028SOL    HW176852   0.115   5.614   3.063  0.6485 -2.4774  0.0846
25028SOL    HW276853   0.021   5.558   2.958 -0.2395 -2.3816  0.8062
25029SOL     OW76854   3.562   1.749   3.347 -0.4380  0.0941  0.1565
25029SOL    HW176855   3.522   1.662   3.356 -2.8073  0.7385 -2.6389
25029SOL    HW276856   3.520   1.802   3.414 -1.9582 -0.0383 -0.6517
25030SOL     OW76857   2.614   6.174   0.141  0.8457  0.3399 -0.2972
25030SOL    HW176858   2.681   6.152   0.206  0.6079 -0.0565 -0.1847
25030SOL    HW276859   2.531   6.164   0.187  0.6923  0.4664 -0.5434
25031SOL     OW76860   8.200   6.375   1.544 -0.2227 -0.3373  0.3007
25031SOL    HW176861   8.154   6.457   1.560 -1.1723 -1.0181  1.1987
25031SOL    HW276862   8.286   6.386   1.585  0.5765  1.0317 -1.5922
25032SOL     OW76863   9.383   7.651   1.528 -0.0475 -0.0086 -0.6983
25032SOL    HW176864   9.339   7.577   1.486 -1.0168  0.0284  0.2171
25032SOL    HW276865   9.322   7.681   1.596  2.1609 -1.2605  2.0756
25033SOL     OW76866   5.960   4.982   3.666  0.2887  0.2849 -0.0057
25033SOL    HW176867   5.994   5.016   3.583  0.7656 -1.9081 -0.7862
25033SOL    HW276868   5.996   5.039   3.733  0.8876  1.3805 -1.2299
25034SOL     OW76869   1.120   2.158   2.835  0.1138  0.1188  0.1292
25034SOL    HW176870   1.159   2.106   2.764 -2.0301 -1.3653 -0.0530
25034SOL    HW276871   1.177   2.235   2.841  0.2574  0.5029 -3.4378
25035SOL     OW76872   9.173   2.538   8.277 -0.3363  0.1746  0.1158
25035SOL    HW176873   9.256   2.574   8.246 -0.8458 -0.2236 -1.7869
25035SOL    HW276874   9.109   2.565   8.212 -1.3473 -1.2415  0.4812
25036SOL     OW76875   6.554   4.609   5.587 -0.1809 -0.5543  0.2739
25036SOL    HW176876   6.511   4.555   5.520 -0.1669  0.7304 -0.8015
25036SOL    HW276877   6.488   4.672   5.613  0.2223 -0.2468  0.5512
25037SOL     OW76878   4.230   4.322   5.022 -0.1392 -0.0184  0.5979
25037SOL    HW176879   4.241   4.267   4.945 -0.6588 -1.3337  1.4349
25037SOL    HW276880   4.251   4.410   4.992 -1.0184 -0.3905 -1.2116
25038SOL     OW76881   9.311   7.872   3.990 -0.6715 -0.4543 -0.6095
25038SOL    HW176882   9.400   7.868   4.025 -0.1229  0.5150 -1.8399
25038SOL    HW276883   9.281   7.960   4.010 -0.9526 -0.4279 -1.1272
25039SOL     OW76884   6.709   8.646   6.285 -0.4109  0.2188  0.4180
25039SOL    HW176885   6.654   8.593   6.342 -2.0378 -0.8352 -1.9593
25039SOL    HW276886   6.674   8.735   6.293  0.5648  0.4770  2.3523
25040SOL     OW76887   6.067   4.058   8.019 -0.1848 -0.2093  0.2892
25040SOL    HW176888   6.094   4.117   7.949 -1.2094 -3.0150 -2.6815
25040SOL    HW276889   5.973   4.074   8.029 -0.5830 -1.6054 -0.9206
25041SOL     OW76890   8.275   7.778   4.497 -0.3249  0.4857 -0.0324
25041SOL    HW176891   8.308   7.710   4.555  0.3293  0.5966 -0.2679
25041SOL    HW276892   8.224   7.835   4.554 -1.0986 -0.3434  0.1160
25042SOL     OW76893   8.900   5.356   0.520 -0.6214 -0.3151  0.2767
25042SOL    HW176894   8.944   5.421   0.575 -1.4240 -0.0132  0.5801
25042SOL    HW276895   8.857   5.409   0.452 -0.9573 -0.5591  0.2999
25043SOL     OW76896   7.457   7.176   3.194 -0.5472 -0.3447 -0.2707
25043SOL    HW176897   7.388   7.123   3.154  0.7857 -2.1209 -0.3477
25043SOL    HW276898   7.494   7.226   3.121 -0.7415 -0.5518 -0.5137
25044SOL     OW76899   5.466   9.578   6.309  0.2249 -0.1207 -0.0329
25044SOL    HW176900   5.387   9.528   6.289  1.0243 -1.5956  0.3492
25044SOL    HW276901   5.509   9.589   6.225 -1.3678  2.5426 -0.6016
25045SOL     OW76902   3.597   0.574   1.278  0.1080 -0.6331 -0.5038
25045SOL    HW176903   3.621   0.659   1.315 -0.6921 -1.3637  1.9498
25045SOL    HW276904   3.506   0.585   1.250  0.5718 -0.2108 -1.9369
25046SOL     OW76905   2.548   4.431   3.766  0.0518  0.0132 -0.0155
25046SOL    HW176906   2.515   4.484   3.693 -0.3245  0.3552  0.3978
25046SOL    HW276907   2.469   4.403   3.812  0.3240  1.3066  1.3151
25047SOL     OW76908   0.535   8.994   3.694 -0.3307 -0.0544  0.0523
25047SOL    HW176909   0.501   9.067   3.642  0.4475 -0.7678 -1.5396
25047SOL    HW276910   0.541   8.922   3.632 -1.0172 -1.4846  1.5656
25048SOL     OW76911   9.586   7.304   4.965  0.1968  0.4750 -0.1762
25048SOL    HW176912   9.616   7.340   5.049  0.4000 -0.9119  0.3855
25048SOL    HW276913   9.495   7.281   4.980  0.6119 -1.0842  0.1595
25049SOL     OW76914   8.073   6.926   6.754 -0.2444  0.3220 -0.1333
25049SOL    HW176915   8.163   6.959   6.756 -0.1578  0.0433  1.0712
25049SOL    HW276916   8.080   6.834   6.779 -0.8797  0.3468  0.1654
25050SOL     OW76917   5.324   6.941   3.753 -0.3643  0.0917 -0.3061
25050SOL    HW176918   5.379   6.926   3.676 -1.1528 -1.0415 -0.6756
25050SOL    HW276919   5.346   6.868   3.812  0.0411  0.8038  0.4340
25051SOL     OW76920   3.017   0.660   0.523  0.1221  0.2022 -0.3208
25051SOL    HW176921   3.032   0.699   0.609  0.9952 -0.1391 -0.3097
25051SOL    HW276922   3.076   0.708   0.465  0.2050 -0.1859 -0.5592
25052SOL     OW76923   0.067   6.182   3.969 -0.5483  0.3419  0.3861
25052SOL    HW176924   0.051   6.097   3.930  1.1709  0.9399 -1.8188
25052SOL    HW276925   0.028   6.245   3.909  0.1419  1.1999  0.7975
25053SOL     OW76926   7.254   6.589   2.334  0.3930  0.2515  0.4227
25053SOL    HW176927   7.233   6.496   2.342  1.5303 -0.4542 -3.0772
25053SOL    HW276928   7.179   6.634   2.373 -1.3545 -2.1403  0.0275
25054SOL     OW76929   4.980   8.807   4.575 -0.1923 -0.1495  0.2742
25054SOL    HW176930   5.054   8.801   4.635 -0.6264  2.4001  1.1944
25054SOL    HW276931   5.015   8.850   4.497 -0.1891 -1.1898 -0.3168
25055SOL     OW76932   7.772   4.271   7.213  0.0544  0.1219 -0.0218
25055SOL    HW176933   7.852   4.289   7.164  0.6308 -1.7813  0.1404
25055SOL    HW276934   7.703   4.313   7.162  1.1504  1.9804 -0.0612
25056SOL     OW76935   0.313   1.188   0.192  0.0315 -0.2261 -0.5924
25056SOL    HW176936   0.239   1.135   0.160 -0.2805 -0.3128  0.2268
25056SOL    HW276937   0.321   1.259   0.129 -1.4384  0.3763 -0.1584
25057SOL     OW76938   2.892   7.852   2.747  0.1125  0.1709 -0.5231
25057SOL    HW176939   2.947   7.928   2.726  0.7177 -0.4434 -1.2293
25057SOL    HW276940   2.884   7.805   2.664 -1.5872  0.2949 -0.4729
25058SOL     OW76941   2.905   2.403   9.446 -0.5891 -0.3361 -0.0275
25058SOL    HW176942   2.818   2.388   9.409 -0.4880 -0.0623 -0.3888
25058SOL    HW276943   2.964   2.356   9.387 -0.3691  0.5932 -0.5725
25059SOL     OW76944   3.511   7.833   1.105  0.4605  0.7338 -0.0236
25059SOL    HW176945   3.471   7.879   1.179  0.1224 -0.8027  0.7841
25059SOL    HW276946   3.539   7.749   1.141 -2.3273 -1.3508 -2.1759
25060SOL     OW76947   2.306   7.145   1.409  0.1973 -0.0835  0.0586
25060SOL    HW176948   2.252   7.100   1.345 -0.3813  1.7706 -0.8182
25060SOL    HW276949   2.260   7.131   1.492 -1.7101  1.4520 -0.6592
25061SOL     OW76950   9.609   1.920   3.199  0.0310  0.3025 -0.0083
25061SOL    HW176951   9.520   1.945   3.173 -0.1417  0.0051  0.2937
25061SOL    HW276952   9.661   1.929   3.119 -0.8324 -2.3251 -0.9491
25062SOL     OW76953   5.588   4.705   3.795  0.4413 -0.2642  0.2864
25062SOL    HW176954   5.503   4.737   3.828 -0.4872 -1.9541 -0.3365
25062SOL    HW276955   5.631   4.783   3.760 -0.7479  0.6754  0.8335
25063SOL     OW76956   4.848   4.344   9.117  0.7634 -0.0898  0.1550
25063SOL    HW176957   4.818   4.272   9.172  1.9154 -0.6910  0.0250
25063SOL    HW276958   4.770   4.372   9.069  0.1946 -0.8960  0.5912
25064SOL     OW76959   6.697   3.763   3.255 -0.0697 -0.8207  0.2181
25064SOL    HW176960   6.789   3.755   3.282  0.3331  2.2750  0.1044
25064SOL    HW276961   6.686   3.694   3.189  1.9226 -1.7817  0.7995
25065SOL     OW76962   1.035   0.885   8.308 -0.3090 -0.1783 -0.1810
25065SOL    HW176963   1.112   0.832   8.288  0.6391  1.6352 -1.6284
25065SOL    HW276964   1.003   0.850   8.391  0.3782 -2.8278 -0.9337
25066SOL     OW76965   6.636   5.064   6.264  0.0233 -0.0379 -0.3605
25066SOL    HW176966   6.579   5.047   6.189 -1.2136  0.2345  0.4937
25066SOL    HW276967   6.596   5.015   6.336  2.0884 -1.6268 -0.2117
25067SOL     OW76968   2.531   5.358   7.165  0.3500 -0.1543  0.7171
25067SOL    HW176969   2.481   5.292   7.212 -0.0426 -0.2793  0.1291
25067SOL    HW276970   2.598   5.309   7.117 -0.6383 -0.2528 -0.6098
25068SOL     OW76971   0.008   6.294   8.769  0.0381 -0.0104  0.0573
25068SOL    HW176972   0.028   6.386   8.754 -1.1089  0.1592 -0.5479
25068SOL    HW276973  -0.084   6.284   8.743  0.2386 -1.3949 -0.2273
25069SOL     OW76974   7.198   4.464   4.782  0.1495 -0.1564 -0.4932
25069SOL    HW176975   7.244   4.531   4.732 -0.1390 -1.0916 -2.0901
25069SOL    HW276976   7.221   4.481   4.873  0.8596  1.4902 -0.9574
25070SOL     OW76977   6.453   3.287   1.831 -0.3305 -0.4065 -0.0283
25070SOL    HW176978   6.375   3.263   1.881 -0.1107 -0.8210  0.1216
25070SOL    HW276979   6.526   3.252   1.883 -0.0793 -0.4894 -0.4342
25071SOL     OW76980   7.691   8.094   8.533 -0.3209  0.3133 -0.6641
25071SOL    HW176981   7.647   8.065   8.613  2.1770 -1.6812  0.1389
25071SOL    HW276982   7.633   8.067   8.462 -2.2298  1.4441  0.3973
25072SOL     OW76983   9.639   6.681   7.192  0.3765  0.0667  0.4401
25072SOL    HW176984   9.726   6.713   7.171 -0.8389  3.0574 -0.5497
25072SOL    HW276985   9.589   6.759   7.215 -2.5163 -1.2686 -0.7388
25073SOL     OW76986   5.242   9.383   9.494 -0.3670 -0.1903 -0.4464
25073SOL    HW176987   5.186   9.461   9.490  0.3267  0.3227 -0.3790
25073SOL    HW276988   5.205   9.324   9.429 -2.0839 -0.6184  0.8400
25074SOL     OW76989   0.126   7.559   4.720 -0.9058  0.5506  0.5872
25074SOL    HW176990   0.073   7.513   4.785 -0.8760  1.9370  1.6499
25074SOL    HW276991   0.114   7.652   4.740  1.8599  0.9556  0.8967
25075SOL     OW76992   0.043   3.323   3.106  0.3973 -0.0582  0.1545
25075SOL    HW176993   0.052   3.293   3.197 -2.2690 -1.9143 -0.0779
25075SOL    HW276994   0.131   3.351   3.081  1.6405 -1.4014  2.6672
25076SOL     OW76995   5.607   5.364   6.465 -0.1864  0.2523 -0.6329
25076SOL    HW176996   5.549   5.289   6.480  1.2414 -0.7585  0.0214
25076SOL    HW276997   5.561   5.417   6.400 -1.9348 -0.3989  0.0216
25077SOL     OW76998   3.954   9.665   9.204  0.0347 -0.4720  0.4570
25077SOL    HW176999   4.023   9.673   9.138 -1.6100  0.9972 -1.1842
25077SOL    HW277000   3.996   9.692   9.286  0.9279  2.4039 -0.8358
25078SOL     OW77001   4.644   8.744   8.921 -0.0268  0.3464 -0.9084
25078SOL    HW177002   4.729   8.726   8.962 -0.5702  0.7260  0.4269
25078SOL    HW277003   4.592   8.666   8.939  0.1050  0.0006 -1.9615
25079SOL     OW77004   1.872   8.320   0.882 -0.1185 -0.0461  0.2667
25079SOL    HW177005   1.811   8.383   0.920 -0.0744  0.1463  0.0229
25079SOL    HW277006   1.836   8.300   0.796 -0.2120 -0.4728  0.4030
25080SOL     OW77007   6.119   5.112   7.048  0.1171 -0.1556 -0.3132
25080SOL    HW177008   6.123   5.087   6.956  0.4633  0.7686 -0.5515
25080SOL    HW277009   6.210   5.117   7.076  0.0806  1.1255 -0.3601
25081SOL     OW77010   0.845   5.461   7.034  0.4137 -0.0597  0.1711
25081SOL    HW177011   0.796   5.484   6.956 -0.7908  2.2904  1.5218
25081SOL    HW277012   0.797   5.388   7.072  1.1056 -1.3378 -1.2845
25082SOL     OW77013   8.189   2.582   5.952  0.8594  0.0075 -0.0634
25082SOL    HW177014   8.117   2.540   5.906  2.2815 -0.3288 -2.1234
25082SOL    HW277015   8.215   2.655   5.896  2.5028 -0.2669  0.2715
25083SOL     OW77016   7.441   7.699   4.593 -0.2198 -0.0999 -0.3486
25083SOL    HW177017   7.380   7.625   4.599 -1.4358  0.9602  1.6586
25083SOL    HW277018   7.397   7.769   4.640  1.8163  1.2659 -0.3757
25084SOL     OW77019   2.979   1.311   6.840 -0.0056 -0.0279  0.1110
25084SOL    HW177020   2.917   1.363   6.891  0.9239  0.8844  0.3664
25084SOL    HW277021   2.932   1.231   6.818 -0.9123  0.1864  1.1734
25085SOL     OW77022   2.470   0.816   1.531 -0.3126 -0.0277  0.1937
25085SOL    HW177023   2.528   0.771   1.592 -0.7037 -0.7429  0.0551
25085SOL    HW277024   2.483   0.909   1.549 -1.4792 -0.2261  2.3770
25086SOL     OW77025   0.175   1.444   0.924  0.2372 -0.0983  0.1111
25086SOL    HW177026   0.189   1.350   0.911  2.5903  0.1706  0.2669
25086SOL    HW277027   0.202   1.484   0.841 -0.6868  0.4602  0.0697
25087SOL     OW77028   2.269   9.803   6.642  0.3404  0.0661  0.6512
25087SOL    HW177029   2.236   9.722   6.602  1.4718  0.7614 -1.8838
25087SOL    HW277030   2.301   9.776   6.728  2.5215 -2.6576 -0.8478
25088SOL     OW77031   3.748   9.032   2.513 -0.3099 -0.3115  0.0819
25088SOL    HW177032   3.749   8.937   2.499  0.9519 -0.1482 -1.1826
25088SOL    HW277033   3.832   9.062   2.478 -0.1184  1.1288  1.6297
25089SOL     OW77034   8.798   7.245   1.031  0.2899  0.6548 -0.3672
25089SOL    HW177035   8.718   7.216   1.075  1.7509 -1.9327  0.7860
25089SOL    HW277036   8.850   7.166   1.021  2.0721  1.9716 -2.5659
25090SOL     OW77037   5.038   7.170   0.337 -0.1303  0.8500  0.0040
25090SOL    HW177038   5.052   7.241   0.399 -0.7869  1.6647 -0.7528
25090SOL    HW277039   5.021   7.214   0.253 -1.4024 -0.1580 -0.3070
25091SOL     OW77040   4.091   7.056   0.592 -0.1870 -0.0718 -0.2833
25091SOL    HW177041   4.002   7.082   0.570  0.0930  0.2123 -1.1629
25091SOL    HW277042   4.090   7.042   0.687 -0.3732  3.2606  0.3324
25092SOL     OW77043   6.408   4.696   4.458  0.2770 -0.0296 -0.6319
25092SOL    HW177044   6.378   4.765   4.399  1.1233  0.7152 -0.2191
25092SOL    HW277045   6.430   4.742   4.539  0.4547 -0.8481 -0.2045
25093SOL     OW77046   5.254   0.959   9.105  0.1667 -0.1767 -0.4434
25093SOL    HW177047   5.244   0.878   9.054 -0.2460 -0.5655  0.2246
25093SOL    HW277048   5.305   0.932   9.181  3.1561  0.9588 -1.8918
25094SOL     OW77049   5.363   7.751   7.566  0.5826 -0.5723  0.2805
25094SOL    HW177050   5.361   7.659   7.542  1.3851 -0.7109  0.7209
25094SOL    HW277051   5.419   7.792   7.501 -0.1971 -0.2907 -0.2280
25095SOL     OW77052   3.435   8.247   6.269  0.5039  0.0569  0.3856
25095SOL    HW177053   3.501   8.224   6.335  1.0601 -2.6010 -0.9579
25095SOL    HW277054   3.366   8.181   6.281 -0.0652  0.4206 -0.7571
25096SOL     OW77055   5.664   9.846   2.240 -0.0247  0.1690 -0.3205
25096SOL    HW177056   5.707   9.825   2.157  0.1163  0.6634 -0.3790
25096SOL    HW277057   5.690   9.776   2.300  0.8541  0.4434 -0.3661
25097SOL     OW77058   9.809   4.021   1.414 -0.5992 -0.2222 -0.7212
25097SOL    HW177059   9.850   4.009   1.329 -0.5315  0.5054 -0.7990
25097SOL    HW277060   9.874   3.988   1.477 -1.1970 -2.0461 -1.0008
25098SOL     OW77061   8.714   5.335   7.568  0.1758 -0.3452 -0.0547
25098SOL    HW177062   8.691   5.284   7.646  0.7484 -1.1999 -0.4222
25098SOL    HW277063   8.707   5.272   7.496 -0.7703  0.5347 -0.7721
25099SOL     OW77064   8.181   2.257   5.304 -0.2252 -0.1835  0.2404
25099SOL    HW177065   8.150   2.347   5.301 -0.3054 -0.2358 -2.2708
25099SOL    HW277066   8.265   2.262   5.350 -0.7673  0.9557  1.1592
25100SOL     OW77067   4.145   3.418   9.673  0.3734 -0.4663  0.2667
25100SOL    HW177068   4.177   3.503   9.702  0.4033 -1.1587  2.4723
25100SOL    HW277069   4.052   3.430   9.659  1.0296  1.1466 -4.5892
25101SOL     OW77070   7.447   3.500   8.350  0.0452  0.4045  0.1856
25101SOL    HW177071   7.359   3.497   8.312  0.2224 -1.2192 -0.2084
25101SOL    HW277072   7.494   3.565   8.297 -0.1433 -0.7364 -1.4847
25102SOL     OW77073   8.192   9.231   0.650 -0.1303  0.0979 -0.1331
25102SOL    HW177074   8.183   9.168   0.579  1.2847  1.5116 -1.6475
25102SOL    HW277075   8.234   9.182   0.720  1.8869 -0.4496 -1.6462
25103SOL     OW77076   3.753   2.522   0.001  0.7497 -0.1821  0.0513
25103SOL    HW177077   3.679   2.572   0.037 -0.2125  0.2494 -2.3284
25103SOL    HW277078   3.751   2.439   0.048 -0.2175  0.4597  1.1999
25104SOL     OW77079   6.188   4.795   2.249 -0.8389 -0.1132 -0.1705
25104SOL    HW177080   6.202   4.744   2.169 -0.3504 -0.6955  0.2723
25104SOL    HW277081   6.099   4.774   2.275 -0.9647 -0.0010 -0.5066
25105SOL     OW77082   4.882   6.705   2.193 -0.0763 -0.3480 -0.2527
25105SOL    HW177083   4.923   6.738   2.112 -2.0078 -1.0225 -1.5715
25105SOL    HW277084   4.813   6.646   2.163 -1.0691 -0.3774  1.9044
25106SOL     OW77085   3.879   3.887   7.161 -0.2608 -0.4815 -0.3144
25106SOL    HW177086   3.964   3.913   7.196  0.4344  1.0844 -2.8989
25106SOL    HW277087   3.868   3.796   7.188  1.7907 -0.4307  0.8417
25107SOL     OW77088   1.074   2.026   5.131  0.5870 -0.7968 -0.1473
25107SOL    HW177089   0.994   2.072   5.106  1.2309 -0.0645 -0.8922
25107SOL    HW277090   1.062   2.005   5.223 -0.0963  0.0796 -0.0293
25108SOL     OW77091   1.859   9.211   4.975  0.0961 -0.2955 -0.6605
25108SOL    HW177092   1.946   9.186   4.944  0.7705  0.8142  0.2262
25108SOL    HW277093   1.863   9.198   5.070 -0.2705  0.9693 -0.4572
25109SOL     OW77094   3.537   7.590   9.080  0.3485 -0.0506 -0.0298
25109SOL    HW177095   3.600   7.563   9.014  1.2595  1.1157  0.3379
25109SOL    HW277096   3.590   7.626   9.152 -0.6483 -0.5837  1.0120
25110SOL     OW77097   8.762   7.509   2.429 -0.3524  0.3904 -0.0186
25110SOL    HW177098   8.770   7.592   2.476 -0.4132  0.1315  0.4502
25110SOL    HW277099   8.685   7.467   2.467  0.2942 -0.3617  0.4891
25111SOL     OW77100   8.642   8.908   5.195 -0.7583  0.1978  0.3093
25111SOL    HW177101   8.601   8.827   5.165  0.3662 -0.2661 -0.0622
25111SOL    HW277102   8.687   8.884   5.276 -1.1715  0.6816  0.6865
25112SOL     OW77103   3.841   4.017   0.318 -0.6939  0.4330 -0.2006
25112SOL    HW177104   3.848   3.923   0.336  0.4185  0.3992 -0.7266
25112SOL    HW277105   3.901   4.058   0.380  1.1000  0.5308 -1.9181
25113SOL     OW77106   7.717   8.992   2.472 -0.1333  0.2303  0.0926
25113SOL    HW177107   7.699   8.944   2.552  3.3452  1.2927  1.7148
25113SOL    HW277108   7.686   9.081   2.490  0.3640  0.3934  0.1615
25114SOL     OW77109   7.520   4.978   5.851 -0.5247  0.2642 -0.3846
25114SOL    HW177110   7.532   4.923   5.774 -2.0016  0.7756 -1.0159
25114SOL    HW277111   7.540   5.066   5.820  1.7911  0.1669  0.6112
25115SOL     OW77112   2.777   9.562   5.270 -0.0262  0.0728  0.0615
25115SOL    HW177113   2.692   9.533   5.237  0.2949 -2.7187  1.3759
25115SOL    HW277114   2.840   9.532   5.205  0.2145 -1.2294  0.8622
25116SOL     OW77115   6.349   5.302   9.570  0.3585  0.0228 -0.0736
25116SOL    HW177116   6.401   5.229   9.602  0.1219  0.5597  1.6585
25116SOL    HW277117   6.266   5.296   9.619 -0.0922  0.7997 -0.7067
25117SOL     OW77118   1.936   6.245   1.993  0.3177  0.8337 -1.0794
25117SOL    HW177119   1.958   6.245   1.900 -0.7555 -1.2808 -1.3968
25117SOL    HW277120   1.876   6.172   2.003  1.1010  0.4410  1.4487
25118SOL     OW77121   1.378   5.071   1.637 -0.4467 -0.0209 -0.2315
25118SOL    HW177122   1.430   5.099   1.712 -0.2642 -0.0701 -0.3380
25118SOL    HW277123   1.369   4.976   1.649 -1.2947  0.1190  0.2728
25119SOL     OW77124   0.738   4.792   7.905  0.0710  0.1884  0.1993
25119SOL    HW177125   0.693   4.786   7.821 -0.4227  3.1084  0.1703
25119SOL    HW277126   0.690   4.859   7.954  2.1227  0.7182  1.6296
25120SOL     OW77127   0.132   8.475   7.938 -0.0445  0.1821  0.2659
25120SOL    HW177128   0.165   8.513   7.857  0.3458  0.7997  0.7051
25120SOL    HW277129   0.189   8.400   7.955 -1.2289 -1.0676 -0.9587
25121SOL     OW77130   4.876   2.936   8.131 -0.6975 -0.2836 -0.3791
25121SOL    HW177131   4.936   2.943   8.056 -1.0193  1.5374 -0.5324
25121SOL    HW277132   4.917   2.872   8.189  0.9036  0.1952 -0.9258
25122SOL     OW77133   6.473   6.500   7.191 -0.1313  0.0355  0.2940
25122SOL    HW177134   6.457   6.485   7.284 -1.4803 -1.0423 -0.0729
25122SOL    HW277135   6.568   6.501   7.183  0.0653 -2.3106  1.3577
25123SOL     OW77136   2.890   5.689   5.795  0.1865 -0.2857 -0.5789
25123SOL    HW177137   2.867   5.620   5.857  0.8476 -0.6823 -0.7655
25123SOL    HW277138   2.905   5.767   5.848  1.8751 -0.8934 -0.1029
25124SOL     OW77139   5.736   9.506   1.526  0.8857 -0.0905 -0.5048
25124SOL    HW177140   5.659   9.551   1.560  0.2500 -0.9889 -0.7292
25124SOL    HW277141   5.785   9.480   1.605  1.4243  1.2334 -0.3777
25125SOL     OW77142   1.064   7.295   8.468  0.2638  0.1726 -0.1800
25125SOL    HW177143   1.091   7.213   8.509 -1.4677  0.4769  1.7486
25125SOL    HW277144   1.005   7.268   8.398  1.8510 -0.2880 -1.3853
25126SOL     OW77145   2.981   3.250   8.244  0.5259  0.0614  0.3592
25126SOL    HW177146   2.971   3.249   8.149  0.8930  0.8359  0.3090
25126SOL    HW277147   3.007   3.340   8.265  1.1398 -0.2788  1.1186
25127SOL     OW77148   2.902   7.427   7.216 -0.3404  0.3528  0.1445
25127SOL    HW177149   2.906   7.490   7.288  0.6940  0.1637  0.2626
25127SOL    HW277150   2.808   7.409   7.206 -0.5756  1.1428  0.7704
25128SOL     OW77151   1.237   5.389   3.980  0.1539  0.2397 -0.0843
25128SOL    HW177152   1.316   5.398   3.927  0.6425 -0.6401  0.4732
25128SOL    HW277153   1.219   5.477   4.011 -0.2710  0.8268 -1.8655
25129SOL     OW77154   3.040   7.073   5.153 -1.3448  0.4797  0.0827
25129SOL    HW177155   2.991   7.081   5.071  1.9967 -0.5490 -2.2174
25129SOL    HW277156   3.056   7.164   5.180 -1.4585  0.8573 -1.0782
25130SOL     OW77157   3.010   1.681   1.620 -0.2396  0.3198  0.4783
25130SOL    HW177158   2.962   1.728   1.688  0.9106  0.2370  1.3724
25130SOL    HW277159   2.950   1.613   1.590 -1.8983  2.2089 -0.7314
25131SOL     OW77160   6.302   8.358   7.629 -0.6124 -0.0850 -0.0377
25131SOL    HW177161   6.289   8.439   7.580  0.9321  1.4821  1.9391
25131SOL    HW277162   6.238   8.297   7.593 -1.7365  1.9598 -1.7135
25132SOL     OW77163   5.216   2.487   8.607 -0.1123 -0.0544  0.1532
25132SOL    HW177164   5.239   2.399   8.580 -1.4937 -0.4288  0.1438
25132SOL    HW277165   5.120   2.489   8.605 -0.1178  1.2751  0.6739
25133SOL     OW77166   9.785   0.341   8.542 -0.5230  0.5552  0.3955
25133SOL    HW177167   9.848   0.290   8.593 -2.2956 -1.3859  0.7907
25133SOL    HW277168   9.820   0.341   8.453  2.0172  2.9872  1.2512
25134SOL     OW77169   2.272   5.016   8.744  0.0418  0.3970 -0.0104
25134SOL    HW177170   2.255   5.105   8.715  0.2274  0.9895  1.6020
25134SOL    HW277171   2.323   5.026   8.825  3.6951 -1.1945 -1.8459
25135SOL     OW77172   5.241   2.273   5.336 -0.2794  0.5570  0.8435
25135SOL    HW177173   5.327   2.294   5.300 -1.3742  1.4732 -1.4211
25135SOL    HW277174   5.250   2.184   5.370  0.9562 -0.3506 -1.6066
25136SOL     OW77175   1.055   8.598   5.212 -0.2074 -0.0920  0.2174
25136SOL    HW177176   1.063   8.646   5.130 -1.2522 -0.4624 -0.1177
25136SOL    HW277177   1.054   8.506   5.186  1.1658 -0.3020  0.8054
25137SOL     OW77178   0.390   0.918   0.944 -0.5256 -0.2089  0.0909
25137SOL    HW177179   0.334   0.841   0.948  0.3057 -0.8029  0.6134
25137SOL    HW277180   0.462   0.892   0.887 -0.2140  0.1698  0.3099
25138SOL     OW77181   7.824   5.908   5.502  0.2096 -0.3719 -0.2423
25138SOL    HW177182   7.787   5.820   5.489  0.5422 -0.3278 -1.5792
25138SOL    HW277183   7.762   5.950   5.562 -1.2232 -0.7576 -1.3778
25139SOL     OW77184   6.121   8.544   8.055 -0.2496  0.2206 -0.5158
25139SOL    HW177185   6.175   8.483   8.006 -1.7890 -0.7110 -1.1079
25139SOL    HW277186   6.093   8.609   7.991 -0.9048 -0.0640 -0.5332
25140SOL     OW77187   7.523   0.212   6.091 -0.5875 -0.0684  0.4841
25140SOL    HW177188   7.519   0.241   6.000 -1.9777 -0.7238  0.3205
25140SOL    HW277189   7.554   0.122   6.087 -0.4118 -0.0190  0.6855
25141SOL     OW77190   0.197   3.532   1.636  0.4067  0.2938  0.2703
25141SOL    HW177191   0.238   3.570   1.714  1.2745  0.8880 -0.4535
25141SOL    HW277192   0.256   3.461   1.610  0.5116  0.5785 -0.2692
25142SOL     OW77193   8.378   9.565   6.810 -0.1571  0.5017  0.3025
25142SOL    HW177194   8.363   9.651   6.849  0.1367  0.3667  0.7242
25142SOL    HW277195   8.459   9.575   6.760 -0.5886  0.7027 -0.3610
25143SOL     OW77196   8.305   6.616   5.140 -0.0454 -0.4564  0.5177
25143SOL    HW177197   8.245   6.612   5.066  1.1020  3.5276 -0.8691
25143SOL    HW277198   8.253   6.649   5.213  0.2020  2.5426 -0.5555
25144SOL     OW77199   9.368   8.550   1.632  0.1559  0.0688  0.1411
25144SOL    HW177200   9.349   8.628   1.684  0.8423 -0.0233  0.5489
25144SOL    HW277201   9.345   8.477   1.690  0.5961 -0.0338  0.1885
25145SOL     OW77202   1.109   7.154   3.815  0.1932  0.1217  0.0986
25145SOL    HW177203   1.070   7.216   3.877  2.4763 -0.0500  1.7927
25145SOL    HW277204   1.152   7.209   3.750 -0.4667  0.2937 -0.2026
25146SOL     OW77205   4.062   9.323   2.815 -0.1706  0.3184 -0.3309
25146SOL    HW177206   4.136   9.382   2.798 -0.1789 -0.2978 -2.9079
25146SOL    HW277207   4.089   9.240   2.776 -2.6854  0.4398 -2.6223
25147SOL     OW77208   4.400   2.244   7.380 -0.3063 -0.3293 -0.0503
25147SOL    HW177209   4.374   2.160   7.343 -0.8032 -0.0857 -0.2668
25147SOL    HW277210   4.430   2.223   7.469  1.6286 -1.0217 -0.8153
25148SOL     OW77211   9.452   8.707   0.768 -0.0092 -0.5386  0.9977
25148SOL    HW177212   9.511   8.643   0.808  0.6239  0.4885  1.7275
25148SOL    HW277213   9.406   8.747   0.842 -0.7950 -0.5157  0.5097
25149SOL     OW77214   5.488   5.740   7.402 -0.2456 -0.0917  0.1178
25149SOL    HW177215   5.484   5.722   7.308 -0.2549  0.3270  0.0326
25149SOL    HW277216   5.581   5.751   7.421 -0.2209 -0.4618  0.2162
25150SOL     OW77217   7.855   8.655   7.438  0.0444  0.2338  0.5222
25150SOL    HW177218   7.841   8.580   7.496  0.8713 -1.2691 -1.1130
25150SOL    HW277219   7.789   8.646   7.370  0.3002  0.8625  0.1770
25151SOL     OW77220   9.476   1.482   2.164  0.2298  0.0540 -0.5644
25151SOL    HW177221   9.536   1.457   2.093  2.2923  0.1731  1.0546
25151SOL    HW277222   9.457   1.401   2.210  0.0680  0.2008 -0.3667
25152SOL     OW77223   8.287   1.677   3.963 -0.1814 -0.4895 -0.1009
25152SOL    HW177224   8.294   1.638   4.050 -0.5871  0.3168  0.3037
25152SOL    HW277225   8.362   1.736   3.957 -1.2531  1.0005  0.5275
25153SOL     OW77226   8.469   2.917   4.838  0.0519  0.4080  0.3714
25153SOL    HW177227   8.450   2.997   4.788 -0.1611  0.1161 -0.0180
25153SOL    HW277228   8.482   2.947   4.927  0.9999  1.0137  0.0437
25154SOL     OW77229   7.969   6.830   8.777 -0.4119 -0.4004  0.7834
25154SOL    HW177230   7.893   6.880   8.749  0.8006  0.6804 -0.7761
25154SOL    HW277231   7.932   6.750   8.815 -2.3112 -0.7163 -1.4785
25155SOL     OW77232   2.628   0.458   0.551 -0.0961  1.0739  0.6022
25155SOL    HW177233   2.718   0.468   0.579 -0.1409 -0.3682  1.3684
25155SOL    HW277234   2.578   0.446   0.632 -0.7518  0.4420  0.1283
25156SOL     OW77235   1.491   0.334   1.176  0.2517  0.1978  0.2741
25156SOL    HW177236   1.500   0.428   1.159  1.5062  0.1739  0.6781
25156SOL    HW277237   1.420   0.306   1.119 -1.3679  1.7314  1.4487
25157SOL     OW77238   5.908   8.942   1.676  0.2792  0.4366  0.4230
25157SOL    HW177239   6.000   8.926   1.653  0.4784  1.8064  0.1768
25157SOL    HW277240   5.913   9.002   1.751 -0.4170 -0.8267  1.5303
25158SOL     OW77241   1.531   3.603   7.112 -0.0600  0.1154 -0.0579
25158SOL    HW177242   1.452   3.552   7.130 -0.6768  0.5571 -1.4065
25158SOL    HW277243   1.603   3.541   7.127 -0.7007 -0.5838  0.1949
25159SOL     OW77244   1.112   7.559   4.426  0.0897 -0.5943 -0.1634
25159SOL    HW177245   1.028   7.518   4.447  1.6175 -3.7098  0.3666
25159SOL    HW277246   1.151   7.579   4.512  1.2621 -2.3190 -0.2416
25160SOL     OW77247   9.292   0.215   1.256 -0.2856 -0.1129  0.0741
25160SOL    HW177248   9.345   0.287   1.222  1.1949 -0.0373  2.3165
25160SOL    HW277249   9.355   0.144   1.270 -1.4506 -1.3335 -0.5873
25161SOL     OW77250   7.440   7.093   7.575  0.5339 -0.1807 -0.5361
25161SOL    HW177251   7.532   7.096   7.600  0.5565  3.7966 -0.3858
25161SOL    HW277252   7.440   7.088   7.480  1.0844  1.7099 -0.6861
25162SOL     OW77253   0.711   6.146   1.898  0.7472  0.1018 -0.4265
25162SOL    HW177254   0.695   6.076   1.835  0.3339 -0.1754 -0.0236
25162SOL    HW277255   0.732   6.101   1.980 -2.0960  0.3341  0.5452
25163SOL     OW77256   9.207   1.185   5.016  0.5792  0.2223 -0.3469
25163SOL    HW177257   9.130   1.229   4.979  1.1668  0.9126 -0.7731
25163SOL    HW277258   9.279   1.212   4.959  0.8282 -2.0059 -1.1594
25164SOL     OW77259   2.163   5.897   4.294  0.3488 -0.1965 -0.1098
25164SOL    HW177260   2.216   5.824   4.262 -0.8532 -0.8546 -0.6819
25164SOL    HW277261   2.097   5.856   4.350 -0.5629  0.3761 -0.7196
25165SOL     OW77262   4.602   3.373   1.462 -0.7926 -0.2722 -0.0889
25165SOL    HW177263   4.557   3.296   1.497 -0.9207 -0.5406 -0.8441
25165SOL    HW277264   4.538   3.444   1.469 -0.6000 -0.1738  0.8152
25166SOL     OW77265   0.463   6.928   2.584  0.1122  0.4983  0.1313
25166SOL    HW177266   0.398   6.998   2.582 -1.2582 -0.7166 -0.1506
25166SOL    HW277267   0.500   6.927   2.496  0.4965  1.1843  0.2852
25167SOL     OW77268   9.442   6.526   5.461 -0.1488  0.2680 -0.3427
25167SOL    HW177269   9.480   6.497   5.378 -2.0600 -0.6978 -0.9256
25167SOL    HW277270   9.411   6.615   5.444  2.0946  1.2321  0.2598
25168SOL     OW77271   0.052   2.495   3.831  0.1736 -0.0925  0.1560
25168SOL    HW177272   0.029   2.501   3.924 -1.7708 -0.0748 -0.2812
25168SOL    HW277273  -0.015   2.437   3.794 -0.0297  1.1362 -1.5030
25169SOL     OW77274   7.552   3.633   8.122 -0.3090 -0.1175 -0.2818
25169SOL    HW177275   7.620   3.642   8.189 -0.1595  0.2080 -0.4731
25169SOL    HW277276   7.601   3.613   8.041 -0.2548  2.1079 -0.8538
25170SOL     OW77277   9.406   6.365   1.621  0.1670  0.7908  0.8874
25170SOL    HW177278   9.354   6.427   1.570  0.6832  0.7377  0.2749
25170SOL    HW277279   9.494   6.371   1.583  0.1638 -0.5405  0.6060
25171SOL     OW77280   8.016   2.669   6.937  0.1412 -0.3782  0.2396
25171SOL    HW177281   7.941   2.611   6.951 -1.2764  1.7243  2.2610
25171SOL    HW277282   7.978   2.746   6.894  0.9454  1.0542  1.9920
25172SOL     OW77283   9.149   5.699   4.040  0.4196  0.3181 -0.0139
25172SOL    HW177284   9.180   5.615   4.074  0.6706  0.1984 -0.5182
25172SOL    HW277285   9.058   5.706   4.070  0.7316  0.3714  0.9352
25173SOL     OW77286   2.247   7.512   1.129 -0.1852  0.3802 -0.4008
25173SOL    HW177287   2.300   7.586   1.159 -0.9870  0.2611  1.4183
25173SOL    HW277288   2.310   7.451   1.091  1.0994  0.0680  2.0467
25174SOL     OW77289   9.170   9.384   1.584 -0.2650 -0.5538 -1.3716
25174SOL    HW177290   9.098   9.446   1.569  1.3141  1.1052 -2.5875
25174SOL    HW277291   9.213   9.417   1.662 -1.6919 -2.4986  0.3401
25175SOL     OW77292   2.757   0.998   5.085 -0.3283 -0.6254 -0.1943
25175SOL    HW177293   2.846   1.031   5.099 -0.7624 -0.6596  3.3008
25175SOL    HW277294   2.721   1.055   5.017  2.9578 -1.9844 -3.4532
25176SOL     OW77295   5.986   3.749   8.528 -0.4454  0.0532  0.6670
25176SOL    HW177296   6.035   3.716   8.603  0.8015  1.7996  0.6889
25176SOL    HW277297   6.022   3.836   8.513 -1.8429  0.4014 -0.9191
25177SOL     OW77298   9.181   3.431   4.722  0.4855 -0.3706 -0.0334
25177SOL    HW177299   9.130   3.374   4.665  2.3409 -1.1860 -0.9839
25177SOL    HW277300   9.150   3.412   4.810 -1.2199 -0.3852 -0.6112
25178SOL     OW77301   1.566   2.153   3.923  0.0120 -0.0675 -0.3709
25178SOL    HW177302   1.588   2.069   3.963 -0.0618  0.0910  0.0098
25178SOL    HW277303   1.639   2.210   3.946 -0.2022  0.1209 -0.1609
25179SOL     OW77304   0.123   2.771   6.030 -0.2175  0.2774  0.5852
25179SOL    HW177305   0.040   2.808   6.061 -0.2851  1.2225 -0.6340
25179SOL    HW277306   0.143   2.702   6.092 -0.8890  1.3541  2.0721
25180SOL     OW77307   2.383   8.972   0.364 -0.5266 -0.4552  0.8435
25180SOL    HW177308   2.330   8.995   0.288 -0.0653 -2.3117 -0.1042
25180SOL    HW277309   2.320   8.940   0.429 -0.8266  0.1034  0.8278
25181SOL     OW77310   4.630   2.735   2.730 -0.6433  0.1700 -0.6604
25181SOL    HW177311   4.549   2.691   2.706  0.0712 -0.7156 -1.5045
25181SOL    HW277312   4.698   2.669   2.718  0.4174  1.3745 -1.5797
25182SOL     OW77313   2.906   5.597   8.140  0.0223  0.1702 -0.1686
25182SOL    HW177314   2.987   5.580   8.188  0.6927  2.4898 -0.3202
25182SOL    HW277315   2.932   5.592   8.048 -0.5304 -1.1729 -0.2685
25183SOL     OW77316   2.419   2.001   4.121 -0.6834 -0.6297  0.4685
25183SOL    HW177317   2.499   1.959   4.151 -0.7158 -2.8878 -2.1875
25183SOL    HW277318   2.398   2.065   4.189  3.0171 -0.3371  1.5475
25184SOL     OW77319   3.704   4.393   6.710 -0.0915  0.4715  0.6499
25184SOL    HW177320   3.676   4.302   6.725 -2.6842  1.2736  1.1362
25184SOL    HW277321   3.630   4.446   6.740  1.7752  2.8129  1.3698
25185SOL     OW77322   4.623   6.017   8.805 -0.5396 -0.1090 -0.4392
25185SOL    HW177323   4.618   5.958   8.880  1.5497  1.2482  0.8763
25185SOL    HW277324   4.566   6.089   8.827  0.1546  0.3405 -0.0707
25186SOL     OW77325   7.645   9.054   7.005 -0.3661 -0.3704 -0.3510
25186SOL    HW177326   7.671   8.973   6.961 -1.6717 -0.2486 -1.3914
25186SOL    HW277327   7.560   9.076   6.967  0.2333  1.8290 -0.5504
25187SOL     OW77328   7.217   3.433   6.820 -0.2533 -0.0448  0.2700
25187SOL    HW177329   7.306   3.404   6.839 -0.1414  1.2082  1.8417
25187SOL    HW277330   7.161   3.369   6.863 -0.1324 -0.6456 -0.4381
25188SOL     OW77331   4.428   3.963   6.743  0.9253  0.0350  0.2099
25188SOL    HW177332   4.412   4.057   6.750 -0.7976 -0.2337  0.5237
25188SOL    HW277333   4.475   3.951   6.661 -0.7947  0.9928 -0.9823
25189SOL     OW77334   4.997   9.227   1.803  0.2629 -0.5631  0.1879
25189SOL    HW177335   4.908   9.200   1.779  0.1063 -0.5569  0.7285
25189SOL    HW277336   4.984   9.284   1.880  0.6049  0.7373 -0.6741
25190SOL     OW77337   3.103   8.162   3.636  1.1805  0.3928 -0.0781
25190SOL    HW177338   3.149   8.161   3.720 -0.1436  2.3073  0.7393
25190SOL    HW277339   3.115   8.251   3.603  0.8113 -0.0308 -1.4291
25191SOL     OW77340   9.250   1.919   7.263  0.1977 -0.1422  0.7821
25191SOL    HW177341   9.339   1.901   7.294 -0.2769  1.1466  3.1702
25191SOL    HW277342   9.195   1.903   7.340 -1.2941  1.7990  0.1981
25192SOL     OW77343   6.064   1.362   7.733  0.1446  0.1401 -0.5921
25192SOL    HW177344   6.153   1.380   7.704  0.9247 -2.3456 -0.0206
25192SOL    HW277345   6.068   1.368   7.829  0.3866 -2.3814 -0.3835
25193SOL     OW77346   5.756   4.179   4.321  0.3475  0.0611  0.2758
25193SOL    HW177347   5.730   4.247   4.258  0.5260 -0.0218  0.1138
25193SOL    HW277348   5.845   4.156   4.296  0.6657  0.5125  0.9773
25194SOL     OW77349   1.146   8.270   7.641  0.4888 -0.1602  0.1733
25194SOL    HW177350   1.211   8.200   7.631  0.7626  0.1477 -0.2368
25194SOL    HW277351   1.139   8.283   7.735 -0.4842 -1.5929  0.3312
25195SOL     OW77352   0.267   6.175   0.405 -0.4674  0.3623 -0.2204
25195SOL    HW177353   0.341   6.154   0.463 -1.5966 -0.8377  0.8627
25195SOL    HW277354   0.281   6.121   0.328 -0.7089 -0.6326  0.4113
25196SOL     OW77355   6.300   0.695   1.160 -0.0373  0.0582  0.2061
25196SOL    HW177356   6.207   0.700   1.183  0.0929  1.3022  0.5439
25196SOL    HW277357   6.330   0.613   1.198 -0.9259 -0.1960  0.3788
25197SOL     OW77358   4.163   9.674   9.029  0.0816  0.2355 -0.2354
25197SOL    HW177359   4.228   9.741   9.008  0.1529  0.3704  0.4076
25197SOL    HW277360   4.185   9.600   8.972  1.4536 -0.1257  0.7279
25198SOL     OW77361   5.856   1.834   9.398 -0.4904 -0.1326 -0.3239
25198SOL    HW177362   5.856   1.765   9.464  2.1581 -1.3771 -1.4996
25198SOL    HW277363   5.835   1.789   9.316  0.8212  0.5111 -1.0388
25199SOL     OW77364   3.128   3.641   1.716  0.4579  0.9799 -0.1553
25199SOL    HW177365   3.145   3.565   1.772 -0.3714 -0.5668 -1.8859
25199SOL    HW277366   3.195   3.636   1.648  0.5567  1.9725 -0.1479
25200SOL     OW77367   7.448   9.625   5.536 -0.1490  0.0472  0.0658
25200SOL    HW177368   7.380   9.627   5.603  0.7734  0.2453  1.0195
25200SOL    HW277369   7.425   9.550   5.481  0.1376 -1.3326  1.7467
25201SOL     OW77370   5.069   4.046   9.780 -0.0530 -0.0405 -0.4628
25201SOL    HW177371   5.136   3.998   9.730 -0.5984 -1.2801 -0.0207
25201SOL    HW277372   5.082   4.137   9.753 -0.3278 -0.6350 -2.8986
25202SOL     OW77373   7.176   9.222   2.825 -0.6525  0.7761  0.2096
25202SOL    HW177374   7.131   9.151   2.872  0.2541 -0.5813 -0.8831
25202SOL    HW277375   7.129   9.228   2.742 -0.1580  0.8319 -0.0656
25203SOL     OW77376   4.593   0.445   1.950  0.1014 -0.2300  0.1088
25203SOL    HW177377   4.606   0.408   1.863  2.7961  2.7816 -0.9853
25203SOL    HW277378   4.526   0.513   1.938  1.7163  1.3868 -0.1083
25204SOL     OW77379   3.639   9.312   0.453 -0.1825 -0.3458 -0.1474
25204SOL    HW177380   3.609   9.272   0.371 -2.7978 -0.9414  1.0058
25204SOL    HW277381   3.563   9.359   0.486  0.9070  0.1781  1.7785
25205SOL     OW77382   1.174   2.619   0.689 -0.5018  0.0739 -0.0673
25205SOL    HW177383   1.139   2.572   0.613  0.3876  0.2162 -0.5697
25205SOL    HW277384   1.112   2.598   0.759  0.1677 -2.3886 -0.1049
25206SOL     OW77385   9.752   4.022   8.134  0.3176  0.3026 -0.3413
25206SOL    HW177386   9.711   4.104   8.107  0.5053  0.0000 -1.6154
25206SOL    HW277387   9.689   3.984   8.195  0.5119  1.6661  0.7464
25207SOL     OW77388   5.699   5.489   3.759  0.3243 -0.1232  0.0997
25207SOL    HW177389   5.768   5.434   3.795  0.1490 -0.8182 -0.6089
25207SOL    HW277390   5.745   5.565   3.724  0.6191 -0.0653  0.6022
25208SOL     OW77391   8.859   3.552   0.460 -0.2212 -0.0060 -0.6906
25208SOL    HW177392   8.807   3.630   0.442  0.6916  0.5275 -1.0642
25208SOL    HW277393   8.924   3.581   0.524 -1.7246 -1.2155  1.5532
25209SOL     OW77394   7.545   5.713   2.926  0.3319 -0.5802 -0.1124
25209SOL    HW177395   7.463   5.694   2.880  0.1314  0.2945 -0.1268
25209SOL    HW277396   7.520   5.773   2.996  0.7284 -1.4396  0.8094
25210SOL     OW77397   1.595   3.402   1.057 -0.7565  0.5620  0.0502
25210SOL    HW177398   1.628   3.491   1.044 -0.2657  0.2179 -1.1798
25210SOL    HW277399   1.606   3.386   1.151 -2.4117  2.3857  0.6304
25211SOL     OW77400   5.983   1.400   6.609  0.5285 -0.3970  0.1543
25211SOL    HW177401   5.942   1.481   6.639 -0.0306 -0.3807 -0.6178
25211SOL    HW277402   5.932   1.330   6.651 -0.2995 -0.3760 -0.7841
25212SOL     OW77403   8.050   4.301   1.756  0.1060  0.7295  0.2243
25212SOL    HW177404   8.017   4.238   1.820 -0.4169 -2.8601 -3.2095
25212SOL    HW277405   8.145   4.284   1.752 -0.1928 -0.9060 -1.5430
25213SOL     OW77406   3.518   4.862   4.613  0.1708  0.0007 -0.1362
25213SOL    HW177407   3.445   4.921   4.593 -0.4049 -0.1881  1.2823
25213SOL    HW277408   3.557   4.898   4.693  0.3323 -1.0600  0.2846
25214SOL     OW77409   5.079   2.018   0.413 -0.6363 -0.1659 -0.2475
25214SOL    HW177410   5.098   2.025   0.319 -1.6276 -1.8910 -0.6189
25214SOL    HW277411   5.160   1.984   0.451 -0.7475 -1.0084 -0.7432
25215SOL     OW77412   3.972   5.783   0.391  0.4028 -0.1012 -0.5688
25215SOL    HW177413   3.921   5.862   0.410  0.2750  0.2809 -2.3192
25215SOL    HW277414   3.907   5.713   0.390  0.1959  0.0903 -0.9305
25216SOL     OW77415   2.857   9.125   3.037 -0.4078 -1.1089  0.1385
25216SOL    HW177416   2.871   9.153   3.128  1.3571 -3.5301  0.6960
25216SOL    HW277417   2.812   9.199   2.996  0.6251  0.9199  2.4287
25217SOL     OW77418   3.852   0.250   9.219 -0.7518  0.8644 -0.5362
25217SOL    HW177419   3.821   0.341   9.216  0.0965  1.1643 -0.3354
25217SOL    HW277420   3.894   0.236   9.134 -1.2944  0.5067 -0.7488
25218SOL     OW77421   9.425   8.028   2.981 -0.3112  0.1652  0.2693
25218SOL    HW177422   9.330   8.023   2.992 -0.1386 -1.7465  1.2165
25218SOL    HW277423   9.452   8.096   3.044 -1.1504  1.8867 -1.1246
25219SOL     OW77424   7.862   5.670   0.953  0.5198  0.5792 -0.2226
25219SOL    HW177425   7.830   5.756   0.926 -0.3014  0.6826  1.0301
25219SOL    HW277426   7.866   5.620   0.871  0.9041  1.7602 -0.9476
25220SOL     OW77427   4.491   8.651   3.323 -0.0106 -0.0815 -0.1961
25220SOL    HW177428   4.451   8.738   3.319  1.2225  0.5488  0.3125
25220SOL    HW277429   4.428   8.593   3.281 -1.3031  0.8967  0.3167
25221SOL     OW77430   0.000   1.797   9.380 -0.2244  0.2547 -0.4379
25221SOL    HW177431   0.071   1.762   9.326  0.2136 -1.3690  1.0744
25221SOL    HW277432   0.011   1.892   9.375  2.3374  0.0727  0.0534
25222SOL     OW77433   1.158   2.010   3.318  0.0580 -0.9073  0.4436
25222SOL    HW177434   1.125   2.099   3.311  1.1764 -0.5092  0.0577
25222SOL    HW277435   1.234   2.007   3.259  1.5396 -1.3858  2.2552
25223SOL     OW77436   1.007   7.274   1.671  0.6368  0.2659 -0.1866
25223SOL    HW177437   1.070   7.335   1.632  0.9118 -0.0212 -0.2029
25223SOL    HW277438   0.938   7.266   1.606  1.1895 -0.3622 -0.7167
25224SOL     OW77439   6.674   3.305   4.681  0.3442  0.6491  0.3940
25224SOL    HW177440   6.685   3.286   4.588  0.7563  0.3106  0.5103
25224SOL    HW277441   6.743   3.369   4.701  0.1262  0.8783  0.4220
25225SOL     OW77442   4.014   0.721   0.440  0.4602 -0.0943 -0.0377
25225SOL    HW177443   3.974   0.689   0.520  0.7335  0.2222  0.2331
25225SOL    HW277444   4.098   0.676   0.435  2.1174  2.5138  1.8200
25226SOL     OW77445   1.288   2.880   8.536  0.3465 -0.2020 -0.7392
25226SOL    HW177446   1.364   2.911   8.486  0.7316 -0.3434 -0.2486
25226SOL    HW277447   1.272   2.792   8.504  0.9095 -0.4841 -0.2663
25227SOL     OW77448   4.033   3.793   5.024  0.2389 -0.6301 -0.3384
25227SOL    HW177449   3.963   3.731   5.047  0.9088 -1.4164 -0.3984
25227SOL    HW277450   4.114   3.745   5.039  0.8583  0.8809  1.5580
25228SOL     OW77451   9.825   0.549   1.035  0.4428  0.0259  0.5338
25228SOL    HW177452   9.903   0.592   1.000  1.0577 -2.1315 -0.9864
25228SOL    HW277453   9.859   0.473   1.083 -0.6552 -2.1123 -1.8133
25229SOL     OW77454   8.663   8.222   7.978  0.9708  0.3684 -0.2245
25229SOL    HW177455   8.730   8.291   7.978  1.4838 -0.1011 -1.4553
25229SOL    HW277456   8.707   8.145   8.013  0.7878  0.3081 -0.1265
25230SOL     OW77457   1.837   4.855   1.516  0.2369 -0.4111 -0.5977
25230SOL    HW177458   1.828   4.854   1.420 -0.0679 -0.3708 -0.5691
25230SOL    HW277459   1.846   4.948   1.538  1.2500 -0.4833 -0.6738
25231SOL     OW77460   5.291   4.263   6.546  0.4622  0.3191  0.0656
25231SOL    HW177461   5.381   4.231   6.553 -0.1827 -1.9368 -1.2569
25231SOL    HW277462   5.240   4.202   6.599 -0.5844  0.2108 -1.0433
25232SOL     OW77463   3.540   3.747   8.906  0.2820 -0.3408 -0.5103
25232SOL    HW177464   3.509   3.810   8.971  1.3274  0.8999 -1.1652
25232SOL    HW277465   3.580   3.677   8.959  0.6239  0.3786  0.2165
25233SOL     OW77466   9.013   3.313   4.898 -0.3983  0.1401  0.3429
25233SOL    HW177467   8.925   3.290   4.929 -1.0040  1.2471 -0.4973
25233SOL    HW277468   9.049   3.367   4.969 -0.8131  0.5792  0.2241
25234SOL     OW77469   8.774   6.572   8.082 -0.2707  0.3800 -1.2822
25234SOL    HW177470   8.785   6.558   8.176 -0.0245 -0.2697 -1.4002
25234SOL    HW277471   8.680   6.564   8.067 -0.3060  0.4435 -1.0981
25235SOL     OW77472   4.272   1.533   7.660 -0.2296  0.2510 -0.0565
25235SOL    HW177473   4.248   1.460   7.603  0.3267  1.3883 -1.8168
25235SOL    HW277474   4.202   1.536   7.726 -0.8841 -1.1065 -0.6483
25236SOL     OW77475   9.029   7.306   0.599  0.4574  0.2645 -0.2139
25236SOL    HW177476   9.046   7.279   0.509 -0.0109 -0.4819 -0.0884
25236SOL    HW277477   8.944   7.269   0.620  2.4058 -3.5864  2.0061
25237SOL     OW77478   1.878   5.058   2.912 -0.0002 -0.3581 -0.4028
25237SOL    HW177479   1.831   4.975   2.904 -0.6349  0.1632 -2.9994
25237SOL    HW277480   1.810   5.122   2.933  0.3640 -0.3140  0.7450
25238SOL     OW77481   0.068   6.856   4.909  0.1892 -0.4812  0.6778
25238SOL    HW177482   0.023   6.810   4.980 -0.7478 -0.2920  0.2218
25238SOL    HW277483   0.057   6.800   4.832  1.1620 -0.6651  0.6513
25239SOL     OW77484   2.962   1.549   4.493  0.3680 -0.2497 -0.2983
25239SOL    HW177485   3.046   1.505   4.506  1.0985  1.2803  0.5050
25239SOL    HW277486   2.908   1.520   4.566 -0.9120 -3.5107 -2.3476
25240SOL     OW77487   3.779   0.494   2.286 -0.5060 -0.0971  0.5557
25240SOL    HW177488   3.873   0.512   2.282 -0.8597  1.8103 -1.5744
25240SOL    HW277489   3.755   0.510   2.377  0.8608  1.8295  0.6373
25241SOL     OW77490   7.039   6.920   5.956 -0.1109  0.2482  0.1750
25241SOL    HW177491   7.003   6.853   6.015  1.8791 -1.1260 -0.0521
25241SOL    HW277492   7.128   6.935   5.990  0.4085  0.8067 -1.3742
25242SOL     OW77493   2.477   5.364   8.438  0.4331 -0.6997 -0.4369
25242SOL    HW177494   2.414   5.400   8.375  0.6339  1.9115  0.7261
25242SOL    HW277495   2.554   5.341   8.385  0.9541  2.3109 -1.1788
25243SOL     OW77496   5.503   3.112   3.382  0.4147 -0.2381 -0.4797
25243SOL    HW177497   5.428   3.053   3.375  0.2669  0.0479 -1.6524
25243SOL    HW277498   5.495   3.151   3.469  0.4201 -1.8018  0.2480
25244SOL     OW77499   4.715   9.626   5.892 -0.6926 -0.4216 -0.3031
25244SOL    HW177500   4.757   9.595   5.972 -1.5506  0.0061  0.3284
25244SOL    HW277501   4.739   9.562   5.825  2.3686  0.6704 -0.4007
25245SOL     OW77502   7.815   7.762   2.568 -0.4576 -0.6831  0.1878
25245SOL    HW177503   7.782   7.837   2.518  0.2761  1.8646  3.1236
25245SOL    HW277504   7.761   7.689   2.541 -3.0718  1.4966 -0.9963
25246SOL     OW77505   2.690   5.533   4.360 -0.4539  0.7116 -0.4132
25246SOL    HW177506   2.740   5.459   4.396 -0.4895  0.1650 -1.4376
25246SOL    HW277507   2.754   5.602   4.348 -0.7358  1.5619  2.3056
25247SOL     OW77508   6.795   7.348   4.047 -0.0717  0.3132  0.0287
25247SOL    HW177509   6.777   7.295   3.969 -1.7617  0.2901  0.3949
25247SOL    HW277510   6.709   7.360   4.088  0.8714 -0.5502  2.4567
25248SOL     OW77511   7.081   8.763   8.126  0.4087 -0.0058  0.1474
25248SOL    HW177512   7.009   8.823   8.103 -0.5900 -0.3588  2.1503
25248SOL    HW277513   7.037   8.680   8.146  1.0767  0.3036  3.3759
25249SOL     OW77514   1.228   8.767   6.319 -0.0421  0.3218  0.1540
25249SOL    HW177515   1.245   8.689   6.373  0.3133  0.1753 -0.1645
25249SOL    HW277516   1.160   8.739   6.258 -1.6192  0.9573  1.5393
25250SOL     OW77517   0.497   4.252   8.663  0.3901  0.0135  0.2283
25250SOL    HW177518   0.458   4.165   8.654  0.2221  0.2026 -1.1401
25250SOL    HW277519   0.578   4.237   8.710  0.3832 -0.9021 -0.0257
25251SOL     OW77520   9.301   5.336   8.562 -0.0446 -0.0744  0.7960
25251SOL    HW177521   9.365   5.281   8.518  1.0797  1.6913  0.0812
25251SOL    HW277522   9.342   5.359   8.645  1.2344  2.6106 -0.4517
25252SOL     OW77523   2.777   9.215   1.545  0.6037  0.7798  0.4260
25252SOL    HW177524   2.764   9.249   1.457 -2.4550  2.6608  1.4571
25252SOL    HW277525   2.711   9.147   1.555 -0.8938  2.3532  2.0065
25253SOL     OW77526   6.194   1.488   7.059 -0.0086  0.0747 -0.1041
25253SOL    HW177527   6.190   1.427   6.985  1.0193  0.3749 -0.4253
25253SOL    HW277528   6.120   1.547   7.047 -0.6517 -0.7227 -0.1299
25254SOL     OW77529   2.968   8.983   3.827  0.4435  0.2575 -0.9685
25254SOL    HW177530   2.988   8.895   3.857  0.8082  0.9131  0.7887
25254SOL    HW277531   3.050   9.031   3.836 -0.3324  1.3871  0.3992
25255SOL     OW77532   9.635   2.164   9.233 -0.0505  0.5836 -0.1960
25255SOL    HW177533   9.659   2.077   9.198  0.0865  1.0468 -1.2954
25255SOL    HW277534   9.596   2.145   9.318 -0.1820 -0.5782 -0.4902
25256SOL     OW77535   9.151   5.477   5.188 -0.5162  0.0295  0.2650
25256SOL    HW177536   9.208   5.552   5.173  0.8915 -1.1583 -0.6557
25256SOL    HW277537   9.077   5.490   5.128  0.5096 -0.0819 -1.0599
25257SOL     OW77538   9.440   6.952   5.442 -0.1299  0.2427 -0.2044
25257SOL    HW177539   9.525   6.951   5.399  0.1758 -1.8081  0.3213
25257SOL    HW277540   9.421   7.045   5.455  1.5545  0.7821 -1.2167
25258SOL     OW77541   4.826   8.448   0.437  0.0529  0.6324 -0.1193
25258SOL    HW177542   4.809   8.468   0.529 -2.0970 -2.9469  0.4468
25258SOL    HW277543   4.916   8.416   0.436 -1.0593 -3.1262  1.7127
25259SOL     OW77544   2.183   6.171   2.311 -0.0276  0.0470  0.0657
25259SOL    HW177545   2.253   6.143   2.252 -0.1006  1.1623 -0.5856
25259SOL    HW277546   2.158   6.258   2.279 -1.5383 -0.2202  0.4384
25260SOL     OW77547   6.415   8.402   2.371  0.4010 -0.2055 -0.7234
25260SOL    HW177548   6.489   8.434   2.423 -1.0271  2.6236 -0.2517
25260SOL    HW277549   6.375   8.334   2.425 -0.0845  1.5333  1.2205
25261SOL     OW77550   8.016   2.245   2.106 -0.2586 -0.0251  0.0162
25261SOL    HW177551   7.922   2.255   2.122 -0.5178 -1.0923 -0.7024
25261SOL    HW277552   8.049   2.335   2.101 -1.3177  0.3792 -0.1471
25262SOL     OW77553   1.120   2.075   1.589  0.3299 -0.2186 -0.3139
25262SOL    HW177554   1.073   2.041   1.665  1.2542 -2.0680 -0.5287
25262SOL    HW277555   1.211   2.052   1.604  0.6639  0.2165 -1.5378
25263SOL     OW77556   8.369   1.980   5.108 -0.8511 -0.7120  0.4291
25263SOL    HW177557   8.331   1.941   5.187  1.1455 -2.6040  0.5897
25263SOL    HW277558   8.410   1.906   5.063  0.8309  0.8249 -0.7163
25264SOL     OW77559   2.663   7.831   8.425  0.0216  0.0649  0.2016
25264SOL    HW177560   2.629   7.910   8.383  1.7019 -0.5190 -2.4430
25264SOL    HW277561   2.749   7.818   8.386  0.6308 -1.9793  2.0591
25265SOL     OW77562   7.559   4.867   6.129 -0.7095  0.3412  0.5380
25265SOL    HW177563   7.534   4.871   6.037 -2.7390 -1.2098  0.9295
25265SOL    HW277564   7.648   4.832   6.129 -0.8408 -0.0420 -0.8387
25266SOL     OW77565   6.365   8.706   6.395 -0.2483  0.5465  0.5048
25266SOL    HW177566   6.306   8.721   6.469  0.8947  1.9225  1.1871
25266SOL    HW277567   6.408   8.623   6.415 -0.3693  0.6234  1.1016
25267SOL     OW77568   0.513   4.120   2.488  0.4138 -0.2273  0.1402
25267SOL    HW177569   0.553   4.132   2.402  0.1798 -1.1576 -0.1173
25267SOL    HW277570   0.535   4.199   2.537 -1.2498  1.3415 -1.4761
25268SOL     OW77571   0.049   1.551   9.725 -0.0542 -0.2377 -0.1780
25268SOL    HW177572   0.133   1.536   9.769 -0.4449  0.0942  0.6872
25268SOL    HW277573  -0.005   1.477   9.752  0.1036 -0.7153 -1.1289
25269SOL     OW77574   4.877   6.838   4.256 -0.4379  0.0765 -0.3309
25269SOL    HW177575   4.947   6.895   4.224 -2.3930  2.3377 -0.8825
25269SOL    HW277576   4.838   6.802   4.176  0.2545 -1.4480 -0.0150
25270SOL     OW77577   8.330   0.957   4.769  0.0669 -0.0906  0.7500
25270SOL    HW177578   8.286   0.880   4.806  0.6172 -0.3913  0.8009
25270SOL    HW277579   8.368   1.001   4.845  0.1731 -0.0468  0.6711
25271SOL     OW77580   0.940   2.393   7.500  0.6747 -0.5184  0.3846
25271SOL    HW177581   0.964   2.324   7.563 -1.0989 -0.0584  1.6619
25271SOL    HW277582   0.849   2.374   7.479  0.8016  0.2310 -0.9101
25272SOL     OW77583   2.703   2.781   2.879 -0.1630 -0.2949  0.3100
25272SOL    HW177584   2.641   2.721   2.839  0.7835 -1.2930  0.2871
25272SOL    HW277585   2.654   2.822   2.951 -1.5492  0.7224 -1.1385
25273SOL     OW77586   6.732   2.347   6.386  0.0935  0.3311  0.1908
25273SOL    HW177587   6.753   2.283   6.455  1.7463 -0.3090 -0.8392
25273SOL    HW277588   6.674   2.300   6.327  1.8473 -0.5363 -0.9315
25274SOL     OW77589   6.408   8.137   1.832  0.5841 -0.1260  0.4331
25274SOL    HW177590   6.351   8.147   1.755  0.2754  0.2536  0.7088
25274SOL    HW277591   6.486   8.188   1.811  0.6015 -0.2170  0.2732
25275SOL     OW77592   0.460   7.127   5.217  0.2817  0.0236  0.0400
25275SOL    HW177593   0.374   7.091   5.195 -0.3125  1.1843  0.3585
25275SOL    HW277594   0.481   7.087   5.302 -1.5605  2.2136  1.6913
25276SOL     OW77595   6.711   9.818   0.214  0.0698 -0.0122 -0.1866
25276SOL    HW177596   6.621   9.837   0.187 -0.7998 -1.7467  1.3051
25276SOL    HW277597   6.763   9.889   0.176 -2.0494  1.5791 -0.2795
25277SOL     OW77598   4.357   1.260   8.811 -0.1529  0.0636  0.1203
25277SOL    HW177599   4.374   1.168   8.789 -0.1294  0.5198 -1.9468
25277SOL    HW277600   4.285   1.286   8.754 -1.0012  1.0102  1.5670
25278SOL     OW77601   4.529   7.827   2.731 -0.3110 -0.1978 -0.1571
25278SOL    HW177602   4.504   7.867   2.814  0.1295  0.1194 -0.1722
25278SOL    HW277603   4.461   7.762   2.714 -2.2139  1.9011 -1.1204
25279SOL     OW77604   7.852   8.675   0.648 -0.9226  0.7643  0.3383
25279SOL    HW177605   7.852   8.753   0.703 -3.0316  0.4831  0.8200
25279SOL    HW277606   7.871   8.603   0.709  0.5960  0.8186 -0.0309
25280SOL     OW77607   5.975   4.399   4.322  0.1668  0.4092  0.4972
25280SOL    HW177608   5.890   4.410   4.364 -0.3855 -1.1446 -0.1579
25280SOL    HW277609   6.020   4.482   4.338 -1.2178  1.0254  1.3978
25281SOL     OW77610   9.092   7.893   1.088  0.2142  0.3997  0.0360
25281SOL    HW177611   9.132   7.919   1.005 -1.4066  1.3709 -0.4890
25281SOL    HW277612   9.103   7.798   1.092 -1.8124 -0.0477 -2.5322
25282SOL     OW77613   1.673   7.601   1.634  0.7599  0.3601 -0.1415
25282SOL    HW177614   1.599   7.646   1.675 -0.2688 -0.8610 -0.6412
25282SOL    HW277615   1.657   7.508   1.649  3.0512  0.0817  1.2076
25283SOL     OW77616   0.808   7.401   7.654  0.0585  0.5041 -0.6870
25283SOL    HW177617   0.849   7.374   7.572  1.5373  3.2687 -0.9682
25283SOL    HW277618   0.853   7.481   7.679  1.7357 -1.5928  4.4007
25284SOL     OW77619   2.254   3.335   2.919  0.5703 -0.3590 -0.9895
25284SOL    HW177620   2.291   3.421   2.939  2.6712 -1.6218  1.0605
25284SOL    HW277621   2.305   3.304   2.844  1.5689 -0.8302 -0.1261
25285SOL     OW77622   9.179   1.978   6.573  0.0102  0.1943 -0.3057
25285SOL    HW177623   9.219   1.940   6.495  0.4410  0.6443 -0.3093
25285SOL    HW277624   9.252   1.991   6.634 -0.5312 -1.5941  0.7836
25286SOL     OW77625   2.101   2.983   4.085 -0.4214 -0.0386 -0.1113
25286SOL    HW177626   2.099   3.004   4.178 -0.9626  0.9551 -0.3342
25286SOL    HW277627   2.010   2.967   4.061 -0.4885  1.2559 -0.7931
25287SOL     OW77628   7.135   1.009   0.078 -0.3571 -0.4945 -0.3787
25287SOL    HW177629   7.157   0.940   0.141 -1.4653 -1.2073 -0.7564
25287SOL    HW277630   7.218   1.057   0.066  0.4355 -1.7594 -0.1307
25288SOL     OW77631   2.973   9.285   9.744  0.0581  0.2326 -0.5683
25288SOL    HW177632   3.018   9.295   9.827 -0.1896  0.2400 -0.4335
25288SOL    HW277633   3.016   9.347   9.685 -0.8379  1.4454 -0.0002
25289SOL     OW77634   4.585   3.488   3.857 -0.4780  0.0368  0.5667
25289SOL    HW177635   4.503   3.512   3.814  0.6329  0.8781 -1.1838
25289SOL    HW277636   4.622   3.419   3.803  0.2275  0.0192  1.0523
25290SOL     OW77637   2.800   8.467   7.605  0.2317 -0.3975 -0.0879
25290SOL    HW177638   2.890   8.471   7.571  0.8905 -0.2957  1.5693
25290SOL    HW277639   2.810   8.429   7.693 -1.2545  0.3530  0.4240
25291SOL     OW77640   6.022   8.347   6.914 -0.0085  0.5265  0.7381
25291SOL    HW177641   6.025   8.411   6.986  0.9997 -0.9888  2.1136
25291SOL    HW277642   5.930   8.319   6.911 -0.1472  0.9225  1.1526
25292SOL     OW77643   0.578   2.198   0.517 -0.2916 -0.1699  0.0352
25292SOL    HW177644   0.664   2.219   0.481 -0.4286 -2.0389 -1.5507
25292SOL    HW277645   0.550   2.279   0.560  0.6316  1.7581 -2.6840
25293SOL     OW77646   6.911   6.135   1.415 -0.0681 -0.1060  0.2746
25293SOL    HW177647   6.935   6.224   1.392 -0.7208 -0.1199 -0.5081
25293SOL    HW277648   6.816   6.133   1.410  0.0174 -1.4461 -2.1554
25294SOL     OW77649   6.601   3.333   8.198 -1.0641  0.0945 -0.4223
25294SOL    HW177650   6.650   3.345   8.280  0.2307 -1.0065 -1.0031
25294SOL    HW277651   6.566   3.420   8.179 -1.2824  0.4103  1.2140
25295SOL     OW77652   7.865   5.317   7.058 -0.3586 -0.4915  0.4807
25295SOL    HW177653   7.799   5.296   6.991 -0.7478 -0.5298  0.8723
25295SOL    HW277654   7.938   5.259   7.038  0.1382  0.5042 -0.8113
25296SOL     OW77655   0.311   4.103   1.888  0.1099 -0.5240  0.3686
25296SOL    HW177656   0.307   4.079   1.981  0.5423  2.8819  1.4028
25296SOL    HW277657   0.370   4.178   1.885 -0.9981  0.3701 -2.4659
25297SOL     OW77658   0.465   4.873   9.838  0.4163  0.2322  0.0748
25297SOL    HW177659   0.412   4.863   9.917  0.3857  1.1868  0.1914
25297SOL    HW277660   0.494   4.965   9.840  3.9473 -0.7668  1.1739
25298SOL     OW77661   1.000   0.810   3.203 -0.5692  0.3192  0.0356
25298SOL    HW177662   1.017   0.868   3.277 -0.8038  0.9632 -0.4052
25298SOL    HW277663   1.063   0.738   3.214  0.7275  1.3794 -0.2003
25299SOL     OW77664   4.093   4.177   6.100 -0.3689 -0.6724 -0.4579
25299SOL    HW177665   4.073   4.130   6.019  0.4616  0.4806 -1.3656
25299SOL    HW277666   4.010   4.216   6.127 -0.4707 -0.3535 -1.2260
25300SOL     OW77667   1.596   8.427   2.681 -0.2073 -0.1969 -0.1062
25300SOL    HW177668   1.616   8.520   2.674 -0.4592 -0.0976  0.4327
25300SOL    HW277669   1.507   8.424   2.716 -0.2106 -0.6382 -0.1450
25301SOL     OW77670   8.536   0.997   8.560  0.4410  0.0647  0.3942
25301SOL    HW177671   8.458   1.045   8.532 -0.0997 -0.7788  0.4160
25301SOL    HW277672   8.533   1.000   8.656  0.4998  0.1415  0.3933
25302SOL     OW77673   2.148   3.359   8.486  0.5067  0.0152  0.0563
25302SOL    HW177674   2.209   3.323   8.551 -0.5947 -1.0308  0.5372
25302SOL    HW277675   2.190   3.340   8.402  1.3684  0.3158  0.3987
25303SOL     OW77676   3.927   5.661   6.319  0.6787  0.1671  0.0736
25303SOL    HW177677   3.865   5.607   6.369  2.5499 -1.8893  0.2802
25303SOL    HW277678   3.882   5.677   6.236 -0.9559  0.5117  0.9627
25304SOL     OW77679   0.988   7.619   1.828 -0.3010 -0.2531 -0.3629
25304SOL    HW177680   1.079   7.648   1.816  0.1198 -0.8758  1.0800
25304SOL    HW277681   0.964   7.654   1.914 -0.8832 -1.4152 -0.0362
25305SOL     OW77682   3.423   8.975   5.095 -0.4267 -0.0473  0.3303
25305SOL    HW177683   3.390   9.065   5.103 -0.4798  0.1375 -1.5609
25305SOL    HW277684   3.406   8.952   5.004  1.5475 -1.2059  0.2200
25306SOL     OW77685   0.359   0.188   4.282 -0.8781 -0.1065  0.1277
25306SOL    HW177686   0.302   0.212   4.354 -1.6766  0.3027 -0.6177
25306SOL    HW277687   0.447   0.209   4.313 -0.9625 -1.9284  1.7771
25307SOL     OW77688   5.152   6.924   6.083  0.3924  0.0250 -0.3158
25307SOL    HW177689   5.076   6.978   6.060 -1.1141 -0.8602  2.2444
25307SOL    HW277690   5.225   6.985   6.083 -0.5849  1.2582 -1.1808
25308SOL     OW77691   5.103   4.088   8.256  0.6536 -0.2890  0.8231
25308SOL    HW177692   5.087   4.178   8.284  0.4283  0.0199 -0.2497
25308SOL    HW277693   5.052   4.034   8.315 -2.1129  0.4962 -0.6894
25309SOL     OW77694   5.433   2.327   3.266 -0.3863 -0.2483 -0.3719
25309SOL    HW177695   5.346   2.355   3.296 -0.4052 -1.0628  0.3873
25309SOL    HW277696   5.423   2.315   3.172 -1.5401 -1.7530 -0.1007
25310SOL     OW77697   8.750   4.188   4.319  0.1408 -0.1209 -0.3216
25310SOL    HW177698   8.809   4.197   4.244 -0.0040  3.0633 -0.2123
25310SOL    HW277699   8.800   4.224   4.393 -2.0365  3.5883 -0.3953
25311SOL     OW77700   5.029   6.956   8.491  0.1250 -0.3737  0.3236
25311SOL    HW177701   5.006   6.915   8.575 -1.5836  0.3028  0.2238
25311SOL    HW277702   5.040   7.049   8.512  0.0889 -0.2662 -0.1328
25312SOL     OW77703   1.135   4.702   6.662  0.2019  0.4526  0.5211
25312SOL    HW177704   1.099   4.621   6.626 -2.4826  2.2202 -1.1285
25312SOL    HW277705   1.120   4.694   6.757  1.3575 -1.5307  0.5880
25313SOL     OW77706   0.780   2.591   7.383  0.5203  0.4495 -0.1881
25313SOL    HW177707   0.824   2.634   7.309  1.0774 -0.7166 -0.5517
25313SOL    HW277708   0.784   2.656   7.454  0.7543  1.2491 -0.9159
25314SOL     OW77709   3.294   5.191   1.616 -0.5974 -0.3706 -0.2991
25314SOL    HW177710   3.382   5.174   1.649 -0.2975  0.0553 -0.8705
25314SOL    HW277711   3.238   5.186   1.694  0.2375  1.7471  0.5011
25315SOL     OW77712   1.357   2.993   0.163  0.3163  0.0850  0.0313
25315SOL    HW177713   1.326   2.983   0.073  1.1320  0.5196 -0.3069
25315SOL    HW277714   1.382   2.905   0.190  0.8984  0.0850 -0.4827
25316SOL     OW77715   6.294   2.930   4.431 -0.6965  0.1501 -0.4536
25316SOL    HW177716   6.355   2.926   4.504 -0.4327  1.5954 -0.5696
25316SOL    HW277717   6.295   3.022   4.403 -0.5669 -0.4195 -2.4770
25317SOL     OW77718   2.796   4.291   6.626  0.1271 -0.1196 -0.1563
25317SOL    HW177719   2.822   4.380   6.604  3.1122 -0.8532  0.0350
25317SOL    HW277720   2.765   4.254   6.544  1.6401  0.2406 -0.9183
25318SOL     OW77721   6.108   0.294   2.051  0.6667 -0.0747  0.3536
25318SOL    HW177722   6.062   0.242   1.985  0.4797 -0.1179  0.5198
25318SOL    HW277723   6.072   0.382   2.041 -1.4118 -0.6402  2.2790
25319SOL     OW77724   4.075   0.660   1.143 -0.5896  0.0715  0.4956
25319SOL    HW177725   4.077   0.655   1.239 -1.1648 -1.0413  0.4634
25319SOL    HW277726   4.146   0.603   1.114 -1.9931 -1.6027  0.2360
25320SOL     OW77727   5.165   6.777   0.932  0.3916  0.2034  0.1803
25320SOL    HW177728   5.201   6.845   0.990  0.4385  1.2887 -1.0663
25320SOL    HW277729   5.240   6.746   0.882  0.0014  0.9066 -0.8819
25321SOL     OW77730   2.733   3.142   8.334  0.8971  0.0038 -0.2699
25321SOL    HW177731   2.809   3.190   8.300  1.4475 -0.4178  0.3580
25321SOL    HW277732   2.762   3.107   8.418  0.2119 -0.7002 -0.3221
25322SOL     OW77733   7.370   9.492   3.748  0.4704  0.0806  0.0180
25322SOL    HW177734   7.302   9.511   3.683  1.3229 -0.8388 -1.1962
25322SOL    HW277735   7.339   9.413   3.792  0.9384 -0.5855 -0.8302
25323SOL     OW77736   1.228   5.672   4.019 -0.4514  0.5832 -0.4159
25323SOL    HW177737   1.151   5.728   4.032 -1.0124 -0.2553 -0.0304
25323SOL    HW277738   1.294   5.731   3.981 -1.0933  1.4461 -0.2392
25324SOL     OW77739   4.481   7.604   3.234  0.0186 -0.4735 -0.0528
25324SOL    HW177740   4.409   7.559   3.278 -0.6373  0.7977  0.1946
25324SOL    HW277741   4.460   7.596   3.140 -0.3243 -0.3074  0.0081
25325SOL     OW77742   8.166   5.545   0.988 -0.5500  0.0282 -0.3147
25325SOL    HW177743   8.074   5.573   0.989  0.0832  2.3413 -0.2453
25325SOL    HW277744   8.195   5.561   0.899 -0.1420 -0.4424 -0.2680
25326SOL     OW77745   7.803   5.556   0.361 -0.5973 -0.0910  0.0933
25326SOL    HW177746   7.848   5.621   0.415 -1.5496 -0.3069  1.1804
25326SOL    HW277747   7.874   5.504   0.322  0.1590  1.2441 -0.3733
25327SOL     OW77748   1.092   5.219   2.588 -0.5785 -0.1776  0.1207
25327SOL    HW177749   1.165   5.166   2.621  0.2217  0.7957 -0.0642
25327SOL    HW277750   1.106   5.223   2.494 -0.3385  0.7869  0.1899
25328SOL     OW77751   8.582   1.849   7.092 -0.3206 -0.2668  0.0979
25328SOL    HW177752   8.512   1.889   7.145  0.1421 -0.9902  1.3105
25328SOL    HW277753   8.662   1.895   7.120  0.0121 -1.0561  0.4852
25329SOL     OW77754   9.583   5.221   6.660 -0.5619 -0.4795  0.1097
25329SOL    HW177755   9.566   5.274   6.583 -0.7292 -0.9292 -0.1634
25329SOL    HW277756   9.524   5.257   6.727 -0.3326 -0.0145  0.0693
25330SOL     OW77757   3.242   9.003   1.729 -0.0870  0.5364 -0.2399
25330SOL    HW177758   3.317   8.948   1.703  0.3907  1.1355 -0.1638
25330SOL    HW277759   3.226   8.980   1.820 -0.7849 -0.4686 -0.5984
25331SOL     OW77760   7.315   2.160   7.975 -0.0685 -0.6256  0.5988
25331SOL    HW177761   7.377   2.185   8.043 -0.6203  0.7866  0.6097
25331SOL    HW277762   7.319   2.232   7.911 -1.0948 -0.9084  0.2011
25332SOL     OW77763   5.921   1.155   9.035 -0.2751  0.0893 -0.7740
25332SOL    HW177764   5.956   1.118   8.953  1.1626  0.5565 -0.4055
25332SOL    HW277765   5.826   1.144   9.027 -0.0863 -1.1082 -1.9049
25333SOL     OW77766   5.926   4.635   2.809 -0.5679 -0.0371  0.0789
25333SOL    HW177767   5.994   4.626   2.742 -1.4964 -1.9591 -0.6676
25333SOL    HW277768   5.893   4.724   2.797  0.5494  0.2938 -0.7778
25334SOL     OW77769   0.681   0.080   1.169 -0.3329  0.1467 -0.0194
25334SOL    HW177770   0.710   0.171   1.179 -0.2789  0.1438 -0.1482
25334SOL    HW277771   0.757   0.035   1.132 -0.3134  0.0207  0.1730
25335SOL     OW77772   4.306   5.695   8.794 -0.6240 -0.3012  0.0835
25335SOL    HW177773   4.285   5.682   8.886  2.5309 -0.4672  0.8886
25335SOL    HW277774   4.307   5.790   8.782  0.8298 -0.2032  0.7782
25336SOL     OW77775   4.912   9.019   2.728  0.7529 -0.4602 -0.3911
25336SOL    HW177776   4.830   9.048   2.687  1.1565  1.9500  0.3839
25336SOL    HW277777   4.975   9.087   2.707  1.3396  0.2046  2.9439
25337SOL     OW77778   5.416   2.464   9.848 -0.5604  0.4589  0.4071
25337SOL    HW177779   5.410   2.524   9.922  0.8400 -1.5052  2.2083
25337SOL    HW277780   5.489   2.497   9.796  0.6961 -0.0563  1.7902
25338SOL     OW77781   1.083   0.300   8.396 -0.5568 -0.2926 -0.1840
25338SOL    HW177782   1.067   0.217   8.350  1.2154 -0.3880 -0.7143
25338SOL    HW277783   1.055   0.283   8.486 -0.7374 -1.2843 -0.4119
25339SOL     OW77784   5.714   0.301   2.256  0.0505  0.0220 -0.1640
25339SOL    HW177785   5.668   0.305   2.172 -0.8322 -0.3433  0.2864
25339SOL    HW277786   5.708   0.209   2.282  1.4709 -0.1353 -0.3208
25340SOL     OW77787   4.538   9.232   3.820 -0.2838  0.0168 -0.2877
25340SOL    HW177788   4.592   9.222   3.898 -0.8092 -1.0954 -0.0560
25340SOL    HW277789   4.599   9.264   3.753  0.4204 -0.1519  0.2559
25341SOL     OW77790   0.506   8.397   5.958  0.0836  0.2072  0.6544
25341SOL    HW177791   0.489   8.487   5.988  2.2334  1.0853 -0.5649
25341SOL    HW277792   0.531   8.349   6.036 -0.0624  0.9326  1.1523
25342SOL     OW77793   3.309   4.860   6.999  0.4627  0.0106 -0.0083
25342SOL    HW177794   3.264   4.855   7.083  0.2449 -0.2057 -0.1346
25342SOL    HW277795   3.240   4.884   6.936  0.4884 -0.4758 -0.2276
25343SOL     OW77796   1.523   4.748   4.436 -0.6965  0.6255 -0.4735
25343SOL    HW177797   1.508   4.666   4.483  3.1527 -0.8961 -1.5453
25343SOL    HW277798   1.484   4.733   4.350 -1.7555  0.7508 -0.0302
25344SOL     OW77799   5.301   3.977   9.594 -0.4205  0.1601 -0.1562
25344SOL    HW177800   5.333   4.008   9.678  0.0914 -1.2935  0.2258
25344SOL    HW277801   5.358   4.019   9.529  0.8045 -0.6068  0.3879
25345SOL     OW77802   3.321   7.412   5.241 -0.2612 -0.1329  0.1981
25345SOL    HW177803   3.328   7.486   5.302  1.8563  0.1334 -0.2981
25345SOL    HW277804   3.367   7.340   5.284  0.7607 -0.1084 -0.8126
25346SOL     OW77805   8.563   7.078   5.487 -0.3122 -0.0329  0.3934
25346SOL    HW177806   8.539   7.142   5.420 -1.2271  0.0493  0.7769
25346SOL    HW277807   8.628   7.123   5.541  0.1852  0.0170 -0.2386
25347SOL     OW77808   5.042   6.606   3.093 -0.0172  0.9172  0.3640
25347SOL    HW177809   4.972   6.540   3.096  1.6567 -0.8897  2.0252
25347SOL    HW277810   5.080   6.595   3.006 -0.9619  1.0564 -0.0882
25348SOL     OW77811   7.227   5.883   3.270  0.4858 -0.3244 -0.3330
25348SOL    HW177812   7.151   5.830   3.292  0.0402  0.5566  0.2963
25348SOL    HW277813   7.192   5.971   3.257  1.5008  0.2686  0.7776
25349SOL     OW77814   2.217   7.000   3.968 -0.0859  0.1444  0.5025
25349SOL    HW177815   2.159   6.983   3.893  0.9305  0.0982 -0.2821
25349SOL    HW277816   2.184   7.082   4.006 -2.2448 -1.1279  1.6179
25350SOL     OW77817   6.191   4.372   2.997  0.0597 -0.4300  0.0050
25350SOL    HW177818   6.238   4.317   3.059  1.5669  0.7371 -0.0211
25350SOL    HW277819   6.152   4.441   3.051  0.7696  0.1789 -0.2354
25351SOL     OW77820   5.945   2.353   7.347 -0.1556  0.7648  0.0865
25351SOL    HW177821   5.916   2.315   7.265  0.5250 -1.1769  0.6812
25351SOL    HW277822   5.884   2.318   7.412  1.0116 -0.0778  0.7723
25352SOL     OW77823   7.008   4.808   8.085  0.0203 -0.2185  0.5903
25352SOL    HW177824   6.980   4.739   8.146  0.0265  1.6579  2.8664
25352SOL    HW277825   7.103   4.806   8.088  0.0213 -0.1862  0.5757
25353SOL     OW77826   6.843   3.474   0.750 -0.0488  0.3525  0.1230
25353SOL    HW177827   6.814   3.426   0.672 -0.2693 -0.0172  0.4295
25353SOL    HW277828   6.925   3.432   0.774  1.3612  2.0961 -1.3805
25354SOL     OW77829   3.470   4.951   5.437  0.4429  0.1541  0.1174
25354SOL    HW177830   3.498   4.890   5.505  2.3095  0.3991 -0.3611
25354SOL    HW277831   3.514   4.920   5.358 -0.7331  0.5731 -0.7280
25355SOL     OW77832   2.066   6.540   1.444 -0.3060 -0.4255 -0.3390
25355SOL    HW177833   2.097   6.630   1.440  1.6827 -0.9730  1.0139
25355SOL    HW277834   2.021   6.526   1.361  0.8812  1.2796 -1.3284
25356SOL     OW77835   4.765   0.888   9.048  0.4254  0.1179  0.6785
25356SOL    HW177836   4.834   0.948   9.076 -0.4218  2.1409 -1.2837
25356SOL    HW277837   4.689   0.944   9.032 -1.3103 -1.8733  1.5024
25357SOL     OW77838   7.251   0.760   6.062  0.4055  0.1231 -0.0721
25357SOL    HW177839   7.158   0.750   6.039  0.7940 -1.4765 -1.0324
25357SOL    HW277840   7.295   0.773   5.979  1.0366  1.2057  0.4057
25358SOL     OW77841   4.955   9.706   9.694  0.0899 -0.5189  0.2020
25358SOL    HW177842   4.945   9.777   9.757  0.4064 -0.2427 -0.0612
25358SOL    HW277843   4.885   9.720   9.630 -1.2537 -1.6874  1.3174
25359SOL     OW77844   0.871   2.699   7.132 -0.0380  0.2603 -0.1169
25359SOL    HW177845   0.885   2.608   7.108  0.5972  0.2703  0.1795
25359SOL    HW277846   0.956   2.741   7.116 -0.4800  0.9250 -0.7864
25360SOL     OW77847   8.969   9.129   6.381 -0.1374 -0.3961  0.0375
25360SOL    HW177848   9.015   9.047   6.366  1.8379  0.7015 -0.1702
25360SOL    HW277849   8.895   9.127   6.320  2.3493 -0.1468 -3.2546
25361SOL     OW77850   4.371   3.142   3.841  0.0806 -0.3450  0.0174
25361SOL    HW177851   4.386   3.204   3.769 -0.6794 -0.3319 -0.1363
25361SOL    HW277852   4.281   3.111   3.828 -0.2173 -0.0317  1.1946
25362SOL     OW77853   1.726   7.456   4.164  0.1158 -0.2926 -0.0807
25362SOL    HW177854   1.814   7.477   4.196 -1.0562  0.3075  3.0894
25362SOL    HW277855   1.696   7.386   4.222 -1.6098 -0.2651 -0.8997
25363SOL     OW77856   3.496   8.448   8.700  0.1414 -0.1558  0.7205
25363SOL    HW177857   3.535   8.508   8.637 -0.4511 -0.5725 -0.0694
25363SOL    HW277858   3.402   8.463   8.692 -0.0814 -1.7164 -0.0873
25364SOL     OW77859   7.047   0.962   7.740 -0.6730 -0.5561 -0.6228
25364SOL    HW177860   7.061   0.870   7.765 -0.7085  0.0750  1.9941
25364SOL    HW277861   6.959   0.982   7.773  0.0661  0.9021  0.5981
25365SOL     OW77862   9.503   7.626   4.357 -0.7518 -0.1962 -0.3327
25365SOL    HW177863   9.511   7.622   4.452  1.6087  0.1048 -0.4617
25365SOL    HW277864   9.547   7.547   4.325 -0.8087  0.1040 -1.1867
25366SOL     OW77865   1.027   5.585   3.215 -0.5919 -0.1463  0.1265
25366SOL    HW177866   0.987   5.552   3.134 -0.5054  0.8731 -0.3530
25366SOL    HW277867   1.120   5.566   3.205 -0.5116  0.4284 -0.2457
25367SOL     OW77868   2.449   3.038   7.702 -0.1680 -0.0840 -0.1581
25367SOL    HW177869   2.471   3.128   7.679 -0.0610  0.3109  1.3468
25367SOL    HW277870   2.365   3.044   7.748 -0.0760 -0.7150  0.1084
25368SOL     OW77871   8.801   7.876   9.103 -0.2481 -0.0542 -0.4000
25368SOL    HW177872   8.730   7.825   9.063 -1.2029 -0.8708  2.1384
25368SOL    HW277873   8.832   7.933   9.033 -2.7565 -0.3690 -1.8918
25369SOL     OW77874   0.836   3.612   3.825 -0.1182 -1.3055 -0.1955
25369SOL    HW177875   0.784   3.537   3.795 -0.1486 -1.7765  0.9655
25369SOL    HW277876   0.783   3.688   3.802 -1.0706 -1.7454  0.4165
25370SOL     OW77877   4.286   1.476   5.933  0.3423 -0.6167 -0.2033
25370SOL    HW177878   4.368   1.525   5.940 -0.1254  0.0831  0.5852
25370SOL    HW277879   4.296   1.423   5.854  1.9478 -1.2874  0.4258
25371SOL     OW77880   2.835   6.294   7.649 -0.1928  0.5206 -0.0954
25371SOL    HW177881   2.872   6.280   7.562 -0.6318 -0.7510 -0.1059
25371SOL    HW277882   2.886   6.237   7.706 -0.7751  0.3237  0.2384
25372SOL     OW77883   9.737   3.843   5.099  0.1267  0.6298  0.2328
25372SOL    HW177884   9.698   3.929   5.085  0.5166  1.0166  1.3411
25372SOL    HW277885   9.663   3.788   5.125 -0.1399  0.5982 -0.5662
25373SOL     OW77886   4.602   4.475   4.911  0.5385 -0.0114  0.2034
25373SOL    HW177887   4.691   4.501   4.886  0.3316  1.1469  0.6079
25373SOL    HW277888   4.564   4.437   4.832  1.2142 -0.0282 -0.1172
25374SOL     OW77889   3.175   7.942   3.197  0.2975 -0.3504  0.4548
25374SOL    HW177890   3.101   7.882   3.185 -0.1262 -0.1020  1.7376
25374SOL    HW277891   3.167   7.972   3.287  1.5741  0.2194  0.3911
25375SOL     OW77892   8.531   1.370   2.963  0.3772 -0.0009  0.1983
25375SOL    HW177893   8.622   1.341   2.967  1.0037  1.8695  0.9689
25375SOL    HW277894   8.529   1.431   2.890 -0.1825  0.1788  0.3619
25376SOL     OW77895   6.388   6.345   8.950 -0.2181  0.3809 -0.0250
25376SOL    HW177896   6.439   6.265   8.963 -1.0824 -0.4084 -1.2991
25376SOL    HW277897   6.432   6.390   8.877  0.6939  1.4629  1.1479
25377SOL     OW77898   2.852   9.320   7.506 -0.2379  0.1416  0.4519
25377SOL    HW177899   2.887   9.386   7.445 -0.6993 -0.5031 -0.5396
25377SOL    HW277900   2.757   9.327   7.497 -0.2914 -1.1169 -0.2024
25378SOL     OW77901   1.057   6.355   2.542 -0.2795 -0.1502  0.7016
25378SOL    HW177902   0.999   6.406   2.486  0.3789  0.0911  0.2261
25378SOL    HW277903   1.100   6.420   2.597  0.0582 -0.2538  0.5642
25379SOL     OW77904   7.607   2.491   7.876 -0.0005  1.2966 -0.0032
25379SOL    HW177905   7.633   2.557   7.812 -0.5192  2.6896  1.1618
25379SOL    HW277906   7.669   2.501   7.948  0.8726 -0.5774 -0.4368
25380SOL     OW77907   3.921   7.068   9.802 -0.1244  0.4968  0.1415
25380SOL    HW177908   3.863   7.027   9.738 -2.5118  2.3102  1.0073
25380SOL    HW277909   3.886   7.042   9.887  1.1780  0.5506  0.7235
25381SOL     OW77910   3.893   2.959   1.629 -0.1530  0.1841 -0.3292
25381SOL    HW177911   3.801   2.973   1.649 -0.9816 -0.6087 -3.1059
25381SOL    HW277912   3.910   2.868   1.655 -0.4685 -0.0050 -0.7726
25382SOL     OW77913   1.152   4.202   2.170  0.2509 -0.3223 -0.4153
25382SOL    HW177914   1.180   4.262   2.240  0.8031 -0.6629 -0.3400
25382SOL    HW277915   1.201   4.122   2.186 -1.3571 -1.2134  0.1703
25383SOL     OW77916   8.715   1.175   1.628 -0.3346 -0.3421  0.7630
25383SOL    HW177917   8.781   1.207   1.567  1.3935 -2.4582  1.4003
25383SOL    HW277918   8.724   1.231   1.705  0.7679 -0.6152  0.8451
25384SOL     OW77919   6.554   8.728   2.746 -0.5975 -0.0719 -0.1046
25384SOL    HW177920   6.492   8.672   2.699  0.0253 -1.9231  1.1824
25384SOL    HW277921   6.565   8.686   2.831 -0.0416  2.0006  0.9164
25385SOL     OW77922   1.241   5.455   6.544 -0.3639 -0.0459 -0.4203
25385SOL    HW177923   1.297   5.400   6.599  0.2348 -0.7388 -1.6834
25385SOL    HW277924   1.301   5.494   6.481 -1.0630  0.5963 -0.6911
25386SOL     OW77925   2.933   0.485   2.342  0.4608 -0.7586 -0.3850
25386SOL    HW177926   3.012   0.533   2.318 -1.0615  1.2662 -1.7373
25386SOL    HW277927   2.933   0.485   2.437  1.5734  0.1482 -0.3577
25387SOL     OW77928   0.298   9.562   1.767 -0.1075  0.4191  0.4230
25387SOL    HW177929   0.268   9.641   1.811  0.1836  2.1409 -2.2122
25387SOL    HW277930   0.393   9.561   1.781 -0.1572  0.3259  0.7606
25388SOL     OW77931   7.662   6.438   8.024 -0.5016 -0.0357 -0.0746
25388SOL    HW177932   7.615   6.510   7.983 -1.2960 -1.1608 -1.2161
25388SOL    HW277933   7.651   6.453   8.118  0.4479  2.0024 -0.2411
25389SOL     OW77934   0.508   2.562   2.324 -0.1204  0.6782  0.2640
25389SOL    HW177935   0.477   2.532   2.239 -1.2333  1.3305  0.4235
25389SOL    HW277936   0.603   2.554   2.319 -0.3028 -2.6393  0.2318
25390SOL     OW77937   1.237   6.165   1.607 -0.5056 -0.1437 -0.0613
25390SOL    HW177938   1.168   6.121   1.557  1.1927 -2.6918 -0.3490
25390SOL    HW277939   1.240   6.254   1.572 -2.7201 -0.3584 -0.9326
25391SOL     OW77940   2.465   0.847   2.459 -0.1708  0.1714  0.0062
25391SOL    HW177941   2.495   0.766   2.500  0.1514  0.8122  1.0532
25391SOL    HW277942   2.395   0.879   2.516  0.7293  1.4179  0.4623
25392SOL     OW77943   9.374   6.485   1.924 -0.0393 -0.1127 -0.7977
25392SOL    HW177944   9.430   6.427   1.872  0.4029 -0.7999  0.4011
25392SOL    HW277945   9.414   6.485   2.011 -2.0480 -0.8575  0.1923
25393SOL     OW77946   3.463   9.465   2.683  0.2568 -0.2633  0.1525
25393SOL    HW177947   3.395   9.404   2.654  0.3373 -0.5360  0.5215
25393SOL    HW277948   3.527   9.409   2.728 -0.0831  0.1951  1.2254
25394SOL     OW77949   9.693   6.181   4.336 -0.7332  0.0468  0.3105
25394SOL    HW177950   9.742   6.106   4.369  0.6318  1.2087  1.0452
25394SOL    HW277951   9.750   6.219   4.269  0.9010  3.0888  3.0988
25395SOL     OW77952   7.773   6.393   9.052 -0.1289  0.0311  0.5250
25395SOL    HW177953   7.864   6.373   9.074  0.2067  0.9175 -0.0229
25395SOL    HW277954   7.727   6.310   9.064  0.8291 -0.5351  0.3769
25396SOL     OW77955   3.010   3.063   9.151 -0.0447 -0.5381 -0.0687
25396SOL    HW177956   2.923   3.025   9.161  0.1198 -0.6885  0.8065
25396SOL    HW277957   3.018   3.127   9.222  0.6864 -0.7693  0.0669
25397SOL     OW77958   6.198   6.322   6.892 -0.1058  0.1113 -0.1512
25397SOL    HW177959   6.254   6.393   6.924 -0.0096  0.0453 -0.1715
25397SOL    HW277960   6.154   6.290   6.971  1.2098 -1.0081  0.1865
25398SOL     OW77961   3.264   1.614   1.608 -0.1556  0.5948  0.8221
25398SOL    HW177962   3.252   1.576   1.695 -1.3094 -0.9598  0.0214
25398SOL    HW277963   3.183   1.663   1.592  0.1528  1.0756  0.7001
25399SOL     OW77964   4.204   4.445   1.011  0.1390  0.0707 -0.7078
25399SOL    HW177965   4.280   4.393   1.035  0.2075  0.3301 -0.3526
25399SOL    HW277966   4.129   4.386   1.025  0.0443  0.6315  1.5345
25400SOL     OW77967   3.343   3.561   3.674  0.4462 -0.3964 -0.3870
25400SOL    HW177968   3.292   3.583   3.595 -0.0190 -0.7105 -0.1774
25400SOL    HW277969   3.433   3.583   3.651 -0.1267  3.1967  0.3287
25401SOL     OW77970   5.584   2.948   0.029  0.0140 -0.0122 -0.3214
25401SOL    HW177971   5.510   2.972   0.085 -0.5250 -0.6607 -0.7349
25401SOL    HW277972   5.653   2.922   0.090 -1.0368 -2.1082  0.0822
25402SOL     OW77973   4.541   9.809   7.935 -0.4709 -0.5042 -0.4898
25402SOL    HW177974   4.548   9.887   7.989 -1.1933  0.2904 -1.5206
25402SOL    HW277975   4.626   9.802   7.891 -0.0089 -0.9539  0.4466
25403SOL     OW77976   1.558   8.076   9.747  0.9219  0.0001 -0.8361
25403SOL    HW177977   1.490   8.107   9.687 -1.6409 -0.2671  1.7183
25403SOL    HW277978   1.536   7.983   9.761  0.9058  0.2568  1.0966
25404SOL     OW77979   9.619   0.293   2.351  0.1130 -0.7602 -0.0368
25404SOL    HW177980   9.622   0.197   2.354  0.3822 -0.7668 -0.4926
25404SOL    HW277981   9.548   0.312   2.289  0.6777 -0.6677 -0.6539
25405SOL     OW77982   7.645   9.599   6.246 -0.4992  0.3479  0.6187
25405SOL    HW177983   7.615   9.530   6.185  2.3037  0.8429 -1.4929
25405SOL    HW277984   7.739   9.584   6.255 -0.5385  1.3384  3.6193
25406SOL     OW77985   0.572   7.480   4.798 -0.1910 -0.7306  0.0816
25406SOL    HW177986   0.511   7.479   4.872  1.1794 -0.4340  1.2485
25406SOL    HW277987   0.551   7.560   4.750 -1.2476 -1.0452 -0.0080
25407SOL     OW77988   3.788   4.671   7.775  0.3921 -0.2931 -0.2494
25407SOL    HW177989   3.830   4.675   7.688 -2.1022 -0.0192 -1.5284
25407SOL    HW277990   3.742   4.754   7.783  0.5321 -0.3444  1.3531
25408SOL     OW77991   4.081   0.287   0.394  0.4788 -0.5307 -0.1330
25408SOL    HW177992   4.051   0.229   0.324 -1.2603 -0.0496  0.1687
25408SOL    HW277993   4.003   0.334   0.421  1.8129  2.0594 -0.4404
25409SOL     OW77994   4.268   9.816   4.043  0.0615 -0.4806 -0.0470
25409SOL    HW177995   4.196   9.802   4.104  0.1679  1.4416  0.5995
25409SOL    HW277996   4.225   9.835   3.959 -0.1267 -1.2651 -0.1309
25410SOL     OW77997   4.502   4.406   6.040 -0.2394  0.2971  0.1951
25410SOL    HW177998   4.419   4.419   5.994  0.2822  0.3240 -0.7754
25410SOL    HW277999   4.568   4.408   5.970  0.5041 -0.4869  0.8602
25411SOL     OW78000   5.605   7.021   7.303  0.4176 -0.5492  0.4990
25411SOL    HW178001   5.668   7.084   7.339 -0.5006  0.9155 -0.3302
25411SOL    HW278002   5.635   7.005   7.214  0.5389 -1.1431  0.6462
25412SOL     OW78003   4.062   4.319   7.102 -0.0860  0.3591 -0.5344
25412SOL    HW178004   4.062   4.398   7.047  2.9127  0.0580 -1.1016
25412SOL    HW278005   4.095   4.250   7.045 -0.9577 -0.9493  0.4913
25413SOL     OW78006   2.107   8.375   1.900 -0.0332 -0.1495 -0.1393
25413SOL    HW178007   2.113   8.334   1.986 -2.5571 -0.2758  0.0543
25413SOL    HW278008   2.037   8.328   1.856 -0.4269  1.4682 -1.3540
25414SOL     OW78009   1.491   8.216   7.512 -0.4800 -0.7253 -0.1745
25414SOL    HW178010   1.555   8.191   7.445 -0.4274 -1.0647 -0.0040
25414SOL    HW278011   1.539   8.276   7.569 -0.8025  0.3046 -0.9576
25415SOL     OW78012   8.721   2.950   1.511 -0.6586  0.6230 -0.2340
25415SOL    HW178013   8.691   3.039   1.528 -2.2677  0.2312 -0.8796
25415SOL    HW278014   8.668   2.894   1.568  1.8729  0.1730  1.8834
25416SOL     OW78015   3.419   1.450   6.554  0.0324  0.0130 -0.2050
25416SOL    HW178016   3.324   1.449   6.546  0.0762  0.9410 -1.0428
25416SOL    HW278017   3.439   1.532   6.599  0.5049  0.4584 -1.2041
25417SOL     OW78018   8.593   9.471   1.957  0.3665  0.0198  0.2869
25417SOL    HW178019   8.561   9.417   1.885  1.1946 -0.0199 -0.0628
25417SOL    HW278020   8.621   9.552   1.916  2.1827 -0.5441  0.3466
25418SOL     OW78021   5.861   7.143   4.000  0.1510 -0.7141 -0.0942
25418SOL    HW178022   5.825   7.080   3.938 -1.1776 -1.3038  1.2121
25418SOL    HW278023   5.956   7.140   3.986 -0.0901 -1.0982 -1.7970
25419SOL     OW78024   7.748   4.739   5.272 -0.2469  0.1563 -0.1361
25419SOL    HW178025   7.813   4.671   5.257  1.7446  1.9741 -0.2569
25419SOL    HW278026   7.748   4.790   5.191 -0.2081  1.4585  0.6582
25420SOL     OW78027   5.086   9.300   3.426  0.1943  0.2411  1.0633
25420SOL    HW178028   5.169   9.331   3.391  0.2860 -0.7218  0.3738
25420SOL    HW278029   5.039   9.267   3.349 -0.7221  0.5495  1.4827
25421SOL     OW78030   7.354   9.594   5.002 -0.5419  0.3142  0.2945
25421SOL    HW178031   7.286   9.534   5.034 -0.5529  0.3123  0.2686
25421SOL    HW278032   7.389   9.551   4.924 -0.0297 -0.0162  0.6989
25422SOL     OW78033   3.295   4.454   0.814  0.3216  0.5236 -0.6761
25422SOL    HW178034   3.346   4.453   0.732  0.8249  0.8515 -0.3750
25422SOL    HW278035   3.226   4.518   0.798  0.3907  0.5537 -0.8621
25423SOL     OW78036   9.560   3.370   5.875  0.3777 -0.3758  0.1298
25423SOL    HW178037   9.573   3.304   5.943  1.5228 -1.4868 -1.0978
25423SOL    HW278038   9.467   3.364   5.852  0.3976 -1.3295  0.2752
25424SOL     OW78039   9.631   1.970   4.525  0.1556  0.3112 -0.8806
25424SOL    HW178040   9.546   1.984   4.568 -0.7323  0.6857 -2.6710
25424SOL    HW278041   9.672   2.057   4.524 -0.5321  0.6500 -2.1584
25425SOL     OW78042   6.480   0.169   6.214 -0.7663 -0.1456 -0.2251
25425SOL    HW178043   6.409   0.104   6.213 -1.1096  0.2315 -1.5854
25425SOL    HW278044   6.435   0.253   6.217 -0.3381  0.0711  0.2268
25426SOL     OW78045   1.739   6.656   0.294 -0.2025  0.0146 -0.0113
25426SOL    HW178046   1.783   6.597   0.355  3.6209  1.2976 -1.2249
25426SOL    HW278047   1.735   6.739   0.341  0.4235  0.3726 -0.5858
25427SOL     OW78048   1.972   7.393   3.069 -0.0840  0.0360  0.4250
25427SOL    HW178049   1.938   7.374   2.982  1.4001  1.6812 -0.5734
25427SOL    HW278050   1.988   7.307   3.108 -2.2880 -0.7454 -0.2567
25428SOL     OW78051   7.090   3.960   3.477 -0.9039  0.3095  0.1162
25428SOL    HW178052   7.149   3.901   3.523 -0.9716 -1.8479 -2.3228
25428SOL    HW278053   7.147   4.013   3.421 -0.9492  1.9160  1.4821
25429SOL     OW78054   3.064   8.869   2.959  0.3383  0.1294 -0.0026
25429SOL    HW178055   2.984   8.824   2.984  0.7752  0.1578  1.5239
25429SOL    HW278056   3.036   8.955   2.930 -0.0607  0.9195  2.5151
25430SOL     OW78057   6.473   2.343   9.668  0.2722 -0.1800  0.5457
25430SOL    HW178058   6.467   2.302   9.754  1.0222 -0.9682  0.2404
25430SOL    HW278059   6.473   2.437   9.686  1.9924 -0.3333  1.5533
25431SOL     OW78060   8.774   3.245   5.017  0.1152 -0.0319 -0.1400
25431SOL    HW178061   8.679   3.252   5.013 -0.0401 -1.2414  0.7317
25431SOL    HW278062   8.793   3.160   4.978  0.6904 -0.4802  1.0642
25432SOL     OW78063   9.077   3.855   6.507  0.1342  0.2489 -0.1780
25432SOL    HW178064   9.160   3.849   6.555 -0.7163 -2.6748  1.1442
25432SOL    HW278065   9.099   3.828   6.418  0.4680 -1.5428  0.4164
25433SOL     OW78066   1.007   3.389   1.364 -0.4232 -0.8284 -0.0300
25433SOL    HW178067   0.919   3.425   1.379 -1.0108 -2.0985 -0.3091
25433SOL    HW278068   1.040   3.369   1.451  0.5909  1.8120  0.2922
25434SOL     OW78069   2.382   3.712   7.907 -0.6033  0.5170 -0.4439
25434SOL    HW178070   2.314   3.645   7.912  0.5898 -0.7389 -0.6001
25434SOL    HW278071   2.463   3.666   7.925  0.3588  1.7642 -1.3887
25435SOL     OW78072   6.764   4.504   2.348  0.2458 -0.2391 -0.3293
25435SOL    HW178073   6.775   4.496   2.442 -1.8056 -1.2497 -0.1249
25435SOL    HW278074   6.724   4.591   2.335 -0.7490 -0.6586 -0.1216
25436SOL     OW78075   4.970   1.026   2.303  0.0285 -0.5431  0.4344
25436SOL    HW178076   4.990   0.938   2.269  1.1758  0.0368 -0.4624
25436SOL    HW278077   5.044   1.080   2.274  0.1112  0.4145  2.2676
25437SOL     OW78078   6.770   7.441   6.127 -0.7458  0.2782  0.6912
25437SOL    HW178079   6.813   7.479   6.050 -0.5307  0.3209  0.8322
25437SOL    HW278080   6.745   7.353   6.099  0.3435 -0.1196  0.9281
25438SOL     OW78081   2.453   4.006   8.220  0.0108 -0.2624  0.3803
25438SOL    HW178082   2.449   4.033   8.128 -0.2463 -0.4774  0.3288
25438SOL    HW278083   2.368   4.029   8.256 -1.1442 -3.1504 -0.2591
25439SOL     OW78084   8.049   0.841   2.863 -0.0327  0.1759  0.4348
25439SOL    HW178085   7.977   0.788   2.898 -1.3660  0.3645 -1.8061
25439SOL    HW278086   8.009   0.926   2.844  1.3620  1.0373  1.2461
25440SOL     OW78087   4.311   2.265   2.542  0.4559  0.6571 -0.4025
25440SOL    HW178088   4.364   2.256   2.463  1.1153  1.0405 -0.0189
25440SOL    HW278089   4.273   2.178   2.556 -0.3032  0.7846 -1.5679
25441SOL     OW78090   6.938   0.521   7.918 -0.4190  0.5031 -0.7544
25441SOL    HW178091   6.896   0.606   7.929 -0.9713  0.2373 -0.8172
25441SOL    HW278092   6.887   0.461   7.971 -0.1501  0.1675 -0.8698
25442SOL     OW78093   1.026   2.569   6.355 -0.2649  0.0876  0.1398
25442SOL    HW178094   1.011   2.550   6.448  0.8881  0.4567  0.4137
25442SOL    HW278095   1.010   2.485   6.311 -1.0969 -0.0241  0.6275
25443SOL     OW78096   0.977   6.219   9.467 -0.3351 -0.5340  0.1441
25443SOL    HW178097   1.065   6.256   9.466  0.2486 -1.7843  1.8259
25443SOL    HW278098   0.938   6.251   9.548 -1.4830  0.0543 -0.6096
25444SOL     OW78099   4.157   0.940   0.184 -0.0524 -0.0699 -0.7738
25444SOL    HW178100   4.242   0.896   0.171 -0.1142 -0.1982 -0.7453
25444SOL    HW278101   4.131   0.915   0.273 -0.5446 -0.7534 -1.1079
25445SOL     OW78102   1.785   6.130   5.437  0.4617 -0.5324  0.0568
25445SOL    HW178103   1.855   6.068   5.417  2.7418  0.7065  3.3475
25445SOL    HW278104   1.714   6.075   5.469  1.4309 -1.6254  0.4142
25446SOL     OW78105   2.000   5.954   1.535 -0.5044  0.0305  0.1874
25446SOL    HW178106   1.929   5.967   1.597 -0.7010 -0.9778  0.1994
25446SOL    HW278107   2.076   5.932   1.589 -0.9916 -2.1860  0.0611
25447SOL     OW78108   6.405   3.875   2.513 -0.0173  0.6874 -0.2174
25447SOL    HW178109   6.456   3.819   2.454  0.4068 -0.5287  1.2392
25447SOL    HW278110   6.320   3.886   2.470 -0.3287 -1.6099 -0.2667
25448SOL     OW78111   2.734   3.201   2.128 -0.3430  0.2269 -0.0277
25448SOL    HW178112   2.739   3.205   2.033  1.2580  0.3054  0.0270
25448SOL    HW278113   2.822   3.224   2.158 -0.3976 -1.2194  1.4222
25449SOL     OW78114   7.657   8.469   0.651  0.3272  0.0543 -0.4183
25449SOL    HW178115   7.599   8.456   0.576  1.0264 -0.3549 -0.9124
25449SOL    HW278116   7.716   8.539   0.623 -0.1249  0.6910  0.2037
25450SOL     OW78117   9.185   5.536   6.737  0.2872  0.5875 -0.2140
25450SOL    HW178118   9.209   5.572   6.822  1.0246 -0.0844 -0.1238
25450SOL    HW278119   9.184   5.441   6.750  1.7677  0.3945 -1.2807
25451SOL     OW78120   8.118   5.892   2.720  0.1940  0.2526 -0.5453
25451SOL    HW178121   8.162   5.854   2.644 -0.3840  1.6009 -1.5991
25451SOL    HW278122   8.033   5.919   2.687 -1.0111 -1.2180  1.1654
25452SOL     OW78123   4.043   5.725   5.215  0.2916  0.1730  0.1871
25452SOL    HW178124   3.960   5.683   5.192  0.8591 -0.9277  0.0935
25452SOL    HW278125   4.018   5.811   5.249 -0.7513  1.0007 -2.4012
25453SOL     OW78126   4.225   7.749   8.108 -0.7765  0.2130 -0.4636
25453SOL    HW178127   4.179   7.788   8.034  0.6174 -0.0383 -1.4929
25453SOL    HW278128   4.232   7.820   8.172 -0.3281  0.9934 -1.3518
25454SOL     OW78129   2.226   1.949   0.649  0.0887  0.5352  0.5070
25454SOL    HW178130   2.185   2.034   0.669 -1.8074 -0.3111  0.4054
25454SOL    HW278131   2.212   1.897   0.728 -0.7704 -0.3988 -0.2482
25455SOL     OW78132   4.213   3.557   9.080  0.6399 -0.4283  0.2132
25455SOL    HW178133   4.134   3.606   9.101  0.7306 -1.3733  3.1723
25455SOL    HW278134   4.281   3.624   9.070  0.1711  0.2036  1.1691
25456SOL     OW78135   6.750   9.099   0.265  0.1344  0.2818  0.1741
25456SOL    HW178136   6.680   9.118   0.328  1.2608 -1.1653  1.9558
25456SOL    HW278137   6.724   9.016   0.225 -0.1523  0.7693 -0.6707
25457SOL     OW78138   1.164   9.132   3.984  0.0468  0.0116 -0.0965
25457SOL    HW178139   1.079   9.125   4.027 -0.2393 -1.4151 -0.8551
25457SOL    HW278140   1.145   9.158   3.894  0.3606 -0.9723 -0.4540
25458SOL     OW78141   3.333   0.524   6.512 -0.4112  0.0035  0.7396
25458SOL    HW178142   3.301   0.460   6.448 -1.0746 -0.5187  1.5727
25458SOL    HW278143   3.284   0.504   6.592  2.6746 -1.4900  2.4119
25459SOL     OW78144   2.142   8.367   4.130 -0.2097 -0.2760  1.0867
25459SOL    HW178145   2.059   8.382   4.174 -0.6899 -2.2405  0.9584
25459SOL    HW278146   2.119   8.358   4.037  0.4227  1.0838  0.7794
25460SOL     OW78147   3.050   6.167   4.034  0.4249  0.4974  0.5361
25460SOL    HW178148   3.095   6.251   4.035 -1.0151  1.4167 -1.6840
25460SOL    HW278149   2.958   6.190   4.016 -0.2453 -1.4782  1.1951
25461SOL     OW78150   3.052   3.309   2.961 -0.4685 -0.1841 -0.0039
25461SOL    HW178151   2.994   3.294   3.035 -1.2141 -0.5651 -0.6445
25461SOL    HW278152   3.139   3.282   2.991 -0.9839 -1.5185  0.3281
25462SOL     OW78153   4.765   1.288   7.419  0.3302  0.0996 -0.2980
25462SOL    HW178154   4.703   1.360   7.431  1.1547  0.7505  0.1904
25462SOL    HW278155   4.844   1.330   7.385 -0.2189 -1.0119 -3.2325
25463SOL     OW78156   1.877   5.258   5.498 -1.2449  0.7532  0.2879
25463SOL    HW178157   1.845   5.347   5.481 -1.2132  1.1478  2.1492
25463SOL    HW278158   1.971   5.267   5.508 -0.9871  0.1929 -1.3023
25464SOL     OW78159   6.042   4.727   4.967 -0.3095 -0.3547  0.2503
25464SOL    HW178160   6.018   4.778   5.044 -1.2023 -2.3644  1.3839
25464SOL    HW278161   5.976   4.750   4.901 -1.2487 -0.6948  1.0512
25465SOL     OW78162   3.217   7.197   1.935 -0.5691  0.1165  0.6382
25465SOL    HW178163   3.198   7.176   1.844 -1.7418  0.6505  0.7419
25465SOL    HW278164   3.175   7.282   1.949 -0.5189 -0.0246  1.7160
25466SOL     OW78165   6.146   2.045   4.828 -0.7490 -0.0615 -0.3978
25466SOL    HW178166   6.142   2.059   4.923  0.3530 -1.3016 -0.1309
25466SOL    HW278167   6.082   1.976   4.812 -0.1512 -0.6341 -0.3670
25467SOL     OW78168   1.270   7.148   0.086  0.5461  0.1284 -0.2993
25467SOL    HW178169   1.214   7.213   0.129  2.3954  1.8579 -0.3356
25467SOL    HW278170   1.268   7.072   0.145  0.2983  1.1607  1.0952
25468SOL     OW78171   0.823   1.663   8.913  0.3837  0.1971  0.2570
25468SOL    HW178172   0.771   1.584   8.903  0.7922 -0.0125 -0.2603
25468SOL    HW278173   0.760   1.731   8.936 -0.0253 -0.1902  0.2873
25469SOL     OW78174   0.715   6.698   9.277  0.0376  0.4459  0.3510
25469SOL    HW178175   0.751   6.713   9.365 -0.3209  0.7753  0.4414
25469SOL    HW278176   0.744   6.610   9.254  0.0684  0.3291  0.8296
25470SOL     OW78177   6.748   5.245   4.145  0.5203  0.2795 -0.1967
25470SOL    HW178178   6.745   5.330   4.101  0.8830  0.5707  0.3311
25470SOL    HW278179   6.694   5.256   4.223 -0.7337 -0.4582 -0.9276
25471SOL     OW78180   9.636   9.626   5.370 -0.3419  0.1153  0.2002
25471SOL    HW178181   9.662   9.718   5.369  2.3396 -0.5514 -0.5087
25471SOL    HW278182   9.639   9.600   5.278 -0.5184 -0.8193  0.4486
25472SOL     OW78183   6.564   1.319   5.559 -0.4378 -0.5598  0.7408
25472SOL    HW178184   6.511   1.393   5.531  1.5228  1.4322  2.0196
25472SOL    HW278185   6.509   1.273   5.624 -1.4137  0.1295  0.4232
25473SOL     OW78186   3.850   4.272   6.179 -0.3028 -0.0021 -0.2689
25473SOL    HW178187   3.839   4.277   6.274  1.2692  0.6720 -0.0932
25473SOL    HW278188   3.833   4.361   6.147  1.0895  0.2510 -0.3653
25474SOL     OW78189   4.874   7.177   6.487 -0.1398 -0.4463 -0.2428
25474SOL    HW178190   4.780   7.172   6.468 -0.4303  0.6018  0.8004
25474SOL    HW278191   4.911   7.098   6.446 -1.2818 -0.2824 -1.6816
25475SOL     OW78192   5.016   3.337   6.028  0.0683  0.8016 -0.1415
25475SOL    HW178193   4.997   3.356   5.936 -0.1546  0.3718 -0.1878
25475SOL    HW278194   4.932   3.348   6.073  0.2842  1.5145  0.0991
25476SOL     OW78195   5.102   7.638   5.001  0.0775 -0.3954  1.0329
25476SOL    HW178196   5.137   7.579   4.935  1.6738  1.6908 -0.1019
25476SOL    HW278197   5.168   7.639   5.071 -0.4667 -0.7480  1.5688
25477SOL     OW78198   1.868   2.988   9.295  0.7494 -0.8930 -0.6604
25477SOL    HW178199   1.962   2.978   9.282  0.6393 -0.6217 -1.7135
25477SOL    HW278200   1.840   3.049   9.227 -0.1534 -0.8121 -0.2296
25478SOL     OW78201   1.442   4.142   9.366 -0.7631  0.0132  0.1893
25478SOL    HW178202   1.476   4.065   9.321  0.8448  1.1931 -0.7227
25478SOL    HW278203   1.499   4.151   9.443 -2.2335 -0.8324  1.4447
25479SOL     OW78204   7.153   9.752   9.226  0.1967  0.1548  0.4075
25479SOL    HW178205   7.141   9.756   9.320  1.2934  0.1589  0.5626
25479SOL    HW278206   7.199   9.669   9.211 -0.4978 -0.1373 -0.1887
25480SOL     OW78207   4.793   9.312   5.339 -0.6528  0.2718  0.8738
25480SOL    HW178208   4.749   9.251   5.398 -1.6070  1.7177  1.7258
25480SOL    HW278209   4.774   9.278   5.251 -1.3196 -0.5348  1.3141
25481SOL     OW78210   7.178   5.391   4.695  0.0709  0.2237 -0.2199
25481SOL    HW178211   7.201   5.433   4.612 -0.1464  2.0538  0.6020
25481SOL    HW278212   7.086   5.414   4.709 -0.9706 -2.9516 -1.0970
25482SOL     OW78213   6.371   8.864   8.928 -0.6143 -0.3694 -0.3600
25482SOL    HW178214   6.345   8.780   8.967 -2.7786  0.7409  0.7364
25482SOL    HW278215   6.453   8.885   8.971 -2.0116 -0.0844  2.3725
25483SOL     OW78216   2.383   4.499   3.539 -0.4680 -0.1593  0.2556
25483SOL    HW178217   2.339   4.442   3.476  0.2310  0.8816 -1.2363
25483SOL    HW278218   2.341   4.584   3.528  0.0682  0.1861  0.7959
25484SOL     OW78219   8.834   3.908   2.881 -0.0642 -0.2525  0.7281
25484SOL    HW178220   8.847   3.980   2.818  2.0096 -0.5605  0.7385
25484SOL    HW278221   8.907   3.916   2.942 -0.4687 -1.6735  1.4443
25485SOL     OW78222   4.887   8.250   4.938 -0.3839 -0.2419  0.1698
25485SOL    HW178223   4.834   8.309   4.992 -1.2654 -0.3182 -0.5911
25485SOL    HW278224   4.977   8.274   4.958 -0.6600 -0.5036  1.9474
25486SOL     OW78225   0.477   5.238   3.181  0.4183  0.1990  0.1621
25486SOL    HW178226   0.452   5.312   3.125 -3.1624  0.3197  1.6256
25486SOL    HW278227   0.480   5.163   3.120 -1.7694  0.6032 -0.5541
25487SOL     OW78228   6.582   8.229   6.071 -0.2133  0.2667  0.0603
25487SOL    HW178229   6.594   8.151   6.017  1.1868  0.1403  0.5067
25487SOL    HW278230   6.522   8.284   6.021 -0.7039 -0.7962 -0.5665
25488SOL     OW78231   0.704   4.916   3.468  0.0183  0.4213 -0.6750
25488SOL    HW178232   0.634   4.969   3.429  0.0863  0.6359 -0.5092
25488SOL    HW278233   0.785   4.953   3.432 -0.0023 -0.6780 -1.9117
25489SOL     OW78234   3.563   6.785   8.730  0.0921 -0.0454  0.0992
25489SOL    HW178235   3.551   6.880   8.734 -2.0134 -0.2457 -0.3159
25489SOL    HW278236   3.504   6.755   8.662  0.0788 -1.7553  0.7895
25490SOL     OW78237   7.258   4.895   0.291  0.0848 -0.0589 -0.0880
25490SOL    HW178238   7.275   4.988   0.276  0.0018 -0.3422 -2.0970
25490SOL    HW278239   7.166   4.892   0.319 -0.9480  0.2434 -3.1476
25491SOL     OW78240   8.571   6.315   8.900  0.3510 -0.0337 -0.1599
25491SOL    HW178241   8.505   6.295   8.966  0.3395  0.9184  0.1433
25491SOL    HW278242   8.614   6.395   8.933 -0.9144  1.5893 -2.1740
25492SOL     OW78243   7.298   6.876   4.757 -0.1906  0.1884 -0.2807
25492SOL    HW178244   7.304   6.782   4.745  0.7359  0.0366  1.1092
25492SOL    HW278245   7.220   6.888   4.812  0.3854  0.0893  0.5886
25493SOL     OW78246   6.619   7.174   8.419 -0.0297 -0.5004 -0.0884
25493SOL    HW178247   6.576   7.103   8.468 -1.3287 -0.7909 -1.5643
25493SOL    HW278248   6.707   7.178   8.455 -0.5284 -1.5655  1.3586
25494SOL     OW78249   1.381   6.095   0.818  0.4057 -0.3703  0.0712
25494SOL    HW178250   1.324   6.172   0.809  0.9058  0.4996  3.1538
25494SOL    HW278251   1.445   6.104   0.748  1.4022  2.9928  1.2291
25495SOL     OW78252   0.248   3.852   7.266  0.2705  0.2819 -0.2083
25495SOL    HW178253   0.331   3.830   7.224 -0.3509 -2.2551 -0.2809
25495SOL    HW278254   0.251   3.808   7.351  0.0994  2.5146  1.0413
25496SOL     OW78255   0.916   2.186   4.391  0.0952  0.0943  0.5354
25496SOL    HW178256   0.938   2.267   4.345 -0.2514  0.8735  1.6878
25496SOL    HW278257   0.868   2.134   4.327  1.0203  0.4533 -0.4741
25497SOL     OW78258   8.545   3.512   6.712 -0.3030 -0.2023 -0.4850
25497SOL    HW178259   8.580   3.601   6.725 -0.2665 -0.3928  0.8528
25497SOL    HW278260   8.592   3.479   6.635  1.3046  0.1569  0.2879
25498SOL     OW78261   6.313   3.881   6.659  0.1173  0.3382 -0.2023
25498SOL    HW178262   6.274   3.874   6.571 -0.7000 -0.7516  0.2212
25498SOL    HW278263   6.246   3.924   6.712  0.7761  1.3838 -0.1888
25499SOL     OW78264   8.910   9.729   8.906  0.1653 -0.1203  0.3320
25499SOL    HW178265   8.874   9.770   8.985 -1.1982  1.0075 -0.8310
25499SOL    HW278266   8.929   9.802   8.847  0.3134 -0.9833 -0.7240
25500SOL     OW78267   7.295   2.205   3.746  0.2701  0.1963 -0.3043
25500SOL    HW178268   7.387   2.191   3.766  0.3597  1.3459  0.1610
25500SOL    HW278269   7.290   2.205   3.650  1.4477  3.8583 -0.5271
25501SOL     OW78270   5.946   0.434   6.445 -0.0849 -0.4888  0.0148
25501SOL    HW178271   5.996   0.509   6.412  0.1065 -0.6166  0.0189
25501SOL    HW278272   6.004   0.392   6.508 -0.3606 -0.3869  0.3399
25502SOL     OW78273   1.839   2.404   1.158  0.4452  0.0355 -0.1387
25502SOL    HW178274   1.743   2.412   1.155  0.4442  0.2183  0.3426
25502SOL    HW278275   1.867   2.473   1.217  0.7726 -0.8144  0.7212
25503SOL     OW78276   3.780   1.150   7.265 -0.2910 -0.0912 -0.6416
25503SOL    HW178277   3.686   1.164   7.264  0.0217  2.4333 -0.2964
25503SOL    HW278278   3.805   1.144   7.172 -1.0012 -3.2353 -0.7552
25504SOL     OW78279   6.730   3.511   1.921 -0.3250 -0.2291  0.1915
25504SOL    HW178280   6.761   3.463   1.844  0.1057 -0.3903  0.4626
25504SOL    HW278281   6.808   3.554   1.956 -1.0231  2.4481 -1.2421
25505SOL     OW78282   3.990   9.832   8.653  0.2963  0.2458 -0.4947
25505SOL    HW178283   3.907   9.852   8.608  0.4162  1.1695 -0.3263
25505SOL    HW278284   3.992   9.736   8.658 -1.2733  0.2101  0.4155
25506SOL     OW78285   1.944   4.010   4.978 -0.1162 -0.0676  0.0694
25506SOL    HW178286   1.984   4.006   4.891  1.8193 -0.2531  0.9256
25506SOL    HW278287   1.865   4.063   4.966 -0.2735 -0.6999 -1.9334
25507SOL     OW78288   2.752   4.266   5.233  0.0497 -0.1156 -0.1199
25507SOL    HW178289   2.719   4.209   5.303  1.0117  0.9620  1.2734
25507SOL    HW278290   2.673   4.301   5.192 -0.5433 -1.0709  0.1805
25508SOL     OW78291   0.355   4.216   6.301  0.2994 -0.4576  0.4555
25508SOL    HW178292   0.387   4.189   6.215 -2.3321  0.6042 -0.9721
25508SOL    HW278293   0.415   4.286   6.329  2.6159 -2.4100  0.7001
25509SOL     OW78294   1.443   0.181   6.715  0.0468  0.5453  0.3976
25509SOL    HW178295   1.490   0.264   6.725 -1.8314  1.8348 -0.8505
25509SOL    HW278296   1.463   0.152   6.626 -0.3565  0.3520  0.3690
25510SOL     OW78297   8.395   3.051   1.124  0.0355  0.4799  0.5173
25510SOL    HW178298   8.398   3.082   1.034  2.9455 -1.1496 -0.0441
25510SOL    HW278299   8.486   3.046   1.152 -0.6717 -0.9972  2.8809
25511SOL     OW78300   2.693   1.600   3.830  0.5356  0.1299  0.5933
25511SOL    HW178301   2.628   1.633   3.892 -0.0454  0.3466 -0.1113
25511SOL    HW278302   2.701   1.670   3.765  0.4222 -0.4752 -0.0872
25512SOL     OW78303   6.777   9.736   5.735  0.6091  0.0991  0.5434
25512SOL    HW178304   6.742   9.706   5.819  0.3968  1.0730  0.8208
25512SOL    HW278305   6.742   9.675   5.671 -2.5026  1.5492  0.6740
25513SOL     OW78306   5.445   9.101   9.261  0.1336  0.6859 -0.1578
25513SOL    HW178307   5.370   9.160   9.253 -1.2168 -1.0037 -0.5472
25513SOL    HW278308   5.517   9.149   9.219 -1.1760  1.6047 -1.4763
25514SOL     OW78309   1.295   8.636   0.948 -0.2144  0.4240  0.7099
25514SOL    HW178310   1.342   8.583   1.012  2.4527  2.8841  0.9900
25514SOL    HW278311   1.361   8.696   0.914 -1.8590  0.2502 -3.3137
25515SOL     OW78312   6.029   7.747   3.043  0.2604  0.6293  0.0686
25515SOL    HW178313   6.056   7.725   3.132  2.0476 -1.1045 -0.8140
25515SOL    HW278314   5.935   7.727   3.040  0.6539 -1.6002  0.9562
25516SOL     OW78315   9.010   9.327   6.941  1.5799  0.6362 -0.0531
25516SOL    HW178316   9.001   9.344   6.847  1.6665 -1.7764 -0.5853
25516SOL    HW278317   9.094   9.366   6.965  1.9834  0.5196 -1.2028
25517SOL     OW78318   8.451   9.040   4.497 -0.7774 -0.1688  0.5122
25517SOL    HW178319   8.379   9.066   4.440 -0.8520 -0.0222  0.6712
25517SOL    HW278320   8.447   8.945   4.499  2.0476 -0.6462 -3.4694
25518SOL     OW78321   8.020   3.615   8.114 -0.6044 -0.3590 -0.0848
25518SOL    HW178322   7.976   3.596   8.031 -1.1300 -1.5671  0.4441
25518SOL    HW278323   8.066   3.698   8.099 -1.8876  0.1933 -1.1029
25519SOL     OW78324   7.904   7.176   4.965  0.1562 -0.0971  0.0551
25519SOL    HW178325   7.994   7.150   4.987  0.3766  0.3816 -0.2703
25519SOL    HW278326   7.909   7.270   4.949 -0.0701 -0.3469 -1.6388
25520SOL     OW78327   4.444   6.284   3.990  0.2853  0.1374  0.3503
25520SOL    HW178328   4.501   6.360   3.999 -0.2716  0.6254 -0.1908
25520SOL    HW278329   4.420   6.282   3.897  0.3634 -0.7540  0.3365
25521SOL     OW78330   2.283   7.722   8.624 -0.0413 -0.0309 -0.1549
25521SOL    HW178331   2.223   7.740   8.696  0.2325  0.5622 -0.0629
25521SOL    HW278332   2.251   7.777   8.552  1.4468  1.7821  0.4640
25522SOL     OW78333   6.166   6.023   3.065  0.5750  1.0858 -0.2342
25522SOL    HW178334   6.124   5.939   3.081 -0.5047  1.7824  0.7906
25522SOL    HW278335   6.162   6.034   2.970 -1.6258  1.1090 -0.1961
25523SOL     OW78336   0.235   1.350   1.444  0.2045  0.3116 -0.1156
25523SOL    HW178337   0.230   1.428   1.500  0.7494 -0.0251  0.4182
25523SOL    HW278338   0.241   1.385   1.355  0.4782  0.8841  0.1201
25524SOL     OW78339   2.349   7.478   3.034 -0.0680 -1.1882  0.0363
25524SOL    HW178340   2.414   7.548   3.044 -1.0541  0.1704 -2.3193
25524SOL    HW278341   2.394   7.399   3.064  2.6179 -0.2690 -1.2857
25525SOL     OW78342   6.374   3.225   4.502 -0.6625  0.0261  0.0473
25525SOL    HW178343   6.426   3.272   4.437 -0.1360 -0.9631 -0.2722
25525SOL    HW278344   6.397   3.267   4.585  0.5235 -0.2562 -0.1120
25526SOL     OW78345   9.763   3.464   1.464 -0.3186  0.0014  0.1648
25526SOL    HW178346   9.697   3.512   1.515  0.1153  1.5631 -0.6700
25526SOL    HW278347   9.832   3.445   1.528 -0.9221 -0.3514  0.7240
25527SOL     OW78348   3.035   5.198   0.620 -0.1708  0.3843  0.1065
25527SOL    HW178349   3.091   5.154   0.556  0.2665  0.7719  0.2206
25527SOL    HW278350   3.092   5.262   0.663  0.0335 -1.1269  2.2044
25528SOL     OW78351   1.699   6.516   0.692  0.3504  0.1858  0.4238
25528SOL    HW178352   1.620   6.560   0.662  0.2355 -0.3082 -0.0189
25528SOL    HW278353   1.757   6.516   0.616  1.0980  1.2483  0.9701
25529SOL     OW78354   1.239   7.313   3.647 -0.5897  0.7740  0.3169
25529SOL    HW178355   1.277   7.232   3.615 -1.0603  1.0645 -1.0451
25529SOL    HW278356   1.314   7.365   3.675 -0.2050  0.2827  0.2118
25530SOL     OW78357   6.845   9.209   2.912  0.4965 -0.2002 -0.1049
25530SOL    HW178358   6.857   9.199   2.818 -1.0247 -1.3763 -0.2028
25530SOL    HW278359   6.886   9.294   2.932  1.1312 -0.0769 -1.7439
25531SOL     OW78360   2.127   7.997   5.077 -0.1848 -0.1502 -0.2511
25531SOL    HW178361   2.069   7.922   5.065 -0.5351 -0.2306  1.7044
25531SOL    HW278362   2.133   8.037   4.990 -2.9276 -0.3054 -0.5720
25532SOL     OW78363   1.942   4.169   7.933 -0.6372  0.1003 -0.1310
25532SOL    HW178364   1.853   4.199   7.953 -1.2391 -1.8064  0.1900
25532SOL    HW278365   1.949   4.083   7.973  1.4066  0.2269 -0.0909
25533SOL     OW78366   4.489   0.376   1.472  0.0731  0.0125 -0.4435
25533SOL    HW178367   4.502   0.340   1.384 -0.8854  1.2217 -1.1000
25533SOL    HW278368   4.411   0.331   1.505  1.1612 -1.3860  0.3342
25534SOL     OW78369   1.879   0.139   9.465  0.4272  0.7319  0.6552
25534SOL    HW178370   1.923   0.174   9.543  1.7517  0.3916  0.0881
25534SOL    HW278371   1.944   0.147   9.395  0.2689 -1.4640  0.1715
25535SOL     OW78372   3.600   4.969   8.982  0.0332 -0.1623 -0.3523
25535SOL    HW178373   3.566   4.914   8.911 -0.0224 -0.7828  0.1430
25535SOL    HW278374   3.547   5.048   8.979 -0.4294 -0.4791 -0.5571
25536SOL     OW78375   8.304   7.500   9.115 -0.3634 -0.4657  0.0796
25536SOL    HW178376   8.281   7.560   9.044 -0.3083 -0.4832  0.0472
25536SOL    HW278377   8.264   7.540   9.193 -0.9579 -0.7731 -0.0630
25537SOL     OW78378   7.290   2.645   2.532  0.4628  0.4508  0.6035
25537SOL    HW178379   7.205   2.634   2.573 -0.3429  0.5649 -0.9523
25537SOL    HW278380   7.281   2.724   2.478  0.2184 -1.6251 -2.6395
25538SOL     OW78381   6.784   9.796   7.828  0.4112 -0.1510 -0.4753
25538SOL    HW178382   6.871   9.756   7.826 -0.0052 -1.0776 -3.0325
25538SOL    HW278383   6.758   9.802   7.737 -1.9013  0.8475  0.1862
25539SOL     OW78384   1.951   1.097   0.245 -0.3375 -0.4942 -0.6319
25539SOL    HW178385   2.029   1.096   0.190  0.4403  0.8418  0.4009
25539SOL    HW278386   1.966   1.167   0.307 -0.7027 -2.6075  2.0217
25540SOL     OW78387   6.751   1.133   4.356 -0.0183  0.0492  0.7502
25540SOL    HW178388   6.715   1.166   4.274 -0.5103 -0.6984  0.6551
25540SOL    HW278389   6.823   1.192   4.376 -0.0344  0.3727 -0.1038
25541SOL     OW78390   6.323   8.206   5.532  0.3348 -0.0868 -0.0062
25541SOL    HW178391   6.265   8.131   5.517  0.1133  0.1814 -0.5514
25541SOL    HW278392   6.265   8.282   5.527  0.1792  0.0433  2.6336
25542SOL     OW78393   5.917   5.400   4.112  0.3851 -0.1444  0.4101
25542SOL    HW178394   5.851   5.431   4.174 -0.1171 -0.0212 -0.1784
25542SOL    HW278395   5.994   5.380   4.167 -1.0170 -3.0161  1.5038
25543SOL     OW78396   5.709   5.489   0.455  0.0151  0.1683  0.2426
25543SOL    HW178397   5.652   5.461   0.383 -1.3279  0.3635  1.2095
25543SOL    HW278398   5.774   5.419   0.462 -0.1728 -0.1310 -0.7697
25544SOL     OW78399   8.310   6.832   4.256 -0.0430  0.4518 -0.7386
25544SOL    HW178400   8.349   6.811   4.342 -1.8482 -1.8514 -0.3614
25544SOL    HW278401   8.320   6.751   4.206  0.0131  1.4267 -2.3599
25545SOL     OW78402   3.512   5.666   9.144  0.0489 -0.3439  0.3209
25545SOL    HW178403   3.484   5.581   9.179 -1.1536 -0.0777  0.0495
25545SOL    HW278404   3.433   5.719   9.146 -0.0843 -0.2776 -2.7195
25546SOL     OW78405   5.289   7.531   8.663 -0.1210 -0.5975  0.0059
25546SOL    HW178406   5.335   7.613   8.681 -0.4127  0.4275 -3.2160
25546SOL    HW278407   5.358   7.464   8.666  0.8077  0.3000 -0.5451
25547SOL     OW78408   2.180   6.926   5.135 -0.3005 -0.4247 -0.3888
25547SOL    HW178409   2.106   6.880   5.097 -0.8828 -1.6119  2.0236
25547SOL    HW278410   2.256   6.874   5.108 -0.8022 -1.9077  0.9011
25548SOL     OW78411   0.640   3.312   9.420  0.2630  0.6410  0.4433
25548SOL    HW178412   0.735   3.315   9.412  0.1683  0.3330 -1.0717
25548SOL    HW278413   0.608   3.337   9.333 -1.0338  0.4526  0.8503
25549SOL     OW78414   2.263   1.641   7.689 -0.0943  0.2997  0.6133
25549SOL    HW178415   2.339   1.661   7.635 -0.7886  1.2626 -0.0359
25549SOL    HW278416   2.294   1.573   7.749  0.9630 -0.1074 -0.3538
25550SOL     OW78417   0.860   4.918   1.176  0.0587 -0.2763  0.3471
25550SOL    HW178418   0.811   4.989   1.217 -0.0186 -0.2995  0.2934
25550SOL    HW278419   0.830   4.916   1.085 -0.0321 -0.4598  0.3810
25551SOL     OW78420   8.841   3.318   2.169  0.9542 -0.2528 -0.4819
25551SOL    HW178421   8.829   3.228   2.139  1.8772 -0.6527  0.3277
25551SOL    HW278422   8.806   3.371   2.097 -0.1833 -1.2457 -0.7063
25552SOL     OW78423   4.264   3.319   2.789 -0.2882 -0.3061 -0.2618
25552SOL    HW178424   4.336   3.298   2.848  0.4361 -0.9834 -1.3412
25552SOL    HW278425   4.198   3.251   2.807 -0.0975 -0.4711 -0.1829
25553SOL     OW78426   0.833   3.246   8.601 -0.0135 -0.1447 -0.0197
25553SOL    HW178427   0.878   3.260   8.685  2.9073 -1.5557 -1.1960
25553SOL    HW278428   0.782   3.166   8.615 -1.4911  0.9187  1.0395
25554SOL     OW78429   5.009   2.629   6.363  0.0374 -0.0132 -0.1887
25554SOL    HW178430   4.972   2.705   6.319  1.0071  0.5593 -0.0539
25554SOL    HW278431   5.039   2.571   6.292  1.5155  0.8654 -0.3276
25555SOL     OW78432   1.154   8.042   3.840  0.3228 -0.2803  0.5962
25555SOL    HW178433   1.068   8.012   3.811  1.8612 -3.9210 -0.7627
25555SOL    HW278434   1.160   8.012   3.931 -0.0717  0.7281  0.9791
25556SOL     OW78435   0.244   4.534   8.277  0.2033  0.4109  0.2584
25556SOL    HW178436   0.287   4.449   8.268  3.7036  2.2368 -2.8661
25556SOL    HW278437   0.155   4.519   8.247  0.1197 -2.4404  1.5784
25557SOL     OW78438   8.755   8.044   2.339 -0.5348  0.0213  0.5351
25557SOL    HW178439   8.827   8.096   2.375 -1.4185  0.9254  1.0484
25557SOL    HW278440   8.774   8.039   2.246  1.6786 -2.1630  0.9726
25558SOL     OW78441   8.893   4.500   2.927 -0.5325 -0.1041 -0.4411
25558SOL    HW178442   8.978   4.531   2.896 -0.6388  0.9586  0.3091
25558SOL    HW278443   8.895   4.514   3.022 -1.6419  0.1733 -0.4458
25559SOL     OW78444   7.264   0.209   3.047 -0.0687 -0.1783 -0.1417
25559SOL    HW178445   7.194   0.240   3.104 -0.0010  0.6728 -0.5182
25559SOL    HW278446   7.258   0.113   3.052 -1.3889 -0.1224 -0.3284
25560SOL     OW78447   6.330   1.104   1.230 -0.4504 -0.3974 -0.2955
25560SOL    HW178448   6.339   1.053   1.310 -0.3578  1.4553  0.9449
25560SOL    HW278449   6.236   1.106   1.212 -0.7025  0.8069  0.9475
25561SOL     OW78450   0.521   3.798   2.895 -0.4201 -0.0529 -0.0982
25561SOL    HW178451   0.488   3.755   2.816  1.0305  0.3959 -0.9771
25561SOL    HW278452   0.567   3.729   2.943 -1.2050 -0.2986  0.3222
25562SOL     OW78453   8.945   6.868   8.131  0.3315  0.4252 -0.3151
25562SOL    HW178454   8.876   6.837   8.073  0.4477  0.0409 -0.2504
25562SOL    HW278455   8.905   6.940   8.181  0.0433  0.3355 -0.4206
25563SOL     OW78456   6.433   4.481   2.886 -0.2461  0.1368 -0.4913
25563SOL    HW178457   6.354   4.428   2.882  0.5872 -1.1298 -1.4084
25563SOL    HW278458   6.409   4.558   2.937 -1.7672 -0.6924  0.1051
25564SOL     OW78459   8.358   9.671   1.794 -0.0704 -0.3126 -0.1055
25564SOL    HW178460   8.403   9.753   1.778 -0.6376 -0.3409 -2.1211
25564SOL    HW278461   8.391   9.641   1.879 -0.4715  2.3680  1.0924
25565SOL     OW78462   8.575   5.515   8.494 -0.2908 -0.4255 -0.1707
25565SOL    HW178463   8.620   5.485   8.573  1.0441  0.3533 -0.5980
25565SOL    HW278464   8.618   5.598   8.472 -2.0085  0.3891 -0.5768
25566SOL     OW78465   3.610   1.399   8.315 -0.5905 -0.3041 -0.0678
25566SOL    HW178466   3.594   1.364   8.403  0.1404 -0.4469  0.0178
25566SOL    HW278467   3.536   1.457   8.299 -0.6341 -0.1239  0.7251
25567SOL     OW78468   2.516   5.235   6.236 -0.1674 -0.0091  0.6256
25567SOL    HW178469   2.524   5.148   6.275  0.3517 -0.5391 -0.5928
25567SOL    HW278470   2.424   5.259   6.249 -0.3804 -0.8618  0.7383
25568SOL     OW78471   7.378   3.635   9.417  0.5574  0.2730 -0.1965
25568SOL    HW178472   7.402   3.622   9.509 -0.3995 -0.2555 -0.0094
25568SOL    HW278473   7.306   3.573   9.402  2.0530 -1.1615 -1.8849
25569SOL     OW78474   2.212   5.148   5.186 -0.1097 -0.6743  0.6108
25569SOL    HW178475   2.181   5.097   5.111 -0.0671  0.2830 -0.0781
25569SOL    HW278476   2.258   5.084   5.241  0.7724 -1.2123 -0.6968
25570SOL     OW78477   3.039   9.138   2.458  1.0558 -0.0187 -0.3296
25570SOL    HW178478   3.073   9.165   2.373  1.2329  1.9967  0.3163
25570SOL    HW278479   3.075   9.050   2.472  1.2501 -0.2718 -2.1872
25571SOL     OW78480   8.436   1.754   2.553 -0.1962  0.4690  0.3397
25571SOL    HW178481   8.528   1.775   2.537 -0.7324  1.2283 -2.1139
25571SOL    HW278482   8.412   1.810   2.627  1.1370  0.7010  0.6258
25572SOL     OW78483   9.341   0.051   2.269  0.4136 -0.1290 -0.2072
25572SOL    HW178484   9.423   0.038   2.221 -0.4955 -2.3725 -1.2841
25572SOL    HW278485   9.283  -0.018   2.237 -1.4265  0.4780  1.6103
25573SOL     OW78486   6.619   9.409   8.498  0.1194 -0.5962 -0.0057
25573SOL    HW178487   6.580   9.379   8.580  0.0491  2.4297  1.2106
25573SOL    HW278488   6.708   9.373   8.499 -0.2553 -1.5552  0.7983
25574SOL     OW78489   8.711   2.832   8.316  0.5061  0.2811  0.0748
25574SOL    HW178490   8.632   2.818   8.369  0.9750 -2.0032  0.2576
25574SOL    HW278491   8.766   2.756   8.335  2.5049  1.5253 -0.5207
25575SOL     OW78492   9.084   3.549   2.874  0.0356 -0.4920 -0.2885
25575SOL    HW178493   9.017   3.591   2.929  0.0483  0.0860 -0.7040
25575SOL    HW278494   9.159   3.539   2.933 -0.5597 -1.5967  0.3216
25576SOL     OW78495   0.984   5.150   2.992 -0.2040  0.2039  0.1154
25576SOL    HW178496   0.967   5.240   2.965  1.5188  0.6373  0.3257
25576SOL    HW278497   0.905   5.124   3.039 -1.0837  1.2927 -0.6993
25577SOL     OW78498   7.148   5.736   4.292  0.5881 -0.1523  0.5483
25577SOL    HW178499   7.080   5.803   4.303  0.9149  0.3027 -0.1081
25577SOL    HW278500   7.207   5.773   4.226  0.1144 -1.5812 -0.7319
25578SOL     OW78501   2.845   1.549   3.467  0.4048 -0.4817 -0.1909
25578SOL    HW178502   2.899   1.542   3.389 -0.3767  0.1502 -0.8020
25578SOL    HW278503   2.841   1.460   3.502  3.5752 -0.2439  1.1027
25579SOL     OW78504   8.657   2.641   3.038 -0.5464  0.6378 -0.0302
25579SOL    HW178505   8.594   2.584   3.082  1.5503 -1.6019  0.2595
25579SOL    HW278506   8.674   2.598   2.955  1.2483  0.6977  0.2813
25580SOL     OW78507   3.306   8.063   2.209  0.0637  0.0422 -0.1741
25580SOL    HW178508   3.313   7.972   2.239  0.0020  0.8878  2.6321
25580SOL    HW278509   3.245   8.059   2.136  2.3133 -2.5541 -2.1743
25581SOL     OW78510   1.907   7.690   7.910  0.0997 -0.0970 -0.3320
25581SOL    HW178511   1.845   7.645   7.967  1.1500 -0.0550  0.9027
25581SOL    HW278512   1.871   7.681   7.822 -1.4268 -0.4134  0.3014
25582SOL     OW78513   2.757   6.234   2.380  0.2517  0.1580 -0.8748
25582SOL    HW178514   2.710   6.316   2.397  0.1031 -0.3507  1.5339
25582SOL    HW278515   2.689   6.174   2.347 -0.0271  0.4491 -0.8363
25583SOL     OW78516   7.376   1.161   5.394 -0.3820  0.3419 -0.5729
25583SOL    HW178517   7.368   1.194   5.484  2.9151  1.3040 -0.4981
25583SOL    HW278518   7.393   1.239   5.341 -1.8065 -0.2723 -2.0235
25584SOL     OW78519   0.236   7.151   9.443  0.1306  0.3628  0.3256
25584SOL    HW178520   0.273   7.092   9.508  0.8343  0.5055  0.0647
25584SOL    HW278521   0.253   7.239   9.477 -1.4771  0.4462  1.0266
25585SOL     OW78522   6.369   3.707   4.828  0.3979 -0.0339  0.0526
25585SOL    HW178523   6.364   3.799   4.802  1.4158 -0.1545 -0.5999
25585SOL    HW278524   6.449   3.674   4.788  0.7005 -0.8956  1.2992
25586SOL     OW78525   7.413   7.856   4.833 -0.1030  0.0426 -0.2910
25586SOL    HW178526   7.462   7.891   4.907 -1.8651  0.7279  0.6353
25586SOL    HW278527   7.359   7.930   4.803 -0.2528 -0.5448 -1.5336
25587SOL     OW78528   0.318   1.358   3.630  0.5220 -0.3885  0.3497
25587SOL    HW178529   0.360   1.414   3.565 -0.9940  1.5520  0.9700
25587SOL    HW278530   0.390   1.306   3.667  1.7456  0.0980 -1.2475
25588SOL     OW78531   2.443   3.429   9.397  0.0835  0.1977 -0.5589
25588SOL    HW178532   2.394   3.347   9.412 -1.0055  1.1717  1.8526
25588SOL    HW278533   2.534   3.406   9.417 -0.0885 -0.6263 -0.6890
25589SOL     OW78534   6.224   5.930   8.326  0.2277 -0.1073  0.4831
25589SOL    HW178535   6.253   5.840   8.317 -0.0655 -0.4996  2.9331
25589SOL    HW278536   6.137   5.932   8.285  0.2556 -0.8977  0.3769
25590SOL     OW78537   3.970   2.099   6.828  0.2725  0.0337 -0.2285
25590SOL    HW178538   4.041   2.042   6.798 -0.1423 -0.1554 -0.8795
25590SOL    HW278539   3.980   2.179   6.777  0.7418  0.4837  0.5524
25591SOL     OW78540   8.241   8.142   3.016  0.0781 -0.3244  0.4240
25591SOL    HW178541   8.314   8.105   2.967  1.1358  0.2251  1.5191
25591SOL    HW278542   8.165   8.090   2.990 -0.3177  2.1585 -4.5804
25592SOL     OW78543   3.510   7.679   1.650  0.2651 -0.0524 -0.2161
25592SOL    HW178544   3.572   7.745   1.619  0.7057 -1.5367 -2.7896
25592SOL    HW278545   3.553   7.639   1.725  0.6934  1.4629  0.3914
25593SOL     OW78546   3.930   6.963   6.586 -0.0980  0.1692  0.5215
25593SOL    HW178547   3.856   7.021   6.603  1.3963  2.4543 -0.2011
25593SOL    HW278548   3.954   6.928   6.671  0.4582  2.6440  1.4703
25594SOL     OW78549   8.485   9.568   5.151 -0.2732 -0.0754 -0.1980
25594SOL    HW178550   8.481   9.658   5.118 -2.0095  0.8083  2.1587
25594SOL    HW278551   8.577   9.553   5.170 -0.1760  1.9909  1.2240
25595SOL     OW78552   3.920   2.917   8.615  0.1700  0.1280  0.4447
25595SOL    HW178553   3.933   2.824   8.595  0.2253  0.3150 -0.4543
25595SOL    HW278554   3.938   2.962   8.532  1.4956  1.0645  1.1955
25596SOL     OW78555   5.920   5.685   6.235 -0.7638  0.3803  0.5366
25596SOL    HW178556   5.978   5.642   6.172  1.8547  0.7658  2.5138
25596SOL    HW278557   5.833   5.679   6.195  0.4286 -1.1634 -2.1250
25597SOL     OW78558   8.976   7.272   4.684 -0.0740  0.3112 -0.6674
25597SOL    HW178559   8.951   7.300   4.596 -0.6432 -1.1141 -0.9911
25597SOL    HW278560   8.927   7.191   4.698  1.2752 -0.3826  0.3141
25598SOL     OW78561   1.630   4.486   9.645  0.6387 -0.2087  0.3062
25598SOL    HW178562   1.572   4.559   9.664 -1.1820 -1.8743  1.5677
25598SOL    HW278563   1.640   4.487   9.550 -1.8942 -0.0926 -0.0248
25599SOL     OW78564   5.137   0.600   7.130  0.4198  0.2778  0.5694
25599SOL    HW178565   5.117   0.620   7.221  2.6053 -1.6726  1.5746
25599SOL    HW278566   5.154   0.506   7.129  0.8912  0.3189 -1.7751
25600SOL     OW78567   8.559   9.212   7.118  0.2234  0.1777 -0.1357
25600SOL    HW178568   8.637   9.242   7.072 -0.2318 -0.7945 -1.6267
25600SOL    HW278569   8.487   9.261   7.079 -0.3689 -1.8202 -1.7051
25601SOL     OW78570   5.211   8.675   2.700  0.5678  0.1860  0.1254
25601SOL    HW178571   5.117   8.674   2.682  0.4288 -0.6695  0.8160
25601SOL    HW278572   5.243   8.592   2.666  1.2768  0.8964 -1.0122
25602SOL     OW78573   4.032   8.292   1.144  0.3867 -0.5000  1.0232
25602SOL    HW178574   4.067   8.367   1.097  0.6413 -0.7979  0.7351
25602SOL    HW278575   3.937   8.303   1.140  0.3570 -1.1104 -0.5555
25603SOL     OW78576   0.154   4.470   4.051 -0.0215  0.3426 -0.1848
25603SOL    HW178577   0.093   4.515   4.109 -0.9320  0.4417 -1.1862
25603SOL    HW278578   0.220   4.432   4.109 -0.8891  0.4710  0.8980
25604SOL     OW78579   5.129   7.636   9.672 -0.0196  0.1942 -0.4962
25604SOL    HW178580   5.128   7.542   9.654 -0.6693  0.1257 -0.1486
25604SOL    HW278581   5.198   7.671   9.616 -0.5605 -0.3242 -1.5224
25605SOL     OW78582   6.768   3.494   5.431  0.6185  0.3016  0.0326
25605SOL    HW178583   6.794   3.416   5.381  0.6857 -0.3032  0.9907
25605SOL    HW278584   6.703   3.538   5.375 -0.9179 -1.4961  0.3088
25606SOL     OW78585   6.823   3.792   2.415 -0.5072 -0.0221 -0.3921
25606SOL    HW178586   6.915   3.773   2.428 -0.3803  0.8890  0.0701
25606SOL    HW278587   6.809   3.778   2.321  0.1832  0.2014 -0.5296
25607SOL     OW78588   5.895   5.366   5.339  0.2546  0.1297 -0.4774
25607SOL    HW178589   5.801   5.350   5.346  0.5447 -1.1964  0.9994
25607SOL    HW278590   5.906   5.409   5.254 -1.7504  0.9467 -0.3698
25608SOL     OW78591   1.821   6.720   4.253  0.2984  0.7037  0.2407
25608SOL    HW178592   1.832   6.811   4.282 -1.7512  1.3475 -0.8251
25608SOL    HW278593   1.841   6.722   4.160  1.4465 -0.2389  0.4333
25609SOL     OW78594   7.073   6.744   5.073 -0.3300 -0.4082 -0.1302
25609SOL    HW178595   7.082   6.655   5.106 -1.0783 -0.5183 -0.2002
25609SOL    HW278596   7.002   6.782   5.124  1.4024  0.9054  1.4388
25610SOL     OW78597   9.388   5.584   2.655 -0.1340 -0.2139 -0.2482
25610SOL    HW178598   9.472   5.627   2.640 -0.8453  1.3434  0.0388
25610SOL    HW278599   9.381   5.519   2.585  0.8067  0.4118 -0.9471
25611SOL     OW78600   6.410   9.522   2.082  0.1984 -0.3978  0.2217
25611SOL    HW178601   6.326   9.516   2.127 -0.2073 -1.9720 -0.6858
25611SOL    HW278602   6.450   9.435   2.091  0.4187 -0.5720 -1.7809
25612SOL     OW78603   3.687   3.907   9.575  0.1129 -0.0013 -0.4049
25612SOL    HW178604   3.663   3.817   9.598 -0.5439  0.2043 -0.2703
25612SOL    HW278605   3.628   3.931   9.504 -0.6188  0.7742  0.4358
25613SOL     OW78606   8.477   5.755   6.486  0.0944 -0.1552 -0.6834
25613SOL    HW178607   8.536   5.685   6.514 -0.1331  0.0289  0.3029
25613SOL    HW278608   8.474   5.815   6.560 -1.2516 -0.1128 -0.7484
25614SOL     OW78609   2.058   2.394   4.035  0.2271  0.2273 -0.0627
25614SOL    HW178610   2.100   2.344   3.965  0.9607 -0.8328  1.0895
25614SOL    HW278611   1.989   2.444   3.992 -0.8100 -2.0751 -1.2350
25615SOL     OW78612   2.983   1.883   8.929 -0.4018  0.1891  0.0026
25615SOL    HW178613   2.990   1.794   8.896 -0.3797  0.3949 -0.5696
25615SOL    HW278614   2.906   1.883   8.986 -0.3757 -0.2032  0.0363
25616SOL     OW78615   2.935   8.784   5.428  0.2249 -0.3793 -0.0116
25616SOL    HW178616   2.892   8.870   5.425  1.6851  0.5203 -4.9156
25616SOL    HW278617   2.863   8.723   5.442 -1.6571  1.4269 -1.1007
25617SOL     OW78618   0.010   3.818   1.730  0.1223 -0.3057  0.8169
25617SOL    HW178619   0.050   3.779   1.652  0.3915 -1.2500  1.4221
25617SOL    HW278620  -0.079   3.783   1.732 -0.3061  0.6955  0.2585
25618SOL     OW78621   1.597   5.057   7.625 -0.2143 -0.5266  0.1701
25618SOL    HW178622   1.613   5.019   7.538  2.0853  0.7385 -0.0316
25618SOL    HW278623   1.681   5.050   7.670 -0.6028  1.3694  1.2779
25619SOL     OW78624   5.040   7.441   2.957  0.5987 -0.2028  0.0786
25619SOL    HW178625   5.055   7.448   2.862  0.7367 -0.0737  0.1099
25619SOL    HW278626   5.052   7.348   2.977 -1.5680 -0.6467 -0.4063
25620SOL     OW78627   8.631   8.429   0.889  0.0980  0.3803  0.1549
25620SOL    HW178628   8.551   8.419   0.838  0.3233  1.4568 -0.4262
25620SOL    HW278629   8.666   8.340   0.896  0.4819  0.2768 -2.2617
25621SOL     OW78630   6.266   7.534   6.389 -0.2300  0.3108 -0.0307
25621SOL    HW178631   6.220   7.588   6.453  0.7594  0.1643  0.8224
25621SOL    HW278632   6.201   7.471   6.359 -0.5415  0.0124  1.2510
25622SOL     OW78633   8.142   6.742   0.750 -0.3907  0.1040 -0.0623
25622SOL    HW178634   8.076   6.695   0.801  0.1018  0.3303  0.8020
25622SOL    HW278635   8.178   6.807   0.810  1.2071 -0.5656 -0.2191
25623SOL     OW78636   9.178   0.656   9.092 -0.4260 -0.1761 -0.0841
25623SOL    HW178637   9.116   0.686   9.159 -0.5210 -0.7594  0.0891
25623SOL    HW278638   9.245   0.609   9.141 -0.3688 -0.3980 -0.3773
25624SOL     OW78639   0.240   6.111   7.641  0.0910  0.6817  0.0010
25624SOL    HW178640   0.238   6.148   7.730  0.6724  0.1299  0.2546
25624SOL    HW278641   0.275   6.182   7.587 -2.3323  1.7974 -0.2097
25625SOL     OW78642   9.331   3.065   6.698 -0.3036 -0.0675  0.0138
25625SOL    HW178643   9.360   3.153   6.674 -0.6220 -0.2865 -1.2317
25625SOL    HW278644   9.404   3.008   6.673 -0.2283 -0.1923  0.5192
25626SOL     OW78645   2.219   7.309   3.227  0.3607  0.2808  0.0945
25626SOL    HW178646   2.196   7.384   3.173  0.8380  0.2987 -0.0897
25626SOL    HW278647   2.308   7.327   3.257 -0.5772  1.2759  2.5946
25627SOL     OW78648   5.829   9.473   7.921 -0.4336  0.1044  0.2188
25627SOL    HW178649   5.739   9.484   7.891 -0.3247  0.3304 -0.0354
25627SOL    HW278650   5.875   9.437   7.845  0.2928  2.5582 -0.6011
25628SOL     OW78651   4.252   6.358   8.678 -0.4803 -0.7609  0.4022
25628SOL    HW178652   4.276   6.367   8.585 -1.7301  0.3717  0.1496
25628SOL    HW278653   4.191   6.284   8.680  0.1731 -1.2989  0.4535
25629SOL     OW78654   3.485   7.820   2.011  0.0292  0.3661 -0.6261
25629SOL    HW178655   3.396   7.817   2.046  0.2741  2.2756  0.2954
25629SOL    HW278656   3.541   7.807   2.088  0.5688  3.8825 -0.2446
25630SOL     OW78657   3.351   6.618   6.120  0.5463  0.0388  0.0885
25630SOL    HW178658   3.378   6.689   6.061  0.4063  1.1934  1.3567
25630SOL    HW278659   3.428   6.600   6.173  0.6325 -0.9045 -0.3359
25631SOL     OW78660   8.117   1.459   9.083 -0.4145  0.4545 -0.3727
25631SOL    HW178661   8.135   1.366   9.099  0.1000  0.9235  2.2546
25631SOL    HW278662   8.139   1.472   8.991  1.0606 -1.6725 -0.3988
25632SOL     OW78663   3.983   9.035   9.550 -0.5352 -0.0511  0.1626
25632SOL    HW178664   3.903   9.001   9.591 -1.0408 -0.7266 -1.2890
25632SOL    HW278665   3.982   8.997   9.462  1.1095  0.3847 -0.0774
25633SOL     OW78666   0.940   9.153   8.684  0.3327 -0.3190 -0.1863
25633SOL    HW178667   0.923   9.239   8.646  1.7161 -0.3333 -0.9113
25633SOL    HW278668   1.033   9.137   8.665  0.5414 -1.2171  1.4551
25634SOL     OW78669   9.165   9.822   7.807 -0.2036 -0.2299  0.0091
25634SOL    HW178670   9.193   9.758   7.741  0.2635 -0.9673  0.8856
25634SOL    HW278671   9.144   9.901   7.757 -0.9031 -1.1014 -1.1184
25635SOL     OW78672   5.645   6.144   4.463 -0.0671  0.9896  0.6634
25635SOL    HW178673   5.707   6.171   4.395 -1.6329  1.3113 -0.6833
25635SOL    HW278674   5.608   6.062   4.431  0.0207  0.5263  1.7034
25636SOL     OW78675   0.899   9.569   0.600 -0.1551  0.6684  0.1696
25636SOL    HW178676   0.958   9.627   0.551  1.7739 -1.1539  0.1793
25636SOL    HW278677   0.945   9.552   0.682 -0.6173 -0.8964  0.1367
25637SOL     OW78678   4.483   2.289   6.996 -0.0691 -0.1181 -0.2019
25637SOL    HW178679   4.556   2.231   6.975 -0.4163 -0.4308 -0.5740
25637SOL    HW278680   4.405   2.241   6.967 -0.6494 -0.7736  2.1839
25638SOL     OW78681   5.485   3.556   8.839 -0.1036  0.3721 -0.5743
25638SOL    HW178682   5.484   3.627   8.775 -0.3821 -0.1593 -1.1641
25638SOL    HW278683   5.446   3.481   8.794 -1.5404  0.3334  0.6173
25639SOL     OW78684   2.465   3.355   2.014 -0.0297 -0.2712  0.1554
25639SOL    HW178685   2.519   3.321   2.086 -0.5873  1.1078  1.2813
25639SOL    HW278686   2.458   3.449   2.032  1.3447  0.4936 -2.7494
25640SOL     OW78687   2.379   3.274   1.499 -0.0210 -0.1936  0.7295
25640SOL    HW178688   2.424   3.338   1.444  1.5701 -0.4212  1.6926
25640SOL    HW278689   2.372   3.196   1.445 -0.9999  0.4349 -0.0821
25641SOL     OW78690   6.356   6.152   6.771  0.3429  0.0888  0.1190
25641SOL    HW178691   6.436   6.204   6.781 -0.1223  0.8148  0.1635
25641SOL    HW278692   6.288   6.207   6.811 -0.0794 -0.7706  0.6015
25642SOL     OW78693   3.855   2.267   6.526  0.0375 -0.4445  0.2146
25642SOL    HW178694   3.855   2.352   6.481  1.1381 -0.5295  0.0233
25642SOL    HW278695   3.833   2.288   6.617 -2.1591 -0.2626 -0.2911
25643SOL     OW78696   3.807   2.958   5.040  0.0327  0.3540  0.5207
25643SOL    HW178697   3.822   2.998   4.954 -1.5209  1.5147  0.7548
25643SOL    HW278698   3.895   2.932   5.070  0.7531  1.1180 -0.8288
25644SOL     OW78699   5.251   5.270   7.143  0.5112 -0.0978 -0.1036
25644SOL    HW178700   5.159   5.241   7.139  1.0185 -1.6999 -1.3899
25644SOL    HW278701   5.301   5.190   7.127  2.1254  0.8561  0.0702
25645SOL     OW78702   2.908   7.983   7.007 -0.0420  0.1222 -0.0181
25645SOL    HW178703   2.833   7.952   7.057  0.4169 -0.8091  0.1244
25645SOL    HW278704   2.893   7.950   6.918 -0.2885  0.7931 -0.2319
25646SOL     OW78705   2.094   8.902   8.025 -0.7735 -0.4492  0.1853
25646SOL    HW178706   2.142   8.977   7.991  1.3393 -2.1375 -0.7823
25646SOL    HW278707   2.157   8.855   8.079 -1.8693 -1.8531  0.3142
25647SOL     OW78708   2.684   4.507   7.745  0.1946 -0.5666  0.0807
25647SOL    HW178709   2.718   4.594   7.766  2.1672 -1.2876  0.1024
25647SOL    HW278710   2.713   4.452   7.817  0.6900 -1.6149 -0.8814
25648SOL     OW78711   7.910   3.814   8.948  0.2518 -0.2380  0.1288
25648SOL    HW178712   7.991   3.773   8.918  0.5850  0.5632 -0.0894
25648SOL    HW278713   7.841   3.772   8.896  0.3586 -1.8270  1.1976
25649SOL     OW78714   3.529   8.814   6.433  0.4257  0.2674  0.4374
25649SOL    HW178715   3.516   8.728   6.393  1.4148  0.5910 -0.6411
25649SOL    HW278716   3.540   8.873   6.358 -0.8382  1.4479  1.1384
25650SOL     OW78717   1.969   5.054   1.048  0.0906 -0.5296 -0.4575
25650SOL    HW178718   1.919   5.106   0.987  0.1761 -0.5336 -0.5313
25650SOL    HW278719   2.009   4.985   0.994 -0.7768 -1.2339 -0.2228
25651SOL     OW78720   5.097   8.938   5.758  0.3372 -0.1844 -0.3259
25651SOL    HW178721   5.174   8.985   5.725  1.9167 -1.4038  1.3824
25651SOL    HW278722   5.129   8.849   5.774 -2.3082 -1.7097 -2.6422
25652SOL     OW78723   5.665   1.903   5.090 -0.4303 -0.0576  0.2633
25652SOL    HW178724   5.646   1.965   5.019 -0.6806  0.0420  0.4198
25652SOL    HW278725   5.670   1.956   5.169 -2.3449 -0.4317  0.6830
25653SOL     OW78726   4.556   2.388   9.784 -0.1481  0.3821 -0.2551
25653SOL    HW178727   4.543   2.449   9.857 -1.6807  0.6192 -0.6901
25653SOL    HW278728   4.469   2.380   9.744  0.4407 -0.5851 -1.3927
25654SOL     OW78729   5.718   5.332   9.470 -0.2406  0.1684  0.0544
25654SOL    HW178730   5.638   5.342   9.419  0.7778 -1.6844 -2.0812
25654SOL    HW278731   5.689   5.299   9.555 -1.7142 -1.7524 -1.1086
25655SOL     OW78732   2.104   2.081   1.069  0.3173  0.1714 -0.2392
25655SOL    HW178733   2.064   1.998   1.095  0.4018 -0.1385 -1.0916
25655SOL    HW278734   2.195   2.060   1.052  0.4385  0.5298 -0.0473
25656SOL     OW78735   2.822   6.599   1.777 -1.1537 -1.4226 -0.0443
25656SOL    HW178736   2.804   6.685   1.816  0.3921 -0.6074 -1.0367
25656SOL    HW278737   2.737   6.569   1.746 -2.0225 -1.0465  1.7976
25657SOL     OW78738   7.173   4.817   8.914  0.4627 -0.1450 -0.2105
25657SOL    HW178739   7.104   4.852   8.857 -0.0979 -1.3131 -0.2707
25657SOL    HW278740   7.255   4.849   8.874 -0.0343  2.2864  0.5525
25658SOL     OW78741   2.945   9.340   2.838  0.3084  0.1333 -0.6312
25658SOL    HW178742   3.003   9.271   2.871  1.8048  1.6854  0.1460
25658SOL    HW278743   2.897   9.369   2.915  0.7024  0.8880 -0.6643
25659SOL     OW78744   8.209   6.917   5.668 -0.1707 -0.1162  0.0957
25659SOL    HW178745   8.282   6.975   5.690 -1.0637  1.5589 -1.0992
25659SOL    HW278746   8.250   6.831   5.655  1.2880  0.3405  1.3346
25660SOL     OW78747   9.133   1.745   1.186  0.1744 -0.5927  0.5420
25660SOL    HW178748   9.063   1.730   1.249  0.9533 -0.4090  1.4748
25660SOL    HW278749   9.200   1.679   1.206  0.2213 -0.8664 -0.4306
25661SOL     OW78750   3.604   6.361   6.030 -0.7428  0.1236  0.0601
25661SOL    HW178751   3.687   6.314   6.039 -0.4691  0.4275 -0.8671
25661SOL    HW278752   3.599   6.385   5.938 -2.8644 -1.7585 -0.4075
25662SOL     OW78753   3.777   5.353   8.810 -0.3159  0.2425 -0.3042
25662SOL    HW178754   3.795   5.446   8.801 -0.5977  0.3665  0.3272
25662SOL    HW278755   3.732   5.345   8.894 -0.0380 -0.5012 -0.2124
25663SOL     OW78756   0.310   8.086   6.140  0.0109  0.6387 -0.3177
25663SOL    HW178757   0.376   8.087   6.071 -0.9212  2.5217 -1.2506
25663SOL    HW278758   0.236   8.134   6.103 -0.8364  0.9718  1.6813
25664SOL     OW78759   9.558   1.055   3.468 -0.5350  0.1844  0.0619
25664SOL    HW178760   9.576   1.134   3.519  0.6944  1.0337 -1.5942
25664SOL    HW278761   9.583   0.983   3.526 -0.2857  1.0590  1.0817
25665SOL     OW78762   2.170   9.238   6.905  0.1902  0.3305 -0.1112
25665SOL    HW178763   2.118   9.158   6.901 -1.5389  0.9671  4.3214
25665SOL    HW278764   2.251   9.212   6.949 -1.0625  1.0910  2.8999
25666SOL     OW78765   8.350   8.999   8.733 -0.1383 -0.0011  0.5247
25666SOL    HW178766   8.440   8.969   8.741 -0.2750 -0.4651  0.2980
25666SOL    HW278767   8.297   8.924   8.760 -0.5013 -0.2555 -0.8435
25667SOL     OW78768   3.024   8.506   9.293  0.0561  0.3477  0.0911
25667SOL    HW178769   3.033   8.428   9.239 -0.0286  1.4116 -1.5159
25667SOL    HW278770   3.112   8.545   9.293  0.1105  0.2394  0.9301
25668SOL     OW78771   0.965   5.397   6.606  0.5580  1.1072  0.2438
25668SOL    HW178772   0.957   5.302   6.606  1.4848  1.0101 -0.7805
25668SOL    HW278773   1.056   5.414   6.581  0.0787  2.2625 -0.8786
25669SOL     OW78774   3.287   2.913   8.548 -0.1420  0.2095 -0.1701
25669SOL    HW178775   3.285   3.003   8.515 -1.3991 -0.2674 -1.5475
25669SOL    HW278776   3.379   2.888   8.545 -0.1076  0.2749 -3.3983
25670SOL     OW78777   7.154   7.127   0.870  0.4139 -0.2098 -0.0027
25670SOL    HW178778   7.176   7.034   0.866  0.1232 -0.2476 -1.0905
25670SOL    HW278779   7.161   7.149   0.962 -0.7428 -1.6247  0.4719
25671SOL     OW78780   1.069   8.559   1.452 -0.2040 -0.3051 -0.1600
25671SOL    HW178781   1.019   8.587   1.375  1.2357  0.3456 -0.9121
25671SOL    HW278782   1.100   8.472   1.430  0.5462  0.0424 -0.5027
25672SOL     OW78783   5.195   3.208   3.698  0.0155 -0.0187  0.0026
25672SOL    HW178784   5.246   3.136   3.662 -1.2974 -1.7541  1.4679
25672SOL    HW278785   5.113   3.168   3.726 -0.9982  2.1593  0.3646
25673SOL     OW78786   0.885   9.831   1.001  0.4430 -0.2296 -0.3517
25673SOL    HW178787   0.870   9.893   0.930  1.8773 -0.0710 -0.5433
25673SOL    HW278788   0.980   9.823   1.007  0.5142  1.2890  2.8250
25674SOL     OW78789   4.759   2.132   3.777 -0.0054 -0.7750 -0.0919
25674SOL    HW178790   4.720   2.220   3.777 -0.9823 -1.1910 -0.6092
25674SOL    HW278791   4.853   2.148   3.771 -0.1182  0.2527  0.6096
25675SOL     OW78792   6.001   5.813   8.619 -0.1979 -0.1313 -0.8401
25675SOL    HW178793   6.077   5.758   8.598  0.1194  0.7424 -2.0485
25675SOL    HW278794   6.039   5.892   8.658 -0.6031 -0.3660  0.0584
25676SOL     OW78795   0.861   8.223   9.462 -0.0334 -0.5827  0.2682
25676SOL    HW178796   0.882   8.174   9.383  1.1784 -1.2462  0.9664
25676SOL    HW278797   0.858   8.156   9.531 -0.0281  0.1129  0.9522
25677SOL     OW78798   3.979   1.528   2.005 -0.0743  0.6909 -0.1352
25677SOL    HW178799   3.962   1.566   2.091  0.9658  0.4320  0.2116
25677SOL    HW278800   3.992   1.435   2.023 -1.8230  0.2700 -0.8632
25678SOL     OW78801   5.281   0.838   4.642  0.0127 -0.0402 -0.1580
25678SOL    HW178802   5.207   0.777   4.643  0.9969 -1.3435 -1.6495
25678SOL    HW278803   5.253   0.909   4.584 -0.0630 -0.5609 -0.7721
25679SOL     OW78804   4.093   6.082   6.538  0.2961  0.1227 -0.2848
25679SOL    HW178805   4.163   6.124   6.489  0.7632 -1.7387 -1.3183
25679SOL    HW278806   4.056   6.018   6.477 -1.2306 -0.0670  0.7783
25680SOL     OW78807   4.156   6.344   9.051 -0.2557 -0.5043  0.2687
25680SOL    HW178808   4.225   6.400   9.015 -2.6360  3.1553  0.8681
25680SOL    HW278809   4.119   6.300   8.974  0.8069 -0.2229 -0.4390
25681SOL     OW78810   1.535   5.304   2.441 -0.1249  0.2547  0.0564
25681SOL    HW178811   1.474   5.334   2.508  0.2650 -1.4365  1.2483
25681SOL    HW278812   1.606   5.368   2.442 -1.5797  1.9562 -0.9876
25682SOL     OW78813   4.694   6.531   2.498 -0.1475  0.5634  0.2035
25682SOL    HW178814   4.724   6.440   2.499  1.3410  1.0289  0.6438
25682SOL    HW278815   4.775   6.582   2.504 -1.0187  1.8946  0.8737
25683SOL     OW78816   7.097   2.060   9.156  0.3183  0.2336 -0.5334
25683SOL    HW178817   7.155   1.994   9.119  0.1923  1.3074 -2.8647
25683SOL    HW278818   7.009   2.023   9.147  0.3952 -0.1165  0.1092
25684SOL     OW78819   7.925   0.492   3.071  0.6464 -0.0356  0.3676
25684SOL    HW178820   8.008   0.452   3.096  1.2126  0.6020 -0.4425
25684SOL    HW278821   7.869   0.481   3.148  0.3885 -3.3141 -0.1642
25685SOL     OW78822   9.798   5.216   3.580  0.2691 -0.0830  0.0570
25685SOL    HW178823   9.744   5.274   3.526  0.6304  1.2417  1.0840
25685SOL    HW278824   9.875   5.198   3.526  0.2015  0.4823 -0.2359
25686SOL     OW78825   6.935   2.870   9.632  0.5493  0.0915  0.3580
25686SOL    HW178826   6.950   2.950   9.683  2.0930 -0.6683  1.1642
25686SOL    HW278827   6.862   2.826   9.676  2.2756 -0.8761  2.3987
25687SOL     OW78828   6.711   3.827   6.448 -1.1064  0.2458  0.1002
25687SOL    HW178829   6.615   3.827   6.441 -1.1944  1.2673  1.0299
25687SOL    HW278830   6.738   3.745   6.407 -2.3411  0.1851 -0.6434
25688SOL     OW78831   4.411   9.030   8.342  0.2945 -0.4703 -0.0778
25688SOL    HW178832   4.501   9.000   8.357  0.1592 -0.5694  0.6112
25688SOL    HW278833   4.364   9.001   8.421 -0.0404  0.7694  0.1993
25689SOL     OW78834   1.528   8.283   5.176 -0.1561 -0.4752 -0.2204
25689SOL    HW178835   1.520   8.213   5.241 -0.1269 -1.8998 -1.6549
25689SOL    HW278836   1.442   8.286   5.134  0.0689 -0.1613 -0.6667
25690SOL     OW78837   1.062   6.250   2.254 -0.7765 -0.1047 -0.2860
25690SOL    HW178838   1.105   6.327   2.291  0.2093 -1.1667  0.8932
25690SOL    HW278839   0.974   6.252   2.289 -0.3816 -0.1420  0.7441
25691SOL     OW78840   2.731   9.525   1.015  0.1380  0.3830  0.5218
25691SOL    HW178841   2.742   9.603   0.961 -0.3489 -0.0558 -0.2184
25691SOL    HW278842   2.691   9.461   0.957  5.2470 -2.2908 -0.6224
25692SOL     OW78843   0.993   1.111   5.641  0.0039 -0.2269 -0.4060
25692SOL    HW178844   1.046   1.154   5.708  0.7284  2.0231 -2.2881
25692SOL    HW278845   1.054   1.095   5.569 -1.4614  0.7988 -1.9434
25693SOL     OW78846   7.622   8.829   3.220  0.1408 -0.2162 -0.6442
25693SOL    HW178847   7.529   8.849   3.220  0.4619  1.5366  0.5210
25693SOL    HW278848   7.633   8.767   3.291 -0.1040 -0.2683 -0.6507
25694SOL     OW78849   6.997   7.284   4.491 -0.3482  0.1143  0.1808
25694SOL    HW178850   7.048   7.213   4.453  2.5478  1.5551  1.1070
25694SOL    HW278851   6.947   7.243   4.562 -0.5537 -1.3502 -0.7755
25695SOL     OW78852   6.782   6.033   3.218  0.2676 -0.0608  0.3763
25695SOL    HW178853   6.824   6.116   3.239 -2.7524  1.0292  2.6483
25695SOL    HW278854   6.698   6.057   3.179 -0.6226 -2.0396  0.9455
25696SOL     OW78855   0.021   4.174   4.108  0.0074 -0.5697 -0.9764
25696SOL    HW178856  -0.055   4.174   4.167  1.6284  2.9187  1.4117
25696SOL    HW278857   0.097   4.167   4.167  1.6735 -1.2061 -3.0703
25697SOL     OW78858   1.211   7.016   3.199 -0.3359 -0.3245  0.3171
25697SOL    HW178859   1.252   6.946   3.147 -0.7923 -0.3456 -0.0179
25697SOL    HW278860   1.155   6.970   3.261 -2.6697 -0.2550 -1.5671
25698SOL     OW78861   4.138   3.882   4.085 -0.0492  0.3016 -0.7838
25698SOL    HW178862   4.093   3.797   4.088  1.1782 -0.4517 -1.9692
25698SOL    HW278863   4.156   3.895   3.992  0.8850  1.2554 -0.4859
25699SOL     OW78864   4.385   8.748   2.662 -0.0010  0.3452 -0.0489
25699SOL    HW178865   4.434   8.667   2.647  0.3287  0.4019  0.6843
25699SOL    HW278866   4.307   8.738   2.608  0.6161  0.0783 -0.9151
25700SOL     OW78867   8.022   1.052   8.776 -0.8680  0.6420 -0.2866
25700SOL    HW178868   7.944   1.017   8.732 -1.5253 -0.0916  1.3970
25700SOL    HW278869   8.089   0.986   8.761 -1.1415  0.3025 -0.0135
25701SOL     OW78870   7.691   6.996   7.093 -0.3202  0.2557  0.3463
25701SOL    HW178871   7.765   6.989   7.033 -1.5498 -0.2905 -1.1981
25701SOL    HW278872   7.728   7.032   7.173  1.6359 -0.1974 -0.2955
25702SOL     OW78873   9.323   5.058   8.386  0.3297  0.0564 -0.0226
25702SOL    HW178874   9.279   5.072   8.303  3.4098  0.5582 -1.7304
25702SOL    HW278875   9.316   4.963   8.401 -0.5511  0.0096 -0.6713
25703SOL     OW78876   0.684   2.999   6.592  0.1349 -0.2755  1.4507
25703SOL    HW178877   0.670   3.090   6.616  2.8400  0.3320  1.0796
25703SOL    HW278878   0.688   2.952   6.675  1.8890  0.5302  1.8617
25704SOL     OW78879   7.217   1.527   5.121 -0.3100 -0.6763 -0.2258
25704SOL    HW178880   7.142   1.555   5.175 -1.8861 -2.1131 -1.5626
25704SOL    HW278881   7.235   1.602   5.065 -2.4777 -1.1135 -1.6431
25705SOL     OW78882   2.612   8.383   8.418  0.1146 -0.1699  0.3564
25705SOL    HW178883   2.678   8.336   8.367 -0.0368 -0.2383  0.2196
25705SOL    HW278884   2.549   8.315   8.444 -0.3342  0.0134 -0.2065
25706SOL     OW78885   1.979   7.993   3.404  0.1911 -0.3517 -0.1283
25706SOL    HW178886   1.943   7.927   3.345  1.5268 -0.5267 -0.7968
25706SOL    HW278887   2.040   7.944   3.460  2.4062  0.4875 -1.6620
25707SOL     OW78888   4.432   3.715   0.880  0.2840  0.2371  0.4144
25707SOL    HW178889   4.413   3.647   0.944 -0.6869 -0.0036 -0.1145
25707SOL    HW278890   4.348   3.731   0.836  1.3401 -1.1503 -2.3065
25708SOL     OW78891   2.849   1.185   5.420  0.0974 -0.6529  0.2373
25708SOL    HW178892   2.924   1.232   5.384 -0.0134 -2.8938 -3.4249
25708SOL    HW278893   2.868   1.177   5.513  2.8415  1.5342 -0.0007
25709SOL     OW78894   8.930   5.448   7.457  0.1449  0.7358  0.2320
25709SOL    HW178895   8.861   5.421   7.517 -0.2666  0.6140 -0.2898
25709SOL    HW278896   8.902   5.535   7.427  0.3509  0.7961  0.2122
25710SOL     OW78897   5.734   3.707   8.485 -0.6677  0.6384  0.3041
25710SOL    HW178898   5.827   3.698   8.505 -0.8404 -1.2995  0.4296
25710SOL    HW278899   5.730   3.776   8.419  0.9384  0.1927 -0.2948
25711SOL     OW78900   3.892   3.236   0.466  0.2133  0.2312 -0.1757
25711SOL    HW178901   3.944   3.314   0.448  0.6362 -0.2953 -1.3259
25711SOL    HW278902   3.854   3.252   0.553  1.6672  0.9568  0.3612
25712SOL     OW78903   1.387   0.409   4.793  0.3408 -0.8086  0.1627
25712SOL    HW178904   1.316   0.459   4.753 -0.5346 -1.0116  1.4057
25712SOL    HW278905   1.441   0.380   4.719 -0.9703 -0.8182 -0.8220
25713SOL     OW78906   1.248   9.764   0.268  0.5249  0.4563 -0.7681
25713SOL    HW178907   1.214   9.694   0.213 -1.4816  1.2586 -0.6488
25713SOL    HW278908   1.306   9.815   0.210  0.3981 -0.1311 -1.4215
25714SOL     OW78909   6.651   3.309   8.946  0.7615 -0.0498 -0.1990
25714SOL    HW178910   6.700   3.283   9.024 -0.6368 -0.3136  0.6298
25714SOL    HW278911   6.674   3.401   8.933 -0.2023  0.4881  1.5261
25715SOL     OW78912   3.441   3.785   5.096  0.2409  0.0557  0.4709
25715SOL    HW178913   3.522   3.837   5.090 -0.3792  0.9085 -1.3028
25715SOL    HW278914   3.378   3.835   5.044 -0.8887 -1.5773  0.2300
25716SOL     OW78915   8.104   0.095   4.431 -0.0144 -0.6799 -0.1058
25716SOL    HW178916   8.121   0.178   4.476 -2.3585  0.7627 -1.6561
25716SOL    HW278917   8.158   0.098   4.353 -1.2175  0.1725 -0.9448
25717SOL     OW78918   2.993   0.873   2.385  0.0277 -0.7470  0.1214
25717SOL    HW178919   3.021   0.838   2.470 -0.3084  1.6065  1.3004
25717SOL    HW278920   2.898   0.861   2.385  0.1647 -2.0091 -0.5868
25718SOL     OW78921   0.703   9.564   8.740 -0.6807 -0.0199  0.5932
25718SOL    HW178922   0.749   9.520   8.668  0.4559 -1.0988  1.9131
25718SOL    HW278923   0.705   9.657   8.718 -2.1439 -0.4501 -1.7356
25719SOL     OW78924   5.053   9.134   4.859 -0.0344  0.0733 -0.3647
25719SOL    HW178925   5.044   9.227   4.881  1.4340 -0.0945  1.1981
25719SOL    HW278926   4.963   9.104   4.846 -0.5960  1.5265 -0.0902
25720SOL     OW78927   1.745   8.731   4.392  0.5212 -0.0440  0.1628
25720SOL    HW178928   1.655   8.748   4.420  0.6348  0.0221  0.4910
25720SOL    HW278929   1.744   8.749   4.298 -0.0710 -1.1214 -0.0516
25721SOL     OW78930   3.683   5.912   8.796  0.0199  0.7498 -0.1969
25721SOL    HW178931   3.766   5.929   8.753 -0.1716  1.5396 -0.2600
25721SOL    HW278932   3.701   5.838   8.854  0.2432 -0.4134 -1.6922
25722SOL     OW78933   5.288   0.732   9.773  0.2277 -0.1363 -0.2593
25722SOL    HW178934   5.194   0.735   9.788  0.2397  0.1814 -0.2421
25722SOL    HW278935   5.297   0.696   9.684  0.1676 -2.2906  0.5451
25723SOL     OW78936   1.214   9.276   4.845 -0.4964 -0.0241  0.0569
25723SOL    HW178937   1.264   9.353   4.820 -2.0999  0.1763 -2.9967
25723SOL    HW278938   1.274   9.225   4.900  2.1904  1.2659 -1.4691
25724SOL     OW78939   3.579   0.286   0.531 -0.3151 -0.2271  0.1344
25724SOL    HW178940   3.484   0.285   0.516 -0.1363  0.3323 -1.2031
25724SOL    HW278941   3.609   0.203   0.493 -0.3330 -0.7323  1.1856
25725SOL     OW78942   9.645   9.733   4.333  0.3565 -0.5501  0.1987
25725SOL    HW178943   9.612   9.685   4.409  1.0509  0.0976  0.9183
25725SOL    HW278944   9.733   9.761   4.358  0.2938  0.3528 -0.5477
25726SOL     OW78945   2.618   4.933   9.069 -0.2032  0.1549 -0.2778
25726SOL    HW178946   2.690   4.967   9.122  1.9954 -1.6313 -1.9343
25726SOL    HW278947   2.595   4.849   9.109  0.8088 -0.7441 -1.5096
25727SOL     OW78948   3.535   1.838   6.530 -0.5110 -0.1978 -0.3220
25727SOL    HW178949   3.540   1.889   6.449  1.3767 -1.0612 -0.8222
25727SOL    HW278950   3.614   1.784   6.529 -1.2813 -1.4573  1.3031
25728SOL     OW78951   5.252   4.660   6.248 -0.3373  0.0937  0.0778
25728SOL    HW178952   5.253   4.670   6.153  1.3011  0.1799  0.0811
25728SOL    HW278953   5.305   4.733   6.280  0.2717 -0.7293  0.9679
25729SOL     OW78954   5.009   5.164   7.182  0.8244  0.0273 -0.4236
25729SOL    HW178955   4.930   5.150   7.130 -1.3536  1.3019  2.3423
25729SOL    HW278956   5.037   5.075   7.206 -1.1492 -0.3898  0.4802
25730SOL     OW78957   1.013   1.247   0.457 -0.2478  0.3456  0.2652
25730SOL    HW178958   1.008   1.342   0.450  0.5121  0.2948 -1.7474
25730SOL    HW278959   0.936   1.215   0.410 -0.6319 -0.0535  1.1382
25731SOL     OW78960   5.107   0.528   5.978  0.1744  0.0157 -0.6215
25731SOL    HW178961   5.073   0.474   5.907 -0.7868 -1.8200  1.1264
25731SOL    HW278962   5.061   0.611   5.969 -0.1922 -0.3115 -1.9260
25732SOL     OW78963   6.307   6.093   8.582 -0.1870 -0.4115  0.1069
25732SOL    HW178964   6.276   6.025   8.521  1.4739 -0.5807 -0.5956
25732SOL    HW278965   6.259   6.076   8.663  0.0040 -2.2946 -0.1229
25733SOL     OW78966   2.475   6.054   5.261  0.3463  0.0669  0.4474
25733SOL    HW178967   2.519   6.126   5.215  1.2258 -1.2412 -0.8518
25733SOL    HW278968   2.434   6.002   5.192  0.1734 -0.9751  1.2995
25734SOL     OW78969   9.735   1.345   3.058  0.0071  0.5757  0.1164
25734SOL    HW178970   9.825   1.336   3.090  0.9435 -0.4443 -2.5275
25734SOL    HW278971   9.726   1.437   3.035 -0.0892  0.9437  1.5329
25735SOL     OW78972   7.414   3.375   3.115 -0.5357  0.0396  0.3005
25735SOL    HW178973   7.374   3.460   3.132 -1.3708 -0.2787 -0.0017
25735SOL    HW278974   7.345   3.312   3.136  0.0721 -0.5667  0.5161
25736SOL     OW78975   8.942   2.508   4.372 -0.1432  0.3338  0.4637
25736SOL    HW178976   8.988   2.491   4.454 -1.0753 -3.3446  0.3985
25736SOL    HW278977   8.850   2.510   4.396 -0.3242  1.7570 -0.2191
25737SOL     OW78978   0.010   0.611   6.699  0.7721  0.6389 -1.0747
25737SOL    HW178979   0.054   0.536   6.739 -0.8941  0.0496 -0.2890
25737SOL    HW278980   0.077   0.650   6.642  2.5788  0.2820  0.6845
25738SOL     OW78981   4.981   2.024   8.670 -0.1353  0.3032 -0.0667
25738SOL    HW178982   5.071   2.039   8.699 -0.0450  1.4843 -0.8723
25738SOL    HW278983   4.984   2.037   8.575 -1.2590  0.9492 -0.0304
25739SOL     OW78984   7.864   9.797   3.041  0.4817 -0.6157 -0.2081
25739SOL    HW178985   7.905   9.712   3.059  1.1344 -0.4078 -0.6669
25739SOL    HW278986   7.799   9.808   3.110  0.3791 -1.4964 -0.1528
25740SOL     OW78987   7.741   2.229   2.184 -0.0657 -0.4086 -0.2039
25740SOL    HW178988   7.737   2.324   2.196 -0.4453 -0.7565  3.9699
25740SOL    HW278989   7.654   2.205   2.153 -0.6024  0.4648  0.5784
25741SOL     OW78990   4.468   9.571   7.817  0.1022  0.5063 -0.2400
25741SOL    HW178991   4.546   9.517   7.828 -1.7824 -2.0161  1.6917
25741SOL    HW278992   4.486   9.650   7.868  0.1889 -1.5370  3.2168
25742SOL     OW78993   3.137   8.059   5.296  0.1514 -0.1067  0.2262
25742SOL    HW178994   3.216   8.053   5.349 -0.8959  0.9094  2.0014
25742SOL    HW278995   3.114   7.968   5.275  0.9194 -0.4930  1.0296
25743SOL     OW78996   7.567   4.356   4.449 -0.3613  0.6626  0.4308
25743SOL    HW178997   7.472   4.356   4.462 -0.7926  0.9459 -2.1221
25743SOL    HW278998   7.581   4.294   4.377  1.3111  1.0362  0.3955
25744SOL     OW78999   0.601   3.488   4.235 -0.4214  0.1372 -0.0602
25744SOL    HW179000   0.560   3.466   4.152 -0.0609 -2.6530  0.4116
25744SOL    HW279001   0.578   3.416   4.293  1.6087  0.6301  1.4728
25745SOL     OW79002   2.264   2.625   2.930  0.0745 -0.1845  0.1093
25745SOL    HW179003   2.249   2.694   2.995 -0.0025 -1.5734  1.6241
25745SOL    HW279004   2.178   2.584   2.919  0.0770  0.0719 -0.9293
25746SOL     OW79005   9.739   8.714   4.529 -0.2236  0.0392 -0.0022
25746SOL    HW179006   9.742   8.717   4.433 -3.4754  1.8306 -0.1912
25746SOL    HW279007   9.780   8.796   4.557  0.3064 -0.2706  0.1419
25747SOL     OW79008   6.825   6.420   8.100  0.2372 -0.4264 -0.2048
25747SOL    HW179009   6.834   6.479   8.174  0.3004  0.7420 -1.1167
25747SOL    HW279010   6.914   6.388   8.084  0.1868 -0.8540  0.3477
25748SOL     OW79011   6.299   4.358   2.108  0.0150 -0.1307 -0.3094
25748SOL    HW179012   6.341   4.399   2.183  1.1401 -0.9011 -0.5016
25748SOL    HW279013   6.334   4.406   2.032 -2.0403  1.4736 -0.3387
25749SOL     OW79014   9.329   9.608   5.263  0.4786  0.3017 -0.6158
25749SOL    HW179015   9.272   9.595   5.339 -0.1129  0.2515 -1.0630
25749SOL    HW279016   9.365   9.696   5.275  1.1301 -0.0581  0.2005
25750SOL     OW79017   3.273   9.290   2.564 -0.1999  0.8089  0.0145
25750SOL    HW179018   3.269   9.360   2.498  1.4438 -0.5941 -1.6714
25750SOL    HW279019   3.226   9.217   2.524  2.3609 -0.6768 -0.5480
25751SOL     OW79020   4.847   1.655   0.613 -0.0705 -0.0456  0.1144
25751SOL    HW179021   4.788   1.707   0.667  0.5535  0.2788  0.4921
25751SOL    HW279022   4.880   1.587   0.672  0.7795  0.4382  0.2237
25752SOL     OW79023   4.902   5.537   6.160  0.1688 -0.5377 -0.6924
25752SOL    HW179024   4.954   5.456   6.163 -0.0205 -0.6628  2.4517
25752SOL    HW279025   4.832   5.518   6.098  0.2652 -2.7180 -0.2220
25753SOL     OW79026   4.370   1.676   4.451 -0.5068  0.0037 -0.1942
25753SOL    HW179027   4.396   1.727   4.528 -0.4426  1.6320 -1.2437
25753SOL    HW279028   4.283   1.708   4.430 -0.2724  0.0335 -1.1518
25754SOL     OW79029   0.335   7.909   2.380 -0.5840  0.3155 -0.3395
25754SOL    HW179030   0.278   7.950   2.315 -1.6521 -0.8957 -0.2061
25754SOL    HW279031   0.424   7.928   2.350 -1.0456  1.9970 -0.7114
25755SOL     OW79032   2.610   9.523   4.060  0.0182 -0.0136 -0.3283
25755SOL    HW179033   2.548   9.553   4.127 -1.4479 -1.1007 -1.1453
25755SOL    HW279034   2.616   9.596   3.998 -1.3279 -0.2853 -0.8121
25756SOL     OW79035   1.730   7.057   1.282 -0.3612  0.1118 -0.1069
25756SOL    HW179036   1.675   7.125   1.242  0.9871  0.7496 -0.9435
25756SOL    HW279037   1.691   6.975   1.252 -1.8248  0.4882  0.6558
25757SOL     OW79038   8.839   3.325   6.705  0.4568 -0.0332  0.4179
25757SOL    HW179039   8.920   3.294   6.744  0.6757 -0.5371 -0.4096
25757SOL    HW279040   8.777   3.331   6.778  1.2781  0.5306  1.0819
25758SOL     OW79041   4.453   7.483   3.941 -0.4493  0.8243 -0.3649
25758SOL    HW179042   4.505   7.431   4.003  1.0018  1.6957 -0.7988
25758SOL    HW279043   4.518   7.531   3.890 -1.6978  1.9641 -0.9449
25759SOL     OW79044   1.376   7.960   7.581  0.2678 -0.2737 -0.0311
25759SOL    HW179045   1.419   8.043   7.559  2.3214 -1.3713 -0.4989
25759SOL    HW279046   1.387   7.906   7.502  0.8647 -1.6769  0.9626
25760SOL     OW79047   1.803   5.559   8.574  0.1591 -0.0306 -0.4562
25760SOL    HW179048   1.763   5.585   8.657  1.7853 -0.4942  0.5281
25760SOL    HW279049   1.894   5.539   8.597  0.8837  0.6316 -2.4980
25761SOL     OW79050   5.092   2.413   6.521 -0.4031 -0.0624  0.1661
25761SOL    HW179051   5.070   2.491   6.471  0.4363  0.3038  0.3491
25761SOL    HW279052   5.014   2.395   6.574 -0.5977  0.6450  0.1210
25762SOL     OW79053   0.646   2.271   7.866 -0.0950  0.1294 -1.0155
25762SOL    HW179054   0.670   2.182   7.891  1.6636  0.8352 -0.0131
25762SOL    HW279055   0.569   2.290   7.918  1.2468  0.1903  1.0635
25763SOL     OW79056   7.182   7.809   7.480 -0.1499 -0.3063  0.6590
25763SOL    HW179057   7.160   7.876   7.415  0.3611 -0.0792  0.7148
25763SOL    HW279058   7.139   7.730   7.447  2.0975 -0.8084 -1.3223
25764SOL     OW79059   4.532   7.847   4.637  0.0329  0.3882 -0.0123
25764SOL    HW179060   4.592   7.866   4.565 -0.5767 -0.2532 -0.7068
25764SOL    HW279061   4.551   7.914   4.703  1.2373  0.4288 -0.3795
25765SOL     OW79062   6.639   6.773   5.968  0.0868 -0.0705  0.0478
25765SOL    HW179063   6.705   6.791   5.901  2.5833 -3.1612  1.3964
25765SOL    HW279064   6.566   6.734   5.920  0.1315  1.3560 -1.2542
25766SOL     OW79065   7.141   2.617   7.222  0.0857 -0.0781 -0.2821
25766SOL    HW179066   7.151   2.593   7.130 -1.5211 -3.2507  0.2094
25766SOL    HW279067   7.229   2.636   7.252  0.7296  0.3269 -2.2938
25767SOL     OW79068   1.638   6.437   3.223 -0.7196  0.7354 -0.1028
25767SOL    HW179069   1.550   6.473   3.233 -0.8008  0.5720 -0.2115
25767SOL    HW279070   1.635   6.354   3.271 -0.5907  0.7842 -0.0099
25768SOL     OW79071   4.205   9.590   2.813  0.5901  0.1411  0.3993
25768SOL    HW179072   4.266   9.517   2.813  1.4708  0.8539  0.9097
25768SOL    HW279073   4.208   9.623   2.724 -0.7059 -1.1480 -0.1513
25769SOL     OW79074   2.134   4.621   5.723 -0.5254 -0.6940 -0.5451
25769SOL    HW179075   2.132   4.594   5.631  0.7635  1.5301 -1.3075
25769SOL    HW279076   2.101   4.710   5.722  0.0102 -0.4558  1.0930
25770SOL     OW79077   4.977   7.508   9.041 -0.1160 -0.6271 -0.3049
25770SOL    HW179078   4.952   7.578   9.102 -0.2145 -0.7955 -0.1479
25770SOL    HW279079   5.020   7.553   8.969  0.3242 -0.4527  0.0589
25771SOL     OW79080   9.567   1.168   0.721  0.4113 -0.0396 -0.3915
25771SOL    HW179081   9.641   1.201   0.772 -1.2409  2.7561  0.3910
25771SOL    HW279082   9.571   1.217   0.638  0.1969 -0.8831 -0.9160
25772SOL     OW79083   3.615   9.740   2.868 -0.1038 -0.0132  0.1671
25772SOL    HW179084   3.541   9.729   2.808 -0.2209 -0.6697  0.4189
25772SOL    HW279085   3.673   9.666   2.848 -0.6850 -0.8937  1.6196
25773SOL     OW79086   9.005   9.784   5.125  0.5131  0.2162  0.4651
25773SOL    HW179087   8.910   9.770   5.120  0.2038  2.0135  0.5417
25773SOL    HW279088   9.039   9.705   5.169 -0.9140 -0.5293  0.2883
25774SOL     OW79089   3.719   3.702   9.319  0.0980 -0.0527 -0.8194
25774SOL    HW179090   3.676   3.622   9.287 -0.0766  0.8170 -2.9150
25774SOL    HW279091   3.781   3.671   9.385  0.7472 -2.0670 -2.2671
25775SOL     OW79092   3.419   0.880   6.859  0.1628  0.0250  0.0238
25775SOL    HW179093   3.335   0.903   6.818  1.4233  1.1910 -2.1010
25775SOL    HW279094   3.429   0.786   6.842 -0.1758  0.1253 -0.7962
25776SOL     OW79095   7.920   8.195   8.736  0.2373 -0.0918  0.0304
25776SOL    HW179096   7.993   8.156   8.785 -0.5663 -1.2034  0.3763
25776SOL    HW279097   7.853   8.211   8.803 -0.0018  0.5224 -0.3525
25777SOL     OW79098   4.172   3.842   8.131 -0.7581  0.2277 -0.3280
25777SOL    HW179099   4.202   3.831   8.040  5.4955  0.8434  1.2078
25777SOL    HW279100   4.170   3.753   8.167 -1.8067  0.1143 -0.6295
25778SOL     OW79101   1.561   2.241   1.745  0.2318 -0.0845 -0.2555
25778SOL    HW179102   1.644   2.267   1.705 -0.4719 -0.5116 -2.0754
25778SOL    HW279103   1.499   2.308   1.717  0.1385  0.8928  2.0604
25779SOL     OW79104   4.204   1.627   6.929  0.4981 -0.2765 -0.1623
25779SOL    HW179105   4.188   1.607   7.021  1.3527  0.3852  0.1476
25779SOL    HW279106   4.245   1.548   6.894 -0.7189 -0.8965 -0.2402
25780SOL     OW79107   4.120   8.775   3.084 -0.3646 -0.1205 -0.3975
25780SOL    HW179108   4.201   8.729   3.063  0.2075  0.7344 -0.1001
25780SOL    HW279109   4.077   8.787   2.999 -0.8182 -1.6937 -0.4311
25781SOL     OW79110   1.816   7.668   5.938  0.5194 -0.3971  0.2404
25781SOL    HW179111   1.902   7.627   5.943  1.1886  0.4239 -2.4578
25781SOL    HW279112   1.831   7.759   5.963  0.6194 -0.0879 -0.8887
25782SOL     OW79113   3.288   5.512   5.496  0.1895  0.0361 -0.3539
25782SOL    HW179114   3.250   5.426   5.512  2.1136 -0.9607 -0.8444
25782SOL    HW279115   3.256   5.537   5.410  0.6509 -0.7921 -0.7742
25783SOL     OW79116   0.993   7.598   6.176  0.3559 -0.7283  0.3402
25783SOL    HW179117   0.911   7.626   6.136  0.7611 -1.7153 -1.2950
25783SOL    HW279118   0.971   7.516   6.220  0.6406 -1.5787 -1.0282
25784SOL     OW79119   5.176   4.945   6.991  0.1896 -0.1800  0.0023
25784SOL    HW179120   5.190   4.852   6.973 -1.9898 -0.6669  0.4383
25784SOL    HW279121   5.249   4.971   7.046  0.6679 -1.7397  0.1473
25785SOL     OW79122   4.712   1.312   4.375 -0.1816 -0.3378 -0.0494
25785SOL    HW179123   4.712   1.271   4.289 -1.7786  2.0589 -1.2985
25785SOL    HW279124   4.711   1.406   4.357  0.1975  0.2522  2.6101
25786SOL     OW79125   5.418   1.267   5.154 -0.5453  0.0549  0.0395
25786SOL    HW179126   5.480   1.194   5.154 -0.2689  0.2442 -1.8696
25786SOL    HW279127   5.334   1.227   5.176 -0.1395 -0.5821  0.4645
25787SOL     OW79128   1.694   5.771   4.597  0.5536 -0.1469  0.3436
25787SOL    HW179129   1.758   5.709   4.562  2.0057  0.7153  1.3804
25787SOL    HW279130   1.713   5.853   4.552 -1.9127 -0.5504 -1.6661
25788SOL     OW79131   9.259   7.538   2.488  0.4527  0.0159 -0.3697
25788SOL    HW179132   9.226   7.472   2.548 -1.9811  1.6367  0.2233
25788SOL    HW279133   9.345   7.506   2.462 -0.3741 -3.0532  0.3047
25789SOL     OW79134   5.138   5.158   3.834  0.3439  0.1665  0.0207
25789SOL    HW179135   5.178   5.075   3.812 -2.1464 -0.9891 -0.4821
25789SOL    HW279136   5.120   5.152   3.928 -1.7914 -0.8681 -0.3851
25790SOL     OW79137   8.812   7.039   6.064 -0.8711  0.5959 -0.5128
25790SOL    HW179138   8.831   7.048   6.158 -2.0788  1.0509 -0.2959
25790SOL    HW279139   8.819   6.945   6.047 -1.7789  0.3642  0.3017
25791SOL     OW79140   1.639   3.645   7.464  0.0024 -0.2080 -0.5432
25791SOL    HW179141   1.544   3.651   7.458 -0.1456 -1.0566  0.7202
25791SOL    HW279142   1.658   3.552   7.462  0.7791 -0.0606 -0.3705
25792SOL     OW79143   1.945   0.012   5.026 -0.0318  0.3900  0.3506
25792SOL    HW179144   1.978   0.094   5.064  0.2424 -0.2238  1.4548
25792SOL    HW279145   2.003  -0.056   5.060  0.6316 -0.1317 -1.6897
25793SOL     OW79146   1.814   1.489   3.999  0.6056 -0.1040  0.1418
25793SOL    HW179147   1.766   1.503   3.918  0.9257 -1.6201 -0.3488
25793SOL    HW279148   1.895   1.539   3.988  1.0273 -0.9599 -0.8630
25794SOL     OW79149   8.594   7.730   3.315 -0.3455 -0.1812  0.4809
25794SOL    HW179150   8.637   7.644   3.315 -0.8027 -0.4194  0.1460
25794SOL    HW279151   8.509   7.714   3.355 -1.0299 -0.2141 -0.9069
25795SOL     OW79152   4.472   4.117   0.306 -0.3910  0.2876 -0.0252
25795SOL    HW179153   4.493   4.098   0.397  1.9478  2.2620 -0.0388
25795SOL    HW279154   4.388   4.163   0.310 -0.2376  0.4904  1.1465
25796SOL     OW79155   5.117   8.021   9.755  0.0143 -0.3814  0.5120
25796SOL    HW179156   5.139   8.110   9.728 -0.5279 -0.4207 -0.0972
25796SOL    HW279157   5.201   7.976   9.762  0.1798 -0.4501 -1.4595
25797SOL     OW79158   2.198   7.198   8.281  0.5615 -0.2346 -0.4485
25797SOL    HW179159   2.178   7.160   8.196  0.8087 -0.3032 -0.4750
25797SOL    HW279160   2.220   7.289   8.262  1.2800 -0.4224 -0.5359
25798SOL     OW79161   7.325   2.372   4.368 -0.2722  0.1016  0.3262
25798SOL    HW179162   7.352   2.281   4.354  1.3396  0.9445 -3.3601
25798SOL    HW279163   7.230   2.369   4.372 -0.3182 -1.6849 -0.9378
25799SOL     OW79164   5.888   6.904   7.483 -0.1578  0.1875 -0.2910
25799SOL    HW179165   5.811   6.850   7.500  0.2915 -0.4515 -0.2506
25799SOL    HW279166   5.895   6.960   7.561  2.4494 -3.3879  2.4406
25800SOL     OW79167   8.495   6.295   8.142  0.6666 -0.0658  0.5497
25800SOL    HW179168   8.540   6.309   8.059 -0.5934 -0.1766 -0.1780
25800SOL    HW279169   8.426   6.361   8.144 -0.5266 -1.2627  0.6050
25801SOL     OW79170   8.529   5.377   4.707 -0.0066  0.3530 -0.5543
25801SOL    HW179171   8.456   5.330   4.749  0.7957 -0.0674  0.4374
25801SOL    HW279172   8.488   5.436   4.645 -1.2261  0.4822  0.3419
25802SOL     OW79173   3.911   4.278   0.771 -0.5753 -0.4519  0.1948
25802SOL    HW179174   3.822   4.260   0.743 -0.3352 -0.2322 -0.7230
25802SOL    HW279175   3.939   4.196   0.814 -1.1701 -0.5554  0.3984
25803SOL     OW79176   6.108   0.224   9.442  0.0692 -0.0655 -0.3843
25803SOL    HW179177   6.115   0.174   9.361 -0.5890  1.7256 -1.6056
25803SOL    HW279178   6.152   0.307   9.424 -1.6528  1.1093  0.4141
25804SOL     OW79179   0.606   9.468   2.249 -0.2810  0.1752 -0.7995
25804SOL    HW179180   0.644   9.459   2.162  0.0078 -0.8144 -0.5781
25804SOL    HW279181   0.641   9.551   2.283 -1.2771  1.1605 -2.0425
25805SOL     OW79182   6.282   0.487   7.235 -0.3749 -0.0298  0.3965
25805SOL    HW179183   6.197   0.483   7.192 -1.5905 -5.2659  2.5131
25805SOL    HW279184   6.346   0.477   7.164 -1.9986 -2.9921 -0.7848
25806SOL     OW79185   0.580   6.925   9.473  0.3234  0.2806  0.0292
25806SOL    HW179186   0.524   6.861   9.428  0.1236  0.9752 -0.7459
25806SOL    HW279187   0.524   6.963   9.540  1.0270 -1.7799  1.9444
25807SOL     OW79188   0.157   6.630   6.385  1.0713 -0.2438  0.2994
25807SOL    HW179189   0.188   6.559   6.441  2.0808 -0.9522 -1.1007
25807SOL    HW279190   0.215   6.704   6.405  0.4588  0.0007  1.2529
25808SOL     OW79191   1.538   6.162   4.077 -0.8177  0.1080  0.3656
25808SOL    HW179192   1.622   6.201   4.102 -1.3457  0.8567  1.0386
25808SOL    HW279193   1.548   6.069   4.096 -1.1303  0.6007  3.3974
25809SOL     OW79194   6.463   9.633   4.500  0.6468 -0.0360 -0.7032
25809SOL    HW179195   6.531   9.571   4.474  0.2892 -1.0152  0.5700
25809SOL    HW279196   6.483   9.713   4.453  1.9032 -0.7198 -1.3676
25810SOL     OW79197   7.342   2.325   4.970 -0.2156 -0.0765  0.4878
25810SOL    HW179198   7.271   2.388   4.982  0.6950  0.6609  2.5343
25810SOL    HW279199   7.419   2.369   5.006  0.9577 -1.4503 -0.2493
25811SOL     OW79200   9.464   4.162   0.818  0.0653 -0.3843 -0.0353
25811SOL    HW179201   9.372   4.145   0.795  0.3130  0.2844 -1.5994
25811SOL    HW279202   9.510   4.082   0.792  0.0699 -0.3652 -0.0850
25812SOL     OW79203   3.317   6.697   2.245  0.8841 -0.1355  0.0201
25812SOL    HW179204   3.279   6.781   2.219 -0.8158 -1.0821 -0.6601
25812SOL    HW279205   3.277   6.633   2.187 -0.3695 -1.8756  2.6201
25813SOL     OW79206   6.584   0.493   0.861 -0.3614  0.1869 -0.1104
25813SOL    HW179207   6.655   0.449   0.815 -1.6940 -0.8981 -1.2673
25813SOL    HW279208   6.505   0.461   0.818 -1.5639  1.2631  1.1822
25814SOL     OW79209   3.218   8.466   6.354  0.0539  0.1989  0.3598
25814SOL    HW179210   3.285   8.397   6.346  1.6836  1.6340  0.9563
25814SOL    HW279211   3.257   8.541   6.310 -2.6632  0.1741 -2.3908
25815SOL     OW79212   7.679   1.272   2.762  0.4414 -0.3742 -0.0565
25815SOL    HW179213   7.626   1.253   2.840 -1.4754  0.6876 -1.0437
25815SOL    HW279214   7.639   1.221   2.692  1.3072 -0.2651 -0.6533
25816SOL     OW79215   1.572   9.199   6.166 -0.4383  0.1764  0.0658
25816SOL    HW179216   1.574   9.218   6.072  1.1289 -0.3915 -0.0472
25816SOL    HW279217   1.511   9.125   6.174 -1.4403  0.9379 -0.3382
25817SOL     OW79218   4.312   6.202   6.430  0.3001  0.0583  0.7347
25817SOL    HW179219   4.309   6.297   6.416 -0.7934 -0.0706 -0.1144
25817SOL    HW279220   4.398   6.185   6.468  0.4728  1.4006  0.9845
25818SOL     OW79221   4.012   6.296   8.581 -0.4184 -0.5497  0.0703
25818SOL    HW179222   4.016   6.388   8.555  0.8566 -0.2972  1.0888
25818SOL    HW279223   4.025   6.247   8.499  2.4831  0.2036 -0.0312
25819SOL     OW79224   9.012   6.327   6.383 -0.3057 -0.6484  0.3241
25819SOL    HW179225   8.980   6.237   6.393 -0.1333 -0.6433  0.9155
25819SOL    HW279226   9.034   6.355   6.471  1.8220 -0.8297 -0.1121
25820SOL     OW79227   9.706   2.212   1.390 -0.3030 -0.2388 -0.9847
25820SOL    HW179228   9.728   2.129   1.347 -0.5999  0.4141 -2.4431
25820SOL    HW279229   9.665   2.265   1.322  0.0181  1.1796 -0.1253
25821SOL     OW79230   5.978   2.464   0.343 -0.1630  0.5623  0.4294
25821SOL    HW179231   5.984   2.378   0.302 -0.5249  0.8523 -0.2579
25821SOL    HW279232   5.885   2.476   0.362  0.0375  0.3217  1.6002
25822SOL     OW79233   5.573   7.621   4.677  0.5155  0.2099  0.0058
25822SOL    HW179234   5.536   7.656   4.758  0.6275  0.6081 -0.1126
25822SOL    HW279235   5.661   7.591   4.702 -0.3115 -1.9622  0.5978
25823SOL     OW79236   3.781   2.104   8.081  0.0887  0.3240  0.3930
25823SOL    HW179237   3.726   2.089   8.004  0.1214  1.0562  0.2190
25823SOL    HW279238   3.725   2.085   8.156 -0.1440  0.2549  0.2011
25824SOL     OW79239   0.335   5.610   4.536  0.2883  0.1962  0.1607
25824SOL    HW179240   0.339   5.690   4.588 -1.5688  0.5356 -0.1377
25824SOL    HW279241   0.247   5.610   4.498  0.6487 -1.4039 -0.7953
25825SOL     OW79242   3.500   8.382   8.242  0.3263 -0.1598 -0.3046
25825SOL    HW179243   3.499   8.310   8.178 -0.9464 -0.4630  0.0218
25825SOL    HW279244   3.411   8.383   8.277  0.4401  1.3455 -0.0236
25826SOL     OW79245   4.138   4.966   7.127  0.2374  0.0607  0.1826
25826SOL    HW179246   4.229   4.957   7.099 -0.0644 -0.4576 -0.6647
25826SOL    HW279247   4.113   5.054   7.097  0.2189 -0.1047 -0.2907
25827SOL     OW79248   6.874   5.181   6.745  0.0567 -0.0314  0.2450
25827SOL    HW179249   6.939   5.247   6.771 -1.6246  1.7599  0.1378
25827SOL    HW279250   6.881   5.113   6.811  1.7546  0.2966  0.4493
25828SOL     OW79251   9.515   9.243   8.354 -0.2056 -0.1730 -0.2794
25828SOL    HW179252   9.499   9.326   8.309 -1.1212 -0.3174 -0.2299
25828SOL    HW279253   9.493   9.262   8.446  0.9324 -0.0882 -0.0027
25829SOL     OW79254   9.842   5.295   4.886  0.2799 -0.6507  0.1194
25829SOL    HW179255   9.820   5.212   4.928 -1.3027  0.1033  0.8574
25829SOL    HW279256   9.818   5.362   4.950 -0.6299  0.4687 -1.3198
25830SOL     OW79257   3.256   8.768   9.007 -0.2230 -0.7440  0.3931
25830SOL    HW179258   3.222   8.681   8.983 -0.8480 -0.3110 -0.3339
25830SOL    HW279259   3.178   8.823   9.012  0.3420  0.2981 -1.4140
25831SOL     OW79260   2.408   8.652   6.746  0.0618 -0.7488 -0.0847
25831SOL    HW179261   2.498   8.637   6.775 -0.2749 -0.4314  1.2168
25831SOL    HW279262   2.386   8.573   6.696  1.3017 -0.4835 -1.0869
25832SOL     OW79263   4.756   8.599   8.608 -0.4159 -0.3105  0.0069
25832SOL    HW179264   4.715   8.572   8.690  1.1915  1.5186  1.5079
25832SOL    HW279265   4.831   8.540   8.598 -0.6479 -0.5738 -0.1947
25833SOL     OW79266   1.199   5.808   4.972  0.3811 -0.5295  0.0912
25833SOL    HW179267   1.143   5.877   5.007  0.7014 -0.0169 -0.3840
25833SOL    HW279268   1.288   5.836   4.994  0.5868 -0.2514 -0.9958
25834SOL     OW79269   9.604   3.831   6.844 -0.1430 -0.1736  0.5402
25834SOL    HW179270   9.540   3.872   6.902 -1.2831  2.8735 -2.5801
25834SOL    HW279271   9.555   3.765   6.796 -1.0877  1.9679 -1.6464
25835SOL     OW79272   1.758   3.498   1.484  0.3894 -0.0375  0.0641
25835SOL    HW179273   1.778   3.405   1.474 -0.1868 -0.1382 -0.2373
25835SOL    HW279274   1.735   3.508   1.576  0.0498 -0.2807  0.0083
25836SOL     OW79275   2.417   5.554   0.988  0.6752  0.1277 -0.3898
25836SOL    HW179276   2.444   5.488   1.052  1.6780  0.0770 -0.8421
25836SOL    HW279277   2.326   5.573   1.010  0.8075 -0.3563  0.6474
25837SOL     OW79278   6.642   3.934   5.875  0.1456  0.1948 -0.2040
25837SOL    HW179279   6.689   4.011   5.908 -1.1773  0.3997  1.3072
25837SOL    HW279280   6.657   3.867   5.942  0.8630 -0.7374 -1.2613
25838SOL     OW79281   6.336   4.394   1.417  0.0911  0.1734 -0.0632
25838SOL    HW179282   6.317   4.416   1.326  0.6655 -1.9731 -0.7579
25838SOL    HW279283   6.423   4.353   1.415  0.1075  0.0592  1.4401
25839SOL     OW79284   5.407   0.655   0.820 -0.0409  0.2843 -0.2936
25839SOL    HW179285   5.325   0.706   0.821  0.2151  0.7012  0.5606
25839SOL    HW279286   5.379   0.565   0.831 -0.3245  0.5618  1.6376
25840SOL     OW79287   2.504   9.746   7.392 -0.6624  0.1163 -0.0428
25840SOL    HW179288   2.460   9.786   7.317 -1.2509 -1.6455 -0.6838
25840SOL    HW279289   2.452   9.668   7.412  1.3290 -1.2249  0.1321
25841SOL     OW79290   8.236   7.620   5.932  0.2801  0.5268 -0.2004
25841SOL    HW179291   8.178   7.631   6.008 -0.7173 -0.2479 -0.8334
25841SOL    HW279292   8.318   7.589   5.969 -0.1711  0.2323  0.5809
25842SOL     OW79293   3.405   2.452   7.355  0.3604  0.4118 -0.5792
25842SOL    HW179294   3.445   2.493   7.432  0.0750 -0.1535 -0.1292
25842SOL    HW279295   3.335   2.398   7.390  0.4356 -0.1060 -1.2116
25843SOL     OW79296   9.808   2.299   9.067  0.0076  0.4373  0.3179
25843SOL    HW179297   9.753   2.249   9.127  0.6457 -0.1248  0.4445
25843SOL    HW279298   9.803   2.251   8.985  1.9082 -0.8030  0.8634
25844SOL     OW79299   0.277   9.177   2.381  0.4265 -0.1438  0.1110
25844SOL    HW179300   0.298   9.167   2.474  0.0147  0.1592  0.2372
25844SOL    HW279301   0.305   9.266   2.359 -2.1903  0.9046  0.6959
25845SOL     OW79302   2.588   8.425   5.836 -0.4348  0.3449  0.1736
25845SOL    HW179303   2.599   8.519   5.821 -1.2386  0.7870  2.0700
25845SOL    HW279304   2.537   8.419   5.917  0.5825 -1.7490  0.7333
25846SOL     OW79305   0.262   2.529   7.133  0.2043  0.6277  0.1389
25846SOL    HW179306   0.271   2.439   7.102 -0.1194 -0.0568  1.9550
25846SOL    HW279307   0.226   2.521   7.221 -0.2670  2.5624  0.1649
25847SOL     OW79308   1.870   5.467   2.879  0.3392  0.1161  0.2127
25847SOL    HW179309   1.884   5.416   2.959  0.6775 -0.1929 -0.0429
25847SOL    HW279310   1.775   5.466   2.867  0.2911  0.1125  0.5767
25848SOL     OW79311   5.167   8.150   2.042 -0.3064 -0.0121 -0.0372
25848SOL    HW179312   5.107   8.207   2.090 -1.6424 -1.3121 -0.0810
25848SOL    HW279313   5.253   8.191   2.052 -1.1518  1.8211  0.1912
25849SOL     OW79314   2.649   3.062   6.755  0.2674 -0.2677 -0.0151
25849SOL    HW179315   2.619   3.069   6.845  0.0297 -0.6603 -0.0636
25849SOL    HW279316   2.744   3.048   6.762  0.4920  1.1758  0.1309
25850SOL     OW79317   3.095   5.783   3.506  0.5773  0.3914 -0.4089
25850SOL    HW179318   3.129   5.851   3.564  1.7462 -2.1046  2.0515
25850SOL    HW279319   3.000   5.789   3.515  0.7220  0.4435  1.3936
25851SOL     OW79320   2.851   0.478   1.873  0.7048  0.2882 -0.0391
25851SOL    HW179321   2.920   0.419   1.903  0.8927  0.1178 -0.7923
25851SOL    HW279322   2.836   0.537   1.947  0.5322 -0.6820  0.7130
25852SOL     OW79323   1.864   0.236   7.446  0.0345  0.2096 -1.1700
25852SOL    HW179324   1.871   0.288   7.366  0.7610  0.3739 -1.0071
25852SOL    HW279325   1.770   0.230   7.463 -0.0494  2.3680 -0.6073
25853SOL     OW79326   9.550   7.578   2.448 -0.4064  0.0442  0.4585
25853SOL    HW179327   9.616   7.608   2.510 -0.9296  1.3370  0.4319
25853SOL    HW279328   9.513   7.659   2.411 -1.9038 -0.6363  0.3707
25854SOL     OW79329   7.046   9.509   3.966 -0.0720  0.4526  0.3634
25854SOL    HW179330   6.987   9.551   4.030 -0.7849 -1.5822  1.1217
25854SOL    HW279331   7.130   9.502   4.012 -0.6288 -1.1622  1.2166
25855SOL     OW79332   2.133   6.846   5.661 -0.3264 -0.9686 -0.3259
25855SOL    HW179333   2.155   6.852   5.569 -1.7952  2.0344 -0.6027
25855SOL    HW279334   2.170   6.925   5.701 -2.8150 -0.2627  0.8341
25856SOL     OW79335   2.093   8.337   8.427  0.5826 -0.0495 -0.0466
25856SOL    HW179336   2.168   8.358   8.371 -0.2260  2.9018 -0.2132
25856SOL    HW279337   2.018   8.377   8.382 -0.2330  1.6631  2.5940
25857SOL     OW79338   1.594   6.105   5.824 -0.0416 -0.0758 -0.5752
25857SOL    HW179339   1.578   6.053   5.745  0.5319 -0.5650 -0.3746
25857SOL    HW279340   1.688   6.101   5.838 -0.1468 -0.0988  0.2033
25858SOL     OW79341   6.901   6.238   5.130 -0.7505  0.7360  0.3318
25858SOL    HW179342   6.869   6.327   5.146 -1.1077  0.6427  0.1565
25858SOL    HW279343   6.844   6.205   5.060 -0.0769  0.6731 -0.1916
25859SOL     OW79344   6.350   7.444   4.962  0.2756 -0.4931  0.1119
25859SOL    HW179345   6.402   7.367   4.941 -0.0841 -1.0796  1.2682
25859SOL    HW279346   6.413   7.515   4.969  0.8990 -1.1354  1.2172
25860SOL     OW79347   1.744   3.336   1.995  0.0173 -0.0263 -0.4441
25860SOL    HW179348   1.694   3.394   2.053  2.2109  0.2096  1.3234
25860SOL    HW279349   1.704   3.250   2.006 -1.2383  0.5185 -0.6116
25861SOL     OW79350   9.056   7.317   3.518  0.1096  0.4742 -0.4177
25861SOL    HW179351   8.996   7.392   3.526 -0.5693  0.0950 -1.6678
25861SOL    HW279352   9.000   7.245   3.489  0.6479 -0.7122  1.3507
25862SOL     OW79353   7.946   3.911   1.368  0.0508  0.0201 -0.2374
25862SOL    HW179354   7.975   4.002   1.374 -1.0315  0.3696  0.0549
25862SOL    HW279355   7.922   3.887   1.458 -0.0567 -0.4202 -0.3776
25863SOL     OW79356   4.703   3.832   9.178 -0.1736  0.3156 -0.1875
25863SOL    HW179357   4.738   3.809   9.092 -1.1710 -0.5143 -0.4026
25863SOL    HW279358   4.608   3.823   9.168 -0.2878 -0.2424  1.1193
25864SOL     OW79359   7.591   4.160   5.935  0.2770  0.2947 -0.2127
25864SOL    HW179360   7.599   4.128   5.845 -1.8955 -0.8391 -0.0807
25864SOL    HW279361   7.643   4.099   5.987  0.0858 -0.1351 -0.5151
25865SOL     OW79362   9.297   6.673   1.737 -0.5069 -0.2747  0.1786
25865SOL    HW179363   9.317   6.602   1.677 -0.9800 -1.2157  1.0939
25865SOL    HW279364   9.302   6.633   1.824 -1.3490  0.6706  0.6820
25866SOL     OW79365   0.430   4.592   6.933 -0.2837  0.0085  0.1807
25866SOL    HW179366   0.345   4.607   6.973  0.0219 -0.0950  0.8880
25866SOL    HW279367   0.450   4.500   6.953  0.2349  0.1868  0.5132
25867SOL     OW79368   3.145   3.002   0.415  0.0195 -0.1193 -0.1136
25867SOL    HW179369   3.236   3.018   0.442 -0.7472  1.5241  1.7193
25867SOL    HW279370   3.133   3.060   0.340  0.6791 -0.9051 -0.8461
25868SOL     OW79371   3.226   3.785   1.221  1.1467  0.4645 -0.6931
25868SOL    HW179372   3.170   3.708   1.223  1.3797  0.2758 -1.3176
25868SOL    HW279373   3.179   3.850   1.274  1.4046 -0.4019  0.6558
25869SOL     OW79374   1.081   9.777   4.635 -0.2895  0.2199  0.5380
25869SOL    HW179375   1.048   9.687   4.628  0.7394 -0.1942  0.9649
25869SOL    HW279376   1.063   9.815   4.548  1.1214 -1.0408 -0.3609
25870SOL     OW79377   6.829   5.972   2.470  0.4918 -0.1542 -0.0480
25870SOL    HW179378   6.852   5.955   2.378 -0.7839 -1.3643 -0.1759
25870SOL    HW279379   6.738   6.001   2.466  0.4917 -0.0166  0.8276
25871SOL     OW79380   6.292   9.278   4.384  0.3004  0.0082  0.0335
25871SOL    HW179381   6.358   9.345   4.365  1.4034 -0.8717  0.6825
25871SOL    HW279382   6.251   9.307   4.466  2.6819 -1.4356  1.8654
25872SOL     OW79383   8.291   9.203   6.789 -0.4026 -0.5207 -0.8366
25872SOL    HW179384   8.208   9.180   6.833 -0.4250  1.0009 -0.0250
25872SOL    HW279385   8.357   9.194   6.858 -0.0951 -0.3332 -1.1073
25873SOL     OW79386   2.965   2.046   9.470 -0.5584  0.2221  0.9847
25873SOL    HW179387   3.024   2.066   9.543 -0.5404  0.3161  0.9447
25873SOL    HW279388   2.995   2.102   9.399 -0.4620 -0.0016  0.8484
25874SOL     OW79389   4.321   7.542   4.979  0.1351 -0.4639 -0.9205
25874SOL    HW179390   4.302   7.567   4.889 -0.2780  2.5703 -0.1033
25874SOL    HW279391   4.400   7.591   5.001 -0.3192 -0.3820  0.6521
25875SOL     OW79392   1.462   0.955   5.491  0.6455 -0.3394 -0.1887
25875SOL    HW179393   1.538   0.933   5.437  0.6419 -1.0320  0.0870
25875SOL    HW279394   1.491   0.939   5.581  0.1120 -0.8049 -0.0952
25876SOL     OW79395   7.889   8.162   8.307 -0.0786  0.0080  0.0567
25876SOL    HW179396   7.886   8.087   8.248  1.0412 -0.5333  0.6513
25876SOL    HW279397   7.876   8.238   8.250  0.4121 -0.5425 -0.8132
25877SOL     OW79398   1.903   7.572   9.547  0.2792 -0.5911  0.0119
25877SOL    HW179399   1.990   7.539   9.567  0.6009 -0.9114 -1.7867
25877SOL    HW279400   1.917   7.641   9.482 -0.7623 -0.2925  0.0805
25878SOL     OW79401   0.536   4.411   1.649 -0.7621  0.1505  0.0939
25878SOL    HW179402   0.494   4.372   1.726 -0.4827  0.0182  0.1812
25878SOL    HW279403   0.630   4.404   1.667 -0.7038  0.6076 -0.0152
25879SOL     OW79404   4.418   5.345   8.266  0.2799 -0.3022 -0.3734
25879SOL    HW179405   4.366   5.378   8.192 -0.5129 -0.8839 -0.0909
25879SOL    HW279406   4.353   5.323   8.333  0.8056 -1.9264 -0.3490
25880SOL     OW79407   5.848   3.369   3.769 -0.2707 -0.1263  0.9452
25880SOL    HW179408   5.814   3.458   3.757 -0.9273 -0.4870 -0.0877
25880SOL    HW279409   5.926   3.379   3.822  0.9258  1.3545 -0.9628
25881SOL     OW79410   4.395   2.643   7.935 -0.1251  0.3678 -0.3163
25881SOL    HW179411   4.444   2.565   7.906  1.1622  0.5823  1.1534
25881SOL    HW279412   4.357   2.678   7.854  0.3463 -1.0534 -1.2014
25882SOL     OW79413   2.404   8.471   1.927  0.0255  0.0657 -0.5213
25882SOL    HW179414   2.331   8.533   1.933 -0.2054 -0.2361 -0.1987
25882SOL    HW279415   2.363   8.385   1.920  0.3505 -0.0923 -0.5327
25883SOL     OW79416   0.548   5.862   6.627 -0.0854  0.2696  0.8003
25883SOL    HW179417   0.466   5.888   6.585  0.5512 -0.1174 -0.7516
25883SOL    HW279418   0.616   5.899   6.571  0.7971 -0.6049  1.2675
25884SOL     OW79419   0.241   3.797   8.773 -0.2380 -0.5344  0.0741
25884SOL    HW179420   0.272   3.852   8.845 -0.6586  1.3297 -1.1212
25884SOL    HW279421   0.156   3.764   8.804 -0.0854 -0.3555  0.7107
25885SOL     OW79422   8.160   6.074   4.336  0.2198  0.7625  0.0073
25885SOL    HW179423   8.085   6.065   4.395 -0.2240 -0.1939 -0.6791
25885SOL    HW279424   8.179   6.168   4.336 -1.5342  1.1521 -0.4805
25886SOL     OW79425   6.005   8.010   6.948 -1.2193  0.3782 -0.7488
25886SOL    HW179426   5.932   7.960   6.984  0.5742 -1.5517  0.4641
25886SOL    HW279427   6.024   8.076   7.014 -0.4324 -0.6353  0.0765
25887SOL     OW79428   5.982   7.565   9.595  0.1591 -0.3088 -0.2450
25887SOL    HW179429   6.071   7.533   9.608 -0.0866 -0.4546  1.1794
25887SOL    HW279430   5.963   7.616   9.673 -1.5744 -1.5954  0.2346
25888SOL     OW79431   6.816   6.162   2.180 -0.0135 -0.1524 -0.9224
25888SOL    HW179432   6.887   6.222   2.157  1.8785 -2.3066 -0.9828
25888SOL    HW279433   6.836   6.081   2.133 -0.9962 -1.7216  1.1991
25889SOL     OW79434   2.972   7.760   2.454  0.3815  0.3752  0.6367
25889SOL    HW179435   2.955   7.693   2.388 -1.4843  0.1584  1.2900
25889SOL    HW279436   3.013   7.831   2.405  1.8414 -0.9621 -0.1843
25890SOL     OW79437   5.181   0.108   9.572 -0.7341 -0.5844 -0.7917
25890SOL    HW179438   5.247   0.066   9.627  0.0436  0.2754 -1.0332
25890SOL    HW279439   5.156   0.187   9.621 -1.7237 -0.9879 -0.6235
25891SOL     OW79440   3.411   6.028   6.661 -0.0756  0.2418 -0.1386
25891SOL    HW179441   3.476   5.963   6.687 -0.2472  0.4800  0.9472
25891SOL    HW279442   3.327   5.986   6.679 -0.1918  0.5979  0.1765
25892SOL     OW79443   7.303   3.305   3.971  0.1212  0.1913 -0.2990
25892SOL    HW179444   7.353   3.245   4.028 -0.5653  0.2321  0.3649
25892SOL    HW279445   7.344   3.390   3.984 -1.0293  0.5206  1.4022
25893SOL     OW79446   3.268   7.117   5.669  0.0388  0.0335 -0.2632
25893SOL    HW179447   3.266   7.210   5.649  1.5162  0.0838 -0.3222
25893SOL    HW279448   3.226   7.074   5.595 -0.9663  0.6625 -0.0687
25894SOL     OW79449   5.602   0.620   9.651  0.1205 -0.6956  0.4840
25894SOL    HW179450   5.598   0.677   9.575  2.0671  0.1038  0.9237
25894SOL    HW279451   5.597   0.679   9.726  3.6312 -0.8263  0.9608
25895SOL     OW79452   9.347   9.836   2.539  0.1130 -0.1298  0.0220
25895SOL    HW179453   9.380   9.923   2.560  2.6255 -0.9690 -0.1258
25895SOL    HW279454   9.328   9.840   2.445 -1.2331  0.6347  0.2941
25896SOL     OW79455   1.963   0.808   9.789  0.1531 -0.3268  0.0319
25896SOL    HW179456   1.980   0.879   9.727  1.7466 -0.0560  0.7280
25896SOL    HW279457   2.022   0.737   9.761 -0.5054 -0.9071  0.0956
25897SOL     OW79458   1.435   0.015   7.525  0.3979 -0.4606  0.3159
25897SOL    HW179459   1.407   0.078   7.592  1.3241  0.4116 -0.0694
25897SOL    HW279460   1.531   0.014   7.533  0.4921 -0.6543 -0.7198
25898SOL     OW79461   8.458   4.861   9.632 -0.1871  0.2139 -0.0523
25898SOL    HW179462   8.474   4.886   9.723 -0.5381 -0.1636  0.1160
25898SOL    HW279463   8.512   4.921   9.580  0.8902 -0.2864  0.4483
25899SOL     OW79464   8.709   3.805   4.288  0.6801 -0.0355  0.5271
25899SOL    HW179465   8.721   3.872   4.356  2.0740 -1.5836  1.8956
25899SOL    HW279466   8.752   3.841   4.211  0.4495  1.0890  0.8933
25900SOL     OW79467   1.269   0.381   2.794  0.5244 -0.4323  0.0563
25900SOL    HW179468   1.338   0.317   2.775  1.2304  0.0982  0.7503
25900SOL    HW279469   1.314   0.466   2.790 -0.7775  0.2197 -2.7314
25901SOL     OW79470   6.421   4.135   1.177 -0.0082 -0.4110 -0.0551
25901SOL    HW179471   6.376   4.217   1.157 -0.9922 -0.9483 -0.1201
25901SOL    HW279472   6.468   4.152   1.258 -1.1830 -0.1299  0.5897
25902SOL     OW79473   6.053   2.595   7.734 -0.7136  0.1155 -0.2273
25902SOL    HW179474   6.053   2.552   7.820 -0.1851  0.3425 -0.1092
25902SOL    HW279475   5.973   2.647   7.733 -1.3988 -0.9061 -0.3943
25903SOL     OW79476   6.216   2.999   5.651 -0.1224  0.9368  0.1814
25903SOL    HW179477   6.161   2.927   5.620 -0.0122  1.8250 -2.2359
25903SOL    HW279478   6.287   2.956   5.698  1.0030 -0.7746 -2.8361
25904SOL     OW79479   5.491   0.670   4.720 -0.0029 -0.5592  0.2289
25904SOL    HW179480   5.574   0.714   4.702  0.1466 -1.4872 -1.5332
25904SOL    HW279481   5.428   0.713   4.663  0.0778 -2.3222 -1.2721
25905SOL     OW79482   2.392   3.715   5.790  0.0468 -0.7274 -0.3549
25905SOL    HW179483   2.304   3.723   5.828 -0.1539  1.2580 -1.1288
25905SOL    HW279484   2.447   3.771   5.845  0.5914 -1.0321 -0.5845
25906SOL     OW79485   0.805   9.285   1.084 -0.3956  0.1609  0.3555
25906SOL    HW179486   0.737   9.293   1.151 -1.8229 -0.1652 -1.0178
25906SOL    HW279487   0.830   9.376   1.065 -2.1773  0.4467 -0.8148
25907SOL     OW79488   7.412   6.423   6.512 -0.0946 -0.0406 -0.2844
25907SOL    HW179489   7.498   6.461   6.494  0.9339 -0.9525  2.3148
25907SOL    HW279490   7.350   6.488   6.478  1.6008  2.3409  0.9058
25908SOL     OW79491   6.640   1.700   5.846 -0.0093 -0.1240  0.5635
25908SOL    HW179492   6.660   1.615   5.886  0.8888 -0.0543  0.2945
25908SOL    HW279493   6.676   1.764   5.907 -0.1000  0.0361  0.4475
25909SOL     OW79494   0.258   5.401   3.820 -0.3040 -0.4548 -0.3749
25909SOL    HW179495   0.187   5.414   3.757 -0.3248  1.1483 -0.0614
25909SOL    HW279496   0.217   5.414   3.905  0.4476  1.0750 -0.2101
25910SOL     OW79497   3.144   7.924   0.124  0.7189  0.1104 -0.3989
25910SOL    HW179498   3.214   7.867   0.155  0.1871 -0.4410 -0.2058
25910SOL    HW279499   3.103   7.958   0.203 -0.5390 -1.1761 -0.4695
25911SOL     OW79500   5.089   4.295   5.087  0.1188  0.1935 -0.3521
25911SOL    HW179501   5.083   4.310   5.182  0.8758 -1.5918  0.0279
25911SOL    HW279502   5.000   4.305   5.056 -0.1390  0.8365  0.5567
25912SOL     OW79503   0.737   4.338   5.024 -0.4452 -0.1465 -0.2846
25912SOL    HW179504   0.645   4.363   5.037 -0.1647  0.1295  1.4341
25912SOL    HW279505   0.780   4.418   4.996 -0.0520  0.7742  2.6376
25913SOL     OW79506   4.385   9.324   8.397  0.4489 -0.0264  0.1635
25913SOL    HW179507   4.293   9.330   8.372  0.6159  0.6004 -0.3283
25913SOL    HW279508   4.401   9.230   8.406 -0.0012 -0.1901 -0.6657
25914SOL     OW79509   4.901   3.389   3.972 -0.4194 -0.0384 -0.2647
25914SOL    HW179510   4.843   3.411   4.044  0.0839  0.5919 -0.0471
25914SOL    HW279511   4.842   3.363   3.901 -0.9890  1.0228 -0.1949
25915SOL     OW79512   4.375   1.804   9.336 -0.7600  0.5783  0.5692
25915SOL    HW179513   4.419   1.728   9.374  1.2014  0.8269 -1.0306
25915SOL    HW279514   4.303   1.767   9.284  0.5083 -0.2864 -0.6439
25916SOL     OW79515   5.741   4.791   6.084  0.6365 -0.4216 -0.1450
25916SOL    HW179516   5.791   4.773   6.004  0.4857 -1.6281  0.0099
25916SOL    HW279517   5.701   4.707   6.106 -1.8698  0.5794 -0.5369
25917SOL     OW79518   8.402   6.740   3.032 -0.3935  0.0400  0.0684
25917SOL    HW179519   8.333   6.804   3.014 -0.9068  0.1490  2.1380
25917SOL    HW279520   8.360   6.655   3.018 -0.4569  0.1280 -0.2746
25918SOL     OW79521   8.665   4.279   7.234 -0.4627  0.1873  0.1363
25918SOL    HW179522   8.691   4.282   7.326 -2.1409  1.3999  0.6150
25918SOL    HW279523   8.724   4.339   7.189 -0.7912  0.9693  0.7464
25919SOL     OW79524   3.653   3.380   7.301  0.4225 -0.1107  0.4836
25919SOL    HW179525   3.568   3.401   7.264  1.2875  1.4699 -0.7373
25919SOL    HW279526   3.660   3.435   7.379  0.8327  0.7746 -0.1592
25920SOL     OW79527   0.098   5.146   5.756 -0.2098  0.6665 -0.5771
25920SOL    HW179528   0.088   5.239   5.779  0.1565  0.6152 -0.2020
25920SOL    HW279529   0.160   5.145   5.683 -0.6321  0.7557 -0.9422
25921SOL     OW79530   2.953   6.291   4.934  0.2709  0.6863 -0.5517
25921SOL    HW179531   2.969   6.333   5.018 -1.4626  0.6373 -0.1620
25921SOL    HW279532   2.957   6.361   4.870  1.4734  0.7444 -0.4286
25922SOL     OW79533   2.788   5.925   9.807 -0.4852 -0.4804 -0.0045
25922SOL    HW179534   2.857   5.981   9.770 -0.6936  0.5090  1.0517
25922SOL    HW279535   2.766   5.865   9.736  0.9823 -0.3752 -0.5962
25923SOL     OW79536   3.210   4.383   8.389 -0.4932 -0.4770 -0.4854
25923SOL    HW179537   3.272   4.433   8.443 -0.0737  0.5738 -1.8883
25923SOL    HW279538   3.167   4.449   8.334 -3.1436 -1.1054  0.6368
25924SOL     OW79539   1.811   8.242   3.874  0.0132  0.1863 -0.6942
25924SOL    HW179540   1.854   8.248   3.959  1.0326  1.0845 -1.2362
25924SOL    HW279541   1.873   8.193   3.819 -0.8127 -0.7472 -0.8332
25925SOL     OW79542   0.265   4.698   3.849  0.0206 -0.0135  0.2374
25925SOL    HW179543   0.331   4.761   3.819  1.1990 -0.6855  1.3189
25925SOL    HW279544   0.197   4.701   3.782  1.1830  0.6624 -0.9667
25926SOL     OW79545   8.067   1.624   8.599  0.1248  0.0193 -0.1135
25926SOL    HW179546   8.052   1.565   8.525  0.2836  0.2599 -0.3363
25926SOL    HW279547   8.138   1.681   8.570  2.6543 -2.0769  1.4441
25927SOL     OW79548   3.085   3.662   6.090  0.1246 -0.7695 -0.6499
25927SOL    HW179549   3.081   3.739   6.034 -0.6973  0.9001  1.5921
25927SOL    HW279550   3.177   3.655   6.115  0.6602 -1.9862 -2.6642
25928SOL     OW79551   9.084   2.819   8.391 -0.0507 -0.4997 -0.0614
25928SOL    HW179552   9.101   2.727   8.414  0.5919  0.1568  2.3774
25928SOL    HW279553   9.079   2.819   8.296  1.3884 -2.8311 -0.2207
25929SOL     OW79554   2.742   7.495   6.926  0.4417 -0.8175  0.0851
25929SOL    HW179555   2.693   7.532   7.000  1.1960  3.1693 -1.1512
25929SOL    HW279556   2.676   7.483   6.858  0.5990  1.9110 -0.6629
25930SOL     OW79557   2.693   6.903   4.080  0.0308  0.2394 -0.4740
25930SOL    HW179558   2.782   6.899   4.046 -0.3355 -1.9490 -1.3452
25930SOL    HW279559   2.652   6.822   4.050 -1.5168  0.0146  1.9471
25931SOL     OW79560   6.243   7.614   6.884  0.0479  0.7389  0.2868
25931SOL    HW179561   6.242   7.706   6.912  3.3208  0.6719  1.0179
25931SOL    HW279562   6.316   7.608   6.823  0.0332 -1.4376  0.4151
25932SOL     OW79563   3.128   6.058   5.520  0.0645  0.2528  0.4452
25932SOL    HW179564   3.069   6.001   5.568  0.2434  0.3689  0.8045
25932SOL    HW279565   3.191   5.998   5.479  1.2110  0.2502  2.0999
25933SOL     OW79566   9.439   8.744   8.466  0.0086  0.1299 -0.0667
25933SOL    HW179567   9.532   8.756   8.484  0.2070  0.2004 -1.0637
25933SOL    HW279568   9.424   8.650   8.473  0.6368 -0.1496 -1.9850
25934SOL     OW79569   1.393   1.783   5.839 -0.0845  0.2741 -0.0133
25934SOL    HW179570   1.474   1.826   5.812  0.5313  0.7796  2.4199
25934SOL    HW279571   1.416   1.690   5.842  0.2105  0.3446  0.0034
25935SOL     OW79572   7.591   3.087   5.573  0.4162 -0.5175 -0.1156
25935SOL    HW179573   7.564   3.002   5.539  0.1552 -0.9689  1.1776
25935SOL    HW279574   7.583   3.147   5.498  0.0361 -1.5018 -0.8790
25936SOL     OW79575   5.824   7.886   7.095  0.1684 -0.0845 -0.1871
25936SOL    HW179576   5.748   7.943   7.106  0.5158  0.3233  0.1505
25936SOL    HW279577   5.787   7.799   7.080 -0.3824  0.3519 -1.4908
25937SOL     OW79578   4.965   7.390   0.967 -0.4502  0.0100  0.1818
25937SOL    HW179579   4.954   7.387   0.872 -2.4105  0.8850  0.3240
25937SOL    HW279580   5.012   7.310   0.988  1.0669  0.3603 -1.6273
25938SOL     OW79581   4.212   9.399   0.530  0.3620  1.0345 -0.3925
25938SOL    HW179582   4.265   9.361   0.459  0.2388  1.2578 -0.6031
25938SOL    HW279583   4.261   9.476   0.558  0.8546  0.4607  0.3600
25939SOL     OW79584   1.984   5.945   7.919 -0.1184 -0.5362  0.6307
25939SOL    HW179585   1.954   5.935   7.829 -1.0730  1.6951  0.6257
25939SOL    HW279586   1.910   5.915   7.972 -0.1543 -0.4103  0.6527
25940SOL     OW79587   5.886   1.295   7.486 -0.1435  0.0720 -0.6215
25940SOL    HW179588   5.834   1.305   7.407 -1.5487  1.3306  0.4039
25940SOL    HW279589   5.905   1.202   7.491 -1.6188 -0.3028 -1.4684
25941SOL     OW79590   6.109   6.319   2.989 -0.2409  0.4019 -0.1326
25941SOL    HW179591   6.158   6.271   3.056  0.2161 -0.5554 -1.1235
25941SOL    HW279592   6.167   6.321   2.913 -1.9247 -1.3748 -1.5817
25942SOL     OW79593   4.195   4.033   1.553  0.2317 -0.2197 -0.4256
25942SOL    HW179594   4.274   3.998   1.512  0.3380 -0.1282 -0.2979
25942SOL    HW279595   4.214   4.126   1.566  0.1422 -0.2184 -0.3001
25943SOL     OW79596   4.807   1.696   3.168  0.0929  0.1161 -0.4750
25943SOL    HW179597   4.898   1.674   3.146 -0.1798 -0.1599 -1.3743
25943SOL    HW279598   4.761   1.691   3.084 -0.0131  4.0987 -0.8628
25944SOL     OW79599   5.341   0.888   5.866  0.8080  0.1521  0.2950
25944SOL    HW179600   5.372   0.850   5.784 -0.3255  1.6744 -0.8680
25944SOL    HW279601   5.407   0.954   5.888  1.1170 -0.2619  0.6556
25945SOL     OW79602   4.854   6.000   2.076  0.1733 -0.3605 -0.2641
25945SOL    HW179603   4.780   5.998   2.015  0.7679 -0.5308 -0.9809
25945SOL    HW279604   4.839   6.079   2.128 -0.0803  0.0519 -0.9495
25946SOL     OW79605   6.927   4.400   9.226 -0.1766  0.3148 -0.2520
25946SOL    HW179606   6.992   4.396   9.157 -0.1319 -1.9136 -0.1586
25946SOL    HW279607   6.974   4.371   9.305 -1.3139 -1.8040 -0.2766
25947SOL     OW79608   6.209   4.728   9.757 -0.4227  0.1874 -0.0026
25947SOL    HW179609   6.139   4.670   9.790 -0.3316  0.3105  0.4031
25947SOL    HW279610   6.187   4.740   9.664  0.6843 -2.1800 -0.6647
25948SOL     OW79611   6.070   4.473   7.418  0.5935  0.3302 -0.1030
25948SOL    HW179612   6.157   4.511   7.402  0.5832  0.4356  0.0776
25948SOL    HW279613   6.013   4.549   7.431  0.8261  0.2674  1.5641
25949SOL     OW79614   0.459   5.539   6.964  0.1915  0.1060 -0.1992
25949SOL    HW179615   0.462   5.593   7.043  0.1002 -1.1283  0.6739
25949SOL    HW279616   0.526   5.577   6.907 -0.8673  2.0399 -0.2459
25950SOL     OW79617   3.605   0.684   2.115 -0.2425 -0.0169  0.1046
25950SOL    HW179618   3.539   0.620   2.086 -0.4581  0.4776 -0.5442
25950SOL    HW279619   3.666   0.633   2.168 -1.2144 -0.4642  0.8213
25951SOL     OW79620   6.158   0.152   8.647  0.0329  0.4703 -0.5295
25951SOL    HW179621   6.067   0.169   8.625  0.2393  1.7440 -0.4670
25951SOL    HW279622   6.161   0.157   8.743 -0.0323 -0.7113 -0.4486
25952SOL     OW79623   9.689   2.835   2.160 -0.0903  0.2911 -0.1094
25952SOL    HW179624   9.729   2.839   2.073  1.5644  1.3046  0.6465
25952SOL    HW279625   9.739   2.768   2.206  0.4991  1.2736  0.7193
25953SOL     OW79626   6.776   8.275   2.037  0.4050  0.1414  0.1826
25953SOL    HW179627   6.756   8.207   2.101 -0.4888 -0.7785 -1.0103
25953SOL    HW279628   6.867   8.259   2.013  0.3410 -0.3514  0.2593
25954SOL     OW79629   5.785   8.298   4.884  0.7545 -0.4923 -0.0247
25954SOL    HW179630   5.815   8.224   4.832  0.7895 -0.9504  0.6351
25954SOL    HW279631   5.694   8.277   4.906  0.5113  0.0341 -0.4903
25955SOL     OW79632   1.912   6.063   2.863  0.1288  0.0368 -0.4990
25955SOL    HW179633   1.957   6.050   2.780 -1.7287  0.1033 -1.5704
25955SOL    HW279634   1.851   6.135   2.847  0.1148  0.4137  1.0848
25956SOL     OW79635   5.680   2.026   8.710  0.1424 -0.1235 -0.1981
25956SOL    HW179636   5.620   2.101   8.706 -0.2370 -0.4614 -0.9895
25956SOL    HW279637   5.726   2.027   8.626 -0.8359 -1.5493 -0.7905
25957SOL     OW79638   1.313   8.933   4.288  0.1135  0.6801 -0.5772
25957SOL    HW179639   1.376   8.863   4.303 -0.0223  0.9926  1.7445
25957SOL    HW279640   1.286   8.921   4.197  0.9319 -1.5809 -0.5915
25958SOL     OW79641   6.157   7.934   9.693 -0.2432  0.1354 -1.0231
25958SOL    HW179642   6.130   7.854   9.737  1.6202  0.7676  1.5534
25958SOL    HW279643   6.249   7.918   9.671  0.6694  2.0135  1.0142
25959SOL     OW79644   4.117   6.568   8.796 -0.8357  0.4305  0.1216
25959SOL    HW179645   4.199   6.609   8.825 -0.6265  0.1768 -0.0937
25959SOL    HW279646   4.146   6.497   8.738 -1.2064  0.2633  0.1406
25960SOL     OW79647   6.369   5.316   2.912  0.1218  0.5513  0.6619
25960SOL    HW179648   6.318   5.285   2.837  1.8330  0.7653 -0.6469
25960SOL    HW279649   6.315   5.386   2.950 -0.1178  1.5239 -1.3187
25961SOL     OW79650   9.559   7.968   0.983 -0.1844  0.4999 -0.3853
25961SOL    HW179651   9.485   8.025   1.004 -1.8484 -1.7595  0.3434
25961SOL    HW279652   9.552   7.954   0.888  0.1513  1.3807 -0.5435
25962SOL     OW79653   6.336   1.868   8.729 -0.5000  0.0018  0.0025
25962SOL    HW179654   6.430   1.849   8.729 -1.0804 -3.9308  0.5909
25962SOL    HW279655   6.330   1.963   8.735  3.3978  0.4838 -1.0025
25963SOL     OW79656   2.930   9.352   8.099  0.2872 -0.2322 -0.2574
25963SOL    HW179657   2.978   9.310   8.027 -0.8030 -2.6446  0.3300
25963SOL    HW279658   2.848   9.382   8.059  0.1603 -0.5805 -0.2623
25964SOL     OW79659   8.448   9.601   2.650 -0.5753 -0.3709 -0.1723
25964SOL    HW179660   8.436   9.695   2.666  0.1805 -0.4883  1.1677
25964SOL    HW279661   8.373   9.560   2.694 -0.0415 -0.4933  0.6422
25965SOL     OW79662   5.900   6.041   2.146 -0.4243  0.3114 -0.0874
25965SOL    HW179663   5.956   6.113   2.118 -1.8892  1.1174 -1.1495
25965SOL    HW279664   5.877   5.996   2.064  0.8188 -1.7004  0.5822
25966SOL     OW79665   0.512   5.574   6.023 -0.1725  0.5345 -0.1356
25966SOL    HW179666   0.576   5.503   6.024  0.0844  0.7106  2.1198
25966SOL    HW279667   0.459   5.559   6.102 -1.6258  1.5385 -0.8780
25967SOL     OW79668   8.269   5.004   0.076 -0.0159 -1.0860  0.3959
25967SOL    HW179669   8.225   4.950   0.010 -0.2000  0.3210 -0.6940
25967SOL    HW279670   8.272   5.091   0.036 -0.4761 -0.0939  2.4314
25968SOL     OW79671   1.567   9.112   4.579 -0.1222 -0.1813 -0.6807
25968SOL    HW179672   1.593   9.099   4.488 -0.0244 -0.5153 -0.6086
25968SOL    HW279673   1.546   9.024   4.610  0.3883 -0.1491 -0.2189
25969SOL     OW79674   3.678   9.076   5.759  0.1137 -0.1592  0.5720
25969SOL    HW179675   3.654   9.164   5.729  1.1398 -0.3952 -1.0670
25969SOL    HW279676   3.722   9.090   5.842 -1.1596  0.7060  1.1416
25970SOL     OW79677   8.309   0.384   9.279 -0.7818  0.3062  0.0187
25970SOL    HW179678   8.357   0.308   9.309  1.2604  1.1196 -1.0079
25970SOL    HW279679   8.284   0.363   9.189 -2.3115 -0.0484  0.4858
25971SOL     OW79680   3.716   1.678   6.820  0.6311  0.4906  1.0009
25971SOL    HW179681   3.773   1.626   6.763  0.3367  0.5713  0.6295
25971SOL    HW279682   3.774   1.745   6.856  1.1269 -0.4056  1.8955
25972SOL     OW79683   1.528   6.149   3.305  0.1834  0.1425  0.5952
25972SOL    HW179684   1.603   6.089   3.301  1.9856  2.3193 -1.7709
25972SOL    HW279685   1.463   6.111   3.245  1.4237  0.6124 -1.1244
25973SOL     OW79686   6.138   4.436   4.975  0.0972  0.2730 -0.3329
25973SOL    HW179687   6.111   4.376   4.905 -0.7519  0.4909 -0.2033
25973SOL    HW279688   6.059   4.487   4.995 -0.3772 -1.3245  2.3625
25974SOL     OW79689   2.256   1.314   0.231 -0.1326 -0.4230 -0.3255
25974SOL    HW179690   2.247   1.224   0.200 -0.2350 -0.9797  1.2139
25974SOL    HW279691   2.168   1.338   0.261 -0.1504  0.2662 -0.9014
25975SOL     OW79692   2.819   9.342   8.387 -0.5178 -0.7535  0.2431
25975SOL    HW179693   2.819   9.261   8.438 -0.2382 -1.2695 -0.5490
25975SOL    HW279694   2.854   9.316   8.302 -3.0116 -0.3904 -0.9826
25976SOL     OW79695   2.975   6.384   6.380 -0.1336  0.3961  0.4814
25976SOL    HW179696   2.913   6.359   6.311 -0.1969  3.7197 -0.8465
25976SOL    HW279697   3.034   6.446   6.337  2.2049 -0.2754  2.5319
25977SOL     OW79698   5.305   8.586   0.533 -0.1401  0.2657  0.3294
25977SOL    HW179699   5.357   8.508   0.553  0.5467  0.6262  0.0196
25977SOL    HW279700   5.371   8.654   0.517 -0.6513  0.3636 -1.6607
25978SOL     OW79701   3.100   7.550   4.252 -0.1548  0.9755  0.3622
25978SOL    HW179702   3.094   7.593   4.167 -0.7994 -1.9400 -1.2272
25978SOL    HW279703   3.129   7.461   4.231  0.2226  0.3305  3.2720
25979SOL     OW79704   1.716   4.526   1.908 -0.7536  0.9178 -0.1853
25979SOL    HW179705   1.642   4.487   1.861 -2.2439  2.9898  0.3214
25979SOL    HW279706   1.761   4.580   1.844 -0.1429  0.3237 -0.2761
25980SOL     OW79707   0.279   7.155   2.522 -0.4422  0.1323  0.3937
25980SOL    HW179708   0.300   7.201   2.442 -1.6444 -0.0980 -0.0778
25980SOL    HW279709   0.222   7.083   2.494 -1.0599  0.1795  1.4640
25981SOL     OW79710   3.423   0.328   4.282  0.3447  0.5619  0.5113
25981SOL    HW179711   3.414   0.363   4.193  0.1540  0.9104  0.6654
25981SOL    HW279712   3.458   0.240   4.269 -0.3034  0.3603  0.0616
25982SOL     OW79713   2.382   2.677   5.623  0.8256 -0.3643 -0.2267
25982SOL    HW179714   2.429   2.689   5.540  1.5106  1.5230  0.3723
25982SOL    HW279715   2.293   2.706   5.605  0.6717 -1.0219 -0.5688
25983SOL     OW79716   5.040   1.879   5.646 -0.6613 -0.1653  0.0927
25983SOL    HW179717   5.033   1.922   5.561 -2.3721 -0.2973  0.1218
25983SOL    HW279718   4.996   1.794   5.633 -0.0915 -0.5868  0.8621
25984SOL     OW79719   4.480   8.924   3.368  0.3468  0.5725  0.8937
25984SOL    HW179720   4.451   8.903   3.457  2.0099 -2.4442  0.8477
25984SOL    HW279721   4.417   8.989   3.337 -1.6009  0.0636  3.4648
25985SOL     OW79722   3.450   8.960   0.147  0.0005 -0.4176  0.4710
25985SOL    HW179723   3.461   9.055   0.151 -0.4674 -0.3838  3.0988
25985SOL    HW279724   3.539   8.925   0.153  0.2903 -0.1935 -1.8510
25986SOL     OW79725   9.142   9.376   3.221 -0.2973 -0.1284 -0.0499
25986SOL    HW179726   9.199   9.362   3.146 -0.6519 -0.7987 -0.1978
25986SOL    HW279727   9.061   9.328   3.200 -0.8558  0.6617  0.2284
25987SOL     OW79728   8.397   8.807   9.744 -0.1073  0.1937  0.1217
25987SOL    HW179729   8.320   8.864   9.749 -0.3917 -0.0644 -1.0425
25987SOL    HW279730   8.361   8.719   9.750  0.0827  0.0680 -0.5184
25988SOL     OW79731   4.696   1.029   3.735  0.9120 -0.7111  0.2270
25988SOL    HW179732   4.761   1.061   3.798  0.4761  1.6866 -0.4220
25988SOL    HW279733   4.747   1.010   3.656  0.7528  3.9227 -1.2845
25989SOL     OW79734   6.486   8.461   6.421  0.7558  0.4686  0.0757
25989SOL    HW179735   6.472   8.435   6.512 -2.3341 -0.6293 -0.6034
25989SOL    HW279736   6.477   8.380   6.371  2.2381  1.0770 -1.2863
25990SOL     OW79737   9.528   2.737   2.397  0.0346  0.0664  0.2444
25990SOL    HW179738   9.572   2.654   2.378 -0.8232 -0.3095 -0.1909
25990SOL    HW279739   9.571   2.801   2.340 -1.6148 -0.7914 -2.1402
25991SOL     OW79740   6.350   6.564   1.117  0.6488 -0.4244  0.7787
25991SOL    HW179741   6.261   6.574   1.083  1.1225  1.2855 -0.0923
25991SOL    HW279742   6.347   6.603   1.204  0.5438 -0.4275  0.7771
25992SOL     OW79743   2.128   1.950   2.871  0.2070  0.1345  0.9140
25992SOL    HW179744   2.099   1.874   2.822  0.1406  1.1855 -0.7530
25992SOL    HW279745   2.076   1.948   2.952 -0.8921 -0.7364  0.2118
25993SOL     OW79746   8.523   8.138   7.351 -0.1324  0.0201  0.8092
25993SOL    HW179747   8.609   8.115   7.317 -0.8554 -1.2645 -0.2345
25993SOL    HW279748   8.520   8.099   7.438  1.2115  2.1557  1.9116
25994SOL     OW79749   4.717   1.812   5.576 -0.2805  0.6201 -0.7005
25994SOL    HW179750   4.692   1.880   5.514 -0.0810  0.3454 -1.0863
25994SOL    HW279751   4.637   1.792   5.624 -0.1251  1.8127  0.0954
25995SOL     OW79752   2.838   3.979   9.632 -0.0983  0.0757 -0.1567
25995SOL    HW179753   2.834   4.043   9.560  0.6954 -0.9834 -1.1928
25995SOL    HW279754   2.783   3.907   9.603 -1.8359  0.6619  1.4682
25996SOL     OW79755   7.220   1.058   5.070  0.3550 -0.3572  0.3473
25996SOL    HW179756   7.141   1.042   5.019  0.6310 -1.0011  0.1082
25996SOL    HW279757   7.224   1.153   5.079  0.3024 -0.2292 -0.8462
25997SOL     OW79758   3.005   4.473   8.014  0.1269  0.0677 -0.2532
25997SOL    HW179759   3.003   4.518   8.098  0.7414  1.6752 -1.0550
25997SOL    HW279760   2.914   4.448   7.997 -0.1855  0.7706  0.3497
25998SOL     OW79761   7.327   5.510   1.107 -0.5808 -0.0104 -0.3563
25998SOL    HW179762   7.315   5.603   1.087 -0.5665 -0.2422 -1.4835
25998SOL    HW279763   7.249   5.467   1.072 -1.9042 -0.1677  2.4506
25999SOL     OW79764   0.524   1.506   3.494 -0.8078  0.1009 -0.1278
25999SOL    HW179765   0.522   1.445   3.420 -0.4305 -2.3946  1.7736
25999SOL    HW279766   0.603   1.559   3.480 -0.8721 -0.1679 -1.5956
26000SOL     OW79767   9.431   8.546   9.136  0.7779  0.0656  0.3923
26000SOL    HW179768   9.461   8.474   9.191 -1.2520 -0.5289  0.7875
26000SOL    HW279769   9.459   8.625   9.183  0.0917 -0.4469  1.7208
26001SOL     OW79770   2.533   3.257   0.922  0.3173  0.2643 -0.1447
26001SOL    HW179771   2.575   3.215   0.997 -0.2041  0.1336  0.0766
26001SOL    HW279772   2.450   3.210   0.912  1.3238 -1.2394 -2.1686
26002SOL     OW79773   1.847   7.378   8.613  0.1265  0.4191 -0.2596
26002SOL    HW179774   1.812   7.463   8.639  2.7603  1.2593  0.9283
26002SOL    HW279775   1.859   7.384   8.519  0.3139  1.3954 -0.1823
26003SOL     OW79776   3.215   7.727   6.576  0.4947 -0.5869 -0.0343
26003SOL    HW179777   3.279   7.787   6.537  0.5125 -0.1799  0.6082
26003SOL    HW279778   3.223   7.742   6.670 -0.0319 -1.0661  0.0881
26004SOL     OW79779   6.734   4.619   7.287 -0.0668  0.1861 -0.4958
26004SOL    HW179780   6.654   4.573   7.261 -0.4224  0.0288  0.7836
26004SOL    HW279781   6.775   4.561   7.351  0.0850  1.1032  0.2614
26005SOL     OW79782   2.491   4.673   1.131 -0.0357 -0.1991 -0.7523
26005SOL    HW179783   2.435   4.677   1.209 -1.1267  2.0042 -1.5719
26005SOL    HW279784   2.473   4.586   1.094 -0.5634 -0.7311  0.6722
26006SOL     OW79785   4.493   0.277   4.819  0.4727  0.0688  0.2034
26006SOL    HW179786   4.453   0.223   4.750 -2.6353  2.2071  0.1308
26006SOL    HW279787   4.514   0.215   4.889 -0.9588 -1.5365 -0.7018
26007SOL     OW79788   3.533   4.684   4.314 -0.8128  0.1129  0.5048
26007SOL    HW179789   3.451   4.676   4.266 -2.1062 -1.2686  2.7263
26007SOL    HW279790   3.551   4.778   4.318 -1.5977  0.3509 -1.0731
26008SOL     OW79791   6.507   9.510   3.604  0.1388  0.0902 -0.6504
26008SOL    HW179792   6.522   9.499   3.510 -0.9202 -1.5814 -0.6564
26008SOL    HW279793   6.579   9.462   3.646 -0.3750 -0.6998 -0.6431
26009SOL     OW79794   9.146   4.602   9.475  0.8757 -0.0511  0.4448
26009SOL    HW179795   9.144   4.623   9.382  2.1755 -1.9280 -0.0748
26009SOL    HW279796   9.122   4.683   9.519  0.7550  1.0222 -1.5023
26010SOL     OW79797   9.574   6.088   8.438 -0.0481 -0.7685 -0.2043
26010SOL    HW179798   9.636   6.032   8.485 -1.1631 -1.2691  0.7114
26010SOL    HW279799   9.629   6.138   8.377  1.4552 -0.1864  1.5148
26011SOL     OW79800   3.534   1.260   4.273 -0.8704 -0.5053 -0.3025
26011SOL    HW179801   3.509   1.268   4.180  0.6922  0.8254 -0.6618
26011SOL    HW279802   3.616   1.211   4.272 -0.6448 -0.1528  0.3410
26012SOL     OW79803   7.821   5.084   0.699  0.3453  0.1175 -0.1614
26012SOL    HW179804   7.903   5.114   0.740  0.6533 -1.2352  0.2593
26012SOL    HW279805   7.848   5.052   0.613  0.5048 -1.6024  0.5020
26013SOL     OW79806   8.674   6.258   1.723 -0.4278 -0.4598 -0.1447
26013SOL    HW179807   8.624   6.218   1.794 -0.1358  0.1866  0.4348
26013SOL    HW279808   8.765   6.243   1.746 -0.3342 -0.3821 -0.4632
26014SOL     OW79809   9.275   2.108   6.896  0.2473 -0.5438 -0.2612
26014SOL    HW179810   9.205   2.091   6.959  0.0178 -1.1189 -0.6565
26014SOL    HW279811   9.299   2.022   6.863  0.0798 -0.2324 -1.2505
26015SOL     OW79812   2.316   9.018   2.810  0.1247 -0.9946 -0.3432
26015SOL    HW179813   2.387   9.020   2.746 -0.3336  3.0693 -1.0270
26015SOL    HW279814   2.239   9.048   2.761 -0.2370  2.3495  1.9270
26016SOL     OW79815   7.302   6.279   9.344 -0.3961 -0.6058  0.0836
26016SOL    HW179816   7.321   6.356   9.291 -0.9713 -0.6900 -0.2520
26016SOL    HW279817   7.213   6.293   9.376  0.6061  0.3722  2.6578
26017SOL     OW79818   1.264   8.967   3.094 -0.4651  0.5795 -0.3234
26017SOL    HW179819   1.312   8.951   3.175 -0.9755 -0.7021 -0.2510
26017SOL    HW279820   1.312   8.919   3.027 -0.9442  0.2834 -0.4666
26018SOL     OW79821   6.144   5.523   1.721  0.0353 -0.9267 -0.6569
26018SOL    HW179822   6.179   5.596   1.772 -0.1656 -1.2111 -0.1108
26018SOL    HW279823   6.061   5.556   1.686  0.1651 -0.7390 -0.7931
26019SOL     OW79824   7.813   1.329   7.552 -0.4040 -0.3187 -0.1539
26019SOL    HW179825   7.867   1.295   7.480 -1.4497 -1.7568 -0.2984
26019SOL    HW279826   7.809   1.258   7.615 -0.6678  0.4219  0.6879
26020SOL     OW79827   9.478   2.209   8.421 -0.0970  0.2488 -0.1709
26020SOL    HW179828   9.497   2.302   8.427  1.6261  0.0259 -1.3232
26020SOL    HW279829   9.546   2.167   8.475 -1.7252 -0.3338  1.5722
26021SOL     OW79830   4.815   9.384   1.271  0.3992 -0.6582 -0.0940
26021SOL    HW179831   4.806   9.428   1.356  1.4934 -0.2947 -0.1520
26021SOL    HW279832   4.784   9.449   1.208  1.7098 -0.0561 -0.1504
26022SOL     OW79833   3.809   4.468   1.742 -0.3755 -0.0464  0.2033
26022SOL    HW179834   3.772   4.476   1.654 -0.3844 -1.0975  0.0984
26022SOL    HW279835   3.801   4.375   1.763  0.3598  0.0569  0.9961
26023SOL     OW79836   8.226   6.636   7.670 -0.0021  0.1572 -0.1704
26023SOL    HW179837   8.240   6.698   7.599  2.3388 -0.1661 -0.0470
26023SOL    HW279838   8.178   6.563   7.630  0.0841  0.5859 -1.0724
26024SOL     OW79839   1.356   0.154   0.717 -0.0094 -0.1188  0.5122
26024SOL    HW179840   1.423   0.188   0.657  0.8152  0.9901  2.0096
26024SOL    HW279841   1.336   0.067   0.683  0.1945  0.5818 -1.5476
26025SOL     OW79842   2.575   5.575   1.350  0.2236  0.0661  0.0417
26025SOL    HW179843   2.584   5.532   1.436 -0.0733  1.0185  0.5672
26025SOL    HW279844   2.533   5.509   1.295  1.1086 -0.8291  0.4114
26026SOL     OW79845   0.334   3.599   2.073 -0.0950 -0.7488 -0.1826
26026SOL    HW179846   0.378   3.517   2.095  1.1441 -0.0082  0.2268
26026SOL    HW279847   0.338   3.603   1.977 -0.0653 -1.1070 -0.1992
26027SOL     OW79848   1.782   7.614   5.384  0.3610 -0.2719 -0.1310
26027SOL    HW179849   1.797   7.576   5.470 -0.4902  0.8618  0.5463
26027SOL    HW279850   1.703   7.570   5.351  0.6140 -0.6139 -0.2917
26028SOL     OW79851   4.776   0.542   5.912  0.2022  0.2835  0.0073
26028SOL    HW179852   4.830   0.621   5.919 -0.2853  0.5285  1.3147
26028SOL    HW279853   4.772   0.508   6.001  2.3801 -2.5900 -0.8379
26029SOL     OW79854   7.672   8.055   5.645 -0.3814  0.2931  0.0393
26029SOL    HW179855   7.670   7.961   5.626  1.2703 -0.1331  1.7002
26029SOL    HW279856   7.670   8.097   5.559 -0.9853 -1.2427 -0.7401
26030SOL     OW79857   9.548   5.695   6.760 -0.0214 -0.1858 -0.1459
26030SOL    HW179858   9.523   5.666   6.847  0.5545 -0.9904 -0.2348
26030SOL    HW279859   9.644   5.691   6.760 -0.0415 -1.2086 -1.1470
26031SOL     OW79860   5.413   7.790   8.690 -0.5096 -0.3299  0.3764
26031SOL    HW179861   5.505   7.812   8.698 -0.7138  1.0990 -0.8724
26031SOL    HW279862   5.368   7.852   8.748 -0.7933 -0.0373 -0.1492
26032SOL     OW79863   5.994   8.703   3.365  0.0325  0.2861  0.3923
26032SOL    HW179864   6.081   8.687   3.327  0.8879 -1.0181  2.6851
26032SOL    HW279865   5.959   8.616   3.382 -1.4177  0.8126  0.2724
26033SOL     OW79866   2.330   8.744   3.460 -0.3905 -0.7490  0.3039
26033SOL    HW179867   2.341   8.833   3.427 -0.1738 -0.9699 -0.2516
26033SOL    HW279868   2.236   8.727   3.454 -0.3826 -0.7013 -0.0016
26034SOL     OW79869   6.107   5.480   3.565  0.0166  0.4953  0.1487
26034SOL    HW179870   6.033   5.511   3.617 -3.3176 -1.3873 -2.9813
26034SOL    HW279871   6.106   5.385   3.578  2.7482  0.5016  0.8945
26035SOL     OW79872   7.389   4.108   4.913  0.0224  0.9267  0.2370
26035SOL    HW179873   7.334   4.123   4.837  1.3518  0.2591 -0.8949
26035SOL    HW279874   7.331   4.065   4.976 -0.6436 -0.2708 -1.1289
26036SOL     OW79875   9.077   5.139   9.210  0.2862  0.3537  0.3434
26036SOL    HW179876   9.022   5.146   9.132  0.4052 -2.6377 -0.0959
26036SOL    HW279877   9.134   5.216   9.205 -0.8212  1.1306 -1.6116
26037SOL     OW79878   1.902   2.166   5.839 -0.0167 -0.0731  0.2470
26037SOL    HW179879   1.822   2.210   5.869 -1.0325 -1.1620 -0.7821
26037SOL    HW279880   1.948   2.233   5.788 -0.2583  0.5691  0.8542
26038SOL     OW79881   9.578   4.853   4.024  0.0157  0.0030 -0.7570
26038SOL    HW179882   9.650   4.916   4.031  0.2209 -0.3670  1.5059
26038SOL    HW279883   9.499   4.906   4.029  0.1794  0.2246 -0.4275
26039SOL     OW79884   7.912   6.512   9.563 -0.0486 -0.0402  0.4189
26039SOL    HW179885   8.005   6.492   9.569  0.3226  0.9043 -1.3968
26039SOL    HW279886   7.909   6.603   9.531 -1.5816 -0.1832  0.0745
26040SOL     OW79887   1.496   6.286   1.283 -0.2361 -0.4618 -0.5124
26040SOL    HW179888   1.522   6.200   1.315  0.6079  0.2983  0.9808
26040SOL    HW279889   1.553   6.302   1.207 -1.9840 -2.1220 -2.2754
26041SOL     OW79890   1.244   7.693   2.187  0.8408 -0.6315  0.3329
26041SOL    HW179891   1.176   7.718   2.250 -0.3045 -2.3846 -0.1305
26041SOL    HW279892   1.285   7.776   2.162  0.7845  0.2126  2.7340
26042SOL     OW79893   2.578   7.709   8.675  0.1394  0.3732  0.1628
26042SOL    HW179894   2.485   7.717   8.654  0.2135 -1.8425 -1.2540
26042SOL    HW279895   2.623   7.752   8.603  0.2404 -0.5293 -0.3229
26043SOL     OW79896   5.071   9.175   0.322 -0.0820 -0.2635 -0.1772
26043SOL    HW179897   5.164   9.153   0.317 -0.5108 -2.1417 -0.7096
26043SOL    HW279898   5.069   9.259   0.367  1.8202 -0.5845  0.6232
26044SOL     OW79899   7.594   2.769   1.358 -0.6503 -0.1835  0.5825
26044SOL    HW179900   7.608   2.836   1.424  0.3159  0.3875 -0.1830
26044SOL    HW279901   7.565   2.816   1.280 -1.1820 -0.7826  0.4084
26045SOL     OW79902   9.408   2.992   4.714  0.2707  0.1387  0.7130
26045SOL    HW179903   9.401   2.963   4.623  0.7772 -1.3756  1.1258
26045SOL    HW279904   9.318   3.008   4.742 -0.0341 -1.0434  0.4412
26046SOL     OW79905   5.060   0.370   4.323  0.2857 -0.6791  0.1090
26046SOL    HW179906   4.995   0.359   4.392 -0.6576 -0.3998 -0.7242
26046SOL    HW279907   5.010   0.393   4.245  1.5865  5.6044  0.5716
26047SOL     OW79908   5.169   6.358   1.087 -0.0106  0.4950 -0.0371
26047SOL    HW179909   5.230   6.426   1.056 -0.5307  0.6812 -0.6546
26047SOL    HW279910   5.085   6.382   1.050 -0.1672 -0.6092 -0.4241
26048SOL     OW79911   4.453   0.441   2.668  0.2791 -0.0202 -0.2298
26048SOL    HW179912   4.522   0.478   2.613  0.7336 -0.7240 -0.1455
26048SOL    HW279913   4.409   0.517   2.705  1.1528  0.4484 -0.1144
26049SOL     OW79914   8.768   9.687   5.082 -1.0321 -0.3004  0.2518
26049SOL    HW179915   8.780   9.628   5.007  1.1485 -0.8969  1.0174
26049SOL    HW279916   8.736   9.630   5.152  0.0992 -0.4040  0.6996
26050SOL     OW79917   8.423   9.254   2.781  0.1433  0.1424  0.4805
26050SOL    HW179918   8.361   9.310   2.735  0.4137 -1.5018 -2.0744
26050SOL    HW279919   8.500   9.309   2.795  0.3620  0.5419 -1.8436
26051SOL     OW79920   7.925   7.923   5.897  0.2750  0.6736 -0.1417
26051SOL    HW179921   7.848   7.968   5.931  0.4848  0.2779  0.9256
26051SOL    HW279922   7.950   7.972   5.819 -0.3727  1.5050  0.1563
26052SOL     OW79923   0.371   2.300   3.283  0.4883  0.0818  0.0770
26052SOL    HW179924   0.450   2.257   3.315  0.5583  1.1506  1.4471
26052SOL    HW279925   0.313   2.229   3.257  2.2849 -0.7191 -2.0261
26053SOL     OW79926   5.849   7.426   4.535  0.3021  0.7242 -0.3338
26053SOL    HW179927   5.783   7.357   4.528 -0.0276  0.9974  0.0393
26053SOL    HW279928   5.893   7.408   4.618  1.1302  0.1686 -0.8862
26054SOL     OW79929   1.458   7.050   0.943  0.0583 -0.1928  0.2166
26054SOL    HW179930   1.414   7.106   1.007  1.0767  0.1632  0.6347
26054SOL    HW279931   1.551   7.067   0.958  0.3593 -1.4549 -0.1542
26055SOL     OW79932   1.516   5.156   4.746 -0.2506 -0.5881 -0.0570
26055SOL    HW179933   1.436   5.197   4.777 -0.0296 -0.4118  0.2880
26055SOL    HW279934   1.531   5.084   4.808 -2.1735 -3.0875 -2.2005
26056SOL     OW79935   2.750   2.870   8.449 -0.3698 -0.6081  0.3205
26056SOL    HW179936   2.839   2.871   8.412 -0.3221 -2.4412  0.2900
26056SOL    HW279937   2.700   2.814   8.390 -1.3659 -0.1917  0.7468
26057SOL     OW79938   7.865   2.011   0.207  0.0482 -0.2200 -0.1050
26057SOL    HW179939   7.906   1.933   0.244  2.1304 -0.2452 -2.2370
26057SOL    HW279940   7.830   1.982   0.123 -3.3835  0.1388  1.0323
26058SOL     OW79941   8.093   7.827   8.241  0.0647  0.5048 -0.6340
26058SOL    HW179942   8.178   7.788   8.220  0.1087  0.8093 -1.0300
26058SOL    HW279943   8.111   7.920   8.252 -0.0367  0.4203  0.3315
26059SOL     OW79944   6.884   1.098   3.798  0.2263  0.0540  0.2718
26059SOL    HW179945   6.964   1.118   3.750  0.7955 -0.8387  0.8333
26059SOL    HW279946   6.852   1.183   3.828  1.0564  0.3931  0.2130
26060SOL     OW79947   1.230   7.176   6.057  0.0479 -0.0785  0.0268
26060SOL    HW179948   1.282   7.239   6.007 -1.4795  0.4830 -0.9404
26060SOL    HW279949   1.169   7.139   5.992 -0.9045 -0.5319  1.1464
26061SOL     OW79950   1.886   9.251   7.905  0.3063  0.4659 -0.1206
26061SOL    HW179951   1.953   9.298   7.856  1.5900 -0.9983  0.1559
26061SOL    HW279952   1.814   9.240   7.842  0.8657  0.8890 -0.8548
26062SOL     OW79953   6.419   4.946   6.895 -0.2206 -0.8166  0.4945
26062SOL    HW179954   6.487   4.983   6.838  0.1055 -0.1005  1.3151
26062SOL    HW279955   6.398   4.861   6.857 -0.0097 -0.3573 -0.6825
26063SOL     OW79956   2.599   0.383   6.699 -0.1535 -0.0287 -0.4535
26063SOL    HW179957   2.583   0.463   6.649 -0.9047 -2.0699 -3.7855
26063SOL    HW279958   2.655   0.330   6.642  2.9412 -0.7923  2.9063
26064SOL     OW79959   7.451   9.046   0.988 -0.7505 -0.2028  0.2457
26064SOL    HW179960   7.481   8.980   1.051  0.4526 -0.3379 -0.4387
26064SOL    HW279961   7.514   9.041   0.916 -0.0858  2.3056  0.5598
26065SOL     OW79962   9.629   8.143   8.865 -0.1986 -0.2473  0.0076
26065SOL    HW179963   9.549   8.090   8.862 -1.2768  1.3510 -2.0434
26065SOL    HW279964   9.669   8.121   8.949 -2.4457 -1.6131  0.8065
26066SOL     OW79965   3.258   7.201   2.714  0.1543  0.0420 -0.0180
26066SOL    HW179966   3.344   7.160   2.702  0.3402  0.1520  0.8540
26066SOL    HW279967   3.269   7.291   2.683  0.6285  0.3281  0.9336
26067SOL     OW79968   4.262   6.474   6.694  0.5157  0.1571  0.0406
26067SOL    HW179969   4.222   6.482   6.608  0.6777 -1.9306 -0.2747
26067SOL    HW279970   4.244   6.558   6.737 -2.1530  0.1600 -0.9223
26068SOL     OW79971   1.315   5.871   3.406 -0.5817 -0.7034  0.5181
26068SOL    HW179972   1.402   5.857   3.367 -1.0391  0.4133 -1.0262
26068SOL    HW279973   1.332   5.878   3.500  0.5754 -3.5016  0.6068
26069SOL     OW79974   6.106   9.106   0.110 -0.1880 -0.0579 -0.2106
26069SOL    HW179975   6.136   9.024   0.150 -0.0723  0.8021  1.5517
26069SOL    HW279976   6.186   9.157   0.098 -0.5488  1.2147  2.1232
26070SOL     OW79977   3.598   8.613   8.522  0.0957  0.0400 -0.7069
26070SOL    HW179978   3.550   8.694   8.512  0.0023 -0.0875 -1.3124
26070SOL    HW279979   3.690   8.640   8.527  0.0492  0.1949 -0.6864
26071SOL     OW79980   6.369   7.192   1.630  0.2166  0.9180 -0.3598
26071SOL    HW179981   6.334   7.273   1.593  1.9635  0.6526 -2.8143
26071SOL    HW279982   6.295   7.132   1.631 -0.2105  1.3489 -2.3330
26072SOL     OW79983   0.241   8.494   6.626 -0.1164 -0.7940  0.4356
26072SOL    HW179984   0.257   8.582   6.660  1.6523 -1.0032  0.2641
26072SOL    HW279985   0.154   8.471   6.659  0.0001  0.4435  1.7288
26073SOL     OW79986   3.547   0.024   4.710  0.1175  0.3224 -0.0430
26073SOL    HW179987   3.554  -0.020   4.795 -0.7654  0.2396 -0.0027
26073SOL    HW279988   3.637   0.028   4.678  0.4627  0.3361  0.8860
26074SOL     OW79989   8.196   8.152   5.032  0.2519 -0.7080 -0.4402
26074SOL    HW179990   8.129   8.219   5.043 -1.3912 -2.2599 -0.5425
26074SOL    HW279991   8.232   8.139   5.119  0.9572  0.6419 -0.5076
26075SOL     OW79992   7.672   2.696   4.512 -0.1718 -0.2747  0.5845
26075SOL    HW179993   7.639   2.609   4.490 -0.8917  0.3093 -0.7813
26075SOL    HW279994   7.615   2.756   4.465 -0.8303  1.0591  2.9416
26076SOL     OW79995   9.323   8.506   2.548 -1.0593 -0.2547  0.2031
26076SOL    HW179996   9.316   8.586   2.495  0.4975 -0.2384 -0.0371
26076SOL    HW279997   9.250   8.512   2.610 -0.4236  1.9015  0.8650
26077SOL     OW79998   3.698   5.288   8.368 -0.0960  0.7775 -0.0433
26077SOL    HW179999   3.758   5.363   8.362 -0.9044  1.3887 -0.8595
26077SOL    HW280000   3.755   5.213   8.381  0.9571  1.1918 -1.9152
26078SOL     OW80001   1.249   9.801   3.676 -0.5851 -0.1314 -0.0576
26078SOL    HW180002   1.270   9.739   3.745 -1.6796 -1.4774 -0.8973
26078SOL    HW280003   1.250   9.749   3.596  0.2098  1.3000 -1.0289
26079SOL     OW80004   7.838   9.770   1.522 -0.0518 -0.2685 -0.5829
26079SOL    HW180005   7.894   9.702   1.484 -0.5786 -1.0091 -0.0736
26079SOL    HW280006   7.852   9.763   1.616  0.9487  1.2910 -0.5794
26080SOL     OW80007   5.022   9.546   6.605  0.6462 -0.5793 -0.3583
26080SOL    HW180008   5.076   9.471   6.579 -1.4857 -2.2439 -0.2743
26080SOL    HW280009   5.011   9.596   6.525  0.7780 -1.2532 -0.8087
26081SOL     OW80010   0.639   1.034   8.837 -0.0061  0.5466 -0.6503
26081SOL    HW180011   0.717   1.046   8.892 -0.4745  0.4747  0.0389
26081SOL    HW280012   0.640   1.108   8.777 -0.2380  1.3897  0.3679
26082SOL     OW80013   8.533   3.826   2.062 -0.6089  0.5542  0.3062
26082SOL    HW180014   8.628   3.830   2.046 -0.7058 -0.5593 -0.7319
26082SOL    HW280015   8.494   3.846   1.977 -1.2361 -1.6844  0.0052
26083SOL     OW80016   1.439   3.221   9.108 -0.6611  0.0227  0.0438
26083SOL    HW180017   1.445   3.302   9.158 -0.9831 -0.7278  1.3504
26083SOL    HW280018   1.412   3.155   9.172 -0.7863 -1.0452 -1.0637
26084SOL     OW80019   0.246   5.126   4.101 -0.3307  0.0094 -0.1647
26084SOL    HW180020   0.192   5.194   4.142 -0.6178 -1.2729  1.7231
26084SOL    HW280021   0.310   5.102   4.168  0.1119 -1.1849 -0.9754
26085SOL     OW80022   0.910   8.337   6.842 -0.2018  0.2982  0.4750
26085SOL    HW180023   0.949   8.276   6.780 -1.1836 -1.8189  1.8293
26085SOL    HW280024   0.838   8.378   6.793 -0.9105 -1.2701  0.1538
26086SOL     OW80025   6.619   8.920   0.560  0.0063 -0.1602  0.4303
26086SOL    HW180026   6.697   8.871   0.533 -0.2578  0.4342 -1.5575
26086SOL    HW280027   6.545   8.869   0.526 -0.2837  1.3615 -1.3669
26087SOL     OW80028   2.245   5.267   8.646  0.7092  0.3503  0.4796
26087SOL    HW180029   2.182   5.338   8.655  0.2722 -0.0566  0.6414
26087SOL    HW280030   2.330   5.311   8.641  0.5307  0.8413  1.5195
26088SOL     OW80031   4.974   3.852   2.827 -0.4309  0.3315 -0.8213
26088SOL    HW180032   5.020   3.769   2.843 -1.1017  0.0397 -0.3562
26088SOL    HW280033   4.945   3.847   2.736  0.0639  0.3261 -0.9810
26089SOL     OW80034   6.597   5.332   4.437 -0.1392  0.3173 -0.3590
26089SOL    HW180035   6.557   5.352   4.522  1.2339 -0.9789  0.6640
26089SOL    HW280036   6.652   5.408   4.418  0.5623  0.0702  0.5953
26090SOL     OW80037   1.145   8.408   0.027 -0.6988  0.0815 -0.4510
26090SOL    HW180038   1.153   8.356  -0.053  1.0242  0.1723 -0.3842
26090SOL    HW280039   1.222   8.383   0.079  0.2200  2.6854 -0.4251
26091SOL     OW80040   2.327   2.751   8.783 -0.1740  0.4649 -0.1413
26091SOL    HW180041   2.334   2.666   8.826  0.6478  1.1855  1.2166
26091SOL    HW280042   2.383   2.743   8.705 -0.7982 -0.4955 -0.5189
26092SOL     OW80043   6.229   0.426   2.245 -0.9771 -0.2828  0.3811
26092SOL    HW180044   6.191   0.387   2.166 -0.2318  1.0212 -0.6489
26092SOL    HW280045   6.161   0.486   2.276  0.0264  1.8590 -1.3195
26093SOL     OW80046   1.468   3.395   8.508  0.1316  0.5374  0.1141
26093SOL    HW180047   1.525   3.335   8.556 -0.4107  0.3316  0.4994
26093SOL    HW280048   1.396   3.413   8.568 -1.3664 -0.9312 -1.1546
26094SOL     OW80049   2.914   8.282   1.500 -0.5799  0.2915  0.1944
26094SOL    HW180050   2.827   8.255   1.470 -0.3215 -0.7382  0.3619
26094SOL    HW280051   2.897   8.356   1.559 -1.3940 -0.3317  0.7584
26095SOL     OW80052   9.794   6.809   0.822  0.3529 -0.1611  0.1193
26095SOL    HW180053   9.803   6.785   0.914  0.2626 -1.2302 -0.1399
26095SOL    HW280054   9.842   6.741   0.775  1.0291  0.7763 -0.5908
26096SOL     OW80055   7.137   2.722   0.158 -0.0995  0.2916  0.3112
26096SOL    HW180056   7.088   2.694   0.236  1.9106 -0.7950  1.2763
26096SOL    HW280057   7.148   2.642   0.106  0.9505  0.3963  0.3367
26097SOL     OW80058   0.808   5.007   0.285  0.0472  0.9098  0.3585
26097SOL    HW180059   0.871   5.078   0.293  0.5552  0.7202 -1.4966
26097SOL    HW280060   0.738   5.044   0.231 -0.7670  0.6577  1.2042
26098SOL     OW80061   1.347   2.684   5.714 -0.2289 -0.1766 -0.3414
26098SOL    HW180062   1.438   2.661   5.729  0.2851  0.8097 -1.6965
26098SOL    HW280063   1.327   2.649   5.627 -1.3570 -0.9328  0.1907
26099SOL     OW80064   3.394   5.025   3.628 -0.1168 -0.2291  0.2379
26099SOL    HW180065   3.434   5.062   3.550 -0.5917 -0.3687 -0.0737
26099SOL    HW280066   3.369   4.936   3.603 -0.0106 -0.3728  0.6368
26100SOL     OW80067   5.953   8.124   0.569  0.2414 -0.4701 -0.2583
26100SOL    HW180068   5.895   8.131   0.645 -2.5417 -2.4330 -2.0365
26100SOL    HW280069   5.916   8.185   0.505  0.5857 -1.1770 -1.1509
26101SOL     OW80070   3.208   3.719   6.393 -0.0731 -0.4272 -0.3846
26101SOL    HW180071   3.205   3.804   6.438 -1.3084 -1.6932  2.1037
26101SOL    HW280072   3.285   3.725   6.337  1.7052  1.2508  2.0049
26102SOL     OW80073   7.016   3.488   2.283  0.1375 -0.1523  0.2977
26102SOL    HW180074   7.110   3.504   2.270  0.4133 -1.3552  0.7126
26102SOL    HW280075   7.012   3.426   2.356 -0.9762 -0.2516  0.1662
26103SOL     OW80076   4.213   3.685   7.604 -0.7613 -0.3008  0.1608
26103SOL    HW180077   4.256   3.599   7.606  0.8752  0.4235 -1.1214
26103SOL    HW280078   4.123   3.666   7.576 -0.5084 -1.6153  0.1540
26104SOL     OW80079   4.640   7.884   1.083  0.1214  0.5841  0.6800
26104SOL    HW180080   4.582   7.867   1.157 -1.2683 -1.1452 -0.7151
26104SOL    HW280081   4.719   7.834   1.103 -0.4946 -0.3972  0.7414
26105SOL     OW80082   8.950   5.617   6.900 -0.3264  0.3068 -0.4389
26105SOL    HW180083   8.972   5.599   6.808 -0.3464 -2.4788  0.0154
26105SOL    HW280084   9.021   5.673   6.931  0.0789  0.6710 -1.9370
26106SOL     OW80085   2.819   6.546   1.227  0.0150  0.0728 -0.2682
26106SOL    HW180086   2.756   6.528   1.297 -1.7572 -1.7170 -2.1944
26106SOL    HW280087   2.770   6.598   1.163  1.9039  2.6029  0.1912
26107SOL     OW80088   8.516   6.794   2.274  0.0229  0.0436 -0.2224
26107SOL    HW180089   8.438   6.794   2.329 -0.4510 -1.1907 -0.8863
26107SOL    HW280090   8.517   6.708   2.233  0.9244  0.5904 -1.3820
26108SOL     OW80091   3.742   7.918   0.089 -0.0726 -0.3939  0.0151
26108SOL    HW180092   3.704   7.922   0.001  0.2698 -0.5464 -0.1430
26108SOL    HW280093   3.791   7.836   0.090  0.1957 -0.2335  0.2370
26109SOL     OW80094   8.970   7.020   2.021  0.2901 -0.2980 -0.6670
26109SOL    HW180095   8.942   6.945   1.969  1.8188 -0.5518 -1.1736
26109SOL    HW280096   9.055   7.044   1.984  0.5146  0.7430  0.4667
26110SOL     OW80097   4.615   3.149   5.551 -0.5866 -0.7028  0.0138
26110SOL    HW180098   4.554   3.172   5.621 -0.1180 -1.6458  0.7633
26110SOL    HW280099   4.559   3.117   5.481 -1.0587  0.1598 -0.0182
26111SOL     OW80100   5.959   6.891   7.215 -0.5377  0.5759  0.2602
26111SOL    HW180101   6.006   6.810   7.230  1.7096  1.7844  0.1012
26111SOL    HW280102   5.915   6.909   7.298 -0.7491 -0.5851  0.4082
26112SOL     OW80103   1.478   4.206   0.351 -0.5824 -0.4224 -0.7406
26112SOL    HW180104   1.512   4.226   0.263 -1.5550  2.5016 -0.5506
26112SOL    HW280105   1.387   4.181   0.336 -0.6590 -0.2364 -0.5711
26113SOL     OW80106   2.471   4.190   4.061 -0.5202  0.1381  0.0614
26113SOL    HW180107   2.425   4.264   4.019  0.4344 -0.0718 -1.4503
26113SOL    HW280108   2.564   4.207   4.042 -0.3232 -1.7527 -0.8906
26114SOL     OW80109   0.770   1.436   9.535 -0.4349  0.4107  0.3978
26114SOL    HW180110   0.755   1.483   9.617 -0.7546  1.6174 -0.3298
26114SOL    HW280111   0.853   1.471   9.502  0.3590 -0.9909  0.8068
26115SOL     OW80112   6.315   3.588   4.074 -0.2976  0.3086  0.2125
26115SOL    HW180113   6.330   3.560   4.164 -1.4004  0.4499  0.4508
26115SOL    HW280114   6.221   3.580   4.061 -0.8293  4.2308  0.4678
26116SOL     OW80115   9.640   2.431   2.361 -0.5410 -0.2964  0.1499
26116SOL    HW180116   9.694   2.353   2.352 -0.1035  0.2053 -1.9244
26116SOL    HW280117   9.702   2.501   2.383 -0.7034 -0.2093  0.3359
26117SOL     OW80118   8.900   6.990   2.294 -0.1099  0.2278 -0.5605
26117SOL    HW180119   8.973   6.963   2.350 -0.3551  1.1994  0.2473
26117SOL    HW280120   8.936   6.983   2.205  0.1331 -1.7829 -0.3685
26118SOL     OW80121   6.272   3.121   5.081 -0.1508 -0.3026 -0.3442
26118SOL    HW180122   6.334   3.115   5.154  0.2505 -0.5244 -0.7008
26118SOL    HW280123   6.196   3.167   5.118 -0.4605 -1.4864  0.5463
26119SOL     OW80124   4.069   5.519   9.617 -0.3306  0.5318  0.5760
26119SOL    HW180125   4.115   5.443   9.653  0.1813  0.4288 -0.2586
26119SOL    HW280126   4.111   5.594   9.659  0.1663  0.4070  0.3191
26120SOL     OW80127   9.198   8.151   3.709  0.0401  0.1323 -0.1830
26120SOL    HW180128   9.156   8.092   3.646  0.8722 -0.9700  0.2697
26120SOL    HW280129   9.292   8.136   3.698  0.1978 -1.5220  2.5920
26121SOL     OW80130   2.129   4.235   2.367 -0.0468 -0.5017  0.2638
26121SOL    HW180131   2.092   4.318   2.335  1.0858 -0.6790 -1.6192
26121SOL    HW280132   2.220   4.256   2.387  1.0991 -1.8424 -2.9688
26122SOL     OW80133   0.900   9.674   3.883  0.2628  0.6761 -0.2028
26122SOL    HW180134   0.835   9.609   3.855 -0.7771  1.9318 -0.7871
26122SOL    HW280135   0.917   9.653   3.975  0.6825 -1.0123 -0.6389
26123SOL     OW80136   4.735   9.618   6.595  0.1337 -0.3706 -0.3077
26123SOL    HW180137   4.824   9.607   6.628 -0.0466 -1.3659 -0.1309
26123SOL    HW280138   4.713   9.709   6.615  0.2364 -0.7714  1.8105
26124SOL     OW80139   6.230   8.101   9.036  0.3674 -0.3551  0.5750
26124SOL    HW180140   6.216   8.009   9.016 -2.1237  0.2051 -0.6414
26124SOL    HW280141   6.146   8.132   9.070  0.7915  1.7028 -0.0767
26125SOL     OW80142   9.613   5.313   4.518 -0.0334  0.2564 -0.3672
26125SOL    HW180143   9.705   5.292   4.531  1.0248  1.4631 -4.4378
26125SOL    HW280144   9.568   5.229   4.526  1.4628 -0.4818  0.9608
26126SOL     OW80145   1.592   0.525   4.950  0.0119 -0.0565  0.7382
26126SOL    HW180146   1.630   0.437   4.939  1.4862  0.3966  1.8609
26126SOL    HW280147   1.510   0.522   4.901 -1.4889 -3.0343  3.0865
26127SOL     OW80148   3.285   3.394   9.033 -0.5362  0.4224 -0.6920
26127SOL    HW180149   3.225   3.323   9.013 -2.6434  1.5698  1.0970
26127SOL    HW280150   3.235   3.474   9.018  0.6393  1.4500  0.5032
26128SOL     OW80151   9.781   3.109   0.630 -0.1643 -0.2447  0.2291
26128SOL    HW180152   9.703   3.164   0.619  0.1567  0.2609  0.4080
26128SOL    HW280153   9.770   3.068   0.716 -0.9859 -1.4241 -0.4186
26129SOL     OW80154   8.050   3.456   0.697  0.4324  0.5824  0.1361
26129SOL    HW180155   8.044   3.487   0.787 -1.0979 -0.2209  0.3318
26129SOL    HW280156   8.127   3.501   0.662  0.4462  1.7141  1.5168
26130SOL     OW80157   4.120   2.285   2.290  0.0485  0.2209  0.5697
26130SOL    HW180158   4.085   2.371   2.315  0.3014  0.3842  0.3689
26130SOL    HW280159   4.094   2.227   2.362 -0.1689  0.4526  0.6825
26131SOL     OW80160   2.142   0.813   0.195  0.2196  0.5427 -0.5097
26131SOL    HW180161   2.095   0.816   0.111 -1.4011  1.2121  0.3758
26131SOL    HW280162   2.078   0.776   0.256  2.0004 -1.7372  0.0806
26132SOL     OW80163   1.586   1.258   2.540  0.3808 -0.1855  0.1258
26132SOL    HW180164   1.681   1.263   2.533  0.4510 -1.1003  0.2549
26132SOL    HW280165   1.570   1.230   2.630 -0.1238  2.2276  0.8453
26133SOL     OW80166   4.430   6.313   2.746  0.4182  0.2377  0.0478
26133SOL    HW180167   4.437   6.218   2.756  2.1844  0.2619 -0.6279
26133SOL    HW280168   4.348   6.335   2.789  0.4407 -1.4765  1.0866
26134SOL     OW80169   8.304   6.389   6.292  0.3488 -0.6630 -0.3573
26134SOL    HW180170   8.229   6.414   6.346  0.5897 -1.2248  0.2456
26134SOL    HW280171   8.316   6.463   6.232 -1.3741 -1.0158 -1.2175
26135SOL     OW80172   2.219   1.372   7.295  0.4247 -0.0356 -0.0339
26135SOL    HW180173   2.299   1.320   7.293  0.8524  0.4385  1.9209
26135SOL    HW280174   2.250   1.462   7.307 -0.3708  0.3411 -0.7344
26136SOL     OW80175   2.429   2.216   4.739  0.1134  0.0771  0.3014
26136SOL    HW180176   2.416   2.193   4.647  2.5901  1.0642 -0.3820
26136SOL    HW280177   2.362   2.166   4.786 -0.3276 -1.5491 -1.8969
26137SOL     OW80178   0.714   2.731   2.550  0.5812 -0.0788  0.4188
26137SOL    HW180179   0.710   2.813   2.599 -0.0551  0.3463 -0.3188
26137SOL    HW280180   0.759   2.753   2.468  1.9320 -0.8529  0.9291
26138SOL     OW80181   8.302   0.730   2.833 -0.1641  0.4458 -0.2530
26138SOL    HW180182   8.324   0.818   2.802 -0.2007  1.8496  3.2673
26138SOL    HW280183   8.227   0.743   2.891  0.6043 -1.6910  1.3319
26139SOL     OW80184   9.228   9.099   7.412  0.4269 -0.1553  0.6136
26139SOL    HW180185   9.268   9.063   7.334  2.5147 -0.1469  1.6197
26139SOL    HW280186   9.224   9.193   7.396 -0.2074 -0.2676  0.0794
26140SOL     OW80187   2.796   1.290   3.608 -0.6758 -0.9282  0.7760
26140SOL    HW180188   2.718   1.305   3.662 -1.3066 -2.7948  0.4543
26140SOL    HW280189   2.863   1.260   3.670 -0.8236 -1.2387  0.7873
26141SOL     OW80190   8.081   1.157   3.460  0.0410  0.2570  0.0287
26141SOL    HW180191   8.070   1.133   3.368  0.0942  0.6071 -0.0709
26141SOL    HW280192   7.993   1.152   3.497  0.2823 -1.8621  0.4582
26142SOL     OW80193   1.921   8.329   4.694  0.2434  0.4251 -0.1827
26142SOL    HW180194   1.849   8.277   4.658  2.1756 -2.5799 -0.0707
26142SOL    HW280195   1.994   8.313   4.633  1.8433  0.2972  1.6808
26143SOL     OW80196   6.161   9.786   3.091  0.4555 -0.0216  0.4269
26143SOL    HW180197   6.227   9.718   3.102 -0.7623 -1.3886 -0.2951
26143SOL    HW280198   6.192   9.839   3.017  1.0591 -0.2360  0.5280
26144SOL     OW80199   3.426   6.449   2.327  0.4730  0.5845  0.4949
26144SOL    HW180200   3.405   6.503   2.251 -0.0889 -2.0068 -1.3327
26144SOL    HW280201   3.351   6.461   2.386 -0.6684  0.2537 -0.8153
26145SOL     OW80202   8.240   3.603   5.829  0.1696  0.0274  0.4804
26145SOL    HW180203   8.227   3.664   5.902  2.2066  0.6774  0.3650
26145SOL    HW280204   8.322   3.632   5.788 -0.7499 -0.4954 -1.9128
26146SOL     OW80205   5.668   3.047   5.376  0.5548  0.4991 -0.1892
26146SOL    HW180206   5.580   3.076   5.354  0.7341  3.2254  2.1433
26146SOL    HW280207   5.691   2.986   5.306 -3.1837 -0.4682 -0.8126
26147SOL     OW80208   6.407   5.931   6.561  0.2325  0.3339  0.0711
26147SOL    HW180209   6.402   5.975   6.646  2.5515  1.2644 -0.1937
26147SOL    HW280210   6.492   5.887   6.562 -0.1175 -0.4439 -1.4099
26148SOL     OW80211   3.123   6.694   6.238  0.6216 -0.5506 -0.6293
26148SOL    HW180212   3.159   6.694   6.327  0.0659 -0.0953 -0.4004
26148SOL    HW280213   3.194   6.661   6.184  1.2213 -0.1059 -0.1203
26149SOL     OW80214   4.598   2.369   3.541 -0.4539  0.0366  0.2878
26149SOL    HW180215   4.675   2.404   3.497  0.7056 -0.6283  1.7149
26149SOL    HW280216   4.580   2.431   3.612 -0.9085 -0.0965  0.2919
26150SOL     OW80217   9.483   2.242   5.796 -0.1393 -0.3260 -0.2995
26150SOL    HW180218   9.485   2.196   5.880 -2.0210  1.9162  1.1299
26150SOL    HW280219   9.390   2.244   5.773 -0.1695  2.5236 -0.2977
26151SOL     OW80220   2.918   7.246   2.062  0.1786  0.3030  0.4405
26151SOL    HW180221   2.963   7.165   2.086  1.0226  0.3377 -0.9231
26151SOL    HW280222   2.897   7.288   2.146  1.0474 -0.6014  1.1338
26152SOL     OW80223   7.651   5.070   4.779  0.1742 -0.7928 -0.0105
26152SOL    HW180224   7.747   5.071   4.772  0.2831 -0.7850  1.2651
26152SOL    HW280225   7.629   5.156   4.814 -0.3002 -0.8327 -0.2059
26153SOL     OW80226   7.422   0.158   6.591  0.5539  0.3805 -0.0040
26153SOL    HW180227   7.482   0.154   6.517  2.5399 -2.4303  1.5559
26153SOL    HW280228   7.467   0.214   6.655  1.8754 -1.9956  1.2997
26154SOL     OW80229   4.299   9.053   0.643  0.0131  0.0296 -0.1350
26154SOL    HW180230   4.360   9.104   0.697 -3.0923  2.4624  1.4260
26154SOL    HW280231   4.263   9.117   0.582 -0.6232 -1.4284 -1.3244
26155SOL     OW80232   3.344   5.920   1.470  0.6107 -0.0141 -0.0874
26155SOL    HW180233   3.277   5.958   1.527 -1.2543 -2.7583 -0.2503
26155SOL    HW280234   3.419   5.903   1.527 -0.0697  0.1242  0.8603
26156SOL     OW80235   2.447   4.167   1.763  0.1895 -0.1963  0.7425
26156SOL    HW180236   2.497   4.233   1.716  1.8327 -2.1459 -0.4071
26156SOL    HW280237   2.504   4.139   1.834  0.0732 -1.2496  0.4394
26157SOL     OW80238   3.909   5.679   6.653 -0.0510 -0.1823  0.0660
26157SOL    HW180239   3.833   5.626   6.630  0.8457 -1.2387 -0.5686
26157SOL    HW280240   3.960   5.622   6.712  0.8375  0.0298 -0.4824
26158SOL     OW80241   4.782   9.238   4.706  0.1514  0.0805  0.4836
26158SOL    HW180242   4.696   9.230   4.665 -0.1191  0.4218  0.9587
26158SOL    HW280243   4.828   9.157   4.684  0.4245  0.6918 -1.3750
26159SOL     OW80244   1.696   5.858   0.256 -0.1099 -0.4615 -0.0848
26159SOL    HW180245   1.671   5.885   0.168  0.6184  0.8389  0.0811
26159SOL    HW280246   1.613   5.849   0.303 -0.4387  0.2995 -0.4993
26160SOL     OW80247   3.556   1.483   1.692  0.0676 -0.5483  0.0828
26160SOL    HW180248   3.476   1.432   1.706  0.1818 -0.5226  0.8557
26160SOL    HW280249   3.583   1.461   1.602  0.0634 -1.7736  0.3644
26161SOL     OW80250   2.572   1.638   3.526 -0.1161 -0.0152 -0.5220
26161SOL    HW180251   2.517   1.646   3.448  1.0490  1.8432 -1.2260
26161SOL    HW280252   2.645   1.583   3.498 -0.9809 -1.5085  0.0662
26162SOL     OW80253   7.238   4.491   3.141 -0.0225 -0.5923  0.4018
26162SOL    HW180254   7.205   4.436   3.070 -1.6500  0.0333  0.6265
26162SOL    HW280255   7.232   4.436   3.219 -0.0604 -0.6417  0.3638
26163SOL     OW80256   4.268   3.626   5.037 -0.4702 -0.4484  0.6545
26163SOL    HW180257   4.281   3.619   4.943 -0.4190  0.2156  0.6116
26163SOL    HW280258   4.342   3.678   5.068  1.5440 -3.5570  1.5790
26164SOL     OW80259   1.277   6.661   1.367 -0.2358 -0.2385 -0.4478
26164SOL    HW180260   1.250   6.570   1.379  1.6708 -0.7640  0.1486
26164SOL    HW280261   1.306   6.665   1.276 -1.1677  0.0155 -0.7380
26165SOL     OW80262   3.024   8.146   1.126 -0.4134 -0.5781 -0.7343
26165SOL    HW180263   3.099   8.204   1.132  0.7257 -2.0485 -0.1023
26165SOL    HW280264   2.965   8.188   1.064 -0.3116  1.9532  0.7633
26166SOL     OW80265   1.641   4.986   9.762 -0.1999  0.0343  0.4394
26166SOL    HW180266   1.595   5.070   9.768  0.4456  0.5450 -1.1358
26166SOL    HW280267   1.693   4.982   9.842 -3.0168 -0.6484  2.3572
26167SOL     OW80268   2.736   8.053   3.085 -0.0718  0.0294  0.4392
26167SOL    HW180269   2.695   7.985   3.031  0.5600 -0.6570  0.8049
26167SOL    HW280270   2.749   8.011   3.170  1.1213  0.3157  0.4180
26168SOL     OW80271   0.936   8.232   3.522 -0.0031  0.2490  0.1729
26168SOL    HW180272   1.014   8.210   3.472  0.3396 -1.7932  1.4702
26168SOL    HW280273   0.863   8.208   3.465  0.2672  1.9639 -0.9603
26169SOL     OW80274   9.805   6.654   4.016 -0.7327 -0.3655  0.2852
26169SOL    HW180275   9.719   6.612   4.022 -0.3338 -1.0527  1.5147
26169SOL    HW280276   9.787   6.743   3.985 -1.5324 -1.6746 -3.6370
26170SOL     OW80277   7.022   0.227   2.445 -0.0686 -0.3736 -0.2570
26170SOL    HW180278   7.082   0.162   2.409  1.5312  0.7604  0.2352
26170SOL    HW280279   7.077   0.304   2.461 -1.2522  0.0981  2.0049
26171SOL     OW80280   5.119   3.026   8.536  0.6569 -0.2341 -0.8367
26171SOL    HW180281   5.138   2.935   8.513  0.3410 -0.7010  0.5971
26171SOL    HW280282   5.194   3.052   8.589  0.0061 -0.2080  0.0951
26172SOL     OW80283   8.163   7.503   8.529 -0.6229 -0.2024 -0.0615
26172SOL    HW180284   8.138   7.454   8.451 -1.9753 -0.8685  0.7493
26172SOL    HW280285   8.255   7.482   8.542 -0.1214  0.6565 -1.9673
26173SOL     OW80286   5.403   6.125   3.563 -0.2512 -0.3437 -0.2428
26173SOL    HW180287   5.416   6.104   3.470 -0.5394 -0.8322 -0.1770
26173SOL    HW280288   5.489   6.154   3.593 -0.2189  0.0895 -0.7272
26174SOL     OW80289   8.172   9.382   9.509  0.9829  0.2050  0.4981
26174SOL    HW180290   8.230   9.332   9.452  0.1299  0.6018 -0.7695
26174SOL    HW280291   8.180   9.339   9.594  0.6430 -1.8029 -0.4104
26175SOL     OW80292   1.406   6.544   3.274  0.1484  0.2797 -0.4576
26175SOL    HW180293   1.323   6.552   3.227  0.0226 -0.5741 -0.3982
26175SOL    HW280294   1.389   6.581   3.361 -0.5136 -0.9087 -0.0566
26176SOL     OW80295   4.987   0.978   9.176 -0.1053  0.0844 -0.4546
26176SOL    HW180296   5.067   0.944   9.135  0.3827 -0.1310  0.6308
26176SOL    HW280297   4.998   1.073   9.175  1.2732  0.0346  1.6918
26177SOL     OW80298   9.145   4.690   6.366 -0.0380  0.0289 -0.4588
26177SOL    HW180299   9.186   4.776   6.358 -0.6818  0.4927  0.9323
26177SOL    HW280300   9.193   4.647   6.436 -0.6511 -0.1796 -0.1625
26178SOL     OW80301   5.715   7.533   1.696 -0.3079 -0.2654  0.3274
26178SOL    HW180302   5.732   7.442   1.674 -0.2833 -0.5832  1.5996
26178SOL    HW280303   5.622   7.535   1.721  0.0682 -0.2638  1.7981
26179SOL     OW80304   1.190   1.225   7.495  0.3111 -0.3792 -0.0168
26179SOL    HW180305   1.116   1.273   7.459  1.1925 -0.2863 -1.8039
26179SOL    HW280306   1.217   1.276   7.572 -0.8696  0.1011  0.0883
26180SOL     OW80307   5.685   6.284   7.756 -0.6882  0.2368 -0.1213
26180SOL    HW180308   5.772   6.257   7.726 -0.6062 -1.2102  1.2935
26180SOL    HW280309   5.625   6.254   7.688 -0.3322 -1.3658  0.2405
26181SOL     OW80310   2.791   4.188   1.011  0.0309 -0.1048  0.6700
26181SOL    HW180311   2.864   4.225   0.962 -0.7384  1.4255  0.6427
26181SOL    HW280312   2.716   4.196   0.952 -0.3728 -0.7229  1.0876
26182SOL     OW80313   3.862   1.372   4.693 -0.1834 -0.0020  0.1857
26182SOL    HW180314   3.791   1.423   4.655 -1.9892 -0.5106  2.6616
26182SOL    HW280315   3.827   1.283   4.700  0.2884 -0.0735  2.3094
26183SOL     OW80316   2.372   1.876   2.733  0.7985  0.0265 -0.0084
26183SOL    HW180317   2.306   1.898   2.799 -1.2930 -0.5653 -1.7432
26183SOL    HW280318   2.353   1.785   2.711  2.3828 -0.2267 -0.3901
26184SOL     OW80319   7.933   7.684   9.226 -0.1260  0.1495 -0.0858
26184SOL    HW180320   7.904   7.616   9.287 -0.9936 -0.0721 -0.7314
26184SOL    HW280321   8.027   7.692   9.243 -0.1060 -0.8395  0.3670
26185SOL     OW80322   3.489   2.052   1.835 -0.2500  0.1546 -0.3951
26185SOL    HW180323   3.571   2.058   1.786 -0.3387  0.6662 -0.4885
26185SOL    HW280324   3.425   2.020   1.771 -0.4399  1.1306 -0.7224
26186SOL     OW80325   0.187   3.403   8.021 -0.2073 -0.3705 -0.7575
26186SOL    HW180326   0.187   3.330   7.959  0.5971  0.4878 -1.8166
26186SOL    HW280327   0.096   3.434   8.022 -0.2925 -0.5903 -1.2883
26187SOL     OW80328   3.983   2.171   2.596 -0.1901  0.1549  0.3212
26187SOL    HW180329   3.990   2.077   2.580 -3.7741 -0.3418  0.9034
26187SOL    HW280330   3.950   2.207   2.514  0.9108  0.9004  0.1873
26188SOL     OW80331   5.247   4.179   0.302  0.6815 -0.2569 -0.5842
26188SOL    HW180332   5.166   4.152   0.344  0.5773 -1.5988 -1.5667
26188SOL    HW280333   5.306   4.202   0.374  0.2651 -1.7262  0.2567
26189SOL     OW80334   0.859   5.554   3.429  0.6865  0.3719 -0.2087
26189SOL    HW180335   0.845   5.460   3.432  1.4820  0.2708  1.8561
26189SOL    HW280336   0.920   5.568   3.356  0.7282 -0.7221 -0.3900
26190SOL     OW80337   0.344   2.643   0.480  0.1954 -0.3242  0.1349
26190SOL    HW180338   0.354   2.615   0.389  1.1770 -1.2346  0.5048
26190SOL    HW280339   0.375   2.734   0.481  1.4764 -0.7403 -0.1988
26191SOL     OW80340   1.224   1.889   5.651 -0.4562  0.0888 -0.2306
26191SOL    HW180341   1.135   1.894   5.686 -0.7213 -1.2367 -0.6525
26191SOL    HW280342   1.276   1.854   5.723 -0.2909  0.7644 -0.0180
26192SOL     OW80343   4.944   0.509   8.106 -0.0709 -0.2266 -0.0253
26192SOL    HW180344   5.030   0.475   8.130  0.1315  1.6472  2.1699
26192SOL    HW280345   4.959   0.557   8.024  0.8930 -0.2356  0.1362
26193SOL     OW80346   3.229   5.856   8.094  0.0866  0.0075  0.4192
26193SOL    HW180347   3.300   5.877   8.154 -0.5157 -1.7551  1.8275
26193SOL    HW280348   3.268   5.862   8.007  0.8785  3.0355  0.8606
26194SOL     OW80349   4.495   8.935   8.797 -0.0872  0.1289 -0.1306
26194SOL    HW180350   4.506   9.000   8.866  1.0050  1.0468 -1.1249
26194SOL    HW280351   4.552   8.863   8.822 -0.8519 -0.2148  0.6759
26195SOL     OW80352   1.912   6.730   4.005 -0.3726 -0.7477 -0.4159
26195SOL    HW180353   1.990   6.762   3.960 -0.6999  2.3491  0.9354
26195SOL    HW280354   1.842   6.787   3.974 -0.6113  1.6634  3.7458
26196SOL     OW80355   5.743   4.484   5.907  0.6680  0.0031 -0.1627
26196SOL    HW180356   5.816   4.432   5.938 -0.4417 -1.3341  0.2878
26196SOL    HW280357   5.698   4.512   5.986  0.1547  0.0176 -0.4551
26197SOL     OW80358   5.694   4.657   7.146 -0.5568  0.3042 -0.1018
26197SOL    HW180359   5.787   4.662   7.127 -0.8391  1.0541 -1.3995
26197SOL    HW280360   5.670   4.566   7.131  0.0296  0.0165  0.6424
26198SOL     OW80361   8.883   8.585   8.390  0.4262 -0.7923 -1.0379
26198SOL    HW180362   8.906   8.529   8.464  0.8020  0.7996  0.1153
26198SOL    HW280363   8.963   8.633   8.370 -0.2951  0.5581 -0.8440
26199SOL     OW80364   9.737   0.997   2.466 -0.2346  0.0209 -0.3749
26199SOL    HW180365   9.774   1.046   2.393 -0.3188 -0.4868 -0.7606
26199SOL    HW280366   9.686   0.927   2.425  0.3612 -0.7465  0.1615
26200SOL     OW80367   3.609   8.783   7.345  0.1455  0.0817 -0.4284
26200SOL    HW180368   3.592   8.821   7.431  1.0907 -0.7906  0.1770
26200SOL    HW280369   3.704   8.773   7.342  0.0286 -1.0481 -1.0589
26201SOL     OW80370   3.020   7.779   7.624  0.3843  0.2873  0.4625
26201SOL    HW180371   2.956   7.850   7.621  0.7380  0.6979  1.7959
26201SOL    HW280372   3.071   7.796   7.703  1.7473 -0.3767 -0.2348
26202SOL     OW80373   7.851   6.052   2.120  0.0901  0.1289 -0.5421
26202SOL    HW180374   7.781   5.987   2.114  0.8389 -0.7016 -0.4637
26202SOL    HW280375   7.878   6.066   2.029  0.0803  0.1678 -0.5391
26203SOL     OW80376   2.742   6.313   1.969 -0.3894  0.0321  0.1873
26203SOL    HW180377   2.732   6.282   1.879  2.7284  0.4303 -0.4009
26203SOL    HW280378   2.806   6.253   2.008  1.0516  2.0021  0.9660
26204SOL     OW80379   4.265   5.584   0.107  0.4555 -0.0898 -0.1346
26204SOL    HW180380   4.174   5.554   0.105  0.0617  0.9826  0.8705
26204SOL    HW280381   4.310   5.529   0.042 -1.0137 -0.2670 -1.0393
26205SOL     OW80382   0.047   7.937   8.942 -0.3968  0.5843  0.0528
26205SOL    HW180383  -0.015   7.890   8.887  0.9108  2.1865 -3.0482
26205SOL    HW280384   0.111   7.871   8.968 -0.5320 -0.0757 -1.2154
26206SOL     OW80385   7.816   8.386   6.778 -0.3929  0.2623  0.4241
26206SOL    HW180386   7.852   8.317   6.722 -0.9633 -0.9757  1.5090
26206SOL    HW280387   7.887   8.448   6.790  0.3355 -0.4480 -0.1102
26207SOL     OW80388   0.653   3.069   5.146  0.3689 -0.5804 -0.3120
26207SOL    HW180389   0.686   2.987   5.185  1.3263  0.4856  1.2266
26207SOL    HW280390   0.659   3.133   5.217 -0.1585  0.8986 -1.5502
26208SOL     OW80391   7.475   1.135   4.082 -0.4982 -1.0237  0.6661
26208SOL    HW180392   7.423   1.195   4.136 -1.2211 -0.5392 -0.5224
26208SOL    HW280393   7.532   1.090   4.144  1.1011  1.9007  1.5243
26209SOL     OW80394   5.700   7.898   5.350 -0.2224  0.1601 -0.1291
26209SOL    HW180395   5.761   7.965   5.319  0.2858 -0.3061 -0.1516
26209SOL    HW280396   5.756   7.826   5.381 -0.7132  0.5273  1.7232
26210SOL     OW80397   9.300   3.399   5.758  0.6388 -0.0088  0.3662
26210SOL    HW180398   9.213   3.369   5.785  0.7206  0.0744  0.7142
26210SOL    HW280399   9.326   3.337   5.689  0.1359  0.2015 -0.0206
26211SOL     OW80400   8.687   7.233   5.687 -0.1495  0.0970 -0.0843
26211SOL    HW180401   8.743   7.311   5.690  0.3996 -0.3142  1.2113
26211SOL    HW280402   8.659   7.221   5.778 -3.2819  0.9118 -0.8270
26212SOL     OW80403   2.023   7.731   5.355 -0.7759  0.5185 -0.5737
26212SOL    HW180404   1.948   7.673   5.366 -0.0856 -0.1010  1.3185
26212SOL    HW280405   2.032   7.775   5.440  1.3446  0.1124 -0.5274
26213SOL     OW80406   7.712   7.500   3.302  0.5515 -0.3338  0.5153
26213SOL    HW180407   7.667   7.424   3.337 -1.4231  0.7235  0.4186
26213SOL    HW280408   7.683   7.505   3.210  1.1908  0.1393  0.3329
26214SOL     OW80409   0.367   1.516   7.610  0.1365 -0.5255  0.3321
26214SOL    HW180410   0.399   1.478   7.692 -1.4323  0.6302  1.5384
26214SOL    HW280411   0.447   1.539   7.562  1.1399  0.2028  2.2216
26215SOL     OW80412   5.303   4.559   4.649 -0.5860  0.4157 -0.0259
26215SOL    HW180413   5.357   4.529   4.575 -0.3009  0.6856  0.0704
26215SOL    HW280414   5.366   4.575   4.719 -0.7962  0.7115  0.0940
26216SOL     OW80415   8.088   4.520   7.154  0.3900 -0.7660  0.4476
26216SOL    HW180416   8.139   4.565   7.086 -1.0047 -0.0733 -0.1768
26216SOL    HW280417   8.051   4.591   7.206 -0.1906 -1.2479  0.6977
26217SOL     OW80418   2.404   1.048   0.524 -0.0757 -0.3534 -0.4706
26217SOL    HW180419   2.395   1.143   0.523 -0.3831 -0.3788 -0.2575
26217SOL    HW280420   2.342   1.018   0.591 -0.9600 -0.8089 -1.4685
26218SOL     OW80421   4.172   7.141   6.147  0.0870  0.2473  0.0364
26218SOL    HW180422   4.094   7.179   6.186 -0.2365 -1.4752  1.1746
26218SOL    HW280423   4.141   7.064   6.099  0.9865 -0.0478 -0.1105
26219SOL     OW80424   1.767   2.899   6.585  0.3314 -0.4638  0.6224
26219SOL    HW180425   1.798   2.978   6.629  2.3588 -0.4402 -0.6826
26219SOL    HW280426   1.675   2.916   6.565  0.3327  0.9372  1.6682
26220SOL     OW80427   0.401   7.950   3.458  0.6071  0.1271  0.0124
26220SOL    HW180428   0.454   7.930   3.535 -0.5097 -2.1961  0.2689
26220SOL    HW280429   0.442   7.901   3.386  0.1106  0.1102 -0.2662
26221SOL     OW80430   1.036   1.733   0.290  0.6138  0.5923 -0.4197
26221SOL    HW180431   1.125   1.765   0.277  1.1987 -0.5482  0.5640
26221SOL    HW280432   0.985   1.812   0.309  1.1805  1.3849 -1.9619
26222SOL     OW80433   4.684   2.654   3.980  0.3807  0.8729  0.2886
26222SOL    HW180434   4.618   2.699   4.034 -0.5324 -0.1855  0.0838
26222SOL    HW280435   4.654   2.669   3.890  1.1714  1.5118  0.1208
26223SOL     OW80436   9.517   9.502   3.011  0.1394 -0.2572  0.2650
26223SOL    HW180437   9.456   9.433   3.036  1.0757 -1.4525 -0.6118
26223SOL    HW280438   9.534   9.486   2.918  0.1220  1.3777 -0.0500
26224SOL     OW80439   7.217   7.023   8.989  0.2986  0.1129 -0.2867
26224SOL    HW180440   7.217   7.063   8.902  0.7852  0.9288  0.0726
26224SOL    HW280441   7.127   7.033   9.020  0.5273  1.5144  0.0292
26225SOL     OW80442   7.811   6.359   5.263  0.4676  0.3227 -0.3709
26225SOL    HW180443   7.886   6.299   5.255  0.6100  0.4247  0.1912
26225SOL    HW280444   7.846   6.434   5.310 -0.3064 -0.1743  1.0244
26226SOL     OW80445   8.337   7.151   1.293 -1.0546 -0.1255 -0.1526
26226SOL    HW180446   8.280   7.075   1.282 -2.0127  0.7699 -2.0482
26226SOL    HW280447   8.276   7.224   1.305 -0.3801  0.8467 -2.1553
26227SOL     OW80448   6.827   0.540   5.873  0.7613  0.5648  0.6061
26227SOL    HW180449   6.881   0.469   5.909  1.3310  2.2978  3.5624
26227SOL    HW280450   6.869   0.620   5.905 -1.4842  2.1508 -0.1400
26228SOL     OW80451   6.308   3.962   3.347  0.1441 -0.4703  0.0926
26228SOL    HW180452   6.316   3.962   3.442  1.2035  3.8884  0.2006
26228SOL    HW280453   6.397   3.941   3.316  0.4340  0.6166  0.1603
26229SOL     OW80454   0.711   7.735   6.878 -0.0305  0.2282 -0.2741
26229SOL    HW180455   0.638   7.720   6.818  1.0696 -2.2004 -1.1461
26229SOL    HW280456   0.671   7.739   6.965 -1.4103  1.5334 -0.9233
26230SOL     OW80457   4.552   8.469   8.848 -0.3499  0.1501 -0.1317
26230SOL    HW180458   4.491   8.429   8.909  1.5532 -0.0753  1.7557
26230SOL    HW280459   4.504   8.475   8.766 -2.0060 -2.4235  0.5305
26231SOL     OW80460   9.294   0.384   6.630  0.0001  0.0024  0.4116
26231SOL    HW180461   9.233   0.310   6.633 -0.4657  0.2985 -0.9675
26231SOL    HW280462   9.241   0.461   6.649  0.3927  0.0607  1.3604
26232SOL     OW80463   9.355   3.506   3.648 -0.2421 -0.0773  0.1122
26232SOL    HW180464   9.403   3.444   3.593  0.8691 -1.3539  2.3563
26232SOL    HW280465   9.284   3.538   3.593  0.5433 -1.5907 -1.8869
26233SOL     OW80466   7.890   6.082   3.293  0.6454  0.5212  0.0846
26233SOL    HW180467   7.810   6.054   3.248 -0.0848  2.1853  0.2620
26233SOL    HW280468   7.907   6.170   3.259  2.1512  0.3948  0.4156
26234SOL     OW80469   9.354   1.578   0.870  0.4053 -0.0568 -0.0012
26234SOL    HW180470   9.428   1.517   0.869  0.7651  0.3521  0.8186
26234SOL    HW280471   9.383   1.649   0.927  0.0068  0.9091 -0.9695
26235SOL     OW80472   4.280   3.242   6.272 -0.2280  0.0364 -0.0151
26235SOL    HW180473   4.231   3.239   6.190 -1.0680  1.6320  0.3803
26235SOL    HW280474   4.355   3.298   6.253 -0.5488  0.6009  0.3427
26236SOL     OW80475   5.174   9.661   4.805 -0.6165 -0.0240 -0.1123
26236SOL    HW180476   5.252   9.690   4.759  0.2408 -0.2049  1.1641
26236SOL    HW280477   5.118   9.624   4.737  0.7214 -0.5520 -0.9577
26237SOL     OW80478   8.737   2.206   2.228  0.1677  0.4550  0.3175
26237SOL    HW180479   8.754   2.247   2.313  0.6325  3.0361 -0.9141
26237SOL    HW280480   8.820   2.215   2.180 -0.4197  0.1377 -0.7985
26238SOL     OW80481   3.075   2.427   1.355 -0.3064  0.2793 -0.0391
26238SOL    HW180482   3.143   2.418   1.289 -1.6381  0.9070 -1.5727
26238SOL    HW280483   3.031   2.342   1.355  0.0306  0.1075  0.4201
26239SOL     OW80484   9.602   7.357   3.964 -0.5727 -0.2867 -0.0502
26239SOL    HW180485   9.678   7.304   3.938 -1.9139 -1.6121 -1.4259
26239SOL    HW280486   9.606   7.359   4.060  0.2468 -1.7530 -0.0271
26240SOL     OW80487   0.269   8.749   4.360 -0.4294  0.6002  1.2424
26240SOL    HW180488   0.297   8.683   4.423  0.0704 -0.8562 -0.4048
26240SOL    HW280489   0.202   8.800   4.405  0.0496 -0.2610  2.9792
26241SOL     OW80490   7.856   2.830   5.192 -0.7955 -0.2323  0.0258
26241SOL    HW180491   7.838   2.738   5.210  0.9173 -0.6897 -0.4106
26241SOL    HW280492   7.946   2.843   5.220 -0.5145  0.9282 -1.2977
26242SOL     OW80493   4.197   3.307   4.236 -0.0648  0.1428  0.5854
26242SOL    HW180494   4.282   3.301   4.192  0.2336 -0.9659  1.2624
26242SOL    HW280495   4.202   3.240   4.305 -1.5560 -0.0490  0.5255
26243SOL     OW80496   7.874   2.722   1.305  0.1126 -0.6237 -0.2270
26243SOL    HW180497   7.823   2.668   1.245 -1.4498  0.6029 -0.0569
26243SOL    HW280498   7.809   2.776   1.350  1.2584 -1.1889  2.2977
26244SOL     OW80499   3.076   6.546   7.975  0.3366  0.6173  0.0080
26244SOL    HW180500   3.067   6.598   7.895  0.7218  0.8567  0.1182
26244SOL    HW280501   3.094   6.458   7.944  0.4342  0.6996 -0.1731
26245SOL     OW80502   0.017   0.834   8.308  0.3341 -0.1972 -0.0028
26245SOL    HW180503   0.087   0.800   8.364 -0.5252  0.8522  1.8116
26245SOL    HW280504   0.004   0.924   8.339 -0.8537  0.0860 -1.2588
26246SOL     OW80505   4.158   5.743   9.746 -0.6451 -0.0612  0.2167
26246SOL    HW180506   4.208   5.702   9.817 -1.7166 -0.6554  0.6584
26246SOL    HW280507   4.081   5.780   9.789 -2.7515 -2.8122 -0.9036
26247SOL     OW80508   0.825   4.592   8.311  0.0006 -0.0770  0.0662
26247SOL    HW180509   0.777   4.572   8.230  0.6502  1.6579 -0.7846
26247SOL    HW280510   0.777   4.545   8.379 -2.9130  1.4893 -0.7331
26248SOL     OW80511   2.504   1.293   3.248  0.5479  0.1588  0.2890
26248SOL    HW180512   2.474   1.258   3.332 -0.7061  0.0911 -0.1708
26248SOL    HW280513   2.424   1.323   3.205  0.6844 -2.5487 -2.1718
26249SOL     OW80514   1.864   0.179   6.102  0.9696 -0.2222 -0.6003
26249SOL    HW180515   1.862   0.084   6.087  1.0418 -0.3948  0.4052
26249SOL    HW280516   1.773   0.207   6.089  1.2835 -0.0781 -2.8632
26250SOL     OW80517   7.041   2.369   3.221 -0.4056 -0.4690 -0.4955
26250SOL    HW180518   7.109   2.406   3.165 -0.4708  0.0641 -0.2335
26250SOL    HW280519   6.980   2.326   3.161 -1.9774  2.4279 -1.1734
26251SOL     OW80520   8.031   1.114   5.536  0.7770 -0.2662 -0.5246
26251SOL    HW180521   7.994   1.044   5.590 -0.9952  0.8220 -0.2527
26251SOL    HW280522   8.017   1.194   5.587  0.6037  0.5771 -1.8342
26252SOL     OW80523   4.844   3.961   8.903 -0.4978 -0.5162  0.3761
26252SOL    HW180524   4.873   4.031   8.961 -0.2499 -1.0670  0.9249
26252SOL    HW280525   4.754   3.985   8.880 -0.5679 -0.2389  0.9114
26253SOL     OW80526   8.744   4.422   1.325  0.0219  0.0928  0.1023
26253SOL    HW180527   8.831   4.436   1.288  0.1345  2.0027  0.9916
26253SOL    HW280528   8.761   4.387   1.413 -0.1875 -1.3956 -0.4136
26254SOL     OW80529   3.073   0.476   7.182 -0.8196 -0.3917  0.1753
26254SOL    HW180530   3.166   0.453   7.176 -0.9690 -0.9565  0.0105
26254SOL    HW280531   3.030   0.422   7.116 -1.0808  0.9121 -0.7493
26255SOL     OW80532   8.971   6.476   6.035 -0.2092 -0.2393 -0.9666
26255SOL    HW180533   9.005   6.532   5.965  1.9883  0.6360  0.7047
26255SOL    HW280534   9.030   6.400   6.035 -0.3926 -0.3831 -0.2588
26256SOL     OW80535   2.353   2.345   8.146  0.1704  0.0800 -0.3459
26256SOL    HW180536   2.322   2.323   8.234  0.9675 -0.9989 -0.3108
26256SOL    HW280537   2.443   2.373   8.159  0.9471 -1.9703 -0.9977
26257SOL     OW80538   5.814   5.324   0.854  0.2902 -0.2391  0.2649
26257SOL    HW180539   5.898   5.363   0.830  0.5950 -0.6343  0.6697
26257SOL    HW280540   5.812   5.240   0.807  0.2623 -0.3725  0.4997
26258SOL     OW80541   5.056   0.371   5.719  0.7227  0.2783 -0.2677
26258SOL    HW180542   5.103   0.295   5.686 -0.2513 -0.0169 -1.0209
26258SOL    HW280543   4.964   0.344   5.720  0.4354  1.2252  0.0773
26259SOL     OW80544   9.147   6.888   1.712 -1.0127 -0.0804  0.3939
26259SOL    HW180545   9.182   6.801   1.729  0.1562  0.5793  1.4513
26259SOL    HW280546   9.065   6.871   1.664 -0.2301 -1.7020 -0.4540
26260SOL     OW80547   4.292   9.100   9.232  0.4529  0.5807  0.3294
26260SOL    HW180548   4.249   9.019   9.207  3.4552 -0.6026 -1.5411
26260SOL    HW280549   4.345   9.076   9.309  0.7369  0.9543  0.2549
26261SOL     OW80550   0.089   9.339   0.357 -0.7138 -0.3179  0.6437
26261SOL    HW180551   0.028   9.412   0.349 -0.6212 -0.3093 -0.0960
26261SOL    HW280552   0.172   9.374   0.322 -0.9142 -1.0621 -0.6382
26262SOL     OW80553   2.576   0.230   8.607  0.4215  0.3909  0.0814
26262SOL    HW180554   2.629   0.248   8.529  0.7731  2.1801  0.7080
26262SOL    HW280555   2.639   0.220   8.678  0.1086 -1.3534  0.1581
26263SOL     OW80556   4.353   1.813   1.722 -0.4128 -0.1595  0.8503
26263SOL    HW180557   4.300   1.786   1.797 -2.1559 -0.3981 -0.3959
26263SOL    HW280558   4.295   1.804   1.647  1.3287 -0.1141 -0.5820
26264SOL     OW80559   3.960   8.779   5.678 -0.0526 -0.0619 -0.2885
26264SOL    HW180560   3.956   8.752   5.586 -0.7993  1.1920 -0.6506
26264SOL    HW280561   3.869   8.780   5.707  0.1269  0.1571  0.2784
26265SOL     OW80562   0.517   4.840   4.795  0.6348  0.1030 -0.0003
26265SOL    HW180563   0.498   4.863   4.886  0.8909 -0.3745  0.1802
26265SOL    HW280564   0.593   4.894   4.772 -0.2736  1.2402 -0.3857
26266SOL     OW80565   5.178   6.336   1.999  0.2028  1.1381  0.0332
26266SOL    HW180566   5.258   6.355   1.951  0.0550  0.5184 -0.4844
26266SOL    HW280567   5.128   6.279   1.940 -0.5674  1.4239  0.3909
26267SOL     OW80568   1.759   3.276   8.688  0.3016 -0.0247  0.4357
26267SOL    HW180569   1.703   3.248   8.761 -0.0370  1.2078  0.6625
26267SOL    HW280570   1.789   3.194   8.649 -2.3829 -0.7917 -0.2501
26268SOL     OW80571   2.658   0.262   9.224 -0.5960  0.3421 -0.9773
26268SOL    HW180572   2.614   0.177   9.223  0.8844 -0.5072  0.0860
26268SOL    HW280573   2.739   0.246   9.274 -0.5505  2.5098 -0.2276
26269SOL     OW80574   1.185   6.001   9.410  0.2481 -0.0317 -0.6185
26269SOL    HW180575   1.123   6.073   9.417 -0.1707 -0.2967 -1.4712
26269SOL    HW280576   1.152   5.934   9.470  0.8920  0.6404  0.5293
26270SOL     OW80577   6.680   2.016   9.238  0.1095 -0.5194 -0.0376
26270SOL    HW180578   6.740   2.051   9.305  0.2177  0.8210 -0.8001
26270SOL    HW280579   6.593   2.029   9.275  0.1230  1.0442 -0.5016
26271SOL     OW80580   3.580   7.106   0.330  0.2312 -0.1473  0.1695
26271SOL    HW180581   3.564   7.030   0.387  0.8128 -0.7147 -0.3939
26271SOL    HW280582   3.506   7.106   0.269  0.3689 -0.4396 -0.0031
26272SOL     OW80583   8.483   3.979   2.318  0.5760 -0.3778 -0.2438
26272SOL    HW180584   8.551   3.915   2.294  0.4178 -1.2636  1.4933
26272SOL    HW280585   8.404   3.947   2.275  0.0997 -2.4131  1.9421
26273SOL     OW80586   3.720   9.201   6.059 -0.1148  0.1288  0.0543
26273SOL    HW180587   3.702   9.294   6.053  2.0654  0.5318 -1.0802
26273SOL    HW280588   3.813   9.195   6.082 -0.2024 -1.7647  0.1127
26274SOL     OW80589   3.298   4.080   9.214 -0.5291  0.0238 -0.2568
26274SOL    HW180590   3.284   4.171   9.242  2.8056  0.5460  0.0743
26274SOL    HW280591   3.352   4.087   9.136 -2.6168 -1.6886 -1.9591
26275SOL     OW80592   6.338   4.219   3.160 -0.8187  0.3234  0.7988
26275SOL    HW180593   6.356   4.149   3.223  0.5098 -0.7564 -0.7067
26275SOL    HW280594   6.419   4.270   3.157  0.3522 -1.4893 -2.2432
26276SOL     OW80595   3.841   2.169   2.013 -0.2315 -0.2417  0.3549
26276SOL    HW180596   3.779   2.109   2.054 -0.4273  0.1770  0.6736
26276SOL    HW280597   3.817   2.255   2.046  0.7476 -0.1138  0.7788
26277SOL     OW80598   6.939   9.810   1.065  0.3821  0.0584 -0.3036
26277SOL    HW180599   6.919   9.903   1.055 -3.5598 -0.7381 -1.7567
26277SOL    HW280600   6.964   9.780   0.978  0.0462 -0.4997 -0.2197
26278SOL     OW80601   3.791   0.120   4.084 -0.1289 -0.0172 -0.0106
26278SOL    HW180602   3.882   0.132   4.113 -0.3272  1.0418  0.2348
26278SOL    HW280603   3.765   0.207   4.052 -0.5158 -0.7132 -1.6707
26279SOL     OW80604   0.806   4.731   9.513 -0.1842 -0.8327 -0.1931
26279SOL    HW180605   0.814   4.782   9.594 -1.6780  0.1665 -0.6488
26279SOL    HW280606   0.724   4.682   9.523 -0.5313 -0.4812 -1.2106
26280SOL     OW80607   3.539   4.503   4.828 -0.0905 -0.1354  0.2032
26280SOL    HW180608   3.597   4.456   4.888 -0.4597 -0.9251 -0.0468
26280SOL    HW280609   3.597   4.542   4.764  0.1068 -2.0966 -0.8717
26281SOL     OW80610   8.186   0.379   3.668  0.1117  0.0993  0.0842
26281SOL    HW180611   8.130   0.455   3.686  0.3922  0.4684 -0.5655
26281SOL    HW280612   8.207   0.344   3.754 -2.5406 -1.1208  0.3441
26282SOL     OW80613   7.673   2.576   3.244  0.6457  0.7341 -0.1312
26282SOL    HW180614   7.752   2.592   3.193  1.0013 -1.4902 -0.3702
26282SOL    HW280615   7.663   2.481   3.244 -0.2913  0.7467  2.5027
26283SOL     OW80616   0.408   5.860   0.004 -0.2075 -0.2013 -0.0735
26283SOL    HW180617   0.500   5.883  -0.006 -0.5459  0.4864 -1.7924
26283SOL    HW280618   0.405   5.767  -0.020  0.3984 -0.9622  2.4490
26284SOL     OW80619   3.700   0.698   6.850  0.5490  0.1266  0.1706
26284SOL    HW180620   3.795   0.694   6.854  0.7313  0.8814 -2.2348
26284SOL    HW280621   3.679   0.695   6.757 -1.8348 -0.6815  0.6504
26285SOL     OW80622   7.257   9.841   3.402 -0.4660  0.0644  0.3633
26285SOL    HW180623   7.192   9.856   3.471 -1.1312  1.1067 -0.4560
26285SOL    HW280624   7.208   9.801   3.331 -0.2839  1.0741 -0.3533
26286SOL     OW80625   7.358   4.824   1.119  0.5911  0.4132  0.1007
26286SOL    HW180626   7.306   4.746   1.139  0.3723  0.7510  0.9144
26286SOL    HW280627   7.342   4.841   1.027  0.1557 -0.1481  0.0679
26287SOL     OW80628   7.294   5.180   8.016  0.1938  0.4477 -0.5874
26287SOL    HW180629   7.292   5.154   7.924 -0.9623  0.9669 -0.7321
26287SOL    HW280630   7.302   5.098   8.064 -1.2000 -0.0313 -1.1079
26288SOL     OW80631   7.271   6.754   8.313 -0.1799  0.0992  0.0827
26288SOL    HW180632   7.206   6.731   8.247  0.4992 -0.4642 -0.4022
26288SOL    HW280633   7.349   6.776   8.263  0.0307  0.6975  0.6613
26289SOL     OW80634   5.790   2.901   9.428  0.0417  0.6544  0.2227
26289SOL    HW180635   5.755   2.954   9.356 -0.2426  2.9167  1.9347
26289SOL    HW280636   5.738   2.926   9.504  0.4700 -1.5199  1.3030
26290SOL     OW80637   1.856   2.451   7.040  0.2117 -0.2816 -0.1023
26290SOL    HW180638   1.854   2.402   6.958  1.5326  0.2482 -0.4756
26290SOL    HW280639   1.937   2.423   7.082  0.0471  0.2097  0.5526
26291SOL     OW80640   1.494   2.222   8.862 -0.6740  0.0105  0.4035
26291SOL    HW180641   1.576   2.270   8.845 -0.8243  0.3444  0.6163
26291SOL    HW280642   1.465   2.254   8.947 -0.2940 -1.1426  0.9777
26292SOL     OW80643   0.884   4.178   1.576 -0.0605 -0.1172  0.6719
26292SOL    HW180644   0.957   4.225   1.535  0.1151 -1.0176 -0.0846
26292SOL    HW280645   0.909   4.085   1.570 -1.2346 -0.4348  0.4689
26293SOL     OW80646   3.831   6.954   9.462 -0.2169 -0.1748 -0.3804
26293SOL    HW180647   3.828   6.900   9.542  0.5077  1.1039  0.5510
26293SOL    HW280648   3.887   6.904   9.402  1.0836 -0.1404  0.7465
26294SOL     OW80649   7.768   7.305   0.292  0.1639 -0.0543 -0.5123
26294SOL    HW180650   7.745   7.221   0.331  0.7064 -0.1954 -0.4866
26294SOL    HW280651   7.809   7.283   0.209 -0.7166  0.2343 -1.0317
26295SOL     OW80652   9.209   6.887   8.154  0.0499 -0.6362 -0.2404
26295SOL    HW180653   9.222   6.971   8.111 -0.3908  0.5347  1.7816
26295SOL    HW280654   9.128   6.852   8.115  0.4146 -0.3005 -1.3280
26296SOL     OW80655   5.881   3.347   0.138 -0.3133 -0.7826 -0.2351
26296SOL    HW180656   5.845   3.289   0.071 -0.6939  0.0724 -0.7823
26296SOL    HW280657   5.806   3.372   0.192 -0.2938 -0.2036 -0.4645
26297SOL     OW80658   5.022   0.211   0.705 -0.2689 -0.3782 -0.3061
26297SOL    HW180659   5.045   0.247   0.619  0.7993  0.9210  0.4898
26297SOL    HW280660   5.099   0.163   0.733  0.7103  1.9701  1.3194
26298SOL     OW80661   9.418   5.006   1.106  0.6530  0.1183  0.2383
26298SOL    HW180662   9.417   5.058   1.187 -1.2472  0.1006  0.2609
26298SOL    HW280663   9.497   5.035   1.061  1.9432 -0.1007  2.2175
26299SOL     OW80664   1.277   7.417   7.375 -0.5391 -0.3353 -0.2859
26299SOL    HW180665   1.263   7.342   7.433  0.4098  0.7133  1.3997
26299SOL    HW280666   1.197   7.468   7.383  0.2683  0.7600  1.7016
26300SOL     OW80667   5.240   4.673   5.973  0.3933  0.5828 -0.0682
26300SOL    HW180668   5.251   4.723   5.892 -2.3551 -1.6566 -2.0383
26300SOL    HW280669   5.148   4.688   5.998  0.7566 -0.0119  1.7807
26301SOL     OW80670   9.276   6.569   1.489  0.6694 -0.8182 -0.7487
26301SOL    HW180671   9.184   6.553   1.472  0.4434 -0.8153  0.4152
26301SOL    HW280672   9.317   6.566   1.403 -0.4158 -0.7847 -1.2796
26302SOL     OW80673   7.115   2.163   5.670  0.2925 -0.3386  1.3973
26302SOL    HW180674   7.210   2.149   5.671  0.8153  2.1481 -1.1473
26302SOL    HW280675   7.078   2.075   5.665  2.6460 -1.3353 -0.8504
26303SOL     OW80676   7.416   0.960   0.041 -0.3861 -0.4583  0.1108
26303SOL    HW180677   7.439   0.872   0.069 -0.5395 -0.3566  0.5648
26303SOL    HW280678   7.449   1.017   0.111 -1.4407 -0.2560  0.4567
26304SOL     OW80679   4.014   0.177   4.287  0.1341  0.0495 -0.6002
26304SOL    HW180680   3.941   0.237   4.300  0.7540  0.8735 -0.8748
26304SOL    HW280681   4.088   0.233   4.264  1.3284 -0.5776  1.4495
26305SOL     OW80682   5.396   7.570   4.041  0.1185 -0.0685 -0.3992
26305SOL    HW180683   5.419   7.529   4.125  1.0406  0.6892 -0.2716
26305SOL    HW280684   5.451   7.525   3.977  0.9997  0.8053 -0.2837
26306SOL     OW80685   0.319   3.142   2.219 -0.2309  0.1029  0.4550
26306SOL    HW180686   0.282   3.099   2.296 -0.4980  0.7006  0.6669
26306SOL    HW280687   0.414   3.130   2.228 -0.3600 -2.0191 -0.4308
26307SOL     OW80688   0.852   7.859   7.495 -0.5467  0.1795 -0.7355
26307SOL    HW180689   0.812   7.938   7.458 -2.8581 -0.4881  0.0977
26307SOL    HW280690   0.914   7.891   7.560 -0.0570  1.3091 -1.7478
26308SOL     OW80691   5.417   1.760   6.347 -0.1520 -0.1627  0.4697
26308SOL    HW180692   5.345   1.746   6.407  0.0085 -1.2534  0.4256
26308SOL    HW280693   5.384   1.731   6.262 -0.3000  1.1479  0.0578
26309SOL     OW80694   4.049   4.599   3.928 -0.5619 -0.3396  0.0320
26309SOL    HW180695   3.956   4.597   3.906 -0.1308 -1.3625 -1.9291
26309SOL    HW280696   4.087   4.657   3.863  0.1211  0.5433  1.1838
26310SOL     OW80697   2.847   5.331   6.804  0.0527  0.1037  0.0936
26310SOL    HW180698   2.871   5.287   6.886 -0.5061 -0.3423  0.0272
26310SOL    HW280699   2.815   5.417   6.831 -1.8190 -0.6827  0.5326
26311SOL     OW80700   8.036   2.919   8.604  0.2454  0.2593 -0.0681
26311SOL    HW180701   8.115   2.941   8.555  0.7526 -0.5326  0.3696
26311SOL    HW280702   8.051   2.830   8.636 -0.7457  0.1671  0.1864
26312SOL     OW80703   3.819   7.026   1.799 -0.1737  0.2548  0.4138
26312SOL    HW180704   3.808   6.957   1.864 -1.0557 -0.4290 -0.4295
26312SOL    HW280705   3.797   7.107   1.845 -0.8304 -0.2295  0.9563
26313SOL     OW80706   7.878   4.407   5.764 -0.3609  0.2302 -0.3640
26313SOL    HW180707   7.806   4.402   5.702  0.7472  2.0334 -1.9032
26313SOL    HW280708   7.934   4.333   5.742 -2.3820 -2.2135  1.9209
26314SOL     OW80709   4.271   3.995   3.022 -0.8800  0.3442 -0.3576
26314SOL    HW180710   4.269   3.912   3.069  0.7237  1.1460  1.2776
26314SOL    HW280711   4.197   4.044   3.058 -1.6769 -0.2603 -1.1433
26315SOL     OW80712   0.878   7.527   9.677 -0.3568 -0.0443 -0.0309
26315SOL    HW180713   0.793   7.563   9.703  0.0404  0.5603  0.4697
26315SOL    HW280714   0.934   7.542   9.753  0.4331  0.3616 -0.6880
26316SOL     OW80715   8.886   0.514   1.274  0.0496  0.6228  0.8463
26316SOL    HW180716   8.907   0.513   1.368  1.4376 -0.3278  0.5685
26316SOL    HW280717   8.944   0.447   1.237 -0.4991  0.9700 -0.6869
26317SOL     OW80718   4.187   3.127   3.185  1.0309  0.1635 -0.3637
26317SOL    HW180719   4.098   3.098   3.207  0.9251  1.5994  1.3322
26317SOL    HW280720   4.207   3.082   3.103 -0.1438 -2.4487  0.6553
26318SOL     OW80721   0.070   5.463   2.839 -0.3697  0.3241  0.4188
26318SOL    HW180722   0.107   5.375   2.828 -0.5492  0.3647 -0.6073
26318SOL    HW280723   0.125   5.519   2.784 -0.2205  0.8676  1.1159
26319SOL     OW80724   5.896   4.328   7.565  0.0933 -0.2870 -0.1797
26319SOL    HW180725   5.848   4.407   7.592  0.3770 -0.2183  0.1269
26319SOL    HW280726   5.965   4.361   7.508  0.2811 -0.3035  0.0392
26320SOL     OW80727   1.253   9.701   6.890 -0.1640  0.8574  0.0055
26320SOL    HW180728   1.158   9.695   6.893 -0.1284 -0.0649 -0.5788
26320SOL    HW280729   1.273   9.733   6.802  0.0937  0.3954 -0.1062
26321SOL     OW80730   9.830   6.893   3.328  0.1430  0.1842 -0.4722
26321SOL    HW180731   9.829   6.923   3.237 -1.2097  0.6265 -0.3310
26321SOL    HW280732   9.885   6.815   3.327  1.8706  1.3691 -1.2658
26322SOL     OW80733   3.300   3.536   2.811  0.6415 -0.0993  0.4933
26322SOL    HW180734   3.252   3.487   2.878 -0.9463  3.0508  1.8567
26322SOL    HW280735   3.371   3.579   2.859  1.6861 -0.5785 -0.5650
26323SOL     OW80736   2.928   6.136   6.475  0.0916 -0.2197  0.0399
26323SOL    HW180737   3.010   6.099   6.442  0.3610  0.7285 -0.3898
26323SOL    HW280738   2.923   6.223   6.435 -1.2446 -0.3518 -0.1381
26324SOL     OW80739   6.213   2.863   6.451  0.2900  0.1941 -0.3727
26324SOL    HW180740   6.299   2.821   6.443  0.4945  0.8976 -2.6551
26324SOL    HW280741   6.232   2.954   6.472  0.2107  0.6722 -2.2492
26325SOL     OW80742   8.151   4.460   0.644 -0.3562  0.0085  0.2796
26325SOL    HW180743   8.247   4.465   0.650 -0.3353  1.6470 -0.9114
26325SOL    HW280744   8.128   4.522   0.575 -2.1625 -1.6981 -0.7307
26326SOL     OW80745   1.122   5.465   4.619  0.3038 -0.0232  0.1159
26326SOL    HW180746   1.129   5.420   4.535 -2.4249 -1.1410  0.3792
26326SOL    HW280747   1.175   5.412   4.679 -0.0451 -0.8952 -0.3248
26327SOL     OW80748   5.630   9.452   2.806  0.1450 -0.3654 -0.5172
26327SOL    HW180749   5.590   9.536   2.828  1.9088 -0.0035  1.7600
26327SOL    HW280750   5.602   9.393   2.877 -0.2560 -1.4651 -1.5452
26328SOL     OW80751   0.697   6.610   1.690 -0.0321 -0.6372  0.0786
26328SOL    HW180752   0.768   6.547   1.687 -1.0000 -1.7478 -0.2757
26328SOL    HW280753   0.740   6.695   1.701  1.2174 -1.5534  3.1118
26329SOL     OW80754   6.675   8.944   6.386  0.0376  0.2641  0.3203
26329SOL    HW180755   6.580   8.948   6.398 -0.1525 -0.9114 -0.5795
26329SOL    HW280756   6.710   8.928   6.474 -0.7611 -1.2183  0.3980
26330SOL     OW80757   8.092   2.152   3.790 -0.2996  0.4271 -0.3504
26330SOL    HW180758   8.168   2.138   3.847  0.4294  0.8142 -1.1976
26330SOL    HW280759   8.022   2.099   3.829  0.0851  0.9231  1.0685
26331SOL     OW80760   0.074   3.274   8.698  0.5445 -0.5458  0.1909
26331SOL    HW180761   0.112   3.277   8.786  0.9508  0.8620 -0.0083
26331SOL    HW280762   0.049   3.365   8.680  2.6699 -0.3121 -2.0827
26332SOL     OW80763   3.772   0.906   3.763  0.6147  0.4594 -0.1083
26332SOL    HW180764   3.774   0.879   3.855 -0.4597  0.5266 -0.0606
26332SOL    HW280765   3.864   0.903   3.736  1.0235  0.9839  1.1222
26333SOL     OW80766   9.386   1.118   8.614  0.3768  0.6593 -0.2563
26333SOL    HW180767   9.419   1.174   8.543  0.2654  1.8236  0.5709
26333SOL    HW280768   9.331   1.054   8.570  2.0385 -0.0252 -1.4527
26334SOL     OW80769   4.767   8.083   8.233 -0.1044  0.4084 -0.4746
26334SOL    HW180770   4.781   8.072   8.139  0.4204 -1.5305 -0.2188
26334SOL    HW280771   4.855   8.075   8.271 -0.5664 -1.2417  0.3378
26335SOL     OW80772   5.980   5.069   0.988 -0.0058 -0.4266 -0.3242
26335SOL    HW180773   5.924   5.063   0.911  0.6698 -3.0656 -0.7080
26335SOL    HW280774   5.949   5.147   1.034 -0.6820  1.0235 -3.0172
26336SOL     OW80775   5.351   8.954   0.906 -0.2235  0.3075 -0.4467
26336SOL    HW180776   5.322   8.865   0.929  0.9362  0.5636  2.4379
26336SOL    HW280777   5.435   8.941   0.863 -0.4889 -0.0241 -0.8745
26337SOL     OW80778   7.935   5.406   5.676 -0.1825 -0.7273 -0.0747
26337SOL    HW180779   7.966   5.468   5.611 -3.2015 -0.1678 -1.1650
26337SOL    HW280780   8.001   5.407   5.745  1.7562  0.7444 -1.8517
26338SOL     OW80781   0.471   1.157   1.837 -0.5198 -0.3356 -0.2961
26338SOL    HW180782   0.408   1.088   1.858 -0.4198 -0.5731 -0.7589
26338SOL    HW280783   0.548   1.109   1.805 -0.8794  0.0288 -1.7832
26339SOL     OW80784   7.376   5.565   6.784 -0.5189  0.0212 -0.0254
26339SOL    HW180785   7.469   5.549   6.765 -0.8083 -0.7959 -0.8471
26339SOL    HW280786   7.341   5.602   6.703 -0.9019  0.3716  0.2959
26340SOL     OW80787   3.202   9.612   1.245  0.3764  0.7052 -0.0812
26340SOL    HW180788   3.280   9.557   1.236  0.2785  0.5964 -0.2678
26340SOL    HW280789   3.212   9.679   1.177 -2.0489 -2.1099 -3.5990
26341SOL     OW80790   3.493   8.092   7.500  0.3844 -0.0339 -0.0447
26341SOL    HW180791   3.496   8.064   7.409 -0.3031  1.0726 -0.4284
26341SOL    HW280792   3.429   8.034   7.541 -0.8720  0.7681 -0.7816
26342SOL     OW80793   1.792   3.714   1.984  0.3939 -0.5612 -0.1253
26342SOL    HW180794   1.841   3.758   1.915 -0.7869  0.8697 -0.0974
26342SOL    HW280795   1.774   3.783   2.049 -0.7579 -1.2689  0.3410
26343SOL     OW80796   0.715   8.153   2.140 -0.1765 -0.0465 -0.0378
26343SOL    HW180797   0.786   8.101   2.103  1.2859  0.7690  1.4603
26343SOL    HW280798   0.675   8.197   2.064  0.7154 -0.7638 -0.9484
26344SOL     OW80799   5.950   4.521   4.004  0.3862 -0.1149 -0.3699
26344SOL    HW180800   5.947   4.596   3.946 -0.3078 -0.8831 -1.3498
26344SOL    HW280801   6.004   4.550   4.078  0.8062  1.0558 -1.1173
26345SOL     OW80802   0.447   2.801   8.330  0.1939 -0.0360 -0.0363
26345SOL    HW180803   0.526   2.749   8.339  1.1245  0.7678 -2.6801
26345SOL    HW280804   0.381   2.739   8.297 -0.2049 -0.6055  1.7473
26346SOL     OW80805   4.626   6.097   6.591  0.1056 -0.1023  0.4700
26346SOL    HW180806   4.539   6.116   6.625  0.5868 -1.6922  2.8396
26346SOL    HW280807   4.686   6.121   6.662  1.3664 -1.5990 -0.0275
26347SOL     OW80808   8.720   7.567   6.199  0.0061 -0.0603  0.0885
26347SOL    HW180809   8.796   7.625   6.193 -0.0861  0.2323  1.3994
26347SOL    HW280810   8.701   7.562   6.292 -2.3195  0.8572 -0.2466
26348SOL     OW80811   9.013   8.642   0.245  0.2975  0.2238  0.6759
26348SOL    HW180812   8.984   8.599   0.164  2.1059 -1.3565  0.8015
26348SOL    HW280813   8.946   8.617   0.309 -1.8960  2.5942 -0.5192
26349SOL     OW80814   6.934   6.905   2.719  0.0764  0.0855  0.3713
26349SOL    HW180815   6.869   6.853   2.673 -0.7080  1.7172 -0.4534
26349SOL    HW280816   6.883   6.971   2.766  1.0868  0.9756  0.2648
26350SOL     OW80817   2.828   6.837   9.608  0.0291  0.2897  0.5189
26350SOL    HW180818   2.823   6.854   9.702 -0.9086  1.9054  0.2251
26350SOL    HW280819   2.777   6.757   9.595  1.7003 -1.0016  1.5754
26351SOL     OW80820   2.907   9.530   0.567 -0.0714 -0.2743  0.3682
26351SOL    HW180821   3.000   9.532   0.543 -0.4025 -0.1866 -1.0039
26351SOL    HW280822   2.905   9.561   0.657  1.0070  2.3893 -0.4105
26352SOL     OW80823   0.224   3.725   5.194 -0.0553 -0.0054 -0.0195
26352SOL    HW180824   0.175   3.669   5.255 -0.5938  0.9854  0.4884
26352SOL    HW280825   0.188   3.705   5.108 -0.3912 -0.2686  0.1802
26353SOL     OW80826   3.676   2.333   3.706  0.5251 -0.2585  0.1404
26353SOL    HW180827   3.761   2.288   3.703 -0.0090 -1.2364 -1.2539
26353SOL    HW280828   3.689   2.411   3.651  0.1402 -1.1679 -1.2984
26354SOL     OW80829   1.287   0.613   7.045 -0.0466  0.0794 -0.2105
26354SOL    HW180830   1.295   0.638   6.953  2.2341 -0.3721 -0.2156
26354SOL    HW280831   1.296   0.695   7.093  0.0744  0.1647 -0.3765
26355SOL     OW80832   7.630   4.211   4.741 -0.7343  0.9457  0.4621
26355SOL    HW180833   7.586   4.248   4.664  0.5751  0.5076 -0.5349
26355SOL    HW280834   7.559   4.174   4.793 -1.4682 -2.1533 -2.3797
26356SOL     OW80835   1.270   8.681   2.548  0.5919  0.2522 -0.1182
26356SOL    HW180836   1.319   8.741   2.603  2.3377 -0.1135 -1.2127
26356SOL    HW280837   1.182   8.680   2.586  0.8104  2.6165  0.5768
26357SOL     OW80838   7.321   8.179   7.468  0.8870 -0.2636 -0.4500
26357SOL    HW180839   7.345   8.103   7.521 -0.7902 -0.0474  0.6984
26357SOL    HW280840   7.399   8.233   7.467  1.7824 -1.5102 -0.4344
26358SOL     OW80841   2.080   1.160   1.601 -0.2909  0.1812  0.4878
26358SOL    HW180842   2.090   1.142   1.508 -2.3619 -0.0188  0.2508
26358SOL    HW280843   2.116   1.248   1.613 -0.7049  0.5240 -0.6671
26359SOL     OW80844   6.313   9.250   7.115  0.1668  0.3533 -0.0570
26359SOL    HW180845   6.294   9.283   7.026 -0.9496 -0.0057  0.0241
26359SOL    HW280846   6.372   9.177   7.101  0.7439  0.8810 -0.4324
26360SOL     OW80847   4.157   8.774   2.540  0.4045 -0.1514 -0.1921
26360SOL    HW180848   4.193   8.835   2.476  1.9083  0.0883  0.8363
26360SOL    HW280849   4.111   8.829   2.603 -0.2533 -0.3052 -0.5242
26361SOL     OW80850   3.439   4.912   9.327 -0.3576  0.3208  0.0118
26361SOL    HW180851   3.402   4.926   9.240  1.0087 -0.8441 -0.8193
26361SOL    HW280852   3.396   4.832   9.359 -1.0304  0.8785  0.5252
26362SOL     OW80853   4.304   5.771   6.664 -0.3213 -0.1573  0.3735
26362SOL    HW180854   4.216   5.793   6.635 -0.8260 -3.0735 -0.5890
26362SOL    HW280855   4.357   5.773   6.585  0.1957  0.2356  0.7214
26363SOL     OW80856   7.870   6.338   1.286  0.1465 -0.1810 -0.2765
26363SOL    HW180857   7.859   6.425   1.249 -0.6582  0.1269  0.6441
26363SOL    HW280858   7.883   6.281   1.210  2.0429  0.9095 -0.8200
26364SOL     OW80859   5.015   5.064   6.744  0.1399 -0.8641 -0.9576
26364SOL    HW180860   4.933   5.016   6.744 -0.0140 -0.6103 -0.6452
26364SOL    HW280861   5.061   5.033   6.822 -0.0718 -0.3278 -0.6138
26365SOL     OW80862   9.184   4.797   6.729 -0.1644 -0.2312 -0.8291
26365SOL    HW180863   9.217   4.720   6.682  0.6723 -0.8192  0.6425
26365SOL    HW280864   9.120   4.761   6.791  0.6700  0.1466  0.2921
26366SOL     OW80865   8.047   7.413   9.471  0.2581  0.5594 -0.6018
26366SOL    HW180866   8.040   7.362   9.390  0.1888 -0.7549  0.1976
26366SOL    HW280867   7.963   7.458   9.478 -0.0924 -0.0431 -0.8036
26367SOL     OW80868   3.164   5.620   8.263 -0.3588 -0.0309 -0.5006
26367SOL    HW180869   3.236   5.561   8.244 -1.6914 -2.1735  0.7314
26367SOL    HW280870   3.181   5.697   8.209  1.6046 -1.4056 -1.9682
26368SOL     OW80871   1.471   6.919   2.664  0.2982 -0.1377 -0.6370
26368SOL    HW180872   1.528   6.851   2.699  0.9035  0.9038  0.4444
26368SOL    HW280873   1.530   6.984   2.627 -0.2591  0.1002 -1.1297
26369SOL     OW80874   3.543   4.550   8.925 -0.3025  0.2569 -0.0830
26369SOL    HW180875   3.478   4.488   8.958 -0.0950  0.6087  1.0244
26369SOL    HW280876   3.609   4.555   8.993  0.8129  0.0605 -1.1106
26370SOL     OW80877   1.709   1.983   8.550 -0.0980 -0.2724 -0.0321
26370SOL    HW180878   1.715   2.073   8.518  1.2354 -0.4146 -0.1984
26370SOL    HW280879   1.692   1.931   8.471 -1.3179 -0.1491  0.1173
26371SOL     OW80880   7.639   0.526   7.433 -0.8407  0.0584  0.0742
26371SOL    HW180881   7.719   0.576   7.450 -0.4376 -0.7290  0.5528
26371SOL    HW280882   7.626   0.532   7.338 -0.5589  0.7027  0.0744
26372SOL     OW80883   3.097   3.989   5.237 -0.3537  0.0673 -0.1170
26372SOL    HW180884   3.038   4.031   5.175 -0.8214  2.9086  2.0053
26372SOL    HW280885   3.184   4.001   5.199 -0.7239  0.7317 -0.7892
26373SOL     OW80886   9.048   4.888   1.643 -0.6456  0.2967 -0.5087
26373SOL    HW180887   8.980   4.885   1.710 -0.5733 -0.5777 -0.4703
26373SOL    HW280888   9.006   4.856   1.563 -0.2353 -0.4019 -0.4461
26374SOL     OW80889   4.367   9.646   0.605 -0.4799  0.3945  0.3508
26374SOL    HW180890   4.426   9.720   0.619 -0.1973  0.2369  0.0380
26374SOL    HW280891   4.305   9.677   0.539  0.0222  0.1526 -0.2472
26375SOL     OW80892   7.632   7.336   0.961 -0.6837  0.1978 -0.5364
26375SOL    HW180893   7.709   7.332   0.905 -1.8901 -1.0757 -2.2346
26375SOL    HW280894   7.621   7.246   0.993  0.3911  1.0131  2.4757
26376SOL     OW80895   7.059   4.521   1.482  0.3029  0.6000 -0.4816
26376SOL    HW180896   7.017   4.606   1.470 -0.3743  0.4442  0.7005
26376SOL    HW280897   7.002   4.474   1.543  0.0887 -1.1216 -1.9364
26377SOL     OW80898   7.182   9.720   4.581 -0.2269  0.8160  0.0179
26377SOL    HW180899   7.161   9.813   4.572 -1.5007  0.5039 -0.3653
26377SOL    HW280900   7.201   9.691   4.491  0.5538  0.7760  0.1832
26378SOL     OW80901   6.464   8.328   1.398 -0.0154 -0.3744  0.1589
26378SOL    HW180902   6.407   8.261   1.439 -0.2067 -0.3743 -0.1061
26378SOL    HW280903   6.517   8.279   1.336 -1.0041 -0.1091 -0.9252
26379SOL     OW80904   8.965   5.539   5.808 -0.4431  0.6507  0.1374
26379SOL    HW180905   8.986   5.479   5.737 -0.2021 -0.0021  0.7484
26379SOL    HW280906   8.908   5.605   5.768 -0.5719  0.1150 -0.5813
26380SOL     OW80907   9.622   6.659   4.396 -0.3007  0.2963 -0.5708
26380SOL    HW180908   9.702   6.683   4.443  0.3673  0.2661 -1.6538
26380SOL    HW280909   9.609   6.728   4.332 -1.5796  0.6888  0.0681
26381SOL     OW80910   5.350   8.526   1.757 -0.4923 -0.2110  0.0671
26381SOL    HW180911   5.397   8.529   1.840  1.7512  0.9215 -1.1694
26381SOL    HW280912   5.419   8.526   1.690 -2.2268 -0.7524 -1.8179
26382SOL     OW80913   7.764   9.200   5.845  0.0530  0.3964  0.3802
26382SOL    HW180914   7.673   9.228   5.849 -0.1218  0.3597 -1.8667
26382SOL    HW280915   7.760   9.105   5.846  0.0072  0.3866 -0.1761
26383SOL     OW80916   0.779   1.772   4.808 -0.9564  0.3771 -0.6170
26383SOL    HW180917   0.800   1.688   4.767  0.2984  0.1743  0.3649
26383SOL    HW280918   0.757   1.830   4.735 -1.0699 -0.5884 -1.3699
26384SOL     OW80919   7.271   4.490   6.761 -0.8488  0.2218 -0.1650
26384SOL    HW180920   7.302   4.522   6.677  0.0404 -0.7890 -0.2421
26384SOL    HW280921   7.181   4.523   6.768 -0.0005  2.7598 -0.2044
26385SOL     OW80922   4.347   6.549   5.646  0.0738 -0.2028  0.1533
26385SOL    HW180923   4.329   6.458   5.672 -0.8798 -0.2983 -0.7651
26385SOL    HW280924   4.309   6.602   5.715 -0.8230 -0.4809 -0.1168
26386SOL     OW80925   8.620   2.074   7.507 -0.1339 -0.1501 -0.2285
26386SOL    HW180926   8.570   2.029   7.575 -0.2404  0.3680  0.0349
26386SOL    HW280927   8.710   2.073   7.538 -0.3181  0.9620  0.4128
26387SOL     OW80928   0.741   5.828   1.132 -0.1580 -0.5007 -0.0959
26387SOL    HW180929   0.692   5.825   1.049 -0.1342  1.8490 -0.2464
26387SOL    HW280930   0.700   5.899   1.182  0.6625 -1.0333  1.3883
26388SOL     OW80931   0.196   7.868   7.539  0.0899 -0.4964  0.2533
26388SOL    HW180932   0.148   7.829   7.612  0.3371 -1.2391  0.0234
26388SOL    HW280933   0.263   7.923   7.581 -2.3587  2.4500  0.6234
26389SOL     OW80934   9.131   6.410   3.062  0.0259  0.1885 -0.5762
26389SOL    HW180935   9.117   6.330   3.011 -2.3626  0.4717 -0.4711
26389SOL    HW280936   9.066   6.472   3.028  0.2997  1.3423  0.8835
26390SOL     OW80937   3.999   8.775   3.724  0.7926  0.1802 -0.2149
26390SOL    HW180938   3.985   8.724   3.803  0.4669  0.8773  0.1847
26390SOL    HW280939   4.027   8.861   3.755 -1.1039  1.0475 -0.7587
26391SOL     OW80940   6.308   7.033   1.286 -0.0028  0.0982 -0.4528
26391SOL    HW180941   6.257   7.044   1.366  0.0833 -0.8789 -0.2584
26391SOL    HW280942   6.271   6.955   1.245  1.2734 -0.5703 -0.3626
26392SOL     OW80943   6.987   1.316   9.823  0.1494 -0.1724 -0.5383
26392SOL    HW180944   6.908   1.306   9.875 -0.4665 -1.5928 -1.6495
26392SOL    HW280945   7.057   1.279   9.878 -0.1918 -0.1209 -0.0691
26393SOL     OW80946   3.383   2.709   0.355  0.2768 -0.4398 -0.1410
26393SOL    HW180947   3.448   2.754   0.409 -0.4027 -0.4635  0.7173
26393SOL    HW280948   3.355   2.774   0.291 -2.6947  1.3979  2.7511
26394SOL     OW80949   0.955   8.452   4.004  0.2456  0.2429 -0.4386
26394SOL    HW180950   0.985   8.398   4.077  0.8841  1.0590 -0.0744
26394SOL    HW280951   0.889   8.398   3.959  1.5284 -1.2122 -0.6682
26395SOL     OW80952   1.286   2.071   9.164 -0.2995 -0.0684 -0.1388
26395SOL    HW180953   1.375   2.070   9.128 -0.8424  2.2507 -1.8212
26395SOL    HW280954   1.297   2.098   9.255  0.6855  1.4707 -0.6760
26396SOL     OW80955   7.099   0.524   1.866 -0.1022 -0.6688  0.4942
26396SOL    HW180956   7.140   0.599   1.823 -1.4895 -0.5916 -0.7998
26396SOL    HW280957   7.105   0.454   1.801 -0.5834 -1.0929  0.9024
26397SOL     OW80958   1.672   1.760   8.043  0.1682 -0.2952  0.0673
26397SOL    HW180959   1.702   1.704   7.972  0.3574  3.0381 -2.7254
26397SOL    HW280960   1.748   1.813   8.066 -1.1015  2.0305 -0.7605
26398SOL     OW80961   7.302   7.462   4.600 -0.2275 -0.2708 -0.2971
26398SOL    HW180962   7.288   7.368   4.594 -2.1313 -0.1175  0.9506
26398SOL    HW280963   7.238   7.492   4.664  1.7925  1.5847  0.9844
26399SOL     OW80964   9.369   4.438   1.293 -0.2467 -0.1298  0.1729
26399SOL    HW180965   9.387   4.385   1.371  0.2021 -0.1111  0.0824
26399SOL    HW280966   9.444   4.498   1.286 -0.2397 -0.1910 -0.3227
26400SOL     OW80967   4.637   4.216   7.519  0.1471 -0.4431  0.1090
26400SOL    HW180968   4.695   4.234   7.445  0.1402  0.0565  0.2203
26400SOL    HW280969   4.616   4.302   7.554 -1.1423 -0.5633 -0.2970
26401SOL     OW80970   7.473   8.425   6.082  0.1795  0.2451  0.5080
26401SOL    HW180971   7.562   8.413   6.050 -0.3271  1.4443 -1.5429
26401SOL    HW280972   7.482   8.484   6.157  1.1977 -0.6653  1.1248
26402SOL     OW80973   4.461   1.775   5.703  0.1355 -0.1404  0.8724
26402SOL    HW180974   4.501   1.759   5.788  1.9602  0.8076  0.2374
26402SOL    HW280975   4.434   1.866   5.705  0.6576  0.0387  0.2841
26403SOL     OW80976   0.997   5.594   3.676  0.2409 -0.0886  0.2651
26403SOL    HW180977   1.015   5.504   3.704 -2.1689 -0.9622 -0.6477
26403SOL    HW280978   0.951   5.584   3.592  0.1414  2.0117  0.0095
26404SOL     OW80979   7.872   7.114   9.134 -0.8505  0.6377 -0.0577
26404SOL    HW180980   7.797   7.139   9.188 -1.1835 -0.0530 -0.1791
26404SOL    HW280981   7.832   7.070   9.059 -0.2849 -0.7860  0.4477
26405SOL     OW80982   2.314   3.373   6.494  0.0185  0.8602 -1.2050
26405SOL    HW180983   2.292   3.377   6.401  0.1603  1.4926 -1.2148
26405SOL    HW280984   2.375   3.299   6.502 -1.9353 -0.8576 -1.2012
26406SOL     OW80985   1.490   0.262   3.507  0.1159 -0.1353  0.4849
26406SOL    HW180986   1.463   0.225   3.422 -3.2653  0.5129  1.1159
26406SOL    HW280987   1.443   0.345   3.512  3.7396  2.0593  1.1930
26407SOL     OW80988   1.899   8.763   9.183 -0.0976  0.4948 -0.4109
26407SOL    HW180989   1.813   8.737   9.218 -0.5461  1.0912 -1.0537
26407SOL    HW280990   1.917   8.847   9.225  0.3788  0.1603  0.0584
26408SOL     OW80991   8.242   7.454   2.273  0.3950  0.2683 -0.2192
26408SOL    HW180992   8.254   7.501   2.190 -0.1097  0.1755 -0.3499
26408SOL    HW280993   8.329   7.419   2.293  0.8010  1.3260 -0.0683
26409SOL     OW80994   4.513   8.010   8.255  0.6797 -0.0632 -0.0651
26409SOL    HW180995   4.466   8.045   8.180 -0.0442 -1.8263 -0.4747
26409SOL    HW280996   4.597   8.055   8.254 -0.2651  1.8201 -0.3892
26410SOL     OW80997   2.940   2.501   0.195 -0.2364 -0.0948 -0.1979
26410SOL    HW180998   2.855   2.533   0.164 -0.0772 -0.7518 -1.4041
26410SOL    HW280999   3.003   2.542   0.136  0.0139 -2.0899 -1.4018
26411SOL     OW81000   5.839   4.218   1.721 -0.1377  0.0721  0.5168
26411SOL    HW181001   5.912   4.250   1.775 -0.0384 -0.2186  0.5598
26411SOL    HW281002   5.824   4.287   1.657  0.2503  0.0862  0.4383
26412SOL     OW81003   6.166   6.031   8.827 -0.3334 -0.1608  0.2480
26412SOL    HW181004   6.219   6.031   8.907 -0.6879 -0.2802  0.4848
26412SOL    HW281005   6.137   6.121   8.817 -0.3711 -0.1669  0.3062
26413SOL     OW81006   5.242   1.598   0.598  0.6758  0.2741 -0.3341
26413SOL    HW181007   5.220   1.540   0.525  1.3275  1.6146 -1.6620
26413SOL    HW281008   5.326   1.565   0.629 -0.1654 -1.0392  0.6460
26414SOL     OW81009   8.809   0.736   5.851 -0.1052  0.1378  0.0846
26414SOL    HW181010   8.830   0.653   5.894 -1.5070 -0.3428 -0.1183
26414SOL    HW281011   8.893   0.782   5.846  0.6298 -1.0996  0.5432
26415SOL     OW81012   6.215   1.854   3.582  0.4258 -0.4859 -0.2317
26415SOL    HW181013   6.204   1.946   3.608 -1.2133 -0.6398 -0.2915
26415SOL    HW281014   6.253   1.812   3.659  2.4749  0.4635 -0.6491
26416SOL     OW81015   8.947   7.911   1.340 -0.0564  0.0481 -0.0599
26416SOL    HW181016   8.987   7.946   1.260 -0.1136 -0.8285 -0.4944
26416SOL    HW281017   8.997   7.949   1.412  0.4236  0.3283 -0.5374
26417SOL     OW81018   8.722   9.048   9.777 -0.3566  0.3796  0.0083
26417SOL    HW181019   8.670   9.020   9.852 -1.6130  0.8201 -0.6777
26417SOL    HW281020   8.765   9.128   9.806 -0.4498  0.2865  0.4132
26418SOL     OW81021   8.888   1.653   1.805  0.4406  0.5934  0.0709
26418SOL    HW181022   8.973   1.628   1.841  0.3390  1.2717  0.8426
26418SOL    HW281023   8.901   1.742   1.773  0.5733 -0.0697 -1.7980
26419SOL     OW81024   2.601   8.008   0.918 -0.1537 -0.5652  0.1899
26419SOL    HW181025   2.652   8.010   0.999 -0.3946 -0.5572  0.3402
26419SOL    HW281026   2.646   7.943   0.864  0.6581  0.2222 -0.1015
26420SOL     OW81027   0.361   5.679   4.904 -0.4703 -0.8580  1.0095
26420SOL    HW181028   0.349   5.769   4.935 -1.3504 -1.2789  1.9527
26420SOL    HW281029   0.385   5.630   4.982  0.2048 -1.4132  0.4614
26421SOL     OW81030   5.299   8.393   4.103 -0.1040 -0.2529  0.0320
26421SOL    HW181031   5.391   8.399   4.126 -0.0040 -0.9892 -0.1630
26421SOL    HW281032   5.273   8.305   4.131 -0.2037 -0.8577 -1.8407
26422SOL     OW81033   1.153   0.537   5.097 -0.5231 -0.0143 -0.7690
26422SOL    HW181034   1.144   0.493   5.182  0.3393 -0.4367 -0.8941
26422SOL    HW281035   1.195   0.620   5.117 -0.6123  0.0265 -0.7478
26423SOL     OW81036   6.317   9.142   3.435 -0.2049  0.1054  0.0942
26423SOL    HW181037   6.380   9.126   3.365 -0.3758  0.2556 -0.0956
26423SOL    HW281038   6.342   9.081   3.505 -2.5083 -3.1628 -1.6639
26424SOL     OW81039   8.267   8.151   4.777 -0.1593 -0.6956 -0.2943
26424SOL    HW181040   8.264   8.131   4.870 -1.3185 -0.5490 -0.2767
26424SOL    HW281041   8.239   8.242   4.771  0.8775 -0.3891 -0.7133
26425SOL     OW81042   7.831   9.374   4.603 -0.3956 -0.0891  0.4245
26425SOL    HW181043   7.808   9.453   4.652  1.2962 -2.2705  5.3191
26425SOL    HW281044   7.927   9.372   4.604 -0.2604 -0.7760 -2.4688
26426SOL     OW81045   8.961   3.497   8.791  0.2252 -0.2188 -0.3682
26426SOL    HW181046   8.993   3.407   8.785  0.1222 -0.3640  0.9703
26426SOL    HW281047   9.038   3.552   8.776 -0.0597 -0.4465 -3.2631
26427SOL     OW81048   5.323   2.852   3.896 -0.6992  0.1122  0.3955
26427SOL    HW181049   5.336   2.793   3.822 -1.0627 -0.4350  0.7638
26427SOL    HW281050   5.229   2.848   3.914 -0.5781  0.0609  1.0409
26428SOL     OW81051   3.307   5.044   8.111  0.0040  0.0280  0.3308
26428SOL    HW181052   3.235   5.107   8.106 -1.4242 -1.6094 -0.4156
26428SOL    HW281053   3.266   4.958   8.105  2.0714 -0.9666 -1.0551
26429SOL     OW81054   8.114   8.745   1.428  0.4340  0.4509  0.1637
26429SOL    HW181055   8.026   8.747   1.464  0.7882 -0.1987  1.0973
26429SOL    HW281056   8.135   8.652   1.421  0.6557  0.5768 -1.0373
26430SOL     OW81057   0.276   3.268   1.951 -0.3836  0.1027 -0.1696
26430SOL    HW181058   0.186   3.294   1.931  0.2361  3.0474  0.3475
26430SOL    HW281059   0.269   3.220   2.034 -1.5624 -0.5540 -0.6314
26431SOL     OW81060   9.842   9.421   3.642 -0.5111 -0.6014 -0.4248
26431SOL    HW181061   9.883   9.506   3.623 -0.3214 -0.3572  0.9502
26431SOL    HW281062   9.812   9.389   3.557 -2.0308  1.5865 -0.7963
26432SOL     OW81063   4.146   1.788   4.809  0.6298  0.0580  0.2921
26432SOL    HW181064   4.097   1.770   4.729  0.3759 -3.9665  1.1320
26432SOL    HW281065   4.086   1.841   4.863  0.2801  1.6274 -1.5293
26433SOL     OW81066   3.859   2.700   4.473  0.4966  0.0694 -0.1358
26433SOL    HW181067   3.841   2.646   4.551  0.7891 -2.1900 -1.5294
26433SOL    HW281068   3.787   2.679   4.413  0.5097  1.4475 -0.6532
26434SOL     OW81069   9.616   3.665   4.549 -0.0354 -0.4275  0.0842
26434SOL    HW181070   9.537   3.612   4.554  0.6734 -1.4389  1.2016
26434SOL    HW281071   9.591   3.741   4.497 -1.4291 -1.2533 -0.5023
26435SOL     OW81072   0.363   3.085   1.775 -0.0380  0.6446  0.1898
26435SOL    HW181073   0.341   3.161   1.828  1.1597  0.4154  1.0539
26435SOL    HW281074   0.325   3.011   1.822  0.4618  0.5127  0.3966
26436SOL     OW81075   3.075   6.055   1.072  0.0433  0.4967  0.1307
26436SOL    HW181076   3.095   6.057   1.166  0.9302  0.3516 -0.0462
26436SOL    HW281077   3.141   5.997   1.035  0.2543  1.2588 -0.7073
26437SOL     OW81078   8.359   7.527   7.322 -0.3628 -0.1204  0.4129
26437SOL    HW181079   8.315   7.470   7.259  2.8131 -0.1004 -2.0548
26437SOL    HW281080   8.363   7.475   7.402 -1.8369 -1.3899 -0.2840
26438SOL     OW81081   4.795   3.855   3.657  0.2383  0.3097  0.4351
26438SOL    HW181082   4.851   3.792   3.611  0.2278  0.4221  0.2702
26438SOL    HW281083   4.814   3.840   3.750 -0.1792 -0.3242  0.4209
26439SOL     OW81084   6.575   5.436   5.885  0.1777 -0.4447 -0.2775
26439SOL    HW181085   6.634   5.361   5.887 -1.1773 -1.5689 -1.0419
26439SOL    HW281086   6.633   5.512   5.892  1.4536 -1.5586  2.5427
26440SOL     OW81087   2.251   4.607   0.420  0.0056 -0.1607  0.4388
26440SOL    HW181088   2.216   4.626   0.507 -1.4181  0.3867 -0.2252
26440SOL    HW281089   2.258   4.692   0.377 -0.5275 -0.5207 -0.4071
26441SOL     OW81090   7.749   0.265   4.194 -0.1599  0.5107  0.0952
26441SOL    HW181091   7.662   0.282   4.230 -1.1520 -1.0537 -1.3329
26441SOL    HW281092   7.768   0.342   4.140  0.2857  1.7723  1.9716
26442SOL     OW81093   5.480   5.426   6.974  0.0799  0.1887 -0.0917
26442SOL    HW181094   5.438   5.353   7.021  0.1069 -1.2076 -2.0837
26442SOL    HW281095   5.500   5.389   6.887  1.0975  2.2733 -0.7940
26443SOL     OW81096   9.747   1.490   4.807 -0.3419  0.0002  0.3201
26443SOL    HW181097   9.673   1.539   4.770  0.6636  0.4630 -1.1476
26443SOL    HW281098   9.748   1.408   4.757 -1.3932 -1.1561  2.0776
26444SOL     OW81099   8.821   3.868   4.052 -0.9843  0.3296 -0.2940
26444SOL    HW181100   8.762   3.921   3.997 -1.3236 -0.6355 -0.8760
26444SOL    HW281101   8.900   3.922   4.061 -0.7073  0.3180 -2.1756
26445SOL     OW81102   5.149   4.115   6.752 -0.0449  0.0495 -0.3852
26445SOL    HW181103   5.077   4.061   6.720 -0.4503 -1.5816  2.8896
26445SOL    HW281104   5.225   4.057   6.749 -0.1645 -0.2884  1.6942
26446SOL     OW81105   0.311   8.765   2.888  0.2814  0.2746  0.0619
26446SOL    HW181106   0.347   8.681   2.918  0.6620 -0.0053 -1.1204
26446SOL    HW281107   0.216   8.750   2.884  0.2048  0.3623  1.2100
26447SOL     OW81108   9.365   3.072   5.124  0.0628  0.5259 -0.0215
26447SOL    HW181109   9.334   3.162   5.112  1.3526  0.9576 -0.2601
26447SOL    HW281110   9.402   3.071   5.212  0.8461  0.4778 -0.3453
26448SOL     OW81111   7.691   5.435   3.274  0.4987  0.2025  0.0980
26448SOL    HW181112   7.763   5.478   3.321  0.5733 -1.6892  1.8685
26448SOL    HW281113   7.734   5.386   3.204  0.8149  0.0344  0.4036
26449SOL     OW81114   7.773   3.746   7.658 -0.0064  0.5730 -0.2109
26449SOL    HW181115   7.692   3.717   7.700 -0.0184 -0.5780 -0.9847
26449SOL    HW281116   7.745   3.809   7.592 -0.2484  0.3912 -0.2843
26450SOL     OW81117   1.145   4.397   8.894 -0.0093 -0.5352 -0.0523
26450SOL    HW181118   1.195   4.424   8.971 -2.4886  1.5492  0.9882
26450SOL    HW281119   1.189   4.439   8.820 -0.8234  2.4162  0.9874
26451SOL     OW81120   4.853   4.521   4.257 -0.1501 -0.0158  0.4002
26451SOL    HW181121   4.893   4.488   4.338  1.0581  2.7394  1.0608
26451SOL    HW281122   4.766   4.551   4.283  0.2211  0.8272  0.7074
26452SOL     OW81123   9.404   9.294   1.436 -0.1195 -0.3235  0.5820
26452SOL    HW181124   9.352   9.355   1.487  0.4701 -0.9107  1.9448
26452SOL    HW281125   9.400   9.212   1.485  0.7999 -0.8036 -0.1019
26453SOL     OW81126   2.630   1.568   1.913 -0.4020 -0.2649 -0.1586
26453SOL    HW181127   2.589   1.589   1.997 -0.1903 -0.6984  0.0589
26453SOL    HW281128   2.716   1.533   1.936 -0.3156 -0.3293 -0.5607
26454SOL     OW81129   3.311   6.606   2.960  0.5156  0.2957  0.2054
26454SOL    HW181130   3.315   6.645   2.873  0.1801 -1.2023 -0.5079
26454SOL    HW281131   3.350   6.672   3.018  0.2665  1.5265 -0.9865
26455SOL     OW81132   8.228   1.705   2.887  0.2469  0.4252 -0.1490
26455SOL    HW181133   8.230   1.620   2.931  0.9817  0.1199 -0.7490
26455SOL    HW281134   8.143   1.742   2.910  0.0850 -0.2987  0.4476
26456SOL     OW81135   2.986   3.052   2.155  0.0648  0.5719  0.5144
26456SOL    HW181136   2.972   3.084   2.066  0.1442 -0.1467  0.2358
26456SOL    HW281137   2.909   3.080   2.203  0.2336  1.3686  0.3361
26457SOL     OW81138   0.749   1.227   5.556  0.4608 -0.0079  0.2027
26457SOL    HW181139   0.734   1.273   5.638  2.3034 -0.8094  1.0703
26457SOL    HW281140   0.827   1.173   5.573  0.4685 -0.7488 -1.8494
26458SOL     OW81141   1.661   8.564   1.389  0.3917 -0.0830 -0.6696
26458SOL    HW181142   1.601   8.490   1.392  1.5127 -1.0655 -1.7262
26458SOL    HW281143   1.609   8.638   1.422 -1.9752 -0.5116 -3.0168
26459SOL     OW81144   7.694   7.812   3.137 -0.2963  0.6282  0.4320
26459SOL    HW181145   7.780   7.773   3.152 -1.0818 -1.1041  0.7401
26459SOL    HW281146   7.659   7.829   3.225 -0.7332  0.2181  0.3420
26460SOL     OW81147   5.451   1.603   4.722 -0.4614 -0.0394 -0.0035
26460SOL    HW181148   5.457   1.553   4.641  0.5559 -0.5935  0.3987
26460SOL    HW281149   5.401   1.548   4.781 -1.3148  0.4196 -0.2770
26461SOL     OW81150   7.427   4.908   3.089  0.4026 -0.4678 -0.0563
26461SOL    HW181151   7.487   4.958   3.145  0.1432  0.4159 -0.5434
26461SOL    HW281152   7.435   4.818   3.120  1.4328 -0.2496  0.3698
26462SOL     OW81153   5.599   3.316   6.050  0.0757  0.5040  0.6334
26462SOL    HW181154   5.648   3.288   6.127  0.7205  1.6646  0.6709
26462SOL    HW281155   5.664   3.317   5.980  0.0690  1.7587  0.6138
26463SOL     OW81156   7.789   0.033   6.268 -0.3667 -0.2527 -0.0392
26463SOL    HW181157   7.859   0.017   6.205  0.0209  0.5384  0.1824
26463SOL    HW281158   7.714  -0.016   6.233 -0.0856 -0.0319 -0.9809
26464SOL     OW81159   7.248   7.549   6.710 -0.2885 -0.1383  0.2090
26464SOL    HW181160   7.299   7.487   6.762  1.6715  1.1390 -0.0954
26464SOL    HW281161   7.161   7.510   6.706  0.8201 -2.8561  0.0386
26465SOL     OW81162   6.415   8.094   5.764 -0.4349  0.2371 -0.6466
26465SOL    HW181163   6.402   8.132   5.677 -0.8874  2.7263  0.4039
26465SOL    HW281164   6.333   8.112   5.810 -0.7320 -2.2924 -0.0774
26466SOL     OW81165   9.053   8.335   3.213  0.2000  0.2122  0.3263
26466SOL    HW181166   9.134   8.356   3.260 -0.2329  2.4852  0.1852
26466SOL    HW281167   9.039   8.410   3.155 -2.6501  0.5250  1.2727
26467SOL     OW81168   6.762   4.737   2.013  0.0885  0.6370 -0.0854
26467SOL    HW181169   6.739   4.645   2.000 -1.6105  0.5975  2.5060
26467SOL    HW281170   6.857   4.737   2.023  0.0413 -0.9714  0.6416
26468SOL     OW81171   3.273   5.454   9.657 -0.2478 -0.4824 -0.4752
26468SOL    HW181172   3.249   5.474   9.566  1.6515  1.5669 -0.6289
26468SOL    HW281173   3.309   5.536   9.690  1.5323 -1.8804  1.2849
26469SOL     OW81174   5.129   1.793   7.811  0.5878  0.1604  0.5673
26469SOL    HW181175   5.145   1.855   7.739  0.4240  0.1163  0.4939
26469SOL    HW281176   5.174   1.832   7.886  0.4312  0.4006  0.5376
26470SOL     OW81177   3.900   2.408   7.193 -0.0266 -0.2036  0.1001
26470SOL    HW181178   3.921   2.501   7.190  1.7601 -0.5806 -2.0634
26470SOL    HW281179   3.835   2.400   7.262 -0.4579  2.6881  0.1509
26471SOL     OW81180   8.671   0.202   2.059 -0.1612  0.5694  0.3366
26471SOL    HW181181   8.599   0.167   2.007  0.2769 -0.9761  0.7383
26471SOL    HW281182   8.710   0.126   2.102  3.0490  1.0203 -1.4581
26472SOL     OW81183   2.418   3.507   3.714 -0.1908 -0.1492  0.1460
26472SOL    HW181184   2.424   3.424   3.760  3.3892  0.0570  0.3526
26472SOL    HW281185   2.368   3.565   3.772  1.2058 -0.8883  2.1646
26473SOL     OW81186   1.459   8.344   1.686 -0.0122 -0.0679 -0.2025
26473SOL    HW181187   1.515   8.417   1.713  0.3093 -0.4065  0.0505
26473SOL    HW281188   1.423   8.309   1.767 -0.4813  0.0599 -0.3554
26474SOL     OW81189   3.964   4.583   6.327 -0.3036  0.1339 -0.2752
26474SOL    HW181190   4.036   4.520   6.323  1.8842  2.2492  2.1995
26474SOL    HW281191   3.886   4.531   6.307  1.5915 -2.8111 -0.6653
26475SOL     OW81192   3.109   1.565   6.514  0.6498 -0.6898 -0.3972
26475SOL    HW181193   3.074   1.605   6.593  0.4471 -0.7998 -0.4280
26475SOL    HW281194   3.135   1.638   6.459 -0.2297 -0.5759 -0.6836
26476SOL     OW81195   4.609   8.778   6.060 -0.1592 -0.0084 -0.4438
26476SOL    HW181196   4.669   8.708   6.087 -0.7957 -1.5490 -2.7019
26476SOL    HW281197   4.571   8.810   6.142  2.4416 -0.1214  0.9208
26477SOL     OW81198   8.695   5.752   2.644  0.7454 -0.0655  0.5217
26477SOL    HW181199   8.633   5.739   2.573  2.2979 -0.4476 -0.8342
26477SOL    HW281200   8.641   5.767   2.722 -1.0150  1.5279 -0.9139
26478SOL     OW81201   7.914   9.601   7.997  0.2040 -0.2915  0.2340
26478SOL    HW181202   7.873   9.590   7.911  1.4882 -0.0119 -0.4503
26478SOL    HW281203   7.939   9.694   8.000 -0.5255 -0.1131  1.2473
26479SOL     OW81204   0.093   9.134   9.484 -0.3791  0.5354 -0.3043
26479SOL    HW181205   0.048   9.049   9.490  0.4413 -0.0049 -1.4009
26479SOL    HW281206   0.069   9.167   9.398 -0.8069  1.5042  0.1770
26480SOL     OW81207   7.536   1.269   0.952 -0.3352 -0.1067 -0.0614
26480SOL    HW181208   7.566   1.355   0.981  0.2439 -0.5233  0.5948
26480SOL    HW281209   7.466   1.288   0.890 -1.3032  0.8159  1.2699
26481SOL     OW81210   0.578   1.999   1.885  0.1226 -0.5789  0.3928
26481SOL    HW181211   0.572   1.926   1.823  0.7045 -0.0950 -0.2423
26481SOL    HW281212   0.488   2.033   1.889  0.0618 -0.6595 -0.1390
26482SOL     OW81213   0.830   5.510   4.065  0.2971  0.2940 -0.5809
26482SOL    HW181214   0.750   5.456   4.068  0.6547 -0.2020  0.1005
26482SOL    HW281215   0.838   5.546   4.153 -0.5231  2.3653 -1.2871
26483SOL     OW81216   2.850   9.390   4.371 -0.0628 -0.1530 -0.1085
26483SOL    HW181217   2.908   9.447   4.420 -1.6318 -0.2748  2.0430
26483SOL    HW281218   2.773   9.443   4.353  0.2758 -0.2660 -2.1074
26484SOL     OW81219   8.545   7.083   1.126 -0.1186  0.1618 -0.2132
26484SOL    HW181220   8.491   7.104   1.202  0.9311 -0.1869  0.6425
26484SOL    HW281221   8.552   6.988   1.127  0.4342  0.1996 -0.3742
26485SOL     OW81222   6.016   5.927   4.790 -0.1783 -0.7738 -0.1725
26485SOL    HW181223   6.091   5.954   4.736 -1.3238 -1.6240 -2.3082
26485SOL    HW281224   5.984   5.847   4.748 -2.9510  0.1485 -0.0143
26486SOL     OW81225   6.381   9.575   2.510  0.0150 -0.3698 -0.5501
26486SOL    HW181226   6.401   9.666   2.532  0.1716 -0.6569  0.5455
26486SOL    HW281227   6.388   9.528   2.593 -1.3544 -1.1641 -0.8461
26487SOL     OW81228   0.511   9.279   4.861 -0.6643 -0.0726  0.5519
26487SOL    HW181229   0.595   9.237   4.880 -1.5312 -2.2393 -0.0711
26487SOL    HW281230   0.511   9.358   4.914  1.4044 -0.4588  1.2133
26488SOL     OW81231   4.560   9.538   8.375 -0.3457 -0.7020  0.2206
26488SOL    HW181232   4.497   9.470   8.399 -0.6695 -0.7850 -0.8330
26488SOL    HW281233   4.620   9.495   8.314  0.3857 -0.4536  0.7422
26489SOL     OW81234   1.889   1.413   9.552  0.1858  0.1679 -0.3145
26489SOL    HW181235   1.885   1.345   9.485  1.8630 -1.5044  1.1730
26489SOL    HW281236   1.832   1.382   9.621  0.5477  0.5324  0.1544
26490SOL     OW81237   8.588   1.059   7.762  0.0540  0.4487 -0.3312
26490SOL    HW181238   8.538   1.041   7.841 -0.5769 -0.4222 -0.9123
26490SOL    HW281239   8.679   1.061   7.792 -0.2820  1.9995  0.7239
26491SOL     OW81240   5.028   1.079   6.530  0.2136 -0.8547  0.1329
26491SOL    HW181241   5.087   1.147   6.564  0.4673 -1.0336  0.0533
26491SOL    HW281242   4.954   1.080   6.591  0.6696 -1.1819  0.7141
26492SOL     OW81243   5.907   0.724   7.286  0.3889 -0.2372  0.0127
26492SOL    HW181244   5.945   0.636   7.292 -0.4714 -0.5590  1.1856
26492SOL    HW281245   5.839   0.716   7.219  0.8710 -0.2389 -0.4839
26493SOL     OW81246   1.374   9.242   4.155  0.7899  0.2149 -0.2667
26493SOL    HW181247   1.331   9.197   4.083  0.5390 -0.0765  0.0639
26493SOL    HW281248   1.327   9.214   4.233  1.1386  0.4317  0.0266
26494SOL     OW81249   6.435   6.159   7.492 -0.4464 -0.2521 -0.1539
26494SOL    HW181250   6.457   6.238   7.542 -1.2346 -0.8327  1.1419
26494SOL    HW281251   6.360   6.184   7.438  0.2799  0.3163 -0.9316
26495SOL     OW81252   7.742   9.535   4.905  0.2118  0.4595 -0.2816
26495SOL    HW181253   7.755   9.623   4.870 -0.8768  0.8562  0.2477
26495SOL    HW281254   7.759   9.544   4.999  0.7888 -0.0575 -0.3336
26496SOL     OW81255   8.456   2.025   4.480  0.8683 -0.2053  0.0142
26496SOL    HW181256   8.457   1.957   4.412  0.1731  1.6385 -1.9317
26496SOL    HW281257   8.419   2.102   4.437 -0.6038  0.7819  2.7986
26497SOL     OW81258   2.219   9.000   3.739  0.2043 -0.1214  0.1772
26497SOL    HW181259   2.310   8.969   3.740  0.0181 -0.6653  0.3212
26497SOL    HW281260   2.223   9.082   3.689  0.6772 -0.4357 -0.3154
26498SOL     OW81261   1.961   8.090   9.087 -0.1545 -0.4418  0.0708
26498SOL    HW181262   1.909   8.162   9.049 -0.7287 -1.4413 -1.1153
26498SOL    HW281263   1.898   8.039   9.137  0.0065 -0.7711 -0.0607
26499SOL     OW81264   8.891   4.493   9.769 -0.3074  0.3022 -0.0968
26499SOL    HW181265   8.808   4.505   9.815 -0.5918 -0.7231 -0.3212
26499SOL    HW281266   8.957   4.492   9.838 -0.6017  0.0134  0.1863
26500SOL     OW81267   9.033   8.857   7.462  0.3061 -0.0498  0.1493
26500SOL    HW181268   8.938   8.867   7.464  0.1174 -1.1499 -1.4130
26500SOL    HW281269   9.056   8.853   7.369  1.8827  0.1422  0.4912
26501SOL     OW81270   3.080   8.853   6.454 -0.1886  0.5222 -0.0644
26501SOL    HW181271   3.082   8.793   6.379  1.6069  1.6330 -0.9520
26501SOL    HW281272   3.130   8.808   6.522 -1.9008 -0.5304  0.5801
26502SOL     OW81273   4.057   2.482   7.807 -0.1022 -0.7363  0.5642
26502SOL    HW181274   4.142   2.525   7.818 -0.7348  1.7718 -2.6403
26502SOL    HW281275   4.062   2.442   7.720 -1.8049 -1.6742  0.8602
26503SOL     OW81276   0.413   5.899   7.554 -0.2858 -0.8155  0.6953
26503SOL    HW181277   0.465   5.915   7.633  0.8455 -0.7123 -0.0332
26503SOL    HW281278   0.343   5.964   7.557 -0.1812 -0.7285  1.5388
26504SOL     OW81279   6.476   9.385   5.444  0.2093 -0.3141  0.4025
26504SOL    HW181280   6.450   9.305   5.398  0.3607 -0.7852  1.1153
26504SOL    HW281281   6.501   9.446   5.374 -1.1717 -0.4135 -0.2258
26505SOL     OW81282   5.411   7.269   7.735  0.4547  0.1293  0.2974
26505SOL    HW181283   5.389   7.201   7.672  0.6724  0.1463  0.1990
26505SOL    HW281284   5.371   7.240   7.817  1.4129 -0.6439  0.5115
26506SOL     OW81285   5.726   7.313   9.057 -0.1514  0.0772 -0.1025
26506SOL    HW181286   5.756   7.403   9.067 -1.5740  0.4168  1.7558
26506SOL    HW281287   5.632   7.317   9.070 -0.5903 -1.4131 -2.2300
26507SOL     OW81288   6.186   3.315   8.022  0.9202  0.2611 -0.2066
26507SOL    HW181289   6.199   3.387   7.959 -0.9036  0.6973 -0.1341
26507SOL    HW281290   6.101   3.333   8.061  1.0798 -1.1851  0.8571
26508SOL     OW81291   8.903   1.150   8.185 -0.0378  0.6839 -0.0913
26508SOL    HW181292   8.876   1.198   8.263 -0.2891  0.1244  0.1750
26508SOL    HW281293   8.998   1.147   8.190 -0.0804 -0.0374  0.6287
26509SOL     OW81294   9.050   3.074   2.407 -0.4939  0.2037  0.2441
26509SOL    HW181295   9.019   2.987   2.432 -0.7002  0.3028  0.3392
26509SOL    HW281296   9.036   3.079   2.313 -1.3419  0.4719  0.3725
26510SOL     OW81297   9.389   2.898   8.108  0.3557  0.4842  0.2672
26510SOL    HW181298   9.320   2.940   8.159  0.0786 -1.4808  1.6473
26510SOL    HW281299   9.345   2.823   8.067  1.0899  0.7726 -1.1158
26511SOL     OW81300   7.314   3.859   5.640 -0.2363 -0.2392  0.8323
26511SOL    HW181301   7.390   3.912   5.659 -1.1581  0.7416  1.9360
26511SOL    HW281302   7.239   3.917   5.656 -1.2965 -1.9248  2.4798
26512SOL     OW81303   5.938   9.633   3.117 -0.1910 -0.3838 -0.9288
26512SOL    HW181304   6.008   9.694   3.095 -0.6679  0.6497  0.3182
26512SOL    HW281305   5.885   9.679   3.182  0.7008 -2.8962  1.8639
26513SOL     OW81306   9.748   2.293   2.747 -0.5952 -0.6714  0.1141
26513SOL    HW181307   9.667   2.249   2.721 -0.9536  0.2217 -0.3406
26513SOL    HW281308   9.818   2.233   2.720 -0.9853 -0.2114 -2.1506
26514SOL     OW81309   6.450   4.837   9.074 -0.3700 -0.0720 -0.7687
26514SOL    HW181310   6.425   4.793   8.993 -1.0267  0.2181 -0.7276
26514SOL    HW281311   6.490   4.919   9.045  1.1111 -0.7978 -0.8538
26515SOL     OW81312   0.135   2.988   0.487 -0.8649 -0.3190  0.0831
26515SOL    HW181313   0.068   3.053   0.509 -1.2284 -0.9277  0.8440
26515SOL    HW281314   0.185   3.028   0.416  0.3790  1.8175  2.0038
26516SOL     OW81315   4.682   5.297   1.014  0.3621  0.7337 -0.2550
26516SOL    HW181316   4.630   5.327   0.940  0.5090  1.1505 -0.1945
26516SOL    HW281317   4.626   5.310   1.090  0.1927  0.2588 -0.3006
26517SOL     OW81318   2.172   6.293   8.040 -0.7580 -0.1095 -0.5688
26517SOL    HW181319   2.249   6.306   8.095  0.5039  0.9125 -2.4817
26517SOL    HW281320   2.148   6.381   8.011 -1.4203 -0.6022 -1.5807
26518SOL     OW81321   9.456   0.852   2.982 -0.0431 -0.1357  0.6033
26518SOL    HW181322   9.526   0.848   2.917  1.5495 -1.3311  2.2650
26518SOL    HW281323   9.489   0.912   3.049 -0.8361 -0.3101  1.1635
26519SOL     OW81324   3.286   7.374   5.593  0.4072 -0.2339  0.5030
26519SOL    HW181325   3.304   7.426   5.671 -0.4988 -0.4770  0.8916
26519SOL    HW281326   3.302   7.434   5.520  0.9580  0.0897  0.8817
26520SOL     OW81327   3.212   2.189   1.195  0.1324 -0.1359 -0.6889
26520SOL    HW181328   3.150   2.184   1.268  0.5594  0.3405 -0.2859
26520SOL    HW281329   3.278   2.123   1.216  1.1733  1.1446  0.2521
26521SOL     OW81330   1.236   4.610   7.844 -0.1936  0.1436 -0.1052
26521SOL    HW181331   1.204   4.522   7.825 -1.4033  0.3775  0.7274
26521SOL    HW281332   1.156   4.663   7.852  0.5214  1.8032 -2.6733
26522SOL     OW81333   1.368   3.609   9.738 -0.2359  0.2427  0.0363
26522SOL    HW181334   1.403   3.565   9.660 -1.0663 -2.7388  1.1970
26522SOL    HW281335   1.444   3.622   9.794  0.0500  0.3751 -0.3774
26523SOL     OW81336   6.359   9.012   4.653 -0.2781  0.8615  0.2728
26523SOL    HW181337   6.424   9.081   4.640  1.5607 -0.9537 -0.7407
26523SOL    HW281338   6.396   8.956   4.720  0.1782 -1.2193 -1.5995
26524SOL     OW81339   8.134   7.029   3.829  0.0102  0.1973 -0.1484
26524SOL    HW181340   8.139   7.057   3.920 -0.1906  0.8350 -0.3284
26524SOL    HW281341   8.216   6.982   3.814  0.2906  0.5639  0.2012
26525SOL     OW81342   6.906   0.092   4.619  0.1304  0.1791 -0.2378
26525SOL    HW181343   6.963   0.137   4.681 -2.3034  0.6766  1.7800
26525SOL    HW281344   6.880   0.159   4.556  1.1116  0.1197 -0.7318
26526SOL     OW81345   3.458   1.039   5.119 -0.8140 -0.7862  0.0496
26526SOL    HW181346   3.459   0.988   5.038 -0.5974 -0.1223 -0.3739
26526SOL    HW281347   3.470   0.974   5.189 -1.5615 -1.4334 -0.4084
26527SOL     OW81348   8.817   9.281   9.572 -0.5420  0.1929  0.2607
26527SOL    HW181349   8.836   9.270   9.665  2.5459 -0.5535 -0.3499
26527SOL    HW281350   8.821   9.376   9.558  0.9995  0.2017  0.5782
26528SOL     OW81351   1.098   8.044   8.866 -0.9251  0.3492 -0.2441
26528SOL    HW181352   1.018   8.091   8.842 -1.5134  0.4653  1.7532
26528SOL    HW281353   1.167   8.110   8.864 -1.1230  0.5433 -0.6881
26529SOL     OW81354   2.768   9.310   8.993  0.0928  0.2078  0.0063
26529SOL    HW181355   2.764   9.312   8.898  0.2311  0.6289  0.0068
26529SOL    HW281356   2.757   9.401   9.020 -0.1695  0.0650  0.4026
26530SOL     OW81357   7.403   4.473   0.009  0.1106  0.3076 -0.7251
26530SOL    HW181358   7.373   4.555   0.048  1.4599  1.0129 -1.0977
26530SOL    HW281359   7.488   4.457   0.049  0.0959 -0.6408 -1.0528
26531SOL     OW81360   4.947   4.910   7.590 -0.0454 -0.8517  0.1366
26531SOL    HW181361   4.961   4.968   7.664 -1.1786  0.1763 -0.4309
26531SOL    HW281362   4.944   4.822   7.628 -0.9788 -0.3063  1.3583
26532SOL     OW81363   6.608   9.328   7.024  0.1037 -0.3529 -0.3137
26532SOL    HW181364   6.684   9.359   6.976 -0.4870  0.9477 -0.4472
26532SOL    HW281365   6.643   9.297   7.108  0.9439 -1.1661 -0.9495
26533SOL     OW81366   1.319   0.704   7.941  0.5804 -0.2534 -0.3271
26533SOL    HW181367   1.379   0.638   7.906 -0.3620 -1.3730  0.0918
26533SOL    HW281368   1.370   0.753   8.005  1.5613  0.0623 -1.3218
26534SOL     OW81369   8.227   9.421   3.315  0.2043 -0.4204  0.1153
26534SOL    HW181370   8.266   9.344   3.355  0.2441 -0.2612  0.3842
26534SOL    HW281371   8.150   9.388   3.268 -0.5535 -0.4441  1.3265
26535SOL     OW81372   8.568   2.705   6.475 -0.0128  0.2882 -0.0259
26535SOL    HW181373   8.638   2.771   6.476  0.1233  0.1673  1.6161
26535SOL    HW281374   8.529   2.713   6.388 -0.8036  3.3962  0.4879
26536SOL     OW81375   3.775   4.331   2.622 -0.3453  0.6020 -0.2882
26536SOL    HW181376   3.748   4.300   2.708 -0.3082 -0.0861 -0.5199
26536SOL    HW281377   3.693   4.353   2.578 -0.3278  1.5989  0.1531
26537SOL     OW81378   5.277   2.908   6.545  0.6219  0.0650 -0.5091
26537SOL    HW181379   5.192   2.937   6.511  0.7872  0.0172 -0.9721
26537SOL    HW281380   5.299   2.832   6.491 -0.2017 -1.5021  1.2177
26538SOL     OW81381   9.709   6.446   1.873  0.6514 -0.1520  0.0916
26538SOL    HW181382   9.693   6.509   1.803 -0.5128  0.5904  0.9821
26538SOL    HW281383   9.735   6.366   1.829  1.6300  0.7776 -1.1010
26539SOL     OW81384   6.078   2.951   7.313 -0.1312  0.4874 -0.3258
26539SOL    HW181385   6.159   2.958   7.262  0.8329  0.9432  1.2179
26539SOL    HW281386   6.059   2.857   7.314  0.4822  0.3525 -0.5480
26540SOL     OW81387   1.300   5.023   8.816 -0.0156  0.7750  0.2947
26540SOL    HW181388   1.359   5.062   8.880  1.2872  2.2820 -1.7104
26540SOL    HW281389   1.222   5.001   8.866  1.2371  1.0893  2.5388
26541SOL     OW81390   8.214   8.623   5.097  0.1954  0.3469  0.1048
26541SOL    HW181391   8.163   8.658   5.025  0.8764  0.3995 -0.3577
26541SOL    HW281392   8.168   8.653   5.176 -0.4442  0.4434 -0.2987
26542SOL     OW81393   6.304   7.921   7.622  0.0940 -0.0899 -0.0462
26542SOL    HW181394   6.219   7.886   7.647 -0.9308  2.1201 -0.2346
26542SOL    HW281395   6.367   7.860   7.660 -1.5459 -1.5789  0.4068
26543SOL     OW81396   2.005   9.196   8.915 -0.4052 -0.1721 -0.1134
26543SOL    HW181397   1.989   9.266   8.978 -0.0818  0.2215 -0.4649
26543SOL    HW281398   2.096   9.170   8.932 -0.1833  0.2118 -0.6835
26544SOL     OW81399   3.729   6.435   7.364 -0.0745 -0.2933  0.0085
26544SOL    HW181400   3.707   6.368   7.427  0.0373 -0.3511 -0.0143
26544SOL    HW281401   3.757   6.510   7.416  1.0228 -0.6843  0.0070
26545SOL     OW81402   3.998   6.848   6.871 -0.1704  0.0992  0.3042
26545SOL    HW181403   4.010   6.903   6.948 -0.0834  0.3892  0.0868
26545SOL    HW281404   3.934   6.782   6.897  0.7592 -0.5610  1.0257
26546SOL     OW81405   3.477   0.229   2.402  0.8462 -0.4440 -0.3308
26546SOL    HW181406   3.447   0.212   2.313 -0.4414 -0.3285  0.0574
26546SOL    HW281407   3.415   0.181   2.457  0.0277  1.5786  0.5934
26547SOL     OW81408   3.446   1.746   2.367  0.0368  0.0887  0.0301
26547SOL    HW181409   3.417   1.660   2.336 -0.5811 -0.0632  0.9986
26547SOL    HW281410   3.370   1.782   2.414  0.7943  0.4912  0.9858
26548SOL     OW81411   6.584   3.477   2.434  0.2893 -0.6691  0.2147
26548SOL    HW181412   6.585   3.540   2.505  2.4850 -0.3693 -0.0002
26548SOL    HW281413   6.674   3.444   2.430  0.2170 -0.7752 -2.3052
26549SOL     OW81414   0.810   0.120   4.585  0.4251 -0.1962  0.4456
26549SOL    HW181415   0.809   0.028   4.558 -0.4320 -0.3525  0.9819
26549SOL    HW281416   0.782   0.119   4.677  0.9486  0.5519  0.6248
26550SOL     OW81417   9.800   7.484   4.912 -0.3394  0.1451 -0.3085
26550SOL    HW181418   9.782   7.534   4.991  0.2920 -0.9073  0.5299
26550SOL    HW281419   9.724   7.428   4.901  1.0744 -2.4032  1.7397
26551SOL     OW81420   7.992   0.246   7.245 -0.5440  0.5710  0.2885
26551SOL    HW181421   8.008   0.162   7.203 -1.8285  1.2609 -1.7252
26551SOL    HW281422   8.038   0.241   7.329  0.8527 -1.4563 -0.5468
26552SOL     OW81423   8.781   4.707   6.949  0.5916  0.4104 -0.2546
26552SOL    HW181424   8.845   4.685   6.881  2.0988  2.3678  0.4157
26552SOL    HW281425   8.702   4.730   6.900  1.4694  1.2345 -1.3715
26553SOL     OW81426   4.352   9.385   9.226  0.8916 -0.8140  0.0851
26553SOL    HW181427   4.321   9.295   9.219  0.6215 -0.6454 -1.1054
26553SOL    HW281428   4.273   9.438   9.237  1.0087 -0.6811  0.2909
26554SOL     OW81429   2.470   7.710   2.154 -0.4576  0.2206 -0.0792
26554SOL    HW181430   2.452   7.616   2.165 -1.0360  0.4238  0.7929
26554SOL    HW281431   2.387   7.747   2.124 -0.6245  0.6686  0.9158
26555SOL     OW81432   4.513   8.904   4.698 -0.0837 -0.3446 -0.6005
26555SOL    HW181433   4.607   8.917   4.703 -0.1869  0.2039  0.1634
26555SOL    HW281434   4.499   8.813   4.725  0.3155 -0.8264 -1.9394
26556SOL     OW81435   3.578   4.135   2.070  0.3574  0.2561  0.2142
26556SOL    HW181436   3.484   4.116   2.070  0.6755 -1.4681  0.7179
26556SOL    HW281437   3.596   4.166   2.158  0.3032  0.3829  0.1810
26557SOL     OW81438   1.256   1.010   6.317 -0.4810  0.2116 -0.2811
26557SOL    HW181439   1.195   1.084   6.326 -2.4664 -1.1597 -1.6640
26557SOL    HW281440   1.319   1.039   6.251  0.7914  1.8382  1.5218
26558SOL     OW81441   0.909   1.168   7.248  0.3400  0.4016 -0.4757
26558SOL    HW181442   0.998   1.193   7.222  0.6730 -1.9110 -1.9584
26558SOL    HW281443   0.859   1.249   7.248  2.0866  1.5300 -1.2563
26559SOL     OW81444   1.925   7.608   3.255  0.3982  0.4099 -0.3754
26559SOL    HW181445   1.835   7.585   3.280  0.3146  1.0796 -0.0310
26559SOL    HW281446   1.948   7.544   3.188 -0.6583  0.7682 -1.1174
26560SOL     OW81447   2.126   7.852   7.141  1.1706 -0.3203  0.2639
26560SOL    HW181448   2.080   7.812   7.215 -0.5561 -0.7031 -0.9502
26560SOL    HW281449   2.200   7.794   7.124 -0.0441 -1.8544 -0.0764
26561SOL     OW81450   7.394   3.257   1.293  0.1253 -0.7088  0.2834
26561SOL    HW181451   7.349   3.196   1.235 -0.9268  0.0018  0.3196
26561SOL    HW281452   7.486   3.232   1.288  0.1030 -0.5508 -1.8610
26562SOL     OW81453   6.856   7.154   3.256  0.0030  0.4389  0.4527
26562SOL    HW181454   6.841   7.180   3.347 -1.6878  1.9304 -0.1929
26562SOL    HW281455   6.842   7.059   3.256 -1.7412  0.6420  1.4886
26563SOL     OW81456   6.003   3.779   9.053  0.1984  0.7147  0.0548
26563SOL    HW181457   5.930   3.838   9.034 -0.7663 -0.3375  0.4177
26563SOL    HW281458   5.998   3.713   8.984  1.2567  1.0222 -0.3317
26564SOL     OW81459   5.478   3.330   9.047 -0.2947  0.2866  0.1942
26564SOL    HW181460   5.438   3.303   8.964  1.2634 -3.0394  0.3591
26564SOL    HW281461   5.569   3.348   9.025  0.4450 -1.8251  1.2760
26565SOL     OW81462   4.200   5.387   6.002  0.5403  0.3266  0.4296
26565SOL    HW181463   4.274   5.448   6.006  0.5555  0.3323  0.1386
26565SOL    HW281464   4.230   5.308   6.046  1.2081 -0.1709 -0.8686
26566SOL     OW81465   1.165   0.064   7.115  0.2719  0.8358  0.3141
26566SOL    HW181466   1.185   0.113   7.036 -1.0117 -0.5452 -0.9274
26566SOL    HW281467   1.241   0.077   7.171  0.7643  2.6740 -0.7129
26567SOL     OW81468   2.037   1.795   8.784 -0.3518  0.0147  0.0492
26567SOL    HW181469   1.957   1.743   8.777 -0.5857  0.3567  0.1602
26567SOL    HW281470   2.057   1.820   8.693 -0.9292  0.7621  0.1194
26568SOL     OW81471   3.817   1.591   5.304 -0.5145 -0.0525  0.3880
26568SOL    HW181472   3.866   1.546   5.235  2.4227  2.9439  0.2198
26568SOL    HW281473   3.868   1.577   5.383 -0.3805  1.5319  0.6278
26569SOL     OW81474   1.832   2.457   5.315  0.5109  0.2690  0.1661
26569SOL    HW181475   1.893   2.397   5.358 -0.2115 -0.6286 -0.0381
26569SOL    HW281476   1.795   2.406   5.243 -0.3040  0.8791  0.1431
26570SOL     OW81477   9.258   7.068   4.081  0.2779 -0.2133 -0.2092
26570SOL    HW181478   9.250   7.163   4.095  0.7274 -0.1525 -0.3510
26570SOL    HW281479   9.290   7.034   4.164  2.4505  0.0814 -0.8668
26571SOL     OW81480   3.386   7.977   6.959 -0.3637  0.3591  0.3528
26571SOL    HW181481   3.436   7.990   6.878 -0.5864 -0.5371  0.0587
26571SOL    HW281482   3.346   7.891   6.948 -0.9274  0.5174  1.1432
26572SOL     OW81483   5.571   9.449   4.949 -0.4175 -0.2736  0.5531
26572SOL    HW181484   5.636   9.380   4.955 -0.5501 -0.5292 -0.7281
26572SOL    HW281485   5.567   9.486   5.037 -0.4974 -2.0290  1.3298
26573SOL     OW81486   7.678   5.532   6.776 -0.1891  0.3842 -0.2043
26573SOL    HW181487   7.699   5.442   6.799  1.0833  0.2825 -1.6390
26573SOL    HW281488   7.706   5.541   6.685 -0.6810  2.1107 -0.2200
26574SOL     OW81489   3.208   5.000   2.369 -0.1745 -0.0490 -0.9067
26574SOL    HW181490   3.176   5.051   2.294 -0.5670  1.0371 -0.0222
26574SOL    HW281491   3.284   5.049   2.400 -0.2528 -0.2845 -0.3478
26575SOL     OW81492   8.245   8.331   6.509 -0.3942 -0.2809 -0.4129
26575SOL    HW181493   8.289   8.335   6.424 -0.2555 -1.0567 -0.3893
26575SOL    HW281494   8.294   8.392   6.564 -0.0930 -0.2387 -0.7242
26576SOL     OW81495   0.835   5.879   0.522 -0.3170 -0.4128 -0.2587
26576SOL    HW181496   0.927   5.897   0.504  0.1574 -2.8321 -0.5257
26576SOL    HW281497   0.819   5.923   0.606  1.0264  0.1537 -0.2664
26577SOL     OW81498   4.680   3.274   3.727  0.0113  0.2655  0.2303
26577SOL    HW181499   4.611   3.243   3.669 -0.8681  0.3979  1.1786
26577SOL    HW281500   4.760   3.232   3.694 -0.6291 -0.4541 -0.4463
26578SOL     OW81501   3.744   4.036   6.073 -0.4072 -0.2297  0.8239
26578SOL    HW181502   3.761   4.063   5.982  1.9483 -0.6502  1.0735
26578SOL    HW281503   3.783   4.106   6.126 -1.1608 -0.3334  1.5329
26579SOL     OW81504   0.851   3.700   1.228  0.1209 -0.5106  0.3032
26579SOL    HW181505   0.856   3.659   1.142 -0.7863  0.5525 -0.2792
26579SOL    HW281506   0.912   3.774   1.223  0.0475 -0.4316  0.5708
26580SOL     OW81507   5.938   6.802   7.858 -0.1428 -0.5679  0.4422
26580SOL    HW181508   5.927   6.754   7.940 -0.5464 -0.2457  0.5853
26580SOL    HW281509   5.903   6.744   7.791 -0.7906 -0.4177  0.6358
26581SOL     OW81510   9.460   9.243   9.434  0.2327  0.3854  0.6267
26581SOL    HW181511   9.420   9.325   9.404  0.1729  0.2284  0.2728
26581SOL    HW281512   9.477   9.194   9.354 -0.5132 -0.3101  0.8786
26582SOL     OW81513   1.912   1.382   6.125 -0.0858 -0.2797 -0.1302
26582SOL    HW181514   1.864   1.381   6.208  0.2352  0.8753  0.0924
26582SOL    HW281515   1.844   1.376   6.058 -0.2955 -2.0159  0.2006
26583SOL     OW81516   9.189   4.266   1.619 -0.1994 -0.5215 -0.5721
26583SOL    HW181517   9.095   4.248   1.625 -0.5153  1.4180  1.7076
26583SOL    HW281518   9.217   4.217   1.542 -2.7502 -2.4622 -0.4212
26584SOL     OW81519   7.629   8.730   1.003 -0.5669  0.2462  0.6679
26584SOL    HW181520   7.543   8.746   1.041 -0.2952  1.7523  0.7152
26584SOL    HW281521   7.690   8.773   1.063  0.0811  0.4862 -0.1448
26585SOL     OW81522   7.088   1.630   5.464 -0.3843 -0.2017  0.0003
26585SOL    HW181523   7.067   1.616   5.557  1.2617 -1.4921  0.2341
26585SOL    HW281524   7.180   1.655   5.464 -0.3811 -0.1697 -1.2949
26586SOL     OW81525   6.738   0.327   2.366 -0.0332  0.1334  0.2122
26586SOL    HW181526   6.645   0.346   2.361 -0.4764 -1.4487  1.5583
26586SOL    HW281527   6.756   0.275   2.287 -0.5064 -0.3883  0.4453
26587SOL     OW81528   5.370   1.408   5.901 -0.2912 -0.0564  0.4277
26587SOL    HW181529   5.464   1.409   5.917 -0.3860  3.3780  1.5704
26587SOL    HW281530   5.355   1.483   5.843 -2.1280 -1.8602 -1.5952
26588SOL     OW81531   6.726   1.858   2.921 -0.6433  0.2190  0.3284
26588SOL    HW181532   6.792   1.789   2.933 -0.3387  0.7803  2.0083
26588SOL    HW281533   6.724   1.905   3.003 -2.4467  0.8608 -0.0262
26589SOL     OW81534   2.849   4.639   9.257  0.6535 -0.4248  0.2403
26589SOL    HW181535   2.772   4.690   9.231  0.2901 -0.6599  0.8308
26589SOL    HW281536   2.918   4.705   9.271  0.7259 -0.2567 -0.8105
26590SOL     OW81537   5.884   4.692   5.332  0.1362 -0.0321  0.3256
26590SOL    HW181538   5.867   4.681   5.425  1.6506  0.1992  0.6487
26590SOL    HW281539   5.928   4.611   5.306  0.2064  0.1288 -0.0705
26591SOL     OW81540   4.663   8.929   9.418 -0.8312  0.4172  0.0529
26591SOL    HW181541   4.707   8.943   9.334 -1.6434  3.0765 -0.0346
26591SOL    HW281542   4.734   8.917   9.480 -0.2118 -1.4702 -0.9291
26592SOL     OW81543   5.248   1.339   3.282  0.1189  0.2284  0.2255
26592SOL    HW181544   5.289   1.252   3.285 -0.0795  0.1680  1.9637
26592SOL    HW281545   5.321   1.400   3.285  0.2271  0.1319 -0.3249
26593SOL     OW81546   0.767   3.295   4.642  0.0505  0.0825 -0.0264
26593SOL    HW181547   0.827   3.287   4.716  0.3845 -1.4344 -0.4213
26593SOL    HW281548   0.778   3.385   4.612  1.6338  0.0429  0.3313
26594SOL     OW81549   7.667   2.180   0.287 -0.0182  0.0905  0.8237
26594SOL    HW181550   7.670   2.274   0.270 -0.4696 -0.1635 -0.8329
26594SOL    HW281551   7.732   2.143   0.227 -0.5066 -0.7352  0.7900
26595SOL     OW81552   6.833   0.422   1.535 -0.4809 -0.1932  0.1546
26595SOL    HW181553   6.791   0.373   1.464  0.2770 -0.5855 -0.0378
26595SOL    HW281554   6.849   0.509   1.498  0.3701 -0.5489 -0.3434
26596SOL     OW81555   7.331   6.417   1.955 -0.0094  0.1806 -0.1828
26596SOL    HW181556   7.344   6.325   1.976  1.0899  0.1835 -0.8186
26596SOL    HW281557   7.363   6.464   2.032 -0.1755  0.0497 -0.0330
26597SOL     OW81558   8.564   2.351   0.050 -0.2116  0.0701 -0.4437
26597SOL    HW181559   8.565   2.259   0.023  2.4588  0.0751 -0.5823
26597SOL    HW281560   8.537   2.398  -0.029  0.4516 -0.4612 -1.0078
26598SOL     OW81561   9.411   6.113   4.645  0.1847 -0.4880 -0.5234
26598SOL    HW181562   9.442   6.164   4.720 -0.6988  0.6708 -0.9192
26598SOL    HW281563   9.420   6.022   4.673  3.0341 -0.2343 -0.2711
26599SOL     OW81564   3.469   0.928   1.719  0.5708  0.3650 -0.3033
26599SOL    HW181565   3.394   0.876   1.745  0.0836  0.7175 -0.9553
26599SOL    HW281566   3.537   0.907   1.782 -0.3451  0.6844  0.8199
26600SOL     OW81567   6.222   1.637   3.249 -0.1570 -0.7488  0.2238
26600SOL    HW181568   6.276   1.690   3.308 -0.3928  0.2466 -0.4401
26600SOL    HW281569   6.284   1.601   3.186  0.0858 -1.7586  1.0084
26601SOL     OW81570   8.000   4.942   5.001 -0.6013 -0.7974 -0.1848
26601SOL    HW181571   8.064   4.990   4.948  0.6266  0.3238  2.1607
26601SOL    HW281572   8.036   4.853   5.005 -0.1696 -0.6390 -0.4021
26602SOL     OW81573   5.774   3.603   2.060 -0.4092 -0.3554  0.3308
26602SOL    HW181574   5.679   3.599   2.070 -0.2525 -1.6474  1.8143
26602SOL    HW281575   5.804   3.515   2.083  1.2054  0.2747  0.7905
26603SOL     OW81576   4.384   0.102   8.331  0.2676  0.1743  0.5736
26603SOL    HW181577   4.454   0.050   8.370  0.6315 -1.9447 -2.5761
26603SOL    HW281578   4.329   0.127   8.405  1.0752 -3.2111  2.5087
26604SOL     OW81579   6.953   7.039   0.674 -0.1964 -0.3764  0.3617
26604SOL    HW181580   6.972   7.046   0.767  0.2476 -1.3614  0.3616
26604SOL    HW281581   6.894   7.112   0.655 -0.4364 -0.2771  1.4531
26605SOL     OW81582   7.355   3.523   7.845 -0.1352 -0.2928  0.3063
26605SOL    HW181583   7.372   3.606   7.800  0.7700 -0.9182 -0.5399
26605SOL    HW281584   7.392   3.456   7.787 -2.3453 -1.4583  0.1370
26606SOL     OW81585   0.936   4.283   2.714 -0.2818  0.1041 -0.1759
26606SOL    HW181586   0.989   4.295   2.792  0.5643 -1.0048 -0.5527
26606SOL    HW281587   0.903   4.193   2.720  0.4050 -0.2663 -1.4278
26607SOL     OW81588   8.530   2.751   3.328  0.6267  0.2112 -0.0163
26607SOL    HW181589   8.477   2.732   3.405  0.8010 -0.2494 -0.0057
26607SOL    HW281590   8.530   2.669   3.278 -0.2680  0.7792 -0.9827
26608SOL     OW81591   5.084   3.009   2.768 -0.7298 -0.2018 -0.5587
26608SOL    HW181592   5.099   2.916   2.755  0.1961  0.0528 -1.4665
26608SOL    HW281593   5.109   3.050   2.685  4.1126  1.3889  1.3093
26609SOL     OW81594   2.794   3.935   7.290  0.1134  0.7785  0.0454
26609SOL    HW181595   2.774   3.855   7.339 -0.9616  1.7197  1.2189
26609SOL    HW281596   2.785   3.911   7.198  0.6740 -0.6526  0.3441
26610SOL     OW81597   2.708   2.609   5.912  0.3369 -0.0895 -0.0237
26610SOL    HW181598   2.704   2.698   5.947 -1.6572 -0.0163 -0.3066
26610SOL    HW281599   2.801   2.593   5.897  0.6849  2.3213 -0.9108
26611SOL     OW81600   3.698   8.578   3.140 -0.0653  0.3826  0.4453
26611SOL    HW181601   3.678   8.554   3.050  0.1022  1.3463  0.1379
26611SOL    HW281602   3.787   8.544   3.155 -0.5832 -0.9059  0.6869
26612SOL     OW81603   1.554   6.427   6.520 -0.3044 -0.3393 -0.2571
26612SOL    HW181604   1.499   6.488   6.571 -0.4728  0.1266 -0.9875
26612SOL    HW281605   1.525   6.439   6.430  1.0693 -0.0259 -0.6689
26613SOL     OW81606   9.359   5.165   6.314 -0.7087  0.3984 -0.4150
26613SOL    HW181607   9.280   5.212   6.340 -1.2489 -0.3739 -0.6477
26613SOL    HW281608   9.429   5.208   6.364 -1.4332  0.2870  0.7568
26614SOL     OW81609   3.210   7.515   6.163  0.4166  0.0347 -0.1897
26614SOL    HW181610   3.301   7.509   6.133  0.4611 -2.7892  0.3011
26614SOL    HW281611   3.179   7.598   6.126  2.6154  0.1821 -1.9529
26615SOL     OW81612   7.305   2.820   6.166  0.2992  0.2853 -0.3415
26615SOL    HW181613   7.336   2.884   6.229 -0.2338 -0.1284  0.3554
26615SOL    HW281614   7.298   2.868   6.083 -0.8777  1.3416  0.3431
26616SOL     OW81615   8.306   7.228   3.329  0.1882 -0.3429  0.2046
26616SOL    HW181616   8.373   7.259   3.389  0.2943 -0.8348  0.3422
26616SOL    HW281617   8.237   7.193   3.385 -1.2257  2.1398  0.1700
26617SOL     OW81618   7.933   5.855   7.004 -0.0488 -0.6005  0.2120
26617SOL    HW181619   7.847   5.838   6.966  0.1913 -0.1642 -0.5428
26617SOL    HW281620   7.941   5.791   7.075 -1.0014 -0.6345  0.3069
26618SOL     OW81621   2.821   6.789   4.596  0.2960 -0.0047 -0.0198
26618SOL    HW181622   2.809   6.822   4.507  0.7966 -1.3090 -0.6110
26618SOL    HW281623   2.843   6.696   4.583 -0.0477 -0.3094  1.4868
26619SOL     OW81624   1.056   8.721   6.116 -0.0553 -0.2203  0.5087
26619SOL    HW181625   1.072   8.793   6.055  1.0223 -0.9864 -0.1437
26619SOL    HW281626   0.962   8.704   6.108  0.0646 -0.3167 -0.9866
26620SOL     OW81627   4.502   0.407   7.641 -0.2087  0.0013  0.4844
26620SOL    HW181628   4.508   0.499   7.612 -0.4579 -0.5758 -1.6040
26620SOL    HW281629   4.413   0.398   7.675  0.1725  0.7817  1.7397
26621SOL     OW81630   5.180   6.143   0.147 -0.3020 -0.8936  0.3639
26621SOL    HW181631   5.095   6.109   0.177 -0.5930 -0.4059  0.1070
26621SOL    HW281632   5.159   6.228   0.108  0.6459  0.5005  2.6670
26622SOL     OW81633   6.266   1.120   9.245  0.5263  0.0510 -0.2700
26622SOL    HW181634   6.224   1.113   9.331  2.8238 -0.4829  0.9073
26622SOL    HW281635   6.225   1.051   9.193  0.3612 -0.8755  1.0273
26623SOL     OW81636   9.164   5.844   4.827 -0.4547  0.1978  0.2011
26623SOL    HW181637   9.148   5.938   4.819 -2.5381 -0.0624  0.8691
26623SOL    HW281638   9.147   5.809   4.740 -1.5508  0.2180  0.3932
26624SOL     OW81639   0.823   9.464   6.718  0.2279  0.1737 -0.5779
26624SOL    HW181640   0.853   9.487   6.805 -0.2878  2.4949 -0.9424
26624SOL    HW281641   0.727   9.462   6.726  0.2273 -1.0444 -0.7812
26625SOL     OW81642   3.535   2.493   9.072  0.0282 -0.2029  0.4835
26625SOL    HW181643   3.545   2.566   9.132  0.5699 -0.1016  0.2789
26625SOL    HW281644   3.510   2.419   9.127  0.2171 -0.0389  0.7903
26626SOL     OW81645   0.073   3.576   4.340 -0.3013  0.4505 -0.0324
26626SOL    HW181646  -0.012   3.589   4.298 -0.5168  0.0825  0.2802
26626SOL    HW281647   0.053   3.527   4.420  0.4652 -1.9117 -1.1921
26627SOL     OW81648   6.243   8.309   3.258  0.1797  0.6864  0.0272
26627SOL    HW181649   6.329   8.296   3.299  1.2074  3.5032 -0.9657
26627SOL    HW281650   6.257   8.284   3.167 -0.9768 -1.6846  0.4208
26628SOL     OW81651   0.621   6.599   5.243  0.7984 -0.6225  0.5097
26628SOL    HW181652   0.643   6.659   5.314 -1.8167  0.3541  0.6250
26628SOL    HW281653   0.603   6.657   5.168 -0.8408 -1.2856  0.3484
26629SOL     OW81654   3.384   6.142   8.112 -0.3562  0.3213  0.1321
26629SOL    HW181655   3.289   6.135   8.120 -0.1539 -1.9182  1.5973
26629SOL    HW281656   3.399   6.229   8.077 -2.8960  1.3261  1.2915
26630SOL     OW81657   6.891   2.746   4.450  0.3448 -0.1336  0.3496
26630SOL    HW181658   6.965   2.687   4.462  0.8557  0.2445 -0.8692
26630SOL    HW281659   6.828   2.719   4.518  1.2036 -1.0526  0.8030
26631SOL     OW81660   4.309   4.920   5.824  0.1933 -0.0404  0.2058
26631SOL    HW181661   4.220   4.887   5.813 -0.5195  0.9779  2.2953
26631SOL    HW281662   4.365   4.843   5.819 -0.3293 -0.3885 -4.4717
26632SOL     OW81663   7.704   8.070   5.944 -0.5124  0.7634  0.0201
26632SOL    HW181664   7.667   8.058   5.857 -0.1143 -2.0235  0.1452
26632SOL    HW281665   7.635   8.043   6.004  0.2499 -0.4638  0.3967
26633SOL     OW81666   2.794   9.751   7.232 -0.3275  0.5184  0.0182
26633SOL    HW181667   2.741   9.681   7.194 -1.0929  0.9951  0.1875
26633SOL    HW281668   2.734   9.797   7.291 -0.7360  3.2187 -2.3136
26634SOL     OW81669   8.007   4.722   9.611  0.6260 -0.8208 -0.9972
26634SOL    HW181670   7.984   4.803   9.657  0.2544 -1.7842  0.5671
26634SOL    HW281671   7.925   4.674   9.603  1.1243 -1.8124 -0.3314
26635SOL     OW81672   8.141   5.669   3.894 -0.5121 -0.4198  0.2974
26635SOL    HW181673   8.081   5.646   3.965 -0.3720 -2.1592 -0.1167
26635SOL    HW281674   8.086   5.676   3.817 -0.2802 -1.4313  0.0301
26636SOL     OW81675   3.542   7.836   6.498 -0.6021  0.3018 -0.3471
26636SOL    HW181676   3.548   7.800   6.586  1.6214  0.6376 -0.2990
26636SOL    HW281677   3.498   7.921   6.510  2.0384  1.6107  0.9358
26637SOL     OW81678   1.388   4.245   5.741  0.0678  0.1842 -0.6284
26637SOL    HW181679   1.397   4.218   5.649  0.1547 -1.0242 -0.2863
26637SOL    HW281680   1.385   4.163   5.790  1.2784  0.8041  0.5731
26638SOL     OW81681   8.257   5.144   1.338 -0.6874  0.1364 -0.1494
26638SOL    HW181682   8.235   5.144   1.245  0.6475 -1.4347 -0.4959
26638SOL    HW281683   8.201   5.076   1.376 -1.3719  0.9071  0.2671
26639SOL     OW81684   6.596   3.538   9.698 -0.4508  0.0160  0.3575
26639SOL    HW181685   6.689   3.557   9.683 -0.7879  1.5089 -0.0056
26639SOL    HW281686   6.590   3.443   9.692  1.3251 -0.2606  1.9575
26640SOL     OW81687   8.727   1.853   5.860 -0.2005 -0.7471  0.1200
26640SOL    HW181688   8.719   1.862   5.765 -1.3054  0.6174  0.3006
26640SOL    HW281689   8.642   1.818   5.888 -0.6399  0.7832  0.7834
26641SOL     OW81690   1.763   6.308   4.233 -0.4947 -0.1064 -0.1139
26641SOL    HW181691   1.812   6.231   4.262  1.8706  1.4349  0.2660
26641SOL    HW281692   1.694   6.319   4.298  1.6018  0.3423  2.2040
26642SOL     OW81693   3.719   5.181   3.953 -0.9065 -0.8605 -0.3037
26642SOL    HW181694   3.728   5.234   4.033 -1.5430 -0.7478 -0.3035
26642SOL    HW281695   3.654   5.227   3.901 -0.4252 -0.8851 -0.9405
26643SOL     OW81696   7.762   0.544   9.302 -0.7125  0.6776 -0.5567
26643SOL    HW181697   7.716   0.462   9.318 -1.9867  1.3636 -0.5654
26643SOL    HW281698   7.822   0.525   9.230 -0.7945 -0.3074 -0.3720
26644SOL     OW81699   6.236   6.746   5.512  0.1422 -0.6688 -0.2120
26644SOL    HW181700   6.215   6.653   5.498 -0.0855 -0.5922 -0.3741
26644SOL    HW281701   6.322   6.744   5.553 -0.4244 -1.0182  1.0165
26645SOL     OW81702   2.368   2.667   0.763  0.3716 -0.0785  0.0541
26645SOL    HW181703   2.364   2.604   0.691  0.4941  0.0483 -0.0629
26645SOL    HW281704   2.305   2.634   0.827  0.4837 -0.3592  0.0222
26646SOL     OW81705   8.103   8.675   2.197  0.2885 -0.7474 -0.9664
26646SOL    HW181706   8.126   8.767   2.205  1.1270 -0.9901 -0.4714
26646SOL    HW281707   8.073   8.665   2.106  0.7750 -0.1104 -1.2009
26647SOL     OW81708   2.129   7.451   9.694 -0.0057 -0.0572  0.4352
26647SOL    HW181709   2.145   7.519   9.760  0.4468 -1.5955  1.9957
26647SOL    HW281710   2.187   7.379   9.719 -1.3742 -1.5193 -0.3930
26648SOL     OW81711   4.425   5.855   3.020  0.3287  0.0176  0.2121
26648SOL    HW181712   4.394   5.825   2.935  2.0473  2.3174 -1.3170
26648SOL    HW281713   4.489   5.789   3.047 -0.8669 -1.1859  0.2064
26649SOL     OW81714   6.398   5.577   8.825  0.1904 -0.7117 -0.2104
26649SOL    HW181715   6.382   5.629   8.904  1.1406  0.7436 -0.9486
26649SOL    HW281716   6.493   5.564   8.824  0.3013  0.0945 -1.6024
26650SOL     OW81717   3.582   1.561   4.331  0.3672  0.1410  0.6283
26650SOL    HW181718   3.540   1.479   4.304 -0.3635  0.2209  1.4875
26650SOL    HW281719   3.511   1.624   4.334  0.8678  0.7323  0.3334
26651SOL     OW81720   2.026   1.378   7.101 -0.5102 -0.2357 -0.6729
26651SOL    HW181721   2.101   1.354   7.155 -2.2677 -2.5161  0.9842
26651SOL    HW281722   1.975   1.437   7.156 -1.3441 -1.0391 -0.5520
26652SOL     OW81723   2.193   7.412   4.026  0.4377 -0.0727  0.0033
26652SOL    HW181724   2.287   7.410   4.041  0.3102 -1.7807  0.7982
26652SOL    HW281725   2.160   7.479   4.087  1.0505  0.0114  0.2463
26653SOL     OW81726   3.338   9.148   9.510  0.6038 -0.5360 -0.8509
26653SOL    HW181727   3.266   9.104   9.465  0.8379  0.5062 -2.3581
26653SOL    HW281728   3.335   9.115   9.599 -2.0502 -0.1677 -0.7191
26654SOL     OW81729   2.039   0.739   5.894  0.4275  0.5284  0.5196
26654SOL    HW181730   2.113   0.684   5.867 -1.1336 -2.0574  1.0705
26654SOL    HW281731   1.999   0.768   5.813  0.1847 -0.8245  0.1241
26655SOL     OW81732   2.150   1.983   3.230  0.1157 -0.4234 -0.4854
26655SOL    HW181733   2.078   1.952   3.175  0.4121  0.3851 -1.3613
26655SOL    HW281734   2.167   1.910   3.290  0.2346 -1.6409 -1.9114
26656SOL     OW81735   5.119   3.637   6.508 -0.5451  0.2316  0.1874
26656SOL    HW181736   5.103   3.700   6.578 -2.1770 -0.5977  0.6147
26656SOL    HW281737   5.208   3.656   6.479 -0.9076  2.6386  0.3851
26657SOL     OW81738   1.290   2.382   2.758  0.0490 -0.2253  0.6831
26657SOL    HW181739   1.254   2.459   2.800  1.6563  0.5671  0.6750
26657SOL    HW281740   1.265   2.390   2.666 -0.0979  0.1052  0.7532
26658SOL     OW81741   6.451   8.856   8.660 -0.3080  0.3258  0.3578
26658SOL    HW181742   6.384   8.801   8.622 -0.6404  1.3375 -0.5584
26658SOL    HW281743   6.442   8.843   8.755 -1.5057  0.1230  0.2268
26659SOL     OW81744   4.779   0.184   6.900 -0.4744 -0.2846  0.0233
26659SOL    HW181745   4.738   0.200   6.985 -0.3264  3.4329 -0.4522
26659SOL    HW281746   4.711   0.143   6.848 -2.7113  2.7515  0.2666
26660SOL     OW81747   5.693   3.430   0.778  0.1497 -0.2856  0.1235
26660SOL    HW181748   5.720   3.396   0.863 -1.8575 -1.1573  0.4673
26660SOL    HW281749   5.642   3.509   0.799 -0.3298 -0.4871 -0.2495
26661SOL     OW81750   2.710   3.735   0.154 -0.2735 -1.4398 -0.5430
26661SOL    HW181751   2.668   3.776   0.079  1.7095  1.0262 -0.4464
26661SOL    HW281752   2.796   3.707   0.120  1.0519  0.5928  0.9030
26662SOL     OW81753   0.734   4.227   8.769  0.0362  0.1470 -0.0172
26662SOL    HW181754   0.785   4.168   8.824  0.5094  0.4546 -0.1168
26662SOL    HW281755   0.752   4.314   8.805 -0.3690  0.2619 -0.0933
26663SOL     OW81756   3.399   6.807   9.310 -0.0974 -0.2859 -0.2030
26663SOL    HW181757   3.475   6.750   9.315  0.9213  0.9273 -0.9580
26663SOL    HW281758   3.424   6.884   9.361 -0.5235  0.4209 -1.0331
26664SOL     OW81759   2.023   0.295   4.268  0.5851  0.7137  0.4321
26664SOL    HW181760   2.049   0.203   4.274  0.1299  0.4413 -1.3701
26664SOL    HW281761   1.941   0.299   4.317  1.1096  0.3903  1.3619
26665SOL     OW81762   1.044   5.302   6.936  0.5854 -0.4737  0.1047
26665SOL    HW181763   1.122   5.352   6.913  0.5257 -1.0495 -1.4850
26665SOL    HW281764   0.982   5.368   6.967  1.5842  0.0241  1.0997
26666SOL     OW81765   5.726   5.343   4.832  0.2950 -0.1944  0.7961
26666SOL    HW181766   5.777   5.340   4.751 -1.5237 -0.7539 -0.3795
26666SOL    HW281767   5.730   5.254   4.866 -1.5348 -0.7645 -0.3921
26667SOL     OW81768   6.297   1.271   3.527  0.6698 -0.4543 -0.3105
26667SOL    HW181769   6.217   1.247   3.479  0.7267  0.3709 -0.8360
26667SOL    HW281770   6.284   1.235   3.614  0.0912 -1.0626 -0.6379
26668SOL     OW81771   5.359   6.444   8.447  0.0097 -0.8378 -0.2595
26668SOL    HW181772   5.324   6.467   8.533 -0.7333 -0.8686 -0.5518
26668SOL    HW281773   5.437   6.392   8.467  0.7168  0.4006  0.4022
26669SOL     OW81774   0.534   8.526   2.951  0.8305  0.2793 -0.1229
26669SOL    HW181775   0.561   8.491   2.866  0.5793  0.0000 -0.0883
26669SOL    HW281776   0.462   8.470   2.979  0.2006  1.0319 -0.2160
26670SOL     OW81777   7.814   8.761   1.713 -0.1449  0.2759 -0.0166
26670SOL    HW181778   7.839   8.699   1.645 -1.4653 -0.7691  0.4042
26670SOL    HW281779   7.785   8.839   1.665 -1.4507 -0.5910 -0.6929
26671SOL     OW81780   8.258   7.264   2.750  0.1948 -0.3824 -0.5041
26671SOL    HW181781   8.172   7.231   2.776  0.6883 -1.2337  0.0759
26671SOL    HW281782   8.253   7.359   2.766  0.8144 -0.8854  3.8960
26672SOL     OW81783   6.904   2.176   1.052 -0.1134 -0.4204  0.4384
26672SOL    HW181784   6.853   2.181   1.133 -0.0291 -0.8699  0.5186
26672SOL    HW281785   6.981   2.231   1.069  0.1108 -0.8498  0.8136
26673SOL     OW81786   5.121   3.343   4.593  0.1381  0.3366 -0.6892
26673SOL    HW181787   5.201   3.310   4.553  0.8438  1.1558  0.0335
26673SOL    HW281788   5.073   3.264   4.619  0.6079 -0.1597 -1.3102
26674SOL     OW81789   9.013   7.198   5.245  0.0880 -0.3825 -0.1343
26674SOL    HW181790   9.108   7.215   5.251 -0.2500  1.4397  0.7236
26674SOL    HW281791   8.989   7.236   5.160  0.2238 -1.4727 -0.6733
26675SOL     OW81792   1.151   2.038   4.417 -0.1948 -0.6038 -0.0920
26675SOL    HW181793   1.133   1.966   4.478  0.2563 -1.4037 -0.8694
26675SOL    HW281794   1.094   2.109   4.446  0.2244 -0.8509  1.4265
26676SOL     OW81795   2.650   6.191   4.431 -0.0153 -0.0766 -0.6942
26676SOL    HW181796   2.604   6.241   4.498  1.8486  0.3806  0.3162
26676SOL    HW281797   2.650   6.249   4.354  1.9003  1.5173  0.3825
26677SOL     OW81798   0.803   3.477   5.041 -0.1580 -0.2692  0.0602
26677SOL    HW181799   0.772   3.520   5.121  2.3966  1.0752  0.4261
26677SOL    HW281800   0.755   3.394   5.039 -4.1214  1.7958  0.1654
26678SOL     OW81801   4.544   8.553   2.402  0.3679  0.3751  0.4164
26678SOL    HW181802   4.497   8.478   2.365  0.8124  0.4004 -0.2075
26678SOL    HW281803   4.559   8.528   2.494 -0.7685  0.3282  0.6119
26679SOL     OW81804   9.226   5.456   4.083 -0.1940  0.1945 -0.5650
26679SOL    HW181805   9.208   5.397   4.156  2.7043 -0.5077 -0.2807
26679SOL    HW281806   9.194   5.409   4.006 -0.5745 -0.4313 -0.0396
26680SOL     OW81807   4.714   4.538   1.925 -0.2619  0.4442 -0.2113
26680SOL    HW181808   4.665   4.537   1.843 -0.1803  2.8745 -0.3703
26680SOL    HW281809   4.748   4.449   1.934  0.0817  0.1970 -3.0281
26681SOL     OW81810   6.380   1.831   3.379  0.3701 -0.3422 -0.1377
26681SOL    HW181811   6.332   1.833   3.462 -0.2380  2.5488 -0.4319
26681SOL    HW281812   6.464   1.790   3.400  1.3294  2.5984  2.6648
26682SOL     OW81813   0.893   1.572   1.141  0.7908 -0.1175 -0.0582
26682SOL    HW181814   0.948   1.650   1.131  0.9963 -0.3860 -1.2363
26682SOL    HW281815   0.913   1.519   1.063 -2.0153  0.3058 -1.1762
26683SOL     OW81816   0.596   9.612   0.277 -0.1479 -0.0569 -0.1102
26683SOL    HW181817   0.651   9.561   0.217 -0.3152  1.8533 -1.9784
26683SOL    HW281818   0.515   9.561   0.283  0.5730 -1.2444  0.0822
26684SOL     OW81819   5.821   9.531   5.320  0.0850 -0.3283  0.5386
26684SOL    HW181820   5.754   9.463   5.315  0.9429 -1.1468 -0.2531
26684SOL    HW281821   5.795   9.585   5.395 -0.9823 -1.1164  0.7627
26685SOL     OW81822   2.877   7.859   9.594 -0.3871  0.1258  0.0895
26685SOL    HW181823   2.867   7.915   9.671  0.4792  1.4432 -0.7268
26685SOL    HW281824   2.861   7.770   9.627 -1.4673  0.7995  1.4791
26686SOL     OW81825   4.452   3.731   8.809 -0.1927  0.3348 -0.3251
26686SOL    HW181826   4.433   3.804   8.869  0.1296  0.1342  0.0193
26686SOL    HW281827   4.372   3.677   8.812 -0.2071  0.3656 -0.1359
26687SOL     OW81828   4.734   6.058   9.797 -0.3820  0.9713 -0.0532
26687SOL    HW181829   4.673   6.123   9.832 -0.1160  0.7119  0.9226
26687SOL    HW281830   4.816   6.075   9.843  0.0125  0.6840 -0.6377
26688SOL     OW81831   8.769   5.844   5.997 -0.0278 -0.3343 -0.0698
26688SOL    HW181832   8.721   5.927   5.990 -0.6009 -0.7670 -2.0956
26688SOL    HW281833   8.706   5.784   6.037 -0.6803 -0.4882 -1.2583
26689SOL     OW81834   7.861   9.082   6.312  0.1530  0.0322 -0.1644
26689SOL    HW181835   7.839   8.989   6.323  0.8116  0.0277  1.4200
26689SOL    HW281836   7.800   9.127   6.370 -0.7721  0.7075 -1.5985
26690SOL     OW81837   2.711   4.768   0.295  0.0071  0.5183  0.0269
26690SOL    HW181838   2.656   4.696   0.327  0.1198  0.6903  0.6300
26690SOL    HW281839   2.776   4.780   0.364  1.3481 -0.2524 -1.0628
26691SOL     OW81840   0.468   2.727   5.889  0.2080 -0.1998 -0.0537
26691SOL    HW181841   0.447   2.738   5.981  1.4104 -1.2018  0.3705
26691SOL    HW281842   0.523   2.803   5.868 -1.1021  0.7003 -0.3057
26692SOL     OW81843   2.990   4.939   3.240  0.5342 -0.6418 -0.6373
26692SOL    HW181844   3.011   4.945   3.333  1.7482 -1.7831 -0.8117
26692SOL    HW281845   2.985   5.030   3.210  1.8483 -0.2831  0.1764
26693SOL     OW81846   0.576   4.188   2.197 -0.2974 -0.2596 -0.1279
26693SOL    HW181847   0.616   4.113   2.155 -0.7154 -0.1464 -0.7364
26693SOL    HW281848   0.639   4.259   2.185 -1.2146  0.2702 -2.2728
26694SOL     OW81849   6.388   4.868   6.260  0.3238 -0.5523 -0.3706
26694SOL    HW181850   6.385   4.774   6.275 -0.7983 -0.8097 -1.9085
26694SOL    HW281851   6.383   4.907   6.347 -0.8889 -1.9081  0.2073
26695SOL     OW81852   3.678   4.929   1.679  0.0496  0.2849  0.3233
26695SOL    HW181853   3.636   4.906   1.762 -0.1640  0.6216  0.3100
26695SOL    HW281854   3.641   4.868   1.616  0.9786 -0.6638  0.6615
26696SOL     OW81855   7.139   4.573   6.236  0.4171 -0.1918  0.3859
26696SOL    HW181856   7.096   4.555   6.152  2.2059 -0.2331 -0.5707
26696SOL    HW281857   7.067   4.584   6.298 -1.0743  2.4889 -1.6415
26697SOL     OW81858   7.004   2.736   3.470 -0.4482  0.3092 -0.1187
26697SOL    HW181859   7.055   2.816   3.481 -0.1485  0.1979 -0.6477
26697SOL    HW281860   7.008   2.718   3.376 -1.5250  0.3347 -0.1820
26698SOL     OW81861   8.369   0.156   7.629  0.0999 -0.2463 -0.1707
26698SOL    HW181862   8.445   0.099   7.638 -0.4875 -0.8802  0.9589
26698SOL    HW281863   8.320   0.144   7.710 -1.2683  0.0594 -0.9176
26699SOL     OW81864   7.335   2.883   9.542 -0.2530 -0.2331 -0.2994
26699SOL    HW181865   7.312   2.886   9.634 -0.4235 -1.0623 -0.3015
26699SOL    HW281866   7.251   2.881   9.496 -0.2255 -2.2903 -0.3499
26700SOL     OW81867   6.680   6.244   1.317 -0.7161 -0.2832  0.3846
26700SOL    HW181868   6.598   6.210   1.352 -0.2083 -2.0008  0.0276
26700SOL    HW281869   6.673   6.339   1.326 -1.7919 -0.5061  2.4373
26701SOL     OW81870   6.129   3.658   3.768  0.1779  0.4404  0.8163
26701SOL    HW181871   6.057   3.715   3.744 -0.7270  0.0407  2.4228
26701SOL    HW281872   6.091   3.596   3.830  1.8496  0.0919  1.5597
26702SOL     OW81873   4.503   7.753   9.841  0.3492 -0.2489 -0.3840
26702SOL    HW181874   4.448   7.825   9.810 -0.3995 -0.7942 -0.3258
26702SOL    HW281875   4.532   7.782   9.928  0.6700  0.3082 -0.6681
26703SOL     OW81876   1.723   0.851   9.380 -0.4186  0.1228  0.0581
26703SOL    HW181877   1.662   0.924   9.362  1.5933  2.0981  0.7554
26703SOL    HW281878   1.766   0.835   9.296 -1.0100 -0.4470 -0.1469
26704SOL     OW81879   7.205   6.480   1.665 -0.0493  0.6299 -0.1000
26704SOL    HW181880   7.270   6.544   1.693  1.6608 -1.3292  0.7501
26704SOL    HW281881   7.148   6.468   1.742  0.6711 -0.0543  0.3421
26705SOL     OW81882   6.958   5.975   1.782 -0.3520  0.0758  0.1705
26705SOL    HW181883   6.899   5.955   1.854 -0.6916 -0.0225 -0.1292
26705SOL    HW281884   6.925   6.057   1.746 -0.0879  0.2076  0.2255
26706SOL     OW81885   6.999   3.310   6.937 -0.1506 -0.0234  0.1369
26706SOL    HW181886   6.925   3.347   6.890 -0.9486 -0.0407  1.3309
26706SOL    HW281887   6.963   3.233   6.983  1.0622 -1.2280 -0.8491
26707SOL     OW81888   3.995   3.233   1.703 -0.4400  0.7869 -0.0552
26707SOL    HW181889   3.914   3.282   1.696 -1.0283  0.2578  2.2290
26707SOL    HW281890   3.969   3.147   1.736  1.1002  0.9576  1.8167
26708SOL     OW81891   4.231   3.919   4.327 -0.3409  0.3421 -0.0283
26708SOL    HW181892   4.254   3.835   4.366  1.3769  0.7792 -0.0174
26708SOL    HW281893   4.193   3.897   4.242  0.5486 -0.4346 -0.2374
26709SOL     OW81894   1.782   1.240   8.543 -0.2612  0.5624 -0.2968
26709SOL    HW181895   1.706   1.184   8.526  0.3408 -0.0606 -0.9802
26709SOL    HW281896   1.799   1.283   8.459  2.0974 -1.7317 -1.1159
26710SOL     OW81897   7.382   0.393   9.473  0.1402  0.5890 -0.7423
26710SOL    HW181898   7.334   0.475   9.489 -0.0834  0.4116 -0.4892
26710SOL    HW281899   7.319   0.337   9.428  0.1294  0.3778 -0.4686
26711SOL     OW81900   2.048   6.497   4.370  0.5268  0.0011  0.2046
26711SOL    HW181901   1.968   6.533   4.408  0.2595 -1.1410  0.7684
26711SOL    HW281902   2.084   6.568   4.317 -0.3136  0.8632  0.7680
26712SOL     OW81903   4.694   5.660   3.333  0.0796 -0.6387 -0.1681
26712SOL    HW181904   4.686   5.706   3.417 -0.6251  0.0297 -0.5937
26712SOL    HW281905   4.779   5.616   3.339  1.4958  1.8749 -0.2772
26713SOL     OW81906   9.100   8.018   2.827  0.0111 -0.3407  0.2845
26713SOL    HW181907   9.133   8.081   2.891 -0.7174 -0.4990  0.8281
26713SOL    HW281908   9.037   8.067   2.774  0.5437 -0.2348 -0.2641
26714SOL     OW81909   0.981   4.537   5.744 -0.2753  0.4602  0.3351
26714SOL    HW181910   1.010   4.449   5.769 -1.9028 -0.0869  0.4023
26714SOL    HW281911   1.062   4.585   5.728  0.6550 -0.9997  0.4674
26715SOL     OW81912   3.440   7.949   0.758  0.1938 -0.1942 -0.3444
26715SOL    HW181913   3.453   8.001   0.837  0.5684 -0.6264 -0.1176
26715SOL    HW281914   3.511   7.975   0.699  0.6175 -0.7265 -0.0782
26716SOL     OW81915   1.707   5.409   9.524 -0.2921 -0.2083 -0.3248
26716SOL    HW181916   1.776   5.474   9.536  1.7272 -2.2082 -0.3886
26716SOL    HW281917   1.630   5.459   9.499  1.2090  2.1044 -0.5679
26717SOL     OW81918   1.624   7.659   9.332 -0.0186 -0.1196 -0.2388
26717SOL    HW181919   1.576   7.586   9.369 -0.2252 -0.3506 -0.9366
26717SOL    HW281920   1.711   7.624   9.312  0.5862  0.3995  1.3734
26718SOL     OW81921   8.618   5.129   9.706 -0.0252 -0.4179  0.0833
26718SOL    HW181922   8.560   5.151   9.634  0.1353 -0.3755 -0.0350
26718SOL    HW281923   8.576   5.055   9.750 -0.1208 -0.4464 -0.0579
26719SOL     OW81924   9.155   4.496   7.961 -0.3441  0.4485 -0.1759
26719SOL    HW181925   9.133   4.583   7.930 -1.7967 -0.0203 -0.5380
26719SOL    HW281926   9.073   4.446   7.954  0.4887 -0.9894 -0.1389
26720SOL     OW81927   0.888   1.053   3.104  0.8326 -0.0875 -0.4369
26720SOL    HW181928   0.912   1.097   3.022 -0.6879 -1.0254 -1.4214
26720SOL    HW281929   0.941   0.973   3.105  0.9644 -0.0006 -0.4208
26721SOL     OW81930   5.030   3.718   1.961  0.2341 -0.2534 -0.2150
26721SOL    HW181931   5.034   3.789   2.026  1.8606 -0.1056 -0.4444
26721SOL    HW281932   5.060   3.640   2.009 -3.2936 -1.3170  0.5891
26722SOL     OW81933   7.875   1.169   7.330 -0.3488 -0.1964  0.2708
26722SOL    HW181934   7.878   1.113   7.252 -0.6021  0.8490 -0.5111
26722SOL    HW281935   7.783   1.169   7.357  0.1137 -2.7418  2.2547
26723SOL     OW81936   3.253   2.288   5.436  0.5395 -0.4928 -0.2547
26723SOL    HW181937   3.232   2.314   5.346  0.1515  0.2713  0.0477
26723SOL    HW281938   3.237   2.193   5.438  1.6327 -0.7241 -1.2829
26724SOL     OW81939   0.880   8.839   2.151  0.1149  0.4281 -0.3859
26724SOL    HW181940   0.936   8.832   2.073 -0.3855 -1.8268 -0.5969
26724SOL    HW281941   0.874   8.933   2.167  1.7482  0.8612 -1.9616
26725SOL     OW81942   3.551   6.018   2.420 -0.3731 -0.0626  0.2264
26725SOL    HW181943   3.590   5.942   2.463 -0.9144  0.1567  1.1225
26725SOL    HW281944   3.548   6.085   2.488 -2.9446 -0.2741  0.4072
26726SOL     OW81945   7.399   3.189   3.460  0.7988 -0.3076  0.4285
26726SOL    HW181946   7.404   3.170   3.554  1.1051 -0.7592  0.3216
26726SOL    HW281947   7.490   3.188   3.431  0.6297 -1.2682 -0.0909
26727SOL     OW81948   7.520   2.602   8.739 -0.2927  0.3176  0.5605
26727SOL    HW181949   7.586   2.601   8.809 -0.6422 -2.2374  0.9549
26727SOL    HW281950   7.567   2.573   8.661 -0.1566  2.1194 -0.0804
26728SOL     OW81951   8.431   8.295   2.800  0.7007  0.5834 -0.2224
26728SOL    HW181952   8.349   8.264   2.839 -0.0289  1.0150 -1.3771
26728SOL    HW281953   8.412   8.386   2.774  1.9812  1.1530  0.7395
26729SOL     OW81954   2.316   3.252   9.039  0.0382  0.2166  0.1051
26729SOL    HW181955   2.295   3.179   8.981  0.1755 -1.3447  1.9171
26729SOL    HW281956   2.412   3.259   9.036  0.2850 -1.5038  1.9174
26730SOL     OW81957   0.015   9.792   5.130 -0.0077  1.0874  0.4078
26730SOL    HW181958  -0.014   9.843   5.206  1.0204  0.3775  1.3196
26730SOL    HW281959   0.085   9.736   5.165 -0.1291  0.0992 -0.8783
26731SOL     OW81960   5.917   6.832   8.916  0.0473  0.6060  0.2051
26731SOL    HW181961   5.949   6.768   8.980  1.8250 -0.4447 -1.6326
26731SOL    HW281962   5.977   6.906   8.924  0.8933  0.0635 -0.8710
26732SOL     OW81963   8.457   2.088   5.604  0.3276  0.1742  0.4564
26732SOL    HW181964   8.425   2.014   5.655 -1.6894 -0.6351 -1.7757
26732SOL    HW281965   8.486   2.152   5.669  0.3519 -1.7968  2.4931
26733SOL     OW81966   3.033   0.320   6.595  0.1204 -0.2378 -0.4566
26733SOL    HW181967   2.939   0.307   6.587  0.2549 -0.9626 -1.0497
26733SOL    HW281968   3.043   0.412   6.619 -0.7111  0.0298 -1.0559
26734SOL     OW81969   3.760   3.283   9.002 -0.2839  0.1914  0.0856
26734SOL    HW181970   3.671   3.252   9.019 -1.0248  1.8057 -0.6009
26734SOL    HW281971   3.798   3.217   8.944 -0.0246 -1.9258  2.5312
26735SOL     OW81972   4.118   2.026   3.160 -0.0381  0.3951  0.5582
26735SOL    HW181973   4.201   2.006   3.204 -0.6157  0.0632  1.5322
26735SOL    HW281974   4.072   2.085   3.219 -1.4876 -1.2525  1.1954
26736SOL     OW81975   1.720   0.837   2.656 -0.0332  0.0861 -0.4935
26736SOL    HW181976   1.674   0.775   2.600  1.4174 -0.9913 -0.5624
26736SOL    HW281977   1.788   0.875   2.599  0.6122 -0.0504  0.1654
26737SOL     OW81978   8.236   4.914   7.059 -0.0516 -0.5216  0.1879
26737SOL    HW181979   8.187   4.869   7.128 -0.0122 -0.7586  0.0627
26737SOL    HW281980   8.180   4.988   7.034 -0.4226 -0.8908 -0.0751
26738SOL     OW81981   8.630   0.762   2.195 -0.1404  0.8176 -0.4838
26738SOL    HW181982   8.680   0.691   2.234 -0.8171  1.4243  1.6461
26738SOL    HW281983   8.684   0.840   2.210 -0.1118  0.9713 -1.3811
26739SOL     OW81984   4.621   6.387   1.653  0.2439  0.0012 -0.3175
26739SOL    HW181985   4.615   6.330   1.577 -1.8806  1.2307 -1.1616
26739SOL    HW281986   4.562   6.348   1.717 -0.1317  0.4817 -0.3676
26740SOL     OW81987   0.610   7.725   8.928  0.0914  0.0378 -0.3984
26740SOL    HW181988   0.666   7.649   8.937  1.5087  0.9899 -0.8282
26740SOL    HW281989   0.670   7.800   8.924 -1.2754  1.3245  1.1917
26741SOL     OW81990   1.629   0.282   5.790 -0.5412 -0.1957  0.2221
26741SOL    HW181991   1.590   0.286   5.703  0.7032  0.2496 -0.3307
26741SOL    HW281992   1.723   0.277   5.774 -0.2007  1.3399  1.5509
26742SOL     OW81993   0.366   7.854   8.459 -0.0361  0.0818 -0.3433
26742SOL    HW181994   0.426   7.850   8.534 -1.0123 -1.8463  0.4151
26742SOL    HW281995   0.322   7.938   8.468 -0.3077 -0.2016  1.4471
26743SOL     OW81996   8.093   6.798   9.148  0.3941 -0.2333 -0.3919
26743SOL    HW181997   8.091   6.703   9.156 -0.8852 -0.4456 -2.3809
26743SOL    HW281998   8.152   6.815   9.075  0.8432  0.5401  0.1359
26744SOL     OW81999   8.154   7.056   4.101  0.0524  0.0235 -0.0714
26744SOL    HW182000   8.188   7.000   4.171  2.6190  0.2759 -1.0418
26744SOL    HW282001   8.176   7.145   4.128  0.3877  0.1802 -0.8457
26745SOL     OW82002   8.056   5.257   8.462 -0.7338 -0.2744 -0.6992
26745SOL    HW182003   7.966   5.255   8.493 -0.8211  1.2157 -0.7705
26745SOL    HW282004   8.081   5.349   8.469  0.8229 -0.6801 -0.5747
26746SOL     OW82005   4.255   2.675   7.350 -0.1137 -0.2650 -0.2639
26746SOL    HW182006   4.161   2.660   7.363 -0.5843  1.1667 -1.7563
26746SOL    HW282007   4.267   2.674   7.255  0.8325  2.4116 -0.2516
26747SOL     OW82008   9.280   2.946   7.684  0.1016  0.5849  0.2149
26747SOL    HW182009   9.188   2.967   7.699 -0.4800  0.4075 -2.5662
26747SOL    HW282010   9.325   3.030   7.681 -0.3184  0.8001 -0.1924
26748SOL     OW82011   5.089   5.755   2.733 -0.1922 -0.4339 -0.5740
26748SOL    HW182012   5.079   5.795   2.647  2.4259  1.3976 -0.1487
26748SOL    HW282013   5.174   5.711   2.730  0.0912 -0.0798  1.1525
26749SOL     OW82014   4.464   5.843   9.741 -0.6704  0.1444  0.1188
26749SOL    HW182015   4.406   5.907   9.780  0.8814  1.1333  0.8934
26749SOL    HW282016   4.533   5.895   9.700  0.0460 -0.9977 -0.1692
26750SOL     OW82017   3.505   2.550   1.627 -0.0108  0.6225 -0.2028
26750SOL    HW182018   3.437   2.598   1.674 -1.7583 -0.0083 -1.9541
26750SOL    HW282019   3.460   2.511   1.552  2.0581 -0.7949 -0.8124
26751SOL     OW82020   6.543   2.236   3.578  0.2387 -0.2205 -0.0120
26751SOL    HW182021   6.501   2.230   3.664 -1.0977  0.7815 -0.5496
26751SOL    HW282022   6.511   2.318   3.541 -2.5324 -2.4025 -3.1152
26752SOL     OW82023   4.072   2.417   1.412 -0.2385  0.1875  0.1756
26752SOL    HW182024   4.136   2.365   1.462 -1.6354  0.0527  1.9307
26752SOL    HW282025   4.059   2.367   1.331  0.3159 -0.8906  0.7220
26753SOL     OW82026   0.258   7.260   3.581 -0.6619  0.5275  0.3549
26753SOL    HW182027   0.347   7.293   3.567  0.1634 -1.8710 -0.6052
26753SOL    HW282028   0.205   7.308   3.518 -0.0199  1.8334  0.7800
26754SOL     OW82029   2.088   5.523   3.367 -0.8078  0.7060  0.0569
26754SOL    HW182030   2.076   5.533   3.461 -1.4197  0.7426 -0.0205
26754SOL    HW282031   2.145   5.446   3.358 -1.0238  0.4973  0.4447
26755SOL     OW82032   2.963   1.306   1.514 -0.2161 -0.2229  0.2175
26755SOL    HW182033   2.895   1.258   1.468 -0.2288  1.3111 -1.4638
26755SOL    HW282034   2.921   1.335   1.595 -1.6259  0.7736 -0.8224
26756SOL     OW82035   9.635   1.951   2.436  0.2611  0.5088 -0.1823
26756SOL    HW182036   9.673   1.871   2.472 -0.2159 -0.2092 -1.2167
26756SOL    HW282037   9.642   1.940   2.341 -2.7925  0.1718 -0.4614
26757SOL     OW82038   6.789   7.452   6.400  0.5548 -0.7694 -0.1487
26757SOL    HW182039   6.729   7.378   6.411  1.1565 -1.2053  0.3472
26757SOL    HW282040   6.807   7.455   6.306 -0.0292 -0.8053 -0.2623
26758SOL     OW82041   9.849   9.839   3.979 -0.0382  0.4098  0.4614
26758SOL    HW182042   9.894   9.849   4.063  1.8662 -0.7533 -0.3390
26758SOL    HW282043   9.850   9.745   3.963  0.5373  0.6849 -1.3184
26759SOL     OW82044   3.298   9.109   6.134 -0.2681  0.1579 -0.2159
26759SOL    HW182045   3.335   9.177   6.079  0.6166  1.4320  1.8526
26759SOL    HW282046   3.372   9.075   6.185 -1.0888 -0.7377  0.4365
26760SOL     OW82047   3.252   9.651   7.335 -0.0303  0.2620  0.8246
26760SOL    HW182048   3.324   9.613   7.386 -0.2268 -0.3267  0.6700
26760SOL    HW282049   3.216   9.718   7.392  1.3386  1.3483  0.4851
26761SOL     OW82050   4.586   2.808   6.283  0.6296  0.1250 -0.1388
26761SOL    HW182051   4.495   2.795   6.309  1.1900 -0.7957  1.4748
26761SOL    HW282052   4.581   2.872   6.211 -1.1583  1.5039  1.1049
26762SOL     OW82053   2.914   4.933   1.762 -0.4538 -0.1930  0.0512
26762SOL    HW182054   2.865   5.012   1.781 -0.2955 -0.1790  0.4116
26762SOL    HW282055   2.849   4.863   1.765 -0.4560 -0.1745  0.5203
26763SOL     OW82056   2.395   1.570   2.286  0.2793  0.5065 -0.7094
26763SOL    HW182057   2.349   1.547   2.205  2.5695 -3.0527 -1.2434
26763SOL    HW282058   2.478   1.607   2.256  0.5553  0.5058  0.0520
26764SOL     OW82059   9.658   3.877   0.821  0.3521 -0.2666  0.0629
26764SOL    HW182060   9.724   3.946   0.826  1.7635 -1.5802  0.1941
26764SOL    HW282061   9.655   3.840   0.910 -0.5588 -0.2383  0.0544
26765SOL     OW82062   6.335   9.709   5.908 -0.4207  0.4825 -1.0230
26765SOL    HW182063   6.375   9.762   5.839  0.0613  0.4836 -0.7524
26765SOL    HW282064   6.410   9.676   5.958 -0.7360 -0.1057 -0.9333
26766SOL     OW82065   9.387   8.760   6.790  0.6165 -0.9652  0.3873
26766SOL    HW182066   9.387   8.725   6.700 -0.1341 -1.6695  0.6404
26766SOL    HW282067   9.410   8.685   6.845  1.5823 -0.4150  0.7587
26767SOL     OW82068   0.525   2.295   5.694  0.4295 -0.1530 -0.1140
26767SOL    HW182069   0.569   2.227   5.744  1.1730  0.2198 -0.2404
26767SOL    HW282070   0.561   2.377   5.728  0.8835  0.1104 -1.1779
26768SOL     OW82071   3.818   8.368   4.536  0.2930 -0.0521  0.0756
26768SOL    HW182072   3.742   8.323   4.572  1.6587 -0.3094  2.9991
26768SOL    HW282073   3.792   8.460   4.531 -0.5848 -0.3072 -0.1544
26769SOL     OW82074   2.219   3.614   0.743 -0.3255  0.0730  0.1033
26769SOL    HW182075   2.288   3.585   0.804 -0.8829  1.3911  1.4135
26769SOL    HW282076   2.252   3.696   0.707  0.8339 -1.5397 -2.9022
26770SOL     OW82077   8.966   1.589   7.058  0.3248 -0.0598  0.2307
26770SOL    HW182078   8.987   1.623   7.145 -0.7040  0.8493  0.1529
26770SOL    HW282079   8.950   1.667   7.005 -0.2322 -0.6255 -0.4642
26771SOL     OW82080   1.297   0.692   8.352  0.0643  0.0623 -0.0924
26771SOL    HW182081   1.339   0.607   8.363 -0.2525 -0.1247 -0.3344
26771SOL    HW282082   1.351   0.738   8.288 -0.6492 -0.5456 -1.1468
26772SOL     OW82083   1.345   8.978   9.460 -0.8180 -0.0841  0.1309
26772SOL    HW182084   1.411   8.937   9.516  0.8091  0.5673 -1.2275
26772SOL    HW282085   1.287   8.906   9.433  0.7955 -1.1479 -0.6067
26773SOL     OW82086   7.864   8.119   1.248 -0.0083  0.4348  0.4094
26773SOL    HW182087   7.844   8.108   1.341 -0.5834  0.3989  0.2827
26773SOL    HW282088   7.805   8.189   1.218 -2.4545 -1.9360 -0.7483
26774SOL     OW82089   3.607   8.219   4.666 -0.6194 -0.0893 -0.8491
26774SOL    HW182090   3.545   8.249   4.733  0.8720 -1.5531  1.3106
26774SOL    HW282091   3.564   8.143   4.626 -0.7695 -0.3276 -0.2452
26775SOL     OW82092   1.317   5.961   0.545  0.2052  0.4955  0.2678
26775SOL    HW182093   1.303   5.923   0.632  1.3018 -0.1483  0.1826
26775SOL    HW282094   1.377   6.033   0.560 -0.2178  0.8827  0.1351
26776SOL     OW82095   9.757   9.512   1.750 -0.1473  0.4437 -0.0306
26776SOL    HW182096   9.812   9.578   1.792 -0.9297  1.0622  0.0422
26776SOL    HW282097   9.798   9.497   1.665  1.0204 -0.2616  0.6223
26777SOL     OW82098   8.771   1.615   2.852  0.4602 -0.1168 -0.3542
26777SOL    HW182099   8.838   1.573   2.799  1.5583  0.5036  0.4856
26777SOL    HW282100   8.812   1.625   2.938  0.4054  2.9587 -0.5810
26778SOL     OW82101   5.908   9.382   1.711  0.2566 -0.3545 -0.5546
26778SOL    HW182102   5.868   9.298   1.734  0.2500 -0.5940 -1.4190
26778SOL    HW282103   5.971   9.360   1.642  0.0632  0.3882 -0.9770
26779SOL     OW82104   9.299   5.312   3.202  0.1997 -0.0868 -0.0299
26779SOL    HW182105   9.290   5.385   3.264  0.1648  0.0784 -0.2294
26779SOL    HW282106   9.246   5.338   3.127  0.1921 -0.3165 -0.1033
26780SOL     OW82107   0.312   8.718   5.161  0.0649 -0.0675  0.1201
26780SOL    HW182108   0.373   8.738   5.090  0.1439 -0.0182  0.2026
26780SOL    HW282109   0.315   8.623   5.169  0.4453 -0.0324  0.4050
26781SOL     OW82110   7.968   8.296   9.551  0.1462 -0.5868  0.3345
26781SOL    HW182111   7.981   8.347   9.631  1.2751 -1.0929  0.4936
26781SOL    HW282112   8.054   8.294   9.511 -0.3118 -0.7651 -0.6497
26782SOL     OW82113   6.021   5.831   3.179  0.4807  0.2447 -0.6621
26782SOL    HW182114   5.929   5.843   3.153  0.0139 -0.9231  0.3912
26782SOL    HW282115   6.031   5.737   3.188  1.4444  0.4436  0.4855
26783SOL     OW82116   5.821   8.351   8.731 -0.1027 -0.5367  0.1067
26783SOL    HW182117   5.771   8.422   8.690 -0.9750 -1.2224 -0.0591
26783SOL    HW282118   5.755   8.300   8.778  0.5917 -0.9385  0.6520
26784SOL     OW82119   4.211   3.206   6.527  0.3267 -0.0735  0.1884
26784SOL    HW182120   4.129   3.254   6.540  0.6506  0.4400  0.3512
26784SOL    HW282121   4.233   3.221   6.435 -0.5487 -1.4779 -0.2922
26785SOL     OW82122   3.264   6.134   1.287  0.3207  0.3346 -0.1629
26785SOL    HW182123   3.293   6.074   1.218 -0.0636  1.1908 -1.0945
26785SOL    HW282124   3.243   6.078   1.361  1.6860 -0.5283 -0.4051
26786SOL     OW82125   6.834   4.443   8.415 -0.2415 -0.3508 -0.1395
26786SOL    HW182126   6.739   4.435   8.430 -0.3028  0.1817 -0.2407
26786SOL    HW282127   6.848   4.536   8.401  0.1585 -0.5478 -1.0865
26787SOL     OW82128   3.578   7.086   0.861  0.2405 -0.5304 -0.6512
26787SOL    HW182129   3.583   7.094   0.956  1.0118 -1.0670 -0.6416
26787SOL    HW282130   3.516   7.015   0.846 -0.1125 -0.2444 -0.5608
26788SOL     OW82131   1.771   9.155   5.608 -0.2524 -0.4022 -0.4115
26788SOL    HW182132   1.829   9.205   5.666 -1.5624  0.2939  0.3378
26788SOL    HW282133   1.783   9.064   5.635  0.3634 -0.2528 -0.1593
26789SOL     OW82134   9.337   4.769   1.442 -0.2884  0.1759 -0.1839
26789SOL    HW182135   9.273   4.826   1.399 -0.5122  0.6492  0.7633
26789SOL    HW282136   9.289   4.688   1.459 -0.3582  0.1885 -0.3112
26790SOL     OW82137   1.564   2.369   4.468  0.1132 -0.2547  0.0378
26790SOL    HW182138   1.609   2.373   4.552  0.1924  0.6701 -0.0456
26790SOL    HW282139   1.492   2.432   4.475  1.1259  1.1075 -1.1621
26791SOL     OW82140   5.455   1.644   8.549  0.7089  0.1925  0.1261
26791SOL    HW182141   5.447   1.596   8.467 -1.0564 -2.0571  1.4798
26791SOL    HW282142   5.396   1.719   8.539  1.2781  0.5070 -0.9934
26792SOL     OW82143   7.702   2.316   6.235 -0.2210  0.0393  0.4467
26792SOL    HW182144   7.678   2.241   6.290  2.0933 -0.3248  1.0654
26792SOL    HW282145   7.753   2.373   6.293 -0.5863  1.3218 -0.4531
26793SOL     OW82146   6.610   2.974   4.371  0.4090 -0.0109  0.2861
26793SOL    HW182147   6.630   3.066   4.389  0.0075  0.5232 -1.7170
26793SOL    HW282148   6.555   2.947   4.444 -0.3495  1.6706  0.3889
26794SOL     OW82149   6.773   8.389   7.384 -0.0808  0.0202 -0.0530
26794SOL    HW182150   6.780   8.296   7.403 -0.6162 -0.0157 -0.0153
26794SOL    HW282151   6.789   8.396   7.290 -2.0886 -0.3735 -0.4721
26795SOL     OW82152   0.037   2.899   6.976  0.0947 -0.4517  0.0543
26795SOL    HW182153   0.000   2.812   6.985 -2.0993  0.5760  2.2845
26795SOL    HW282154  -0.015   2.940   6.907  0.0332 -0.4014  0.1301
26796SOL     OW82155   5.895   2.943   9.844 -0.1785 -1.1307 -0.3274
26796SOL    HW182156   5.819   2.986   9.804 -0.3464 -1.7637 -0.7113
26796SOL    HW282157   5.872   2.935   9.936 -0.2142 -0.5522 -0.2819
26797SOL     OW82158   3.989   2.909   7.362 -1.1720 -0.8013 -0.0348
26797SOL    HW182159   3.959   2.999   7.354  0.8504 -0.0652  0.0311
26797SOL    HW282160   3.979   2.889   7.455  1.0082  0.4249  0.5362
26798SOL     OW82161   6.575   8.019   5.174 -0.0320  0.0486 -0.3010
26798SOL    HW182162   6.580   7.924   5.181  2.3794  0.1286 -0.3272
26798SOL    HW282163   6.640   8.051   5.236 -0.3043  1.6826 -0.8074
26799SOL     OW82164   9.844   1.532   8.494 -0.3895 -0.1704  0.1756
26799SOL    HW182165   9.795   1.457   8.526 -0.1903 -0.6807 -0.6879
26799SOL    HW282166   9.922   1.494   8.453 -0.0169  0.5412  0.2053
26800SOL     OW82167   6.174   6.906   7.467 -0.1539 -0.2854 -0.0503
26800SOL    HW182168   6.204   6.993   7.493 -0.7147  0.1399 -0.7811
26800SOL    HW282169   6.079   6.915   7.459 -0.4134 -1.3553  1.2983
26801SOL     OW82170   7.429   4.000   8.690  0.9575  0.4842  0.1819
26801SOL    HW182171   7.349   3.948   8.697  0.1200  1.8744  1.4097
26801SOL    HW282172   7.465   4.000   8.778  2.1311  0.1985 -0.2812
26802SOL     OW82173   6.168   4.309   0.676  0.0019 -0.1416 -0.5815
26802SOL    HW182174   6.215   4.391   0.668 -0.6492  0.4654  1.2771
26802SOL    HW282175   6.109   4.308   0.600  0.2486  0.9440 -0.8073
26803SOL     OW82176   2.333   0.480   8.660 -0.5379 -0.1057 -0.3444
26803SOL    HW182177   2.403   0.484   8.725 -0.5980 -0.5976 -0.2428
26803SOL    HW282178   2.373   0.436   8.585  0.0517  1.9769 -1.3270
26804SOL     OW82179   5.016   1.322   2.410 -0.1659 -0.2798  0.0052
26804SOL    HW182180   4.958   1.372   2.467 -0.7978 -0.5325 -0.4093
26804SOL    HW282181   4.958   1.282   2.345  0.3906 -1.0668 -0.0267
26805SOL     OW82182   6.400   1.686   7.051  0.2990 -0.0134  0.2700
26805SOL    HW182183   6.316   1.641   7.056  0.1823  0.2938  1.0660
26805SOL    HW282184   6.454   1.628   6.997 -1.0591  0.8062 -2.1550
26806SOL     OW82185   6.879   4.455   7.460 -0.0323  0.1256  0.4686
26806SOL    HW182186   6.909   4.368   7.486  0.8738  0.6398  1.2115
26806SOL    HW282187   6.951   4.513   7.483  0.6013  0.7455 -2.7072
26807SOL     OW82188   6.507   9.774   7.450 -0.3333  0.0486 -0.6069
26807SOL    HW182189   6.603   9.772   7.454 -0.3438 -1.1532 -0.3722
26807SOL    HW282190   6.480   9.776   7.542 -0.5416  1.0275 -0.6805
26808SOL     OW82191   6.883   9.724   6.055  0.2572 -0.2412 -0.0485
26808SOL    HW182192   6.820   9.778   6.009  1.6350 -0.0893 -1.8665
26808SOL    HW282193   6.906   9.774   6.133 -1.2510  0.0374  0.2482
26809SOL     OW82194   4.747   4.982   4.226  0.0897 -0.1222  0.8515
26809SOL    HW182195   4.761   4.972   4.132  1.6557 -0.4067  1.0974
26809SOL    HW282196   4.781   5.069   4.247  1.6450 -0.8478  1.4745
26810SOL     OW82197   0.612   4.717   3.637 -0.2559  0.8830 -0.3040
26810SOL    HW182198   0.633   4.788   3.575 -2.3552  1.1995 -0.7228
26810SOL    HW282199   0.538   4.671   3.597  1.0117 -1.5733 -0.0104
26811SOL     OW82200   7.023   1.474   2.413 -0.5437 -0.4438  0.1451
26811SOL    HW182201   7.092   1.540   2.409 -0.2250 -0.7848 -0.1637
26811SOL    HW282202   7.042   1.424   2.492 -0.4123 -0.5624  0.0388
26812SOL     OW82203   1.694   7.120   2.376  0.4107 -0.1974 -0.4679
26812SOL    HW182204   1.716   7.027   2.381  2.4801  0.3072  1.2859
26812SOL    HW282205   1.726   7.147   2.290 -0.5993 -1.1532 -1.1748
26813SOL     OW82206   7.933   0.956   8.472  0.3494 -0.3669  0.1516
26813SOL    HW182207   7.852   0.909   8.488 -1.4181  2.5514  0.5789
26813SOL    HW282208   7.909   1.049   8.479  3.4204  0.6768 -1.1872
26814SOL     OW82209   3.987   0.074   1.110  0.4062  0.6792 -0.0534
26814SOL    HW182210   3.987   0.169   1.125  0.2636  0.5699  0.7023
26814SOL    HW282211   4.072   0.056   1.070  0.6738  1.0543  0.3316
26815SOL     OW82212   8.596   2.970   1.989 -0.4272 -0.0070  0.0976
26815SOL    HW182213   8.516   3.023   1.997 -0.9129 -0.5161 -1.0497
26815SOL    HW282214   8.648   2.993   2.065 -1.6859  0.3301  0.8895
26816SOL     OW82215   0.044   8.771   2.787 -0.4050  0.1387  0.0228
26816SOL    HW182216   0.092   8.768   2.704  1.7247  0.3174  1.1763
26816SOL    HW282217   0.023   8.864   2.799  1.7238  0.5698  0.9230
26817SOL     OW82218   9.779   0.288   7.219 -0.1131  0.3711  0.5852
26817SOL    HW182219   9.779   0.263   7.312 -0.0735  0.4681  0.6118
26817SOL    HW282220   9.751   0.379   7.219  0.0350  0.4173  0.5145
26818SOL     OW82221   8.891   0.199   6.294 -0.2523 -0.0254 -0.6168
26818SOL    HW182222   8.843   0.135   6.346  1.3050 -0.3345  0.5224
26818SOL    HW282223   8.824   0.243   6.242 -1.4548 -2.1014 -0.9360
26819SOL     OW82224   1.351   4.029   8.301 -0.4689 -0.3994  0.7747
26819SOL    HW182225   1.354   3.934   8.286 -0.3701 -0.5945  1.9166
26819SOL    HW282226   1.261   4.045   8.332  0.5367 -0.7718  4.3083
26820SOL     OW82227   5.635   2.949   2.863  0.1231  0.2548  0.4395
26820SOL    HW182228   5.627   2.903   2.779  1.3574  0.0559  0.4099
26820SOL    HW282229   5.557   2.925   2.912 -0.6956  0.4953 -0.7070
26821SOL     OW82230   9.796   8.407   0.450 -0.2824 -0.4297 -0.0892
26821SOL    HW182231   9.743   8.472   0.496  2.5415  0.9251  1.4931
26821SOL    HW282232   9.784   8.326   0.500  1.7200  0.7058  2.4762
26822SOL     OW82233   5.736   7.873   1.068  0.5502  0.4159  0.0426
26822SOL    HW182234   5.783   7.945   1.026 -0.8872  2.2657  1.4302
26822SOL    HW282235   5.764   7.876   1.159  0.7025 -1.0074  0.0562
26823SOL     OW82236   6.523   8.579   4.181 -0.5407 -0.0036  0.7541
26823SOL    HW182237   6.457   8.514   4.157  0.6449 -0.5104 -1.3750
26823SOL    HW282238   6.543   8.559   4.273 -2.0577 -0.9574  0.9209
26824SOL     OW82239   8.218   9.555   3.585  0.1264 -0.1830 -0.2401
26824SOL    HW182240   8.187   9.565   3.495  1.4147 -1.0407 -0.8167
26824SOL    HW282241   8.191   9.466   3.610  0.1540 -0.1108  0.0551
26825SOL     OW82242   7.279   7.306   5.988 -0.2236  0.3768  0.1781
26825SOL    HW182243   7.209   7.244   5.964  1.1199 -1.0999 -0.0835
26825SOL    HW282244   7.346   7.292   5.921 -0.1713  2.6785 -0.3070
26826SOL     OW82245   8.707   6.808   0.840 -0.1227 -0.6232  0.7579
26826SOL    HW182246   8.689   6.793   0.933  0.8121  0.3884  1.1177
26826SOL    HW282247   8.667   6.893   0.822  1.4760  0.1594  0.7764
26827SOL     OW82248   4.576   9.803   8.420  0.1655 -0.2321  0.6228
26827SOL    HW182249   4.573   9.708   8.423  0.1468 -0.3048 -0.8742
26827SOL    HW282250   4.666   9.825   8.445  0.4045 -0.7002  0.1931
26828SOL     OW82251   7.279   5.713   7.339 -0.1987  0.2038  0.9291
26828SOL    HW182252   7.314   5.628   7.365 -0.2907  0.0710  0.6191
26828SOL    HW282253   7.280   5.711   7.243  0.1186  0.6824  0.9205
26829SOL     OW82254   2.462   0.913   0.894  0.7459  0.3165 -0.6207
26829SOL    HW182255   2.465   0.836   0.949 -0.4879  0.1625 -0.7493
26829SOL    HW282256   2.520   0.976   0.937  0.2131  0.0142  0.5580
26830SOL     OW82257   0.223   5.393   8.477  0.5917 -0.2741  1.3636
26830SOL    HW182258   0.226   5.440   8.394  0.5019  0.5697  1.8279
26830SOL    HW282259   0.223   5.301   8.452  1.4441 -0.0482  0.4576
26831SOL     OW82260   1.321   3.078   5.123  0.1127 -0.2925 -0.0883
26831SOL    HW182261   1.415   3.095   5.110  0.1936 -0.6642 -0.0053
26831SOL    HW282262   1.315   2.983   5.131 -0.4545 -0.3830 -1.4522
26832SOL     OW82263   5.462   0.490   5.825  0.1081  0.1553 -0.0530
26832SOL    HW182264   5.413   0.565   5.790 -0.8854 -0.7886 -0.7516
26832SOL    HW282265   5.515   0.460   5.752  0.5310  0.1914  0.2361
26833SOL     OW82266   7.584   5.411   9.542  0.1094  0.1016 -0.0971
26833SOL    HW182267   7.653   5.346   9.532  0.3015  0.2715  0.0995
26833SOL    HW282268   7.599   5.448   9.629 -0.6185 -0.3090  0.2127
26834SOL     OW82269   8.312   9.603   7.493  0.4077  0.3037  0.0699
26834SOL    HW182270   8.367   9.533   7.458 -0.7304 -1.2493  1.2273
26834SOL    HW282271   8.370   9.679   7.499  1.8775 -0.7272 -0.5569
26835SOL     OW82272   0.499   0.908   1.598 -0.0665  0.1591 -0.2197
26835SOL    HW182273   0.495   0.916   1.503  1.7197  0.5526 -0.2954
26835SOL    HW282274   0.536   0.821   1.613  1.6411  0.8899  0.0269
26836SOL     OW82275   1.535   0.804   9.089 -0.2049 -0.5129  0.7347
26836SOL    HW182276   1.505   0.893   9.107 -1.6709 -0.4846 -1.4313
26836SOL    HW282277   1.561   0.806   8.997  0.0579 -2.2493  0.7413
26837SOL     OW82278   6.982   6.387   4.509  0.3162  0.7414  0.5586
26837SOL    HW182279   7.075   6.365   4.517  0.5299  1.8117  1.3928
26837SOL    HW282280   6.941   6.344   4.584  0.0526 -0.1151 -0.0716
26838SOL     OW82281   0.127   8.771   6.199 -0.3028 -0.1697 -0.2910
26838SOL    HW182282   0.185   8.697   6.183  0.7659  0.5491  0.1038
26838SOL    HW282283   0.099   8.799   6.112  1.2314  0.4516 -0.6092
26839SOL     OW82284   5.828   4.847   6.545  0.6337 -0.8878 -0.0340
26839SOL    HW182285   5.845   4.847   6.639 -0.6549  0.2665  0.2336
26839SOL    HW282286   5.794   4.759   6.527 -0.8639 -0.5551  0.9688
26840SOL     OW82287   2.274   8.717   4.995 -0.2834 -0.1116 -1.0246
26840SOL    HW182288   2.299   8.656   5.065 -0.2193  1.2316  0.1640
26840SOL    HW282289   2.220   8.664   4.936  4.0090 -2.8380 -3.0166
26841SOL     OW82290   4.357   3.540   3.122 -0.0619  0.0914 -0.3657
26841SOL    HW182291   4.281   3.482   3.112  0.3980 -0.9975  1.7859
26841SOL    HW282292   4.319   3.628   3.129 -1.2923 -0.5154  1.6180
26842SOL     OW82293   3.306   4.825   9.802 -0.2905 -0.0185  0.0420
26842SOL    HW182294   3.264   4.902   9.763  0.1778 -0.7814 -2.1359
26842SOL    HW282295   3.398   4.852   9.814 -0.1309 -0.1985 -0.7008
26843SOL     OW82296   2.223   1.825   1.814 -0.0407  0.2059  0.0676
26843SOL    HW182297   2.292   1.890   1.799 -0.7464  0.6840 -1.1685
26843SOL    HW282298   2.227   1.768   1.737 -0.4698 -0.2789  0.4022
26844SOL     OW82299   4.115   0.491   6.484 -0.0825 -0.2521  0.5465
26844SOL    HW182300   4.200   0.452   6.503  1.2791  1.4746 -1.5524
26844SOL    HW282301   4.112   0.498   6.388 -2.2369  0.4845  0.6075
26845SOL     OW82302   7.535   8.864   3.691  0.0909  0.2471 -1.0778
26845SOL    HW182303   7.604   8.819   3.642  0.4105  1.5747 -1.8898
26845SOL    HW282304   7.581   8.933   3.739 -0.1797 -1.1795  1.3559
26846SOL     OW82305   7.030   4.602   2.180  0.3804 -0.3664  0.1935
26846SOL    HW182306   7.047   4.554   2.099 -0.2045 -0.1414 -0.0626
26846SOL    HW282307   7.014   4.533   2.245  0.0717 -0.5293 -0.0554
26847SOL     OW82308   3.532   0.565   5.891  0.4825 -0.3015  0.2799
26847SOL    HW182309   3.606   0.621   5.869  1.2011 -1.1026  0.5848
26847SOL    HW282310   3.519   0.510   5.813 -0.0369  0.0767  0.0892
26848SOL     OW82311   5.717   8.914   9.211 -0.3319 -0.4670 -0.5037
26848SOL    HW182312   5.801   8.877   9.240 -0.4990  0.8165  1.8392
26848SOL    HW282313   5.663   8.916   9.290 -1.6527  1.1587 -1.3877
26849SOL     OW82314   9.763   5.163   6.871 -0.4881 -0.5715  0.7950
26849SOL    HW182315   9.848   5.172   6.827 -0.5342  1.0247  0.9441
26849SOL    HW282316   9.699   5.162   6.800 -0.4850  0.8704  0.7268
26850SOL     OW82317   8.765   6.745   2.418  0.0094 -0.2900  0.0539
26850SOL    HW182318   8.792   6.656   2.395 -2.7271 -1.0048 -0.7403
26850SOL    HW282319   8.754   6.743   2.513  1.2422 -0.3631  0.2144
26851SOL     OW82320   1.100   2.435   2.545  0.0144  0.7127  0.2983
26851SOL    HW182321   1.034   2.497   2.576 -2.0016 -1.3970  0.5032
26851SOL    HW282322   1.058   2.390   2.472  1.2063 -0.7374  0.4581
26852SOL     OW82323   4.174   7.895   4.551 -0.5553 -0.0830 -0.4053
26852SOL    HW182324   4.188   7.807   4.515 -1.6950  0.0449 -1.2095
26852SOL    HW282325   4.117   7.881   4.626  0.7242 -0.2015  0.5788
26853SOL     OW82326   2.098   0.278   6.396  0.4333 -0.0324  0.3883
26853SOL    HW182327   2.117   0.298   6.304 -0.4552  3.1174  0.7401
26853SOL    HW282328   2.015   0.230   6.393  1.6708 -2.2596 -0.4911
26854SOL     OW82329   8.959   8.623   1.528  0.3878  0.8003  0.4847
26854SOL    HW182330   9.007   8.645   1.448 -2.4424 -0.1399 -1.5965
26854SOL    HW282331   8.875   8.668   1.519 -1.9202 -3.0725  0.5001
26855SOL     OW82332   0.422   1.518   7.880  0.1380  0.1873 -0.8327
26855SOL    HW182333   0.418   1.422   7.884  1.5926  0.1342  1.2181
26855SOL    HW282334   0.339   1.546   7.919  0.7912 -0.3369  1.0945
26856SOL     OW82335   6.167   0.194   0.106 -0.5571  0.3445  0.4834
26856SOL    HW182336   6.110   0.271   0.111  0.2955  0.9185  2.1292
26856SOL    HW282337   6.220   0.209   0.027  0.2873  2.0089  1.2934
26857SOL     OW82338   0.676   6.984   5.367  0.1494 -0.5523 -0.3773
26857SOL    HW182339   0.753   7.041   5.367 -0.6894  0.6244 -0.5701
26857SOL    HW282340   0.687   6.928   5.444 -0.0864  1.4221  1.1652
26858SOL     OW82341   2.665   1.126   4.126  0.1809 -0.0627 -0.2758
26858SOL    HW182342   2.604   1.099   4.195 -1.8815  0.9569 -1.6082
26858SOL    HW282343   2.700   1.210   4.155 -2.8112  1.7781 -1.5904
26859SOL     OW82344   9.304   6.915   8.785  0.1426  0.0338  0.0726
26859SOL    HW182345   9.212   6.893   8.799 -0.1129  0.9797 -0.1080
26859SOL    HW282346   9.343   6.911   8.872  0.4385 -2.4937 -0.0834
26860SOL     OW82347   2.502   2.906   3.060  0.2401 -0.1735 -0.2399
26860SOL    HW182348   2.420   2.916   3.010  1.1452  2.7349 -1.3365
26860SOL    HW282349   2.485   2.833   3.119 -2.4721 -0.8931 -1.7465
26861SOL     OW82350   0.451   7.547   2.211  0.1555  0.4873 -0.0796
26861SOL    HW182351   0.503   7.467   2.203  0.2144  0.7038 -3.0385
26861SOL    HW282352   0.504   7.605   2.265  1.8264 -0.2011 -0.9180
26862SOL     OW82353   6.861   7.675   6.560  0.5049 -0.3371 -0.6323
26862SOL    HW182354   6.853   7.602   6.499 -0.1653 -1.8689  1.1614
26862SOL    HW282355   6.855   7.753   6.506  1.5078 -1.5787 -2.6770
26863SOL     OW82356   8.770   1.325   0.468  0.6156 -0.2057  0.2486
26863SOL    HW182357   8.744   1.293   0.382 -1.0892 -2.5355  1.5259
26863SOL    HW282358   8.839   1.265   0.497  0.1830 -0.3213  1.0769
26864SOL     OW82359   4.406   6.742   5.321  0.5795 -0.2870 -0.3095
26864SOL    HW182360   4.498   6.758   5.299  1.0378 -0.7772  1.1696
26864SOL    HW282361   4.361   6.748   5.237  1.9720 -0.1548 -1.0886
26865SOL     OW82362   7.003   4.268   2.174 -0.3360  0.0773  0.6226
26865SOL    HW182363   7.034   4.180   2.194 -1.8990 -0.7222 -0.3126
26865SOL    HW282364   7.060   4.299   2.103  0.3665 -0.0571  1.1112
26866SOL     OW82365   6.752   2.058   3.135  0.1030  0.0510  0.7654
26866SOL    HW182366   6.676   2.107   3.105 -1.6745 -2.7762  0.3034
26866SOL    HW282367   6.733   2.036   3.226  1.3720  1.0299  1.3047
26867SOL     OW82368   7.658   7.895   6.248 -0.0434  0.4888  0.4744
26867SOL    HW182369   7.613   7.975   6.275  2.5198  2.5462 -0.9085
26867SOL    HW282370   7.607   7.862   6.174 -1.5149  0.3590  1.4872
26868SOL     OW82371   5.112   2.633   4.469 -0.3623 -0.0012 -0.5616
26868SOL    HW182372   5.190   2.655   4.419  0.1240 -3.1590 -1.3591
26868SOL    HW282373   5.085   2.716   4.509  2.2299  1.5619 -1.8391
26869SOL     OW82374   1.932   8.848   1.116  0.1590  0.1213  0.1536
26869SOL    HW182375   1.887   8.932   1.108 -0.7695 -0.1948  1.5965
26869SOL    HW282376   1.980   8.838   1.034 -1.0483  1.2836 -0.7356
26870SOL     OW82377   2.358   5.247   6.692 -0.3572  0.2447  0.4655
26870SOL    HW182378   2.390   5.254   6.782  0.4196  0.1505  0.2054
26870SOL    HW282379   2.431   5.279   6.639 -0.8813  0.4768 -0.1187
26871SOL     OW82380   7.722   9.812   6.867  0.4322  0.0099  0.4012
26871SOL    HW182381   7.645   9.794   6.920  0.8795  0.8222  1.3485
26871SOL    HW282382   7.796   9.788   6.923  0.8856 -1.6101 -0.8044
26872SOL     OW82383   1.882   4.418   3.279 -0.3504  0.5341 -0.3329
26872SOL    HW182384   1.842   4.463   3.205 -0.0931 -1.8622 -2.0352
26872SOL    HW282385   1.808   4.394   3.335 -0.5865  1.9686  0.0086
26873SOL     OW82386   7.375   6.823   0.602  0.2593 -0.0302 -0.5861
26873SOL    HW182387   7.343   6.734   0.618  0.2238 -0.2426 -1.7732
26873SOL    HW282388   7.400   6.823   0.510  1.7863  0.7276 -0.2123
26874SOL     OW82389   0.677   7.291   2.748 -0.4709 -0.0328 -0.6786
26874SOL    HW182390   0.767   7.301   2.717 -0.1879  1.6205  0.5641
26874SOL    HW282391   0.625   7.343   2.686 -0.1286  1.7447  0.4582
26875SOL     OW82392   8.571   4.140   4.830 -0.4418  0.2813  0.5578
26875SOL    HW182393   8.580   4.230   4.860  1.5195  0.4180 -0.2825
26875SOL    HW282394   8.512   4.145   4.755  0.2036  0.9770  0.0875
26876SOL     OW82395   7.292   3.825   4.535 -0.4934  0.6523 -0.1788
26876SOL    HW182396   7.303   3.730   4.540  0.1760  0.4403 -3.4867
26876SOL    HW282397   7.380   3.859   4.517 -1.0843  1.5842 -1.4975
26877SOL     OW82398   8.519   5.677   6.098  0.0906 -0.2958  0.0511
26877SOL    HW182399   8.569   5.596   6.089  0.8396 -0.1002  1.9945
26877SOL    HW282400   8.459   5.677   6.022  0.7039 -2.1843 -0.4880
26878SOL     OW82401   1.944   2.024   0.536 -0.7182 -0.4086  0.3364
26878SOL    HW182402   2.037   2.022   0.513 -0.7998 -0.2922 -0.0014
26878SOL    HW282403   1.943   2.024   0.632 -0.3717 -0.4944  0.3402
26879SOL     OW82404   4.581   5.411   2.390 -0.6685 -0.0888  0.3996
26879SOL    HW182405   4.606   5.331   2.343 -0.6388  0.4854 -0.6130
26879SOL    HW282406   4.538   5.465   2.323 -1.7688  0.2578  1.3510
26880SOL     OW82407   8.447   8.008   4.541  0.6509 -0.3010 -0.3584
26880SOL    HW182408   8.391   8.044   4.610  1.0923 -0.7135  0.2330
26880SOL    HW282409   8.387   7.961   4.483  0.4602 -1.5159  0.7683
26881SOL     OW82410   2.621   4.642   1.415  0.1250 -0.1844 -0.4512
26881SOL    HW182411   2.677   4.720   1.417  0.9919 -0.7841 -0.5384
26881SOL    HW282412   2.610   4.623   1.321 -2.1479  1.2313 -0.5550
26882SOL     OW82413   8.780   1.308   9.782  0.2608 -0.8272  0.2007
26882SOL    HW182414   8.776   1.404   9.780 -1.5925 -0.8807 -1.2886
26882SOL    HW282415   8.747   1.281   9.697  1.0982 -2.8057  0.4640
26883SOL     OW82416   4.635   9.485   6.379  0.0796  0.1627 -0.1935
26883SOL    HW182417   4.670   9.556   6.432  2.1329 -0.8745 -0.0778
26883SOL    HW282418   4.582   9.433   6.439 -0.5927  1.0039 -0.0455
26884SOL     OW82419   4.908   2.914   6.994 -0.7515  0.2264  0.0384
26884SOL    HW182420   4.930   2.821   6.990  0.8849  0.5604  0.6542
26884SOL    HW282421   4.856   2.923   7.074  0.8558  0.1423  1.1421
26885SOL     OW82422   9.325   4.130   3.519  0.4774  0.3654 -0.1359
26885SOL    HW182423   9.344   4.218   3.551  3.0822  0.0058 -0.4173
26885SOL    HW282424   9.394   4.076   3.558 -0.7105 -1.4579 -0.4385
26886SOL     OW82425   7.294   9.709   6.965 -0.0611  0.3928 -0.0355
26886SOL    HW182426   7.349   9.756   6.902  0.8454 -0.0666  0.3906
26886SOL    HW282427   7.347   9.634   6.992 -1.4154 -0.8117 -0.5945
26887SOL     OW82428   4.615   1.103   9.029  0.3039 -0.1325  0.0762
26887SOL    HW182429   4.551   1.174   9.036  0.5443  0.1368 -0.4605
26887SOL    HW282430   4.672   1.129   8.957  0.5868 -0.7190  0.0875
26888SOL     OW82431   6.840   5.567   3.480 -0.6295  0.1404 -0.5137
26888SOL    HW182432   6.771   5.518   3.434 -0.5554 -2.2051  1.6148
26888SOL    HW282433   6.795   5.607   3.554 -0.0333  0.2625 -0.2151
26889SOL     OW82434   4.170   1.950   6.718 -0.4267 -0.2401 -0.0295
26889SOL    HW182435   4.209   2.024   6.765 -0.4510 -0.4066  0.2551
26889SOL    HW282436   4.187   1.969   6.626  1.0918 -0.7308  0.1266
26890SOL     OW82437   7.978   9.012   9.360 -0.1745  0.7334  0.6466
26890SOL    HW182438   7.887   8.996   9.385  0.4112 -0.9886  1.8414
26890SOL    HW282439   7.991   8.957   9.282 -0.7869  2.8144 -0.9962
26891SOL     OW82440   2.221   1.852   0.901 -0.5335 -0.1186 -0.0983
26891SOL    HW182441   2.314   1.837   0.917 -0.2828 -0.3901 -1.6426
26891SOL    HW282442   2.177   1.821   0.981  0.6333 -0.8118  0.2898
26892SOL     OW82443   3.249   0.371   2.697  0.1520 -0.4255  0.5644
26892SOL    HW182444   3.320   0.380   2.760  0.6948  1.3419 -0.2312
26892SOL    HW282445   3.170   0.362   2.750  0.5186  1.6303  1.5598
26893SOL     OW82446   3.124   4.899   7.233  0.1781 -0.4057  0.4650
26893SOL    HW182447   3.042   4.924   7.277 -2.2306 -2.1195 -2.6282
26893SOL    HW282448   3.138   4.808   7.257  1.2608 -0.1259  0.9719
26894SOL     OW82449   7.192   4.649   2.913 -0.2222 -0.4277 -0.9753
26894SOL    HW182450   7.200   4.611   3.001  0.7408  0.3647 -0.7113
26894SOL    HW282451   7.220   4.579   2.854  0.2432 -0.5807 -0.5769
26895SOL     OW82452   0.031   9.515   4.590  0.3656 -0.3250 -0.4052
26895SOL    HW182453   0.073   9.433   4.615  1.9161  0.6566  0.3572
26895SOL    HW282454   0.019   9.562   4.672  0.0559  0.4663 -0.8900
26896SOL     OW82455   5.274   0.390   5.363 -0.3491  0.0224 -0.1875
26896SOL    HW182456   5.291   0.324   5.431  0.2921  1.7346  1.3995
26896SOL    HW282457   5.178   0.398   5.362 -0.3531  0.4373  1.0322
26897SOL     OW82458   1.510   2.082   7.530  0.3407  0.3907  0.6645
26897SOL    HW182459   1.535   2.133   7.607 -0.4155 -0.0903  1.2514
26897SOL    HW282460   1.472   2.002   7.566  2.2559 -0.9960 -0.2307
26898SOL     OW82461   4.927   8.329   8.826  0.5059 -0.7571 -0.4621
26898SOL    HW182462   4.922   8.345   8.731  1.8905 -0.2304 -0.4607
26898SOL    HW282463   4.966   8.408   8.862 -0.8725 -0.5587  0.6997
26899SOL     OW82464   2.521   2.856   6.602  0.0163  0.2847 -0.2802
26899SOL    HW182465   2.554   2.921   6.665 -0.7159  0.4683 -0.0721
26899SOL    HW282466   2.485   2.909   6.531 -1.1145  0.1285  0.1617
26900SOL     OW82467   3.001   5.550   2.411 -0.2609 -0.8711 -0.1125
26900SOL    HW182468   3.021   5.598   2.331 -3.3763  1.8914  0.5630
26900SOL    HW282469   2.941   5.481   2.383 -0.5336 -0.5571 -0.3036
26901SOL     OW82470   4.006   7.126   1.577 -0.2709  0.7296  0.2886
26901SOL    HW182471   4.075   7.071   1.612  0.1423  0.2838 -1.1646
26901SOL    HW282472   3.927   7.098   1.623  0.3379  0.6535  1.3369
26902SOL     OW82473   1.002   4.771   2.104 -0.0902  0.3507 -0.5997
26902SOL    HW182474   1.041   4.698   2.056 -0.4936 -0.4370  0.2363
26902SOL    HW282475   0.963   4.730   2.182 -0.3360  1.4562 -0.1259
26903SOL     OW82476   6.919   8.157   0.671 -0.1651 -0.5426 -0.0587
26903SOL    HW182477   6.869   8.126   0.596  0.1218  1.1875 -1.0190
26903SOL    HW282478   6.992   8.095   0.679 -0.5707 -1.1199 -0.7851
26904SOL     OW82479   9.135   3.287   1.514 -0.1929  0.1968 -0.0636
26904SOL    HW182480   9.217   3.334   1.526  0.2185 -0.1918 -1.1689
26904SOL    HW282481   9.124   3.237   1.595  0.8792 -0.0446 -0.0409
26905SOL     OW82482   2.894   8.911   4.904  0.2637  0.0918  0.7468
26905SOL    HW182483   2.892   9.006   4.905 -0.8339  0.0899  1.8936
26905SOL    HW282484   2.820   8.886   4.848 -1.6191 -0.0356  3.1220
26906SOL     OW82485   8.965   4.000   8.070 -0.0680  0.6772 -0.0609
26906SOL    HW182486   8.890   4.021   8.016  0.0828  0.6314 -0.2893
26906SOL    HW282487   9.001   3.920   8.032  0.8107  1.3536 -0.7058
26907SOL     OW82488   6.113   8.759   1.660  0.3979  0.1976 -0.1312
26907SOL    HW182489   6.191   8.717   1.625 -1.5897 -2.2432 -2.0516
26907SOL    HW282490   6.112   8.734   1.753  1.5161 -0.3373 -0.2482
26908SOL     OW82491   7.790   0.120   2.375  0.5363 -0.4075 -0.8291
26908SOL    HW182492   7.751   0.113   2.462  0.9197 -0.9668 -0.6991
26908SOL    HW282493   7.786   0.214   2.354  2.2093  0.0524  0.6184
26909SOL     OW82494   1.684   7.808   4.609 -0.4476 -0.0697 -0.3051
26909SOL    HW182495   1.624   7.867   4.564 -1.5254 -0.6815  0.2918
26909SOL    HW282496   1.668   7.722   4.569  0.5973 -0.1075 -0.6797
26910SOL     OW82497   0.514   0.032   7.335 -0.1217  0.0139  0.1676
26910SOL    HW182498   0.527   0.027   7.241 -1.1188 -0.6881  0.0508
26910SOL    HW282499   0.542   0.120   7.359 -0.0436  0.2616 -0.8112
26911SOL     OW82500   4.407   8.593   9.588  0.1868 -0.1703  0.5551
26911SOL    HW182501   4.467   8.602   9.514 -1.0797 -0.1946 -0.5163
26911SOL    HW282502   4.372   8.681   9.602  0.8764 -0.0383  1.5521
26912SOL     OW82503   5.892   5.301   2.830  0.2066 -0.1268  0.0348
26912SOL    HW182504   5.880   5.391   2.859  0.8374 -0.1406  0.3653
26912SOL    HW282505   5.831   5.291   2.758 -1.3290 -0.0532  1.2644
26913SOL     OW82506   6.895   2.649   0.941 -0.8969  0.0348  0.2026
26913SOL    HW182507   6.804   2.636   0.912 -0.7497 -2.2731  0.5279
26913SOL    HW282508   6.888   2.657   1.036 -0.7500 -0.5269  0.2647
26914SOL     OW82509   1.440   3.679   5.239 -0.4774  0.1474  0.2394
26914SOL    HW182510   1.423   3.715   5.326  0.1350  2.0731 -0.3940
26914SOL    HW282511   1.353   3.667   5.201 -0.7519 -0.7625  1.0963
26915SOL     OW82512   6.411   5.453   2.066  0.3989  0.1879 -0.2797
26915SOL    HW182513   6.407   5.513   2.141 -0.5816 -0.7256  0.4490
26915SOL    HW282514   6.319   5.443   2.040  0.5815 -0.6870 -0.6142
26916SOL     OW82515   3.827   6.752   8.788  0.1973  0.2836 -0.7427
26916SOL    HW182516   3.901   6.734   8.730 -0.0794  0.3959 -1.1390
26916SOL    HW282517   3.758   6.784   8.729  0.0930  0.9364 -0.2791
26917SOL     OW82518   8.748   6.229   7.423  0.0595 -0.1223  0.0681
26917SOL    HW182519   8.746   6.170   7.498  0.4834 -0.1029  0.0942
26917SOL    HW282520   8.719   6.176   7.350  2.2628 -0.9176 -0.2952
26918SOL     OW82521   7.402   0.828   7.930 -0.0146 -0.5543 -0.1727
26918SOL    HW182522   7.407   0.920   7.958  0.0807  0.1570 -2.3254
26918SOL    HW282523   7.491   0.805   7.908 -0.0866 -1.0953  0.0857
26919SOL     OW82524   2.592   1.077   3.733 -0.0894  0.0924  0.9612
26919SOL    HW182525   2.526   1.008   3.731  0.4045 -0.4060  1.5782
26919SOL    HW282526   2.541   1.158   3.746 -0.9108  0.2202 -2.2815
26920SOL     OW82527   9.500   4.231   0.495 -0.4236 -0.0030 -0.1280
26920SOL    HW182528   9.542   4.166   0.440  0.3880  0.4667 -0.0866
26920SOL    HW282529   9.418   4.190   0.523 -0.2344 -0.7419 -0.6232
26921SOL     OW82530   1.386   8.936   3.327 -0.0745  0.1380  0.5403
26921SOL    HW182531   1.451   8.867   3.314  1.2723  1.5536 -0.5230
26921SOL    HW282532   1.385   8.951   3.421 -0.4937 -1.3958  0.8094
26922SOL     OW82533   6.078   2.085   0.563 -0.6574 -0.3658 -0.0855
26922SOL    HW182534   6.092   2.103   0.470 -3.3446 -1.2786 -0.7574
26922SOL    HW282535   5.983   2.079   0.573 -0.4051 -2.3251  2.3030
26923SOL     OW82536   0.507   0.186   7.704  0.1050  0.2059  0.5006
26923SOL    HW182537   0.445   0.240   7.656 -0.9954 -0.6301  0.9101
26923SOL    HW282538   0.543   0.126   7.638  0.9713  1.0891  0.1418
26924SOL     OW82539   0.251   3.887   5.730 -0.4319  0.7098  0.0127
26924SOL    HW182540   0.229   3.832   5.655  1.3061  0.0529 -0.0638
26924SOL    HW282541   0.341   3.917   5.712 -0.7852  2.3452  0.7892
26925SOL     OW82542   3.515   2.165   9.616  0.0692 -0.1179 -0.1250
26925SOL    HW182543   3.565   2.246   9.609 -0.0978 -0.0045 -0.0186
26925SOL    HW282544   3.426   2.193   9.640 -1.2059  0.0590 -4.2056
26926SOL     OW82545   4.497   1.663   4.180 -0.4332 -0.2584  0.2988
26926SOL    HW182546   4.435   1.716   4.130  0.7540  1.2435  0.3552
26926SOL    HW282547   4.451   1.646   4.263 -1.4242 -0.6261 -0.3103
26927SOL     OW82548   7.372   8.801   2.632 -0.4025 -0.5092  0.6949
26927SOL    HW182549   7.408   8.872   2.684 -0.2196  1.1752 -1.5514
26927SOL    HW282550   7.438   8.784   2.564  0.0620 -3.6607  1.7568
26928SOL     OW82551   4.835   4.601   2.185 -0.1094 -0.0255  0.0441
26928SOL    HW182552   4.898   4.530   2.193 -0.4032 -0.2231  0.6690
26928SOL    HW282553   4.824   4.613   2.091 -1.2924 -1.9275 -0.1119
26929SOL     OW82554   1.077   7.894   9.182  0.4274 -0.1893 -1.1268
26929SOL    HW182555   1.156   7.848   9.213  0.7146  1.3817  0.6401
26929SOL    HW282556   1.039   7.835   9.117  3.0839 -0.9646 -2.0944
26930SOL     OW82557   3.830   9.626   2.049 -0.0430 -0.7549 -0.1914
26930SOL    HW182558   3.742   9.618   2.087 -0.3634 -0.7178 -0.9151
26930SOL    HW282559   3.829   9.568   1.974  0.9267 -1.6056  0.4324
26931SOL     OW82560   2.358   2.387   2.463  0.4556  0.1687  0.0520
26931SOL    HW182561   2.409   2.308   2.478 -0.4717 -0.2527  1.1972
26931SOL    HW282562   2.307   2.368   2.384  1.3188  0.2041 -0.5164
26932SOL     OW82563   2.119   2.407   6.740  0.3755  0.3231  0.2213
26932SOL    HW182564   2.155   2.383   6.825  0.7204  1.2370  0.3473
26932SOL    HW282565   2.024   2.405   6.754  0.4263  0.3994  0.6148
26933SOL     OW82566   1.480   0.363   4.398 -0.0989 -0.3344 -0.0458
26933SOL    HW182567   1.544   0.343   4.467  0.7992  1.0326 -0.4392
26933SOL    HW282568   1.396   0.338   4.436  0.2961  0.9316  1.8269
26934SOL     OW82569   2.837   4.695   4.442  0.0053  0.1099  0.1497
26934SOL    HW182570   2.804   4.769   4.390  2.3802  1.8845  0.9558
26934SOL    HW282571   2.781   4.694   4.519  0.4710  1.7294  0.5622
26935SOL     OW82572   2.675   0.119   3.210  0.2693  0.3402  0.6825
26935SOL    HW182573   2.757   0.074   3.228 -0.0790 -0.1794  1.0145
26935SOL    HW282574   2.609   0.049   3.206  0.0581  0.5909 -1.0177
26936SOL     OW82575   8.049   4.927   9.058  0.0092  0.1576 -0.5613
26936SOL    HW182576   8.142   4.946   9.073  0.6191 -2.7462 -0.2135
26936SOL    HW282577   8.009   5.014   9.047  2.4429  1.6118  0.9878
26937SOL     OW82578   5.389   8.927   7.567 -0.2368  0.3576 -0.0762
26937SOL    HW182579   5.403   8.940   7.473  0.5028  0.3155  0.0268
26937SOL    HW282580   5.294   8.932   7.577 -0.5301 -1.7663 -1.1465
26938SOL     OW82581   9.358   6.141   5.749  0.0034  0.4689 -0.2418
26938SOL    HW182582   9.444   6.159   5.711  0.3521  0.2656  0.4411
26938SOL    HW282583   9.376   6.084   5.823 -0.6388  1.1182  0.4279
26939SOL     OW82584   0.275   2.036   0.650 -0.2439  0.3032  0.0774
26939SOL    HW182585   0.344   2.066   0.708  0.2166  2.1166 -1.3232
26939SOL    HW282586   0.212   2.109   0.647 -1.5885 -0.7914  0.3158
26940SOL     OW82587   3.945   3.086   8.354  0.2433  0.3166  0.4032
26940SOL    HW182588   4.012   3.144   8.317 -0.4559  0.5232 -0.5808
26940SOL    HW282589   3.880   3.077   8.285 -0.0382 -1.0563  0.8075
26941SOL     OW82590   1.432   7.045   9.405  0.6208 -0.2718 -0.2748
26941SOL    HW182591   1.492   7.090   9.464  1.8290 -1.8782 -0.2073
26941SOL    HW282592   1.356   7.024   9.460 -0.4012  2.3830 -0.5318
26942SOL     OW82593   0.521   2.444   0.595 -0.2791  0.5034  0.2187
26942SOL    HW182594   0.596   2.502   0.579 -0.4871  0.7657  0.1762
26942SOL    HW282595   0.447   2.490   0.555 -0.2502 -0.3342 -0.8389
26943SOL     OW82596   1.195   9.138   8.648  0.6463 -0.0568  0.2001
26943SOL    HW182597   1.218   9.066   8.706  0.6477  0.0877  0.3820
26943SOL    HW282598   1.276   9.187   8.637  1.3805 -1.6802 -2.2301
26944SOL     OW82599   4.472   7.418   8.185 -0.2171  0.5961 -0.0466
26944SOL    HW182600   4.470   7.475   8.261 -0.5255  2.6061 -1.4882
26944SOL    HW282601   4.414   7.460   8.121  2.2632  0.6233 -2.4873
26945SOL     OW82602   5.148   5.373   6.811  0.2198  0.3106 -0.0527
26945SOL    HW182603   5.109   5.445   6.761  1.6830  0.4880 -1.0020
26945SOL    HW282604   5.082   5.304   6.808 -1.2256  1.5722  0.8740
26946SOL     OW82605   6.170   9.615   0.836 -0.2854  0.0569 -0.0216
26946SOL    HW182606   6.075   9.615   0.820 -0.5966 -0.7835  1.6934
26946SOL    HW282607   6.200   9.698   0.798 -1.7802  0.5803 -0.1338
26947SOL     OW82608   0.655   3.353   7.676  0.6178 -0.1991 -0.3451
26947SOL    HW182609   0.662   3.390   7.764  0.2479  0.5659 -0.6268
26947SOL    HW282610   0.733   3.298   7.667  1.5301  1.0249 -0.1330
26948SOL     OW82611   4.487   1.950   6.864  0.4606  0.0893 -0.0020
26948SOL    HW182612   4.408   1.967   6.915 -0.1217  0.5409 -1.0263
26948SOL    HW282613   4.467   1.869   6.816  0.4670  0.4128 -0.5561
26949SOL     OW82614   7.029   7.133   7.060  0.1121 -0.2554 -0.6110
26949SOL    HW182615   7.065   7.215   7.093 -0.8337 -0.1066  0.0798
26949SOL    HW282616   7.105   7.085   7.027  1.4224 -1.0948  3.1577
26950SOL     OW82617   0.027   1.712   6.543 -0.5910  0.0344 -0.2851
26950SOL    HW182618   0.024   1.733   6.636  0.6105 -0.9310 -0.0071
26950SOL    HW282619  -0.065   1.706   6.517 -0.9545 -0.5297  1.0434
26951SOL     OW82620   2.622   4.479   4.920  0.0727 -0.4161  0.3624
26951SOL    HW182621   2.691   4.419   4.891  0.0152  0.0708 -0.8563
26951SOL    HW282622   2.669   4.558   4.947  0.0114 -0.1117 -0.3970
26952SOL     OW82623   9.378   7.491   1.254  0.4145  0.4558  0.1187
26952SOL    HW182624   9.389   7.567   1.197  1.1673 -0.2112 -0.6487
26952SOL    HW282625   9.463   7.480   1.296  0.7560 -0.7806 -0.8393
26953SOL     OW82626   1.344   4.022   6.595  0.4701 -0.3352 -0.1854
26953SOL    HW182627   1.306   3.993   6.678 -0.6605  1.3314 -0.0876
26953SOL    HW282628   1.386   3.943   6.560 -0.8614 -1.6107  0.9449
26954SOL     OW82629   6.759   7.056   5.469 -0.4568  0.1714  0.3021
26954SOL    HW182630   6.771   7.146   5.441  0.9478  0.6339  2.2220
26954SOL    HW282631   6.843   7.014   5.453 -0.8957 -0.6404  0.0587
26955SOL     OW82632   2.329   1.681   0.491  0.4860 -0.2465 -0.3114
26955SOL    HW182633   2.394   1.610   0.495  0.3113 -0.5337 -1.9234
26955SOL    HW282634   2.344   1.731   0.571  1.1605 -1.6276  0.4689
26956SOL     OW82635   0.813   6.956   7.642 -0.5835  0.2408  0.0579
26956SOL    HW182636   0.810   6.861   7.640  0.1569  0.2165 -0.7757
26956SOL    HW282637   0.764   6.984   7.565  0.6203  0.4640 -0.6564
26957SOL     OW82638   1.992   3.883   7.638 -0.5328 -0.5586 -0.3830
26957SOL    HW182639   2.040   3.956   7.679 -0.1579 -0.5816 -0.7743
26957SOL    HW282640   2.060   3.819   7.615 -0.9394 -1.3900  0.6621
26958SOL     OW82641   3.137   1.958   8.258 -0.1305  0.5028  0.4580
26958SOL    HW182642   3.189   1.954   8.178  0.9534  2.4267  1.0034
26958SOL    HW282643   3.055   2.002   8.232 -0.4407 -0.2638  0.1130
26959SOL     OW82644   6.457   6.731   9.072  0.5309 -0.2848 -0.4456
26959SOL    HW182645   6.451   6.810   9.019 -0.8915  0.8042  1.2099
26959SOL    HW282646   6.373   6.687   9.058  0.1735 -0.0349  0.7239
26960SOL     OW82647   6.824   8.057   6.672  0.0183 -0.1026  0.0814
26960SOL    HW182648   6.787   8.033   6.587  1.6735  0.6534 -0.8978
26960SOL    HW282649   6.850   7.974   6.712 -0.4804 -0.4372 -0.2884
26961SOL     OW82650   6.253   1.740   6.575 -0.0882  0.2740  0.1725
26961SOL    HW182651   6.329   1.769   6.524  0.7953 -0.1867  1.1965
26961SOL    HW282652   6.242   1.648   6.550 -0.4818  0.4104 -0.1695
26962SOL     OW82653   3.667   4.669   2.214  0.3120  0.2112  0.1288
26962SOL    HW182654   3.731   4.694   2.280 -0.3323  1.4794  0.3131
26962SOL    HW282655   3.717   4.622   2.148  0.9116 -1.3987  1.6659
26963SOL     OW82656   4.174   0.857   8.843 -0.4175 -0.2824 -0.3970
26963SOL    HW182657   4.253   0.857   8.896 -1.0851 -1.3647  0.6564
26963SOL    HW282658   4.130   0.939   8.864 -1.0901 -1.0614  1.4287
26964SOL     OW82659   1.940   2.700   5.278 -0.2127 -0.4487  0.7512
26964SOL    HW182660   1.950   2.713   5.183  1.1163  2.5189  1.1897
26964SOL    HW282661   1.893   2.617   5.286  1.5091 -1.9195 -2.4561
26965SOL     OW82662   4.821   9.334   9.469 -0.0434 -0.2926 -0.4642
26965SOL    HW182663   4.854   9.250   9.436  0.3402 -0.2671 -0.1637
26965SOL    HW282664   4.813   9.389   9.392  0.3331 -0.4028 -0.5876
26966SOL     OW82665   9.547   2.817   4.163 -0.0136 -0.4028 -0.1981
26966SOL    HW182666   9.516   2.726   4.167  2.7190 -1.6168 -2.6420
26966SOL    HW282667   9.505   2.853   4.085 -0.0396 -0.0036  0.0003
26967SOL     OW82668   1.869   9.018   8.741 -0.2266 -0.8095  0.0569
26967SOL    HW182669   1.917   9.072   8.803  0.0562 -0.4910 -0.4291
26967SOL    HW282670   1.913   8.933   8.745  0.1759 -0.6147 -0.1429
26968SOL     OW82671   9.276   3.064   9.080 -0.1491  0.0877 -0.8572
26968SOL    HW182672   9.361   3.081   9.040  0.0673 -0.4366 -0.6389
26968SOL    HW282673   9.297   3.025   9.165 -0.6026 -0.4651 -0.9903
26969SOL     OW82674   3.632   8.516   2.864 -0.4189  0.0347 -0.1742
26969SOL    HW182675   3.610   8.429   2.899  1.7867 -0.0071  1.3720
26969SOL    HW282676   3.549   8.552   2.835 -1.5739 -2.1572  0.1844
26970SOL     OW82677   9.061   0.542   0.754  0.1071 -0.1026 -0.1612
26970SOL    HW182678   9.146   0.581   0.739 -0.0787 -0.5806 -3.3527
26970SOL    HW282679   9.067   0.500   0.840  1.7156  3.0641  1.4255
26971SOL     OW82680   5.699   4.813   3.422  0.4785 -0.2372 -0.3110
26971SOL    HW182681   5.784   4.828   3.379  0.2834 -2.0179 -1.4201
26971SOL    HW282682   5.640   4.790   3.350 -0.4678 -0.9507  0.6638
26972SOL     OW82683   9.567   0.039   7.480 -0.0925  0.1878  0.0326
26972SOL    HW182684   9.661   0.031   7.499  0.0674  0.2746 -0.6777
26972SOL    HW282685   9.543  -0.046   7.443 -0.0884  0.4527 -0.5941
26973SOL     OW82686   5.508   6.887   4.766  0.1962  0.1300  0.1919
26973SOL    HW182687   5.425   6.933   4.778 -1.3104 -1.9812 -1.4835
26973SOL    HW282688   5.558   6.945   4.708 -0.7509  0.6856 -0.0986
26974SOL     OW82689   6.801   7.512   8.015 -0.6843 -0.5470  0.0344
26974SOL    HW182690   6.845   7.431   7.988 -0.3350  0.1525 -1.6642
26974SOL    HW282691   6.738   7.484   8.081 -0.2852 -2.1436 -0.2088
26975SOL     OW82692   1.469   6.607   0.386 -0.1554  0.2303  0.3077
26975SOL    HW182693   1.546   6.636   0.339 -0.6573  1.3482  0.1412
26975SOL    HW282694   1.395   6.641   0.336 -0.7454 -0.1585  0.8841
26976SOL     OW82695   3.988   0.389   7.108  0.3233  0.0547 -0.3985
26976SOL    HW182696   4.046   0.431   7.044 -0.5074  2.0234  0.0589
26976SOL    HW282697   3.916   0.451   7.119 -0.9226 -1.4754  0.4481
26977SOL     OW82698   2.075   5.574   3.649  0.4546  0.0119  0.4384
26977SOL    HW182699   2.062   5.528   3.732 -0.2450  0.7661  0.7606
26977SOL    HW282700   2.163   5.611   3.655  0.0935  0.7630  1.2015
26978SOL     OW82701   3.381   6.498   0.243 -0.4971 -0.0008  0.1935
26978SOL    HW182702   3.392   6.454   0.327  2.8666  1.4372  0.6616
26978SOL    HW282703   3.342   6.431   0.187 -0.1856 -1.9532  2.1392
26979SOL     OW82704   5.153   7.475   1.188  0.4896 -0.1145  0.2163
26979SOL    HW182705   5.069   7.451   1.150  1.2068 -0.7700 -0.9936
26979SOL    HW282706   5.144   7.453   1.281 -0.9050  0.5044  0.2646
26980SOL     OW82707   6.072   3.596   5.543  0.1158 -0.8420 -0.5583
26980SOL    HW182708   6.155   3.556   5.517  0.2637 -0.1382 -1.2053
26980SOL    HW282709   6.062   3.671   5.484 -0.3949 -0.2169  0.2941
26981SOL     OW82710   1.940   2.725   4.989  0.0895  0.1572  0.1331
26981SOL    HW182711   1.917   2.800   4.934 -1.2537 -0.6712 -0.4797
26981SOL    HW282712   2.028   2.701   4.960 -0.7885 -0.6053 -2.1076
26982SOL     OW82713   4.957   3.753   9.364 -0.5491  0.1878  0.0565
26982SOL    HW182714   4.957   3.686   9.432  0.7725  0.4031  0.3058
26982SOL    HW282715   4.865   3.773   9.349 -1.0569 -2.4416 -0.7845
26983SOL     OW82716   1.445   2.048   7.240  0.1854  0.0492  0.0362
26983SOL    HW182717   1.431   2.141   7.218  1.5185 -0.1456 -1.9175
26983SOL    HW282718   1.502   2.050   7.317  2.1733  0.9679 -1.3502
26984SOL     OW82719   3.974   8.080   2.778 -0.2859  0.3577  0.1919
26984SOL    HW182720   3.954   7.998   2.732 -0.9401  0.9683 -0.6351
26984SOL    HW282721   3.920   8.146   2.735 -0.5376  1.0568  1.4990
26985SOL     OW82722   0.886   1.788   7.979 -0.4984  0.6136  0.2067
26985SOL    HW182723   0.957   1.784   8.043  0.1920  0.3636 -0.5561
26985SOL    HW282724   0.923   1.750   7.899 -1.3837  0.7943 -0.3091
26986SOL     OW82725   9.726   1.953   0.014 -0.1527 -0.4581 -0.4624
26986SOL    HW182726   9.752   1.890  -0.054  1.2450  0.2395 -0.6134
26986SOL    HW282727   9.724   1.902   0.094  0.7779 -0.7702 -0.6149
26987SOL     OW82728   0.504   3.888   0.348 -0.1561 -0.2740  0.2371
26987SOL    HW182729   0.537   3.812   0.299 -0.0554 -0.0410 -0.0554
26987SOL    HW282730   0.581   3.944   0.360  0.4479 -1.4928  2.8997
26988SOL     OW82731   7.456   5.882   4.662  0.4335  0.1675  0.5359
26988SOL    HW182732   7.412   5.878   4.747 -0.5903  0.1015  0.0237
26988SOL    HW282733   7.405   5.823   4.606  1.3104 -0.0616 -0.0292
26989SOL     OW82734   1.973   9.764   1.269 -0.1005  0.3215  0.2763
26989SOL    HW182735   2.068   9.767   1.283 -0.1341 -1.1651  1.0108
26989SOL    HW282736   1.951   9.851   1.236  1.5790  0.5494 -0.3376
26990SOL     OW82737   6.203   7.465   0.056 -0.2431  0.5198  0.8323
26990SOL    HW182738   6.218   7.388   0.111  0.5203 -0.4396 -0.6671
26990SOL    HW282739   6.282   7.517   0.066  0.2914 -0.1013 -0.0272
26991SOL     OW82740   0.564   8.717   7.183  0.6973  0.1486  0.0453
26991SOL    HW182741   0.568   8.645   7.246  2.5415  0.4572  0.3372
26991SOL    HW282742   0.632   8.778   7.212 -1.1674  2.3188  0.1292
26992SOL     OW82743   9.083   7.956   2.198  0.3483 -0.0917  0.0767
26992SOL    HW182744   9.052   7.997   2.116  0.7110  0.4911  0.2222
26992SOL    HW282745   9.046   8.011   2.267 -0.8716 -1.2157  0.3593
26993SOL     OW82746   7.322   6.763   1.101 -0.5672 -0.4821  0.1556
26993SOL    HW182747   7.290   6.785   1.189 -1.3400 -3.0052  0.5811
26993SOL    HW282748   7.261   6.808   1.043 -0.8467  0.1566  0.9139
26994SOL     OW82749   2.502   6.944   8.929 -0.0750 -0.0158 -0.8003
26994SOL    HW182750   2.521   7.033   8.898 -1.6272  0.3251 -0.8490
26994SOL    HW282751   2.407   6.937   8.923 -0.1590 -0.9936  1.0948
26995SOL     OW82752   2.585   3.783   8.392 -0.4185  0.1867  0.0471
26995SOL    HW182753   2.652   3.825   8.446 -0.0241  1.5799 -1.4406
26995SOL    HW282754   2.541   3.856   8.347 -0.4786 -0.9026 -1.7892
26996SOL     OW82755   2.499   0.382   0.780  0.2545  0.0481 -0.1307
26996SOL    HW182756   2.421   0.360   0.831 -0.9103  0.8760 -1.4631
26996SOL    HW282757   2.554   0.304   0.784  0.3480  0.1562  2.5422
26997SOL     OW82758   3.585   5.798   4.138  0.0455  0.0698 -0.0510
26997SOL    HW182759   3.545   5.783   4.224  1.2078 -1.2897  0.2820
26997SOL    HW282760   3.565   5.889   4.119 -0.0463  0.4798  1.7751
26998SOL     OW82761   1.352   9.388   7.333 -0.4043  0.3146 -0.4620
26998SOL    HW182762   1.292   9.448   7.289  0.4330  1.3531 -0.2282
26998SOL    HW282763   1.376   9.434   7.414  0.7936 -0.0208 -0.6090
26999SOL     OW82764   1.737   6.452   1.694  0.3880 -0.1536 -0.0807
26999SOL    HW182765   1.670   6.444   1.626 -1.2368 -1.9888  1.5940
26999SOL    HW282766   1.694   6.418   1.773  1.8343  2.8000  2.1375
27000SOL     OW82767   5.195   0.373   0.462  0.2443 -0.1514  0.0458
27000SOL    HW182768   5.204   0.453   0.410 -1.8211 -0.9526 -1.6615
27000SOL    HW282769   5.275   0.324   0.444  0.7933  0.7871 -0.1656
27001SOL     OW82770   2.089   1.336   3.052 -0.5713  0.1717 -0.3518
27001SOL    HW182771   2.081   1.301   2.963  0.0668  0.7784 -0.6635
27001SOL    HW282772   2.137   1.269   3.100 -0.3610  0.1140 -0.6362
27002SOL     OW82773   0.587   6.759   3.412  0.0169 -0.4969 -0.0536
27002SOL    HW182774   0.597   6.814   3.335 -0.7670 -0.4372 -0.1141
27002SOL    HW282775   0.578   6.670   3.378 -0.0617 -0.5040 -0.0140
27003SOL     OW82776   5.065   2.777   3.867  0.2862  0.3705 -0.0910
27003SOL    HW182777   4.999   2.800   3.802  0.9698  1.1440 -0.5465
27003SOL    HW282778   5.027   2.704   3.916 -2.3626  2.8339  1.8797
27004SOL     OW82779   5.795   0.077   0.646  0.1806  0.6953 -0.2535
27004SOL    HW182780   5.716   0.033   0.616  0.9483 -0.6650 -0.3516
27004SOL    HW282781   5.799   0.059   0.740  1.3914 -0.9893 -0.5776
27005SOL     OW82782   6.525   6.258   3.352 -0.3129  0.9100  0.3499
27005SOL    HW182783   6.524   6.192   3.421 -1.0096  1.1891  0.6094
27005SOL    HW282784   6.508   6.340   3.397  1.2935  1.3899  0.1443
27006SOL     OW82785   7.299   6.281   5.333  0.3121 -0.0943 -0.3445
27006SOL    HW182786   7.284   6.243   5.246  1.1820 -0.4413 -0.3493
27006SOL    HW282787   7.394   6.286   5.341  0.2277  0.4906  0.3544
27007SOL     OW82788   0.683   4.490   0.738  0.4853 -0.1280 -0.1692
27007SOL    HW182789   0.646   4.403   0.754  2.8568 -1.0362  0.9098
27007SOL    HW282790   0.685   4.531   0.825  2.2304 -0.2694 -0.1077
27008SOL     OW82791   3.405   7.874   3.094  0.1608 -0.3786  0.3785
27008SOL    HW182792   3.436   7.838   3.176 -0.2929 -0.0237  0.7128
27008SOL    HW282793   3.325   7.922   3.117  1.5932  2.2587  0.2678
27009SOL     OW82794   6.048   4.267   4.780  0.4098  0.1738  0.4304
27009SOL    HW182795   6.100   4.225   4.711 -0.1150  0.1851  0.0233
27009SOL    HW282796   5.961   4.277   4.742  0.4862  1.5328  0.5462
27010SOL     OW82797   9.591   8.526   3.688 -0.3633 -0.2418 -0.4442
27010SOL    HW182798   9.575   8.532   3.594  0.8717 -2.5599 -0.8704
27010SOL    HW282799   9.504   8.536   3.728 -1.2096 -1.1684 -1.9694
27011SOL     OW82800   4.300   0.243   2.312 -0.4822 -0.4193 -0.3571
27011SOL    HW182801   4.366   0.192   2.360 -0.1111  0.7973  0.4810
27011SOL    HW282802   4.340   0.260   2.227 -0.6554 -1.6037 -0.6782
27012SOL     OW82803   5.690   4.804   5.575  0.0857 -0.4502  0.6472
27012SOL    HW182804   5.746   4.882   5.583  0.7169 -0.5456 -2.0028
27012SOL    HW282805   5.617   4.821   5.634  0.5916  1.8027  0.7199
27013SOL     OW82806   7.286   2.444   2.313  0.6117  0.0047  0.4494
27013SOL    HW182807   7.325   2.511   2.370  1.4973  0.2145 -0.3762
27013SOL    HW282808   7.303   2.361   2.357  0.7330  0.2177  0.8045
27014SOL     OW82809   7.884   4.770   7.563 -0.1231  0.2681  0.5622
27014SOL    HW182810   7.857   4.756   7.654  0.8017 -0.6255  0.7225
27014SOL    HW282811   7.979   4.780   7.568 -0.2739  2.6695 -0.0504
27015SOL     OW82812   9.345   0.924   0.494  0.0211 -0.2701  0.2653
27015SOL    HW182813   9.382   0.915   0.582 -1.5681 -0.1694  0.9638
27015SOL    HW282814   9.371   0.844   0.449  1.9023  0.2164  0.3835
27016SOL     OW82815   6.641   6.292   8.376 -0.5431  0.2664 -0.3776
27016SOL    HW182816   6.614   6.379   8.347  0.2446  0.2853 -1.1074
27016SOL    HW282817   6.611   6.233   8.307  0.3553  0.1722 -0.7053
27017SOL     OW82818   7.198   7.396   1.102  0.3359  0.0770  0.8835
27017SOL    HW182819   7.274   7.452   1.120  0.3067  1.3324 -2.2978
27017SOL    HW282820   7.235   7.308   1.093  1.3863  0.5927 -0.1536
27018SOL     OW82821   6.787   1.950   0.896 -0.1968  0.7520 -0.2485
27018SOL    HW182822   6.832   1.947   0.981  1.5085  4.0022 -0.8954
27018SOL    HW282823   6.699   1.980   0.917 -1.7130 -3.6141  0.7888
27019SOL     OW82824   8.403   2.921   0.259  0.4294  0.7290 -0.6451
27019SOL    HW182825   8.376   3.012   0.248  0.0424  0.6988 -0.0250
27019SOL    HW282826   8.498   2.925   0.272  0.3437  1.1012 -0.0801
27020SOL     OW82827   9.546   4.063   5.042  0.3228 -0.2609  0.3843
27020SOL    HW182828   9.488   3.994   5.009  0.1583 -0.6702  1.4919
27020SOL    HW282829   9.498   4.102   5.115  0.8827  0.2844  0.4660
27021SOL     OW82830   0.323   9.180   6.429  0.0077 -0.0391 -0.0734
27021SOL    HW182831   0.382   9.131   6.370 -0.0228  0.0221 -0.1550
27021SOL    HW282832   0.235   9.157   6.399 -0.0169 -0.3757  0.2465
27022SOL     OW82833   2.885   6.466   4.525  0.3861  0.1791  0.9114
27022SOL    HW182834   2.966   6.425   4.494 -0.3593 -0.8313  0.2405
27022SOL    HW282835   2.824   6.457   4.451 -1.6563 -2.8836  2.7486
27023SOL     OW82836   0.370   4.086   7.777 -0.4634 -0.5863  0.9495
27023SOL    HW182837   0.343   4.081   7.686  1.8714 -0.9341  0.1983
27023SOL    HW282838   0.380   3.994   7.804  0.4145 -0.4824  1.0171
27024SOL     OW82839   9.170   2.384   6.451 -0.2286  0.1584  0.3624
27024SOL    HW182840   9.101   2.359   6.512  0.8353 -1.0873  1.1025
27024SOL    HW282841   9.190   2.475   6.473 -2.4450  0.9744 -0.6977
27025SOL     OW82842   2.487   6.392   2.154 -0.0599 -0.3251 -0.0946
27025SOL    HW182843   2.451   6.473   2.118 -0.2910 -0.6405 -0.5928
27025SOL    HW282844   2.552   6.363   2.090 -1.9893 -2.0318 -1.4214
27026SOL     OW82845   2.005   9.150   4.144 -0.5959  0.5852  0.1318
27026SOL    HW182846   1.941   9.151   4.073  0.2993  0.7319 -0.6989
27026SOL    HW282847   2.087   9.125   4.102 -0.1463  0.1812  1.2152
27027SOL     OW82848   7.365   4.584   8.202  0.1898 -0.5720  0.3821
27027SOL    HW182849   7.317   4.503   8.222  1.3053 -1.6651 -1.1438
27027SOL    HW282850   7.328   4.614   8.119 -0.6310  0.8591  1.2273
27028SOL     OW82851   0.136   2.877   5.761 -0.1880  0.2542  0.1101
27028SOL    HW182852   0.118   2.811   5.829 -0.1188  0.0931 -0.0279
27028SOL    HW282853   0.192   2.831   5.698  0.3050  0.6078  0.2872
27029SOL     OW82854   5.157   2.358   2.754  0.6580  0.1874 -0.0973
27029SOL    HW182855   5.187   2.287   2.810  1.4179 -0.3449 -1.1298
27029SOL    HW282856   5.120   2.313   2.677 -1.0291  0.8741  0.2694
27030SOL     OW82857   7.732   2.657   2.431  0.3217 -0.1160  0.2312
27030SOL    HW182858   7.815   2.692   2.464  1.6896 -0.2870 -2.6540
27030SOL    HW282859   7.758   2.597   2.362 -2.2265 -0.3748 -0.6025
27031SOL     OW82860   0.907   0.372   8.877 -0.1555 -0.6871  0.1059
27031SOL    HW182861   0.881   0.289   8.918  2.2978 -1.4938  0.1807
27031SOL    HW282862   0.838   0.433   8.901 -1.3190 -2.3664  1.2467
27032SOL     OW82863   4.038   0.755   6.608  0.1369  0.6966 -0.2602
27032SOL    HW182864   3.999   0.785   6.526  0.4301  0.3030 -0.5514
27032SOL    HW282865   4.097   0.684   6.581 -0.6592 -0.2436  0.4116
27033SOL     OW82866   5.750   9.246   4.955  0.0677  0.0907 -0.3911
27033SOL    HW182867   5.767   9.157   4.986 -0.2133  0.0479 -0.3590
27033SOL    HW282868   5.835   9.290   4.958  0.2427 -0.2361 -0.5974
27034SOL     OW82869   1.627   5.501   5.098 -0.0354 -0.1675 -0.6891
27034SOL    HW182870   1.636   5.518   5.005 -0.2451 -0.4814 -0.7671
27034SOL    HW282871   1.585   5.416   5.104 -0.1290 -0.1000 -0.3090
27035SOL     OW82872   2.051   5.377   4.328 -0.1654 -0.4318 -0.4488
27035SOL    HW182873   2.090   5.424   4.401 -0.7507 -1.8638  0.8349
27035SOL    HW282874   2.113   5.305   4.311 -0.8026 -1.0097 -0.3349
27036SOL     OW82875   0.142   9.754   4.508  0.1350 -0.8608  0.2559
27036SOL    HW182876   0.144   9.801   4.591 -0.0286 -1.5417  0.6600
27036SOL    HW282877   0.105   9.668   4.530 -1.1471 -0.6093 -0.7436
27037SOL     OW82878   0.334   5.448   9.091 -0.4525  1.0033 -0.1309
27037SOL    HW182879   0.315   5.416   9.003  1.2487 -1.9785  0.4438
27037SOL    HW282880   0.276   5.398   9.148  1.6325 -0.6396  0.7202
27038SOL     OW82881   1.466   2.692   9.582 -0.2625 -0.3560 -0.7527
27038SOL    HW182882   1.528   2.618   9.588  0.8979  0.6950  2.1461
27038SOL    HW282883   1.509   2.754   9.523  0.2918 -0.6486 -0.6666
27039SOL     OW82884   6.169   2.721   1.401 -0.5359 -0.0167  0.5864
27039SOL    HW182885   6.214   2.801   1.429  0.1283 -0.5113  0.9415
27039SOL    HW282886   6.213   2.697   1.319 -3.2521  2.1101 -1.7188
27040SOL     OW82887   4.837   8.924   6.394 -0.0224  0.0045  0.2379
27040SOL    HW182888   4.863   8.960   6.479  1.2560  0.6617 -0.4011
27040SOL    HW282889   4.744   8.943   6.387  0.1768  1.3231  0.8349
27041SOL     OW82890   7.691   0.070   7.536 -0.3193 -0.5928 -0.0533
27041SOL    HW182891   7.745  -0.007   7.517  1.3802  0.5153  0.0706
27041SOL    HW282892   7.621   0.066   7.472  0.4129 -1.6150 -0.8352
27042SOL     OW82893   8.879   2.319   8.169 -0.3715 -0.2887  0.0628
27042SOL    HW182894   8.831   2.281   8.095  0.2269 -1.1753  0.1128
27042SOL    HW282895   8.863   2.258   8.241 -1.1387  0.6901  0.7444
27043SOL     OW82896   2.760   0.964   3.913  0.2937  0.1448 -0.4910
27043SOL    HW182897   2.707   0.995   3.839  0.2445  1.5643  0.1132
27043SOL    HW282898   2.735   1.021   3.986  1.7069 -0.0125  0.1403
27044SOL     OW82899   0.031   5.978   4.352  0.8317 -0.3659 -0.0786
27044SOL    HW182900   0.119   6.014   4.351  0.2317  1.1968 -1.9229
27044SOL    HW282901   0.031   5.915   4.280  0.8506 -1.5502  0.9175
27045SOL     OW82902   9.642   6.336   8.321 -0.1007  0.1434  0.7627
27045SOL    HW182903   9.598   6.412   8.360 -2.6144  0.2536 -1.9421
27045SOL    HW282904   9.600   6.325   8.236  1.0213 -3.5776  0.5135
27046SOL     OW82905   7.488   9.443   9.006  0.6947 -0.5231 -0.2877
27046SOL    HW182906   7.549   9.459   8.934 -0.3700  0.8082 -0.9136
27046SOL    HW282907   7.544   9.443   9.084  1.6896 -0.8054 -0.9714
27047SOL     OW82908   6.166   3.491   5.221  0.5623 -0.0890  0.0778
27047SOL    HW182909   6.240   3.535   5.179  1.2459 -0.7142  0.5810
27047SOL    HW282910   6.193   3.483   5.313 -1.0067  1.5075  0.7519
27048SOL     OW82911   0.434   4.701   4.558  0.4428  0.1658  0.2298
27048SOL    HW182912   0.464   4.778   4.607 -0.5210  1.7464 -1.5287
27048SOL    HW282913   0.504   4.638   4.568  1.5084  1.4470  1.3275
27049SOL     OW82914   8.643   1.087   2.802  0.2684 -0.6748 -0.7731
27049SOL    HW182915   8.627   1.128   2.717 -0.0478 -0.5571 -0.6573
27049SOL    HW282916   8.692   1.153   2.852  2.0775 -1.4135 -1.4800
27050SOL     OW82917   3.026   7.880   3.795 -0.4529  0.2340 -0.3387
27050SOL    HW182918   3.088   7.838   3.736  2.3224  0.5854  2.0675
27050SOL    HW282919   3.015   7.968   3.761  0.2485  0.0994 -0.9283
27051SOL     OW82920   7.411   7.215   1.465 -0.1996 -0.0013 -0.1566
27051SOL    HW182921   7.372   7.268   1.535  1.5314  0.9216  0.1510
27051SOL    HW282922   7.459   7.278   1.411  1.2146 -1.1168 -0.2606
27052SOL     OW82923   3.541   9.390   2.386  0.5893  0.4328 -0.1127
27052SOL    HW182924   3.530   9.323   2.454 -0.1325  0.9364  0.2886
27052SOL    HW282925   3.454   9.429   2.376  0.6618  0.2961 -1.4186
27053SOL     OW82926   6.377   9.388   8.205  0.4533  0.3281  0.1617
27053SOL    HW182927   6.304   9.393   8.267 -0.2313 -0.5833 -0.5446
27053SOL    HW282928   6.453   9.371   8.259 -0.1216 -0.3617  0.7720
27054SOL     OW82929   0.928   8.912   1.278 -0.0322  0.1507 -0.7760
27054SOL    HW182930   0.938   9.007   1.280 -2.6939  0.4750  0.3321
27054SOL    HW282931   0.972   8.885   1.197  0.6199  2.3230 -1.2075
27055SOL     OW82932   7.866   7.182   4.402 -0.0265 -0.6513  0.1393
27055SOL    HW182933   7.943   7.125   4.404 -0.3609 -1.1012  1.0964
27055SOL    HW282934   7.793   7.123   4.421 -0.1423  0.4000  3.8117
27056SOL     OW82935   3.537   7.978   4.543 -0.5606 -0.1719 -0.0326
27056SOL    HW182936   3.477   7.916   4.585  3.0025 -1.7655  3.3951
27056SOL    HW282937   3.561   7.936   4.461 -1.4124 -1.2458  0.2394
27057SOL     OW82938   5.595   0.177   5.996 -0.3510 -0.1699  0.3278
27057SOL    HW182939   5.560   0.131   6.073  1.6015 -2.1405  0.1350
27057SOL    HW282940   5.604   0.268   6.025 -1.1678 -0.5418  1.8750
27058SOL     OW82941   6.376   2.343   0.098 -1.5130  0.2263 -0.1108
27058SOL    HW182942   6.335   2.278   0.156 -2.6869 -0.9798 -2.1803
27058SOL    HW282943   6.305   2.403   0.075 -1.1291  0.5484 -0.4698
27059SOL     OW82944   8.056   4.052   3.032  0.1603  0.2384 -0.2295
27059SOL    HW182945   8.049   3.979   3.094 -1.6805 -1.2823 -2.0778
27059SOL    HW282946   8.128   4.026   2.974 -0.5708 -0.1990 -0.9573
27060SOL     OW82947   8.431   4.454   0.597 -0.2339  0.0669  0.2144
27060SOL    HW182948   8.432   4.536   0.548  0.9501  0.4234  0.8015
27060SOL    HW282949   8.508   4.459   0.653  0.4992 -1.9404 -0.5351
27061SOL     OW82950   8.791   3.547   7.018  0.3224  0.0788  0.0470
27061SOL    HW182951   8.741   3.627   7.033  1.7419  1.2606 -1.1309
27061SOL    HW282952   8.772   3.523   6.928  1.3789  0.1991 -0.2191
27062SOL     OW82953   0.320   9.372   9.528 -0.1814  0.1463 -0.2353
27062SOL    HW182954   0.383   9.303   9.511  0.7866 -0.0692  3.5149
27062SOL    HW282955   0.237   9.326   9.541 -0.1766  0.0203 -0.6131
27063SOL     OW82956   2.268   1.623   4.952  0.0208  0.3468 -0.0128
27063SOL    HW182957   2.326   1.667   4.889 -0.1721  1.9983  0.8889
27063SOL    HW282958   2.308   1.538   4.966  3.4074  2.0498  1.9918
27064SOL     OW82959   9.659   1.520   9.127  0.5697  0.0076  0.1811
27064SOL    HW182960   9.640   1.602   9.173  0.5492 -1.2265  2.5286
27064SOL    HW282961   9.572   1.486   9.104  0.5470  0.3438 -0.2309
27065SOL     OW82962   0.861   8.475   1.626  0.2545 -0.0598  0.2599
27065SOL    HW182963   0.948   8.503   1.597  0.2015 -0.5419 -0.3949
27065SOL    HW282964   0.843   8.528   1.703  0.1619  1.7123 -0.9071
27066SOL     OW82965   0.855   8.227   1.467 -0.0707  0.2968  0.1590
27066SOL    HW182966   0.826   8.136   1.462 -0.6341  0.5324 -1.0573
27066SOL    HW282967   0.891   8.235   1.556 -0.6653 -0.9098  0.5366
27067SOL     OW82968   3.638   5.375   2.853  0.1880  0.1725 -0.3306
27067SOL    HW182969   3.697   5.434   2.900  2.9126 -0.6974 -2.4172
27067SOL    HW282970   3.578   5.433   2.806 -0.0911  1.1061  1.1206
27068SOL     OW82971   6.380   3.645   9.135 -0.0578 -0.0913  0.4821
27068SOL    HW182972   6.449   3.585   9.166 -0.4837 -0.0739  1.5154
27068SOL    HW282973   6.299   3.594   9.143 -0.5343  0.8357  2.1259
27069SOL     OW82974   0.286   1.777   2.106 -0.3694 -0.3395  0.1431
27069SOL    HW182975   0.241   1.764   2.022  0.7411 -1.2353 -0.3483
27069SOL    HW282976   0.318   1.689   2.130 -0.3665 -0.0341  1.3345
27070SOL     OW82977   9.119   6.852   5.726  0.1120 -0.1679  0.1696
27070SOL    HW182978   9.135   6.944   5.745  0.9016 -0.4984  1.2083
27070SOL    HW282979   9.117   6.847   5.630 -1.8700  1.2190  0.0846
27071SOL     OW82980   8.362   5.705   5.843 -0.3529  0.5016  0.1999
27071SOL    HW182981   8.341   5.619   5.880  3.1876 -0.2014  1.0118
27071SOL    HW282982   8.403   5.685   5.759  1.8145  1.1947  1.0318
27072SOL     OW82983   4.974   0.137   9.419  0.0836 -0.0526  0.0467
27072SOL    HW182984   5.050   0.119   9.474  0.3426  0.4121 -0.1561
27072SOL    HW282985   5.009   0.182   9.343 -0.5108  1.1437  0.4556
27073SOL     OW82986   5.615   3.938   9.756 -0.0493  0.0650  0.3859
27073SOL    HW182987   5.623   3.972   9.667 -0.1163 -3.5022 -1.1475
27073SOL    HW282988   5.701   3.900   9.775  0.4901  2.1630  2.5991
27074SOL     OW82989   6.015   2.326   3.601 -0.3395 -0.0966  0.4448
27074SOL    HW182990   6.015   2.410   3.555  0.1202 -0.0240  0.5821
27074SOL    HW282991   5.928   2.321   3.640  0.1703  1.0599  1.8066
27075SOL     OW82992   7.995   8.659   1.925  0.2433  0.0216 -0.4873
27075SOL    HW182993   7.929   8.668   1.855  1.3387 -2.3837 -1.9762
27075SOL    HW282994   8.066   8.717   1.899 -0.7743  1.8304  0.5771
27076SOL     OW82995   1.253   2.436   1.045  0.1607 -0.1081  0.2094
27076SOL    HW182996   1.180   2.435   0.982 -0.4767 -0.0999  0.9274
27076SOL    HW282997   1.221   2.491   1.117  1.6508  1.5508 -0.3368
27077SOL     OW82998   2.172   7.330   2.199  0.4324 -0.4116  0.1375
27077SOL    HW182999   2.183   7.268   2.271  0.2471 -1.4052 -0.6552
27077SOL    HW283000   2.238   7.304   2.135 -0.5036 -0.6660 -0.7752
27078SOL     OW83001   1.974   2.376   0.808 -0.0933 -0.3458 -0.4465
27078SOL    HW183002   1.922   2.375   0.728  1.9080  0.5801 -1.8217
27078SOL    HW283003   1.930   2.312   0.865 -4.0605  1.9255 -0.5745
27079SOL     OW83004   7.673   7.567   7.249 -0.3984 -0.1521  0.2277
27079SOL    HW183005   7.704   7.652   7.282 -0.4676 -0.4808  1.1614
27079SOL    HW283006   7.709   7.562   7.160 -0.4063  0.8607  0.1521
27080SOL     OW83007   5.722   2.857   8.721  0.2620  0.1736  0.3761
27080SOL    HW183008   5.717   2.904   8.804  0.5385 -0.5362  0.7972
27080SOL    HW283009   5.812   2.826   8.716  0.6167  1.2898 -0.7920
27081SOL     OW83010   3.458   4.079   4.492 -0.0608 -0.7719  0.2290
27081SOL    HW183011   3.507   4.133   4.554  1.1112 -0.4537 -0.9129
27081SOL    HW283012   3.504   3.996   4.491 -0.1599 -0.8240 -0.1091
27082SOL     OW83013   8.981   5.751   4.624 -0.0874  0.0342 -0.8368
27082SOL    HW183014   8.984   5.778   4.532 -1.0715 -0.3606 -0.9941
27082SOL    HW283015   8.979   5.655   4.620  0.0615  0.0122 -0.3946
27083SOL     OW83016   4.487   9.809   2.599 -0.3625 -0.1703  0.4859
27083SOL    HW183017   4.395   9.782   2.602 -0.1150 -1.2802 -0.9434
27083SOL    HW283018   4.488   9.896   2.638 -1.9660 -0.2873  0.8346
27084SOL     OW83019   5.427   0.373   4.101 -0.1728 -0.1747 -0.0553
27084SOL    HW183020   5.415   0.363   4.196 -0.8387 -2.0149 -0.2903
27084SOL    HW283021   5.338   0.382   4.067 -0.1476 -1.9077 -0.6903
27085SOL     OW83022   8.932   5.669   3.245  0.0832 -0.0533 -0.3609
27085SOL    HW183023   8.868   5.683   3.175  2.4853  0.0098 -2.6718
27085SOL    HW283024   8.976   5.754   3.254  0.2983 -0.2687  0.7407
27086SOL     OW83025   8.871   1.011   1.404 -0.0167  0.3761 -1.0759
27086SOL    HW183026   8.935   0.956   1.449  0.9615  2.0340 -0.3406
27086SOL    HW283027   8.912   1.098   1.401 -2.3884  1.6021 -0.2017
27087SOL     OW83028   1.331   2.677   3.625 -0.0731 -0.4223 -0.4497
27087SOL    HW183029   1.362   2.593   3.590  2.9751  0.7492 -0.9070
27087SOL    HW283030   1.350   2.672   3.719  2.9506  0.7135 -0.8872
27088SOL     OW83031   7.459   3.425   1.758  0.5986  0.6157  0.1662
27088SOL    HW183032   7.473   3.461   1.670  0.9391  1.3302  0.5017
27088SOL    HW283033   7.460   3.501   1.816 -0.9894  0.2961  0.6552
27089SOL     OW83034   4.873   8.203   5.295 -0.2907 -0.0399  0.3323
27089SOL    HW183035   4.928   8.244   5.362  0.1603 -0.9124  0.5180
27089SOL    HW283036   4.875   8.110   5.317  0.6530 -0.4782 -1.4340
27090SOL     OW83037   5.193   1.652   0.096 -0.0079  0.3716  0.3218
27090SOL    HW183038   5.184   1.614   0.009  1.2000 -0.1084  0.3900
27090SOL    HW283039   5.161   1.742   0.086 -2.1512 -0.3539 -0.0231
27091SOL     OW83040   9.426   4.468   4.986 -0.0436  0.0296  0.8998
27091SOL    HW183041   9.494   4.523   5.023 -0.1923  0.9216 -0.1093
27091SOL    HW283042   9.469   4.424   4.912 -0.2140 -0.3916  1.0485
27092SOL     OW83043   0.008   3.821   5.940 -0.2869 -0.2628  0.6475
27092SOL    HW183044  -0.071   3.802   5.889  0.5300  0.4454 -0.9559
27092SOL    HW283045   0.065   3.746   5.926 -0.2888 -0.3248  0.9815
27093SOL     OW83046   4.542   2.936   7.843  0.6688 -0.0633  0.0136
27093SOL    HW183047   4.447   2.926   7.853  0.2246  2.0317 -1.4779
27093SOL    HW283048   4.565   2.877   7.772  0.3782 -0.1673  0.0041
27094SOL     OW83049   3.405   6.941   4.972  0.4577  0.4778  0.2607
27094SOL    HW183050   3.309   6.939   4.972  0.3922  1.2631 -1.7071
27094SOL    HW283051   3.430   6.882   4.900  1.5324 -0.9044  1.7085
27095SOL     OW83052   3.854   9.198   1.780 -0.4480  0.0174 -0.0197
27095SOL    HW183053   3.914   9.137   1.824 -0.8917 -0.3806  0.0435
27095SOL    HW283054   3.782   9.209   1.842  0.5712  2.2217  0.8664
27096SOL     OW83055   6.657   2.796   7.308  0.0375 -0.5703  0.1978
27096SOL    HW183056   6.590   2.728   7.300 -2.0660  1.4866 -0.8412
27096SOL    HW283057   6.729   2.765   7.253 -0.0556 -2.7717  1.2061
27097SOL     OW83058   2.512   6.887   7.140 -0.3126 -0.0393 -0.5056
27097SOL    HW183059   2.516   6.856   7.050  0.8647 -0.0101 -0.4845
27097SOL    HW283060   2.461   6.968   7.135 -0.5748 -0.2345 -1.0809
27098SOL     OW83061   3.733   0.648   3.460 -0.0919  0.2776  0.3536
27098SOL    HW183062   3.732   0.587   3.387  0.2229  2.0824 -1.2225
27098SOL    HW283063   3.826   0.654   3.485 -0.0842  0.3550  0.3057
27099SOL     OW83064   4.293   9.102   3.758 -0.2284 -0.0770  0.4889
27099SOL    HW183065   4.281   9.083   3.665  0.6970 -1.1446  0.5633
27099SOL    HW283066   4.387   9.122   3.766 -0.4546  0.8081  1.0680
27100SOL     OW83067   0.420   6.543   8.945 -0.1819  0.1338  0.2375
27100SOL    HW183068   0.443   6.630   8.914  0.2864  0.0823  0.4216
27100SOL    HW283069   0.471   6.483   8.891  1.6774  0.0923  1.9142
27101SOL     OW83070   7.898   1.301   8.722 -0.8497 -0.0348 -0.0331
27101SOL    HW183071   7.966   1.237   8.745 -1.6835 -1.7227 -1.9654
27101SOL    HW283072   7.857   1.324   8.806  0.8925 -0.3560  0.9519
27102SOL     OW83073   5.330   6.288   9.032  0.0505 -0.4863  0.0748
27102SOL    HW183074   5.236   6.303   9.044  0.3074  1.7829 -0.3902
27102SOL    HW283075   5.336   6.242   8.948 -0.6199 -0.5103  0.0338
27103SOL     OW83076   7.255   1.248   6.324  0.4803  0.1518  0.0124
27103SOL    HW183077   7.251   1.306   6.249 -0.4922 -1.4159 -1.2064
27103SOL    HW283078   7.283   1.164   6.289 -0.6391 -0.8018  1.2698
27104SOL     OW83079   8.791   6.500   4.534  0.1230  0.1654 -0.7437
27104SOL    HW183080   8.879   6.490   4.497  0.9048 -0.5050  1.1987
27104SOL    HW283081   8.803   6.559   4.608 -1.0087 -0.1823 -0.2751
27105SOL     OW83082   0.195   3.888   8.267  0.1460  0.2266  0.1305
27105SOL    HW183083   0.177   3.938   8.346 -1.1068 -2.1433  1.4607
27105SOL    HW283084   0.113   3.892   8.216  0.7148  1.1552 -0.7622
27106SOL     OW83085   4.411   0.272   6.241 -0.0406  0.1257  0.3306
27106SOL    HW183086   4.357   0.304   6.169 -1.2593 -0.0770  1.1250
27106SOL    HW283087   4.427   0.180   6.220 -0.0317  0.1778  0.1096
27107SOL     OW83088   1.580   4.189   9.613  0.1093  0.1524 -0.6193
27107SOL    HW183089   1.597   4.283   9.626 -1.3435  0.3362  0.1259
27107SOL    HW283090   1.655   4.146   9.654  1.7781  0.9647 -2.6040
27108SOL     OW83091   3.253   6.709   7.264  0.3909  0.6408 -0.0819
27108SOL    HW183092   3.306   6.672   7.193 -0.2791 -1.0633  0.2673
27108SOL    HW283093   3.240   6.800   7.238  2.2227  0.7254 -0.9089
27109SOL     OW83094   3.090   3.806   2.625  0.1676 -0.0602  0.2669
27109SOL    HW183095   3.062   3.872   2.689 -1.3548 -0.3895 -0.0119
27109SOL    HW283096   3.020   3.740   2.627 -0.0481  0.0327 -1.8814
27110SOL     OW83097   5.929   4.073   9.582  1.2480  0.1443  0.7121
27110SOL    HW183098   5.864   4.009   9.552  2.2152 -0.4828 -0.1455
27110SOL    HW283099   5.951   4.045   9.671 -0.6091  1.1686  1.5431
27111SOL     OW83100   2.729   4.761   0.739 -0.0819 -0.5882  0.5091
27111SOL    HW183101   2.773   4.846   0.739 -1.1196 -0.0479  0.7626
27111SOL    HW283102   2.756   4.721   0.656  1.5465 -0.6349  1.0125
27112SOL     OW83103   0.368   0.603   9.426 -0.1314  0.2950 -0.1966
27112SOL    HW183104   0.385   0.509   9.415  3.8998  1.0179 -1.9497
27112SOL    HW283105   0.309   0.625   9.354 -1.3422 -0.8627  0.3911
27113SOL     OW83106   3.409   3.409   7.120 -0.1598  0.0493  0.4045
27113SOL    HW183107   3.382   3.318   7.132  0.2588 -0.3872 -1.5905
27113SOL    HW283108   3.436   3.415   7.029  0.1619  2.1093  0.5671
27114SOL     OW83109   2.403   0.999   4.008 -0.1370  0.1674 -0.2314
27114SOL    HW183110   2.401   1.094   4.019 -0.7819  0.2036 -0.6288
27114SOL    HW283111   2.493   0.974   4.029  0.3767  1.0091 -1.3538
27115SOL     OW83112   7.584   3.226   6.535  0.1226 -0.6723  0.0527
27115SOL    HW183113   7.611   3.228   6.444 -0.6613  0.9688 -0.1708
27115SOL    HW283114   7.490   3.240   6.533  0.4880  2.8114  1.2126
27116SOL     OW83115   2.777   6.784   2.795  0.1100  0.4493 -0.7276
27116SOL    HW183116   2.783   6.728   2.717 -2.9154  0.4659 -1.0765
27116SOL    HW283117   2.790   6.872   2.761  1.0991  0.2917 -0.7954
27117SOL     OW83118   9.605   2.609   7.955 -0.1059  0.7755  0.0977
27117SOL    HW183119   9.686   2.658   7.970  0.2979  0.3834 -0.7394
27117SOL    HW283120   9.564   2.653   7.880 -0.0234  0.1912 -0.2960
27118SOL     OW83121   1.929   6.206   2.608  0.0429  0.5861 -0.5053
27118SOL    HW183122   1.885   6.132   2.568 -2.6539  0.5468  2.1897
27118SOL    HW283123   1.868   6.279   2.597  0.3884  1.1710  1.1542
27119SOL     OW83124   9.463   9.840   5.195 -0.3850  0.3684 -0.4281
27119SOL    HW183125   9.526   9.772   5.171 -0.1059  1.1480 -2.0443
27119SOL    HW283126   9.517   9.918   5.209 -0.9922  1.3206 -2.8762
27120SOL     OW83127   2.454   8.084   8.491  0.4562  0.2823 -0.2996
27120SOL    HW183128   2.392   8.012   8.485 -0.9408  1.3255  0.8903
27120SOL    HW283129   2.514   8.071   8.417 -1.0835 -0.8445 -1.3970
27121SOL     OW83130   7.048   6.507   7.299 -0.3391 -0.2613  0.3209
27121SOL    HW183131   7.142   6.524   7.309 -0.7006  1.4192  1.3750
27121SOL    HW283132   7.016   6.495   7.388 -1.6376  2.6502  0.3806
27122SOL     OW83133   4.773   8.520   1.469 -0.1122 -0.1089 -0.1397
27122SOL    HW183134   4.738   8.543   1.555  0.3952 -0.4603  0.1670
27122SOL    HW283135   4.712   8.455   1.434  0.6891 -1.3960  0.7736
27123SOL     OW83136   9.108   5.087   7.408  0.3302  0.2175  0.8378
27123SOL    HW183137   9.196   5.106   7.376  0.4817 -0.4483  0.8511
27123SOL    HW283138   9.050   5.123   7.341  0.6441 -1.9096 -0.6833
27124SOL     OW83139   1.304   6.706   8.983 -0.1022 -0.2018 -0.5650
27124SOL    HW183140   1.330   6.789   8.942 -0.3325  0.8319  1.2498
27124SOL    HW283141   1.379   6.681   9.037 -1.2674  0.7252  1.6149
27125SOL     OW83142   9.609   7.005   3.417 -0.6466 -0.3236  0.1923
27125SOL    HW183143   9.683   6.953   3.384 -1.3492 -2.9419  2.3470
27125SOL    HW283144   9.650   7.071   3.473  0.2209  0.9786 -1.8622
27126SOL     OW83145   7.393   2.646   6.972 -0.7681  0.3791 -0.2799
27126SOL    HW183146   7.319   2.705   6.989 -1.4997 -0.3255 -0.9439
27126SOL    HW283147   7.353   2.560   6.960  0.1302  0.0444 -0.9841
27127SOL     OW83148   8.424   7.411   5.606  0.2818 -0.2395  0.0365
27127SOL    HW183149   8.416   7.366   5.522  1.5936  0.5611 -0.5444
27127SOL    HW283150   8.339   7.452   5.620  0.5848  1.0868 -1.7768
27128SOL     OW83151   3.551   7.569   1.299  0.5643  0.3906 -0.2876
27128SOL    HW183152   3.612   7.640   1.319  0.1775  0.4635  0.7223
27128SOL    HW283153   3.582   7.495   1.352 -0.1341  0.3905  0.1422
27129SOL     OW83154   3.245   4.233   4.375 -0.0756  0.0910  0.7235
27129SOL    HW183155   3.260   4.304   4.437  0.8322  0.2531  0.3388
27129SOL    HW283156   3.305   4.163   4.403  2.2738  1.1040 -1.4097
27130SOL     OW83157   3.995   6.767   4.012 -0.5403  0.2746  0.0429
27130SOL    HW183158   3.904   6.745   4.035 -0.8360  2.1751  0.8964
27130SOL    HW283159   4.027   6.816   4.088  1.1843 -0.2670 -0.3007
27131SOL     OW83160   3.388   2.354   2.617 -0.5935 -0.4447 -0.5036
27131SOL    HW183161   3.324   2.315   2.557 -0.5186 -0.5692 -0.5026
27131SOL    HW283162   3.440   2.280   2.648 -2.2238 -0.8137  1.6483
27132SOL     OW83163   7.425   5.542   5.668 -0.1196 -0.3466  0.2426
27132SOL    HW183164   7.512   5.505   5.654 -0.3411 -0.3859 -1.3055
27132SOL    HW283165   7.426   5.625   5.619 -0.2172  0.8282  2.1575
27133SOL     OW83166   6.263   9.068   9.183 -0.0992 -0.2830  0.0776
27133SOL    HW183167   6.309   9.021   9.252  0.0263 -1.0007 -0.4893
27133SOL    HW283168   6.304   9.039   9.102  0.1870  1.0229 -0.2760
27134SOL     OW83169   6.226   5.908   0.824  0.0315 -0.3081  0.1365
27134SOL    HW183170   6.279   5.897   0.745  0.3529  0.4317  0.2457
27134SOL    HW283171   6.176   5.988   0.808 -1.3063 -1.1589 -0.1026
27135SOL     OW83172   3.410   3.118   0.411  0.2486  0.3463 -0.9367
27135SOL    HW183173   3.502   3.135   0.390  0.3386  0.0382 -0.7902
27135SOL    HW283174   3.377   3.203   0.439  0.2122  0.7009 -1.9885
27136SOL     OW83175   4.726   9.185   8.095 -0.4906  0.0800  0.1334
27136SOL    HW183176   4.759   9.163   8.182 -1.8176  2.1343  1.2380
27136SOL    HW283177   4.750   9.277   8.082  2.8175 -0.9787 -3.2697
27137SOL     OW83178   5.643   9.010   0.821  0.6851 -0.4150  0.2383
27137SOL    HW183179   5.686   9.094   0.833 -1.0098  0.1667  3.6087
27137SOL    HW283180   5.595   9.019   0.739 -2.0816  3.3548  1.9455
27138SOL     OW83181   8.168   0.532   7.983 -0.4916 -0.0500 -0.7466
27138SOL    HW183182   8.251   0.511   7.939 -0.0499  1.0123 -0.4655
27138SOL    HW283183   8.151   0.623   7.958 -1.1255  0.0148 -0.1019
27139SOL     OW83184   2.003   7.301   8.815 -0.0868  0.2370  0.0449
27139SOL    HW183185   1.944   7.334   8.747  0.8658 -0.8150 -1.3524
27139SOL    HW283186   2.082   7.276   8.768  0.3786 -1.1076  1.4609
27140SOL     OW83187   8.056   4.201   4.374  0.3603  0.3814 -0.7180
27140SOL    HW183188   8.103   4.285   4.379 -1.4873  1.4928 -1.0345
27140SOL    HW283189   7.984   4.211   4.437  1.8892 -2.2353  1.6750
27141SOL     OW83190   9.060   0.800   1.420 -0.4231  0.0881 -0.4083
27141SOL    HW183191   9.136   0.822   1.474 -1.0853  1.0898  0.1424
27141SOL    HW283192   9.097   0.759   1.342  0.5856 -0.9998  0.5948
27142SOL     OW83193   1.754   8.063   8.426  0.3634  0.1407  0.0590
27142SOL    HW183194   1.726   8.006   8.355  0.3102  1.2376 -0.8303
27142SOL    HW283195   1.842   8.034   8.448  0.6692  0.2550 -0.9693
27143SOL     OW83196   7.637   1.015   9.500 -0.6412 -0.0780 -0.0023
27143SOL    HW183197   7.609   0.943   9.444  1.0753 -0.8086  0.0209
27143SOL    HW283198   7.718   0.984   9.541 -0.2523  1.5783  0.5701
27144SOL     OW83199   4.926   1.933   1.272 -0.1303 -0.1978  0.2028
27144SOL    HW183200   4.934   1.875   1.348 -0.0710  1.1671  1.2838
27144SOL    HW283201   5.005   1.915   1.221  0.1833 -0.6565  0.8259
27145SOL     OW83202   1.275   5.894   9.181  0.2212  0.5153  0.0160
27145SOL    HW183203   1.241   5.925   9.264  1.3515  0.8893  0.3562
27145SOL    HW283204   1.340   5.828   9.205 -0.1522 -0.0945 -0.6097
27146SOL     OW83205   0.850   0.712   2.481  0.3630  0.8121  0.2661
27146SOL    HW183206   0.877   0.802   2.496 -0.8998  1.5019 -1.1855
27146SOL    HW283207   0.797   0.689   2.557  0.3974  1.4371  0.4801
27147SOL     OW83208   8.355   4.108   3.774  0.0451 -0.1440 -0.0443
27147SOL    HW183209   8.351   4.084   3.681 -1.8790  1.1174 -0.3320
27147SOL    HW283210   8.448   4.126   3.789  0.3259  0.2478 -1.9075
27148SOL     OW83211   3.225   8.249   1.794  0.1367 -0.2296  0.7587
27148SOL    HW183212   3.199   8.292   1.876  0.1991  1.4856 -0.0769
27148SOL    HW283213   3.250   8.321   1.736  0.5444 -1.4356 -0.6240
27149SOL     OW83214   1.328   3.223   4.274 -0.7927  0.0641  0.2508
27149SOL    HW183215   1.303   3.271   4.353 -0.1487 -1.0961  1.1781
27149SOL    HW283216   1.290   3.274   4.202 -0.8924  1.4625  1.2592
27150SOL     OW83217   3.052   7.566   4.686  0.1700 -0.1361 -0.1544
27150SOL    HW183218   3.061   7.590   4.779  1.8087  1.0268 -0.5640
27150SOL    HW283219   2.978   7.618   4.655  0.3950  0.4309  0.2272
27151SOL     OW83220   1.854   6.855   3.718 -0.0936  0.0844 -0.1819
27151SOL    HW183221   1.791   6.906   3.667 -0.0337  0.0296 -0.3126
27151SOL    HW283222   1.852   6.768   3.679  1.9110  0.7114 -1.8768
27152SOL     OW83223   7.212   0.765   0.563  0.2298 -0.2003 -0.0836
27152SOL    HW183224   7.238   0.676   0.587  1.5988  0.0297 -0.6085
27152SOL    HW283225   7.264   0.821   0.621 -1.1792  0.2824  0.7721
27153SOL     OW83226   9.284   5.942   8.837 -0.5536 -0.1983  0.1260
27153SOL    HW183227   9.227   5.903   8.770  0.5962  1.0094 -1.6463
27153SOL    HW283228   9.313   5.867   8.889 -2.7170 -0.9877  0.2957
27154SOL     OW83229   9.106   7.015   7.481  0.3680  0.7555  0.0739
27154SOL    HW183230   9.086   7.107   7.463  1.3436  0.9698  0.0511
27154SOL    HW283231   9.201   7.012   7.491  0.3850 -0.3110 -0.2494
27155SOL     OW83232   0.852   1.287   3.962  0.1821  0.4610 -0.1875
27155SOL    HW183233   0.843   1.204   4.009  0.5625  0.7261  0.3506
27155SOL    HW283234   0.873   1.260   3.872  1.9600 -0.0231  0.3313
27156SOL     OW83235   4.763   7.453   5.130  0.2610  0.0287 -0.2023
27156SOL    HW183236   4.775   7.546   5.111 -0.7987  0.1423 -0.3270
27156SOL    HW283237   4.709   7.420   5.058 -0.4723 -0.3969  0.5316
27157SOL     OW83238   0.416   4.811   6.179 -0.2034 -0.6671 -0.0725
27157SOL    HW183239   0.426   4.717   6.162 -0.7620 -0.7397 -0.0186
27157SOL    HW283240   0.393   4.849   6.094 -0.1629 -0.6050 -0.0566
27158SOL     OW83241   0.718   9.234   6.487  0.6513 -1.1410  0.1055
27158SOL    HW183242   0.655   9.186   6.540  0.9751  0.0209  1.6248
27158SOL    HW283243   0.791   9.252   6.547  0.3539  1.5499 -0.2159
27159SOL     OW83244   1.610   6.908   4.423 -0.0619  0.0468  0.7267
27159SOL    HW183245   1.591   6.903   4.516 -0.1507  0.4913  0.7345
27159SOL    HW283246   1.607   6.817   4.393 -2.0178  0.0563  0.7581
27160SOL     OW83247   3.813   5.077   1.465 -0.1515 -0.5891 -0.4258
27160SOL    HW183248   3.868   5.004   1.435 -1.1208 -1.1082 -1.0016
27160SOL    HW283249   3.756   5.038   1.531 -0.6186 -0.3372 -0.6793
27161SOL     OW83250   4.277   5.096   1.146  0.1863  0.1998 -0.2654
27161SOL    HW183251   4.185   5.106   1.120  0.1262 -3.5583 -2.1232
27161SOL    HW283252   4.324   5.159   1.091 -1.0059 -0.2569 -1.9049
27162SOL     OW83253   2.622   2.063   7.212 -0.1247 -0.0984 -0.0438
27162SOL    HW183254   2.684   2.013   7.160 -0.5456 -0.8316  0.1392
27162SOL    HW283255   2.676   2.122   7.264  0.4765 -1.2605  0.6851
27163SOL     OW83256   6.831   0.180   9.282 -0.2542  0.2978 -0.5682
27163SOL    HW183257   6.781   0.143   9.355 -0.2264 -1.0847 -1.2291
27163SOL    HW283258   6.902   0.228   9.324  0.6031 -1.6617  0.3355
27164SOL     OW83259   1.590   0.244   3.042  0.0233  0.3647 -0.2895
27164SOL    HW183260   1.679   0.226   3.071  0.4556  1.7684 -0.6733
27164SOL    HW283261   1.535   0.215   3.115  0.8774  0.6436  0.4845
27165SOL     OW83262   5.122   2.728   5.691 -0.4840  0.3539  0.7606
27165SOL    HW183263   5.084   2.802   5.643  0.1746  1.3848  1.7906
27165SOL    HW283264   5.128   2.758   5.781  1.8276 -0.1257  0.8338
27166SOL     OW83265   2.634   0.623   0.914  0.0113 -0.7116  0.1472
27166SOL    HW183266   2.730   0.620   0.915  0.0054 -1.7838 -0.7862
27166SOL    HW283267   2.607   0.532   0.903 -1.0659 -0.2371 -1.4772
27167SOL     OW83268   3.054   6.725   5.722 -0.1403  0.1580  0.0340
27167SOL    HW183269   2.977   6.735   5.778 -0.3638  0.8388 -0.3775
27167SOL    HW283270   3.128   6.745   5.778 -0.2171 -0.9179  0.5490
27168SOL     OW83271   3.455   6.411   9.104  0.6101 -0.2274 -0.0063
27168SOL    HW183272   3.435   6.468   9.030 -1.5619  0.2071  0.8425
27168SOL    HW283273   3.418   6.326   9.080  0.3323 -0.2144  0.3738
27169SOL     OW83274   8.705   0.616   6.743 -0.0591  0.7759  0.3997
27169SOL    HW183275   8.761   0.656   6.808  2.7929 -2.4449  0.2344
27169SOL    HW283276   8.763   0.598   6.669 -1.2334 -2.4631  0.0745
27170SOL     OW83277   0.486   1.077   1.129  0.1309  0.5346 -0.3050
27170SOL    HW183278   0.434   1.037   1.060 -1.0845  1.1919  0.2009
27170SOL    HW283279   0.472   1.020   1.205  0.6990  0.3424 -0.3406
27171SOL     OW83280   8.996   6.264   9.738 -0.1348 -0.1309 -0.0999
27171SOL    HW183281   9.002   6.329   9.667 -0.7922  1.6720  1.3975
27171SOL    HW283282   9.047   6.302   9.809  0.6674 -1.9940  0.3697
27172SOL     OW83283   3.733   6.311   6.280  0.5857  0.5382 -0.1036
27172SOL    HW183284   3.642   6.339   6.269 -0.4742 -2.3964  0.2489
27172SOL    HW283285   3.740   6.289   6.373  1.5184  0.3702 -0.2055
27173SOL     OW83286   1.404   5.423   1.892  0.0138 -0.7877  0.9188
27173SOL    HW183287   1.450   5.441   1.810 -2.0785  2.0942  0.1969
27173SOL    HW283288   1.466   5.448   1.960  0.7695 -0.3748  0.1044
27174SOL     OW83289   1.345   1.784   4.803  0.0709 -0.3506  0.1823
27174SOL    HW183290   1.293   1.835   4.742 -0.5166 -1.2623 -0.1008
27174SOL    HW283291   1.290   1.778   4.882  0.7946  0.7622  0.7853
27175SOL     OW83292   0.613   1.327   4.844 -0.2312  1.0292  0.1050
27175SOL    HW183293   0.545   1.260   4.833  2.9630 -2.2668 -1.8836
27175SOL    HW283294   0.587   1.374   4.923 -4.0340 -0.8822  0.2441
27176SOL     OW83295   9.464   2.840   6.624  0.5849 -0.1646  0.3079
27176SOL    HW183296   9.531   2.850   6.691  2.0054 -0.1221 -1.0626
27176SOL    HW283297   9.511   2.849   6.541 -0.8383 -1.7948 -0.7431
27177SOL     OW83298   2.585   6.543   7.734 -0.0483  0.0682 -0.1451
27177SOL    HW183299   2.619   6.481   7.669  0.6936  2.0945 -1.8078
27177SOL    HW283300   2.656   6.556   7.796 -0.1973 -0.6810  0.1950
27178SOL     OW83301   7.553   2.829   6.606 -0.4697 -0.2293 -0.1805
27178SOL    HW183302   7.616   2.856   6.539 -0.1229 -0.9175 -0.1425
27178SOL    HW283303   7.506   2.755   6.567 -2.2651  1.1590 -0.7585
27179SOL     OW83304   2.035   8.607   2.447 -0.1250  0.0243 -0.0697
27179SOL    HW183305   1.945   8.608   2.479 -0.0893  2.2740  0.0988
27179SOL    HW283306   2.051   8.516   2.423 -2.6954 -0.2865 -0.8676
27180SOL     OW83307   0.406   3.637   1.812 -0.2503 -0.8229  0.0531
27180SOL    HW183308   0.359   3.719   1.799 -0.5002 -0.8051  1.0193
27180SOL    HW283309   0.468   3.633   1.739 -0.3506  0.1377 -0.0939
27181SOL     OW83310   7.238   1.434   3.698 -0.5055  0.0028  0.1194
27181SOL    HW183311   7.186   1.514   3.700  1.7638  1.6070 -0.3469
27181SOL    HW283312   7.191   1.376   3.638 -1.6671  1.3948 -0.3819
27182SOL     OW83313   8.249   5.734   3.127 -0.0308 -0.3297 -0.1497
27182SOL    HW183314   8.276   5.754   3.217 -0.3486  2.3056 -0.5651
27182SOL    HW283315   8.329   5.738   3.076  0.0040 -0.8582 -0.1414
27183SOL     OW83316   4.068   8.437   1.671  0.2452  0.5254  0.4166
27183SOL    HW183317   4.145   8.411   1.722  0.9014  1.7924  0.1174
27183SOL    HW283318   4.077   8.532   1.661 -0.1242  0.3913 -1.6183
27184SOL     OW83319   5.115   5.476   3.908 -0.0466 -0.2855 -0.8548
27184SOL    HW183320   5.068   5.449   3.829  1.1878 -0.5808 -1.5177
27184SOL    HW283321   5.097   5.570   3.915 -2.3950 -0.7336  0.1032
27185SOL     OW83322   4.434   2.297   3.237  0.2716  0.2292  0.0409
27185SOL    HW183323   4.442   2.260   3.149  0.8627  3.2494 -1.2987
27185SOL    HW283324   4.518   2.341   3.252  0.4738 -0.8148  2.4856
27186SOL     OW83325   3.364   1.921   5.888 -0.0364  0.2150  0.0941
27186SOL    HW183326   3.412   1.997   5.855  1.3073 -1.1067 -1.0842
27186SOL    HW283327   3.315   1.888   5.813  0.5192 -0.9212  0.2101
27187SOL     OW83328   8.905   2.547   2.067 -0.1834 -0.2864  0.1927
27187SOL    HW183329   8.977   2.488   2.046  0.0513 -0.1720  0.6578
27187SOL    HW283330   8.948   2.626   2.099 -0.5189 -0.4903  1.1861
27188SOL     OW83331   6.527   8.277   2.914 -0.4308  0.2944  0.2479
27188SOL    HW183332   6.563   8.366   2.909 -0.5759  0.3262 -0.3677
27188SOL    HW283333   6.597   8.225   2.952  0.2550  0.3708 -0.8648
27189SOL     OW83334   2.771   5.892   6.302 -0.2990  0.2666  0.2291
27189SOL    HW183335   2.835   5.927   6.365 -2.1103  0.9729  1.7772
27189SOL    HW283336   2.689   5.889   6.351 -1.1180 -2.3275 -1.1264
27190SOL     OW83337   6.792   8.876   4.726  0.2019  0.3435  0.1335
27190SOL    HW183338   6.799   8.833   4.641 -1.1317 -0.4126  0.3816
27190SOL    HW283339   6.802   8.804   4.790  1.8910  0.9935  0.6634
27191SOL     OW83340   9.026   1.328   5.851  0.2254 -0.2272 -0.4490
27191SOL    HW183341   9.096   1.287   5.801  0.7162  0.3502 -0.2474
27191SOL    HW283342   9.055   1.418   5.864  0.2235 -0.4174  1.0724
27192SOL     OW83343   3.925   3.469   6.288  0.1671  0.4673 -0.1683
27192SOL    HW183344   3.880   3.527   6.349  2.4606  1.1046  1.0300
27192SOL    HW283345   3.957   3.528   6.219  0.6502  0.3305 -0.0698
27193SOL     OW83346   7.839   4.743   4.820 -0.5510  0.4123 -0.2355
27193SOL    HW183347   7.793   4.708   4.744 -1.0865  0.2272  0.1678
27193SOL    HW283348   7.772   4.749   4.888  0.3570 -1.4103  0.8838
27194SOL     OW83349   5.319   3.967   8.568  0.6373  0.1889 -0.1928
27194SOL    HW183350   5.293   4.038   8.627  0.9553  0.1552 -0.0120
27194SOL    HW283351   5.295   3.887   8.614 -0.5288  0.1855 -0.7716
27195SOL     OW83352   0.221   6.262   6.790 -0.1840  0.1824 -0.3326
27195SOL    HW183353   0.245   6.230   6.877  0.1714 -1.9376 -1.1549
27195SOL    HW283354   0.172   6.343   6.808  1.2410  0.6913  1.7295
27196SOL     OW83355   9.481   8.046   7.456  0.2215  0.4548  0.0133
27196SOL    HW183356   9.451   7.956   7.465 -1.8602  1.0869  0.0452
27196SOL    HW283357   9.507   8.072   7.544 -0.4092  0.2748  0.2569
27197SOL     OW83358   8.944   6.203   7.074 -0.6151 -0.9193  0.0097
27197SOL    HW183359   8.869   6.160   7.033 -0.6256 -0.2077 -0.7410
27197SOL    HW283360   9.019   6.148   7.049 -0.8116 -1.3289  0.3094
27198SOL     OW83361   9.571   9.741   8.450  0.2334  0.2483  0.0737
27198SOL    HW183362   9.628   9.696   8.512  0.5114  1.2396  0.5578
27198SOL    HW283363   9.515   9.796   8.505 -0.5963 -0.0461 -0.4555
27199SOL     OW83364   9.474   9.165   8.961 -0.4117 -0.0142  0.5463
27199SOL    HW183365   9.510   9.123   9.039 -0.8762 -2.1631 -0.3335
27199SOL    HW283366   9.382   9.142   8.961 -0.1312 -1.3586 -1.3963
27200SOL     OW83367   3.264   2.990   3.483  0.2153 -0.3211  0.1854
27200SOL    HW183368   3.350   2.950   3.487  0.3203 -0.0649  0.5422
27200SOL    HW283369   3.203   2.916   3.485  0.4329 -0.5839 -1.4424
27201SOL     OW83370   3.686   9.662   8.691  0.2379 -0.3212  0.5744
27201SOL    HW183371   3.692   9.711   8.609 -0.7878  1.4068  1.4913
27201SOL    HW283372   3.627   9.589   8.671 -1.2796  0.9867  0.1717
27202SOL     OW83373   4.338   8.980   5.147 -0.0615  0.2194  0.2192
27202SOL    HW183374   4.318   8.886   5.145 -1.3488  0.4812 -0.9903
27202SOL    HW283375   4.426   8.987   5.111  0.0685 -0.5139  0.3782
27203SOL     OW83376   2.988   1.255   3.284 -0.0259 -0.0339 -0.3474
27203SOL    HW183377   3.014   1.202   3.360 -1.4494 -1.6535 -0.9363
27203SOL    HW283378   2.908   1.214   3.252 -1.3443  2.6149 -0.7517
27204SOL     OW83379   5.513   6.636   5.496 -0.4455  0.0394  0.1873
27204SOL    HW183380   5.464   6.616   5.417 -0.1435  0.2863 -0.0633
27204SOL    HW283381   5.583   6.571   5.499  0.3358  0.8161 -0.4530
27205SOL     OW83382   4.255   8.601   0.288 -0.2399  0.0703  0.0280
27205SOL    HW183383   4.250   8.683   0.239  0.7596 -0.8416 -1.6934
27205SOL    HW283384   4.340   8.606   0.334 -0.5127  0.2975  0.5162
27206SOL     OW83385   1.873   3.064   6.128  0.1122  0.2507 -0.5982
27206SOL    HW183386   1.924   3.144   6.120  1.0847 -0.3012 -0.0801
27206SOL    HW283387   1.784   3.094   6.150  1.0791  1.1697  2.6656
27207SOL     OW83388   5.552   7.126   6.313 -0.4595 -0.3184  0.0822
27207SOL    HW183389   5.529   7.212   6.277 -1.4635 -0.8356 -0.5662
27207SOL    HW283390   5.527   7.064   6.245 -0.0696 -1.1527  0.6794
27208SOL     OW83391   0.321   3.450   3.214  0.8637 -0.2139 -0.1831
27208SOL    HW183392   0.396   3.461   3.155  0.2966  3.2349 -0.4441
27208SOL    HW283393   0.333   3.517   3.282 -0.5827 -1.4346  1.3763
27209SOL     OW83394   1.751   7.404   2.166  0.3939 -0.6284 -0.2933
27209SOL    HW183395   1.685   7.472   2.179  0.5469 -0.5912  0.3577
27209SOL    HW283396   1.832   7.453   2.148  0.0878 -0.6901 -1.9370
27210SOL     OW83397   4.435   6.953   1.188  0.2415  0.0618 -0.0929
27210SOL    HW183398   4.515   6.950   1.135 -1.2277  2.2156 -2.7043
27210SOL    HW283399   4.440   7.037   1.233  1.3760 -1.6649  3.2834
27211SOL     OW83400   0.765   6.564   6.696 -0.1984  0.6093  0.0155
27211SOL    HW183401   0.807   6.499   6.752  0.6869 -0.9943 -2.3187
27211SOL    HW283402   0.838   6.611   6.655 -0.6736 -0.2621 -1.9337
27212SOL     OW83403   0.392   1.777   2.372 -0.5416  0.1559  0.3564
27212SOL    HW183404   0.475   1.817   2.396  0.6602 -1.3096 -1.1551
27212SOL    HW283405   0.389   1.782   2.276 -0.4538 -2.9573  0.0907
27213SOL     OW83406   5.769   3.297   0.494  0.0526 -0.1665  0.4483
27213SOL    HW183407   5.757   3.364   0.560  1.5734  0.3879  0.2056
27213SOL    HW283408   5.737   3.336   0.413  0.9487  0.2933  0.3052
27214SOL     OW83409   9.659   1.901   1.571  0.0465 -0.0537  0.1567
27214SOL    HW183410   9.610   1.837   1.520  0.8276 -1.2592  0.8440
27214SOL    HW283411   9.743   1.909   1.525 -0.7225  1.9395 -0.9763
27215SOL     OW83412   5.207   5.468   6.541 -0.0775 -0.0765  0.3279
27215SOL    HW183413   5.112   5.454   6.534 -0.1892  0.9241 -0.5338
27215SOL    HW283414   5.241   5.449   6.454  0.4043  0.2653  0.4339
27216SOL     OW83415   7.475   3.763   5.143  0.1797  0.3022  1.0233
27216SOL    HW183416   7.395   3.815   5.146 -1.0172 -1.4886  2.2311
27216SOL    HW283417   7.545   3.827   5.155 -1.0721  1.8644  0.3827
27217SOL     OW83418   6.078   2.664   2.527 -0.1048  0.1611  0.0770
27217SOL    HW183419   6.092   2.597   2.594 -1.6421  0.8400  1.1484
27217SOL    HW283420   6.053   2.742   2.576 -1.8366  0.5403 -1.2802
27218SOL     OW83421   6.484   7.532   3.009  0.1738  0.2589 -0.4949
27218SOL    HW183422   6.536   7.603   2.971  0.5381 -0.6947 -1.8068
27218SOL    HW283423   6.549   7.477   3.054 -0.0907  0.6470  0.3874
27219SOL     OW83424   7.083   3.014   5.002 -0.5999 -0.0202  0.2047
27219SOL    HW183425   7.064   3.005   5.096  0.1314  1.0584  0.4759
27219SOL    HW283426   7.173   3.046   5.000 -0.8622  0.6779 -0.8494
27220SOL     OW83427   1.621   2.490   9.799 -0.4988 -0.5456  0.1388
27220SOL    HW183428   1.656   2.508   9.711  1.1631 -0.4854  0.7807
27220SOL    HW283429   1.617   2.576   9.841 -1.9388 -0.4857 -0.0787
27221SOL     OW83430   3.562   1.814   1.396 -0.0025 -0.6799  0.5000
27221SOL    HW183431   3.573   1.739   1.338  0.4712  0.6716 -1.2519
27221SOL    HW283432   3.590   1.782   1.482  0.9015 -2.2956 -0.3360
27222SOL     OW83433   9.074   9.198   1.111  0.7880  0.8056 -0.2947
27222SOL    HW183434   9.104   9.207   1.021  0.9693 -0.2982 -0.3593
27222SOL    HW283435   9.133   9.255   1.162  0.8843  1.1873 -0.8226
27223SOL     OW83436   7.133   2.180   4.660 -0.4746 -0.3328  0.0140
27223SOL    HW183437   7.136   2.092   4.697  0.0077 -0.2754  0.1228
27223SOL    HW283438   7.156   2.167   4.567  0.8454 -0.1899  0.2955
27224SOL     OW83439   9.329   9.622   2.688  0.3750 -0.6223 -0.5297
27224SOL    HW183440   9.323   9.698   2.630  1.4301  0.6069  0.8679
27224SOL    HW283441   9.277   9.554   2.645 -0.1330  0.7030 -2.1172
27225SOL     OW83442   8.562   3.994   2.854 -0.3569 -0.6288 -0.1236
27225SOL    HW183443   8.540   3.917   2.802 -1.8647 -1.3659  1.4967
27225SOL    HW283444   8.650   3.977   2.887  0.0025 -0.8479 -1.1680
27226SOL     OW83445   9.051   3.741   3.919 -0.3828  0.0501  0.3586
27226SOL    HW183446   9.015   3.745   3.830 -0.0754  1.4885  0.2718
27226SOL    HW283447   8.978   3.763   3.976 -0.6205 -1.0314  0.4959
27227SOL     OW83448   1.939   7.786   5.617 -0.5241 -0.4501 -0.3905
27227SOL    HW183449   1.988   7.812   5.695 -2.1601  1.4159  0.0928
27227SOL    HW283450   1.929   7.691   5.625  1.9975 -0.7414  0.0255
27228SOL     OW83451   1.683   2.612   1.548  0.6046 -0.4955  0.0984
27228SOL    HW183452   1.659   2.675   1.479 -0.1355 -0.8753  0.0016
27228SOL    HW283453   1.759   2.652   1.591  0.6317  0.0886 -0.4725
27229SOL     OW83454   1.884   1.111   6.655  0.4408  0.1567  0.1504
27229SOL    HW183455   1.921   1.161   6.582  2.1115 -2.2193 -0.7471
27229SOL    HW283456   1.842   1.177   6.710 -0.7973  2.0891 -2.8451
27230SOL     OW83457   0.488   6.448   2.611  0.4085 -0.2031  0.1728
27230SOL    HW183458   0.543   6.513   2.654 -0.1814  0.4011  0.0320
27230SOL    HW283459   0.405   6.452   2.658  0.9105 -2.1441  1.3502
27231SOL     OW83460   4.196   3.068   3.446  0.0063  0.0129  0.5498
27231SOL    HW183461   4.256   2.998   3.471  0.9772  1.3703  2.2395
27231SOL    HW283462   4.238   3.108   3.370  0.3200 -0.1800  0.6180
27232SOL     OW83463   5.085   5.098   2.732 -0.0903 -0.5174  0.1794
27232SOL    HW183464   5.025   5.141   2.792 -1.0536  0.1608 -1.2265
27232SOL    HW283465   5.170   5.140   2.748  0.2530 -1.9638  2.6717
27233SOL     OW83466   2.491   1.974   3.071  0.5826  0.5349  0.4793
27233SOL    HW183467   2.519   1.885   3.050  0.8776  0.6197  0.5040
27233SOL    HW283468   2.487   1.975   3.167 -0.1747  0.3234  0.4517
27234SOL     OW83469   1.504   1.916   6.184  0.6194 -0.0239 -0.0994
27234SOL    HW183470   1.508   1.958   6.270  0.3418 -0.7493  0.2707
27234SOL    HW283471   1.425   1.951   6.144  1.3082  1.1291 -0.4991
27235SOL     OW83472   4.906   7.039   8.251 -0.8083  0.2213 -0.0277
27235SOL    HW183473   4.910   7.129   8.220 -0.5595  0.4176  0.5673
27235SOL    HW283474   4.967   7.035   8.324 -2.7904  0.2729  1.7296
27236SOL     OW83475   6.758   0.431   7.149 -0.2751 -0.5370  0.8755
27236SOL    HW183476   6.719   0.350   7.182 -0.0861 -1.9011 -1.9433
27236SOL    HW283477   6.685   0.477   7.107  0.2445 -1.0803 -0.7214
27237SOL     OW83478   4.473   2.213   7.928 -0.4101  0.3034  0.1510
27237SOL    HW183479   4.385   2.175   7.933  0.2526 -1.1641  1.6323
27237SOL    HW283480   4.521   2.172   8.000  2.0968 -0.4388 -1.8011
27238SOL     OW83481   2.849   3.778   2.736 -0.2133  0.2554 -0.0777
27238SOL    HW183482   2.762   3.797   2.771 -1.4234 -0.3532 -2.5703
27238SOL    HW283483   2.882   3.707   2.792 -1.4689  0.2406  0.6814
27239SOL     OW83484   3.111   6.957   2.708 -0.4662 -0.6521  0.2250
27239SOL    HW183485   3.025   6.974   2.670 -0.5322  0.0665  0.6901
27239SOL    HW283486   3.148   7.044   2.725  0.5979 -0.9338 -0.5222
27240SOL     OW83487   5.225   7.348   9.264 -0.3763 -0.4892 -0.1677
27240SOL    HW183488   5.172   7.270   9.279 -0.9498 -0.1536 -0.3905
27240SOL    HW283489   5.161   7.420   9.261  0.2625  0.2513  1.8153
27241SOL     OW83490   8.003   1.723   3.994 -0.1365  0.1723  0.2132
27241SOL    HW183491   8.089   1.743   3.957 -0.7910 -1.4674 -2.5194
27241SOL    HW283492   7.948   1.706   3.917 -2.5023 -0.3530  1.9244
27242SOL     OW83493   2.396   5.754   6.986 -0.2747  0.5880  0.1998
27242SOL    HW183494   2.382   5.686   7.052 -0.2998 -1.3663 -1.7167
27242SOL    HW283495   2.485   5.738   6.954 -0.9582  0.1462 -1.6209
27243SOL     OW83496   7.161   3.311   3.380 -0.2035  0.0268  0.0689
27243SOL    HW183497   7.241   3.269   3.412  0.0708  0.6308  0.1933
27243SOL    HW283498   7.124   3.354   3.457 -1.5307 -1.5902  0.3871
27244SOL     OW83499   6.468   3.071   5.294  0.2104 -0.1631 -0.3597
27244SOL    HW183500   6.473   3.107   5.382 -1.4070 -0.0648 -0.2808
27244SOL    HW283501   6.557   3.081   5.259  0.6548  0.6214  0.9193
27245SOL     OW83502   5.810   2.983   6.543  0.2170  0.7449 -0.0006
27245SOL    HW183503   5.729   2.934   6.525  0.6965 -0.0734  0.0158
27245SOL    HW283504   5.812   2.992   6.638  0.8201 -0.4425  0.1149
27246SOL     OW83505   5.219   6.342   5.126  0.0892  0.2230  0.1178
27246SOL    HW183506   5.178   6.401   5.189  0.1231  0.0802  0.2776
27246SOL    HW283507   5.312   6.362   5.132 -0.0379  1.1075 -0.8370
27247SOL     OW83508   8.504   5.823   1.359 -0.0336  0.3866  0.1010
27247SOL    HW183509   8.460   5.878   1.424 -0.2553  0.2541  0.0635
27247SOL    HW283510   8.434   5.790   1.304  0.2496  1.3094 -0.8280
27248SOL     OW83511   2.333   4.105   7.186  0.2891  0.1643 -0.0725
27248SOL    HW183512   2.245   4.069   7.196 -0.3322  1.2674 -1.2414
27248SOL    HW283513   2.388   4.029   7.165 -1.0920 -0.1607 -3.1007
27249SOL     OW83514   4.496   4.304   4.697 -0.2287  0.6530  0.6831
27249SOL    HW183515   4.481   4.339   4.609  0.4363  3.0210  1.4307
27249SOL    HW283516   4.411   4.270   4.724 -0.5661  0.3524 -0.6722
27250SOL     OW83517   2.734   7.500   7.634 -0.0659 -0.0880  0.3245
27250SOL    HW183518   2.669   7.431   7.639 -1.1764  0.8707 -0.4146
27250SOL    HW283519   2.760   7.503   7.542 -0.2556  0.6667  0.2872
27251SOL     OW83520   8.847   6.440   2.300  0.1160  0.0613  0.2448
27251SOL    HW183521   8.939   6.411   2.302 -0.0340 -0.3948  0.5997
27251SOL    HW283522   8.816   6.413   2.213  0.4626  0.6856 -0.0816
27252SOL     OW83523   2.546   6.358   4.947 -0.5587 -0.0867 -0.1158
27252SOL    HW183524   2.464   6.408   4.942  0.3051  1.2639 -2.2576
27252SOL    HW283525   2.602   6.398   4.881  1.6738 -1.3156  0.9376
27253SOL     OW83526   6.731   6.241   6.555 -0.1016 -0.2781  0.4771
27253SOL    HW183527   6.817   6.213   6.524  0.0763  0.2025  0.5226
27253SOL    HW283528   6.672   6.171   6.529  0.4547 -1.0774  1.2913
27254SOL     OW83529   6.533   9.130   0.989 -0.2062 -0.2561 -0.1151
27254SOL    HW183530   6.569   9.059   0.935 -0.5588  0.8768 -1.9072
27254SOL    HW283531   6.608   9.184   1.012 -0.3387  0.4814 -1.3692
27255SOL     OW83532   0.642   6.680   0.782 -0.0707 -0.7724  0.1672
27255SOL    HW183533   0.709   6.710   0.721 -0.1073 -0.3217  0.3439
27255SOL    HW283534   0.559   6.699   0.738 -0.0844 -1.2162  0.0012
27256SOL     OW83535   1.586   2.572   2.532  0.6768 -0.2198 -0.1389
27256SOL    HW183536   1.564   2.575   2.625  2.3352  2.8875  0.2947
27256SOL    HW283537   1.514   2.619   2.489  1.8546  1.9941  0.1719
27257SOL     OW83538   8.775   3.212   7.855 -0.6381  0.2076 -0.3037
27257SOL    HW183539   8.705   3.276   7.865  0.1522  1.3585 -1.7428
27257SOL    HW283540   8.842   3.257   7.803 -0.0281 -1.7471 -1.3314
27258SOL     OW83541   0.031   2.564   9.461 -0.2591 -0.4497  0.0583
27258SOL    HW183542   0.096   2.494   9.475 -0.4214  0.0632  5.4907
27258SOL    HW283543   0.082   2.645   9.460 -0.5088 -0.2858 -0.8076
27259SOL     OW83544   5.962   4.057   4.201  0.2786 -0.3053 -0.4926
27259SOL    HW183545   6.045   4.094   4.231 -0.1307 -0.2217  0.5913
27259SOL    HW283546   5.979   4.029   4.112  0.5633  2.7272 -1.5006
27260SOL     OW83547   9.454   4.019   1.815 -0.5034 -0.1261 -0.4967
27260SOL    HW183548   9.541   3.983   1.830 -0.9524 -0.9272  0.3224
27260SOL    HW283549   9.418   4.030   1.903 -1.1871  0.3035 -0.8255
27261SOL     OW83550   9.420   9.758   1.985  0.0062  0.0569 -0.2744
27261SOL    HW183551   9.498   9.814   1.980  0.7789 -1.0046 -0.4300
27261SOL    HW283552   9.440   9.683   1.929  0.2050 -1.7908  2.0726
27262SOL     OW83553   6.238   1.800   8.005 -0.1582 -0.4931  0.2755
27262SOL    HW183554   6.161   1.772   7.956 -0.0274 -1.2297  0.4680
27262SOL    HW283555   6.229   1.895   8.013 -0.4315 -0.4190 -0.7334
27263SOL     OW83556   3.048   7.631   5.010  0.0378  0.7586  0.7141
27263SOL    HW183557   3.010   7.704   5.057 -0.9391 -0.0522  1.2245
27263SOL    HW283558   3.043   7.557   5.071 -0.4991 -0.1138 -0.3475
27264SOL     OW83559   8.585   4.194   1.718 -0.0009  0.0178 -0.0143
27264SOL    HW183560   8.571   4.137   1.643 -0.9139  0.9268 -0.5466
27264SOL    HW283561   8.666   4.241   1.697  0.7603 -1.0440  0.4287
27265SOL     OW83562   0.230   0.068   1.388  0.6154  0.3474 -0.2127
27265SOL    HW183563   0.238   0.054   1.293  1.7502  0.1727 -0.1005
27265SOL    HW283564   0.199  -0.015   1.422 -0.3289  0.5749 -0.4883
27266SOL     OW83565   2.149   3.350   3.808  0.3025 -0.6724 -0.2120
27266SOL    HW183566   2.178   3.353   3.717 -0.9139  1.8715 -0.6011
27266SOL    HW283567   2.055   3.335   3.802  0.0755  0.3425  0.5692
27267SOL     OW83568   3.998   6.139   3.436  0.0137 -0.4923 -0.3254
27267SOL    HW183569   3.959   6.223   3.455  0.2197 -0.6622  0.8971
27267SOL    HW283570   3.935   6.075   3.468 -0.3400 -0.8284 -1.6307
27268SOL     OW83571   3.707   7.946   7.648 -0.1167 -0.2057 -0.1478
27268SOL    HW183572   3.716   7.898   7.566  2.1869 -0.4118  0.1569
27268SOL    HW283573   3.707   8.038   7.622 -2.2952 -0.2547 -0.5447
27269SOL     OW83574   1.776   3.099   9.535  0.3031  0.2645  0.1112
27269SOL    HW183575   1.788   3.032   9.468  0.4870 -0.2588  0.6618
27269SOL    HW283576   1.864   3.126   9.559  0.2567  0.0213  0.5664
27270SOL     OW83577   5.980   2.734   0.963 -0.1481 -0.2527  0.1186
27270SOL    HW183578   5.894   2.745   0.922  0.8377 -0.3873 -2.1759
27270SOL    HW283579   6.006   2.823   0.989 -1.0140 -0.2322  0.9312
27271SOL     OW83580   5.149   4.465   6.633 -0.0082  0.1198 -0.8389
27271SOL    HW183581   5.069   4.413   6.638  0.2994 -0.2153  1.9709
27271SOL    HW283582   5.218   4.401   6.615  0.0635 -0.1576  0.3333
27272SOL     OW83583   3.913   7.125   2.389 -0.1926  0.0399 -0.2728
27272SOL    HW183584   4.006   7.140   2.374 -0.3204  0.4312 -0.6816
27272SOL    HW283585   3.877   7.213   2.403 -0.6655 -0.0253 -1.0697
27273SOL     OW83586   9.513   2.196   6.637 -0.2524 -0.0101  0.0633
27273SOL    HW183587   9.468   2.122   6.679 -0.8238  0.5041  0.3838
27273SOL    HW283588   9.559   2.157   6.563 -1.6686 -0.4978 -0.6061
27274SOL     OW83589   8.893   7.570   2.187  0.0971  0.2415 -0.1604
27274SOL    HW183590   8.893   7.481   2.152 -0.7597 -0.4047  1.3928
27274SOL    HW283591   8.812   7.576   2.238 -0.3625  2.2540 -1.0290
27275SOL     OW83592   8.277   0.302   8.788 -0.2600 -0.1509 -0.6713
27275SOL    HW183593   8.339   0.232   8.770 -0.6223 -0.7810  0.4496
27275SOL    HW283594   8.285   0.361   8.713  1.6354 -0.2451 -0.5921
27276SOL     OW83595   6.224   4.523   6.824  0.7414  0.0936  0.6964
27276SOL    HW183596   6.297   4.463   6.813 -0.8709 -1.7492 -0.7300
27276SOL    HW283597   6.192   4.508   6.913  1.5798  0.3226  1.0394
27277SOL     OW83598   0.820   4.955   7.200  0.1294  0.6217 -0.2964
27277SOL    HW183599   0.742   4.920   7.157 -0.2043  1.8997 -0.7955
27277SOL    HW283600   0.821   4.914   7.286 -0.6744  0.0219 -0.5608
27278SOL     OW83601   2.078   0.032   4.336  0.2310 -0.2907 -0.1829
27278SOL    HW183602   2.162  -0.006   4.362  0.5050  0.1124 -0.4487
27278SOL    HW283603   2.014  -0.006   4.396  0.8423  0.6413  1.1146
27279SOL     OW83604   8.896   8.694   2.362 -0.2695 -0.1403 -0.1036
27279SOL    HW183605   8.879   8.617   2.415 -0.8855  0.0807  0.0223
27279SOL    HW283606   8.810   8.733   2.346 -0.0570  0.0237 -0.9186
27280SOL     OW83607   0.687   2.196   2.496  0.2619  0.0134  0.3120
27280SOL    HW183608   0.629   2.267   2.472 -0.9442 -2.0078 -3.6944
27280SOL    HW283609   0.728   2.224   2.577 -1.4770  4.3722 -0.0745
27281SOL     OW83610   7.910   5.761   0.532  0.0809  0.2020 -0.0540
27281SOL    HW183611   7.838   5.775   0.593 -0.2024 -1.5437  0.0587
27281SOL    HW283612   7.973   5.830   0.553 -0.3852  0.1507  1.6548
27282SOL     OW83613   8.802   1.812   6.884 -0.2845  0.0453 -0.2307
27282SOL    HW183614   8.782   1.838   6.794 -0.1696 -1.2085 -0.6391
27282SOL    HW283615   8.718   1.818   6.930  0.0384  2.8210  0.1890
27283SOL     OW83616   6.746   0.570   8.282  0.5233  0.1714 -0.1485
27283SOL    HW183617   6.822   0.579   8.340  0.3324  0.6882  0.0279
27283SOL    HW283618   6.741   0.654   8.236  0.1149  0.1078 -0.2268
27284SOL     OW83619   0.506   2.211   5.425  0.6116  0.9358 -0.0911
27284SOL    HW183620   0.510   2.260   5.507 -1.0119  1.7997 -0.4922
27284SOL    HW283621   0.473   2.273   5.360  2.0483  0.3302 -1.4787
27285SOL     OW83622   6.802   8.035   9.389  0.2633 -0.0073  0.0272
27285SOL    HW183623   6.789   7.940   9.391 -1.6490  0.2310  2.1045
27285SOL    HW283624   6.737   8.066   9.326 -1.7366  0.1690  2.0541
27286SOL     OW83625   7.644   5.704   7.426  0.5554 -0.2631 -0.2558
27286SOL    HW183626   7.586   5.711   7.350  0.4217  0.4731 -0.0906
27286SOL    HW283627   7.671   5.612   7.426  1.6951  0.0185 -2.0223
27287SOL     OW83628   2.274   5.414   6.964  0.5574 -0.2279  0.3518
27287SOL    HW183629   2.324   5.470   6.904  0.2069 -0.8060 -0.4893
27287SOL    HW283630   2.336   5.393   7.034  0.9665  0.4567  0.2074
27288SOL     OW83631   4.647   4.214   7.954  0.3713 -0.3405 -0.1089
27288SOL    HW183632   4.591   4.137   7.961  0.0196 -0.1786 -1.0266
27288SOL    HW283633   4.599   4.275   7.898  1.3580 -0.1197 -0.7472
27289SOL     OW83634   5.825   7.151   2.936  0.5003 -0.1250  0.1522
27289SOL    HW183635   5.832   7.241   2.969 -1.0650 -0.0555  0.3596
27289SOL    HW283636   5.731   7.135   2.929  0.7247 -0.6086 -3.0842
27290SOL     OW83637   8.838   2.498   1.291  0.1623 -0.2812 -0.2890
27290SOL    HW183638   8.743   2.494   1.296  0.1878  0.3091  1.0161
27290SOL    HW283639   8.869   2.459   1.373  1.0793 -1.2405 -1.0589
27291SOL     OW83640   9.418   2.339   0.521 -0.5535  0.0672  0.2287
27291SOL    HW183641   9.425   2.429   0.489 -1.1634 -0.4205 -1.3605
27291SOL    HW283642   9.479   2.289   0.467 -0.2888 -0.5018  1.0324
27292SOL     OW83643   1.449   5.084   7.185 -0.2836  0.7088 -0.1691
27292SOL    HW183644   1.425   5.174   7.208 -2.9650  0.5636 -1.8571
27292SOL    HW283645   1.421   5.075   7.093  0.3193 -1.7196 -0.1759
27293SOL     OW83646   0.675   2.452   6.109 -0.3491 -0.0452 -0.6031
27293SOL    HW183647   0.699   2.378   6.165 -1.7266  0.1386  0.2734
27293SOL    HW283648   0.688   2.529   6.164 -0.7753  0.2153 -0.8627
27294SOL     OW83649   0.513   7.377   3.581  0.1925 -0.4240 -0.1935
27294SOL    HW183650   0.594   7.326   3.579  0.8411  0.6035 -1.6115
27294SOL    HW283651   0.543   7.468   3.583 -0.9431 -0.0570  1.5010
27295SOL     OW83652   5.642   8.480   3.586 -0.0825  1.2638 -0.0754
27295SOL    HW183653   5.574   8.435   3.536  0.0778 -0.1902  0.9536
27295SOL    HW283654   5.602   8.564   3.610 -0.4292  1.6779 -1.9318
27296SOL     OW83655   4.852   4.631   5.765 -0.2883 -0.1354 -0.0450
27296SOL    HW183656   4.793   4.704   5.746 -0.5337 -0.3182  0.0154
27296SOL    HW283657   4.916   4.633   5.695  0.3502  0.8150  0.5340
27297SOL     OW83658   8.157   2.726   5.482 -0.2178 -0.3944 -0.1225
27297SOL    HW183659   8.222   2.785   5.520 -0.2299 -0.4496 -0.0155
27297SOL    HW283660   8.142   2.660   5.549  0.2113 -0.8404 -0.4518
27298SOL     OW83661   8.186   8.509   0.407 -0.0808 -0.2032  0.2976
27298SOL    HW183662   8.116   8.455   0.443 -0.6341 -0.7768 -1.5487
27298SOL    HW283663   8.224   8.456   0.337  1.6075  0.4615  0.6532
27299SOL     OW83664   2.334   9.589   9.131  0.2130 -0.5477 -0.1976
27299SOL    HW183665   2.275   9.624   9.198  1.9812  1.7094  0.3213
27299SOL    HW283666   2.414   9.568   9.178  1.1109  0.0338 -1.3894
27300SOL     OW83667   8.352   1.113   8.378  0.1545 -0.0260 -0.5860
27300SOL    HW183668   8.349   1.081   8.288 -0.4960 -0.4871 -0.4078
27300SOL    HW283669   8.269   1.158   8.391 -0.2262 -0.8945  0.1127
27301SOL     OW83670   0.934   6.555   2.281 -0.3556  0.0098 -0.2163
27301SOL    HW183671   0.885   6.473   2.288  0.2073 -0.1775  2.3493
27301SOL    HW283672   1.026   6.529   2.282 -0.1662  0.6140 -0.8330
27302SOL     OW83673   3.000   4.195   4.234 -0.6403  0.0773  0.1684
27302SOL    HW183674   3.093   4.206   4.254 -0.7612 -1.0202  1.4662
27302SOL    HW283675   2.956   4.263   4.284 -0.5647  0.3946 -0.1938
27303SOL     OW83676   8.536   3.346   5.569  0.2021  0.3248 -0.4901
27303SOL    HW183677   8.580   3.308   5.645 -0.7571  0.2299  0.0388
27303SOL    HW283678   8.482   3.274   5.535  3.0228 -0.6938 -3.2874
27304SOL     OW83679   4.576   6.326   9.575  0.0787  0.5679  0.0716
27304SOL    HW183680   4.634   6.337   9.651  1.2058  0.4260 -0.7473
27304SOL    HW283681   4.491   6.355   9.607  0.4042 -0.0114  1.5557
27305SOL     OW83682   9.181   6.080   9.253 -0.4534  0.3945 -0.3781
27305SOL    HW183683   9.165   6.173   9.269 -0.5800  0.2882  0.1503
27305SOL    HW283684   9.145   6.036   9.330  0.2429 -0.0336 -0.2817
27306SOL     OW83685   3.969   8.375   0.351 -0.1606  0.8063 -0.1628
27306SOL    HW183686   3.927   8.391   0.266 -1.1976  2.0925  0.5432
27306SOL    HW283687   3.920   8.303   0.389 -0.3105  0.8527 -0.2654
27307SOL     OW83688   0.363   4.649   0.299  0.1087 -0.3604 -0.7927
27307SOL    HW183689   0.417   4.647   0.378  0.7746  0.6599 -1.2027
27307SOL    HW283690   0.367   4.740   0.269 -2.8633  0.0454 -0.1854
27308SOL     OW83691   7.145   0.294   6.272 -0.3706 -0.1079  0.2259
27308SOL    HW183692   7.155   0.241   6.351 -1.0021 -0.4234  0.0947
27308SOL    HW283693   7.186   0.242   6.203  0.0294  0.0918  0.3109
27309SOL     OW83694   2.822   8.089   3.526  0.3633 -0.4660 -0.1172
27309SOL    HW183695   2.893   8.120   3.582 -1.5902  1.2867  1.5334
27309SOL    HW283696   2.777   8.022   3.578 -1.1676  0.8225  0.2969
27310SOL     OW83697   8.791   8.878   5.449 -0.1521  0.1469 -0.5063
27310SOL    HW183698   8.859   8.927   5.494 -2.0602  2.9382 -0.4254
27310SOL    HW283699   8.803   8.788   5.479  3.0189  0.6128 -0.0039
27311SOL     OW83700   3.601   7.992   6.114 -0.3534  0.3385 -0.1489
27311SOL    HW183701   3.541   8.048   6.064 -1.0645  0.5104  0.8595
27311SOL    HW283702   3.610   8.037   6.199  0.3204 -0.2697  0.1137
27312SOL     OW83703   8.144   2.994   2.460  0.2965 -0.2899  0.4638
27312SOL    HW183704   8.093   3.065   2.501 -2.4009 -1.6074 -0.4302
27312SOL    HW283705   8.158   3.024   2.371 -0.9611 -0.8658  0.0459
27313SOL     OW83706   4.953   6.547   6.394  0.1079  0.3135 -0.8128
27313SOL    HW183707   4.884   6.481   6.392  0.8234 -0.4888 -0.0339
27313SOL    HW283708   4.939   6.595   6.475  0.8001 -0.2485 -0.3443
27314SOL     OW83709   6.029   7.596   1.284 -0.3430 -0.1673 -0.7358
27314SOL    HW183710   5.975   7.523   1.255  1.8515 -3.0443  1.7898
27314SOL    HW283711   5.983   7.631   1.360  0.3913 -1.5459  0.4035
27315SOL     OW83712   7.306   7.224   6.490 -0.0547 -0.2939  0.1100
27315SOL    HW183713   7.290   7.307   6.446  0.1197  0.0729  0.7311
27315SOL    HW283714   7.219   7.186   6.503 -0.1212 -0.3081 -0.3529
27316SOL     OW83715   8.275   2.780   8.748 -0.1551  0.0581 -0.4528
27316SOL    HW183716   8.338   2.781   8.821 -0.1820 -1.1579 -0.3988
27316SOL    HW283717   8.274   2.870   8.717  0.9956  0.2778  0.0863
27317SOL     OW83718   7.347   0.597   7.070 -0.1399 -0.1718  0.5611
27317SOL    HW183719   7.307   0.560   6.992 -1.8882  2.3045  0.1447
27317SOL    HW283720   7.438   0.567   7.068  0.1677  0.5858 -2.9937
27318SOL     OW83721   8.212   1.682   5.043 -0.2380 -0.3957  0.2907
27318SOL    HW183722   8.250   1.680   4.956 -1.6040  0.5400 -0.3605
27318SOL    HW283723   8.127   1.638   5.034 -0.0539 -0.9970  1.3311
27319SOL     OW83724   1.257   6.237   5.443 -0.3679  0.0052 -0.1905
27319SOL    HW183725   1.188   6.229   5.377 -0.9259  1.1043  0.2357
27319SOL    HW283726   1.235   6.173   5.510 -1.3878  0.8250  0.2861
27320SOL     OW83727   8.173   8.446   8.876 -0.7840  0.6289  0.2825
27320SOL    HW183728   8.078   8.455   8.877 -0.7486  1.1096 -0.3305
27320SOL    HW283729   8.204   8.518   8.821 -0.1184  0.0696 -0.0929
27321SOL     OW83730   1.705   7.912   3.244 -0.7341 -0.3117  0.0142
27321SOL    HW183731   1.694   7.960   3.326  2.6871 -0.6192  0.7940
27321SOL    HW283732   1.691   7.977   3.175  0.3986  0.9874  0.9612
27322SOL     OW83733   2.003   8.920   7.599  0.4113 -0.5729  0.1097
27322SOL    HW183734   2.019   8.857   7.669 -0.5743  1.2648  2.0861
27322SOL    HW283735   1.909   8.916   7.584  0.3870  0.1907  0.0318
27323SOL     OW83736   7.258   5.721   6.604 -0.1910 -0.8111 -0.1314
27323SOL    HW183737   7.188   5.717   6.539 -0.4681 -1.0084  0.1736
27323SOL    HW283738   7.271   5.814   6.620 -0.6991 -0.7838  0.1385
27324SOL     OW83739   4.719   3.771   8.347  0.0013  0.3589 -0.0033
27324SOL    HW183740   4.745   3.744   8.259 -0.8166 -0.6145  0.0464
27324SOL    HW283741   4.668   3.851   8.333  1.5620  1.3741 -0.2259
27325SOL     OW83742   1.534   6.198   8.779  0.1577 -0.1082  0.2858
27325SOL    HW183743   1.614   6.147   8.786 -0.5810 -1.4202 -0.4432
27325SOL    HW283744   1.467   6.145   8.822 -0.9556 -0.5575 -1.8204
27326SOL     OW83745   6.083   2.929   3.045 -0.1048  0.2180  0.4792
27326SOL    HW183746   5.998   2.973   3.044  0.7902  2.0578 -0.3015
27326SOL    HW283747   6.128   2.966   3.121  0.1830 -0.3756  0.6022
27327SOL     OW83748   1.687   1.708   6.638  0.5358 -0.1771 -0.2444
27327SOL    HW183749   1.623   1.758   6.688  1.8568  1.4472 -0.0510
27327SOL    HW283750   1.675   1.739   6.548  0.2689 -0.7377 -0.4015
27328SOL     OW83751   4.430   1.058   1.337 -0.3559 -0.3023 -0.6938
27328SOL    HW183752   4.431   1.083   1.245 -1.1351 -1.4755 -1.0384
27328SOL    HW283753   4.339   1.070   1.365 -0.2900 -0.7130 -0.2924
27329SOL     OW83754   2.676   5.317   9.072  0.1858 -0.6188  0.0944
27329SOL    HW183755   2.722   5.352   8.996 -0.3794  1.0734  0.4895
27329SOL    HW283756   2.596   5.279   9.037 -0.3076  0.5897 -0.1215
27330SOL     OW83757   4.489   0.974   0.435 -0.1118  0.3609 -0.5736
27330SOL    HW183758   4.491   1.070   0.431 -1.1600  0.4397  0.2847
27330SOL    HW283759   4.418   0.954   0.496  1.4308 -0.9370  0.8940
27331SOL     OW83760   7.375   6.029   6.355 -0.3353  0.7437 -0.3665
27331SOL    HW183761   7.317   6.103   6.336 -0.3900  1.2919  1.6930
27331SOL    HW283762   7.318   5.952   6.353 -1.5831  1.4100  2.9948
27332SOL     OW83763   0.598   0.373   2.022  0.0761 -0.0132 -0.2194
27332SOL    HW183764   0.582   0.345   2.111  0.9229  0.4853  0.1043
27332SOL    HW283765   0.687   0.342   2.002 -0.5732 -1.2649 -1.3572
27333SOL     OW83766   1.117   7.620   0.431 -0.0135  0.2547 -0.1205
27333SOL    HW183767   1.168   7.626   0.512 -0.6074  1.3079  0.1849
27333SOL    HW283768   1.180   7.590   0.365  0.3671 -1.0852  0.8180
27334SOL     OW83769   2.508   6.384   1.726 -0.0902 -0.6624  0.5852
27334SOL    HW183770   2.589   6.362   1.679  0.0635 -0.1887  0.6141
27334SOL    HW283771   2.532   6.460   1.780 -0.2692 -1.1801  1.4180
27335SOL     OW83772   9.786   8.324   5.395  0.1870  0.4696 -0.4328
27335SOL    HW183773   9.731   8.247   5.385 -0.2964  0.9068 -1.1811
27335SOL    HW283774   9.866   8.291   5.436  0.5243 -0.6720 -1.9209
27336SOL     OW83775   0.204   8.509   7.103 -0.0334 -0.0763 -0.1754
27336SOL    HW183776   0.226   8.540   7.015 -0.1506  1.1570  0.2181
27336SOL    HW283777   0.269   8.440   7.121 -0.0900 -0.4264 -1.2602
27337SOL     OW83778   7.678   8.589   3.395 -0.3551  0.6614 -0.1393
27337SOL    HW183779   7.630   8.544   3.464  0.9120  0.7540  0.8430
27337SOL    HW283780   7.747   8.637   3.441  0.8207  0.3534 -1.5034
27338SOL     OW83781   7.217   0.336   5.739 -0.6032  0.7422 -0.1855
27338SOL    HW183782   7.254   0.424   5.748 -2.4967  1.6448 -0.7621
27338SOL    HW283783   7.132   0.341   5.784 -1.9972  0.0613 -2.5824
27339SOL     OW83784   9.249   5.028   4.288 -0.1408 -0.4042 -0.2703
27339SOL    HW183785   9.341   5.023   4.313 -0.1279 -1.0833 -0.4616
27339SOL    HW283786   9.202   4.983   4.358 -0.3248 -0.1448 -0.2221
27340SOL     OW83787   7.064   5.392   2.522 -0.4506 -0.0822  0.1813
27340SOL    HW183788   7.065   5.483   2.552 -1.1825  0.4129 -1.2117
27340SOL    HW283789   6.988   5.353   2.566  0.1168 -0.1791  1.1242
27341SOL     OW83790   1.781   8.020   7.038  0.0414  0.5932  0.4663
27341SOL    HW183791   1.743   8.085   6.979  0.7222  0.5835  0.0061
27341SOL    HW283792   1.866   7.999   6.999 -0.4168 -1.0350  0.2773
27342SOL     OW83793   1.024   5.160   7.172  0.2884 -0.1490  0.3519
27342SOL    HW183794   0.950   5.099   7.174  2.6640 -3.3493 -0.5352
27342SOL    HW283795   1.031   5.187   7.081  1.7437 -2.1522 -0.2214
27343SOL     OW83796   0.328   5.127   1.615  0.2701 -0.1357 -0.1507
27343SOL    HW183797   0.364   5.068   1.549  1.0176 -1.4704  1.3742
27343SOL    HW283798   0.350   5.215   1.583 -0.2639 -0.6786 -2.1333
27344SOL     OW83799   8.269   0.310   2.805 -0.0940 -0.0639 -0.7120
27344SOL    HW183800   8.252   0.397   2.840  0.4222 -0.6389  1.0545
27344SOL    HW283801   8.322   0.266   2.872 -0.0248 -1.6168 -1.7159
27345SOL     OW83802   0.701   2.904   7.247  0.1297 -0.6532  0.8989
27345SOL    HW183803   0.750   2.835   7.202 -0.5636 -0.9863  0.6408
27345SOL    HW283804   0.769   2.961   7.284  0.7350 -0.3734 -0.5410
27346SOL     OW83805   9.810   1.144   4.922 -0.6998 -0.0135 -0.1302
27346SOL    HW183806   9.759   1.114   4.997  0.9240 -0.2766  0.9258
27346SOL    HW283807   9.864   1.216   4.956  1.2089 -1.1479 -0.6049
27347SOL     OW83808   8.434   5.231   8.019  0.2774  0.0078  0.2535
27347SOL    HW183809   8.365   5.279   8.065 -0.9998  1.2183 -2.7008
27347SOL    HW283810   8.516   5.263   8.058 -0.6771  2.1730  0.6169
27348SOL     OW83811   9.140   4.601   9.192 -0.5755 -0.8189  0.3116
27348SOL    HW183812   9.232   4.577   9.179 -0.7419 -0.6082 -1.4698
27348SOL    HW283813   9.114   4.642   9.109 -2.6733 -2.1229  0.2595
27349SOL     OW83814   1.750   2.761   0.659  0.5126  0.2185  0.7529
27349SOL    HW183815   1.753   2.811   0.577  0.0371 -0.2239  0.4566
27349SOL    HW283816   1.695   2.813   0.717  0.9445  0.5914  0.8330
27350SOL     OW83817   6.377   2.232   8.322 -0.4086 -0.5795 -0.0078
27350SOL    HW183818   6.383   2.239   8.417 -1.0882  0.1293 -0.0011
27350SOL    HW283819   6.451   2.178   8.296  0.0772 -0.3490  0.8819
27351SOL     OW83820   8.146   2.534   8.179 -0.8201  0.6636  0.0585
27351SOL    HW183821   8.158   2.550   8.085 -1.7700 -1.9046 -0.6042
27351SOL    HW283822   8.219   2.477   8.203 -0.1116  1.9688  1.1397
27352SOL     OW83823   6.974   3.867   3.754  0.1480  0.3634 -0.0851
27352SOL    HW183824   7.067   3.864   3.780  0.1862 -1.7742 -0.2333
27352SOL    HW283825   6.930   3.813   3.820 -1.1005  1.7880  0.2873
27353SOL     OW83826   9.520   6.858   2.131 -0.6253 -0.2780  0.1679
27353SOL    HW183827   9.505   6.895   2.044  0.2012  1.3922  0.6906
27353SOL    HW283828   9.613   6.876   2.149 -0.4846 -1.6392  0.9216
27354SOL     OW83829   4.422   3.548   8.252  0.9472 -0.4329  0.0532
27354SOL    HW183830   4.464   3.462   8.244  0.0406 -0.9431  0.5940
27354SOL    HW283831   4.483   3.609   8.211  1.7046 -1.3078 -0.1390
27355SOL     OW83832   4.959   2.134   4.591 -0.2182  0.1800 -0.5388
27355SOL    HW183833   5.049   2.132   4.561  0.1351  0.9130  0.4250
27355SOL    HW283834   4.964   2.164   4.682 -1.4793  0.8984 -0.6738
27356SOL     OW83835   2.275   8.627   7.249  0.0063 -0.5334 -0.1223
27356SOL    HW183836   2.235   8.553   7.202  1.5840 -1.1731 -0.5294
27356SOL    HW283837   2.241   8.620   7.338 -0.8117 -1.0190 -0.4607
27357SOL     OW83838   7.990   4.277   7.072  0.3075 -0.1303 -0.6383
27357SOL    HW183839   8.058   4.343   7.061 -1.2816  1.3871 -1.9536
27357SOL    HW283840   7.982   4.236   6.986  0.1249 -0.9177 -0.2621
27358SOL     OW83841   7.584   1.998   3.580  0.3091  0.3665  0.3086
27358SOL    HW183842   7.600   2.014   3.674  0.6905 -3.3584  1.0589
27358SOL    HW283843   7.490   2.008   3.569 -0.0815 -1.3189  1.6951
27359SOL     OW83844   0.232   7.646   9.481  0.0154  0.0301  0.1829
27359SOL    HW183845   0.233   7.688   9.567  1.6951 -0.1839  0.3026
27359SOL    HW283846   0.195   7.560   9.497  1.3847 -0.4526  0.9496
27360SOL     OW83847   4.679   5.059   9.109  0.1199 -0.2259  0.5243
27360SOL    HW183848   4.699   4.973   9.073  0.8124  0.0384  0.2451
27360SOL    HW283849   4.585   5.057   9.128  0.0498 -0.8916  0.1221
27361SOL     OW83850   5.858   6.393   1.499  0.1385 -0.2327  0.3085
27361SOL    HW183851   5.852   6.303   1.466 -1.6875 -0.7678  1.9559
27361SOL    HW283852   5.942   6.397   1.545  0.4587 -0.9281 -0.2050
27362SOL     OW83853   5.309   9.541   5.825 -0.1959  0.1955 -0.1200
27362SOL    HW183854   5.243   9.549   5.894 -0.1206  0.3808 -0.0678
27362SOL    HW283855   5.369   9.614   5.841 -1.6129  1.8657 -1.9275
27363SOL     OW83856   4.775   3.289   8.076 -0.0750  0.4723  0.0139
27363SOL    HW183857   4.841   3.270   8.009  1.0398  2.2626  0.5462
27363SOL    HW283858   4.724   3.208   8.082  0.6456 -0.2026 -2.0078
27364SOL     OW83859   2.805   3.826   1.396  0.9707 -0.3225  0.4315
27364SOL    HW183860   2.840   3.738   1.385  1.7003  0.1720 -1.7533
27364SOL    HW283861   2.801   3.861   1.307  0.2067  1.6730  1.1995
27365SOL     OW83862   3.547   6.715   2.357  0.1510 -0.1446  0.5307
27365SOL    HW183863   3.547   6.811   2.368 -0.7242 -0.1935  1.0977
27365SOL    HW283864   3.456   6.694   2.337  0.3253 -0.8715  0.5030
27366SOL     OW83865   8.100   5.333   3.241  0.1065 -0.0634 -0.3545
27366SOL    HW183866   8.074   5.423   3.221 -0.0565 -0.1480 -0.5243
27366SOL    HW283867   8.114   5.333   3.336  0.7448  0.3041 -0.4419
27367SOL     OW83868   5.732   6.652   3.747 -0.5083  0.7084  0.0970
27367SOL    HW183869   5.689   6.684   3.827 -0.0629  0.5724  0.3891
27367SOL    HW283870   5.793   6.585   3.777 -0.5684  0.4321 -0.3937
27368SOL     OW83871   1.831   0.702   1.639 -0.3407 -0.4491  0.0981
27368SOL    HW183872   1.851   0.669   1.552 -0.4213 -2.2645  0.7242
27368SOL    HW283873   1.901   0.764   1.658  0.5443 -1.1884 -0.6519
27369SOL     OW83874   7.295   1.456   6.670  0.8172  0.3271  0.3244
27369SOL    HW183875   7.232   1.424   6.735 -0.3451  0.1948 -0.8099
27369SOL    HW283876   7.370   1.485   6.721  0.1241 -0.1792  1.6872
27370SOL     OW83877   4.306   1.207   7.211  0.1627 -0.1641  0.1484
27370SOL    HW183878   4.217   1.172   7.213  0.1610 -0.1474  0.4878
27370SOL    HW283879   4.343   1.175   7.129 -1.2494  2.5217 -1.6816
27371SOL     OW83880   1.792   6.030   4.326  0.7883 -0.2314  0.0868
27371SOL    HW183881   1.767   5.999   4.239  0.5300  1.8033 -0.6299
27371SOL    HW283882   1.709   6.049   4.370  0.8047 -3.1713  1.6324
27372SOL     OW83883   6.073   4.115   7.277 -0.3121 -0.1016 -0.3657
27372SOL    HW183884   6.035   4.051   7.337  0.6039  0.5201  0.9194
27372SOL    HW283885   6.047   4.085   7.190  0.5809 -2.5315  0.1484
27373SOL     OW83886   7.143   6.070   8.282 -0.5018 -0.1410 -0.7917
27373SOL    HW183887   7.088   6.005   8.326  0.6392  0.5746  1.8509
27373SOL    HW283888   7.100   6.153   8.299  0.1393  0.1827 -0.7381
27374SOL     OW83889   5.081   8.455   2.181  0.4190  0.0190  0.2580
27374SOL    HW183890   5.122   8.541   2.179 -1.5043  1.0621  1.7475
27374SOL    HW283891   4.989   8.472   2.161  0.1303 -1.8127 -0.1914
27375SOL     OW83892   5.422   4.208   4.249  0.1179 -0.4238  0.2278
27375SOL    HW183893   5.485   4.280   4.247 -0.7796  0.3665 -0.5876
27375SOL    HW283894   5.394   4.198   4.158 -1.7864  0.0376  0.7190
27376SOL     OW83895   1.000   8.594   7.977  0.0076 -0.0095 -0.3125
27376SOL    HW183896   1.078   8.650   7.970  0.4519 -0.8000 -1.9592
27376SOL    HW283897   1.029   8.508   7.945 -2.2350  0.3781 -3.8684
27377SOL     OW83898   6.084   4.671   0.815  0.2949  0.8694 -0.1300
27377SOL    HW183899   6.003   4.678   0.765 -0.1370 -1.0055  0.2457
27377SOL    HW283900   6.057   4.675   0.907  0.4881 -0.5713  0.0207
27378SOL     OW83901   0.848   8.157   6.436 -0.4170  0.1149  0.3210
27378SOL    HW183902   0.760   8.144   6.472 -1.4522  3.1026 -0.7552
27378SOL    HW283903   0.907   8.141   6.510 -1.8749 -1.3422  1.2341
27379SOL     OW83904   8.734   2.185   7.938  0.2203 -0.0152  0.5855
27379SOL    HW183905   8.674   2.260   7.939  1.8316  1.3427  0.5602
27379SOL    HW283906   8.797   2.207   7.869 -0.2691 -2.2647 -0.6683
27380SOL     OW83907   2.481   6.320   8.709 -0.1744  0.4635  0.0327
27380SOL    HW183908   2.406   6.265   8.686  0.4692 -0.6495  0.5159
27380SOL    HW283909   2.500   6.300   8.800  0.5674  0.8991 -0.0112
27381SOL     OW83910   4.827   4.421   0.979  0.0329 -0.4639 -0.6462
27381SOL    HW183911   4.757   4.486   0.983  0.6017  0.2954 -2.2279
27381SOL    HW283912   4.861   4.417   1.068 -3.3259 -2.4259  0.7531
27382SOL     OW83913   2.480   5.529   8.682  0.1106 -0.9826  0.1899
27382SOL    HW183914   2.404   5.586   8.673  2.1486  1.9237  0.0238
27382SOL    HW283915   2.487   5.483   8.598 -1.2498 -1.0861  0.1221
27383SOL     OW83916   7.061   9.158   2.341 -0.2982 -0.0047  0.9108
27383SOL    HW183917   7.133   9.220   2.354 -0.2031 -0.2449  1.5563
27383SOL    HW283918   6.997   9.181   2.409 -1.4907  1.1185 -0.5071
27384SOL     OW83919   0.059   1.587   5.046 -0.1153 -0.5392  0.2507
27384SOL    HW183920   0.024   1.669   5.081 -1.1463 -0.9610  0.2309
27384SOL    HW283921   0.018   1.578   4.960 -1.0518 -1.7363  0.7994
27385SOL     OW83922   9.329   3.795   6.592  0.0506  0.3650  0.5388
27385SOL    HW183923   9.411   3.844   6.582  0.0784  0.0877 -0.7305
27385SOL    HW283924   9.345   3.737   6.667  1.1607  0.0543  0.0833
27386SOL     OW83925   6.414   6.023   9.648  0.0573 -0.1845 -0.4391
27386SOL    HW183926   6.402   5.955   9.582 -1.0184  0.4015 -0.8628
27386SOL    HW283927   6.337   6.018   9.703  0.7730 -0.4189  0.5676
27387SOL     OW83928   4.103   2.724   6.898 -0.2337  0.4750 -1.1175
27387SOL    HW183929   4.105   2.643   6.949  0.8265  0.8278 -0.5571
27387SOL    HW283930   4.059   2.787   6.955  0.9319  0.8639 -0.6113
27388SOL     OW83931   4.778   4.589   3.226  0.2641 -0.1640  0.0658
27388SOL    HW183932   4.835   4.553   3.157  1.4380 -0.4086  1.1181
27388SOL    HW283933   4.693   4.548   3.210  0.7012 -0.7739 -0.8033
27389SOL     OW83934   1.937   5.317   4.706  0.5483 -0.7952 -0.0900
27389SOL    HW183935   1.845   5.341   4.699  0.4765 -0.8773  0.5897
27389SOL    HW283936   1.941   5.227   4.673  0.3763 -0.8208 -0.0387
27390SOL     OW83937   5.901   7.536   5.705 -0.6771  0.5549 -0.5370
27390SOL    HW183938   5.824   7.495   5.667 -1.0322  0.4793  0.2387
27390SOL    HW283939   5.885   7.533   5.799  0.3127  0.4630 -0.3629
27391SOL     OW83940   5.324   6.237   4.739 -0.1651  0.7912  0.0326
27391SOL    HW183941   5.300   6.158   4.690  1.4007  0.0163  0.4486
27391SOL    HW283942   5.294   6.221   4.828 -1.7525  1.6071 -0.3150
27392SOL     OW83943   8.898   5.142   4.411 -0.4630  0.1197  0.1859
27392SOL    HW183944   8.828   5.208   4.409 -2.2824 -1.6633  1.4075
27392SOL    HW283945   8.969   5.184   4.460 -0.9835  1.6441 -0.2853
27393SOL     OW83946   4.997   6.400   6.855  0.1278 -0.4431  0.2230
27393SOL    HW183947   4.907   6.407   6.823  0.3015 -0.1319 -0.2115
27393SOL    HW283948   4.994   6.437   6.944  0.0762  0.8141 -0.2804
27394SOL     OW83949   1.955   6.762   5.194  0.1263 -0.3475  0.4596
27394SOL    HW183950   1.975   6.755   5.288 -1.2350 -2.9678  0.6564
27394SOL    HW283951   1.872   6.808   5.191 -1.8504 -3.5578  0.9807
27395SOL     OW83952   6.149   5.291   2.755  0.2070 -0.2370 -0.2888
27395SOL    HW183953   6.065   5.298   2.800  0.0104 -1.3157 -0.4574
27395SOL    HW283954   6.163   5.377   2.716 -0.1718  0.3645  0.8621
27396SOL     OW83955   5.959   0.176   1.836  0.5987  0.0719 -0.2375
27396SOL    HW183956   5.996   0.147   1.753  0.8404 -1.5022  0.3835
27396SOL    HW283957   5.873   0.210   1.814  0.2561 -1.2392 -1.0294
27397SOL     OW83958   9.572   3.083   1.820 -0.6012 -0.6435  0.4342
27397SOL    HW183959   9.614   3.100   1.904 -0.4446 -0.1088  0.2502
27397SOL    HW283960   9.533   3.166   1.795 -0.7773 -0.8398  0.0518
27398SOL     OW83961   9.208   0.785   6.888 -0.2057  0.0217 -0.2215
27398SOL    HW183962   9.174   0.844   6.956 -0.0433 -0.6654  0.4578
27398SOL    HW283963   9.292   0.824   6.863  1.3852 -1.4469  2.3443
27399SOL     OW83964   8.929   8.444   1.875 -0.0558 -0.6342 -0.2719
27399SOL    HW183965   8.924   8.425   1.969  0.3556 -0.2276 -0.1599
27399SOL    HW283966   8.839   8.465   1.849  0.0861  0.9739  0.4186
27400SOL     OW83967   1.472   2.762   3.865 -0.4670  0.5420 -0.4905
27400SOL    HW183968   1.539   2.720   3.918 -1.3714 -0.2796  0.0164
27400SOL    HW283969   1.406   2.792   3.928 -0.3892  1.7271 -0.9409
27401SOL     OW83970   1.483   4.220   4.481  0.5264 -0.1735 -0.1192
27401SOL    HW183971   1.416   4.265   4.430  1.2883  1.2894  0.0891
27401SOL    HW283972   1.558   4.280   4.479  1.7427 -1.6267 -0.1223
27402SOL     OW83973   5.304   4.780   2.434 -0.6964  0.5978 -0.1851
27402SOL    HW183974   5.332   4.688   2.430  0.8101  1.0206 -0.2325
27402SOL    HW283975   5.282   4.794   2.527 -2.3104 -0.1581 -0.4249
27403SOL     OW83976   6.362   6.946   4.922 -0.3042 -0.0187  0.3353
27403SOL    HW183977   6.316   6.930   5.004 -0.3403  1.4360  0.6318
27403SOL    HW283978   6.371   6.860   4.882 -0.2587 -0.7680  1.8764
27404SOL     OW83979   8.897   3.064   3.160  0.1005  0.5191  0.2555
27404SOL    HW183980   8.963   3.093   3.096  0.8586 -1.8120 -0.1548
27404SOL    HW283981   8.833   3.016   3.107  0.6806 -1.3513  1.1368
27405SOL     OW83982   3.701   4.814   5.872 -0.0985 -0.0530  0.1338
27405SOL    HW183983   3.710   4.853   5.959 -1.2218  0.1900  0.1464
27405SOL    HW283984   3.771   4.748   5.869 -1.2250 -1.4389  1.9633
27406SOL     OW83985   8.499   0.014   5.075 -0.1004 -0.2596  0.3032
27406SOL    HW183986   8.562   0.077   5.041 -0.0243 -0.7257 -0.4402
27406SOL    HW283987   8.421   0.025   5.020  0.9615 -2.9180 -1.9416
27407SOL     OW83988   1.402   8.896   0.486 -0.0983 -0.4365 -0.1748
27407SOL    HW183989   1.423   8.880   0.394 -0.5545 -0.4718 -0.2730
27407SOL    HW283990   1.328   8.955   0.484  0.0362 -0.2534  0.1747
27408SOL     OW83991   6.652   4.162   3.017 -0.3722 -0.1220 -0.2158
27408SOL    HW183992   6.616   4.243   3.054  0.6653 -0.0707  0.7275
27408SOL    HW283993   6.627   4.094   3.079 -2.0542 -0.7203 -1.4795
27409SOL     OW83994   4.889   9.810   8.362  0.0481 -0.7007 -0.3608
27409SOL    HW183995   4.922   9.891   8.323 -0.3227  0.7661  2.1361
27409SOL    HW283996   4.861   9.757   8.288 -1.4859  2.2329 -2.0567
27410SOL     OW83997   6.197   6.393   7.636  0.6934 -0.2589 -0.1113
27410SOL    HW183998   6.222   6.364   7.548  0.1426  0.6001 -0.5639
27410SOL    HW283999   6.194   6.488   7.630  1.1018 -0.1642  0.9695
27411SOL     OW84000   1.619   0.328   0.844  0.2909 -0.1436  0.2181
27411SOL    HW184001   1.600   0.387   0.771  0.4025 -1.7420 -1.1660
27411SOL    HW284002   1.535   0.316   0.888 -0.0318 -0.0644 -0.3651
27412SOL     OW84003   2.236   5.063   6.422 -0.3884  0.4400  0.1342
27412SOL    HW184004   2.235   5.136   6.484 -0.1822 -0.7865  1.6403
27412SOL    HW284005   2.154   5.016   6.439 -1.3694  1.2513 -2.0367
27413SOL     OW84006   9.680   8.966   3.002 -0.1168 -0.2454 -0.8828
27413SOL    HW184007   9.743   8.964   2.930  0.7418  0.7827 -0.1953
27413SOL    HW284008   9.692   8.882   3.047 -2.1335 -1.8658 -3.0681
27414SOL     OW84009   6.971   2.383   5.022  0.2091  0.1600 -0.1092
27414SOL    HW184010   7.022   2.464   5.015 -1.5500  1.2029 -1.6920
27414SOL    HW284011   6.913   2.384   4.946 -1.5585 -1.4048  1.1178
27415SOL     OW84012   3.960   4.228   5.373 -0.6477 -1.1221  0.0981
27415SOL    HW184013   3.932   4.309   5.416  1.4020 -0.2294 -0.1178
27415SOL    HW284014   4.045   4.250   5.336 -0.0075 -3.4324  0.0884
27416SOL     OW84015   4.846   6.645   9.500  0.2532  0.6015  0.3143
27416SOL    HW184016   4.827   6.720   9.443  0.7434  0.7925  0.3985
27416SOL    HW284017   4.866   6.573   9.440 -3.0298 -0.3086  0.1077
27417SOL     OW84018   8.397   8.171   1.651 -0.0625  0.2462 -0.3652
27417SOL    HW184019   8.365   8.186   1.741 -2.1095 -1.6245 -0.6800
27417SOL    HW284020   8.450   8.092   1.658  0.7772  0.7764 -0.6360
27418SOL     OW84021   9.538   0.062   6.299 -0.1137 -0.8231  0.1133
27418SOL    HW184022   9.530   0.045   6.205  1.6180 -0.4781 -0.1219
27418SOL    HW284023   9.471   0.128   6.317 -2.5284 -3.0242 -0.2341
27419SOL     OW84024   9.613   7.511   5.448 -0.0884  0.1426 -0.6657
27419SOL    HW184025   9.534   7.532   5.497 -0.3120  1.0849 -1.3912
27419SOL    HW284026   9.670   7.468   5.511 -0.7745  0.3809  0.1387
27420SOL     OW84027   7.920   0.225   0.635 -0.7122  0.0597  0.3307
27420SOL    HW184028   8.010   0.209   0.608 -1.0335 -2.2516  0.4520
27420SOL    HW284029   7.881   0.271   0.561  0.5476  1.1544  0.2983
27421SOL     OW84030   7.766   5.211   4.335  0.1241  0.0201  0.6756
27421SOL    HW184031   7.801   5.125   4.359  1.0335  0.2610  0.2463
27421SOL    HW284032   7.797   5.226   4.246 -0.9969  0.2988  0.3144
27422SOL     OW84033   8.203   5.685   0.759 -0.3058 -0.1648  0.0623
27422SOL    HW184034   8.248   5.706   0.678 -1.9178 -1.7442 -1.3403
27422SOL    HW284035   8.149   5.762   0.777  1.3222  0.8847  0.6274
27423SOL     OW84036   4.612   6.988   6.135  0.4154 -0.1451  0.1383
27423SOL    HW184037   4.676   7.009   6.067  1.8145 -0.8443  1.2087
27423SOL    HW284038   4.585   6.898   6.115  0.3332 -0.1192  0.1320
27424SOL     OW84039   6.000   2.548   6.056  0.5085 -0.0029 -0.3982
27424SOL    HW184040   6.076   2.490   6.048  0.3490 -0.1437 -0.9832
27424SOL    HW284041   6.036   2.630   6.088  0.9040 -0.0809 -0.6304
27425SOL     OW84042   2.761   2.650   8.690 -0.5395 -0.4948  0.2684
27425SOL    HW184043   2.750   2.740   8.720  0.2146 -0.9320  1.9274
27425SOL    HW284044   2.851   2.648   8.656  0.0262 -1.0021  1.7325
27426SOL     OW84045   0.656   9.381   7.170  0.2081 -0.1665  0.7118
27426SOL    HW184046   0.596   9.400   7.242 -1.1748  0.9336 -0.6659
27426SOL    HW284047   0.608   9.322   7.113  0.8581 -0.1561  0.1444
27427SOL     OW84048   9.131   3.294   2.568 -0.0647 -0.1126 -0.4605
27427SOL    HW184049   9.089   3.236   2.504 -0.9922 -0.0035  0.0252
27427SOL    HW284050   9.069   3.367   2.577  0.0606 -0.1169  0.5328
27428SOL     OW84051   9.151   9.406   7.572  0.5811  0.0758 -0.2084
27428SOL    HW184052   9.148   9.324   7.621  0.1151 -0.1644 -0.6394
27428SOL    HW284053   9.162   9.380   7.481  0.3274  0.4925 -0.3592
27429SOL     OW84054   4.576   6.911   8.847 -0.2393 -0.7400 -0.1531
27429SOL    HW184055   4.658   6.932   8.892  0.0573 -0.5833 -0.7513
27429SOL    HW284056   4.599   6.915   8.754 -0.6378 -1.8503 -0.3157
27430SOL     OW84057   9.328   8.384   5.604 -0.2119  0.2801 -0.3828
27430SOL    HW184058   9.321   8.332   5.525  0.2165  0.5624 -0.6084
27430SOL    HW284059   9.375   8.462   5.578 -0.4445  0.5766  0.0557
27431SOL     OW84060   4.035   2.347   3.075 -0.1382 -0.2047  0.7784
27431SOL    HW184061   4.019   2.306   3.160  1.6682 -0.2757  1.1155
27431SOL    HW284062   4.130   2.342   3.063 -0.3706 -0.3873 -1.3453
27432SOL     OW84063   0.063   5.949   4.736  0.4371  0.0328  0.3943
27432SOL    HW184064   0.072   5.950   4.831  1.6431  1.3731  0.2974
27432SOL    HW284065   0.031   6.037   4.714  0.3625 -0.1950 -0.4540
27433SOL     OW84066   6.930   1.833   1.115  0.1540  0.2122 -0.0964
27433SOL    HW184067   6.974   1.750   1.097  0.1984  0.1597  0.2572
27433SOL    HW284068   6.966   1.862   1.199 -1.3937 -0.4524  0.8449
27434SOL     OW84069   2.525   3.987   4.473  0.5219  0.3279 -0.2541
27434SOL    HW184070   2.481   4.057   4.521  0.9387  0.8701 -0.6419
27434SOL    HW284071   2.461   3.916   4.470  0.1800  0.5995  0.3533
27435SOL     OW84072   4.263   0.375   8.040  0.7285  0.5061 -0.1166
27435SOL    HW184073   4.227   0.372   7.952  0.8566  1.1371 -0.1901
27435SOL    HW284074   4.336   0.436   8.035  2.1224 -1.0833 -0.0651
27436SOL     OW84075   0.751   2.632   1.941  0.2501 -0.4181 -0.4510
27436SOL    HW184076   0.724   2.592   2.023  1.8128 -1.4633 -0.4045
27436SOL    HW284077   0.799   2.711   1.967  1.1966 -1.0248 -0.3066
27437SOL     OW84078   9.606   7.624   4.648  0.3072  0.6663 -0.6389
27437SOL    HW184079   9.644   7.543   4.612 -1.1413  0.0162 -0.7746
27437SOL    HW284080   9.557   7.594   4.725  2.3243  1.8607  1.2281
27438SOL     OW84081   2.749   4.498   9.803 -0.0669 -0.2555  0.2357
27438SOL    HW184082   2.699   4.447   9.868 -1.6922  0.3503 -0.4843
27438SOL    HW284083   2.697   4.578   9.792 -1.0296 -1.1945 -3.3303
27439SOL     OW84084   8.182   7.014   5.277 -0.0402  0.1571  0.3501
27439SOL    HW184085   8.242   6.958   5.326 -0.4037 -1.3394 -0.8095
27439SOL    HW284086   8.100   7.009   5.325 -0.7822 -2.3932 -1.0022
27440SOL     OW84087   1.577   9.642   0.261  0.3931 -0.1513  0.6248
27440SOL    HW184088   1.625   9.567   0.225  2.3589  1.7691 -1.0119
27440SOL    HW284089   1.626   9.667   0.340  0.7486  0.4021  0.2370
27441SOL     OW84090   3.098   2.455   2.168 -0.3300 -0.4770 -0.5014
27441SOL    HW184091   3.086   2.544   2.202  1.3306 -0.7115  0.8161
27441SOL    HW284092   3.009   2.424   2.150 -1.0652  0.7684  0.8186
27442SOL     OW84093   8.500   7.765   5.485 -0.6503 -0.0613  0.1915
27442SOL    HW184094   8.458   7.801   5.563 -1.0963  1.1229 -0.5692
27442SOL    HW284095   8.583   7.730   5.517 -0.0048  2.0047  0.9605
27443SOL     OW84096   5.350   9.348   0.092 -0.0248  0.1627  0.3325
27443SOL    HW184097   5.430   9.296   0.100 -0.1984 -0.4068 -1.2226
27443SOL    HW284098   5.295   9.298   0.033 -0.6423  1.5884 -0.3610
27444SOL     OW84099   2.176   4.228   1.952 -0.0657  0.2684 -0.0580
27444SOL    HW184100   2.218   4.213   1.868  0.4441 -0.6541  0.3374
27444SOL    HW284101   2.233   4.184   2.015 -1.6027 -1.0256  0.5026
27445SOL     OW84102   5.232   5.763   0.316  0.0238 -0.2563 -0.7414
27445SOL    HW184103   5.246   5.842   0.370  0.8657 -2.4732  2.6128
27445SOL    HW284104   5.319   5.740   0.284  0.6078 -1.9329  1.7398
27446SOL     OW84105   3.241   2.859   5.538 -0.0780 -0.0070  0.4032
27446SOL    HW184106   3.161   2.902   5.506  0.1859  1.1012  1.1693
27446SOL    HW284107   3.211   2.773   5.569 -0.6205 -0.4250 -1.1511
27447SOL     OW84108   9.123   6.575   2.497 -0.1104 -0.4267 -0.7528
27447SOL    HW184109   9.065   6.637   2.541  0.1440 -1.4399  1.1251
27447SOL    HW284110   9.123   6.603   2.406 -2.6561  0.2662 -0.6182
27448SOL     OW84111   0.479   4.569   1.193 -0.1328 -0.1574  0.2843
27448SOL    HW184112   0.407   4.506   1.191 -0.6330  0.3803 -1.9225
27448SOL    HW284113   0.436   4.654   1.193  0.5394  0.2056  1.8783
27449SOL     OW84114   8.359   7.665   5.249  0.1880 -0.1210 -0.5695
27449SOL    HW184115   8.308   7.600   5.298  0.5011 -1.1514 -1.5625
27449SOL    HW284116   8.426   7.695   5.311  1.3219 -2.2679 -0.6911
27450SOL     OW84117   5.401   6.020   5.911  0.3165 -0.1121 -0.1303
27450SOL    HW184118   5.368   6.092   5.964 -2.2450 -2.3574  1.5691
27450SOL    HW284119   5.495   6.018   5.929 -0.1587  0.4568  2.7941
27451SOL     OW84120   5.268   3.431   2.421 -0.3632  0.3342 -0.1377
27451SOL    HW184121   5.175   3.431   2.441  0.0324  1.5770  1.9730
27451SOL    HW284122   5.285   3.517   2.384 -0.0201  0.1773 -0.3547
27452SOL     OW84123   8.447   9.315   7.340  0.0030  0.2183 -0.4274
27452SOL    HW184124   8.510   9.364   7.392 -0.7438  1.2254 -0.4262
27452SOL    HW284125   8.499   9.275   7.270  0.8646 -0.3401  0.5217
27453SOL     OW84126   2.078   7.471   6.325 -0.4904  0.7901 -0.0264
27453SOL    HW184127   2.056   7.378   6.324  0.8667  0.4435  0.2889
27453SOL    HW284128   1.995   7.516   6.308 -1.4039 -0.4325  1.0323
27454SOL     OW84129   2.514   6.686   5.685  0.5037  0.3045 -0.0593
27454SOL    HW184130   2.494   6.779   5.688  2.1635  0.6948  3.2326
27454SOL    HW284131   2.595   6.681   5.633 -0.0148  0.5689 -0.9067
27455SOL     OW84132   7.357   5.436   2.196 -0.0051  0.1243 -0.2759
27455SOL    HW184133   7.330   5.442   2.287 -1.5640  1.1118 -0.7523
27455SOL    HW284134   7.453   5.438   2.198  0.1234 -2.7369  1.4757
27456SOL     OW84135   3.390   3.021   1.019 -0.3809 -0.6044  0.0125
27456SOL    HW184136   3.420   3.044   0.930  2.3541  0.0078  0.9953
27456SOL    HW284137   3.409   3.099   1.071  0.3445 -1.7950  1.5995
27457SOL     OW84138   3.660   5.668   9.417 -0.1515  0.1285  0.1728
27457SOL    HW184139   3.609   5.630   9.345  0.7871  0.3421 -0.6325
27457SOL    HW284140   3.701   5.746   9.378 -0.1036  0.5797  1.1131
27458SOL     OW84141   3.413   5.712   9.700 -0.2099 -0.9368 -0.8603
27458SOL    HW184142   3.498   5.746   9.671  0.3172 -0.2784  1.3322
27458SOL    HW284143   3.421   5.702   9.794 -2.5630 -0.9155 -0.5895
27459SOL     OW84144   9.635   0.166   4.107  0.0088 -0.1814 -0.4655
27459SOL    HW184145   9.687   0.086   4.100  0.2034 -0.1298  0.3734
27459SOL    HW284146   9.699   0.237   4.100 -0.1362 -0.0938 -0.9808
27460SOL     OW84147   8.180   3.938   1.781  0.4063 -0.4788  0.0241
27460SOL    HW184148   8.229   4.007   1.826 -0.3393  0.1616 -0.1135
27460SOL    HW284149   8.246   3.886   1.736  0.9376  0.5549 -0.4163
27461SOL     OW84150   1.131   2.295   7.180  0.1958  0.0590 -0.3700
27461SOL    HW184151   1.204   2.355   7.190  0.7720 -0.5802 -0.6134
27461SOL    HW284152   1.153   2.221   7.238 -0.2589 -0.1291 -0.4351
27462SOL     OW84153   6.929   0.000   2.276 -0.5018  0.0120  0.1989
27462SOL    HW184154   6.902   0.086   2.244 -0.2366 -0.6483 -1.9021
27462SOL    HW284155   7.025   0.006   2.283 -0.4126 -0.3371 -0.6732
27463SOL     OW84156   2.195   2.447   1.532  0.2961  0.1283 -0.1068
27463SOL    HW184157   2.121   2.422   1.587  1.1102 -0.7287  0.6530
27463SOL    HW284158   2.218   2.367   1.484  0.5642  0.4474 -0.5186
27464SOL     OW84159   9.538   3.596   3.957 -1.3137  0.1010 -0.2889
27464SOL    HW184160   9.468   3.643   3.911  0.4217  0.4578 -2.7064
27464SOL    HW284161   9.562   3.525   3.898  0.4807  0.0942  0.3994
27465SOL     OW84162   8.973   8.588   7.216  0.2605  0.0534 -0.2887
27465SOL    HW184163   9.046   8.645   7.192  1.0822 -1.3749 -1.3390
27465SOL    HW284164   8.902   8.648   7.237  1.0862  1.4602 -1.3263
27466SOL     OW84165   8.911   9.687   3.301 -0.1626  1.1093 -0.1457
27466SOL    HW184166   8.831   9.740   3.307  0.2478  1.6403  0.9599
27466SOL    HW284167   8.966   9.720   3.371  2.0523  2.4597 -2.3613
27467SOL     OW84168   8.554   7.218   0.111  0.0059 -0.0401  0.1501
27467SOL    HW184169   8.521   7.161   0.041  0.4462  0.6242 -0.6105
27467SOL    HW284170   8.503   7.298   0.104  0.7420  0.4197 -0.0697
27468SOL     OW84171   6.248   7.865   6.906  1.0283  0.2449  0.3723
27468SOL    HW184172   6.299   7.945   6.902  1.0359  0.2592  0.7042
27468SOL    HW284173   6.165   7.890   6.947  0.6648  0.2634 -0.3501
27469SOL     OW84174   7.747   2.402   9.178  0.0026 -0.3062  0.1309
27469SOL    HW184175   7.840   2.384   9.192 -0.1866 -0.5338  1.1279
27469SOL    HW284176   7.704   2.374   9.259 -0.7961  0.8583  0.1307
27470SOL     OW84177   1.984   3.043   7.664  0.9457 -0.8608 -0.5291
27470SOL    HW184178   2.033   3.054   7.582 -0.3365 -0.4201 -1.2536
27470SOL    HW284179   1.894   3.027   7.637  0.2703  0.4509  0.7885
27471SOL     OW84180   5.915   6.498   5.898  0.1707 -0.4664  0.2530
27471SOL    HW184181   5.894   6.535   5.984 -2.3814  1.5461 -1.0702
27471SOL    HW284182   5.937   6.407   5.915  2.3635  0.4511  3.2614
27472SOL     OW84183   9.231   7.688   7.298 -0.2362  0.1563 -0.2809
27472SOL    HW184184   9.277   7.738   7.366 -0.7796  0.8126 -0.3803
27472SOL    HW284185   9.145   7.671   7.336 -0.7000  0.9173 -0.9753
27473SOL     OW84186   2.926   4.064   1.748  0.6190  0.5572 -0.0826
27473SOL    HW184187   2.924   3.984   1.800  0.5234  0.9660  0.5546
27473SOL    HW284188   2.895   4.037   1.662 -3.0096  0.5870  1.0684
27474SOL     OW84189   1.038   0.925   6.071  0.4289  0.5632 -0.1650
27474SOL    HW184190   1.116   0.883   6.107  0.0202  0.3419  0.4623
27474SOL    HW284191   1.049   0.918   5.976  0.6895 -0.3565 -0.0722
27475SOL     OW84192   3.707   7.765   5.452 -0.5180  0.2587 -0.1648
27475SOL    HW184193   3.677   7.777   5.362 -1.1020  0.2638  0.0242
27475SOL    HW284194   3.628   7.740   5.500 -0.2059  0.2364  0.3428
27476SOL     OW84195   6.564   6.266   5.111 -0.2446  0.5377  0.3639
27476SOL    HW184196   6.519   6.268   5.195 -1.7831  0.0051 -0.4266
27476SOL    HW284197   6.600   6.177   5.105 -0.7881  0.3346  0.1223
27477SOL     OW84198   6.839   6.286   4.834  0.3358 -0.1359 -0.6596
27477SOL    HW184199   6.794   6.343   4.772 -0.3639 -0.9639 -0.9273
27477SOL    HW284200   6.808   6.198   4.813  0.1032 -0.4381  0.8544
27478SOL     OW84201   4.854   3.987   7.743 -0.0633 -0.1007  0.4730
27478SOL    HW184202   4.813   4.022   7.664  1.3701 -0.3601 -0.4290
27478SOL    HW284203   4.886   4.065   7.790 -1.7333  0.1197  1.3094
27479SOL     OW84204   6.658   0.808   4.396 -0.2497 -0.1686 -0.0531
27479SOL    HW184205   6.630   0.837   4.309 -1.2718  3.4985  1.3374
27479SOL    HW284206   6.583   0.758   4.429 -0.7273  0.2572 -0.4714
27480SOL     OW84207   7.951   5.484   0.734 -0.3210  0.2395 -0.7054
27480SOL    HW184208   8.018   5.549   0.713  1.0614 -1.1401 -0.7121
27480SOL    HW284209   7.979   5.404   0.690 -1.7068 -0.5201 -0.2861
27481SOL     OW84210   4.860   4.320   3.355  0.0366  0.0252 -0.5119
27481SOL    HW184211   4.815   4.248   3.311 -0.7668 -0.5265  1.1094
27481SOL    HW284212   4.913   4.278   3.423  0.8916  0.8645 -0.6337
27482SOL     OW84213   1.589   0.266   6.054 -0.0326 -0.0087 -0.1863
27482SOL    HW184214   1.601   0.264   5.959 -1.7464 -1.4811 -0.4103
27482SOL    HW284215   1.524   0.334   6.068  0.5827  0.5565  0.0172
27483SOL     OW84216   8.269   4.790   7.779  0.0167  0.5742 -0.4394
27483SOL    HW184217   8.354   4.761   7.746 -0.0943  1.0967 -1.1865
27483SOL    HW284218   8.286   4.877   7.815  0.3191 -0.2800  1.6815
27484SOL     OW84219   8.170   8.027   1.973 -0.0158 -0.6029 -0.3802
27484SOL    HW184220   8.135   7.959   2.029 -0.1587 -1.5871 -1.6282
27484SOL    HW284221   8.249   7.988   1.935  1.0062  0.6396  0.3802
27485SOL     OW84222   0.004   9.278   3.961 -0.5300  0.5756 -0.1003
27485SOL    HW184223  -0.006   9.220   3.885  0.6326  1.3229 -0.8570
27485SOL    HW284224  -0.074   9.261   4.014 -1.3700  0.0098 -1.4384
27486SOL     OW84225   8.897   1.162   3.571  0.1233 -0.2965 -0.5234
27486SOL    HW184226   8.820   1.130   3.523 -0.3972  0.2818 -0.0918
27486SOL    HW284227   8.970   1.149   3.510 -0.6634  1.3799 -1.9061
27487SOL     OW84228   1.796   7.512   1.323  0.1009 -0.2713  0.1767
27487SOL    HW184229   1.887   7.505   1.349 -0.1525  1.6357  1.8124
27487SOL    HW284230   1.752   7.440   1.370  0.7929 -1.6512 -1.1801
27488SOL     OW84231   3.475   6.413   3.472 -0.6764  0.6516 -0.3312
27488SOL    HW184232   3.442   6.469   3.541  0.0832 -1.6935  2.0866
27488SOL    HW284233   3.538   6.468   3.424 -2.5024  2.8462 -0.3386
27489SOL     OW84234   4.646   0.208   2.977 -0.3074  0.1481  0.1918
27489SOL    HW184235   4.570   0.173   3.025 -1.4955  0.0410 -1.6666
27489SOL    HW284236   4.687   0.130   2.938  0.7568  0.2138  1.1456
27490SOL     OW84237   0.934   1.026   8.864 -0.0379 -0.3884  0.1564
27490SOL    HW184238   1.028   1.015   8.852  0.1334  2.1587 -1.5511
27490SOL    HW284239   0.925   1.114   8.899 -1.7447 -1.1776  1.8468
27491SOL     OW84240   2.292   1.648   3.829  0.3348 -0.1189 -0.2085
27491SOL    HW184241   2.362   1.706   3.858 -1.4251  0.9393  2.3307
27491SOL    HW284242   2.263   1.603   3.909 -1.8785 -0.4740 -1.1217
27492SOL     OW84243   0.240   6.846   7.995 -0.1003  0.5455  0.0423
27492SOL    HW184244   0.308   6.913   8.006  0.7599 -0.3281  0.2255
27492SOL    HW284245   0.169   6.875   8.052  0.7521  0.6867  1.0677
27493SOL     OW84246   7.782   3.393   9.119  0.0162  0.2400  0.2597
27493SOL    HW184247   7.859   3.449   9.124  1.0237 -1.0962  0.3078
27493SOL    HW284248   7.728   3.419   9.194  0.0451  1.6828 -0.1913
27494SOL     OW84249   0.126   0.991   8.819 -0.2859 -0.0703  0.1831
27494SOL    HW184250   0.106   1.059   8.883 -0.4180 -1.1806  1.3630
27494SOL    HW284251   0.202   0.946   8.855 -1.3499 -1.7603  0.4390
27495SOL     OW84252   0.515   1.582   0.868 -0.2854 -0.0536 -0.4017
27495SOL    HW184253   0.532   1.543   0.953 -2.0570 -2.0282 -0.8826
27495SOL    HW284254   0.570   1.532   0.808  0.3547  0.8024 -0.5480
27496SOL     OW84255   3.600   3.541   1.423 -0.3618 -0.5560  0.4583
27496SOL    HW184256   3.661   3.536   1.350 -1.0281 -3.4741 -0.0245
27496SOL    HW284257   3.624   3.621   1.470  2.4385 -0.5209 -0.8739
27497SOL     OW84258   1.530   4.224   6.613 -0.2117  0.2725 -0.0909
27497SOL    HW184259   1.472   4.149   6.606 -1.5038  1.1785  0.5098
27497SOL    HW284260   1.475   4.299   6.590  1.1776  1.0032 -1.1770
27498SOL     OW84261   8.956   6.334   2.612  0.0629 -0.3473  0.3574
27498SOL    HW184262   8.902   6.356   2.537 -0.0903 -0.2871  0.4833
27498SOL    HW284263   9.021   6.404   2.616  1.3229 -1.4132 -0.9077
27499SOL     OW84264   4.760   0.799   2.664 -0.0777 -0.2036  0.3372
27499SOL    HW184265   4.760   0.840   2.751  0.7349 -0.5500  0.5134
27499SOL    HW284266   4.779   0.871   2.604 -1.5008  0.2109  0.3333
27500SOL     OW84267   2.859   4.671   0.516  0.7463  0.1508 -0.1294
27500SOL    HW184268   2.890   4.581   0.502 -0.0992 -0.3574  1.1301
27500SOL    HW284269   2.922   4.725   0.469  0.7831 -1.1442 -1.6336
27501SOL     OW84270   2.612   0.718   4.095  0.2581 -0.4275  0.4938
27501SOL    HW184271   2.700   0.680   4.101  0.5839  0.3291  0.5930
27501SOL    HW284272   2.603   0.744   4.003 -0.4377 -1.8203  0.1275
27502SOL     OW84273   3.004   7.611   2.248 -0.4990  0.6979 -0.5826
27502SOL    HW184274   2.975   7.644   2.162 -3.3429 -0.9057 -0.3779
27502SOL    HW284275   3.045   7.527   2.229 -1.0260  0.3963 -0.4196
27503SOL     OW84276   4.673   5.848   3.539  0.2069  0.1919 -0.1076
27503SOL    HW184277   4.609   5.801   3.592  0.1929 -1.2124 -1.2894
27503SOL    HW284278   4.742   5.874   3.601  0.5356 -1.9996  0.5341
27504SOL     OW84279   4.452   7.152   8.189  0.8491  0.6260  0.7843
27504SOL    HW184280   4.363   7.151   8.155  1.1458  0.1706 -0.0176
27504SOL    HW284281   4.483   7.242   8.172  1.4103  0.0965 -1.3772
27505SOL     OW84282   8.867   9.548   0.273  0.1563  0.0442 -0.2840
27505SOL    HW184283   8.887   9.642   0.272  0.5998 -0.0500 -0.4587
27505SOL    HW284284   8.951   9.506   0.255  0.1245 -0.4134  0.5834
27506SOL     OW84285   6.456   8.736   6.796  0.2406 -0.2146 -0.4128
27506SOL    HW184286   6.458   8.821   6.753  2.0613 -0.1123 -0.2229
27506SOL    HW284287   6.387   8.687   6.751 -0.5527  1.2063 -0.7913
27507SOL     OW84288   4.329   5.684   7.411 -0.4210  0.0010 -0.6161
27507SOL    HW184289   4.409   5.648   7.449  0.0372  2.0082  0.4639
27507SOL    HW284290   4.356   5.719   7.326 -0.2015  0.3946 -0.3881
27508SOL     OW84291   8.727   5.459   7.895 -0.2553 -0.4674  0.1604
27508SOL    HW184292   8.725   5.501   7.980 -1.7655  0.0459 -0.0967
27508SOL    HW284293   8.662   5.506   7.843 -0.0273 -1.3620 -0.9872
27509SOL     OW84294   5.469   5.355   3.809  0.3029  0.0547  0.2036
27509SOL    HW184295   5.440   5.404   3.886  0.4507 -0.5895  0.6749
27509SOL    HW284296   5.557   5.389   3.790 -0.2080  1.0705 -0.4274
27510SOL     OW84297   4.219   0.969   8.017  0.0655 -0.4767  0.2002
27510SOL    HW184298   4.215   0.897   8.081 -1.2559  0.6558  1.4701
27510SOL    HW284299   4.133   1.010   8.022  1.3104  2.2916  0.8617
27511SOL     OW84300   2.649   8.347   4.875 -0.6209 -0.1574  0.1687
27511SOL    HW184301   2.575   8.337   4.934  0.1061 -0.1856  1.1039
27511SOL    HW284302   2.687   8.259   4.868 -0.7805 -0.1818 -0.4524
27512SOL     OW84303   3.745   2.770   5.639  0.7405  0.4422  0.4997
27512SOL    HW184304   3.787   2.716   5.707 -1.0841  0.9789  2.1284
27512SOL    HW284305   3.652   2.762   5.657  0.1200  0.1369 -2.3618
27513SOL     OW84306   9.619   1.164   2.704 -0.2377  0.0281  0.1488
27513SOL    HW184307   9.619   1.211   2.621  1.2290  2.0233  1.1739
27513SOL    HW284308   9.538   1.192   2.748  0.6771  1.7899  0.7948
27514SOL     OW84309   0.438   4.333   7.866  0.1027 -0.6693  0.2060
27514SOL    HW184310   0.430   4.246   7.826 -0.1595 -0.3069 -0.5416
27514SOL    HW284311   0.416   4.319   7.958  0.8985 -1.5541  0.2826
27515SOL     OW84312   6.353   8.083   6.512 -0.3792  0.2850  0.1847
27515SOL    HW184313   6.402   8.077   6.594  1.2137 -0.6046 -0.7900
27515SOL    HW284314   6.404   8.142   6.457 -0.0274 -1.1392 -1.0774
27516SOL     OW84315   3.489   0.990   4.637 -0.0858 -0.2388  0.5825
27516SOL    HW184316   3.581   0.965   4.623  1.1141  3.3864  1.1038
27516SOL    HW284317   3.474   0.974   4.730  0.3044  0.0058  0.6893
27517SOL     OW84318   4.976   1.348   5.798  0.4370  0.4406  0.0284
27517SOL    HW184319   5.055   1.296   5.813  0.7095  0.9199  0.2889
27517SOL    HW284320   4.958   1.338   5.704  1.8765  1.7764 -0.4574
27518SOL     OW84321   1.353   8.500   7.661  0.4968 -0.4892 -0.1605
27518SOL    HW184322   1.282   8.556   7.691  0.7059 -0.7006  0.7883
27518SOL    HW284323   1.311   8.435   7.605  0.1067  0.0148 -0.4552
27519SOL     OW84324   5.702   0.794   7.509 -0.5771 -0.1494 -0.5988
27519SOL    HW184325   5.675   0.885   7.496 -0.4969 -0.0893 -0.3486
27519SOL    HW284326   5.770   0.780   7.443  0.1022  0.2730  0.0034
27520SOL     OW84327   3.589   1.042   5.836 -0.4995 -0.3155  0.1688
27520SOL    HW184328   3.645   1.116   5.860 -1.4302  1.2181 -2.0380
27520SOL    HW284329   3.522   1.039   5.905  0.9039 -0.7019  1.5740
27521SOL     OW84330   8.444   0.337   5.361 -0.2302 -0.0999 -0.2936
27521SOL    HW184331   8.392   0.257   5.353 -2.2278  0.9428  1.1485
27521SOL    HW284332   8.432   0.381   5.277  0.7948 -1.2183 -1.0596
27522SOL     OW84333   7.030   8.212   0.123  0.2162 -0.1533 -0.0121
27522SOL    HW184334   7.004   8.129   0.085  3.0474 -0.4876 -1.4809
27522SOL    HW284335   7.098   8.190   0.187 -0.8278  0.8662  1.5269
27523SOL     OW84336   8.620   5.589   1.468  0.1739 -0.5002  1.0446
27523SOL    HW184337   8.573   5.665   1.432 -0.5570 -0.6691  1.6064
27523SOL    HW284338   8.603   5.594   1.562  0.7339 -0.9538  1.1713
27524SOL     OW84339   3.186   1.170   1.626  0.0824 -0.0785  0.2561
27524SOL    HW184340   3.110   1.197   1.575 -0.0922 -0.9207  0.0603
27524SOL    HW284341   3.151   1.144   1.711  0.2080 -0.0699  0.3119
27525SOL     OW84342   0.294   7.647   6.431 -0.8585  0.0818 -0.2963
27525SOL    HW184343   0.255   7.713   6.374 -0.6819  0.8008  0.3850
27525SOL    HW284344   0.240   7.649   6.510 -1.3688 -1.2090 -0.5920
27526SOL     OW84345   8.250   5.893   8.916 -0.0218  0.3562  0.0525
27526SOL    HW184346   8.234   5.960   8.849 -0.3296 -0.9235 -1.1905
27526SOL    HW284347   8.336   5.856   8.893  0.2646  0.4875  0.8855
27527SOL     OW84348   6.867   4.898   6.281  0.4160 -0.4771 -0.5437
27527SOL    HW184349   6.792   4.954   6.298  0.5650  0.0918 -1.6246
27527SOL    HW284350   6.942   4.946   6.319  0.3625 -0.5851 -0.3013
27528SOL     OW84351   9.357   6.191   0.794 -0.4898  0.5222 -0.5861
27528SOL    HW184352   9.295   6.161   0.860  0.4653  0.2258  0.1917
27528SOL    HW284353   9.428   6.231   0.843 -0.1902  1.1113 -1.4782
27529SOL     OW84354   6.748   5.929   5.569  0.2561 -0.1329 -0.2396
27529SOL    HW184355   6.701   5.995   5.518 -2.9483 -1.3979  0.8538
27529SOL    HW284356   6.751   5.852   5.512  0.5008 -0.2615 -0.0565
27530SOL     OW84357   1.653   1.504   3.757 -0.1719  0.0293 -0.2805
27530SOL    HW184358   1.683   1.498   3.667 -1.1204  0.9618 -0.6868
27530SOL    HW284359   1.561   1.477   3.754  0.0008 -0.6993  0.5482
27531SOL     OW84360   7.662   5.439   7.452  0.0752  0.3902  0.4413
27531SOL    HW184361   7.686   5.367   7.394  1.8939  1.0038  0.3761
27531SOL    HW284362   7.665   5.401   7.540 -0.9828 -0.1046  0.2762
27532SOL     OW84363   1.854   6.095   6.611 -0.4715  0.0060 -0.5316
27532SOL    HW184364   1.924   6.090   6.676 -0.2249  3.2192 -0.3967
27532SOL    HW284365   1.899   6.095   6.527 -0.6393 -1.7065 -0.6631
27533SOL     OW84366   1.543   4.336   1.724  0.4172 -0.4909  0.6209
27533SOL    HW184367   1.521   4.314   1.633 -0.1557 -0.0415  0.6419
27533SOL    HW284368   1.560   4.252   1.766 -1.3400 -0.8903  0.6113
27534SOL     OW84369   8.311   7.496   9.500  0.8773  0.1762 -0.2859
27534SOL    HW184370   8.363   7.426   9.539 -1.4694 -0.3172  2.2727
27534SOL    HW284371   8.227   7.455   9.480 -0.3939  2.0723  0.8172
27535SOL     OW84372   8.398   1.296   5.837 -0.8489  0.1137 -0.8526
27535SOL    HW184373   8.366   1.327   5.921  0.0570  2.4554 -1.3054
27535SOL    HW284374   8.442   1.213   5.857 -1.4018  0.1948  0.8138
27536SOL     OW84375   7.958   8.793   6.321 -0.4098  0.3250 -0.2333
27536SOL    HW184376   8.042   8.839   6.313  0.4086 -1.2665 -1.3737
27536SOL    HW284377   7.922   8.793   6.232 -0.4366 -1.1005 -0.2389
27537SOL     OW84378   4.860   3.174   5.771 -0.3837  0.4252  0.4852
27537SOL    HW184379   4.819   3.148   5.688 -1.1149  0.6251  0.7775
27537SOL    HW284380   4.954   3.177   5.751 -0.4805 -0.3381 -0.1110
27538SOL     OW84381   5.641   1.388   1.789  0.7547 -0.2117 -0.1239
27538SOL    HW184382   5.627   1.320   1.855  0.7209 -0.7963 -0.7270
27538SOL    HW284383   5.668   1.465   1.840 -2.0837  0.2430  0.8750
27539SOL     OW84384   0.673   9.842   4.008  0.2294 -0.2026  0.1397
27539SOL    HW184385   0.622   9.890   3.943  0.1908 -0.4226  0.0075
27539SOL    HW284386   0.708   9.767   3.961  1.8100  0.6689 -0.1191
27540SOL     OW84387   1.631   6.549   0.056 -0.5770  0.3534  0.9523
27540SOL    HW184388   1.628   6.577   0.148  1.5123 -0.5544  1.3550
27540SOL    HW284389   1.568   6.477   0.051 -0.9890  0.6542  1.5690
27541SOL     OW84390   8.213   0.300   3.944  0.0712 -0.4643  0.7229
27541SOL    HW184391   8.163   0.222   3.968  0.0579 -0.5060  0.5584
27541SOL    HW284392   8.205   0.358   4.020 -0.7153 -0.2291  0.4776
27542SOL     OW84393   4.845   8.016   0.294  0.1341  0.3601  0.1597
27542SOL    HW184394   4.803   7.952   0.350  1.9198  0.0249  1.1867
27542SOL    HW284395   4.778   8.083   0.279 -0.8413 -0.2925  1.4453
27543SOL     OW84396   2.724   0.769   0.389  0.2954 -0.0888 -0.3872
27543SOL    HW184397   2.801   0.713   0.405 -0.2131 -0.7977 -0.3834
27543SOL    HW284398   2.715   0.770   0.294  1.0160  0.9769 -0.4578
27544SOL     OW84399   7.530   9.573   1.438  0.0625  0.0793 -0.2368
27544SOL    HW184400   7.484   9.636   1.494 -1.0016 -0.0773 -0.8982
27544SOL    HW284401   7.610   9.552   1.486 -0.3760  0.6566  0.7763
27545SOL     OW84402   7.477   7.025   6.879  0.7932  0.0990 -0.4357
27545SOL    HW184403   7.548   7.019   6.944  0.9198 -0.9938 -0.6587
27545SOL    HW284404   7.517   6.997   6.797 -0.0542 -1.1943 -0.4302
27546SOL     OW84405   1.391   4.917   9.510 -0.4271  0.4248  0.2885
27546SOL    HW184406   1.361   4.962   9.431  0.8400  0.1162 -0.3746
27546SOL    HW284407   1.449   4.980   9.553  0.0963  0.0122  0.1824
27547SOL     OW84408   0.734   1.202   0.954  0.5142 -0.7391  0.1034
27547SOL    HW184409   0.722   1.218   1.048 -0.4159 -1.9332  0.2207
27547SOL    HW284410   0.737   1.107   0.947  0.5475 -0.6604 -1.0857
27548SOL     OW84411   6.255   2.590   3.344 -0.1475  0.0031 -0.3941
27548SOL    HW184412   6.248   2.626   3.255 -2.3161 -0.1115 -0.3308
27548SOL    HW284413   6.170   2.547   3.359  0.1513  0.0509  1.7565
27549SOL     OW84414   4.671   6.965   0.481  0.2206 -0.2857  0.2312
27549SOL    HW184415   4.738   6.950   0.414 -0.5474  0.4551 -0.7484
27549SOL    HW284416   4.589   6.969   0.432 -0.2992  0.8711  1.1315
27550SOL     OW84417   4.658   5.198   8.507  0.5942  0.2357  0.3459
27550SOL    HW184418   4.637   5.274   8.560  0.4065  0.7003 -0.3806
27550SOL    HW284419   4.669   5.232   8.418 -0.6006 -0.7340 -0.2106
27551SOL     OW84420   1.532   0.413   0.096  0.2783 -0.5613 -0.1796
27551SOL    HW184421   1.525   0.503   0.129 -2.2208  0.3314 -2.7125
27551SOL    HW284422   1.465   0.365   0.145 -0.9063 -0.1024 -1.2825
27552SOL     OW84423   0.344   3.887   1.730 -0.3111 -0.2319 -0.0655
27552SOL    HW184424   0.320   3.957   1.790 -0.3829  0.1470 -0.5323
27552SOL    HW284425   0.394   3.930   1.661 -0.0227 -0.7005 -0.1549
27553SOL     OW84426   4.778   1.601   3.755 -0.5802 -0.0388 -0.3750
27553SOL    HW184427   4.808   1.664   3.821 -3.5061  1.2871 -0.1703
27553SOL    HW284428   4.769   1.519   3.803  0.2621  0.1489  0.1204
27554SOL     OW84429   3.862   5.909   3.128  0.3271 -0.1205  0.0498
27554SOL    HW184430   3.918   5.855   3.073  0.7356  1.7121 -1.4479
27554SOL    HW284431   3.895   5.998   3.116 -1.1747  0.6686  1.3107
27555SOL     OW84432   6.222   7.846   6.618 -0.7729 -0.4869  0.5924
27555SOL    HW184433   6.228   7.875   6.708 -0.9570 -1.1419  0.8240
27555SOL    HW284434   6.281   7.771   6.612 -0.0909  0.0885 -0.0628
27556SOL     OW84435   0.845   7.583   1.307 -0.0120  0.7603  0.3056
27556SOL    HW184436   0.882   7.583   1.395 -0.0570 -1.9472  0.4018
27556SOL    HW284437   0.751   7.571   1.320 -0.2532  2.0200 -0.1034
27557SOL     OW84438   4.768   0.049   1.416  0.5490 -0.3994  0.6151
27557SOL    HW184439   4.752   0.134   1.373  1.9533  0.1710  1.1588
27557SOL    HW284440   4.684   0.025   1.453  0.3014  1.1681  1.1484
27558SOL     OW84441   1.683   7.322   0.610 -0.6975 -0.0458  0.3781
27558SOL    HW184442   1.630   7.370   0.673 -1.2650 -1.0245  0.6657
27558SOL    HW284443   1.757   7.288   0.661 -0.3390  0.4379  0.1912
27559SOL     OW84444   5.737   0.138   5.069 -0.5191  0.0206  0.2463
27559SOL    HW184445   5.789   0.184   5.135 -0.4234 -1.5820  1.3531
27559SOL    HW284446   5.769   0.047   5.072 -1.1038 -0.2824 -1.4261
27560SOL     OW84447   6.501   4.875   4.648 -0.1869  0.4522 -0.1957
27560SOL    HW184448   6.500   4.902   4.740  3.8599 -0.4298  0.2714
27560SOL    HW284449   6.520   4.956   4.600  0.6913  0.4143  0.0752
27561SOL     OW84450   4.254   8.772   9.327  0.5409 -0.3863 -0.0580
27561SOL    HW184451   4.187   8.724   9.278 -1.2028  2.9266 -1.1609
27561SOL    HW284452   4.325   8.783   9.265 -0.1453  0.6502 -0.6800
27562SOL     OW84453   4.022   3.972   4.490 -0.0103 -0.3861 -0.4027
27562SOL    HW184454   4.103   3.976   4.439 -0.0790  0.5386 -0.4408
27562SOL    HW284455   4.041   3.907   4.558  0.1472 -1.4829 -1.4645
27563SOL     OW84456   1.030   7.561   9.373 -0.0666  0.1915 -0.2947
27563SOL    HW184457   1.023   7.518   9.288 -1.3594  0.1476 -0.1790
27563SOL    HW284458   0.941   7.564   9.407 -0.0078  2.6388 -0.1352
27564SOL     OW84459   3.032   5.975   9.351  0.2915 -0.2276 -0.1283
27564SOL    HW184460   3.087   5.898   9.362 -0.0213 -0.4389 -0.0153
27564SOL    HW284461   3.051   6.006   9.263  2.0585  0.8727  0.5901
27565SOL     OW84462   5.155   5.961   8.617 -0.3822  0.0734 -0.2764
27565SOL    HW184463   5.165   6.012   8.696  0.6447  0.5578 -0.7055
27565SOL    HW284464   5.092   5.893   8.640 -0.7502  0.7248  0.6887
27566SOL     OW84465   8.013   8.652   7.941 -0.4467 -1.2168 -0.1186
27566SOL    HW184466   8.083   8.590   7.959  0.6128  0.0468  0.2322
27566SOL    HW284467   8.055   8.726   7.899 -1.4730 -0.2093  0.5495
27567SOL     OW84468   3.234   8.561   1.718  0.2276 -0.6428  0.6121
27567SOL    HW184469   3.309   8.526   1.766  0.0712 -0.9204  0.6590
27567SOL    HW284470   3.199   8.629   1.775  1.7275  1.0142 -0.3469
27568SOL     OW84471   4.639   3.002   6.840 -0.0836  0.3957  0.0982
27568SOL    HW184472   4.619   3.011   6.933 -1.7336 -0.3312 -0.1505
27568SOL    HW284473   4.565   3.044   6.796 -1.3150 -2.5667 -0.8939
27569SOL     OW84474   8.183   3.680   6.701 -0.0634  0.5596  0.1611
27569SOL    HW184475   8.267   3.672   6.655 -0.2772 -0.5401 -0.0571
27569SOL    HW284476   8.157   3.772   6.688  0.9594  0.8363 -0.0110
27570SOL     OW84477   0.833   6.449   9.255  0.0434 -0.3320  0.7090
27570SOL    HW184478   0.828   6.358   9.227  0.6036 -0.6452  1.6000
27570SOL    HW284479   0.921   6.459   9.291 -0.5725  0.0866  2.1780
27571SOL     OW84480   7.209   9.396   8.130  0.2667  0.3165  0.7606
27571SOL    HW184481   7.206   9.418   8.223  0.4451 -1.3105  1.1676
27571SOL    HW284482   7.271   9.324   8.124  1.3303  1.2901 -0.8289
27572SOL     OW84483   0.770   3.051   9.354  0.2437 -0.1337 -0.0431
27572SOL    HW184484   0.748   3.007   9.436  1.3657 -1.3332 -0.3552
27572SOL    HW284485   0.686   3.083   9.321 -0.1602  0.9858  1.8846
27573SOL     OW84486   0.106   8.162   0.318  0.3942  0.1095 -0.3473
27573SOL    HW184487   0.094   8.251   0.287  0.6462  0.3079  0.1073
27573SOL    HW284488   0.017   8.126   0.324  0.3467  0.0329 -1.3583
27574SOL     OW84489   5.543   6.854   2.655 -0.3838  0.0114 -0.3622
27574SOL    HW184490   5.529   6.772   2.608  1.1629 -0.2261 -0.4731
27574SOL    HW284491   5.608   6.833   2.722  0.5027  1.2711 -0.7849
27575SOL     OW84492   7.159   7.065   1.956 -0.2173  0.1880 -0.4992
27575SOL    HW184493   7.147   7.055   1.861  0.0958  1.8701 -0.7514
27575SOL    HW284494   7.254   7.063   1.968 -0.2791 -0.8285 -0.0985
27576SOL     OW84495   7.472   9.436   4.502  0.4387 -0.0628 -0.1225
27576SOL    HW184496   7.527   9.362   4.526  0.4316  0.2729  0.9835
27576SOL    HW284497   7.530   9.496   4.456  1.9920  1.8141  3.8055
27577SOL     OW84498   7.864   8.248   2.243  0.1819 -0.5840 -0.0758
27577SOL    HW184499   7.956   8.260   2.220  0.5655 -2.6630  0.2062
27577SOL    HW284500   7.818   8.247   2.159  0.7084 -1.6799 -0.3591
27578SOL     OW84501   8.966   9.408   9.178 -0.0579 -0.1001 -0.2618
27578SOL    HW184502   8.934   9.320   9.196  2.0971 -0.9491 -0.3143
27578SOL    HW284503   9.036   9.397   9.113 -0.2137  1.7287 -0.8179
27579SOL     OW84504   3.635   1.818   1.997  0.5253  0.0853  0.0729
27579SOL    HW184505   3.574   1.804   1.925 -1.3041  1.2947  1.3173
27579SOL    HW284506   3.629   1.739   2.050 -1.3761  0.8551  1.1207
27580SOL     OW84507   4.175   5.103   4.637  0.1507 -0.1979 -0.5676
27580SOL    HW184508   4.266   5.073   4.646  0.3555  0.1967 -1.2187
27580SOL    HW284509   4.152   5.134   4.725  0.6161 -0.3897 -0.3710
27581SOL     OW84510   0.276   2.469   1.441 -0.1220 -0.1271  0.6365
27581SOL    HW184511   0.341   2.540   1.437 -1.9890  1.6148 -0.8415
27581SOL    HW284512   0.200   2.509   1.483 -2.1280 -0.3724 -2.4571
27582SOL     OW84513   2.494   6.326   5.395  0.1607 -0.2450 -0.2563
27582SOL    HW184514   2.585   6.350   5.410 -0.5873  1.1837  2.9461
27582SOL    HW284515   2.488   6.234   5.422  0.5673 -0.2098 -0.0476
27583SOL     OW84516   9.438   6.168   3.908  0.1401 -0.1268  0.0686
27583SOL    HW184517   9.505   6.236   3.915  1.8943 -1.8501  1.2971
27583SOL    HW284518   9.448   6.117   3.989 -0.4855 -2.3382 -1.1756
27584SOL     OW84519   0.658   8.377   4.588 -0.4941 -0.8243 -0.1875
27584SOL    HW184520   0.658   8.282   4.575  0.2828 -0.7547 -0.7195
27584SOL    HW284521   0.689   8.388   4.678 -2.5514 -1.1459  0.6239
27585SOL     OW84522   9.773   2.235   3.821  0.2009  0.3629  0.0815
27585SOL    HW184523   9.692   2.198   3.785  0.2814 -0.9956  1.2146
27585SOL    HW284524   9.770   2.215   3.914  1.5573  0.8355  0.2580
27586SOL     OW84525   0.199   4.840   2.503 -0.1467 -0.1072  0.0865
27586SOL    HW184526   0.166   4.822   2.415  0.9699 -2.3233  0.0358
27586SOL    HW284527   0.261   4.912   2.491  1.0047 -1.2609 -1.2334
27587SOL     OW84528   8.280   5.622   8.012 -0.0384 -0.2640  0.2747
27587SOL    HW184529   8.311   5.648   7.925  0.2029 -0.0112  0.4326
27587SOL    HW284530   8.326   5.681   8.072 -0.0837 -0.5423  0.5849
27588SOL     OW84531   6.880   9.136   3.321  0.2415 -0.0815  0.4023
27588SOL    HW184532   6.968   9.102   3.308 -0.0335 -0.4906 -0.4641
27588SOL    HW284533   6.823   9.077   3.271 -0.5149  0.2113  0.8969
27589SOL     OW84534   5.040   3.519   8.570 -0.6357  0.3097 -0.0624
27589SOL    HW184535   5.037   3.426   8.593  0.4700  0.3955  0.5024
27589SOL    HW284536   5.017   3.522   8.477 -0.0104 -0.6114 -0.2641
27590SOL     OW84537   0.590   0.172   6.325 -0.1461 -0.3095  0.4042
27590SOL    HW184538   0.600   0.233   6.398 -2.6324  0.2470  0.3731
27590SOL    HW284539   0.548   0.095   6.364  2.4372 -1.9094  0.3314
27591SOL     OW84540   1.975   1.494   1.690 -0.2237 -0.1893  0.1838
27591SOL    HW184541   2.068   1.481   1.671 -0.1876 -1.4011  1.0665
27591SOL    HW284542   1.950   1.570   1.638  0.9255 -0.6840 -1.1485
27592SOL     OW84543   2.085   3.333   4.421  0.5600  0.2997  0.0456
27592SOL    HW184544   2.069   3.244   4.391 -1.6966  0.5477  0.2963
27592SOL    HW284545   2.012   3.383   4.385  1.9789  2.1602 -0.4257
27593SOL     OW84546   1.080   0.523   4.421 -0.0198  0.3459  0.7179
27593SOL    HW184547   1.123   0.492   4.501 -0.8604 -2.4042  0.1910
27593SOL    HW284548   1.016   0.456   4.400  0.3044  0.8508 -2.4106
27594SOL     OW84549   6.049   6.684   3.494  0.5211 -0.1556 -0.2383
27594SOL    HW184550   6.086   6.646   3.414 -3.3530 -0.6761 -2.0180
27594SOL    HW284551   6.053   6.613   3.558  1.2491 -0.6389 -0.7986
27595SOL     OW84552   7.014   7.441   2.794  0.3283  0.1173  1.1895
27595SOL    HW184553   6.981   7.408   2.710 -1.8901  2.6135  0.9443
27595SOL    HW284554   6.946   7.417   2.857  0.2428  1.2896  1.5757
27596SOL     OW84555   5.233   9.112   7.140 -0.5212  0.1128 -0.2779
27596SOL    HW184556   5.270   9.130   7.054 -0.3916  1.8200  0.0977
27596SOL    HW284557   5.139   9.104   7.126 -0.3869 -0.7639 -0.7277
27597SOL     OW84558   6.133   6.970   6.127 -0.0818 -0.3727  0.1993
27597SOL    HW184559   6.128   7.014   6.212 -0.6727  0.1083 -0.0796
27597SOL    HW284560   6.191   6.895   6.142 -1.6154 -1.3830  1.5182
27598SOL     OW84561   4.971   8.956   6.131 -0.1532 -0.1971  0.3475
27598SOL    HW184562   4.943   8.957   6.223  1.1325 -0.6479  0.7674
27598SOL    HW284563   4.980   8.863   6.110  0.7925 -0.0703  0.1668
27599SOL     OW84564   4.466   4.047   0.562 -0.0772  0.0466  0.2029
27599SOL    HW184565   4.488   3.959   0.592 -0.3522  0.0133  0.3051
27599SOL    HW284566   4.385   4.069   0.608  1.9371  1.9029  3.2368
27600SOL     OW84567   0.463   9.370   8.684 -0.0713 -0.6217  0.6194
27600SOL    HW184568   0.451   9.360   8.590  0.1686 -1.6503  0.6862
27600SOL    HW284569   0.483   9.463   8.697 -0.0708 -0.4850 -0.3411
27601SOL     OW84570   2.444   8.319   2.280 -0.5715  0.5845 -0.2812
27601SOL    HW184571   2.368   8.280   2.237 -0.4179 -1.3193  1.0789
27601SOL    HW284572   2.519   8.278   2.238 -0.3265  1.0613 -0.3236
27602SOL     OW84573   4.822   3.657   8.069  0.5448  0.4932  0.0595
27602SOL    HW184574   4.770   3.686   7.993 -0.5634 -1.5597 -0.0295
27602SOL    HW284575   4.815   3.562   8.067 -0.2470  0.3833  3.2313
27603SOL     OW84576   0.549   7.308   3.072  0.3674  0.4125 -0.0436
27603SOL    HW184577   0.529   7.221   3.109 -0.2211  0.8134  0.6041
27603SOL    HW284578   0.506   7.369   3.131  1.5513  1.2047  0.0297
27604SOL     OW84579   4.378   6.634   3.416  0.3874  0.0562  0.3005
27604SOL    HW184580   4.460   6.592   3.443  1.2179  1.3506 -0.1276
27604SOL    HW284581   4.386   6.724   3.447 -0.6560  0.3343 -0.2012
27605SOL     OW84582   1.974   1.638   0.841 -0.0859 -0.5310  0.2305
27605SOL    HW184583   2.014   1.592   0.767  0.4037  0.8675 -0.4096
27605SOL    HW284584   2.048   1.672   0.892 -0.4062 -1.8884  1.6657
27606SOL     OW84585   4.954   5.230   8.306  0.2104 -0.0239  0.0525
27606SOL    HW184586   4.860   5.243   8.299  0.4100  1.2855 -0.4110
27606SOL    HW284587   4.984   5.219   8.215  0.7131  1.3025  0.0281
27607SOL     OW84588   1.282   1.235   9.520 -0.1750 -0.1231  0.6916
27607SOL    HW184589   1.247   1.147   9.505 -1.4859  0.4452  0.1749
27607SOL    HW284590   1.260   1.254   9.611  1.8128 -1.0305  1.3997
27608SOL     OW84591   2.258   3.765   7.609 -0.0071  0.3295 -0.1973
27608SOL    HW184592   2.238   3.681   7.650 -0.2267  0.4411 -0.0716
27608SOL    HW284593   2.269   3.745   7.516  1.5868 -0.1152  0.0459
27609SOL     OW84594   1.331   9.129   1.540  0.4973  0.6140  0.2720
27609SOL    HW184595   1.344   9.081   1.459  0.3506  0.6151  0.2475
27609SOL    HW284596   1.416   9.168   1.559  1.0161 -0.8258  1.0512
27610SOL     OW84597   8.930   2.042   5.204  0.5027  0.1660  0.6166
27610SOL    HW184598   8.899   2.017   5.291  1.9564 -1.2822  0.7718
27610SOL    HW284599   8.851   2.069   5.157 -1.0196 -2.9701  1.0964
27611SOL     OW84600   1.856   0.383   7.199  0.5238  0.1413  0.0412
27611SOL    HW184601   1.867   0.477   7.190  0.4461  0.2667  1.2154
27611SOL    HW284602   1.925   0.345   7.144  0.7274  0.8740 -0.2171
27612SOL     OW84603   6.645   6.024   7.950 -0.6068 -0.1875 -0.2470
27612SOL    HW184604   6.674   5.934   7.932 -1.9423 -1.0935  1.7266
27612SOL    HW284605   6.572   6.038   7.890 -1.0453 -0.8327  0.1195
27613SOL     OW84606   0.772   0.435   6.180 -0.6083 -0.2592  0.7049
27613SOL    HW184607   0.690   0.441   6.131 -0.0742 -1.2758 -0.3433
27613SOL    HW284608   0.744   0.436   6.272 -2.1156 -3.6390  0.4451
27614SOL     OW84609   8.705   2.123   2.672 -0.2445  0.1466  0.0663
27614SOL    HW184610   8.636   2.147   2.733 -0.3854  1.0062 -0.4224
27614SOL    HW284611   8.766   2.071   2.724  0.3836  2.0444  1.3284
27615SOL     OW84612   3.618   5.798   0.327 -0.1935  0.1702 -0.1660
27615SOL    HW184613   3.697   5.821   0.375 -1.5335  0.9532  1.8024
27615SOL    HW284614   3.572   5.881   0.314 -2.9947 -0.6341  3.1508
27616SOL     OW84615   2.856   2.120   3.732 -0.2893 -0.1642 -0.1978
27616SOL    HW184616   2.825   2.039   3.772  1.0106 -0.3339  0.5336
27616SOL    HW284617   2.944   2.099   3.701  1.0465  1.5684  2.1390
27617SOL     OW84618   3.235   7.496   3.798 -0.0565  0.3241 -0.2863
27617SOL    HW184619   3.293   7.458   3.863 -1.5889  1.3080  1.7723
27617SOL    HW284620   3.165   7.537   3.849 -1.6402  0.6833 -2.5810
27618SOL     OW84621   7.038   4.961   7.219 -0.4973 -0.0071 -0.2790
27618SOL    HW184622   7.092   4.928   7.291 -0.6444  1.4449  0.5269
27618SOL    HW284623   6.953   4.979   7.260 -0.7002  0.4809 -0.9019
27619SOL     OW84624   3.320   9.808   0.253  0.3217  0.2808 -0.1405
27619SOL    HW184625   3.303   9.714   0.253 -0.0333  0.3308  0.9762
27619SOL    HW284626   3.368   9.824   0.172  1.7000 -1.1091  0.3663
27620SOL     OW84627   7.546   8.831   6.838 -0.0180 -0.2489  0.0593
27620SOL    HW184628   7.510   8.835   6.750 -1.0549 -0.0730  0.4757
27620SOL    HW284629   7.639   8.849   6.827 -0.6732  3.4821 -0.6063
27621SOL     OW84630   6.366   6.324   7.857  0.0429  0.0583  0.1111
27621SOL    HW184631   6.304   6.335   7.785  1.2291 -2.9621 -1.5784
27621SOL    HW284632   6.312   6.294   7.931 -0.9318  1.1534 -0.1303
27622SOL     OW84633   9.366   5.601   6.544 -0.2182 -0.2647 -0.2317
27622SOL    HW184634   9.395   5.685   6.579 -0.3319 -0.2603 -0.1465
27622SOL    HW284635   9.312   5.563   6.613 -1.7341  0.4326 -0.9953
27623SOL     OW84636   7.271   6.163   7.400  0.1270 -0.1975 -0.2413
27623SOL    HW184637   7.317   6.080   7.384 -0.2669 -0.1633 -1.6895
27623SOL    HW284638   7.249   6.195   7.313 -0.1715  1.1941  0.3260
27624SOL     OW84639   5.322   1.264   6.968 -0.1899  0.4960  0.1725
27624SOL    HW184640   5.271   1.254   6.887  0.6663  1.2030 -0.4797
27624SOL    HW284641   5.410   1.283   6.938  0.8775 -2.2857  1.2616
27625SOL     OW84642   1.170   7.827   4.945 -0.2939 -0.0206  0.3150
27625SOL    HW184643   1.265   7.842   4.944 -0.4637  1.1351 -0.0158
27625SOL    HW284644   1.137   7.884   5.014 -0.8038 -0.0399  0.0930
27626SOL     OW84645   9.121   3.474   6.975  0.1684 -0.6046  0.6653
27626SOL    HW184646   9.035   3.501   6.944  0.7688 -0.5468 -1.0750
27626SOL    HW284647   9.105   3.393   7.023 -0.8677 -0.5689  0.3917
27627SOL     OW84648   5.172   0.661   4.347  0.0661 -0.3225  0.0954
27627SOL    HW184649   5.194   0.569   4.330 -2.6774 -1.2785  1.1353
27627SOL    HW284650   5.256   0.705   4.353  1.5269 -2.9632  0.5634
27628SOL     OW84651   7.912   7.404   2.534 -0.1092 -0.4139 -0.2442
27628SOL    HW184652   7.941   7.333   2.591  0.0311  1.0540  1.6223
27628SOL    HW284653   7.818   7.413   2.554 -0.2307 -0.3521 -0.8195
27629SOL     OW84654   9.581   9.783   1.178 -0.4173 -0.0550  0.0545
27629SOL    HW184655   9.651   9.746   1.231 -0.7275 -1.4502 -0.4872
27629SOL    HW284656   9.588   9.878   1.193  1.2729 -0.1967  0.3682
27630SOL     OW84657   2.744   3.529   3.310 -0.5541  0.4901 -0.3807
27630SOL    HW184658   2.728   3.557   3.220  1.8730  0.9185 -0.7495
27630SOL    HW284659   2.819   3.581   3.338  0.6883 -1.7942  0.8323
27631SOL     OW84660   1.545   1.264   0.853 -0.7827  0.0554 -0.7511
27631SOL    HW184661   1.543   1.359   0.865  0.2271 -0.0312  0.3195
27631SOL    HW284662   1.547   1.252   0.758 -0.0291  1.1319 -0.8880
27632SOL     OW84663   6.264   3.859   5.453  0.0615 -0.6784 -0.2780
27632SOL    HW184664   6.350   3.844   5.413  0.2599 -1.3888  0.4019
27632SOL    HW284665   6.202   3.813   5.397 -0.0108  0.5798 -1.2860
27633SOL     OW84666   1.528   9.597   1.606 -0.2808 -0.0348 -0.0620
27633SOL    HW184667   1.508   9.596   1.513 -0.2476 -2.1385 -0.0988
27633SOL    HW284668   1.442   9.608   1.648 -0.3992  0.0946 -0.3344
27634SOL     OW84669   2.026   4.666   4.756 -0.6315 -0.0282 -0.4004
27634SOL    HW184670   2.015   4.669   4.851 -0.3040 -0.4384 -0.3458
27634SOL    HW284671   2.010   4.574   4.733  1.1736 -0.3381 -0.4994
27635SOL     OW84672   3.909   4.233   7.300 -0.2514 -0.1516  0.7052
27635SOL    HW184673   3.972   4.224   7.371 -1.1483  0.6044  1.6274
27635SOL    HW284674   3.959   4.274   7.229  0.7646 -1.3017  0.7251
27636SOL     OW84675   4.127   2.314   5.305  0.3356 -0.1617  0.0879
27636SOL    HW184676   4.204   2.357   5.268 -0.6077  0.5332 -1.1348
27636SOL    HW284677   4.062   2.318   5.236  0.0904 -3.4010 -0.0041
27637SOL     OW84678   3.750   5.643   7.880  0.0975  0.2434 -0.2154
27637SOL    HW184679   3.720   5.563   7.836  0.7201 -0.7014  1.0103
27637SOL    HW284680   3.730   5.713   7.818  0.9987 -1.0249 -2.0597
27638SOL     OW84681   1.859   9.468   8.255 -0.3848 -0.5146  0.1875
27638SOL    HW184682   1.863   9.549   8.204 -0.5702  0.0224  0.9985
27638SOL    HW284683   1.923   9.482   8.325  0.8496 -1.7822 -0.6500
27639SOL     OW84684   1.116   4.136   0.817 -0.4086  0.4696 -0.2024
27639SOL    HW184685   1.041   4.151   0.875 -0.5560 -0.3935 -0.1668
27639SOL    HW284686   1.160   4.221   0.814 -2.2927  1.4794 -1.5224
27640SOL     OW84687   4.065   7.802   2.703 -0.0027  0.1418 -0.1171
27640SOL    HW184688   4.002   7.805   2.775 -1.1858 -0.4101 -1.1067
27640SOL    HW284689   4.124   7.730   2.726 -1.1751 -0.9098 -0.3293
27641SOL     OW84690   1.500   4.566   4.681 -0.4342  0.6918 -0.4369
27641SOL    HW184691   1.420   4.558   4.734 -0.7203  0.2967 -0.9226
27641SOL    HW284692   1.554   4.491   4.706 -0.9784 -0.0347 -1.3806
27642SOL     OW84693   3.257   1.525   6.186  0.2083 -0.5753  0.1868
27642SOL    HW184694   3.209   1.608   6.188  1.1363 -0.0221  0.3041
27642SOL    HW284695   3.340   1.547   6.144 -0.0823 -1.7571 -1.0700
27643SOL     OW84696   1.207   4.133   7.239  0.3108 -0.1106  0.0080
27643SOL    HW184697   1.251   4.184   7.171  2.0113 -0.5190  0.7355
27643SOL    HW284698   1.128   4.183   7.259  0.1680  0.4119 -1.7101
27644SOL     OW84699   4.059   2.174   4.522  0.0214 -0.2945  0.6706
27644SOL    HW184700   4.019   2.172   4.610 -1.2427  2.5499  0.2553
27644SOL    HW284701   3.991   2.211   4.466  1.9746  1.2379 -0.8190
27645SOL     OW84702   4.472   0.123   0.687 -0.2634 -0.4554  1.1605
27645SOL    HW184703   4.419   0.143   0.610 -1.1137 -4.0640  0.6119
27645SOL    HW284704   4.562   0.137   0.658 -0.6537  0.3182  0.2475
27646SOL     OW84705   3.806   9.277   9.296 -0.2679  0.7796  0.0259
27646SOL    HW184706   3.842   9.262   9.208 -0.7405 -0.9163  0.0886
27646SOL    HW284707   3.723   9.229   9.296  0.9195 -1.4923  2.2075
27647SOL     OW84708   7.036   5.406   6.306  0.6090 -0.4533 -0.2454
27647SOL    HW184709   7.000   5.411   6.217  1.6755 -1.5105 -0.7578
27647SOL    HW284710   6.970   5.449   6.361 -0.8881 -1.3136 -1.3025
27648SOL     OW84711   2.042   6.711   0.789 -0.3296  0.3924  0.6726
27648SOL    HW184712   2.059   6.713   0.695 -1.7133  0.1545  0.3820
27648SOL    HW284713   2.111   6.656   0.825  0.0851  0.2977 -0.2444
27649SOL     OW84714   3.754   3.064   5.565 -0.6034  0.1448 -0.5222
27649SOL    HW184715   3.714   3.072   5.479 -1.5698 -0.1967 -0.1104
27649SOL    HW284716   3.735   2.975   5.593 -1.3086  0.6053  0.5338
27650SOL     OW84717   2.246   0.134   7.573 -0.0573  0.0553 -0.4519
27650SOL    HW184718   2.178   0.181   7.623  0.6980 -0.0395  0.7056
27650SOL    HW284719   2.244   0.174   7.486 -1.5016  0.1444 -0.3984
27651SOL     OW84720   7.060   9.644   8.657  0.0857 -0.4984 -0.0466
27651SOL    HW184721   6.973   9.638   8.618 -0.4815  0.2318  1.0427
27651SOL    HW284722   7.105   9.711   8.606 -0.4724  0.0971  0.2391
27652SOL     OW84723   2.513   8.289   9.691 -0.2616 -0.0909 -0.0427
27652SOL    HW184724   2.531   8.382   9.704  0.8112 -0.3884  0.7311
27652SOL    HW284725   2.552   8.268   9.606  0.4172 -0.0397  0.2431
27653SOL     OW84726   2.968   7.277   4.049 -0.1311  0.0488  0.4693
27653SOL    HW184727   3.021   7.260   4.127  0.8205  0.4135 -0.0822
27653SOL    HW284728   2.979   7.371   4.032  2.0944 -0.5215 -1.7938
27654SOL     OW84729   2.531   7.281   8.112 -0.0010  0.0937  0.1890
27654SOL    HW184730   2.560   7.323   8.193  0.4729 -0.9995  0.6056
27654SOL    HW284731   2.589   7.316   8.044 -0.5469  1.1872  0.2572
27655SOL     OW84732   9.092   7.086   6.279  0.2166  0.1690 -0.2955
27655SOL    HW184733   9.108   7.180   6.268 -0.8159  0.3200 -0.6525
27655SOL    HW284734   9.111   7.048   6.193 -2.2576  0.5157 -1.0846
27656SOL     OW84735   7.494   5.474   0.805  0.3840 -0.2337  0.4322
27656SOL    HW184736   7.549   5.414   0.755 -0.5083 -1.3739  0.7824
27656SOL    HW284737   7.439   5.418   0.859 -0.9152  0.8773  0.3324
27657SOL     OW84738   3.825   4.021   5.215 -0.5480 -0.7141  0.4738
27657SOL    HW184739   3.846   4.078   5.289 -0.5569 -1.1296  0.8014
27657SOL    HW284740   3.848   3.933   5.246 -1.7262 -1.0423  0.4400
27658SOL     OW84741   8.509   5.870   6.749 -0.0967  0.0542 -0.3673
27658SOL    HW184742   8.537   5.909   6.833 -0.3851 -0.9877  0.2199
27658SOL    HW284743   8.414   5.864   6.756 -0.0108 -1.3056 -0.1940
27659SOL     OW84744   7.057   4.912   3.725 -0.1691  0.0762  0.1293
27659SOL    HW184745   7.063   4.877   3.636  1.1777 -2.0488  0.9673
27659SOL    HW284746   6.976   4.963   3.726 -0.3134 -0.0045 -2.2355
27660SOL     OW84747   0.754   8.396   5.631 -0.5556 -0.6095  0.0263
27660SOL    HW184748   0.818   8.371   5.564  0.0399 -0.3669  0.4978
27660SOL    HW284749   0.792   8.474   5.673 -1.3669 -0.2005  0.0200
27661SOL     OW84750   1.596   3.689   5.893  0.1282 -0.1813 -0.1479
27661SOL    HW184751   1.569   3.748   5.822 -1.4090 -0.9084 -0.1919
27661SOL    HW284752   1.576   3.738   5.973  3.6351  1.4590 -0.0894
27662SOL     OW84753   8.695   2.295   7.405  0.7751 -0.5158 -0.6983
27662SOL    HW184754   8.656   2.213   7.433 -0.4639  0.3366  0.1990
27662SOL    HW284755   8.621   2.355   7.397  1.5256  0.2609 -2.3339
27663SOL     OW84756   7.331   3.506   9.097 -0.3302  0.0291 -0.1518
27663SOL    HW184757   7.277   3.458   9.160 -1.1921  1.4025  0.1987
27663SOL    HW284758   7.299   3.477   9.011  0.9955 -2.0130 -0.0217
27664SOL     OW84759   1.596   8.384   3.500  0.1586 -0.2000  0.3052
27664SOL    HW184760   1.691   8.374   3.496  0.0581 -0.7895 -1.0611
27664SOL    HW284761   1.567   8.377   3.409 -1.2680 -0.8559  0.7815
27665SOL     OW84762   8.125   6.324   8.593 -0.0315 -0.4805 -0.2969
27665SOL    HW184763   8.071   6.269   8.650  1.0523 -0.3002  0.9497
27665SOL    HW284764   8.183   6.262   8.548  0.4606 -0.4606  0.3009
27666SOL     OW84765   9.018   8.418   9.154 -0.2001 -0.5798 -0.0748
27666SOL    HW184766   9.033   8.331   9.189  1.0683 -0.4229 -0.1843
27666SOL    HW284767   8.968   8.463   9.222 -1.3320 -1.5412 -0.2464
27667SOL     OW84768   1.472   4.780   7.413 -0.0322  0.5396  0.4941
27667SOL    HW184769   1.510   4.704   7.369 -1.3800  0.1043  0.0481
27667SOL    HW284770   1.538   4.849   7.404  0.7260 -0.2491 -0.0736
27668SOL     OW84771   4.857   1.990   6.064 -0.3149 -0.4211 -0.2128
27668SOL    HW184772   4.842   2.007   6.158 -0.9242 -1.0675 -0.1832
27668SOL    HW284773   4.780   2.028   6.021  0.0223 -0.0210 -0.4683
27669SOL     OW84774   7.981   4.881   6.629 -0.4206 -0.2458  0.3435
27669SOL    HW184775   7.967   4.823   6.704  1.7307 -0.6770  0.4871
27669SOL    HW284776   7.944   4.834   6.555  0.2454 -1.3016  0.6539
27670SOL     OW84777   0.882   5.404   6.225 -0.6705  0.2510 -0.7115
27670SOL    HW184778   0.827   5.349   6.282  0.2084  0.4796  0.3804
27670SOL    HW284779   0.951   5.436   6.282  0.7790 -0.2575 -2.1234
27671SOL     OW84780   0.927   2.855   5.120  0.3359 -0.4612 -0.3668
27671SOL    HW184781   0.886   2.782   5.074 -1.4443 -1.4436  2.4714
27671SOL    HW284782   0.990   2.813   5.179  0.1977  0.3603  0.3924
27672SOL     OW84783   6.451   5.872   2.775 -0.7989 -0.9347  0.2243
27672SOL    HW184784   6.512   5.945   2.763 -1.7165 -0.2374 -0.2807
27672SOL    HW284785   6.491   5.800   2.726 -0.5117 -0.4088 -0.3311
27673SOL     OW84786   3.480   8.901   6.693  0.0756 -0.3085  0.5277
27673SOL    HW184787   3.514   8.894   6.604  1.4322 -1.2943  1.1014
27673SOL    HW284788   3.398   8.852   6.691  0.4864 -0.9965 -0.0020
27674SOL     OW84789   8.968   9.641   2.701 -0.2506 -0.4696 -0.1327
27674SOL    HW184790   9.041   9.618   2.758 -0.2459 -1.5743 -0.5593
27674SOL    HW284791   8.944   9.730   2.727 -0.3469 -0.9985  1.6607
27675SOL     OW84792   8.639   8.820   3.544  0.0320 -0.4988  0.2091
27675SOL    HW184793   8.567   8.839   3.484 -1.4705 -1.4298  1.6311
27675SOL    HW284794   8.681   8.742   3.508  1.4459  0.9763 -1.5248
27676SOL     OW84795   8.168   3.736   9.199 -0.4533 -0.4736 -0.5230
27676SOL    HW184796   8.159   3.759   9.292  0.5148 -1.9052 -0.0354
27676SOL    HW284797   8.251   3.775   9.172 -0.4734 -0.5025 -0.6290
27677SOL     OW84798   9.346   1.005   6.874 -0.1848  0.1708  0.5856
27677SOL    HW184799   9.301   1.059   6.810 -0.5427  0.2504  0.9013
27677SOL    HW284800   9.336   1.053   6.957  1.3497  0.7115  0.4914
27678SOL     OW84801   2.801   7.313   3.587 -0.3034  0.0148 -0.2219
27678SOL    HW184802   2.863   7.248   3.554  0.3169 -0.0705  1.0321
27678SOL    HW284803   2.841   7.398   3.567 -0.9228  0.0246 -1.5018
27679SOL     OW84804   8.875   8.622   8.843  0.0610  0.5463  0.4501
27679SOL    HW184805   8.917   8.538   8.859  0.6297  0.9196  0.9615
27679SOL    HW284806   8.831   8.611   8.758  2.2470  0.5499 -0.7379
27680SOL     OW84807   5.319   3.240   7.380  0.6608 -0.0921 -0.1319
27680SOL    HW184808   5.269   3.171   7.338 -2.4468  1.2675  0.9770
27680SOL    HW284809   5.324   3.213   7.472  1.1045  0.2632 -0.0484
27681SOL     OW84810   2.640   3.200   5.769  0.0515  0.2125 -0.2912
27681SOL    HW184811   2.635   3.156   5.853  1.2207 -1.0881 -0.8775
27681SOL    HW284812   2.728   3.237   5.766 -0.0697  0.4675 -0.8464
27682SOL     OW84813   7.210   9.071   8.536  0.4391  0.1244  0.0351
27682SOL    HW184814   7.126   9.073   8.490 -2.0083  2.6150  3.9929
27682SOL    HW284815   7.207   8.990   8.587  0.0613  0.5234  0.6667
27683SOL     OW84816   3.689   3.146   1.718  0.3913 -0.0161  0.2718
27683SOL    HW184817   3.690   3.183   1.629  2.2148  0.4205  0.4204
27683SOL    HW284818   3.630   3.202   1.767  2.3121  2.1773  0.2330
27684SOL     OW84819   6.890   2.125   1.372 -0.2409  0.6780 -0.5601
27684SOL    HW184820   6.893   2.220   1.362 -0.6110  0.7160 -0.3438
27684SOL    HW284821   6.869   2.112   1.465 -1.3899  0.4039 -0.8463
27685SOL     OW84822   2.760   2.249   1.857 -0.3224 -0.1018  0.3239
27685SOL    HW184823   2.796   2.275   1.942  2.2094  0.6734 -0.9004
27685SOL    HW284824   2.706   2.324   1.831  0.6648  0.6264  0.3034
27686SOL     OW84825   3.881   3.558   5.126  0.4777  0.5178  0.0801
27686SOL    HW184826   3.812   3.559   5.192  0.3959 -0.9855  0.0647
27686SOL    HW284827   3.955   3.515   5.169  0.5093 -0.2465 -0.7069
27687SOL     OW84828   9.496   5.276   7.592  0.4923 -0.1478 -0.0301
27687SOL    HW184829   9.445   5.252   7.669  0.2445 -2.7271 -0.9021
27687SOL    HW284830   9.583   5.296   7.626  0.0902 -0.1163  1.0158
27688SOL     OW84831   0.299   8.529   1.313  0.1951 -0.6937  0.3587
27688SOL    HW184832   0.379   8.477   1.307 -0.0880 -1.0706 -0.2693
27688SOL    HW284833   0.246   8.485   1.380  0.7522 -0.1052  1.1942
27689SOL     OW84834   7.636   6.828   1.365  0.5836 -0.2965 -0.0093
27689SOL    HW184835   7.678   6.829   1.280  1.2462 -1.5811  0.2811
27689SOL    HW284836   7.544   6.847   1.347  0.6225 -1.0766 -1.0703
27690SOL     OW84837   3.832   2.144   9.096 -0.8444  0.1109  0.0308
27690SOL    HW184838   3.765   2.089   9.055  0.2892 -3.9919  2.9487
27690SOL    HW284839   3.910   2.133   9.041 -0.9913 -0.1385 -0.1282
27691SOL     OW84840   4.881   5.101   4.734 -0.1335  0.0167  0.1582
27691SOL    HW184841   4.921   5.100   4.647  0.9600  0.6872  0.6287
27691SOL    HW284842   4.793   5.136   4.720 -0.7106 -1.7749 -0.9470
27692SOL     OW84843   7.520   6.172   9.473  0.0088 -0.3138  0.3184
27692SOL    HW184844   7.482   6.187   9.560  1.3375  2.1080  0.5848
27692SOL    HW284845   7.459   6.214   9.413 -0.1626 -0.6920  0.2262
27693SOL     OW84846   1.851   6.877   4.879 -0.3137  0.0313 -0.3718
27693SOL    HW184847   1.883   6.828   4.954  1.5661  1.1266 -0.4109
27693SOL    HW284848   1.771   6.919   4.911  0.5416  0.6029  1.0814
27694SOL     OW84849   5.128   9.412   0.460  0.2613  0.0922  0.1604
27694SOL    HW184850   5.055   9.461   0.497  0.0989  0.1825 -0.2795
27694SOL    HW284851   5.175   9.378   0.536 -0.0173  0.3558  0.4520
27695SOL     OW84852   1.424   3.797   4.120 -0.1192  0.6161  0.0864
27695SOL    HW184853   1.517   3.783   4.104 -0.0392  1.3804 -0.1668
27695SOL    HW284854   1.420   3.884   4.161 -0.8171  1.0951 -0.9547
27696SOL     OW84855   0.190   2.010   9.710  0.2444 -0.1544 -0.2381
27696SOL    HW184856   0.115   2.056   9.673 -0.3520 -0.1790  0.8796
27696SOL    HW284857   0.175   1.918   9.689  0.8837  0.0156 -1.5352
27697SOL     OW84858   9.391   5.675   6.280  0.1886  0.2301 -0.4516
27697SOL    HW184859   9.312   5.637   6.242 -0.3935  1.9503 -1.0321
27697SOL    HW284860   9.374   5.675   6.374  0.5536 -1.6483 -0.3416
27698SOL     OW84861   3.848   7.748   1.885  0.1461 -0.3023 -0.2382
27698SOL    HW184862   3.928   7.711   1.921 -0.3504 -1.0080  0.1748
27698SOL    HW284863   3.873   7.835   1.853  1.2097 -0.7547 -0.6923
27699SOL     OW84864   0.821   3.536   8.844  0.5825 -0.1662  0.4418
27699SOL    HW184865   0.903   3.577   8.815 -0.8186  1.1906 -1.9606
27699SOL    HW284866   0.769   3.609   8.878  0.3357 -1.0164  1.9641
27700SOL     OW84867   7.448   1.575   8.458  0.2625  0.7084  0.4750
27700SOL    HW184868   7.358   1.593   8.431  0.4222  1.1335  0.2183
27700SOL    HW284869   7.439   1.520   8.535 -0.2129  0.0914 -0.0072
27701SOL     OW84870   1.398   9.433   6.021  0.0852  0.0740  0.3145
27701SOL    HW184871   1.317   9.433   6.071  0.6371 -0.7562  1.2561
27701SOL    HW284872   1.402   9.346   5.980  1.0425 -0.3549  1.2494
27702SOL     OW84873   1.776   3.671   2.943 -0.6183 -0.3731  0.0798
27702SOL    HW184874   1.792   3.763   2.962  1.9467 -0.8696  0.7873
27702SOL    HW284875   1.771   3.629   3.029  1.0264 -1.2430 -0.2067
27703SOL     OW84876   2.886   5.739   7.212 -0.1233  0.1341 -0.4193
27703SOL    HW184877   2.863   5.648   7.229  2.2677 -0.2171  1.2850
27703SOL    HW284878   2.954   5.734   7.144  0.6213  0.5676  0.2857
27704SOL     OW84879   1.931   4.987   0.741 -0.1131  0.2697 -0.6191
27704SOL    HW184880   1.870   4.927   0.698 -0.4229 -0.1133  0.3352
27704SOL    HW284881   1.875   5.057   0.774 -0.3409 -0.9778  1.8514
27705SOL     OW84882   7.239   6.946   7.769 -0.4828 -0.1881 -0.0137
27705SOL    HW184883   7.147   6.957   7.792 -0.3556  0.3018  0.2635
27705SOL    HW284884   7.240   6.940   7.673 -0.9081 -1.2124  0.0306
27706SOL     OW84885   3.630   4.278   8.672 -0.0902  0.0410 -0.3595
27706SOL    HW184886   3.552   4.333   8.672  0.7650  1.2846  0.0824
27706SOL    HW284887   3.636   4.245   8.582 -1.1299 -0.1048 -0.3881
27707SOL     OW84888   7.162   7.251   8.773  0.4525  0.0968 -0.1696
27707SOL    HW184889   7.082   7.303   8.770  0.5600  0.2047 -1.7319
27707SOL    HW284890   7.134   7.162   8.750  0.4738 -0.3236  1.2885
27708SOL     OW84891   6.262   4.725   3.654  0.0829  0.0333 -0.2835
27708SOL    HW184892   6.210   4.646   3.658 -0.6234  0.5325  1.4975
27708SOL    HW284893   6.341   4.700   3.606 -1.4789 -0.8766 -2.5704
27709SOL     OW84894   6.829   2.534   5.679  0.0721 -0.4435 -0.2513
27709SOL    HW184895   6.846   2.450   5.722  1.7032  0.7620  1.6122
27709SOL    HW284896   6.915   2.561   5.647  0.1044  1.6528  1.4269
27710SOL     OW84897   2.391   0.932   2.007  0.6629  0.1363 -0.2762
27710SOL    HW184898   2.344   0.956   2.086  0.9872  0.7470 -0.2634
27710SOL    HW284899   2.431   0.847   2.027  2.9696  1.4496  1.2105
27711SOL     OW84900   2.797   0.731   0.130  0.1788  0.3029  0.6974
27711SOL    HW184901   2.892   0.738   0.139  0.2369  0.5108 -0.0177
27711SOL    HW284902   2.782   0.641   0.100  0.0274 -0.2074  2.2041
27712SOL     OW84903   0.864   3.930   6.118 -0.7187  0.4373  0.2096
27712SOL    HW184904   0.788   3.953   6.171 -0.4833 -1.2716  1.3857
27712SOL    HW284905   0.882   4.008   6.066 -3.7176  0.6373 -0.7058
27713SOL     OW84906   0.626   9.439   2.663 -0.2385 -0.5125  0.2449
27713SOL    HW184907   0.620   9.370   2.596  0.9023 -0.6358  0.2541
27713SOL    HW284908   0.680   9.400   2.732 -3.0199 -1.1465  2.2339
27714SOL     OW84909   7.498   9.704   4.606 -0.1048 -0.6846  0.1998
27714SOL    HW184910   7.403   9.714   4.604 -0.1223 -0.8422  0.2176
27714SOL    HW284911   7.521   9.675   4.518  0.0910  0.7764 -0.2514
27715SOL     OW84912   9.042   2.663   5.546  0.2263 -0.1134 -0.3275
27715SOL    HW184913   9.045   2.584   5.492  0.7407  0.3675 -1.0224
27715SOL    HW284914   8.972   2.646   5.609 -1.0242 -0.3083 -1.7269
27716SOL     OW84915   8.881   6.311   5.314  0.2927 -0.4622 -0.3942
27716SOL    HW184916   8.926   6.343   5.236  1.8563 -1.5475  0.0057
27716SOL    HW284917   8.825   6.240   5.282  0.4753 -0.5064 -0.6219
27717SOL     OW84918   6.827   9.076   9.457 -0.1411  0.1122  0.0056
27717SOL    HW184919   6.875   9.053   9.377  0.0013 -2.3755  0.7229
27717SOL    HW284920   6.895   9.084   9.524 -0.3715  0.8762  0.1473
27718SOL     OW84921   4.935   0.790   8.215 -0.2753  0.2352  0.4331
27718SOL    HW184922   4.919   0.720   8.151  0.4424 -0.0297  0.5313
27718SOL    HW284923   4.920   0.748   8.300 -3.9829  1.2757  0.4508
27719SOL     OW84924   8.743   0.908   1.705  0.0622  0.3614  0.1531
27719SOL    HW184925   8.753   0.988   1.654  0.6848  0.7673  0.8798
27719SOL    HW284926   8.808   0.917   1.775 -1.2609  0.1635  1.4481
27720SOL     OW84927   5.643   0.512   0.939 -0.2643  0.1794  0.1424
27720SOL    HW184928   5.583   0.569   0.890  1.2799  1.2392 -0.5889
27720SOL    HW284929   5.726   0.560   0.941  0.4887 -1.0809  1.4421
27721SOL     OW84930   6.962   8.938   5.027  0.3472  0.1788  0.1139
27721SOL    HW184931   6.905   8.877   4.980 -0.9095 -0.2334  2.0941
27721SOL    HW284932   6.996   8.888   5.100  0.6078  1.3903  0.8473
27722SOL     OW84933   7.073   4.992   3.329 -0.5671 -0.3170 -0.1151
27722SOL    HW184934   7.080   5.013   3.236  1.3931 -0.1186  0.0576
27722SOL    HW284935   7.142   5.041   3.372 -2.1167  0.4758  1.6566
27723SOL     OW84936   5.052   8.456   5.245 -0.2043  0.1469  0.3317
27723SOL    HW184937   5.053   8.395   5.170 -0.8954  0.0264  0.4107
27723SOL    HW284938   5.069   8.401   5.321  0.6073  0.2863  0.2645
27724SOL     OW84939   8.777   1.972   4.532 -0.2261  0.7634  0.1817
27724SOL    HW184940   8.711   2.017   4.584 -0.0360  0.4781  0.6789
27724SOL    HW284941   8.858   1.979   4.583 -0.0834  0.2976  0.0309
27725SOL     OW84942   2.912   3.983   2.093  0.1892 -0.2349  0.6185
27725SOL    HW184943   2.885   3.897   2.127  0.4205 -0.2015  0.8923
27725SOL    HW284944   2.996   3.965   2.050 -0.5698 -0.4752 -0.8396
27726SOL     OW84945   1.540   0.161   2.444  0.5430 -0.3608  0.5317
27726SOL    HW184946   1.526   0.253   2.466  1.5666  0.0615 -0.4918
27726SOL    HW284947   1.606   0.132   2.508  1.1307 -0.0224  0.0986
27727SOL     OW84948   4.913   8.033   9.351  0.2775  0.0919 -0.2223
27727SOL    HW184949   4.965   8.112   9.335 -0.6492  0.6609 -0.4988
27727SOL    HW284950   4.952   7.995   9.429  0.9651  0.6312 -0.2873
27728SOL     OW84951   8.409   3.422   4.234  0.3991  0.4614  0.8850
27728SOL    HW184952   8.444   3.444   4.148 -3.5718  0.8610 -0.8874
27728SOL    HW284953   8.387   3.329   4.228  2.2128 -0.1410  2.4383
27729SOL     OW84954   4.171   8.964   6.198 -0.2114  0.3719  0.0557
27729SOL    HW184955   4.178   9.049   6.242  0.9120  0.9282 -1.1655
27729SOL    HW284956   4.104   8.977   6.131 -0.3410  0.1588  0.1417
27730SOL     OW84957   3.479   1.560   4.818  0.4114  0.0432  0.3890
27730SOL    HW184958   3.550   1.536   4.758 -0.4963  1.5865 -1.3847
27730SOL    HW284959   3.411   1.495   4.801  0.9103 -0.7418  1.2663
27731SOL     OW84960   1.793   8.478   6.839 -0.3692 -0.1154 -0.6394
27731SOL    HW184961   1.815   8.506   6.927 -0.7207  0.3437 -0.6910
27731SOL    HW284962   1.845   8.399   6.825 -0.2665 -0.1574 -0.0481
27732SOL     OW84963   8.827   7.133   8.090  0.6448  0.4062  0.2898
27732SOL    HW184964   8.801   7.183   8.012 -1.0883 -1.9927 -0.8082
27732SOL    HW284965   8.765   7.059   8.093  2.7850 -1.4705  2.0033
27733SOL     OW84966   0.636   1.291   2.366 -0.7283  0.4441  0.1821
27733SOL    HW184967   0.550   1.273   2.329 -0.0405 -0.1739 -1.1651
27733SOL    HW284968   0.697   1.269   2.297  0.4848  1.8331  0.7566
27734SOL     OW84969   2.705   0.838   7.358 -0.0961 -0.1101  0.1358
27734SOL    HW184970   2.636   0.851   7.293  0.2323 -0.1993 -0.2347
27734SOL    HW284971   2.741   0.925   7.373 -0.9520  0.0993  1.0829
27735SOL     OW84972   1.069   6.013   2.034  0.3321  0.4690  0.7511
27735SOL    HW184973   1.099   6.013   1.943  0.2445 -0.3615  0.7152
27735SOL    HW284974   1.083   6.103   2.064  0.3343  0.7550 -0.0894
27736SOL     OW84975   1.478   4.735   2.190 -0.1910 -0.0049  0.3081
27736SOL    HW184976   1.557   4.780   2.161  0.6185  0.1964  2.6117
27736SOL    HW284977   1.434   4.708   2.109  2.0955  0.0739 -1.0426
27737SOL     OW84978   3.089   0.709   0.127  0.5142  0.1008 -0.1519
27737SOL    HW184979   3.147   0.723   0.202  0.0878  0.2395  0.1557
27737SOL    HW284980   3.117   0.624   0.092 -0.6654 -1.0173  1.4685
27738SOL     OW84981   1.458   4.245   8.170  0.7844  0.0832  0.3256
27738SOL    HW184982   1.454   4.322   8.227 -2.1167 -1.4048  2.3819
27738SOL    HW284983   1.397   4.182   8.209  1.4781 -2.5365 -2.3787
27739SOL     OW84984   6.668   5.806   6.595  0.2832  0.2286 -0.0764
27739SOL    HW184985   6.753   5.814   6.639 -0.0227  0.1172  0.5512
27739SOL    HW284986   6.677   5.729   6.539 -0.2863 -1.5440  2.1092
27740SOL     OW84987   9.622   5.105   1.296 -0.2177 -0.5430  0.3811
27740SOL    HW184988   9.700   5.059   1.326 -0.0518 -0.8420 -0.4745
27740SOL    HW284989   9.655   5.188   1.261 -0.5165  0.2757  1.9279
27741SOL     OW84990   2.216   4.572   5.467 -0.4886  0.2060  0.1070
27741SOL    HW184991   2.309   4.571   5.443 -0.0487  0.5928  1.7319
27741SOL    HW284992   2.172   4.606   5.389  0.6177 -0.7572 -0.9932
27742SOL     OW84993   8.705   7.470   3.215  0.0712  0.5419  0.2403
27742SOL    HW184994   8.629   7.425   3.178  0.6076 -0.9540  0.9071
27742SOL    HW284995   8.744   7.517   3.140 -0.0824 -0.6948 -0.6490
27743SOL     OW84996   9.170   1.904   4.519 -0.1905 -0.4468  0.5690
27743SOL    HW184997   9.184   1.910   4.613  0.2611  1.6174  0.4195
27743SOL    HW284998   9.103   1.969   4.500 -0.3915 -0.9384 -0.5305
27744SOL     OW84999   6.289   0.468   2.636  0.1723 -0.1392 -0.0497
27744SOL    HW185000   6.247   0.383   2.624 -0.8083  0.1757  0.9924
27744SOL    HW285001   6.216   0.530   2.646  0.8436  0.4059  1.9758
27745SOL     OW85002   1.484   3.902   0.154 -0.0050  0.2869  0.4734
27745SOL    HW185003   1.508   3.820   0.195  0.2627 -0.2889 -0.7772
27745SOL    HW285004   1.566   3.939   0.122 -0.3023  0.1843 -0.4634
27746SOL     OW85005   3.904   1.827   3.759  0.1226  0.2988 -0.1298
27746SOL    HW185006   3.972   1.763   3.739  0.2356 -0.1087  1.4354
27746SOL    HW285007   3.858   1.791   3.835  0.3002  2.1316  0.9155
27747SOL     OW85008   2.903   9.684   4.085  0.2118  0.2594 -0.0252
27747SOL    HW185009   2.890   9.657   3.994 -1.4697 -1.0261  0.5384
27747SOL    HW285010   2.893   9.603   4.135 -1.0151  1.2624  1.4627
27748SOL     OW85011   5.086   0.536   6.383  0.1012 -0.0376  0.0145
27748SOL    HW185012   4.996   0.568   6.389  0.3419  0.6613  0.0358
27748SOL    HW285013   5.105   0.502   6.471  0.1386  0.6102  0.2670
27749SOL     OW85014   1.386   6.864   6.023  0.1247  0.3479 -0.2849
27749SOL    HW185015   1.361   6.794   6.083 -2.7145 -0.2753 -2.0366
27749SOL    HW285016   1.317   6.929   6.031 -0.7522 -0.0797 -3.2809
27750SOL     OW85017   8.986   3.643   8.242  0.5172 -0.0553 -0.0177
27750SOL    HW185018   8.938   3.567   8.273  2.8900 -1.1209  1.2474
27750SOL    HW285019   8.957   3.715   8.298 -1.3204 -0.0840 -0.8606
27751SOL     OW85020   9.139   5.350   3.848 -0.4162  0.4488 -0.8091
27751SOL    HW185021   9.224   5.385   3.819  0.5768  1.1648  2.5924
27751SOL    HW285022   9.076   5.392   3.790  1.3096  2.5466 -1.3157
27752SOL     OW85023   2.719   0.414   5.099  0.3219 -0.2059  0.6085
27752SOL    HW185024   2.811   0.429   5.074  0.4437 -1.1875  0.4086
27752SOL    HW285025   2.675   0.398   5.015 -0.0728  0.4321  0.6909
27753SOL     OW85026   6.252   7.211   7.092 -0.3334  0.2187  0.0743
27753SOL    HW185027   6.338   7.188   7.127 -0.6043  1.4216  1.6426
27753SOL    HW285028   6.205   7.247   7.167 -1.6064  1.1867 -1.1497
27754SOL     OW85029   3.012   8.113   6.174  0.1278  0.1139  0.0736
27754SOL    HW185030   2.990   8.205   6.159  0.2774  0.4613  1.7938
27754SOL    HW285031   2.992   8.070   6.091  0.4942  1.7694 -0.9196
27755SOL     OW85032   9.806   3.350   6.242  0.2080  0.7132  0.1181
27755SOL    HW185033   9.749   3.295   6.188  1.0648 -1.1257  0.9622
27755SOL    HW285034   9.768   3.437   6.237 -0.1246  0.5107 -2.8922
27756SOL     OW85035   8.326   5.850   5.157 -0.5291 -0.1134  0.0963
27756SOL    HW185036   8.286   5.768   5.126  0.6848 -0.7816  0.2199
27756SOL    HW285037   8.419   5.829   5.165 -0.1424  1.3990 -0.2029
27757SOL     OW85038   4.788   1.927   5.040  0.3143 -0.0346  0.1695
27757SOL    HW185039   4.746   1.992   5.097 -1.0152 -1.4270  0.8290
27757SOL    HW285040   4.831   1.866   5.100  2.2119  0.6014 -0.4689
27758SOL     OW85041   3.390   7.415   3.579  0.1844  0.0355  0.0629
27758SOL    HW185042   3.319   7.440   3.639  0.4707  3.1379 -0.6991
27758SOL    HW285043   3.468   7.453   3.619  0.6690  0.5107 -1.2867
27759SOL     OW85044   0.449   0.912   9.175 -0.2085 -0.5760 -0.1075
27759SOL    HW185045   0.387   0.857   9.222 -0.8244  1.5077  1.7213
27759SOL    HW285046   0.399   0.947   9.101 -1.2533  0.8836  1.2070
27760SOL     OW85047   4.351   6.152   8.938 -0.0185  0.7083 -0.0761
27760SOL    HW185048   4.357   6.247   8.937  0.9827  0.7172  1.9437
27760SOL    HW285049   4.347   6.129   9.031 -0.8665 -1.2007 -0.5326
27761SOL     OW85050   2.235   2.157   1.511  0.3866  0.1325  0.2158
27761SOL    HW185051   2.219   2.142   1.605  2.0474  0.6379  0.6003
27761SOL    HW285052   2.330   2.154   1.502  0.3528  1.7669 -1.1650
27762SOL     OW85053   9.446   5.561   9.181  0.0408 -0.5961 -0.3260
27762SOL    HW185054   9.506   5.487   9.173  0.5267 -0.2496  0.0975
27762SOL    HW285055   9.444   5.581   9.275 -0.6009 -0.4914 -0.3564
27763SOL     OW85056   7.553   6.133   3.611 -0.1575 -0.3613 -0.0568
27763SOL    HW185057   7.472   6.111   3.566 -0.7344  0.9178  0.3029
27763SOL    HW285058   7.525   6.165   3.697  0.7770 -0.6893  0.3843
27764SOL     OW85059   1.137   2.317   5.370  0.0940 -0.1670  0.1026
27764SOL    HW185060   1.061   2.314   5.312  1.1797  0.5828 -1.4204
27764SOL    HW285061   1.107   2.275   5.450 -2.7751  2.3583  0.5511
27765SOL     OW85062   1.651   0.758   8.811  0.2154  0.5466 -0.3030
27765SOL    HW185063   1.584   0.809   8.766 -0.5245 -0.4775 -0.3938
27765SOL    HW285064   1.641   0.669   8.777  0.4408  0.0035  0.9930
27766SOL     OW85065   4.795   9.255   6.834 -0.0179  0.5406 -0.3081
27766SOL    HW185066   4.791   9.321   6.904 -0.9742 -2.6338  2.9577
27766SOL    HW285067   4.888   9.234   6.826  0.0003 -0.0342  1.1195
27767SOL     OW85068   6.147   5.039   6.807  0.9735  0.5625 -0.1534
27767SOL    HW185069   6.205   4.983   6.755  1.7901  0.7615  0.5398
27767SOL    HW285070   6.140   5.120   6.757  0.0127 -0.0263 -1.0229
27768SOL     OW85071   0.280   2.379   5.611 -0.2709 -0.4408 -0.3458
27768SOL    HW185072   0.285   2.455   5.668  0.2245 -0.5876 -0.1864
27768SOL    HW285073   0.371   2.348   5.604 -0.3655 -0.5894 -0.9881
27769SOL     OW85074   3.033   2.329   9.679 -0.2416  0.2880 -0.1570
27769SOL    HW185075   3.081   2.248   9.661  0.9256  1.1923 -1.3351
27769SOL    HW285076   2.982   2.344   9.600 -2.0933 -0.3367  0.8527
27770SOL     OW85077   6.686   4.980   4.992  0.7844  0.1161 -0.0464
27770SOL    HW185078   6.746   5.054   4.987  2.4813 -1.1310  0.7325
27770SOL    HW285079   6.664   4.973   5.085  1.2618 -0.7699  0.0180
27771SOL     OW85080   3.102   1.609   2.692  0.1962  0.3595 -0.1126
27771SOL    HW185081   3.089   1.553   2.769  0.9864  1.3021  0.7451
27771SOL    HW285082   3.091   1.698   2.726 -0.6801  0.7629 -1.3670
27772SOL     OW85083   6.652   7.597   9.093  0.5353 -0.3135  0.5043
27772SOL    HW185084   6.602   7.516   9.092  0.4450 -0.2768  1.2102
27772SOL    HW285085   6.619   7.647   9.018  2.0880 -1.7869 -1.2623
27773SOL     OW85086   0.133   7.626   8.099  0.1497 -0.1276 -0.3986
27773SOL    HW185087   0.097   7.574   8.028 -0.6874  0.2371 -0.2532
27773SOL    HW285088   0.185   7.694   8.056  1.5168 -1.2405 -0.5834
27774SOL     OW85089   8.737   0.332   2.359 -0.1077 -0.3930  0.5016
27774SOL    HW185090   8.669   0.317   2.424  0.2177  1.2259  1.2761
27774SOL    HW285091   8.732   0.256   2.301 -2.7162 -0.2232  0.3804
27775SOL     OW85092   3.127   1.253   7.181 -0.0867 -0.7240  0.1472
27775SOL    HW185093   3.218   1.247   7.151 -0.3154 -0.1710 -0.7070
27775SOL    HW285094   3.078   1.280   7.103 -0.7280  0.6923  0.9924
27776SOL     OW85095   8.828   3.134   3.647  0.2104  0.0777 -0.2544
27776SOL    HW185096   8.803   3.126   3.555 -2.2315  1.1173  0.2476
27776SOL    HW285097   8.804   3.050   3.685 -0.9333  0.4503 -0.1316
27777SOL     OW85098   3.056   5.584   6.861 -0.2507 -0.3068  0.1892
27777SOL    HW185099   3.119   5.566   6.791 -1.2819 -0.2667 -0.7871
27777SOL    HW285100   2.975   5.606   6.814 -1.0567 -0.6157  1.4110
27778SOL     OW85101   9.736   7.204   7.640  0.0996  0.5341 -0.3906
27778SOL    HW185102   9.692   7.285   7.667  0.6331  1.0786 -1.1203
27778SOL    HW285103   9.689   7.135   7.688  0.7342  1.3937  1.5986
27779SOL     OW85104   6.404   5.140   7.112 -0.0756  0.2876 -0.2567
27779SOL    HW185105   6.459   5.130   7.189 -0.7634  3.1219  0.7297
27779SOL    HW285106   6.426   5.065   7.056  0.2263 -2.0483  2.7625
27780SOL     OW85107   5.541   8.726   6.412  0.0448 -0.5801  0.0837
27780SOL    HW185108   5.537   8.792   6.342 -3.2380  1.4389  1.9283
27780SOL    HW285109   5.496   8.650   6.375  1.2739 -0.7929 -1.0597
27781SOL     OW85110   9.245   9.498   0.370 -0.4306 -0.1346  0.0444
27781SOL    HW185111   9.201   9.559   0.428 -1.2764 -0.2709 -0.4374
27781SOL    HW285112   9.258   9.419   0.423 -1.4303 -0.3519 -0.0227
27782SOL     OW85113   6.567   7.472   3.854  0.0079 -0.1634  0.4276
27782SOL    HW185114   6.554   7.565   3.838 -0.5276 -0.2809  0.1548
27782SOL    HW285115   6.659   7.464   3.878 -0.0169  0.4757  0.7444
27783SOL     OW85116   7.830   0.789   4.317  0.3370 -0.2418  0.0939
27783SOL    HW185117   7.814   0.699   4.345 -0.4496 -0.0750  0.2064
27783SOL    HW285118   7.923   0.804   4.335  0.5696 -1.1497 -0.2756
27784SOL     OW85119   3.850   3.848   5.592  0.1938  0.0984  0.0158
27784SOL    HW185120   3.775   3.900   5.564  1.5945  0.8974 -2.5918
27784SOL    HW285121   3.922   3.911   5.599  0.8052 -0.7410  1.8491
27785SOL     OW85122   4.244   5.532   9.298  0.8893  1.0549  0.4177
27785SOL    HW185123   4.270   5.585   9.373 -0.3460  0.1469  1.5336
27785SOL    HW285124   4.179   5.586   9.252 -0.7712  0.3764  1.8504
27786SOL     OW85125   8.445   0.569   4.081 -0.0193  0.0600 -0.3215
27786SOL    HW185126   8.480   0.621   4.008  1.2021 -0.7744 -0.3722
27786SOL    HW285127   8.458   0.478   4.054 -1.5817 -0.2886  0.0123
27787SOL     OW85128   6.932   0.125   9.681 -0.1942  0.1681 -0.0894
27787SOL    HW185129   6.988   0.202   9.673 -0.8045  0.5558 -0.8463
27787SOL    HW285130   6.976   0.069   9.744  2.5979 -0.8669 -2.7334
27788SOL     OW85131   3.403   1.291   8.042  0.1702 -0.1815 -0.2873
27788SOL    HW185132   3.382   1.372   8.090 -2.3288 -0.1441 -1.3243
27788SOL    HW285133   3.379   1.309   7.952 -0.2605 -2.0252 -0.5786
27789SOL     OW85134   2.672   6.750   7.563 -0.2877 -0.3351  0.7243
27789SOL    HW185135   2.672   6.701   7.644 -0.4863 -3.5558 -1.0570
27789SOL    HW285136   2.697   6.687   7.496  0.7068  2.3418 -1.6655
27790SOL     OW85137   1.950   5.317   3.088  0.4768  0.9574 -0.7162
27790SOL    HW185138   1.981   5.231   3.062 -0.1671  0.4567  0.1215
27790SOL    HW285139   2.028   5.361   3.122  0.4659  0.0039  0.6240
27791SOL     OW85140   6.104   9.634   3.925 -0.1153 -0.4568 -0.1400
27791SOL    HW185141   6.154   9.643   4.006 -0.6948  1.4213  0.0640
27791SOL    HW285142   6.072   9.544   3.927  2.9370 -1.6648 -0.1519
27792SOL     OW85143   5.061   7.659   0.545 -0.0763 -0.1510  0.1930
27792SOL    HW185144   5.078   7.701   0.629  0.7410 -1.5266  0.7488
27792SOL    HW285145   4.966   7.649   0.541 -0.0148 -2.1611  2.0605
27793SOL     OW85146   1.129   8.442   2.093 -0.4393  0.0663 -0.6095
27793SOL    HW185147   1.083   8.380   2.150 -0.7554 -0.8561 -1.8235
27793SOL    HW285148   1.207   8.467   2.143 -1.6070  0.7047  0.9706
27794SOL     OW85149   4.103   4.827   7.634 -0.1091 -0.0257 -0.3528
27794SOL    HW185150   4.024   4.876   7.612  0.1591  0.0197 -1.2937
27794SOL    HW285151   4.087   4.739   7.602  0.7135  0.3085 -1.8121
27795SOL     OW85152   8.614   7.100   7.524 -0.3143 -0.0453  0.3785
27795SOL    HW185153   8.597   7.091   7.430  1.5574  0.2342 -0.0341
27795SOL    HW285154   8.567   7.027   7.564  0.0730 -1.0694 -0.9445
27796SOL     OW85155   4.836   5.262   2.679 -0.5758 -0.7322 -1.3382
27796SOL    HW185156   4.890   5.220   2.612  2.4115  1.8075 -0.7522
27796SOL    HW285157   4.836   5.355   2.654 -2.0105 -0.1806  0.5052
27797SOL     OW85158   1.625   5.700   3.426  0.2500 -0.8454  0.4376
27797SOL    HW185159   1.693   5.643   3.390 -0.8660 -2.2117  0.4202
27797SOL    HW285160   1.582   5.648   3.494 -0.0556  0.3981  1.2370
27798SOL     OW85161   0.756   3.798   8.402 -0.7868 -0.3754 -0.0322
27798SOL    HW185162   0.672   3.828   8.435 -0.5065 -1.1285  1.4446
27798SOL    HW285163   0.787   3.869   8.345 -2.2027  0.0884 -0.2572
27799SOL     OW85164   4.264   7.862   1.583 -0.3995  0.2108  0.0626
27799SOL    HW185165   4.304   7.910   1.511  0.3369  0.9559  0.9455
27799SOL    HW285166   4.230   7.782   1.543 -2.0391  1.6468 -1.5135
27800SOL     OW85167   6.937   9.339   0.385 -0.3489 -0.2818  0.2243
27800SOL    HW185168   6.900   9.402   0.324  0.0446  0.3494  0.6270
27800SOL    HW285169   6.863   9.283   0.411 -0.6346 -0.1798 -0.3623
27801SOL     OW85170   2.964   8.119   2.674 -0.1489 -0.3160  0.2622
27801SOL    HW185171   3.043   8.145   2.721  0.0595  0.6871 -0.6200
27801SOL    HW285172   2.893   8.164   2.719 -0.1829 -0.8437  0.7584
27802SOL     OW85173   1.823   2.003   7.942  0.1263  0.3865  0.7653
27802SOL    HW185174   1.754   2.058   7.979 -0.9382 -0.2221 -0.2653
27802SOL    HW285175   1.887   2.065   7.907 -0.6847  0.9655  0.2944
27803SOL     OW85176   1.389   8.400   8.951 -0.3135 -0.0170 -0.4737
27803SOL    HW185177   1.321   8.379   8.887  0.5985 -2.0783 -0.8395
27803SOL    HW285178   1.392   8.324   9.010  1.4753  0.1242 -0.3112
27804SOL     OW85179   8.244   2.057   1.480  0.4826  0.1835  0.4133
27804SOL    HW185180   8.316   1.998   1.502  0.6111  0.0728 -0.2764
27804SOL    HW285181   8.175   2.000   1.448  0.6479  0.4006 -0.3603
27805SOL     OW85182   3.028   6.477   1.424 -0.1073 -0.0740 -0.0881
27805SOL    HW185183   3.101   6.465   1.362 -0.8064 -1.4635 -0.6866
27805SOL    HW285184   2.950   6.478   1.368 -0.6608 -0.0358  0.6793
27806SOL     OW85185   3.384   5.464   8.725 -0.7452 -0.1804 -0.6373
27806SOL    HW185186   3.421   5.551   8.708 -0.9469  0.3012  1.1853
27806SOL    HW285187   3.294   5.470   8.693 -1.2025  0.7730  0.7637
27807SOL     OW85188   0.205   3.175   9.822  0.0609 -0.6355 -0.4123
27807SOL    HW185189   0.157   3.241   9.773  0.5972 -0.2215 -0.3912
27807SOL    HW285190   0.163   3.092   9.799 -0.6263 -0.2894 -0.4244
27808SOL     OW85191   7.614   5.778   9.619  0.1792  0.2820 -0.1524
27808SOL    HW185192   7.632   5.701   9.674 -0.9497 -0.1520 -0.3573
27808SOL    HW285193   7.684   5.840   9.641  0.1050 -0.1098  1.3303
27809SOL     OW85194   7.880   5.248   4.093 -0.4617  0.5251  0.9097
27809SOL    HW185195   7.824   5.311   4.047 -0.4703  0.2613  0.5495
27809SOL    HW285196   7.969   5.279   4.076 -0.3910 -0.3428 -0.4814
27810SOL     OW85197   2.692   2.018   1.158 -0.8544 -0.0078 -0.0445
27810SOL    HW185198   2.686   2.112   1.140 -2.0648 -0.0103  0.2448
27810SOL    HW285199   2.776   1.992   1.120 -0.2951  1.2678  0.2469
27811SOL     OW85200   7.998   4.179   6.813 -0.2465 -0.0320  0.5134
27811SOL    HW185201   8.021   4.093   6.849 -0.5308 -0.5318 -0.4522
27811SOL    HW285202   8.031   4.176   6.723 -0.7818  0.6554  0.2910
27812SOL     OW85203   0.200   1.125   8.609 -0.1146  0.4757  0.0342
27812SOL    HW185204   0.288   1.087   8.605 -0.7269 -0.9493 -0.9777
27812SOL    HW285205   0.157   1.077   8.680 -0.1378  1.0631  0.4265
27813SOL     OW85206   0.167   2.803   9.490  0.6546 -0.1305 -0.2151
27813SOL    HW185207   0.174   2.898   9.477  0.0922 -0.0176  0.2539
27813SOL    HW285208   0.249   2.778   9.533  0.6873  0.1923 -0.0862
27814SOL     OW85209   8.683   3.042   9.625  0.1411 -0.7614 -0.6770
27814SOL    HW185210   8.708   3.109   9.561  0.6492  0.4426  0.7328
27814SOL    HW285211   8.714   2.960   9.586  2.2369  0.1558 -1.1287
27815SOL     OW85212   1.051   0.634   7.999  0.1440 -0.0369  0.4565
27815SOL    HW185213   1.019   0.612   8.087  2.0973 -1.1933  0.9406
27815SOL    HW285214   1.141   0.602   7.998  0.8438  1.8130 -1.2960
27816SOL     OW85215   8.830   6.769   6.001 -0.3250 -0.5042  0.4084
27816SOL    HW185216   8.862   6.716   5.928 -2.5552  1.1747 -1.9919
27816SOL    HW285217   8.747   6.729   6.025 -1.1827  0.7833 -0.2681
27817SOL     OW85218   7.198   8.795   3.043 -0.4063 -0.0181 -0.3559
27817SOL    HW185219   7.144   8.871   3.020  0.5696  1.3634  1.6117
27817SOL    HW285220   7.161   8.765   3.126  0.4368 -0.4821 -0.1441
27818SOL     OW85221   2.013   6.358   1.731  0.1514 -0.1533 -0.4496
27818SOL    HW185222   1.932   6.393   1.693 -0.9272 -1.9849  0.0771
27818SOL    HW285223   2.070   6.342   1.656 -0.8348 -0.9513 -1.0481
27819SOL     OW85224   1.022   3.597   5.983  0.3432 -0.0168  0.1853
27819SOL    HW185225   0.930   3.619   5.968  0.2154  1.7821  2.9178
27819SOL    HW285226   1.019   3.512   6.028  0.1653 -0.6533 -0.9789
27820SOL     OW85227   6.165   9.217   7.849  0.5407  0.0088  0.8489
27820SOL    HW185228   6.092   9.159   7.869  1.5188 -2.4741 -2.0041
27820SOL    HW285229   6.159   9.232   7.754  2.8762  0.8813  0.7646
27821SOL     OW85230   2.543   3.246   0.228  0.2648 -0.2351  0.6930
27821SOL    HW185231   2.575   3.212   0.311 -1.7036  0.9996  2.0415
27821SOL    HW285232   2.578   3.335   0.222  2.2817 -1.0384 -0.9994
27822SOL     OW85233   2.009   8.830   4.347 -0.5878  0.3679  0.4674
27822SOL    HW185234   1.931   8.786   4.381 -0.6553 -0.6251 -0.8805
27822SOL    HW285235   1.974   8.897   4.288 -0.4371  1.1288  1.2138
27823SOL     OW85236   5.739   3.077   3.848  0.3523  0.0046 -0.2756
27823SOL    HW185237   5.780   3.160   3.824 -2.2172  0.9441 -1.8097
27823SOL    HW285238   5.720   3.086   3.942  3.0598 -0.2815  0.3685
27824SOL     OW85239   5.937   8.477   1.764 -0.2047 -0.2039  0.4153
27824SOL    HW185240   6.029   8.489   1.786 -0.1045 -0.1110 -0.0457
27824SOL    HW285241   5.895   8.456   1.848  0.3441 -0.9250  0.5198
27825SOL     OW85242   1.319   2.275   9.343  0.4306  0.0212  0.5230
27825SOL    HW185243   1.268   2.270   9.423  1.7663  0.4837  1.4415
27825SOL    HW285244   1.410   2.274   9.372  0.9588 -0.2636 -1.0190
27826SOL     OW85245   7.395   3.040   1.652 -0.0912 -0.4068 -0.1758
27826SOL    HW185246   7.353   2.955   1.644 -0.0211 -0.2919 -2.5259
27826SOL    HW285247   7.488   3.023   1.635  0.0875 -0.0213  0.4087
27827SOL     OW85248   2.465   2.556   1.123 -0.6188  0.2949  1.1667
27827SOL    HW185249   2.370   2.564   1.120 -0.5764  0.8963  1.4165
27827SOL    HW285250   2.481   2.462   1.109 -1.2547  0.1511  1.3601
27828SOL     OW85251   4.395   2.058   0.880 -0.4888 -0.1215  0.3230
27828SOL    HW185252   4.378   2.025   0.792 -0.1914  0.8351 -0.1075
27828SOL    HW285253   4.479   2.020   0.905 -0.5642 -0.3794  0.1840
27829SOL     OW85254   6.499   2.034   6.936 -0.1001  0.5302 -0.1161
27829SOL    HW185255   6.509   1.940   6.921 -0.4449  0.4983 -0.1430
27829SOL    HW285256   6.497   2.073   6.849 -0.0061  0.5573 -0.1064
27830SOL     OW85257   9.396   4.338   7.668 -0.0658 -0.2624 -0.0377
27830SOL    HW185258   9.355   4.260   7.706  0.0272 -0.6776 -0.7579
27830SOL    HW285259   9.488   4.314   7.658 -0.1089 -0.2053 -0.6121
27831SOL     OW85260   2.302   5.831   0.047  0.3604  0.0682 -0.0051
27831SOL    HW185261   2.367   5.824  -0.022  1.6664  1.2964  1.0364
27831SOL    HW285262   2.317   5.754   0.102  0.4687 -0.0058 -0.1378
27832SOL     OW85263   4.284   9.220   5.293  0.7292 -0.6092  0.0313
27832SOL    HW185264   4.333   9.280   5.236  0.0818 -1.7902 -1.8593
27832SOL    HW285265   4.295   9.134   5.253 -0.2999 -1.3928  1.3429
27833SOL     OW85266   5.592   7.349   3.153  0.2700  0.1352  0.0045
27833SOL    HW185267   5.608   7.256   3.174  0.3129  0.6227  2.3967
27833SOL    HW285268   5.567   7.388   3.236  1.6002  2.5696 -0.6452
27834SOL     OW85269   4.871   2.338   5.237  0.6305 -0.3487 -0.0805
27834SOL    HW185270   4.846   2.307   5.324  0.7866  0.8493  0.4085
27834SOL    HW285271   4.798   2.314   5.180 -0.0665  0.0484  0.6459
27835SOL     OW85272   6.533   3.172   6.309  0.1717 -0.5702 -0.3485
27835SOL    HW185273   6.573   3.087   6.327  1.5706  0.1570  0.1234
27835SOL    HW285274   6.460   3.179   6.371  1.0598 -0.7573  0.7533
27836SOL     OW85275   1.723   8.973   2.375 -0.1408 -0.5488  0.7318
27836SOL    HW185276   1.669   8.964   2.297 -0.5049 -2.2990  1.1486
27836SOL    HW285277   1.811   8.992   2.342 -0.7658  1.4451  0.0233
27837SOL     OW85278   3.911   7.399   3.718 -0.1516  0.3596  0.4229
27837SOL    HW185279   3.987   7.397   3.659  1.1858  1.1596  2.0358
27837SOL    HW285280   3.838   7.373   3.663  1.5622 -2.4211 -0.7730
27838SOL     OW85281   8.446   5.859   0.003 -0.2127  0.0586  0.4183
27838SOL    HW185282   8.387   5.889  -0.067  1.0891  0.2117 -0.6637
27838SOL    HW285283   8.533   5.873  -0.033  0.4776 -1.6533  1.3378
27839SOL     OW85284   2.972   2.023   6.293 -0.0639  0.7718  0.1597
27839SOL    HW185285   3.011   1.973   6.365 -0.4948  0.8646  0.4602
27839SOL    HW285286   3.033   2.012   6.221  0.7358  1.2742  0.7481
27840SOL     OW85287   0.962   2.308   9.363  0.4313 -0.0524 -0.1668
27840SOL    HW185288   0.996   2.397   9.364 -0.2171  0.2392  1.9527
27840SOL    HW285289   0.934   2.292   9.453 -1.6413 -1.5522 -0.9872
27841SOL     OW85290   1.243   5.434   2.878 -0.2131 -0.4043  0.1737
27841SOL    HW185291   1.265   5.424   2.785 -0.9010 -0.4327  0.0104
27841SOL    HW285292   1.253   5.346   2.915 -0.3579 -0.4801  0.0337
27842SOL     OW85293   5.184   4.181   2.227 -0.5167 -0.0020 -0.5104
27842SOL    HW185294   5.153   4.127   2.299 -0.9372  0.6723 -0.1714
27842SOL    HW285295   5.212   4.119   2.160  0.0206 -0.6415  0.2884
27843SOL     OW85296   3.086   4.294   0.954 -0.0685 -0.2359  0.2718
27843SOL    HW185297   3.141   4.216   0.946 -0.5674 -0.4873 -0.8696
27843SOL    HW285298   3.111   4.349   0.880  0.2179  0.6630  1.0161
27844SOL     OW85299   3.064   1.595   3.772 -0.1078  0.1033  0.0287
27844SOL    HW185300   3.065   1.631   3.860  1.7884  1.1566 -0.3631
27844SOL    HW285301   2.998   1.526   3.774 -0.8016  0.7747  1.9797
27845SOL     OW85302   6.532   5.871   8.504  0.0832  0.6016  0.0698
27845SOL    HW185303   6.546   5.956   8.462  0.0863  0.8699  0.6020
27845SOL    HW285304   6.460   5.831   8.454  0.5278  0.6256 -0.6053
27846SOL     OW85305   8.906   1.485   1.514  0.6142 -0.6299  0.3175
27846SOL    HW185306   8.925   1.567   1.468 -0.7276 -0.5409 -0.1203
27846SOL    HW285307   8.879   1.513   1.602 -0.8726 -0.5021 -0.1542
27847SOL     OW85308   5.225   3.430   8.136 -0.1983 -0.5420 -0.2406
27847SOL    HW185309   5.165   3.395   8.203 -1.2004  0.1757 -0.7318
27847SOL    HW285310   5.214   3.525   8.143  0.9317 -0.3986 -0.3212
27848SOL     OW85311   4.339   3.299   1.278  0.1571 -0.2515  0.8423
27848SOL    HW185312   4.346   3.224   1.336  1.1549  1.0314  2.4961
27848SOL    HW285313   4.364   3.374   1.332  2.9834  0.8457 -1.6826
27849SOL     OW85314   5.605   7.595   7.489  0.7037  0.1970  0.1100
27849SOL    HW185315   5.686   7.592   7.539  0.4624  1.9561  0.6831
27849SOL    HW285316   5.600   7.684   7.456  0.1017 -0.5125 -1.8338
27850SOL     OW85317   1.874   6.421   6.395  0.6942  0.2862  0.3738
27850SOL    HW185318   1.842   6.476   6.323  0.0313 -0.1699  0.2999
27850SOL    HW285319   1.800   6.416   6.455  1.0143  0.1104  0.7549
27851SOL     OW85320   1.729   7.218   5.613 -0.2435 -0.5556  0.3156
27851SOL    HW185321   1.784   7.143   5.592 -2.6033 -1.8613 -1.6414
27851SOL    HW285322   1.643   7.181   5.630 -1.2562  1.6490  0.3634
27852SOL     OW85323   9.614   1.794   5.363  0.1159  0.4529 -0.5584
27852SOL    HW185324   9.680   1.864   5.366  1.3969 -0.7466  0.2327
27852SOL    HW285325   9.540   1.830   5.413  1.2333  0.8008  0.9145
27853SOL     OW85326   1.095   8.966   7.982  0.4620  0.5978  0.0095
27853SOL    HW185327   1.144   9.047   7.969  2.3027 -0.7783 -2.4292
27853SOL    HW285328   1.046   8.953   7.901  0.4907 -0.8849  0.1900
27854SOL     OW85329   2.799   6.850   7.207 -0.1452  0.3153 -0.0362
27854SOL    HW185330   2.708   6.877   7.194 -0.5778 -0.6634  0.8969
27854SOL    HW285331   2.850   6.926   7.178 -1.2538  1.0075 -0.2415
27855SOL     OW85332   7.772   9.054   2.206  0.4079 -0.0785 -0.3112
27855SOL    HW185333   7.696   9.054   2.265  1.7410 -2.1858  1.5343
27855SOL    HW285334   7.766   8.971   2.158 -0.4282  1.4079 -3.0236
27856SOL     OW85335   9.536   1.675   2.658 -0.8607 -0.4332  0.2874
27856SOL    HW185336   9.619   1.668   2.611 -0.8980 -1.2310  0.3217
27856SOL    HW285337   9.561   1.675   2.750 -0.8673 -0.1092  0.2912
27857SOL     OW85338   0.486   5.734   3.844 -0.3401 -0.2744 -0.2772
27857SOL    HW185339   0.552   5.801   3.824  0.1148 -0.7972 -0.5500
27857SOL    HW285340   0.513   5.658   3.794 -1.8001 -0.1491 -1.3114
27858SOL     OW85341   5.472   9.565   3.886  0.3856  0.1091  0.2131
27858SOL    HW185342   5.410   9.508   3.931  1.7208 -1.1053  0.5974
27858SOL    HW285343   5.550   9.511   3.874  1.1555  1.3775 -0.8288
27859SOL     OW85344   8.921   4.074   8.960  0.0536  0.7835 -0.3960
27859SOL    HW185345   8.928   4.105   8.870  0.8981  0.2494 -0.5240
27859SOL    HW285346   9.006   4.032   8.978 -1.5250 -3.0055 -0.8204
27860SOL     OW85347   9.207   6.670   5.004 -0.4229 -0.5752  0.3365
27860SOL    HW185348   9.241   6.601   5.060  1.3366  1.0280  1.3417
27860SOL    HW285349   9.193   6.627   4.919  1.0366 -2.0691  0.8018
27861SOL     OW85350   3.273   3.259   1.897  0.4356 -0.1387 -0.2782
27861SOL    HW185351   3.345   3.302   1.851  0.7023  1.0484  1.1779
27861SOL    HW285352   3.226   3.330   1.940 -0.3821 -1.1040  0.4709
27862SOL     OW85353   8.694   7.565   6.480 -0.0377  0.0878 -0.3252
27862SOL    HW185354   8.756   7.623   6.524  1.0119 -2.3693  1.6378
27862SOL    HW285355   8.613   7.573   6.530  0.0233  0.0471 -0.2213
27863SOL     OW85356   3.568   6.362   3.789 -0.2035  0.2729  0.7589
27863SOL    HW185357   3.581   6.443   3.837  0.4278  0.2359  0.6534
27863SOL    HW285358   3.654   6.340   3.753 -0.2159 -0.7862  1.3320
27864SOL     OW85359   1.822   4.340   9.741 -0.4251 -0.2789 -0.2964
27864SOL    HW185360   1.905   4.379   9.770  0.1895  0.5554 -2.8991
27864SOL    HW285361   1.770   4.415   9.711 -1.4526 -0.9702 -0.2968
27865SOL     OW85362   6.543   3.854   9.022  0.1912  0.2053  0.1548
27865SOL    HW185363   6.509   3.774   9.062 -0.2765 -0.0611 -0.7501
27865SOL    HW285364   6.638   3.845   9.029  0.1293  0.1402  1.1288
27866SOL     OW85365   3.029   6.403   6.667  0.2352  0.3163  0.4060
27866SOL    HW185366   3.107   6.349   6.682  0.4809  0.8148  0.9705
27866SOL    HW285367   2.998   6.377   6.580 -2.1118 -3.7552  2.1799
27867SOL     OW85368   6.814   0.451   6.749  0.9310 -0.0629  0.3470
27867SOL    HW185369   6.834   0.465   6.656 -0.9552 -0.0801 -0.1033
27867SOL    HW285370   6.762   0.527   6.774  0.1727 -0.7663  0.9673
27868SOL     OW85371   4.743   3.888   2.639 -0.1547  0.1665 -0.3468
27868SOL    HW185372   4.657   3.856   2.611 -0.8868  0.8264  1.0407
27868SOL    HW285373   4.739   3.885   2.735  1.9729 -1.3588 -0.2347
27869SOL     OW85374   0.704   8.708   1.777 -0.6772 -0.2457 -0.5792
27869SOL    HW185375   0.698   8.803   1.785  1.4263  0.0761 -1.9486
27869SOL    HW285376   0.763   8.682   1.848  2.2708  0.1276 -2.7065
27870SOL     OW85377   7.813   4.938   4.452 -0.0524 -0.5560 -0.2985
27870SOL    HW185378   7.733   4.886   4.456 -0.7110  0.3501 -1.1409
27870SOL    HW285379   7.883   4.874   4.466 -0.8082 -1.7422 -1.5566
27871SOL     OW85380   3.139   5.644   8.549  0.1562 -0.2242  0.1496
27871SOL    HW185381   3.229   5.617   8.571  0.0325 -0.1628  0.7633
27871SOL    HW285382   3.138   5.650   8.454  1.1324  0.9154  0.1902
27872SOL     OW85383   6.643   4.585   4.364  0.6360 -0.1542 -0.1586
27872SOL    HW185384   6.568   4.592   4.423  1.9620  0.9585  1.4813
27872SOL    HW285385   6.644   4.493   4.337 -1.3999 -0.1474 -0.4024
27873SOL     OW85386   1.126   8.942   1.653  0.1002  0.1180  0.5627
27873SOL    HW185387   1.160   9.029   1.633 -1.9250  0.7341 -0.3741
27873SOL    HW285388   1.034   8.945   1.629  0.1282 -2.5301 -0.2175
27874SOL     OW85389   6.199   1.296   8.867 -0.2975 -0.1462 -0.1706
27874SOL    HW185390   6.147   1.215   8.865 -0.1166 -0.2961  0.6913
27874SOL    HW285391   6.275   1.277   8.812  1.7486 -2.0195  2.9448
27875SOL     OW85392   3.877   8.976   2.220 -0.0837  0.2042  0.0060
27875SOL    HW185393   3.892   9.023   2.137 -0.5641 -0.6506 -0.5764
27875SOL    HW285394   3.963   8.976   2.263  0.5771 -0.7513 -1.2418
27876SOL     OW85395   7.583   2.337   0.556 -0.3654  0.1307  0.3420
27876SOL    HW185396   7.659   2.338   0.496 -0.9546  2.4766 -0.5002
27876SOL    HW285397   7.538   2.255   0.536  1.2149 -0.6853 -0.0946
27877SOL     OW85398   4.381   3.065   4.917  0.7707  0.2994 -0.1379
27877SOL    HW185399   4.371   3.078   4.822 -0.2214  1.4047  0.1023
27877SOL    HW285400   4.393   2.970   4.926 -0.5527 -0.0232 -1.2715
27878SOL     OW85401   2.079   6.940   9.675 -0.4516 -0.2600 -0.3853
27878SOL    HW185402   2.082   6.988   9.757  1.9599 -1.1209  0.1361
27878SOL    HW285403   2.086   6.848   9.700  1.5544 -0.4884 -1.5057
27879SOL     OW85404   9.154   3.423   2.252  0.4895  0.6154 -0.5075
27879SOL    HW185405   9.059   3.429   2.256  0.4454 -0.4174  1.8700
27879SOL    HW285406   9.184   3.462   2.334  2.0205  0.0071 -0.7471
27880SOL     OW85407   5.623   2.471   1.399  0.5391  0.1961  0.3062
27880SOL    HW185408   5.629   2.566   1.408  1.2400  0.1535  0.3313
27880SOL    HW285409   5.627   2.438   1.489 -0.3775  0.1747  0.3424
27881SOL     OW85410   6.821   9.065   7.789 -0.0939 -0.1008 -0.3018
27881SOL    HW185411   6.782   9.131   7.846  1.6543  1.0999 -0.4325
27881SOL    HW285412   6.778   8.983   7.815 -0.8266  0.7368  1.2959
27882SOL     OW85413   5.213   3.041   4.887 -0.9393 -0.2144  0.4042
27882SOL    HW185414   5.130   3.033   4.839 -0.5571  0.3726 -0.3890
27882SOL    HW285415   5.245   2.951   4.894 -0.5352 -0.2599 -1.3522
27883SOL     OW85416   2.429   9.016   8.379 -0.6131  0.0835 -0.4660
27883SOL    HW185417   2.412   9.030   8.472  0.4692 -0.5894 -0.1531
27883SOL    HW285418   2.348   9.043   8.336 -1.1739  0.2880  0.6738
27884SOL     OW85419   0.329   7.930   5.372 -0.4075  0.1037 -0.8726
27884SOL    HW185420   0.364   7.859   5.318  1.4059  1.0550 -1.0455
27884SOL    HW285421   0.283   7.986   5.310  0.1053  0.2455 -1.1318
27885SOL     OW85422   0.177   1.001   2.182 -0.0085 -0.3093 -0.2397
27885SOL    HW185423   0.223   1.027   2.262 -1.7423  1.9982  0.1121
27885SOL    HW285424   0.136   0.918   2.205  1.1508 -0.7005  0.5583
27886SOL     OW85425   1.861   5.324   7.646 -0.5657 -0.1593 -0.2617
27886SOL    HW185426   1.908   5.349   7.726  0.0745  0.5064 -0.8240
27886SOL    HW285427   1.840   5.231   7.658 -0.7308  0.0030  0.7937
27887SOL     OW85428   4.405   9.296   5.822  0.4186  0.0316  0.7105
27887SOL    HW185429   4.417   9.390   5.810 -2.2829  0.3984  0.2893
27887SOL    HW285430   4.388   9.262   5.735 -1.5791 -0.3016  1.1899
27888SOL     OW85431   2.308   3.549   4.797  0.5219  0.3889  0.2964
27888SOL    HW185432   2.300   3.559   4.892 -2.2731 -1.5018  0.3726
27888SOL    HW285433   2.309   3.454   4.783 -1.1437  0.5929 -1.6574
27889SOL     OW85434   7.183   8.226   3.373  0.0043 -0.7815 -0.5031
27889SOL    HW185435   7.203   8.289   3.443  0.4024 -0.4435 -0.9129
27889SOL    HW285436   7.241   8.251   3.301 -0.9334 -0.6379 -1.2414
27890SOL     OW85437   8.887   8.356   8.573 -0.2450 -0.4141  0.1834
27890SOL    HW185438   8.826   8.284   8.556  1.0194 -1.4850  0.0221
27890SOL    HW285439   8.901   8.354   8.667  0.7897 -1.2523  0.0316
27891SOL     OW85440   9.617   0.914   6.237 -0.0605  0.5219 -0.0442
27891SOL    HW185441   9.681   0.870   6.181 -0.7326 -1.1010  0.3959
27891SOL    HW285442   9.581   0.844   6.292  0.4895  2.0127  2.3595
27892SOL     OW85443   2.463   0.232   8.937  0.2891 -0.2416 -0.3352
27892SOL    HW185444   2.550   0.229   8.978  0.3926  1.0966 -0.4402
27892SOL    HW285445   2.470   0.172   8.863  1.3990  0.5120 -0.8575
27893SOL     OW85446   3.327   4.177   7.013 -0.4589 -0.5480  0.2894
27893SOL    HW185447   3.293   4.098   7.057  0.3002 -1.0111  0.0614
27893SOL    HW285448   3.319   4.157   6.920 -0.3260 -0.3270  0.2317
27894SOL     OW85449   6.992   3.721   9.752  0.1482 -0.5393 -0.3727
27894SOL    HW185450   7.022   3.778   9.681 -1.2105 -0.1094 -0.6349
27894SOL    HW285451   7.072   3.698   9.799  0.7448  1.7285 -0.1522
27895SOL     OW85452   9.286   5.844   5.941  0.0069 -0.2019  0.1578
27895SOL    HW185453   9.367   5.889   5.966 -0.2055  0.7351 -0.7701
27895SOL    HW285454   9.218   5.887   5.992 -0.0526 -0.2127  0.0869
27896SOL     OW85455   2.289   3.643   3.914  0.1096 -0.1273 -0.3271
27896SOL    HW185456   2.199   3.614   3.898 -0.6268  1.5093  0.5401
27896SOL    HW285457   2.296   3.649   4.009  1.3235 -0.7120 -0.3597
27897SOL     OW85458   7.789   3.701   2.633  0.0844  0.5054  0.3902
27897SOL    HW185459   7.824   3.788   2.614  2.9168 -0.7285 -0.6834
27897SOL    HW285460   7.766   3.704   2.726 -0.9235  2.6670  0.1249
27898SOL     OW85461   1.727   6.981   2.721 -0.0671  0.0198 -0.2494
27898SOL    HW185462   1.758   6.973   2.812  1.1587 -1.1856 -0.7430
27898SOL    HW285463   1.805   6.964   2.668 -0.9202  0.0212 -1.5320
27899SOL     OW85464   1.910   8.991   6.441 -0.1420 -0.2596 -0.1775
27899SOL    HW185465   1.823   8.976   6.478 -0.1666  0.6392  0.1269
27899SOL    HW285466   1.963   9.021   6.514 -0.2216  1.6536 -0.8662
27900SOL     OW85467   9.033   2.495   0.083  0.4656 -0.3611 -0.5425
27900SOL    HW185468   9.123   2.514   0.059  0.1011  2.6364  0.1448
27900SOL    HW285469   8.989   2.480  -0.001  1.4158 -1.2188 -0.9171
27901SOL     OW85470   3.712   5.995   5.536 -0.0530 -0.4532 -0.3121
27901SOL    HW185471   3.653   5.971   5.607  0.0901 -1.0407 -0.3903
27901SOL    HW285472   3.659   6.050   5.478 -0.3664 -0.5425 -0.1084
27902SOL     OW85473   7.548   9.400   2.131 -0.0605  0.3535  0.1886
27902SOL    HW185474   7.640   9.394   2.155  1.0996  1.2767 -3.4305
27902SOL    HW285475   7.533   9.493   2.113 -0.8152 -0.1063 -1.9565
27903SOL     OW85476   3.097   0.891   1.909 -0.2792  0.0476  0.2399
27903SOL    HW185477   3.055   0.972   1.881 -0.5715 -0.0116  0.4964
27903SOL    HW285478   3.125   0.849   1.828  1.3091  1.1588  0.1704
27904SOL     OW85479   1.357   7.756   8.700  1.1517 -0.0253 -0.2961
27904SOL    HW185480   1.421   7.688   8.721  0.8026 -0.5125 -0.7859
27904SOL    HW285481   1.320   7.729   8.616  1.3502  1.0255 -0.7374
27905SOL     OW85482   5.929   1.708   1.842  0.1678  0.1261 -0.0615
27905SOL    HW185483   5.841   1.717   1.879  0.2084 -1.3791  0.4490
27905SOL    HW285484   5.915   1.669   1.756  0.1362  2.8907 -1.4388
27906SOL     OW85485   7.021   1.062   2.438 -0.2482 -0.0620 -0.3163
27906SOL    HW185486   7.109   1.032   2.462 -0.4058  0.2867  0.7183
27906SOL    HW285487   6.981   0.986   2.394  0.2849 -0.4814 -0.0822
27907SOL     OW85488   6.045   6.994   2.822  0.3007 -0.0728 -0.6325
27907SOL    HW185489   6.113   6.957   2.878  0.7682 -1.0131 -1.7680
27907SOL    HW285490   6.000   7.058   2.877 -0.1973 -1.9487  1.2998
27908SOL     OW85491   3.098   3.282   0.894  0.2794 -0.0839 -0.0161
27908SOL    HW185492   3.082   3.337   0.818 -0.4899  1.1771  1.0179
27908SOL    HW285493   3.191   3.260   0.888 -0.0978 -1.3527 -2.1448
27909SOL     OW85494   3.892   7.349   7.825  0.5653  0.4029  0.3831
27909SOL    HW185495   3.914   7.317   7.738  0.1524  1.3727 -0.0943
27909SOL    HW285496   3.976   7.367   7.867  0.7674 -0.1988  0.2411
27910SOL     OW85497   0.778   4.418   9.683 -0.1685 -0.3991 -0.3669
27910SOL    HW185498   0.829   4.375   9.613  2.3740  2.1203 -0.2702
27910SOL    HW285499   0.712   4.469   9.636 -0.5374 -1.1901 -0.7185
27911SOL     OW85500   7.267   5.107   7.431 -0.3796 -0.8953 -0.0158
27911SOL    HW185501   7.242   5.185   7.381 -0.0928  1.3050  2.9953
27911SOL    HW285502   7.185   5.060   7.445 -0.6184 -0.9930 -1.5701
27912SOL     OW85503   9.387   2.353   2.340  0.1937  0.3933  0.2051
27912SOL    HW185504   9.362   2.263   2.320  0.8539  0.3144 -0.3054
27912SOL    HW285505   9.482   2.353   2.338  0.2292  1.6212 -2.3946
27913SOL     OW85506   5.228   7.340   3.246 -0.1753  0.7197  1.3991
27913SOL    HW185507   5.144   7.316   3.284 -1.3109  1.5129 -0.4773
27913SOL    HW285508   5.246   7.428   3.280 -1.4034  1.6100 -0.0998
27914SOL     OW85509   9.013   5.104   1.479 -0.2172  0.5320  0.2137
27914SOL    HW185510   8.992   5.061   1.397 -2.3735  1.4814  0.2154
27914SOL    HW285511   9.061   5.038   1.529 -0.1148 -0.5378 -1.2343
27915SOL     OW85512   9.241   0.373   7.001  0.2392  0.1934 -0.4248
27915SOL    HW185513   9.246   0.285   7.037  0.4435  0.0985 -0.6858
27915SOL    HW285514   9.156   0.377   6.958 -0.7675  0.8478  1.4743
27916SOL     OW85515   2.491   0.917   3.053  0.4938 -0.0156 -0.3251
27916SOL    HW185516   2.502   0.885   3.142  0.8228  0.1998 -0.2873
27916SOL    HW285517   2.396   0.914   3.038  0.4913 -0.6430 -0.1919
27917SOL     OW85518   9.684   6.132   1.851 -0.6588  0.2410  0.4335
27917SOL    HW185519   9.692   6.165   1.940  1.3864  0.5339  0.1956
27917SOL    HW285520   9.769   6.092   1.832 -0.5057  1.4369 -1.8499
27918SOL     OW85521   3.053   3.571   1.327  0.3329 -0.5679 -0.0650
27918SOL    HW185522   3.115   3.508   1.363  0.0956  0.0758  1.5499
27918SOL    HW285523   2.971   3.552   1.371 -0.3132 -0.5340 -1.2016
27919SOL     OW85524   9.442   9.577   5.545  0.1027 -0.0416  0.0832
27919SOL    HW185525   9.437   9.483   5.529  0.3428  0.0714 -0.6568
27919SOL    HW285526   9.506   9.609   5.482  0.5656  0.5112  0.8193
27920SOL     OW85527   8.927   9.211   5.205 -0.0862 -0.3082 -0.0055
27920SOL    HW185528   8.979   9.147   5.255  1.7549 -0.3630 -1.8854
27920SOL    HW285529   8.846   9.164   5.184 -0.0745 -0.9378  1.2300
27921SOL     OW85530   7.854   6.967   2.341  0.2127  0.0818 -0.1454
27921SOL    HW185531   7.881   7.057   2.322  2.2077 -0.2513  0.8375
27921SOL    HW285532   7.935   6.916   2.337 -1.0139 -1.9055 -1.7255
27922SOL     OW85533   1.379   4.225   3.198  0.6190  0.1401  0.0319
27922SOL    HW185534   1.307   4.164   3.181  1.9229 -1.5216  0.2836
27922SOL    HW285535   1.384   4.277   3.118 -1.0025  0.4730  0.1034
27923SOL     OW85536   9.119   0.833   7.994 -0.1812 -0.4944  0.3500
27923SOL    HW185537   9.045   0.774   7.980 -0.8306  0.3446  0.1759
27923SOL    HW285538   9.167   0.793   8.067 -0.9205 -0.9394  0.6153
27924SOL     OW85539   8.178   5.224   6.714 -0.1624  0.1210 -0.1568
27924SOL    HW185540   8.185   5.238   6.619  2.2956  2.1676  0.2038
27924SOL    HW285541   8.170   5.312   6.750  2.0420 -0.3120  1.6311
27925SOL     OW85542   8.239   0.043   1.545 -0.4483  0.3475  0.3348
27925SOL    HW185543   8.330   0.014   1.534 -0.5097  0.4316 -0.4662
27925SOL    HW285544   8.197  -0.028   1.593 -0.1819 -0.1194 -0.1141
27926SOL     OW85545   8.985   3.321   4.543  0.0883 -0.1785 -0.2761
27926SOL    HW185546   8.901   3.332   4.498 -0.2347  0.9014  0.5434
27926SOL    HW285547   9.008   3.229   4.528 -0.2401  0.0276 -2.1911
27927SOL     OW85548   7.817   7.766   1.181  0.0063  0.0831 -0.3874
27927SOL    HW185549   7.802   7.757   1.275 -0.5634 -0.8242 -0.5557
27927SOL    HW285550   7.734   7.801   1.147  0.2244  0.4487 -0.5555
27928SOL     OW85551   4.807   2.311   3.222  0.1117  0.2574  0.1189
27928SOL    HW185552   4.809   2.369   3.298  1.5329  0.9101 -0.3739
27928SOL    HW285553   4.865   2.354   3.158 -1.0119 -0.2789 -1.3267
27929SOL     OW85554   9.099   9.222   4.345 -0.8662 -0.5578 -0.2534
27929SOL    HW185555   9.051   9.268   4.414 -2.8571 -1.1345 -1.1813
27929SOL    HW285556   9.057   9.136   4.340  0.5674 -1.2623 -0.8516
27930SOL     OW85557   0.287   3.368   3.523 -0.2305  0.2188  0.1053
27930SOL    HW185558   0.278   3.391   3.430 -2.8128  0.5721  0.3666
27930SOL    HW285559   0.255   3.277   3.528  0.8250 -0.1401  0.5147
27931SOL     OW85560   2.920   4.604   5.395 -0.1906 -0.2292 -0.1642
27931SOL    HW185561   2.853   4.609   5.462  0.6359 -0.6459  0.7143
27931SOL    HW285562   2.893   4.669   5.330 -0.6763  0.6390  0.8663
27932SOL     OW85563   0.814   9.604   5.662  0.1249  0.6809  0.2615
27932SOL    HW185564   0.875   9.531   5.655 -2.6104 -1.7421 -0.2431
27932SOL    HW285565   0.843   9.666   5.595  0.8990 -1.2900 -1.3285
27933SOL     OW85566   2.168   0.842   1.162 -0.5835  0.0915 -0.1936
27933SOL    HW185567   2.090   0.887   1.193 -0.7570 -0.8442  0.8177
27933SOL    HW285568   2.241   0.894   1.194 -0.7132 -1.5000  3.1015
27934SOL     OW85569   6.110   7.962   6.312 -0.3355 -0.9093  0.2919
27934SOL    HW185570   6.081   8.013   6.236  1.1514  1.6701  1.3485
27934SOL    HW285571   6.195   7.927   6.286  0.6346  0.7950  1.0433
27935SOL     OW85572   1.537   2.253   3.357  0.5101 -0.0158  0.0903
27935SOL    HW185573   1.446   2.253   3.327 -0.0595  0.0322  1.7626
27935SOL    HW285574   1.580   2.189   3.300 -1.1641 -2.0069  0.9441
27936SOL     OW85575   7.798   4.889   2.467 -0.3613 -0.3411 -0.3945
27936SOL    HW185576   7.866   4.941   2.510 -2.0378  1.6509  0.0665
27936SOL    HW285577   7.752   4.847   2.540 -0.3505 -0.7033 -0.5995
27937SOL     OW85578   4.931   8.369   9.570  0.1295 -0.3463  0.4795
27937SOL    HW185579   4.898   8.286   9.536  2.3769 -1.2049  0.2300
27937SOL    HW285580   5.022   8.350   9.595  0.7930  2.1186  0.1537
27938SOL     OW85581   0.827   5.979   9.714  0.3759  0.1443 -0.0786
27938SOL    HW185582   0.832   5.901   9.660  1.0389 -0.5125  0.8996
27938SOL    HW285583   0.917   6.011   9.719  0.1920  0.6726 -0.0362
27939SOL     OW85584   9.473   3.838   0.551 -0.1032  0.2878  0.1875
27939SOL    HW185585   9.480   3.755   0.503 -2.1994  0.0710  0.1973
27939SOL    HW285586   9.556   3.883   0.532  0.5706 -1.2710 -0.7954
27940SOL     OW85587   6.024   4.553   9.842  0.0419  0.3983  0.2168
27940SOL    HW185588   5.987   4.476   9.799 -0.9686 -0.0294  1.7833
27940SOL    HW285589   5.967   4.568   9.918  2.1339  0.7158  1.8048
27941SOL     OW85590   6.463   6.624   5.330 -0.1569  0.2965 -0.5773
27941SOL    HW185591   6.376   6.655   5.306 -0.0335  0.7780 -0.4035
27941SOL    HW285592   6.476   6.653   5.420 -0.3785 -0.9983 -0.1056
27942SOL     OW85593   4.737   7.735   3.226 -0.0246 -0.3451 -0.0756
27942SOL    HW185594   4.643   7.723   3.239 -0.4216  3.6093  2.4615
27942SOL    HW285595   4.778   7.699   3.304  0.3934 -0.5336 -0.3774
27943SOL     OW85596   7.820   4.211   4.541 -0.1571 -0.1665  0.1093
27943SOL    HW185597   7.779   4.175   4.620 -0.9759 -2.0503 -1.1124
27943SOL    HW285598   7.792   4.303   4.539 -0.5211 -0.2195  1.7294
27944SOL     OW85599   8.431   6.768   6.677  0.7283  0.1666  0.0928
27944SOL    HW185600   8.434   6.725   6.763  0.3638  1.1693  0.6205
27944SOL    HW285601   8.518   6.808   6.667  0.7613  0.0734  0.0078
27945SOL     OW85602   9.398   5.351   2.475  0.5970 -0.5008  0.0200
27945SOL    HW185603   9.354   5.267   2.467  0.1093 -0.1261 -1.7215
27945SOL    HW285604   9.483   5.338   2.433 -0.1739  0.2983 -1.9184
27946SOL     OW85605   4.949   5.518   4.700  0.0541  0.0640  0.1301
27946SOL    HW185606   4.862   5.554   4.715 -1.3065 -1.9022 -2.3410
27946SOL    HW285607   4.983   5.498   4.787 -1.7195  1.3558  1.1707
27947SOL     OW85608   2.884   6.236   9.262 -0.7352  0.3875 -0.3742
27947SOL    HW185609   2.829   6.309   9.231 -1.3614  1.1678  2.2367
27947SOL    HW285610   2.916   6.266   9.347 -0.0603 -1.9572  0.2673
27948SOL     OW85611   5.281   4.393   9.294 -0.0674 -0.0841 -0.2951
27948SOL    HW185612   5.276   4.421   9.385 -0.6074 -3.1947  0.7733
27948SOL    HW285613   5.190   4.389   9.265  0.0312 -0.1780 -0.5958
27949SOL     OW85614   5.109   6.255   5.674  0.7952  0.4418  0.6247
27949SOL    HW185615   5.194   6.212   5.680 -0.1293 -1.6867 -0.4602
27949SOL    HW285616   5.065   6.232   5.755  0.5512 -0.1215  0.3382
27950SOL     OW85617   9.080   6.069   0.921  0.8032  0.3213 -0.1915
27950SOL    HW185618   9.099   6.097   1.011  0.3397  0.4683 -0.1365
27950SOL    HW285619   9.063   5.976   0.928  2.8295 -0.1271 -0.4453
27951SOL     OW85620   5.423   5.090   6.504  0.3365  0.0400  0.2871
27951SOL    HW185621   5.395   5.147   6.576  0.1737 -0.0551  0.2986
27951SOL    HW285622   5.355   5.022   6.499  0.7191 -0.3613  0.5099
27952SOL     OW85623   9.302   8.978   5.183 -0.0313  0.0512  0.0754
27952SOL    HW185624   9.275   9.067   5.209  1.3709  0.3144  0.7105
27952SOL    HW285625   9.246   8.920   5.235 -0.4480  0.5572  0.2061
27953SOL     OW85626   1.161   7.024   8.438 -0.8413  0.4005  0.5264
27953SOL    HW185627   1.159   6.978   8.354  1.2214  0.3550  0.4306
27953SOL    HW285628   1.231   6.981   8.487 -0.4487  1.8973  1.3543
27954SOL     OW85629   1.440   5.836   6.913 -0.8012 -0.0299 -0.2204
27954SOL    HW185630   1.442   5.750   6.871 -0.2097  0.4844 -1.2729
27954SOL    HW285631   1.509   5.886   6.869 -1.0118  0.9278  0.5064
27955SOL     OW85632   9.212   4.290   8.595  0.3823  0.2026  0.3845
27955SOL    HW185633   9.176   4.318   8.511  2.7270  1.7652 -0.1937
27955SOL    HW285634   9.208   4.194   8.592 -0.6694  0.2598 -0.9879
27956SOL     OW85635   5.170   9.388   4.681  0.4080  0.3594 -0.1987
27956SOL    HW185636   5.202   9.384   4.591  0.3382 -0.3663 -0.1938
27956SOL    HW285637   5.245   9.362   4.735  0.3243  0.3786 -0.0728
27957SOL     OW85638   1.417   9.189   7.093 -0.2154  0.0418 -0.3132
27957SOL    HW185639   1.337   9.145   7.120 -0.8930  0.7098 -1.2103
27957SOL    HW285640   1.486   9.147   7.145 -0.8701 -1.8329 -0.8948
27958SOL     OW85641   2.348   7.876   3.953 -0.3773 -0.4859 -0.0292
27958SOL    HW185642   2.330   7.817   4.026 -2.2423  1.1832  0.9611
27958SOL    HW285643   2.322   7.827   3.875  2.2285 -2.5314  0.2371
27959SOL     OW85644   6.849   2.907   6.107  0.0460  0.1958 -0.1979
27959SOL    HW185645   6.926   2.851   6.111  0.5647  0.9252  0.4871
27959SOL    HW285646   6.881   2.989   6.069  0.2281  1.3841  2.2818
27960SOL     OW85647   7.315   1.017   1.782  0.1482  0.3037  0.0346
27960SOL    HW185648   7.399   0.995   1.741  1.1272  3.0641  0.3424
27960SOL    HW285649   7.336   1.029   1.874 -0.6993  0.4249  0.2175
27961SOL     OW85650   3.479   6.718   1.276 -0.1846  0.4539 -0.2071
27961SOL    HW185651   3.484   6.700   1.370 -1.6788 -1.5866 -0.4404
27961SOL    HW285652   3.399   6.769   1.266  0.0282  0.7572 -0.3688
27962SOL     OW85653   3.993   1.585   8.239 -0.0220  0.8238 -0.2820
27962SOL    HW185654   3.945   1.549   8.314 -0.2917 -0.2828 -0.9531
27962SOL    HW285655   4.069   1.527   8.229 -0.5881  0.2601 -1.5355
27963SOL     OW85656   5.314   2.825   2.860  0.2052  0.0667  0.1877
27963SOL    HW185657   5.241   2.796   2.914 -0.0224  0.3221  0.0203
27963SOL    HW285658   5.311   2.768   2.783 -0.3573  0.6405 -0.2302
27964SOL     OW85659   2.442   1.231   4.677 -0.1809 -0.0898 -0.6431
27964SOL    HW185660   2.368   1.259   4.622 -0.0134  1.1443 -0.2635
27964SOL    HW285661   2.518   1.237   4.619 -0.0731  0.7658 -0.4320
27965SOL     OW85662   2.970   2.277   4.868 -0.2097 -0.0685 -0.4131
27965SOL    HW185663   2.893   2.261   4.922  0.2631  0.4626  0.4428
27965SOL    HW285664   2.941   2.261   4.778 -1.6867  1.3507 -0.2316
27966SOL     OW85665   2.201   6.191   2.579  0.1043 -0.8113 -0.1907
27966SOL    HW185666   2.199   6.161   2.489 -1.1661 -1.3854  0.0051
27966SOL    HW285667   2.108   6.197   2.605  0.3766  1.0494  0.5199
27967SOL     OW85668   5.753   6.979   8.756  0.3632  0.8550  0.6813
27967SOL    HW185669   5.785   7.066   8.783  2.1676  0.5588 -0.3150
27967SOL    HW285670   5.801   6.918   8.812  0.1415  0.4468  0.4267
27968SOL     OW85671   5.493   1.710   7.882  0.1745  0.0159 -0.5453
27968SOL    HW185672   5.427   1.757   7.934 -0.2994  1.2995 -2.2322
27968SOL    HW285673   5.443   1.671   7.810  1.0642 -0.2530 -1.0208
27969SOL     OW85674   5.379   7.854   1.221 -0.2722 -0.2226  0.6154
27969SOL    HW185675   5.396   7.760   1.234 -0.5059 -0.1499  1.4651
27969SOL    HW285676   5.367   7.863   1.126  1.4715 -0.7682  0.2953
27970SOL     OW85677   3.752   1.636   0.099 -0.3403 -0.4615 -0.0510
27970SOL    HW185678   3.671   1.584   0.098  0.0407 -1.0585 -1.5750
27970SOL    HW285679   3.779   1.641   0.008 -1.0759  3.6171 -0.2275
27971SOL     OW85680   0.155   8.693   1.149 -0.1715 -0.7854 -0.0536
27971SOL    HW185681   0.201   8.629   1.203 -0.3358  0.4338  1.6116
27971SOL    HW285682   0.225   8.749   1.115 -0.1725 -0.7355  0.0252
27972SOL     OW85683   2.818   9.191   4.944  0.0651 -0.1974 -0.5778
27972SOL    HW185684   2.762   9.229   5.012  2.5288 -0.5135  1.7907
27972SOL    HW285685   2.857   9.267   4.901  0.9038  0.0619  0.5724
27973SOL     OW85686   7.544   6.096   0.080 -0.4250  0.0700 -0.1044
27973SOL    HW185687   7.522   6.171   0.025 -0.0518  1.0084  0.9757
27973SOL    HW285688   7.640   6.092   0.078 -0.4572 -0.6538 -0.4999
27974SOL     OW85689   4.332   6.365   7.369 -0.9950 -0.3398  0.2001
27974SOL    HW185690   4.276   6.373   7.446 -1.1325 -0.1663  0.0832
27974SOL    HW285691   4.350   6.271   7.361 -1.2526 -0.3923  0.2498
27975SOL     OW85692   1.723   0.737   3.923 -0.1310 -0.4089 -0.0012
27975SOL    HW185693   1.649   0.677   3.911  0.2248 -0.9892  0.5998
27975SOL    HW285694   1.742   0.733   4.017  1.6973 -1.5368 -0.3616
27976SOL     OW85695   4.423   8.458   1.534  0.1944  0.2327 -0.3685
27976SOL    HW185696   4.438   8.494   1.622 -0.7872  1.3846 -0.6611
27976SOL    HW285697   4.373   8.378   1.550 -0.2171  0.5758  0.1124
27977SOL     OW85698   0.475   6.703   8.335 -0.3236 -0.0125  0.0884
27977SOL    HW185699   0.462   6.608   8.341 -0.2201  0.0226  1.1068
27977SOL    HW285700   0.388   6.740   8.345 -0.2041  0.0348  1.0173
27978SOL     OW85701   7.424   2.040   0.668 -0.1534  0.7791 -0.0576
27978SOL    HW185702   7.383   2.110   0.719 -0.1159  1.3314 -0.7638
27978SOL    HW285703   7.416   2.069   0.577  2.2902  1.1744 -0.2131
27979SOL     OW85704   8.109   5.368   3.536  0.7847 -0.5049 -0.2992
27979SOL    HW185705   8.146   5.283   3.558  0.9461 -0.6245 -1.0067
27979SOL    HW285706   8.016   5.360   3.555  1.2801  0.3297  3.1293
27980SOL     OW85707   7.206   7.815   5.465 -0.1470  0.2086 -0.3273
27980SOL    HW185708   7.175   7.729   5.492 -0.2938  0.4374  0.2491
27980SOL    HW285709   7.168   7.828   5.378 -2.8907  1.0450  0.8759
27981SOL     OW85710   9.691   5.542   3.406 -0.4099  0.2484 -0.1055
27981SOL    HW185711   9.625   5.594   3.361 -0.0993  0.6505 -0.0911
27981SOL    HW285712   9.654   5.453   3.407 -2.0571  0.8708  1.9671
27982SOL     OW85713   9.583   6.118   1.596 -0.0798  1.0719  0.0587
27982SOL    HW185714   9.605   6.111   1.689 -0.3905  0.8490  0.1160
27982SOL    HW285715   9.628   6.044   1.555 -0.3043  0.9135  0.0985
27983SOL     OW85716   6.414   1.954   0.374  0.1262  0.1303 -0.4298
27983SOL    HW185717   6.499   1.984   0.344  0.8917  0.7603  2.1153
27983SOL    HW285718   6.351   2.013   0.332  0.9100 -0.3053 -2.2781
27984SOL     OW85719   0.302   2.316   4.724 -0.6113 -0.2353  0.0291
27984SOL    HW185720   0.321   2.298   4.633  1.2564 -0.0762  0.3492
27984SOL    HW285721   0.276   2.409   4.725 -2.6788 -0.7624 -0.5742
27985SOL     OW85722   6.536   8.775   8.294 -0.2784 -0.3963  0.0050
27985SOL    HW185723   6.618   8.728   8.310  0.3736  1.0462  1.1792
27985SOL    HW285724   6.474   8.708   8.266  1.0795 -1.6496 -0.0756
27986SOL     OW85725   8.920   3.957   2.167  0.0406 -0.1301 -0.5409
27986SOL    HW185726   8.899   4.004   2.086 -2.2300  0.1693  0.1556
27986SOL    HW285727   8.888   3.868   2.151  1.1062 -0.5216 -0.5550
27987SOL     OW85728   5.744   5.805   5.608  0.2259 -0.0697  0.1057
27987SOL    HW185729   5.713   5.896   5.609 -1.8862 -0.7375 -0.1076
27987SOL    HW285730   5.708   5.767   5.688 -0.3823 -1.1561 -0.6587
27988SOL     OW85731   1.210   1.523   5.543 -0.2829 -0.2466 -0.5521
27988SOL    HW185732   1.131   1.485   5.504 -0.3469 -0.8257  0.1212
27988SOL    HW285733   1.210   1.614   5.515 -1.9048  0.1135  0.5184
27989SOL     OW85734   4.815   3.596   7.615 -0.0047 -0.5518 -0.5589
27989SOL    HW185735   4.896   3.630   7.578  0.1162  0.1987  0.3581
27989SOL    HW285736   4.752   3.599   7.543  0.1894  0.9920 -0.6871
27990SOL     OW85737   6.476   1.167   8.623 -0.8802  0.3765 -0.3624
27990SOL    HW185738   6.515   1.125   8.546 -0.6011  1.2310 -0.6917
27990SOL    HW285739   6.396   1.207   8.589  0.3795  2.7288 -0.7438
27991SOL     OW85740   4.935   2.630   4.065 -0.4477 -0.2948  0.3091
27991SOL    HW185741   4.947   2.548   4.114  1.4251  0.2634  0.8834
27991SOL    HW285742   4.846   2.625   4.031 -0.5874 -2.2947  0.8348
27992SOL     OW85743   4.383   3.539   1.396 -0.1275  0.2391 -0.3702
27992SOL    HW185744   4.345   3.606   1.453  0.6985  0.3267  0.0883
27992SOL    HW285745   4.447   3.586   1.343 -0.4781  0.0475 -0.9607
27993SOL     OW85746   7.321   6.217   0.389 -0.1457 -0.0428  0.0983
27993SOL    HW185747   7.250   6.282   0.393  0.3705  0.5150  0.4390
27993SOL    HW285748   7.398   6.264   0.424  0.9363  0.0869 -2.2452
27994SOL     OW85749   5.128   2.813   9.305 -0.0645 -0.1415  0.2870
27994SOL    HW185750   5.196   2.770   9.357  0.7130  0.5492 -0.1146
27994SOL    HW285751   5.136   2.906   9.329 -0.4678  0.0237 -0.2063
27995SOL     OW85752   4.050   6.159   5.857  0.5321  0.5024  0.1888
27995SOL    HW185753   4.121   6.202   5.905  0.4903 -0.1338  0.8414
27995SOL    HW285754   4.085   6.074   5.832 -0.4635 -0.4705  1.8718
27996SOL     OW85755   2.955   0.502   3.357  0.1986  0.2569  0.0871
27996SOL    HW185756   2.938   0.516   3.263  1.7064  0.7709 -0.1268
27996SOL    HW285757   2.901   0.426   3.379  0.1347 -0.1314 -1.2970
27997SOL     OW85758   0.450   7.413   5.571 -0.0675 -0.3892 -0.3666
27997SOL    HW185759   0.456   7.409   5.476  0.0137  0.7607 -0.4270
27997SOL    HW285760   0.460   7.506   5.592 -1.4015 -0.4341  0.6663
27998SOL     OW85761   9.140   1.930   5.378  0.5533 -0.6333 -0.3232
27998SOL    HW185762   9.138   1.953   5.285 -1.7761 -0.8353 -0.3824
27998SOL    HW285763   9.233   1.929   5.401  1.0950  4.0654 -1.4625
27999SOL     OW85764   6.254   0.068   6.881 -0.2026 -0.3960 -0.1122
27999SOL    HW185765   6.190   0.139   6.887 -1.1555 -0.8334 -3.2100
27999SOL    HW285766   6.334   0.109   6.850 -0.1773 -0.3885 -0.0363
28000SOL     OW85767   4.330   3.269   6.889  0.2614 -0.4225 -0.1477
28000SOL    HW185768   4.373   3.199   6.840  0.1395 -1.1784  0.8061
28000SOL    HW285769   4.401   3.332   6.907  0.6495 -0.9327  0.1165
28001SOL     OW85770   1.508   5.106   5.050  0.9543 -0.2543  0.1612
28001SOL    HW185771   1.524   5.023   5.096  0.8107 -0.4233 -0.0933
28001SOL    HW285772   1.596   5.141   5.033  1.0965 -1.2202 -1.3076
28002SOL     OW85773   2.462   4.013   0.954 -0.2921  0.0387 -0.2865
28002SOL    HW185774   2.484   3.925   0.986  0.5086  0.2568 -0.2070
28002SOL    HW285775   2.442   4.062   1.034  1.2915  0.4708 -0.1335
28003SOL     OW85776   6.273   4.298   2.668  0.2767 -0.3564  0.1940
28003SOL    HW185777   6.351   4.288   2.613 -0.0230 -2.7127  0.1148
28003SOL    HW285778   6.225   4.370   2.627 -0.2282 -2.3632 -3.0867
28004SOL     OW85779   4.325   2.738   6.657 -0.1047  0.0795 -0.0820
28004SOL    HW185780   4.291   2.782   6.735  0.5582  0.2879  0.0921
28004SOL    HW285781   4.420   2.748   6.662 -0.1190  2.1928 -2.1025
28005SOL     OW85782   9.172   6.209   2.889 -0.1556 -0.5881  0.6469
28005SOL    HW185783   9.203   6.255   2.811 -0.1255  1.2440  1.6929
28005SOL    HW285784   9.249   6.164   2.923  0.1994 -0.0947  0.4992
28006SOL     OW85785   5.042   4.960   3.007  0.2457 -0.0455 -0.3954
28006SOL    HW185786   5.054   4.877   3.052  1.2895 -0.6958 -1.7946
28006SOL    HW285787   5.007   4.935   2.921 -2.4119  1.1932  0.2245
28007SOL     OW85788   7.701   8.546   2.631  0.3645 -0.2501 -0.0791
28007SOL    HW185789   7.717   8.472   2.572  1.3104  0.6167 -0.9567
28007SOL    HW285790   7.626   8.592   2.593  0.1718 -0.4075  0.1115
28008SOL     OW85791   9.255   6.505   0.705 -0.1828  0.0710 -0.0173
28008SOL    HW185792   9.211   6.498   0.620 -0.1952 -0.0917  0.0008
28008SOL    HW285793   9.250   6.416   0.742 -1.2631  0.4089  0.6940
28009SOL     OW85794   7.632   3.196   5.094  0.0359 -0.7412 -0.6184
28009SOL    HW185795   7.599   3.189   5.005 -0.3446 -1.3262 -0.4373
28009SOL    HW285796   7.612   3.286   5.120 -0.8829 -0.8993 -0.7325
28010SOL     OW85797   8.239   0.657   3.391  0.2375 -0.2934  0.4477
28010SOL    HW185798   8.151   0.684   3.418  0.2072 -0.0741  0.1328
28010SOL    HW285799   8.286   0.740   3.378  0.4379 -0.4080  0.4353
28011SOL     OW85800   7.209   2.382   8.648 -0.6372  0.3853 -0.5997
28011SOL    HW185801   7.182   2.307   8.595 -1.6062  0.3257 -0.0477
28011SOL    HW285802   7.161   2.371   8.730  1.3909  0.0678  0.6073
28012SOL     OW85803   7.441   6.090   4.492  0.2436  0.3284 -0.1522
28012SOL    HW185804   7.455   6.035   4.415 -0.1049 -0.6987  0.4918
28012SOL    HW285805   7.479   6.041   4.565  1.8823  1.9362  0.1598
28013SOL     OW85806   9.568   5.506   6.114 -0.0377  0.5433 -0.2653
28013SOL    HW185807   9.536   5.582   6.164 -1.7030  0.5027 -1.2068
28013SOL    HW285808   9.609   5.545   6.037 -0.5374  0.5220 -0.5495
28014SOL     OW85809   4.425   8.785   1.211  0.1989  0.2487  0.2567
28014SOL    HW185810   4.450   8.793   1.303  1.5044  0.7808 -0.1182
28014SOL    HW285811   4.500   8.819   1.163 -1.4588  2.4944 -0.9423
28015SOL     OW85812   3.028   6.064   5.096 -0.0207  0.1240 -0.1560
28015SOL    HW185813   3.040   6.144   5.046  0.2616  0.0488 -0.2112
28015SOL    HW285814   2.939   6.035   5.075 -0.5286  1.0018  0.7000
28016SOL     OW85815   2.737   0.872   9.377 -0.1619  0.4508 -0.4671
28016SOL    HW185816   2.657   0.819   9.369 -0.0171  0.0896  0.3390
28016SOL    HW285817   2.741   0.895   9.470  0.8026  0.2560 -0.4502
28017SOL     OW85818   0.435   3.660   9.094 -0.1672  0.0221 -0.2778
28017SOL    HW185819   0.379   3.712   9.036  1.5990  2.6129  0.1484
28017SOL    HW285820   0.516   3.647   9.044  1.0462  1.5221  1.1685
28018SOL     OW85821   4.072   1.179   5.075 -0.2396  0.5925 -0.0530
28018SOL    HW185822   4.118   1.116   5.131  0.4507  0.5675 -0.6262
28018SOL    HW285823   3.984   1.145   5.067 -0.4085  0.6972  1.1705
28019SOL     OW85824   2.652   7.542   5.340 -0.5344  0.1600 -0.3745
28019SOL    HW185825   2.659   7.520   5.247  2.5888 -3.0624  0.4031
28019SOL    HW285826   2.585   7.482   5.374  0.4710 -0.8002 -0.0592
28020SOL     OW85827   3.054   7.910   0.943 -0.3867 -0.0472  0.3701
28020SOL    HW185828   3.063   7.998   0.979 -0.3712 -0.1027  0.5005
28020SOL    HW285829   3.020   7.924   0.854  0.8154  0.1639 -0.0856
28021SOL     OW85830   1.458   7.932   5.000 -0.2357  0.2630 -0.6931
28021SOL    HW185831   1.523   7.942   4.930 -0.0070  1.8384 -0.2968
28021SOL    HW285832   1.461   7.840   5.023  3.3256  0.5811  0.6710
28022SOL     OW85833   3.386   8.655   9.560 -0.5260 -0.1505  0.0285
28022SOL    HW185834   3.452   8.715   9.593  1.0186 -0.1979 -2.6497
28022SOL    HW285835   3.313   8.663   9.621  0.3569  2.9887  0.8302
28023SOL     OW85836   1.057   5.119   4.879 -0.9116 -0.3877 -0.0850
28023SOL    HW185837   1.073   5.114   4.785  1.1591  2.1011  0.0028
28023SOL    HW285838   1.096   5.040   4.915 -0.2357 -0.5679 -1.1824
28024SOL     OW85839   5.285   3.515   6.210 -0.2513  0.1914 -0.0736
28024SOL    HW185840   5.354   3.504   6.274  0.7875 -0.9369 -1.3236
28024SOL    HW285841   5.296   3.604   6.177 -0.6379  0.6874  1.1061
28025SOL     OW85842   6.308   6.529   4.756  0.1182 -0.0736 -0.5333
28025SOL    HW185843   6.228   6.482   4.732  0.1922  0.0729 -1.0790
28025SOL    HW285844   6.379   6.471   4.729  0.2131  0.4130 -1.3810
28026SOL     OW85845   2.111   4.769   2.321  0.3497 -0.0687 -0.9779
28026SOL    HW185846   2.120   4.842   2.383 -0.7965  0.7821 -1.7782
28026SOL    HW285847   2.082   4.810   2.240  1.6508 -1.1891 -2.0596
28027SOL     OW85848   0.100   7.315   5.948 -0.6547 -0.4486 -0.1708
28027SOL    HW185849   0.117   7.383   5.883  0.1366  0.6269  1.1149
28027SOL    HW285850   0.183   7.303   5.992 -0.8483 -2.1200 -0.2197
28028SOL     OW85851   8.087   7.730   7.407 -0.2664 -0.3564  0.0517
28028SOL    HW185852   8.171   7.767   7.435 -1.6285  2.7541  0.4645
28028SOL    HW285853   8.022   7.786   7.449 -2.6114 -2.9589  0.1419
28029SOL     OW85854   4.598   0.723   2.414 -0.2686  0.3372 -0.0382
28029SOL    HW185855   4.644   0.772   2.346  0.2715  0.2796  0.2840
28029SOL    HW285856   4.640   0.750   2.495 -0.2779 -0.3199  0.1870
28030SOL     OW85857   1.982   8.540   4.280 -0.2230 -0.0636  0.1086
28030SOL    HW185858   2.069   8.565   4.311 -0.6363 -1.6664  2.8796
28030SOL    HW285859   1.926   8.614   4.302 -0.0790 -0.2431  1.0903
28031SOL     OW85860   2.480   6.029   9.118  0.2832 -0.0242  0.4762
28031SOL    HW185861   2.495   5.935   9.107 -2.1730 -0.4062 -0.0757
28031SOL    HW285862   2.501   6.046   9.210 -0.1789 -1.3133  0.8437
28032SOL     OW85863   5.583   1.079   0.972 -0.1191  0.0690 -0.3658
28032SOL    HW185864   5.520   1.026   1.022 -0.3422  0.5080 -0.1724
28032SOL    HW285865   5.537   1.162   0.957  0.0492  0.0358 -1.0739
28033SOL     OW85866   1.690   4.883   5.889 -0.3250  0.3003  0.2580
28033SOL    HW185867   1.764   4.944   5.884  0.0526 -0.1936 -0.3334
28033SOL    HW285868   1.730   4.797   5.883 -0.9313  0.0182  0.2018
28034SOL     OW85869   1.841   9.535   1.172  0.3177  1.3422 -0.3090
28034SOL    HW185870   1.863   9.607   1.232 -0.9973  1.9987 -0.5716
28034SOL    HW285871   1.878   9.562   1.088  1.4764  0.7954  0.0133
28035SOL     OW85872   0.096   5.214   4.657  0.5350  0.5559 -0.2150
28035SOL    HW185873   0.126   5.127   4.684 -2.3484 -0.9311 -1.4562
28035SOL    HW285874   0.059   5.253   4.737  0.2298 -0.0906 -0.0375
28036SOL     OW85875   9.216   3.460   3.892  0.4908 -0.5155 -0.3478
28036SOL    HW185876   9.278   3.486   3.824  1.5523 -0.9856  0.4224
28036SOL    HW285877   9.182   3.542   3.927  1.8438 -0.2034  0.2777
28037SOL     OW85878   1.949   6.769   5.465  0.3054 -0.6760 -0.1529
28037SOL    HW185879   1.961   6.794   5.557 -0.3113 -1.5880  0.1902
28037SOL    HW285880   1.870   6.715   5.465  1.1015 -1.8939 -0.9832
28038SOL     OW85881   5.349   3.261   9.617 -0.8284 -0.0789 -0.0192
28038SOL    HW185882   5.424   3.250   9.558 -0.5527 -0.6486  0.4238
28038SOL    HW285883   5.319   3.351   9.601  0.3307  0.3761  0.2356
28039SOL     OW85884   1.505   4.640   6.376 -0.6100 -0.5657  0.7140
28039SOL    HW185885   1.550   4.610   6.454 -1.3673 -1.0246  0.9838
28039SOL    HW285886   1.435   4.697   6.408 -1.4533 -1.4139  0.4532
28040SOL     OW85887   2.331   8.754   0.949 -0.6157  0.2164  0.9913
28040SOL    HW185888   2.334   8.848   0.966  0.6626  0.2280  0.7689
28040SOL    HW285889   2.417   8.722   0.975 -0.1840 -0.4900 -1.1271
28041SOL     OW85890   4.192   1.754   0.116 -0.4276 -0.0913  0.2242
28041SOL    HW185891   4.195   1.825   0.180  0.5642  1.6785 -1.6859
28041SOL    HW285892   4.259   1.692   0.146  0.2339  0.8588  0.7537
28042SOL     OW85893   1.719   0.482   3.810  0.0913 -0.7280  0.1081
28042SOL    HW185894   1.638   0.528   3.790 -0.8166 -1.4073  1.9837
28042SOL    HW285895   1.771   0.489   3.730 -0.9730  1.4631 -0.4707
28043SOL     OW85896   3.594   1.896   9.274  0.2606 -0.1357 -0.3050
28043SOL    HW185897   3.630   1.981   9.300  1.2195 -0.4293 -0.6226
28043SOL    HW285898   3.626   1.883   9.184 -1.8090  0.2179 -1.1591
28044SOL     OW85899   6.840   5.631   0.637 -0.2037 -0.4822  0.4867
28044SOL    HW185900   6.847   5.542   0.603 -0.6358 -0.2092 -0.3282
28044SOL    HW285901   6.797   5.621   0.722  0.7214 -1.1496  0.9006
28045SOL     OW85902   1.371   9.775   0.535 -0.0611 -0.1341  0.1381
28045SOL    HW185903   1.358   9.705   0.598  1.7680 -0.3224  0.3734
28045SOL    HW285904   1.378   9.731   0.450 -0.8874 -0.0324  0.0086
28046SOL     OW85905   1.737   5.518   1.484  0.3062 -0.2948 -0.7591
28046SOL    HW185906   1.811   5.561   1.526  0.6451 -0.6360 -0.9936
28046SOL    HW285907   1.754   5.526   1.391  0.8004 -1.6230 -0.8076
28047SOL     OW85908   0.570   3.980   7.428 -0.5530 -0.5296 -0.0907
28047SOL    HW185909   0.487   4.007   7.466  0.4540  0.1809  1.6777
28047SOL    HW285910   0.606   3.917   7.490  0.2506 -0.8254 -0.8318
28048SOL     OW85911   2.937   8.400   6.151  0.2756  0.7001 -0.2876
28048SOL    HW185912   2.922   8.433   6.239 -0.7905  0.3523 -0.3287
28048SOL    HW285913   2.981   8.473   6.106 -1.8941  2.0769 -0.3301
28049SOL     OW85914   8.528   8.668   0.480 -0.0931  0.2595  0.1799
28049SOL    HW185915   8.578   8.729   0.425 -0.3517 -0.4702 -0.9081
28049SOL    HW285916   8.594   8.621   0.530  0.1408  1.0572  0.6352
28050SOL     OW85917   3.796   4.901   3.736 -0.1292  0.2131  0.0084
28050SOL    HW185918   3.865   4.915   3.801  0.9734  0.4725 -1.1840
28050SOL    HW285919   3.715   4.907   3.786  0.5802  2.6947  0.9867
28051SOL     OW85920   1.205   4.899   4.940 -0.6275 -0.3965  0.1065
28051SOL    HW185921   1.298   4.921   4.946 -0.8544  1.2164 -1.5257
28051SOL    HW285922   1.188   4.847   5.019  1.0395  1.5361  1.8734
28052SOL     OW85923   5.832   5.774   8.420  0.8165 -0.1556 -0.1212
28052SOL    HW185924   5.838   5.681   8.399  1.5202 -0.3934  1.0169
28052SOL    HW285925   5.904   5.789   8.482  0.2789  0.9904  0.2502
28053SOL     OW85926   8.990   0.476   0.482 -0.2221 -0.0892 -0.0108
28053SOL    HW185927   9.061   0.477   0.417 -1.5613 -0.2229 -1.5326
28053SOL    HW285928   9.035   0.488   0.566  1.5496  0.3613 -0.9604
28054SOL     OW85929   1.774   1.145   5.830 -0.3327 -0.0456 -0.0487
28054SOL    HW185930   1.762   1.177   5.741  1.4339 -3.0233 -1.4953
28054SOL    HW285931   1.869   1.149   5.844 -0.6719  1.6789  2.3062
28055SOL     OW85932   4.826   7.639   6.090 -0.2258 -0.0985 -0.0380
28055SOL    HW185933   4.764   7.712   6.095 -0.7020 -0.5760  1.7632
28055SOL    HW285934   4.854   7.638   5.999 -1.8224  0.9983 -0.5901
28056SOL     OW85935   7.914   9.287   4.000  0.9633  0.7171  0.0973
28056SOL    HW185936   7.890   9.249   4.084 -1.9851 -0.3433 -1.1044
28056SOL    HW285937   7.973   9.359   4.022  1.5983 -0.5424  2.8993
28057SOL     OW85938   8.196   6.910   1.334 -0.0086 -0.1884  0.1099
28057SOL    HW185939   8.233   6.823   1.349 -1.0897 -0.5891  0.5506
28057SOL    HW285940   8.149   6.931   1.415 -0.7133  0.3111 -0.4108
28058SOL     OW85941   7.332   8.227   8.402 -0.6753  0.1431  0.2891
28058SOL    HW185942   7.417   8.193   8.374 -0.1553  0.2865  1.6280
28058SOL    HW285943   7.353   8.301   8.458 -1.6173 -0.7846  1.9461
28059SOL     OW85944   3.996   8.704   5.406 -0.3504  0.0279 -0.4646
28059SOL    HW185945   4.065   8.637   5.406 -0.1729  0.2004 -1.0792
28059SOL    HW285946   4.009   8.751   5.323 -0.3497  0.9531  0.0453
28060SOL     OW85947   7.557   1.259   6.963  0.5650  0.1789 -0.1129
28060SOL    HW185948   7.637   1.210   6.984  0.8352  1.2144  1.4376
28060SOL    HW285949   7.555   1.330   7.027 -1.3518  0.4744 -0.4469
28061SOL     OW85950   7.747   9.578   2.376  0.1111  0.0274 -0.0575
28061SOL    HW185951   7.743   9.644   2.306  0.0779 -1.3165 -1.3607
28061SOL    HW285952   7.825   9.527   2.356  0.2432 -0.2296  1.0561
28062SOL     OW85953   3.692   0.704   6.569 -0.1468  0.0042  0.1496
28062SOL    HW185954   3.756   0.776   6.568 -0.9005  0.8987  3.2836
28062SOL    HW285955   3.622   0.734   6.511  0.6113  0.7143 -0.4302
28063SOL     OW85956   4.575   6.463   5.450 -0.6610  0.5609  1.0557
28063SOL    HW185957   4.502   6.503   5.498 -0.7585  0.5430  0.9208
28063SOL    HW285958   4.604   6.531   5.390 -1.6624  0.0054 -0.0975
28064SOL     OW85959   8.298   5.100   5.603 -0.3361  0.2485  0.6681
28064SOL    HW185960   8.255   5.018   5.627 -1.0224  0.5030  0.3304
28064SOL    HW285961   8.229   5.154   5.565  0.6237 -0.0444 -1.6713
28065SOL     OW85962   5.047   7.220   7.650 -0.0943  0.4174 -0.0109
28065SOL    HW185963   4.977   7.244   7.711  0.6661  1.6789  0.3866
28065SOL    HW285964   5.088   7.303   7.626  2.1401 -0.3692  0.8192
28066SOL     OW85965   4.263   4.620   1.404  0.1631  0.4816 -0.5659
28066SOL    HW185966   4.272   4.696   1.347  1.3381 -0.3911 -1.6019
28066SOL    HW285967   4.254   4.657   1.492  1.9851  1.8259 -0.8768
28067SOL     OW85968   2.932   4.431   0.436 -0.2353 -0.2112  0.6330
28067SOL    HW185969   2.986   4.452   0.360 -0.8333  0.3708  0.3646
28067SOL    HW285970   2.988   4.375   0.491  0.0923 -0.8926 -0.3771
28068SOL     OW85971   3.076   0.767   3.440 -0.0299 -0.0546 -0.1272
28068SOL    HW185972   2.985   0.763   3.470  0.0854 -0.3062  0.1989
28068SOL    HW285973   3.091   0.683   3.397  0.2757 -0.3232  0.4947
28069SOL     OW85974   2.502   5.686   5.360 -0.5469 -0.4739  0.0372
28069SOL    HW185975   2.505   5.596   5.391  2.6756 -1.5152 -2.6206
28069SOL    HW285976   2.556   5.735   5.423 -0.2391 -0.9560  0.1570
28070SOL     OW85977   6.112   0.907   3.253 -0.1711 -0.0825 -0.0191
28070SOL    HW185978   6.201   0.880   3.276 -0.5924 -0.3677  1.3541
28070SOL    HW285979   6.099   0.989   3.299 -0.6066 -0.0222 -0.2451
28071SOL     OW85980   2.453   1.129   8.596  0.4812  0.2533 -0.5288
28071SOL    HW185981   2.447   1.182   8.676 -0.2181  2.1398 -1.7484
28071SOL    HW285982   2.524   1.171   8.546  0.0938 -0.1289 -1.4133
28072SOL     OW85983   8.459   2.796   1.548 -0.1657  0.6420 -0.5673
28072SOL    HW185984   8.480   2.763   1.635  3.2336  0.3993 -1.3471
28072SOL    HW285985   8.424   2.720   1.501  0.5879  0.0538 -0.1867
28073SOL     OW85986   3.327   9.338   7.776 -0.3251  0.2198 -0.7894
28073SOL    HW185987   3.421   9.354   7.763  0.1001 -1.4679 -0.0148
28073SOL    HW285988   3.310   9.371   7.864 -0.1188 -0.7491 -0.3727
28074SOL     OW85989   7.260   4.902   5.395 -0.0927  0.7678  0.2051
28074SOL    HW185990   7.182   4.931   5.442 -0.8624 -0.2935 -0.3676
28074SOL    HW285991   7.229   4.829   5.341  1.2391  0.5237 -0.2566
28075SOL     OW85992   5.793   8.580   0.501  0.6698 -0.6642  0.4642
28075SOL    HW185993   5.799   8.655   0.560  0.3214 -0.4835  0.2726
28075SOL    HW285994   5.874   8.531   0.516  0.8503 -0.3053  0.6633
28076SOL     OW85995   6.837   6.816   4.429 -0.6086  0.8060 -0.3321
28076SOL    HW185996   6.847   6.911   4.433  0.2538  0.7366 -0.5362
28076SOL    HW285997   6.909   6.787   4.372 -0.2223 -0.0538  0.5663
28077SOL     OW85998   9.669   7.554   1.016  0.4801 -0.3970  0.7131
28077SOL    HW185999   9.634   7.465   1.019 -0.1219 -0.1379  1.8938
28077SOL    HW286000   9.732   7.552   0.944 -0.3653 -1.4598 -0.0414
28078SOL     OW86001   1.368   6.318   7.833 -0.9590  0.1987 -0.3500
28078SOL    HW186002   1.356   6.379   7.760  0.3659  0.8511 -0.0547
28078SOL    HW286003   1.367   6.373   7.911  3.4734  0.4782 -0.2278
28079SOL     OW86004   4.751   1.196   5.202  0.2759  0.0661 -0.4484
28079SOL    HW186005   4.733   1.186   5.109 -1.8561  1.9356 -0.3056
28079SOL    HW286006   4.750   1.290   5.217 -3.1476 -0.1593  2.0102
28080SOL     OW86007   7.067   5.386   8.002  0.5533  0.3405 -0.2713
28080SOL    HW186008   7.136   5.321   8.021 -0.6020 -1.3212 -1.4445
28080SOL    HW286009   7.051   5.376   7.908 -0.1660  1.8616 -0.3220
28081SOL     OW86010   9.315   0.450   5.892  0.3507  0.7231  0.2043
28081SOL    HW186011   9.324   0.545   5.888 -0.7266  0.8706  0.9888
28081SOL    HW286012   9.255   0.434   5.965  0.7243 -0.5761  0.2586
28082SOL     OW86013   7.427   0.074   0.338 -0.1238  0.2448 -0.3003
28082SOL    HW186014   7.364   0.067   0.410  0.8843  0.2540  0.6144
28082SOL    HW286015   7.379   0.046   0.260 -0.5107 -2.3726  0.7866
28083SOL     OW86016   5.106   6.800   0.548  0.5001  0.0050 -0.2156
28083SOL    HW186017   5.084   6.749   0.470 -0.3822  0.1569 -0.0862
28083SOL    HW286018   5.193   6.770   0.573 -0.6509 -2.7787  0.9043
28084SOL     OW86019   9.598   2.193   0.337  0.1501 -0.8209  0.2728
28084SOL    HW186020   9.593   2.261   0.270  0.1465 -0.2668  0.8304
28084SOL    HW286021   9.690   2.164   0.335  1.2448  1.9744  2.6988
28085SOL     OW86022   3.181   0.688   7.898 -0.1950 -0.1694  0.3538
28085SOL    HW186023   3.091   0.705   7.871 -0.2539  0.5578  0.9570
28085SOL    HW286024   3.225   0.773   7.891  0.5839 -0.6290 -0.4359
28086SOL     OW86025   7.905   2.363   7.160 -0.5625  0.2106  0.0795
28086SOL    HW186026   7.884   2.392   7.072  1.0486  0.3723 -0.2876
28086SOL    HW286027   7.992   2.399   7.177  0.9190 -3.0447  0.1881
28087SOL     OW86028   5.559   2.726   2.676  0.2147 -0.1154 -0.2928
28087SOL    HW186029   5.647   2.748   2.644  0.5684  1.1929  1.4452
28087SOL    HW286030   5.502   2.740   2.600  1.3803 -0.0855 -1.1961
28088SOL     OW86031   0.763   8.946   3.144 -0.0014 -0.0938  0.1091
28088SOL    HW186032   0.853   8.914   3.148 -0.1502 -0.6983 -0.9268
28088SOL    HW286033   0.710   8.873   3.175 -0.1517  0.2064  0.5691
28089SOL     OW86034   0.425   4.854   1.184  0.0551 -0.2203 -0.1193
28089SOL    HW186035   0.342   4.876   1.142 -0.6272  1.6695  1.9845
28089SOL    HW286036   0.491   4.906   1.138 -0.1866 -0.4968 -0.7794
28090SOL     OW86037   1.554   5.640   7.850 -0.5171 -0.3509  0.9130
28090SOL    HW186038   1.592   5.552   7.844 -0.1916 -0.2860  1.7995
28090SOL    HW286039   1.568   5.665   7.941  0.8613  1.2714  0.3066
28091SOL     OW86040   3.999   8.763   4.431 -0.3884 -0.7532  0.1519
28091SOL    HW186041   4.065   8.777   4.499 -0.1071 -0.6585 -0.1364
28091SOL    HW286042   4.038   8.698   4.373 -1.6647 -2.7635  1.4427
28092SOL     OW86043   6.651   3.339   7.273  0.6634 -0.0651  0.2146
28092SOL    HW186044   6.739   3.327   7.309  1.9033 -0.6040 -2.7421
28092SOL    HW286045   6.617   3.251   7.263 -0.3280  0.1477  1.4702
28093SOL     OW86046   4.433   8.166   8.024 -1.0171  0.1180 -0.0575
28093SOL    HW186047   4.347   8.203   8.045 -0.3950  2.3752 -1.1451
28093SOL    HW286048   4.489   8.243   8.010  1.0688 -1.2904  0.1719
28094SOL     OW86049   7.121   0.243   0.157 -0.3112 -0.1611  0.2398
28094SOL    HW186050   7.036   0.248   0.200 -1.1526 -0.6267 -1.2705
28094SOL    HW286051   7.123   0.155   0.118 -0.3893  0.7922 -2.1116
28095SOL     OW86052   3.713   5.238   1.993 -0.0852 -0.0968  0.1742
28095SOL    HW186053   3.790   5.189   1.965  0.1229 -0.5725  1.5175
28095SOL    HW286054   3.744   5.328   2.004  0.0214 -0.0717 -0.3302
28096SOL     OW86055   6.053   2.250   8.112 -0.5108  0.4363 -0.2240
28096SOL    HW186056   6.058   2.318   8.180 -3.5470  0.3807  0.1881
28096SOL    HW286057   6.032   2.298   8.032 -3.8075  0.0355  0.2781
28097SOL     OW86058   1.133   8.819   2.012  0.2336 -0.2966  0.2530
28097SOL    HW186059   1.160   8.783   2.096  2.2511 -0.2931 -0.3551
28097SOL    HW286060   1.214   8.832   1.963 -0.9701 -2.0910 -2.4645
28098SOL     OW86061   0.102   4.567   5.189  0.2604 -0.2071  0.3816
28098SOL    HW186062   0.058   4.560   5.273  1.8523 -2.7269  1.1211
28098SOL    HW286063   0.046   4.519   5.128  0.4021 -0.6552  0.6021
28099SOL     OW86064   0.951   1.402   7.455  0.3168 -0.3812 -0.1934
28099SOL    HW186065   0.940   1.457   7.532 -0.2247 -2.2689  1.1599
28099SOL    HW286066   0.942   1.462   7.381 -0.0217  1.3535  1.1815
28100SOL     OW86067   8.834   0.718   4.390 -0.5214  0.1754  0.1511
28100SOL    HW186068   8.799   0.697   4.304  0.1046 -1.7472  0.3308
28100SOL    HW286069   8.929   0.714   4.379 -0.3904  1.5095  0.5807
28101SOL     OW86070   5.327   8.339   8.483 -0.3451  0.1338 -0.2146
28101SOL    HW186071   5.250   8.296   8.520 -0.5331 -0.8351 -1.6623
28101SOL    HW286072   5.312   8.432   8.498 -1.0871 -0.1343  0.8131
28102SOL     OW86073   7.012   4.410   4.027  0.3528 -0.2193 -0.1409
28102SOL    HW186074   7.092   4.358   4.040 -0.8077 -2.7084 -2.0572
28102SOL    HW286075   7.037   4.477   3.963  0.6053 -2.0421 -2.0774
28103SOL     OW86076   1.990   4.599   3.069 -0.1597  0.2796  0.0389
28103SOL    HW186077   1.981   4.662   3.140  2.2359  2.0565 -1.0955
28103SOL    HW286078   1.936   4.634   2.998 -0.5092 -0.1036  0.1126
28104SOL     OW86079   6.525   4.949   7.578 -0.1187 -0.0321  0.0807
28104SOL    HW186080   6.523   4.856   7.600  1.6728 -0.1017  0.1258
28104SOL    HW286081   6.447   4.985   7.619 -1.5439 -1.7208 -1.0194
28105SOL     OW86082   9.206   5.610   4.444 -0.1042  0.2953 -0.0207
28105SOL    HW186083   9.167   5.668   4.510 -1.6144 -3.1575  2.4351
28105SOL    HW286084   9.150   5.622   4.366 -2.0262  0.3061  1.2817
28106SOL     OW86085   1.597   5.965   5.536 -0.2641  0.3163 -0.2196
28106SOL    HW186086   1.666   5.900   5.547  0.4259  1.2861  1.5756
28106SOL    HW286087   1.517   5.919   5.560  0.0760 -0.1501  0.0423
28107SOL     OW86088   3.237   8.764   0.516 -0.4013  0.0475  0.0245
28107SOL    HW186089   3.296   8.732   0.448 -1.1001 -0.3971 -0.3884
28107SOL    HW286090   3.294   8.790   0.588  0.2415 -1.2266 -0.0004
28108SOL     OW86091   0.333   1.270   2.795 -0.2516 -0.1511 -0.9332
28108SOL    HW186092   0.290   1.343   2.749  1.5831  1.6319  0.0067
28108SOL    HW286093   0.391   1.232   2.730 -0.7025 -0.3475 -1.2293
28109SOL     OW86094   0.799   1.820   0.919  0.3929 -0.3111 -0.1696
28109SOL    HW186095   0.752   1.854   0.996 -2.4417 -1.0385 -1.4192
28109SOL    HW286096   0.891   1.820   0.945 -0.3602  0.0714  2.9883
28110SOL     OW86097   4.198   7.050   1.897 -0.1848  0.1289 -0.7593
28110SOL    HW186098   4.247   7.132   1.896  0.9280 -0.4726  0.6459
28110SOL    HW286099   4.212   7.012   1.810  1.1741  0.3705 -0.6648
28111SOL     OW86100   2.525   8.203   5.213 -0.0331  0.1873  0.1335
28111SOL    HW186101   2.568   8.179   5.131 -0.1500  1.0520 -0.1865
28111SOL    HW286102   2.561   8.141   5.277  0.6336 -0.0051 -0.4087
28112SOL     OW86103   4.430   9.423   9.496  0.2106 -0.0196  0.1796
28112SOL    HW186104   4.445   9.402   9.404 -0.2047 -1.5351  0.4144
28112SOL    HW286105   4.358   9.485   9.495  2.0447  2.2372 -0.6187
28113SOL     OW86106   8.061   1.463   6.406 -0.0989  0.3414  0.2589
28113SOL    HW186107   8.041   1.548   6.368  0.0329 -0.2313 -1.1772
28113SOL    HW286108   8.085   1.481   6.496  1.0233  1.9491 -0.3291
28114SOL     OW86109   6.303   8.829   0.709  0.3781  0.0151 -0.6182
28114SOL    HW186110   6.249   8.908   0.715 -1.3800 -0.9749 -2.0648
28114SOL    HW286111   6.315   8.816   0.615 -0.4414 -2.0816 -0.4832
28115SOL     OW86112   2.795   0.873   8.330  0.0620  0.3239  0.2178
28115SOL    HW186113   2.789   0.781   8.355 -2.1520  0.6640  1.2204
28115SOL    HW286114   2.707   0.907   8.344  0.5083  2.3156 -1.3334
28116SOL     OW86115   1.191   9.271   5.889 -0.2877  0.0375 -0.1529
28116SOL    HW186116   1.231   9.212   5.954  0.1037  0.1425 -0.2948
28116SOL    HW286117   1.103   9.287   5.922 -0.5585 -0.9886 -0.3383
28117SOL     OW86118   2.021   3.162   0.795  0.5167  0.0399 -0.5235
28117SOL    HW186119   1.925   3.169   0.794  0.5235  1.7421  1.8067
28117SOL    HW286120   2.038   3.073   0.763 -1.8029 -0.1952 -1.3537
28118SOL     OW86121   2.393   9.713   0.332  0.0162 -0.1866  0.0827
28118SOL    HW186122   2.415   9.700   0.239 -1.6154  0.4395 -0.4317
28118SOL    HW286123   2.429   9.799   0.353  0.4044 -0.3372  0.0291
28119SOL     OW86124   6.122   1.207   0.326  0.2395  0.2779  0.1742
28119SOL    HW186125   6.176   1.221   0.404 -0.1594 -1.9973  0.9622
28119SOL    HW286126   6.042   1.166   0.359 -1.3507  2.1334 -1.1382
28120SOL     OW86127   0.193   4.961   4.766  0.2885  0.2051 -0.3554
28120SOL    HW186128   0.216   4.920   4.849 -0.4070 -0.6907 -0.5904
28120SOL    HW286129   0.268   4.942   4.709  0.6979  0.6893  0.0124
28121SOL     OW86130   4.327   9.014   8.601  0.2142  0.0326  0.2823
28121SOL    HW186131   4.287   9.094   8.634  0.1259  0.5208 -0.9362
28121SOL    HW286132   4.399   8.996   8.661 -0.5320  0.3205  1.2851
28122SOL     OW86133   4.055   7.982   6.075  0.3347  0.3203 -0.2276
28122SOL    HW186134   4.148   8.002   6.085  0.1975  0.2673  1.5151
28122SOL    HW286135   4.041   7.903   6.128 -0.9191  1.0390  0.5748
28123SOL     OW86136   7.824   7.691   1.444  0.4368 -0.2258 -0.2452
28123SOL    HW186137   7.907   7.657   1.475  0.7574  0.5111 -0.2769
28123SOL    HW286138   7.767   7.690   1.521  0.0730 -1.8951 -0.4950
28124SOL     OW86139   6.849   6.984   2.031 -0.0275  0.7126 -0.2734
28124SOL    HW186140   6.797   6.968   2.110 -1.2702  0.4898 -1.1123
28124SOL    HW286141   6.822   7.071   2.002  0.1410  0.6326 -0.6720
28125SOL     OW86142   9.754   7.066   0.462  0.1868  0.4583 -0.2731
28125SOL    HW186143   9.768   7.152   0.502  2.0111  0.1254 -0.0881
28125SOL    HW286144   9.695   7.083   0.389  1.4223  2.1005 -0.9614
28126SOL     OW86145   0.213   2.049   5.371 -0.0608 -0.1382  0.3377
28126SOL    HW186146   0.249   2.036   5.283  0.7971  0.0737  0.6438
28126SOL    HW286147   0.265   2.121   5.408 -0.9882  0.3561  0.7103
28127SOL     OW86148   1.306   1.594   3.353  1.0951  0.0472  0.6620
28127SOL    HW186149   1.346   1.621   3.271 -0.7966  2.4699  0.4129
28127SOL    HW286150   1.246   1.665   3.375 -0.5815 -1.8299  2.6734
28128SOL     OW86151   5.450   8.694   6.679  0.9668  0.0159 -0.5144
28128SOL    HW186152   5.477   8.685   6.588  0.6544  0.3113 -0.6372
28128SOL    HW286153   5.466   8.786   6.700 -0.9617  0.4927 -0.9296
28129SOL     OW86154   8.940   1.624   9.821  0.0188  0.2559 -0.3322
28129SOL    HW186155   8.901   1.711   9.807  0.5882  0.4934 -0.4806
28129SOL    HW286156   8.948   1.587   9.733 -0.6059 -0.1265 -0.2381
28130SOL     OW86157   3.901   0.961   1.680  0.5514 -0.3677 -0.5619
28130SOL    HW186158   3.862   1.040   1.642  0.7349 -0.5054 -1.0332
28130SOL    HW286159   3.996   0.976   1.676  0.6090  0.9220  2.5338
28131SOL     OW86160   6.939   7.917   8.404 -0.7708 -0.3056  0.0861
28131SOL    HW186161   6.899   7.993   8.447 -1.8313 -0.5795 -0.3781
28131SOL    HW286162   7.032   7.923   8.425 -1.1098  0.1165  1.5803
28132SOL     OW86163   4.697   2.094   0.226 -0.2658 -0.3148 -0.0313
28132SOL    HW186164   4.704   2.173   0.279 -1.2762 -0.3792  0.2290
28132SOL    HW286165   4.728   2.023   0.282  0.3365 -0.1536 -0.1543
28133SOL     OW86166   0.097   2.738   5.058 -0.0251  0.5429  0.0168
28133SOL    HW186167   0.163   2.670   5.050 -0.9350 -0.2128 -1.5280
28133SOL    HW286168   0.106   2.790   4.979 -1.6667  0.0324 -0.5459
28134SOL     OW86169   9.727   7.920   4.960  0.8308 -0.1777  0.0992
28134SOL    HW186170   9.672   7.860   5.010  3.1979 -0.3703  2.6812
28134SOL    HW286171   9.741   7.995   5.019 -1.5991  2.8779 -2.7895
28135SOL     OW86172   5.631   4.513   2.910 -0.6792 -0.1435 -0.4972
28135SOL    HW186173   5.633   4.605   2.937  1.8885 -0.0808 -0.6689
28135SOL    HW286174   5.586   4.468   2.982  1.2144  0.7787  1.3677
28136SOL     OW86175   5.051   6.806   4.609 -0.6946  0.3440  0.2115
28136SOL    HW186176   5.078   6.721   4.575  2.1555  1.3805 -0.4452
28136SOL    HW286177   5.079   6.805   4.701  1.7780  1.3953 -0.4503
28137SOL     OW86178   6.989   9.079   1.163  0.2278  0.2774 -0.1349
28137SOL    HW186179   7.004   9.129   1.244 -1.1234 -0.6797  0.7606
28137SOL    HW286180   6.953   8.995   1.193  1.8867 -1.0497 -1.6190
28138SOL     OW86181   6.187   6.062   7.326  0.0056 -0.0174 -0.4972
28138SOL    HW186182   6.124   6.101   7.266  0.5590  0.4421 -0.7918
28138SOL    HW286183   6.241   6.005   7.270 -0.9888 -1.4981 -0.0286
28139SOL     OW86184   2.135   1.760   2.391 -0.5918 -0.0665  0.2226
28139SOL    HW186185   2.116   1.852   2.376  0.4850  0.4178  1.6441
28139SOL    HW286186   2.227   1.749   2.368 -0.5877 -0.6835  0.4892
28140SOL     OW86187   0.404   6.533   7.149  0.0617 -1.0924 -0.1230
28140SOL    HW186188   0.382   6.579   7.067 -1.9221  1.0337  1.4646
28140SOL    HW286189   0.423   6.444   7.121 -1.7574 -0.7882 -2.8155
28141SOL     OW86190   1.631   2.022   2.898  0.5550  0.8102 -0.3737
28141SOL    HW186191   1.652   2.046   2.988  0.6823  0.5017 -0.3172
28141SOL    HW286192   1.557   2.078   2.874 -1.4860 -1.1230  0.9503
28142SOL     OW86193   5.134   6.027   9.344  0.3314  0.4659  0.2048
28142SOL    HW186194   5.045   6.054   9.366 -0.2657 -0.7099 -0.6266
28142SOL    HW286195   5.160   5.968   9.415 -0.8729 -1.8294 -1.1326
28143SOL     OW86196   6.547   1.909   2.729 -0.0184  0.0360 -0.7065
28143SOL    HW186197   6.594   1.889   2.809 -1.6107 -1.6113 -0.1146
28143SOL    HW286198   6.573   1.999   2.707 -0.3527  0.9500  2.2529
28144SOL     OW86199   1.990   8.465   1.524 -0.0130 -0.2436  0.3314
28144SOL    HW186200   1.925   8.509   1.578  1.2108  1.1923  0.6897
28144SOL    HW286201   1.942   8.392   1.484 -2.0094  1.1250  0.0593
28145SOL     OW86202   1.294   9.699   1.430 -0.3072 -0.0934 -0.3147
28145SOL    HW186203   1.201   9.692   1.408 -0.6388 -3.2396  1.5004
28145SOL    HW286204   1.339   9.684   1.346 -1.5151 -2.7900 -0.5885
28146SOL     OW86205   2.812   2.242   8.538 -0.2635  0.0223  0.3357
28146SOL    HW186206   2.724   2.235   8.501  0.3041 -0.3378 -1.0183
28146SOL    HW286207   2.799   2.244   8.633 -1.7281  0.1070  0.1478
28147SOL     OW86208   8.747   6.039   1.398  0.3517 -0.0710 -0.5471
28147SOL    HW186209   8.834   6.028   1.437 -0.1223 -0.9645  0.3094
28147SOL    HW286210   8.693   5.974   1.442 -1.1308  1.5094  0.0796
28148SOL     OW86211   7.374   2.582   3.390 -0.3953 -0.0382 -0.1490
28148SOL    HW186212   7.464   2.555   3.373 -0.9016  0.3915 -4.7618
28148SOL    HW286213   7.324   2.500   3.388 -0.2731 -0.2079  1.7905
28149SOL     OW86214   8.968   9.840   0.669 -0.7547 -0.0760  0.2619
28149SOL    HW186215   8.897   9.873   0.615  0.2979  0.0725 -1.0617
28149SOL    HW286216   9.034   9.910   0.668  0.3092 -1.0618 -0.2914
28150SOL     OW86217   2.428   7.323   5.531 -0.1753 -0.3752  0.1466
28150SOL    HW186218   2.356   7.386   5.527 -0.5317 -0.8389 -1.9986
28150SOL    HW286219   2.391   7.242   5.497  0.9551 -1.0577  0.5054
28151SOL     OW86220   2.412   6.823   0.551 -0.3589  0.1086 -0.0894
28151SOL    HW186221   2.483   6.864   0.501  0.9149 -1.7570  0.0789
28151SOL    HW286222   2.359   6.896   0.583 -0.1715  1.4509 -2.5986
28152SOL     OW86223   8.372   5.472   9.182  0.2862  0.1356 -0.4441
28152SOL    HW186224   8.318   5.523   9.242 -0.3081  0.4437 -1.2265
28152SOL    HW286225   8.435   5.535   9.147 -1.1602  0.6748 -2.2780
28153SOL     OW86226   5.410   5.939   2.922  0.2627  0.1608  0.4014
28153SOL    HW186227   5.412   5.856   2.969  0.7364 -1.7895 -2.7354
28153SOL    HW286228   5.501   5.969   2.922 -0.0795  1.4137  2.5309
28154SOL     OW86229   6.107   0.777   7.485  0.0523 -0.1911 -0.0821
28154SOL    HW186230   6.039   0.746   7.425 -0.2343  0.6584 -0.2095
28154SOL    HW286231   6.068   0.768   7.572  0.3498 -1.1242 -0.0352
28155SOL     OW86232   7.277   4.034   1.725 -0.0942 -0.0261  0.5384
28155SOL    HW186233   7.283   4.104   1.791  2.5942 -0.7792  1.1956
28155SOL    HW286234   7.292   3.953   1.774  2.5448 -0.5677 -0.9930
28156SOL     OW86235   7.858   9.629   5.871  0.6645  0.4591  0.1015
28156SOL    HW186236   7.901   9.546   5.891  0.5184 -0.5818 -3.1767
28156SOL    HW286237   7.923   9.679   5.822 -0.3271  0.7521 -0.9833
28157SOL     OW86238   9.496   4.549   3.735 -0.1066 -0.2848 -0.5921
28157SOL    HW186239   9.533   4.627   3.693  0.1439 -0.1002 -0.0312
28157SOL    HW286240   9.528   4.552   3.825 -0.7980 -0.5762 -0.3266
28158SOL     OW86241   1.652   5.978   7.718 -0.2996  0.0971  0.1382
28158SOL    HW186242   1.603   6.051   7.681  0.2139 -0.1763 -1.1533
28158SOL    HW286243   1.675   6.007   7.807  1.5654  2.3763 -0.9562
28159SOL     OW86244   6.714   3.042   2.258 -0.1995  0.5195  0.1350
28159SOL    HW186245   6.754   3.092   2.329 -0.4862  0.1185  0.5845
28159SOL    HW286246   6.767   3.063   2.181  0.0598  1.0260  0.4489
28160SOL     OW86247   4.927   9.584   0.511 -0.1914  0.2280  0.1273
28160SOL    HW186248   4.863   9.584   0.440  0.1565 -1.2891 -0.2284
28160SOL    HW286249   4.882   9.622   0.585 -0.5842  1.8133 -0.8794
28161SOL     OW86250   4.028   4.073   5.850 -0.1387 -0.0498 -0.2137
28161SOL    HW186251   3.933   4.074   5.860 -0.1405 -1.9167  0.2937
28161SOL    HW286252   4.043   4.029   5.767  0.2994  0.5241 -0.4519
28162SOL     OW86253   4.002   4.133   0.505  0.4866  0.3539  0.1308
28162SOL    HW186254   4.086   4.128   0.550 -0.3136 -0.2591  1.6136
28162SOL    HW286255   3.940   4.162   0.572 -0.6656 -0.1912 -0.6638
28163SOL     OW86256   3.170   9.318   3.638 -0.2193 -0.0755 -0.0615
28163SOL    HW186257   3.115   9.329   3.715 -1.1010  0.1919 -0.7076
28163SOL    HW286258   3.250   9.365   3.659 -0.7257  0.5925  0.4170
28164SOL     OW86259   7.118   7.644   5.263 -0.2373 -0.0816 -0.2893
28164SOL    HW186260   7.177   7.587   5.214  1.1901  0.5385  0.6159
28164SOL    HW286261   7.127   7.615   5.354  2.7213  3.1863  0.6909
28165SOL     OW86262   4.512   3.800   2.513 -0.2787 -0.5103 -0.1542
28165SOL    HW186263   4.470   3.883   2.492 -1.4103 -1.3112 -1.1983
28165SOL    HW286264   4.439   3.740   2.532  0.4893 -1.3854  0.1192
28166SOL     OW86265   8.934   1.435   7.555  0.6061 -0.1449  0.1847
28166SOL    HW186266   8.903   1.411   7.468  0.0589  1.7112 -0.1678
28166SOL    HW286267   8.872   1.394   7.615  1.7368 -2.5684 -0.1720
28167SOL     OW86268   6.327   4.111   0.768 -0.0924  0.2658 -0.5998
28167SOL    HW186269   6.308   4.190   0.717  1.1864  1.4586  0.6904
28167SOL    HW286270   6.256   4.051   0.746 -0.6368  1.4483 -2.2680
28168SOL     OW86271   0.768   4.088   5.542 -0.3584 -0.0695 -0.3533
28168SOL    HW186272   0.861   4.097   5.564  0.0228 -1.9986 -1.0449
28168SOL    HW286273   0.736   4.178   5.540  1.6191  0.6842 -0.6397
28169SOL     OW86274   1.314   3.025   4.754 -0.0983 -0.7631  0.5803
28169SOL    HW186275   1.221   3.008   4.769 -0.7215  1.0561 -0.8791
28169SOL    HW286276   1.316   3.076   4.673  2.1705 -0.5774  0.7043
28170SOL     OW86277   8.162   3.343   0.260 -0.1848 -0.4632 -0.5614
28170SOL    HW186278   8.141   3.379   0.174  0.1360 -0.4921 -0.6507
28170SOL    HW286279   8.241   3.291   0.246 -0.3093 -0.7240 -0.3127
28171SOL     OW86280   7.525   4.510   2.691 -0.0758  0.1385  0.1880
28171SOL    HW186281   7.523   4.565   2.613  2.4634  1.5721  1.0104
28171SOL    HW286282   7.601   4.453   2.678  0.3914  0.4054  1.5956
28172SOL     OW86283   0.876   0.627   4.839  0.9732  0.0993  0.2648
28172SOL    HW186284   0.814   0.659   4.775  1.1442 -1.0413 -0.4906
28172SOL    HW286285   0.827   0.625   4.922  0.2872  0.1078 -0.1366
28173SOL     OW86286   5.767   9.814   8.503 -0.3306 -0.1085  0.1119
28173SOL    HW186287   5.705   9.879   8.469  1.1207  1.0906 -0.3727
28173SOL    HW286288   5.791   9.761   8.428  0.5001  0.5256 -0.0817
28174SOL     OW86289   1.631   8.397   6.458 -0.2231 -0.0615  0.2645
28174SOL    HW186290   1.587   8.400   6.542 -0.5256  0.5759  0.0958
28174SOL    HW286291   1.648   8.304   6.442 -1.3833 -0.3118  0.3979
28175SOL     OW86292   7.236   0.604   9.546 -0.5205  0.2209 -0.0872
28175SOL    HW186293   7.268   0.694   9.536  1.0303 -0.5526 -3.3366
28175SOL    HW286294   7.152   0.614   9.592  0.6504  3.0607  1.6908
28176SOL     OW86295   1.258   6.033   1.218 -0.1843  0.3450  0.1188
28176SOL    HW186296   1.325   6.072   1.274  0.8960  4.1053 -3.2800
28176SOL    HW286297   1.304   5.966   1.169 -0.6124 -1.4314  1.9983
28177SOL     OW86298   2.372   7.753   6.472  0.4401 -0.1431 -0.1364
28177SOL    HW186299   2.410   7.841   6.465  0.2923 -0.1477 -1.1168
28177SOL    HW286300   2.418   7.713   6.547  0.2551  0.8814  0.5473
28178SOL     OW86301   6.707   6.766   7.676 -0.7277  0.4415  0.1020
28178SOL    HW186302   6.745   6.688   7.635  0.7307  0.7186  0.8450
28178SOL    HW286303   6.631   6.733   7.724 -0.2186 -0.5279  0.2838
28179SOL     OW86304   0.666   9.085   2.949 -0.2538 -0.0111  1.2212
28179SOL    HW186305   0.699   9.016   3.005 -1.2682 -1.0670  0.5705
28179SOL    HW286306   0.584   9.050   2.913 -0.4348  1.2451  0.3219
28180SOL     OW86307   5.551   7.885   1.530 -0.5161  0.1147 -0.4831
28180SOL    HW186308   5.483   7.948   1.554 -0.6578 -0.8833  2.1326
28180SOL    HW286309   5.606   7.880   1.608  2.3617  0.5362 -2.3399
28181SOL     OW86310   6.193   4.879   7.218  0.3986 -0.2296  0.1301
28181SOL    HW186311   6.156   4.946   7.160  1.1317  0.2028  0.1601
28181SOL    HW286312   6.156   4.898   7.304 -1.1958 -1.2523 -0.2833
28182SOL     OW86313   3.949   9.279   0.315  0.0877 -0.1902 -0.1722
28182SOL    HW186314   3.894   9.295   0.392  1.3017 -2.9055  1.4096
28182SOL    HW286315   3.962   9.366   0.277 -1.7549  1.0816  1.8202
28183SOL     OW86316   4.159   3.627   3.638 -0.2369 -0.0566 -0.2266
28183SOL    HW186317   4.151   3.546   3.587 -1.9491 -0.9689  1.3444
28183SOL    HW286318   4.068   3.651   3.658  0.3330 -0.0616  2.7881
28184SOL     OW86319   8.661   1.886   3.649  0.1962  0.2470 -0.5273
28184SOL    HW186320   8.609   1.909   3.725  1.9938  1.7931  0.3378
28184SOL    HW286321   8.698   1.801   3.669  0.8708  0.7603  0.4965
28185SOL     OW86322   0.964   8.853   4.287  0.1954 -0.5940  0.1162
28185SOL    HW186323   0.953   8.781   4.225  1.5051  0.1291 -1.0392
28185SOL    HW286324   1.030   8.822   4.349 -0.8655 -1.1928  0.9609
28186SOL     OW86325   9.652   8.963   7.398  0.6760  0.3304 -0.4400
28186SOL    HW186326   9.585   8.972   7.465  0.8214  0.2243 -0.2820
28186SOL    HW286327   9.660   8.869   7.383  2.9960  0.0774  1.7743
28187SOL     OW86328   5.751   9.645   4.362  0.5691 -0.1971 -0.1821
28187SOL    HW186329   5.831   9.672   4.406  0.1946  0.6910 -0.0372
28187SOL    HW286330   5.710   9.582   4.422 -0.2960  1.5241  1.1096
28188SOL     OW86331   3.807   7.578   6.187 -0.5977  0.1713  0.5947
28188SOL    HW186332   3.731   7.632   6.163  0.0908  0.1427 -1.8459
28188SOL    HW286333   3.770   7.492   6.205 -1.0721 -0.1679 -1.7560
28189SOL     OW86334   2.197   3.507   5.179 -0.2331 -0.0854 -0.1043
28189SOL    HW186335   2.292   3.508   5.192 -0.2911 -0.2236  0.3581
28189SOL    HW286336   2.174   3.600   5.168 -0.0446 -0.0503 -0.2055
28190SOL     OW86337   8.812   5.408   4.501  0.2015  0.7458  0.2731
28190SOL    HW186338   8.863   5.436   4.425  0.9947  0.2727  0.6250
28190SOL    HW286339   8.868   5.425   4.576  0.1619 -0.5009  0.6033
28191SOL     OW86340   5.153   2.979   6.955 -0.2628 -0.0925  0.2341
28191SOL    HW186341   5.061   2.960   6.937 -0.4122  0.9166 -0.1573
28191SOL    HW286342   5.202   2.923   6.895 -0.6331 -0.2680  0.0938
28192SOL     OW86343   4.751   7.524   8.266  0.2131 -0.0075 -0.4842
28192SOL    HW186344   4.832   7.570   8.286  0.9585 -0.5645 -2.0575
28192SOL    HW286345   4.686   7.593   8.253  0.6288  0.4702 -0.0463
28193SOL     OW86346   9.465   9.061   3.173 -0.0293  0.1347 -0.5310
28193SOL    HW186347   9.499   9.138   3.218 -0.5992 -0.2555  0.5988
28193SOL    HW286348   9.540   9.024   3.127  0.9747 -0.4395  1.5082
28194SOL     OW86349   3.479   6.764   1.562  0.0268  0.2075  0.5705
28194SOL    HW186350   3.467   6.771   1.657 -2.2406  0.3402  0.3412
28194SOL    HW286351   3.564   6.805   1.546  1.1105 -1.0429  2.6624
28195SOL     OW86352   3.430   2.300   0.272 -0.0629 -0.1935 -0.2432
28195SOL    HW186353   3.378   2.360   0.218 -2.4008  0.9581  2.9580
28195SOL    HW286354   3.384   2.216   0.265 -1.1051  0.2565  0.7766
28196SOL     OW86355   6.071   1.354   0.060  0.3586  0.4475  0.2829
28196SOL    HW186356   6.116   1.299   0.125 -2.4473 -1.0639  1.1159
28196SOL    HW286357   6.050   1.294  -0.011 -0.0285  1.1755 -0.2244
28197SOL     OW86358   8.475   5.005   0.693  0.4624 -0.4723  0.2862
28197SOL    HW186359   8.538   4.934   0.710  0.0004 -1.0759 -0.4673
28197SOL    HW286360   8.527   5.085   0.699  0.6798 -0.7121  2.8587
28198SOL     OW86361   0.118   6.033   7.061  0.2348  0.1781  0.0990
28198SOL    HW186362   0.200   6.082   7.062 -0.7495  2.0176 -1.4328
28198SOL    HW286363   0.128   5.970   6.990  1.6209 -2.2738  2.2673
28199SOL     OW86364   6.130   0.472   6.165 -0.0243 -0.2091  0.0979
28199SOL    HW186365   6.220   0.441   6.177 -0.6849 -1.8377  1.3872
28199SOL    HW286366   6.115   0.529   6.241  0.4844  1.6348 -1.1270
28200SOL     OW86367   9.100   0.612   2.251  0.0224  0.4329 -0.2792
28200SOL    HW186368   9.099   0.535   2.194 -1.0943 -0.3710  0.7563
28200SOL    HW286369   9.161   0.588   2.322 -2.6191 -0.8932  1.7330
28201SOL     OW86370   8.047   6.640   4.132  0.4722 -0.9716 -0.2526
28201SOL    HW186371   8.011   6.614   4.217  0.6698 -0.8368 -0.1268
28201SOL    HW286372   8.140   6.658   4.150  0.2176  0.4160 -0.2064
28202SOL     OW86373   3.151   0.844   4.921 -0.0625 -0.4401  0.4483
28202SOL    HW186374   3.072   0.876   4.964 -1.3304 -2.1493 -0.4995
28202SOL    HW286375   3.138   0.861   4.828 -0.0168 -2.0517  0.1157
28203SOL     OW86376   3.819   9.356   2.312  0.4883  0.4021 -0.0877
28203SOL    HW186377   3.725   9.358   2.331  0.4463  0.1896 -0.2718
28203SOL    HW286378   3.850   9.444   2.335  0.0508  0.8130 -1.0303
28204SOL     OW86379   0.021   1.818   4.537  0.2146 -0.3753  0.1459
28204SOL    HW186380  -0.043   1.889   4.543  0.6435 -0.0366  0.7404
28204SOL    HW286381   0.063   1.816   4.623  0.4781 -1.0910  0.0024
28205SOL     OW86382   2.374   4.763   7.386  0.0218 -0.3107  0.1893
28205SOL    HW186383   2.294   4.753   7.335  0.0160  0.6225 -0.0054
28205SOL    HW286384   2.445   4.744   7.325  0.0740  1.9567 -0.5597
28206SOL     OW86385   2.214   6.825   1.485  0.2996 -0.4164 -0.5564
28206SOL    HW186386   2.283   6.817   1.419 -0.2006 -0.8461 -1.0359
28206SOL    HW286387   2.145   6.876   1.442  0.7569  0.9658  0.2895
28207SOL     OW86388   7.151   6.803   6.757  0.0569  0.4329  0.3452
28207SOL    HW186389   7.232   6.787   6.709  0.0067 -0.5238  0.5581
28207SOL    HW286390   7.176   6.859   6.830  0.3792  0.7685 -0.0177
28208SOL     OW86391   0.768   6.872   2.843  0.0119 -0.0935 -0.3139
28208SOL    HW186392   0.781   6.946   2.903  1.2141  0.0744 -0.7386
28208SOL    HW286393   0.761   6.912   2.756 -0.4307 -0.4111 -0.4278
28209SOL     OW86394   9.645   7.979   9.168  0.6557 -0.2893  0.3483
28209SOL    HW186395   9.601   7.958   9.251 -0.9019 -2.0769 -0.8587
28209SOL    HW286396   9.738   7.972   9.190  0.3502  0.9231  2.3198
28210SOL     OW86397   3.780   0.456   6.518  0.5578 -0.4781  0.0252
28210SOL    HW186398   3.873   0.445   6.537  0.5873 -0.6433 -0.2062
28210SOL    HW286399   3.768   0.551   6.515  1.0517 -0.4281 -1.4555
28211SOL     OW86400   1.016   4.203   9.095 -0.1955 -0.3870 -0.7311
28211SOL    HW186401   1.034   4.263   9.167  0.3044 -1.5024  0.1065
28211SOL    HW286402   0.972   4.257   9.029  0.7979  1.0481 -0.2890
28212SOL     OW86403   2.750   7.958   1.766 -0.4387  0.5623  0.6533
28212SOL    HW186404   2.707   8.044   1.755 -0.4666  0.7701  2.1658
28212SOL    HW286405   2.823   7.975   1.825 -0.0851 -0.3604  0.4966
28213SOL     OW86406   3.529   2.821   2.737  0.0126  0.1332 -0.0374
28213SOL    HW186407   3.469   2.747   2.742  1.1793 -0.7803  1.5486
28213SOL    HW286408   3.475   2.895   2.707 -1.3883 -1.1187 -0.7069
28214SOL     OW86409   9.773   0.622   1.829  0.2586  0.3998 -0.6184
28214SOL    HW186410   9.695   0.648   1.878  0.2196  1.1981 -1.0967
28214SOL    HW286411   9.828   0.700   1.827  1.3292 -0.2876  0.1531
28215SOL     OW86412   4.549   7.991   3.295  0.6343  0.5376  0.2037
28215SOL    HW186413   4.564   7.904   3.258  0.3099  1.1851 -1.4974
28215SOL    HW286414   4.538   8.049   3.220  0.5106  2.0139  1.3009
28216SOL     OW86415   9.203   9.186   7.726 -0.2867  0.5095 -0.0374
28216SOL    HW186416   9.290   9.208   7.761  0.0781  0.6355 -0.9989
28216SOL    HW286417   9.143   9.204   7.798  0.2945  2.1200  0.0855
28217SOL     OW86418   1.210   8.939   8.233 -0.4159 -0.4107 -0.0975
28217SOL    HW186419   1.272   9.012   8.229  0.4265 -1.1226 -0.2814
28217SOL    HW286420   1.171   8.936   8.145 -0.6713  0.0046  0.0022
28218SOL     OW86421   8.732   3.391   1.859  0.2866  0.1120 -0.1448
28218SOL    HW186422   8.748   3.297   1.857  0.9976  0.2381 -0.4185
28218SOL    HW286423   8.817   3.430   1.878 -0.3784  0.6053  2.2282
28219SOL     OW86424   8.590   9.514   2.420 -0.2449  0.3692  0.5258
28219SOL    HW186425   8.544   9.564   2.488  1.1376  0.1588  1.6652
28219SOL    HW286426   8.681   9.512   2.449  0.5687  0.9812 -1.7854
28220SOL     OW86427   2.154   1.487   0.675  0.2380  0.4805  0.1918
28220SOL    HW186428   2.224   1.485   0.610 -1.0107 -0.0040 -1.1732
28220SOL    HW286429   2.121   1.397   0.677  1.4590 -0.0038  2.8874
28221SOL     OW86430   0.526   7.879   7.842  0.1163  0.6385  0.4449
28221SOL    HW186431   0.444   7.911   7.804  0.2782 -0.4452 -0.8945
28221SOL    HW286432   0.525   7.911   7.932 -1.6906  0.7929  0.4015
28222SOL     OW86433   2.195   3.912   0.066  0.1811 -0.0074  0.0664
28222SOL    HW186434   2.247   3.869   0.133  0.7741  0.8927  0.1924
28222SOL    HW286435   2.131   3.964   0.115 -1.6541 -2.0031 -0.0735
28223SOL     OW86436   3.453   2.740   5.695  0.1620  0.1857  0.0430
28223SOL    HW186437   3.416   2.788   5.621 -0.3517 -1.2023 -0.6388
28223SOL    HW286438   3.392   2.754   5.767 -0.8780 -0.7548 -0.6196
28224SOL     OW86439   5.241   5.609   7.036 -0.1115  0.0478 -0.1724
28224SOL    HW186440   5.222   5.516   7.025 -0.5577  0.3046 -2.0990
28224SOL    HW286441   5.255   5.640   6.946 -0.8026  1.9946  0.3481
28225SOL     OW86442   2.003   5.971   4.508  0.2550  0.1782  0.4963
28225SOL    HW186443   2.064   6.039   4.482 -0.0211  0.0388 -0.5541
28225SOL    HW286444   1.929   5.981   4.448  1.2577 -2.5914 -1.4103
28226SOL     OW86445   7.064   0.277   3.566  0.2963  0.0397  0.3823
28226SOL    HW186446   7.131   0.288   3.499  0.3093 -1.6247  0.0833
28226SOL    HW286447   6.986   0.249   3.517  0.3882 -1.4909  1.0531
28227SOL     OW86448   6.593   0.883   9.495 -0.0210  0.1007 -0.0640
28227SOL    HW186449   6.498   0.869   9.491 -0.2893  1.8177 -0.5925
28227SOL    HW286450   6.620   0.846   9.579 -0.7925 -2.2404 -0.7658
28228SOL     OW86451   2.525   6.924   6.042 -0.2784  0.4049  0.5276
28228SOL    HW186452   2.539   6.829   6.047 -0.1456  0.3640 -0.4440
28228SOL    HW286453   2.430   6.934   6.047 -0.2688  0.2523  1.0602
28229SOL     OW86454   6.745   9.441   9.441  0.2261 -0.2048  0.0785
28229SOL    HW186455   6.716   9.367   9.387 -1.2382  0.0959  0.4219
28229SOL    HW286456   6.743   9.516   9.382  0.2869 -0.1729  0.1159
28230SOL     OW86457   3.402   4.075   7.890 -0.2736  0.2133 -0.0364
28230SOL    HW186458   3.459   4.151   7.904  0.5529 -0.5890  1.1074
28230SOL    HW286459   3.461   4.000   7.895 -1.1520 -0.5378 -0.7433
28231SOL     OW86460   0.254   6.750   1.072 -0.6140  0.6889 -0.1191
28231SOL    HW186461   0.340   6.743   1.115 -0.4433 -0.8868 -0.6331
28231SOL    HW286462   0.261   6.828   1.017  0.9214 -0.0314 -1.0139
28232SOL     OW86463   8.299   1.794   6.285  0.2656 -0.5804  0.4648
28232SOL    HW186464   8.225   1.796   6.224  0.2779 -1.6894  0.3915
28232SOL    HW286465   8.310   1.701   6.305  1.4383 -0.3908  0.7244
28233SOL     OW86466   2.371   4.796   0.054  0.0865  0.4083 -0.6901
28233SOL    HW186467   2.338   4.763   0.137 -3.3117 -0.2397 -2.1473
28233SOL    HW286468   2.406   4.883   0.076 -0.1421  0.0217  1.4692
28234SOL     OW86469   3.593   4.090   0.433  0.1522 -0.2501  0.0244
28234SOL    HW186470   3.530   4.120   0.368  0.2687  0.1195  0.0816
28234SOL    HW286471   3.674   4.078   0.384  0.3073  0.2723  0.1433
28235SOL     OW86472   3.053   9.658   0.258 -0.1411 -0.3860 -0.6313
28235SOL    HW186473   3.015   9.598   0.323 -0.3223  0.0313 -0.3477
28235SOL    HW286474   3.088   9.730   0.310 -0.9651  0.3268 -1.0353
28236SOL     OW86475   2.977   5.080   0.188 -0.1073  0.0393  0.3146
28236SOL    HW186476   2.891   5.111   0.157  0.4310  0.4079 -0.8734
28236SOL    HW286477   2.985   4.991   0.153 -0.4190 -0.3770  1.2753
28237SOL     OW86478   1.214   6.470   8.870 -0.9971  0.3551  0.4218
28237SOL    HW186479   1.286   6.468   8.807 -0.7035  0.1055  0.7631
28237SOL    HW286480   1.231   6.546   8.924 -0.8859  0.1912  0.6205
28238SOL     OW86481   3.754   3.846   6.260 -0.7399  0.0081  0.1784
28238SOL    HW186482   3.771   3.904   6.334 -2.9242  1.0780 -0.0481
28238SOL    HW286483   3.772   3.900   6.183 -2.1695  0.2341 -0.0323
28239SOL     OW86484   3.149   3.549   4.382  0.0546  0.5980  0.3684
28239SOL    HW186485   3.108   3.560   4.296 -0.8578  1.2262  0.8596
28239SOL    HW286486   3.107   3.615   4.437 -0.3620 -0.6488  1.6304
28240SOL     OW86487   8.667   3.351   1.268 -0.0275 -0.1817  0.4310
28240SOL    HW186488   8.642   3.263   1.240 -0.6172 -0.1130  0.7364
28240SOL    HW286489   8.751   3.339   1.312  0.5350 -0.4055 -0.6488
28241SOL     OW86490   5.796   2.353   3.752  0.0167  0.3038  0.0103
28241SOL    HW186491   5.721   2.327   3.805  0.7908 -0.3318  0.8299
28241SOL    HW286492   5.798   2.448   3.758 -2.2587  0.6089 -2.2009
28242SOL     OW86493   4.586   2.518   8.990  0.4373 -0.5630 -0.5676
28242SOL    HW186494   4.525   2.459   8.947  0.6099 -0.9966 -0.2292
28242SOL    HW286495   4.531   2.578   9.040  0.2579 -0.3774 -0.9882
28243SOL     OW86496   8.975   6.365   7.311 -0.5016  0.0786 -0.5597
28243SOL    HW186497   8.963   6.313   7.232 -0.8776  0.9012 -1.0496
28243SOL    HW286498   8.920   6.321   7.377  0.4026 -1.0459 -0.5300
28244SOL     OW86499   8.476   9.756   1.317 -0.2730 -0.0016  0.0823
28244SOL    HW186500   8.468   9.713   1.232  2.0074  1.6618 -1.1132
28244SOL    HW286501   8.570   9.756   1.335 -0.6161  0.4792  2.2159
28245SOL     OW86502   8.484   7.002   4.125 -0.2710  0.0778  0.0076
28245SOL    HW186503   8.399   6.959   4.140 -0.2187 -0.2737 -0.6556
28245SOL    HW286504   8.542   6.930   4.099 -0.0118  0.4555 -0.4614
28246SOL     OW86505   7.488   1.956   1.287 -0.2800  0.4694  0.4739
28246SOL    HW186506   7.397   1.951   1.260 -0.2601  1.6539  0.1250
28246SOL    HW286507   7.513   1.865   1.306 -1.1882 -0.0139 -0.5391
28247SOL     OW86508   0.239   4.774   4.116 -0.2848  0.1139  0.0254
28247SOL    HW186509   0.333   4.793   4.120 -0.0788 -0.0319 -2.6242
28247SOL    HW286510   0.230   4.713   4.044 -2.2966 -1.0175  1.1614
28248SOL     OW86511   5.076   0.775   2.321 -0.5014 -0.0600  0.3080
28248SOL    HW186512   5.093   0.684   2.298  0.7806  0.4340 -0.7576
28248SOL    HW286513   5.101   0.782   2.414 -0.6759 -0.7964  0.4122
28249SOL     OW86514   0.843   7.999   3.895  0.6395  0.2001 -0.1763
28249SOL    HW186515   0.850   8.093   3.878 -0.7772  0.6273  1.3270
28249SOL    HW286516   0.900   7.985   3.971  0.1365  0.0250  0.1696
28250SOL     OW86517   4.305   0.210   9.500  0.0220  0.2248 -0.0235
28250SOL    HW186518   4.254   0.133   9.525  0.3885 -0.0327 -0.0507
28250SOL    HW286519   4.348   0.185   9.418 -0.4827  0.7482 -0.4562
28251SOL     OW86520   2.687   3.548   1.135  0.4386  0.1602 -0.0022
28251SOL    HW186521   2.732   3.521   1.056  2.8023  0.8178  1.0365
28251SOL    HW286522   2.657   3.467   1.176  2.1389 -0.4537  0.0774
28252SOL     OW86523   4.726   8.060   7.294 -0.5134  0.7870 -0.0899
28252SOL    HW186524   4.690   8.144   7.322  0.1534  0.3656  2.3177
28252SOL    HW286525   4.679   7.995   7.346  2.7312  0.1469  2.3561
28253SOL     OW86526   9.090   2.859   0.854 -0.2574  0.1432 -0.3677
28253SOL    HW186527   9.139   2.848   0.936 -0.2452 -1.1969 -0.5344
28253SOL    HW286528   9.127   2.938   0.814 -0.2533  0.8079  0.9016
28254SOL     OW86529   7.281   5.620   5.230  0.3963  0.2018  0.0935
28254SOL    HW186530   7.372   5.593   5.220  0.5676  1.3500 -1.8286
28254SOL    HW286531   7.286   5.709   5.265  0.1098  1.0016 -1.7948
28255SOL     OW86532   0.521   5.887   5.595  0.0596  0.1620  0.0415
28255SOL    HW186533   0.436   5.848   5.617  1.2182 -1.9631  0.9745
28255SOL    HW286534   0.582   5.848   5.657  1.8637  1.1667 -1.0257
28256SOL     OW86535   3.066   6.812   3.424 -0.7353 -0.3194 -0.5095
28256SOL    HW186536   3.062   6.728   3.378 -2.2673 -0.6401  0.1190
28256SOL    HW286537   3.159   6.827   3.441 -0.2783 -0.9557 -2.2800
28257SOL     OW86538   3.341   7.372   8.806 -0.0285  0.0709 -0.2527
28257SOL    HW186539   3.390   7.330   8.735 -1.1698 -1.7900 -0.0121
28257SOL    HW286540   3.268   7.416   8.762 -0.7484 -1.1006 -0.2819
28258SOL     OW86541   4.687   1.765   4.632  0.5192 -0.1791  0.4264
28258SOL    HW186542   4.634   1.834   4.670  1.0999  0.3613  0.2711
28258SOL    HW286543   4.777   1.798   4.637  0.5958  0.1605 -1.9018
28259SOL     OW86544   4.598   3.105   9.574  0.4948 -0.2424  0.1149
28259SOL    HW186545   4.632   3.024   9.537 -0.9453 -0.7515 -0.1529
28259SOL    HW286546   4.504   3.102   9.558  0.4893  1.8730 -0.6257
28260SOL     OW86547   9.387   6.097   1.360 -0.0896 -0.8017  0.0637
28260SOL    HW186548   9.374   6.015   1.312 -1.6534  0.7987 -2.4639
28260SOL    HW286549   9.437   6.152   1.300 -3.2690  1.7632 -0.4962
28261SOL     OW86550   1.485   8.456   5.575  0.2133  0.3800 -0.1340
28261SOL    HW186551   1.422   8.467   5.504  0.6206 -0.1151 -0.5745
28261SOL    HW286552   1.570   8.476   5.536  0.3699  0.7913  0.3923
28262SOL     OW86553   7.435   8.565   6.300 -0.5663 -0.0257 -0.1580
28262SOL    HW186554   7.341   8.564   6.320 -0.4831  1.0362  0.3578
28262SOL    HW286555   7.475   8.522   6.376 -0.4245  2.1123  1.0413
28263SOL     OW86556   4.795   7.260   4.277 -0.2378  0.2864 -0.1014
28263SOL    HW186557   4.812   7.354   4.284 -0.3963  0.2254  1.8665
28263SOL    HW286558   4.871   7.225   4.231 -0.6118  1.4735 -1.6918
28264SOL     OW86559   0.883   5.941   2.376 -0.4001 -0.2081 -0.2610
28264SOL    HW186560   0.910   5.872   2.436  1.9439 -1.4446 -2.5076
28264SOL    HW286561   0.935   6.017   2.403  2.3216 -1.3419 -1.7997
28265SOL     OW86562   8.643   7.148   1.689  0.2161  0.2957  0.2519
28265SOL    HW186563   8.609   7.114   1.772 -0.3953  0.9873  0.2971
28265SOL    HW286564   8.613   7.239   1.686 -1.2550 -0.1897 -1.5146
28266SOL     OW86565   3.212   3.862   1.971 -0.4325  0.6898 -0.0839
28266SOL    HW186566   3.279   3.793   1.969 -0.6061  0.5276 -0.2761
28266SOL    HW286567   3.150   3.837   1.903  0.3699  1.9262 -1.3341
28267SOL     OW86568   8.483   5.988   5.816  0.1937 -0.0052  0.2407
28267SOL    HW186569   8.462   6.011   5.726 -0.9849  0.1783  0.5458
28267SOL    HW286570   8.443   5.902   5.829  0.0122  0.1514  0.7165
28268SOL     OW86571   9.582   8.158   2.121  0.3123  0.3590 -0.0883
28268SOL    HW186572   9.662   8.117   2.154  0.1470 -0.0429 -0.1896
28268SOL    HW286573   9.588   8.249   2.152  0.4042  0.1187  0.6161
28269SOL     OW86574   8.842   4.479   3.570 -0.4823 -0.0521  0.4151
28269SOL    HW186575   8.822   4.521   3.487  2.0257 -3.3269 -2.1014
28269SOL    HW286576   8.896   4.543   3.616  0.3886  0.8181 -1.6924
28270SOL     OW86577   9.693   7.589   8.567  0.8733 -0.2585 -0.2312
28270SOL    HW186578   9.599   7.604   8.575  0.7204 -1.3033  0.0354
28270SOL    HW286579   9.705   7.498   8.593  1.8926 -0.2962 -0.8057
28271SOL     OW86580   3.839   2.690   5.899 -0.2645 -0.1310  0.7538
28271SOL    HW186581   3.765   2.741   5.931 -0.7083 -0.9257  1.0190
28271SOL    HW286582   3.915   2.746   5.914 -0.8865  1.0961 -0.3703
28272SOL     OW86583   5.355   8.155   9.470 -0.0904  0.2984 -0.0216
28272SOL    HW186584   5.356   8.076   9.416  0.7807  1.3824 -1.6530
28272SOL    HW286585   5.447   8.181   9.477 -0.2675  0.6457  1.3225
28273SOL     OW86586   3.845   2.287   7.885  0.2102 -0.0031 -0.6653
28273SOL    HW186587   3.846   2.248   7.972 -1.0494 -1.2562 -1.1777
28273SOL    HW286588   3.914   2.353   7.887  2.2692 -2.0553  0.3428
28274SOL     OW86589   3.469   2.633   6.727  0.5725  0.0631  0.2768
28274SOL    HW186590   3.387   2.594   6.759  1.0641 -2.8845 -1.6644
28274SOL    HW286591   3.453   2.648   6.634  2.1199 -0.2986 -0.0763
28275SOL     OW86592   4.451   0.516   9.250 -0.3509 -0.5069 -0.1200
28275SOL    HW186593   4.431   0.496   9.159  0.6374 -0.7913 -0.2934
28275SOL    HW286594   4.522   0.455   9.272  1.2224  1.2824  0.0244
28276SOL     OW86595   2.308   5.396   4.068 -0.2477 -0.0148 -0.6137
28276SOL    HW186596   2.385   5.443   4.099 -2.2351  1.5439  2.4892
28276SOL    HW286597   2.276   5.349   4.145 -2.3464 -0.6238 -1.7741
28277SOL     OW86598   5.962   4.629   2.151 -0.4319  0.1424  0.3006
28277SOL    HW186599   5.876   4.586   2.146  0.1218 -0.9650  0.1758
28277SOL    HW286600   6.013   4.575   2.211  0.0425  1.0583  0.7374
28278SOL     OW86601   7.773   4.614   9.546  0.0643  0.8936 -0.1152
28278SOL    HW186602   7.738   4.547   9.488 -0.2108  0.8547  0.0927
28278SOL    HW286603   7.699   4.674   9.560  0.1925  1.0204  0.0207
28279SOL     OW86604   6.034   5.285   6.189  0.9430 -0.4382  0.2516
28279SOL    HW186605   5.993   5.199   6.200 -0.1865 -0.0433 -0.7059
28279SOL    HW286606   6.128   5.268   6.195  0.7027 -1.5817  1.0515
28280SOL     OW86607   5.351   5.690   2.729  0.4563  0.1969  0.7315
28280SOL    HW186608   5.388   5.760   2.783  1.3784  0.1230  0.2059
28280SOL    HW286609   5.406   5.614   2.747  0.6007  0.1002 -0.1073
28281SOL     OW86610   5.695   8.503   3.037  0.4073 -0.2072 -0.1545
28281SOL    HW186611   5.607   8.464   3.039 -0.0425  0.7954  0.1915
28281SOL    HW286612   5.686   8.580   2.980  0.4842  1.1993  1.6493
28282SOL     OW86613   4.680   6.652   1.745 -0.1694  0.0317 -0.4978
28282SOL    HW186614   4.702   6.700   1.666 -1.2518 -0.0995 -0.8990
28282SOL    HW286615   4.659   6.564   1.715 -0.1464 -0.1420 -0.0138
28283SOL     OW86616   5.143   7.192   8.415  0.2842 -0.2038  0.7995
28283SOL    HW186617   5.102   7.278   8.405  0.0529 -0.2905  1.0078
28283SOL    HW286618   5.235   7.212   8.432  0.4408 -0.0213 -0.1883
28284SOL     OW86619   5.838   6.560   2.613 -0.6633  0.0140 -0.3408
28284SOL    HW186620   5.928   6.529   2.603 -1.5638 -2.1278 -2.6762
28284SOL    HW286621   5.840   6.650   2.581  0.3643 -0.5403 -1.9551
28285SOL     OW86622   1.109   6.056   9.733  0.0353  0.1455  0.3349
28285SOL    HW186623   1.143   5.976   9.692 -0.0250 -0.1018  0.7557
28285SOL    HW286624   1.187   6.100   9.767 -0.1296 -1.1605  2.6175
28286SOL     OW86625   8.421   5.221   3.272  0.5817  0.7169  0.3919
28286SOL    HW186626   8.398   5.314   3.262  2.0302  1.0477 -0.1618
28286SOL    HW286627   8.424   5.206   3.366 -0.8662  0.8911  0.4905
28287SOL     OW86628   4.630   6.112   8.018 -0.3672 -0.1889  0.2077
28287SOL    HW186629   4.565   6.064   8.070 -0.9768  1.5139  1.0905
28287SOL    HW286630   4.709   6.058   8.023 -0.4982 -0.2765  2.6433
28288SOL     OW86631   1.507   7.806   9.766 -0.3138  0.7043 -0.0057
28288SOL    HW186632   1.579   7.745   9.750 -0.2684  0.0811  2.2045
28288SOL    HW286633   1.435   7.750   9.797 -1.1115  1.5179 -0.3418
28289SOL     OW86634   4.465   0.176   4.101 -0.4326  0.4391 -0.2083
28289SOL    HW186635   4.429   0.087   4.104 -0.7817  0.5974  1.2328
28289SOL    HW286636   4.396   0.229   4.063 -2.1861  0.8852  3.2580
28290SOL     OW86637   2.307   9.766   4.447 -0.4308  0.0727 -0.4379
28290SOL    HW186638   2.263   9.696   4.494 -1.2547  1.8619  1.6390
28290SOL    HW286639   2.368   9.803   4.511  1.0065  0.3810 -1.9282
28291SOL     OW86640   7.426   7.058   2.054  0.1642 -0.6409 -0.3225
28291SOL    HW186641   7.385   6.972   2.057 -0.3775 -0.5271 -2.4114
28291SOL    HW286642   7.516   7.043   2.082  0.2684 -2.0539 -1.2929
28292SOL     OW86643   9.350   3.022   8.768 -0.0713 -0.3463 -0.0646
28292SOL    HW186644   9.260   3.019   8.800  0.6554 -0.3928  2.0819
28292SOL    HW286645   9.350   2.963   8.692 -1.6911 -0.8413  0.2843
28293SOL     OW86646   1.291   3.170   0.417  0.3668 -0.2469 -0.0475
28293SOL    HW186647   1.376   3.199   0.451 -0.4122  0.7340  1.1221
28293SOL    HW286648   1.313   3.110   0.346  2.0404  0.0779  0.1634
28294SOL     OW86649   3.814   4.256   3.471 -0.1500  0.1757 -0.1589
28294SOL    HW186650   3.877   4.299   3.529 -1.4897 -0.5979  1.9849
28294SOL    HW286651   3.729   4.290   3.500 -1.0696 -2.2486  0.1913
28295SOL     OW86652   4.659   3.627   5.625  1.3140 -0.7686 -0.0048
28295SOL    HW186653   4.637   3.641   5.533 -0.0212 -1.8882  0.1204
28295SOL    HW286654   4.746   3.586   5.622  2.2616  1.1609 -0.6327
28296SOL     OW86655   1.424   9.256   2.177  0.0637  0.1733 -0.2848
28296SOL    HW186656   1.393   9.335   2.221 -1.9775 -0.4646 -0.4781
28296SOL    HW286657   1.385   9.261   2.089  3.0440  0.8088 -1.6956
28297SOL     OW86658   6.266   3.895   3.608  0.3130 -0.3187  0.8557
28297SOL    HW186659   6.356   3.907   3.639  0.8191 -0.8533 -0.3344
28297SOL    HW286660   6.249   3.802   3.618  0.9271 -0.7425 -1.4821
28298SOL     OW86661   6.430   0.024   3.336 -0.2774 -0.3555  0.4212
28298SOL    HW186662   6.422  -0.064   3.373  1.5297 -0.4259  0.7514
28298SOL    HW286663   6.363   0.075   3.381 -0.4540 -1.2645  1.2273
28299SOL     OW86664   1.405   5.171   0.847  0.3429  0.2485  0.1061
28299SOL    HW186665   1.439   5.204   0.764  1.3818 -1.7925 -0.3413
28299SOL    HW286666   1.460   5.211   0.914  2.4930 -1.5472 -0.5018
28300SOL     OW86667   1.192   3.434   9.066  0.7606 -0.5116  0.3257
28300SOL    HW186668   1.217   3.458   9.156 -1.8278  0.7421  0.7974
28300SOL    HW286669   1.162   3.344   9.073  0.7566 -0.4842  0.6843
28301SOL     OW86670   6.108   8.979   6.260 -0.3456  0.5495 -0.8024
28301SOL    HW186671   6.194   8.988   6.302  0.4168  0.4373 -2.2957
28301SOL    HW286672   6.068   9.066   6.269 -0.3535  0.4441  0.4233
28302SOL     OW86673   4.316   1.909   3.606 -0.2400 -0.1724 -0.0864
28302SOL    HW186674   4.363   1.992   3.596  0.2331 -0.4820 -0.4416
28302SOL    HW286675   4.370   1.857   3.665 -1.1498  0.2153  1.1432
28303SOL     OW86676   3.467   7.038   9.506  0.0234 -0.0425  0.2897
28303SOL    HW186677   3.558   7.025   9.533  0.1148  0.6134  0.3219
28303SOL    HW286678   3.468   7.119   9.456 -0.4325 -0.3900 -0.2931
28304SOL     OW86679   6.748   4.460   1.948  0.3705 -0.0778  0.0595
28304SOL    HW186680   6.839   4.459   1.919  0.4667 -0.8406  0.3705
28304SOL    HW286681   6.738   4.380   2.000 -0.5358 -0.1211 -0.1618
28305SOL     OW86682   5.910   0.176   1.437 -0.5362 -0.0123  0.0887
28305SOL    HW186683   5.909   0.089   1.476  0.0277  0.5536  1.4337
28305SOL    HW286684   5.937   0.161   1.346 -0.7587 -1.2577  0.2068
28306SOL     OW86685   5.158   7.895   6.957  0.1433 -0.4680 -0.0474
28306SOL    HW186686   5.190   7.890   7.047  1.5737  1.8034 -0.3567
28306SOL    HW286687   5.180   7.809   6.920  0.6346 -1.0090  1.4242
28307SOL     OW86688   0.919   5.157   3.347 -0.8998  0.3454 -0.1032
28307SOL    HW186689   1.002   5.111   3.335 -0.8673  0.8696 -2.2610
28307SOL    HW286690   0.866   5.130   3.272 -2.1927  1.0351  0.5429
28308SOL     OW86691   9.730   9.747   9.668 -0.1801  0.8313 -0.2203
28308SOL    HW186692   9.667   9.676   9.679  1.4890 -0.9153 -1.3432
28308SOL    HW286693   9.763   9.737   9.579  1.5095  1.7884  0.2438
28309SOL     OW86694   0.014   6.365   5.085 -0.1297 -0.0423 -0.4262
28309SOL    HW186695   0.078   6.433   5.103 -0.1179 -0.2334  0.3047
28309SOL    HW286696  -0.071   6.406   5.102 -0.1302 -0.1670 -0.1261
28310SOL     OW86697   7.127   3.906   9.590  0.2250  0.1770 -0.7531
28310SOL    HW186698   7.166   3.939   9.509  0.2137 -0.8109 -1.1779
28310SOL    HW286699   7.200   3.866   9.637  0.9099  3.3739  1.2173
28311SOL     OW86700   2.372   0.813   4.980 -0.4766  0.0021  0.1182
28311SOL    HW186701   2.328   0.869   4.916 -2.2544 -0.4226  0.9053
28311SOL    HW286702   2.410   0.742   4.928 -1.5346 -0.1165 -0.5195
28312SOL     OW86703   4.271   8.825   6.890 -0.2476  0.2640  0.4524
28312SOL    HW186704   4.284   8.845   6.983 -0.2715  1.0533  0.2847
28312SOL    HW286705   4.352   8.782   6.864 -1.3705 -2.8438  1.5940
28313SOL     OW86706   9.483   5.810   5.536  0.5368  0.1212 -0.0040
28313SOL    HW186707   9.407   5.762   5.568  0.5794  0.1887  0.2004
28313SOL    HW286708   9.455   5.846   5.452  0.6283 -0.5903 -0.3499
28314SOL     OW86709   2.268   2.771   4.014  0.0706 -0.2957 -0.4802
28314SOL    HW186710   2.264   2.745   3.922 -0.9008  0.7801 -0.7532
28314SOL    HW286711   2.209   2.846   4.021 -0.1595 -0.5968  1.1044
28315SOL     OW86712   1.245   8.736   7.965  0.2739  0.3111  0.0281
28315SOL    HW186713   1.206   8.804   8.018  0.3023  1.1068 -0.9397
28315SOL    HW286714   1.324   8.776   7.928  0.7607 -0.5224  0.1377
28316SOL     OW86715   5.672   4.503   6.160  0.2871 -0.0533  0.0451
28316SOL    HW186716   5.761   4.471   6.171 -0.4598 -2.2165  0.3829
28316SOL    HW286717   5.621   4.455   6.227 -1.3166  0.1694 -0.9638
28317SOL     OW86718   1.459   7.730   1.730  0.1684  0.1540 -0.2793
28317SOL    HW186719   1.408   7.756   1.653 -0.5186 -0.4856 -0.0575
28317SOL    HW286720   1.408   7.763   1.804  1.4707  1.9009 -0.0944
28318SOL     OW86721   5.906   5.910   6.697 -0.3635  0.0248 -0.0330
28318SOL    HW186722   5.972   5.899   6.766 -1.3710  0.0289  0.9611
28318SOL    HW286723   5.915   5.833   6.642  0.0906 -0.2650  0.4376
28319SOL     OW86724   9.590   3.347   0.994 -0.2513  0.3262  0.7588
28319SOL    HW186725   9.560   3.356   0.904 -0.1483  2.6979  0.8948
28319SOL    HW286726   9.534   3.279   1.031 -2.1928  1.2433 -0.3396
28320SOL     OW86727   8.647   6.290   4.594  0.1813 -0.7851 -0.2166
28320SOL    HW186728   8.698   6.369   4.573  1.6169 -1.5916  0.1486
28320SOL    HW286729   8.617   6.259   4.508  0.9179 -0.6960 -0.5189
28321SOL     OW86730   4.569   1.041   5.010  0.4349  0.3261 -0.0123
28321SOL    HW186731   4.548   1.011   5.098  0.3364  0.4848  0.0196
28321SOL    HW286732   4.516   1.121   4.999  0.4010  0.2741 -0.2353
28322SOL     OW86733   6.260   5.070   4.947  0.1610  0.0107  0.2371
28322SOL    HW186734   6.328   5.005   4.926  0.5168  0.7052 -0.9062
28322SOL    HW286735   6.211   5.032   5.019  0.2372 -1.6160 -0.5251
28323SOL     OW86736   2.934   6.125   0.607 -0.0045  0.0364 -0.0355
28323SOL    HW186737   2.987   6.205   0.609  0.9699 -0.6016  1.6699
28323SOL    HW286738   2.976   6.071   0.540  0.5064  0.2005  0.1453
28324SOL     OW86739   0.189   6.786   8.349 -0.2035  0.3694 -0.3709
28324SOL    HW186740   0.138   6.796   8.429 -0.9790  0.9086 -0.9212
28324SOL    HW286741   0.148   6.845   8.286  1.5051  1.3502 -0.6503
28325SOL     OW86742   2.895   2.889   0.160  1.1325 -0.3785  0.4744
28325SOL    HW186743   2.884   2.984   0.161  1.3701 -0.3492  1.5422
28325SOL    HW286744   2.905   2.865   0.253  1.5419 -1.3827  0.1828
28326SOL     OW86745   3.354   1.716   9.307  0.1732  0.4387 -0.4885
28326SOL    HW186746   3.445   1.744   9.309  0.5760 -0.8729  0.7933
28326SOL    HW286747   3.330   1.721   9.214  1.4789  0.9437 -0.8238
28327SOL     OW86748   1.263   6.028   5.249 -0.0545  0.2675  0.3250
28327SOL    HW186749   1.277   5.961   5.316  0.1884  1.3391  1.3810
28327SOL    HW286750   1.348   6.034   5.205 -0.1905 -0.3846 -0.0438
28328SOL     OW86751   0.319   2.402   2.708  0.3670  0.0711 -0.0953
28328SOL    HW186752   0.312   2.465   2.780 -0.0446  0.0121 -0.0806
28328SOL    HW286753   0.334   2.318   2.751 -1.1941 -0.1890  0.0113
28329SOL     OW86754   7.411   3.654   2.829  0.1648 -0.7058 -0.2051
28329SOL    HW186755   7.326   3.630   2.867 -0.1307  0.3623 -0.1458
28329SOL    HW286756   7.390   3.676   2.738  0.1807  0.5464  0.0730
28330SOL     OW86757   3.428   9.313   6.805 -0.6042 -0.0338  0.2902
28330SOL    HW186758   3.477   9.393   6.783  0.9326 -0.2972  2.4254
28330SOL    HW286759   3.336   9.338   6.794 -0.1086  1.3509 -1.1642
28331SOL     OW86760   3.025   1.153   1.855 -0.3061  0.1463 -0.1900
28331SOL    HW186761   2.931   1.145   1.839 -0.2370  0.1069 -0.5793
28331SOL    HW286762   3.032   1.177   1.947 -0.5923 -2.3746  0.5530
28332SOL     OW86763   9.303   6.222   6.773 -0.5430  0.2036  0.4493
28332SOL    HW186764   9.324   6.315   6.763  0.2628 -0.1928 -2.1716
28332SOL    HW286765   9.387   6.180   6.789 -0.6922 -0.2283  0.1304
28333SOL     OW86766   5.622   8.164   7.042 -0.4547 -0.0352  0.1887
28333SOL    HW186767   5.621   8.252   7.006 -0.6067  0.2177  0.7996
28333SOL    HW286768   5.711   8.152   7.076  0.0250 -0.6834 -1.2410
28334SOL     OW86769   0.038   9.239   3.045 -0.0281 -0.0436  1.0130
28334SOL    HW186770  -0.032   9.190   3.003 -0.8659  0.2659  2.0053
28334SOL    HW286771   0.015   9.239   3.138  1.0488  0.4628  1.2974
28335SOL     OW86772   1.151   4.926   1.208 -0.1975  0.6382 -0.0459
28335SOL    HW186773   1.063   4.957   1.232 -0.6957  0.0625 -1.0490
28335SOL    HW286774   1.161   4.845   1.257 -0.7321  0.0808 -0.8263
28336SOL     OW86775   1.327   0.186   0.985  0.1061 -0.1830 -0.0969
28336SOL    HW186776   1.342   0.174   0.891  0.9693 -0.4225  0.0581
28336SOL    HW286777   1.265   0.117   1.009  0.3248 -0.4851 -0.3894
28337SOL     OW86778   1.568   4.572   9.017  0.2316 -0.1370  0.3051
28337SOL    HW186779   1.616   4.559   8.935 -2.1720 -0.1286 -1.1738
28337SOL    HW286780   1.560   4.484   9.054 -0.2179 -0.3954 -0.3946
28338SOL     OW86781   5.780   6.496   5.526  0.8128  0.4953  0.3080
28338SOL    HW186782   5.777   6.407   5.560  0.2731  1.1381  2.0424
28338SOL    HW286783   5.789   6.551   5.603  0.4969  1.9908 -0.6778
28339SOL     OW86784   1.875   4.539   9.342 -0.1130  0.2391 -0.4557
28339SOL    HW186785   1.901   4.496   9.261 -0.2029 -0.8672  0.0796
28339SOL    HW286786   1.781   4.555   9.331 -0.8279 -2.6799  0.5751
28340SOL     OW86787   0.337   4.376   0.362  0.1714 -0.1667  0.4560
28340SOL    HW186788   0.334   4.472   0.356  0.8858 -0.1361  0.5266
28340SOL    HW286789   0.276   4.355   0.433  1.1481  0.3546  1.4943
28341SOL     OW86790   5.648   2.804   3.231 -0.6563  0.3739  0.2550
28341SOL    HW186791   5.736   2.795   3.193 -0.3409 -0.2108  1.0931
28341SOL    HW286792   5.661   2.850   3.313 -1.1473  0.3794  0.3331
28342SOL     OW86793   9.101   5.219   5.174  0.2004 -0.1794 -0.4461
28342SOL    HW186794   9.187   5.179   5.166  1.1395  1.7053 -0.4001
28342SOL    HW286795   9.112   5.307   5.138 -2.4706 -0.8149 -3.2632
28343SOL     OW86796   5.449   8.442   3.415 -0.8141 -0.1805 -0.4856
28343SOL    HW186797   5.373   8.411   3.365 -0.8375  0.0705 -0.6109
28343SOL    HW286798   5.440   8.538   3.415 -0.9184 -0.1900  0.1711
28344SOL     OW86799   7.726   3.226   7.578  0.3263 -0.2493  0.0615
28344SOL    HW186800   7.647   3.280   7.588  1.1545  1.0636 -0.2386
28344SOL    HW286801   7.799   3.287   7.591  1.3126 -1.5767  1.0915
28345SOL     OW86802   8.132   2.483   2.054  0.0090 -0.2925  0.5901
28345SOL    HW186803   8.175   2.566   2.075  1.6205 -0.5739 -1.3203
28345SOL    HW286804   8.111   2.489   1.961 -0.4364 -1.7726  0.5651
28346SOL     OW86805   2.889   9.667   6.342 -0.7082 -0.0915 -0.3995
28346SOL    HW186806   2.841   9.585   6.331 -0.6628 -0.0847 -0.6419
28346SOL    HW286807   2.968   9.656   6.288  0.6910 -0.9933  1.6535
28347SOL     OW86808   1.237   0.466   5.839 -0.1715 -0.0528  0.3435
28347SOL    HW186809   1.270   0.508   5.760 -0.0303  0.4229  0.6507
28347SOL    HW286810   1.217   0.376   5.812  1.5297 -0.4096  0.1780
28348SOL     OW86811   9.370   0.271   0.128  0.2779 -0.2966 -0.3887
28348SOL    HW186812   9.348   0.344   0.071 -0.4293 -0.0877  0.1334
28348SOL    HW286813   9.336   0.194   0.082  0.2216 -0.1973 -0.5148
28349SOL     OW86814   1.430   2.801   9.192 -0.0106  0.1204  0.0812
28349SOL    HW186815   1.362   2.804   9.125  0.1479 -0.1555 -0.0959
28349SOL    HW286816   1.384   2.811   9.275 -0.1860  0.6863 -0.0768
28350SOL     OW86817   8.861   8.319   2.128 -0.1837 -0.0752  0.3446
28350SOL    HW186818   8.908   8.269   2.195 -1.2723  0.3986  1.4929
28350SOL    HW286819   8.781   8.348   2.172 -1.2419 -0.3020 -1.3652
28351SOL     OW86820   2.347   9.622   1.503 -0.0330  0.0240 -0.0579
28351SOL    HW186821   2.350   9.533   1.468  1.4540  0.1705 -0.3592
28351SOL    HW286822   2.347   9.612   1.598  0.0986 -0.2929 -0.0923
28352SOL     OW86823   5.269   3.004   1.267 -0.0714 -0.0555 -0.1965
28352SOL    HW186824   5.361   3.022   1.249 -0.5597  2.5058 -0.4989
28352SOL    HW286825   5.247   2.932   1.208  1.8326 -1.0731  0.2471
28353SOL     OW86826   2.594   3.057   7.036  0.0189 -0.2823 -0.1346
28353SOL    HW186827   2.543   3.085   7.112  3.0614  0.3539  1.8569
28353SOL    HW286828   2.631   2.972   7.061 -0.8216 -1.2172 -1.9195
28354SOL     OW86829   6.149   0.480   9.458 -0.1277 -0.5554 -0.6878
28354SOL    HW186830   6.105   0.514   9.536 -0.5547  0.4131 -1.3334
28354SOL    HW286831   6.228   0.533   9.451 -0.2074 -0.4836 -1.0442
28355SOL     OW86832   3.640   5.708   4.881  0.3453 -0.1609 -0.3639
28355SOL    HW186833   3.623   5.763   4.804 -2.1138 -0.1886  0.0909
28355SOL    HW286834   3.601   5.755   4.954 -0.7066 -1.8909  0.2476
28356SOL     OW86835   8.614   3.945   1.568  0.0452  0.2537 -0.2707
28356SOL    HW186836   8.629   3.948   1.473 -3.5118  1.1126 -0.9705
28356SOL    HW286837   8.530   3.898   1.577  0.6567 -0.4751  2.5461
28357SOL     OW86838   0.100   6.047   1.013 -0.1587  0.0022 -0.2082
28357SOL    HW186839   0.030   6.050   0.947 -0.7008 -0.1797  0.3408
28357SOL    HW286840   0.142   6.132   1.009 -0.9931  0.4373  0.0539
28358SOL     OW86841   2.902   7.358   2.300 -0.5285 -0.2522  0.2274
28358SOL    HW186842   2.982   7.325   2.340  0.2822  0.5355 -0.7031
28358SOL    HW286843   2.905   7.453   2.314 -1.6999 -0.2866  0.8764
28359SOL     OW86844   6.466   5.022   2.872  0.2659  0.5678 -0.0439
28359SOL    HW186845   6.477   5.064   2.787  2.6989  1.4174  0.5952
28359SOL    HW286846   6.517   5.076   2.932 -0.6458 -0.5135  1.8020
28360SOL     OW86847   6.167   9.217   1.263 -0.0565 -0.0282  0.7550
28360SOL    HW186848   6.116   9.142   1.293  0.1216 -0.1570  0.7427
28360SOL    HW286849   6.242   9.178   1.217 -1.1623  0.1723 -1.3041
28361SOL     OW86850   8.607   7.829   6.677 -0.1734 -0.1816  0.2666
28361SOL    HW186851   8.589   7.858   6.767  0.7023  1.7125 -0.1122
28361SOL    HW286852   8.703   7.827   6.672 -0.1256  2.2195 -1.2994
28362SOL     OW86853   0.777   2.839   8.941  0.0726 -0.5579  0.3669
28362SOL    HW186854   0.801   2.928   8.966  0.5640 -0.0773 -1.6046
28362SOL    HW286855   0.683   2.844   8.923  0.1077 -0.4314  0.2198
28363SOL     OW86856   1.124   4.485   3.665 -0.2532  0.0394 -0.1071
28363SOL    HW186857   1.075   4.423   3.611 -3.1267  0.1549  2.0948
28363SOL    HW286858   1.113   4.569   3.621 -0.3314 -0.2617 -0.6721
28364SOL     OW86859   1.425   5.124   3.225  0.6206  0.1268 -0.5235
28364SOL    HW186860   1.419   5.048   3.284 -0.9682 -0.4966 -1.4445
28364SOL    HW286861   1.471   5.190   3.277  2.6923 -1.6585  0.0822
28365SOL     OW86862   9.167   8.696   9.639 -0.8457  0.4501  0.3298
28365SOL    HW186863   9.183   8.626   9.575 -0.7368 -0.1717  1.0232
28365SOL    HW286864   9.088   8.740   9.607 -1.3421 -0.4581  0.2717
28366SOL     OW86865   5.557   1.134   2.429  0.4003  0.0984  0.1279
28366SOL    HW186866   5.508   1.120   2.510  0.5152  2.0653  0.5648
28366SOL    HW286867   5.491   1.125   2.360 -0.1628  0.6560  0.5865
28367SOL     OW86868   0.436   4.361   1.891 -1.0693 -0.3346  0.3830
28367SOL    HW186869   0.396   4.413   1.960  0.1140  0.3791  0.5452
28367SOL    HW286870   0.526   4.348   1.919 -1.4552 -3.0010  0.6435
28368SOL     OW86871   5.478   2.205   1.220 -0.1654 -0.3194  0.4393
28368SOL    HW186872   5.512   2.142   1.157 -0.5307  0.2710 -0.3771
28368SOL    HW286873   5.546   2.273   1.225 -0.8156  0.4444 -0.5681
28369SOL     OW86874   1.561   1.369   7.203  0.4754  0.2561 -0.3734
28369SOL    HW186875   1.612   1.296   7.238  0.4535  0.1626 -0.5372
28369SOL    HW286876   1.494   1.328   7.149 -0.3896  0.3261  0.6151
28370SOL     OW86877   4.653   4.511   9.354  0.3984  0.1598 -0.1388
28370SOL    HW186878   4.612   4.554   9.429  0.1078 -1.5646  0.7441
28370SOL    HW286879   4.715   4.575   9.320  0.7545  0.8859  1.7744
28371SOL     OW86880   8.950   1.580   0.501 -0.5832 -0.5460  0.1602
28371SOL    HW186881   8.915   1.499   0.464  2.0008 -1.8827  0.4179
28371SOL    HW286882   9.029   1.553   0.548 -0.1155  2.0202  1.0117
28372SOL     OW86883   4.718   3.866   1.050 -0.4810  0.1720  0.2227
28372SOL    HW186884   4.737   3.870   1.144  0.5347  0.4722  0.0204
28372SOL    HW286885   4.642   3.923   1.039 -0.5930  0.1593  0.8563
28373SOL     OW86886   0.117   4.495   7.952  0.2992 -0.2059 -0.2669
28373SOL    HW186887   0.035   4.463   7.989 -0.0295 -0.5587 -1.2625
28373SOL    HW286888   0.184   4.434   7.985  0.0972 -0.1958  0.1694
28374SOL     OW86889   4.589   0.387   6.694  0.2839  0.4725 -0.0221
28374SOL    HW186890   4.555   0.361   6.780 -2.0624  1.2632 -0.6259
28374SOL    HW286891   4.582   0.307   6.642  0.3717  0.3480  0.1550
28375SOL     OW86892   3.474   8.569   6.161  0.0048 -0.6524 -0.8946
28375SOL    HW186893   3.541   8.601   6.100  0.3667 -1.8196 -1.1331
28375SOL    HW286894   3.521   8.510   6.219 -0.3039  0.5535  0.6514
28376SOL     OW86895   7.080   5.401   7.465  0.0499  1.0020  0.3453
28376SOL    HW186896   7.008   5.365   7.412 -0.8432  2.4826  0.4745
28376SOL    HW286897   7.126   5.459   7.405  2.2840 -1.2193 -0.2405
28377SOL     OW86898   9.306   2.564   0.017  0.2277  0.1899 -0.0842
28377SOL    HW186899   9.347   2.484   0.050  0.8438  0.5342  0.0030
28377SOL    HW286900   9.353   2.635   0.062 -0.7498  0.5859  0.3345
28378SOL     OW86901   8.477   7.116   6.777  0.4247  0.0306 -0.0561
28378SOL    HW186902   8.524   7.194   6.748  0.4021  0.6202  1.4152
28378SOL    HW286903   8.411   7.102   6.709 -2.0005  3.4768  1.2779
28379SOL     OW86904   0.330   6.841   8.862  0.0840  0.2752  0.0361
28379SOL    HW186905   0.357   6.831   8.953 -1.2644  0.2633  0.4564
28379SOL    HW286906   0.394   6.901   8.824  1.9124 -1.3284  0.3995
28380SOL     OW86907   2.591   7.073   6.288 -0.0886 -0.5800 -0.2306
28380SOL    HW186908   2.655   7.016   6.330  0.9729 -0.8018 -2.0539
28380SOL    HW286909   2.584   7.039   6.199 -2.4172 -0.2562 -0.2167
28381SOL     OW86910   8.866   7.297   6.004  0.3792  0.0208 -0.2482
28381SOL    HW186911   8.833   7.211   6.030  1.2167 -0.7072 -1.4815
28381SOL    HW286912   8.788   7.351   5.995 -0.0588 -0.0004  2.4187
28382SOL     OW86913   2.692   7.901   7.242 -0.3486  0.8130  0.4204
28382SOL    HW186914   2.767   7.957   7.262 -1.1614  1.5328  1.5678
28382SOL    HW286915   2.632   7.913   7.316 -2.0737  1.0807 -0.9443
28383SOL     OW86916   2.981   3.242   4.411 -0.2447  0.7608  0.1882
28383SOL    HW186917   3.020   3.327   4.431  0.1938  0.6281 -0.0726
28383SOL    HW286918   2.959   3.205   4.496  0.6643  0.6341  0.3797
28384SOL     OW86919   1.172   1.034   0.504 -0.0164  0.4602 -0.6493
28384SOL    HW186920   1.250   1.084   0.482  0.6324 -1.1016 -2.2100
28384SOL    HW286921   1.105   1.100   0.523  1.0212  1.8768 -1.7220
28385SOL     OW86922   6.462   1.721   0.176 -0.7031 -0.1898  0.5648
28385SOL    HW186923   6.506   1.661   0.237 -3.1439 -0.6022  2.0454
28385SOL    HW286924   6.463   1.805   0.220 -1.8590 -0.3362  0.9114
28386SOL     OW86925   6.307   2.978   1.403 -0.1122 -0.0855 -0.4046
28386SOL    HW186926   6.382   2.989   1.345 -0.5338  1.6212 -0.6909
28386SOL    HW286927   6.338   3.005   1.489 -0.4063  0.7679 -0.5522
28387SOL     OW86928   0.454   8.277   1.994 -0.5185 -0.0072  0.0643
28387SOL    HW186929   0.444   8.371   2.009 -1.5258 -0.0860 -0.0592
28387SOL    HW286930   0.487   8.271   1.904  0.9274  0.2633  0.5416
28388SOL     OW86931   9.830   8.493   2.520  0.3869  0.1084  0.5297
28388SOL    HW186932   9.788   8.571   2.483 -1.0633 -1.1799 -0.7213
28388SOL    HW286933   9.778   8.420   2.485  2.1728 -1.4581  1.0129
28389SOL     OW86934   5.123   9.359   1.569 -0.3961 -0.0572  0.3962
28389SOL    HW186935   5.065   9.339   1.643 -3.5426 -0.7146 -2.0232
28389SOL    HW286936   5.133   9.454   1.572 -2.0449  0.1416  0.6874
28390SOL     OW86937   8.825   5.378   6.329 -0.1192 -0.0060 -0.0867
28390SOL    HW186938   8.911   5.382   6.371  0.7967 -0.2545 -1.8654
28390SOL    HW286939   8.763   5.369   6.402  1.5203 -2.0806  1.1549
28391SOL     OW86940   4.703   1.648   2.632 -0.6275  0.3598 -0.9242
28391SOL    HW186941   4.794   1.672   2.649 -0.7484  1.6913 -2.0159
28391SOL    HW286942   4.708   1.578   2.567 -0.3724 -0.1704 -0.3426
28392SOL     OW86943   1.912   5.414   6.631  0.1669  0.5593 -0.1445
28392SOL    HW186944   1.916   5.364   6.712 -2.2867 -1.1979 -0.9932
28392SOL    HW286945   1.825   5.454   6.631  0.6504  1.7012 -1.2823
28393SOL     OW86946   8.032   8.853   9.148 -0.2193  0.3556 -0.7072
28393SOL    HW186947   7.960   8.810   9.103  0.2786 -0.2600 -0.9319
28393SOL    HW286948   8.101   8.787   9.152 -0.6433 -0.0105  2.0561
28394SOL     OW86949   1.683   8.369   9.645 -0.1088  0.0133  0.2449
28394SOL    HW186950   1.740   8.314   9.592  2.2830  1.9207  0.6914
28394SOL    HW286951   1.622   8.307   9.686  0.7924 -1.9767 -1.2367
28395SOL     OW86952   5.375   9.429   2.367  0.1249 -0.4207  0.6642
28395SOL    HW186953   5.347   9.503   2.421  1.4394  0.9440 -0.4036
28395SOL    HW286954   5.295   9.381   2.347 -0.7534  0.6701  1.4759
28396SOL     OW86955   5.142   5.987   2.072  0.0549 -0.2469 -0.1689
28396SOL    HW186956   5.046   5.995   2.068  0.0795 -0.0982 -0.6110
28396SOL    HW286957   5.159   5.895   2.053 -0.0441 -0.5000  0.9209
28397SOL     OW86958   9.567   7.717   5.078 -0.4482  0.0500  0.8478
28397SOL    HW186959   9.583   7.625   5.100  1.9021  0.4818  1.1850
28397SOL    HW286960   9.538   7.715   4.987 -1.7040 -1.1068  1.2453
28398SOL     OW86961   5.309   9.073   4.862 -0.2288  0.3143 -0.6637
28398SOL    HW186962   5.349   9.150   4.821  0.3114 -1.4093 -3.5919
28398SOL    HW286963   5.216   9.080   4.839 -0.2570  0.2884 -0.5567
28399SOL     OW86964   8.059   3.259   9.329  0.0146 -0.4021 -0.0026
28399SOL    HW186965   8.105   3.303   9.258  0.9657 -1.0516  0.1771
28399SOL    HW286966   8.063   3.321   9.402  0.9022 -0.5645  0.1018
28400SOL     OW86967   0.950   1.654   9.735 -0.3236 -0.1990 -0.5890
28400SOL    HW186968   0.863   1.689   9.712 -0.4688  0.9425  1.4977
28400SOL    HW286969   0.939   1.619   9.823  0.5882 -3.0331 -1.4784
28401SOL     OW86970   3.990   1.124   8.070 -0.7815  0.3280 -0.0698
28401SOL    HW186971   3.981   1.157   8.159 -0.4340  0.6776 -0.1605
28401SOL    HW286972   3.902   1.130   8.033 -0.9218  0.2063  0.2389
28402SOL     OW86973   0.765   3.731   7.145 -0.0453  0.0916  0.0190
28402SOL    HW186974   0.733   3.667   7.208 -0.0910  0.2093  0.1158
28402SOL    HW286975   0.831   3.782   7.193 -0.3502  0.4255  0.0873
28403SOL     OW86976   8.594   5.858   6.287 -0.8371  0.2367  0.3138
28403SOL    HW186977   8.545   5.826   6.362 -1.0309 -0.2844 -0.0280
28403SOL    HW286978   8.565   5.803   6.214  0.8078 -0.6118  0.2535
28404SOL     OW86979   3.205   8.068   9.770  0.5657  0.4106  0.2719
28404SOL    HW186980   3.199   8.009   9.845  0.8103  0.0887  0.0439
28404SOL    HW286981   3.150   8.026   9.703  0.3472  0.6959  0.2733
28405SOL     OW86982   3.118   6.317   7.862  0.5253 -0.2409 -0.2685
28405SOL    HW186983   3.124   6.276   7.776  1.0508 -1.7027  0.4408
28405SOL    HW286984   3.098   6.246   7.922  1.8507  0.4402  1.0667
28406SOL     OW86985   1.574   8.353   8.746  0.4335  0.7309  0.0695
28406SOL    HW186986   1.596   8.446   8.740 -0.7142  1.1215  1.2785
28406SOL    HW286987   1.503   8.350   8.810  2.2856 -1.2577  2.2353
28407SOL     OW86988   3.141   0.838   2.819 -0.1654 -0.0134 -0.2690
28407SOL    HW186989   3.081   0.911   2.808  0.4191  0.5835  0.4134
28407SOL    HW286990   3.112   0.795   2.899 -0.9274 -0.9582 -1.0259
28408SOL     OW86991   0.259   7.695   3.234  0.0729  0.2758 -0.2693
28408SOL    HW186992   0.246   7.706   3.140  0.6446  0.4693 -0.3318
28408SOL    HW286993   0.345   7.735   3.251 -0.0100  0.2093  0.3258
28409SOL     OW86994   2.747   8.464   2.977 -0.3045  0.0336  0.0211
28409SOL    HW186995   2.750   8.378   2.936  2.0096  0.2148 -0.3691
28409SOL    HW286996   2.719   8.523   2.907  1.9395  0.0926 -0.9016
28410SOL     OW86997   1.587   8.624   9.772 -0.0741 -0.0796  0.2262
28410SOL    HW186998   1.653   8.563   9.740  0.3120  0.4908 -0.0738
28410SOL    HW286999   1.585   8.611   9.867  0.3396 -0.2198  0.2162
28411SOL     OW87000   7.713   4.381   9.366  0.3275 -0.8981  0.2848
28411SOL    HW187001   7.714   4.465   9.322  0.9023  0.1138  2.1245
28411SOL    HW287002   7.756   4.321   9.305 -0.2617  0.0649 -1.1287
28412SOL     OW87003   5.502   8.997   4.616 -0.1453 -0.3812 -0.2853
28412SOL    HW187004   5.418   9.035   4.592  0.7056  1.1572 -0.9627
28412SOL    HW287005   5.534   8.957   4.536  0.4110  0.2972 -0.4062
28413SOL     OW87006   7.847   4.097   0.587 -0.5681  0.2682  0.6735
28413SOL    HW187007   7.899   4.076   0.664 -0.7170  1.2886  1.0646
28413SOL    HW287008   7.814   4.185   0.603  0.8003  1.2159 -1.3055
28414SOL     OW87009   9.535   7.599   6.868  0.0112 -0.5854 -0.2774
28414SOL    HW187010   9.500   7.645   6.945 -0.1858 -0.5695 -0.3759
28414SOL    HW287011   9.629   7.594   6.884 -0.0049 -0.4119 -0.1240
28415SOL     OW87012   1.231   5.802   7.377  0.2957  0.4166  0.1665
28415SOL    HW187013   1.278   5.768   7.301 -1.2664 -0.1985 -0.5612
28415SOL    HW287014   1.226   5.896   7.361 -0.9681  0.1734 -1.0870
28416SOL     OW87015   9.739   3.854   2.364  0.0940 -0.7270 -0.1559
28416SOL    HW187016   9.830   3.826   2.367  0.5492  0.6235 -0.3869
28416SOL    HW287017   9.691   3.787   2.413  0.9957 -2.1588 -1.1565
28417SOL     OW87018   5.378   3.118   3.913 -0.4260 -0.2055 -0.0612
28417SOL    HW187019   5.285   3.140   3.921 -0.3115 -0.1013  1.0811
28417SOL    HW287020   5.379   3.022   3.909 -0.4029 -0.4896  3.6295
28418SOL     OW87021   4.511   9.073   6.035  0.0426  0.2604  0.0984
28418SOL    HW187022   4.561   9.051   6.113  1.3732  3.7449  0.4312
28418SOL    HW287023   4.572   9.122   5.980 -1.3883 -0.4638 -2.3155
28419SOL     OW87024   9.266   6.504   7.310 -0.0249  0.5107 -0.0938
28419SOL    HW187025   9.254   6.575   7.373  0.2808  2.9967 -2.6541
28419SOL    HW287026   9.181   6.461   7.306 -0.3074  0.8788  1.2629
28420SOL     OW87027   2.336   5.105   2.516  0.7710  0.0521 -0.1889
28420SOL    HW187028   2.317   5.120   2.423 -0.0809 -0.7259 -0.1443
28420SOL    HW287029   2.261   5.056   2.549  0.9472  0.5305  0.9809
28421SOL     OW87030   1.278   6.239   4.167  0.1958  0.2632 -0.3797
28421SOL    HW187031   1.273   6.334   4.167 -0.1862  0.2724  1.0187
28421SOL    HW287032   1.362   6.219   4.125  1.5509  1.3575  1.6172
28422SOL     OW87033   0.713   6.153   8.784  0.3549 -0.4327  0.6892
28422SOL    HW187034   0.721   6.226   8.846 -1.9349  0.7078 -0.2204
28422SOL    HW287035   0.779   6.090   8.812  2.8627  2.2062  1.1802
28423SOL     OW87036   9.638   1.482   3.319  0.4558  0.4163  0.3123
28423SOL    HW187037   9.553   1.443   3.301 -0.1465  2.1263 -0.8369
28423SOL    HW287038   9.681   1.487   3.234  0.8453  1.4373  0.5484
28424SOL     OW87039   2.094   2.364   8.022 -0.1183  0.3474 -0.6851
28424SOL    HW187040   2.031   2.395   8.088 -0.5744 -0.0916 -0.9079
28424SOL    HW287041   2.180   2.386   8.059 -0.3849  0.5804 -0.1878
28425SOL     OW87042   4.570   2.896   4.315  0.5150 -0.4364  0.0513
28425SOL    HW187043   4.603   2.944   4.239 -1.9159  2.2495  0.5216
28425SOL    HW287044   4.540   2.813   4.279  0.0526  0.4795 -1.8331
28426SOL     OW87045   3.825   6.668   3.139  0.0951  0.5156 -0.6978
28426SOL    HW187046   3.740   6.635   3.111  0.0648  0.4403 -0.5194
28426SOL    HW287047   3.848   6.734   3.074 -1.5115  2.7630  0.8449
28427SOL     OW87048   2.003   8.634   5.969  0.5828 -0.4341  0.4533
28427SOL    HW187049   2.092   8.644   6.003  1.2445 -2.4533 -0.5394
28427SOL    HW287050   1.983   8.541   5.981 -1.7221  0.1024  1.3624
28428SOL     OW87051   3.346   4.670   3.821 -0.1563  0.0089  0.3157
28428SOL    HW187052   3.426   4.650   3.870  0.4239 -0.6390 -0.8692
28428SOL    HW287053   3.348   4.765   3.810  2.1902 -0.2114 -2.4849
28429SOL     OW87054   0.019   7.714   0.746  0.2489  0.5735 -0.4023
28429SOL    HW187055   0.014   7.779   0.815 -0.6260  1.4811 -1.2759
28429SOL    HW287056   0.104   7.727   0.706  0.7812  0.0073  0.5124
28430SOL     OW87057   3.655   4.455   7.843 -0.4398  0.0045 -0.0646
28430SOL    HW187058   3.636   4.411   7.760  1.1675 -0.6456 -0.1199
28430SOL    HW287059   3.702   4.534   7.818  2.3304 -1.4414  0.2694
28431SOL     OW87060   9.846   2.084   0.396  0.4915 -0.4138 -0.1809
28431SOL    HW187061   9.855   2.156   0.458 -1.4117  0.7359 -1.1270
28431SOL    HW287062   9.929   2.084   0.347  1.2192 -0.0549  1.0160
28432SOL     OW87063   1.685   2.692   4.050  0.1507 -0.3621 -0.1660
28432SOL    HW187064   1.628   2.630   4.095  1.6248 -2.0388 -0.5093
28432SOL    HW287065   1.758   2.639   4.018  1.7230  1.6163 -0.0639
28433SOL     OW87066   9.324   0.851   1.531  0.2759  0.3950 -1.0538
28433SOL    HW187067   9.370   0.797   1.595  0.7233  0.7989 -1.0307
28433SOL    HW287068   9.325   0.939   1.569 -0.5420  0.4102 -1.0395
28434SOL     OW87069   4.632   8.182   9.560  0.8784  0.4713  0.0032
28434SOL    HW187070   4.641   8.185   9.655 -0.2410  0.2159  0.1296
28434SOL    HW287071   4.655   8.092   9.536  1.9845  0.7604 -0.0764
28435SOL     OW87072   1.579   1.867   3.370  0.2464 -0.2254 -0.0664
28435SOL    HW187073   1.636   1.929   3.325  0.0866  0.1038  0.1786
28435SOL    HW287074   1.579   1.789   3.314  0.1983  0.1101 -0.5419
28436SOL     OW87075   5.415   8.374   1.368 -0.5411 -0.4147  0.0548
28436SOL    HW187076   5.497   8.343   1.330 -0.6125 -1.4903  0.7536
28436SOL    HW287077   5.441   8.439   1.433 -0.3058 -0.1194 -0.3282
28437SOL     OW87078   7.020   2.829   5.825 -0.5666  0.1669  0.4713
28437SOL    HW187079   7.020   2.767   5.898 -0.6603  1.0126  1.2046
28437SOL    HW287080   6.927   2.850   5.811 -0.7627 -1.5508 -1.2815
28438SOL     OW87081   9.750   7.600   6.173  0.2074  0.1565  0.2333
28438SOL    HW187082   9.680   7.546   6.136 -1.1989  1.7636  0.4147
28438SOL    HW287083   9.776   7.554   6.253 -0.1652 -0.8164 -0.1892
28439SOL     OW87084   2.458   9.544   7.999  0.9173  0.3968 -0.6160
28439SOL    HW187085   2.513   9.480   8.046  1.5666  1.0923 -0.4055
28439SOL    HW287086   2.489   9.540   7.909  0.0505 -0.5306 -0.8969
28440SOL     OW87087   2.175   2.250   3.197  0.2657 -0.5206  0.0314
28440SOL    HW187088   2.160   2.157   3.213  0.0922 -0.4456  0.2965
28440SOL    HW287089   2.230   2.251   3.118  0.5913 -0.8595  0.2483
28441SOL     OW87090   7.011   9.395   8.771 -0.0857 -0.3054  0.1883
28441SOL    HW187091   7.021   9.483   8.736 -1.9641 -0.2240 -0.2554
28441SOL    HW287092   7.001   9.407   8.865 -0.9672  0.0514  0.0645
28442SOL     OW87093   4.016   4.132   3.091 -0.0269  0.3988 -0.0327
28442SOL    HW187094   3.954   4.120   3.163  0.0308  1.3505  0.1842
28442SOL    HW287095   3.965   4.114   3.012 -0.2229 -0.1534  0.2141
28443SOL     OW87096   5.720   5.103   4.972  0.1705  0.7087 -0.3141
28443SOL    HW187097   5.657   5.151   5.026  2.4404  2.0481  1.3284
28443SOL    HW287098   5.767   5.048   5.035  1.7519  1.0191 -1.1895
28444SOL     OW87099   0.312   2.012   1.921  0.7102  0.5313  0.4382
28444SOL    HW187100   0.296   1.950   1.992 -0.8178  1.4999  0.9781
28444SOL    HW287101   0.260   1.979   1.848 -0.2084  1.2233  0.7670
28445SOL     OW87102   6.407   1.760   9.521 -0.1642 -0.5787  0.3518
28445SOL    HW187103   6.340   1.755   9.589 -0.3506  2.2628  0.4868
28445SOL    HW287104   6.447   1.673   9.521 -1.6454 -1.3522  2.5260
28446SOL     OW87105   3.115   8.336   5.907 -0.6575 -0.2061 -0.1101
28446SOL    HW187106   3.160   8.279   5.969 -0.2451 -0.1226 -0.3326
28446SOL    HW287107   3.122   8.291   5.823  3.1158  1.9298 -1.1595
28447SOL     OW87108   5.565   5.695   8.060  0.6096 -0.7248 -0.0261
28447SOL    HW187109   5.635   5.760   8.065  0.7589 -0.5224 -2.9274
28447SOL    HW287110   5.486   5.742   8.086  1.1202 -0.1369  0.4737
28448SOL     OW87111   6.668   5.093   0.334 -0.5931  0.4762 -0.3337
28448SOL    HW187112   6.639   5.048   0.413 -1.1471 -0.8250 -1.2472
28448SOL    HW287113   6.752   5.133   0.357  0.1558 -1.4407  0.3746
28449SOL     OW87114   6.035   4.013   3.217 -0.1410  0.4294 -0.0361
28449SOL    HW187115   6.016   3.923   3.189 -0.2604  0.6012 -0.5239
28449SOL    HW287116   6.114   4.006   3.270 -0.1540  0.0327 -0.0689
28450SOL     OW87117   5.615   6.001   4.223  0.1854  0.3252  0.3256
28450SOL    HW187118   5.696   5.952   4.212  0.8455  0.8992  2.3179
28450SOL    HW287119   5.597   6.038   4.136  1.7358 -0.2853 -0.2772
28451SOL     OW87120   9.168   9.394   9.590 -0.8557 -0.1549 -0.4437
28451SOL    HW187121   9.126   9.441   9.518 -0.6187 -0.1819 -0.6034
28451SOL    HW287122   9.184   9.306   9.554  0.5345  0.2371 -0.8588
28452SOL     OW87123   8.625   4.732   2.123 -0.3623 -0.0374  0.3221
28452SOL    HW187124   8.611   4.705   2.214 -0.9921  0.0325  0.2478
28452SOL    HW287125   8.604   4.826   2.123 -0.2760 -0.0186  0.1212
28453SOL     OW87126   0.031   5.478   0.963  0.2107  0.2766  0.4262
28453SOL    HW187127   0.098   5.518   1.018  1.4409 -2.0272  0.7607
28453SOL    HW287128   0.017   5.540   0.892 -0.3731  2.6809  2.5210
28454SOL     OW87129   8.548   5.515   5.466 -0.1212 -0.1289 -0.0013
28454SOL    HW187130   8.640   5.531   5.445 -0.2135 -0.7053 -0.8627
28454SOL    HW287131   8.521   5.594   5.513  1.4056 -0.8213  2.2623
28455SOL     OW87132   7.179   7.678   2.426  0.5229 -0.4607 -0.3366
28455SOL    HW187133   7.089   7.691   2.397  0.5466  0.6936  0.0395
28455SOL    HW287134   7.178   7.593   2.470 -0.2330 -0.7485 -0.8825
28456SOL     OW87135   3.524   6.762   3.828 -0.6662  0.3443  0.0545
28456SOL    HW187136   3.557   6.845   3.862  1.6193 -0.5445  0.1443
28456SOL    HW287137   3.526   6.703   3.904 -2.0898  0.1165 -0.0516
28457SOL     OW87138   9.234   0.113   7.291 -0.0604 -0.2292 -0.0399
28457SOL    HW187139   9.278   0.039   7.333 -1.5267 -0.3544  1.3659
28457SOL    HW287140   9.239   0.093   7.197 -1.4700 -2.7750  0.3280
28458SOL     OW87141   6.372   2.101   3.383 -0.1153 -0.2241  0.6039
28458SOL    HW187142   6.434   2.111   3.456 -1.2630  0.4339  1.5281
28458SOL    HW287143   6.370   2.007   3.365 -1.2668 -0.6684  2.7702
28459SOL     OW87144   5.423   0.181   3.332  0.5632  0.0813 -0.5259
28459SOL    HW187145   5.437   0.201   3.425  0.0646  3.2535 -1.0037
28459SOL    HW287146   5.503   0.214   3.289 -0.0361  0.4462 -1.3780
28460SOL     OW87147   7.064   6.398   3.526  1.0782  0.4417 -0.1782
28460SOL    HW187148   7.067   6.331   3.594 -0.8279  0.7850  0.2969
28460SOL    HW287149   7.045   6.350   3.445 -0.3952  0.3816  0.1792
28461SOL     OW87150   3.333   4.415   0.395  0.8243  0.3348 -0.8039
28461SOL    HW187151   3.350   4.333   0.349 -0.8704 -0.1908 -0.5742
28461SOL    HW287152   3.275   4.464   0.337 -2.5076 -0.9227  1.1412
28462SOL     OW87153   6.948   1.816   4.104  0.3132  0.1522  1.1099
28462SOL    HW187154   6.941   1.851   4.015 -0.2265  0.1743  1.1562
28462SOL    HW287155   6.978   1.725   4.092  1.6779  0.5971  0.9884
28463SOL     OW87156   0.244   1.129   7.629  0.1453  0.4648  0.6315
28463SOL    HW187157   0.185   1.144   7.555 -0.6790 -0.2835  1.1262
28463SOL    HW287158   0.218   1.044   7.664  0.0412  1.1204  2.2240
28464SOL     OW87159   9.732   4.472   9.674  0.1048  0.4123  0.3420
28464SOL    HW187160   9.686   4.480   9.757  1.4109  1.4617  1.0053
28464SOL    HW287161   9.678   4.521   9.612 -1.3885 -1.1837  0.2863
28465SOL     OW87162   4.346   9.741   4.880 -0.5718  0.5122  0.0620
28465SOL    HW187163   4.257   9.752   4.845 -0.8908  1.5644  1.1591
28465SOL    HW287164   4.388   9.680   4.819 -1.6582  0.9354 -1.1532
28466SOL     OW87165   8.528   4.168   8.962  0.0507  0.7582 -0.1033
28466SOL    HW187166   8.452   4.153   8.906 -0.3203 -1.6214  0.9269
28466SOL    HW287167   8.577   4.085   8.958  0.9673  1.1833  1.6288
28467SOL     OW87168   2.960   4.301   3.614 -0.1756 -0.1347  0.2607
28467SOL    HW187169   3.019   4.366   3.650  0.1978 -1.2043  1.6670
28467SOL    HW287170   2.892   4.291   3.680  1.6672 -3.7060  1.9020
28468SOL     OW87171   5.056   0.060   8.794  0.8030 -0.4286 -0.4276
28468SOL    HW187172   5.145   0.081   8.823  0.5742 -0.5593  0.3976
28468SOL    HW287173   5.016   0.018   8.870  0.0120 -0.2959 -0.7658
28469SOL     OW87174   7.875   6.607   6.220 -0.7383 -0.2119 -0.0219
28469SOL    HW187175   7.905   6.698   6.213 -1.6062  0.0823  0.0026
28469SOL    HW287176   7.817   6.595   6.145 -2.1229 -0.1535  1.0093
28470SOL     OW87177   8.663   6.895   3.461  0.4006 -0.5701 -0.0972
28470SOL    HW187178   8.732   6.927   3.403 -0.1858 -0.1665 -0.5822
28470SOL    HW287179   8.703   6.821   3.507  1.6195  0.5476  0.7036
28471SOL     OW87180   2.915   0.709   9.696  0.1391 -0.0259 -0.5976
28471SOL    HW187181   2.934   0.619   9.668 -0.2300 -0.3487  0.1755
28471SOL    HW287182   3.002   0.747   9.712  0.2765 -0.4142 -0.4018
28472SOL     OW87183   2.214   4.433   4.411 -0.4534 -0.3907  0.3694
28472SOL    HW187184   2.135   4.429   4.466  0.2778 -0.8386  1.4112
28472SOL    HW287185   2.287   4.426   4.473  0.4107 -0.0633 -0.5871
28473SOL     OW87186   6.313   1.303   9.686  0.6030  0.0911 -0.2225
28473SOL    HW187187   6.244   1.318   9.751  0.0789  2.4999 -1.2215
28473SOL    HW287188   6.339   1.211   9.699 -0.9402 -0.1162  1.9266
28474SOL     OW87189   4.728   9.188   1.778  0.4728 -0.3427 -0.0402
28474SOL    HW187190   4.714   9.282   1.784  3.1711  0.1253  0.1226
28474SOL    HW287191   4.711   9.168   1.686 -0.6819  0.1598  0.0433
28475SOL     OW87192   5.797   5.834   2.323  0.5611 -0.5074  0.2811
28475SOL    HW187193   5.749   5.767   2.274 -0.3812 -0.0171  0.4954
28475SOL    HW287194   5.832   5.892   2.256 -1.8212  0.9122  0.1157
28476SOL     OW87195   7.030   2.928   1.156 -0.0608 -0.1413 -0.8549
28476SOL    HW187196   7.111   2.940   1.207  0.7418 -3.1536 -1.2407
28476SOL    HW287197   6.966   2.984   1.200  0.6213 -2.2527  3.3995
28477SOL     OW87198   8.997   6.830   4.847 -0.7988  0.1568 -0.2233
28477SOL    HW187199   9.059   6.761   4.823 -1.0319  1.1426 -4.3984
28477SOL    HW287200   9.019   6.851   4.938  2.6639 -1.8888 -0.4049
28478SOL     OW87201   0.122   9.767   2.838  0.7383  0.0374 -0.7137
28478SOL    HW187202   0.104   9.829   2.908 -0.6861 -1.1126  0.0013
28478SOL    HW287203   0.165   9.818   2.770 -1.8391  2.1956 -0.8713
28479SOL     OW87204   7.428   9.819   6.285  0.3037  0.1158  0.5135
28479SOL    HW187205   7.359   9.842   6.223  0.7227 -1.9389 -0.7949
28479SOL    HW287206   7.482   9.755   6.239  1.1744 -0.7986  2.6716
28480SOL     OW87207   6.349   0.197   2.967 -0.3857 -0.3037 -0.1735
28480SOL    HW187208   6.414   0.187   3.036 -0.8051  2.4087  0.7038
28480SOL    HW287209   6.383   0.143   2.895  3.9299  2.3389 -0.5153
28481SOL     OW87210   7.934   1.956   9.344  0.2702 -0.1058  0.2465
28481SOL    HW187211   7.887   1.873   9.351  1.2653 -0.7154 -0.0899
28481SOL    HW287212   7.919   1.985   9.254 -0.6451  0.4438  0.5620
28482SOL     OW87213   1.363   5.265   5.755  0.1802 -0.1672  0.6804
28482SOL    HW187214   1.432   5.201   5.740  1.0742  0.9163 -0.0164
28482SOL    HW287215   1.333   5.247   5.844  2.2191  0.0814  1.4940
28483SOL     OW87216   2.547   3.454   2.347  0.4152 -0.0879  0.1170
28483SOL    HW187217   2.519   3.515   2.278 -0.0775 -0.3418  0.0917
28483SOL    HW287218   2.623   3.497   2.386  0.0376  0.5748  0.1448
28484SOL     OW87219   0.536   6.945   4.046  0.2308  0.0323 -0.0257
28484SOL    HW187220   0.607   6.884   4.032 -0.0913 -0.6818  1.2772
28484SOL    HW287221   0.556   6.986   4.131 -2.0003 -1.8459  1.5377
28485SOL     OW87222   8.177   5.019   0.333  0.0188  0.6237  0.0364
28485SOL    HW187223   8.250   5.066   0.373  0.1416 -1.2122  2.1806
28485SOL    HW287224   8.197   5.019   0.240  1.7034  1.8879  0.3378
28486SOL     OW87225   2.580   7.774   9.193 -0.0851  0.2466  0.4263
28486SOL    HW187226   2.523   7.757   9.117  0.0137 -0.1762  0.4460
28486SOL    HW287227   2.581   7.692   9.241  0.0313  0.4495  0.7726
28487SOL     OW87228   1.353   7.746   4.402  0.6940  0.5894 -0.0690
28487SOL    HW187229   1.439   7.777   4.432  1.6956  0.2309 -2.4216
28487SOL    HW287230   1.330   7.677   4.464  2.6023 -0.0317 -0.0017
28488SOL     OW87231   1.871   9.285   2.958  0.1037 -0.2870 -0.3778
28488SOL    HW187232   1.868   9.263   2.865  0.7766  1.6094 -0.8819
28488SOL    HW287233   1.923   9.215   2.997  0.8358 -0.4677 -1.6290
28489SOL     OW87234   0.316   6.381   3.035 -0.1635 -0.0901  0.1068
28489SOL    HW187235   0.257   6.447   2.999  0.2363 -0.9220 -2.2558
28489SOL    HW287236   0.385   6.430   3.078  0.0396  1.0578 -1.4552
28490SOL     OW87237   4.536   0.004   5.895  0.5258  0.7864  0.1503
28490SOL    HW187238   4.597   0.075   5.911  2.1533 -0.9667  2.4247
28490SOL    HW287239   4.591  -0.075   5.892 -1.4363 -0.6647  0.2481
28491SOL     OW87240   3.109   6.516   8.528  0.6020  0.1057  0.7152
28491SOL    HW187241   3.136   6.590   8.582  0.0002  1.0594 -0.2692
28491SOL    HW287242   3.116   6.547   8.438 -0.0487 -0.8928  0.3022
28492SOL     OW87243   9.723   6.241   0.604 -0.3205  0.7563 -0.3177
28492SOL    HW187244   9.631   6.268   0.599 -0.8652 -0.6491  1.1870
28492SOL    HW287245   9.739   6.196   0.521 -1.1238  0.6040 -0.4020
28493SOL     OW87246   4.907   4.321   5.635  0.1820 -0.2480 -0.2228
28493SOL    HW187247   4.895   4.320   5.540 -0.2060  0.8139 -0.2017
28493SOL    HW287248   4.980   4.261   5.651  1.9280  1.3990 -1.4738
28494SOL     OW87249   7.591   1.825   9.170 -0.3280  0.1061  0.2454
28494SOL    HW187250   7.605   1.918   9.186  2.2162 -0.2309  0.5389
28494SOL    HW287251   7.638   1.782   9.242  0.2583 -1.3868 -0.9667
28495SOL     OW87252   6.883   4.366   1.690 -0.7480  0.5377  0.1592
28495SOL    HW187253   6.935   4.404   1.760 -0.4728  0.8973 -0.2421
28495SOL    HW287254   6.799   4.412   1.694 -2.0293 -1.7170  2.4276
28496SOL     OW87255   1.139   7.167   2.535  0.2818 -0.1331  0.2827
28496SOL    HW187256   1.146   7.204   2.623  1.1187  2.4648 -0.7893
28496SOL    HW287257   1.045   7.166   2.517  0.1924  0.6333  0.6830
28497SOL     OW87258   2.311   8.020   0.928  0.0848 -0.0725  0.7879
28497SOL    HW187259   2.257   7.985   0.858 -1.4142  0.4806  1.6204
28497SOL    HW287260   2.400   7.993   0.906 -0.5569 -1.2611 -0.4760
28498SOL     OW87261   0.192   7.479   5.178 -0.6500  0.4502 -0.1705
28498SOL    HW187262   0.236   7.451   5.258  0.2867 -1.7376 -1.3556
28498SOL    HW287263   0.106   7.439   5.182 -0.4341 -0.0500 -0.4534
28499SOL     OW87264   1.232   6.813   4.031 -0.0983 -0.3212 -0.1222
28499SOL    HW187265   1.168   6.860   3.978 -0.4435 -0.0531  0.5150
28499SOL    HW287266   1.312   6.865   4.023 -0.5587  0.5784  0.8267
28500SOL     OW87267   1.858   7.518   5.620 -0.1502  0.1212  0.4594
28500SOL    HW187268   1.789   7.468   5.665  0.5173 -1.2697  0.0220
28500SOL    HW287269   1.936   7.463   5.630  0.5576  0.9735 -0.3004
28501SOL     OW87270   2.916   7.620   3.169 -0.5190  0.1441  0.4197
28501SOL    HW187271   2.888   7.627   3.260  0.9491  0.4159  0.8668
28501SOL    HW287272   2.937   7.527   3.157  0.0537  0.2525  0.5896
28502SOL     OW87273   8.002   0.588   2.237 -0.0625  0.1458  0.2705
28502SOL    HW187274   8.079   0.592   2.181  0.7991  3.0329  1.4933
28502SOL    HW287275   8.001   0.498   2.270  1.3754 -0.6215 -1.5645
28503SOL     OW87276   1.767   8.916   7.520 -0.2471 -0.1782  0.1595
28503SOL    HW187277   1.776   8.975   7.445  0.5456  0.9537  1.1147
28503SOL    HW287278   1.673   8.916   7.539 -0.3154  0.3707 -0.1701
28504SOL     OW87279   4.131   1.319   0.872 -0.0251  0.0864  0.2068
28504SOL    HW187280   4.049   1.366   0.859 -0.3113 -0.5780 -0.5228
28504SOL    HW287281   4.106   1.237   0.914  0.4713  0.5689  1.5060
28505SOL     OW87282   8.391   4.753   5.403  0.3289 -0.5478  0.1204
28505SOL    HW187283   8.421   4.662   5.409  2.5686  0.0308 -1.2850
28505SOL    HW287284   8.458   4.804   5.448 -0.7784  0.4712  0.6752
28506SOL     OW87285   4.210   7.249   2.265 -0.4629 -0.4142 -0.1298
28506SOL    HW187286   4.190   7.157   2.283  0.5879 -0.5268  0.5326
28506SOL    HW287287   4.297   7.247   2.226  0.6602  0.4662  2.1490
28507SOL     OW87288   5.791   6.114   0.888  0.6960  0.3335  0.4375
28507SOL    HW187289   5.793   6.162   0.971 -1.9502 -0.0355  0.7891
28507SOL    HW287290   5.742   6.171   0.828  0.0289 -0.6574  0.0108
28508SOL     OW87291   0.780   2.257   6.278  0.3342  0.2880 -0.2400
28508SOL    HW187292   0.737   2.173   6.293 -2.3733  2.0899  3.9058
28508SOL    HW287293   0.847   2.263   6.347  2.2091  0.6635 -1.9841
28509SOL     OW87294   0.761   4.820   9.771 -0.1099 -0.2366  0.1599
28509SOL    HW187295   0.805   4.802   9.854 -0.3665  0.9198  0.5755
28509SOL    HW287296   0.668   4.823   9.793 -0.2648 -0.9247 -0.3720
28510SOL     OW87297   4.178   3.445   2.442 -0.2902  0.1423  0.4943
28510SOL    HW187298   4.159   3.376   2.378 -0.3792  0.6570 -0.0325
28510SOL    HW287299   4.093   3.465   2.481 -0.2774  0.0206  0.5875
28511SOL     OW87300   0.723   5.815   5.808  0.3358  0.0333 -0.4128
28511SOL    HW187301   0.772   5.793   5.887 -1.4683  0.8282  1.0150
28511SOL    HW287302   0.741   5.744   5.747  3.3263  0.3628 -0.0670
28512SOL     OW87303   8.557   1.162   5.583 -0.2771 -0.7525  0.1735
28512SOL    HW187304   8.552   1.068   5.603  2.0379 -1.2108 -1.0661
28512SOL    HW287305   8.637   1.192   5.625 -0.1105  0.2838 -0.8332
28513SOL     OW87306   0.620   7.338   2.232  0.1496 -0.1745 -0.0696
28513SOL    HW187307   0.671   7.316   2.309 -0.4041 -0.5355  0.1949
28513SOL    HW287308   0.684   7.340   2.160  0.4597 -1.0677  0.1790
28514SOL     OW87309   7.601   5.940   4.261  0.1785 -0.2460 -0.0987
28514SOL    HW187310   7.558   5.907   4.183 -0.2571 -2.7667  1.1266
28514SOL    HW287311   7.626   5.862   4.311  2.3889  1.2043  1.2796
28515SOL     OW87312   1.244   8.094   4.674  0.1639  0.1032 -0.6640
28515SOL    HW187313   1.321   8.151   4.680 -0.1522  0.6724 -1.8545
28515SOL    HW287314   1.247   8.059   4.585 -1.1008  0.3224 -0.8031
28516SOL     OW87315   5.186   0.622   5.700 -0.4707  0.4809  0.1088
28516SOL    HW187316   5.125   0.551   5.682 -1.2249  1.3152 -0.7991
28516SOL    HW287317   5.218   0.605   5.789  0.7526 -1.9434 -0.7021
28517SOL     OW87318   2.405   5.387   7.642  0.2528  0.1565  0.0958
28517SOL    HW187319   2.344   5.441   7.591  1.0189 -0.5055 -1.5680
28517SOL    HW287320   2.406   5.429   7.728 -1.5129  0.9740 -0.2256
28518SOL     OW87321   9.376   4.805   3.469  0.0615  0.5255 -0.1263
28518SOL    HW187322   9.327   4.847   3.399 -0.1160 -0.2397 -0.4765
28518SOL    HW287323   9.434   4.743   3.424  1.4725  1.5073  0.2721
28519SOL     OW87324   6.725   5.160   1.697 -0.1323  0.1838 -0.4819
28519SOL    HW187325   6.690   5.079   1.732  0.9143 -0.4986 -0.9713
28519SOL    HW287326   6.702   5.159   1.604  1.5870 -0.5562 -0.9500
28520SOL     OW87327   0.596   5.236   8.797  0.2480 -0.3315  0.0969
28520SOL    HW187328   0.517   5.184   8.783  0.6068 -0.8336 -0.1239
28520SOL    HW287329   0.588   5.310   8.738 -0.4169  0.0389  0.6368
28521SOL     OW87330   7.584   6.832   4.173  0.2508 -0.1640 -0.2599
28521SOL    HW187331   7.679   6.823   4.172  0.6021  2.3369 -3.0214
28521SOL    HW287332   7.566   6.911   4.122 -3.3058 -0.0155  0.9072
28522SOL     OW87333   4.591   8.018   8.525  0.2263  0.0572  0.5550
28522SOL    HW187334   4.591   8.092   8.586  1.3896 -0.0476  0.7001
28522SOL    HW287335   4.530   8.045   8.456 -0.0570  0.7654  1.0620
28523SOL     OW87336   5.839   5.079   0.736 -0.1955 -0.1657 -0.4269
28523SOL    HW187337   5.759   5.056   0.690 -0.0442  0.2361 -0.8982
28523SOL    HW287338   5.908   5.073   0.669  0.6267 -3.1951  0.5547
28524SOL     OW87339   7.736   1.685   0.515 -1.1420  0.0865  0.5951
28524SOL    HW187340   7.823   1.660   0.486 -1.4513  0.0126 -0.3081
28524SOL    HW287341   7.728   1.649   0.604 -0.2531  0.1191  0.6918
28525SOL     OW87342   1.651   9.811   6.747  0.1854  0.0272 -0.1163
28525SOL    HW187343   1.643   9.906   6.738 -0.6300 -0.1211 -1.1564
28525SOL    HW287344   1.590   9.788   6.818  0.4454  0.2867  0.1915
28526SOL     OW87345   4.176   5.725   9.054  0.6281  0.0615 -0.1745
28526SOL    HW187346   4.100   5.667   9.065  2.2916 -1.7530  2.8674
28526SOL    HW287347   4.145   5.811   9.083 -0.2678 -0.6686  1.1105
28527SOL     OW87348   7.344   6.906   3.981  0.6045  0.3182  0.0851
28527SOL    HW187349   7.392   6.988   3.991  0.1688  0.9309 -2.2429
28527SOL    HW287350   7.254   6.928   4.004  0.4442  0.5495 -0.7686
28528SOL     OW87351   2.878   9.075   8.219 -0.2307 -0.2293  0.1683
28528SOL    HW187352   2.788   9.094   8.192 -0.7870 -0.4266  1.7894
28528SOL    HW287353   2.932   9.111   8.148 -1.5587  0.3252 -0.6012
28529SOL     OW87354   7.252   7.658   4.889  0.3407 -0.3354 -0.3947
28529SOL    HW187355   7.287   7.620   4.969 -0.7820 -1.5000 -0.4348
28529SOL    HW287356   7.305   7.737   4.875  0.4935 -0.0533  1.5222
28530SOL     OW87357   2.036   5.324   0.909 -0.2745 -0.1538  0.0920
28530SOL    HW187358   2.009   5.379   0.983 -0.5147 -0.5712  0.3226
28530SOL    HW287359   1.954   5.285   0.878 -0.0673 -0.6447  0.1487
28531SOL     OW87360   8.851   3.157   1.820 -1.1090 -0.3608  0.1029
28531SOL    HW187361   8.946   3.150   1.809 -1.1434 -0.2637 -0.2867
28531SOL    HW287362   8.826   3.074   1.860 -0.4494  0.8956  3.3687
28532SOL     OW87363   1.399   1.029   1.297  0.4911  0.0184 -0.4530
28532SOL    HW187364   1.339   0.999   1.229  1.3687 -1.5423 -0.5977
28532SOL    HW287365   1.449   0.950   1.320  0.4700  0.6042  1.7352
28533SOL     OW87366   0.067   8.312   6.028 -0.0387 -0.7145  0.2705
28533SOL    HW187367  -0.026   8.318   6.047 -0.2842  1.3221 -1.2910
28533SOL    HW287368   0.108   8.377   6.085 -0.3298  2.4587 -2.7585
28534SOL     OW87369   4.230   0.611   4.555 -0.3996 -0.2120  0.1821
28534SOL    HW187370   4.258   0.636   4.643 -0.9065  1.2031 -0.0269
28534SOL    HW287371   4.290   0.658   4.497 -0.7111 -0.3293 -0.2380
28535SOL     OW87372   8.521   5.849   1.029  0.5536  0.4074  0.0540
28535SOL    HW187373   8.530   5.886   0.941 -0.8107  1.2400  0.2165
28535SOL    HW287374   8.577   5.903   1.084  2.1284 -0.6901 -0.4169
28536SOL     OW87375   0.966   6.141   6.390  0.0582  0.5668  0.1492
28536SOL    HW187376   1.023   6.105   6.458  0.7922  0.7144 -0.3740
28536SOL    HW287377   0.936   6.224   6.425  0.1976  0.5055  0.4143
28537SOL     OW87378   6.185   0.231   0.416  0.1747  0.2334 -0.4055
28537SOL    HW187379   6.093   0.219   0.394 -0.1740 -0.5796  1.3641
28537SOL    HW287380   6.216   0.144   0.441  1.0395  0.7365  0.3421
28538SOL     OW87381   3.975   0.239   8.983  0.0191 -0.0519  0.3078
28538SOL    HW187382   3.908   0.194   8.931 -0.2316 -1.9385  2.1489
28538SOL    HW287383   3.964   0.332   8.960 -0.8767 -0.6628 -2.0204
28539SOL     OW87384   0.053   0.490   2.059  0.2763 -0.2648 -0.5627
28539SOL    HW187385   0.143   0.469   2.034  0.2856 -1.6498  0.4956
28539SOL    HW287386   0.023   0.552   1.992  2.1739  0.6459 -0.6334
28540SOL     OW87387   1.043   6.912   2.732 -0.4990 -0.0511  0.4944
28540SOL    HW187388   0.966   6.901   2.788 -1.5047 -0.5252 -0.9413
28540SOL    HW287389   1.018   6.874   2.648  1.0061  0.5600 -0.2696
28541SOL     OW87390   6.650   9.194   0.515  0.3405  0.0895  0.1631
28541SOL    HW187391   6.616   9.107   0.536 -0.1159  0.4169  0.8053
28541SOL    HW287392   6.720   9.209   0.578  2.9966 -1.3013 -2.2144
28542SOL     OW87393   5.442   3.641   4.223 -0.1942 -0.0068 -0.2233
28542SOL    HW187394   5.516   3.624   4.281 -0.6105 -2.3272 -0.3136
28542SOL    HW287395   5.453   3.579   4.151 -0.6952  1.5758 -1.7399
28543SOL     OW87396   7.659   1.817   5.757 -0.0023  0.3549  0.8011
28543SOL    HW187397   7.697   1.855   5.678 -0.9536  0.2237  0.2656
28543SOL    HW287398   7.617   1.891   5.801 -2.4552 -0.1127 -0.5926
28544SOL     OW87399   0.584   7.264   0.532  0.4987 -0.3381 -0.0935
28544SOL    HW187400   0.597   7.169   0.536 -0.9032 -0.5114  1.3620
28544SOL    HW287401   0.631   7.297   0.608 -2.4014 -0.3773  1.8629
28545SOL     OW87402   6.859   1.847   9.724  0.4214 -0.2952  0.0003
28545SOL    HW187403   6.879   1.839   9.631 -1.4362 -0.8250 -0.3709
28545SOL    HW287404   6.829   1.761   9.750 -0.2852  0.1826  0.7941
28546SOL     OW87405   8.333   0.780   2.460  0.2993  0.4776  0.0802
28546SOL    HW187406   8.390   0.857   2.470 -0.1283  0.8192 -0.0602
28546SOL    HW287407   8.334   0.761   2.366  0.2880  0.4040  0.0948
28547SOL     OW87408   3.310   3.601   5.796 -0.1623 -0.2961  0.0600
28547SOL    HW187409   3.314   3.637   5.885 -0.5868 -0.6708  0.2354
28547SOL    HW287410   3.337   3.674   5.740  0.8048 -0.2723  0.5371
28548SOL     OW87411   1.566   1.051   4.415  0.2392 -0.0732 -0.3676
28548SOL    HW187412   1.549   1.013   4.329  0.2813 -1.1257  0.0725
28548SOL    HW287413   1.605   1.136   4.396 -2.7042  1.1571 -1.3820
28549SOL     OW87414   0.271   6.981   5.052  0.2110 -0.3442 -0.1645
28549SOL    HW187415   0.256   7.054   4.991 -0.0710  0.4191  0.8013
28549SOL    HW287416   0.210   6.913   5.023  0.5401 -0.2408 -1.1320
28550SOL     OW87417   2.076   8.462   6.920  0.2861 -0.0460 -0.1128
28550SOL    HW187418   2.052   8.542   6.873 -0.5189 -0.1141  0.1592
28550SOL    HW287419   2.083   8.396   6.851  0.6691  0.1973 -0.3079
28551SOL     OW87420   8.593   5.482   0.802  0.7384  0.4046  0.1157
28551SOL    HW187421   8.621   5.573   0.806 -0.9669  0.9338  2.7617
28551SOL    HW287422   8.584   5.456   0.893 -2.2428 -1.2516 -0.5140
28552SOL     OW87423   9.804   8.944   0.978 -0.3412 -0.0621  0.8623
28552SOL    HW187424   9.767   8.901   1.055 -2.1522 -0.3326 -0.1196
28552SOL    HW287425   9.809   8.875   0.912  0.0527  0.4468  0.3486
28553SOL     OW87426   8.312   6.250   1.283 -0.4552 -0.2067 -0.0267
28553SOL    HW187427   8.258   6.170   1.280 -0.4548 -0.2943  1.7007
28553SOL    HW287428   8.290   6.291   1.366  1.0864  0.5277  0.0494
28554SOL     OW87429   3.256   0.948   1.073  0.3762 -0.0822 -0.2369
28554SOL    HW187430   3.275   0.979   1.161  1.3963  1.2205 -0.8922
28554SOL    HW287431   3.161   0.956   1.064  0.2842 -0.0714  0.6641
28555SOL     OW87432   4.216   8.968   2.353  0.3446  0.6149  0.5351
28555SOL    HW187433   4.303   8.936   2.331  0.5534  0.5279  1.4321
28555SOL    HW287434   4.232   9.043   2.410 -0.1659  0.7758  0.4707
28556SOL     OW87435   0.227   0.509   5.939  0.4412 -0.8326  0.6541
28556SOL    HW187436   0.169   0.434   5.955  0.3716 -0.8577  0.2830
28556SOL    HW287437   0.257   0.498   5.849  0.7506 -0.6296  0.7299
28557SOL     OW87438   5.410   1.146   2.921 -0.2699 -0.0213  0.0599
28557SOL    HW187439   5.338   1.209   2.930 -2.7404 -2.5917 -0.1413
28557SOL    HW287440   5.468   1.164   2.995  0.2163  3.6199 -1.0141
28558SOL     OW87441   4.534   4.768   8.041 -0.5885 -0.2191 -0.0508
28558SOL    HW187442   4.463   4.829   8.022  0.1247  0.8882  0.7596
28558SOL    HW287443   4.601   4.787   7.975 -0.2527  0.0729  0.3692
28559SOL     OW87444   1.189   2.243   9.595  0.1662 -0.0145  0.1297
28559SOL    HW187445   1.204   2.337   9.591  0.4588 -0.0625  0.1309
28559SOL    HW287446   1.246   2.212   9.665 -0.7832 -0.0270  0.9208
28560SOL     OW87447   2.337   2.244   5.608 -0.2020  0.4955 -0.3799
28560SOL    HW187448   2.377   2.275   5.689 -0.1639 -0.3588 -0.0590
28560SOL    HW287449   2.263   2.303   5.594 -1.3008 -0.4108  1.2536
28561SOL     OW87450   0.151   8.466   4.898 -0.4982 -0.3893 -0.5795
28561SOL    HW187451   0.072   8.515   4.919  0.0138 -0.1297  0.8546
28561SOL    HW287452   0.163   8.478   4.804 -1.1134  1.1288 -0.4856
28562SOL     OW87453   9.393   7.014   6.372 -0.6359  0.3635  0.1513
28562SOL    HW187454   9.373   7.099   6.412 -0.4768  0.7520 -0.5845
28562SOL    HW287455   9.386   7.029   6.278 -3.1318 -1.0524  0.0176
28563SOL     OW87456   4.369   3.978   5.631  0.2115 -0.1528 -0.0494
28563SOL    HW187457   4.417   3.903   5.667  2.3347  0.8915 -0.5319
28563SOL    HW287458   4.429   4.052   5.642 -2.2835  1.7831  1.5230
28564SOL     OW87459   3.173   2.105   9.641  0.5307 -0.3744 -0.1447
28564SOL    HW187460   3.158   2.025   9.691 -2.3739 -0.9486 -1.6900
28564SOL    HW287461   3.199   2.075   9.554  0.3112  0.3649 -0.4776
28565SOL     OW87462   7.351   7.522   5.142 -0.2428  0.5043 -0.1139
28565SOL    HW187463   7.417   7.539   5.209 -0.0558 -0.4943 -0.0329
28565SOL    HW287464   7.346   7.427   5.136  1.2969  0.4870 -3.0460
28566SOL     OW87465   2.582   5.807   4.687 -0.1527  0.0187  0.3776
28566SOL    HW187466   2.506   5.865   4.687 -0.7287 -0.6897  1.4050
28566SOL    HW287467   2.557   5.733   4.632 -0.7334 -0.8132  1.6955
28567SOL     OW87468   4.662   4.054   7.152  0.2256 -0.0979  0.2513
28567SOL    HW187469   4.700   4.130   7.196  0.4789  0.0759 -0.2575
28567SOL    HW287470   4.628   4.089   7.069 -0.0982 -0.4504  0.2305
28568SOL     OW87471   0.016   7.961   5.924  0.1938  0.6128 -0.1902
28568SOL    HW187472  -0.049   7.920   5.866 -0.0218 -0.5349  0.8205
28568SOL    HW287473  -0.034   8.022   5.978 -0.1763 -0.6539  0.9497
28569SOL     OW87474   9.668   5.113   3.180 -0.6026 -0.3156 -0.3428
28569SOL    HW187475   9.581   5.088   3.151 -0.3019 -1.4470 -0.3172
28569SOL    HW287476   9.726   5.088   3.108 -0.3622  1.0468 -0.6431
28570SOL     OW87477   1.709   7.060   1.711 -0.5192 -0.1889 -0.0732
28570SOL    HW187478   1.717   7.020   1.798 -2.4478  0.3997  0.4167
28570SOL    HW287479   1.666   6.992   1.658 -0.5282 -0.0713 -0.2165
28571SOL     OW87480   0.616   2.881   3.288  0.0040  0.4690  0.2263
28571SOL    HW187481   0.635   2.941   3.360  0.6438  0.1601  0.3213
28571SOL    HW287482   0.604   2.796   3.330 -0.1978  0.3995  0.0254
28572SOL     OW87483   5.896   3.781   3.653  0.2793 -0.6026 -0.1742
28572SOL    HW187484   5.803   3.788   3.674  0.4443 -0.4756  0.5520
28572SOL    HW287485   5.926   3.872   3.647  0.3106 -0.6419 -0.6163
28573SOL     OW87486   1.163   5.365   0.227 -0.0572 -1.0375  0.1084
28573SOL    HW187487   1.236   5.314   0.262 -0.4186 -1.4695  0.2562
28573SOL    HW287488   1.121   5.306   0.164 -0.2648 -0.7881  0.0144
28574SOL     OW87489   4.495   3.055   7.372 -0.1881 -0.0120  0.2606
28574SOL    HW187490   4.574   3.005   7.391 -0.0580 -1.3855 -3.1097
28574SOL    HW287491   4.519   3.146   7.391  1.7006 -0.5522  0.6946
28575SOL     OW87492   0.063   2.588   9.772  0.7503 -0.1003  0.2724
28575SOL    HW187493   0.047   2.618   9.683 -0.1392  0.7723  0.7022
28575SOL    HW287494  -0.022   2.556   9.803  1.4676 -2.3332  0.1449
28576SOL     OW87495   8.549   5.058   9.441  0.1309  0.6751  0.3028
28576SOL    HW187496   8.556   5.147   9.405  0.7951  0.0053 -1.3542
28576SOL    HW287497   8.631   5.016   9.415 -0.6679 -0.7723  0.0146
28577SOL     OW87498   0.603   0.741   4.191  0.0460 -0.1143 -0.0319
28577SOL    HW187499   0.610   0.768   4.100 -0.3626  0.1811  0.0225
28577SOL    HW287500   0.523   0.782   4.223  0.7291  0.6412  0.7575
28578SOL     OW87501   8.835   3.996   5.906  0.0370 -0.3639 -0.2594
28578SOL    HW187502   8.823   3.930   5.837  0.3831 -0.9380  0.2138
28578SOL    HW287503   8.878   4.069   5.862  1.6465 -1.3130 -0.3861
28579SOL     OW87504   6.721   6.735   6.286 -0.4109  0.1055  0.3577
28579SOL    HW187505   6.775   6.812   6.304 -0.3374 -0.1900  1.4927
28579SOL    HW287506   6.778   6.661   6.309  0.0279 -0.3762 -2.0258
28580SOL     OW87507   1.742   2.369   0.309 -0.7697  0.7687 -0.2462
28580SOL    HW187508   1.801   2.350   0.236  0.3226 -1.2390  1.0558
28580SOL    HW287509   1.759   2.461   0.331  1.1666  0.5383 -0.5712
28581SOL     OW87510   8.549   2.049   4.737 -0.4493  0.4745  0.2182
28581SOL    HW187511   8.524   1.973   4.790 -0.7305  1.0039  0.8726
28581SOL    HW287512   8.510   2.033   4.651 -1.4686  0.3861  0.6739
28582SOL     OW87513   4.770   9.405   9.011  0.2618  0.5293 -0.0559
28582SOL    HW187514   4.693   9.457   9.032 -1.3197 -1.7634  0.1220
28582SOL    HW287515   4.802   9.443   8.929 -1.5375  1.0234 -0.5779
28583SOL     OW87516   9.830   3.234   7.286  0.2480 -0.2726  0.2169
28583SOL    HW187517   9.811   3.325   7.260  0.7991 -0.5642 -1.2669
28583SOL    HW287518   9.849   3.240   7.380  2.5075  1.5145 -0.2658
28584SOL     OW87519   0.012   8.842   5.489 -0.0861  0.1656  0.7517
28584SOL    HW187520   0.032   8.750   5.504 -0.4425  0.0700  0.6674
28584SOL    HW287521   0.022   8.853   5.394 -1.7330 -0.2264  0.4931
28585SOL     OW87522   0.541   5.433   7.665 -0.1650  0.1912  0.0597
28585SOL    HW187523   0.447   5.422   7.677 -0.4332 -0.6124 -2.2395
28585SOL    HW287524   0.559   5.521   7.699 -2.0971  1.0940 -1.0568
28586SOL     OW87525   8.168   0.248   0.900  0.1945 -0.5522  0.2715
28586SOL    HW187526   8.208   0.285   0.979  0.9207 -1.6067  0.4354
28586SOL    HW287527   8.228   0.272   0.830 -0.2635  0.0784  0.0906
28587SOL     OW87528   4.378   7.649   6.857  0.2558 -0.1767  0.5816
28587SOL    HW187529   4.340   7.719   6.803 -0.6213 -0.6211  0.6084
28587SOL    HW287530   4.469   7.643   6.828  0.5302  1.4034  1.0204
28588SOL     OW87531   3.217   1.834   8.545 -0.1120 -0.1336 -0.2310
28588SOL    HW187532   3.168   1.764   8.503 -0.4512 -0.0577  0.0297
28588SOL    HW287533   3.149   1.890   8.585  0.2250 -0.8202  1.4031
28589SOL     OW87534   4.392   9.562   5.731 -0.5343 -0.2008  0.1358
28589SOL    HW187535   4.432   9.626   5.672  0.3090 -1.0582 -0.2575
28589SOL    HW287536   4.300   9.586   5.733 -0.1967  1.1803  0.2047
28590SOL     OW87537   9.180   3.446   3.434  0.0171  0.3858 -0.3630
28590SOL    HW187538   9.112   3.446   3.366 -0.4899 -4.2717 -0.1776
28590SOL    HW287539   9.134   3.471   3.514 -0.9073 -0.2013 -0.6946
28591SOL     OW87540   9.423   3.502   6.164 -0.3228 -0.0319  0.2239
28591SOL    HW187541   9.455   3.416   6.193  1.9616  0.7114  0.1421
28591SOL    HW287542   9.377   3.537   6.240 -0.0408 -0.7493  0.7384
28592SOL     OW87543   9.400   0.211   0.744  0.5237 -0.0212  0.3527
28592SOL    HW187544   9.395   0.227   0.839 -0.4247 -3.2711  0.9623
28592SOL    HW287545   9.483   0.165   0.732  1.4221  1.7607 -0.7324
28593SOL     OW87546   4.993   5.412   2.476 -0.1280 -0.6504 -0.5839
28593SOL    HW187547   4.960   5.480   2.534 -0.1351 -0.7017 -0.5275
28593SOL    HW287548   5.033   5.459   2.403 -1.0483 -0.5847 -1.0679
28594SOL     OW87549   2.996   3.602   5.656  0.2429 -0.2117 -0.0111
28594SOL    HW187550   3.073   3.571   5.704 -0.0190 -1.4460 -0.3610
28594SOL    HW287551   3.017   3.693   5.634  2.1988 -0.8918 -1.2781
28595SOL     OW87552   7.656   9.239   0.471 -0.2173 -0.1140 -0.1588
28595SOL    HW187553   7.633   9.146   0.469 -1.3663  0.1574 -0.2955
28595SOL    HW287554   7.745   9.241   0.507  0.5828 -1.3887 -1.9321
28596SOL     OW87555   0.580   6.950   4.383 -0.4413 -0.1827 -0.1985
28596SOL    HW187556   0.540   6.967   4.468 -1.0456  1.2572 -0.7443
28596SOL    HW287557   0.547   7.019   4.326  1.0172 -0.3060 -1.2673
28597SOL     OW87558   8.052   5.247   9.408  0.0671  0.4180  0.0715
28597SOL    HW187559   8.126   5.235   9.348  0.5274 -0.6503  0.8167
28597SOL    HW287560   8.092   5.279   9.489 -0.1947 -0.7055  0.6648
28598SOL     OW87561   8.987   3.514   1.919  0.0409  0.6020  0.5441
28598SOL    HW187562   9.018   3.566   1.845  1.8231 -0.9810  0.1210
28598SOL    HW287563   9.061   3.510   1.979 -0.3863 -0.6142  1.0331
28599SOL     OW87564   6.707   3.059   2.797  0.3312 -0.1315  0.0010
28599SOL    HW187565   6.626   3.014   2.819 -0.2301  0.3307 -1.0814
28599SOL    HW287566   6.773   3.016   2.851 -0.6405 -0.4225  0.9991
28600SOL     OW87567   3.173   9.079   8.804  0.0023  0.1671  0.7304
28600SOL    HW187568   3.236   9.013   8.776 -0.4822 -0.1695  0.4066
28600SOL    HW287569   3.096   9.029   8.831  0.2062  0.5213  2.0196
28601SOL     OW87570   3.880   9.069   6.420  0.3099  0.1055 -0.2543
28601SOL    HW187571   3.973   9.087   6.436 -0.3172  1.8055  1.8186
28601SOL    HW287572   3.853   9.013   6.493 -0.4360  0.0522 -0.5646
28602SOL     OW87573   0.523   1.612   2.851 -0.6203 -0.2998  0.5906
28602SOL    HW187574   0.579   1.536   2.868  0.3771 -0.2306 -1.9875
28602SOL    HW287575   0.441   1.574   2.819 -1.7265 -0.3565  3.2572
28603SOL     OW87576   0.291   5.359   1.946 -0.0666 -0.1998  0.0551
28603SOL    HW187577   0.232   5.429   1.975 -0.4825 -1.6945  3.1851
28603SOL    HW287578   0.379   5.393   1.962 -0.2625 -0.2207  1.2855
28604SOL     OW87579   9.761   8.502   6.374  0.1748  0.2998 -0.4481
28604SOL    HW187580   9.755   8.417   6.417  2.0474  0.6333  0.6000
28604SOL    HW287581   9.760   8.565   6.446  0.9906  1.0275 -1.0561
28605SOL     OW87582   6.649   0.699   1.206 -0.4929  0.1890  0.2402
28605SOL    HW187583   6.610   0.612   1.205 -0.1692  0.0171  1.6500
28605SOL    HW287584   6.574   0.759   1.207 -0.7187 -0.0989  0.6401
28606SOL     OW87585   4.295   8.333   5.953  0.6350  0.1647 -0.1942
28606SOL    HW187586   4.338   8.328   6.038  0.2364 -1.0895 -0.0483
28606SOL    HW287587   4.230   8.402   5.963 -0.2511 -0.7936  0.9201
28607SOL     OW87588   4.503   2.616   1.106 -0.1501 -0.6607  0.0652
28607SOL    HW187589   4.495   2.618   1.202 -0.3763  0.4899  0.0367
28607SOL    HW287590   4.587   2.573   1.090  0.3804  0.0729  0.8208
28608SOL     OW87591   0.297   1.390   9.809 -0.2444 -0.5065 -0.2602
28608SOL    HW187592   0.387   1.407   9.838 -0.7054  0.2370  0.7690
28608SOL    HW287593   0.305   1.380   9.714  0.9382 -0.5573 -0.1764
28609SOL     OW87594   9.785   0.913   3.047  0.0823 -0.3109  0.0617
28609SOL    HW187595   9.829   0.997   3.038  0.6228 -0.4568  1.0889
28609SOL    HW287596   9.764   0.886   2.958  0.8039  0.4398 -0.3459
28610SOL     OW87597   8.100   6.254   6.742 -0.2040  0.4411  0.1239
28610SOL    HW187598   8.193   6.258   6.764  0.3893 -1.4801 -1.7192
28610SOL    HW287599   8.068   6.175   6.787 -0.7146  0.5654 -0.0195
28611SOL     OW87600   9.037   2.500   3.639  0.2619  0.1299  0.9847
28611SOL    HW187601   9.108   2.551   3.678 -0.4746 -0.2650  2.9659
28611SOL    HW287602   8.972   2.565   3.613  0.6120  0.3799  0.7234
28612SOL     OW87603   5.446   9.271   0.621  0.6690  0.8657  0.1279
28612SOL    HW187604   5.436   9.362   0.595 -1.6886  0.1891 -1.6675
28612SOL    HW287605   5.425   9.270   0.715 -1.3776  1.9193 -0.2689
28613SOL     OW87606   3.792   6.325   9.574 -0.2795 -0.5767  0.2389
28613SOL    HW187607   3.832   6.243   9.601  0.4162 -1.6264 -3.4120
28613SOL    HW287608   3.866   6.383   9.555 -0.7587  0.8969  2.4383
28614SOL     OW87609   4.612   0.152   7.529  0.3249 -0.1693  0.1480
28614SOL    HW187610   4.543   0.218   7.535 -0.0836 -0.7023  2.1561
28614SOL    HW287611   4.693   0.200   7.543  0.1551  0.1303  0.1046
28615SOL     OW87612   5.730   0.546   6.289 -0.1304 -0.5399 -0.0810
28615SOL    HW187613   5.672   0.504   6.226  0.2870 -0.4181 -0.5536
28615SOL    HW287614   5.781   0.474   6.326 -0.2446 -0.5898 -0.0215
28616SOL     OW87615   7.283   5.931   2.720  0.7142  0.1934 -0.4206
28616SOL    HW187616   7.280   5.836   2.724  1.6471  0.1339 -0.8496
28616SOL    HW287617   7.361   5.950   2.668  0.1456  1.1748 -0.9444
28617SOL     OW87618   9.443   4.576   9.700  0.0798  0.7604  0.0026
28617SOL    HW187619   9.463   4.598   9.791  1.6193 -0.8687  0.1231
28617SOL    HW287620   9.363   4.525   9.704 -0.0084  0.9321  0.4187
28618SOL     OW87621   7.162   7.723   5.831  0.2149  0.1068  0.4884
28618SOL    HW187622   7.197   7.634   5.828 -2.9722 -1.2364 -1.0716
28618SOL    HW287623   7.137   7.736   5.922  0.2020 -0.8106  0.6236
28619SOL     OW87624   7.725   6.324   3.516  0.1246  0.0592  0.3017
28619SOL    HW187625   7.769   6.332   3.600  2.6648 -1.9439 -0.6979
28619SOL    HW287626   7.654   6.262   3.531 -0.1540  0.5913  1.1982
28620SOL     OW87627   9.711   2.620   4.358  0.0664  0.5760  0.5069
28620SOL    HW187628   9.664   2.556   4.305 -1.2192  1.3972  0.6169
28620SOL    HW287629   9.692   2.704   4.317  0.6938  1.0211  1.1046
28621SOL     OW87630   4.892   8.543   0.713 -0.1651 -0.2003  0.3700
28621SOL    HW187631   4.892   8.496   0.796  1.5336 -0.8175  0.0624
28621SOL    HW287632   4.969   8.601   0.718  0.3772 -0.7480 -1.0076
28622SOL     OW87633   8.396   9.741   4.587  0.1321 -0.4735 -0.1466
28622SOL    HW187634   8.429   9.793   4.660  1.8880 -2.5679  0.6883
28622SOL    HW287635   8.308   9.715   4.614 -0.3985  1.1909 -0.1581
28623SOL     OW87636   3.783   5.908   9.360  0.5325  0.0800  0.1972
28623SOL    HW187637   3.738   5.991   9.343  0.8173  0.5145  1.4574
28623SOL    HW287638   3.876   5.929   9.358  0.6295 -0.3577 -0.1487
28624SOL     OW87639   3.742   5.603   3.670  0.1097 -0.1219 -0.4909
28624SOL    HW187640   3.763   5.632   3.581 -0.6334  0.6929 -0.4129
28624SOL    HW287641   3.826   5.604   3.716  0.8247 -2.1828 -1.6014
28625SOL     OW87642   2.401   3.742   8.569  0.0497 -0.3025  0.8767
28625SOL    HW187643   2.482   3.756   8.519  2.1221  0.2222  4.0618
28625SOL    HW287644   2.331   3.761   8.507  2.3097 -1.0489 -2.1602
28626SOL     OW87645   2.236   5.594   5.291 -0.2911  0.4031  0.2365
28626SOL    HW187646   2.307   5.650   5.323 -0.1765  0.3266  0.1141
28626SOL    HW287647   2.275   5.542   5.221 -0.3183 -0.0602  0.5637
28627SOL     OW87648   1.735   0.963   0.186 -0.3519  0.5417 -0.1470
28627SOL    HW187649   1.808   1.024   0.199  0.4146 -0.1801 -0.8811
28627SOL    HW287650   1.718   0.927   0.274  1.1080 -0.2762 -0.1527
28628SOL     OW87651   7.819   3.393   6.131 -1.0132 -0.2343  0.7078
28628SOL    HW187652   7.845   3.366   6.220  1.2795 -0.9621 -0.1158
28628SOL    HW287653   7.810   3.311   6.083  2.9769  0.0738 -1.0108
28629SOL     OW87654   5.799   7.578   9.066  0.3799 -0.3611 -0.0497
28629SOL    HW187655   5.718   7.624   9.089  0.3066 -0.5662  0.1099
28629SOL    HW287656   5.853   7.585   9.145  0.7767  0.3278 -0.3713
28630SOL     OW87657   4.280   7.326   4.551 -0.3597 -0.1418 -0.2450
28630SOL    HW187658   4.202   7.379   4.535 -0.6565 -0.8835 -1.3799
28630SOL    HW287659   4.353   7.384   4.530 -0.6732 -0.0626 -1.1710
28631SOL     OW87660   3.395   6.042   5.994 -0.3302  0.3917  0.7968
28631SOL    HW187661   3.464   6.036   6.061 -1.5976 -0.1932  2.0851
28631SOL    HW287662   3.366   5.952   5.981 -0.8951  0.6422  0.2953
28632SOL     OW87663   0.216   9.181   5.550  0.1517  0.8488  0.1666
28632SOL    HW187664   0.310   9.188   5.535 -0.1936  1.9412 -1.8489
28632SOL    HW287665   0.201   9.087   5.561  1.3888  0.5867 -0.2203
28633SOL     OW87666   6.184   3.336   9.035 -0.0488 -1.1559  0.2700
28633SOL    HW187667   6.125   3.320   8.961 -1.0060  0.4691  0.6309
28633SOL    HW287668   6.269   3.351   8.995 -0.6121 -0.0206 -0.5744
28634SOL     OW87669   7.069   7.550   8.523  0.3154  0.2686  0.1707
28634SOL    HW187670   7.153   7.583   8.555 -0.2756  0.8934  1.1226
28634SOL    HW287671   7.062   7.462   8.562 -0.1691  0.8276  1.3917
28635SOL     OW87672   3.057   6.056   2.369  0.3395  0.0889 -0.1165
28635SOL    HW187673   3.044   5.973   2.415 -1.2492  0.2163 -0.2959
28635SOL    HW287674   3.033   6.123   2.434  1.3852  0.4127 -0.0497
28636SOL     OW87675   6.437   0.704   7.628  0.3662  0.2298  0.0301
28636SOL    HW187676   6.518   0.746   7.656  0.2300  0.8342 -0.4422
28636SOL    HW287677   6.433   0.722   7.534 -1.2315  1.8528  0.3358
28637SOL     OW87678   4.934   6.066   0.187  0.2677  0.8029  0.2356
28637SOL    HW187679   4.870   6.094   0.252 -0.1183  0.4936 -0.0008
28637SOL    HW287680   4.945   5.972   0.203  0.2644  0.7492 -0.0579
28638SOL     OW87681   2.969   9.756   4.807 -0.1569  0.3913  0.1618
28638SOL    HW187682   2.986   9.785   4.896 -1.5894 -0.7363  0.8487
28638SOL    HW287683   2.882   9.790   4.786 -1.3910 -2.2305  0.5714
28639SOL     OW87684   3.935   4.678   4.463  0.5849 -0.1440 -0.4688
28639SOL    HW187685   4.017   4.687   4.415 -0.0981 -0.9980 -1.8276
28639SOL    HW287686   3.881   4.622   4.409 -1.4685  1.5816 -0.3121
28640SOL     OW87687   5.782   2.266   9.584  0.1042  0.8249  0.5224
28640SOL    HW187688   5.814   2.176   9.592 -0.9515  0.4631  0.8015
28640SOL    HW287689   5.768   2.278   9.490 -1.4516  0.0595  0.6152
28641SOL     OW87690   0.105   0.421   9.393 -0.1407 -0.0543 -0.6296
28641SOL    HW187691   0.079   0.393   9.306 -2.9134  1.2726 -0.3263
28641SOL    HW287692   0.025   0.419   9.445  1.2371  0.0885  1.6597
28642SOL     OW87693   8.589   9.617   8.421  0.4828  0.5865  0.0858
28642SOL    HW187694   8.578   9.525   8.443 -0.7269  0.3084 -1.5031
28642SOL    HW287695   8.684   9.630   8.419  0.8443 -1.4783 -2.6973
28643SOL     OW87696   0.210   4.173   6.794  0.1838 -0.4633  0.0561
28643SOL    HW187697   0.139   4.230   6.766 -0.8614 -1.0438  1.4373
28643SOL    HW287698   0.180   4.085   6.775  0.4845 -0.7237  0.7531
28644SOL     OW87699   8.058   6.530   8.827 -0.8469  0.0103 -0.7242
28644SOL    HW187700   8.124   6.526   8.897 -2.1302  0.1815  0.5408
28644SOL    HW287701   8.074   6.451   8.775  0.2393 -0.0373 -0.3553
28645SOL     OW87702   7.082   6.909   3.681  0.1332  0.6159 -0.0030
28645SOL    HW187703   7.009   6.853   3.652 -0.2869  0.9035  0.4871
28645SOL    HW287704   7.081   6.983   3.620  0.7043  0.0864 -0.6670
28646SOL     OW87705   0.763   7.458   7.961 -0.0853  0.0457 -0.4228
28646SOL    HW187706   0.855   7.434   7.968  0.1703  1.1616  0.0846
28646SOL    HW287707   0.763   7.540   7.912 -0.6019  1.3587  1.6597
28647SOL     OW87708   3.911   0.507   0.039 -1.0152 -0.0046  0.0466
28647SOL    HW187709   3.920   0.592   0.082 -0.5452  0.0336 -0.1243
28647SOL    HW287710   3.833   0.468   0.079 -0.4183 -0.0933  1.1516
28648SOL     OW87711   1.175   6.574   6.532  0.2361 -0.2552  0.1198
28648SOL    HW187712   1.208   6.517   6.462  2.6462 -0.0973  1.0359
28648SOL    HW287713   1.163   6.515   6.607 -0.5909 -0.1225  0.0966
28649SOL     OW87714   3.823   7.175   4.037  0.1822  0.3409 -0.2649
28649SOL    HW187715   3.901   7.131   4.071  0.3023 -0.4742 -1.5252
28649SOL    HW287716   3.852   7.265   4.021  0.4895  0.3863  0.4926
28650SOL     OW87717   4.697   6.810   9.351 -0.2580  0.6465  0.5809
28650SOL    HW187718   4.619   6.754   9.358  0.2885 -0.0885  0.9090
28650SOL    HW287719   4.672   6.890   9.399 -0.3371 -0.1346  1.9014
28651SOL     OW87720   9.217   4.875   9.084 -0.5410 -0.0972  0.3917
28651SOL    HW187721   9.135   4.924   9.083 -0.6742 -0.3129  0.5580
28651SOL    HW287722   9.231   4.853   9.176 -0.9709 -1.1668  0.2177
28652SOL     OW87723   2.232   7.755   4.390  0.2291 -0.4830 -0.4274
28652SOL    HW187724   2.287   7.679   4.408  0.1680 -1.0496 -2.3414
28652SOL    HW287725   2.154   7.743   4.443  1.1374 -0.6189  0.9277
28653SOL     OW87726   3.288   2.469   1.970 -0.2525 -0.7256  0.5436
28653SOL    HW187727   3.223   2.463   2.041 -0.8916 -1.2506 -0.0764
28653SOL    HW287728   3.269   2.394   1.914 -0.3012  0.1640 -0.6552
28654SOL     OW87729   1.303   0.479   3.548 -0.1848 -0.1821  0.2915
28654SOL    HW187730   1.220   0.509   3.583 -0.4959 -0.6726 -0.0191
28654SOL    HW287731   1.290   0.478   3.453 -0.1209 -1.1021  0.2828
28655SOL     OW87732   0.373   4.532   0.800  0.3749  0.1820  0.0446
28655SOL    HW187733   0.430   4.602   0.833  1.1415  0.5754 -1.9520
28655SOL    HW287734   0.402   4.454   0.847  1.5182  0.6773  0.2019
28656SOL     OW87735   3.573   0.913   0.766 -0.3128  0.8919  0.1779
28656SOL    HW187736   3.639   0.910   0.697 -2.7231  2.4604 -2.4223
28656SOL    HW287737   3.554   1.007   0.777 -3.1898  0.4730 -0.3995
28657SOL     OW87738   2.803   1.906   7.078  0.3203 -0.3348  0.0182
28657SOL    HW187739   2.868   1.964   7.038 -0.1137  0.5542  0.5632
28657SOL    HW287740   2.752   1.872   7.004  0.7415 -0.2174 -0.3302
28658SOL     OW87741   7.192   4.267   5.543  0.5284  0.2759 -0.0389
28658SOL    HW187742   7.286   4.286   5.538  0.8414 -0.9586  0.6249
28658SOL    HW287743   7.167   4.295   5.631  0.6579 -0.8771  0.3844
28659SOL     OW87744   6.447   1.295   2.087  0.2122  0.4744  0.1750
28659SOL    HW187745   6.536   1.293   2.122  0.8546 -2.5153 -1.3456
28659SOL    HW287746   6.457   1.324   1.996 -0.5881  1.3923  0.3529
28660SOL     OW87747   0.681   9.596   3.225  0.3646  0.2451  0.0771
28660SOL    HW187748   0.683   9.667   3.289 -0.9705  1.2224 -0.9138
28660SOL    HW287749   0.766   9.601   3.181  0.4229  0.9981  0.2674
28661SOL     OW87750   9.274   9.204   6.825  0.2533  0.0874  0.0198
28661SOL    HW187751   9.222   9.163   6.756  2.6368 -1.4351 -0.9905
28661SOL    HW287752   9.266   9.146   6.900  0.9218 -0.4501 -0.3185
28662SOL     OW87753   7.426   3.063   8.217  0.0219  0.6215 -0.4412
28662SOL    HW187754   7.406   3.150   8.183  0.4074  0.7367 -0.3772
28662SOL    HW287755   7.402   3.068   8.310 -1.9990  0.0002 -0.8702
28663SOL     OW87756   6.103   9.313   3.044 -0.0957 -0.1111 -0.1851
28663SOL    HW187757   6.052   9.301   3.124  1.4792  1.1773  1.0894
28663SOL    HW287758   6.039   9.307   2.973 -1.6935 -0.3526  1.2219
28664SOL     OW87759   7.304   3.054   2.602  0.1425  0.1587 -0.4485
28664SOL    HW187760   7.277   3.000   2.527 -0.6113 -1.4900  0.9254
28664SOL    HW287761   7.390   3.087   2.578  1.1514 -2.5659 -0.9973
28665SOL     OW87762   1.638   7.269   6.795 -0.2457 -0.2053 -0.3331
28665SOL    HW187763   1.686   7.335   6.745  2.0423 -1.3719  0.1763
28665SOL    HW287764   1.599   7.318   6.867  1.3194  0.6476 -0.0095
28666SOL     OW87765   4.530   6.297   7.201  0.6177 -0.0764  0.9293
28666SOL    HW187766   4.446   6.342   7.207 -0.2339 -1.5205  0.3664
28666SOL    HW287767   4.532   6.239   7.277  1.4226  0.4312  1.3123
28667SOL     OW87768   8.263   4.878   8.193  0.2904  0.5939 -0.3508
28667SOL    HW187769   8.205   4.947   8.225  0.5891  0.9008 -0.4727
28667SOL    HW287770   8.345   4.922   8.172  0.5127  0.1895 -0.3525
28668SOL     OW87771   6.931   4.575   0.932  0.3711  0.5550 -0.2926
28668SOL    HW187772   6.869   4.502   0.922  0.8969  0.1834 -0.8837
28668SOL    HW287773   6.924   4.624   0.850  1.8885 -0.3056 -0.9757
28669SOL     OW87774   9.658   5.402   9.301 -0.0456 -0.3291 -0.2905
28669SOL    HW187775   9.651   5.382   9.208 -0.1988 -0.7938 -0.1816
28669SOL    HW287776   9.690   5.321   9.341  1.2151  0.2381 -0.0969
28670SOL     OW87777   7.965   4.211   4.953  0.0055  0.6449 -0.1657
28670SOL    HW187778   7.884   4.245   4.913 -0.3156 -1.2023 -1.2190
28670SOL    HW287779   8.035   4.265   4.916 -0.5745  1.0285 -0.7251
28671SOL     OW87780   4.774   6.226   2.202 -0.0149  0.0394 -0.0477
28671SOL    HW187781   4.686   6.201   2.175 -0.0303 -0.9413  0.8664
28671SOL    HW287782   4.784   6.316   2.170 -0.3640 -0.7108 -2.4654
28672SOL     OW87783   4.412   7.460   6.373  0.3659  0.1391 -0.0655
28672SOL    HW187784   4.487   7.454   6.314 -0.1540 -1.6809 -0.6183
28672SOL    HW287785   4.440   7.414   6.452 -0.0777 -0.3565 -0.1894
28673SOL     OW87786   0.217   7.035   4.678 -0.0875  0.2949 -0.1025
28673SOL    HW187787   0.126   7.063   4.662 -0.0322  0.3940 -0.2394
28673SOL    HW287788   0.249   7.098   4.743  0.0973  0.6646 -0.5516
28674SOL     OW87789   4.488   6.194   8.366  0.1152 -0.0288  0.4997
28674SOL    HW187790   4.465   6.143   8.288 -0.7602  0.0738  0.6805
28674SOL    HW287791   4.518   6.129   8.429 -0.8115 -0.3120  0.6626
28675SOL     OW87792   6.847   6.484   6.333 -0.3368 -0.2452 -0.0158
28675SOL    HW187793   6.834   6.504   6.426  1.1355  3.2772 -0.3998
28675SOL    HW287794   6.759   6.469   6.299 -1.1119  0.4269  1.5796
28676SOL     OW87795   0.749   7.050   8.752 -0.1643  0.0055 -0.4981
28676SOL    HW187796   0.839   7.019   8.760 -0.8264 -1.5091  1.7722
28676SOL    HW287797   0.758   7.142   8.726  2.0112 -0.2311 -0.7548
28677SOL     OW87798   8.579   0.752   7.981  0.0513  0.3499  0.3220
28677SOL    HW187799   8.642   0.823   7.997  0.8683  0.4794 -2.8494
28677SOL    HW287800   8.632   0.681   7.945 -1.2931 -0.5003 -0.0514
28678SOL     OW87801   8.316   6.942   2.063 -0.5319 -0.1099  0.3490
28678SOL    HW187802   8.220   6.939   2.058 -0.5034  0.6550 -3.0728
28678SOL    HW287803   8.343   6.853   2.040 -0.4332  0.2503 -0.9731
28679SOL     OW87804   1.640   6.565   1.284 -0.0141 -0.0927  0.1230
28679SOL    HW187805   1.550   6.583   1.257  0.4966  0.8895 -1.0260
28679SOL    HW287806   1.657   6.475   1.256 -0.4499 -0.0812 -0.1791
28680SOL     OW87807   6.157   7.726   8.542  0.1906 -0.0290 -0.6652
28680SOL    HW187808   6.101   7.762   8.473 -1.0838 -0.1096  0.2959
28680SOL    HW287809   6.126   7.635   8.552  0.1351  0.0850  0.2321
28681SOL     OW87810   5.489   5.022   3.909 -0.7626  0.2783 -0.7576
28681SOL    HW187811   5.472   5.117   3.910  0.0513  0.4505 -1.6410
28681SOL    HW287812   5.523   5.005   3.821 -0.7427 -0.8097 -0.5488
28682SOL     OW87813   1.405   1.242   7.015  0.3910  0.2131  0.9216
28682SOL    HW187814   1.472   1.197   6.964  1.4830  0.7167  1.8639
28682SOL    HW287815   1.322   1.211   6.978  1.0649  1.5505 -2.0637
28683SOL     OW87816   7.168   2.367   1.449 -0.1401 -0.0261 -0.1132
28683SOL    HW187817   7.089   2.417   1.469  0.7404  1.1199  0.6201
28683SOL    HW287818   7.167   2.294   1.510 -1.1762 -0.6527 -0.8505
28684SOL     OW87819   1.935   4.085   8.249 -0.0409 -0.6005 -0.0191
28684SOL    HW187820   1.906   4.025   8.180 -0.1805  1.6392 -2.0426
28684SOL    HW287821   1.855   4.131   8.276  0.4857  0.8198 -0.7621
28685SOL     OW87822   7.338   6.019   5.892 -0.2941  0.3454  0.0015
28685SOL    HW187823   7.271   6.012   5.824 -1.7059  1.8263  1.1606
28685SOL    HW287824   7.379   5.932   5.895 -2.8792 -0.9533 -0.0237
28686SOL     OW87825   2.625   9.251   7.135 -0.4614  0.3826 -0.6020
28686SOL    HW187826   2.606   9.163   7.169 -1.2695  1.1451  1.0032
28686SOL    HW287827   2.554   9.267   7.072 -1.1280  0.4296  0.1476
28687SOL     OW87828   5.339   6.836   1.798  0.2213  0.1607 -0.2389
28687SOL    HW187829   5.269   6.848   1.733  0.4200 -2.7591 -1.1508
28687SOL    HW287830   5.327   6.746   1.829  3.0242 -0.1191  0.2560
28688SOL     OW87831   7.886   3.097   4.244 -0.0419  0.1524 -1.0461
28688SOL    HW187832   7.889   3.052   4.160  1.6932 -1.0832 -0.3934
28688SOL    HW287833   7.802   3.072   4.283 -0.6077  0.2884 -2.1666
28689SOL     OW87834   1.378   6.559   1.898 -0.3071 -0.1101 -0.0976
28689SOL    HW187835   1.338   6.539   1.983 -0.2355 -1.7251 -0.4165
28689SOL    HW287836   1.305   6.556   1.836 -0.2477  0.3797 -0.1925
28690SOL     OW87837   4.161   6.627   7.026  0.3137  0.4636  0.1063
28690SOL    HW187838   4.080   6.610   6.979  0.9427 -0.0888 -0.8038
28690SOL    HW287839   4.133   6.664   7.110 -0.9206 -0.6900  0.2296
28691SOL     OW87840   8.230   2.042   7.440  0.0175  0.1471  0.0205
28691SOL    HW187841   8.163   2.056   7.374  0.1647 -2.0401 -0.6931
28691SOL    HW287842   8.309   2.020   7.389  0.0661 -1.8413  0.8735
28692SOL     OW87843   3.163   0.647   2.289 -0.2314  0.3951  0.3018
28692SOL    HW187844   3.225   0.626   2.359 -0.1416  0.8968  0.3813
28692SOL    HW287845   3.164   0.743   2.284  1.7781  0.3475 -2.2024
28693SOL     OW87846   2.237   4.665   9.668 -0.2639  0.4571 -0.6794
28693SOL    HW187847   2.185   4.736   9.632 -1.0262 -0.0487 -0.6075
28693SOL    HW287848   2.276   4.702   9.748  0.8872  1.3639 -1.6297
28694SOL     OW87849   3.052   2.388   3.410  0.4264  0.2976  0.3551
28694SOL    HW187850   3.068   2.482   3.409 -0.4458  0.4501 -0.0634
28694SOL    HW287851   3.117   2.353   3.348  1.2372  0.5226  1.0550
28695SOL     OW87852   2.027   3.062   4.359 -0.0181 -0.4479 -0.6537
28695SOL    HW187853   1.932   3.070   4.355 -0.0997 -1.6696 -2.4297
28695SOL    HW287854   2.044   3.002   4.431 -0.5970 -0.4478 -0.5164
28696SOL     OW87855   8.595   4.796   3.285 -0.0889  0.4572  0.3826
28696SOL    HW187856   8.633   4.852   3.218 -1.4420  1.8507  0.7191
28696SOL    HW287857   8.552   4.856   3.346 -0.8192 -0.8943  1.2785
28697SOL     OW87858   7.600   1.030   5.513  0.3698  0.6812  0.1180
28697SOL    HW187859   7.548   1.057   5.437  2.4984  1.3598 -1.2087
28697SOL    HW287860   7.648   1.109   5.538 -0.0001  0.3647  1.9805
28698SOL     OW87861   7.176   6.538   6.383  0.0654 -0.1546  0.0494
28698SOL    HW187862   7.154   6.617   6.334  1.6447  0.8262  0.8424
28698SOL    HW287863   7.129   6.548   6.466  0.9150  0.3669  0.4742
28699SOL     OW87864   6.580   6.977   1.189 -0.1894 -0.2330 -0.1481
28699SOL    HW187865   6.603   6.891   1.223 -0.3461 -1.1130 -2.1599
28699SOL    HW287866   6.513   7.010   1.249  0.6036 -1.0319  1.2291
28700SOL     OW87867   8.830   7.111   1.502 -0.0576  0.0862 -0.1966
28700SOL    HW187868   8.881   7.192   1.513 -0.4379  0.4752 -1.1372
28700SOL    HW287869   8.765   7.113   1.572  0.0842  0.4893 -0.0747
28701SOL     OW87870   4.415   6.757   4.127 -0.5350 -0.3540  0.4009
28701SOL    HW187871   4.359   6.681   4.112  0.3249 -1.2547  1.5333
28701SOL    HW287872   4.407   6.775   4.221  1.0811 -0.5643  0.6178
28702SOL     OW87873   7.223   6.066   3.898 -0.2636  0.0592 -0.0476
28702SOL    HW187874   7.274   6.002   3.847  1.2390  2.2668 -1.5130
28702SOL    HW287875   7.289   6.123   3.938 -1.5459  1.1144  0.6415
28703SOL     OW87876   0.615   6.118   0.961  0.3602  0.5058  0.2555
28703SOL    HW187877   0.659   6.158   1.037  0.6114  0.7793 -0.0294
28703SOL    HW287878   0.564   6.190   0.924 -0.7001  0.0761  0.8513
28704SOL     OW87879   0.883   5.876   8.296  0.2238 -0.3496  0.8903
28704SOL    HW187880   0.894   5.873   8.391  0.6978 -0.5025  0.8347
28704SOL    HW287881   0.793   5.905   8.283  0.2947  0.1134  1.3856
28705SOL     OW87882   5.374   7.894   2.361  0.0003  0.5024 -0.5492
28705SOL    HW187883   5.427   7.844   2.423 -1.0502  1.2321  1.0135
28705SOL    HW287884   5.292   7.846   2.355 -0.8221  1.6903  0.5681
28706SOL     OW87885   9.687   6.104   5.688  0.2836  0.1754 -0.1391
28706SOL    HW187886   9.782   6.102   5.699  0.4437  1.3021 -1.1598
28706SOL    HW287887   9.655   6.146   5.768  0.8411  1.6934 -0.6794
28707SOL     OW87888   1.389   5.473   2.615 -0.0584 -0.3624  0.2172
28707SOL    HW187889   1.394   5.519   2.698 -1.7673  0.7399 -0.2420
28707SOL    HW287890   1.384   5.542   2.549  2.3907 -1.2005 -0.9404
28708SOL     OW87891   3.996   5.800   4.759 -0.1435 -1.4242  0.2637
28708SOL    HW187892   3.922   5.843   4.801  0.2688 -0.5645  0.1369
28708SOL    HW287893   4.068   5.810   4.821  0.5157  0.0148 -0.6607
28709SOL     OW87894   7.875   8.058   9.661  0.5392  0.2404  0.2562
28709SOL    HW187895   7.923   8.129   9.618  1.1359  0.4602  1.2519
28709SOL    HW287896   7.943   8.000   9.696  0.0883  0.2755  1.2348
28710SOL     OW87897   2.925   0.590   5.944 -0.2536  0.3313  0.2357
28710SOL    HW187898   3.006   0.540   5.944 -1.0576 -1.0171  0.5528
28710SOL    HW287899   2.951   0.677   5.914  0.9048 -0.7088 -2.0695
28711SOL     OW87900   0.170   0.505   4.607  0.1551  0.3920  0.3101
28711SOL    HW187901   0.248   0.540   4.651  0.6404  1.8421 -1.5811
28711SOL    HW287902   0.109   0.578   4.605 -0.8622 -0.4161  0.8042
28712SOL     OW87903   9.302   6.599   5.881 -0.5689  0.3384  0.2629
28712SOL    HW187904   9.247   6.667   5.841 -1.7054 -0.6126  0.1201
28712SOL    HW287905   9.262   6.517   5.851  1.1385 -0.4101 -0.0895
28713SOL     OW87906   3.824   5.723   2.077 -0.1207  0.3995  0.2974
28713SOL    HW187907   3.896   5.786   2.066 -0.1050  0.4938  0.9083
28713SOL    HW287908   3.856   5.643   2.037  0.8727  0.0412  1.7286
28714SOL     OW87909   6.488   1.532   9.652  0.3357  0.1550 -0.3862
28714SOL    HW187910   6.508   1.541   9.746  2.1952  0.3618 -0.7603
28714SOL    HW287911   6.421   1.464   9.649  0.4255 -0.0437  1.0831
28715SOL     OW87912   9.165   7.617   9.479 -0.3769  0.1389 -0.3695
28715SOL    HW187913   9.176   7.533   9.434  0.4560 -0.6982  1.2989
28715SOL    HW287914   9.071   7.634   9.474 -0.6984 -1.3397 -0.0412
28716SOL     OW87915   8.765   0.078   3.294 -0.2230 -0.4029 -0.2227
28716SOL    HW187916   8.699   0.148   3.301 -0.3696 -0.4801 -0.7919
28716SOL    HW287917   8.849   0.122   3.306 -0.4147 -0.4720  1.6823
28717SOL     OW87918   5.733   6.401   8.305 -0.0672  0.0147  0.3693
28717SOL    HW187919   5.715   6.488   8.268 -1.1762 -0.2588  0.2458
28717SOL    HW287920   5.828   6.400   8.316 -0.0134  1.1773  0.1986
28718SOL     OW87921   3.677   9.537   0.101 -0.5507 -0.3669 -0.2529
28718SOL    HW187922   3.716   9.491   0.026  0.5112 -1.3314  0.8265
28718SOL    HW287923   3.624   9.470   0.145  1.3066 -0.7686  1.5553
28719SOL     OW87924   3.958   1.445   5.097  0.1780 -0.0902 -0.3597
28719SOL    HW187925   3.873   1.403   5.088  0.0938 -0.6885  2.3852
28719SOL    HW287926   4.020   1.373   5.103  0.7880  0.3259 -1.4684
28720SOL     OW87927   6.151   7.847   8.981  0.3541 -0.3791  0.3112
28720SOL    HW187928   6.058   7.846   8.958  0.1841 -0.0985  0.9625
28720SOL    HW287929   6.156   7.802   9.066  0.9913 -1.5477 -0.3186
28721SOL     OW87930   9.138   3.895   2.894  0.2233  0.0805 -0.1339
28721SOL    HW187931   9.106   3.977   2.931 -0.2012 -0.9710  2.0187
28721SOL    HW287932   9.171   3.846   2.969 -3.4297 -3.4645 -0.4612
28722SOL     OW87933   7.345   1.487   0.718  0.1108 -0.1775 -0.0382
28722SOL    HW187934   7.395   1.468   0.639  0.2954 -2.6333  0.5877
28722SOL    HW287935   7.262   1.442   0.705  0.1171 -0.5541  1.0944
28723SOL     OW87936   4.339   5.030   0.332 -0.5674  0.4457  0.2395
28723SOL    HW187937   4.347   4.996   0.421  0.2203  2.1112  0.8424
28723SOL    HW287938   4.260   5.084   0.334 -0.6136  0.3926 -0.1056
28724SOL     OW87939   5.797   9.762   3.299  0.1522  0.0198  0.0859
28724SOL    HW187940   5.868   9.728   3.353 -0.3489 -1.6641 -0.2684
28724SOL    HW287941   5.736   9.801   3.361  0.8507  0.4920  0.4848
28725SOL     OW87942   0.840   8.363   7.978  0.7047  0.3336  0.1672
28725SOL    HW187943   0.798   8.325   8.055 -0.2078  2.0408  0.5411
28725SOL    HW287944   0.768   8.392   7.922  1.3745  0.6123 -0.5801
28726SOL     OW87945   2.892   2.544   5.622 -0.3562 -0.2290  0.3618
28726SOL    HW187946   2.938   2.604   5.681 -0.2088 -0.2374  0.2570
28726SOL    HW287947   2.905   2.582   5.535  0.1733 -0.6870  0.2357
28727SOL     OW87948   3.962   8.418   8.672  0.1531  0.9971 -0.5282
28727SOL    HW187949   4.035   8.440   8.730  1.1288 -1.6988 -0.5566
28727SOL    HW287950   3.984   8.461   8.589  0.8173  1.6239 -0.0427
28728SOL     OW87951   5.239   8.762   4.302  0.2027  0.1226 -0.3640
28728SOL    HW187952   5.290   8.802   4.232  0.6853  0.6342  0.2612
28728SOL    HW287953   5.299   8.700   4.343  0.5866  1.2307  0.8187
28729SOL     OW87954   8.410   1.278   7.723  0.5692 -0.4044 -0.0966
28729SOL    HW187955   8.321   1.253   7.748  0.6807  1.0719  2.0625
28729SOL    HW287956   8.461   1.197   7.731 -0.3187 -0.9678 -0.0016
28730SOL     OW87957   8.854   0.701   0.171 -0.0206  0.3340  0.1840
28730SOL    HW187958   8.924   0.762   0.195 -0.0444 -0.3028  1.9955
28730SOL    HW287959   8.790   0.756   0.125  1.1588  1.1270 -0.5947
28731SOL     OW87960   0.785   2.540   2.294 -0.0109 -0.1588 -0.2121
28731SOL    HW187961   0.845   2.475   2.257 -0.5605 -0.7174 -0.1361
28731SOL    HW287962   0.837   2.620   2.299  0.7422 -0.6452 -0.0969
28732SOL     OW87963   4.643   5.889   9.550  0.6019 -0.8781 -0.0314
28732SOL    HW187964   4.624   5.796   9.554  0.3355 -0.8398 -0.2787
28732SOL    HW287965   4.738   5.895   9.555  0.5916 -1.1288  0.4917
28733SOL     OW87966   0.772   5.813   9.497 -0.1978  0.4016  0.2574
28733SOL    HW187967   0.677   5.816   9.504 -0.6443 -1.9236 -2.6825
28733SOL    HW287968   0.792   5.874   9.425  0.5765  0.9465  0.9181
28734SOL     OW87969   7.590   5.170   1.364 -0.5752  0.6354 -0.5070
28734SOL    HW187970   7.574   5.253   1.318 -1.7505 -0.4771 -2.2297
28734SOL    HW287971   7.564   5.103   1.301  1.3779 -1.1029  0.4398
28735SOL     OW87972   0.284   6.110   7.336 -0.5127  0.0468 -0.1474
28735SOL    HW187973   0.380   6.106   7.340 -0.5159 -1.5025 -0.7908
28735SOL    HW287974   0.258   6.023   7.305 -2.1669  0.2291  0.6220
28736SOL     OW87975   4.625   0.681   4.672  0.2424 -0.1995 -0.5785
28736SOL    HW187976   4.630   0.745   4.601 -0.6135  1.4883  0.8038
28736SOL    HW287977   4.715   0.674   4.705  0.3852  0.0937 -0.9046
28737SOL     OW87978   2.227   2.170   4.990  0.2190 -0.1574 -0.1250
28737SOL    HW187979   2.304   2.177   5.048  0.3406  0.0931 -0.3161
28737SOL    HW287980   2.194   2.082   5.006 -0.8228  0.5150  1.6660
28738SOL     OW87981   8.628   6.438   1.308 -0.0025  0.5718 -0.2542
28738SOL    HW187982   8.678   6.383   1.368 -0.6426  0.6242  0.3424
28738SOL    HW287983   8.623   6.524   1.352  0.0316  0.7787 -0.6531
28739SOL     OW87984   2.062   8.226   3.683 -0.6225 -0.0011  0.0427
28739SOL    HW187985   2.006   8.231   3.605  2.3593  0.8878 -2.2158
28739SOL    HW287986   2.050   8.310   3.727 -1.1335  0.1404 -0.3553
28740SOL     OW87987   9.233   6.360   2.650 -0.3073 -0.5850 -0.4424
28740SOL    HW187988   9.201   6.429   2.592  0.9779  0.1682 -0.2761
28740SOL    HW287989   9.221   6.279   2.600  1.0684  0.0760 -1.8987
28741SOL     OW87990   9.259   1.099   2.103 -0.7420 -0.2428  0.8384
28741SOL    HW187991   9.245   1.011   2.140 -1.6143 -0.1067  0.8559
28741SOL    HW287992   9.318   1.085   2.029 -3.4752 -1.3832 -1.3119
28742SOL     OW87993   6.751   1.570   4.816 -0.4998 -0.4436  0.0923
28742SOL    HW187994   6.800   1.522   4.882 -1.5653 -1.2056  0.3590
28742SOL    HW287995   6.757   1.662   4.843  0.8320 -0.5087  0.0602
28743SOL     OW87996   9.044   9.441   3.475 -0.4296  0.2188  0.3055
28743SOL    HW187997   9.014   9.519   3.428  0.4932  0.2535 -0.2521
28743SOL    HW287998   9.097   9.394   3.411  0.3496 -0.0381  1.1317
28744SOL     OW87999   7.302   5.215   6.135 -0.2644 -0.1734  0.4342
28744SOL    HW188000   7.392   5.185   6.144 -0.6955 -1.6016  0.1706
28744SOL    HW288001   7.275   5.238   6.224  0.5932  1.0206  0.4079
28745SOL     OW88002   0.554   2.505   3.653 -0.8712  0.2837 -0.8613
28745SOL    HW188003   0.588   2.431   3.603  0.4451  1.2455 -1.4481
28745SOL    HW288004   0.472   2.473   3.692 -1.1385 -0.9705 -2.3845
28746SOL     OW88005   7.622   2.728   9.319  0.1105 -0.4641 -0.1040
28746SOL    HW188006   7.613   2.809   9.369  0.3957 -0.6407  0.2404
28746SOL    HW288007   7.568   2.665   9.367 -1.8223  0.0183 -1.5254
28747SOL     OW88008   0.769   5.199   4.006  0.4303  0.0810 -0.1208
28747SOL    HW188009   0.851   5.239   4.036  0.3589  0.5391 -0.5279
28747SOL    HW288010   0.710   5.204   4.081  0.5760  0.3075 -0.0214
28748SOL     OW88011   8.161   6.027   8.165 -0.3375 -0.0922 -0.2009
28748SOL    HW188012   8.098   5.999   8.231 -1.7618  2.4658 -0.3393
28748SOL    HW288013   8.244   6.035   8.213 -0.5086 -1.6794  0.4123
28749SOL     OW88014   9.513   1.926   0.814 -0.2927  0.4421 -0.7575
28749SOL    HW188015   9.546   1.851   0.865 -0.5447  1.3465  0.8109
28749SOL    HW288016   9.442   1.889   0.762 -0.5856 -0.3750  0.1775
28750SOL     OW88017   4.137   0.026   6.464 -0.0125 -0.6152 -0.1213
28750SOL    HW188018   4.213  -0.031   6.463 -0.1638 -0.8177 -0.2644
28750SOL    HW288019   4.066  -0.028   6.500 -0.1488 -0.5118 -0.2313
28751SOL     OW88020   0.993   6.819   1.792  0.2487  0.0046  0.1342
28751SOL    HW188021   1.060   6.887   1.799 -0.6786  0.8611  0.8077
28751SOL    HW288022   0.912   6.860   1.821 -0.8379 -0.6658 -1.7402
28752SOL     OW88023   6.817   3.691   7.023  0.2685 -0.6201  0.6628
28752SOL    HW188024   6.833   3.757   7.091 -0.0764 -0.9786  1.0963
28752SOL    HW288025   6.893   3.699   6.964  0.7036 -0.4804  1.2303
28753SOL     OW88026   4.231   6.441   5.394 -0.2252  0.4080  0.2075
28753SOL    HW188027   4.287   6.481   5.460 -0.9563  0.5762  0.7361
28753SOL    HW288028   4.279   6.452   5.312  0.9953 -0.3599  0.7763
28754SOL     OW88029   3.822   1.701   1.519 -0.2645  0.0293  0.1832
28754SOL    HW188030   3.818   1.657   1.604 -2.1222  0.3624  0.3084
28754SOL    HW288031   3.863   1.785   1.537 -0.9145  0.2219  0.8177
28755SOL     OW88032   4.630   9.760   0.948  0.0267 -0.4926 -0.3159
28755SOL    HW188033   4.652   9.739   1.039  1.2845 -2.4664 -1.0104
28755SOL    HW288034   4.671   9.845   0.933 -0.1238 -0.1810  0.9393
28756SOL     OW88035   4.412   0.529   7.103  0.0937 -0.4464 -0.1743
28756SOL    HW188036   4.448   0.500   7.186 -1.4316 -2.8746 -0.2760
28756SOL    HW288037   4.330   0.572   7.126  0.5542  0.5463 -0.3250
28757SOL     OW88038   2.654   6.049   2.215  0.2704  0.9936 -0.5274
28757SOL    HW188039   2.727   6.051   2.154  0.3513 -1.6766 -0.6700
28757SOL    HW288040   2.644   5.956   2.237 -1.5291  1.5504  1.3813
28758SOL     OW88041   5.886   6.187   1.123 -0.2796 -0.3178 -0.0799
28758SOL    HW188042   5.862   6.247   1.194 -0.3157  0.5763 -0.8433
28758SOL    HW288043   5.981   6.198   1.114 -0.0274 -1.5236  0.8020
28759SOL     OW88044   4.966   4.952   3.330 -0.0876  0.0296  0.1233
28759SOL    HW188045   4.959   5.005   3.409 -2.2627  0.2807 -0.1731
28759SOL    HW288046   4.886   4.972   3.281  1.3535  0.1829 -2.3508
28760SOL     OW88047   3.638   7.545   1.862 -0.3105  0.0372 -0.1163
28760SOL    HW188048   3.617   7.502   1.945  0.4427  0.0285  0.0800
28760SOL    HW288049   3.706   7.608   1.885  0.9416 -0.9577 -0.9572
28761SOL     OW88050   9.029   8.022   1.934  0.0597 -0.0662 -0.2179
28761SOL    HW188051   9.115   7.996   1.899  0.5093  0.8170  0.1840
28761SOL    HW288052   8.967   8.001   1.864  0.4230 -1.8541 -0.0426
28762SOL     OW88053   9.628   7.747   0.643  0.1533  0.4805 -0.2853
28762SOL    HW188054   9.558   7.687   0.671 -1.0024  2.8580  2.4910
28762SOL    HW288055   9.705   7.717   0.691  0.4654 -0.7221 -1.5000
28763SOL     OW88056   7.421   0.788   6.655 -0.2979 -0.1121 -0.5054
28763SOL    HW188057   7.353   0.721   6.655 -0.0029 -0.4380  0.7527
28763SOL    HW288058   7.502   0.740   6.672  0.2713  0.2667 -1.9945
28764SOL     OW88059   5.261   1.367   1.231 -0.4581  0.1618  0.0349
28764SOL    HW188060   5.244   1.391   1.322 -0.0188 -0.5096  0.3030
28764SOL    HW288061   5.258   1.271   1.231 -1.5732  0.1785 -0.8799
28765SOL     OW88062   0.489   3.953   1.471 -0.1952 -0.0274 -0.0947
28765SOL    HW188063   0.550   4.026   1.484  0.2464 -0.4560  0.2809
28765SOL    HW288064   0.528   3.902   1.400 -0.6722  0.2687 -0.5811
28766SOL     OW88065   5.494   1.746   2.484  0.0628  0.2920  0.4883
28766SOL    HW188066   5.586   1.736   2.507  0.3832 -0.2748 -0.9323
28766SOL    HW288067   5.450   1.767   2.567  1.3010 -0.4661  1.3615
28767SOL     OW88068   8.495   4.993   7.409  0.0894  0.3151 -0.1696
28767SOL    HW188069   8.516   4.976   7.317  0.8680 -0.1016  0.0745
28767SOL    HW288070   8.408   5.033   7.407 -0.1162 -0.1547 -1.0508
28768SOL     OW88071   3.977   5.931   2.177 -0.0616 -0.2074  0.4350
28768SOL    HW188072   4.027   5.999   2.223  0.0393 -0.8169  1.2711
28768SOL    HW288073   4.030   5.910   2.100 -0.1068  0.6672  0.1621
28769SOL     OW88074   6.408   8.356   4.118  0.0121 -0.0997 -0.2835
28769SOL    HW188075   6.435   8.321   4.034 -0.5089  1.3979 -1.1139
28769SOL    HW288076   6.317   8.328   4.127 -0.4913  1.2096 -1.0760
28770SOL     OW88077   2.044   6.393   0.709  0.1487  0.3691 -0.1307
28770SOL    HW188078   1.972   6.400   0.772 -0.0816 -4.0707  0.3668
28770SOL    HW288079   2.122   6.381   0.763  0.8148  1.7500 -0.7294
28771SOL     OW88080   5.686   7.046   0.576  0.0894  0.4421  0.0047
28771SOL    HW188081   5.667   7.035   0.669  2.7135  0.1180  0.5689
28771SOL    HW288082   5.649   7.132   0.554 -2.6332 -0.4426  0.6641
28772SOL     OW88083   1.293   8.995   0.094  0.7751  0.0004 -0.1528
28772SOL    HW188084   1.363   9.003   0.030  0.0491 -1.2263 -1.1563
28772SOL    HW288085   1.334   8.953   0.170  1.7954  2.0698  0.5212
28773SOL     OW88086   2.685   1.188   4.481 -0.0209 -0.0266 -0.0026
28773SOL    HW188087   2.672   1.250   4.409  1.4560 -0.5502 -0.7695
28773SOL    HW288088   2.780   1.175   4.484 -0.2424 -1.7795  0.5143
28774SOL     OW88089   0.588   5.255   8.354 -0.0861 -0.4927 -0.3942
28774SOL    HW188090   0.575   5.181   8.413 -2.1791 -0.2990 -0.5629
28774SOL    HW288091   0.520   5.246   8.287  0.6290  0.7125 -1.3470
28775SOL     OW88092   8.168   3.232   1.058 -0.3872 -0.5667  0.0717
28775SOL    HW188093   8.207   3.319   1.045 -0.9982 -0.0755  1.3520
28775SOL    HW288094   8.193   3.183   0.980 -0.5689  0.9595 -1.0088
28776SOL     OW88095   5.755   3.139   4.390  0.2752  0.4886  0.4375
28776SOL    HW188096   5.811   3.209   4.423  4.1149 -1.8098 -0.5704
28776SOL    HW288097   5.804   3.059   4.407 -1.8689 -1.6263 -2.3083
28777SOL     OW88098   6.949   8.264   8.721 -0.1238 -0.0191  0.7479
28777SOL    HW188099   6.879   8.249   8.785  0.6295  0.2827  1.6737
28777SOL    HW288100   7.022   8.211   8.753  0.0781 -0.3347 -0.2069
28778SOL     OW88101   4.124   3.284   8.273  0.3038  0.3396  0.8088
28778SOL    HW188102   4.173   3.314   8.350  2.1692  1.9543 -0.8781
28778SOL    HW288103   4.099   3.364   8.228  1.4700 -0.5289 -1.5401
28779SOL     OW88104   3.648   0.858   7.436 -0.1133 -0.2744  0.1830
28779SOL    HW188105   3.615   0.940   7.473  0.1218 -0.3946  0.6708
28779SOL    HW288106   3.638   0.868   7.341  1.8626  1.1889  0.0653
28780SOL     OW88107   0.895   9.495   2.516 -0.2951 -0.7091 -0.1062
28780SOL    HW188108   0.854   9.576   2.546  2.4494 -0.0162  2.2812
28780SOL    HW288109   0.865   9.428   2.577 -0.0703 -0.7827 -0.0739
28781SOL     OW88110   1.816   0.864   6.658 -0.3771  0.4440 -0.2767
28781SOL    HW188111   1.853   0.952   6.652 -0.7404  0.5532 -0.9405
28781SOL    HW288112   1.892   0.806   6.653 -0.2035  0.6977 -0.6393
28782SOL     OW88113   0.056   8.807   5.180 -0.2007  0.0149  0.0883
28782SOL    HW188114   0.148   8.783   5.173 -0.0515  0.1590  1.4187
28782SOL    HW288115   0.034   8.841   5.093  1.1710  0.6303 -0.0460
28783SOL     OW88116   1.967   0.759   3.820 -0.0015 -0.4976  0.0334
28783SOL    HW188117   2.011   0.799   3.895 -0.3744 -0.1289  0.0541
28783SOL    HW288118   1.875   0.755   3.845 -0.4566  1.4439 -1.1882
28784SOL     OW88119   3.703   3.379   4.201  0.6194 -0.0589  0.1700
28784SOL    HW188120   3.791   3.344   4.183  1.7187  2.0574  1.0873
28784SOL    HW288121   3.680   3.428   4.123  1.3760  1.4385  0.8464
28785SOL     OW88122   6.310   9.711   7.973 -0.0784 -0.2425 -0.4557
28785SOL    HW188123   6.328   9.737   8.063 -1.2856  1.1725 -0.5733
28785SOL    HW288124   6.317   9.616   7.973 -1.0157 -0.3628  1.3733
28786SOL     OW88125   7.299   9.562   6.607  0.1956 -0.1868 -0.3157
28786SOL    HW188126   7.352   9.630   6.647 -1.1995  1.0249 -0.4233
28786SOL    HW288127   7.237   9.536   6.676  0.6388 -1.2923 -0.3109
28787SOL     OW88128   0.559   6.254   6.523  0.1934 -0.4134  0.5852
28787SOL    HW188129   0.584   6.342   6.494  0.2480 -0.8506 -0.7624
28787SOL    HW288130   0.465   6.261   6.539 -0.0044 -0.3506 -0.5238
28788SOL     OW88131   4.472   1.160   4.167  0.4856 -0.3436  0.4020
28788SOL    HW188132   4.448   1.070   4.186  0.6062 -0.9826 -2.1560
28788SOL    HW288133   4.398   1.212   4.199 -1.3391 -1.6906 -1.4225
28789SOL     OW88134   4.058   8.644   9.187 -0.0290 -0.0581  0.0972
28789SOL    HW188135   4.010   8.572   9.228  0.4025 -0.7532 -0.5872
28789SOL    HW288136   4.043   8.633   9.093  0.7000  0.2661 -0.0640
28790SOL     OW88137   9.643   6.161   5.409 -0.0176 -0.1897  0.6769
28790SOL    HW188138   9.713   6.220   5.438 -0.0791 -1.2051  3.2277
28790SOL    HW288139   9.600   6.134   5.491 -1.8393 -1.4881 -0.6331
28791SOL     OW88140   2.767   8.959   0.759  0.4029 -0.8568  0.3520
28791SOL    HW188141   2.728   9.040   0.727  0.6125 -1.3372 -1.2209
28791SOL    HW288142   2.859   8.981   0.774  1.0996 -1.3257 -2.5126
28792SOL     OW88143   0.321   5.409   4.793  0.3793 -0.3983 -0.6588
28792SOL    HW188144   0.244   5.383   4.743  0.9654 -1.0288 -1.2624
28792SOL    HW288145   0.315   5.504   4.799 -0.5381 -0.4541 -0.5353
28793SOL     OW88146   6.952   0.840   8.371  0.0174 -0.4099 -0.1451
28793SOL    HW188147   6.999   0.914   8.410 -0.0643 -0.4181 -0.0309
28793SOL    HW288148   7.002   0.763   8.399  1.2212 -0.3059 -1.7919
28794SOL     OW88149   2.825   0.387   1.615 -0.5176 -0.5072 -0.4472
28794SOL    HW188150   2.847   0.302   1.654  0.8246 -0.4084 -0.9346
28794SOL    HW288151   2.825   0.448   1.689 -0.9318 -0.8349 -0.1749
28795SOL     OW88152   9.606   9.233   9.680 -0.2461  0.2490  0.3378
28795SOL    HW188153   9.616   9.139   9.695  0.9544  0.4586  0.9010
28795SOL    HW288154   9.570   9.239   9.591 -0.9772 -0.7538  0.5474
28796SOL     OW88155   0.067   1.178   9.008 -0.0308 -0.0112  0.2045
28796SOL    HW188156   0.045   1.269   9.028  0.2926 -0.3720  2.3987
28796SOL    HW288157   0.083   1.137   9.093  0.0027 -2.0959 -0.7324
28797SOL     OW88158   2.232   5.647   1.487 -0.0284  0.6600 -0.5390
28797SOL    HW188159   2.259   5.731   1.524  0.6741  0.4950 -0.6625
28797SOL    HW288160   2.211   5.667   1.396  2.0889  0.3865 -1.1659
28798SOL     OW88161   5.416   8.180   1.992  0.1029  0.4483 -0.5313
28798SOL    HW188162   5.376   8.174   1.905 -1.0409 -0.6848  0.0348
28798SOL    HW288163   5.418   8.090   2.024  0.6905  0.8214  0.5354
28799SOL     OW88164   1.108   1.581   7.114  0.1960  0.7197 -0.4242
28799SOL    HW188165   1.191   1.611   7.152 -0.5049  0.6792  1.1979
28799SOL    HW288166   1.112   1.610   7.022  1.4835  1.7654 -0.0629
28800SOL     OW88167   1.034   9.174   1.241 -0.4147 -0.0440 -0.5592
28800SOL    HW188168   0.949   9.201   1.207 -1.9060 -1.0346  2.0960
28800SOL    HW288169   1.051   9.234   1.313  2.0532  1.2422 -2.0704
28801SOL     OW88170   2.271   9.329   1.433 -0.0511 -0.8190 -0.7881
28801SOL    HW188171   2.175   9.330   1.427 -0.2539  1.4223  1.1951
28801SOL    HW288172   2.291   9.247   1.477 -0.9876 -1.5693 -1.6950
28802SOL     OW88173   2.969   9.846   4.337 -0.8742 -0.3054 -0.3003
28802SOL    HW188174   2.980   9.773   4.399  0.8304  0.4719  0.3726
28802SOL    HW288175   3.050   9.846   4.286 -1.8365 -0.2945 -1.8969
28803SOL     OW88176   1.628   0.680   9.585  0.3998  0.2182 -0.4130
28803SOL    HW188177   1.535   0.704   9.577  0.6016  1.2295  0.1301
28803SOL    HW288178   1.671   0.730   9.516  0.8687  1.7672  0.9342
28804SOL     OW88179   3.224   6.981   7.207  0.1298 -0.3808  0.1753
28804SOL    HW188180   3.237   7.009   7.116 -0.9367 -3.0149 -0.9106
28804SOL    HW288181   3.161   7.044   7.243 -0.1271  0.1893 -1.2047
28805SOL     OW88182   9.102   1.499   2.969 -0.0195 -0.3065 -0.1005
28805SOL    HW188183   9.025   1.498   3.025  0.0360 -2.2406  0.0286
28805SOL    HW288184   9.070   1.531   2.885 -1.0771 -1.4650 -0.1672
28806SOL     OW88185   2.490   9.547   5.912  0.1171  0.0280 -0.5683
28806SOL    HW188186   2.486   9.610   5.984 -0.0344 -0.5322 -0.0792
28806SOL    HW288187   2.584   9.530   5.901  0.0743 -1.0342  0.5252
28807SOL     OW88188   6.923   1.438   5.022 -0.1568  0.3334  0.1777
28807SOL    HW188189   6.860   1.373   5.051  0.5945  0.2270  1.6278
28807SOL    HW288190   6.908   1.513   5.079  0.4687  0.6235 -0.0340
28808SOL     OW88191   9.375   1.915   6.334  0.9048  0.0021 -0.6683
28808SOL    HW188192   9.402   2.006   6.349 -2.5500  1.1173 -0.2750
28808SOL    HW288193   9.384   1.903   6.239  0.2061  1.2070 -0.9034
28809SOL     OW88194   9.396   0.482   1.197 -0.5748 -0.3982 -0.0508
28809SOL    HW188195   9.354   0.566   1.180  0.0942 -0.0695 -0.0962
28809SOL    HW288196   9.441   0.493   1.280 -0.9721 -0.9083  0.2418
28810SOL     OW88197   4.305   4.777   6.661  0.4188 -0.0676  0.4175
28810SOL    HW188198   4.223   4.761   6.708 -1.2526  0.9482 -1.9679
28810SOL    HW288199   4.286   4.751   6.570  1.9765  2.2969 -0.6801
28811SOL     OW88200   5.767   0.040   2.893 -0.2976 -0.1768 -0.4226
28811SOL    HW188201   5.798   0.100   2.960  0.1964 -0.8411 -0.0570
28811SOL    HW288202   5.837  -0.023   2.882 -0.8896 -0.7988 -0.6792
28812SOL     OW88203   1.624   5.139   4.407  0.3651 -0.2661 -0.0189
28812SOL    HW188204   1.595   5.113   4.319  0.2284  0.3485 -0.1633
28812SOL    HW288205   1.544   5.145   4.458  0.3801  0.0452 -0.0339
28813SOL     OW88206   2.535   2.669   2.510 -0.3646  0.3767 -0.0394
28813SOL    HW188207   2.546   2.682   2.604 -1.4603  0.2722  0.1060
28813SOL    HW288208   2.454   2.620   2.501  0.4593 -0.8933 -0.9629
28814SOL     OW88209   7.637   0.559   7.130 -0.3736 -0.2267  0.2654
28814SOL    HW188210   7.642   0.555   7.035  0.9135 -0.7779  0.3373
28814SOL    HW288211   7.696   0.490   7.160  0.2253  0.7668  1.4704
28815SOL     OW88212   1.772   8.964   6.704  0.6142 -0.7558 -0.7588
28815SOL    HW188213   1.822   8.985   6.783  0.2252  1.4703 -1.0397
28815SOL    HW288214   1.733   8.879   6.723  1.2326 -0.6857  1.0918
28816SOL     OW88215   0.294   3.394   6.315 -0.2239  0.0755 -0.5097
28816SOL    HW188216   0.202   3.378   6.339 -0.1954  1.1088  0.3639
28816SOL    HW288217   0.313   3.481   6.351  1.8856 -1.2054  1.7663
28817SOL     OW88218   6.789   1.878   4.330 -0.3641 -0.3073  0.2073
28817SOL    HW188219   6.831   1.872   4.244  0.2648 -0.3665  0.5127
28817SOL    HW288220   6.755   1.790   4.346 -0.3661 -0.3302  0.0786
28818SOL     OW88221   2.798   9.746   0.828  0.7022  0.1462 -0.2652
28818SOL    HW188222   2.804   9.755   0.733  0.7060  0.1675 -0.2630
28818SOL    HW288223   2.868   9.802   0.861  1.3741 -0.6685 -0.2841
28819SOL     OW88224   1.394   9.451   8.005  0.0304  0.4737 -0.1767
28819SOL    HW188225   1.390   9.488   7.917  0.8827 -1.2478 -0.9861
28819SOL    HW288226   1.311   9.476   8.046 -1.0058  0.1020 -1.9783
28820SOL     OW88227   7.241   8.855   4.588 -0.4354  0.3395  0.4901
28820SOL    HW188228   7.309   8.919   4.608  1.6579 -2.2357  2.3399
28820SOL    HW288229   7.175   8.868   4.657 -1.8002  2.6108 -1.1095
28821SOL     OW88230   7.833   7.315   7.983  0.3308  0.4591  0.7928
28821SOL    HW188231   7.754   7.337   8.034 -1.8323 -1.6339 -1.4102
28821SOL    HW288232   7.871   7.240   8.029 -0.4852 -0.1827  0.4379
28822SOL     OW88233   6.113   5.196   8.078  0.1840 -0.4050  0.6224
28822SOL    HW188234   6.169   5.119   8.085  1.1720  0.3707  1.5266
28822SOL    HW288235   6.040   5.178   8.138  0.3499 -0.6815  0.7430
28823SOL     OW88236   7.127   8.134   8.225 -0.6196 -0.2645  0.6351
28823SOL    HW188237   7.045   8.171   8.258 -0.1950  1.0296  0.2975
28823SOL    HW288238   7.189   8.145   8.297 -0.5241 -0.4437  0.5804
28824SOL     OW88239   5.593   6.451   6.123  0.2648 -0.1472  0.1051
28824SOL    HW188240   5.557   6.416   6.204  0.3155  0.6766  0.4970
28824SOL    HW288241   5.673   6.402   6.108  1.1989  0.8689  1.5167
28825SOL     OW88242   5.308   3.528   6.742 -0.5969 -1.0647  0.0847
28825SOL    HW188243   5.254   3.602   6.713 -0.4832 -1.3022 -0.7802
28825SOL    HW288244   5.397   3.552   6.715 -0.5965 -1.6207 -0.4348
28826SOL     OW88245   2.217   5.372   3.064 -0.7403 -0.0714 -0.6578
28826SOL    HW188246   2.205   5.363   2.969  0.4316  0.8698 -0.9196
28826SOL    HW288247   2.312   5.384   3.075 -0.7828 -0.8090  0.6931
28827SOL     OW88248   0.972   3.151   8.189  0.7174 -0.1246  0.6175
28827SOL    HW188249   1.065   3.161   8.209  0.8572 -2.0242  1.1250
28827SOL    HW288250   0.971   3.096   8.110  0.0249 -0.8581  1.1255
28828SOL     OW88251   8.521   3.908   4.987 -0.2327 -0.5949 -0.3983
28828SOL    HW188252   8.484   3.866   4.909 -1.5839  0.1933 -0.2204
28828SOL    HW288253   8.564   3.987   4.954 -1.5547  0.1993 -0.2889
28829SOL     OW88254   5.594   9.001   8.358  0.1019 -0.2427 -0.0372
28829SOL    HW188255   5.564   8.913   8.338  1.2872 -0.6204 -0.2700
28829SOL    HW288256   5.592   9.047   8.274 -0.6392 -0.0121  0.1093
28830SOL     OW88257   8.902   4.600   3.189 -0.3373  0.5408 -0.0132
28830SOL    HW188258   8.818   4.566   3.222  1.5865 -1.8635  2.9686
28830SOL    HW288259   8.902   4.692   3.215 -1.9935  0.5631  0.0257
28831SOL     OW88260   5.506   4.684   8.813  0.1688  0.2029  0.1275
28831SOL    HW188261   5.524   4.593   8.790 -0.0517  0.3504 -0.6581
28831SOL    HW288262   5.422   4.703   8.773  1.0270  1.2798 -1.2854
28832SOL     OW88263   1.597   0.412   0.587 -0.2783 -0.9011 -0.1327
28832SOL    HW188264   1.609   0.319   0.570  2.2926 -0.8851  1.0046
28832SOL    HW288265   1.643   0.456   0.515  0.2943 -0.6015  0.3972
28833SOL     OW88266   0.089   6.035   8.788  0.5496 -0.0104 -0.0713
28833SOL    HW188267   0.087   6.030   8.884 -1.8889 -0.8856 -0.0887
28833SOL    HW288268   0.050   6.120   8.768  0.5650 -0.0534 -0.2826
28834SOL     OW88269   1.331   9.330   3.296 -0.0678  0.0375 -0.2027
28834SOL    HW188270   1.282   9.248   3.293 -0.4269  0.2778 -1.4505
28834SOL    HW288271   1.332   9.360   3.205  2.5470 -0.0494 -0.2740
28835SOL     OW88272   4.451   9.310   0.380  0.3007  0.2286  0.0299
28835SOL    HW188273   4.529   9.360   0.405 -0.3818  1.7522 -0.7381
28835SOL    HW288274   4.482   9.220   0.375  1.7811  0.6498  0.6879
28836SOL     OW88275   5.186   6.728   2.484  0.2192  0.1496 -0.3288
28836SOL    HW188276   5.240   6.661   2.443 -1.7500 -0.8156 -1.4908
28836SOL    HW288277   5.226   6.742   2.570  0.0859 -3.3183  0.4286
28837SOL     OW88278   2.293   8.835   4.221  0.0498  0.2720  0.2254
28837SOL    HW188279   2.295   8.755   4.169 -1.9038 -0.3661  1.0243
28837SOL    HW288280   2.240   8.812   4.298  0.3197  2.0333  0.9853
28838SOL     OW88281   2.205   2.677   4.875 -0.2471 -0.0227  0.4496
28838SOL    HW188282   2.226   2.769   4.888 -1.0645  0.0107  1.7529
28838SOL    HW288283   2.274   2.630   4.922 -0.0216 -0.0767  0.0712
28839SOL     OW88284   0.060   5.803   3.816  0.2216 -0.2633  0.5025
28839SOL    HW188285   0.141   5.854   3.806  0.1450  0.0431  1.3183
28839SOL    HW288286   0.079   5.719   3.774 -0.3469  1.0832 -2.7674
28840SOL     OW88287   7.853   2.502   5.871  0.4021  0.0951 -0.1053
28840SOL    HW188288   7.802   2.572   5.910  1.4438  1.3485 -0.9008
28840SOL    HW288289   7.834   2.508   5.777 -1.1771 -2.1279 -0.0120
28841SOL     OW88290   9.391   8.848   9.739  0.0083 -0.1589 -0.0578
28841SOL    HW188291   9.363   8.929   9.697  1.0001  0.3937  0.3130
28841SOL    HW288292   9.311   8.796   9.747 -0.0932 -0.8012 -3.6491
28842SOL     OW88293   9.421   8.963   2.078  0.5166  0.2298  1.0860
28842SOL    HW188294   9.481   9.017   2.130 -0.5804  1.4268  1.1630
28842SOL    HW288295   9.402   9.017   2.001 -0.5560 -0.0774  1.1310
28843SOL     OW88296   4.206   9.229   1.875  0.8976 -0.3783  0.1479
28843SOL    HW188297   4.195   9.189   1.961  1.1593 -1.5469 -0.3352
28843SOL    HW288298   4.122   9.213   1.831  1.8542 -2.7934 -0.9665
28844SOL     OW88299   1.263   6.054   6.870 -0.0158 -0.5844  0.1428
28844SOL    HW188300   1.314   5.982   6.835 -0.8343 -0.8819 -0.4550
28844SOL    HW288301   1.197   6.013   6.926 -0.2503 -0.2805  0.0956
28845SOL     OW88302   6.016   3.787   6.719 -0.1062 -0.1170 -0.0328
28845SOL    HW188303   5.920   3.788   6.713 -0.1040 -1.9051 -0.9980
28845SOL    HW288304   6.041   3.878   6.706 -1.6824  0.4154  0.3733
28846SOL     OW88305   3.100   1.866   6.937  0.1326  0.1320 -0.3239
28846SOL    HW188306   3.114   1.795   6.999  1.6160 -0.5764 -1.4234
28846SOL    HW288307   3.119   1.946   6.987  2.9364 -0.5038 -0.2497
28847SOL     OW88308   3.052   2.484   1.779 -0.2424  0.6328 -0.6566
28847SOL    HW188309   3.079   2.499   1.689  0.0273 -1.0474 -0.8780
28847SOL    HW288310   3.006   2.400   1.777  1.6174 -0.4893  1.1152
28848SOL     OW88311   3.186   8.728   3.519 -0.2138 -0.0484 -0.3202
28848SOL    HW188312   3.249   8.699   3.454 -0.3588  0.9841 -0.9428
28848SOL    HW288313   3.201   8.823   3.527 -2.6751  0.5379 -1.6394
28849SOL     OW88314   9.183   1.988   9.507 -0.4176 -0.1349  0.4101
28849SOL    HW188315   9.113   1.951   9.454 -0.8451  1.2602 -0.0444
28849SOL    HW288316   9.187   1.931   9.584 -0.7916 -1.3065 -0.4090
28850SOL     OW88317   7.078   7.003   8.689  0.2284 -0.3064  0.0794
28850SOL    HW188318   7.090   7.008   8.595 -0.4651  0.9584  0.0435
28850SOL    HW288319   7.092   6.910   8.710 -2.8309 -1.3273 -1.7331
28851SOL     OW88320   4.931   3.498   4.865 -0.2207  0.0220 -0.3717
28851SOL    HW188321   5.018   3.467   4.840 -0.6564 -0.1086 -1.8308
28851SOL    HW288322   4.905   3.441   4.938  0.0752 -1.3238 -1.2869
28852SOL     OW88323   2.977   1.040   2.706 -0.5032 -0.2696  0.6461
28852SOL    HW188324   2.948   0.965   2.654  1.3684 -1.4730  1.2456
28852SOL    HW288325   3.019   1.098   2.642 -1.0211 -0.2347  0.3363
28853SOL     OW88326   2.801   9.221   3.748  0.0609 -0.3195 -0.4788
28853SOL    HW188327   2.858   9.146   3.766  2.4438  1.0366 -1.8153
28853SOL    HW288328   2.786   9.261   3.834 -0.1165 -1.5188  0.0715
28854SOL     OW88329   6.353   9.165   8.880  0.1698 -0.1430  0.2435
28854SOL    HW188330   6.275   9.221   8.888  0.0056 -0.2313 -0.5811
28854SOL    HW288331   6.318   9.081   8.849  0.7782  0.5098 -2.5271
28855SOL     OW88332   3.402   9.313   5.939 -0.1848 -0.0809  0.1065
28855SOL    HW188333   3.483   9.271   5.913  0.4122  0.4157  1.1173
28855SOL    HW288334   3.378   9.368   5.864  0.6837  0.1670  0.0032
28856SOL     OW88335   7.518   8.413   0.418 -0.3813 -0.1957 -0.2922
28856SOL    HW188336   7.437   8.423   0.468 -0.0850  0.3421  0.0947
28856SOL    HW288337   7.489   8.386   0.331 -0.9876  0.1213 -0.1992
28857SOL     OW88338   9.262   6.219   8.745  0.2061  0.2315  0.7617
28857SOL    HW188339   9.261   6.200   8.651 -4.2232  1.4698  0.3079
28857SOL    HW288340   9.229   6.139   8.786  1.7238 -0.1589  1.2658
28858SOL     OW88341   7.292   6.091   0.972  0.0802 -0.7494  0.0571
28858SOL    HW188342   7.368   6.106   1.029  0.1003 -2.6207  0.5764
28858SOL    HW288343   7.304   6.153   0.900  1.4214 -0.1238  0.7774
28859SOL     OW88344   4.852   0.306   7.505  0.5834 -0.2898  0.1104
28859SOL    HW188345   4.859   0.385   7.452  3.0869  0.4080  1.3515
28859SOL    HW288346   4.882   0.332   7.592 -0.3313 -2.1749  1.0550
28860SOL     OW88347   4.522   2.409   1.385  0.7081  0.1686 -0.3901
28860SOL    HW188348   4.494   2.501   1.380  1.1975  0.4282  1.1986
28860SOL    HW288349   4.453   2.366   1.435  2.1600  0.4393  1.9629
28861SOL     OW88350   4.011   5.497   0.092 -0.2967  0.2322 -0.1858
28861SOL    HW188351   3.930   5.525   0.135  0.2234  0.1473  0.8514
28861SOL    HW288352   3.981   5.438   0.022 -1.0837 -0.5221  0.7689
28862SOL     OW88353   6.435   1.563   5.484  0.2548  0.6823 -0.2401
28862SOL    HW188354   6.358   1.545   5.539  0.2345  1.8770  0.1442
28862SOL    HW288355   6.399   1.576   5.396  0.2462 -0.8178 -0.4875
28863SOL     OW88356   9.519   9.100   4.083 -0.5477  0.4284  0.1043
28863SOL    HW188357   9.450   9.089   4.148 -0.7092 -0.0588 -0.1442
28863SOL    HW288358   9.600   9.091   4.132 -0.5807 -3.7864 -0.2494
28864SOL     OW88359   4.416   2.162   8.716 -0.0177  0.0551  0.1083
28864SOL    HW188360   4.358   2.228   8.678 -1.5747 -1.4990 -0.3321
28864SOL    HW288361   4.359   2.110   8.774  1.2832 -0.5613  0.8896
28865SOL     OW88362   2.091   1.793   1.144 -0.3510  0.0516 -0.6447
28865SOL    HW188363   2.098   1.701   1.169  0.9147 -0.0841 -1.4143
28865SOL    HW288364   2.070   1.839   1.225 -1.7973 -0.9903 -0.4003
28866SOL     OW88365   1.103   5.408   9.362  0.1130 -0.3096 -0.0403
28866SOL    HW188366   1.111   5.350   9.286  0.2961  0.2362 -0.4501
28866SOL    HW288367   1.032   5.468   9.339  0.1238 -0.1834  0.2485
28867SOL     OW88368   6.056   4.548   5.760  0.0616  0.6702 -0.2777
28867SOL    HW188369   6.103   4.563   5.678  0.3961 -1.2096 -0.4719
28867SOL    HW288370   6.123   4.558   5.828  0.4995 -0.6754 -0.4686
28868SOL     OW88371   1.310   1.640   9.399  0.3429 -0.4383 -0.5334
28868SOL    HW188372   1.363   1.711   9.437 -0.7190 -0.1691  0.5073
28868SOL    HW288373   1.289   1.670   9.311  0.2481  0.3663 -0.2476
28869SOL     OW88374   1.341   9.609   4.815 -0.3737 -0.2953 -0.4791
28869SOL    HW188375   1.361   9.582   4.725  0.0243 -0.2009 -0.4192
28869SOL    HW288376   1.266   9.669   4.805 -0.5440 -0.5427 -0.7137
28870SOL     OW88377   5.753   1.367   3.285 -0.0556  0.4029  0.4489
28870SOL    HW188378   5.755   1.306   3.359  0.3080 -0.0511  0.0739
28870SOL    HW288379   5.842   1.403   3.281  0.6965 -1.4653 -1.2908
28871SOL     OW88380   5.208   0.513   4.862  0.0304  0.2797  0.0948
28871SOL    HW188381   5.256   0.561   4.929  1.5163 -0.7650 -0.1689
28871SOL    HW288382   5.130   0.479   4.906  0.8495 -0.1726  1.2234
28872SOL     OW88383   0.385   4.817   9.248  0.0162  0.3454 -0.4720
28872SOL    HW188384   0.345   4.731   9.229  1.1997 -0.3199 -0.0474
28872SOL    HW288385   0.375   4.827   9.342  1.0626  0.0502 -0.3199
28873SOL     OW88386   4.253   0.584   7.521 -0.1312  0.0202 -0.2623
28873SOL    HW188387   4.225   0.674   7.508  0.7236  0.5892  1.4896
28873SOL    HW288388   4.200   0.533   7.460 -0.2596  1.7506 -1.6686
28874SOL     OW88389   9.279   1.542   4.027  1.0667 -0.2660 -0.6383
28874SOL    HW188390   9.323   1.565   3.946 -0.3576  0.1327 -1.3296
28874SOL    HW288391   9.288   1.619   4.083 -1.2877  1.0230 -1.9078
28875SOL     OW88392   1.078   8.317   7.895  0.6058  0.0950  0.1048
28875SOL    HW188393   0.983   8.317   7.899  0.3988  1.6658 -2.4562
28875SOL    HW288394   1.106   8.351   7.980 -1.0212 -1.2417  1.2416
28876SOL     OW88395   6.264   4.738   5.221  0.5528  0.0730 -0.4301
28876SOL    HW188396   6.358   4.733   5.232  0.4079  0.1555  0.9636
28876SOL    HW288397   6.249   4.713   5.129  1.8959 -0.1325 -0.6066
28877SOL     OW88398   2.730   0.535   5.747 -0.3337  0.0246 -0.0770
28877SOL    HW188399   2.787   0.528   5.823 -0.9626 -0.5103  0.3557
28877SOL    HW288400   2.786   0.573   5.679  0.3555  0.1014  0.5176
28878SOL     OW88401   5.416   6.121   5.230  0.4108  0.2583  0.3283
28878SOL    HW188402   5.326   6.140   5.203  1.1439 -0.8764 -3.6699
28878SOL    HW288403   5.464   6.202   5.213  0.5286  0.1173 -0.0486
28879SOL     OW88404   3.163   5.822   0.907 -0.0128  0.0370 -0.0762
28879SOL    HW188405   3.183   5.733   0.937  1.2008  0.0794 -0.6886
28879SOL    HW288406   3.136   5.811   0.816 -1.0308  0.1852  0.1977
28880SOL     OW88407   2.200   7.787   2.078 -0.0152 -0.7526 -0.2690
28880SOL    HW188408   2.108   7.811   2.063  0.4135  0.9396 -0.3875
28880SOL    HW288409   2.197   7.731   2.156 -0.9545  1.1486  1.1631
28881SOL     OW88410   5.003   8.438   4.361  0.2126 -0.2016 -0.1770
28881SOL    HW188411   5.043   8.366   4.410  0.1769 -1.6822 -2.2135
28881SOL    HW288412   5.073   8.502   4.352  1.1367 -1.2732 -0.8104
28882SOL     OW88413   6.082   4.000   8.462  0.2847  0.0649  0.0796
28882SOL    HW188414   6.009   4.056   8.438  0.6600  0.4285 -0.2354
28882SOL    HW288415   6.158   4.039   8.419  0.6818 -0.2567  0.4692
28883SOL     OW88416   3.745   6.881   5.793 -0.4240 -0.5675  0.3314
28883SOL    HW188417   3.683   6.941   5.834 -1.6395 -1.7148  0.2252
28883SOL    HW288418   3.690   6.814   5.752  0.9054 -2.0551  0.9075
28884SOL     OW88419   7.578   2.113   6.567 -0.0382  0.2419  0.3078
28884SOL    HW188420   7.627   2.040   6.529 -3.2490 -0.6786 -2.4796
28884SOL    HW288421   7.534   2.075   6.643  0.0899 -0.1136  0.2057
28885SOL     OW88422   5.914   4.419   8.003  0.5665 -0.1958  0.1819
28885SOL    HW188423   5.954   4.408   8.089 -0.5807  1.0304  0.9120
28885SOL    HW288424   5.959   4.493   7.964  0.2156  0.0712  0.2765
28886SOL     OW88425   6.298   8.053   9.413  0.2265 -0.2499 -0.4135
28886SOL    HW188426   6.335   7.985   9.357  1.6346  0.6815 -0.6830
28886SOL    HW288427   6.333   8.135   9.378 -0.1949  0.4913  0.8118
28887SOL     OW88428   7.140   2.053   3.126  0.1846 -0.1122 -0.3536
28887SOL    HW188429   7.134   1.972   3.077 -1.4293 -1.1374  1.4031
28887SOL    HW288430   7.073   2.110   3.087 -1.4027 -1.0823  0.8263
28888SOL     OW88431   4.466   5.043   4.645 -0.2758 -0.0845 -0.0260
28888SOL    HW188432   4.499   4.960   4.679 -3.0812 -0.2583  2.7813
28888SOL    HW288433   4.504   5.109   4.703  0.1180  0.3603 -0.7811
28889SOL     OW88434   0.094   3.872   1.996  0.3470 -0.6817 -0.0744
28889SOL    HW188435   0.178   3.918   2.001  1.3362 -2.3744 -0.2491
28889SOL    HW288436   0.085   3.848   1.904 -1.3773  1.2140 -0.4880
28890SOL     OW88437   3.344   7.474   7.890 -0.1634  0.4086  0.3184
28890SOL    HW188438   3.328   7.567   7.906  0.9034  0.5238  0.7722
28890SOL    HW288439   3.427   7.456   7.934  0.5592 -0.3467 -1.2837
28891SOL     OW88440   8.052   8.567   2.565  0.1455 -0.1743 -0.1006
28891SOL    HW188441   7.998   8.578   2.487  0.5820  0.5699 -0.3100
28891SOL    HW288442   8.001   8.511   2.623  0.4304 -1.9795 -1.5198
28892SOL     OW88443   2.473   7.448   4.193 -0.4970 -0.4898 -0.5113
28892SOL    HW188444   2.413   7.519   4.171  0.5309  0.6460  0.2213
28892SOL    HW288445   2.543   7.490   4.244 -0.1537 -2.1139  0.4435
28893SOL     OW88446   7.180   3.586   5.191 -0.0534  0.9969  0.4199
28893SOL    HW188447   7.183   3.636   5.273 -1.0581 -0.1877  1.2123
28893SOL    HW288448   7.190   3.495   5.218 -3.3891  0.2548 -0.3592
28894SOL     OW88449   3.708   4.583   5.263  0.2116 -0.6764  0.0206
28894SOL    HW188450   3.767   4.582   5.187 -0.8933 -0.7739 -0.8527
28894SOL    HW288451   3.654   4.505   5.253 -0.7198 -0.0723  0.2814
28895SOL     OW88452   0.512   1.215   3.721  0.3826  0.3165  0.1655
28895SOL    HW188453   0.535   1.137   3.670 -0.5577  0.6942 -0.8710
28895SOL    HW288454   0.594   1.242   3.763  0.3904 -2.3417  2.1376
28896SOL     OW88455   8.366   4.950   4.304 -0.3800  0.2773  0.0685
28896SOL    HW188456   8.449   4.920   4.341 -0.1785 -0.3813 -0.8709
28896SOL    HW288457   8.299   4.897   4.348 -0.2174  0.0896  0.0914
28897SOL     OW88458   7.559   0.719   4.916 -0.4377  0.3723 -0.1543
28897SOL    HW188459   7.608   0.782   4.862 -2.5298  1.4843 -0.8489
28897SOL    HW288460   7.467   0.741   4.901 -1.1564  0.1078  3.1658
28898SOL     OW88461   6.861   1.948   9.062 -0.5298 -0.4384  0.3931
28898SOL    HW188462   6.820   1.966   8.977 -0.1981  0.1695  0.3538
28898SOL    HW288463   6.792   1.964   9.126 -1.1008 -1.9470  0.1936
28899SOL     OW88464   2.677   3.550   3.572  0.0768  0.5143  0.1804
28899SOL    HW188465   2.588   3.529   3.601 -0.0086  0.8634  0.1740
28899SOL    HW288466   2.689   3.498   3.493  0.1121 -0.0267  0.5368
28900SOL     OW88467   1.580   4.056   7.029 -0.1169  0.2212 -0.3632
28900SOL    HW188468   1.656   4.053   6.971 -0.3885  0.0772 -0.7153
28900SOL    HW288469   1.600   3.991   7.097  0.0906  0.2134 -0.4283
28901SOL     OW88470   3.677   7.455   0.878  0.0247 -0.1495 -0.0454
28901SOL    HW188471   3.678   7.451   0.782 -0.6261  1.4526 -0.1612
28901SOL    HW288472   3.590   7.423   0.903 -0.1847  0.3901 -0.0696
28902SOL     OW88473   0.548   3.180   1.516 -0.4784  0.1322 -0.0094
28902SOL    HW188474   0.544   3.113   1.584  0.0239 -1.9899 -1.9332
28902SOL    HW288475   0.480   3.155   1.453  1.3463 -0.1300 -2.0130
28903SOL     OW88476   8.178   3.671   1.462 -0.1336  0.2897 -0.3554
28903SOL    HW188477   8.146   3.629   1.382  0.7569 -0.0913 -0.5282
28903SOL    HW288478   8.099   3.702   1.506 -0.7330 -0.5921 -0.7703
28904SOL     OW88479   3.950   7.313   9.615 -0.0243 -0.9775  0.0250
28904SOL    HW188480   3.867   7.288   9.574 -0.5315 -0.5927  0.7980
28904SOL    HW288481   3.948   7.269   9.700  0.4391 -0.7319  0.1640
28905SOL     OW88482   2.998   3.406   9.578 -0.2684 -0.2106 -0.1271
28905SOL    HW188483   2.994   3.347   9.653  2.3077  0.4532  0.6356
28905SOL    HW288484   3.008   3.348   9.503 -0.4027 -0.8041  0.3060
28906SOL     OW88485   6.634   3.974   2.025  0.8641 -0.1075  0.0628
28906SOL    HW188486   6.569   3.995   2.092 -1.1702 -0.0776 -1.7993
28906SOL    HW288487   6.676   4.058   2.005 -0.7242  0.5024 -0.8460
28907SOL     OW88488   7.758   2.818   4.175  0.1762  0.1623  0.1099
28907SOL    HW188489   7.799   2.737   4.145 -0.5358 -0.5735  1.0595
28907SOL    HW288490   7.716   2.854   4.097  2.1716  0.6981 -0.7856
28908SOL     OW88491   6.611   5.282   3.559  0.4366  0.0369 -0.2739
28908SOL    HW188492   6.697   5.276   3.602  1.1323 -0.6666 -1.7097
28908SOL    HW288493   6.618   5.359   3.503  0.0597  0.0715 -0.2749
28909SOL     OW88494   2.010   4.392   7.219 -0.1978  0.8194  0.1966
28909SOL    HW188495   2.078   4.429   7.162  0.3618 -0.6305 -0.1105
28909SOL    HW288496   2.058   4.346   7.287 -0.8760  1.7210  1.3297
28910SOL     OW88497   4.243   7.943   8.347  0.0004  0.2757 -0.7212
28910SOL    HW188498   4.240   7.992   8.429  0.4341 -0.1627 -0.4345
28910SOL    HW288499   4.333   7.956   8.316  0.1970 -0.5490 -0.5057
28911SOL     OW88500   4.832   5.613   0.316 -0.1242 -0.0437 -0.1332
28911SOL    HW188501   4.795   5.525   0.317  1.0176 -0.5492 -0.5627
28911SOL    HW288502   4.841   5.635   0.223 -2.3135  1.3942 -0.0729
28912SOL     OW88503   6.848   7.740   9.232 -0.0113  0.6444 -0.4330
28912SOL    HW188504   6.780   7.681   9.201  0.8072  0.4406 -1.9709
28912SOL    HW288505   6.875   7.704   9.316  0.3602 -1.1148 -1.2506
28913SOL     OW88506   8.860   5.711   7.338 -0.2528  0.2497  0.0032
28913SOL    HW188507   8.799   5.761   7.393 -0.5251  0.5012 -0.5264
28913SOL    HW288508   8.816   5.703   7.254  0.1966 -0.0736 -0.2034
28914SOL     OW88509   4.216   9.748   1.832  0.0496  0.4335  0.8494
28914SOL    HW188510   4.282   9.802   1.788 -0.1308  1.0480  1.3088
28914SOL    HW288511   4.236   9.659   1.804  1.0543  0.6083  0.9428
28915SOL     OW88512   9.189   0.676   4.662 -0.0157 -0.1071 -0.0106
28915SOL    HW188513   9.210   0.586   4.635  0.6237  0.4540 -1.5238
28915SOL    HW288514   9.097   0.672   4.686  0.0634 -1.2217  0.2014
28916SOL     OW88515   5.557   1.714   4.265  0.5355 -0.2670 -0.1014
28916SOL    HW188516   5.624   1.749   4.207  1.0677 -0.5136  0.3544
28916SOL    HW288517   5.559   1.620   4.251 -0.7762 -0.1679 -1.1993
28917SOL     OW88518   4.384   6.708   8.844  0.3644 -0.4487 -0.7257
28917SOL    HW188519   4.449   6.776   8.861  1.6374 -2.0423  1.1419
28917SOL    HW288520   4.351   6.728   8.756  1.2007  2.1226 -0.5324
28918SOL     OW88521   2.501   6.645   3.356 -0.1484  0.0441 -0.4145
28918SOL    HW188522   2.597   6.647   3.357  0.0696 -1.5003 -3.8295
28918SOL    HW288523   2.475   6.737   3.347  0.9308  0.5194  0.9166
28919SOL     OW88524   5.817   2.855   5.982  0.3245  0.2932  1.1276
28919SOL    HW188525   5.840   2.792   6.051  0.9858  0.7648  1.3399
28919SOL    HW288526   5.861   2.822   5.904 -1.9390 -1.3220  0.3996
28920SOL     OW88527   4.172   5.576   6.383  0.2678  0.1310  0.2685
28920SOL    HW188528   4.093   5.621   6.354  0.9730  1.5115  0.4008
28920SOL    HW288529   4.241   5.611   6.326  0.7214 -1.4625 -0.2331
28921SOL     OW88530   5.632   7.343   8.534  0.4260  0.1047 -0.1842
28921SOL    HW188531   5.554   7.297   8.502  1.2494 -1.8112  0.4322
28921SOL    HW288532   5.705   7.293   8.498  1.3677 -0.1045  1.8992
28922SOL     OW88533   3.324   8.206   4.252 -0.0623 -0.3420  0.0099
28922SOL    HW188534   3.420   8.207   4.246 -0.1213 -1.1826 -1.4178
28922SOL    HW288535   3.303   8.278   4.312  1.4017  0.5435 -0.5004
28923SOL     OW88536   5.880   4.337   9.745 -0.4655 -0.1412  0.0991
28923SOL    HW188537   5.847   4.307   9.830  1.2767 -2.6611  0.0054
28923SOL    HW288538   5.883   4.258   9.691 -0.1235  1.1276 -1.8457
28924SOL     OW88539   5.578   5.847   9.768  0.4613 -0.1727  0.2320
28924SOL    HW188540   5.646   5.786   9.742  0.6071 -0.6536  1.6250
28924SOL    HW288541   5.500   5.793   9.779  0.4143 -0.0081  0.7666
28925SOL     OW88542   6.031   1.435   4.400  0.3816  0.4852 -0.4771
28925SOL    HW188543   6.066   1.350   4.427 -0.7979 -0.1757 -0.9560
28925SOL    HW288544   6.008   1.479   4.483 -1.9092 -0.9575 -0.2621
28926SOL     OW88545   8.330   4.303   1.683  1.2425 -0.8491  0.0818
28926SOL    HW188546   8.322   4.378   1.624  2.5176 -1.0187 -0.3562
28926SOL    HW288547   8.424   4.284   1.684  0.9702 -2.3396  0.3037
28927SOL     OW88548   5.537   1.287   7.476 -0.2023  1.0743  0.0941
28927SOL    HW188549   5.565   1.243   7.396 -0.7199  0.3794  0.2909
28927SOL    HW288550   5.447   1.258   7.490  0.7261 -1.0239  2.4067
28928SOL     OW88551   7.019   3.411   0.140  0.1880 -0.1837  0.3586
28928SOL    HW188552   7.087   3.365   0.189 -0.0862  0.8451  1.7661
28928SOL    HW288553   7.066   3.481   0.094 -0.0755  1.6970  2.7946
28929SOL     OW88554   7.472   0.676   5.512  1.2211  0.2405 -0.5404
28929SOL    HW188555   7.402   0.640   5.565  0.9737 -0.1932 -1.1433
28929SOL    HW288556   7.442   0.763   5.487  1.0495  0.1907 -0.5072
28930SOL     OW88557   3.960   7.290   6.490  0.2773  0.4303 -0.2172
28930SOL    HW188558   3.990   7.217   6.436 -0.1566 -2.1605  2.7691
28930SOL    HW288559   3.995   7.272   6.577 -1.0804  3.0468  0.9986
28931SOL     OW88560   2.168   5.680   0.439 -0.3780 -0.1788 -0.0229
28931SOL    HW188561   2.187   5.586   0.437  0.8511  0.0686 -1.7255
28931SOL    HW288562   2.176   5.704   0.531 -1.9044 -1.9384  0.6406
28932SOL     OW88563   3.540   1.308   7.668 -0.2747 -0.1967 -0.2484
28932SOL    HW188564   3.446   1.307   7.685 -0.3496  0.3788 -0.6068
28932SOL    HW288565   3.573   1.381   7.720 -0.0051 -0.4827 -0.0194
28933SOL     OW88566   2.797   8.293   3.341  0.1579  0.2722 -0.5834
28933SOL    HW188567   2.818   8.224   3.404  2.6407  0.0966 -1.4827
28933SOL    HW288568   2.723   8.258   3.291 -0.5304 -0.4510  0.8830
28934SOL     OW88569   7.787   5.458   7.747  0.2113 -0.5428  0.1551
28934SOL    HW188570   7.707   5.466   7.800 -0.4219 -0.5176 -0.7862
28934SOL    HW288571   7.806   5.364   7.749 -0.0674 -0.6027  0.0560
28935SOL     OW88572   3.204   0.398   9.717 -0.9584  0.4056 -0.0609
28935SOL    HW188573   3.236   0.378   9.629  1.6451 -0.6388  1.0229
28935SOL    HW288574   3.118   0.438   9.703 -0.0833  1.4693 -3.1174
28936SOL     OW88575   5.687   2.501   3.418 -0.4990  0.3283  0.3168
28936SOL    HW188576   5.612   2.448   3.445 -0.0323 -0.8398 -0.5995
28936SOL    HW288577   5.719   2.541   3.499 -0.6155 -1.1072  1.0920
28937SOL     OW88578   0.799   1.865   3.969  0.0218 -0.2299 -0.2191
28937SOL    HW188579   0.775   1.777   3.940 -0.6934  0.1121 -0.6889
28937SOL    HW288580   0.842   1.851   4.054 -1.3374 -0.9122  0.3885
28938SOL     OW88581   4.307   5.708   5.205 -0.1427  0.1740 -0.0679
28938SOL    HW188582   4.322   5.615   5.187  0.1630  0.4346 -1.2849
28938SOL    HW288583   4.216   5.713   5.233  0.3708 -0.7205  1.8839
28939SOL     OW88584   2.577   8.473   1.398  0.2566  0.1513  0.1734
28939SOL    HW188585   2.537   8.452   1.314 -0.4576  0.7879  0.3509
28939SOL    HW288586   2.517   8.534   1.439  1.5059  1.3369  0.3385
28940SOL     OW88587   2.555   0.441   1.875 -0.0401 -0.1742  0.0679
28940SOL    HW188588   2.644   0.477   1.879  0.0948 -0.0885 -2.2226
28940SOL    HW288589   2.563   0.352   1.910  1.0820 -0.3491 -0.5956
28941SOL     OW88590   7.176   3.785   1.222  0.1292  0.4369 -0.5314
28941SOL    HW188591   7.098   3.733   1.242  0.2233  1.1432  1.9734
28941SOL    HW288592   7.248   3.721   1.221 -0.1646  0.1048 -0.4556
28942SOL     OW88593   3.635   6.113   8.264 -0.2701 -0.3197 -0.6698
28942SOL    HW188594   3.555   6.145   8.222 -0.5831  1.0438  0.8598
28942SOL    HW288595   3.688   6.080   8.191 -1.7842 -0.3075 -1.8335
28943SOL     OW88596   6.016   2.632   4.202 -0.1361  0.5464 -0.0665
28943SOL    HW188597   6.073   2.559   4.177  0.8366  1.7461 -1.4822
28943SOL    HW288598   5.979   2.605   4.286  1.4860 -0.8557  0.2632
28944SOL     OW88599   2.041   6.134   8.606  0.2946 -0.4216  0.2167
28944SOL    HW188600   1.963   6.183   8.582  0.2243 -0.0160  1.2067
28944SOL    HW288601   2.104   6.153   8.537 -0.9595 -2.0449 -1.4925
28945SOL     OW88602   3.909   0.875   7.810 -0.1791  0.1378 -0.2508
28945SOL    HW188603   3.855   0.949   7.782 -3.3935 -2.0153 -0.2345
28945SOL    HW288604   3.911   0.816   7.735  1.5203 -0.2219  0.0466
28946SOL     OW88605   1.950   9.369   8.646  0.1722 -0.7852  0.4626
28946SOL    HW188606   1.867   9.337   8.612 -0.4597  0.1021  1.1458
28946SOL    HW288607   1.973   9.307   8.715 -0.7509 -0.1370  1.3772
28947SOL     OW88608   0.233   3.179   4.672  0.2988  0.2780  0.5103
28947SOL    HW188609   0.221   3.168   4.766  0.5851 -0.5669  0.4533
28947SOL    HW288610   0.262   3.270   4.662  0.4489  0.3179  1.2495
28948SOL     OW88611   4.289   4.335   8.651  0.5090  0.0683  0.3983
28948SOL    HW188612   4.259   4.285   8.575 -0.7208 -1.4259  1.7972
28948SOL    HW288613   4.236   4.415   8.649 -3.1848 -2.0607  2.2439
28949SOL     OW88614   8.833   2.453   8.905  0.1513  0.0906  0.0293
28949SOL    HW188615   8.829   2.368   8.862 -0.7845 -0.5500  1.2982
28949SOL    HW288616   8.746   2.491   8.892 -0.6796 -0.7729  2.5163
28950SOL     OW88617   1.189   6.825   7.160  0.0698 -0.1241  0.1264
28950SOL    HW188618   1.228   6.845   7.245  0.9329 -1.0454 -0.0299
28950SOL    HW288619   1.259   6.842   7.096  0.0173 -1.1371 -0.2243
28951SOL     OW88620   3.384   4.074   5.119 -0.3557  0.2960  0.7261
28951SOL    HW188621   3.472   4.102   5.143  0.2680 -0.7790 -0.1914
28951SOL    HW288622   3.390   4.056   5.025 -1.0691 -1.5060  0.9916
28952SOL     OW88623   8.184   9.243   7.612  0.8454 -0.4977 -0.4879
28952SOL    HW188624   8.219   9.259   7.700 -1.6369 -2.9940  1.1368
28952SOL    HW288625   8.149   9.154   7.617 -0.4947 -0.2561 -3.6563
28953SOL     OW88626   0.843   6.448   3.747 -0.1937 -0.0053  0.4796
28953SOL    HW188627   0.832   6.399   3.828 -0.8164 -0.1772  0.2921
28953SOL    HW288628   0.774   6.415   3.689 -0.0076  0.4028  0.0194
28954SOL     OW88629   6.517   9.323   8.724  0.1415 -0.1687  0.3321
28954SOL    HW188630   6.493   9.274   8.802  1.1217  0.9157  1.3529
28954SOL    HW288631   6.460   9.400   8.725  0.6645  0.2254  0.3979
28955SOL     OW88632   7.482   8.284   1.978  0.1293 -0.0698  0.1969
28955SOL    HW188633   7.413   8.349   1.992 -1.2760 -1.3682 -0.4299
28955SOL    HW288634   7.467   8.218   2.045  0.8379 -0.3168  0.1174
28956SOL     OW88635   1.169   6.095   6.070 -0.6714  0.5268 -0.0765
28956SOL    HW188636   1.192   6.123   6.159 -0.7304  2.0694 -0.5235
28956SOL    HW288637   1.254   6.083   6.026 -0.4852 -3.1678  0.9578
28957SOL     OW88638   1.733   5.801   7.348  0.8340  0.5166 -0.2854
28957SOL    HW188639   1.649   5.777   7.308  0.6278 -0.5992  0.7503
28957SOL    HW288640   1.753   5.888   7.312 -0.8431  0.8805 -0.4205
28958SOL     OW88641   9.673   1.745   8.645  0.2772 -0.0343 -0.6387
28958SOL    HW188642   9.747   1.711   8.696  0.1299  0.2059 -0.2536
28958SOL    HW288643   9.621   1.667   8.624  1.1342 -0.3225 -1.7382
28959SOL     OW88644   3.993   8.065   0.306  0.4134  0.6228 -0.4271
28959SOL    HW188645   3.909   8.035   0.269  0.7476  0.0876 -0.7668
28959SOL    HW288646   4.009   8.005   0.379  1.0056  0.0647 -1.0064
28960SOL     OW88647   2.837   5.007   0.722  0.7091 -0.1709 -0.5596
28960SOL    HW188648   2.886   5.084   0.692 -0.5199  0.4246 -1.1034
28960SOL    HW288649   2.777   5.041   0.788 -0.1482 -0.5659 -1.1128
28961SOL     OW88650   6.577   5.189   1.979 -0.2261 -0.1254 -0.1774
28961SOL    HW188651   6.628   5.264   2.008  0.0446 -1.0028  1.7696
28961SOL    HW288652   6.536   5.218   1.897 -1.9392  2.9784  1.5666
28962SOL     OW88653   3.391   9.442   3.697  0.0180 -0.2182  0.0877
28962SOL    HW188654   3.459   9.382   3.666 -1.0136 -0.7846 -1.2111
28962SOL    HW288655   3.433   9.492   3.767  1.3311 -1.5026  0.2808
28963SOL     OW88656   7.878   8.079   6.542  0.4539 -0.3968  0.0844
28963SOL    HW188657   7.895   8.030   6.461 -0.7775  1.8467 -1.6467
28963SOL    HW288658   7.918   8.165   6.526  0.5234 -0.0163  2.0619
28964SOL     OW88659   6.363   3.697   6.197  0.3891  0.7343 -0.3723
28964SOL    HW188660   6.398   3.784   6.217 -2.1997  2.0988 -1.3236
28964SOL    HW288661   6.410   3.670   6.118  0.5826  1.6654 -0.5849
28965SOL     OW88662   0.838   2.770   7.592  0.1509 -0.3442  0.1332
28965SOL    HW188663   0.901   2.829   7.631 -0.2240  0.9011 -1.0745
28965SOL    HW288664   0.835   2.695   7.652  0.8229  0.7270  1.5689
28966SOL     OW88665   8.014   3.496   1.241 -0.1825  0.0761 -0.1664
28966SOL    HW188666   7.966   3.414   1.235  0.2908 -0.3673  1.5896
28966SOL    HW288667   7.949   3.560   1.271 -0.3019  0.1107 -0.4947
28967SOL     OW88668   7.345   4.191   9.154  0.1085  0.5115  0.0863
28967SOL    HW188669   7.432   4.228   9.139  0.0569  0.2708 -0.9068
28967SOL    HW288670   7.295   4.262   9.193  0.4299  1.0350 -0.4301
28968SOL     OW88671   1.474   5.655   2.845 -0.3465 -0.1256 -0.3500
28968SOL    HW188672   1.559   5.672   2.806 -0.5438 -1.2716 -1.3282
28968SOL    HW288673   1.436   5.742   2.859  0.2128  0.3536 -1.6565
28969SOL     OW88674   1.249   6.375   1.386 -0.3706 -0.6362  0.0474
28969SOL    HW188675   1.166   6.367   1.338  0.1186  0.5326 -1.0436
28969SOL    HW288676   1.316   6.347   1.324  0.1050 -1.0923  0.7544
28970SOL     OW88677   3.381   0.544   1.593 -1.6100 -0.3621  0.6589
28970SOL    HW188678   3.437   0.552   1.670 -0.9930 -0.4610  0.2196
28970SOL    HW288679   3.431   0.492   1.531 -1.7055  0.5279 -0.1862
28971SOL     OW88680   6.221   5.507   2.610  0.2865 -0.2982 -0.3445
28971SOL    HW188681   6.152   5.553   2.562  0.4831 -1.4027 -1.7682
28971SOL    HW288682   6.299   5.517   2.556  1.0251  0.1146  0.7639
28972SOL     OW88683   3.455   5.113   2.416 -0.0658 -0.5669  0.0174
28972SOL    HW188684   3.519   5.089   2.349 -0.7244  1.9796 -1.6689
28972SOL    HW288685   3.504   5.166   2.479 -0.2753  0.6470 -0.8068
28973SOL     OW88686   3.124   1.764   4.093  0.3445 -0.3756  0.4805
28973SOL    HW188687   3.140   1.670   4.102 -0.7410 -0.4434  1.9615
28973SOL    HW288688   3.168   1.804   4.168  1.8710  0.4770 -0.8048
28974SOL     OW88689   4.722   7.881   2.522 -0.1123  0.1541  0.5051
28974SOL    HW188690   4.785   7.953   2.534 -0.1769  0.4599 -0.8146
28974SOL    HW288691   4.665   7.886   2.599  2.7823 -1.5731  3.0019
28975SOL     OW88692   0.783   0.689   3.040  0.4412 -0.0855  0.4192
28975SOL    HW188693   0.826   0.611   3.075  0.7687  0.3625  1.0384
28975SOL    HW288694   0.844   0.760   3.060  0.3463  0.2726 -0.5185
28976SOL     OW88695   5.035   7.609   7.029  0.4775 -0.0925 -0.3054
28976SOL    HW188696   4.967   7.667   6.995  2.1715  2.1138 -0.1832
28976SOL    HW288697   5.046   7.637   7.120  2.3718  0.5054 -0.6687
28977SOL     OW88698   9.807   5.534   9.478  0.1346  0.0137  0.4772
28977SOL    HW188699   9.755   5.612   9.496 -0.5577 -0.2838 -0.1570
28977SOL    HW288700   9.772   5.501   9.395  0.8260 -0.6275  0.4353
28978SOL     OW88701   1.077   3.741   2.333  0.2913 -0.2188  0.2789
28978SOL    HW188702   1.012   3.711   2.270  1.6305 -1.5893 -0.5294
28978SOL    HW288703   1.078   3.673   2.400  0.4199  0.1262  0.6260
28979SOL     OW88704   0.732   0.130   3.160 -0.9711  0.1404 -0.3335
28979SOL    HW188705   0.714   0.209   3.109  1.1041  0.2496 -0.9761
28979SOL    HW288706   0.750   0.063   3.095  0.4889 -0.0217  0.2012
28980SOL     OW88707   6.544   8.451   0.354 -0.3997  0.6067  0.2288
28980SOL    HW188708   6.609   8.419   0.417 -0.1416 -0.4325 -0.5382
28980SOL    HW288709   6.464   8.460   0.405  0.5225  2.8064  1.4170
28981SOL     OW88710   9.848   2.759   7.996 -0.2636  0.4990  0.1416
28981SOL    HW188711   9.840   2.813   7.917 -1.5725  0.0874 -0.0180
28981SOL    HW288712   9.831   2.820   8.068 -0.5114  0.5664  0.0270
28982SOL     OW88713   6.359   0.436   0.479  0.1513 -0.1521  0.2009
28982SOL    HW188714   6.313   0.358   0.450  2.2942 -0.8269 -1.6168
28982SOL    HW288715   6.388   0.416   0.568  0.3742 -1.2902 -0.1234
28983SOL     OW88716   7.452   5.774   6.235  0.1088  0.0330  0.7575
28983SOL    HW188717   7.517   5.794   6.168  0.5829 -0.3573  1.1026
28983SOL    HW288718   7.466   5.839   6.303 -0.9696  1.0067  0.0870
28984SOL     OW88719   4.157   0.565   6.220 -0.2503 -0.3596 -0.3741
28984SOL    HW188720   4.120   0.651   6.240 -1.7827 -0.9682 -0.4848
28984SOL    HW288721   4.196   0.576   6.133 -0.5439  0.1870 -0.4453
28985SOL     OW88722   7.072   8.163   5.078 -0.3993  0.2191  0.0957
28985SOL    HW188723   7.091   8.090   5.137 -0.8688  1.2404  1.5689
28985SOL    HW288724   7.143   8.161   5.014  0.3892 -0.6478  0.9669
28986SOL     OW88725   2.062   3.303   8.192 -0.1884  0.1675  0.5811
28986SOL    HW188726   1.989   3.254   8.230  0.5120 -0.8193  0.6850
28986SOL    HW288727   2.118   3.237   8.153 -0.4462  1.0857 -1.4794
28987SOL     OW88728   0.788   7.035   3.733  0.0219  0.0092  0.3317
28987SOL    HW188729   0.844   7.055   3.658  1.5358 -0.8203  1.2006
28987SOL    HW288730   0.727   6.968   3.700  0.4047 -0.0563 -0.2566
28988SOL     OW88731   8.009   9.458   2.781 -0.2256 -0.0521  0.5292
28988SOL    HW188732   7.972   9.419   2.860 -0.9048  0.2601  0.3734
28988SOL    HW288733   8.039   9.544   2.809 -1.5532  0.5478  0.2109
28989SOL     OW88734   7.831   2.657   8.895  0.2204 -0.1478 -0.8331
28989SOL    HW188735   7.904   2.642   8.834 -0.0157  0.3581 -1.2496
28989SOL    HW288736   7.798   2.569   8.914  2.1122 -0.5751  0.8546
28990SOL     OW88737   3.457   4.028   6.376 -0.1495 -0.3255  0.4895
28990SOL    HW188738   3.377   4.070   6.407  0.9146  2.0384  0.2624
28990SOL    HW288739   3.527   4.081   6.412  1.3278 -1.9683  0.1665
28991SOL     OW88740   9.049   8.876   0.369  0.0741 -0.1707  0.6384
28991SOL    HW188741   9.127   8.880   0.313  0.6481  0.4391  1.4527
28991SOL    HW288742   9.020   8.785   0.365 -0.4845  0.0431 -1.4179
28992SOL     OW88743   9.363   9.517   0.874  0.5654  0.6158 -0.3072
28992SOL    HW188744   9.320   9.599   0.851 -1.7516 -0.8037 -1.3949
28992SOL    HW288745   9.387   9.527   0.966 -2.4479  1.4417  0.4673
28993SOL     OW88746   9.179   7.178   0.836  0.4784  0.1589 -0.4456
28993SOL    HW188747   9.091   7.161   0.803  0.1963  0.0787  0.3212
28993SOL    HW288748   9.214   7.244   0.777  0.3681 -0.6885 -1.5019
28994SOL     OW88749   0.519   1.877   8.674  0.0276  0.2178 -0.4039
28994SOL    HW188750   0.607   1.909   8.692 -0.0893  0.4224 -0.1886
28994SOL    HW288751   0.462   1.930   8.730 -0.3834  1.1794 -1.6754
28995SOL     OW88752   5.072   5.558   0.028 -0.2471 -0.2465 -0.0844
28995SOL    HW188753   5.113   5.487   0.078  0.4265  0.8345  0.9443
28995SOL    HW288754   4.999   5.516  -0.017  0.7886 -1.8266 -0.3891
28996SOL     OW88755   1.632   0.901   5.893 -0.5213  0.1146 -0.3791
28996SOL    HW188756   1.695   0.900   5.965  0.3516  0.0382 -1.1239
28996SOL    HW288757   1.636   0.991   5.859 -1.1318  0.2257 -0.1520
28997SOL     OW88758   3.832   6.578   8.515 -0.0199  0.0895 -0.1268
28997SOL    HW188759   3.851   6.517   8.444 -2.2498 -0.2283 -0.5190
28997SOL    HW288760   3.759   6.630   8.483  0.3600  1.4345  1.1103
28998SOL     OW88761   2.239   9.329   3.779  0.2700  0.6040 -0.8325
28998SOL    HW188762   2.190   9.301   3.701 -0.2185 -0.0855 -0.2848
28998SOL    HW288763   2.292   9.253   3.803 -0.3260  0.4606  0.0854
28999SOL     OW88764   6.953   8.641   2.421 -0.1570 -0.6649  0.0564
28999SOL    HW188765   7.012   8.685   2.482  0.3856 -1.1489 -0.1108
28999SOL    HW288766   6.868   8.682   2.436  0.5547  1.2736 -0.9334
29000SOL     OW88767   8.852   0.588   5.322 -0.1054 -0.3387 -0.4185
29000SOL    HW188768   8.901   0.618   5.398 -1.6163 -1.0538  0.8949
29000SOL    HW288769   8.911   0.526   5.278  0.7143 -0.0508  0.2481
29001SOL     OW88770   3.252   6.703   2.697  0.0887 -0.5534  0.3396
29001SOL    HW188771   3.231   6.647   2.623  1.4030  0.1475 -0.6135
29001SOL    HW288772   3.198   6.781   2.685  1.0934  0.0328 -0.5251
29002SOL     OW88773   5.614   2.418   4.007 -0.2642 -0.4777  0.3455
29002SOL    HW188774   5.700   2.437   4.044 -1.3125  3.0056  1.3264
29002SOL    HW288775   5.557   2.409   4.082 -1.0261 -1.4477 -0.3295
29003SOL     OW88776   1.704   3.204   3.934 -0.3286 -0.2061  0.2938
29003SOL    HW188777   1.663   3.180   3.851 -1.7553 -0.7721  1.1187
29003SOL    HW288778   1.640   3.261   3.977  1.0239  1.3152  0.3938
29004SOL     OW88779   7.954   1.719   6.370  0.0184 -0.2412 -0.0209
29004SOL    HW188780   7.987   1.772   6.297 -1.2908  1.6385  0.6803
29004SOL    HW288781   7.972   1.772   6.448  0.4484 -1.7512  0.9523
29005SOL     OW88782   5.742   1.396   8.836 -0.0980  0.7279  0.2349
29005SOL    HW188783   5.738   1.421   8.744 -0.2396 -4.0422 -1.3193
29005SOL    HW288784   5.835   1.378   8.851 -0.2468  0.2897  0.6281
29006SOL     OW88785   1.428   6.449   5.459  0.1387  0.0867 -0.8468
29006SOL    HW188786   1.452   6.464   5.368 -1.6698  1.8356 -1.0807
29006SOL    HW288787   1.374   6.370   5.457 -1.1097  0.9340 -1.5295
29007SOL     OW88788   2.820   3.868   6.736 -0.2114 -0.2295  0.0306
29007SOL    HW188789   2.869   3.789   6.760  1.7388  1.1545  0.7959
29007SOL    HW288790   2.820   3.868   6.640 -0.0095 -1.0083  0.0218
29008SOL     OW88791   8.693   3.265   6.914 -0.5779  0.1349  0.3209
29008SOL    HW188792   8.660   3.304   6.995  0.9806  0.1361  0.9928
29008SOL    HW288793   8.668   3.173   6.920 -2.3799  0.5341 -0.2640
29009SOL     OW88794   7.116   0.239   3.841 -0.5957  0.1634  0.2878
29009SOL    HW188795   7.121   0.333   3.858  0.1543  0.3035 -0.5543
29009SOL    HW288796   7.111   0.233   3.745 -0.9757 -0.6458  0.3527
29010SOL     OW88797   1.114   8.204   3.312  0.0844 -0.1316 -0.2136
29010SOL    HW188798   1.143   8.294   3.297  2.5726 -1.1496 -2.4847
29010SOL    HW288799   1.031   8.196   3.265  0.1855  0.8041 -0.5555
29011SOL     OW88800   1.198   1.972   2.342 -0.1754  0.0489  0.1937
29011SOL    HW188801   1.122   2.006   2.295 -0.8396 -0.2918  0.9868
29011SOL    HW288802   1.239   1.911   2.280 -0.3612  0.4782 -0.3584
29012SOL     OW88803   4.587   4.600   9.628  0.1328 -0.3294  0.1891
29012SOL    HW188804   4.637   4.531   9.670 -0.4163 -2.2646 -2.1330
29012SOL    HW288805   4.521   4.625   9.693  1.7870 -0.3044  1.9221
29013SOL     OW88806   3.463   2.274   9.236  0.3799 -0.4976  0.6293
29013SOL    HW188807   3.394   2.336   9.261  1.1882  0.7405 -0.0956
29013SOL    HW288808   3.426   2.224   9.164  0.6234  0.9816 -0.5664
29014SOL     OW88809   6.059   8.290   5.546  0.6920 -0.2726  0.4606
29014SOL    HW188810   5.980   8.343   5.555 -0.3643 -1.9659  1.5515
29014SOL    HW288811   6.036   8.223   5.481  1.0856 -1.0207  1.0846
29015SOL     OW88812   6.592   2.897   8.513  0.4943 -0.2814 -0.0487
29015SOL    HW188813   6.554   2.823   8.464  0.2613 -0.1881 -0.0092
29015SOL    HW288814   6.518   2.953   8.534  0.6440 -0.1367  0.1007
29016SOL     OW88815   6.273   2.329   6.569  0.1789  0.2945 -0.3668
29016SOL    HW188816   6.354   2.304   6.614  1.1696 -1.2360 -2.8086
29016SOL    HW288817   6.257   2.258   6.507 -1.7571  1.6984 -1.5834
29017SOL     OW88818   2.464   9.697   0.612  0.5744 -0.1554 -0.2640
29017SOL    HW188819   2.537   9.638   0.594  2.2095  1.9077 -0.7364
29017SOL    HW288820   2.426   9.714   0.525 -0.2510 -0.9062 -0.0649
29018SOL     OW88821   3.139   6.414   9.763  0.0187 -0.3438  0.5430
29018SOL    HW188822   3.113   6.498   9.726  0.2331 -1.0397 -1.3198
29018SOL    HW288823   3.057   6.373   9.790  0.0530  1.2531  3.4755
29019SOL     OW88824   5.339   1.844   8.343  0.3376 -0.6281  0.6061
29019SOL    HW188825   5.386   1.773   8.302 -0.7376 -0.8537 -0.2904
29019SOL    HW288826   5.286   1.882   8.273 -0.8241 -0.4145  1.5514
29020SOL     OW88827   6.716   9.033   4.362  0.8979  0.3732  0.6788
29020SOL    HW188828   6.711   9.078   4.446  2.8220  0.8078  0.6240
29020SOL    HW288829   6.688   8.944   4.380 -1.5996  1.1709  1.0999
29021SOL     OW88830   7.540   9.499   5.176 -0.1408 -0.0208 -0.0202
29021SOL    HW188831   7.633   9.518   5.163  0.7191 -2.5615  1.6374
29021SOL    HW288832   7.495   9.562   5.120  2.5123  1.8975 -0.2209
29022SOL     OW88833   3.629   0.019   8.140 -0.2785  0.5475 -0.0166
29022SOL    HW188834   3.571   0.037   8.215 -0.6527 -1.6430  0.2789
29022SOL    HW288835   3.647  -0.075   8.145  0.9377  0.6302 -1.8208
29023SOL     OW88836   0.540   5.249   6.615  0.1548  0.3253 -0.7225
29023SOL    HW188837   0.462   5.242   6.559  0.9144 -3.9182 -1.6296
29023SOL    HW288838   0.505   5.252   6.704 -1.0841 -0.6739 -1.1441
29024SOL     OW88839   2.072   8.301   5.669  0.1460 -0.1459  0.2729
29024SOL    HW188840   2.116   8.374   5.712  0.3389 -0.3446  0.4195
29024SOL    HW288841   1.979   8.319   5.679  0.1944  0.0636  0.3350
29025SOL     OW88842   2.421   1.561   2.555  0.2742 -0.4694 -0.6895
29025SOL    HW188843   2.516   1.564   2.569  0.3030  2.2676 -0.9366
29025SOL    HW288844   2.410   1.583   2.462 -0.6260 -0.0226 -0.4862
29026SOL     OW88845   0.171   0.105   7.053 -0.1594 -0.1456 -0.3772
29026SOL    HW188846   0.112   0.034   7.026  0.6540 -0.5902 -1.0172
29026SOL    HW288847   0.243   0.102   6.990 -0.1021  1.2418 -0.3998
29027SOL     OW88848   6.813   3.612   7.609  0.2020 -0.0832 -0.0996
29027SOL    HW188849   6.880   3.613   7.541  1.4406  0.9821  1.0815
29027SOL    HW288850   6.816   3.700   7.647 -1.2953 -0.2817  0.5401
29028SOL     OW88851   0.718   0.430   8.373 -0.3029  0.3356  0.0003
29028SOL    HW188852   0.641   0.416   8.429  1.3294 -1.1924  2.0479
29028SOL    HW288853   0.733   0.345   8.331  0.7207  0.3688  0.2736
29029SOL     OW88854   6.203   8.335   0.097  0.9180 -0.1065  0.4930
29029SOL    HW188855   6.255   8.414   0.112  1.0840 -0.0934 -0.1201
29029SOL    HW288856   6.213   8.317   0.004 -1.1011  0.5496  0.0939
29030SOL     OW88857   2.140   2.043   2.339 -0.3656  0.3047  0.3385
29030SOL    HW188858   2.142   2.099   2.417 -1.1683  1.5040 -0.4516
29030SOL    HW288859   2.082   2.090   2.278 -1.5604 -1.6961 -0.1558
29031SOL     OW88860   9.612   6.836   0.584  0.7223  0.1546  0.7228
29031SOL    HW188861   9.676   6.835   0.655  2.5863  1.1627 -0.8191
29031SOL    HW288862   9.652   6.893   0.517 -1.5186  0.2963 -0.5941
29032SOL     OW88863   0.194   5.687   9.698  0.0176 -0.4105 -0.3126
29032SOL    HW188864   0.173   5.711   9.608  1.8332 -1.0240 -0.9649
29032SOL    HW288865   0.193   5.591   9.698 -0.1524 -0.4158  0.3750
29033SOL     OW88866   5.737   7.831   9.262  0.4213  0.1228 -0.3252
29033SOL    HW188867   5.782   7.842   9.179 -0.2462  0.0799 -0.6996
29033SOL    HW288868   5.749   7.915   9.307 -0.6692  0.7653 -1.1929
29034SOL     OW88869   2.947   1.270   3.813 -0.1315  0.6684 -0.2978
29034SOL    HW188870   2.918   1.334   3.878  2.4205  2.3015 -0.6243
29034SOL    HW288871   3.042   1.273   3.817  0.0918 -0.9152 -2.4784
29035SOL     OW88872   9.260   9.243   0.488 -0.3578  0.1679 -0.1389
29035SOL    HW188873   9.221   9.159   0.461  2.2938 -1.3811  0.4822
29035SOL    HW288874   9.222   9.260   0.574 -2.2476  0.5987 -0.9958
29036SOL     OW88875   5.660   2.281   8.007  0.4957 -0.2958  0.1277
29036SOL    HW188876   5.660   2.194   7.966 -0.3378  0.6109 -1.9236
29036SOL    HW288877   5.715   2.270   8.085  0.8042 -2.5384 -0.3206
29037SOL     OW88878   7.662   0.146   8.444 -0.5967 -0.8070 -0.4394
29037SOL    HW188879   7.752   0.117   8.426 -0.7492 -2.0228  0.6593
29037SOL    HW288880   7.626   0.080   8.503 -1.3772  0.9897  1.2206
29038SOL     OW88881   0.502   3.877   6.387 -0.2820 -0.1567 -0.2013
29038SOL    HW188882   0.442   3.940   6.427  1.0220 -0.5375  2.6073
29038SOL    HW288883   0.588   3.901   6.422  0.3857 -2.8784  0.2538
29039SOL     OW88884   6.763   1.283   0.128 -0.5456  0.2457  0.3407
29039SOL    HW188885   6.697   1.337   0.085 -2.0680 -1.4849  0.3617
29039SOL    HW288886   6.782   1.328   0.210 -0.9816  1.2654 -0.1086
29040SOL     OW88887   3.205   8.124   8.647  0.0109  0.6014  0.2071
29040SOL    HW188888   3.140   8.064   8.681  1.1830 -0.7501  0.1321
29040SOL    HW288889   3.249   8.076   8.577  1.4545  1.2587  0.6102
29041SOL     OW88890   7.505   9.757   6.695 -0.1983  0.0051  0.1224
29041SOL    HW188891   7.468   9.843   6.673 -0.1392 -0.1621 -0.6443
29041SOL    HW288892   7.581   9.777   6.749  0.6854  0.5203 -1.2612
29042SOL     OW88893   7.495   6.379   0.782  0.4832 -0.0901  0.4776
29042SOL    HW188894   7.536   6.404   0.865  2.0729 -0.4204 -0.1667
29042SOL    HW288895   7.559   6.320   0.741 -0.7869 -0.8494 -0.4618
29043SOL     OW88896   0.765   0.444   7.926  0.1381 -0.0048  0.1248
29043SOL    HW188897   0.790   0.501   7.853 -0.2751 -0.4108 -0.3491
29043SOL    HW288898   0.740   0.504   7.996 -0.3803  0.4055 -0.4017
29044SOL     OW88899   5.765   0.380   1.774 -0.4592  0.4436  0.0196
29044SOL    HW188900   5.715   0.459   1.791 -0.3544  0.7300 -0.9183
29044SOL    HW288901   5.745   0.358   1.683 -0.6184 -0.7114  0.3085
29045SOL     OW88902   7.852   4.466   7.936 -0.3051 -0.1438  0.3715
29045SOL    HW188903   7.910   4.541   7.926 -0.6759  0.2871  1.3051
29045SOL    HW288904   7.813   4.454   7.850  2.3402 -1.4561 -0.7352
29046SOL     OW88905   6.384   7.908   8.201 -0.1345  0.1987  0.0447
29046SOL    HW188906   6.351   7.940   8.117 -1.4949 -0.8371  0.1590
29046SOL    HW288907   6.419   7.821   8.183 -0.1457  0.0977  0.4870
29047SOL     OW88908   7.464   0.852   4.002 -0.4243 -0.2286  0.1535
29047SOL    HW188909   7.466   0.815   4.090  3.1503 -0.8006 -0.0129
29047SOL    HW288910   7.460   0.946   4.015  3.8837 -0.0039  1.2751
29048SOL     OW88911   7.768   6.589   6.644 -0.1579  0.2175 -0.1576
29048SOL    HW188912   7.750   6.564   6.554  0.3451 -1.0549  0.0694
29048SOL    HW288913   7.682   6.593   6.686 -0.2712 -1.5478 -0.1350
29049SOL     OW88914   0.672   2.409   3.334 -0.3962  0.2927 -0.4778
29049SOL    HW188915   0.665   2.373   3.423  1.0167  1.4697  0.1401
29049SOL    HW288916   0.730   2.348   3.288  1.5058  1.3562  0.3925
29050SOL     OW88917   9.414   7.471   5.634  0.5261  0.4878  0.2114
29050SOL    HW188918   9.331   7.516   5.649  0.4496 -0.1379  1.8581
29050SOL    HW288919   9.474   7.511   5.697  0.8732 -0.5951  0.5897
29051SOL     OW88920   7.047   8.019   7.639  0.3215  0.2549 -0.3646
29051SOL    HW188921   7.052   8.011   7.544  0.3575 -0.3615 -0.3167
29051SOL    HW288922   7.009   7.936   7.668  1.7850 -0.2330  0.2841
29052SOL     OW88923   9.364   2.332   2.781 -0.2696  0.1974 -0.1265
29052SOL    HW188924   9.300   2.292   2.840  0.5527  0.1858  0.7771
29052SOL    HW288925   9.410   2.258   2.742 -0.6054  0.2129 -0.5616
29053SOL     OW88926   4.961   7.385   8.767 -0.0826  0.6503  0.4343
29053SOL    HW188927   4.951   7.384   8.862  2.6883 -0.7783  0.8210
29053SOL    HW288928   5.055   7.381   8.753 -0.4491 -0.4827 -2.3664
29054SOL     OW88929   8.256   3.108   1.861 -0.3763 -0.1388 -0.2731
29054SOL    HW188930   8.230   3.078   1.774 -2.5879 -0.8196  0.5659
29054SOL    HW288931   8.174   3.122   1.908  0.7471 -0.1700  1.8500
29055SOL     OW88932   5.267   1.493   3.528  0.1801  0.2741 -0.2004
29055SOL    HW188933   5.274   1.579   3.488  1.2208  0.6294  0.6987
29055SOL    HW288934   5.226   1.438   3.461 -0.7671  1.5233 -0.6767
29056SOL     OW88935   8.233   1.088   4.297 -0.1258  0.4773 -0.3888
29056SOL    HW188936   8.214   1.053   4.384 -2.5839  3.2667  0.3325
29056SOL    HW288937   8.312   1.141   4.310  1.9629 -2.2890 -0.8940
29057SOL     OW88938   2.345   1.070   5.668 -0.1671  0.1779 -0.3018
29057SOL    HW188939   2.377   1.013   5.598 -0.2806 -2.1732  1.4360
29057SOL    HW288940   2.418   1.075   5.730 -1.0291 -0.1710  0.7660
29058SOL     OW88941   6.110   1.057   6.636  0.4609 -0.4008 -0.0016
29058SOL    HW188942   6.048   0.984   6.629  1.1591 -1.0407  0.3592
29058SOL    HW288943   6.193   1.021   6.607  0.8294  0.2428  0.2380
29059SOL     OW88944   2.328   2.764   9.449 -0.1128 -0.1489  0.0279
29059SOL    HW188945   2.383   2.736   9.522  2.0979 -0.2374 -1.5684
29059SOL    HW288946   2.242   2.726   9.468  1.1952 -2.9264  0.9916
29060SOL     OW88947   9.035   7.594   9.820  0.1998 -0.1710 -0.1133
29060SOL    HW188948   9.055   7.569   9.911  1.4805  0.4027 -0.2144
29060SOL    HW288949   9.030   7.511   9.773 -1.2800 -0.5239  0.6212
29061SOL     OW88950   1.135   4.297   5.834 -0.2255 -0.3213 -0.0626
29061SOL    HW188951   1.221   4.310   5.795 -0.7176 -0.0747 -1.0905
29061SOL    HW288952   1.147   4.320   5.926  0.8965 -0.6868 -0.1003
29062SOL     OW88953   4.611   4.312   0.493  0.0675  0.2197  0.2799
29062SOL    HW188954   4.549   4.381   0.516 -1.2553 -1.3873  1.9253
29062SOL    HW288955   4.556   4.244   0.454  1.2584 -0.0959 -0.8880
29063SOL     OW88956   8.028   5.563   7.331 -0.1436  0.5387 -0.0135
29063SOL    HW188957   8.115   5.551   7.371 -0.1517 -1.2302 -0.4682
29063SOL    HW288958   8.002   5.651   7.359 -0.0878 -0.4907  3.8033
29064SOL     OW88959   3.459   6.298   4.448  0.1375 -0.7157 -0.4572
29064SOL    HW188960   3.402   6.356   4.498  1.7405  1.8090 -1.3599
29064SOL    HW288961   3.427   6.305   4.358 -0.9977 -3.0453 -0.3018
29065SOL     OW88962   2.455   7.084   4.768 -0.3550  0.3974  0.1339
29065SOL    HW188963   2.535   7.119   4.728 -0.3722  1.4981  1.0161
29065SOL    HW288964   2.418   7.158   4.817 -1.1971 -0.4580  0.8346
29066SOL     OW88965   1.911   1.605   3.045 -0.2511 -0.3044 -0.2995
29066SOL    HW188966   1.851   1.619   2.971  1.9869  2.3747 -1.8143
29066SOL    HW288967   1.950   1.519   3.028 -1.6257 -0.8585 -0.7849
29067SOL     OW88968   6.439   8.566   3.436  0.0404  0.5153  0.1992
29067SOL    HW188969   6.404   8.551   3.524 -1.5278  0.0604 -0.4686
29067SOL    HW288970   6.500   8.494   3.422 -0.2191  0.1975  0.6688
29068SOL     OW88971   7.414   6.061   8.317  0.5983  0.4155  0.2389
29068SOL    HW188972   7.434   6.154   8.311 -1.3305  0.8065 -1.1617
29068SOL    HW288973   7.320   6.056   8.302  0.6019 -1.7472  0.6129
29069SOL     OW88974   2.370   2.754   8.483  0.0559  0.4986  0.1010
29069SOL    HW188975   2.433   2.747   8.412  1.6659 -0.0884  1.5055
29069SOL    HW288976   2.311   2.824   8.456  0.4399  0.1161 -1.9042
29070SOL     OW88977   9.325   6.632   2.958  0.0179  0.4825  0.6317
29070SOL    HW188978   9.355   6.546   2.987  1.9253  1.6264  2.3544
29070SOL    HW288979   9.392   6.662   2.897 -0.2253  1.0739  0.6484
29071SOL     OW88980   8.823   2.952   0.818  0.7822  0.6880 -0.4701
29071SOL    HW188981   8.821   3.041   0.851  0.0435  0.9446 -1.1819
29071SOL    HW288982   8.913   2.923   0.832  0.9240  1.3999  0.1237
29072SOL     OW88983   6.293   6.853   0.715  0.2173 -0.2262 -0.0063
29072SOL    HW188984   6.388   6.842   0.718  0.4173  1.1993 -0.3694
29072SOL    HW288985   6.279   6.946   0.731 -1.0788 -0.2842 -0.6571
29073SOL     OW88986   8.130   9.683   1.678  0.0122 -0.3180 -0.3812
29073SOL    HW188987   8.067   9.708   1.745  0.7889  3.9837 -0.9521
29073SOL    HW288988   8.209   9.658   1.726 -0.8436 -1.8232  0.2837
29074SOL     OW88989   8.386   2.788   4.239 -0.1215  0.1624 -0.5823
29074SOL    HW188990   8.458   2.832   4.285  1.1428 -2.1832 -0.1436
29074SOL    HW288991   8.423   2.704   4.211 -2.9008 -1.4988  0.3382
29075SOL     OW88992   8.630   7.103   7.233  0.1428 -0.0097  0.2884
29075SOL    HW188993   8.593   7.087   7.146 -0.9546  0.5178  0.6325
29075SOL    HW288994   8.645   7.197   7.236 -1.5529  0.2816  1.2788
29076SOL     OW88995   6.770   8.156   0.429  0.4367 -0.1327 -0.4883
29076SOL    HW188996   6.702   8.148   0.496  1.8952 -0.9681  0.9453
29076SOL    HW288997   6.749   8.088   0.365  0.5891 -1.1879  0.5610
29077SOL     OW88998   8.047   8.638   5.574 -0.3011 -0.3142  0.4259
29077SOL    HW188999   8.043   8.597   5.661 -1.8067 -1.0133  0.0601
29077SOL    HW289000   8.063   8.731   5.593 -0.3874 -0.4878  1.4337
29078SOL     OW89001   8.932   6.072   2.186 -0.3618 -0.3225 -0.3067
29078SOL    HW189002   8.988   5.998   2.164  1.1956 -0.1974  2.7533
29078SOL    HW289003   8.843   6.044   2.161  0.6777 -1.3479 -3.3143
29079SOL     OW89004   5.412   2.364   7.984  0.0464 -0.0072 -0.0784
29079SOL    HW189005   5.504   2.341   7.991  0.2272  0.5319 -0.5933
29079SOL    HW289006   5.406   2.418   7.905 -0.6349  0.3398  0.1961
29080SOL     OW89007   8.826   2.055   4.928 -0.7762 -0.1053  0.1303
29080SOL    HW189008   8.913   2.020   4.912 -0.1219  1.1812  0.7305
29080SOL    HW289009   8.779   2.041   4.846  0.7467  1.3311 -1.0499
29081SOL     OW89010   2.162   6.832   8.275 -0.0178  0.0578 -0.0716
29081SOL    HW189011   2.155   6.762   8.211 -0.2432 -1.1082  1.1802
29081SOL    HW289012   2.243   6.878   8.252  0.4620 -1.0014 -0.5439
29082SOL     OW89013   7.254   8.458   1.975  0.1632 -0.0513  0.7218
29082SOL    HW189014   7.250   8.550   2.001  0.9203  0.3237 -0.3918
29082SOL    HW289015   7.257   8.460   1.879 -1.1331 -1.3043  0.6062
29083SOL     OW89016   0.774   6.439   1.351 -0.1165  0.7056 -0.3470
29083SOL    HW189017   0.722   6.510   1.313  0.3791  1.0767 -0.3439
29083SOL    HW289018   0.715   6.396   1.412 -0.3150  1.3550 -0.0696
29084SOL     OW89019   7.926   0.020   4.889 -0.2350  0.5330 -0.3599
29084SOL    HW189020   7.929   0.099   4.837 -0.3320 -0.7602 -2.4423
29084SOL    HW289021   7.847  -0.026   4.859  0.6889 -1.1104 -0.4171
29085SOL     OW89022   3.700   5.791   0.695  0.3036 -0.1343 -0.2226
29085SOL    HW189023   3.627   5.731   0.709 -0.3361  0.4253 -1.1280
29085SOL    HW289024   3.662   5.867   0.652  1.3828  0.2489 -0.5388
29086SOL     OW89025   9.463   8.770   3.559 -0.2563 -0.0492 -0.4355
29086SOL    HW189026   9.456   8.854   3.604  0.9366  0.1732 -0.6227
29086SOL    HW289027   9.376   8.753   3.524 -1.1293 -0.0162  1.5842
29087SOL     OW89028   3.974   9.618   8.222  0.4723 -0.8706 -0.1107
29087SOL    HW189029   3.947   9.706   8.250  1.0812 -0.9482  0.7765
29087SOL    HW289030   3.941   9.560   8.290  1.9575 -1.0751  0.4765
29088SOL     OW89031   8.958   0.597   3.088 -0.1340  0.1063 -0.3826
29088SOL    HW189032   9.025   0.664   3.072  0.0067 -0.1045 -0.6723
29088SOL    HW289033   8.996   0.541   3.155  1.2128 -1.7072 -2.5225
29089SOL     OW89034   6.264   3.505   1.347 -0.2712  0.6019 -0.4110
29089SOL    HW189035   6.288   3.502   1.254 -1.9885  0.3693 -0.8857
29089SOL    HW289036   6.326   3.566   1.386  1.8599 -0.9129 -1.2586
29090SOL     OW89037   5.658   9.076   1.279 -0.5736  0.1679  0.3393
29090SOL    HW189038   5.703   9.105   1.358  0.8598 -0.0131 -0.3646
29090SOL    HW289039   5.727   9.076   1.211 -1.7417  0.2703 -0.8907
29091SOL     OW89040   2.107   7.216   4.280 -0.4706  0.5372 -0.3214
29091SOL    HW189041   2.201   7.224   4.291  0.1402 -1.6157 -2.8610
29091SOL    HW289042   2.083   7.139   4.333 -0.9265  1.3191  0.6474
29092SOL     OW89043   4.747   7.723   9.150 -0.2139  0.0684 -0.3358
29092SOL    HW189044   4.837   7.754   9.140  0.3561 -1.9631 -2.4213
29092SOL    HW289045   4.717   7.762   9.232  1.5857  3.0530 -0.9458
29093SOL     OW89046   1.057   9.229   6.604 -0.5113 -0.7193  0.1361
29093SOL    HW189047   1.019   9.239   6.692  0.4117 -0.6814  0.5412
29093SOL    HW289048   1.112   9.152   6.610 -0.0213 -0.4053 -0.2607
29094SOL     OW89049   7.304   1.878   3.384 -0.2894  0.0964  0.6148
29094SOL    HW189050   7.303   1.797   3.436  1.0775  0.4552  1.2412
29094SOL    HW289051   7.256   1.856   3.304  0.7156 -1.5829  0.4258
29095SOL     OW89052   3.660   0.331   7.670 -0.2301 -0.2470 -0.3006
29095SOL    HW189053   3.743   0.377   7.659  0.3275 -0.7330  1.5103
29095SOL    HW289054   3.593   0.398   7.661  0.5486  0.9586  2.0517
29096SOL     OW89055   8.505   0.912   4.262  0.6656  0.1053 -0.4157
29096SOL    HW189056   8.598   0.923   4.245  1.2237 -0.5526  1.9256
29096SOL    HW289057   8.462   0.965   4.194  2.7075  0.5685 -1.4251
29097SOL     OW89058   2.819   8.712   3.071  0.1984 -0.4143 -0.6071
29097SOL    HW189059   2.756   8.706   3.143 -0.2483 -0.7581 -1.0129
29097SOL    HW289060   2.828   8.622   3.039  1.6980 -0.5405  0.0985
29098SOL     OW89061   7.583   8.105   7.766  0.1813  0.2049 -0.1229
29098SOL    HW189062   7.488   8.114   7.772  0.1801 -0.2615  0.8708
29098SOL    HW289063   7.598   8.059   7.684 -0.4476  0.3433 -0.3206
29099SOL     OW89064   7.495   0.928   2.804  0.4397 -0.2112 -0.2340
29099SOL    HW189065   7.522   0.951   2.715 -0.7348 -0.6643 -0.7254
29099SOL    HW289066   7.524   1.002   2.858  1.0074  0.1453 -1.0121
29100SOL     OW89067   0.492   0.196   0.772  0.9069 -0.0628 -0.1435
29100SOL    HW189068   0.521   0.252   0.844  0.6308 -0.6754  0.4583
29100SOL    HW289069   0.498   0.251   0.694 -1.7442  1.6473  0.7334
29101SOL     OW89070   8.320   4.960   9.128 -0.9371 -1.0734 -0.1015
29101SOL    HW189071   8.299   4.992   9.216 -2.4863 -0.0109 -0.8280
29101SOL    HW289072   8.415   4.946   9.131 -0.4643  1.5939  0.9410
29102SOL     OW89073   5.025   4.026   0.397 -0.0410  0.7332 -0.4936
29102SOL    HW189074   4.968   3.961   0.437  1.1347 -1.1709 -1.7169
29102SOL    HW289075   4.977   4.054   0.318 -0.8747  1.9784  0.4124
29103SOL     OW89076   8.239   2.390   8.992  0.0190  0.0169 -0.0847
29103SOL    HW189077   8.329   2.364   9.013  0.1486  1.0767  0.7706
29103SOL    HW289078   8.247   2.442   8.912 -0.0712 -1.3584 -1.0124
29104SOL     OW89079   1.898   7.287   9.587  0.2577 -0.3760  0.4541
29104SOL    HW189080   1.985   7.295   9.625  0.3179  1.1545  0.0732
29104SOL    HW289081   1.867   7.377   9.578 -0.4083 -0.7379 -1.5548
29105SOL     OW89082   2.494   1.345   7.389 -0.0611 -0.0859 -0.6206
29105SOL    HW189083   2.589   1.349   7.379  0.2327  0.2052  1.7300
29105SOL    HW289084   2.466   1.436   7.379  0.1575  0.1156  0.4566
29106SOL     OW89085   3.357   0.276   6.082 -0.6616 -0.0998  0.0968
29106SOL    HW189086   3.421   0.236   6.023 -2.0315  1.4861 -2.6775
29106SOL    HW289087   3.402   0.352   6.118 -0.2042 -0.3668  0.0952
29107SOL     OW89088   2.293   4.806   4.208  0.1484  0.1349 -0.1886
29107SOL    HW189089   2.365   4.867   4.192  0.4769  0.0704  0.9791
29107SOL    HW289090   2.214   4.859   4.197  0.4285  0.7744  0.7480
29108SOL     OW89091   0.834   7.467   4.537  0.0074  0.4457  0.2267
29108SOL    HW189092   0.747   7.427   4.527 -0.3109  1.1770  0.0213
29108SOL    HW289093   0.886   7.399   4.580  0.0099 -0.8994 -1.7483
29109SOL     OW89094   1.515   1.070   8.816  0.1744 -0.0334  0.6702
29109SOL    HW189095   1.610   1.072   8.808  0.0958  0.3599 -0.3149
29109SOL    HW289096   1.486   1.003   8.755 -0.2277  0.4431  0.3238
29110SOL     OW89097   8.865   2.630   8.672 -0.2502  0.4346  0.2206
29110SOL    HW189098   8.883   2.536   8.663 -1.7631 -0.2642  3.0783
29110SOL    HW289099   8.771   2.637   8.661 -0.1774  1.5941  0.2837
29111SOL     OW89100   6.296   2.742   5.316 -0.4711  0.3259  0.2644
29111SOL    HW189101   6.361   2.799   5.358 -0.5492  1.1958 -0.7451
29111SOL    HW289102   6.214   2.791   5.321 -0.3764  0.7104 -1.3358
29112SOL     OW89103   7.185   7.141   0.314 -0.5632 -0.2548 -0.2568
29112SOL    HW189104   7.208   7.115   0.403 -1.9813  0.7017  0.4359
29112SOL    HW289105   7.219   7.071   0.259 -0.4379 -1.3283  1.1210
29113SOL     OW89106   5.655   3.969   0.472 -0.4910  0.0031 -0.1684
29113SOL    HW189107   5.640   3.965   0.567  0.5264  0.9931  0.0549
29113SOL    HW289108   5.575   3.932   0.434 -0.5180 -1.3061  1.0867
29114SOL     OW89109   2.710   6.665   0.987 -0.1236 -0.4537 -0.0616
29114SOL    HW189110   2.726   6.691   0.896  1.1966 -0.4844  0.1376
29114SOL    HW289111   2.695   6.571   0.983 -0.4711 -0.3910 -0.2875
29115SOL     OW89112   5.307   6.560   7.035  0.2524  0.2034 -0.1989
29115SOL    HW189113   5.276   6.626   7.097 -3.1960 -0.6639 -0.8050
29115SOL    HW289114   5.394   6.591   7.008  0.2948  2.5214  2.2277
29116SOL     OW89115   7.018   7.563   0.033 -0.6582 -0.0102  0.9544
29116SOL    HW189116   7.070   7.595  -0.041 -1.8035 -1.5248 -0.5697
29116SOL    HW289117   6.955   7.633   0.051 -0.2020  0.4734  0.6912
29117SOL     OW89118   7.253   7.364   0.152  0.1059 -0.3057  0.0029
29117SOL    HW189119   7.220   7.445   0.191  0.0341  0.0265 -0.7261
29117SOL    HW289120   7.193   7.296   0.182 -1.7956  0.4047 -1.9585
29118SOL     OW89121   1.078   8.992   6.376 -1.5325  0.4040 -0.6364
29118SOL    HW189122   1.148   8.926   6.370 -0.6861  1.2431 -0.2921
29118SOL    HW289123   1.123   9.076   6.363 -2.1946  1.0989  1.1606
29119SOL     OW89124   5.594   6.680   7.178  0.0415 -0.7613 -0.4878
29119SOL    HW189125   5.642   6.748   7.130  2.6614 -0.6298  2.0111
29119SOL    HW289126   5.627   6.598   7.143  0.8849 -0.6706  0.0599
29120SOL     OW89127   7.595   0.588   4.657  0.7674 -0.3083 -0.1898
29120SOL    HW189128   7.500   0.587   4.646  0.1906  1.7144  3.2805
29120SOL    HW289129   7.619   0.496   4.668 -1.4105 -0.7073  2.2569
29121SOL     OW89130   9.178   3.216   8.480  0.5175 -0.2243 -0.5300
29121SOL    HW189131   9.220   3.300   8.463  0.4296 -0.3886 -1.6388
29121SOL    HW289132   9.094   3.221   8.435  0.7215 -1.0865 -1.0453
29122SOL     OW89133   3.556   3.229   0.088 -0.0954  0.2333  0.3579
29122SOL    HW189134   3.631   3.228   0.029  0.0519 -0.3114  0.5461
29122SOL    HW289135   3.592   3.255   0.172 -0.2788  0.8601  0.2487
29123SOL     OW89136   2.458   3.895   7.010  0.7065  0.3348 -0.1524
29123SOL    HW189137   2.460   3.829   6.941  0.5124  0.8642 -0.6802
29123SOL    HW289138   2.508   3.968   6.974  1.0298  0.4242  0.4763
29124SOL     OW89139   5.168   8.907   5.300 -0.2650 -0.0237 -0.5145
29124SOL    HW189140   5.180   8.958   5.220  0.2383 -0.0212 -0.4414
29124SOL    HW289141   5.251   8.916   5.347 -0.8541  0.6984  0.4313
29125SOL     OW89142   7.888   7.871   6.753  0.0162  0.2397 -0.0247
29125SOL    HW189143   7.911   7.930   6.681  0.0427 -0.6036 -0.7270
29125SOL    HW289144   7.841   7.799   6.710 -1.5836  0.6151  1.0324
29126SOL     OW89145   8.080   1.867   4.731  0.3277 -0.3205 -0.6735
29126SOL    HW189146   8.017   1.800   4.705  0.4946 -0.7187 -0.0913
29126SOL    HW289147   8.163   1.820   4.740  0.2914 -0.2041  0.4742
29127SOL     OW89148   8.013   1.187   4.121  0.1710 -0.3641  0.4638
29127SOL    HW189149   8.047   1.271   4.091 -0.1993 -0.7465 -1.1081
29127SOL    HW289150   8.082   1.153   4.179 -0.2304  1.5534  2.1470
29128SOL     OW89151   8.696   5.708   7.654 -1.0075 -0.5714  0.3306
29128SOL    HW189152   8.625   5.644   7.660 -2.2283  0.8564  2.2083
29128SOL    HW289153   8.679   5.754   7.572 -3.0855  0.5969  1.3361
29129SOL     OW89154   5.378   8.477   7.486 -0.2411 -0.1796 -0.4843
29129SOL    HW189155   5.438   8.546   7.513 -1.5086  0.5463  0.5815
29129SOL    HW289156   5.364   8.425   7.566  1.0580 -2.0094 -1.3671
29130SOL     OW89157   9.321   4.295   8.093 -0.3494 -0.1870 -0.3258
29130SOL    HW189158   9.320   4.199   8.084 -0.4909 -0.0989 -1.3568
29130SOL    HW289159   9.242   4.324   8.047  0.1822  0.4896 -0.8120
29131SOL     OW89160   1.230   2.520   9.565 -0.2014  0.2741  0.3095
29131SOL    HW189161   1.191   2.545   9.481  1.0365  0.1600 -0.3216
29131SOL    HW289162   1.299   2.585   9.579 -1.3084  1.1468  1.9560
29132SOL     OW89163   3.218   4.573   4.999 -0.4315 -0.2947  0.5552
29132SOL    HW189164   3.166   4.581   4.919  0.9896 -0.1610 -0.3823
29132SOL    HW289165   3.236   4.479   5.007 -0.5421 -0.3040  0.7050
29133SOL     OW89166   4.854   8.055   6.911  0.1870 -0.0599 -0.3456
29133SOL    HW189167   4.924   8.065   6.846  1.6643 -0.8696  1.0527
29133SOL    HW289168   4.854   8.138   6.959  1.0908 -0.5223  0.4810
29134SOL     OW89169   4.472   4.664   5.812  0.4779 -0.0372 -0.2035
29134SOL    HW189170   4.401   4.609   5.845  0.2299  0.1396 -0.4357
29134SOL    HW289171   4.521   4.607   5.752  0.9928 -0.3906  0.5343
29135SOL     OW89172   2.085   5.829   2.973 -0.4736 -0.3873 -0.5385
29135SOL    HW189173   2.172   5.869   2.964 -0.0313 -1.1064  0.3310
29135SOL    HW289174   2.038   5.887   3.033 -0.6616  0.0907 -1.1359
29136SOL     OW89175   3.219   9.100   3.990 -0.1680  0.1019 -0.1095
29136SOL    HW189176   3.175   9.160   4.051  1.2800  0.0868  1.0085
29136SOL    HW289177   3.288   9.059   4.042  0.7146 -0.3983 -1.6100
29137SOL     OW89178   9.792   7.732   3.022 -0.2851  0.0149 -0.7123
29137SOL    HW189179   9.761   7.789   3.093 -3.2854 -1.2266 -0.8711
29137SOL    HW289180   9.712   7.708   2.975  1.2701 -1.7099 -2.6138
29138SOL     OW89181   8.821   5.086   9.034 -0.2822 -0.3517  0.0106
29138SOL    HW189182   8.764   5.161   9.048  1.3071  0.7349  1.1275
29138SOL    HW289183   8.884   5.116   8.968  0.6055 -0.5320  0.7557
29139SOL     OW89184   0.285   8.803   0.356 -1.1800  0.2495  0.1430
29139SOL    HW189185   0.191   8.790   0.365 -1.0304  0.0488  1.8088
29139SOL    HW289186   0.323   8.748   0.425  0.1241  0.7365 -0.1580
29140SOL     OW89187   4.821   1.981   3.544 -0.0208 -0.2635  0.1245
29140SOL    HW189188   4.755   2.028   3.596  1.2562  1.9891 -0.1391
29140SOL    HW289189   4.776   1.960   3.462 -1.0297 -0.7706  0.7792
29141SOL     OW89190   3.533   7.030   9.193 -0.0141 -0.0577 -0.1759
29141SOL    HW189191   3.629   7.030   9.192  0.0268  1.6837  0.5049
29141SOL    HW289192   3.508   7.017   9.101  0.9097  0.6100 -0.5350
29142SOL     OW89193   7.655   6.589   9.223 -0.3702  0.1230  0.1686
29142SOL    HW189194   7.720   6.610   9.290  0.1275  0.5119 -0.4261
29142SOL    HW289195   7.703   6.538   9.158 -0.9860 -0.7419  0.3809
29143SOL     OW89196   1.537   4.360   4.121 -0.0717  0.4862 -0.0170
29143SOL    HW189197   1.507   4.329   4.035  0.3345  0.7648 -0.2617
29143SOL    HW289198   1.568   4.448   4.105 -0.6646  0.8146  0.5630
29144SOL     OW89199   6.584   0.248   5.239 -0.0916  0.9183  0.0221
29144SOL    HW189200   6.604   0.310   5.310 -0.3148  0.0865  0.8369
29144SOL    HW289201   6.489   0.247   5.233 -0.2173 -0.7382  1.3509
29145SOL     OW89202   2.957   3.106   5.319  0.0892  0.0402 -0.0995
29145SOL    HW189203   2.986   3.037   5.259 -1.2529 -0.5975 -0.0632
29145SOL    HW289204   2.865   3.120   5.295 -0.6632 -0.6540  2.1814
29146SOL     OW89205   8.419   2.397   9.645  0.1457  0.3840  0.2647
29146SOL    HW189206   8.445   2.443   9.565  2.3660  0.7772  1.1305
29146SOL    HW289207   8.324   2.387   9.638  0.3845 -0.8769 -3.0873
29147SOL     OW89208   0.922   9.382   7.528 -0.3765 -0.0033 -0.1064
29147SOL    HW189209   0.981   9.328   7.475  0.4818  1.1472 -0.3590
29147SOL    HW289210   0.883   9.321   7.590 -0.1104 -1.0724 -0.9629
29148SOL     OW89211   7.361   2.020   9.396  0.1714 -0.5070  0.1415
29148SOL    HW189212   7.447   2.028   9.353  0.2514 -0.8788  0.2276
29148SOL    HW289213   7.359   1.930   9.428  0.3440 -0.0738  1.4056
29149SOL     OW89214   0.856   1.450   1.392 -0.0163  0.2739 -0.1595
29149SOL    HW189215   0.863   1.509   1.317 -1.0222 -1.6580 -1.8962
29149SOL    HW289216   0.865   1.362   1.354 -2.1346 -0.8656  1.7199
29150SOL     OW89217   3.696   0.296   0.916  0.2657 -0.3215 -0.2085
29150SOL    HW189218   3.755   0.230   0.879  0.2637 -0.2663 -0.3097
29150SOL    HW289219   3.609   0.269   0.885  0.3271  0.0332 -0.6898
29151SOL     OW89220   7.807   1.934   5.549  0.0857  0.1185  0.4159
29151SOL    HW189221   7.788   2.019   5.510  0.4643  0.1000  0.1956
29151SOL    HW289222   7.851   1.885   5.481 -1.4287 -0.7795  0.0366
29152SOL     OW89223   3.915   7.151   6.232 -0.1505  0.2703 -0.0459
29152SOL    HW189224   3.855   7.223   6.253 -0.7245 -0.3295  0.4007
29152SOL    HW289225   3.859   7.080   6.203  0.5626  0.9464 -3.5392
29153SOL     OW89226   9.160   3.995   5.192  0.0060 -0.8308 -0.0240
29153SOL    HW189227   9.129   3.962   5.276  1.1316 -2.6499 -0.2606
29153SOL    HW289228   9.091   4.054   5.162 -0.2512  0.2032  2.3330
29154SOL     OW89229   8.600   9.719   8.701 -0.7055 -0.1725 -0.0361
29154SOL    HW189230   8.591   9.709   8.606 -1.0611 -0.1279 -0.0082
29154SOL    HW289231   8.682   9.767   8.712 -0.4875 -0.4835 -0.3050
29155SOL     OW89232   9.429   9.709   4.208 -0.1070 -0.3745  0.5652
29155SOL    HW189233   9.450   9.640   4.144  1.0998 -0.8786  1.4690
29155SOL    HW289234   9.513   9.728   4.250  0.0025  2.9859 -0.9104
29156SOL     OW89235   3.473   4.447   3.258  0.9715  0.1236  0.3694
29156SOL    HW189236   3.469   4.351   3.262 -1.0286  0.0714 -1.2546
29156SOL    HW289237   3.385   4.476   3.284  1.4515  1.5137  0.5185
29157SOL     OW89238   7.188   4.896   9.783 -0.5075 -0.3493 -0.1727
29157SOL    HW189239   7.122   4.843   9.827  0.4681 -1.3908  0.0874
29157SOL    HW289240   7.201   4.972   9.840 -0.4420 -0.8654  0.5137
29158SOL     OW89241   6.550   3.242   9.697  0.3423  0.4236  0.2126
29158SOL    HW189242   6.493   3.171   9.726  1.8139 -1.1953 -0.6715
29158SOL    HW289243   6.611   3.254   9.770  1.8386 -1.2336 -0.6646
29159SOL     OW89244   9.007   0.401   5.166 -0.0086  0.1240  0.0366
29159SOL    HW189245   9.082   0.342   5.156 -0.4638 -0.5047  0.2560
29159SOL    HW289246   8.999   0.444   5.081  0.8428  0.4966  0.1307
29160SOL     OW89247   5.560   7.510   9.756  0.2501  0.4756 -0.0094
29160SOL    HW189248   5.476   7.464   9.755 -0.0668  1.0065  0.9348
29160SOL    HW289249   5.596   7.496   9.669 -0.6078 -0.1480 -0.2761
29161SOL     OW89250   8.725   4.208   0.567  0.3636 -0.1491  0.6549
29161SOL    HW189251   8.789   4.255   0.514  3.3203 -2.5873  1.7495
29161SOL    HW289252   8.694   4.273   0.631 -0.4742  1.8295 -1.6330
29162SOL     OW89253   6.361   4.982   4.183  0.3401  0.2996  0.0932
29162SOL    HW189254   6.271   4.991   4.153  0.7442 -0.2155 -1.3249
29162SOL    HW289255   6.377   4.888   4.186  0.7853  0.3820  0.5094
29163SOL     OW89256   4.395   5.154   5.676 -0.1226  0.0095  0.6463
29163SOL    HW189257   4.351   5.123   5.597  1.4909 -1.6891  0.3432
29163SOL    HW289258   4.391   5.081   5.737 -0.5044  0.9664  1.8178
29164SOL     OW89259   7.538   9.428   3.502  0.1261  0.0118 -0.0981
29164SOL    HW189260   7.524   9.514   3.460  1.4156 -0.0935 -0.7918
29164SOL    HW289261   7.551   9.449   3.594  0.3534  0.5750 -0.2477
29165SOL     OW89262   4.269   2.904   4.661 -0.0003 -0.5705 -0.0164
29165SOL    HW189263   4.182   2.933   4.634  0.0642 -0.7005 -0.3612
29165SOL    HW289264   4.261   2.809   4.669  0.0551 -0.5616  0.1537
29166SOL     OW89265   3.378   9.037   0.849  0.1117  0.7210 -0.2320
29166SOL    HW189266   3.456   8.989   0.876 -0.0221  1.0323  0.7597
29166SOL    HW289267   3.367   9.015   0.756  1.2158  0.4650 -0.3165
29167SOL     OW89268   7.060   3.341   5.616  0.1854 -0.3864 -0.8908
29167SOL    HW189269   7.064   3.388   5.533  2.4304 -0.4345 -0.8670
29167SOL    HW289270   7.150   3.313   5.632  0.5312  2.2139  3.0156
29168SOL     OW89271   2.229   5.243   6.172  0.0840  0.1781  0.3136
29168SOL    HW189272   2.247   5.300   6.097  1.0941 -0.0632  0.3573
29168SOL    HW289273   2.205   5.303   6.242  2.5751  0.7390  0.7944
29169SOL     OW89274   1.147   7.575   6.848  0.9218 -0.0686 -0.1080
29169SOL    HW189275   1.072   7.630   6.828  1.3909  0.7830  0.4096
29169SOL    HW289276   1.109   7.492   6.879  0.1670  0.8638  1.5766
29170SOL     OW89277   6.987   2.633   6.923  0.0203 -0.4713 -0.5232
29170SOL    HW189278   7.057   2.694   6.898 -0.4238  0.3156  0.1464
29170SOL    HW289279   6.918   2.647   6.858 -1.9435  2.9328  1.9990
29171SOL     OW89280   8.838   3.911   5.333 -0.0443  0.1743 -0.0986
29171SOL    HW189281   8.831   3.876   5.244 -1.6808 -0.2900  0.1794
29171SOL    HW289282   8.821   3.836   5.389  0.1314  0.6434  0.5907
29172SOL     OW89283   9.803   4.761   7.965  0.4957  0.1102 -0.4841
29172SOL    HW189284   9.812   4.694   8.034 -0.9795  0.2064 -0.1603
29172SOL    HW289285   9.891   4.796   7.954  0.4750  1.5777  2.8806
29173SOL     OW89286   7.540   6.544   1.264  0.0880  0.1192 -0.0125
29173SOL    HW189287   7.453   6.553   1.304 -0.1997  1.5005 -0.8798
29173SOL    HW289288   7.601   6.572   1.333 -0.0200 -1.8887  0.9772
29174SOL     OW89289   0.308   2.087   2.347  0.2501 -0.4566  0.1847
29174SOL    HW189290   0.234   2.029   2.363  0.4072 -1.1827 -1.5115
29174SOL    HW289291   0.348   2.100   2.433  0.8345 -3.7229  0.5347
29175SOL     OW89292   5.211   6.317   3.543 -0.3306  0.2838  0.9219
29175SOL    HW189293   5.279   6.251   3.546 -0.7557 -0.1754  0.6431
29175SOL    HW289294   5.152   6.288   3.473  0.5076  1.9665 -0.5776
29176SOL     OW89295   4.405   2.208   6.587 -0.2490 -0.2575  0.3088
29176SOL    HW189296   4.335   2.206   6.522  0.2104 -0.9948 -0.1697
29176SOL    HW289297   4.468   2.143   6.557  1.0774  1.0023  0.2398
29177SOL     OW89298   5.377   2.118   6.573  0.1295  0.0254  0.5912
29177SOL    HW189299   5.381   2.045   6.635 -1.5843 -0.0083  0.6966
29177SOL    HW289300   5.444   2.096   6.507  1.6683 -0.1553  2.1477
29178SOL     OW89301   8.192   8.932   6.103 -1.0090 -0.0723  0.2715
29178SOL    HW189302   8.241   8.913   6.183 -1.2446  0.8403  0.6487
29178SOL    HW289303   8.215   9.022   6.082 -1.6917  0.0063 -0.1603
29179SOL     OW89304   9.456   3.562   8.810  0.0418  0.1202 -0.1380
29179SOL    HW189305   9.515   3.589   8.881  0.0492  2.0501 -0.8026
29179SOL    HW289306   9.510   3.568   8.731 -0.7442  0.9483 -0.6344
29180SOL     OW89307   5.371   0.790   2.596 -0.2072 -0.5354  0.4116
29180SOL    HW189308   5.400   0.700   2.609  0.3000 -0.1377  2.4727
29180SOL    HW289309   5.276   0.784   2.589 -0.1344 -1.2766 -0.0230
29181SOL     OW89310   8.675   6.226   2.442  0.1964  0.0114  0.1618
29181SOL    HW189311   8.707   6.199   2.356  3.8414  2.2180  0.6465
29181SOL    HW289312   8.718   6.167   2.503  0.5700  0.7848  0.6570
29182SOL     OW89313   6.766   5.975   4.648 -0.4146 -0.2896  0.5396
29182SOL    HW189314   6.838   5.913   4.661 -0.7287 -0.7289  0.1972
29182SOL    HW289315   6.693   5.938   4.697 -0.6277 -0.2348  0.2663
29183SOL     OW89316   3.965   6.585   7.509  0.1208 -0.2732  0.2481
29183SOL    HW189317   3.990   6.495   7.532  2.4499  0.3134  0.2625
29183SOL    HW289318   3.978   6.634   7.591  0.9673  0.4389 -0.2967
29184SOL     OW89319   2.374   0.246   7.836  0.3425 -0.6285 -0.4977
29184SOL    HW189320   2.347   0.161   7.801  0.5354 -0.8834 -0.0339
29184SOL    HW289321   2.445   0.274   7.777  0.6718 -1.0578 -0.3145
29185SOL     OW89322   6.727   3.666   0.929 -0.3574 -0.4585 -0.3613
29185SOL    HW189323   6.773   3.623   1.002 -1.8003  0.1534  0.9687
29185SOL    HW289324   6.751   3.614   0.852 -0.3822 -2.3883  0.8619
29186SOL     OW89325   4.957   6.278   5.928 -0.1898  0.4784  0.3203
29186SOL    HW189326   5.033   6.276   5.986  0.1393 -0.7002 -0.1194
29186SOL    HW289327   4.936   6.371   5.918  1.4095  0.8476  0.1747
29187SOL     OW89328   8.692   9.113   1.821 -0.4426  0.2725 -0.3278
29187SOL    HW189329   8.686   9.058   1.899 -2.7196  1.0517  0.1037
29187SOL    HW289330   8.667   9.055   1.749  0.0817 -0.0210 -0.2792
29188SOL     OW89331   6.743   1.129   6.381  0.3920 -0.1487 -0.5195
29188SOL    HW189332   6.826   1.100   6.344  1.2036  0.1404  0.9836
29188SOL    HW289333   6.678   1.105   6.315  1.5601 -1.1319 -1.3722
29189SOL     OW89334   8.537   2.078   0.978  0.1011 -0.0945 -0.1004
29189SOL    HW189335   8.549   1.984   0.965  0.0090 -0.1739  0.3996
29189SOL    HW289336   8.468   2.086   1.043  1.2801  0.2812  1.1617
29190SOL     OW89337   8.148   2.713   6.631 -0.3050  0.0915  0.1056
29190SOL    HW189338   8.153   2.701   6.726  0.0143  0.0032  0.0810
29190SOL    HW289339   8.231   2.754   6.608 -0.7701  0.9793 -0.0167
29191SOL     OW89340   2.179   6.330   4.099  0.3875  0.3201 -0.0428
29191SOL    HW189341   2.145   6.243   4.118  0.2431  0.2684 -0.5334
29191SOL    HW289342   2.102   6.382   4.077  0.0825  1.3409  3.0043
29192SOL     OW89343   7.198   3.581   3.298  0.2133 -0.6698 -0.7856
29192SOL    HW189344   7.185   3.487   3.312 -0.4714 -0.5202 -0.4025
29192SOL    HW289345   7.236   3.613   3.380  1.2078 -0.7460 -1.1986
29193SOL     OW89346   1.624   7.622   4.419  0.8809 -0.1672  0.5926
29193SOL    HW189347   1.609   7.546   4.476 -0.2294  0.1002  0.6710
29193SOL    HW289348   1.629   7.585   4.331  0.6445 -0.3691  0.6621
29194SOL     OW89349   9.381   9.291   2.723  0.5516  0.0232  0.5692
29194SOL    HW189350   9.376   9.203   2.687 -0.0109 -0.6463  2.1931
29194SOL    HW289351   9.346   9.348   2.654  0.7647 -1.0259 -0.4249
29195SOL     OW89352   8.744   1.998   3.414  0.4160  0.1152  0.1288
29195SOL    HW189353   8.834   2.021   3.439 -0.1333  0.7367  1.6474
29195SOL    HW289354   8.716   1.936   3.482 -0.2501 -0.2126 -0.4373
29196SOL     OW89355   9.595   8.779   9.025 -0.0606  0.3723  0.0886
29196SOL    HW189356   9.509   8.744   9.002  1.3828 -3.1117 -0.6697
29196SOL    HW289357   9.648   8.765   8.946  2.2663 -1.7995  1.8729
29197SOL     OW89358   5.135   5.501   5.539 -0.1845  0.2804  0.2288
29197SOL    HW189359   5.205   5.441   5.564 -0.8699 -0.5274  0.2738
29197SOL    HW289360   5.058   5.445   5.529 -1.3698  1.3926  2.3148
29198SOL     OW89361   2.048   6.004   9.399 -0.3454  0.3652 -0.3119
29198SOL    HW189362   1.968   6.046   9.367 -1.0107  0.3209  1.1870
29198SOL    HW289363   2.030   5.986   9.491  1.3647  0.2322  0.0285
29199SOL     OW89364   5.387   7.486   4.333 -0.3225 -0.0491  0.6287
29199SOL    HW189365   5.300   7.451   4.351  0.3431 -1.4340  1.2891
29199SOL    HW289366   5.443   7.409   4.322  0.9773  0.8007  1.0098
29200SOL     OW89367   5.377   2.643   0.186 -0.0500  0.6123  0.3007
29200SOL    HW189368   5.409   2.725   0.149 -1.2061  0.9381 -0.0406
29200SOL    HW289369   5.339   2.668   0.271 -1.0319  0.5705 -0.1127
29201SOL     OW89370   2.679   4.235   8.561 -0.2796 -0.3217 -0.9193
29201SOL    HW189371   2.714   4.293   8.493 -0.4397  0.7244 -0.1494
29201SOL    HW289372   2.585   4.238   8.549 -0.3063 -0.1608 -0.6784
29202SOL     OW89373   4.995   2.804   1.498 -0.2982  0.3863 -0.1696
29202SOL    HW189374   4.912   2.789   1.543  0.3566  0.7435  1.2082
29202SOL    HW289375   4.993   2.744   1.423 -0.6927 -1.5334  1.3001
29203SOL     OW89376   6.883   4.549   5.008 -0.4093 -0.1201 -0.2355
29203SOL    HW189377   6.888   4.624   4.949 -2.5534  1.5317  1.4735
29203SOL    HW289378   6.829   4.485   4.961 -1.7205  0.9836 -0.2990
29204SOL     OW89379   0.639   0.704   8.556 -0.1646  0.5162 -0.6911
29204SOL    HW189380   0.672   0.747   8.477  2.4360 -1.1600 -0.6414
29204SOL    HW289381   0.702   0.728   8.624  0.8764 -2.4635 -0.4705
29205SOL     OW89382   9.532   2.364   8.754 -0.4182 -0.2014  0.2491
29205SOL    HW189383   9.458   2.309   8.780 -0.7688 -0.7668 -1.7742
29205SOL    HW289384   9.491   2.445   8.721  0.0288  0.6829  1.7788
29206SOL     OW89385   8.025   3.546   3.034 -0.0565  0.1608  0.1782
29206SOL    HW189386   8.100   3.576   3.085  2.0458 -2.6632 -1.0317
29206SOL    HW289387   8.009   3.617   2.971  2.6431  0.2360 -0.5418
29207SOL     OW89388   4.778   6.946   5.899 -0.5024 -0.0297 -0.5305
29207SOL    HW189389   4.854   6.974   5.849  0.6143 -2.2391 -0.1973
29207SOL    HW289390   4.709   6.932   5.834  0.5963 -1.7993 -1.3973
29208SOL     OW89391   5.717   5.376   4.492  0.1226 -0.0674  0.4181
29208SOL    HW189392   5.629   5.346   4.518  0.2426  0.5291  1.5759
29208SOL    HW289393   5.701   5.431   4.416 -0.4166 -0.6325  0.1083
29209SOL     OW89394   1.829   1.954   9.126 -0.2333  0.1213 -0.2765
29209SOL    HW189395   1.841   2.005   9.206 -1.2475  1.3083 -0.8507
29209SOL    HW289396   1.881   2.000   9.060  1.5652 -1.5085 -0.0896
29210SOL     OW89397   4.971   6.000   0.525  0.1588 -0.5029  0.1392
29210SOL    HW189398   4.934   6.088   0.517 -1.4629 -0.8939  2.4371
29210SOL    HW289399   4.897   5.942   0.510  0.6121 -1.3957  1.2215
29211SOL     OW89400   2.126   2.967   1.536  0.5609 -0.0920  0.0185
29211SOL    HW189401   2.120   2.876   1.508  2.6366  0.1141 -1.3409
29211SOL    HW289402   2.040   2.987   1.573 -0.4691 -2.1207 -1.1110
29212SOL     OW89403   7.503   6.266   2.891  0.1394 -0.6415  0.2392
29212SOL    HW189404   7.430   6.293   2.835 -1.3855 -1.7697  1.5635
29212SOL    HW289405   7.510   6.172   2.878  2.1063 -0.4348 -0.6230
29213SOL     OW89406   2.838   4.938   8.718 -0.9732 -0.0786  0.3360
29213SOL    HW189407   2.757   4.891   8.735 -1.9131  1.0702 -0.8357
29213SOL    HW289408   2.863   4.911   8.630 -1.0224  0.9092  0.0165
29214SOL     OW89409   3.524   4.441   0.935 -0.0927 -0.1800 -0.5241
29214SOL    HW189410   3.441   4.450   0.889 -0.3197 -1.6016 -0.4404
29214SOL    HW289411   3.558   4.356   0.907  1.7189  0.6984 -1.1573
29215SOL     OW89412   5.831   8.670   8.923 -0.0325  0.2913  0.0711
29215SOL    HW189413   5.799   8.650   8.836  0.7779  0.0432 -0.1763
29215SOL    HW289414   5.772   8.738   8.955 -0.5461  0.1369 -0.5270
29216SOL     OW89415   3.919   0.063   6.258  0.6080 -0.1464 -0.0869
29216SOL    HW189416   3.851   0.128   6.274  1.3815  1.0184 -1.2649
29216SOL    HW289417   3.958   0.047   6.344 -0.4770 -0.0674  0.4274
29217SOL     OW89418   8.071   7.184   2.274  0.3175  0.4527 -0.4928
29217SOL    HW189419   8.125   7.263   2.285  0.7648 -0.0399  1.2172
29217SOL    HW289420   8.112   7.120   2.332 -2.6847  0.3506  1.7310
29218SOL     OW89421   5.725   8.508   5.771  0.0919 -0.2167  0.0447
29218SOL    HW189422   5.646   8.557   5.750  0.0337 -0.7137 -0.9723
29218SOL    HW289423   5.755   8.475   5.686  1.3137 -0.1475  0.4338
29219SOL     OW89424   3.942   2.699   1.664 -0.1125 -0.1754 -0.2706
29219SOL    HW189425   3.888   2.620   1.655  0.3400 -1.0945  3.2756
29219SOL    HW289426   4.029   2.672   1.636 -0.4445 -0.1847 -1.3272
29220SOL     OW89427   1.277   2.520   3.875 -0.1297 -0.2175 -0.0088
29220SOL    HW189428   1.187   2.547   3.858  0.1409  0.3653 -0.5532
29220SOL    HW289429   1.298   2.561   3.959 -0.7104 -1.2175  0.6416
29221SOL     OW89430   6.058   5.306   0.172  0.3317 -0.0905 -0.0614
29221SOL    HW189431   6.080   5.265   0.256 -0.5030  1.2983  0.8900
29221SOL    HW289432   6.056   5.400   0.192  0.9814  0.3354 -1.8685
29222SOL     OW89433   8.037   7.909   7.870 -0.1696 -0.1322 -0.1258
29222SOL    HW189434   8.130   7.891   7.883 -0.4042 -0.0083  2.0515
29222SOL    HW289435   7.996   7.823   7.869 -0.3421 -0.1264  2.0331
29223SOL     OW89436   3.958   2.852   9.340  0.4239 -0.2969  0.2289
29223SOL    HW189437   3.952   2.759   9.365 -1.1574 -0.3734 -0.3298
29223SOL    HW289438   4.039   2.858   9.289  0.7810 -1.2729  0.6554
29224SOL     OW89439   6.436   0.302   9.337  0.2976 -0.2344  0.3483
29224SOL    HW189440   6.477   0.265   9.260 -1.0280 -1.3326  0.1454
29224SOL    HW289441   6.442   0.397   9.324 -0.5180 -0.3923 -1.4448
29225SOL     OW89442   8.428   4.033   3.487  0.8698  0.0947 -0.3969
29225SOL    HW189443   8.394   4.012   3.400  0.2745  3.0354 -0.9953
29225SOL    HW289444   8.523   4.022   3.480  0.7053 -1.1569 -0.9113
29226SOL     OW89445   1.898   1.668   2.487  0.0399  0.4823 -0.4618
29226SOL    HW189446   1.824   1.666   2.426  0.7685 -1.2709 -1.3444
29226SOL    HW289447   1.974   1.690   2.433  0.5924 -0.4448 -0.0843
29227SOL     OW89448   7.538   0.439   3.825 -0.5419 -0.0689 -0.4500
29227SOL    HW189449   7.612   0.382   3.804 -0.6677 -0.1607 -0.6505
29227SOL    HW289450   7.576   0.526   3.835 -0.6562  0.2658 -2.4583
29228SOL     OW89451   3.128   1.905   3.400 -0.6419  0.5255  0.0067
29228SOL    HW189452   3.069   1.852   3.453 -0.2023  0.1652  0.1425
29228SOL    HW289453   3.091   1.993   3.403 -2.5985 -0.1397 -1.9657
29229SOL     OW89454   0.309   7.488   8.595 -0.1836  0.7178 -0.0587
29229SOL    HW189455   0.227   7.479   8.643 -0.2764  0.2654 -0.2952
29229SOL    HW289456   0.287   7.542   8.519 -0.0327  1.4487  0.4083
29230SOL     OW89457   4.897   6.029   8.041  0.1733 -0.1007  0.0576
29230SOL    HW189458   4.979   5.984   8.024  0.3760  0.1329  0.4102
29230SOL    HW289459   4.896   6.043   8.135  0.0079  0.4293 -0.0208
29231SOL     OW89460   1.602   5.928   8.535  0.1052  0.0895 -0.2243
29231SOL    HW189461   1.623   5.957   8.624 -2.3784  0.3465  0.3288
29231SOL    HW289462   1.613   5.833   8.537  0.5194  0.1427  0.2149
29232SOL     OW89463   2.847   6.466   0.200  0.1999 -0.5250  0.0510
29232SOL    HW189464   2.851   6.406   0.126  2.7209  1.2362 -1.3823
29232SOL    HW289465   2.775   6.525   0.179 -0.1447 -1.0193 -0.1752
29233SOL     OW89466   8.039   4.920   1.537 -0.0184 -0.0474  0.3316
29233SOL    HW189467   8.021   4.828   1.516  1.5270 -0.5666  1.0944
29233SOL    HW289468   7.990   4.970   1.471 -0.8660 -1.4072 -0.1127
29234SOL     OW89469   8.352   2.660   5.254  0.4533  0.4804  0.0346
29234SOL    HW189470   8.301   2.603   5.311 -3.0394  2.5528 -0.7266
29234SOL    HW289471   8.353   2.614   5.170  2.0361 -0.6753  0.6457
29235SOL     OW89472   5.787   6.056   4.842  0.3019  0.3965  0.0127
29235SOL    HW189473   5.787   6.140   4.796  0.9645  0.0001 -0.7454
29235SOL    HW289474   5.871   6.016   4.819 -0.0760 -0.5544  0.2188
29236SOL     OW89475   9.065   7.173   6.660  0.2086  0.4823  0.3303
29236SOL    HW189476   9.058   7.167   6.756  0.4328 -1.1457  0.2656
29236SOL    HW289477   9.072   7.083   6.631 -0.6641  0.9081 -1.3052
29237SOL     OW89478   9.566   6.891   8.158  0.5382 -0.3775 -0.3915
29237SOL    HW189479   9.536   6.887   8.249  2.4126 -0.8931  0.2525
29237SOL    HW289480   9.497   6.938   8.112  0.1606  1.1273  1.5779
29238SOL     OW89481   4.356   1.577   4.912 -0.0161 -0.0764 -0.4092
29238SOL    HW189482   4.285   1.582   4.849 -0.4724  1.8370  0.2052
29238SOL    HW289483   4.316   1.538   4.990 -0.2945  0.5912 -0.2132
29239SOL     OW89484   2.461   1.533   4.633 -0.0706  0.3788  0.6387
29239SOL    HW189485   2.472   1.497   4.721  0.7304 -0.7352  0.1116
29239SOL    HW289486   2.527   1.602   4.627 -0.2273  0.5616  0.9505
29240SOL     OW89487   7.938   6.093   4.509  0.4901 -0.1472  0.4660
29240SOL    HW189488   7.902   6.093   4.597  1.6557  2.2464  1.0457
29240SOL    HW289489   7.911   6.178   4.473  1.0590 -0.5738 -1.0264
29241SOL     OW89490   3.819   0.897   5.841 -0.2959  0.1269  0.0395
29241SOL    HW189491   3.811   0.809   5.804 -1.3996  0.8262 -1.4774
29241SOL    HW289492   3.735   0.938   5.825  0.8660  2.1941 -1.2594
29242SOL     OW89493   2.460   2.269   8.873  0.2907  0.2312  0.3483
29242SOL    HW189494   2.517   2.193   8.877  0.1230 -0.1108 -2.1162
29242SOL    HW289495   2.497   2.331   8.937  2.1502 -0.7853  0.3149
29243SOL     OW89496   6.163   7.701   4.437 -0.3806  0.0721 -0.9271
29243SOL    HW189497   6.071   7.696   4.464 -0.1907 -0.4019 -0.3508
29243SOL    HW289498   6.212   7.662   4.510  0.3689  1.2238 -0.8019
29244SOL     OW89499   6.301   4.054   6.060 -0.4459  0.0609  0.2364
29244SOL    HW189500   6.272   4.145   6.053 -1.0112 -0.1401 -0.0983
29244SOL    HW289501   6.314   4.026   5.969  1.7093  0.4109  0.3685
29245SOL     OW89502   7.594   5.106   2.923  0.8729 -0.3984  0.3700
29245SOL    HW189503   7.511   5.108   2.970  0.7799  1.6105  0.2210
29245SOL    HW289504   7.570   5.121   2.832  1.3893  0.4463  0.3612
29246SOL     OW89505   5.382   2.441   6.140  0.0118 -0.3928 -0.3757
29246SOL    HW189506   5.395   2.406   6.052  1.7941 -0.6969 -0.0321
29246SOL    HW289507   5.443   2.515   6.146  0.3643 -0.7447  0.7785
29247SOL     OW89508   0.689   8.548   9.354 -0.3976  0.2288  0.2236
29247SOL    HW189509   0.658   8.483   9.291 -0.4791  1.3994 -0.9868
29247SOL    HW289510   0.636   8.626   9.336 -1.3718  0.2407  2.6393
29248SOL     OW89511   6.924   7.707   2.845  0.0347 -0.4813  0.0601
29248SOL    HW189512   6.952   7.617   2.827  1.0004 -0.6013  1.8486
29248SOL    HW289513   6.999   7.761   2.819  0.3481 -0.4282  1.0072
29249SOL     OW89514   4.359   5.152   4.168 -0.2353 -0.1348 -0.2554
29249SOL    HW189515   4.419   5.201   4.112 -1.8535  2.6021  0.2400
29249SOL    HW289516   4.396   5.161   4.256  0.3234 -1.2610 -0.3571
29250SOL     OW89517   4.969   6.501   7.097 -0.2185  0.6561  0.0078
29250SOL    HW189518   5.036   6.538   7.154  0.9594 -3.6192  1.7932
29250SOL    HW289519   4.904   6.465   7.158  0.1162 -2.4222 -1.3073
29251SOL     OW89520   8.455   0.052   3.717 -0.1306 -0.7163  0.2413
29251SOL    HW189521   8.533   0.031   3.667  1.8533  1.0177  2.3681
29251SOL    HW289522   8.410   0.119   3.665  1.2066  0.1446  0.1540
29252SOL     OW89523   0.795   7.061   2.186 -0.3096  0.0689 -0.3317
29252SOL    HW189524   0.793   6.970   2.213  1.7937 -0.6873 -2.3933
29252SOL    HW289525   0.729   7.066   2.116  0.1055 -0.0805 -0.7387
29253SOL     OW89526   0.807   7.235   1.208  0.2551 -0.2113 -0.0458
29253SOL    HW189527   0.730   7.284   1.236  0.3223 -0.6946  1.0603
29253SOL    HW289528   0.792   7.146   1.241  1.3255 -0.2783  0.3112
29254SOL     OW89529   5.487   8.687   3.663  0.3013 -0.1224  0.4883
29254SOL    HW189530   5.523   8.773   3.686  1.4283 -0.7836  1.2645
29254SOL    HW289531   5.444   8.657   3.743  0.5748 -0.6179  0.4496
29255SOL     OW89532   6.796   3.684   8.204  0.1927 -0.1061 -0.0581
29255SOL    HW189533   6.703   3.671   8.225 -0.1509 -2.3527 -2.4784
29255SOL    HW289534   6.827   3.745   8.271 -2.3961 -1.2325  2.3614
29256SOL     OW89535   8.219   1.971   9.268 -0.1938  0.1742  0.4218
29256SOL    HW189536   8.168   1.897   9.298 -1.2554  0.3365 -0.8729
29256SOL    HW289537   8.183   2.046   9.314  0.0829  0.0519  0.8415
29257SOL     OW89538   2.996   7.585   6.843  0.3681  0.1824 -0.1583
29257SOL    HW189539   2.906   7.566   6.867  0.6218 -0.9962 -0.0600
29257SOL    HW289540   2.994   7.675   6.811 -0.9981 -0.0972 -0.9461
29258SOL     OW89541   1.114   5.346   3.430  0.2764 -0.1716  0.0011
29258SOL    HW189542   1.052   5.283   3.394  1.0453 -1.1105  0.2788
29258SOL    HW289543   1.114   5.328   3.524 -2.7761  3.1723  0.8580
29259SOL     OW89544   5.764   3.487   2.420  0.2617 -0.0266  0.1550
29259SOL    HW189545   5.796   3.423   2.356 -1.2461 -1.2246  0.5234
29259SOL    HW289546   5.834   3.551   2.427  1.5365 -1.2444 -0.7915
29260SOL     OW89547   6.234   0.251   9.702  0.3936 -0.4504 -0.2441
29260SOL    HW189548   6.170   0.232   9.634  0.4178  2.4264 -1.1767
29260SOL    HW289549   6.318   0.254   9.657  0.7320 -0.7711  0.3431
29261SOL     OW89550   2.048   9.308   0.142 -0.6259  0.5485  0.0583
29261SOL    HW189551   2.051   9.393   0.099 -0.3031  0.9530  0.8693
29261SOL    HW289552   2.073   9.325   0.233 -0.2966 -0.4472  0.1738
29262SOL     OW89553   8.149   0.146   6.271  0.0844 -0.6475 -0.3173
29262SOL    HW189554   8.112   0.232   6.293  0.5818 -0.4461 -0.2652
29262SOL    HW289555   8.231   0.166   6.227  0.0744 -1.0965 -0.5352
29263SOL     OW89556   9.801   1.308   8.692  0.3504  0.2411  0.2208
29263SOL    HW189557   9.799   1.219   8.725  0.3238  0.0490 -0.2897
29263SOL    HW289558   9.710   1.329   8.673  0.3964  0.2512  0.0091
29264SOL     OW89559   6.114   9.194   5.981  0.5455 -0.1258 -0.1597
29264SOL    HW189560   6.084   9.207   6.071 -0.7621  1.1503 -0.7392
29264SOL    HW289561   6.113   9.282   5.942 -0.0394 -0.7778 -1.7345
29265SOL     OW89562   6.429   7.847   1.509  0.1019  0.5845  0.2970
29265SOL    HW189563   6.411   7.793   1.432  0.5014  1.7204 -0.6306
29265SOL    HW289564   6.386   7.802   1.581  0.7627 -1.1829 -0.3550
29266SOL     OW89565   2.802   7.508   1.820  0.4094 -0.2785 -0.1398
29266SOL    HW189566   2.711   7.537   1.833  0.4657  0.3236 -0.9926
29266SOL    HW289567   2.797   7.413   1.824  0.0198 -0.2348  1.5127
29267SOL     OW89568   1.722   5.989   1.761  0.2193  0.7540 -0.5441
29267SOL    HW189569   1.684   5.999   1.848  0.7757  0.8223 -0.2998
29267SOL    HW289570   1.664   5.929   1.716  0.9449 -0.8373  0.5233
29268SOL     OW89571   3.006   3.047   5.982 -0.0542  0.4609 -0.1453
29268SOL    HW189572   2.959   2.994   5.918  1.9319 -0.1683 -1.1637
29268SOL    HW289573   3.046   2.983   6.041 -0.6539  0.9939  0.8765
29269SOL     OW89574   2.023   1.125   4.184 -0.0056 -0.1604  0.8278
29269SOL    HW189575   1.989   1.105   4.097 -1.0779  0.0766  1.1823
29269SOL    HW289576   1.987   1.211   4.205  1.8532  0.6889  0.7131
29270SOL     OW89577   3.049   5.826   4.811  0.1493 -0.3061 -0.3325
29270SOL    HW189578   3.047   5.920   4.798  0.8412 -0.1199  0.7704
29270SOL    HW289579   2.957   5.801   4.822 -0.1396  0.0424 -1.7852
29271SOL     OW89580   2.518   1.306   1.829  0.5210  0.0960 -0.5266
29271SOL    HW189581   2.556   1.394   1.830  0.2758  0.2128  1.2044
29271SOL    HW289582   2.445   1.311   1.890  0.1367 -1.1579 -0.8623
29272SOL     OW89583   1.018   3.732   8.119  0.2589  0.2411  0.5910
29272SOL    HW189584   1.091   3.684   8.080  0.8946 -1.0147  3.1030
29272SOL    HW289585   0.955   3.664   8.141 -1.4521  1.2468 -0.9327
29273SOL     OW89586   9.497   0.034   2.808 -0.4309  0.8593  0.2121
29273SOL    HW189587   9.498   0.061   2.716  1.3910 -1.4667 -0.5601
29273SOL    HW289588   9.466  -0.057   2.806  2.3821 -0.2667  1.4263
29274SOL     OW89589   5.431   7.632   1.807 -0.3148  0.2611 -0.2658
29274SOL    HW189590   5.495   7.699   1.835 -0.1144  0.5499 -1.3749
29274SOL    HW289591   5.399   7.663   1.723 -2.6917  0.6237  0.7115
29275SOL     OW89592   8.134   8.279   2.143 -0.8735  0.2726 -0.2676
29275SOL    HW189593   8.146   8.339   2.069  1.2344  0.4319  0.1239
29275SOL    HW289594   8.127   8.193   2.102  0.0086  0.3879 -0.6954
29276SOL     OW89595   1.079   3.065   4.154  0.1518  0.9305 -0.2782
29276SOL    HW189596   1.064   3.053   4.248 -0.7422  0.9581 -0.4105
29276SOL    HW289597   1.141   3.138   4.149  2.4877 -0.8727  0.3779
29277SOL     OW89598   9.091   6.670   0.105  0.2047 -0.2477 -0.3569
29277SOL    HW189599   9.142   6.735   0.056  0.1194 -0.2767 -0.4828
29277SOL    HW289600   9.094   6.701   0.196  2.8571 -1.7060  0.1773
29278SOL     OW89601   9.370   6.505   1.107  0.3054  0.0347 -0.0758
29278SOL    HW189602   9.407   6.487   1.021 -1.4492  0.4708 -0.9458
29278SOL    HW289603   9.378   6.600   1.117 -0.5587  0.1281 -0.2623
29279SOL     OW89604   2.803   0.494   1.208  0.8988 -0.2084 -0.0334
29279SOL    HW189605   2.770   0.518   1.295  0.7581  0.1306 -0.1803
29279SOL    HW289606   2.869   0.561   1.189  1.2976 -0.5808  0.0343
29280SOL     OW89607   5.684   3.733   5.766 -0.5222 -0.0032  0.2587
29280SOL    HW189608   5.591   3.754   5.773 -1.4392 -1.9705 -3.3509
29280SOL    HW289609   5.717   3.794   5.699  0.4361 -0.2983  0.4526
29281SOL     OW89610   0.204   6.124   5.622  0.3673  0.7204 -0.5549
29281SOL    HW189611   0.295   6.141   5.645  0.6099  0.1969 -1.0797
29281SOL    HW289612   0.205   6.033   5.590 -0.5942  0.1969  0.8153
29282SOL     OW89613   4.268   5.436   0.901 -0.6813 -0.1722  0.3132
29282SOL    HW189614   4.211   5.513   0.904 -1.0091 -0.4260  0.7708
29282SOL    HW289615   4.209   5.363   0.883 -0.4929 -0.4271  0.7131
29283SOL     OW89616   7.264   9.802   3.885  0.1177  0.8024 -0.3407
29283SOL    HW189617   7.186   9.824   3.834  0.6819 -0.8470 -2.0212
29283SOL    HW289618   7.334   9.798   3.821  0.9924 -0.6972  0.6691
29284SOL     OW89619   2.855   7.716   3.426 -0.2683 -0.6964 -0.0795
29284SOL    HW189620   2.936   7.684   3.467 -0.0798 -2.4873 -1.6953
29284SOL    HW289621   2.787   7.657   3.458 -1.1214  1.1330  1.7050
29285SOL     OW89622   0.924   4.519   7.644  0.4102  0.1779 -0.5307
29285SOL    HW189623   0.930   4.589   7.709  0.4492 -1.7010  1.5902
29285SOL    HW289624   1.003   4.467   7.656 -1.2567 -2.3200  0.5435
29286SOL     OW89625   6.667   9.374   2.530  0.2029  0.2641  0.0294
29286SOL    HW189626   6.684   9.441   2.463 -0.6484 -0.6826 -1.1752
29286SOL    HW289627   6.753   9.335   2.547  0.4036  0.4144 -0.6233
29287SOL     OW89628   7.585   5.402   6.370  0.2592  0.1281 -0.2759
29287SOL    HW189629   7.503   5.445   6.397  0.2996  0.4345 -0.6443
29287SOL    HW289630   7.576   5.313   6.404  0.2476  0.4586  0.6378
29288SOL     OW89631   8.815   7.256   6.578  0.4802  0.1408 -0.2559
29288SOL    HW189632   8.840   7.348   6.589  1.0610 -0.2351  2.2742
29288SOL    HW289633   8.898   7.209   6.575  0.2203 -0.5579  1.8956
29289SOL     OW89634   0.466   5.030   3.019  0.3603 -0.0941 -0.0432
29289SOL    HW189635   0.467   4.942   3.057 -1.7684  0.2405  0.9666
29289SOL    HW289636   0.467   5.015   2.924  1.4643 -1.1197  0.1091
29290SOL     OW89637   5.802   0.562   2.558 -0.0088  0.1298  0.2424
29290SOL    HW189638   5.757   0.490   2.600  0.7123  0.4499  1.6321
29290SOL    HW289639   5.742   0.593   2.490 -0.5470 -1.3935  0.0009
29291SOL     OW89640   2.861   7.949   5.999 -0.1429 -0.1416  0.6549
29291SOL    HW189641   2.822   8.036   5.988  0.1242 -0.1385 -0.4976
29291SOL    HW289642   2.797   7.889   5.960 -0.8027 -0.5980  2.3854
29292SOL     OW89643   2.607   4.975   5.231 -1.0144 -0.2970  0.0644
29292SOL    HW189644   2.544   4.906   5.209 -0.4329 -1.1112  0.8227
29292SOL    HW289645   2.574   5.053   5.188 -3.1340 -0.4333  1.2913
29293SOL     OW89646   1.366   7.827   0.178 -0.4393 -0.3810 -0.0287
29293SOL    HW189647   1.377   7.812   0.084  0.0023  1.1332 -0.2485
29293SOL    HW289648   1.293   7.889   0.184  0.0764  0.1907  0.5541
29294SOL     OW89649   5.872   2.824   4.427  0.2699  0.7057 -0.1617
29294SOL    HW189650   5.919   2.879   4.488  1.4675  0.0221 -0.4382
29294SOL    HW289651   5.931   2.815   4.352 -0.7098  0.6310 -0.9487
29295SOL     OW89652   1.112   8.748   4.516 -0.6193  0.2948 -0.2000
29295SOL    HW189653   1.150   8.824   4.560  0.9783 -1.8092  2.3661
29295SOL    HW289654   1.037   8.724   4.571 -0.7774 -0.2888 -0.6632
29296SOL     OW89655   4.690   0.437   8.074  0.3794 -0.7588  0.1532
29296SOL    HW189656   4.778   0.469   8.095 -0.0010  0.0824  0.5156
29296SOL    HW289657   4.674   0.367   8.137  0.7867 -0.9127  0.0886
29297SOL     OW89658   1.890   5.392   2.050  0.1180 -0.4349 -0.0296
29297SOL    HW189659   1.905   5.315   1.995 -1.8703  0.0542 -1.3506
29297SOL    HW289660   1.839   5.451   1.994 -0.6187  0.7567  1.8346
29298SOL     OW89661   8.016   4.625   5.849  0.1890  0.2507  0.4730
29298SOL    HW189662   7.963   4.547   5.829  0.8652 -0.5857  1.7926
29298SOL    HW289663   7.954   4.698   5.842 -0.2714 -0.2554 -1.6329
29299SOL     OW89664   2.842   4.905   5.363  0.2814  0.8583 -0.6434
29299SOL    HW189665   2.886   4.848   5.299  0.5685  0.0409  0.2420
29299SOL    HW289666   2.768   4.942   5.316 -0.3051 -0.7855 -1.0776
29300SOL     OW89667   5.527   1.521   5.062  0.1016  0.4467  0.3794
29300SOL    HW189668   5.464   1.467   5.110  0.5144  0.0331  0.4664
29300SOL    HW289669   5.567   1.460   4.999  0.7327  0.5932  0.6287
29301SOL     OW89670   0.474   1.565   9.226 -0.0914 -0.7054  0.2042
29301SOL    HW189671   0.382   1.578   9.200 -0.6422 -0.0195  2.3424
29301SOL    HW289672   0.516   1.649   9.208 -0.4698 -0.2341  1.4484
29302SOL     OW89673   7.196   2.503   3.057  0.1609  0.0015 -0.5757
29302SOL    HW189674   7.198   2.500   2.961 -0.5399  0.4602 -0.6155
29302SOL    HW289675   7.274   2.456   3.084  0.9105  0.7486 -1.3869
29303SOL     OW89676   9.282   7.033   7.157  0.3192  0.0778  0.6617
29303SOL    HW189677   9.320   7.013   7.242  0.6076 -0.9952  0.2990
29303SOL    HW289678   9.356   7.034   7.097  0.0080 -0.1290  0.2659
29304SOL     OW89679   6.887   6.020   7.113  0.3828 -0.3226 -1.1726
29304SOL    HW189680   6.886   6.092   7.176 -0.9322  0.5089 -2.0938
29304SOL    HW289681   6.940   5.952   7.155 -1.8964 -0.5515  1.6384
29305SOL     OW89682   2.318   0.095   5.111 -0.0139 -0.3223  0.2588
29305SOL    HW189683   2.323   0.036   5.187 -0.1238  0.3345  0.7851
29305SOL    HW289684   2.355   0.177   5.142 -1.5927  0.4773  0.1315
29306SOL     OW89685   4.331   3.453   2.175 -0.6197 -0.2791  0.0782
29306SOL    HW189686   4.408   3.415   2.133 -1.3525  1.5989 -3.3348
29306SOL    HW289687   4.280   3.377   2.205  1.2354 -1.6236  0.0031
29307SOL     OW89688   5.520   8.990   7.921  0.1730 -0.1519  0.2098
29307SOL    HW189689   5.584   8.973   7.853  1.3434  1.0058  0.9809
29307SOL    HW289690   5.443   9.022   7.874  0.4982 -0.6112 -0.6563
29308SOL     OW89691   0.612   4.741   7.675 -0.1366 -0.5468 -0.1905
29308SOL    HW189692   0.540   4.682   7.651 -1.2658  0.9108 -0.4796
29308SOL    HW289693   0.682   4.719   7.613 -0.6122 -1.4191 -0.4422
29309SOL     OW89694   8.851   9.700   2.346 -0.6948  0.4049  0.8771
29309SOL    HW189695   8.929   9.648   2.368 -3.2273 -3.3047  2.1507
29309SOL    HW289696   8.848   9.767   2.414  1.0725  0.3054  1.1180
29310SOL     OW89697   2.636   6.926   5.165 -0.2436 -0.5005 -0.0585
29310SOL    HW189698   2.679   6.949   5.083 -0.2234  0.3829  0.1879
29310SOL    HW289699   2.706   6.894   5.221  0.3108  1.7890  0.6603
29311SOL     OW89700   3.104   2.651   2.853 -1.2220 -0.2679 -0.2615
29311SOL    HW189701   3.027   2.601   2.882 -1.2298 -0.6654 -0.9523
29311SOL    HW289702   3.070   2.710   2.786 -0.6851 -1.4962 -1.6723
29312SOL     OW89703   8.270   9.841   7.264  0.1586 -0.0559  0.3787
29312SOL    HW189704   8.278   9.932   7.236  0.0757  0.5046  2.0591
29312SOL    HW289705   8.353   9.801   7.239 -0.2845  0.1291 -1.5045
29313SOL     OW89706   4.542   6.836   7.949  0.1968  0.1254 -0.6791
29313SOL    HW189707   4.564   6.746   7.927  1.0705  0.5028 -1.4246
29313SOL    HW289708   4.623   6.872   7.984  0.1506  0.9108 -1.3548
29314SOL     OW89709   6.242   4.648   4.751  0.0083 -0.4203 -0.1040
29314SOL    HW189710   6.223   4.662   4.844 -0.9931 -0.3497 -0.3114
29314SOL    HW289711   6.287   4.728   4.724 -0.0498 -0.2729  0.2257
29315SOL     OW89712   3.134   9.068   7.067 -0.6135 -0.0883 -0.2836
29315SOL    HW189713   3.113   9.151   7.109  0.7651  0.3148 -0.3492
29315SOL    HW289714   3.099   9.077   6.978 -1.1566  0.1173 -0.0491
29316SOL     OW89715   5.876   6.475   4.910  0.3902 -0.0476 -0.3940
29316SOL    HW189716   5.830   6.548   4.869 -0.1275  0.6863  1.3731
29316SOL    HW289717   5.889   6.504   5.001 -2.4328 -3.2513  1.2300
29317SOL     OW89718   9.707   7.888   2.440  0.1341 -0.5587  0.0583
29317SOL    HW189719   9.615   7.901   2.416 -0.2321  0.5292  1.8525
29317SOL    HW289720   9.741   7.976   2.454  1.3552 -0.9696 -0.2307
29318SOL     OW89721   2.554   0.416   7.515 -0.0470  0.3468  0.1306
29318SOL    HW189722   2.631   0.452   7.471  0.6097 -0.7522  0.3379
29318SOL    HW289723   2.582   0.329   7.543 -1.5109 -0.2396 -0.1660
29319SOL     OW89724   1.402   7.539   0.558 -0.2349  0.3184  0.0288
29319SOL    HW189725   1.454   7.599   0.505  0.3350  0.5220  0.8047
29319SOL    HW289726   1.340   7.596   0.604  0.2920  0.3297  0.7485
29320SOL     OW89727   6.095   0.072   2.801 -0.1281 -0.0999  0.0514
29320SOL    HW189728   6.069   0.105   2.715  0.4038 -1.0272 -0.4854
29320SOL    HW289729   6.145  -0.008   2.782 -0.5497 -0.6731  1.2493
29321SOL     OW89730   9.191   4.346   0.528  0.0963 -0.4091  0.5687
29321SOL    HW189731   9.198   4.265   0.580 -0.4839 -0.1434  1.0596
29321SOL    HW289732   9.097   4.357   0.512  0.1130  0.5267  1.0684
29322SOL     OW89733   5.685   6.995   9.309  0.3241  1.0600 -0.2993
29322SOL    HW189734   5.773   6.957   9.312 -0.6631 -1.3689 -0.0781
29322SOL    HW289735   5.655   6.977   9.220 -1.1145 -1.1154  0.5494
29323SOL     OW89736   0.270   4.594   6.600  0.0432 -0.5758 -0.1641
29323SOL    HW189737   0.210   4.659   6.637  0.0453 -1.1134  0.8115
29323SOL    HW289738   0.330   4.645   6.545  1.0200  0.4977  1.7945
29324SOL     OW89739   8.658   7.546   0.593 -0.4093 -0.0751 -0.4810
29324SOL    HW189740   8.697   7.627   0.624 -2.2907 -0.1006  2.3983
29324SOL    HW289741   8.577   7.573   0.548  0.5097 -0.2615 -2.3521
29325SOL     OW89742   3.280   4.358   1.642 -0.4106  0.0441 -0.0930
29325SOL    HW189743   3.320   4.354   1.729 -0.8985 -0.6998  0.1072
29325SOL    HW289744   3.354   4.364   1.581 -0.0339 -0.3265  0.3219
29326SOL     OW89745   8.865   8.225   0.234  0.0430 -0.2019  0.6077
29326SOL    HW189746   8.791   8.262   0.282  0.7750 -0.7759  2.2565
29326SOL    HW289747   8.826   8.157   0.178 -0.8313  0.4924  0.3554
29327SOL     OW89748   8.802   9.626   6.999  0.5117  0.4200  0.6717
29327SOL    HW189749   8.865   9.668   6.941  0.4305  0.4939  0.6373
29327SOL    HW289750   8.756   9.699   7.041 -0.3070  0.3655 -0.1155
29328SOL     OW89751   9.419   5.109   3.798 -0.2900  0.0032  0.0447
29328SOL    HW189752   9.510   5.080   3.799 -0.5778 -0.9580  1.1892
29328SOL    HW289753   9.387   5.090   3.886 -1.9671 -0.9082 -0.7037
29329SOL     OW89754   7.404   4.224   2.853 -0.2054  0.1336 -0.0479
29329SOL    HW189755   7.321   4.227   2.805 -0.0547  0.7293 -0.2811
29329SOL    HW289756   7.378   4.226   2.945 -0.5188 -1.5522 -0.0606
29330SOL     OW89757   5.261   7.614   8.210  0.2915  0.3579  0.8150
29330SOL    HW189758   5.333   7.576   8.260  2.6458 -0.7255 -2.9207
29330SOL    HW289759   5.282   7.707   8.205 -0.2018  0.5573  2.0717
29331SOL     OW89760   7.514   8.642   8.047  0.2666  0.0317  0.5572
29331SOL    HW189761   7.598   8.677   8.077 -0.5441  0.0604  3.0103
29331SOL    HW289762   7.523   8.547   8.056 -0.0037  0.0438  0.9819
29332SOL     OW89763   4.837   4.852   9.696 -0.4020  0.5815 -0.3618
29332SOL    HW189764   4.756   4.860   9.747 -0.7098 -0.6393 -0.6256
29332SOL    HW289765   4.870   4.765   9.717 -0.0681  0.4015 -1.5725
29333SOL     OW89766   4.414   0.731   9.679  0.3469 -0.0198 -0.5289
29333SOL    HW189767   4.349   0.693   9.738  1.3258 -0.3531  0.3899
29333SOL    HW289768   4.386   0.705   9.592  0.0314 -1.4112 -0.0463
29334SOL     OW89769   6.181   3.251   1.120 -0.1104  0.6904  0.1421
29334SOL    HW189770   6.220   3.307   1.187 -0.9894  0.4321  0.8919
29334SOL    HW289771   6.187   3.163   1.156 -1.7994  0.6918  0.5163
29335SOL     OW89772   8.245   0.921   7.521  0.3179  0.0074 -0.0599
29335SOL    HW189773   8.176   0.962   7.573  1.3131 -0.5693  1.7662
29335SOL    HW289774   8.223   0.828   7.521  0.0853  0.0431 -1.0912
29336SOL     OW89775   7.748   7.067   9.673  0.2095 -0.1232 -0.4067
29336SOL    HW189776   7.814   7.137   9.670  0.1634 -0.0122  0.6675
29336SOL    HW289777   7.778   7.003   9.609 -0.5003  1.5147 -2.4918
29337SOL     OW89778   7.524   1.681   1.384 -0.2899 -0.1900 -0.1328
29337SOL    HW189779   7.602   1.632   1.360 -0.3738  0.4740 -1.9270
29337SOL    HW289780   7.464   1.616   1.419  0.8159 -0.8146  0.6304
29338SOL     OW89781   2.446   2.171   7.953 -0.4905 -0.1343  0.5467
29338SOL    HW189782   2.384   2.152   7.882  1.8042  2.2493 -2.3599
29338SOL    HW289783   2.405   2.243   8.001 -1.2330 -0.4947  0.4730
29339SOL     OW89784   1.932   3.898   3.724 -0.5712  0.4282  0.3608
29339SOL    HW189785   1.881   3.959   3.671 -0.8419 -0.0349  0.0951
29339SOL    HW289786   1.877   3.880   3.800  0.0217  1.4960  1.0884
29340SOL     OW89787   8.590   3.420   0.628  0.0792 -0.4188 -0.6078
29340SOL    HW189788   8.647   3.464   0.566 -1.2721 -0.5747 -2.0269
29340SOL    HW289789   8.580   3.482   0.700  0.6993  0.2788 -1.1096
29341SOL     OW89790   0.406   0.219   6.101 -0.1867 -0.0099 -0.5054
29341SOL    HW189791   0.350   0.152   6.139 -0.1713 -0.4032 -1.1560
29341SOL    HW289792   0.482   0.223   6.159 -1.3025  1.2199  0.9336
29342SOL     OW89793   6.772   9.768   7.562 -0.3646  0.1563  0.0713
29342SOL    HW189794   6.855   9.814   7.561 -0.9104  1.2144 -2.1589
29342SOL    HW289795   6.761   9.735   7.473 -0.4320 -3.6329  1.2758
29343SOL     OW89796   5.718   4.884   4.379 -0.3545  0.0285 -0.0274
29343SOL    HW189797   5.634   4.864   4.422 -0.5681 -3.2790 -1.6567
29343SOL    HW289798   5.695   4.900   4.288  0.6256  1.1829 -0.0916
29344SOL     OW89799   9.708   0.678   7.955 -0.2156  0.2971 -0.0173
29344SOL    HW189800   9.745   0.748   7.902 -1.0447  0.0867 -0.9086
29344SOL    HW289801   9.687   0.609   7.892 -0.4461 -0.3014  0.7011
29345SOL     OW89802   4.689   9.667   1.195 -0.0031 -0.0151 -0.1680
29345SOL    HW189803   4.614   9.697   1.246  0.9217 -1.5591  2.2435
29345SOL    HW289804   4.766   9.693   1.246  1.0991  0.3157 -1.9042
29346SOL     OW89805   7.905   8.097   3.460 -0.1630  0.0452  0.4021
29346SOL    HW189806   7.966   8.044   3.408 -1.4649 -3.0118  1.8026
29346SOL    HW289807   7.962   8.144   3.522  1.0628  0.8474 -1.2317
29347SOL     OW89808   2.837   5.880   1.261 -0.6119 -0.4012  0.0649
29347SOL    HW189809   2.813   5.788   1.252 -0.6597 -0.4504  0.6581
29347SOL    HW289810   2.915   5.879   1.316 -0.7945 -0.0621  0.3311
29348SOL     OW89811   6.278   8.618   9.021 -0.1046 -0.9681  0.3923
29348SOL    HW189812   6.325   8.553   8.969  0.2605 -0.3809 -0.0087
29348SOL    HW289813   6.240   8.567   9.093  1.2160 -1.4487  0.7863
29349SOL     OW89814   2.808   5.179   3.507  0.0178  0.2926 -1.1807
29349SOL    HW189815   2.768   5.214   3.428 -0.2230 -0.3737 -1.3569
29349SOL    HW289816   2.901   5.199   3.497 -0.0319  0.3349 -1.5709
29350SOL     OW89817   5.190   4.187   7.173 -0.1508 -0.3635 -0.3283
29350SOL    HW189818   5.153   4.110   7.129 -2.2353 -0.4450  1.4143
29350SOL    HW289819   5.164   4.261   7.118  0.1830 -0.7139 -0.9775
29351SOL     OW89820   3.457   1.624   4.063 -0.1366  0.0774 -0.2536
29351SOL    HW189821   3.377   1.589   4.023  0.5701 -3.8508  1.3194
29351SOL    HW289822   3.425   1.676   4.137 -1.2048  1.0806 -1.3484
29352SOL     OW89823   3.825   2.510   4.721  0.9802  0.2265  0.0377
29352SOL    HW189824   3.846   2.590   4.770 -1.0982  0.0354  1.3492
29352SOL    HW289825   3.837   2.439   4.784 -0.0629 -0.2003 -0.2251
29353SOL     OW89826   0.083   9.417   1.508 -0.3466  0.1527 -0.1726
29353SOL    HW189827   0.146   9.354   1.544 -0.3928  1.0425  1.5866
29353SOL    HW289828   0.057   9.379   1.424  0.0730 -1.8800  0.5383
29354SOL     OW89829   0.937   8.457   0.185  0.0949  0.6441  0.1497
29354SOL    HW189830   0.983   8.485   0.264  1.4450  3.0437 -1.3822
29354SOL    HW289831   1.004   8.457   0.117 -1.2662 -0.2254 -1.2671
29355SOL     OW89832   5.643   5.418   7.787  0.0185 -0.8475  0.2120
29355SOL    HW189833   5.550   5.438   7.783 -0.1792 -1.8444 -0.9472
29355SOL    HW289834   5.668   5.437   7.877 -1.3528 -0.7676  0.5979
29356SOL     OW89835   4.994   9.817   3.533 -0.1637  0.2531 -0.2949
29356SOL    HW189836   5.073   9.775   3.501  0.2320  0.9903 -0.2921
29356SOL    HW289837   4.943   9.745   3.572  0.5983 -0.1898 -0.0936
29357SOL     OW89838   5.019   6.640   8.213  0.1284 -0.3746 -0.0460
29357SOL    HW189839   5.009   6.562   8.267 -1.2044 -0.4827 -0.4115
29357SOL    HW289840   5.105   6.676   8.237  0.6452 -1.8005  0.3053
29358SOL     OW89841   4.317   6.497   4.677 -0.0647  0.3073  0.7462
29358SOL    HW189842   4.388   6.501   4.741  0.3972 -0.1018  0.2711
29358SOL    HW289843   4.254   6.436   4.715  0.7414 -0.8259  0.3042
29359SOL     OW89844   2.548   6.094   4.915 -0.4981 -0.0213  0.5066
29359SOL    HW189845   2.535   6.188   4.926  0.1398  0.2282 -0.6605
29359SOL    HW289846   2.573   6.084   4.823  1.9284 -1.0395  1.1950
29360SOL     OW89847   1.354   8.198   4.992  0.3411 -0.0538 -0.1474
29360SOL    HW189848   1.275   8.226   5.039  0.0371  0.8238 -1.1666
29360SOL    HW289849   1.356   8.103   5.005  0.2908  0.1396  1.6578
29361SOL     OW89850   0.756   4.968   0.900  0.5229 -0.6454  0.4381
29361SOL    HW189851   0.814   4.926   0.836  2.2738  1.0737  0.7761
29361SOL    HW289852   0.685   5.005   0.847  1.7382  0.4242 -0.5347
29362SOL     OW89853   3.385   8.490   6.664  0.3778  0.4865 -0.1761
29362SOL    HW189854   3.395   8.396   6.673 -0.4619  0.0029 -3.2244
29362SOL    HW289855   3.456   8.517   6.606 -1.0020  1.1992 -1.6088
29363SOL     OW89856   4.042   3.309   9.102  0.0516  0.3425 -0.4340
29363SOL    HW189857   4.058   3.401   9.083 -0.7056  0.6806  0.5119
29363SOL    HW289858   3.947   3.302   9.110 -0.1092 -0.9205 -2.4441
29364SOL     OW89859   5.315   8.012   3.322 -0.3403 -0.3375 -0.1463
29364SOL    HW189860   5.377   8.003   3.395 -1.8390 -0.7798  1.1213
29364SOL    HW289861   5.285   8.103   3.327  0.3177 -0.0728 -0.8696
29365SOL     OW89862   8.247   9.099   4.307 -0.4091 -0.1367  0.2405
29365SOL    HW189863   8.310   9.070   4.241  1.1595 -1.3110  2.1535
29365SOL    HW289864   8.211   9.180   4.271 -1.1754 -1.7364 -2.9781
29366SOL     OW89865   3.125   3.041   7.593  0.2457 -0.1956  0.6098
29366SOL    HW189866   3.055   3.083   7.544  0.9490 -0.2576 -0.4805
29366SOL    HW289867   3.205   3.059   7.542  0.7671 -1.6131  0.8765
29367SOL     OW89868   1.353   6.525   8.021  0.0669 -0.4199 -0.3274
29367SOL    HW189869   1.335   6.519   8.114  1.1528  0.6757 -0.0179
29367SOL    HW289870   1.330   6.615   7.998  1.4543 -0.1397 -0.7107
29368SOL     OW89871   5.889   8.914   8.347 -0.5156  0.1218 -0.0368
29368SOL    HW189872   5.969   8.966   8.349 -1.2326  1.4152  3.8555
29368SOL    HW289873   5.829   8.964   8.292  0.1477  1.1511  0.1638
29369SOL     OW89874   1.118   2.692   4.848  0.0924  0.3442  0.0929
29369SOL    HW189875   1.035   2.661   4.884 -0.1129 -0.0343 -0.6687
29369SOL    HW289876   1.185   2.637   4.888 -0.1378 -0.1175 -0.1545
29370SOL     OW89877   2.561   9.000   1.942 -0.0258  0.5394 -0.1855
29370SOL    HW189878   2.493   8.992   2.009  0.3486 -0.0499  0.1323
29370SOL    HW289879   2.523   8.957   1.865 -0.5280  1.3797 -0.4182
29371SOL     OW89880   3.502   2.049   6.683  0.0514 -0.3770  0.1139
29371SOL    HW189881   3.432   2.100   6.642  1.7039  0.8622 -1.3549
29371SOL    HW289882   3.508   1.970   6.630 -1.4489 -1.4307  1.4205
29372SOL     OW89883   1.422   5.083   7.902 -0.5770 -0.6887 -0.2329
29372SOL    HW189884   1.516   5.098   7.902 -0.3729 -1.2959  2.9909
29372SOL    HW289885   1.411   4.993   7.872  0.0785 -1.2648  1.1909
29373SOL     OW89886   1.958   7.689   7.607  0.2227 -0.4526 -0.5852
29373SOL    HW189887   2.044   7.730   7.607  0.3976 -0.1730  4.6131
29373SOL    HW289888   1.896   7.763   7.607  0.2434 -0.4149  1.0362
29374SOL     OW89889   5.639   9.633   6.117 -0.0685  0.0308  0.5872
29374SOL    HW189890   5.667   9.707   6.171 -0.7069 -0.1064  1.1195
29374SOL    HW289891   5.606   9.672   6.037 -0.3542  0.3188  0.8449
29375SOL     OW89892   0.238   1.069   1.513 -0.0482 -1.0107  0.8939
29375SOL    HW189893   0.310   1.093   1.572 -0.6719  1.0542  0.9086
29375SOL    HW289894   0.238   1.137   1.446 -0.7010 -2.1346 -0.2945
29376SOL     OW89895   5.944   1.377   5.167  0.2491 -0.1955  0.4031
29376SOL    HW189896   5.899   1.443   5.220  3.1189  0.8220  1.8344
29376SOL    HW289897   5.955   1.418   5.081 -1.4212 -0.4635  0.0284
29377SOL     OW89898   8.746   0.298   7.095  0.0853  0.1917  0.2000
29377SOL    HW189899   8.808   0.343   7.153  1.7882 -1.0920 -0.5106
29377SOL    HW289900   8.775   0.322   7.007 -1.5941  0.9987 -0.1589
29378SOL     OW89901   4.780   8.607   4.503  0.2533 -0.3661 -0.1792
29378SOL    HW189902   4.818   8.685   4.543  0.0261 -0.9631  1.2676
29378SOL    HW289903   4.855   8.552   4.481  0.4469  0.4234 -1.6564
29379SOL     OW89904   1.295   9.339   7.693 -0.4789  0.0342  0.3654
29379SOL    HW189905   1.211   9.366   7.655 -0.9147 -1.0089  0.5506
29379SOL    HW289906   1.290   9.244   7.697 -0.0979  0.0546  2.2329
29380SOL     OW89907   8.393   2.517   5.700  0.0460  0.8381 -0.2131
29380SOL    HW189908   8.440   2.434   5.697 -0.7477  0.3060  1.0810
29380SOL    HW289909   8.453   2.577   5.745  0.0100  0.5284  0.2540
29381SOL     OW89910   1.100   0.720   9.459  0.0264 -0.1180  0.2965
29381SOL    HW189911   1.052   0.671   9.392  0.7127 -0.0693 -0.2449
29381SOL    HW289912   1.188   0.682   9.457 -0.2672 -1.0000  2.0776
29382SOL     OW89913   0.948   1.793   4.196 -0.3084  0.0330  0.4012
29382SOL    HW189914   0.892   1.770   4.271  0.6151  2.2108  1.8365
29382SOL    HW289915   1.026   1.738   4.206 -0.6528 -0.4726  0.3761
29383SOL     OW89916   9.544   6.368   7.653 -0.0943 -0.0126 -0.1640
29383SOL    HW189917   9.560   6.440   7.714  1.5659 -1.3097  1.0239
29383SOL    HW289918   9.604   6.385   7.581  0.7087 -0.4952  0.3839
29384SOL     OW89919   8.969   1.712   8.797 -1.0389 -0.2119  0.0943
29384SOL    HW189920   8.936   1.652   8.864 -1.0667 -0.7107 -0.3688
29384SOL    HW289921   8.935   1.798   8.825  2.3441  0.3842  3.0541
29385SOL     OW89922   2.348   2.464   0.591 -0.2635  0.2341  0.3395
29385SOL    HW189923   2.408   2.424   0.529 -0.1226 -3.0707  2.3794
29385SOL    HW289924   2.267   2.415   0.582 -0.4112  0.0196  2.3181
29386SOL     OW89925   2.895   9.821   9.569 -0.0362  0.2495  0.3315
29386SOL    HW189926   2.976   9.776   9.544 -1.2192 -1.1468 -1.2633
29386SOL    HW289927   2.893   9.899   9.514 -0.4322 -0.4707 -0.7189
29387SOL     OW89928   7.953   9.116   7.157 -0.4212 -0.7576  1.0836
29387SOL    HW189929   7.959   9.026   7.188 -1.5775 -0.7521  1.4065
29387SOL    HW289930   8.015   9.164   7.212  1.3474 -1.5637 -0.1118
29388SOL     OW89931   0.761   3.759   5.209 -0.4121 -0.0052  0.0854
29388SOL    HW189932   0.756   3.706   5.289  0.5534  0.2425  0.3251
29388SOL    HW289933   0.759   3.849   5.240 -4.1006  0.2560 -0.4204
29389SOL     OW89934   3.322   5.603   4.975 -0.1983 -0.0208 -0.3712
29389SOL    HW189935   3.400   5.548   4.988 -2.0088 -2.4001  1.6932
29389SOL    HW289936   3.308   5.603   4.881  1.0272 -1.4992 -0.6012
29390SOL     OW89937   4.910   5.028   2.161 -0.0416 -0.5702 -0.1122
29390SOL    HW189938   4.952   5.114   2.157 -0.0813 -0.5882 -1.2011
29390SOL    HW289939   4.983   4.967   2.175  0.0200 -0.4038  0.3379
29391SOL     OW89940   2.936   7.967   0.685 -0.1967 -0.2570 -0.3646
29391SOL    HW189941   2.847   7.934   0.694 -0.0922 -0.5592 -0.4151
29391SOL    HW289942   2.984   7.896   0.641 -0.3295  0.5690 -1.9341
29392SOL     OW89943   0.200   5.455   0.536 -0.2316  0.5779  0.0527
29392SOL    HW189944   0.189   5.400   0.458  0.3483 -0.0784  0.4259
29392SOL    HW289945   0.294   5.477   0.536 -0.0894 -0.0098  0.9463
29393SOL     OW89946   7.245   8.560   9.247 -0.0001  0.6280  0.6269
29393SOL    HW189947   7.250   8.548   9.152 -0.8492  0.3527  0.6118
29393SOL    HW289948   7.250   8.472   9.283 -0.0816  0.7019  0.8203
29394SOL     OW89949   3.331   2.423   3.957  0.4005 -0.8582 -0.0687
29394SOL    HW189950   3.236   2.420   3.970  0.6232 -0.4237  1.8781
29394SOL    HW289951   3.346   2.362   3.885 -1.4787  0.0633 -1.3419
29395SOL     OW89952   5.737   6.611   6.661 -0.3865  0.2047 -0.6185
29395SOL    HW189953   5.642   6.625   6.664 -0.2657  0.9160  0.6082
29395SOL    HW289954   5.775   6.699   6.670  0.3859 -0.1209 -0.6226
29396SOL     OW89955   0.322   8.548   0.690 -0.4773  0.0894 -0.3393
29396SOL    HW189956   0.241   8.564   0.641 -0.2296  0.1783 -0.7287
29396SOL    HW289957   0.293   8.529   0.779 -0.9513 -0.2630 -0.5616
29397SOL     OW89958   3.030   0.958   5.342  0.1588  1.3115  0.6736
29397SOL    HW189959   2.974   1.032   5.366 -0.9995  0.8182 -0.3465
29397SOL    HW289960   3.100   0.996   5.289 -1.0948  1.5715 -0.8688
29398SOL     OW89961   1.073   9.811   9.162  0.1854 -0.3735 -0.0620
29398SOL    HW189962   1.152   9.824   9.214  0.5952  0.0184 -0.7639
29398SOL    HW289963   1.026   9.894   9.168  0.4788 -0.1549 -0.7127
29399SOL     OW89964   9.112   1.108   8.985  0.4819  0.4531  0.7289
29399SOL    HW189965   9.031   1.139   8.945  0.7384 -1.5545 -1.5970
29399SOL    HW289966   9.083   1.057   9.061 -0.4963 -0.3475 -0.1447
29400SOL     OW89967   6.118   2.012   5.150 -0.3279 -0.1283 -0.1248
29400SOL    HW189968   6.066   1.931   5.145 -0.8339  0.0962  1.1150
29400SOL    HW289969   6.055   2.082   5.133  0.0468  0.0315 -0.8816
29401SOL     OW89970   4.300   5.165   2.369 -0.0841 -0.1201 -0.7085
29401SOL    HW189971   4.299   5.261   2.365 -0.8148 -0.0962 -0.1081
29401SOL    HW289972   4.237   5.143   2.437  1.6980 -0.9343  0.7833
29402SOL     OW89973   8.662   4.390   0.746 -0.3388  0.7620 -0.5760
29402SOL    HW189974   8.709   4.464   0.783  0.3913  0.0693 -0.0715
29402SOL    HW289975   8.608   4.357   0.819 -0.3708  0.5710 -0.6845
29403SOL     OW89976   0.924   1.730   5.513  0.0180  0.7813 -0.4024
29403SOL    HW189977   0.934   1.638   5.491  3.3035  1.1827 -1.1698
29403SOL    HW289978   0.903   1.731   5.607 -1.1717 -0.7071 -0.6206
29404SOL     OW89979   6.049   3.363   7.700 -0.1750 -0.0051 -0.1084
29404SOL    HW189980   6.105   3.437   7.679  0.0297 -0.0697  0.2135
29404SOL    HW289981   5.961   3.400   7.706 -0.4445 -0.1531 -2.2077
29405SOL     OW89982   4.442   3.257   4.104 -0.4054 -0.0993 -0.1446
29405SOL    HW189983   4.422   3.220   4.018  0.0687  0.9476 -0.7159
29405SOL    HW289984   4.526   3.301   4.092  0.3247 -1.0602  1.2012
29406SOL     OW89985   9.829   5.955   2.272 -0.3030  0.6383  0.2643
29406SOL    HW189986   9.838   5.925   2.363 -0.0033  1.4736  0.5179
29406SOL    HW289987   9.748   5.914   2.241 -0.4553  0.4196  0.9333
29407SOL     OW89988   2.696   0.914   2.819  0.4077 -0.1859  0.3553
29407SOL    HW189989   2.747   0.884   2.743  1.3830  0.7911  0.5918
29407SOL    HW289990   2.615   0.949   2.781  0.5814 -0.3423 -0.1740
29408SOL     OW89991   0.922   0.699   0.426 -0.3732  0.1409  0.0486
29408SOL    HW189992   0.838   0.681   0.383 -0.7449  0.7638  0.4916
29408SOL    HW289993   0.952   0.781   0.387 -0.1228  0.0781  0.1081
29409SOL     OW89994   8.142   5.502   1.366 -0.3199 -0.5058  0.3571
29409SOL    HW189995   8.104   5.589   1.353 -1.8456 -1.4638 -2.1998
29409SOL    HW289996   8.181   5.506   1.453 -2.0109  2.1167  1.0971
29410SOL     OW89997   1.979   0.389   6.011 -0.8760 -0.2685  0.1769
29410SOL    HW189998   1.936   0.310   6.043 -0.2084 -0.6838  0.0803
29410SOL    HW289999   1.964   0.389   5.917  0.4690 -1.1597 -0.0719
29411SOL     OW90000   0.608   6.825   5.096 -0.1197  0.2523  0.2700
29411SOL    HW190001   0.676   6.893   5.095 -0.3797  0.5099 -0.9741
29411SOL    HW290002   0.530   6.869   5.127 -0.0142  0.2287  0.5810
29412SOL     OW90003   6.845   9.234   0.707 -0.1221  0.0249 -0.1303
29412SOL    HW190004   6.864   9.163   0.767  0.5353 -0.3633 -0.7812
29412SOL    HW290005   6.903   9.306   0.735 -1.4445  0.6531  1.1060
29413SOL     OW90006   9.720   5.830   3.019  0.1145  0.5851 -0.0846
29413SOL    HW190007   9.644   5.789   2.977 -0.3192  1.9978 -0.7184
29413SOL    HW290008   9.777   5.756   3.041 -0.6745 -0.3724 -1.1121
29414SOL     OW90009   7.158   0.729   4.408  0.1518  0.6883 -0.0418
29414SOL    HW190010   7.109   0.808   4.431  1.4479  1.5783 -0.1781
29414SOL    HW290011   7.099   0.681   4.350 -1.3111  0.7137  1.3496
29415SOL     OW90012   7.246   7.162   7.367 -0.1844  0.0584  0.0152
29415SOL    HW190013   7.321   7.211   7.335 -1.4465  1.7234 -0.5578
29415SOL    HW290014   7.225   7.101   7.296 -0.3332  0.6934 -0.4904
29416SOL     OW90015   5.776   2.879   0.251 -0.1576 -0.6499 -0.4132
29416SOL    HW190016   5.751   2.793   0.285 -0.9166 -0.9550 -1.6657
29416SOL    HW290017   5.790   2.932   0.329  1.6388 -2.2412  0.4281
29417SOL     OW90018   7.154   9.215   7.188  0.4082 -0.5468 -0.4515
29417SOL    HW190019   7.122   9.128   7.161  1.1385 -1.5059  1.5560
29417SOL    HW290020   7.114   9.228   7.274  1.7543  0.2969  0.0573
29418SOL     OW90021   9.728   8.530   3.940  0.1429  0.2479 -0.3862
29418SOL    HW190022   9.713   8.576   3.858 -1.4861  1.0425  0.3284
29418SOL    HW290023   9.676   8.577   4.005  2.3369  0.3923  1.3933
29419SOL     OW90024   7.716   8.625   5.891 -0.0712 -0.6162 -0.0520
29419SOL    HW190025   7.737   8.533   5.878 -0.4814 -0.6841 -0.2565
29419SOL    HW290026   7.795   8.672   5.865  1.0036 -1.0069  2.3094
29420SOL     OW90027   7.343   9.213   9.074 -0.6476  0.2653  0.2099
29420SOL    HW190028   7.387   9.296   9.052  1.6303 -0.8968  0.0409
29420SOL    HW290029   7.311   9.226   9.163  0.7150  0.9865  0.6367
29421SOL     OW90030   0.086   8.280   1.094  0.0704 -0.1698 -0.4281
29421SOL    HW190031   0.135   8.235   1.163 -1.4572  1.0569  1.5590
29421SOL    HW290032   0.092   8.221   1.019  1.5208 -1.7325  0.8181
29422SOL     OW90033   4.537   4.615   0.251  0.1966 -0.0219 -0.0310
29422SOL    HW190034   4.451   4.653   0.268 -0.7060 -1.1946 -1.7352
29422SOL    HW290035   4.572   4.595   0.338 -0.8755  1.2214  0.7185
29423SOL     OW90036   5.946   4.334   5.608 -0.0893 -0.2478  0.0857
29423SOL    HW190037   5.982   4.270   5.669 -1.3738 -0.7617  0.3205
29423SOL    HW290038   5.938   4.414   5.659  0.3866 -0.2204  0.1236
29424SOL     OW90039   0.134   8.068   8.640  0.0956 -0.1024  0.2295
29424SOL    HW190040   0.137   8.030   8.728  2.9534 -2.3318 -0.6697
29424SOL    HW290041   0.123   7.993   8.582 -1.8636  1.3377 -1.3843
29425SOL     OW90042   4.200   0.389   7.771 -0.1069  0.5135 -0.2267
29425SOL    HW190043   4.153   0.457   7.724  1.0195  0.1970 -1.9202
29425SOL    HW290044   4.138   0.315   7.774 -0.8002  1.1055  0.3182
29426SOL     OW90045   7.381   3.099   4.147  0.5644  0.3382 -0.5061
29426SOL    HW190046   7.392   3.093   4.242 -0.2510 -1.5627 -0.4684
29426SOL    HW290047   7.295   3.060   4.131  1.0038 -0.0609 -2.0925
29427SOL     OW90048   5.077   4.445   4.732 -0.1221  0.0093  0.2651
29427SOL    HW190049   5.125   4.399   4.801 -0.9290 -0.6515  0.4100
29427SOL    HW290050   5.136   4.514   4.703  0.1933  0.3816  1.7064
29428SOL     OW90051   0.645   9.814   7.555 -0.8266  0.5495 -0.5990
29428SOL    HW190052   0.627   9.826   7.461  0.9487  0.7236 -0.9444
29428SOL    HW290053   0.740   9.802   7.560 -1.0212 -0.6404  1.0692
29429SOL     OW90054   3.262   7.710   0.943  0.1499 -0.0048 -0.0886
29429SOL    HW190055   3.345   7.733   0.901  1.8556 -0.2865  2.8143
29429SOL    HW290056   3.217   7.793   0.956  0.1998  0.2084 -1.2136
29430SOL     OW90057   8.785   6.618   3.367 -0.2397  0.6705 -0.0160
29430SOL    HW190058   8.832   6.541   3.335  0.5415  0.8368  0.6789
29430SOL    HW290059   8.720   6.637   3.299 -0.8079 -0.9019  0.0438
29431SOL     OW90060   8.633   0.272   8.891 -0.1343 -0.1008  0.4960
29431SOL    HW190061   8.696   0.331   8.849 -2.2426  1.9125 -0.0711
29431SOL    HW290062   8.581   0.237   8.819 -2.2321  1.4924  1.1478
29432SOL     OW90063   1.754   0.206   7.974 -0.0828  0.0649  0.2494
29432SOL    HW190064   1.821   0.146   7.942 -0.4627 -0.3179  0.1518
29432SOL    HW290065   1.680   0.193   7.914 -0.5787 -0.2065  0.9053
29433SOL     OW90066   1.557   9.110   8.635  1.0472 -0.0410  0.3334
29433SOL    HW190067   1.595   9.188   8.595  0.5437 -0.3429 -0.7833
29433SOL    HW290068   1.630   9.071   8.684  1.0556  1.5965  1.6845
29434SOL     OW90069   6.567   0.849   0.157  0.0451 -0.0995 -0.4426
29434SOL    HW190070   6.527   0.778   0.207  0.4741 -0.3046 -0.3846
29434SOL    HW290071   6.560   0.926   0.214 -2.9097  0.6123 -1.5627
29435SOL     OW90072   6.668   0.942   5.024  0.5168 -0.0502  0.5678
29435SOL    HW190073   6.656   0.882   5.097 -0.6632  0.6054  0.9414
29435SOL    HW290074   6.605   0.913   4.958  0.2631  0.4864  0.5674
29436SOL     OW90075   1.753   8.922   8.287  0.4001  0.3053 -0.6099
29436SOL    HW190076   1.675   8.976   8.296  0.7620  0.6601  0.5479
29436SOL    HW290077   1.826   8.979   8.312  0.8575 -0.4876 -0.0738
29437SOL     OW90078   0.300   6.487   0.748  0.7884  0.6217  0.2772
29437SOL    HW190079   0.294   6.581   0.730  1.6176  0.5133 -0.6292
29437SOL    HW290080   0.276   6.446   0.665 -3.2188 -0.1037  1.5549
29438SOL     OW90081   7.807   0.006   4.272 -0.3110 -0.0839 -0.2610
29438SOL    HW190082   7.804   0.094   4.233 -1.1225 -0.2265 -0.5421
29438SOL    HW290083   7.855  -0.047   4.210 -1.1933 -0.2000 -0.8672
29439SOL     OW90084   6.392   4.295   6.896 -0.5820  0.0264 -0.4940
29439SOL    HW190085   6.336   4.308   6.972 -1.3977 -1.8544 -0.7165
29439SOL    HW290086   6.418   4.203   6.900  2.2820  0.7352 -0.5902
29440SOL     OW90087   2.060   6.668   2.670 -0.0657 -0.0208 -0.1201
29440SOL    HW190088   2.122   6.686   2.599 -0.1388 -0.0980 -0.2041
29440SOL    HW290089   2.110   6.615   2.732  0.4219  1.1815  0.5527
29441SOL     OW90090   8.922   5.931   0.352 -0.1361  0.1471  0.3096
29441SOL    HW190091   8.923   5.978   0.435  0.5063  0.0771  0.3462
29441SOL    HW290092   8.902   5.998   0.287  1.0157  0.5293  0.3315
29442SOL     OW90093   5.911   0.165   9.622 -0.2097  0.0334 -0.0188
29442SOL    HW190094   5.984   0.185   9.564  0.7750 -0.3050  1.0744
29442SOL    HW290095   5.903   0.243   9.678  0.2102 -0.4764  0.7609
29443SOL     OW90096   4.950   8.825   8.673  0.5282  0.3093 -0.0093
29443SOL    HW190097   4.941   8.870   8.758  1.4409 -1.5353  1.1196
29443SOL    HW290098   4.864   8.785   8.659  0.9674 -1.1350  1.1419
29444SOL     OW90099   0.580   6.118   3.229 -0.7547  0.1605  0.3590
29444SOL    HW190100   0.666   6.113   3.271 -1.4333  1.0708  1.9637
29444SOL    HW290101   0.600   6.128   3.136  0.8766  0.0627  0.6620
29445SOL     OW90102   0.357   6.059   3.413 -0.5199 -0.1178 -0.3869
29445SOL    HW190103   0.366   6.085   3.322  0.9932 -0.9426 -0.5087
29445SOL    HW290104   0.447   6.058   3.446 -1.0303  0.0625  1.0903
29446SOL     OW90105   6.889   0.828   2.378  0.0807  0.2383  0.0037
29446SOL    HW190106   6.890   0.788   2.291 -1.0169 -0.2252  0.1935
29446SOL    HW290107   6.923   0.761   2.437 -0.7903 -0.0719  0.1702
29447SOL     OW90108   0.470   4.411   6.691 -0.1917 -0.1195 -0.7070
29447SOL    HW190109   0.524   4.462   6.751 -1.8932 -0.5470  1.3142
29447SOL    HW290110   0.403   4.472   6.661 -0.1912 -0.2857 -1.0577
29448SOL     OW90111   1.716   8.401   6.203  0.5275 -0.6574  0.8370
29448SOL    HW190112   1.700   8.374   6.293 -1.7063 -2.0364  0.1152
29448SOL    HW290113   1.784   8.342   6.171  0.3828 -1.0517  1.2503
29449SOL     OW90114   8.122   7.657   4.328 -0.0207  0.1240 -0.0467
29449SOL    HW190115   8.157   7.705   4.403 -1.0040 -0.3911  0.7712
29449SOL    HW290116   8.074   7.723   4.278  1.3889  0.6657 -0.7514
29450SOL     OW90117   7.441   1.389   2.611  0.2142  0.5634  0.1777
29450SOL    HW190118   7.514   1.346   2.567 -0.3833 -0.2134 -0.0716
29450SOL    HW290119   7.388   1.426   2.541 -1.8760 -2.4483 -0.0443
29451SOL     OW90120   3.075   6.328   0.310 -0.1363  0.5870 -0.0365
29451SOL    HW190121   3.028   6.321   0.227 -1.0754 -0.8373  0.5747
29451SOL    HW290122   3.097   6.238   0.333 -0.0592  0.9374  1.3608
29452SOL     OW90123   4.883   4.511   7.210 -0.2399  0.4530 -0.4154
29452SOL    HW190124   4.971   4.516   7.247 -0.3281  1.3879 -0.2998
29452SOL    HW290125   4.825   4.523   7.285 -0.4822 -0.7535 -0.4024
29453SOL     OW90126   1.358   6.100   9.841  0.7737 -0.0196  0.2392
29453SOL    HW190127   1.379   6.188   9.808  1.3472  0.5437  2.0042
29453SOL    HW290128   1.401   6.095   9.926  1.8839 -2.5240 -0.3642
29454SOL     OW90129   6.076   1.846   0.333 -0.3156 -0.5930  0.5610
29454SOL    HW190130   6.103   1.931   0.298  0.2804 -0.8987  0.2644
29454SOL    HW290131   6.137   1.784   0.294 -0.8986 -1.1897  0.5878
29455SOL     OW90132   5.864   0.777   9.328 -0.2247  0.0287 -0.6292
29455SOL    HW190133   5.848   0.715   9.256 -3.2423  0.5131 -0.4915
29455SOL    HW290134   5.913   0.849   9.287 -2.4301  0.6023 -2.4515
29456SOL     OW90135   4.420   4.220   3.074  0.2211  0.0037 -0.4214
29456SOL    HW190136   4.348   4.275   3.105 -0.9134 -0.0159 -2.8302
29456SOL    HW290137   4.383   4.131   3.074  0.2945 -0.0391 -1.4406
29457SOL     OW90138   6.046   8.298   3.018  1.0191 -0.2609  0.3064
29457SOL    HW190139   6.008   8.210   3.019  0.4772 -0.0462 -0.4029
29457SOL    HW290140   6.140   8.284   3.028  0.8508 -0.8602  1.1646
29458SOL     OW90141   4.951   5.315   5.507  0.5917  0.0321  0.1397
29458SOL    HW190142   4.922   5.254   5.574  0.2198 -0.0221 -0.0667
29458SOL    HW290143   4.880   5.314   5.441  0.0086  1.5596  0.6961
29459SOL     OW90144   1.845   8.168   1.893 -0.1573  0.1009 -0.4325
29459SOL    HW190145   1.806   8.085   1.867 -0.3886  0.4848 -1.3332
29459SOL    HW290146   1.922   8.178   1.838  1.9345 -1.1510  2.0410
29460SOL     OW90147   0.142   6.457   2.130 -0.1261  0.0492 -0.4053
29460SOL    HW190148   0.160   6.383   2.072 -0.3483  0.5506 -1.1207
29460SOL    HW290149   0.066   6.500   2.091  0.1906  0.8348 -0.1701
29461SOL     OW90150   7.961   6.143   1.093 -0.5826 -0.1204 -1.1812
29461SOL    HW190151   8.027   6.184   1.036  0.5713  0.3887  0.4500
29461SOL    HW290152   7.878   6.179   1.063  0.0206  0.3958 -2.3124
29462SOL     OW90153   5.847   8.311   0.396  0.5942  0.0494  0.8248
29462SOL    HW190154   5.769   8.367   0.394 -0.9252 -1.9701 -0.8773
29462SOL    HW290155   5.911   8.358   0.343 -0.9056 -0.0848 -1.2195
29463SOL     OW90156   9.640   5.809   8.874 -0.0014 -0.4559 -0.6930
29463SOL    HW190157   9.703   5.739   8.893 -0.5982 -0.9222 -0.4074
29463SOL    HW290158   9.560   5.781   8.917  0.0365  0.9109  0.3605
29464SOL     OW90159   6.331   0.396   4.122  0.3272 -0.3828 -0.1527
29464SOL    HW190160   6.285   0.481   4.124  0.2723 -0.4234  0.5536
29464SOL    HW290161   6.405   0.410   4.063  0.7071  0.3648  0.4826
29465SOL     OW90162   4.043   2.526   8.109  0.2813  0.1891 -0.0796
29465SOL    HW190163   4.068   2.529   8.017  1.0552  0.2302  0.1260
29465SOL    HW290164   3.992   2.606   8.123  0.4685  0.3622 -0.3855
29466SOL     OW90165   3.033   9.188   5.365  0.5760 -0.2152  0.1930
29466SOL    HW190166   2.997   9.105   5.334  1.4709 -1.1211  1.4863
29466SOL    HW290167   2.956   9.241   5.387 -0.0760  0.1948 -2.6953
29467SOL     OW90168   3.137   4.201   1.840 -0.2408  0.2670 -0.6203
29467SOL    HW190169   3.065   4.148   1.807 -0.5990  0.7116 -0.5602
29467SOL    HW290170   3.186   4.227   1.762 -0.4459  0.3980 -0.7044
29468SOL     OW90171   1.521   6.636   9.124 -0.7217  0.6232  0.5673
29468SOL    HW190172   1.586   6.685   9.173  1.2206 -1.9594  0.8087
29468SOL    HW290173   1.566   6.611   9.043 -1.9310  0.0608  0.0412
29469SOL     OW90174   6.929   9.079   0.880  0.1505  0.4383 -0.1278
29469SOL    HW190175   6.924   9.085   0.975 -0.8288 -1.2848 -0.0287
29469SOL    HW290176   7.022   9.082   0.860  0.4182 -0.1317  0.9661
29470SOL     OW90177   2.232   0.472   4.223 -0.2837  0.5201  0.8317
29470SOL    HW190178   2.153   0.419   4.235  0.5818 -0.9829  0.1263
29470SOL    HW290179   2.199   0.561   4.214 -1.8868 -0.0431  0.7349
29471SOL     OW90180   0.232   4.756   7.888  0.3781 -0.8431  0.5378
29471SOL    HW190181   0.183   4.676   7.907  1.7913 -1.5021  1.5054
29471SOL    HW290182   0.229   4.763   7.792 -0.4083 -1.6159  0.4902
29472SOL     OW90183   5.473   4.403   7.109 -0.0191 -0.1788  0.1324
29472SOL    HW190184   5.409   4.401   7.038 -0.2549 -0.8195  0.3523
29472SOL    HW290185   5.558   4.407   7.066 -0.0931 -1.8596 -0.2373
29473SOL     OW90186   3.488   5.846   4.675 -0.3097 -0.3832 -0.5238
29473SOL    HW190187   3.465   5.931   4.712  0.3356 -0.0802 -0.8089
29473SOL    HW290188   3.415   5.789   4.699  0.3515 -0.3728  1.8263
29474SOL     OW90189   9.358   8.862   9.346  0.0585  0.2430 -0.0022
29474SOL    HW190190   9.342   8.921   9.420 -0.5907 -0.5110  0.4853
29474SOL    HW290191   9.413   8.792   9.383  0.6758  0.4471 -0.5249
29475SOL     OW90192   9.746   1.659   2.511  0.0154 -0.0463  0.2987
29475SOL    HW190193   9.813   1.688   2.573  1.4527  0.4541 -1.3852
29475SOL    HW290194   9.781   1.577   2.475  1.1206  1.5156 -2.4966
29476SOL     OW90195   8.958   9.126   7.579  0.0034  0.1075  0.0696
29476SOL    HW190196   8.930   9.168   7.498  0.2362 -1.8321 -1.0887
29476SOL    HW290197   8.918   9.178   7.649  0.0338  1.9989 -1.2541
29477SOL     OW90198   0.890   1.217   7.862 -0.3368 -0.4917 -0.3513
29477SOL    HW190199   0.912   1.307   7.885 -2.2636 -0.2087  0.5596
29477SOL    HW290200   0.924   1.164   7.934 -0.2181 -0.3695 -0.3178
29478SOL     OW90201   6.979   6.162   2.579 -0.3096  0.0727  0.0251
29478SOL    HW190202   7.024   6.103   2.639  0.7607 -0.3540 -1.1385
29478SOL    HW290203   6.918   6.106   2.531 -1.9127  0.5888  1.3557
29479SOL     OW90204   0.495   5.785   2.447 -0.1282  0.0832  0.5623
29479SOL    HW190205   0.517   5.692   2.458 -2.5902 -0.5067  1.0722
29479SOL    HW290206   0.417   5.784   2.390  0.7196  1.9618 -0.7292
29480SOL     OW90207   7.040   4.267   0.321  0.6481 -0.2045 -0.2003
29480SOL    HW190208   7.047   4.177   0.289  0.1279 -0.9242  1.5489
29480SOL    HW290209   6.945   4.282   0.329  0.7017  0.8280 -1.2971
29481SOL     OW90210   8.694   6.078   1.107  0.0350 -0.2448  0.4024
29481SOL    HW190211   8.610   6.123   1.098  0.1456 -0.3093 -1.2084
29481SOL    HW290212   8.699   6.055   1.200 -0.1623  2.7981  1.2858
29482SOL     OW90213   6.098   1.816   0.817  0.1903  0.3099  0.6733
29482SOL    HW190214   6.128   1.892   0.767  0.9725  0.0296  0.7067
29482SOL    HW290215   6.120   1.741   0.762  0.1489  0.0623  0.9935
29483SOL     OW90216   0.080   9.219   8.654  0.0275 -0.3796 -0.1239
29483SOL    HW190217   0.132   9.298   8.667 -0.5962  0.2620 -1.3114
29483SOL    HW290218   0.121   9.175   8.580 -0.1296 -0.7222 -0.0099
29484SOL     OW90219   5.666   0.002   3.517 -0.3290  0.0644 -0.1714
29484SOL    HW190220   5.710  -0.013   3.601  0.4959  2.2568 -0.1487
29484SOL    HW290221   5.575  -0.024   3.533  0.4131 -2.4020  0.4517
29485SOL     OW90222   7.123   0.633   8.489 -0.4760 -0.6923 -0.6347
29485SOL    HW190223   7.173   0.560   8.453 -1.2117 -1.7705  0.4423
29485SOL    HW290224   7.037   0.596   8.507 -1.8185  1.1527 -2.6431
29486SOL     OW90225   6.254   3.795   8.908 -0.6530  0.2432 -0.3778
29486SOL    HW190226   6.238   3.861   8.976 -0.9421 -0.4781  0.2608
29486SOL    HW290227   6.309   3.729   8.950 -0.6428 -0.1001 -0.9164
29487SOL     OW90228   5.912   5.049   5.877  0.3429  0.7683  1.0284
29487SOL    HW190229   5.946   4.959   5.877  0.1664  0.6993  1.3546
29487SOL    HW290230   5.890   5.066   5.968  0.8402  1.3242  1.0524
29488SOL     OW90231   3.981   5.274   4.173 -0.2759 -0.2537 -0.2407
29488SOL    HW190232   4.018   5.358   4.200  0.3996 -1.1230  1.6819
29488SOL    HW290233   3.922   5.250   4.244  0.9404 -2.2554  0.1546
29489SOL     OW90234   6.782   3.889   9.343 -0.2747 -0.3843 -0.4745
29489SOL    HW190235   6.800   3.796   9.352  0.1544 -0.4301 -1.5847
29489SOL    HW290236   6.822   3.913   9.259 -0.6449  0.7295 -0.3515
29490SOL     OW90237   0.495   7.519   1.573 -0.4584 -0.0254  0.2988
29490SOL    HW190238   0.519   7.431   1.601 -0.8782 -0.6788 -1.3006
29490SOL    HW290239   0.466   7.562   1.654 -0.7553 -1.5062  1.0234
29491SOL     OW90240   9.423   6.986   6.078  0.2039 -0.7732  0.7149
29491SOL    HW190241   9.475   7.065   6.062 -0.3974 -0.8275 -1.8667
29491SOL    HW290242   9.333   7.011   6.055 -0.2608 -1.7815  1.3476
29492SOL     OW90243   2.483   6.925   0.252  0.2880 -0.3947 -0.3306
29492SOL    HW190244   2.444   7.012   0.241 -0.8537 -0.8057  0.2910
29492SOL    HW290245   2.417   6.865   0.218  0.2405 -1.1301  0.9951
29493SOL     OW90246   3.894   4.394   9.411  0.2384  0.2638 -0.4236
29493SOL    HW190247   3.894   4.367   9.320  1.7538  0.5151 -0.5172
29493SOL    HW290248   3.812   4.443   9.422  1.3469  2.7905 -2.4522
29494SOL     OW90249   5.635   6.761   9.505 -0.5314  0.1677 -0.2458
29494SOL    HW190250   5.608   6.798   9.421  0.3959 -2.4616 -1.8292
29494SOL    HW290251   5.559   6.771   9.562 -1.8664  0.3126 -1.9961
29495SOL     OW90252   5.377   7.919   9.294 -0.1740 -0.4135 -0.0240
29495SOL    HW190253   5.438   7.879   9.357  1.9761 -0.4727 -1.9815
29495SOL    HW290254   5.306   7.855   9.286  1.0300 -1.8216  0.1130
29496SOL     OW90255   2.079   9.594   8.745 -0.3415  0.2496  0.0889
29496SOL    HW190256   2.033   9.519   8.707  0.5814 -0.4852  0.3807
29496SOL    HW290257   2.015   9.636   8.802 -1.0124 -0.0324 -0.4446
29497SOL     OW90258   5.165   7.149   1.920  0.6717 -0.3307  0.1773
29497SOL    HW190259   5.093   7.092   1.948 -0.8981  0.5544 -1.7553
29497SOL    HW290260   5.241   7.117   1.968 -0.7952 -1.9629  1.5687
29498SOL     OW90261   8.238   4.306   3.544  0.2318  0.0392 -0.4812
29498SOL    HW190262   8.285   4.292   3.627  0.4920  0.6924 -0.5127
29498SOL    HW290263   8.240   4.220   3.501  0.1673 -0.2853  0.1478
29499SOL     OW90264   8.555   3.065   8.325 -0.4355  0.0921  0.2203
29499SOL    HW190265   8.520   3.096   8.241  1.8279  0.6249 -0.5959
29499SOL    HW290266   8.603   2.986   8.303 -1.0921 -0.6296  1.3054
29500SOL     OW90267   1.520   7.315   4.307 -0.5500  0.2006  0.5113
29500SOL    HW190268   1.547   7.325   4.399 -0.2537  0.1081  0.4346
29500SOL    HW290269   1.442   7.369   4.299 -0.9651 -0.3128  0.9950
29501SOL     OW90270   0.919   4.542   3.338 -1.0202  0.3512  0.2391
29501SOL    HW190271   0.919   4.472   3.403  0.6748 -0.1209 -0.2071
29501SOL    HW290272   1.012   4.564   3.327 -1.3807  1.3746 -1.0064
29502SOL     OW90273   4.098   3.613   5.520  0.0424 -0.3124  0.0507
29502SOL    HW190274   4.130   3.636   5.607  0.8366  0.1549 -0.3552
29502SOL    HW290275   4.035   3.543   5.535  1.7736 -1.7726  0.8102
29503SOL     OW90276   4.920   4.983   6.307  0.0982  0.4794 -0.0451
29503SOL    HW190277   4.977   5.034   6.365  0.6014 -0.9744  0.8082
29503SOL    HW290278   4.941   4.892   6.328 -1.1561 -0.0857 -1.1178
29504SOL     OW90279   6.379   4.100   2.168  0.2307  0.2334 -0.1351
29504SOL    HW190280   6.333   4.056   2.096 -1.7491 -0.3089  1.3676
29504SOL    HW290281   6.368   4.193   2.151  0.3785  0.1172 -0.8850
29505SOL     OW90282   1.014   6.915   8.776 -0.2393 -0.0754  0.2407
29505SOL    HW190283   1.108   6.922   8.760 -0.1955  1.0876  0.8807
29505SOL    HW290284   1.007   6.872   8.861 -0.2370  0.7472  0.6714
29506SOL     OW90285   2.156   5.911   0.276  0.0906  0.2360 -0.6839
29506SOL    HW190286   2.156   5.831   0.328 -0.0336  0.1424 -0.8295
29506SOL    HW290287   2.214   5.892   0.202 -1.4877 -0.4209 -1.8041
29507SOL     OW90288   0.795   1.944   1.355  0.6121  0.3473 -0.4141
29507SOL    HW190289   0.764   2.014   1.413  0.0907  0.4150 -0.7653
29507SOL    HW290290   0.754   1.964   1.271 -0.1286 -0.7990 -0.3375
29508SOL     OW90291   2.618   1.073   0.283  0.1709 -0.1328 -0.4750
29508SOL    HW190292   2.611   1.086   0.188  1.3203  0.6156 -0.4747
29508SOL    HW290293   2.586   1.155   0.320 -1.2993 -0.8153 -0.1550
29509SOL     OW90294   7.637   7.542   3.600  0.6441 -0.2852 -0.0996
29509SOL    HW190295   7.635   7.619   3.657  0.6917 -0.3022 -0.0746
29509SOL    HW290296   7.552   7.541   3.557  0.5161 -0.4030  0.1481
29510SOL     OW90297   0.921   0.304   0.944 -0.1630  0.3771  0.0621
29510SOL    HW190298   0.964   0.384   0.913 -1.0846  0.6988 -0.3997
29510SOL    HW290299   0.879   0.268   0.866  0.1553 -0.5091  0.2927
29511SOL     OW90300   1.691   9.247   9.533  0.6409  0.7506  0.3346
29511SOL    HW190301   1.596   9.231   9.533  0.4835  1.6168  0.4292
29511SOL    HW290302   1.700   9.336   9.568  1.4719  0.7969  0.0243
29512SOL     OW90303   5.317   6.841   0.218 -0.9688 -0.3331  0.4961
29512SOL    HW190304   5.248   6.863   0.156  0.5992  2.4119 -0.4398
29512SOL    HW290305   5.381   6.792   0.166  0.0888  1.4953  0.0090
29513SOL     OW90306   2.359   8.201   4.622 -0.8626 -0.3420  0.1187
29513SOL    HW190307   2.349   8.162   4.535  1.0661  1.1472 -0.8705
29513SOL    HW290308   2.448   8.236   4.622 -1.0125  0.2184  2.5133
29514SOL     OW90309   5.516   7.834   2.757 -0.5229  0.1354 -0.5398
29514SOL    HW190310   5.423   7.820   2.743 -0.9538  1.6808  0.5314
29514SOL    HW290311   5.530   7.927   2.741  0.7143  0.0608 -0.0626
29515SOL     OW90312   7.619   2.078   9.272 -0.3239  0.0484  0.0868
29515SOL    HW190313   7.669   2.082   9.191 -0.0222 -1.4453  0.1634
29515SOL    HW290314   7.627   2.166   9.310  2.1267 -0.0807  0.0216
29516SOL     OW90315   3.005   8.097   4.638  0.3431  0.1833  0.5157
29516SOL    HW190316   2.960   8.127   4.717 -2.3621 -1.5431 -0.2199
29516SOL    HW290317   3.068   8.032   4.670 -0.9231 -0.7101  1.3187
29517SOL     OW90318   4.694   2.477   9.294 -0.3052 -0.8833 -0.1860
29517SOL    HW190319   4.788   2.494   9.297 -0.4388 -0.1706  2.1580
29517SOL    HW290320   4.663   2.525   9.218  1.2796 -1.5470 -1.2927
29518SOL     OW90321   8.379   0.601   7.567 -0.0726  0.2694 -0.1625
29518SOL    HW190322   8.455   0.647   7.530 -0.7213  1.4921 -0.0400
29518SOL    HW290323   8.394   0.509   7.547  0.1292  0.7609 -2.5160
29519SOL     OW90324   2.716   1.375   4.256 -0.3154  0.3819  0.1306
29519SOL    HW190325   2.777   1.442   4.287  0.0039  0.2631 -0.2317
29519SOL    HW290326   2.676   1.412   4.178  0.1420  0.0020 -0.2866
29520SOL     OW90327   0.826   7.535   8.928 -0.0631 -0.5248  0.3249
29520SOL    HW190328   0.901   7.540   8.987  0.4909 -1.0268 -0.3254
29520SOL    HW290329   0.803   7.442   8.926  1.0901 -0.8175 -1.6606
29521SOL     OW90330   4.084   3.561   4.287 -0.8005  0.0815 -0.8699
29521SOL    HW190331   4.149   3.582   4.354  1.3381 -0.3469 -2.6628
29521SOL    HW290332   4.103   3.471   4.263 -3.0276 -0.5272 -0.4931
29522SOL     OW90333   7.536   2.487   3.690  0.4864 -0.2112  0.8369
29522SOL    HW190334   7.442   2.499   3.682  0.5505 -0.9710 -2.4979
29522SOL    HW290335   7.546   2.400   3.730 -0.1724  0.1615  1.8418
29523SOL     OW90336   9.463   7.599   6.453 -0.3116  0.2932 -0.7066
29523SOL    HW190337   9.554   7.613   6.426 -0.9161  1.0377 -2.5796
29523SOL    HW290338   9.439   7.516   6.412  0.2547 -1.3151  2.0041
29524SOL     OW90339   7.950   3.387   5.775  0.0539  0.1830  0.4647
29524SOL    HW190340   7.960   3.462   5.833 -0.1885  2.0371 -1.7609
29524SOL    HW290341   7.859   3.360   5.786  0.7620 -1.5181  3.1399
29525SOL     OW90342   7.808   8.389   8.505 -0.7136  0.0066 -0.2831
29525SOL    HW190343   7.714   8.404   8.498 -0.6463  3.1713  2.5904
29525SOL    HW290344   7.847   8.458   8.451 -0.0521 -0.8123 -0.8619
29526SOL     OW90345   0.647   8.603   8.644  0.1130 -0.1049  0.3264
29526SOL    HW190346   0.702   8.675   8.613  0.2566  0.5707  2.0098
29526SOL    HW290347   0.692   8.571   8.722 -0.4032 -1.4793  0.0862
29527SOL     OW90348   1.576   6.687   3.703  0.7860  0.1849  0.4181
29527SOL    HW190349   1.574   6.665   3.797  3.0164  1.4651  0.8339
29527SOL    HW290350   1.606   6.607   3.661 -1.1864 -0.7271  0.6136
29528SOL     OW90351   7.846   6.974   0.553 -0.1775  0.4685 -0.3154
29528SOL    HW190352   7.906   6.971   0.479  0.4118 -1.3641  0.1830
29528SOL    HW290353   7.880   7.044   0.609 -0.4985  1.7122 -1.6366
29529SOL     OW90354   6.206   2.519   6.399 -0.0746 -0.2688 -0.4046
29529SOL    HW190355   6.239   2.482   6.481 -0.3264  0.7351  0.1647
29529SOL    HW290356   6.149   2.451   6.362 -0.2726 -0.5675  0.4463
29530SOL     OW90357   7.830   7.652   8.988 -0.2170 -0.0565  0.2787
29530SOL    HW190358   7.823   7.557   8.983  0.6401 -0.1101 -0.0088
29530SOL    HW290359   7.875   7.668   9.071  0.2806  0.0612 -0.0116
29531SOL     OW90360   0.902   2.257   8.383  0.4434 -0.2331 -0.2034
29531SOL    HW190361   0.814   2.220   8.374  0.7035 -1.3632  1.5128
29531SOL    HW290362   0.951   2.192   8.434  2.0382  0.7646 -0.3788
29532SOL     OW90363   7.309   7.727   7.712 -0.3668  0.2302  0.1048
29532SOL    HW190364   7.266   7.765   7.635  0.0753  1.1852  0.3137
29532SOL    HW290365   7.368   7.661   7.677 -0.1023  0.7231 -0.3909
29533SOL     OW90366   3.629   3.565   9.620 -0.6450 -0.6460  0.5880
29533SOL    HW190367   3.557   3.502   9.616 -1.0741 -0.1511 -3.0041
29533SOL    HW290368   3.706   3.515   9.591 -0.6775  0.0229 -0.7498
29534SOL     OW90369   9.534   7.758   1.153  0.2709  0.4997  0.5429
29534SOL    HW190370   9.521   7.832   1.094  1.0111 -0.0960 -0.3834
29534SOL    HW290371   9.581   7.693   1.101  1.4501  0.1766  1.9420
29535SOL     OW90372   6.572   7.633   2.006 -0.5599 -0.4900 -0.0840
29535SOL    HW190373   6.525   7.554   1.980 -1.2144 -0.5550  1.1990
29535SOL    HW290374   6.634   7.649   1.935 -1.8441 -0.9660 -1.3706
29536SOL     OW90375   3.389   3.599   4.189 -0.1836  0.0302  0.3117
29536SOL    HW190376   3.299   3.611   4.160 -0.4160  1.5772  1.5322
29536SOL    HW290377   3.431   3.552   4.117 -1.6326  0.4245 -0.8506
29537SOL     OW90378   4.445   6.091   9.572  0.6296 -0.0453 -1.0068
29537SOL    HW190379   4.477   6.175   9.538  0.3080  0.2886 -0.5004
29537SOL    HW290380   4.521   6.034   9.568  0.9203  0.3416 -1.1302
29538SOL     OW90381   2.024   5.129   1.298 -0.1140 -0.2500  0.8900
29538SOL    HW190382   1.986   5.117   1.211 -1.1670 -0.0860  1.3132
29538SOL    HW290383   2.095   5.065   1.303 -0.2152 -0.4355  0.0054
29539SOL     OW90384   3.432   2.604   1.256  0.1243  0.0263 -0.0802
29539SOL    HW190385   3.440   2.628   1.164  1.1312  0.6951  0.1744
29539SOL    HW290386   3.414   2.687   1.301 -2.0389 -0.5088  0.1572
29540SOL     OW90387   7.307   8.421   5.875  0.2931 -0.0009 -0.5394
29540SOL    HW190388   7.374   8.433   5.943  1.7073 -0.1821 -1.8397
29540SOL    HW290389   7.227   8.404   5.924  1.2996 -0.3908  1.0845
29541SOL     OW90390   3.179   0.070   4.671 -0.0639  0.3741 -0.0584
29541SOL    HW190391   3.209   0.131   4.603 -2.7255 -0.7527 -2.4617
29541SOL    HW290392   3.111   0.118   4.718 -0.7246 -0.0024 -0.6047
29542SOL     OW90393   7.057   3.143   1.855  0.3216  0.5287 -0.0870
29542SOL    HW190394   7.090   3.216   1.802 -1.0182  0.0719 -1.6081
29542SOL    HW290395   7.079   3.065   1.805  1.5068 -0.1410  1.4070
29543SOL     OW90396   6.872   9.279   8.545  0.0247  0.2953 -0.0687
29543SOL    HW190397   6.919   9.288   8.463  0.3739  0.1274  0.1114
29543SOL    HW290398   6.926   9.325   8.609 -0.7008  1.2264 -0.1021
29544SOL     OW90399   6.405   1.860   9.048 -0.3971 -0.2329  0.1943
29544SOL    HW190400   6.351   1.927   9.005  0.3757  0.6415  0.5628
29544SOL    HW290401   6.420   1.894   9.136  1.9312  0.2542 -0.3237
29545SOL     OW90402   1.359   6.998   0.573  0.0373 -0.1004  0.7605
29545SOL    HW190403   1.299   7.050   0.627  1.0662  1.9949 -0.0044
29545SOL    HW290404   1.446   7.014   0.610  0.6897  0.8722 -1.0616
29546SOL     OW90405   5.533   4.939   8.411 -0.0142 -0.3494 -0.1801
29546SOL    HW190406   5.618   4.921   8.371 -0.0377 -1.5601  0.2699
29546SOL    HW290407   5.483   4.983   8.343  1.2983  1.3309 -0.1242
29547SOL     OW90408   9.124   8.253   1.797 -0.3296 -0.0875  0.0291
29547SOL    HW190409   9.077   8.333   1.820  0.1269  0.3575 -0.5566
29547SOL    HW290410   9.091   8.188   1.859 -0.7310  0.5397  0.4947
29548SOL     OW90411   4.094   4.952   3.238  0.5676 -0.3678 -0.0633
29548SOL    HW190412   4.016   4.993   3.277  1.5954 -0.4663  2.2263
29548SOL    HW290413   4.080   4.961   3.143 -2.8009 -1.4534  0.1813
29549SOL     OW90414   0.876   8.134   0.114 -0.4580 -0.0024  0.1097
29549SOL    HW190415   0.912   8.221   0.128  1.8720 -1.0298  0.9405
29549SOL    HW290416   0.910   8.107   0.029  1.3038 -1.2075  1.1519
29550SOL     OW90417   7.715   7.474   5.795 -0.0202 -0.3213 -0.2929
29550SOL    HW190418   7.792   7.495   5.849 -0.6147  0.5890  0.2300
29550SOL    HW290419   7.697   7.555   5.747 -1.7833  0.1061  1.0138
29551SOL     OW90420   3.946   8.490   4.296 -0.3691  0.1395  0.2508
29551SOL    HW190421   3.869   8.543   4.277 -0.3276  0.7063  1.5147
29551SOL    HW290422   3.914   8.420   4.353 -0.2505 -0.6613 -0.6368
29552SOL     OW90423   5.207   4.895   5.359  0.0620 -0.3439 -0.1355
29552SOL    HW190424   5.116   4.892   5.328  0.5186  0.3447 -1.6633
29552SOL    HW290425   5.211   4.972   5.416 -0.2592 -0.2412 -0.2487
29553SOL     OW90426   3.597   5.253   0.169  0.0562 -0.0299 -0.3366
29553SOL    HW190427   3.682   5.244   0.213  0.6503  1.1543 -1.1939
29553SOL    HW290428   3.574   5.345   0.180 -1.7695 -0.5953  0.9969
29554SOL     OW90429   8.247   8.741   1.925  0.0146 -0.0338  0.0261
29554SOL    HW190430   8.313   8.710   1.987 -1.0730  0.1367  1.3023
29554SOL    HW290431   8.237   8.835   1.945 -1.0062 -0.1755  0.2388
29555SOL     OW90432   8.303   9.062   3.951  0.3468  0.4537  0.3003
29555SOL    HW190433   8.328   9.049   3.860 -0.0775 -0.1830  0.2679
29555SOL    HW290434   8.335   9.150   3.972  0.3869  0.6367 -0.4809
29556SOL     OW90435   6.703   8.752   5.349  0.3715 -0.0096  0.1388
29556SOL    HW190436   6.740   8.693   5.415  1.5002 -0.9076 -1.2578
29556SOL    HW290437   6.778   8.778   5.295 -0.6080  0.2508 -1.1431
29557SOL     OW90438   8.055   3.419   8.339 -0.3204 -0.1012  0.0197
29557SOL    HW190439   8.092   3.482   8.278 -0.7032 -0.4155 -0.5397
29557SOL    HW290440   7.962   3.441   8.343 -0.2494  0.1123  0.7311
29558SOL     OW90441   9.484   1.423   5.496 -0.0505 -0.1233  0.0756
29558SOL    HW190442   9.542   1.356   5.532 -0.1168  0.4939  1.4007
29558SOL    HW290443   9.476   1.401   5.403  0.1445 -1.7846  0.4223
29559SOL     OW90444   9.454   6.957   2.362  0.3504 -0.6510 -0.3336
29559SOL    HW190445   9.538   7.003   2.365  1.7070 -2.9562  0.6735
29559SOL    HW290446   9.463   6.897   2.288  0.0011 -1.5616  0.3440
29560SOL     OW90447   1.627   2.606   2.822 -0.4471 -0.2526 -0.0129
29560SOL    HW190448   1.696   2.671   2.812 -0.5190 -0.2438 -0.4373
29560SOL    HW290449   1.559   2.651   2.872  0.5367 -0.7655  1.9010
29561SOL     OW90450   8.629   9.312   8.754  0.4509 -0.0786 -0.1172
29561SOL    HW190451   8.643   9.346   8.666  1.1935 -0.2123 -0.0588
29561SOL    HW290452   8.687   9.365   8.810  2.7413 -2.3001 -0.2117
29562SOL     OW90453   0.536   0.351   5.435 -0.2725  0.4208  0.1574
29562SOL    HW190454   0.494   0.347   5.349  2.6150  1.2958 -1.4109
29562SOL    HW290455   0.489   0.420   5.481 -2.2358 -0.4319 -0.4407
29563SOL     OW90456   2.592   4.516   7.285  0.0600 -0.8745  0.5196
29563SOL    HW190457   2.631   4.459   7.352 -0.3006 -2.1221 -0.2967
29563SOL    HW290458   2.502   4.485   7.277  0.2313 -1.0750 -0.8667
29564SOL     OW90459   2.495   7.474   9.259 -0.3087  0.3376  0.2727
29564SOL    HW190460   2.448   7.392   9.271 -1.2477  0.9854  1.2391
29564SOL    HW290461   2.587   7.452   9.272 -0.3965 -0.7988 -0.8212
29565SOL     OW90462   2.016   4.034   8.702 -0.0988  0.3795  0.1688
29565SOL    HW190463   1.925   4.006   8.695 -0.8684  1.8915  2.7076
29565SOL    HW290464   2.025   4.105   8.638 -1.2407  1.3556  1.0546
29566SOL     OW90465   2.772   6.595   2.585 -0.4947  0.1617  0.0077
29566SOL    HW190466   2.719   6.525   2.549 -0.5928 -0.1411  0.7329
29566SOL    HW290467   2.860   6.557   2.595 -0.0335  0.7566 -1.4986
29567SOL     OW90468   3.404   8.914   1.402  0.4624  0.2367 -0.2802
29567SOL    HW190469   3.390   8.911   1.308  0.6691  2.2214 -0.4278
29567SOL    HW290470   3.341   8.979   1.434  0.9732  0.2190  0.8290
29568SOL     OW90471   4.372   2.838   3.520  0.0144 -0.4126 -0.2211
29568SOL    HW190472   4.361   2.755   3.473  1.0272 -1.1657  0.8290
29568SOL    HW290473   4.319   2.828   3.599 -0.8910  0.4692 -0.6883
29569SOL     OW90474   4.211   5.268   3.251 -0.0718  0.5581 -0.2332
29569SOL    HW190475   4.226   5.233   3.339 -0.5906 -0.5102 -0.5577
29569SOL    HW290476   4.298   5.278   3.214  0.1541  1.0291  0.3986
29570SOL     OW90477   8.119   6.577   4.402 -0.0470 -0.1809 -0.2696
29570SOL    HW190478   8.064   6.649   4.435  0.0038  0.2525 -1.1023
29570SOL    HW290479   8.205   6.594   4.440 -0.5758 -1.1760  1.5022
29571SOL     OW90480   2.381   5.877   4.465 -0.1110  0.4140 -0.3899
29571SOL    HW190481   2.300   5.905   4.423 -0.2140  1.0044  0.2081
29571SOL    HW290482   2.374   5.781   4.468 -1.2608  0.5105  0.6008
29572SOL     OW90483   2.087   1.903   3.819  0.3986 -0.4148 -0.5381
29572SOL    HW190484   2.075   1.976   3.879 -1.3048 -0.3393 -0.9173
29572SOL    HW290485   2.181   1.886   3.819  0.7960  1.6368 -0.3030
29573SOL     OW90486   8.141   6.007   1.262  0.1453  0.3866 -0.4634
29573SOL    HW190487   8.189   5.938   1.217  1.0890  1.5780 -1.3488
29573SOL    HW290488   8.093   6.053   1.192  0.2763  1.2039 -0.0311
29574SOL     OW90489   0.308   3.766   1.276  0.0898  0.1725 -0.1609
29574SOL    HW190490   0.239   3.763   1.210 -1.1329 -1.9986  1.0943
29574SOL    HW290491   0.389   3.765   1.225 -0.8157 -0.9283 -1.6612
29575SOL     OW90492   9.709   9.144   5.280 -0.2605  1.1407  0.0771
29575SOL    HW190493   9.648   9.199   5.230  0.8158  1.0909 -1.3427
29575SOL    HW290494   9.772   9.206   5.318  0.6932  0.9606 -1.1589
29576SOL     OW90495   8.333   8.271   0.532  0.1904  0.2749  0.4297
29576SOL    HW190496   8.248   8.306   0.507  0.4254 -0.0964 -0.9763
29576SOL    HW290497   8.353   8.313   0.615 -1.7677 -0.3102  1.2638
29577SOL     OW90498   6.806   9.666   9.268  0.2741 -0.2996  0.3396
29577SOL    HW190499   6.753   9.705   9.198  1.3464 -0.7019 -0.7365
29577SOL    HW290500   6.848   9.741   9.310 -2.7717  0.2789  2.7265
29578SOL     OW90501   1.934   6.628   8.372  0.1378 -0.2209  0.6075
29578SOL    HW190502   1.965   6.540   8.349 -1.4088 -0.5797 -0.2220
29578SOL    HW290503   1.848   6.613   8.410 -0.5032  1.0001 -0.3240
29579SOL     OW90504   6.957   9.475   1.263 -0.8804 -0.4871 -0.3863
29579SOL    HW190505   6.895   9.423   1.313 -0.5614 -0.8084 -0.3256
29579SOL    HW290506   6.947   9.445   1.172  0.2730 -1.6340 -0.1577
29580SOL     OW90507   2.678   3.881   5.523  0.0473  0.7514  0.0063
29580SOL    HW190508   2.761   3.867   5.477  0.1616  0.2051  0.3693
29580SOL    HW290509   2.702   3.926   5.603 -0.0370  0.8116 -0.0023
29581SOL     OW90510   0.347   8.205   4.752  0.4330 -0.1828  0.1123
29581SOL    HW190511   0.315   8.199   4.662  0.7429  0.7821 -0.0757
29581SOL    HW290512   0.269   8.197   4.806  0.1698 -0.1828 -0.2663
29582SOL     OW90513   7.229   9.539   5.991 -0.1599 -0.2664 -0.0248
29582SOL    HW190514   7.249   9.606   6.055  1.7462 -2.6180  2.0071
29582SOL    HW290515   7.275   9.566   5.912 -0.5901  1.4771  0.2925
29583SOL     OW90516   9.809   6.534   4.635 -0.6698 -0.4084 -0.1607
29583SOL    HW190517   9.876   6.573   4.692 -1.4771  0.8427 -0.0331
29583SOL    HW290518   9.858   6.503   4.559 -0.1297  2.4793 -1.1285
29584SOL     OW90519   8.281   3.723   7.329 -0.3181 -0.1467  0.2475
29584SOL    HW190520   8.323   3.666   7.265 -1.2555 -1.4905  0.7874
29584SOL    HW290521   8.258   3.801   7.279  1.3954 -0.0077 -0.4084
29585SOL     OW90522   4.278   0.930   5.562 -0.3031 -0.2407  0.2169
29585SOL    HW190523   4.196   0.932   5.613 -0.0144 -2.5166  0.8526
29585SOL    HW290524   4.329   1.003   5.598 -0.6104 -1.0172  2.3970
29586SOL     OW90525   2.142   1.241   6.765 -0.6270  0.2209  0.3938
29586SOL    HW190526   2.184   1.286   6.691 -2.4877  1.7971  0.2215
29586SOL    HW290527   2.105   1.161   6.726  1.8053 -1.0356  0.4899
29587SOL     OW90528   4.825   1.021   7.443  0.6675 -0.1980  0.3456
29587SOL    HW190529   4.802   1.114   7.442  0.5792 -0.1077 -3.5465
29587SOL    HW290530   4.741   0.975   7.442  0.7083 -0.2797  0.6515
29588SOL     OW90531   2.318   3.901   6.454  0.1443 -0.1057 -0.0263
29588SOL    HW190532   2.297   3.986   6.414 -1.7903 -0.4784  0.0765
29588SOL    HW290533   2.393   3.918   6.510  0.7463  1.1970 -1.1707
29589SOL     OW90534   7.520   2.371   4.042  0.4250 -0.0468 -0.4152
29589SOL    HW190535   7.471   2.331   4.115 -0.4390  0.9553 -0.4299
29589SOL    HW290536   7.508   2.465   4.054  0.8569  0.1524 -1.4629
29590SOL     OW90537   8.882   1.093   7.246  0.6670 -0.5285 -0.0728
29590SOL    HW190538   8.836   1.023   7.200  0.9537 -0.5800 -0.2833
29590SOL    HW290539   8.930   1.140   7.178  0.2444  0.0593  0.0242
29591SOL     OW90540   1.851   6.069   5.882 -0.3401 -0.1106  0.2898
29591SOL    HW190541   1.910   6.040   5.951 -0.6494 -1.9839 -0.1863
29591SOL    HW290542   1.903   6.065   5.802 -0.8610 -0.9882 -0.0155
29592SOL     OW90543   0.173   6.806   8.639 -0.4571  0.2115 -0.6094
29592SOL    HW190544   0.227   6.826   8.716  0.2301  2.3438 -1.5397
29592SOL    HW290545   0.143   6.717   8.652  3.1133 -1.0564  0.1325
29593SOL     OW90546   5.288   5.803   8.396 -0.0898 -0.9742  0.2790
29593SOL    HW190547   5.381   5.812   8.417 -0.2792 -1.2312  1.3030
29593SOL    HW290548   5.245   5.867   8.452 -0.4421  0.1097 -1.1689
29594SOL     OW90549   6.475   3.357   3.989  0.1682 -0.3481  0.3428
29594SOL    HW190550   6.473   3.412   4.067  1.2293 -0.2542  0.3240
29594SOL    HW290551   6.384   3.353   3.960 -0.2074 -0.2115  1.4568
29595SOL     OW90552   4.563   8.178   4.310  0.0842  0.7662 -0.3029
29595SOL    HW190553   4.526   8.220   4.233 -1.7933 -2.3593 -1.2977
29595SOL    HW290554   4.652   8.154   4.284  0.2790  1.7788 -0.6149
29596SOL     OW90555   9.011   7.729   9.230 -0.7630 -0.4687  0.1209
29596SOL    HW190556   8.952   7.779   9.173 -2.6470 -0.4110  1.9958
29596SOL    HW290557   8.987   7.637   9.215  0.0488 -0.5744 -0.5463
29597SOL     OW90558   0.408   3.417   1.501  0.2112 -0.6950 -0.1673
29597SOL    HW190559   0.476   3.350   1.505  0.8681 -0.0725 -0.7810
29597SOL    HW290560   0.454   3.499   1.519 -0.5327 -0.3686  0.2788
29598SOL     OW90561   8.210   4.321   2.712 -0.0178 -0.1914 -0.4558
29598SOL    HW190562   8.291   4.269   2.716  0.0496 -0.0637 -0.0748
29598SOL    HW290563   8.229   4.399   2.764 -0.2300  0.0645 -0.7536
29599SOL     OW90564   7.372   9.004   9.526  0.5595 -0.0144 -0.0070
29599SOL    HW190565   7.378   8.965   9.614  0.9202 -0.8292 -0.3790
29599SOL    HW290566   7.316   9.080   9.538 -1.6848 -1.6350  0.4366
29600SOL     OW90567   5.556   0.592   8.353  0.2001 -0.4736 -0.2096
29600SOL    HW190568   5.550   0.589   8.448 -1.6851  0.6795 -0.2314
29600SOL    HW290569   5.490   0.529   8.323 -2.3839  2.1958 -0.6424
29601SOL     OW90570   7.305   7.744   8.901  0.3289  0.1974 -0.2025
29601SOL    HW190571   7.284   7.776   8.988 -0.6769 -0.6625 -0.1155
29601SOL    HW290572   7.400   7.735   8.901  0.3282  0.1212  0.8285
29602SOL     OW90573   8.238   0.891   1.805  0.1175  0.2408 -0.4321
29602SOL    HW190574   8.298   0.868   1.734 -0.1957  0.4744 -0.7812
29602SOL    HW290575   8.276   0.853   1.883 -1.3715 -3.2992 -1.2474
29603SOL     OW90576   3.523   8.245   6.662 -0.7606 -0.0626 -0.3602
29603SOL    HW190577   3.535   8.162   6.708 -1.9552  0.3465  0.7394
29603SOL    HW290578   3.589   8.303   6.700 -0.1074 -0.4089 -0.9363
29604SOL     OW90579   3.794   9.655   7.353  0.0906  0.0905 -0.5229
29604SOL    HW190580   3.727   9.588   7.337  0.8418 -0.5524 -1.0160
29604SOL    HW290581   3.873   9.606   7.374  0.0954  0.8548  1.4976
29605SOL     OW90582   0.989   0.299   8.065  0.0119  0.2743  0.1119
29605SOL    HW190583   0.915   0.335   8.015 -0.9597 -0.8683  0.6871
29605SOL    HW290584   0.991   0.353   8.144  0.7684  1.2751 -0.5545
29606SOL     OW90585   6.289   7.175   1.058 -0.2831  0.5107 -0.4417
29606SOL    HW190586   6.296   7.106   1.124 -0.1286 -0.6136 -1.5938
29606SOL    HW290587   6.347   7.147   0.988 -1.5983  0.8873 -1.7268
29607SOL     OW90588   2.362   7.879   1.303  0.2639 -0.1573  0.1601
29607SOL    HW190589   2.411   7.809   1.259  2.4622  1.6877 -0.5337
29607SOL    HW290590   2.292   7.833   1.350  0.4597 -2.6192 -1.7326
29608SOL     OW90591   2.231   0.236   7.310  0.1980  0.6156 -0.3307
29608SOL    HW190592   2.277   0.270   7.233 -1.5259  1.1518 -1.1707
29608SOL    HW290593   2.147   0.282   7.310  0.4411  1.1779  2.3405
29609SOL     OW90594   4.958   2.485   2.497  0.1285  0.8823 -0.6956
29609SOL    HW190595   5.022   2.418   2.477  2.3451  2.8419 -0.6127
29609SOL    HW290596   4.918   2.506   2.413  0.3716  0.3959 -0.9338
29610SOL     OW90597   4.742   8.546   6.155  0.6088 -0.2190  0.0355
29610SOL    HW190598   4.760   8.457   6.124  0.6040 -0.6510  1.1975
29610SOL    HW290599   4.699   8.533   6.240  2.7508  0.8842  1.3676
29611SOL     OW90600   5.623   2.021   6.580  0.7274 -0.1391  0.0836
29611SOL    HW190601   5.692   1.966   6.543  0.3975 -1.6164  1.5841
29611SOL    HW290602   5.564   1.960   6.623  0.1587  1.3584  1.5165
29612SOL     OW90603   4.354   8.895   7.148 -0.0282  0.8862 -0.2694
29612SOL    HW190604   4.373   8.807   7.180 -0.5014  0.7204 -0.4376
29612SOL    HW290605   4.427   8.949   7.180 -0.2477  0.6355  0.6819
29613SOL     OW90606   3.250   0.685   5.404  0.4995 -0.0105  0.1035
29613SOL    HW190607   3.294   0.602   5.390 -0.1016 -0.2657 -0.3048
29613SOL    HW290608   3.173   0.682   5.347 -0.0505  0.4197  0.8026
29614SOL     OW90609   5.381   6.993   0.649  0.3401  0.0699 -0.0476
29614SOL    HW190610   5.340   7.058   0.592  1.6668 -0.6513 -1.9223
29614SOL    HW290611   5.426   6.933   0.589  3.6871  0.5005  1.7860
29615SOL     OW90612   1.899   3.404   0.156  0.2596  0.3576  0.5413
29615SOL    HW190613   1.841   3.376   0.227  0.6494 -1.4580  0.1730
29615SOL    HW290614   1.866   3.359   0.079  0.3991  1.6084 -0.2869
29616SOL     OW90615   5.762   0.032   5.766 -0.2598 -0.2773  0.3454
29616SOL    HW190616   5.765   0.118   5.725  2.1196 -0.6472 -0.4626
29616SOL    HW290617   5.796   0.046   5.854 -1.0153 -0.2042  0.6264
29617SOL     OW90618   2.113   4.846   6.789 -0.0663  0.2885 -0.3774
29617SOL    HW190619   2.189   4.834   6.733 -0.3435 -0.7281 -0.5469
29617SOL    HW290620   2.099   4.941   6.791  0.0187  0.3525 -1.9153
29618SOL     OW90621   0.486   9.399   8.395 -0.1342 -0.0833 -0.0823
29618SOL    HW190622   0.523   9.486   8.385  0.0145 -0.2310 -0.9866
29618SOL    HW290623   0.515   9.352   8.316 -2.8007 -0.0048 -1.2012
29619SOL     OW90624   3.332   8.797   6.172 -0.1298  0.2882 -0.4306
29619SOL    HW190625   3.358   8.862   6.106  0.2513  0.3628 -0.2113
29619SOL    HW290626   3.382   8.719   6.150 -2.9045 -1.0414 -2.6353
29620SOL     OW90627   8.088   7.297   5.653 -0.5131  0.7025  0.3794
29620SOL    HW190628   8.155   7.241   5.692 -1.4830  0.5708  1.9766
29620SOL    HW290629   8.128   7.384   5.649 -0.0388  0.5096  0.7798
29621SOL     OW90630   5.963   7.372   3.059  0.4329  0.1306 -0.2916
29621SOL    HW190631   5.996   7.378   3.148  0.6567  1.3162 -0.4387
29621SOL    HW290632   6.042   7.377   3.004  0.1372  1.5842 -0.6054
29622SOL     OW90633   6.806   3.513   8.856  0.6838  0.5686 -0.4808
29622SOL    HW190634   6.836   3.428   8.823 -0.2949 -0.0922  0.2611
29622SOL    HW290635   6.756   3.550   8.783 -1.2965 -0.7977  0.0854
29623SOL     OW90636   9.130   4.993   2.797 -0.5536 -0.4792  0.1610
29623SOL    HW190637   9.038   4.976   2.778 -0.2785 -2.0464  0.0402
29623SOL    HW290638   9.176   4.917   2.761  0.7186 -0.0633  0.8272
29624SOL     OW90639   1.002   4.888   5.731  0.1716 -0.3232  0.4067
29624SOL    HW190640   0.928   4.945   5.708 -0.8717 -2.3287 -1.4660
29624SOL    HW290641   0.994   4.875   5.826 -0.6946  1.0448  0.5431
29625SOL     OW90642   1.166   6.479   5.958  0.0244  0.5591  0.1139
29625SOL    HW190643   1.200   6.440   5.878  2.1220 -0.1960  1.2683
29625SOL    HW290644   1.114   6.409   5.998 -2.4632  1.4779 -1.3023
29626SOL     OW90645   8.931   6.635   6.498 -0.0315  0.1268  0.7184
29626SOL    HW190646   8.963   6.651   6.409  0.3745 -0.2415  0.7925
29626SOL    HW290647   9.011   6.618   6.548 -0.1634  1.2459  1.3559
29627SOL     OW90648   4.485   1.581   5.501 -0.0393 -0.0857 -0.1043
29627SOL    HW190649   4.403   1.537   5.481  0.1645 -0.6340  0.2421
29627SOL    HW290650   4.459   1.656   5.555 -0.1917 -1.1692  1.3939
29628SOL     OW90651   7.685   2.020   3.014  0.5233  0.3353  0.1793
29628SOL    HW190652   7.698   1.931   2.982  0.5877  0.2052  0.5612
29628SOL    HW290653   7.646   2.009   3.101  1.0771  0.6620  0.4787
29629SOL     OW90654   6.886   6.377   0.101  0.1387 -0.0947  0.0459
29629SOL    HW190655   6.913   6.460   0.141  0.1984 -0.4572  0.7771
29629SOL    HW290656   6.889   6.394   0.007  0.1487  0.7332  0.1847
29630SOL     OW90657   1.538   2.435   1.208 -0.4005 -0.2122  0.3743
29630SOL    HW190658   1.514   2.359   1.260  3.7063 -2.9529 -1.1477
29630SOL    HW290659   1.488   2.426   1.127 -1.2310 -0.2101  0.8754
29631SOL     OW90660   7.544   8.442   7.628  0.6544 -0.0991 -0.5012
29631SOL    HW190661   7.485   8.424   7.701  0.8913 -2.2948 -0.7880
29631SOL    HW290662   7.597   8.516   7.658  0.1907 -0.4029  1.1986
29632SOL     OW90663   7.239   3.263   1.665 -0.1569  0.1080  0.1027
29632SOL    HW190664   7.283   3.190   1.621 -0.2760  0.9382 -1.4739
29632SOL    HW290665   7.309   3.323   1.690 -0.1624  0.0558  0.2449
29633SOL     OW90666   0.761   7.113   6.282  0.0222 -0.0076 -0.1544
29633SOL    HW190667   0.799   7.077   6.202  0.0081 -1.3854  0.4256
29633SOL    HW290668   0.681   7.063   6.295  0.2045 -0.0550  0.9012
29634SOL     OW90669   0.494   9.787   5.102  0.2890 -0.3703 -0.2311
29634SOL    HW190670   0.586   9.762   5.113  0.7044  0.3505 -1.8166
29634SOL    HW290671   0.482   9.859   5.164  0.2297 -1.7140  1.3703
29635SOL     OW90672   3.205   5.075   4.142 -0.0322 -0.1438  0.2747
29635SOL    HW190673   3.210   5.170   4.148  1.1717 -0.2024  0.4885
29635SOL    HW290674   3.112   5.056   4.127 -0.2924  1.0514  0.3138
29636SOL     OW90675   9.172   7.435   1.495  0.4617 -0.4541  0.5160
29636SOL    HW190676   9.161   7.489   1.573  0.6040  0.1198  0.1447
29636SOL    HW290677   9.089   7.386   1.488 -0.6709  1.4857 -0.4742
29637SOL     OW90678   9.357   1.638   2.378  0.3252  0.1169  0.1401
29637SOL    HW190679   9.392   1.726   2.370 -0.6359  0.5290  0.3252
29637SOL    HW290680   9.400   1.588   2.309  0.4180  0.8806 -0.3650
29638SOL     OW90681   1.755   0.154   4.120 -0.0177 -0.2856 -0.6934
29638SOL    HW190682   1.805   0.107   4.187  1.3056  0.5870 -1.0233
29638SOL    HW290683   1.682   0.193   4.168  2.3248  2.5503  0.8847
29639SOL     OW90684   0.831   3.803   3.125 -0.3454 -0.3892 -0.9692
29639SOL    HW190685   0.829   3.870   3.058 -1.2921 -0.1680 -0.7340
29639SOL    HW290686   0.745   3.808   3.167 -0.0996 -1.1317 -0.3470
29640SOL     OW90687   0.331   3.681   8.563 -0.1027  0.4918 -0.0250
29640SOL    HW190688   0.308   3.735   8.639  0.7314  0.0302  0.5653
29640SOL    HW290689   0.249   3.636   8.541 -0.4581  0.9534  0.3242
29641SOL     OW90690   8.665   7.736   7.408 -0.9798  0.2520 -0.4708
29641SOL    HW190691   8.593   7.722   7.346  0.1370 -0.3768 -1.6877
29641SOL    HW290692   8.678   7.831   7.410 -0.8039  0.2621 -1.5140
29642SOL     OW90693   0.710   9.151   9.357  0.2411 -0.4484 -0.6470
29642SOL    HW190694   0.759   9.191   9.285 -0.8271  1.1204 -0.5580
29642SOL    HW290695   0.760   9.073   9.380  0.7345 -0.8666 -2.9282
29643SOL     OW90696   2.088   9.593   1.745 -0.3319  0.3432  0.2996
29643SOL    HW190697   2.035   9.614   1.668  0.2676 -2.5530 -1.0732
29643SOL    HW290698   2.177   9.621   1.721  0.2319 -2.2178 -1.0192
29644SOL     OW90699   9.754   6.965   2.739  0.3583  0.1970 -0.4442
29644SOL    HW190700   9.790   7.053   2.729  3.2518 -1.0203 -1.7765
29644SOL    HW290701   9.700   6.952   2.661 -0.7504  1.0034  0.1486
29645SOL     OW90702   5.547   1.978   6.198  0.1640  0.2355  0.3995
29645SOL    HW190703   5.484   1.919   6.240 -0.1718  0.1257 -0.2538
29645SOL    HW290704   5.535   1.964   6.104 -0.6232  2.0319  0.1866
29646SOL     OW90705   5.534   0.729   7.205 -0.1786  0.5308 -0.4277
29646SOL    HW190706   5.448   0.705   7.237 -0.1030  0.1917 -0.4751
29646SOL    HW290707   5.564   0.652   7.157 -0.1927  0.9378 -1.1062
29647SOL     OW90708   4.028   9.623   1.141  0.8793 -0.2895  0.0630
29647SOL    HW190709   4.013   9.530   1.125  1.1348 -0.0639 -1.6643
29647SOL    HW290710   4.123   9.633   1.137  0.7902  0.2896 -1.5489
29648SOL     OW90711   8.233   6.694   0.068  0.0383  0.5328 -0.4744
29648SOL    HW190712   8.263   6.755   0.136 -0.5513  0.6001 -0.2745
29648SOL    HW290713   8.138   6.704   0.066 -0.3043 -1.7111  0.8919
29649SOL     OW90714   4.147   6.054   8.112  0.5438 -0.2202  0.2174
29649SOL    HW190715   4.139   6.002   8.032 -0.2272 -0.6228  0.5466
29649SOL    HW290716   4.122   6.142   8.085 -1.5519 -0.7111  0.3887
29650SOL     OW90717   4.810   4.724   6.801 -0.3209  0.1093 -0.1463
29650SOL    HW190718   4.794   4.799   6.744  0.8959  1.0486  0.6772
29650SOL    HW290719   4.807   4.761   6.890 -1.8815 -1.2480  0.4336
29651SOL     OW90720   3.164   1.000   6.836 -0.2128  0.0702 -0.3778
29651SOL    HW190721   3.191   1.086   6.868 -0.3961  0.5286 -1.4414
29651SOL    HW290722   3.084   0.981   6.885 -0.1053  0.4442 -0.0494
29652SOL     OW90723   7.983   4.954   0.516 -0.9036  0.3696 -0.6188
29652SOL    HW190724   8.037   4.924   0.589 -0.4991 -0.4582 -1.2371
29652SOL    HW290725   8.045   4.996   0.456 -0.6471 -1.7201 -1.9514
29653SOL     OW90726   4.853   7.178   7.905 -0.3687  0.0167  0.0354
29653SOL    HW190727   4.787   7.246   7.890  0.0336  0.3777 -0.1094
29653SOL    HW290728   4.803   7.104   7.939 -0.7102  0.6480  0.9539
29654SOL     OW90729   7.088   3.011   3.544  0.1743  0.2354 -0.1152
29654SOL    HW190730   7.091   3.078   3.612 -0.2703  0.3799 -0.2300
29654SOL    HW290731   7.085   3.060   3.462  0.9905  0.0588 -0.2588
29655SOL     OW90732   0.062   1.339   2.084 -0.3294  0.4519  0.1086
29655SOL    HW190733   0.134   1.400   2.101 -0.4208  0.5218  0.2476
29655SOL    HW290734   0.103   1.267   2.036 -0.6452  1.6996 -2.1786
29656SOL     OW90735   2.301   0.043   4.850  0.2715  0.2487 -0.3753
29656SOL    HW190736   2.396   0.046   4.841  0.2635 -1.4570 -1.5597
29656SOL    HW290737   2.284   0.068   4.941  1.9998 -1.2264  0.3944
29657SOL     OW90738   4.607   0.201   6.502  0.6762 -0.2112  0.0098
29657SOL    HW190739   4.677   0.207   6.437  0.3396 -1.9004 -0.5592
29657SOL    HW290740   4.531   0.171   6.452  0.3611 -1.3777  1.1388
29658SOL     OW90741   4.056   7.249   0.214  0.5233  0.0842  0.4891
29658SOL    HW190742   3.994   7.188   0.255 -0.0391  0.7381  0.6398
29658SOL    HW290743   4.006   7.291   0.144  0.9515  0.2587  0.2831
29659SOL     OW90744   9.760   4.024   7.209  0.0469 -0.0178  0.0621
29659SOL    HW190745   9.673   4.063   7.212 -0.8106 -1.6733 -1.3289
29659SOL    HW290746   9.805   4.069   7.138 -0.1603 -0.0389 -0.0841
29660SOL     OW90747   6.792   4.150   1.867  0.0446 -0.1978  0.4759
29660SOL    HW190748   6.735   4.140   1.791  0.4056  1.7001 -0.0950
29660SOL    HW290749   6.842   4.229   1.849  0.7249 -0.1631  2.3335
29661SOL     OW90750   1.084   6.368   8.423 -0.1201  0.1379 -0.2872
29661SOL    HW190751   1.048   6.442   8.472 -1.2365  0.1819 -1.1453
29661SOL    HW290752   1.062   6.386   8.332 -0.1235 -1.0922 -0.5450
29662SOL     OW90753   2.136   6.015   4.727  0.0287 -0.0371 -0.0531
29662SOL    HW190754   2.090   6.011   4.644 -0.4037  0.0710  0.1766
29662SOL    HW290755   2.068   6.035   4.791  0.1938 -1.0700  0.4654
29663SOL     OW90756   2.304   2.931   6.900  0.3675 -0.4777 -0.5478
29663SOL    HW190757   2.378   2.872   6.891  0.9843  0.2440 -0.3562
29663SOL    HW290758   2.304   2.982   6.818 -0.4837 -1.0963 -0.9451
29664SOL     OW90759   4.313   8.143   3.150 -0.2303 -0.2066 -0.3759
29664SOL    HW190760   4.241   8.101   3.102  0.0934 -0.1990 -0.8856
29664SOL    HW290761   4.276   8.165   3.235 -0.3518 -1.7431  0.0024
29665SOL     OW90762   5.813   8.966   4.948  0.5957  0.2045  0.1831
29665SOL    HW190763   5.818   8.875   4.920 -0.2140  0.1662  0.1361
29665SOL    HW290764   5.834   8.964   5.041  1.5278  0.1035 -0.0169
29666SOL     OW90765   9.736   5.031   0.986  0.1303 -0.3538  0.3707
29666SOL    HW190766   9.736   5.126   0.992  0.8640 -0.3080 -0.2367
29666SOL    HW290767   9.728   5.001   1.077  1.5662  0.2878  0.7308
29667SOL     OW90768   6.251   1.990   5.512  0.5469 -0.3108  0.1450
29667SOL    HW190769   6.229   2.070   5.465  0.5437 -0.5621 -0.2801
29667SOL    HW290770   6.280   2.020   5.599 -0.4749  0.0831  0.3613
29668SOL     OW90771   1.274   3.097   5.677  0.3320  0.7960  0.2650
29668SOL    HW190772   1.218   3.022   5.697  0.0767  0.7046 -0.7595
29668SOL    HW290773   1.363   3.065   5.690  0.2110  0.4026  0.1251
29669SOL     OW90774   8.349   3.414   7.284  0.4147  0.1868  0.8078
29669SOL    HW190775   8.423   3.475   7.280 -0.1177  0.8046  0.1848
29669SOL    HW290776   8.309   3.419   7.197 -0.0162 -0.5833  0.9512
29670SOL     OW90777   1.574   9.037   7.260 -0.1956  0.2151 -0.2700
29670SOL    HW190778   1.630   9.114   7.258  0.1240  0.0090  0.2939
29670SOL    HW290779   1.630   8.966   7.228  0.2002 -0.1849  1.2318
29671SOL     OW90780   1.042   5.092   4.613  0.0160 -0.0197 -0.3109
29671SOL    HW190781   1.039   5.016   4.555 -0.4100 -0.4034  0.2080
29671SOL    HW290782   1.084   5.160   4.560  1.5123 -0.9429 -0.3908
29672SOL     OW90783   5.400   5.348   8.385  0.3345 -0.1758 -0.1858
29672SOL    HW190784   5.366   5.398   8.459  0.9974 -0.9865  0.6810
29672SOL    HW290785   5.340   5.274   8.375  0.1775 -0.0040 -0.5464
29673SOL     OW90786   1.414   5.139   9.848 -0.3753  0.0509 -0.0174
29673SOL    HW190787   1.429   5.231   9.872  0.8447 -0.1312  0.0191
29673SOL    HW290788   1.403   5.140   9.753 -4.6343  0.7032  0.3199
29674SOL     OW90789   2.756   7.353   9.276 -0.0844  0.1312  0.2194
29674SOL    HW190790   2.826   7.414   9.300 -1.6409  1.7976  0.7663
29674SOL    HW290791   2.788   7.308   9.199  2.8488 -1.3910  2.1659
29675SOL     OW90792   7.715   6.753   9.802 -0.1627 -0.2119 -0.2666
29675SOL    HW190793   7.655   6.681   9.820  0.3420 -0.6926 -0.4919
29675SOL    HW290794   7.658   6.830   9.797 -0.5933 -0.4304  0.9281
29676SOL     OW90795   6.941   6.790   5.416  0.3504  0.0399  0.3271
29676SOL    HW190796   6.858   6.771   5.372  0.6613 -1.3676  0.2852
29676SOL    HW290797   6.977   6.703   5.437  2.4768  0.5568 -0.8872
29677SOL     OW90798   2.534   4.835   3.877  0.5226 -0.3119  0.2447
29677SOL    HW190799   2.611   4.786   3.848  0.7745  0.6591 -0.8119
29677SOL    HW290800   2.462   4.772   3.873  1.4725 -1.7034  2.7938
29678SOL     OW90801   7.169   4.008   9.037 -0.5077  0.2505 -0.2001
29678SOL    HW190802   7.200   4.054   9.116 -0.3137  0.6958 -0.5239
29678SOL    HW290803   7.075   4.022   9.037 -0.1501  3.9428 -2.2314
29679SOL     OW90804   5.323   1.347   4.107 -0.4296 -0.1089 -0.2001
29679SOL    HW190805   5.325   1.442   4.116 -0.5106  0.0026 -1.2282
29679SOL    HW290806   5.404   1.324   4.062 -0.1331 -0.5999  0.5556
29680SOL     OW90807   2.786   5.616   6.805 -0.0694  0.0166 -0.4530
29680SOL    HW190808   2.775   5.670   6.727 -3.0287  0.4832  0.1601
29680SOL    HW290809   2.755   5.671   6.877  1.0658 -0.9676  0.8409
29681SOL     OW90810   0.617   1.826   0.725  0.6975  0.7994 -0.1486
29681SOL    HW190811   0.549   1.763   0.746  0.4680  1.0794 -0.0457
29681SOL    HW290812   0.678   1.821   0.799  0.3233  1.1878  0.1903
29682SOL     OW90813   1.441   0.925   4.136  0.3811 -0.6664 -0.3563
29682SOL    HW190814   1.493   0.961   4.065  0.6257 -1.0730 -0.3860
29682SOL    HW290815   1.468   0.833   4.142 -0.5959 -0.9776 -0.6118
29683SOL     OW90816   5.541   5.975   4.711  0.8165  0.4679 -0.2502
29683SOL    HW190817   5.633   5.998   4.706  0.7999  0.6609  0.2868
29683SOL    HW290818   5.516   5.993   4.802  0.1722  0.7322 -0.4677
29684SOL     OW90819   1.154   4.231   8.665 -0.2238  0.5478  0.6711
29684SOL    HW190820   1.128   4.274   8.746 -2.0595  0.0556  0.3953
29684SOL    HW290821   1.097   4.270   8.598 -0.7024 -1.0134  0.1207
29685SOL     OW90822   2.019   3.228   2.991  0.3158 -1.0671 -0.2546
29685SOL    HW190823   2.106   3.258   2.967  0.1030 -1.1586 -1.1536
29685SOL    HW290824   1.994   3.285   3.064  1.1424 -1.0812  0.0465
29686SOL     OW90825   4.391   0.137   4.585  0.1310 -0.2205  0.1200
29686SOL    HW190826   4.371   0.105   4.497 -0.0374  0.9650 -0.2826
29686SOL    HW290827   4.339   0.217   4.594 -1.4354 -1.3610  2.0651
29687SOL     OW90828   5.196   8.941   6.362  0.0791 -0.0257  0.7289
29687SOL    HW190829   5.158   8.916   6.446  0.9986 -1.0445  0.8702
29687SOL    HW290830   5.218   8.858   6.320  2.0629  0.4853  0.6417
29688SOL     OW90831   9.165   6.869   9.645  0.0738 -0.1470 -0.2039
29688SOL    HW190832   9.122   6.854   9.561  1.3885  0.3374 -0.9793
29688SOL    HW290833   9.092   6.887   9.705 -0.7950  1.4057 -1.6251
29689SOL     OW90834   2.893   2.130   3.197  0.4787  0.1717  0.1120
29689SOL    HW190835   2.895   2.071   3.122 -1.6973  1.5132 -1.1067
29689SOL    HW290836   2.959   2.196   3.178 -1.6420  1.8919 -1.9914
29690SOL     OW90837   2.739   6.110   1.752  0.5280  0.1060 -0.1244
29690SOL    HW190838   2.691   6.060   1.819 -1.6071 -0.1754 -1.7491
29690SOL    HW290839   2.779   6.042   1.697 -0.2017  0.2142 -0.8122
29691SOL     OW90840   3.577   1.696   5.379 -0.5010 -0.2182 -0.1633
29691SOL    HW190841   3.653   1.663   5.331 -0.4264  1.2284 -1.0966
29691SOL    HW290842   3.551   1.775   5.332 -1.7377  0.0866  0.9629
29692SOL     OW90843   7.802   8.553   6.361 -0.4212  0.5894  0.4083
29692SOL    HW190844   7.727   8.605   6.330 -0.8453  0.0499  0.5008
29692SOL    HW290845   7.879   8.599   6.328 -0.7868  1.2824  0.5039
29693SOL     OW90846   0.365   6.460   4.616  0.1486 -0.0160  0.2584
29693SOL    HW190847   0.443   6.503   4.580  0.0498 -0.6352 -0.7307
29693SOL    HW290848   0.393   6.427   4.701  1.3371 -1.2298 -0.5570
29694SOL     OW90849   3.885   0.236   5.322 -0.3913  0.1010 -0.3467
29694SOL    HW190850   3.842   0.239   5.408  0.2265  1.1623 -0.0719
29694SOL    HW290851   3.955   0.172   5.333  0.0224  0.6278  0.0948
29695SOL     OW90852   9.761   5.540   4.999  0.2811  0.5603 -0.3577
29695SOL    HW190853   9.716   5.534   5.084  0.3074 -1.8599 -0.4450
29695SOL    HW290854   9.816   5.618   5.007  0.1735  0.4872  1.7912
29696SOL     OW90855   4.148   6.394   1.106  0.5238  0.1838 -0.5169
29696SOL    HW190856   4.136   6.332   1.178 -1.2959 -2.1948 -2.6461
29696SOL    HW290857   4.074   6.454   1.112  0.1077 -0.3103 -0.6555
29697SOL     OW90858   8.043   3.026   4.573  0.3322 -0.0380 -0.3862
29697SOL    HW190859   8.130   2.987   4.585 -0.6392 -2.4527 -0.7987
29697SOL    HW290860   8.059   3.101   4.516  2.1108 -0.6512 -0.7766
29698SOL     OW90861   3.566   0.014   3.869  0.1221 -0.2370 -0.0389
29698SOL    HW190862   3.652   0.000   3.908 -0.0608  1.2337  0.9447
29698SOL    HW290863   3.504  -0.021   3.933 -0.0851  0.1300 -0.0395
29699SOL     OW90864   8.325   0.442   0.349 -0.5040  0.1938 -0.0806
29699SOL    HW190865   8.333   0.526   0.304  0.2978  0.2698  0.1880
29699SOL    HW290866   8.279   0.386   0.287 -1.6566  1.0100 -0.0058
29700SOL     OW90867   9.152   7.386   9.322  0.1164  0.8257 -0.1174
29700SOL    HW190868   9.225   7.411   9.265  0.6416 -0.2212  0.0588
29700SOL    HW290869   9.077   7.381   9.263  0.2881  1.4277 -0.3970
29701SOL     OW90870   6.459   3.015   9.813  0.1555  0.0721  0.2391
29701SOL    HW190871   6.522   2.982   9.877 -0.5597  1.9317  2.0115
29701SOL    HW290872   6.405   2.939   9.790  0.4947 -0.6737  1.7869
29702SOL     OW90873   7.226   8.972   6.375 -0.2018  0.3042  0.1204
29702SOL    HW190874   7.157   9.026   6.338 -0.1039  0.6890  0.4969
29702SOL    HW290875   7.308   9.013   6.347 -0.1182 -0.1984 -0.3958
29703SOL     OW90876   9.634   2.125   5.575  0.0371  0.9780 -0.0365
29703SOL    HW190877   9.673   2.181   5.508  0.5574  1.0036  0.2865
29703SOL    HW290878   9.629   2.181   5.653 -1.3611  1.2267 -0.2752
29704SOL     OW90879   8.586   2.145   5.038 -0.3108  0.6610  0.1144
29704SOL    HW190880   8.498   2.106   5.040  0.3894 -1.0809  3.2785
29704SOL    HW290881   8.635   2.089   4.977 -0.4685 -0.7999  1.2682
29705SOL     OW90882   3.185   2.441   4.548  0.1657  0.1164  0.1127
29705SOL    HW190883   3.108   2.483   4.509  1.6841  1.0508 -2.0997
29705SOL    HW290884   3.213   2.377   4.482  0.8110 -0.8351  1.2644
29706SOL     OW90885   9.616   8.614   0.575  0.8684  0.6334  0.3892
29706SOL    HW190886   9.685   8.679   0.557 -0.5112  1.6662 -1.5821
29706SOL    HW290887   9.551   8.660   0.627  0.4544  0.4585  0.0336
29707SOL     OW90888   4.365   9.681   8.135  0.5189 -0.0620 -0.5931
29707SOL    HW190889   4.428   9.652   8.201  0.7953  1.8797  0.0501
29707SOL    HW290890   4.417   9.704   8.059  0.4685  0.3428 -0.5063
29708SOL     OW90891   0.102   2.672   3.439  0.5184  0.5857  0.5152
29708SOL    HW190892   0.165   2.678   3.511 -0.9863 -2.7185  2.3038
29708SOL    HW290893   0.038   2.741   3.457  1.3336  1.2373  1.0267
29709SOL     OW90894   1.259   2.239   1.246  0.3191  0.0901 -0.6167
29709SOL    HW190895   1.234   2.279   1.330 -0.2480  0.3875 -0.9212
29709SOL    HW290896   1.250   2.310   1.182 -0.4250 -0.4335 -1.1202
29710SOL     OW90897   5.498   0.382   4.781  0.4658 -0.5411 -0.2106
29710SOL    HW190898   5.405   0.389   4.804  0.3713  0.2568 -0.7709
29710SOL    HW290899   5.518   0.465   4.738  1.1382 -1.1847 -1.1862
29711SOL     OW90900   5.687   8.429   6.923 -0.0884  0.0817 -0.4120
29711SOL    HW190901   5.712   8.487   6.995  0.8764  0.4089 -1.0031
29711SOL    HW290902   5.629   8.482   6.868 -1.0452 -0.2530  0.2462
29712SOL     OW90903   2.125   2.082   4.670  0.1463 -0.0672 -0.0292
29712SOL    HW190904   2.098   2.113   4.756  0.8336  1.3475 -0.3005
29712SOL    HW290905   2.114   2.157   4.612 -0.1426 -0.9419 -1.1626
29713SOL     OW90906   8.941   8.387   5.575  0.5024 -0.2721  0.3523
29713SOL    HW190907   9.012   8.360   5.634  0.6081 -0.7477  0.0187
29713SOL    HW290908   8.982   8.392   5.489  1.0417  3.2351  0.6756
29714SOL     OW90909   5.514   3.559   2.105  0.3807 -0.2710  0.2611
29714SOL    HW190910   5.465   3.629   2.150  0.9592  1.7196 -1.9793
29714SOL    HW290911   5.447   3.498   2.076 -0.1494 -0.7307  2.2571
29715SOL     OW90912   4.881   6.523   5.302  0.0019 -0.1771  0.1079
29715SOL    HW190913   4.880   6.478   5.387  0.5782  0.7981  0.6492
29715SOL    HW290914   4.883   6.452   5.238 -1.0566 -0.9375  0.8818
29716SOL     OW90915   9.833   9.778   6.982  0.0363  0.0605 -0.1540
29716SOL    HW190916   9.914   9.728   6.967  0.3918  0.7633 -0.6424
29716SOL    HW290917   9.787   9.772   6.898  0.5611  1.3857 -0.5661
29717SOL     OW90918   1.947   2.611   1.300 -0.5874  0.1955  0.0365
29717SOL    HW190919   2.008   2.626   1.372  1.0854 -1.2419 -0.9797
29717SOL    HW290920   1.885   2.683   1.305 -0.4905  0.1772  2.8425
29718SOL     OW90921   3.625   2.332   8.585  0.1047 -0.1688 -0.2185
29718SOL    HW190922   3.547   2.366   8.540  0.9373  1.0811 -0.7883
29718SOL    HW290923   3.608   2.349   8.677 -1.1982 -1.8620 -0.0948
29719SOL     OW90924   7.544   7.808   3.712 -0.1649 -0.5318  0.0463
29719SOL    HW190925   7.485   7.880   3.688  2.2676  1.0482 -1.6157
29719SOL    HW290926   7.574   7.830   3.800 -0.2159 -0.0398 -0.0551
29720SOL     OW90927   7.641   6.006   3.149 -0.6487 -0.2651 -0.1316
29720SOL    HW190928   7.551   5.979   3.166 -0.3271 -0.9117  0.5872
29720SOL    HW290929   7.666   5.957   3.071 -1.1532  0.4803 -0.7812
29721SOL     OW90930   5.286   7.012   4.892 -0.0313 -0.0073 -0.5345
29721SOL    HW190931   5.192   6.997   4.908 -0.1144  1.2913  0.4044
29721SOL    HW290932   5.290   7.098   4.852  0.8322  0.4644  0.5210
29722SOL     OW90933   5.180   0.009   1.864  0.3683  0.1618 -0.5025
29722SOL    HW190934   5.260   0.014   1.918  0.1568  2.3818 -0.2968
29722SOL    HW290935   5.142  -0.076   1.886  1.5422 -0.0176  1.0538
29723SOL     OW90936   5.564   2.491   4.328  0.5992  0.2580  0.0428
29723SOL    HW190937   5.534   2.402   4.312  0.2436  0.1615  1.1770
29723SOL    HW290938   5.660   2.485   4.327  0.5832  0.0824 -0.9943
29724SOL     OW90939   1.388   0.190   9.055  0.1393  0.5309  0.1995
29724SOL    HW190940   1.392   0.150   9.142 -1.9521 -0.3938 -0.0822
29724SOL    HW290941   1.317   0.253   9.060 -2.6218 -2.1405 -1.7493
29725SOL     OW90942   0.344   0.252   9.289 -0.0239  0.2023 -0.6963
29725SOL    HW190943   0.260   0.298   9.285  0.2903  0.7101 -1.7499
29725SOL    HW290944   0.369   0.241   9.198  0.5593 -0.8817 -0.4193
29726SOL     OW90945   0.866   4.325   4.777 -0.6172  0.0860 -0.6367
29726SOL    HW190946   0.806   4.280   4.718  0.5768 -0.2856 -1.6090
29726SOL    HW290947   0.845   4.289   4.864 -1.0494 -0.8361 -1.1078
29727SOL     OW90948   5.493   9.794   4.783 -0.2304  0.4093 -0.2387
29727SOL    HW190949   5.555   9.725   4.758 -2.5881 -1.2318 -2.0387
29727SOL    HW290950   5.520   9.870   4.731  0.4992 -0.1515 -0.7053
29728SOL     OW90951   8.693   5.642   8.121  0.1882 -0.0574  0.1399
29728SOL    HW190952   8.649   5.708   8.068  2.4196  1.2975 -0.1425
29728SOL    HW290953   8.763   5.689   8.166  0.9137 -1.9555  1.1407
29729SOL     OW90954   2.077   7.391   5.350  0.2066  0.2151 -0.0064
29729SOL    HW190955   2.120   7.395   5.436  0.4628  1.5599 -0.1768
29729SOL    HW290956   2.121   7.319   5.305  0.3072 -0.2773  0.8580
29730SOL     OW90957   9.654   2.512   9.821 -0.7942  0.3831 -0.1753
29730SOL    HW190958   9.600   2.590   9.810  1.7002  1.9308 -2.6006
29730SOL    HW290959   9.635   2.459   9.743  0.6033  0.6130 -0.6907
29731SOL     OW90960   7.306   3.055   9.150  0.1537  0.2732  0.3971
29731SOL    HW190961   7.212   3.059   9.168 -0.0124  1.6238 -0.6353
29731SOL    HW290962   7.311   3.049   9.054  1.1210  1.2492  0.3741
29732SOL     OW90963   1.489   1.576   8.475 -0.4874 -0.4090 -0.0934
29732SOL    HW190964   1.463   1.634   8.547  0.4359 -0.3579  0.2075
29732SOL    HW290965   1.418   1.512   8.469 -0.2282 -0.8513  1.3467
29733SOL     OW90966   2.797   3.295   8.740  0.0649  0.5523  0.2188
29733SOL    HW190967   2.876   3.345   8.718  1.1086 -0.9756  0.3286
29733SOL    HW290968   2.808   3.212   8.695 -0.9421 -0.1105  1.1486
29734SOL     OW90969   4.474   9.788   1.773 -0.0324  0.1034 -0.4107
29734SOL    HW190970   4.469   9.703   1.818  1.0205 -0.3615 -1.1549
29734SOL    HW290971   4.565   9.816   1.784  0.2796 -0.0624 -2.3021
29735SOL     OW90972   4.249   0.354   4.448 -0.3930  0.4031 -0.4091
29735SOL    HW190973   4.224   0.441   4.479  2.0056  0.3229  2.1598
29735SOL    HW290974   4.316   0.372   4.381 -0.1895  0.5518 -0.1683
29736SOL     OW90975   4.688   8.642   3.502  0.0342 -0.0664  0.3442
29736SOL    HW190976   4.637   8.634   3.421  2.8805 -1.7592 -1.4743
29736SOL    HW290977   4.772   8.679   3.474  0.5146  0.9530  2.8679
29737SOL     OW90978   8.031   9.553   8.227  0.3698 -0.6800 -0.0152
29737SOL    HW190979   7.978   9.589   8.156 -1.8948  0.5725  2.1418
29737SOL    HW290980   8.095   9.622   8.247  1.9227 -1.5804 -1.6281
29738SOL     OW90981   6.086   7.369   3.296 -0.5795 -0.6654  0.0741
29738SOL    HW190982   6.180   7.384   3.298 -0.6291 -0.2296  2.0131
29738SOL    HW290983   6.070   7.309   3.369 -2.0910  1.7531  1.9013
29739SOL     OW90984   5.479   7.317   5.460 -0.0634  0.4509  0.6806
29739SOL    HW190985   5.403   7.366   5.429 -0.6235 -0.9077 -0.2102
29739SOL    HW290986   5.455   7.291   5.549 -0.0991  1.1116  0.8664
29740SOL     OW90987   7.312   0.726   4.817  0.9032  0.0751 -0.6931
29740SOL    HW190988   7.217   0.713   4.811  0.7945  0.5978 -0.2317
29740SOL    HW290989   7.333   0.777   4.739  0.4834  1.6041  0.1525
29741SOL     OW90990   5.187   8.481   8.004  0.0602 -0.2408  0.0442
29741SOL    HW190991   5.192   8.430   7.923  2.4913 -1.5194  0.8930
29741SOL    HW290992   5.278   8.501   8.025 -0.5533  0.6352  2.1357
29742SOL     OW90993   0.711   7.287   8.983  0.2300  0.2383  0.2143
29742SOL    HW190994   0.654   7.256   9.053 -0.4395  0.7866 -0.0768
29742SOL    HW290995   0.713   7.216   8.919  0.3475 -0.0146  0.5001
29743SOL     OW90996   9.087   8.399   4.087  0.0052  0.1326  0.0986
29743SOL    HW190997   9.162   8.340   4.073  1.5215  1.9531  0.1070
29743SOL    HW290998   9.058   8.422   3.999 -2.6427 -2.9286  0.0012
29744SOL     OW90999   7.276   5.136   3.415  1.0376  0.3306  0.2559
29744SOL    HW191000   7.307   5.222   3.444  0.9356  0.3741  0.2382
29744SOL    HW291001   7.309   5.127   3.326  0.8630  0.4470  0.1782
29745SOL     OW91002   3.746   2.032   1.353  0.5614 -0.1223 -0.1852
29745SOL    HW191003   3.695   1.951   1.362  1.5784 -0.9400 -1.4760
29745SOL    HW291004   3.837   2.004   1.359  0.9076  1.1640  0.9002
29746SOL     OW91005   4.645   7.471   9.079 -0.0717  0.4022  0.3059
29746SOL    HW191006   4.698   7.550   9.091 -1.4922  1.4682 -0.1029
29746SOL    HW291007   4.625   7.470   8.985  1.0176 -1.2045  0.0547
29747SOL     OW91008   8.455   5.524   6.899  0.1064  0.0428 -0.4134
29747SOL    HW191009   8.387   5.535   6.831 -0.0613 -1.0053 -0.4356
29747SOL    HW291010   8.420   5.571   6.975 -0.3297  0.0852 -0.6332
29748SOL     OW91011   1.056   9.284   3.785  0.2527  0.3260  0.0252
29748SOL    HW191012   1.096   9.333   3.857 -0.0157 -0.0179  0.4107
29748SOL    HW291013   1.076   9.336   3.707 -1.3028  1.8647  0.5804
29749SOL     OW91014   5.929   2.160   0.104 -0.3037 -0.1297 -0.5081
29749SOL    HW191015   5.996   2.152   0.173 -1.4571  0.4790  0.7259
29749SOL    HW291016   5.951   2.091   0.041  2.2053  0.8202 -0.7956
29750SOL     OW91017   1.384   5.128   2.317  0.5242  0.2636 -0.1030
29750SOL    HW191018   1.393   5.133   2.222 -2.0798  0.0688 -0.4232
29750SOL    HW291019   1.431   5.205   2.349  1.5234  0.2851 -1.5132
29751SOL     OW91020   9.058   1.423   6.202  0.2166 -0.0947  0.0307
29751SOL    HW191021   9.042   1.513   6.229 -0.3822  0.4506 -2.0125
29751SOL    HW291022   8.971   1.382   6.201  0.3673 -0.4168 -0.0056
29752SOL     OW91023   6.731   8.587   0.180 -0.2564 -0.4081 -0.1386
29752SOL    HW191024   6.798   8.549   0.236 -1.5300 -0.4235  1.4559
29752SOL    HW291025   6.648   8.557   0.218 -1.1919 -0.6655 -2.2283
29753SOL     OW91026   2.918   7.302   4.613  0.3019  0.2415 -0.2014
29753SOL    HW191027   2.946   7.393   4.602  0.0253  0.2534 -0.8338
29753SOL    HW291028   3.000   7.253   4.616  0.4422  0.4696 -0.2392
29754SOL     OW91029   9.103   3.236   7.105  0.0471 -0.3093 -0.1149
29754SOL    HW191030   9.126   3.257   7.195 -0.2340  0.0708 -0.1276
29754SOL    HW291031   9.186   3.223   7.060  0.1858 -0.5520  0.2096
29755SOL     OW91032   5.409   7.370   5.913 -0.4452  0.4245  0.5464
29755SOL    HW191033   5.445   7.324   5.837 -0.6204  0.1977  0.5995
29755SOL    HW291034   5.314   7.370   5.898 -0.4611  0.5907  0.6473
29756SOL     OW91035   6.250   6.568   0.437 -0.0826  0.2033  0.0111
29756SOL    HW191036   6.321   6.556   0.500 -1.8143 -0.5382  1.9146
29756SOL    HW291037   6.233   6.662   0.439  0.0108  0.2113  0.4776
29757SOL     OW91038   4.742   3.642   8.912  0.0117  0.2515  0.3703
29757SOL    HW191039   4.650   3.667   8.902 -0.5122 -1.9724 -1.0805
29757SOL    HW291040   4.782   3.662   8.828  0.6981  0.4770  0.7360
29758SOL     OW91041   4.269   2.007   1.222  0.1272  0.2019  0.0366
29758SOL    HW191042   4.351   2.054   1.208 -0.3374  0.9998 -0.1002
29758SOL    HW291043   4.229   2.002   1.135  0.4636 -1.0251 -0.0591
29759SOL     OW91044   3.884   5.821   1.199 -0.2535  0.4310  0.2708
29759SOL    HW191045   3.862   5.809   1.292 -2.2092 -1.0468 -0.3212
29759SOL    HW291046   3.858   5.911   1.181  0.0985  0.7220  1.1432
29760SOL     OW91047   7.529   2.926   3.955  0.4204  0.5561  0.3997
29760SOL    HW191048   7.525   3.008   4.005  0.7529  0.4553  0.5947
29760SOL    HW291049   7.440   2.914   3.922 -0.1485 -0.0629  2.0611
29761SOL     OW91050   9.285   4.274   7.201  0.0538 -0.0754  0.4586
29761SOL    HW191051   9.228   4.347   7.223  0.2144  0.7710 -1.7314
29761SOL    HW291052   9.244   4.198   7.243  0.1867  1.2915  3.2414
29762SOL     OW91053   3.609   9.230   3.192  0.0177  0.2054  0.0618
29762SOL    HW191054   3.673   9.174   3.236  1.4515  0.7141 -1.2794
29762SOL    HW291055   3.660   9.306   3.163 -1.5222  1.3585  0.2855
29763SOL     OW91056   8.784   5.095   8.000  0.3915 -0.1878  0.5289
29763SOL    HW191057   8.770   5.143   8.082  1.3413 -1.1899  1.3049
29763SOL    HW291058   8.842   5.152   7.949 -0.8894  0.8315  0.1701
29764SOL     OW91059   7.717   9.459   0.941 -0.4139 -0.6297 -0.1470
29764SOL    HW191060   7.647   9.399   0.969 -2.9529  1.6889 -1.0205
29764SOL    HW291061   7.734   9.513   1.018 -0.1997 -0.6318 -0.1927
29765SOL     OW91062   2.035   1.983   1.332 -0.5639 -0.1231  0.0333
29765SOL    HW191063   2.094   2.030   1.391  0.3102 -1.2396  0.0940
29765SOL    HW291064   1.948   2.019   1.350 -0.0902  0.6331  0.8850
29766SOL     OW91065   6.548   9.539   9.682  0.8182  0.5390 -0.1559
29766SOL    HW191066   6.478   9.530   9.618  2.4686  0.7482 -2.0708
29766SOL    HW291067   6.581   9.450   9.694 -0.1638  0.3291  1.2811
29767SOL     OW91068   0.841   4.984   2.357 -0.0333  0.7995  0.4701
29767SOL    HW191069   0.786   4.907   2.345  0.7598  0.0467  1.5291
29767SOL    HW291070   0.816   5.019   2.442  0.6202  0.8701  0.6362
29768SOL     OW91071   3.656   7.218   8.197  0.1090 -0.5582 -0.3010
29768SOL    HW191072   3.642   7.140   8.251  0.5612  0.0692  0.7538
29768SOL    HW291073   3.669   7.184   8.109 -3.6545 -1.4746 -0.6827
29769SOL     OW91074   8.601   1.646   8.039 -0.0127 -0.2616  0.0300
29769SOL    HW191075   8.615   1.738   8.019  0.5019 -0.6345 -1.4187
29769SOL    HW291076   8.568   1.608   7.958 -2.7726 -0.8637  1.3150
29770SOL     OW91077   2.571   7.247   0.302  0.7357 -0.3372  0.1477
29770SOL    HW191078   2.657   7.215   0.274  1.5694  1.0257  1.0453
29770SOL    HW291079   2.545   7.308   0.233 -0.0283 -1.5409 -0.6596
29771SOL     OW91080   0.811   9.175   7.678 -0.1926  0.0066  0.0294
29771SOL    HW191081   0.796   9.233   7.753 -0.2004  0.6658 -0.4751
29771SOL    HW291082   0.724   9.157   7.644 -0.1307  0.5645 -0.4502
29772SOL     OW91083   5.698   1.376   7.662  0.3043 -0.1717  0.0977
29772SOL    HW191084   5.781   1.362   7.616  1.0239  1.1193  0.9276
29772SOL    HW291085   5.632   1.335   7.606  1.4060 -0.5353 -0.9764
29773SOL     OW91086   2.256   4.584   9.126 -0.6459  0.1040 -0.2432
29773SOL    HW191087   2.221   4.517   9.067  0.1471 -0.8925  0.3776
29773SOL    HW291088   2.282   4.535   9.204 -0.1520  1.1657  0.2746
29774SOL     OW91089   9.298   8.255   5.973  1.2098  0.0746 -0.3408
29774SOL    HW191090   9.392   8.262   5.952  1.3132  2.6530  0.6523
29774SOL    HW291091   9.272   8.344   5.995 -1.3894 -0.6842 -0.0638
29775SOL     OW91092   1.108   7.386   5.796  0.6683  0.1433 -0.5515
29775SOL    HW191093   1.081   7.478   5.789 -1.3143 -0.4240 -0.9600
29775SOL    HW291094   1.128   7.374   5.888  0.1624  0.7884 -0.3504
29776SOL     OW91095   9.201   3.771   1.187 -0.2684  0.0291 -0.0821
29776SOL    HW191096   9.228   3.839   1.125 -1.0812 -0.0954 -0.5866
29776SOL    HW291097   9.151   3.818   1.253 -1.2840 -0.1448 -0.7176
29777SOL     OW91098   2.923   6.780   1.498  0.6068 -0.4519  0.7847
29777SOL    HW191099   2.984   6.714   1.464  0.7417  0.0706 -0.0327
29777SOL    HW291100   2.844   6.730   1.521  0.9642 -0.9954  0.8574
29778SOL     OW91101   8.303   5.137   5.063 -0.1330 -0.1219  0.2942
29778SOL    HW191102   8.281   5.060   5.115 -2.1883  0.1005 -0.1254
29778SOL    HW291103   8.294   5.211   5.123  0.1820 -0.0883  0.2975
29779SOL     OW91104   5.284   7.978   2.698  0.1679 -0.0656  0.5228
29779SOL    HW191105   5.264   8.037   2.625  2.0224  0.4741  0.4080
29779SOL    HW291106   5.214   7.912   2.694  0.5504 -0.4272 -2.1598
29780SOL     OW91107   5.324   2.208   2.215  0.0002 -0.1543  0.2712
29780SOL    HW191108   5.294   2.248   2.297 -1.6873  0.1395 -0.4532
29780SOL    HW291109   5.244   2.181   2.171  0.8710 -0.2319 -1.3332
29781SOL     OW91110   6.926   1.473   4.586  0.0676 -0.4963  0.6185
29781SOL    HW191111   6.840   1.479   4.630 -0.1882  1.6439 -0.0575
29781SOL    HW291112   6.929   1.550   4.530  1.3831 -1.9123 -1.3692
29782SOL     OW91113   3.647   4.115   6.785  0.2710  0.7044 -0.9273
29782SOL    HW191114   3.661   4.065   6.865 -1.7303  1.1872 -0.1994
29782SOL    HW291115   3.653   4.050   6.715 -1.9983 -0.6258 -0.0224
29783SOL     OW91116   3.731   9.074   3.938 -0.6428  0.1721  0.5305
29783SOL    HW191117   3.639   9.085   3.914 -0.2344  1.4074 -0.6051
29783SOL    HW291118   3.776   9.146   3.894  1.5356 -2.9237 -3.0110
29784SOL     OW91119   2.723   7.195   7.257  0.6401  0.2908 -0.0555
29784SOL    HW191120   2.815   7.199   7.284  0.2305  1.6481  1.3098
29784SOL    HW291121   2.686   7.124   7.310  0.9566 -0.4622 -0.8310
29785SOL     OW91122   2.507   8.255   0.815 -0.4588  0.4700 -0.5884
29785SOL    HW191123   2.516   8.167   0.852  0.8544  0.8884  0.1701
29785SOL    HW291124   2.556   8.251   0.733 -1.3993  0.1895 -1.1549
29786SOL     OW91125   5.884   7.518   8.391  0.0626 -0.5783  0.1785
29786SOL    HW191126   5.821   7.516   8.320 -2.1421 -0.0397  2.0091
29786SOL    HW291127   5.877   7.431   8.432 -1.1082  0.1726  1.6643
29787SOL     OW91128   5.306   5.962   7.156 -0.0082  0.5314 -0.3103
29787SOL    HW191129   5.245   5.947   7.083  0.1326 -2.5267  0.0752
29787SOL    HW291130   5.250   5.992   7.228 -0.8521 -0.5435 -0.4860
29788SOL     OW91131   2.196   4.293   9.338  0.6322 -0.0871 -0.4302
29788SOL    HW191132   2.193   4.248   9.422 -1.7753  0.5762 -0.0781
29788SOL    HW291133   2.199   4.386   9.360 -0.9330  0.1388 -0.9980
29789SOL     OW91134   4.115   2.651   4.647  0.1224  0.1623 -0.2300
29789SOL    HW191135   4.034   2.678   4.691 -0.2306 -1.5664  0.2472
29789SOL    HW291136   4.091   2.643   4.555  0.2305  1.3875 -0.3810
29790SOL     OW91137   8.662   8.725   6.899  0.7493 -0.2084  0.4848
29790SOL    HW191138   8.754   8.698   6.901  0.7244 -0.2665  1.4615
29790SOL    HW291139   8.613   8.644   6.889  0.7492 -0.3856  1.7025
29791SOL     OW91140   6.726   0.188   1.685 -0.4544  0.5645 -0.3703
29791SOL    HW191141   6.748   0.277   1.659 -0.6478  0.3481 -1.3149
29791SOL    HW291142   6.631   0.188   1.690 -0.4537  0.4146 -0.3618
29792SOL     OW91143   8.878   8.075   9.698 -0.0341  0.0950 -0.1271
29792SOL    HW191144   8.823   8.149   9.723  0.8443  0.6122  0.3408
29792SOL    HW291145   8.950   8.076   9.761  0.1772 -0.9524 -0.3256
29793SOL     OW91146   3.411   6.140   4.782  0.2715  0.2715  0.6320
29793SOL    HW191147   3.494   6.166   4.742  1.0719  0.7377  2.5123
29793SOL    HW291148   3.347   6.200   4.744  1.1243  1.1881  0.5833
29794SOL     OW91149   8.713   5.036   3.639  0.2844 -0.2332 -0.0693
29794SOL    HW191150   8.679   5.045   3.728 -0.1293  0.4969 -0.2907
29794SOL    HW291151   8.782   5.103   3.632  1.3890 -1.3041  0.1839
29795SOL     OW91152   4.606   4.837   8.308 -0.2680 -0.1207 -0.1634
29795SOL    HW191153   4.544   4.904   8.336 -0.4446 -0.5134  0.4162
29795SOL    HW291154   4.573   4.808   8.223  0.3729  1.2113 -0.8860
29796SOL     OW91155   4.817   2.397   8.003  0.2152  0.2747 -0.2422
29796SOL    HW191156   4.842   2.329   7.941  1.0432  1.1246 -0.8692
29796SOL    HW291157   4.897   2.414   8.053 -0.4389 -0.4171  1.1152
29797SOL     OW91158   9.449   8.871   5.618 -0.4005  0.9415  0.4204
29797SOL    HW191159   9.481   8.880   5.529 -0.2698  3.6494  0.6723
29797SOL    HW291160   9.355   8.861   5.609 -0.2220 -0.7037 -0.0411
29798SOL     OW91161   5.983   8.914   1.954 -0.5196  0.3350  0.4276
29798SOL    HW191162   5.973   8.876   2.042  1.3715  0.5155  0.7754
29798SOL    HW291163   6.046   8.986   1.966 -0.3090  0.4295 -1.0509
29799SOL     OW91164   6.339   2.553   6.144 -0.3052 -0.0986  0.1400
29799SOL    HW191165   6.312   2.586   6.230  1.2571 -0.2126  0.7103
29799SOL    HW291166   6.321   2.459   6.148  2.2199 -0.6493  1.4599
29800SOL     OW91167   4.907   0.683   5.495  0.0598  0.1720  0.5068
29800SOL    HW191168   4.822   0.646   5.518 -0.1587  1.0781  1.1967
29800SOL    HW291169   4.890   0.777   5.484  1.0557  0.4244  1.0783
29801SOL     OW91170   8.914   0.942   1.925  0.3274  0.3045  0.2730
29801SOL    HW191171   8.946   1.015   1.978 -0.8312  0.6248  0.5628
29801SOL    HW291172   8.950   0.864   1.968 -0.0915  0.5966  1.1875
29802SOL     OW91173   6.373   4.560   2.299  0.3757  0.1642 -0.1003
29802SOL    HW191174   6.416   4.646   2.296 -1.4971  1.1461 -0.2943
29802SOL    HW291175   6.394   4.526   2.386  1.4439  0.6307 -0.1498
29803SOL     OW91176   5.699   3.433   8.289  0.4067 -0.1200 -0.3862
29803SOL    HW191177   5.762   3.446   8.360 -0.1635  0.2289  0.0698
29803SOL    HW291178   5.694   3.517   8.245  1.9930 -0.7720 -1.9100
29804SOL     OW91179   9.633   4.126   6.250 -0.0734 -0.0084 -0.1214
29804SOL    HW191180   9.699   4.152   6.315 -0.0757  0.5051 -0.3210
29804SOL    HW291181   9.673   4.052   6.204 -0.3290 -0.7942  0.8792
29805SOL     OW91182   3.858   4.662   0.402 -0.2035  0.2673  0.5546
29805SOL    HW191183   3.848   4.567   0.414  0.7728  0.3080  1.9318
29805SOL    HW291184   3.875   4.673   0.309 -0.7925 -0.8759  0.3027
29806SOL     OW91185   1.546   9.753   7.881  0.6608  0.4449 -0.6557
29806SOL    HW191186   1.586   9.804   7.811  0.9426 -1.5945 -2.0434
29806SOL    HW291187   1.488   9.691   7.837 -0.0706 -0.1159  0.9953
29807SOL     OW91188   7.182   8.397   5.643  0.7618 -0.3016 -0.2270
29807SOL    HW191189   7.245   8.391   5.714  1.2604  1.2366 -0.4959
29807SOL    HW291190   7.128   8.473   5.665  1.9720  1.2292 -2.2482
29808SOL     OW91191   6.858   8.447   0.365 -0.0278 -0.0735  0.3900
29808SOL    HW191192   6.953   8.446   0.352  0.2329  0.7904  2.0246
29808SOL    HW291193   6.834   8.356   0.377  0.7424 -0.2118  0.9356
29809SOL     OW91194   5.595   4.508   5.134 -0.1909 -0.3358  0.4268
29809SOL    HW191195   5.570   4.597   5.108 -1.0652 -0.9323 -0.8822
29809SOL    HW291196   5.592   4.509   5.229 -0.3604  0.9931  0.4259
29810SOL     OW91197   4.867   3.098   9.429 -0.2479  0.0247  0.0441
29810SOL    HW191198   4.909   3.122   9.512 -2.5211  1.8535  0.7639
29810SOL    HW291199   4.812   3.023   9.450  1.1950 -1.2289 -0.4887
29811SOL     OW91200   6.546   0.508   0.072  0.2948 -0.1025 -0.6338
29811SOL    HW191201   6.568   0.591   0.114  1.9549 -0.1827 -1.2723
29811SOL    HW291202   6.574   0.519  -0.019  2.5442 -2.0613 -0.2614
29812SOL     OW91203   9.065   0.751   3.413 -0.0036 -0.0887  0.1598
29812SOL    HW191204   9.143   0.783   3.367 -0.1888  0.0622 -0.0510
29812SOL    HW291205   9.090   0.663   3.443  0.5420  0.2870  0.8290
29813SOL     OW91206   8.975   3.355   5.960 -0.3861 -0.3753  0.6321
29813SOL    HW191207   9.002   3.397   6.042 -3.1424  0.6727  1.1177
29813SOL    HW291208   8.980   3.261   5.979 -1.6470 -0.1538  2.3236
29814SOL     OW91209   3.415   6.600   3.645  0.2909  0.1790  0.4076
29814SOL    HW191210   3.444   6.677   3.693  1.0983  0.3560 -0.3278
29814SOL    HW291211   3.368   6.547   3.709  1.4391  0.3535  1.4189
29815SOL     OW91212   1.113   4.034   8.424  0.0415  0.2465  0.8639
29815SOL    HW191213   1.040   4.024   8.363 -0.2831  0.6334  1.1829
29815SOL    HW291214   1.095   3.970   8.493  0.4470 -0.2420  0.5236
29816SOL     OW91215   5.360   0.712   7.715 -0.3696 -0.5687 -0.6735
29816SOL    HW191216   5.412   0.774   7.766 -0.6753  0.0513 -1.1090
29816SOL    HW291217   5.284   0.693   7.770  0.6424 -2.0520  0.2939
29817SOL     OW91218   5.121   5.262   0.591  0.6444  0.6317  0.2768
29817SOL    HW191219   5.089   5.198   0.528 -0.5115  1.1442  0.3220
29817SOL    HW291220   5.185   5.314   0.542  1.2952 -0.2977  0.1315
29818SOL     OW91221   4.058   3.438   1.455  0.0069 -0.0457 -0.7599
29818SOL    HW191222   3.991   3.496   1.493  0.8898 -0.1133  1.0454
29818SOL    HW291223   4.116   3.418   1.529  0.7498 -1.7930 -1.7567
29819SOL     OW91224   3.742   2.727   1.365 -0.0285 -0.0703 -0.5285
29819SOL    HW191225   3.675   2.753   1.429  1.6294 -0.6937  1.5575
29819SOL    HW291226   3.751   2.633   1.377  0.3679 -0.1914 -1.6726
29820SOL     OW91227   0.374   1.096   6.556 -0.5434  1.0605  0.1137
29820SOL    HW191228   0.349   1.117   6.646  0.3927  1.8328  0.2158
29820SOL    HW291229   0.291   1.090   6.509 -1.1295 -0.8844  1.3192
29821SOL     OW91230   6.876   6.611   8.314  0.4424 -0.8044  0.4212
29821SOL    HW191231   6.868   6.639   8.405  0.4266 -1.0638  0.4976
29821SOL    HW291232   6.819   6.671   8.266 -0.2859 -1.2666  0.6983
29822SOL     OW91233   6.022   8.104   9.356 -0.2751  0.1421 -0.5904
29822SOL    HW191234   6.116   8.108   9.371 -0.4257 -0.4658  0.7580
29822SOL    HW291235   5.983   8.127   9.441 -1.3182 -0.3509 -0.9079
29823SOL     OW91236   5.107   1.147   4.031  0.1188 -0.4108 -0.6421
29823SOL    HW191237   5.134   1.239   4.031  1.1370 -0.6996 -1.0195
29823SOL    HW291238   5.078   1.132   4.121  2.3080 -0.3663  0.1397
29824SOL     OW91239   1.051   3.040   6.112 -0.4912  0.7983  0.1616
29824SOL    HW191240   1.127   3.066   6.162  0.5078  2.6068 -2.1124
29824SOL    HW291241   1.063   2.946   6.096  1.2137  1.0314 -0.0521
29825SOL     OW91242   4.278   3.625   3.959  0.8049 -0.4471  0.4163
29825SOL    HW191243   4.326   3.559   3.909  0.5692 -0.4219  0.1550
29825SOL    HW291244   4.281   3.703   3.903  0.8390 -0.3185  0.5973
29826SOL     OW91245   7.280   5.340   5.387 -0.0089 -0.3901 -0.0569
29826SOL    HW191246   7.290   5.421   5.337 -1.2904 -1.5583 -2.3678
29826SOL    HW291247   7.341   5.279   5.347 -0.6628 -1.1979  0.1354
29827SOL     OW91248   5.906   1.778   1.036 -0.5061  0.0096 -0.6565
29827SOL    HW191249   5.886   1.857   0.985  0.9280  0.2357 -0.9132
29827SOL    HW291250   6.002   1.770   1.031 -0.3655 -0.2823  1.5411
29828SOL     OW91251   8.409   5.800   4.829  0.3906  0.3863 -0.6144
29828SOL    HW191252   8.404   5.786   4.923  0.8538 -1.9708 -0.8915
29828SOL    HW291253   8.332   5.854   4.809  0.1321  0.6783  1.0518
29829SOL     OW91254   0.039   9.051   2.814  0.5261 -0.0011  0.5653
29829SOL    HW191255  -0.031   9.113   2.793  0.7595  0.4887  1.2049
29829SOL    HW291256   0.114   9.082   2.762 -0.1406 -1.4898 -1.4303
29830SOL     OW91257   1.127   1.031   3.340  0.1688  0.3553 -0.0515
29830SOL    HW191258   1.120   0.970   3.414  0.1607  0.2959 -0.1018
29830SOL    HW291259   1.083   1.111   3.371  1.3082  0.7953  0.5103
29831SOL     OW91260   9.051   4.602   1.827 -0.3073  0.4419 -0.3935
29831SOL    HW191261   9.021   4.682   1.871 -0.4160 -0.1040  0.5538
29831SOL    HW291262   9.040   4.621   1.734  0.7487  1.9575 -0.2540
29832SOL     OW91263   2.861   6.481   9.070  0.3213 -0.2162  0.7807
29832SOL    HW191264   2.789   6.502   9.010 -1.1486 -1.1873  2.1279
29832SOL    HW291265   2.939   6.512   9.024 -0.7701 -0.4669 -1.4121
29833SOL     OW91266   0.782   3.447   3.144 -0.2284  0.0676 -1.0415
29833SOL    HW191267   0.810   3.390   3.216  1.1339  0.6623 -1.0755
29833SOL    HW291268   0.828   3.413   3.067 -1.8182 -0.6842 -1.7264
29834SOL     OW91269   7.815   8.909   7.522 -0.1760 -0.1736 -0.4132
29834SOL    HW191270   7.847   8.820   7.508 -1.1478 -1.0154  2.0955
29834SOL    HW291271   7.765   8.930   7.443 -0.3686 -2.0866 -0.8473
29835SOL     OW91272   6.611   2.895   3.632  0.0334 -0.7758 -0.5544
29835SOL    HW191273   6.665   2.817   3.646  1.0898  0.1855  0.9257
29835SOL    HW291274   6.558   2.902   3.712 -0.2913 -0.1457 -0.8222
29836SOL     OW91275   7.487   3.172   1.880  0.1545 -0.0316  0.1604
29836SOL    HW191276   7.493   3.259   1.840  2.0235 -0.7233 -1.1788
29836SOL    HW291277   7.426   3.125   1.824  1.4872 -0.4836 -0.9600
29837SOL     OW91278   1.146   2.812   2.095  0.2365 -0.0628 -0.3872
29837SOL    HW191279   1.215   2.815   2.029  0.4850 -0.4072 -0.1445
29837SOL    HW291280   1.179   2.753   2.162 -0.7282 -1.0942 -0.7762
29838SOL     OW91281   6.803   0.228   4.381  0.6282 -0.2502  0.3906
29838SOL    HW191282   6.739   0.167   4.344 -0.4120  1.6717 -1.1824
29838SOL    HW291283   6.750   0.298   4.420  1.7826  0.1759  1.2620
29839SOL     OW91284   8.944   7.264   0.326  0.1531  0.4342  0.3268
29839SOL    HW191285   8.866   7.314   0.300  1.2470  1.7901 -0.4833
29839SOL    HW291286   8.918   7.173   0.314 -1.5481  0.8187  0.7851
29840SOL     OW91287   4.289   8.112   6.854 -0.2867  0.1455  0.4492
29840SOL    HW191288   4.370   8.115   6.803  0.1466  0.1064  1.1177
29840SOL    HW291289   4.304   8.172   6.927 -0.5802 -0.4114  0.9804
29841SOL     OW91290   7.066   1.016   8.538  0.2502  0.2756 -0.1544
29841SOL    HW191291   7.153   1.056   8.527  0.6105 -0.4273  0.0783
29841SOL    HW291292   7.014   1.084   8.580  0.7791  0.5999 -0.0100
29842SOL     OW91293   8.044   7.383   8.771 -0.5670 -0.3873  0.2861
29842SOL    HW191294   8.089   7.299   8.786 -1.7662 -1.1377 -0.1364
29842SOL    HW291295   8.068   7.407   8.681  0.4010  0.1360  0.6732
29843SOL     OW91296   4.860   6.668   6.624  0.8064  0.7086 -0.3399
29843SOL    HW191297   4.814   6.617   6.690 -1.4192  1.7112 -1.0418
29843SOL    HW291298   4.901   6.739   6.673 -0.4547  1.1882  0.0587
29844SOL     OW91299   8.756   0.150   1.123 -0.2882 -0.1949  0.1568
29844SOL    HW191300   8.760   0.058   1.147  0.9705 -0.5307 -1.2110
29844SOL    HW291301   8.847   0.178   1.118 -0.5592  0.5096 -1.6024
29845SOL     OW91302   2.427   4.103   0.502  0.5062 -0.9131  0.1413
29845SOL    HW191303   2.374   4.182   0.494  1.3077 -0.3398  0.3557
29845SOL    HW291304   2.434   4.069   0.412 -0.5117 -1.2044  0.1612
29846SOL     OW91305   9.197   3.476   5.454  0.2273  0.2729  0.7112
29846SOL    HW191306   9.291   3.466   5.461  0.0962 -2.0955  0.1770
29846SOL    HW291307   9.171   3.410   5.390 -1.9511 -0.2688  2.0328
29847SOL     OW91308   0.660   8.313   8.153  0.2305  0.4145 -0.5181
29847SOL    HW191309   0.677   8.359   8.235 -1.7628  0.1340  0.0883
29847SOL    HW291310   0.565   8.310   8.146  0.2878 -2.2404 -1.2877
29848SOL     OW91311   7.209   2.482   0.009  0.1303 -0.5527  0.5917
29848SOL    HW191312   7.175   2.451  -0.076  1.4456  0.9145 -0.5262
29848SOL    HW291313   7.283   2.425   0.027  0.1231 -0.5826  0.5262
29849SOL     OW91314   3.796   5.557   0.498  0.4949  0.3957  0.2246
29849SOL    HW191315   3.779   5.476   0.546 -1.0333  0.2710 -0.4609
29849SOL    HW291316   3.815   5.622   0.566 -2.8195  0.5186  1.2043
29850SOL     OW91317   1.304   0.455   7.695 -0.0193 -0.1598 -0.1639
29850SOL    HW191318   1.321   0.537   7.648  0.8583 -1.1154 -1.5894
29850SOL    HW291319   1.390   0.425   7.723 -0.2796 -0.8292 -0.0704
29851SOL     OW91320   3.824   0.807   8.057  0.2676  0.0392  0.0197
29851SOL    HW191321   3.893   0.741   8.062  0.5694  0.3354 -0.2050
29851SOL    HW291322   3.841   0.853   7.975  0.7730  1.1872  0.7551
29852SOL     OW91323   9.043   5.018   8.223  0.0979  0.0090  0.3424
29852SOL    HW191324   9.078   5.045   8.138  2.7693 -2.7383  0.4294
29852SOL    HW291325   8.996   4.937   8.205  1.1883 -0.9185  1.5373
29853SOL     OW91326   2.679   0.493   4.333 -0.1686 -0.3297  0.0618
29853SOL    HW191327   2.641   0.551   4.267  1.8544 -0.5022 -1.3635
29853SOL    HW291328   2.709   0.416   4.283  0.1268 -1.1307  1.4080
29854SOL     OW91329   7.970   9.354   8.006  0.0931 -0.0800 -0.3753
29854SOL    HW191330   7.902   9.301   7.964 -0.4065 -0.2108  0.5782
29854SOL    HW291331   7.950   9.444   7.981 -0.0129 -0.1847 -0.6682
29855SOL     OW91332   4.194   3.478   6.801  0.1922 -0.0909  0.3043
29855SOL    HW191333   4.214   3.493   6.709  0.8807 -1.2466  0.2533
29855SOL    HW291334   4.231   3.392   6.821  0.6083  0.3933  1.8219
29856SOL     OW91335   1.199   5.197   7.770  0.3492 -0.2856  0.4478
29856SOL    HW191336   1.265   5.216   7.703 -0.8098 -2.9857 -1.6978
29856SOL    HW291337   1.249   5.177   7.849  1.7942  2.8071  0.4343
29857SOL     OW91338   4.531   6.970   9.188 -0.2188 -0.4294  0.1751
29857SOL    HW191339   4.554   7.055   9.151  0.1190  0.3940  2.1046
29857SOL    HW291340   4.615   6.931   9.213 -0.4742 -0.4819  0.9850
29858SOL     OW91341   9.345   8.548   5.955 -0.1151  0.0730 -0.0576
29858SOL    HW191342   9.429   8.512   5.926  0.7746  3.5347 -2.3714
29858SOL    HW291343   9.365   8.590   6.039  0.6146  1.1295 -0.7328
29859SOL     OW91344   8.259   8.265   5.561  0.2948 -0.3242 -0.1413
29859SOL    HW191345   8.348   8.267   5.597 -0.0093 -0.0050  0.6180
29859SOL    HW291346   8.231   8.174   5.571  0.4664 -0.3867 -0.2154
29860SOL     OW91347   6.680   3.885   6.880 -0.5650  0.1901  0.0073
29860SOL    HW191348   6.761   3.929   6.903 -0.8889  0.3806  0.8163
29860SOL    HW291349   6.680   3.805   6.933 -1.1533  0.4614  0.4374
29861SOL     OW91350   8.138   2.090   2.761 -0.4562 -0.2963  0.0284
29861SOL    HW191351   8.166   2.115   2.848  0.1176  0.3032 -0.3213
29861SOL    HW291352   8.060   2.143   2.744 -0.1654  0.0940 -0.0925
29862SOL     OW91353   4.923   6.882   3.090 -0.0009  0.6538  0.1499
29862SOL    HW191354   4.968   6.958   3.128 -0.0515  0.9315 -0.3378
29862SOL    HW291355   4.993   6.830   3.051  0.1231  0.0730  1.0965
29863SOL     OW91356   0.512   1.009   6.803  0.0483 -0.2972  0.3767
29863SOL    HW191357   0.522   1.095   6.762  0.6788 -1.0782 -1.1575
29863SOL    HW291358   0.417   0.998   6.813 -0.0286  0.8210  1.2080
29864SOL     OW91359   6.662   8.456   0.856 -0.0930  0.3691  0.5438
29864SOL    HW191360   6.715   8.468   0.935  1.5045 -0.4613 -0.3549
29864SOL    HW291361   6.572   8.462   0.887  0.4451 -1.3359  2.6894
29865SOL     OW91362   5.841   7.093   6.465  0.1170 -0.2471  0.0699
29865SOL    HW191363   5.813   7.137   6.544 -0.9564 -0.8716  0.0492
29865SOL    HW291364   5.773   7.112   6.401  1.2858  0.8045 -0.9359
29866SOL     OW91365   3.042   4.469   1.573 -0.3349  0.0571 -0.5505
29866SOL    HW191366   3.058   4.545   1.518 -1.4596  0.3295 -0.5166
29866SOL    HW291367   3.129   4.433   1.590  0.0187 -0.4398 -3.0767
29867SOL     OW91368   6.978   8.990   8.374  1.0046  0.9601  0.0629
29867SOL    HW191369   6.938   9.000   8.288  1.3358 -1.9266 -0.5058
29867SOL    HW291370   6.903   8.980   8.434  0.7422 -1.2207 -0.5462
29868SOL     OW91371   4.233   7.534   6.150 -0.4982  0.2895  0.4293
29868SOL    HW191372   4.181   7.454   6.152  0.0504 -0.2593 -2.3001
29868SOL    HW291373   4.293   7.526   6.224 -0.9105 -1.5059  0.6251
29869SOL     OW91374   4.866   7.352   0.705 -0.7276 -0.3398 -0.1211
29869SOL    HW191375   4.937   7.302   0.665 -1.2214 -0.1588 -1.2512
29869SOL    HW291376   4.789   7.297   0.696 -0.7472 -0.5561  1.1496
29870SOL     OW91377   9.434   0.823   5.127  0.4348 -0.6867  0.4242
29870SOL    HW191378   9.480   0.740   5.141 -0.3771 -1.3352 -0.5789
29870SOL    HW291379   9.385   0.810   5.045  1.8513  1.4771 -0.8694
29871SOL     OW91380   4.937   0.642   4.465  0.1318  0.0143 -0.2543
29871SOL    HW191381   5.024   0.644   4.426  0.2156  0.4274 -0.0531
29871SOL    HW291382   4.952   0.659   4.558 -0.1068 -0.5169 -0.1147
29872SOL     OW91383   6.318   7.903   5.344 -0.0916 -0.0321  0.2651
29872SOL    HW191384   6.257   7.935   5.411  1.0333  1.6999  0.5230
29872SOL    HW291385   6.402   7.894   5.391 -0.1803 -2.8042  0.0371
29873SOL     OW91386   5.019   9.816   0.868  0.0139 -0.4080 -0.1547
29873SOL    HW191387   5.112   9.794   0.879 -0.3015 -1.8084 -0.1283
29873SOL    HW291388   4.992   9.844   0.956  0.0637 -1.4297  0.2005
29874SOL     OW91389   8.532   4.516   4.235 -0.8484 -0.3758 -0.0449
29874SOL    HW191390   8.616   4.513   4.188 -0.9734 -0.0960 -0.2865
29874SOL    HW291391   8.504   4.607   4.228 -1.4074 -0.5697 -0.3840
29875SOL     OW91392   8.884   5.872   1.851 -0.0721 -0.4477 -0.4627
29875SOL    HW191393   8.822   5.800   1.857 -1.1680  0.5058  0.1860
29875SOL    HW291394   8.963   5.840   1.894 -1.2463 -0.5737  1.7413
29876SOL     OW91395   6.570   4.319   3.506  0.8255 -0.0799 -0.1133
29876SOL    HW191396   6.618   4.267   3.442  0.0149 -1.2105  0.1630
29876SOL    HW291397   6.478   4.314   3.478  0.6293  0.5034  0.3981
29877SOL     OW91398   7.312   4.254   7.750  0.1115 -0.0407  0.0984
29877SOL    HW191399   7.380   4.257   7.683  0.5151  1.4008  0.5303
29877SOL    HW291400   7.352   4.206   7.823 -0.1238 -1.1016 -0.4544
29878SOL     OW91401   4.780   7.570   2.603 -0.2329  0.3650 -0.8372
29878SOL    HW191402   4.808   7.649   2.649  0.5247 -2.2413  3.8316
29878SOL    HW291403   4.862   7.527   2.578 -0.4853 -0.6778  0.0868
29879SOL     OW91404   6.024   6.676   3.842 -0.9308  0.2828 -0.2163
29879SOL    HW191405   6.074   6.598   3.866  0.2799  0.9893 -0.3670
29879SOL    HW291406   6.086   6.748   3.850 -1.6066  1.0526 -1.5385
29880SOL     OW91407   9.286   6.559   8.603 -0.1436  0.0112  0.4681
29880SOL    HW191408   9.301   6.473   8.564 -1.4052 -0.3830  0.8157
29880SOL    HW291409   9.238   6.542   8.684  0.6935  0.9682  1.1949
29881SOL     OW91410   4.698   1.004   2.245  0.5411 -0.0455 -1.2739
29881SOL    HW191411   4.651   1.057   2.310 -0.9094 -2.9860  0.3005
29881SOL    HW291412   4.791   1.015   2.268  0.0923 -0.7341  1.2052
29882SOL     OW91413   7.483   7.130   0.212 -0.3691 -0.3837 -0.0912
29882SOL    HW191414   7.448   7.205   0.260 -0.4582 -0.3145 -0.2651
29882SOL    HW291415   7.562   7.105   0.261  0.8084  1.0698 -1.1623
29883SOL     OW91416   9.263   3.984   2.167  0.1316 -0.2025  0.2353
29883SOL    HW191417   9.209   3.932   2.226  0.5522 -0.3879  0.4650
29883SOL    HW291418   9.300   4.053   2.223  2.0170 -1.4549  0.6580
29884SOL     OW91419   0.709   2.233   0.040 -0.1010  0.8863  0.2990
29884SOL    HW191420   0.649   2.242  -0.035 -2.3209 -0.5922  1.7621
29884SOL    HW291421   0.724   2.323   0.069 -0.1845  1.4050 -1.1895
29885SOL     OW91422   9.244   7.871   5.296  0.2685  0.1068 -0.0047
29885SOL    HW191423   9.328   7.887   5.254  1.1223  0.3491  1.6901
29885SOL    HW291424   9.184   7.933   5.255  1.2546  0.9010 -0.2880
29886SOL     OW91425   4.882   0.748   0.279  0.3740 -0.1785  0.3112
29886SOL    HW191426   4.928   0.819   0.323 -0.7001  1.1908 -0.6664
29886SOL    HW291427   4.804   0.733   0.333  0.7822 -0.9045  0.7189
29887SOL     OW91428   9.186   5.434   7.458  0.2553 -0.2512 -0.1090
29887SOL    HW191429   9.092   5.453   7.454  0.2962 -0.1561 -0.6051
29887SOL    HW291430   9.217   5.485   7.533  0.0066  0.1160 -0.2541
29888SOL     OW91431   0.824   9.115   2.216 -0.0776  0.4717 -0.4128
29888SOL    HW191432   0.741   9.124   2.168  0.3216  0.2074 -1.1774
29888SOL    HW291433   0.802   9.139   2.306 -0.9970  0.3634 -0.5910
29889SOL     OW91434   7.974   6.761   2.024  0.8877  0.5558  0.4571
29889SOL    HW191435   7.910   6.764   1.953  1.6524  0.5258 -0.2509
29889SOL    HW291436   7.970   6.848   2.064 -1.8793 -0.3883  2.5436
29890SOL     OW91437   9.819   6.774   1.081  0.2934 -0.2548  0.2536
29890SOL    HW191438   9.801   6.830   1.157 -0.1332 -0.6378  0.4415
29890SOL    HW291439   9.910   6.746   1.093  2.0426  3.6728 -1.9701
29891SOL     OW91440   4.354   4.394   0.749 -1.1768 -0.0923 -0.0828
29891SOL    HW191441   4.443   4.364   0.767 -1.1355  0.1095  0.0564
29891SOL    HW291442   4.327   4.438   0.829 -0.9383  0.9337 -0.5468
29892SOL     OW91443   7.795   6.740   3.191  0.8630  0.1943  1.0163
29892SOL    HW191444   7.888   6.721   3.208  0.3833 -1.4719  2.0433
29892SOL    HW291445   7.750   6.658   3.213 -0.9017  1.1241  1.0044
29893SOL     OW91446   2.704   9.004   3.933  0.0564  0.2116  0.9037
29893SOL    HW191447   2.797   8.984   3.921  0.1187  1.0393 -0.2205
29893SOL    HW291448   2.698   9.043   4.020  0.3939 -1.8540  1.8974
29894SOL     OW91449   9.750   1.032   9.610  0.0306  0.1416 -0.2843
29894SOL    HW191450   9.706   1.075   9.537  1.5827 -0.1141 -1.4459
29894SOL    HW291451   9.843   1.054   9.598  0.3881 -0.2691  1.3801
29895SOL     OW91452   1.037   3.110   3.784  0.3497 -0.0290  0.6850
29895SOL    HW191453   0.958   3.057   3.796  0.3686 -0.6437 -1.6003
29895SOL    HW291454   1.028   3.180   3.849 -1.3794 -0.8493  1.4044
29896SOL     OW91455   0.714   9.668   9.709  0.6997  0.2518  0.1981
29896SOL    HW191456   0.625   9.669   9.676  0.4108 -0.3308  0.9295
29896SOL    HW291457   0.769   9.656   9.631  0.1920  1.2691 -0.3298
29897SOL     OW91458   3.826   3.228   6.162 -0.4890 -0.3983  0.0365
29897SOL    HW191459   3.893   3.294   6.180 -0.2168 -0.6133 -0.1739
29897SOL    HW291460   3.744   3.268   6.192 -0.0979 -0.6350  1.4777
29898SOL     OW91461   6.231   8.539   5.757  0.0353  0.8882  0.4228
29898SOL    HW191462   6.221   8.510   5.666 -2.1280  0.2861  0.7929
29898SOL    HW291463   6.150   8.587   5.776  0.4808  1.0705  2.0034
29899SOL     OW91464   2.463   8.348   3.617  0.8479 -0.7428 -0.0968
29899SOL    HW191465   2.461   8.434   3.575 -0.8184  0.0279  1.4032
29899SOL    HW291466   2.451   8.367   3.710  0.4120 -2.6012  0.2629
29900SOL     OW91467   2.488   1.273   1.094  0.0718  0.5823  0.2337
29900SOL    HW191468   2.554   1.225   1.044 -1.2631 -0.2983 -0.7718
29900SOL    HW291469   2.470   1.350   1.040 -1.3902 -0.3825 -0.7562
29901SOL     OW91470   2.941   1.795   4.450 -0.2130  0.1570  0.1409
29901SOL    HW191471   2.947   1.700   4.462  2.4308  0.2958  0.6558
29901SOL    HW291472   2.852   1.810   4.419 -0.9464 -2.3993  0.7470
29902SOL     OW91473   9.761   8.168   3.174  0.1160 -0.4058 -0.3888
29902SOL    HW191474   9.666   8.164   3.175  0.0255  0.5589 -2.1443
29902SOL    HW291475   9.784   8.223   3.249 -0.6281 -1.3222  0.5411
29903SOL     OW91476   7.328   5.622   0.637 -0.7247 -0.4951 -0.1988
29903SOL    HW191477   7.378   5.588   0.562 -0.2865  1.0902 -0.6661
29903SOL    HW291478   7.377   5.590   0.714  0.3835  0.0908 -0.6332
29904SOL     OW91479   7.293   2.994   6.387 -1.1857 -0.1587  0.7067
29904SOL    HW191480   7.279   2.980   6.481  0.5169  1.2054  1.2167
29904SOL    HW291481   7.274   3.087   6.373  1.2326  0.3491  0.3116
29905SOL     OW91482   7.348   2.798   4.870 -0.1804 -0.6482  0.1227
29905SOL    HW191483   7.417   2.864   4.856 -0.9434  0.3701  1.0415
29905SOL    HW291484   7.282   2.818   4.804 -0.9563  0.2909  1.1423
29906SOL     OW91485   6.386   2.617   2.605 -0.1869 -0.2572  0.1089
29906SOL    HW191486   6.299   2.604   2.644 -0.1464  0.5843  0.5032
29906SOL    HW291487   6.368   2.639   2.514 -0.3522 -0.6536  0.0403
29907SOL     OW91488   2.399   2.139   1.030  0.3059  0.5522 -0.6233
29907SOL    HW191489   2.429   2.181   0.950  0.6744  2.4046  0.4276
29907SOL    HW291490   2.391   2.211   1.093 -0.3002 -0.7961  0.9040
29908SOL     OW91491   0.371   4.015   8.634 -0.0017  0.3160 -0.3474
29908SOL    HW191492   0.321   3.945   8.675  1.2698 -0.1013  0.5434
29908SOL    HW291493   0.431   3.970   8.574 -1.0013  0.8393 -1.7938
29909SOL     OW91494   1.073   9.247   0.813  0.3975  0.1141 -0.6794
29909SOL    HW191495   1.073   9.337   0.848 -0.8653  0.0530 -0.4771
29909SOL    HW291496   1.109   9.194   0.884  0.1807  0.3270 -0.4077
29910SOL     OW91497   8.012   0.688   1.040 -0.0708 -0.0097  0.5135
29910SOL    HW191498   8.008   0.701   1.135 -0.1110  0.5216  0.4470
29910SOL    HW291499   8.032   0.595   1.028  0.4493  0.0268  1.0516
29911SOL     OW91500   1.543   7.237   1.148  0.3642  0.4079  0.5210
29911SOL    HW191501   1.607   7.294   1.105 -0.3022  0.0614 -0.9998
29911SOL    HW291502   1.483   7.297   1.191  0.5111  0.8148  0.1715
29912SOL     OW91503   6.040   4.490   9.254 -0.7479 -0.2208  0.1410
29912SOL    HW191504   6.122   4.477   9.206 -0.9464  1.0702 -0.5798
29912SOL    HW291505   6.041   4.421   9.321 -0.2129 -1.7453 -1.3514
29913SOL     OW91506   3.613   9.330   1.665 -1.0289  0.5613 -0.4596
29913SOL    HW191507   3.519   9.310   1.673 -1.3713  1.3916 -2.0788
29913SOL    HW291508   3.656   9.245   1.674 -2.0956 -0.1952 -2.0495
29914SOL     OW91509   7.000   9.211   5.317  0.1565  0.1388 -0.3706
29914SOL    HW191510   7.071   9.202   5.253  1.2475  1.8840  0.5210
29914SOL    HW291511   6.988   9.305   5.327 -0.5903 -0.0969  1.3497
29915SOL     OW91512   6.705   2.574   1.776 -0.2743  0.2576 -0.0594
29915SOL    HW191513   6.750   2.567   1.692  1.8211  2.1060  0.8041
29915SOL    HW291514   6.731   2.495   1.824 -2.0360 -1.1600 -1.3063
29916SOL     OW91515   6.447   2.239   8.602 -0.5020  0.2115  0.5008
29916SOL    HW191516   6.416   2.247   8.692 -0.0390  0.9411  0.6014
29916SOL    HW291517   6.515   2.171   8.606 -0.7607 -0.0423  0.6229
29917SOL     OW91518   1.102   2.113   4.803 -0.2298 -0.2725  0.3322
29917SOL    HW191519   1.179   2.161   4.774 -0.4872  0.2432  0.4890
29917SOL    HW291520   1.128   2.076   4.888  0.6537 -2.1040 -0.6776
29918SOL     OW91521   7.142   2.105   1.811 -0.1060  0.2411 -0.7160
29918SOL    HW191522   7.186   2.159   1.745 -0.9642  2.0105  0.1135
29918SOL    HW291523   7.051   2.100   1.781 -0.2602  0.1244 -0.2298
29919SOL     OW91524   7.200   2.717   5.203 -0.5637  0.5601  0.2202
29919SOL    HW191525   7.235   2.676   5.283 -1.3440 -0.3239  0.1253
29919SOL    HW291526   7.213   2.652   5.135 -1.5019  0.5950 -0.0111
29920SOL     OW91527   6.849   2.312   0.006  0.1552 -0.0162  0.1874
29920SOL    HW191528   6.926   2.351   0.046  1.0259 -0.9638 -0.5328
29920SOL    HW291529   6.883   2.248  -0.056 -1.2087 -0.5841 -0.0148
29921SOL     OW91530   4.729   5.357   3.831 -0.3595 -0.1129  0.1326
29921SOL    HW191531   4.679   5.426   3.788 -0.2418  0.4524  0.8751
29921SOL    HW291532   4.814   5.358   3.788 -0.7508 -0.6253 -0.6783
29922SOL     OW91533   3.342   5.064   2.800 -0.0191  0.4761  0.3254
29922SOL    HW191534   3.376   5.138   2.748 -3.5035  1.1707 -1.2824
29922SOL    HW291535   3.285   5.105   2.865 -2.1827 -0.6503 -0.7283
29923SOL     OW91536   5.936   2.216   5.130  0.3199  0.4720  0.5199
29923SOL    HW191537   5.851   2.258   5.123 -0.1503 -0.6514 -1.2012
29923SOL    HW291538   5.999   2.287   5.119 -0.3780  1.2605  1.4829
29924SOL     OW91539   2.335   3.758   9.433  0.4168  0.0814 -0.2535
29924SOL    HW191540   2.409   3.710   9.396  1.3502  1.1024  0.2351
29924SOL    HW291541   2.325   3.722   9.521  1.1833  0.8191  0.1505
29925SOL     OW91542   3.973   7.348   1.082  0.1001  0.0358 -0.0672
29925SOL    HW191543   3.953   7.343   0.988  0.2943  0.7839 -0.1534
29925SOL    HW291544   4.067   7.331   1.087 -0.3971 -3.4596  0.3344
29926SOL     OW91545   2.097   3.141   1.256  0.0556  0.3145 -0.0649
29926SOL    HW191546   2.111   3.224   1.302  0.8082 -0.7160  1.6996
29926SOL    HW291547   2.151   3.078   1.304 -0.1737 -1.1272 -1.6017
29927SOL     OW91548   5.937   0.729   1.797  0.5098  0.4666 -0.1594
29927SOL    HW191549   5.919   0.743   1.704  2.9431  3.1471 -0.3629
29927SOL    HW291550   5.903   0.808   1.839  0.1079 -0.3874  1.1564
29928SOL     OW91551   5.379   5.944   4.325 -0.4080 -0.6686  0.3259
29928SOL    HW191552   5.466   5.979   4.305 -0.6977  0.2056  0.5275
29928SOL    HW291553   5.381   5.930   4.420 -0.4220 -0.8234  0.3024
29929SOL     OW91554   0.885   4.648   5.175  0.0580 -0.0923 -0.2628
29929SOL    HW191555   0.830   4.585   5.221 -0.8154 -0.4848 -1.7750
29929SOL    HW291556   0.873   4.730   5.224  1.4308 -1.0910  1.9047
29930SOL     OW91557   0.216   0.418   8.409 -0.3751  0.4374 -0.4591
29930SOL    HW191558   0.295   0.389   8.363  0.3200  0.3652  0.7283
29930SOL    HW291559   0.143   0.388   8.354  0.4067 -0.4318 -1.0468
29931SOL     OW91560   8.333   4.311   4.663  0.1672  0.1091 -0.3086
29931SOL    HW191561   8.348   4.229   4.615  1.5470  0.4865 -0.5682
29931SOL    HW291562   8.367   4.379   4.605  0.7710  0.6888  0.6997
29932SOL     OW91563   0.269   3.608   4.140 -0.1534 -0.1024 -0.4031
29932SOL    HW191564   0.252   3.695   4.104 -0.4273  0.7376  1.6274
29932SOL    HW291565   0.218   3.605   4.221  0.7205 -1.7469  0.1361
29933SOL     OW91566   9.334   0.467   8.637  0.0120 -0.2089 -0.7132
29933SOL    HW191567   9.400   0.411   8.596 -2.3050 -1.9877 -2.2139
29933SOL    HW291568   9.335   0.442   8.730  1.2049 -0.3876 -0.7605
29934SOL     OW91569   4.001   6.208   9.264  0.6517 -0.4420 -0.2298
29934SOL    HW191570   4.028   6.267   9.334  2.8069 -0.0424 -1.3158
29934SOL    HW291571   4.036   6.247   9.184 -1.6364 -0.9415 -1.5789
29935SOL     OW91572   5.352   7.615   0.825  0.3019  0.3247 -0.0824
29935SOL    HW191573   5.352   7.701   0.867  0.7133  1.1211 -1.6541
29935SOL    HW291574   5.413   7.624   0.752 -0.5208 -0.9493 -0.9602
29936SOL     OW91575   3.696   7.960   8.206 -0.4372  0.1887  0.1472
29936SOL    HW191576   3.789   7.961   8.227 -0.2892 -1.2445 -0.3144
29936SOL    HW291577   3.659   8.033   8.256  0.8707  0.5865  0.5790
29937SOL     OW91578   8.320   0.240   0.055  0.1924  0.3017 -0.2702
29937SOL    HW191579   8.412   0.255   0.031  0.0823 -0.5625 -1.3089
29937SOL    HW291580   8.312   0.144   0.059 -0.4414  0.3859  0.7271
29938SOL     OW91581   7.638   3.901   8.061  0.0636  0.1262 -0.3880
29938SOL    HW191582   7.598   3.821   8.095  0.0535  0.2635 -0.0695
29938SOL    HW291583   7.661   3.880   7.970  1.4727 -0.7399  0.1371
29939SOL     OW91584   6.947   2.829   6.512  0.1025 -0.1295  0.2165
29939SOL    HW191585   6.889   2.777   6.457 -0.5592 -0.1379  0.9141
29939SOL    HW291586   7.023   2.772   6.527  0.4563  0.0084 -0.9680
29940SOL     OW91587   4.480   7.332   7.827 -0.3294  0.0602 -0.2493
29940SOL    HW191588   4.554   7.325   7.888  0.5221 -0.7795 -1.3308
29940SOL    HW291589   4.445   7.419   7.842  0.5412  0.2741  0.6742
29941SOL     OW91590   8.404   4.071   5.639 -0.4867 -0.4556  0.3481
29941SOL    HW191591   8.430   3.981   5.617  0.8010  0.2474 -1.2115
29941SOL    HW291592   8.486   4.117   5.656 -0.9951  0.7762 -0.3754
29942SOL     OW91593   0.429   6.387   8.229  0.0583  0.0191  0.2347
29942SOL    HW191594   0.361   6.444   8.194 -1.0879 -0.5535  1.4643
29942SOL    HW291595   0.384   6.308   8.255  1.1531 -0.2947  1.2955
29943SOL     OW91596   2.353   9.309   6.395  0.4444  0.3851  0.1960
29943SOL    HW191597   2.267   9.316   6.354  0.6922  1.6801 -0.1651
29943SOL    HW291598   2.409   9.366   6.342  1.4498 -0.1808  0.6265
29944SOL     OW91599   9.666   6.430   5.591 -0.1279  0.0372 -0.2990
29944SOL    HW191600   9.580   6.450   5.556  0.5850  1.7258 -1.1715
29944SOL    HW291601   9.649   6.394   5.678 -1.6725  1.1127 -0.1294
29945SOL     OW91602   7.459   0.258   7.800 -0.5659 -0.7291 -0.0062
29945SOL    HW191603   7.405   0.316   7.746  0.0365  0.4899  0.6442
29945SOL    HW291604   7.534   0.236   7.744  0.0908  0.5862  0.2979
29946SOL     OW91605   3.471   2.269   4.161 -0.2113 -0.8247 -0.2343
29946SOL    HW191606   3.407   2.324   4.114  0.5182  0.6966  0.4637
29946SOL    HW291607   3.540   2.253   4.097  0.8972  1.4423  0.2588
29947SOL     OW91608   9.032   9.541   1.956  0.2604  0.0488 -0.3688
29947SOL    HW191609   9.116   9.495   1.953  0.6861  0.5726  1.7707
29947SOL    HW291610   8.973   9.480   2.001  0.1217  0.5294  0.1234
29948SOL     OW91611   1.259   5.561   3.435 -0.1501 -0.3688  0.2824
29948SOL    HW191612   1.204   5.484   3.420 -1.0064  0.4174 -0.7912
29948SOL    HW291613   1.203   5.620   3.486  0.0934 -0.0173  0.1435
29949SOL     OW91614   2.827   0.735   6.905  0.2948 -0.4342  0.1957
29949SOL    HW191615   2.804   0.643   6.892 -2.5762  0.1652  0.3187
29949SOL    HW291616   2.889   0.734   6.977 -0.0093 -2.2432  0.4927
29950SOL     OW91617   8.608   0.463   2.092 -0.0099  0.3792  0.1661
29950SOL    HW191618   8.670   0.507   2.150 -1.5835  0.7966  1.5883
29950SOL    HW291619   8.634   0.371   2.094 -0.0297  0.3872  1.5352
29951SOL     OW91620   2.756   3.099   9.409 -0.7821  0.0966  0.0999
29951SOL    HW191621   2.680   3.097   9.351 -1.7426 -0.3189  1.3190
29951SOL    HW291622   2.756   3.013   9.452  1.2883 -0.5082 -0.9662
29952SOL     OW91623   2.862   8.848   7.270  0.7449 -0.4355 -0.1204
29952SOL    HW191624   2.950   8.840   7.234  0.2068 -1.6319 -1.2815
29952SOL    HW291625   2.875   8.875   7.360  2.2486  0.5553 -0.5961
29953SOL     OW91626   1.461   1.344   6.147  0.3006 -0.5042  0.2332
29953SOL    HW191627   1.475   1.437   6.125  0.1973 -0.2411  1.2153
29953SOL    HW291628   1.379   1.344   6.197  0.6188 -1.0458  0.7584
29954SOL     OW91629   8.891   6.848   7.570  0.1242 -0.0786 -0.9405
29954SOL    HW191630   8.846   6.768   7.598 -0.2018  0.3359 -0.2447
29954SOL    HW291631   8.867   6.913   7.636  1.4029  0.2679 -0.7946
29955SOL     OW91632   3.341   3.209   9.768 -0.2528  0.2920  0.1809
29955SOL    HW191633   3.340   3.297   9.732  1.1819 -0.5899 -2.2640
29955SOL    HW291634   3.414   3.208   9.830 -0.7051  0.9763  0.7358
29956SOL     OW91635   1.646   3.072   2.032 -0.1821  0.2340 -0.0322
29956SOL    HW191636   1.732   3.067   2.072  0.3127 -0.0339 -1.0785
29956SOL    HW291637   1.602   2.991   2.059  1.7632 -2.2757 -3.4632
29957SOL     OW91638   0.046   9.581   5.522 -0.1465  0.1012  0.1029
29957SOL    HW191639   0.124   9.637   5.529  1.5160 -1.3062 -3.9024
29957SOL    HW291640  -0.016   9.633   5.471 -0.6080  0.0929  0.6516
29958SOL     OW91641   3.481   7.649   7.533 -0.3967 -0.2673  0.7008
29958SOL    HW191642   3.413   7.627   7.470  0.4885 -1.9686  0.2898
29958SOL    HW291643   3.487   7.573   7.590  0.7029  0.1194  1.1282
29959SOL     OW91644   8.786   0.799   9.434  0.4019  0.7832 -0.1896
29959SOL    HW191645   8.809   0.879   9.480 -1.2653  1.3795 -0.3225
29959SOL    HW291646   8.718   0.825   9.372  0.5183 -0.5531 -0.9223
29960SOL     OW91647   8.727   4.147   5.392  0.0626 -0.0069 -0.3309
29960SOL    HW191648   8.682   4.129   5.309 -1.0290 -1.6901  0.5483
29960SOL    HW291649   8.772   4.065   5.412  1.8109  0.9549 -0.0974
29961SOL     OW91650   7.674   0.256   8.748  0.4474  0.3380  0.2926
29961SOL    HW191651   7.768   0.247   8.735  0.4980 -0.7614  1.2167
29961SOL    HW291652   7.661   0.347   8.773  1.1212  0.7694 -0.8444
29962SOL     OW91653   9.739   1.338   9.805 -0.4717 -0.2806 -0.1361
29962SOL    HW191654   9.721   1.354   9.898 -1.4403  2.1094 -0.6563
29962SOL    HW291655   9.653   1.324   9.766  0.0491 -3.3399 -0.4434
29963SOL     OW91656   6.496   8.242   3.355 -0.0411 -0.0840 -0.2541
29963SOL    HW191657   6.444   8.166   3.330 -0.6055  0.3363 -0.3708
29963SOL    HW291658   6.582   8.227   3.315 -0.4645 -0.1612 -1.1430
29964SOL     OW91659   9.013   4.043   8.342 -0.1915  0.2554  0.7914
29964SOL    HW191660   8.977   3.960   8.374  0.2601 -0.0281  0.5790
29964SOL    HW291661   9.005   4.038   8.247 -0.8893  0.7991  0.8183
29965SOL     OW91662   7.241   1.565   8.977  0.1180  0.0681  0.7316
29965SOL    HW191663   7.217   1.504   9.047  0.4592 -0.4310  0.4235
29965SOL    HW291664   7.240   1.511   8.897 -2.3941  1.0833 -0.0174
29966SOL     OW91665   7.616   6.306   5.615  0.8316  0.1734 -0.1152
29966SOL    HW191666   7.669   6.230   5.640  2.1475  0.7876 -0.9198
29966SOL    HW291667   7.609   6.301   5.520 -0.5264  0.1552 -0.0364
29967SOL     OW91668   0.465   4.991   8.384  0.5488 -0.2324  0.3070
29967SOL    HW191669   0.386   4.937   8.380  0.1234  0.1960  2.1176
29967SOL    HW291670   0.440   5.073   8.341  0.1969 -0.3356  0.3125
29968SOL     OW91671   7.525   6.138   6.098  0.2054  0.3070 -0.3926
29968SOL    HW191672   7.453   6.091   6.056  0.2352 -1.3569  1.3222
29968SOL    HW291673   7.484   6.189   6.168  0.5928  0.0328  0.0381
29969SOL     OW91674   6.499   6.253   1.949 -0.0588 -0.5274  0.2977
29969SOL    HW191675   6.446   6.266   2.028  0.1039 -0.8948  0.4685
29969SOL    HW291676   6.577   6.206   1.979 -0.4337 -1.5134 -0.2424
29970SOL     OW91677   9.417   0.870   1.036 -0.2674 -0.0530  0.6916
29970SOL    HW191678   9.466   0.950   1.057  1.3808 -0.5342 -1.0541
29970SOL    HW291679   9.485   0.804   1.021 -1.5129 -1.1598 -0.2798
29971SOL     OW91680   6.130   7.981   5.539 -0.0185 -0.0750  0.3007
29971SOL    HW191681   6.094   7.918   5.602  0.1841  0.8828  1.4091
29971SOL    HW291682   6.053   8.016   5.494 -0.2908  0.2806  1.0365
29972SOL     OW91683   8.953   8.736   3.352  0.6145 -0.1187  1.0416
29972SOL    HW191684   8.894   8.685   3.408 -0.8840 -0.1438 -0.4813
29972SOL    HW291685   8.961   8.820   3.396  1.2976 -0.8658  2.4191
29973SOL     OW91686   2.723   1.006   7.744 -0.0682 -0.4986 -0.3272
29973SOL    HW191687   2.655   1.035   7.805 -0.5783 -1.1486 -0.5645
29973SOL    HW291688   2.802   0.999   7.797 -0.7479 -2.1919  0.5640
29974SOL     OW91689   0.257   5.260   9.282  0.5005  0.4331 -0.1978
29974SOL    HW191690   0.175   5.211   9.290  0.7711 -0.0335 -0.2638
29974SOL    HW291691   0.313   5.206   9.227  1.7868 -0.4923  1.8855
29975SOL     OW91692   0.760   0.230   0.490  0.0005 -0.3578  0.0329
29975SOL    HW191693   0.842   0.245   0.444  0.1554 -0.7063  0.1917
29975SOL    HW291694   0.727   0.148   0.452 -0.8556  0.3786 -0.8666
29976SOL     OW91695   5.772   9.195   5.973 -0.2016 -0.1779  0.2244
29976SOL    HW191696   5.732   9.185   5.886  0.1525 -1.2274  0.1672
29976SOL    HW291697   5.835   9.266   5.962 -2.0218  1.5123  0.3260
29977SOL     OW91698   6.546   7.089   2.136  0.7339 -0.0332  0.1988
29977SOL    HW191699   6.558   7.136   2.219  0.0833  0.2466  0.1429
29977SOL    HW291700   6.617   7.119   2.080  0.4655  0.7060  0.2482
29978SOL     OW91701   9.442   5.787   1.342  0.6210 -0.8027 -0.4871
29978SOL    HW191702   9.394   5.713   1.380  1.0274 -0.1480  1.4006
29978SOL    HW291703   9.442   5.769   1.248 -3.0687 -0.9991 -0.6113
29979SOL     OW91704   2.766   4.694   8.560 -1.0428 -0.2180 -0.4047
29979SOL    HW191705   2.677   4.700   8.595 -1.0799  0.1834 -0.5546
29979SOL    HW291706   2.807   4.623   8.610 -0.5159  1.4719  1.7312
29980SOL     OW91707   6.240   8.635   3.255 -0.2506 -0.4070  0.1820
29980SOL    HW191708   6.321   8.638   3.307  0.4990 -0.0541 -0.9612
29980SOL    HW291709   6.239   8.547   3.218 -1.9573 -1.4658  2.5339
29981SOL     OW91710   9.756   1.621   0.766 -0.4124 -0.2485 -0.4659
29981SOL    HW191711   9.757   1.620   0.861 -1.2068  2.2386 -0.3839
29981SOL    HW291712   9.805   1.699   0.741  0.4777 -1.2710 -2.1576
29982SOL     OW91713   7.491   7.556   2.071 -0.3368  0.4229  0.1504
29982SOL    HW191714   7.410   7.567   2.021 -1.3095 -3.8043  0.4739
29982SOL    HW291715   7.469   7.497   2.142  2.5693  0.9115  1.6250
29983SOL     OW91716   9.434   4.151   6.712  0.0022  0.1646 -0.1332
29983SOL    HW191717   9.346   4.123   6.686 -0.0635  1.3326 -1.2545
29983SOL    HW291718   9.486   4.142   6.633  0.5669  0.7874  0.1603
29984SOL     OW91719   1.019   1.445   7.933  0.2374  0.2325 -0.3165
29984SOL    HW191720   1.005   1.428   8.026  0.4136  0.1210 -0.3091
29984SOL    HW291721   1.109   1.477   7.928 -0.5639  2.7692 -0.1201
29985SOL     OW91722   8.501   5.458   8.235  0.7228 -0.2543  0.1690
29985SOL    HW191723   8.570   5.511   8.194  0.5930  1.0045  1.4874
29985SOL    HW291724   8.501   5.486   8.326 -0.3341 -1.5382  0.5816
29986SOL     OW91725   9.704   3.177   2.051  0.4627 -0.2034 -0.2115
29986SOL    HW191726   9.630   3.182   2.112  0.4420 -0.4827 -0.2122
29986SOL    HW291727   9.781   3.177   2.107  0.4131 -1.8189 -0.0969
29987SOL     OW91728   5.292   7.856   0.413 -0.2637 -0.2726 -0.0052
29987SOL    HW191729   5.302   7.948   0.439  0.6473 -0.6359  0.9916
29987SOL    HW291730   5.242   7.860   0.332  0.3383  1.1534 -0.3403
29988SOL     OW91731   7.177   0.265   4.865 -0.2466  0.2096 -0.3957
29988SOL    HW191732   7.118   0.338   4.845 -0.7905  0.1703  0.9859
29988SOL    HW291733   7.120   0.196   4.896  0.4490 -0.0999  0.2314
29989SOL     OW91734   3.345   4.084   0.698  0.1101 -0.0974  0.3175
29989SOL    HW191735   3.369   4.028   0.772  0.6819  2.3796  2.1524
29989SOL    HW291736   3.426   4.131   0.675 -0.1971 -0.3896 -1.5444
29990SOL     OW91737   0.318   9.744   3.650  0.1231  0.5079  0.4113
29990SOL    HW191738   0.329   9.688   3.727 -1.1241  0.4623  0.5779
29990SOL    HW291739   0.238   9.711   3.608  1.5558 -0.4259 -1.7438
29991SOL     OW91740   8.494   5.618   7.158  0.3641  0.2280  0.0236
29991SOL    HW191741   8.449   5.698   7.184  1.2108  0.3494  1.2342
29991SOL    HW291742   8.568   5.647   7.105 -0.8975  0.0301 -1.9485
29992SOL     OW91743   3.445   9.168   3.837 -0.2710 -0.0389  0.0458
29992SOL    HW191744   3.455   9.258   3.868  2.8719 -1.1457  2.7543
29992SOL    HW291745   3.355   9.145   3.860 -1.4262  2.5129 -1.3826
29993SOL     OW91746   0.671   4.075   9.772  0.4995 -0.6037  0.1449
29993SOL    HW191747   0.624   4.020   9.709  0.0911  0.7216 -0.7652
29993SOL    HW291748   0.752   4.027   9.790  0.4486 -1.2100 -1.1192
29994SOL     OW91749   4.539   3.217   4.527 -0.1413 -0.3357 -0.0845
29994SOL    HW191750   4.608   3.220   4.593  0.3476 -0.5254 -0.5728
29994SOL    HW291751   4.564   3.283   4.462 -2.0647  1.8449  1.2650
29995SOL     OW91752   1.051   4.262   8.181  0.8328  0.5052  0.1827
29995SOL    HW191753   1.006   4.193   8.230  2.9931 -2.3322 -1.5468
29995SOL    HW291754   0.981   4.314   8.143 -0.9620 -1.5516  0.4780
29996SOL     OW91755   5.534   7.731   4.439  0.8738  0.3077 -0.4635
29996SOL    HW191756   5.559   7.735   4.531 -2.0238  2.0386  0.4035
29996SOL    HW291757   5.487   7.648   4.431  1.5472 -0.0705 -0.5131
29997SOL     OW91758   6.363   3.572   6.451 -0.0421 -0.3901  0.1427
29997SOL    HW191759   6.268   3.564   6.462 -0.4112  1.6757 -1.0667
29997SOL    HW291760   6.375   3.584   6.357  1.5821 -2.0144  0.0818
29998SOL     OW91761   3.598   8.492   7.181  0.2169  0.0060 -0.2650
29998SOL    HW191762   3.615   8.541   7.262  0.9831  0.0431 -0.4441
29998SOL    HW291763   3.685   8.475   7.145 -0.0711 -0.9840 -0.5074
29999SOL     OW91764   0.691   2.132   2.895 -0.3953 -0.1740 -0.5116
29999SOL    HW191765   0.746   2.111   2.970 -1.8988  1.9629  1.3383
29999SOL    HW291766   0.630   2.059   2.887  1.5116 -1.7493 -1.5224
30000SOL     OW91767   8.505   7.469   2.550  0.4581  0.2438  0.1689
30000SOL    HW191768   8.427   7.522   2.532  0.6478  0.2987 -0.5379
30000SOL    HW291769   8.502   7.400   2.484  0.3897 -0.4396  0.8787
30001SOL     OW91770   6.780   7.995   3.714 -0.6822  0.4564  0.1324
30001SOL    HW191771   6.841   8.053   3.669 -0.4664 -0.8370 -1.3583
30001SOL    HW291772   6.781   8.024   3.805  2.2668  0.4366  0.2083
30002SOL     OW91773   6.391   5.286   3.714  0.8407  0.0336  0.3256
30002SOL    HW191774   6.426   5.197   3.717  0.0130 -0.2917  0.3443
30002SOL    HW291775   6.462   5.338   3.674  1.7238 -0.4313  1.2337
30003SOL     OW91776   9.773   5.528   4.030 -0.2775 -0.5424  0.2812
30003SOL    HW191777   9.681   5.500   4.029  0.3226 -2.7369  0.5762
30003SOL    HW291778   9.800   5.523   3.938 -0.4770  0.2526  0.1729
30004SOL     OW91779   1.555   6.069   4.432 -0.7876 -0.1935 -0.4743
30004SOL    HW191780   1.489   6.001   4.441 -2.5168  1.0298 -2.7960
30004SOL    HW291781   1.522   6.142   4.484 -0.8447  0.1214 -0.9444
30005SOL     OW91782   4.955   5.499   1.334 -0.9004  0.1498  0.2541
30005SOL    HW191783   5.043   5.482   1.367 -0.9486 -0.6576 -0.0172
30005SOL    HW291784   4.950   5.452   1.251 -1.4785  0.4660  0.1011
30006SOL     OW91785   4.800   3.225   6.202 -0.1783 -0.3167 -0.2423
30006SOL    HW191786   4.771   3.312   6.228 -0.3094 -0.3554 -0.2580
30006SOL    HW291787   4.758   3.210   6.117 -0.9257 -0.7801  0.1924
30007SOL     OW91788   3.912   4.606   5.081  0.3522 -0.4078  0.4707
30007SOL    HW191789   3.995   4.652   5.066  1.0850 -0.6832  3.0478
30007SOL    HW291790   3.855   4.636   5.011  2.3078  0.5876 -0.8069
30008SOL     OW91791   4.993   7.829   1.037 -0.1324  0.1076 -0.2722
30008SOL    HW191792   5.001   7.774   1.115  0.5183 -1.7429 -1.5712
30008SOL    HW291793   4.932   7.782   0.981  0.9053  0.3834 -1.6890
30009SOL     OW91794   5.602   4.944   0.632  1.2350 -0.1245  0.6375
30009SOL    HW191795   5.538   5.004   0.594  0.1098 -0.7512  1.5120
30009SOL    HW291796   5.596   4.865   0.579  1.8602  0.0889  0.2358
30010SOL     OW91797   8.413   4.930   2.623 -0.2511  0.1728 -0.3330
30010SOL    HW191798   8.322   4.960   2.618 -0.4075 -0.2948 -0.2594
30010SOL    HW291799   8.408   4.844   2.664  0.2621  0.3250  0.0558
30011SOL     OW91800   0.161   5.667   5.137 -0.2051 -0.1028 -0.4473
30011SOL    HW191801   0.128   5.582   5.166  0.8891 -0.3490  0.1511
30011SOL    HW291802   0.256   5.662   5.151 -0.2636  1.7832  1.2204
30012SOL     OW91803   4.245   5.459   1.646 -0.0981 -0.6460 -0.3721
30012SOL    HW191804   4.260   5.406   1.567 -2.6607 -1.3302 -0.4816
30012SOL    HW291805   4.323   5.444   1.700  1.0529 -1.3165 -2.1305
30013SOL     OW91806   4.637   3.078   1.794  0.5892 -0.1077  0.3999
30013SOL    HW191807   4.578   3.061   1.868  0.3948 -0.7617  0.1001
30013SOL    HW291808   4.578   3.098   1.721  0.7403 -0.4246  0.1872
30014SOL     OW91809   1.834   7.786   2.995  0.0008 -0.0524 -0.2171
30014SOL    HW191810   1.794   7.710   2.952 -1.1798 -0.0829  0.8655
30014SOL    HW291811   1.810   7.777   3.087  1.7396  0.4617  0.3227
30015SOL     OW91812   1.962   9.358   7.324  0.4774 -0.2095  0.3619
30015SOL    HW191813   1.985   9.369   7.416 -0.9547 -0.5180  0.7960
30015SOL    HW291814   2.023   9.293   7.292  2.8600  1.9166  0.2893
30016SOL     OW91815   1.264   7.194   6.875 -0.2350  0.0098  0.2401
30016SOL    HW191816   1.284   7.251   6.949 -0.8212  0.5614 -0.0196
30016SOL    HW291817   1.179   7.155   6.896 -0.2667 -0.0580 -0.0096
30017SOL     OW91818   7.606   0.070   9.767  0.1947 -0.0029  0.3505
30017SOL    HW191819   7.610   0.013   9.690  0.8171 -0.3456  0.6243
30017SOL    HW291820   7.522   0.049   9.808 -0.1459  0.1917 -0.2416
30018SOL     OW91821   8.663   2.930   7.285 -0.1133 -0.5067  0.6971
30018SOL    HW191822   8.608   2.973   7.350 -2.0522  0.6109 -1.5662
30018SOL    HW291823   8.748   2.974   7.292 -0.9379  1.0834  1.0138
30019SOL     OW91824   5.465   1.957   7.320 -0.2205  0.2643  0.6360
30019SOL    HW191825   5.436   2.044   7.293  1.3212  0.3082 -1.1030
30019SOL    HW291826   5.407   1.896   7.274 -0.3511  0.3624  0.6706
30020SOL     OW91827   0.946   3.278   6.653  0.5608 -0.2284  0.0035
30020SOL    HW191828   0.853   3.299   6.663  0.9253  1.7370 -0.3732
30020SOL    HW291829   0.952   3.238   6.566  0.2851  1.1954 -0.6914
30021SOL     OW91830   4.214   4.147   0.703 -0.0046  0.0782  0.0946
30021SOL    HW191831   4.245   4.237   0.709  2.2005 -0.6061  0.1093
30021SOL    HW291832   4.175   4.129   0.788  3.5052 -0.2315  1.8262
30022SOL     OW91833   4.104   0.897   2.405  0.1094 -0.1891 -0.2865
30022SOL    HW191834   4.065   0.881   2.319  1.6320 -2.7600 -0.6034
30022SOL    HW291835   4.194   0.864   2.397  0.3661 -0.2715  2.2184
30023SOL     OW91836   6.259   9.084   3.037 -0.3965 -0.0166 -0.6009
30023SOL    HW191837   6.220   9.165   3.070 -0.2185 -0.1981  0.0755
30023SOL    HW291838   6.187   9.038   2.993 -0.4615  0.5725 -1.1189
30024SOL     OW91839   3.658   6.734   7.106  0.4331 -0.1775  0.5540
30024SOL    HW191840   3.637   6.766   7.018  2.6568  1.8997  0.6507
30024SOL    HW291841   3.604   6.787   7.165  0.4435 -0.1228  0.5136
30025SOL     OW91842   7.494   5.860   4.031  0.2249 -0.1235 -0.2367
30025SOL    HW191843   7.451   5.776   4.049 -0.3686  0.1829 -0.2311
30025SOL    HW291844   7.479   5.874   3.937  0.0192  0.1505 -0.1620
30026SOL     OW91845   2.849   0.059   0.142  0.5524  0.0094 -0.5822
30026SOL    HW191846   2.795   0.107   0.205  0.7813 -0.6543  0.1329
30026SOL    HW291847   2.806  -0.026   0.133  0.5873  0.0534 -1.2453
30027SOL     OW91848   9.651   7.005   8.891 -0.4193  0.5515 -0.2287
30027SOL    HW191849   9.647   6.953   8.811 -0.0098 -0.4598  0.3793
30027SOL    HW291850   9.577   6.975   8.943 -2.6044  3.3959 -1.4281
30028SOL     OW91851   6.218   6.633   5.226  0.3917 -0.2761 -0.0727
30028SOL    HW191852   6.232   6.548   5.183  2.8575 -0.7556  1.4821
30028SOL    HW291853   6.153   6.615   5.294  1.3310 -1.1335  0.6430
30029SOL     OW91854   8.001   9.388   8.885  0.0548  0.6223  0.2285
30029SOL    HW191855   7.943   9.358   8.954  2.1333 -1.5451  1.1712
30029SOL    HW291856   8.058   9.314   8.867  0.2344  1.4003 -3.2086
30030SOL     OW91857   6.230   6.142   5.007 -0.4441  0.0185  0.0117
30030SOL    HW191858   6.198   6.052   5.009 -1.4467  0.3622  1.1158
30030SOL    HW291859   6.157   6.192   4.970  0.3048  0.3302 -1.1094
30031SOL     OW91860   4.482   1.380   0.839 -0.1198  0.7343 -0.4304
30031SOL    HW191861   4.413   1.317   0.861 -0.0864  0.9701  0.3782
30031SOL    HW291862   4.545   1.330   0.788 -0.9602  0.5518 -1.3176
30032SOL     OW91863   8.330   3.660   7.703  0.0196 -0.1158  0.0517
30032SOL    HW191864   8.292   3.587   7.654  0.4691 -0.7939  0.7064
30032SOL    HW291865   8.272   3.734   7.683 -0.0546 -0.4806 -1.1466
30033SOL     OW91866   4.450   1.190   3.699  0.1956  0.1109 -0.4466
30033SOL    HW191867   4.515   1.121   3.687  0.4334 -0.0916  1.6477
30033SOL    HW291868   4.485   1.245   3.769 -0.2517  2.0838 -1.6896
30034SOL     OW91869   1.385   2.363   5.796 -0.1504  0.0079 -0.2151
30034SOL    HW191870   1.317   2.420   5.759 -0.2435  1.2533  1.6928
30034SOL    HW291871   1.343   2.322   5.872  0.7025 -0.6352 -0.0730
30035SOL     OW91872   1.902   7.820   5.137  0.3268  0.5176  0.4734
30035SOL    HW191873   1.935   7.788   5.222  0.3040  1.2951  0.7865
30035SOL    HW291874   1.851   7.898   5.160 -0.7842 -0.0116 -0.1266
30036SOL     OW91875   8.433   6.312   9.367  0.3526 -0.1102  0.1529
30036SOL    HW191876   8.400   6.224   9.384 -0.5962  0.2805  0.3979
30036SOL    HW291877   8.356   6.368   9.374  1.0727  0.8369  0.7491
30037SOL     OW91878   1.563   0.991   8.101  0.0744 -0.3516  0.7452
30037SOL    HW191879   1.582   1.043   8.023 -1.8625 -1.4526 -0.5742
30037SOL    HW291880   1.626   0.918   8.096 -0.0933 -0.4638  0.1468
30038SOL     OW91881   6.125   3.885   0.674  0.1431  0.3176  0.1602
30038SOL    HW191882   6.077   3.828   0.735  1.5338  0.8612  1.8408
30038SOL    HW291883   6.056   3.931   0.626 -1.0139 -0.0939  1.3469
30039SOL     OW91884   1.578   2.992   4.869 -0.3173 -0.4919 -0.5670
30039SOL    HW191885   1.489   3.027   4.856 -0.5627 -0.8704  0.0624
30039SOL    HW291886   1.566   2.920   4.931  0.8151  1.3296  1.9428
30040SOL     OW91887   3.812   1.929   2.613 -0.6960 -0.6721  0.3678
30040SOL    HW191888   3.736   1.930   2.555  0.2242  0.6572 -0.8682
30040SOL    HW291889   3.787   1.986   2.686 -0.0412  1.9319 -1.2884
30041SOL     OW91890   6.229   6.587   3.287  0.0918 -0.0321  0.8301
30041SOL    HW191891   6.204   6.658   3.228  0.7236  2.8082  3.7064
30041SOL    HW291892   6.311   6.553   3.251 -0.1545  0.7601 -0.5399
30042SOL     OW91893   1.029   4.715   7.059  0.3326 -0.2979 -0.6935
30042SOL    HW191894   1.064   4.792   7.104 -1.1812 -0.3674  0.6816
30042SOL    HW291895   0.965   4.750   6.997 -0.2447 -0.4233 -0.1766
30043SOL     OW91896   9.234   3.621   2.027  0.1089  0.1371  0.1587
30043SOL    HW191897   9.210   3.586   2.113 -1.1279 -1.5667 -0.8117
30043SOL    HW291898   9.296   3.691   2.046  2.1343 -2.0351  2.3371
30044SOL     OW91899   7.465   4.853   2.569  0.0922  0.2943  0.6104
30044SOL    HW191900   7.466   4.948   2.582 -0.2380  0.1062  2.1711
30044SOL    HW291901   7.518   4.819   2.641  0.4147 -0.7059 -0.0787
30045SOL     OW91902   7.323   3.830   6.481 -0.0017  0.9284  0.3059
30045SOL    HW191903   7.335   3.902   6.544  0.6605  1.5190 -0.4695
30045SOL    HW291904   7.251   3.859   6.425 -2.2855 -0.6633  2.2161
30046SOL     OW91905   0.034   4.199   2.021  0.0210 -0.1018 -0.1581
30046SOL    HW191906   0.101   4.208   2.089 -0.3939  0.1400  0.2293
30046SOL    HW291907   0.080   4.214   1.939  0.2918  0.8716  0.1597
30047SOL     OW91908   3.754   2.301   5.382 -0.0255  0.0002 -0.2171
30047SOL    HW191909   3.733   2.221   5.333 -0.8667  0.7360 -1.1060
30047SOL    HW291910   3.669   2.332   5.413  0.5134 -0.6252  2.0721
30048SOL     OW91911   8.103   5.677   2.360 -0.1588  0.9004 -0.3688
30048SOL    HW191912   8.085   5.587   2.332 -0.2992  1.1892 -1.2556
30048SOL    HW291913   8.040   5.693   2.430  1.4253 -0.4651  1.4533
30049SOL     OW91914   0.451   6.426   8.554  0.4336 -0.0935  0.2193
30049SOL    HW191915   0.410   6.360   8.608 -0.1641  1.0260  1.1661
30049SOL    HW291916   0.379   6.471   8.510  0.8084  0.1962 -0.1184
30050SOL     OW91917   1.489   9.250   3.511  0.1833  0.1709  0.0433
30050SOL    HW191918   1.459   9.305   3.439 -1.1376  0.4821  0.8013
30050SOL    HW291919   1.549   9.188   3.470 -0.7314  0.1672 -1.3724
30051SOL     OW91920   5.887   0.981   4.402  0.1231  0.0992  0.2791
30051SOL    HW191921   5.954   1.020   4.345  0.8106  0.4536  1.3078
30051SOL    HW291922   5.845   1.056   4.445 -1.4203 -0.0694 -0.8362
30052SOL     OW91923   8.380   1.629   0.572 -0.1257 -0.1397 -0.5208
30052SOL    HW191924   8.306   1.598   0.521 -0.5819  0.2884 -0.1257
30052SOL    HW291925   8.441   1.664   0.507 -0.5944  0.1821 -0.7940
30053SOL     OW91926   2.031   9.675   2.020  0.1545 -0.4034 -0.0706
30053SOL    HW191927   1.968   9.608   2.046  0.4355 -0.6347  0.0208
30053SOL    HW291928   2.044   9.660   1.926 -0.0991 -0.2091 -0.1374
30054SOL     OW91929   0.067   0.522   2.948  0.0241 -0.5590  0.5196
30054SOL    HW191930   0.011   0.480   3.013 -1.2873  0.4674  0.0917
30054SOL    HW291931   0.109   0.594   2.996  0.5216 -0.9524  0.6851
30055SOL     OW91932   6.336   4.238   5.005 -0.7125  0.5661  0.0999
30055SOL    HW191933   6.317   4.269   5.094 -0.8052  1.0295 -0.0814
30055SOL    HW291934   6.312   4.311   4.948  0.3393  0.6777 -0.2334
30056SOL     OW91935   6.895   2.291   5.770  0.2155  0.4488 -0.2429
30056SOL    HW191936   6.896   2.242   5.852 -0.0683 -1.6193 -1.4130
30056SOL    HW291937   6.981   2.274   5.731  0.4167  1.5577 -0.3263
30057SOL     OW91938   5.516   4.069   7.100 -0.0649 -0.1043 -0.3268
30057SOL    HW191939   5.543   4.161   7.101 -0.5491  0.0356 -0.1957
30057SOL    HW291940   5.487   4.051   7.189  0.6059 -0.5623 -0.1917
30058SOL     OW91941   7.810   4.089   1.635  0.0919  0.0216 -0.0175
30058SOL    HW191942   7.857   4.126   1.560 -2.6680  1.2744 -1.2602
30058SOL    HW291943   7.777   4.005   1.604  2.0315 -1.2303  1.1106
30059SOL     OW91944   1.894   2.334   2.032 -0.1432 -0.6400  0.3227
30059SOL    HW191945   1.836   2.384   1.975 -0.0875 -1.3930 -0.4014
30059SOL    HW291946   1.968   2.310   1.976 -0.9166 -2.9222  0.1715
30060SOL     OW91947   0.332   6.857   1.620  0.4737 -0.3285 -0.4375
30060SOL    HW191948   0.280   6.917   1.567  1.8689  1.2796 -0.0379
30060SOL    HW291949   0.393   6.817   1.558 -0.0934 -0.9886 -0.5989
30061SOL     OW91950   4.524   9.391   6.101  0.3609  0.3602  0.3313
30061SOL    HW191951   4.492   9.477   6.076  1.4014  1.2384  1.8070
30061SOL    HW291952   4.560   9.404   6.189 -1.3384 -2.0410  1.4977
30062SOL     OW91953   4.815   7.481   3.129 -0.1251 -0.5452 -0.3300
30062SOL    HW191954   4.862   7.494   3.047  3.7903  1.1469  1.9106
30062SOL    HW291955   4.813   7.568   3.169 -1.5524 -1.3916  1.5953
30063SOL     OW91956   7.627   3.128   0.995  0.0621  0.2361 -0.0899
30063SOL    HW191957   7.658   3.073   0.923 -0.9629 -1.6078  0.7885
30063SOL    HW291958   7.647   3.217   0.968  1.6189 -0.5291 -1.6954
30064SOL     OW91959   7.539   4.826   8.965 -0.1813 -0.0665 -0.3652
30064SOL    HW191960   7.548   4.731   8.975 -0.0217  0.0548  0.7578
30064SOL    HW291961   7.629   4.859   8.965 -0.2242  0.0716 -1.0156
30065SOL     OW91962   9.294   2.181   1.841 -0.3022  0.3596  0.7015
30065SOL    HW191963   9.344   2.159   1.919  2.5871  2.1978 -0.4526
30065SOL    HW291964   9.275   2.097   1.800  2.6637 -0.4603  0.8149
30066SOL     OW91965   2.405   1.578   7.309  0.2259  0.3707  0.4122
30066SOL    HW191966   2.340   1.634   7.266 -0.2020 -0.5701 -0.2128
30066SOL    HW291967   2.453   1.637   7.367 -0.6520  1.2459  0.2846
30067SOL     OW91968   7.745   2.283   5.638  0.3916  0.0985  0.1072
30067SOL    HW191969   7.745   2.229   5.559 -1.3515 -0.2904  0.3233
30067SOL    HW291970   7.784   2.366   5.610  1.7581 -0.7501 -0.5989
30068SOL     OW91971   7.605   1.146   7.326  0.2078  0.1742 -0.0318
30068SOL    HW191972   7.533   1.104   7.280 -0.1728  2.2184 -1.4148
30068SOL    HW291973   7.566   1.178   7.407 -1.1259  3.1040 -1.6609
30069SOL     OW91974   6.282   6.761   2.917  0.0781 -0.0815 -0.2865
30069SOL    HW191975   6.363   6.711   2.929 -1.4586 -2.9884 -1.0554
30069SOL    HW291976   6.257   6.743   2.826 -2.3490 -0.8147  0.4663
30070SOL     OW91977   5.657   0.781   0.795 -0.2183 -0.0855  0.1542
30070SOL    HW191978   5.688   0.834   0.868 -1.3836  0.7815  0.0486
30070SOL    HW291979   5.564   0.768   0.813 -0.2569 -0.8910 -0.5575
30071SOL     OW91980   8.198   4.876   5.674  0.0152 -0.1647 -0.5300
30071SOL    HW191981   8.208   4.782   5.657 -0.4991 -0.1997 -0.6546
30071SOL    HW291982   8.114   4.883   5.719  1.0800 -0.0139  1.5626
30072SOL     OW91983   1.381   2.073   6.390 -0.6918  0.2966  0.1501
30072SOL    HW191984   1.388   2.069   6.486  0.0713  2.2385  0.2297
30072SOL    HW291985   1.290   2.097   6.374 -0.3963  1.8090  0.5253
30073SOL     OW91986   4.294   1.102   3.200  0.4383 -0.4190  0.2485
30073SOL    HW191987   4.346   1.148   3.134 -0.1144 -1.3739 -0.8939
30073SOL    HW291988   4.355   1.084   3.271  1.3696 -0.4566 -0.5460
30074SOL     OW91989   6.975   0.881   1.485  0.2959  0.2086  0.0311
30074SOL    HW191990   6.979   0.877   1.581  0.7903  2.5631  0.1682
30074SOL    HW291991   7.066   0.882   1.457  0.3382  3.7002 -0.1131
30075SOL     OW91992   5.450   0.655   3.913  0.1489  0.2395 -0.3385
30075SOL    HW191993   5.364   0.619   3.931 -0.5944  1.3222 -1.5833
30075SOL    HW291994   5.507   0.578   3.906 -0.6489 -0.4769  0.6872
30076SOL     OW91995   9.798   5.199   8.411 -0.3467  0.2832 -0.1515
30076SOL    HW191996   9.763   5.148   8.338  0.4580 -1.5945  0.7268
30076SOL    HW291997   9.760   5.286   8.399 -1.8107 -0.5066 -1.6723
30077SOL     OW91998   7.374   2.192   2.403 -0.2827  0.3485 -0.0834
30077SOL    HW191999   7.342   2.232   2.484  1.8211  2.8116 -0.3402
30077SOL    HW292000   7.425   2.117   2.431  0.2923  1.0806  0.8898
30078SOL     OW92001   6.445   8.952   2.693  0.4844 -0.3758 -0.2314
30078SOL    HW192002   6.358   8.917   2.711  0.0284  0.8868  0.1588
30078SOL    HW292003   6.504   8.879   2.708 -0.5859 -1.5801 -1.6098
30079SOL     OW92004   6.454   6.797   3.885 -0.0387  0.1912  0.9101
30079SOL    HW192005   6.481   6.745   3.960 -0.0992 -0.2163  0.6534
30079SOL    HW292006   6.420   6.878   3.923 -0.6790 -0.2746  1.3649
30080SOL     OW92007   8.075   1.070   5.995  0.5256 -0.8587  0.6884
30080SOL    HW192008   8.009   1.087   5.928  0.3371 -0.7465  0.8999
30080SOL    HW292009   8.025   1.049   6.074  0.7486 -1.3069  0.7154
30081SOL     OW92010   1.453   7.915   6.514  0.4451  0.2973 -0.2636
30081SOL    HW192011   1.535   7.886   6.474  0.4666  0.8054 -0.6068
30081SOL    HW292012   1.440   7.856   6.587 -0.0028 -1.1871 -1.4831
30082SOL     OW92013   0.202   1.537   3.020 -0.1902  0.2037 -0.3869
30082SOL    HW192014   0.228   1.529   2.928 -1.2621  0.2959 -0.7095
30082SOL    HW292015   0.155   1.621   3.025  0.7044  0.6851  0.4655
30083SOL     OW92016   9.343   8.142   0.684  0.4416  0.3491 -0.5734
30083SOL    HW192017   9.424   8.092   0.672  1.4680  1.6008  0.9070
30083SOL    HW292018   9.372   8.232   0.700 -1.2818  0.9558 -0.7041
30084SOL     OW92019   6.402   5.956   5.478 -0.7585  0.2215  0.1425
30084SOL    HW192020   6.363   5.968   5.391 -0.7907  0.4330  0.1861
30084SOL    HW292021   6.479   6.012   5.477 -0.5285 -0.0931  0.1049
30085SOL     OW92022   3.835   4.929   4.489 -0.5575  0.3991  0.1895
30085SOL    HW192023   3.760   4.911   4.431 -1.6860 -0.6934  1.8859
30085SOL    HW292024   3.884   4.846   4.490  0.4600  0.9742 -0.5623
30086SOL     OW92025   9.162   8.931   6.316 -0.2407 -0.2667 -0.1929
30086SOL    HW192026   9.133   8.875   6.244 -1.1684 -0.2977  0.2006
30086SOL    HW292027   9.247   8.965   6.286 -1.8930  2.1273 -2.6637
30087SOL     OW92028   8.346   8.139   1.101 -0.6898 -0.2138  0.6924
30087SOL    HW192029   8.441   8.151   1.103 -0.0770 -3.8431  0.3571
30087SOL    HW292030   8.329   8.098   1.016 -2.5730  0.2758  0.7925
30088SOL     OW92031   7.196   0.741   1.727  0.9151 -0.1927 -0.1811
30088SOL    HW192032   7.277   0.769   1.683  1.0332  0.0389  0.1751
30088SOL    HW292033   7.142   0.820   1.729  0.7769 -0.2873 -0.2093
30089SOL     OW92034   9.712   4.275   7.475 -0.7542 -0.3325  0.6112
30089SOL    HW192035   9.649   4.225   7.424 -0.2773  0.5630 -0.9198
30089SOL    HW292036   9.692   4.367   7.455 -0.2823  0.0454  1.7353
30090SOL     OW92037   5.304   4.835   8.529 -0.0247  0.0768  0.2737
30090SOL    HW192038   5.297   4.785   8.448  0.4057 -0.3304  0.4817
30090SOL    HW292039   5.374   4.898   8.512 -0.5473  0.5911  0.0216
30091SOL     OW92040   7.397   5.411   8.081 -0.3904 -0.3301 -0.5465
30091SOL    HW192041   7.346   5.330   8.070 -1.3964  0.4159 -1.6458
30091SOL    HW292042   7.354   5.457   8.153  0.6379 -1.0779  0.5850
30092SOL     OW92043   0.227   6.799   5.783 -0.1268  0.5385  0.0067
30092SOL    HW192044   0.148   6.758   5.747 -0.6021  1.6734 -0.2864
30092SOL    HW292045   0.299   6.752   5.741 -0.6518  0.1412 -0.4706
30093SOL     OW92046   8.425   7.705   9.597 -0.6613 -0.0722 -0.3992
30093SOL    HW192047   8.436   7.750   9.513  0.8616 -1.3743 -0.9389
30093SOL    HW292048   8.388   7.620   9.575 -0.2054 -0.4481  0.2448
30094SOL     OW92049   0.091   1.496   9.385  0.1640 -0.3144  0.1730
30094SOL    HW192050   0.100   1.509   9.290 -0.9684 -0.0926  0.0805
30094SOL    HW292051   0.021   1.556   9.411 -1.2737 -2.1228  0.7176
30095SOL     OW92052   6.667   5.581   4.665 -0.3482  0.7008 -0.3973
30095SOL    HW192053   6.668   5.670   4.700  0.7172  0.7159 -0.4248
30095SOL    HW292054   6.716   5.587   4.583 -0.8273  0.2113 -0.7246
30096SOL     OW92055   4.289   6.476   6.366  0.3650  0.0417  0.0431
30096SOL    HW192056   4.199   6.506   6.378  0.3128  0.1577 -0.6048
30096SOL    HW292057   4.343   6.553   6.383  0.3505 -0.0380  0.4706
30097SOL     OW92058   6.857   8.574   1.367  0.1283 -0.4422 -0.1734
30097SOL    HW192059   6.950   8.593   1.354 -0.2419  0.6234 -1.5883
30097SOL    HW292060   6.852   8.479   1.375  1.3363 -0.5128 -0.0914
30098SOL     OW92061   5.582   6.527   0.661  0.6449 -0.2075  0.2651
30098SOL    HW192062   5.668   6.530   0.703  0.6690  2.4436  0.2347
30098SOL    HW292063   5.598   6.483   0.577  1.3398 -2.2693  1.4193
30099SOL     OW92064   3.677   3.134   2.653 -0.3597 -0.3525  0.1820
30099SOL    HW192065   3.730   3.061   2.620 -1.4030 -1.3169  0.5789
30099SOL    HW292066   3.637   3.172   2.574 -1.8298 -1.8467  0.1415
30100SOL     OW92067   6.007   0.181   1.188  0.1202 -0.2753 -0.3583
30100SOL    HW192068   5.914   0.205   1.183  0.2251  0.1682 -0.2552
30100SOL    HW292069   6.045   0.214   1.107  0.8199  2.4481  0.9609
30101SOL     OW92070   0.463   7.281   6.779 -0.2335  0.4900  0.9127
30101SOL    HW192071   0.486   7.327   6.860  0.2039  1.6505  0.1530
30101SOL    HW292072   0.537   7.297   6.720 -0.9403  0.4127 -0.0170
30102SOL     OW92073   3.717   9.326   7.123  0.3454  0.2349  0.2401
30102SOL    HW192074   3.705   9.416   7.156 -0.8900  0.3244 -0.3752
30102SOL    HW292075   3.706   9.271   7.201 -0.3044  0.5574  0.3878
30103SOL     OW92076   3.725   3.028   3.657  0.4107  0.1098 -0.5512
30103SOL    HW192077   3.729   3.063   3.746 -1.8933 -1.1047  0.1299
30103SOL    HW292078   3.805   2.977   3.647 -0.1100 -1.2550  1.5813
30104SOL     OW92079   6.635   5.824   4.874 -0.3981 -0.3080 -0.6535
30104SOL    HW192080   6.559   5.779   4.911 -0.1534  0.5786  1.0001
30104SOL    HW292081   6.638   5.907   4.920  0.8196  0.2229 -1.6454
30105SOL     OW92082   1.980   6.576   7.715  0.1561  0.3377  0.6665
30105SOL    HW192083   1.937   6.523   7.783  1.5799  0.3335  1.6062
30105SOL    HW292084   2.074   6.563   7.730  0.5284 -0.0954 -1.6713
30106SOL     OW92085   7.525   5.617   0.450 -0.3026 -0.3091  0.6831
30106SOL    HW192086   7.534   5.712   0.461 -0.0822  0.0869 -2.1149
30106SOL    HW292087   7.615   5.585   0.443 -0.3995 -0.5234  0.3932
30107SOL     OW92088   1.080   0.522   0.582  0.5735 -0.3068 -0.1067
30107SOL    HW192089   1.082   0.524   0.678 -0.1208  0.6995 -0.1024
30107SOL    HW292090   1.006   0.578   0.558  1.0444 -0.1476 -1.2499
30108SOL     OW92091   7.404   5.933   7.374  0.2453 -0.9599  0.5080
30108SOL    HW192092   7.361   5.848   7.387  0.0503 -1.0697 -0.7282
30108SOL    HW292093   7.435   5.930   7.283 -1.1185  0.8963 -0.0579
30109SOL     OW92094   2.444   7.170   7.092  0.4574 -0.1541  0.6351
30109SOL    HW192095   2.483   7.250   7.128  0.8667  0.0476 -0.2071
30109SOL    HW292096   2.510   7.137   7.031 -0.5958  0.1122 -0.7084
30110SOL     OW92097   1.367   2.639   5.982 -0.2527 -0.0677 -0.3385
30110SOL    HW192098   1.277   2.604   5.987 -0.6184  0.9295  0.6860
30110SOL    HW292099   1.379   2.663   5.891 -0.0029 -2.7301 -1.0966
30111SOL     OW92100   7.089   5.905   8.538 -0.1205  0.5024 -0.2476
30111SOL    HW192101   7.033   5.837   8.502 -0.0885  0.9040 -1.0804
30111SOL    HW292102   7.028   5.974   8.566 -0.2271 -0.2110  1.4413
30112SOL     OW92103   7.692   8.697   2.887  0.0212  0.7331 -0.5918
30112SOL    HW192104   7.685   8.645   2.807  0.4077  0.5525 -0.5074
30112SOL    HW292105   7.601   8.716   2.910 -0.0791  1.7398 -1.6934
30113SOL     OW92106   6.119   6.347   3.884  0.1195  0.5420 -0.8946
30113SOL    HW192107   6.154   6.394   3.808  1.3412 -0.0772 -0.7448
30113SOL    HW292108   6.079   6.268   3.847  0.2706  0.4896 -0.9495
30114SOL     OW92109   4.543   7.792   7.108  0.9084 -0.2580  0.1457
30114SOL    HW192110   4.496   7.759   7.032 -0.3138 -0.2650  0.8755
30114SOL    HW292111   4.588   7.870   7.076 -0.8152  0.6171 -0.2601
30115SOL     OW92112   2.359   8.532   2.493 -0.3437 -0.3732  1.3205
30115SOL    HW192113   2.287   8.558   2.436  1.8751 -0.8191 -1.9514
30115SOL    HW292114   2.383   8.612   2.540 -1.0572  0.5363  0.1771
30116SOL     OW92115   6.608   7.908   2.515  0.3052  0.5402  0.5531
30116SOL    HW192116   6.537   7.871   2.566  0.3227  1.6748  1.4377
30116SOL    HW292117   6.608   8.001   2.538  2.1093  0.5550  0.6248
30117SOL     OW92118   6.723   2.794   9.777  0.2388 -0.1641 -0.0847
30117SOL    HW192119   6.685   2.858   9.837 -1.8504 -0.6401 -0.8193
30117SOL    HW292120   6.674   2.714   9.793 -0.7694 -0.1776 -2.7190
30118SOL     OW92121   8.909   8.448   0.036  0.1315 -0.2277  0.3859
30118SOL    HW192122   8.906   8.383   0.105 -0.8499 -1.5393 -0.8360
30118SOL    HW292123   8.956   8.405  -0.036  1.3029  1.1640  0.2642
30119SOL     OW92124   9.538   9.003   6.566  0.4242  0.0021 -0.3259
30119SOL    HW192125   9.470   9.068   6.546 -1.5408 -2.0399 -0.6197
30119SOL    HW292126   9.539   8.998   6.661  0.0313 -0.1093 -0.3288
30120SOL     OW92127   1.124   7.958   0.869  0.2919  0.3770 -0.1089
30120SOL    HW192128   1.131   7.967   0.964 -0.5411  1.6950 -0.1509
30120SOL    HW292129   1.077   8.037   0.841  0.9676  0.2530 -1.6686
30121SOL     OW92130   4.223   9.697   0.398  0.4132  0.4548  0.1175
30121SOL    HW192131   4.130   9.689   0.420  0.3466  1.0223  0.0572
30121SOL    HW292132   4.230   9.663   0.309 -0.0350  1.9463 -0.5187
30122SOL     OW92133   3.459   2.221   3.811 -0.2652 -0.4505  0.0143
30122SOL    HW192134   3.529   2.276   3.776  0.0756  0.6390  2.2248
30122SOL    HW292135   3.503   2.141   3.838  0.1320  0.1269  1.1541
30123SOL     OW92136   1.063   5.839   3.305  0.4249 -0.2608  0.6895
30123SOL    HW192137   1.055   5.748   3.275  2.3835 -0.8236  1.7332
30123SOL    HW292138   1.154   5.847   3.334  0.3041  2.0555  0.6174
30124SOL     OW92139   0.905   3.535   6.974  0.1570 -0.8792  0.2801
30124SOL    HW192140   0.926   3.583   6.894 -1.5300 -2.1624 -1.0075
30124SOL    HW292141   0.860   3.599   7.029  0.2290 -0.2980 -0.3214
30125SOL     OW92142   5.893   1.932   7.329 -0.2315 -0.3367 -0.0430
30125SOL    HW192143   5.841   1.993   7.276  0.4255 -1.1922 -1.7479
30125SOL    HW292144   5.960   1.900   7.270  0.4845 -1.4404  1.3064
30126SOL     OW92145   7.621   0.572   4.281  0.3446 -0.3503  0.6783
30126SOL    HW192146   7.540   0.620   4.262  0.5985 -0.6940 -1.4384
30126SOL    HW292147   7.592   0.487   4.312 -0.1085 -0.2362  0.5719
30127SOL     OW92148   7.548   9.509   6.476  0.0314  0.0397  0.1956
30127SOL    HW192149   7.560   9.584   6.416  0.4681 -0.1148  0.0879
30127SOL    HW292150   7.467   9.529   6.523 -1.7868 -1.0323 -2.2476
30128SOL     OW92151   6.093   2.876   2.718  0.3457  0.3357 -0.2181
30128SOL    HW192152   6.083   2.898   2.811 -0.0104  1.2521 -0.4564
30128SOL    HW292153   6.182   2.904   2.697 -0.0536  1.4778 -0.4822
30129SOL     OW92154   0.756   8.647   8.118 -0.3967  0.0521 -0.2982
30129SOL    HW192155   0.830   8.622   8.061 -0.8096  0.9669 -1.2764
30129SOL    HW292156   0.743   8.572   8.175 -1.1547 -1.7365 -2.6588
30130SOL     OW92157   3.149   2.871   0.939  0.2872  0.1332  0.1648
30130SOL    HW192158   3.140   2.815   1.016 -0.3131  1.7266  1.3014
30130SOL    HW292159   3.216   2.935   0.963 -1.9005  2.4214  0.5281
30131SOL     OW92160   4.655   3.223   6.505  0.2288  0.1540 -0.0028
30131SOL    HW192161   4.621   3.199   6.591  1.4231  1.3835  0.8565
30131SOL    HW292162   4.600   3.175   6.443 -1.7633  0.5343  1.3719
30132SOL     OW92163   7.416   3.576   5.928 -0.4143  0.1693 -0.4892
30132SOL    HW192164   7.491   3.569   5.986  0.4079 -0.2308 -1.5609
30132SOL    HW292165   7.384   3.665   5.940  1.0714  0.7998 -0.9801
30133SOL     OW92166   1.134   9.775   2.779 -0.2331  0.3424  0.5830
30133SOL    HW192167   1.059   9.804   2.726  0.0835  0.5324  0.2362
30133SOL    HW292168   1.104   9.785   2.869 -0.4651  0.8587  0.4555
30134SOL     OW92169   6.589   1.588   0.369 -0.0595 -0.1938  0.8343
30134SOL    HW192170   6.662   1.529   0.390  0.4865  0.5093  0.9593
30134SOL    HW292171   6.572   1.636   0.450 -1.0276 -0.7283  0.9559
30135SOL     OW92172   8.903   3.376   1.436  0.1792 -0.4328 -0.5181
30135SOL    HW192173   8.880   3.458   1.480 -0.8167  0.2196 -2.1557
30135SOL    HW292174   8.994   3.360   1.460 -0.2535 -0.0116  1.5666
30136SOL     OW92175   3.666   2.962   5.284 -0.3035 -0.1351 -0.5969
30136SOL    HW192176   3.744   2.941   5.336 -0.7692 -1.1633 -0.2957
30136SOL    HW292177   3.698   2.966   5.194  0.2187  0.1237 -0.4067
30137SOL     OW92178   8.255   2.710   2.141  0.1632 -0.4772  0.2247
30137SOL    HW192179   8.251   2.673   2.229  3.1480 -1.4716  0.0657
30137SOL    HW292180   8.252   2.804   2.155 -0.9908 -0.6337  1.2243
30138SOL     OW92181   3.114   8.791   4.625  0.0461  0.4242  0.2347
30138SOL    HW192182   3.027   8.832   4.630  0.7305  1.9840 -0.0305
30138SOL    HW292183   3.107   8.714   4.682 -1.4443  0.6285  0.3829
30139SOL     OW92184   0.037   5.126   9.639 -0.2551  0.1979 -0.3998
30139SOL    HW192185   0.126   5.106   9.667 -0.5475 -2.5977 -1.1380
30139SOL    HW292186  -0.019   5.086   9.705 -0.9422 -0.1721 -1.1827
30140SOL     OW92187   0.007   6.633   9.219  0.7081 -0.3591 -0.3054
30140SOL    HW192188   0.038   6.720   9.192  4.5104 -0.7538  1.9511
30140SOL    HW292189   0.054   6.572   9.161  1.6239 -0.9272  0.9750
30141SOL     OW92190   4.940   2.562   0.651 -0.5144  0.1755  0.2782
30141SOL    HW192191   4.964   2.559   0.558 -2.1102  1.1703 -0.2114
30141SOL    HW292192   4.982   2.642   0.683  0.4408 -0.4226  0.5622
30142SOL     OW92193   3.971   6.657   9.751 -0.4646 -0.2205  0.3736
30142SOL    HW192194   4.020   6.639   9.672 -2.3677 -0.5676 -0.7933
30142SOL    HW292195   3.979   6.577   9.803  0.9548  0.0842  0.6693
30143SOL     OW92196   9.059   1.721   4.316 -0.2616  0.3810  0.1162
30143SOL    HW192197   9.069   1.756   4.228 -1.3430  1.5677  0.4351
30143SOL    HW292198   9.106   1.783   4.372 -0.0496 -0.0626  0.4357
30144SOL     OW92199   5.567   9.289   6.179  0.2419 -0.1136 -0.1146
30144SOL    HW192200   5.602   9.267   6.093 -1.2287 -0.3730 -0.6795
30144SOL    HW292201   5.479   9.321   6.161 -0.7576 -1.8271  1.4172
30145SOL     OW92202   1.699   9.818   4.908 -0.0228  0.3437  0.1923
30145SOL    HW192203   1.787   9.836   4.940 -0.2442  0.8381  0.5517
30145SOL    HW292204   1.708   9.741   4.853  0.8173  1.0510 -0.6775
30146SOL     OW92205   4.130   7.104   1.265  0.2003 -0.6793  0.2617
30146SOL    HW192206   4.110   7.067   1.179 -1.8025  2.2553 -0.6719
30146SOL    HW292207   4.086   7.046   1.327 -0.4724 -1.4393 -0.8831
30147SOL     OW92208   3.843   6.058   0.994  0.3830 -0.3593  0.1539
30147SOL    HW192209   3.904   6.081   1.064 -1.3088  1.0746  1.2400
30147SOL    HW292210   3.756   6.060   1.036 -0.7234  0.8700 -2.0369
30148SOL     OW92211   0.605   3.193   7.445 -0.1816 -0.7169  0.5312
30148SOL    HW192212   0.622   3.098   7.446 -1.0947 -0.9063 -0.2608
30148SOL    HW292213   0.567   3.211   7.531  1.3273 -0.7793  1.2590
30149SOL     OW92214   8.518   8.643   5.111  0.3231  0.7197 -0.7344
30149SOL    HW192215   8.599   8.600   5.084  0.8328  0.6670  0.8173
30149SOL    HW292216   8.454   8.572   5.116  0.6034  0.4936 -0.3380
30150SOL     OW92217   3.417   7.311   0.791  0.1523 -0.0582  0.2611
30150SOL    HW192218   3.325   7.289   0.778 -0.2038  0.4801  1.6847
30150SOL    HW292219   3.458   7.229   0.818 -0.0837 -0.1206  0.4309
30151SOL     OW92220   0.513   2.811   3.870  0.7531 -0.3595  0.2782
30151SOL    HW192221   0.543   2.720   3.867 -0.3205 -0.7610  0.8580
30151SOL    HW292222   0.536   2.841   3.958  0.6492 -0.2413  0.2660
30152SOL     OW92223   5.390   5.409   9.707 -0.8755 -0.6432  0.2652
30152SOL    HW192224   5.474   5.377   9.740 -0.5797 -0.9097 -0.7218
30152SOL    HW292225   5.333   5.332   9.708 -0.4682 -0.9910 -1.1069
30153SOL     OW92226   9.033   2.065   8.902  0.1720  0.0354  0.4563
30153SOL    HW192227   9.044   1.976   8.937 -1.9219 -1.2755 -1.9374
30153SOL    HW292228   9.075   2.121   8.968 -0.3167 -2.5098  3.1640
30154SOL     OW92229   8.175   8.456   1.923  0.2094  0.5559  0.8937
30154SOL    HW192230   8.111   8.413   1.866  0.9428  0.0963  0.4135
30154SOL    HW292231   8.156   8.550   1.913 -1.4165  0.3986  1.9669
30155SOL     OW92232   7.661   5.727   5.396  0.2056  0.1220 -0.5616
30155SOL    HW192233   7.566   5.735   5.406  0.1310 -1.2507  0.1391
30155SOL    HW292234   7.678   5.634   5.410  1.8328  0.5966  0.9581
30156SOL     OW92235   3.283   6.168   9.262  0.0457 -0.0138  0.3548
30156SOL    HW192236   3.308   6.260   9.256  0.6533 -0.1534  0.6329
30156SOL    HW292237   3.202   6.162   9.212  0.6446  0.4348 -0.7283
30157SOL     OW92238   2.165   9.535   4.005  0.4143  0.2325  0.4716
30157SOL    HW192239   2.174   9.483   3.925  0.3296  1.7200 -0.5377
30157SOL    HW292240   2.246   9.520   4.053 -0.0004 -1.5711  0.6876
30158SOL     OW92241   1.639   6.838   1.108  0.0522  0.4081 -0.1830
30158SOL    HW192242   1.578   6.774   1.145 -0.4735  0.7550 -0.4368
30158SOL    HW292243   1.700   6.786   1.056 -0.6406  0.1534 -0.7534
30159SOL     OW92244   7.398   1.343   7.402 -0.0829  0.2924  0.1661
30159SOL    HW192245   7.470   1.352   7.339 -2.0169  1.3096 -2.0526
30159SOL    HW292246   7.399   1.426   7.451  0.6878 -0.0132  0.6942
30160SOL     OW92247   2.163   5.857   8.871 -0.2539  0.1560 -0.4173
30160SOL    HW192248   2.248   5.886   8.903 -0.8924  1.3834  0.2232
30160SOL    HW292249   2.121   5.817   8.947 -0.4955  0.1240 -0.5673
30161SOL     OW92250   4.594   8.757   4.945 -0.3307  0.6149 -0.1871
30161SOL    HW192251   4.663   8.723   5.002  0.4802  0.8927 -0.9929
30161SOL    HW292252   4.595   8.700   4.869 -1.7080 -0.0219  0.2336
30162SOL     OW92253   9.763   6.859   2.407  0.7360  0.2363  0.4640
30162SOL    HW192254   9.744   6.953   2.411  1.1816  0.2740  2.3500
30162SOL    HW292255   9.857   6.853   2.421  0.8459 -0.4624 -0.4855
30163SOL     OW92256   9.508   4.746   2.954  0.3699  0.4725 -0.1669
30163SOL    HW192257   9.506   4.652   2.970 -2.4206  0.4189 -0.4080
30163SOL    HW292258   9.522   4.784   3.041  0.1982 -0.1288  0.1293
30164SOL     OW92259   1.217   7.946   1.408  0.1758  0.6735 -0.4259
30164SOL    HW192260   1.284   7.878   1.406 -1.4451 -1.0368  0.1990
30164SOL    HW292261   1.162   7.923   1.483 -1.4338  1.6861 -1.2415
30165SOL     OW92262   4.064   8.852   8.415  0.3069  0.3814 -0.2368
30165SOL    HW192263   4.075   8.811   8.501  1.5187  0.7311 -0.2111
30165SOL    HW292264   4.087   8.784   8.352 -1.2702 -0.1066 -0.3533
30166SOL     OW92265   4.752   4.650   1.311  0.2120  0.0887  0.1689
30166SOL    HW192266   4.720   4.705   1.382 -0.4236  1.0058 -0.7931
30166SOL    HW292267   4.740   4.703   1.232  2.3064 -0.2864 -0.4787
30167SOL     OW92268   9.572   3.698   9.463 -0.7432 -0.0422 -0.6065
30167SOL    HW192269   9.490   3.732   9.427 -1.5826 -0.1338  1.1383
30167SOL    HW292270   9.557   3.604   9.473 -0.5755 -0.0046  0.0533
30168SOL     OW92271   8.715   8.271   6.270  0.1103 -0.5853 -0.1659
30168SOL    HW192272   8.798   8.224   6.268 -0.6757 -2.1773  1.7694
30168SOL    HW292273   8.706   8.302   6.360 -1.2381 -0.1358 -0.4215
30169SOL     OW92274   1.835   3.484   8.823  0.3392 -0.5441  0.0782
30169SOL    HW192275   1.825   3.406   8.769  0.0920 -1.0395  0.8339
30169SOL    HW292276   1.852   3.554   8.760 -1.7320 -0.7762 -0.8175
30170SOL     OW92277   5.689   4.053   1.463 -0.3425  0.5157 -0.6002
30170SOL    HW192278   5.758   4.115   1.485 -0.6553  0.9463 -0.8066
30170SOL    HW292279   5.733   3.985   1.412 -0.1766  1.1039 -1.2583
30171SOL     OW92280   6.818   2.432   2.839  0.3570  0.5161  0.3558
30171SOL    HW192281   6.776   2.491   2.902  2.0437  2.2582 -0.0670
30171SOL    HW292282   6.879   2.381   2.892 -0.1012  0.0970  0.4974
30172SOL     OW92283   6.128   0.745   8.561  0.4621  0.2184 -0.8363
30172SOL    HW192284   6.130   0.658   8.521 -0.0210 -0.7908  1.1519
30172SOL    HW292285   6.214   0.783   8.541 -0.1748  0.3490 -3.7852
30173SOL     OW92286   1.878   6.403   8.802  1.1094 -0.2135  0.5939
30173SOL    HW192287   1.784   6.407   8.817  0.8517 -0.2154 -0.8683
30173SOL    HW292288   1.917   6.447   8.878 -0.1773  1.8976  0.1039
30174SOL     OW92289   3.091   4.138   3.170 -0.2673 -0.5186 -0.1694
30174SOL    HW192290   3.147   4.146   3.247 -0.0556 -0.2482 -0.3503
30174SOL    HW292291   3.050   4.224   3.161 -1.5192 -1.0091  0.5708
30175SOL     OW92292   6.220   9.601   4.162 -0.6904  0.0401 -0.5292
30175SOL    HW192293   6.148   9.542   4.185 -0.4412  0.0285  0.2550
30175SOL    HW292294   6.299   9.547   4.171 -0.6522 -0.3251 -2.6595
30176SOL     OW92295   2.669   6.060   8.832  0.5852 -0.3445  0.2336
30176SOL    HW192296   2.705   6.020   8.753  0.1594  1.9307 -1.1768
30176SOL    HW292297   2.575   6.042   8.828  0.5035  0.1287 -0.0027
30177SOL     OW92298   6.109   7.692   1.002 -0.3210 -0.5936  0.4300
30177SOL    HW192299   6.136   7.601   1.011  0.3784 -0.4831 -0.4313
30177SOL    HW292300   6.180   7.743   1.041 -0.1843 -0.3829 -0.0794
30178SOL     OW92301   4.980   9.725   6.402  0.1779 -0.1374  0.1723
30178SOL    HW192302   4.889   9.739   6.373 -0.0493 -0.7560  0.5791
30178SOL    HW292303   5.025   9.696   6.323  0.2987  1.3044 -0.3130
30179SOL     OW92304   0.507   3.068   8.421  0.2647  1.1327  0.1741
30179SOL    HW192305   0.481   2.987   8.378 -0.1630  1.2928  0.1242
30179SOL    HW292306   0.584   3.098   8.371  0.2324  0.9243 -0.0039
30180SOL     OW92307   0.181   9.363   0.988  0.1676  0.2234 -0.1857
30180SOL    HW192308   0.258   9.377   1.043  0.2529  0.0512 -0.2627
30180SOL    HW292309   0.196   9.420   0.912  0.2606  0.1226 -0.2428
30181SOL     OW92310   1.230   5.928   8.689 -0.0080 -0.1265  0.7158
30181SOL    HW192311   1.200   5.980   8.763  0.5405  0.1519  0.7515
30181SOL    HW292312   1.195   5.974   8.612 -2.4607 -1.6298  0.8319
30182SOL     OW92313   6.603   8.086   0.637 -0.2259  0.1599 -0.3208
30182SOL    HW192314   6.576   8.003   0.598 -0.3522  0.0771 -0.0600
30182SOL    HW292315   6.522   8.129   0.663 -0.0967 -0.4224  1.1421
30183SOL     OW92316   2.206   2.045   5.424  0.2974  0.1136 -0.0932
30183SOL    HW192317   2.264   2.120   5.439  0.2017  1.2850 -4.2056
30183SOL    HW292318   2.249   1.996   5.354 -2.5695 -0.1582 -1.8216
30184SOL     OW92319   1.459   2.055   8.041  0.0142 -0.0783  0.0862
30184SOL    HW192320   1.425   2.071   7.953 -0.6997 -1.6277  0.0375
30184SOL    HW292321   1.380   2.045   8.095  0.4437  0.8381  0.9084
30185SOL     OW92322   8.215   6.711   6.516  0.0953  0.2709 -0.2346
30185SOL    HW192323   8.276   6.724   6.444  1.2843 -0.6932  0.5515
30185SOL    HW292324   8.268   6.722   6.595 -0.6348 -1.0281  0.4697
30186SOL     OW92325   5.663   2.753   1.420  0.0310 -0.3477  0.1833
30186SOL    HW192326   5.606   2.821   1.457  0.7274  0.5847 -0.4073
30186SOL    HW292327   5.640   2.752   1.327  0.9149 -0.0104 -0.0466
30187SOL     OW92328   5.305   5.534   9.486 -0.0822 -0.0751 -0.4782
30187SOL    HW192329   5.255   5.466   9.441 -1.7904 -0.9233  2.4283
30187SOL    HW292330   5.348   5.487   9.559  1.1051  1.4871 -0.1177
30188SOL     OW92331   9.328   4.067   7.785 -0.6327 -0.3389 -0.0818
30188SOL    HW192332   9.418   4.050   7.812 -0.6224 -0.3966 -0.1550
30188SOL    HW292333   9.310   4.001   7.719 -0.8106 -0.4830  0.1101
30189SOL     OW92334   5.006   4.722   6.374  0.6216  0.0591 -0.0413
30189SOL    HW192335   5.076   4.695   6.314 -1.2027 -3.8842 -0.7068
30189SOL    HW292336   5.042   4.707   6.461  1.6886  1.3106 -0.2424
30190SOL     OW92337   3.277   2.052   3.689  0.3494  0.2478 -0.0873
30190SOL    HW192338   3.300   2.138   3.724  0.3784 -1.1863  3.8176
30190SOL    HW292339   3.218   2.014   3.753 -0.7255 -2.2139 -2.3311
30191SOL     OW92340   7.086   0.341   1.668 -0.2422  0.0599  0.6179
30191SOL    HW192341   7.003   0.375   1.634  0.4258  0.6969 -0.4080
30191SOL    HW292342   7.095   0.255   1.627  0.8506  1.0699 -1.3605
30192SOL     OW92343   0.085   3.557   8.536 -0.0522  0.1561  0.2518
30192SOL    HW192344   0.079   3.487   8.471  2.4043 -0.6422  0.7825
30192SOL    HW292345  -0.005   3.587   8.547 -0.7986 -0.9385 -2.1261
30193SOL     OW92346   5.328   3.870   3.828 -0.0698  0.4686 -0.1687
30193SOL    HW192347   5.394   3.930   3.794 -0.7479  1.1766 -0.2838
30193SOL    HW292348   5.361   3.844   3.914 -0.9727  3.1141  1.0660
30194SOL     OW92349   8.322   9.417   5.379  0.5877 -0.5440 -0.1783
30194SOL    HW192350   8.338   9.337   5.329 -1.7628 -0.4864 -1.1192
30194SOL    HW292351   8.377   9.483   5.336 -0.6905 -0.7065 -2.1902
30195SOL     OW92352   5.628   8.517   0.814  0.3294 -0.1767  0.2974
30195SOL    HW192353   5.636   8.497   0.907  1.6290  2.2219  0.7825
30195SOL    HW292354   5.719   8.525   0.784  0.0615 -3.2161 -1.8317
30196SOL     OW92355   1.961   9.721   3.778 -0.3410 -0.2610 -0.0327
30196SOL    HW192356   1.900   9.647   3.772 -0.5802 -0.3789  2.5023
30196SOL    HW292357   1.980   9.728   3.872  1.5186  1.4388 -0.4744
30197SOL     OW92358   8.994   5.311   1.777 -0.0537  0.9555 -0.0853
30197SOL    HW192359   9.059   5.301   1.708  0.0760 -0.4390  0.2201
30197SOL    HW292360   8.969   5.222   1.800  0.3764  1.3405  2.1090
30198SOL     OW92361   5.467   3.826   6.993  0.7534 -0.0944  0.2370
30198SOL    HW192362   5.537   3.768   7.022 -0.4736 -0.9184  1.6735
30198SOL    HW292363   5.491   3.912   7.027  0.7854 -0.5003  1.2858
30199SOL     OW92364   3.938   4.360   4.446 -0.0818  0.1319  0.8279
30199SOL    HW192365   3.955   4.285   4.502  1.1010  0.1477  0.5319
30199SOL    HW292366   3.854   4.341   4.405 -0.5944 -0.2335  2.0135
30200SOL     OW92367   4.859   9.590   1.753 -0.4097  0.4108  0.2403
30200SOL    HW192368   4.943   9.582   1.798 -0.7811  0.8073  1.0340
30200SOL    HW292369   4.834   9.682   1.764 -0.8941  0.3214 -0.0733
30201SOL     OW92370   1.600   5.871   9.079  0.1901  0.0291 -0.3540
30201SOL    HW192371   1.578   5.790   9.125 -0.4464  0.4739  0.1457
30201SOL    HW292372   1.558   5.862   8.993  1.8316 -1.0370 -1.1012
30202SOL     OW92373   6.878   1.886   8.414  0.7249  0.9625  0.3883
30202SOL    HW192374   6.811   1.935   8.460 -1.6116 -2.0861  0.5652
30202SOL    HW292375   6.831   1.838   8.346  3.0393  0.1520 -0.7603
30203SOL     OW92376   6.328   3.782   7.255 -0.5481 -0.1118  0.1922
30203SOL    HW192377   6.368   3.721   7.317 -0.8402  0.7059  1.2022
30203SOL    HW292378   6.355   3.868   7.285 -1.0565  0.3242 -0.5650
30204SOL     OW92379   9.213   2.790   3.527  0.1127  0.9789 -0.1237
30204SOL    HW192380   9.133   2.831   3.494  0.3234  0.4324 -1.3948
30204SOL    HW292381   9.265   2.774   3.448  0.1292 -1.5116  0.3290
30205SOL     OW92382   4.009   8.965   2.675  0.2647  0.2324  0.2274
30205SOL    HW192383   3.938   8.976   2.737  0.5774  0.4933  0.5425
30205SOL    HW292384   3.992   9.031   2.607 -0.3870 -0.4268 -0.2681
30206SOL     OW92385   0.060   0.104   2.240  0.4065 -0.0737  0.3827
30206SOL    HW192386   0.089   0.081   2.328 -1.8649 -0.0360  1.2109
30206SOL    HW292387   0.027   0.194   2.248  0.5224  0.0733 -0.6123
30207SOL     OW92388   5.760   6.371   3.255 -0.1187  0.0705 -0.3583
30207SOL    HW192389   5.853   6.382   3.274 -0.3804  1.2784  0.3864
30207SOL    HW292390   5.755   6.295   3.198  1.3594  0.1908 -0.6806
30208SOL     OW92391   4.985   6.484   0.401 -0.2053  0.4290 -0.1382
30208SOL    HW192392   4.910   6.512   0.453  0.4918 -0.5674  1.4696
30208SOL    HW292393   5.025   6.413   0.451  0.5668 -0.5469 -2.0038
30209SOL     OW92394   6.100   3.900   5.128 -0.6456 -0.1762 -0.1684
30209SOL    HW192395   6.129   3.989   5.149  0.4016 -1.0801  2.7393
30209SOL    HW292396   6.035   3.912   5.059 -0.0139  2.7631 -0.4009
30210SOL     OW92397   2.729   2.539   5.089  0.1374 -0.3411  0.1914
30210SOL    HW192398   2.766   2.464   5.136  1.0549  0.3230  0.5880
30210SOL    HW292399   2.635   2.527   5.095  0.2197 -0.4673  1.9509
30211SOL     OW92400   3.669   5.086   6.333  0.1266  0.0143  0.4147
30211SOL    HW192401   3.739   5.057   6.391  0.1184 -1.1320 -0.1261
30211SOL    HW292402   3.597   5.109   6.391  0.2113 -0.8459  0.8799
30212SOL     OW92403   5.017   8.921   8.295 -0.3692 -0.1392  0.0020
30212SOL    HW192404   5.109   8.905   8.315 -0.3035  0.0789 -0.1280
30212SOL    HW292405   4.975   8.835   8.304 -0.3291 -0.0591  1.0074
30213SOL     OW92406   7.090   2.566   4.483  0.1695  0.0430 -0.1350
30213SOL    HW192407   7.156   2.559   4.552  0.2418 -0.5556 -0.2558
30213SOL    HW292408   7.080   2.476   4.450  0.2052  0.3326 -0.9595
30214SOL     OW92409   2.836   7.822   8.894  0.1152  0.1233 -0.0556
30214SOL    HW192410   2.854   7.798   8.803 -0.8351 -0.8416 -0.0114
30214SOL    HW292411   2.743   7.845   8.895  0.4244  1.4571  0.4204
30215SOL     OW92412   7.160   1.506   7.709  0.3221 -0.3112  0.1977
30215SOL    HW192413   7.138   1.525   7.618  1.9397  1.4720  0.1238
30215SOL    HW292414   7.206   1.422   7.705  0.3692 -0.2529 -0.6266
30216SOL     OW92415   3.328   7.834   9.288 -0.1186  0.0643  0.2574
30216SOL    HW192416   3.273   7.889   9.233 -0.9620 -0.3386  0.6756
30216SOL    HW292417   3.417   7.868   9.276 -0.3721  0.3511 -0.8833
30217SOL     OW92418   7.191   9.305   0.315  0.2465 -0.2593  0.7929
30217SOL    HW192419   7.222   9.391   0.285 -0.0866 -0.5082 -0.2882
30217SOL    HW292420   7.101   9.321   0.344  1.1283  0.3735  3.5388
30218SOL     OW92421   7.235   2.490   7.598 -0.6241 -0.3565 -0.0441
30218SOL    HW192422   7.297   2.422   7.572 -0.0259  0.7421 -1.6746
30218SOL    HW292423   7.287   2.553   7.647 -0.7982 -0.2246 -0.0261
30219SOL     OW92424   7.038   8.181   5.465 -0.0287  0.0519  0.2516
30219SOL    HW192425   7.108   8.152   5.406  0.4488 -0.5798  1.1047
30219SOL    HW292426   7.084   8.212   5.543 -0.6927 -0.8832  1.0467
30220SOL     OW92427   7.749   3.046   4.554  0.2183 -0.0182  0.1355
30220SOL    HW192428   7.845   3.052   4.553  0.2824 -0.6792 -1.9654
30220SOL    HW292429   7.719   3.136   4.566  1.1237  0.4549 -0.9887
30221SOL     OW92430   6.662   7.881   2.082 -0.0351 -0.2088  0.2028
30221SOL    HW192431   6.590   7.933   2.046 -0.1699  1.4476  2.6601
30221SOL    HW292432   6.621   7.797   2.105 -0.8330  0.1432  0.1197
30222SOL     OW92433   5.648   3.934   4.265 -0.2693  0.2095 -0.1184
30222SOL    HW192434   5.706   3.869   4.224  0.4718 -0.3047  1.6591
30222SOL    HW292435   5.695   4.017   4.256  0.7947 -0.2018  1.2982
30223SOL     OW92436   2.828   7.321   9.005  0.3490  0.3821  0.3568
30223SOL    HW192437   2.901   7.260   9.015 -0.5757 -0.7423  0.4627
30223SOL    HW292438   2.870   7.406   8.991  1.7421 -0.6159 -2.2897
30224SOL     OW92439   4.923   4.354   7.605 -0.1086  0.5690  0.1560
30224SOL    HW192440   4.886   4.267   7.587 -1.3815  0.8865  1.0987
30224SOL    HW292441   4.943   4.352   7.699  0.3829  1.1214  0.0681
30225SOL     OW92442   1.556   1.501   1.323 -0.0286  0.0759 -0.2879
30225SOL    HW192443   1.526   1.449   1.249  1.5737  0.8844 -1.5751
30225SOL    HW292444   1.511   1.464   1.398  0.9301 -3.0892 -1.1283
30226SOL     OW92445   3.492   1.247   5.495  0.1572 -0.1025  0.0026
30226SOL    HW192446   3.495   1.292   5.411  0.3098  1.0997  0.6315
30226SOL    HW292447   3.423   1.182   5.485  0.9924 -0.8282 -1.4526
30227SOL     OW92448   8.894   6.593   0.836 -0.0787 -0.1502 -0.3334
30227SOL    HW192449   8.962   6.632   0.891  0.1833  0.1528 -0.8607
30227SOL    HW292450   8.834   6.665   0.818 -0.8823 -0.5546  0.6240
30228SOL     OW92451   4.785   6.244   2.511  0.1672 -0.1659  0.5988
30228SOL    HW192452   4.775   6.153   2.538 -2.6870 -0.0361  0.3442
30228SOL    HW292453   4.785   6.241   2.415 -0.4451  0.1170  0.5842
30229SOL     OW92454   8.370   0.189   3.020 -0.4517 -0.6454  0.1731
30229SOL    HW192455   8.316   0.116   3.050 -2.0606 -0.2746 -1.6427
30229SOL    HW292456   8.357   0.257   3.086 -1.7022 -0.7920  0.0958
30230SOL     OW92457   0.026   0.436   5.152  0.4363  0.4718  0.1847
30230SOL    HW192458   0.071   0.358   5.119  0.7063  0.0913  1.4143
30230SOL    HW292459  -0.013   0.475   5.074  0.7216 -0.6126 -0.5291
30231SOL     OW92460   9.184   6.959   3.413  0.5994  0.3833  0.0622
30231SOL    HW192461   9.159   6.867   3.423  0.4925  0.1786 -1.6874
30231SOL    HW292462   9.167   6.978   3.320  2.9348  1.4569 -0.2159
30232SOL     OW92463   8.793   5.607   5.357  0.2874 -0.2845 -0.2653
30232SOL    HW192464   8.870   5.605   5.414 -0.3127  1.4756  0.6902
30232SOL    HW292465   8.795   5.695   5.318 -2.6154  0.8732  1.8532
30233SOL     OW92466   8.758   8.108   4.220 -0.4444 -0.3732  0.2206
30233SOL    HW192467   8.707   8.027   4.223  0.0174 -0.6485  0.6084
30233SOL    HW292468   8.695   8.176   4.245 -1.3149 -0.3521 -1.8370
30234SOL     OW92469   1.679   7.672   2.013 -0.0359 -0.4595  0.0503
30234SOL    HW192470   1.665   7.746   2.072 -0.9938 -0.0785 -0.6271
30234SOL    HW292471   1.598   7.622   2.018 -0.1770 -0.3640 -1.0050
30235SOL     OW92472   7.201   7.350   7.131  0.1958  0.5289  0.4134
30235SOL    HW192473   7.296   7.348   7.139  0.1534  1.4650  1.3220
30235SOL    HW292474   7.184   7.416   7.064  0.1728  0.6143  0.5035
30236SOL     OW92475   2.968   5.041   2.060 -0.2236  0.5953  0.4049
30236SOL    HW192476   3.051   5.086   2.043 -0.0301 -0.4693 -1.9722
30236SOL    HW292477   2.989   4.948   2.052 -1.5044  0.2825  0.4844
30237SOL     OW92478   5.772   6.591   0.383  0.5832  0.4146  0.7899
30237SOL    HW192479   5.857   6.565   0.346  1.4684  1.8358  1.7078
30237SOL    HW292480   5.740   6.513   0.426  0.5589 -0.6555 -1.0573
30238SOL     OW92481   3.523   4.381   2.550  0.7920 -0.1837 -0.0774
30238SOL    HW192482   3.470   4.457   2.574  2.9076  0.9798  1.3425
30238SOL    HW292483   3.461   4.315   2.520 -1.4227  1.0478  1.5750
30239SOL     OW92484   2.453   1.176   5.005  0.6032  0.3810 -0.3207
30239SOL    HW192485   2.402   1.139   5.077  0.4134  2.0585  0.4338
30239SOL    HW292486   2.410   1.142   4.926  0.6575 -1.2655  0.3112
30240SOL     OW92487   7.745   4.269   6.821  0.5893 -0.2408 -0.0907
30240SOL    HW192488   7.704   4.203   6.765  1.3388  0.2516 -1.2552
30240SOL    HW292489   7.837   4.241   6.827  0.6942  0.1644  0.2038
30241SOL     OW92490   0.504   5.780   2.820  0.3022  0.0665 -0.1355
30241SOL    HW192491   0.431   5.830   2.856 -0.6610 -0.2076 -1.6175
30241SOL    HW292492   0.571   5.783   2.888  0.5293  3.7979 -0.3000
30242SOL     OW92493   1.074   6.529   4.661  0.0618  0.1147 -0.2897
30242SOL    HW192494   1.033   6.616   4.662  1.0067  0.5730 -0.6311
30242SOL    HW292495   1.150   6.538   4.718 -0.5298 -0.8608  0.6858
30243SOL     OW92496   8.978   8.410   5.292  0.0629 -0.0198 -0.0397
30243SOL    HW192497   8.914   8.469   5.252  0.2163  0.5497  0.5344
30243SOL    HW292498   9.061   8.455   5.283  0.4109 -0.8108 -0.8849
30244SOL     OW92499   3.616   1.065   6.806  0.2136  0.0503 -0.0871
30244SOL    HW192500   3.560   0.989   6.823 -2.7409  1.2025 -3.4340
30244SOL    HW292501   3.679   1.034   6.741  0.3884 -0.0329  0.1194
30245SOL     OW92502   3.498   8.864   9.104  0.2747 -0.2597  0.6148
30245SOL    HW192503   3.475   8.954   9.127 -0.6442 -0.5947  1.0702
30245SOL    HW292504   3.420   8.831   9.059  0.1604 -1.1788  1.4589
30246SOL     OW92505   8.969   0.319   4.046  0.3176 -0.2703 -0.3069
30246SOL    HW192506   8.900   0.281   3.991  0.6445 -0.5014 -0.5622
30246SOL    HW292507   8.925   0.386   4.098  0.1436  0.4854 -1.4039
30247SOL     OW92508   7.359   0.033   5.061  0.4972 -0.3086 -0.2128
30247SOL    HW192509   7.381   0.034   5.154 -2.5683  0.0692  0.6149
30247SOL    HW292510   7.370  -0.059   5.035  1.8550 -0.3287  0.3277
30248SOL     OW92511   3.685   5.658   0.111  0.1388  0.7925  0.5890
30248SOL    HW192512   3.622   5.601   0.068  0.9957 -1.0467  1.6174
30248SOL    HW292513   3.639   5.692   0.187  0.3244 -0.5321  1.3288
30249SOL     OW92514   1.588   6.737   6.442  0.4290 -0.2051  0.2373
30249SOL    HW192515   1.528   6.694   6.502 -1.2225  0.5429 -0.8196
30249SOL    HW292516   1.568   6.830   6.451 -0.4039 -0.1162 -1.9972
30250SOL     OW92517   7.484   0.082   1.854 -0.2262  0.2960 -0.4700
30250SOL    HW192518   7.408   0.114   1.902  0.2532 -1.2436  1.4270
30250SOL    HW292519   7.559   0.103   1.910  0.2195 -2.8431  0.3206
30251SOL     OW92520   9.547   6.627   9.340  0.3264 -0.3770 -0.1393
30251SOL    HW192521   9.612   6.560   9.360  0.9883  0.1088 -0.6179
30251SOL    HW292522   9.598   6.707   9.328 -0.4346  0.1774  0.2333
30252SOL     OW92523   7.068   8.853   5.499 -0.4399 -0.4030 -0.0630
30252SOL    HW192524   7.002   8.919   5.520 -0.5691 -0.8358  0.9321
30252SOL    HW292525   7.138   8.868   5.563 -1.3621 -2.5198  1.5674
30253SOL     OW92526   9.774   0.306   4.398 -0.2099  0.6053 -0.3086
30253SOL    HW192527   9.779   0.365   4.322  0.0884  1.8642  0.6714
30253SOL    HW292528   9.864   0.277   4.412 -0.4908 -0.9104 -1.3903
30254SOL     OW92529   3.552   4.424   4.418 -0.1298 -0.3591 -0.1972
30254SOL    HW192530   3.562   4.510   4.377 -0.5593 -0.1333  0.1667
30254SOL    HW292531   3.602   4.365   4.362 -0.8364 -0.0811 -1.1409
30255SOL     OW92532   8.946   7.445   9.142 -0.5566  0.7750 -0.1129
30255SOL    HW192533   8.954   7.479   9.053 -2.6981  1.3142 -0.1673
30255SOL    HW292534   8.916   7.355   9.130  1.2823  0.1024  0.0774
30256SOL     OW92535   7.736   8.227   3.713  0.5941 -0.1345 -0.0142
30256SOL    HW192536   7.749   8.233   3.618  0.3937 -0.1907 -0.0469
30256SOL    HW292537   7.822   8.205   3.748  1.5089  3.0340  0.1283
30257SOL     OW92538   5.395   2.761   3.139 -0.3116 -0.5810 -0.2423
30257SOL    HW192539   5.483   2.793   3.158 -0.6662  0.3364 -0.0972
30257SOL    HW292540   5.397   2.743   3.045 -0.0554 -0.2608 -0.3041
30258SOL     OW92541   8.285   5.472   1.592 -0.0285 -0.0008 -0.6443
30258SOL    HW192542   8.314   5.563   1.595 -0.7039  0.1938  0.0329
30258SOL    HW292543   8.364   5.423   1.567  0.1919  0.8241 -1.6522
30259SOL     OW92544   0.484   2.973   6.882 -0.3634  0.5013 -0.5269
30259SOL    HW192545   0.451   2.900   6.935 -1.1557  1.0526 -0.2417
30259SOL    HW292546   0.437   3.050   6.916 -0.7395  0.8980 -1.8920
30260SOL     OW92547   1.183   8.861   4.042 -0.3327  0.4995  0.3003
30260SOL    HW192548   1.156   8.820   3.960  0.6230  0.7219 -0.1515
30260SOL    HW292549   1.189   8.954   4.021  1.3497  0.4064  0.1671
30261SOL     OW92550   2.766   4.606   7.087 -0.4003  0.7479  0.5127
30261SOL    HW192551   2.691   4.572   7.136 -0.6129  3.0802  1.9458
30261SOL    HW292552   2.842   4.563   7.127 -0.8062  0.1524  0.6524
30262SOL     OW92553   3.556   1.015   8.528  0.2474 -0.4962  0.2042
30262SOL    HW192554   3.474   0.986   8.566  0.6994 -1.7949  0.2467
30262SOL    HW292555   3.623   0.964   8.574  1.3710  2.5188  2.1584
30263SOL     OW92556   6.817   7.659   8.496  0.2702  0.4820  0.7603
30263SOL    HW192557   6.778   7.604   8.564  1.2096  1.5838  2.2830
30263SOL    HW292558   6.909   7.633   8.494  0.4709  1.1664  0.6578
30264SOL     OW92559   2.085   2.371   7.166 -1.2936 -0.5357  0.6198
30264SOL    HW192560   2.147   2.443   7.160 -0.3661 -1.3849 -0.5702
30264SOL    HW292561   2.113   2.322   7.244 -0.5668 -0.7942  0.2104
30265SOL     OW92562   5.532   2.883   7.045 -0.3450 -0.5081 -0.3917
30265SOL    HW192563   5.562   2.793   7.037  0.5761 -0.1491 -1.1745
30265SOL    HW292564   5.466   2.892   6.976 -1.2905 -0.9048  0.4428
30266SOL     OW92565   5.826   1.001   8.213 -0.1335 -0.1694 -0.1842
30266SOL    HW192566   5.759   0.950   8.257  0.1739 -0.1339  0.3270
30266SOL    HW292567   5.901   0.942   8.205  0.1799  0.1523  0.2981
30267SOL     OW92568   5.090   7.808   2.581 -0.8394  0.2320  0.4013
30267SOL    HW192569   5.030   7.883   2.575 -0.8967  0.1920  0.4685
30267SOL    HW292570   5.107   7.784   2.490 -0.8915  0.2706  0.3809
30268SOL     OW92571   4.236   4.545   2.634 -0.1795  0.3510  0.1732
30268SOL    HW192572   4.255   4.457   2.664 -1.2792 -0.6247 -1.8303
30268SOL    HW292573   4.180   4.582   2.702 -1.4242 -1.2518  0.0643
30269SOL     OW92574   7.566   8.525   3.080  0.0684  0.1920  0.3082
30269SOL    HW192575   7.608   8.447   3.044 -0.9672  0.4238 -1.5389
30269SOL    HW292576   7.632   8.563   3.139  1.0704 -1.3438  0.2349
30270SOL     OW92577   9.543   9.545   8.275 -0.5022 -0.5591 -0.2004
30270SOL    HW192578   9.513   9.588   8.194  1.1401 -1.0862 -1.1475
30270SOL    HW292579   9.540   9.614   8.341  1.5676  0.9577 -1.5632
30271SOL     OW92580   4.278   3.490   8.764 -0.0721 -0.1740  0.2745
30271SOL    HW192581   4.193   3.445   8.763 -0.8936  1.2935  1.0102
30271SOL    HW292582   4.288   3.520   8.855  0.7441  0.5385 -0.0413
30272SOL     OW92583   9.528   9.423   8.993 -0.1679  0.5430  0.4633
30272SOL    HW192584   9.501   9.331   8.994 -1.4517  0.9051  0.1338
30272SOL    HW292585   9.564   9.438   9.081  2.1129 -0.8326 -0.1443
30273SOL     OW92586   9.112   3.147   0.982 -0.8688  0.1312 -0.2169
30273SOL    HW192587   9.158   3.229   1.003 -0.4347  0.4083 -2.0825
30273SOL    HW292588   9.142   3.085   1.049  0.6975  0.8501 -0.2055
30274SOL     OW92589   5.623   0.407   1.206 -0.6144  0.1138 -0.5676
30274SOL    HW192590   5.691   0.451   1.256 -2.7626  1.7579  1.1144
30274SOL    HW292591   5.630   0.443   1.118  0.4196  0.5304 -0.3241
30275SOL     OW92592   4.533   8.316   6.702 -0.1964  0.0223 -0.3100
30275SOL    HW192593   4.594   8.383   6.732 -1.6559  0.6633  1.4036
30275SOL    HW292594   4.588   8.253   6.655  1.5034  1.3919 -0.2630
30276SOL     OW92595   1.908   5.997   3.116  0.4093 -0.2095  0.1239
30276SOL    HW192596   1.896   6.025   3.025 -1.8768  0.2048  0.4953
30276SOL    HW292597   1.848   5.922   3.126 -0.6705  0.8054  1.7156
30277SOL     OW92598   8.304   4.098   8.812 -0.4288 -0.0976 -0.2564
30277SOL    HW192599   8.323   4.172   8.755  2.2591 -2.0227 -2.1521
30277SOL    HW292600   8.279   4.027   8.752 -0.7142 -1.3407  1.2485
30278SOL     OW92601   3.300   9.089   7.619  0.1168  0.3635  0.2624
30278SOL    HW192602   3.210   9.087   7.584  0.2102 -0.7007  0.0721
30278SOL    HW292603   3.311   9.180   7.648 -0.8496  0.6383 -0.1605
30279SOL     OW92604   8.733   0.336   9.130 -0.1758  0.0239 -0.3073
30279SOL    HW192605   8.805   0.374   9.081  1.0310 -1.7818 -0.0507
30279SOL    HW292606   8.683   0.286   9.065 -0.6260  0.4755 -0.3112
30280SOL     OW92607   5.412   5.024   7.139  0.5827 -0.0518  0.5094
30280SOL    HW192608   5.475   4.972   7.089 -2.0807 -0.7564 -2.3680
30280SOL    HW292609   5.421   4.991   7.229  2.7716 -1.5897 -0.1665
30281SOL     OW92610   1.307   6.960   8.773  0.1557  0.2137  0.1243
30281SOL    HW192611   1.308   6.894   8.705 -0.9737 -0.5538  0.8302
30281SOL    HW292612   1.400   6.976   8.793  0.5207  0.7201 -1.8007
30282SOL     OW92613   3.181   3.078   9.478 -0.7855 -0.0395  0.4890
30282SOL    HW192614   3.267   3.079   9.520 -1.6663  1.1261  2.3903
30282SOL    HW292615   3.128   3.023   9.535 -1.4823 -0.2292 -0.3264
30283SOL     OW92616   4.687   6.813   4.059  0.1659  0.1131  0.0109
30283SOL    HW192617   4.677   6.888   4.002  1.0217 -0.1143 -0.4668
30283SOL    HW292618   4.599   6.793   4.091 -0.4869 -0.3219 -1.9651
30284SOL     OW92619   3.285   2.000   7.767 -0.7130 -0.0196 -0.4905
30284SOL    HW192620   3.223   2.073   7.766 -1.2717 -0.4606  0.4872
30284SOL    HW292621   3.248   1.938   7.829  0.1329 -0.8130 -0.7558
30285SOL     OW92622   0.659   1.057   3.536 -0.1977 -0.5271  0.0930
30285SOL    HW192623   0.590   1.005   3.493  0.3595 -0.6207 -0.6997
30285SOL    HW292624   0.720   1.078   3.466  1.4389 -1.7889  1.0526
30286SOL     OW92625   1.885   2.796   2.606 -0.3612 -0.0712  0.2859
30286SOL    HW192626   1.867   2.764   2.517  2.2782  0.9989 -0.7345
30286SOL    HW292627   1.881   2.717   2.660 -0.7962 -0.9665 -0.9830
30287SOL     OW92628   2.587   8.538   9.755 -0.0391 -0.1209 -0.2500
30287SOL    HW192629   2.675   8.504   9.739 -0.4728 -0.3242 -2.7229
30287SOL    HW292630   2.591   8.629   9.725 -0.5275  0.0515  0.1961
30288SOL     OW92631   7.977   6.066   9.493  0.5675 -0.1982 -0.4256
30288SOL    HW192632   7.895   6.110   9.518  1.0480 -0.4026  1.7366
30288SOL    HW292633   8.046   6.127   9.521  1.1828 -0.5701 -1.0954
30289SOL     OW92634   3.010   3.949   7.045 -0.4088  0.1555  0.2921
30289SOL    HW192635   2.951   3.878   7.070 -0.2066 -0.0031  0.3222
30289SOL    HW292636   2.960   4.000   6.981  0.3001 -1.3912 -1.6075
30290SOL     OW92637   6.106   8.519   5.018 -0.4351  0.2827 -0.2212
30290SOL    HW192638   6.075   8.468   5.093  0.2907 -0.0183 -0.1187
30290SOL    HW292639   6.065   8.477   4.942 -1.8386  1.0904  0.0486
30291SOL     OW92640   7.848   2.469   8.114  0.2391  0.6038  0.5159
30291SOL    HW192641   7.849   2.518   8.196 -0.7913  0.7479  0.4544
30291SOL    HW292642   7.870   2.533   8.047  0.9163  0.5234  0.6582
30292SOL     OW92643   3.292   7.564   9.369  0.4789  0.1913 -0.3218
30292SOL    HW192644   3.331   7.639   9.324 -0.1465  0.0217 -1.1831
30292SOL    HW292645   3.255   7.511   9.298  0.5421 -0.7156  0.3097
30293SOL     OW92646   5.404   8.679   7.865  0.7507  0.3327 -0.5523
30293SOL    HW192647   5.431   8.768   7.843  0.6169  0.1855 -1.3605
30293SOL    HW292648   5.330   8.661   7.807 -0.6062  0.4399  1.0728
30294SOL     OW92649   0.895   2.172   3.621 -0.0659  0.4704 -0.1301
30294SOL    HW192650   0.893   2.122   3.703 -2.2471 -2.0780 -1.5746
30294SOL    HW292651   0.986   2.196   3.610  0.6294 -0.8522  2.0418
30295SOL     OW92652   3.537   3.963   8.195 -0.0738 -0.1646 -0.4715
30295SOL    HW192653   3.486   3.888   8.164 -0.5165 -0.5764  1.1416
30295SOL    HW292654   3.625   3.948   8.161 -0.5129 -0.6096 -1.4424
30296SOL     OW92655   6.782   6.479   5.398  0.1835 -0.2932  0.1459
30296SOL    HW192656   6.750   6.435   5.477  0.4856 -3.7497 -1.5097
30296SOL    HW292657   6.877   6.478   5.406  0.2065  1.4634  0.6956
30297SOL     OW92658   5.644   5.616   1.583  0.0662  0.0720  0.0661
30297SOL    HW192659   5.607   5.561   1.653 -1.4197  1.1671  0.2075
30297SOL    HW292660   5.620   5.571   1.502  2.3248 -1.5285  0.1892
30298SOL     OW92661   0.415   5.368   1.550  0.8037  0.0249  0.1689
30298SOL    HW192662   0.454   5.354   1.464 -0.8244 -1.5822 -0.3494
30298SOL    HW292663   0.478   5.424   1.596  1.0590  2.1044 -2.5029
30299SOL     OW92664   1.973   3.664   7.420 -0.1053  0.1521 -0.6117
30299SOL    HW192665   1.878   3.676   7.425 -0.2691 -0.9762 -0.6057
30299SOL    HW292666   2.007   3.747   7.386 -1.4897 -0.6380 -4.4083
30300SOL     OW92667   3.459   3.520   5.484 -0.7479  0.4315 -0.0989
30300SOL    HW192668   3.507   3.496   5.564 -0.2573  0.3006 -0.4259
30300SOL    HW292669   3.413   3.440   5.459 -1.0330  0.5199  0.1449
30301SOL     OW92670   2.795   3.610   0.898 -0.1274  0.1304  0.2238
30301SOL    HW192671   2.793   3.705   0.885  0.1348 -0.1790 -2.5759
30301SOL    HW292672   2.879   3.594   0.941 -0.4454  1.1898  1.2996
30302SOL     OW92673   8.493   9.452   4.060 -0.1474  0.2170 -0.8382
30302SOL    HW192674   8.553   9.391   4.103  1.1775  1.2694 -1.1340
30302SOL    HW292675   8.454   9.402   3.989  1.3401 -0.1577 -1.4274
30303SOL     OW92676   6.097   8.728   7.287 -0.3625 -0.6530  0.6559
30303SOL    HW192677   6.033   8.794   7.314  0.5993  0.7369 -0.3323
30303SOL    HW292678   6.166   8.732   7.353  0.8322  1.0603 -0.6032
30304SOL     OW92679   2.898   2.474   8.897 -0.1980  0.1092  0.5354
30304SOL    HW192680   2.892   2.386   8.859  0.1612 -0.7023  2.2552
30304SOL    HW292681   2.871   2.532   8.827  1.7109 -1.1894 -1.4241
30305SOL     OW92682   0.333   5.918   2.969 -0.1611 -0.4841  0.1468
30305SOL    HW192683   0.256   5.919   3.027 -0.2788 -0.3998 -0.0092
30305SOL    HW292684   0.353   6.010   2.954 -0.0247 -0.5072  0.1935
30306SOL     OW92685   8.382   0.405   7.865  0.3296 -1.3162 -0.0803
30306SOL    HW192686   8.354   0.370   7.781  0.2059  0.8033 -0.9913
30306SOL    HW292687   8.470   0.439   7.849 -1.6201  4.2467 -1.1615
30307SOL     OW92688   6.506   7.803   6.456  0.7426 -0.0114  0.0129
30307SOL    HW192689   6.492   7.851   6.537  1.9691 -1.8848  1.4198
30307SOL    HW292690   6.461   7.719   6.469  1.6054 -0.6503 -0.8962
30308SOL     OW92691   6.600   6.016   0.016  0.0814 -1.0454  0.0829
30308SOL    HW192692   6.544   6.034  -0.060  2.0806  2.0805 -0.8623
30308SOL    HW292693   6.686   6.048  -0.010  1.7402 -3.1836  2.4414
30309SOL     OW92694   2.876   2.754   9.778 -0.2522 -0.5797  0.0489
30309SOL    HW192695   2.897   2.810   9.852 -0.3113 -0.2512 -0.1774
30309SOL    HW292696   2.813   2.691   9.812  0.7919 -1.3348  0.6373
30310SOL     OW92697   4.121   3.866   1.080 -0.2413 -0.5489  0.5021
30310SOL    HW192698   4.074   3.803   1.025  0.3490 -0.0394 -0.6183
30310SOL    HW292699   4.106   3.835   1.170  0.9431 -2.9397 -0.0391
30311SOL     OW92700   6.228   3.953   4.153 -0.0887 -0.0377  0.1841
30311SOL    HW192701   6.245   3.863   4.182 -0.1713 -0.0097  0.3154
30311SOL    HW292702   6.200   3.999   4.231 -1.1755 -0.1802 -0.1054
30312SOL     OW92703   5.446   0.889   1.895  0.4128 -0.7641 -0.1975
30312SOL    HW192704   5.520   0.842   1.932 -0.2044 -1.8352 -0.2521
30312SOL    HW292705   5.380   0.888   1.965  0.2967 -0.2031 -0.2966
30313SOL     OW92706   3.339   2.856   9.172 -0.0061  0.5563 -0.0570
30313SOL    HW192707   3.323   2.931   9.230 -2.1561  0.0668  0.0828
30313SOL    HW292708   3.384   2.792   9.226 -0.1168  0.9137  0.4631
30314SOL     OW92709   2.782   9.636   7.938 -0.6350  0.0457  0.0464
30314SOL    HW192710   2.746   9.718   7.905 -2.0543 -1.0755 -1.3878
30314SOL    HW292711   2.717   9.570   7.914  1.0322 -1.6845  0.0123
30315SOL     OW92712   7.061   4.897   5.885  0.5724 -0.0501 -0.5698
30315SOL    HW192713   7.014   4.944   5.816  2.2718  2.2967 -0.2527
30315SOL    HW292714   7.133   4.955   5.908  1.6813 -2.0338  1.2548
30316SOL     OW92715   7.592   1.615   4.266  0.0629  0.1416  0.2274
30316SOL    HW192716   7.668   1.673   4.257  1.1681 -1.1481  0.9272
30316SOL    HW292717   7.613   1.540   4.210 -0.7643 -0.1600  0.3120
30317SOL     OW92718   4.033   7.342   7.435 -0.3845 -0.1361 -0.3218
30317SOL    HW192719   4.116   7.379   7.402 -0.8502 -2.0447 -4.2551
30317SOL    HW292720   3.985   7.418   7.468  1.0054  1.8820 -2.5565
30318SOL     OW92721   3.877   4.850   2.797  0.1985 -0.0988 -0.5659
30318SOL    HW192722   3.806   4.796   2.762 -1.2627  1.7422 -0.5518
30318SOL    HW292723   3.840   4.937   2.805  1.8575  0.5171  1.3420
30319SOL     OW92724   8.621   2.848   2.319 -0.5527 -0.7666 -0.9590
30319SOL    HW192725   8.697   2.876   2.370 -1.3356  1.4426 -0.8868
30319SOL    HW292726   8.565   2.926   2.316 -2.4726 -2.1180 -1.6297
30320SOL     OW92727   2.078   2.707   7.737 -0.0315 -0.0348  0.4665
30320SOL    HW192728   2.114   2.621   7.714 -0.0171  0.1357 -0.1675
30320SOL    HW292729   2.129   2.769   7.684  0.1781  0.3941  1.1619
30321SOL     OW92730   0.779   9.262   3.736  0.3620 -0.4994 -0.3153
30321SOL    HW192731   0.729   9.337   3.768  1.3840  0.6430 -1.3113
30321SOL    HW292732   0.864   9.269   3.779  0.4355 -1.1483 -0.3436
30322SOL     OW92733   2.663   5.148   1.979  0.1219  0.0282 -0.2434
30322SOL    HW192734   2.748   5.162   2.021 -0.3267  1.8290  0.1370
30322SOL    HW292735   2.620   5.233   1.983 -1.8684 -0.9426 -0.1045
30323SOL     OW92736   6.784   5.792   7.943 -0.1189  0.1434  0.3642
30323SOL    HW192737   6.752   5.728   8.006  1.1064  0.3049  1.1935
30323SOL    HW292738   6.808   5.741   7.866 -0.4324 -0.2162  0.5032
30324SOL     OW92739   8.860   2.229   9.323  0.5529  0.2139  0.2409
30324SOL    HW192740   8.868   2.295   9.254  0.1613 -0.2523 -0.2539
30324SOL    HW292741   8.921   2.258   9.391  0.2781  1.1794  0.1012
30325SOL     OW92742   7.910   3.310   3.891  0.4543 -0.0099  0.1628
30325SOL    HW192743   7.879   3.359   3.967  0.3291  1.3536 -0.7305
30325SOL    HW292744   7.986   3.261   3.923  1.3745  1.7619  0.8173
30326SOL     OW92745   3.258   8.382   7.024  0.6615  0.3104  0.1566
30326SOL    HW192746   3.318   8.423   6.962  1.9924 -0.0937  1.1385
30326SOL    HW292747   3.274   8.427   7.107  2.2574 -2.1595  1.3076
30327SOL     OW92748   4.595   5.182   2.984 -0.8808 -0.3762  0.3132
30327SOL    HW192749   4.566   5.184   2.893  0.0937 -1.2269 -0.0322
30327SOL    HW292750   4.580   5.091   3.012 -0.6803 -0.2508  0.8382
30328SOL     OW92751   6.988   2.710   5.383 -0.5982 -0.3180 -0.0938
30328SOL    HW192752   7.019   2.642   5.444 -0.5641  1.3700  1.8723
30328SOL    HW292753   7.066   2.734   5.333 -0.2149 -0.5347  0.3911
30329SOL     OW92754   7.494   7.944   5.407  0.4300  0.1012 -0.0092
30329SOL    HW192755   7.473   7.879   5.474 -1.2406  0.1101 -0.4752
30329SOL    HW292756   7.550   7.898   5.345  0.3152 -0.5122  0.3327
30330SOL     OW92757   4.987   3.232   0.765  0.0370 -0.0728  0.2926
30330SOL    HW192758   5.029   3.148   0.781  1.2427  0.3006 -0.7690
30330SOL    HW292759   4.952   3.258   0.851 -1.2294 -2.0775  0.4415
30331SOL     OW92760   2.390   1.369   8.058 -0.2483 -0.2306 -0.2030
30331SOL    HW192761   2.392   1.434   8.128  0.6028 -1.4547  0.9328
30331SOL    HW292762   2.480   1.362   8.028 -0.5455  0.0322 -1.2233
30332SOL     OW92763   3.921   3.173   4.392 -0.0064  0.8088 -0.0735
30332SOL    HW192764   3.989   3.152   4.328  0.2232  1.0455  0.0893
30332SOL    HW292765   3.838   3.156   4.347  0.1458  1.3541 -0.5678
30333SOL     OW92766   3.888   1.575   7.132 -0.1990  0.0549 -0.0016
30333SOL    HW192767   3.850   1.600   7.217 -0.5717  0.2675 -0.2260
30333SOL    HW292768   3.839   1.497   7.107  0.3031 -0.3424  0.2455
30334SOL     OW92769   5.626   4.095   9.515 -0.2916  0.3162 -0.8367
30334SOL    HW192770   5.581   4.052   9.442 -2.1449  0.1514  0.3167
30334SOL    HW292771   5.567   4.166   9.540 -0.0998 -0.1283  0.9946
30335SOL     OW92772   9.551   5.433   1.252  0.2276  0.1013 -0.2395
30335SOL    HW192773   9.559   5.436   1.347  1.3245  1.4387 -0.3389
30335SOL    HW292774   9.479   5.494   1.233 -0.6280 -0.8715 -0.2413
30336SOL     OW92775   3.161   1.712   0.434  0.1765  0.1746  0.2838
30336SOL    HW192776   3.067   1.729   0.433  0.4472  1.8974  0.7507
30336SOL    HW292777   3.200   1.793   0.468  1.8170 -0.5668  0.2773
30337SOL     OW92778   0.377   2.580   6.352 -0.2265 -0.0207 -0.1699
30337SOL    HW192779   0.294   2.592   6.398  0.5827  0.7342  1.1508
30337SOL    HW292780   0.417   2.503   6.393  0.8024  1.0450  0.9101
30338SOL     OW92781   7.007   7.354   7.997  0.3477 -0.2670 -0.1541
30338SOL    HW192782   7.076   7.302   8.037  0.3915 -1.0749 -1.2245
30338SOL    HW292783   7.052   7.402   7.927 -0.1808 -0.8748 -0.9245
30339SOL     OW92784   8.761   1.797   0.531  0.0348 -0.0337  0.2814
30339SOL    HW192785   8.821   1.724   0.513 -1.7319 -0.9957 -2.4459
30339SOL    HW292786   8.787   1.865   0.468 -1.5011 -0.3834 -0.7784
30340SOL     OW92787   4.374   1.241   5.060  0.1086  0.5320 -0.3220
30340SOL    HW192788   4.395   1.280   5.144  0.1926 -0.2935  0.0430
30340SOL    HW292789   4.278   1.247   5.054 -0.1599 -1.4433  0.8797
30341SOL     OW92790   9.333   4.891   0.081 -0.0698 -0.2681 -0.0152
30341SOL    HW192791   9.403   4.832   0.053  1.2378  0.6644  1.1476
30341SOL    HW292792   9.278   4.839   0.139 -0.6977 -1.1554 -1.3478
30342SOL     OW92793   7.238   9.780   2.082  0.2632 -0.3589 -0.2991
30342SOL    HW192794   7.214   9.687   2.086 -0.4931 -0.1443  0.3737
30342SOL    HW292795   7.185   9.816   2.011 -2.4895  0.3827  1.9786
30343SOL     OW92796   9.015   8.694   4.817  0.3935  0.0223  0.0162
30343SOL    HW192797   8.954   8.635   4.773  1.3735  1.0983 -3.0534
30343SOL    HW292798   8.959   8.751   4.870 -0.7771 -1.8970  0.9544
30344SOL     OW92799   9.275   8.920   0.205 -0.1750 -0.0078 -0.1257
30344SOL    HW192800   9.240   8.932   0.116  4.2212  1.0124 -2.0012
30344SOL    HW292801   9.299   9.008   0.233  1.2913 -0.6612  0.7509
30345SOL     OW92802   4.408   4.256   3.939 -0.3631 -0.0793 -0.3068
30345SOL    HW192803   4.337   4.212   3.892 -0.1831  0.6673 -1.2859
30345SOL    HW292804   4.362   4.309   4.005 -0.6275 -0.8086  0.1193
30346SOL     OW92805   5.952   8.419   8.464 -0.3990  0.4912 -0.7517
30346SOL    HW192806   5.903   8.484   8.413  0.9971  0.1409 -2.6680
30346SOL    HW292807   5.908   8.417   8.549 -1.2931  2.9684 -1.0690
30347SOL     OW92808   7.887   4.575   5.092  0.0749 -0.3551 -0.2863
30347SOL    HW192809   7.870   4.504   5.030 -0.6645 -0.9153  0.5364
30347SOL    HW292810   7.981   4.592   5.083  0.0284 -0.5968 -1.3699
30348SOL     OW92811   2.204   0.390   0.428  0.1555  0.0954 -0.0429
30348SOL    HW192812   2.176   0.455   0.493 -0.2659  0.0604 -0.1859
30348SOL    HW292813   2.225   0.312   0.479 -0.8755 -0.1708 -0.0032
30349SOL     OW92814   6.922   0.505   3.281 -0.2734  0.0499 -0.1341
30349SOL    HW192815   6.960   0.585   3.246  1.2342  0.5156  2.3379
30349SOL    HW292816   6.832   0.506   3.250  0.1199  1.9063 -1.4076
30350SOL     OW92817   3.949   2.240   9.728  0.7900  0.4994 -0.5232
30350SOL    HW192818   3.865   2.283   9.712  1.8428  2.8106 -0.1354
30350SOL    HW292819   3.927   2.164   9.782 -1.1785  0.2046 -1.6284
30351SOL     OW92820   4.699   0.545   9.483  1.1952  0.1539  0.3497
30351SOL    HW192821   4.681   0.639   9.491  0.1601 -0.1002  1.2066
30351SOL    HW292822   4.675   0.508   9.568  0.2805 -1.0876 -0.4092
30352SOL     OW92823   1.967   6.453   1.201  0.1449 -0.0225 -0.2568
30352SOL    HW192824   2.016   6.418   1.127 -0.1643  1.2166 -1.0656
30352SOL    HW292825   1.888   6.399   1.205  0.9290 -1.1825  0.2485
30353SOL     OW92826   7.216   9.012   2.074 -0.2598  0.0177 -0.2144
30353SOL    HW192827   7.196   9.018   2.167 -1.1110  0.8832 -0.4341
30353SOL    HW292828   7.150   9.067   2.032 -0.5701 -1.2175 -1.4187
30354SOL     OW92829   4.686   8.048   5.060  0.5254  0.6890 -0.3305
30354SOL    HW192830   4.673   8.059   4.965  0.2598 -0.0078 -0.3782
30354SOL    HW292831   4.780   8.058   5.073  0.6167  0.3578 -0.7250
30355SOL     OW92832   8.115   6.536   2.515 -0.2379 -0.1085 -0.2182
30355SOL    HW192833   8.169   6.607   2.479  2.0768 -1.5484  0.1879
30355SOL    HW292834   8.062   6.506   2.441  0.0410  0.8858 -0.8346
30356SOL     OW92835   3.257   0.490   7.745 -0.4708  0.1657  0.2667
30356SOL    HW192836   3.350   0.510   7.739  0.2307 -2.4916  1.1194
30356SOL    HW292837   3.222   0.558   7.803  1.6007 -0.5204  2.5193
30357SOL     OW92838   6.697   4.748   4.123 -0.2452  0.7123 -0.0705
30357SOL    HW192839   6.678   4.676   4.184 -0.9463  0.0746 -1.0229
30357SOL    HW292840   6.785   4.776   4.148  0.0852 -0.5362  0.2768
30358SOL     OW92841   0.675   7.784   5.201  0.0713  0.1409 -0.2096
30358SOL    HW192842   0.724   7.788   5.284 -1.3678  0.0514  0.6765
30358SOL    HW292843   0.589   7.749   5.226 -0.3002 -0.1515 -1.7975
30359SOL     OW92844   9.173   7.148   4.483 -0.3246  0.0554  0.2982
30359SOL    HW192845   9.158   7.067   4.532 -0.2194 -0.6568 -0.8164
30359SOL    HW292846   9.221   7.204   4.544  0.3148 -1.0242  0.8195
30360SOL     OW92847   9.264   6.034   0.170  0.1589  0.2669 -0.1400
30360SOL    HW192848   9.310   5.984   0.237  2.3621  0.4025 -1.4685
30360SOL    HW292849   9.226   6.109   0.216  0.5252 -0.3155  1.1393
30361SOL     OW92850   3.254   2.228   0.567  0.5826  0.4086  0.0246
30361SOL    HW192851   3.247   2.315   0.605  1.8445 -0.1197  1.5577
30361SOL    HW292852   3.258   2.244   0.472  2.0211  2.1262  0.3169
30362SOL     OW92853   1.600   4.459   6.793  0.2382  0.1925  0.3591
30362SOL    HW192854   1.665   4.410   6.743  1.7726  1.5035  0.9750
30362SOL    HW292855   1.546   4.392   6.836  1.2178 -0.9300 -0.1365
30363SOL     OW92856   0.073   5.070   7.109  0.1405  0.1006 -0.6813
30363SOL    HW192857   0.111   5.066   7.021  1.3130  0.0269 -0.1891
30363SOL    HW292858   0.017   5.147   7.107  1.3834  1.0223 -1.0393
30364SOL     OW92859   2.067   6.076   4.064  0.2098  0.0813  0.1414
30364SOL    HW192860   2.077   6.040   4.152 -0.1741  1.2554  0.6839
30364SOL    HW292861   2.125   6.022   4.009  1.0153 -0.2078  1.2408
30365SOL     OW92862   4.805   9.243   1.012  0.0293  0.2588  0.6163
30365SOL    HW192863   4.722   9.261   1.055 -1.4113 -0.9798 -1.4730
30365SOL    HW292864   4.799   9.287   0.927  1.5356  0.1782  0.4316
30366SOL     OW92865   5.120   7.425   5.875  0.4525 -0.3183  0.0938
30366SOL    HW192866   5.032   7.414   5.839  0.0955 -1.1126  1.1661
30366SOL    HW292867   5.109   7.417   5.969  1.3378  1.8754  0.4417
30367SOL     OW92868   0.914   3.800   5.451 -0.7840  0.0418  0.3307
30367SOL    HW192869   0.939   3.858   5.380 -2.1616  0.2413 -0.0311
30367SOL    HW292870   0.993   3.751   5.472 -0.3115  0.0957 -1.2255
30368SOL     OW92871   2.814   1.764   0.789 -0.4794  0.1178  0.4514
30368SOL    HW192872   2.775   1.851   0.779 -2.2496 -0.8435 -2.1676
30368SOL    HW292873   2.908   1.778   0.774 -1.1287  1.2008 -4.1141
30369SOL     OW92874   4.426   7.536   5.296 -0.3515  0.3920 -0.3960
30369SOL    HW192875   4.352   7.479   5.319 -0.4399 -0.3295 -2.2813
30369SOL    HW292876   4.389   7.598   5.232 -0.2136  2.5215  1.4801
30370SOL     OW92877   9.498   5.188   4.959 -0.5021  0.1183 -0.1892
30370SOL    HW192878   9.575   5.204   5.014 -1.1841 -0.1067  0.8521
30370SOL    HW292879   9.534   5.151   4.878  0.3972 -1.2293  0.7862
30371SOL     OW92880   5.078   6.043   2.393 -0.0161  0.8796 -0.0655
30371SOL    HW192881   5.041   5.981   2.329  1.9205  0.2337 -0.6265
30371SOL    HW292882   5.074   5.996   2.477  1.1537  0.0764 -0.4365
30372SOL     OW92883   1.183   7.234   4.131  0.1027  0.7893  0.4368
30372SOL    HW192884   1.211   7.304   4.189 -2.9243  2.9523 -0.4812
30372SOL    HW292885   1.248   7.234   4.061  1.2756  1.2217  1.4741
30373SOL     OW92886   9.134   2.743   3.192 -0.1557 -0.0621 -0.1784
30373SOL    HW192887   9.131   2.835   3.166 -2.0888 -0.3110 -1.1005
30373SOL    HW292888   9.227   2.721   3.193  0.5799  2.5134  2.5985
30374SOL     OW92889   4.161   3.336   0.159  1.1577 -0.7285  0.0681
30374SOL    HW192890   4.235   3.334   0.100  2.4153 -3.0246  1.5799
30374SOL    HW292891   4.132   3.245   0.165 -1.5531  0.0321 -0.1289
30375SOL     OW92892   6.921   5.554   6.822  0.3443 -0.5439 -0.0739
30375SOL    HW192893   6.957   5.549   6.911 -0.3759 -0.5144  0.2265
30375SOL    HW292894   6.933   5.645   6.796  2.0820 -0.9080 -0.6761
30376SOL     OW92895   1.782   2.918   6.973 -0.0187 -0.1272 -0.4214
30376SOL    HW192896   1.858   2.943   7.027  1.8674 -2.4870 -1.8051
30376SOL    HW292897   1.782   2.982   6.901  1.3108 -0.6653 -0.9299
30377SOL     OW92898   8.528   7.343   1.413  0.7233 -0.3420 -0.3117
30377SOL    HW192899   8.473   7.271   1.384  0.3145 -0.5973  1.0645
30377SOL    HW292900   8.523   7.342   1.508  0.7685  1.4540 -0.2485
30378SOL     OW92901   7.567   8.046   7.300  0.3999  0.5977  0.2252
30378SOL    HW192902   7.584   8.062   7.207 -1.8569 -1.8292 -0.7494
30378SOL    HW292903   7.573   8.133   7.340  1.0621  1.8088 -2.2492
30379SOL     OW92904   2.118   8.997   4.618  0.2322  0.0903  0.4161
30379SOL    HW192905   2.087   8.939   4.548  0.2129 -1.9368  2.0237
30379SOL    HW292906   2.211   9.009   4.599 -0.1643  1.2025 -1.0142
30380SOL     OW92907   2.304   5.752   2.702  0.5064 -0.6507  0.8239
30380SOL    HW192908   2.323   5.785   2.790  0.2116 -0.2894  0.7557
30380SOL    HW292909   2.361   5.802   2.644 -1.2877  1.1566  0.5088
30381SOL     OW92910   1.369   7.191   1.438  0.0149 -1.0202 -0.5016
30381SOL    HW192911   1.348   7.097   1.437 -0.6024 -1.1026  3.2837
30381SOL    HW292912   1.448   7.196   1.492 -1.4222  0.7556  1.5759
30382SOL     OW92913   0.501   6.528   4.166  0.0096 -0.6371 -0.0098
30382SOL    HW192914   0.483   6.503   4.257  0.0329 -3.2704 -0.6610
30382SOL    HW292915   0.592   6.503   4.152  0.1910  0.3132 -0.6186
30383SOL     OW92916   5.373   2.056   9.032  0.3765  0.1516 -0.4907
30383SOL    HW192917   5.329   2.069   8.948  0.3834 -1.1314 -0.7156
30383SOL    HW292918   5.427   1.978   9.019  0.9444  0.3631  0.4898
30384SOL     OW92919   6.739   0.330   0.707  0.3753  0.3091 -0.8251
30384SOL    HW192920   6.819   0.286   0.678  0.8325  1.3182 -1.1690
30384SOL    HW292921   6.705   0.372   0.628 -0.7479 -0.4554 -0.7759
30385SOL     OW92922   7.325   8.527   8.356  0.5595  0.2554  0.4461
30385SOL    HW192923   7.332   8.618   8.326 -0.6307  0.3306  0.3412
30385SOL    HW292924   7.380   8.523   8.434  1.0172  0.9282  0.1715
30386SOL     OW92925   8.693   6.656   6.818  0.4411 -0.7044  0.5589
30386SOL    HW192926   8.760   6.720   6.845  1.4554 -0.1083 -2.8698
30386SOL    HW292927   8.701   6.652   6.722 -2.2611 -3.1065  0.3009
30387SOL     OW92928   7.053   5.882   7.274 -0.1145  0.4492  0.0907
30387SOL    HW192929   7.147   5.898   7.281 -0.1365  0.4731  0.3608
30387SOL    HW292930   7.026   5.862   7.364 -0.4632  0.9658  0.1041
30388SOL     OW92931   1.141   0.551   1.857  0.4500 -0.4685  0.5515
30388SOL    HW192932   1.155   0.624   1.918 -0.1370  1.0022 -0.9900
30388SOL    HW292933   1.099   0.591   1.781  0.6190 -2.3342 -0.5901
30389SOL     OW92934   3.024   0.208   5.047  0.2090  0.4670 -0.3873
30389SOL    HW192935   2.957   0.215   5.115  0.5764 -0.7544  0.1451
30389SOL    HW292936   3.096   0.160   5.089  1.1253  1.1039 -1.1608
30390SOL     OW92937   8.961   9.429   0.845 -0.0791 -0.0570  0.2248
30390SOL    HW192938   8.933   9.339   0.827  0.6502 -0.1029 -0.7452
30390SOL    HW292939   8.905   9.483   0.789  2.7434 -0.2473 -3.1209
30391SOL     OW92940   1.603   2.495   3.112 -0.2123 -0.9288 -0.2561
30391SOL    HW192941   1.668   2.517   3.046  1.3414 -2.2182  0.7854
30391SOL    HW292942   1.567   2.411   3.084 -1.1849 -0.4117 -0.6149
30392SOL     OW92943   3.917   6.730   5.590  0.0166  0.0974 -0.3619
30392SOL    HW192944   3.913   6.668   5.518 -0.0729  1.1011 -1.2502
30392SOL    HW292945   3.893   6.679   5.667  3.7530 -2.0057 -0.3246
30393SOL     OW92946   2.342   0.238   7.012  0.2118  0.6958 -0.5244
30393SOL    HW192947   2.292   0.197   6.942 -0.1133  0.0094  0.0969
30393SOL    HW292948   2.432   0.207   6.999 -0.1851 -0.9864  0.4641
30394SOL     OW92949   9.704   8.706   2.050 -0.0865  0.3320 -0.9183
30394SOL    HW192950   9.666   8.747   1.972  0.2071  1.3555 -0.5362
30394SOL    HW292951   9.735   8.779   2.102 -1.6598 -0.2184  0.9125
30395SOL     OW92952   3.957   9.053   4.662 -0.3594  0.8726  0.2025
30395SOL    HW192953   3.952   9.078   4.754 -1.8771 -1.4867  0.8382
30395SOL    HW292954   3.866   9.052   4.632 -0.1832 -1.3837 -0.4083
30396SOL     OW92955   8.928   8.050   4.014 -0.1835  0.0167  0.2814
30396SOL    HW192956   8.863   8.045   4.084  0.9367 -0.8473  1.2950
30396SOL    HW292957   8.914   8.137   3.975  0.8208  1.6633  3.2766
30397SOL     OW92958   6.321   1.855   6.257  0.6112 -0.2067  0.1198
30397SOL    HW192959   6.247   1.896   6.211  1.4255 -0.2642 -1.2925
30397SOL    HW292960   6.326   1.767   6.221  1.4640 -0.1543  0.0993
30398SOL     OW92961   5.760   7.210   5.004 -0.0378 -0.1891  0.3097
30398SOL    HW192962   5.787   7.128   4.964 -0.9153  0.0084 -0.7707
30398SOL    HW292963   5.666   7.200   5.019 -0.7442  1.4649 -2.2347
30399SOL     OW92964   8.386   3.165   4.700 -0.1370 -0.2203  0.1360
30399SOL    HW192965   8.365   3.189   4.609  0.6540  0.1954  0.0507
30399SOL    HW292966   8.301   3.168   4.745 -0.3051  1.3754 -0.1974
30400SOL     OW92967   3.936   5.498   1.973 -0.1412  0.1930 -0.1480
30400SOL    HW192968   3.935   5.434   1.902 -0.2119 -1.1019  0.9764
30400SOL    HW292969   4.028   5.521   1.984  0.1670 -1.3324  0.7979
30401SOL     OW92970   9.305   3.799   6.256  0.1023  0.7348 -0.2035
30401SOL    HW192971   9.292   3.889   6.228  0.2713  0.6435 -0.5712
30401SOL    HW292972   9.284   3.746   6.179  2.7687  0.5800 -0.8905
30402SOL     OW92973   1.465   3.237   6.589  0.7780 -0.3036 -0.7461
30402SOL    HW192974   1.404   3.219   6.518 -0.1296  2.7493 -0.8974
30402SOL    HW292975   1.537   3.285   6.548  0.8166  0.4698  0.1815
30403SOL     OW92976   6.274   5.016   0.754  0.6511  0.1775  0.2333
30403SOL    HW192977   6.265   4.968   0.836  1.3502  0.1658  0.3132
30403SOL    HW292978   6.304   4.951   0.691  1.5906  0.4873  0.3400
30404SOL     OW92979   6.695   0.527   9.688  0.2645  0.1881 -0.0628
30404SOL    HW192980   6.776   0.520   9.638  0.8549 -0.3082  0.9313
30404SOL    HW292981   6.677   0.621   9.692  0.1805  0.2307 -1.2220
30405SOL     OW92982   6.093   1.046   8.414 -0.2852 -0.3159  0.1591
30405SOL    HW192983   6.004   1.023   8.438 -0.2978 -1.2615 -0.7531
30405SOL    HW292984   6.148   0.986   8.463 -0.2226 -0.7987 -0.4934
30406SOL     OW92985   7.798   2.739   7.136  0.2554 -0.0094 -0.1673
30406SOL    HW192986   7.777   2.775   7.050  0.4931 -1.0994 -0.6956
30406SOL    HW292987   7.857   2.804   7.176 -1.1271  1.2820 -0.1531
30407SOL     OW92988   3.754   8.953   9.815 -0.0854  0.1100  0.2322
30407SOL    HW192989   3.797   8.888   9.871  1.0632  0.1499 -0.5652
30407SOL    HW292990   3.716   8.902   9.744  2.5222  0.3778 -1.4915
30408SOL     OW92991   5.227   6.840   8.313 -0.1718  0.3785  0.3008
30408SOL    HW192992   5.184   6.857   8.397  1.8808  0.2623  1.4545
30408SOL    HW292993   5.255   6.927   8.283 -1.2975  0.4728 -0.5194
30409SOL     OW92994   4.147   7.697   8.467 -0.8169 -0.1111  0.0005
30409SOL    HW192995   4.160   7.788   8.443  0.1801 -0.0648  0.6623
30409SOL    HW292996   4.055   7.692   8.493 -0.2031  1.4705  2.9739
30410SOL     OW92997   9.234   1.571   6.818  0.8157 -0.3893  0.3973
30410SOL    HW192998   9.177   1.649   6.817  0.2783 -0.7781  0.2450
30410SOL    HW292999   9.272   1.568   6.730  1.3937  0.0992  0.6239
30411SOL     OW93000   9.415   2.614   8.144  0.3487  0.6149 -0.4464
30411SOL    HW193001   9.483   2.637   8.207  0.4682 -1.9163  0.4540
30411SOL    HW293002   9.460   2.607   8.061  1.0517 -0.1188 -0.0219
30412SOL     OW93003   1.427   8.791   5.438 -0.0243  0.3481 -0.4533
30412SOL    HW193004   1.499   8.767   5.495 -0.6175  3.7839  2.0438
30412SOL    HW293005   1.468   8.841   5.367  0.3821 -1.2260 -1.3719
30413SOL     OW93006   7.761   4.542   3.690 -0.7171 -0.4328  0.0648
30413SOL    HW193007   7.727   4.467   3.738  0.7468 -0.7760  0.6133
30413SOL    HW293008   7.736   4.618   3.743  0.4076 -0.7677  1.1133
30414SOL     OW93009   0.471   2.156   6.969 -0.2879  0.7468 -0.6243
30414SOL    HW193010   0.544   2.186   7.023  0.1579  0.7100 -1.2014
30414SOL    HW293011   0.449   2.070   7.004 -0.1143  0.7982 -0.3868
30415SOL     OW93012   8.254   5.942   3.862 -0.2305 -0.2650  0.2566
30415SOL    HW193013   8.199   5.866   3.882 -0.4002 -0.3331 -0.4693
30415SOL    HW293014   8.219   5.977   3.780  0.0592  0.3994  0.4081
30416SOL     OW93015   6.441   2.748   6.422 -0.1315 -0.0465  0.1544
30416SOL    HW193016   6.443   2.655   6.443 -0.4717  0.1217  0.9374
30416SOL    HW293017   6.524   2.764   6.376 -0.7263 -1.0437 -1.3546
30417SOL     OW93018   5.354   1.112   3.884  0.2384  0.4389  0.1264
30417SOL    HW193019   5.341   1.028   3.841  0.5686  1.2248 -1.5791
30417SOL    HW293020   5.332   1.096   3.976 -0.1377 -1.3810 -0.2543
30418SOL     OW93021   8.243   9.595   9.177  0.2626  0.2915 -0.5933
30418SOL    HW193022   8.206   9.642   9.102  1.7691 -1.2680 -2.4258
30418SOL    HW293023   8.239   9.503   9.151  1.2424 -0.2556  1.0658
30419SOL     OW93024   8.910   0.054   1.944  0.0104  0.7697  0.6786
30419SOL    HW193025   8.826   0.093   1.918 -1.8455 -2.9393  0.4433
30419SOL    HW293026   8.956   0.037   1.862 -1.3515 -1.6709  0.3031
30420SOL     OW93027   9.033   8.064   6.071  0.1517 -0.1074  0.9789
30420SOL    HW193028   9.069   7.983   6.036  1.3043  1.2876 -1.3567
30420SOL    HW293029   9.105   8.104   6.119  0.6509  0.9378 -0.5478
30421SOL     OW93030   6.842   4.202   7.641  0.1404 -0.2238  0.4081
30421SOL    HW193031   6.833   4.113   7.676 -1.1836  0.0325  0.7602
30421SOL    HW293032   6.911   4.242   7.694  3.1265 -2.0073 -1.8129
30422SOL     OW93033   7.348   8.093   9.513 -0.0279  0.1151  0.1892
30422SOL    HW193034   7.358   8.104   9.608  0.3787  2.1496 -0.0351
30422SOL    HW293035   7.343   8.183   9.480 -2.6653 -0.5349 -1.4847
30423SOL     OW93036   4.853   5.536   8.726  0.2383  0.3126  0.0359
30423SOL    HW193037   4.889   5.497   8.806 -0.3745  0.5437  0.4332
30423SOL    HW293038   4.770   5.490   8.712 -0.0187  0.7885 -0.0419
30424SOL     OW93039   1.700   7.151   2.070  0.2372 -0.9885 -0.2773
30424SOL    HW193040   1.713   7.242   2.097 -1.8044 -0.4608 -0.9229
30424SOL    HW293041   1.773   7.134   2.010  1.8051 -0.4890  1.3880
30425SOL     OW93042   8.710   0.637   7.124 -0.0464 -0.0726  0.4401
30425SOL    HW193043   8.662   0.645   7.207  0.2054  0.4760  0.5341
30425SOL    HW293044   8.772   0.566   7.140 -1.3401 -1.3399  0.0602
30426SOL     OW93045   8.919   1.728   0.901 -0.9239  0.0866 -0.2504
30426SOL    HW193046   8.982   1.657   0.887 -2.7705 -1.5756 -0.5780
30426SOL    HW293047   8.906   1.731   0.996  0.5459  1.3103 -0.0526
30427SOL     OW93048   9.389   8.273   4.377  0.5246 -0.0018 -0.1541
30427SOL    HW193049   9.322   8.220   4.333 -0.6034  1.3912 -0.2220
30427SOL    HW293050   9.339   8.343   4.419  1.8856  0.5691  0.5698
30428SOL     OW93051   3.711   4.197   8.923  0.3133  0.6477 -0.0723
30428SOL    HW193052   3.778   4.129   8.923 -1.9732 -1.8812  2.2088
30428SOL    HW293053   3.693   4.213   8.830  0.5584 -2.4126 -0.7592
30429SOL     OW93054   6.195   1.642   4.297  0.3598 -0.4260 -0.5295
30429SOL    HW193055   6.131   1.574   4.319 -0.7489  0.9563  0.6699
30429SOL    HW293056   6.256   1.643   4.370  0.7899 -0.5871 -0.8783
30430SOL     OW93057   7.383   0.857   5.839  0.0504  0.2030  0.0878
30430SOL    HW193058   7.477   0.864   5.849  0.0414  1.2400 -0.5275
30430SOL    HW293059   7.356   0.939   5.799 -1.1765  0.1211  0.6917
30431SOL     OW93060   0.093   5.732   8.468  0.1067 -0.5711  0.3184
30431SOL    HW193061   0.141   5.710   8.389 -1.1425  0.6507 -0.8359
30431SOL    HW293062   0.114   5.662   8.530  0.3718 -2.0715 -1.4065
30432SOL     OW93063   1.752   2.335   4.701  0.3837 -0.1908 -0.1632
30432SOL    HW193064   1.790   2.418   4.673 -0.1469 -0.6689 -2.4722
30432SOL    HW293065   1.675   2.359   4.752 -0.5380  0.7891 -1.9281
30433SOL     OW93066   7.344   6.369   3.988  0.3658 -0.2060  0.3559
30433SOL    HW193067   7.395   6.450   3.988 -0.4354  0.3967 -2.0312
30433SOL    HW293068   7.408   6.300   3.972  0.8434  0.1360  0.7541
30434SOL     OW93069   0.632   5.653   7.180 -0.1261  0.0199  0.6872
30434SOL    HW193070   0.593   5.650   7.267  1.2370  0.5996  1.3566
30434SOL    HW293071   0.669   5.566   7.167 -0.6649 -0.1878  0.5118
30435SOL     OW93072   4.477   8.152   3.780 -0.8104 -0.5330  0.1331
30435SOL    HW193073   4.420   8.208   3.727 -0.7158 -0.3657  0.2056
30435SOL    HW293074   4.507   8.084   3.720 -1.1761 -0.6893  0.1227
30436SOL     OW93075   3.216   9.709   5.517  0.1469 -0.5852  0.4973
30436SOL    HW193076   3.122   9.696   5.501 -0.1442  0.9030  0.8333
30436SOL    HW293077   3.258   9.634   5.477 -1.0860 -0.5736 -0.8850
30437SOL     OW93078   9.520   7.602   0.167  0.2672  0.1237  0.0086
30437SOL    HW193079   9.500   7.552   0.246  2.6589 -0.2860  0.4267
30437SOL    HW293080   9.543   7.536   0.101 -2.0654  0.4301 -1.2361
30438SOL     OW93081   9.469   2.747   0.143  0.5903 -0.3077  0.7106
30438SOL    HW193082   9.516   2.741   0.226  1.2651 -0.0573  0.3551
30438SOL    HW293083   9.445   2.839   0.135  1.0301 -0.2172  0.3669
30439SOL     OW93084   8.637   9.699   1.569  0.3363  0.1001 -0.1960
30439SOL    HW193085   8.642   9.604   1.558 -0.7789 -0.2714  1.9843
30439SOL    HW293086   8.707   9.733   1.513  0.4231 -1.9393 -1.4479
30440SOL     OW93087   2.749   1.158   1.420  0.5022  0.4484  0.0323
30440SOL    HW193088   2.661   1.130   1.443  0.9117 -0.3990  0.5848
30440SOL    HW293089   2.792   1.079   1.388  0.9318  0.9480 -0.6539
30441SOL     OW93090   1.339   8.479   2.799  0.1742 -0.1174  0.3495
30441SOL    HW193091   1.286   8.441   2.870 -0.2465 -2.8433 -1.2995
30441SOL    HW293092   1.288   8.554   2.769 -1.1923 -0.7878  0.8984
30442SOL     OW93093   8.654   7.193   4.281  0.1918  0.0931 -0.5178
30442SOL    HW193094   8.592   7.132   4.242  1.9856 -3.8336  2.1350
30442SOL    HW293095   8.717   7.211   4.211  0.3848 -2.3787 -1.0711
30443SOL     OW93096   3.654   0.231   9.516 -0.3747  0.4075 -0.1868
30443SOL    HW193097   3.702   0.186   9.585  0.4688 -0.2580 -1.1835
30443SOL    HW293098   3.670   0.179   9.437 -2.8038  0.0949 -0.5583
30444SOL     OW93099   7.561   3.453   5.090 -0.2796 -0.0425 -0.1334
30444SOL    HW193100   7.647   3.484   5.062 -0.9735 -0.0691 -2.5036
30444SOL    HW293101   7.514   3.532   5.116  0.5768 -0.0810  1.6919
30445SOL     OW93102   4.554   5.461   0.812 -0.6274 -0.1108  0.4310
30445SOL    HW193103   4.544   5.537   0.754  0.8544  0.4859  0.9096
30445SOL    HW293104   4.484   5.472   0.877 -0.1531  1.1110  0.7671
30446SOL     OW93105   1.693   1.740   0.560  0.1591  0.0726  0.0050
30446SOL    HW193106   1.727   1.760   0.473  0.1388 -1.8652 -0.4916
30446SOL    HW293107   1.771   1.727   0.614  0.1908 -0.2826 -0.1223
30447SOL     OW93108   9.603   1.932   8.488  0.1100 -0.2359  0.3177
30447SOL    HW193109   9.616   1.852   8.538  1.7813 -1.9316 -2.5544
30447SOL    HW293110   9.528   1.914   8.432  1.3255 -0.4383 -1.3362
30448SOL     OW93111   0.283   4.369   5.018 -0.2240 -0.7831  0.0613
30448SOL    HW193112   0.326   4.451   5.043 -2.6253  0.3375  0.7352
30448SOL    HW293113   0.246   4.387   4.931 -0.1870 -1.4063 -0.0894
30449SOL     OW93114   1.689   7.173   3.805  0.1354 -0.0738 -0.1709
30449SOL    HW193115   1.713   7.152   3.895 -1.9832 -0.5675  0.3170
30449SOL    HW293116   1.658   7.090   3.769 -1.7684  0.6913 -0.4094
30450SOL     OW93117   6.473   4.354   7.751 -0.1311 -0.4094  0.2121
30450SOL    HW193118   6.399   4.414   7.745 -0.1871 -0.4026  0.9380
30450SOL    HW293119   6.504   4.344   7.660  0.5068  1.4901  0.1858
30451SOL     OW93120   1.912   2.707   1.781 -0.6132  0.3520 -0.4838
30451SOL    HW193121   1.917   2.801   1.765 -1.9294  0.5466  0.1184
30451SOL    HW293122   1.925   2.698   1.875 -4.5287  0.4137  0.2528
30452SOL     OW93123   6.193   3.540   2.170  0.9440  0.0043 -0.0092
30452SOL    HW193124   6.248   3.613   2.199  1.5106 -0.7170  0.7933
30452SOL    HW293125   6.253   3.466   2.164  0.2238 -0.5898 -0.0012
30453SOL     OW93126   2.246   8.278   0.024  0.8344 -0.3900 -0.2578
30453SOL    HW193127   2.288   8.270   0.109  0.6673 -0.1657 -0.1510
30453SOL    HW293128   2.305   8.236  -0.037  2.1373  1.5319 -0.4093
30454SOL     OW93129   9.040   6.843   0.651 -0.1022  0.6765 -0.0313
30454SOL    HW193130   9.134   6.835   0.666 -0.1070  0.7012  0.0144
30454SOL    HW293131   9.001   6.787   0.718 -0.0929 -0.0480 -0.6236
30455SOL     OW93132   3.681   4.158   2.325  0.7655  0.0080  0.1049
30455SOL    HW193133   3.674   4.154   2.420  0.2334  0.0185  0.0682
30455SOL    HW293134   3.773   4.178   2.308  1.3865 -2.2049  0.5474
30456SOL     OW93135   8.669   9.552   3.080  0.0757 -0.5667  0.3603
30456SOL    HW193136   8.594   9.536   3.137  0.7539 -3.5711  0.5449
30456SOL    HW293137   8.642   9.520   2.994 -0.6876  3.2954 -1.0642
30457SOL     OW93138   9.577   6.659   4.994  0.1807  0.4326  0.1784
30457SOL    HW193139   9.562   6.753   4.994  2.4662  0.9461 -2.3775
30457SOL    HW293140   9.532   6.628   4.915 -1.9068 -1.0016  1.8121
30458SOL     OW93141   8.823   0.614   9.665  0.0282 -0.3324  0.3341
30458SOL    HW193142   8.841   0.696   9.620 -1.2260 -0.7934 -1.0856
30458SOL    HW293143   8.728   0.602   9.656  0.0287 -1.3723  1.5052
30459SOL     OW93144   3.679   9.119   6.808  0.4222  0.0081  0.4634
30459SOL    HW193145   3.716   9.053   6.866  0.7584 -1.4536 -1.3150
30459SOL    HW293146   3.699   9.088   6.720 -2.4145  0.6979 -0.5412
30460SOL     OW93147   4.834   4.688   8.835  0.0689 -0.1145 -0.2894
30460SOL    HW193148   4.901   4.620   8.826 -1.9429 -2.1964 -0.5031
30460SOL    HW293149   4.836   4.735   8.752  0.5896 -0.8358 -0.7003
30461SOL     OW93150   4.156   4.856   8.055  0.4016 -0.4859 -0.4861
30461SOL    HW193151   4.091   4.787   8.069  0.3945 -0.1499  1.3569
30461SOL    HW293152   4.208   4.826   7.980 -0.3284 -1.9249 -0.4369
30462SOL     OW93153   3.451   1.727   1.809 -0.0497 -0.0686 -0.0508
30462SOL    HW193154   3.474   1.639   1.779 -0.8613 -1.2878  2.5675
30462SOL    HW293155   3.395   1.763   1.740  1.0193 -1.2177 -1.5796
30463SOL     OW93156   2.825   2.026   2.150 -0.2070  0.4210  0.1822
30463SOL    HW193157   2.851   2.069   2.232  1.7295  0.8742 -0.6190
30463SOL    HW293158   2.907   2.016   2.101 -0.9666 -1.9222 -0.7523
30464SOL     OW93159   9.339   8.278   2.406 -0.0082 -0.1264 -1.0736
30464SOL    HW193160   9.252   8.256   2.373 -1.4824 -1.9771  3.3384
30464SOL    HW293161   9.329   8.366   2.443  0.0044 -0.3441 -0.5559
30465SOL     OW93162   9.845   2.556   6.755  0.7564 -0.8581 -0.0997
30465SOL    HW193163   9.830   2.638   6.709  0.0001 -0.8139  0.2103
30465SOL    HW293164   9.922   2.518   6.712  0.7831 -0.2520 -0.6006
30466SOL     OW93165   6.408   1.215   6.525  0.3250  0.4158 -0.1328
30466SOL    HW193166   6.426   1.217   6.431  1.3522  1.3137  0.0684
30466SOL    HW293167   6.395   1.122   6.545  0.7172  0.1562 -1.0441
30467SOL     OW93168   9.751   4.347   7.757  0.0562  0.3271 -0.3959
30467SOL    HW193169   9.761   4.320   7.666  0.5437  0.0400 -0.2629
30467SOL    HW293170   9.736   4.442   7.753 -1.4783  0.0976 -0.8558
30468SOL     OW93171   9.044   1.959   0.765  0.4802  0.6571  0.7693
30468SOL    HW193172   8.987   1.888   0.793 -1.2063  1.8199  0.4870
30468SOL    HW293173   9.048   1.950   0.670 -0.7137  1.5566  0.5969
30469SOL     OW93174   1.574   2.005   4.855 -0.1619 -0.0543  0.0050
30469SOL    HW193175   1.660   2.047   4.852 -0.0637 -0.3188 -1.1526
30469SOL    HW293176   1.523   2.061   4.914  0.3558  0.9516 -0.4752
30470SOL     OW93177   7.182   6.478   5.632  0.0497 -0.2253 -0.0499
30470SOL    HW193178   7.216   6.427   5.706  0.4519 -1.0770 -0.7995
30470SOL    HW293179   7.198   6.569   5.657 -1.1541 -0.4109  1.5385
30471SOL     OW93180   3.633   0.763   4.060 -0.4883 -0.2737  0.0853
30471SOL    HW193181   3.723   0.733   4.078 -0.1974  1.0859  1.0617
30471SOL    HW293182   3.605   0.804   4.142 -2.2962 -1.3200  0.0344
30472SOL     OW93183   4.510   7.978   7.437 -0.0343  0.7714  0.7974
30472SOL    HW193184   4.458   7.907   7.399  0.3809  1.0552 -0.3381
30472SOL    HW293185   4.461   8.005   7.514 -0.4391 -0.4362  0.9875
30473SOL     OW93186   8.826   2.026   2.923  1.3531 -0.3406 -0.4166
30473SOL    HW193187   8.877   2.009   3.002 -1.7184  1.6092  2.2570
30473SOL    HW293188   8.739   1.993   2.944 -0.6788  3.9424 -1.1746
30474SOL     OW93189   0.374   5.356   0.911  0.2169 -0.0360  0.4680
30474SOL    HW193190   0.426   5.359   0.831  1.9468 -1.7850  1.4274
30474SOL    HW293191   0.293   5.313   0.885 -0.7506  2.4920 -1.0050
30475SOL     OW93192   0.108   6.656   0.293 -0.0585 -0.2563 -0.3817
30475SOL    HW193193   0.134   6.725   0.354  0.0004 -0.5887 -0.0274
30475SOL    HW293194   0.179   6.654   0.228  0.2676 -0.4267 -0.0262
30476SOL     OW93195   0.976   6.852   6.995  0.3769  0.0882  0.0852
30476SOL    HW193196   0.991   6.934   6.948  1.5555 -0.5793 -0.7412
30476SOL    HW293197   1.044   6.852   7.063  2.1029 -1.3628 -1.5361
30477SOL     OW93198   7.737   1.561   0.754  0.6931 -0.9574 -0.6055
30477SOL    HW193199   7.754   1.470   0.781  0.7448 -0.8891 -0.4083
30477SOL    HW293200   7.647   1.577   0.780 -0.7308 -2.2379 -4.1114
30478SOL     OW93201   5.869   6.039   2.684 -0.0396 -0.3006 -0.2065
30478SOL    HW193202   5.878   6.063   2.592  1.0443 -2.1110 -0.6266
30478SOL    HW293203   5.889   6.119   2.732  0.0841  0.4926 -1.5415
30479SOL     OW93204   3.728   7.702   9.299  0.0200 -0.1332 -0.0243
30479SOL    HW193205   3.806   7.743   9.336 -1.3732  2.6954  0.0022
30479SOL    HW293206   3.715   7.623   9.352  1.1523  0.9362  1.9616
30480SOL     OW93207   4.267   2.006   2.866 -0.5263  0.3778  0.5965
30480SOL    HW193208   4.242   1.951   2.940 -0.2023 -0.7558 -0.1100
30480SOL    HW293209   4.247   1.953   2.789 -1.1937  1.6656 -0.1650
30481SOL     OW93210   1.528   4.068   0.841  0.4451 -0.2279 -0.2062
30481SOL    HW193211   1.506   4.021   0.761 -1.0754  0.9846 -0.5504
30481SOL    HW293212   1.481   4.021   0.910  1.3569 -0.9756 -0.0748
30482SOL     OW93213   0.198   0.591   1.502 -0.0571  0.3533  0.0463
30482SOL    HW193214   0.212   0.612   1.409 -1.0214  0.1559 -0.1561
30482SOL    HW293215   0.221   0.498   1.509 -1.0087  0.0812 -0.2427
30483SOL     OW93216   8.009   6.943   1.135 -0.3922  1.2086 -0.1165
30483SOL    HW193217   8.066   6.955   1.058 -0.4344 -0.6722 -0.4696
30483SOL    HW293218   8.069   6.925   1.207 -0.4408  1.3478 -0.0408
30484SOL     OW93219   4.984   6.740   5.153 -0.3583  0.0120  0.1198
30484SOL    HW193220   4.897   6.744   5.114 -0.0475 -1.3837 -0.8009
30484SOL    HW293221   4.969   6.717   5.244 -1.0401  2.2170  0.6376
30485SOL     OW93222   6.721   2.092   3.407 -0.0220 -0.7671 -0.3595
30485SOL    HW193223   6.692   2.183   3.419 -0.6780 -1.1319  1.0792
30485SOL    HW293224   6.674   2.043   3.475  1.1343 -2.0066 -0.4145
30486SOL     OW93225   5.755   2.039   5.297 -0.0142  0.0291 -0.1801
30486SOL    HW193226   5.818   2.089   5.245 -1.4522  0.4152 -1.6167
30486SOL    HW293227   5.742   2.093   5.375  0.6811  0.4329 -0.3310
30487SOL     OW93228   5.033   1.744   4.922  0.4775 -0.5604 -0.1832
30487SOL    HW193229   5.119   1.750   4.963  0.3514  1.9003 -0.0938
30487SOL    HW293230   4.974   1.722   4.995  0.9978 -2.4016 -0.2741
30488SOL     OW93231   7.991   4.366   2.090  0.3035  0.4583 -0.5176
30488SOL    HW193232   8.085   4.354   2.101  0.1503  0.8527  1.5963
30488SOL    HW293233   7.952   4.283   2.118 -0.0400  0.6426 -0.4426
30489SOL     OW93234   7.374   1.118   6.548 -0.0760  0.3502  0.4381
30489SOL    HW193235   7.344   1.175   6.477 -1.0874 -0.2645  0.3514
30489SOL    HW293236   7.301   1.119   6.611 -0.7194 -1.9238 -0.2016
30490SOL     OW93237   2.200   3.514   6.948  0.2587  0.3698  0.4480
30490SOL    HW193238   2.245   3.534   6.866 -0.9474 -0.9390 -0.5988
30490SOL    HW293239   2.122   3.570   6.947  0.3422  0.4974  0.8160
30491SOL     OW93240   5.518   7.827   4.885  0.0776  0.3490 -0.0893
30491SOL    HW193241   5.503   7.854   4.976  1.3417 -1.0363  0.5707
30491SOL    HW293242   5.611   7.802   4.883 -0.4403 -1.7138 -1.1781
30492SOL     OW93243   0.515   0.758   5.925  0.3619 -0.0010  0.1084
30492SOL    HW193244   0.567   0.779   5.848 -1.2430 -1.8697 -1.5883
30492SOL    HW293245   0.431   0.801   5.910  0.0338 -0.3675  0.8258
30493SOL     OW93246   3.365   7.186   3.429  0.3621  0.5833  0.0762
30493SOL    HW193247   3.372   7.280   3.442  0.5872  0.2686  2.7929
30493SOL    HW293248   3.367   7.149   3.517 -0.0219 -1.9610 -0.8873
30494SOL     OW93249   6.603   0.211   7.654 -0.1007 -0.2728 -0.2405
30494SOL    HW193250   6.606   0.117   7.634 -1.5674 -0.7583  1.5385
30494SOL    HW293251   6.547   0.217   7.731 -0.5434  2.1531 -0.6746
30495SOL     OW93252   5.913   0.583   0.946 -0.0660  0.1845 -0.0912
30495SOL    HW193253   5.883   0.614   1.032 -0.4641 -2.4293  0.8120
30495SOL    HW293254   6.002   0.553   0.961 -0.3919 -0.9726 -0.3862
30496SOL     OW93255   8.387   1.305   5.189 -0.3882  0.1740  0.3814
30496SOL    HW193256   8.465   1.357   5.167  1.6155 -2.4036  0.8554
30496SOL    HW293257   8.358   1.268   5.105  1.1308 -1.6298  0.5698
30497SOL     OW93258   9.705   7.805   7.319  0.1185 -0.0991  0.0395
30497SOL    HW193259   9.745   7.726   7.283 -1.2846 -0.7598 -0.1352
30497SOL    HW293260   9.694   7.786   7.412  1.6523  0.7280  0.4408
30498SOL     OW93261   8.905   9.139   0.802  0.8369 -0.0148  0.4314
30498SOL    HW193262   8.818   9.101   0.786  0.6793  0.4567  0.1455
30498SOL    HW293263   8.960   9.102   0.733 -0.0167  2.6033 -1.8173
30499SOL     OW93264   2.935   9.194   4.575  0.3582 -0.0088  0.0275
30499SOL    HW193265   2.946   9.255   4.648 -1.5005  0.9875 -0.4588
30499SOL    HW293266   2.904   9.249   4.503 -0.5948 -1.4022 -0.6654
30500SOL     OW93267   3.902   6.492   4.169 -0.3973 -0.0841 -0.1723
30500SOL    HW193268   3.813   6.478   4.200  0.0054 -1.0730  0.5867
30500SOL    HW293269   3.925   6.579   4.201 -0.8080 -0.1565  0.3332
30501SOL     OW93270   0.484   3.715   4.343  0.2536  0.5805 -0.0771
30501SOL    HW193271   0.545   3.644   4.325 -0.5494 -0.6537  1.7670
30501SOL    HW293272   0.402   3.671   4.366 -0.9509  2.1594 -1.1029
30502SOL     OW93273   9.771   4.373   8.734 -0.2127 -0.7548 -0.1173
30502SOL    HW193274   9.678   4.388   8.719 -0.2887 -0.9673  0.1327
30502SOL    HW293275   9.812   4.384   8.648 -0.5514 -1.3206 -0.3537
30503SOL     OW93276   7.924   2.735   4.638 -0.1549 -0.1804 -0.1683
30503SOL    HW193277   7.843   2.706   4.596 -0.0873  0.2710 -0.6205
30503SOL    HW293278   7.895   2.791   4.710 -0.2624  2.8315 -2.3662
30504SOL     OW93279   1.488   4.416   2.169 -0.3661 -0.4522 -0.0377
30504SOL    HW193280   1.533   4.498   2.191  1.2496 -1.5446  0.9652
30504SOL    HW293281   1.411   4.415   2.225 -0.8879  0.7609 -0.6923
30505SOL     OW93282   1.786   5.211   8.188 -0.0144  0.0889  0.3620
30505SOL    HW193283   1.691   5.225   8.185 -0.2881 -1.4757 -3.1491
30505SOL    HW293284   1.823   5.292   8.156 -0.2896  0.0769  0.0062
30506SOL     OW93285   1.925   2.188   2.258 -0.1477  0.5488 -0.6425
30506SOL    HW193286   1.901   2.246   2.186  0.2502 -0.0010 -1.2258
30506SOL    HW293287   1.877   2.222   2.334  1.2082  2.5377 -0.6174
30507SOL     OW93288   3.903   1.027   6.898 -0.2216 -0.4776 -0.1825
30507SOL    HW193289   3.809   1.009   6.910  0.0517 -1.2534  1.0046
30507SOL    HW293290   3.941   0.941   6.881  0.1953 -0.0782 -1.3208
30508SOL     OW93291   4.381   9.402   8.850  0.1485 -0.2003 -0.7847
30508SOL    HW193292   4.423   9.445   8.925 -1.9363  1.8652 -0.6962
30508SOL    HW293293   4.395   9.462   8.777 -3.0182  0.9048 -0.6126
30509SOL     OW93294   5.214   3.778   7.049  0.2608  0.0277  0.1028
30509SOL    HW193295   5.213   3.685   7.071  2.0761  0.0276  0.3096
30509SOL    HW293296   5.307   3.800   7.041 -0.1668  1.5526 -1.1299
30510SOL     OW93297   5.807   8.116   4.689 -0.0493  0.1657 -0.1696
30510SOL    HW193298   5.802   8.168   4.609  2.3033  1.0616  0.1804
30510SOL    HW293299   5.889   8.067   4.681 -0.9380 -1.5446  0.6785
30511SOL     OW93300   4.651   7.627   6.776  0.1148  0.0183 -0.1285
30511SOL    HW193301   4.724   7.686   6.791 -0.2611  0.2412  0.9020
30511SOL    HW293302   4.659   7.602   6.683  0.3170  1.6319 -0.5785
30512SOL     OW93303   5.772   5.745   7.377 -0.2501 -1.0808  0.1598
30512SOL    HW193304   5.816   5.702   7.304  2.3839  0.8044  0.4980
30512SOL    HW293305   5.799   5.694   7.454  1.2915 -0.0506  0.3422
30513SOL     OW93306   9.471   1.785   7.294  0.2967  0.1173 -0.2058
30513SOL    HW193307   9.450   1.697   7.265 -0.3639  0.2337 -0.0773
30513SOL    HW293308   9.562   1.779   7.325 -0.3210 -0.9319  1.5242
30514SOL     OW93309   8.886   6.129   8.272 -0.2428 -0.2736  0.2851
30514SOL    HW193310   8.949   6.090   8.334 -1.2254 -0.9607  0.8894
30514SOL    HW293311   8.848   6.202   8.321 -1.9177 -1.5596  1.0252
30515SOL     OW93312   2.654   2.396   7.776  0.3448  0.1285  0.2993
30515SOL    HW193313   2.691   2.417   7.862 -1.1747 -0.1073  1.0364
30515SOL    HW293314   2.562   2.420   7.783  0.4232  1.2071 -1.6676
30516SOL     OW93315   0.104   0.138   3.541  0.1309 -0.1140 -0.5732
30516SOL    HW193316   0.108   0.157   3.635 -0.7691  1.5403 -0.8133
30516SOL    HW293317   0.153   0.210   3.501 -0.4605 -0.1711 -1.4156
30517SOL     OW93318   5.548   6.016   1.388  0.1565  0.5137  0.1408
30517SOL    HW193319   5.533   5.961   1.465 -0.6970 -1.0535 -1.1021
30517SOL    HW293320   5.468   6.067   1.380 -0.3488 -0.3740 -0.5328
30518SOL     OW93321   1.216   9.069   0.590  0.5710 -0.1518 -0.1591
30518SOL    HW193322   1.242   9.148   0.638  1.2883 -1.5506  1.9036
30518SOL    HW293323   1.171   9.015   0.656 -2.5824 -0.2945 -2.2180
30519SOL     OW93324   2.703   2.068   6.587 -0.0885 -0.4072  0.0442
30519SOL    HW193325   2.796   2.053   6.606  0.3117  0.7296 -0.9146
30519SOL    HW293326   2.672   2.122   6.660 -0.1300 -1.1933  0.6182
30520SOL     OW93327   9.839   8.085   5.135  0.7149  0.2744  0.8182
30520SOL    HW193328   9.922   8.114   5.173  0.7287  2.1602 -0.5335
30520SOL    HW293329   9.776   8.092   5.207  1.4435  0.1783  1.4802
30521SOL     OW93330   7.062   6.644   0.778 -0.0679  0.5245  0.3816
30521SOL    HW193331   7.004   6.674   0.707 -0.2059 -0.6563 -0.0258
30521SOL    HW293332   7.033   6.555   0.796  0.6361  0.4628  1.2346
30522SOL     OW93333   5.841   3.368   4.534  0.3037  0.3827  0.3034
30522SOL    HW193334   5.789   3.331   4.606  0.6809 -0.1611  0.3076
30522SOL    HW293335   5.925   3.390   4.574 -0.1550  1.9331  0.4517
30523SOL     OW93336   9.246   8.952   6.931 -0.4250  0.3645 -0.2509
30523SOL    HW193337   9.169   8.968   6.877 -0.4026  1.8756  0.1072
30523SOL    HW293338   9.289   8.877   6.891 -1.7242 -0.0881 -0.8460
30524SOL     OW93339   0.822   8.723   5.946 -0.3643 -0.4631 -0.2164
30524SOL    HW193340   0.816   8.639   5.991  0.3177  0.6103  2.0364
30524SOL    HW293341   0.755   8.777   5.988  1.6426  1.2008  1.0290
30525SOL     OW93342   8.721   0.231   1.747 -1.0884  0.3820  0.2427
30525SOL    HW193343   8.650   0.274   1.794 -1.2353  0.9846 -0.5277
30525SOL    HW293344   8.791   0.295   1.744 -0.1010 -0.5508  1.8815
30526SOL     OW93345   1.804   1.501   1.021  0.2830 -0.2147 -0.1798
30526SOL    HW193346   1.843   1.561   0.956 -0.3798 -0.1507 -0.5274
30526SOL    HW293347   1.879   1.462   1.065  0.7381  0.2837 -0.4940
30527SOL     OW93348   6.954   2.676   3.159 -0.0791 -0.6528  0.0879
30527SOL    HW193349   7.021   2.738   3.132 -0.8468  0.0555 -0.2308
30527SOL    HW293350   7.000   2.592   3.166  0.9881 -0.0343  0.6366
30528SOL     OW93351   3.675   8.489   1.693 -0.3529 -0.1396  0.3236
30528SOL    HW193352   3.662   8.501   1.787  0.0017 -0.3321  0.4011
30528SOL    HW293353   3.696   8.577   1.661  0.0870 -0.1712  0.5214
30529SOL     OW93354   8.644   5.406   4.283  0.2405 -0.2918 -0.0916
30529SOL    HW193355   8.679   5.394   4.371  1.2164 -0.1127 -0.4337
30529SOL    HW293356   8.549   5.410   4.294  0.4060  1.0344  1.1022
30530SOL     OW93357   3.969   4.303   9.116 -0.1799 -0.0363  0.6106
30530SOL    HW193358   3.965   4.216   9.075  0.0113  1.4230 -2.8268
30530SOL    HW293359   4.062   4.314   9.139 -0.0959 -0.4911  0.4957
30531SOL     OW93360   3.921   9.219   7.504 -0.2681 -1.0989  0.1241
30531SOL    HW193361   3.953   9.225   7.414 -1.9181  1.5626 -0.3915
30531SOL    HW293362   3.983   9.271   7.556 -1.0073 -0.0480 -0.0302
30532SOL     OW93363   5.920   7.060   7.784  0.2780 -0.5410  0.4746
30532SOL    HW193364   5.859   7.098   7.846  2.1808 -0.7023  2.5454
30532SOL    HW293365   5.923   6.967   7.806 -1.0054 -1.1794 -1.6747
30533SOL     OW93366   6.758   3.841   9.787  0.4675 -0.3864  0.0212
30533SOL    HW193367   6.820   3.782   9.745 -0.3350 -0.3971 -1.1864
30533SOL    HW293368   6.775   3.927   9.747  1.0900  0.0599  1.1892
30534SOL     OW93369   6.718   1.618   0.046  0.1661  0.3596 -0.0217
30534SOL    HW193370   6.805   1.621   0.084 -0.2922 -0.9050  1.2169
30534SOL    HW293371   6.664   1.671   0.105 -0.1689  0.0078 -0.0069
30535SOL     OW93372   6.277   4.588   0.178  0.0070  0.1585 -0.0584
30535SOL    HW193373   6.245   4.677   0.192 -1.2353 -0.2068 -0.3997
30535SOL    HW293374   6.292   4.582   0.084 -0.1226 -0.0537 -0.0671
30536SOL     OW93375   5.983   9.397   4.531  0.6517 -0.5854 -0.4841
30536SOL    HW193376   6.065   9.380   4.576  1.4129  0.2687 -1.4934
30536SOL    HW293377   5.971   9.322   4.472  0.3866 -0.9988  0.0849
30537SOL     OW93378   8.560   9.600   5.888  0.7953  0.4310  0.1695
30537SOL    HW193379   8.655   9.602   5.875  0.5385  0.2709 -2.4853
30537SOL    HW293380   8.542   9.512   5.920  1.4127 -0.3312 -1.4542
30538SOL     OW93381   1.080   6.121   1.035  0.3249 -0.0369 -0.6120
30538SOL    HW193382   1.153   6.093   1.090  0.8674 -0.6355 -1.6002
30538SOL    HW293383   1.039   6.040   1.006 -1.7038  0.2799  1.1187
30539SOL     OW93384   9.066   6.697   2.969  0.0704 -0.0260 -0.0237
30539SOL    HW193385   9.157   6.667   2.974  0.2001  0.4696  0.9110
30539SOL    HW293386   9.058   6.735   2.882  0.5390 -0.7583 -0.3957
30540SOL     OW93387   2.665   0.545   1.438 -0.1434  0.1184 -0.2022
30540SOL    HW193388   2.574   0.535   1.467  0.1306  1.2511  1.1249
30540SOL    HW293389   2.717   0.504   1.506  0.4379  1.4914  0.2168
30541SOL     OW93390   9.181   1.284   8.178  0.0661 -0.5635  0.0353
30541SOL    HW193391   9.262   1.330   8.153  2.8506 -2.4166  4.3982
30541SOL    HW293392   9.131   1.278   8.097  3.4949  2.2417 -2.6257
30542SOL     OW93393   9.108   4.286   3.960 -0.0131 -0.1853  0.2255
30542SOL    HW193394   9.142   4.210   3.913 -0.3688  0.2327 -0.7342
30542SOL    HW293395   9.184   4.343   3.972 -0.0946  0.1357 -0.7094
30543SOL     OW93396   1.539   6.241   7.114 -0.4981  0.1043 -0.1304
30543SOL    HW193397   1.477   6.274   7.050 -0.2194 -1.7245 -1.4267
30543SOL    HW293398   1.615   6.213   7.062 -0.5920 -2.1947  0.8451
30544SOL     OW93399   0.601   7.411   3.861  0.6265 -0.0807  0.4175
30544SOL    HW193400   0.548   7.403   3.781  1.6233  0.3742 -0.3075
30544SOL    HW293401   0.646   7.327   3.869  0.4153 -0.1797  0.5939
30545SOL     OW93402   4.203   8.262   8.090 -0.2498 -0.2326 -0.1598
30545SOL    HW193403   4.176   8.346   8.054 -0.6572  0.2451  1.2032
30545SOL    HW293404   4.156   8.197   8.037  0.2067  0.3597 -1.3421
30546SOL     OW93405   5.565   3.857   7.496 -0.2999 -0.0401 -0.0001
30546SOL    HW193406   5.579   3.951   7.487  1.2152 -0.3237 -0.9382
30546SOL    HW293407   5.601   3.835   7.583 -1.5066  0.3753  0.6185
30547SOL     OW93408   0.486   5.518   0.481 -0.3094 -0.6856  0.1500
30547SOL    HW193409   0.537   5.584   0.435 -0.0800 -0.5359  0.6106
30547SOL    HW293410   0.514   5.434   0.443  1.8214 -0.8050  1.7894
30548SOL     OW93411   4.653   2.387   3.870 -0.1819 -0.1986 -0.0277
30548SOL    HW193412   4.695   2.415   3.951 -0.7468  0.0267  0.1959
30548SOL    HW293413   4.580   2.447   3.859 -0.6708 -0.8124 -0.2063
30549SOL     OW93414   9.654   4.010   4.639 -0.4570  0.0443  0.5537
30549SOL    HW193415   9.694   4.093   4.613  0.3602 -0.3191  0.6088
30549SOL    HW293416   9.718   3.971   4.699 -0.4646 -0.9864 -0.0951
30550SOL     OW93417   6.297   4.860   3.890  0.1387  0.0337 -0.4662
30550SOL    HW193418   6.314   4.804   3.813  1.4903  0.8550 -0.7970
30550SOL    HW293419   6.358   4.933   3.880 -0.3237  0.6332  0.9241
30551SOL     OW93420   4.558   4.611   8.880  1.0090  0.9581  0.3503
30551SOL    HW193421   4.649   4.627   8.854  0.5961  3.2306  0.1423
30551SOL    HW293422   4.512   4.691   8.858 -1.1545 -0.2646  0.1422
30552SOL     OW93423   4.516   4.858   2.446 -0.0243  0.5674 -0.3118
30552SOL    HW193424   4.552   4.941   2.477 -1.0763  1.1714 -0.6383
30552SOL    HW293425   4.503   4.806   2.526  1.7459  0.2241 -0.2094
30553SOL     OW93426   2.722   4.777   6.549  1.1696 -0.1458 -0.4328
30553SOL    HW193427   2.636   4.736   6.540  2.7540 -3.6559 -0.9838
30553SOL    HW293428   2.732   4.829   6.469 -0.8921  1.5055  0.2806
30554SOL     OW93429   7.323   9.316   4.097  0.4289  0.1033  0.7314
30554SOL    HW193430   7.273   9.266   4.162 -1.5294  2.0709  0.8257
30554SOL    HW293431   7.403   9.341   4.144  0.7971 -1.6895  1.1261
30555SOL     OW93432   5.567   9.098   0.263  0.1669  0.2490  0.0452
30555SOL    HW193433   5.601   9.169   0.208 -0.0797 -0.6034 -1.2761
30555SOL    HW293434   5.509   9.142   0.326 -0.7590  1.1550 -1.3620
30556SOL     OW93435   9.077   4.965   5.517  0.1627  0.3942  0.0770
30556SOL    HW193436   9.019   4.961   5.441  1.0592  0.9609 -0.6418
30556SOL    HW293437   9.128   5.045   5.505  0.9981 -0.0171  0.7763
30557SOL     OW93438   3.766   6.814   0.685 -0.0554  0.3440 -0.2556
30557SOL    HW193439   3.709   6.804   0.762 -0.1311  1.2048 -0.1830
30557SOL    HW293440   3.782   6.909   0.680 -0.6104  0.3903 -1.6892
30558SOL     OW93441   9.271   1.024   9.828  0.5630 -0.6199 -0.1531
30558SOL    HW193442   9.304   1.061   9.746  0.1892  0.8666  0.3332
30558SOL    HW293443   9.185   1.064   9.840  0.4899 -1.0264  0.8240
30559SOL     OW93444   9.259   2.688   6.564 -0.4033  0.0183 -0.7594
30559SOL    HW193445   9.332   2.743   6.594 -0.2977 -0.8728  0.7167
30559SOL    HW293446   9.190   2.750   6.543 -0.9324  0.7454  2.5996
30560SOL     OW93447   0.250   9.394   7.420  0.5516 -0.2005 -0.1072
30560SOL    HW193448   0.262   9.332   7.347  1.1611 -1.4282  1.0011
30560SOL    HW293449   0.233   9.477   7.377  0.9987 -0.8726 -1.6734
30561SOL     OW93450   0.051   3.010   3.047 -0.7899 -0.0340  0.0072
30561SOL    HW193451   0.010   3.094   3.067  0.5079  0.8357 -0.8173
30561SOL    HW293452   0.011   2.982   2.965 -1.1325 -0.1524  0.2162
30562SOL     OW93453   0.212   3.070   9.467  0.6391  0.9538  0.0715
30562SOL    HW193454   0.295   3.069   9.515  1.0707  0.2139 -0.6591
30562SOL    HW293455   0.227   3.131   9.395  0.3418  1.2729  0.2762
30563SOL     OW93456   7.118   5.866   0.320  0.3023 -0.1670  0.0069
30563SOL    HW193457   7.133   5.885   0.413  2.1753 -0.6526 -0.1519
30563SOL    HW293458   7.191   5.909   0.275 -0.3557 -0.2841 -1.2109
30564SOL     OW93459   5.282   2.579   2.699  0.4914  0.0440 -0.3841
30564SOL    HW193460   5.293   2.567   2.604  1.0833 -1.0949 -0.1876
30564SOL    HW293461   5.241   2.498   2.729 -0.3053  0.6675  0.2487
30565SOL     OW93462   9.351   1.104   1.359  0.0269 -0.1800  0.7548
30565SOL    HW193463   9.411   1.179   1.360  1.1339 -1.0487  1.8455
30565SOL    HW293464   9.327   1.095   1.267 -0.2281  1.5723  0.6077
30566SOL     OW93465   0.154   0.273   0.303  0.0402  0.4965 -0.2670
30566SOL    HW193466   0.081   0.278   0.242 -1.0969  0.3059  1.0371
30566SOL    HW293467   0.116   0.293   0.389  1.5085  0.3609  0.4547
30567SOL     OW93468   7.968   8.738   5.833  0.0194 -0.0333  0.2921
30567SOL    HW193469   8.014   8.819   5.813  2.6777 -1.8239 -1.5744
30567SOL    HW293470   8.006   8.708   5.915 -1.1441  0.6577  1.1166
30568SOL     OW93471   1.755   3.906   7.505 -0.4171  0.6538 -0.2766
30568SOL    HW193472   1.847   3.891   7.526 -0.4629  0.9664  0.1646
30568SOL    HW293473   1.721   3.819   7.485  0.5454  0.8041 -2.9287
30569SOL     OW93474   5.178   3.151   6.233 -0.2322 -0.0267 -0.4624
30569SOL    HW193475   5.240   3.101   6.180 -0.8532 -0.5448 -0.7118
30569SOL    HW293476   5.104   3.092   6.245  0.4921 -0.5133  2.2561
30570SOL     OW93477   2.364   4.218   6.036  0.0480  0.3770 -0.2481
30570SOL    HW193478   2.349   4.312   6.028 -0.5571  0.3419  0.3927
30570SOL    HW293479   2.410   4.207   6.119 -0.7480  0.0243  0.1600
30571SOL     OW93480   7.985   8.432   5.946 -0.6774 -0.2144 -0.4755
30571SOL    HW193481   8.035   8.443   5.865 -0.7485  0.3711 -0.4443
30571SOL    HW293482   8.000   8.513   5.994 -0.9468 -0.4021 -0.0712
30572SOL     OW93483   0.081   2.973   2.425  0.1542  0.8310 -0.5204
30572SOL    HW193484   0.172   2.946   2.414 -0.4871 -0.9893 -1.7777
30572SOL    HW293485   0.058   2.943   2.513  0.5576  0.6618 -0.4693
30573SOL     OW93486   2.935   1.950   7.336  0.3199  0.5473 -0.0448
30573SOL    HW193487   2.876   1.902   7.278 -0.2631  1.7787 -0.5037
30573SOL    HW293488   2.880   2.017   7.377  0.5802 -0.6477  2.4167
30574SOL     OW93489   2.534   8.474   6.430 -0.4965  0.7912 -0.2231
30574SOL    HW193490   2.497   8.502   6.347  0.2869  0.7106 -0.6058
30574SOL    HW293491   2.600   8.540   6.450 -2.0106  1.9314  1.3386
30575SOL     OW93492   0.741   5.181   5.825 -0.1979 -0.2220 -0.0826
30575SOL    HW193493   0.793   5.216   5.752 -0.4294 -0.1655 -0.2201
30575SOL    HW293494   0.734   5.087   5.806  1.3577 -0.5554  0.8547
30576SOL     OW93495   6.110   6.629   0.721  0.0890 -0.3913  0.2704
30576SOL    HW193496   6.166   6.707   0.722  0.9935 -1.0209  1.8010
30576SOL    HW293497   6.165   6.560   0.684 -0.5544 -0.4443 -0.6307
30577SOL     OW93498   6.002   1.471   8.845 -0.5742 -0.4900 -0.4052
30577SOL    HW193499   6.054   1.391   8.849 -0.1327 -0.1907 -0.0133
30577SOL    HW293500   6.046   1.525   8.779 -0.4037 -0.2523 -0.1017
30578SOL     OW93501   7.313   9.668   5.771 -0.1632  0.6522 -0.2442
30578SOL    HW193502   7.223   9.685   5.743 -0.2045  1.2550  0.2303
30578SOL    HW293503   7.355   9.754   5.769  0.7239  0.2276 -1.5147
30579SOL     OW93504   9.650   1.994   2.161  0.0344 -0.2743  0.2867
30579SOL    HW193505   9.572   2.025   2.116  0.2505 -0.9845 -0.6263
30579SOL    HW293506   9.687   1.928   2.101  1.3166  0.0372  0.7049
30580SOL     OW93507   1.015   5.638   7.971 -0.6518  0.0175  0.0518
30580SOL    HW193508   1.053   5.720   7.939 -2.4516 -0.2016 -2.9717
30580SOL    HW293509   1.070   5.569   7.933 -1.0012 -0.2264 -0.0132
30581SOL     OW93510   5.523   0.187   0.881 -0.3348  0.2340  0.6019
30581SOL    HW193511   5.575   0.260   0.915 -1.4950  1.3968 -0.0468
30581SOL    HW293512   5.537   0.188   0.787  0.3616 -0.9811  0.6731
30582SOL     OW93513   4.526   0.479   1.005 -0.1819 -0.4094  0.4984
30582SOL    HW193514   4.513   0.432   0.922 -1.4000 -1.7929  1.4123
30582SOL    HW293515   4.465   0.437   1.066 -1.5578  2.5722  1.3373
30583SOL     OW93516   2.726   4.900   9.385  0.3153  0.8719 -0.4841
30583SOL    HW193517   2.764   4.958   9.451  0.4549  1.1863 -0.8351
30583SOL    HW293518   2.634   4.892   9.409  0.4570  0.6410 -0.0072
30584SOL     OW93519   3.638   3.134   8.476 -0.2353 -0.1055 -0.4073
30584SOL    HW193520   3.601   3.207   8.426 -0.2899  0.0114 -0.1995
30584SOL    HW293521   3.607   3.148   8.565  1.9318  1.1522  0.2380
30585SOL     OW93522   1.126   5.434   6.269 -0.6113 -0.4898  0.2913
30585SOL    HW193523   1.158   5.491   6.339 -0.6006  0.5931 -0.5627
30585SOL    HW293524   1.189   5.447   6.198 -0.4417 -1.8165  0.1732
30586SOL     OW93525   7.366   9.277   5.619 -0.7295 -0.6285 -0.2387
30586SOL    HW193526   7.288   9.323   5.650 -0.7691 -0.8609  0.0114
30586SOL    HW293527   7.376   9.305   5.528 -0.3720  0.3890  0.0974
30587SOL     OW93528   7.600   6.293   7.345  0.5138 -0.1085  0.2027
30587SOL    HW193529   7.559   6.335   7.421 -0.0312  0.4555 -0.3846
30587SOL    HW293530   7.681   6.342   7.331  1.2080 -0.9548  1.1081
30588SOL     OW93531   0.587   1.417   0.332  0.2124 -0.0635 -0.1735
30588SOL    HW193532   0.661   1.475   0.351  0.2133 -0.3624  0.8372
30588SOL    HW293533   0.627   1.330   0.323  0.2064  0.0637 -1.6263
30589SOL     OW93534   0.879   5.542   4.752 -0.1623 -0.2077 -0.1921
30589SOL    HW193535   0.947   5.541   4.685 -0.7462  0.2630 -0.8051
30589SOL    HW293536   0.918   5.591   4.825  1.2946 -2.5767  0.7377
30590SOL     OW93537   8.690   6.048   4.135  0.7334 -0.2427 -0.5934
30590SOL    HW193538   8.601   6.017   4.119  0.8071 -1.1455  0.5813
30590SOL    HW293539   8.703   6.034   4.229  1.6422  1.1314 -0.4916
30591SOL     OW93540   7.614   4.994   9.730  0.7568 -0.7357 -0.3089
30591SOL    HW193541   7.710   5.000   9.738  0.5725 -0.3105  2.4260
30591SOL    HW293542   7.590   4.921   9.787 -0.7030  0.5900  0.8494
30592SOL     OW93543   3.409   2.688   4.133  0.0465 -0.2286  0.0105
30592SOL    HW193544   3.389   2.777   4.103  0.4915  1.1937  3.4609
30592SOL    HW293545   3.439   2.642   4.054  1.7586  3.2599 -1.5899
30593SOL     OW93546   5.548   6.922   6.487 -0.3508 -0.2484 -0.2365
30593SOL    HW193547   5.532   6.837   6.446  0.4948 -0.7407  0.4256
30593SOL    HW293548   5.534   6.985   6.416  0.3642 -1.0344 -1.1010
30594SOL     OW93549   1.763   9.000   4.805  0.5649 -0.1826 -0.0780
30594SOL    HW193550   1.798   9.079   4.846 -0.1020  0.6787 -1.1047
30594SOL    HW293551   1.670   9.018   4.793  0.6180 -0.6397 -1.3710
30595SOL     OW93552   2.626   7.958   3.857  0.5164  0.3651 -0.3207
30595SOL    HW193553   2.578   8.002   3.788 -0.6466  2.1454  1.5145
30595SOL    HW293554   2.562   7.898   3.896  0.0326  1.8528  1.3343
30596SOL     OW93555   9.540   4.540   8.168 -0.0697 -0.4381  0.5572
30596SOL    HW193556   9.470   4.496   8.217  0.6330 -3.0441 -0.6316
30596SOL    HW293557   9.494   4.597   8.107 -1.1199 -1.1030  0.6955
30597SOL     OW93558   1.863   8.245   4.144 -0.1375  0.2300  0.4059
30597SOL    HW193559   1.808   8.288   4.210 -0.1205  0.2891  0.3823
30597SOL    HW293560   1.822   8.160   4.130  1.0047 -0.6326  1.9856
30598SOL     OW93561   1.069   1.341   8.186 -0.3111 -0.1570 -0.1599
30598SOL    HW193562   1.043   1.301   8.268  0.3391 -2.0280 -0.8238
30598SOL    HW293563   1.158   1.374   8.202 -0.8032  0.9810  0.3482
30599SOL     OW93564   3.465   6.911   0.458  0.2492 -0.8299  0.0937
30599SOL    HW193565   3.409   6.842   0.423  0.3284 -1.6097  1.4129
30599SOL    HW293566   3.407   6.961   0.516  0.3122 -0.0717 -0.4887
30600SOL     OW93567   4.340   6.914   3.917  0.2440 -0.0387 -0.3894
30600SOL    HW193568   4.381   6.886   3.999 -1.2424  0.4763  0.5653
30600SOL    HW293569   4.250   6.881   3.922 -0.3970  1.5109 -0.9979
30601SOL     OW93570   4.131   2.092   7.670 -0.1430  0.1180 -0.2852
30601SOL    HW193571   4.148   2.092   7.764  1.5993  1.0394 -0.5695
30601SOL    HW293572   4.039   2.067   7.663 -0.4332  0.4628  1.6777
30602SOL     OW93573   6.146   8.726   2.942 -0.7340  0.0144 -0.3872
30602SOL    HW193574   6.192   8.760   3.019 -1.8106 -0.2390  0.3897
30602SOL    HW293575   6.086   8.660   2.977 -0.7799 -0.5731 -1.5283
30603SOL     OW93576   3.658   8.077   0.938 -0.0839  0.2142  0.0026
30603SOL    HW193577   3.656   8.027   1.020 -0.0496 -0.7733 -0.5769
30603SOL    HW293578   3.665   8.168   0.966  3.1251 -0.2294  1.1105
30604SOL     OW93579   3.481   0.040   6.903  0.6432  0.0088  0.4291
30604SOL    HW193580   3.569   0.007   6.925  0.5331  0.2072  1.1723
30604SOL    HW293581   3.469   0.117   6.959 -0.3246 -0.4906  0.9371
30605SOL     OW93582   9.005   3.836   3.405  0.0626 -0.0408 -0.1748
30605SOL    HW193583   9.000   3.742   3.419  0.3512 -0.1514 -0.7796
30605SOL    HW293584   8.937   3.854   3.340  0.6862  0.0070 -0.8232
30606SOL     OW93585   7.363   6.242   7.662  0.6524 -0.1674 -0.1267
30606SOL    HW193586   7.336   6.219   7.573 -1.1713 -0.7666  0.5385
30606SOL    HW293587   7.369   6.158   7.708  3.3438 -0.0284 -0.0936
30607SOL     OW93588   1.170   2.930   0.967  0.6509 -0.0938  0.4800
30607SOL    HW193589   1.188   3.024   0.973 -1.2063  0.3359  0.0053
30607SOL    HW293590   1.190   2.907   0.877  1.8430 -0.3544  0.7911
30608SOL     OW93591   1.686   7.198   7.068 -0.1119  0.4228 -0.0583
30608SOL    HW193592   1.774   7.237   7.063  0.0395  0.0068 -0.9594
30608SOL    HW293593   1.658   7.193   6.976 -0.6304 -0.4343  0.1385
30609SOL     OW93594   4.914   7.921   8.817  0.2833 -0.4020  0.1892
30609SOL    HW193595   4.839   7.963   8.859  1.3254 -0.0451  1.7932
30609SOL    HW293596   4.915   7.832   8.852 -1.1462 -1.4307 -2.1926
30610SOL     OW93597   8.601   5.180   2.881 -0.4906 -0.1187  0.3636
30610SOL    HW193598   8.619   5.239   2.954 -1.4782  0.7295 -0.0435
30610SOL    HW293599   8.642   5.222   2.806  1.0313 -1.2855  0.4985
30611SOL     OW93600   2.977   5.764   5.109 -0.0878  0.7471 -0.6702
30611SOL    HW193601   2.904   5.818   5.081 -1.3364 -0.7576 -0.4192
30611SOL    HW293602   2.942   5.710   5.180  0.4492 -1.9766 -2.3553
30612SOL     OW93603   9.797   7.492   2.004  0.0335  0.5432 -0.0553
30612SOL    HW193604   9.805   7.504   2.098  0.9002 -0.7483  0.0694
30612SOL    HW293605   9.858   7.555   1.966 -0.0525  0.8170  0.2596
30613SOL     OW93606   1.456   8.142   6.079 -0.1574  0.0540 -0.0106
30613SOL    HW193607   1.519   8.101   6.139 -0.9281 -1.7853 -0.3767
30613SOL    HW293608   1.386   8.173   6.136  0.6538  1.3500  0.3190
30614SOL     OW93609   1.286   1.988   1.151 -0.4167 -0.5129 -0.3444
30614SOL    HW193610   1.342   1.944   1.215  2.5494  1.5745 -1.2789
30614SOL    HW293611   1.271   2.075   1.187 -0.6449 -0.0855 -1.4282
30615SOL     OW93612   9.087   4.849   9.650  0.0917  0.0652 -0.3260
30615SOL    HW193613   9.005   4.845   9.700  0.4506 -0.6838  0.2268
30615SOL    HW293614   9.059   4.870   9.561 -0.4738  2.5059  0.3465
30616SOL     OW93615   4.544   0.820   6.109 -0.6219  0.4290 -0.0961
30616SOL    HW193616   4.633   0.854   6.120  0.1509 -1.2417 -0.9149
30616SOL    HW293617   4.494   0.895   6.076  0.8091  1.0135 -1.0255
30617SOL     OW93618   8.097   8.309   5.280 -0.3925 -0.1653  0.1607
30617SOL    HW193619   8.075   8.378   5.342 -0.3044  0.1575 -0.1703
30617SOL    HW293620   8.060   8.337   5.197  1.6959  0.6575 -0.5538
30618SOL     OW93621   1.812   9.479   1.513  0.1953 -0.5437 -0.3268
30618SOL    HW193622   1.832   9.433   1.595  1.1830  0.5532  0.0803
30618SOL    HW293623   1.848   9.567   1.526 -0.9433  0.1081 -1.3852
30619SOL     OW93624   3.686   6.279   8.597  0.5894  0.1846  0.2021
30619SOL    HW193625   3.609   6.225   8.617  1.4672 -0.6051  1.5490
30619SOL    HW293626   3.715   6.312   8.681  1.0489  1.4520 -0.4316
30620SOL     OW93627   4.998   7.722   6.593 -0.4054 -0.1327  0.3253
30620SOL    HW193628   5.062   7.654   6.611 -0.4318 -0.4190 -0.6406
30620SOL    HW293629   5.030   7.766   6.514 -1.0474  0.1588  0.2149
30621SOL     OW93630   8.614   0.737   4.824  0.6520 -0.6453 -0.0454
30621SOL    HW193631   8.599   0.796   4.750  3.1477  0.5785  0.3376
30621SOL    HW293632   8.556   0.662   4.806 -1.0919  0.9551 -1.6008
30622SOL     OW93633   3.625   3.612   5.269  0.2153  0.3601  0.9817
30622SOL    HW193634   3.573   3.672   5.215 -0.1531  0.1484  1.0995
30622SOL    HW293635   3.564   3.579   5.334  0.4606 -0.0164  1.0229
30623SOL     OW93636   2.658   0.026   4.274 -0.5174  0.5469 -0.0260
30623SOL    HW193637   2.753   0.029   4.260 -0.0942 -1.6685  1.7345
30623SOL    HW293638   2.634   0.117   4.292  1.5014  1.0058  0.6073
30624SOL     OW93639   3.285   3.670   7.351 -0.1795  0.4732 -0.2284
30624SOL    HW193640   3.263   3.656   7.259 -0.2069 -1.0212 -0.0187
30624SOL    HW293641   3.354   3.736   7.349 -0.5254  0.8226 -1.2865
30625SOL     OW93642   2.299   5.528   4.806 -0.1384  0.0433  0.3324
30625SOL    HW193643   2.328   5.508   4.895 -0.0834  0.3355  0.3820
30625SOL    HW293644   2.248   5.608   4.815  2.0682  1.6304 -0.2472
30626SOL     OW93645   4.729   5.696   8.073 -0.5666 -0.0653 -0.8181
30626SOL    HW193646   4.715   5.601   8.071  2.3352 -0.5776 -2.6304
30626SOL    HW293647   4.713   5.725   7.984  1.3596  0.5906 -0.9975
30627SOL     OW93648   5.630   2.001   5.708  0.1755  0.8933  0.7454
30627SOL    HW193649   5.680   2.082   5.724  0.7486  1.0747 -1.6166
30627SOL    HW293650   5.553   2.030   5.658  0.8109 -0.0667 -0.8619
30628SOL     OW93651   8.604   5.338   3.086  0.5245  0.4901 -0.2218
30628SOL    HW193652   8.513   5.351   3.113  0.4634 -1.5624  0.6715
30628SOL    HW293653   8.654   5.401   3.139 -0.4862  3.3918 -2.4086
30629SOL     OW93654   6.948   0.065   3.978  0.0582  0.1951 -0.1184
30629SOL    HW193655   6.998   0.114   3.912 -0.8762 -0.1366 -1.1160
30629SOL    HW293656   6.866   0.113   3.986 -1.2604 -1.5886 -1.7818
30630SOL     OW93657   9.451   4.227   9.607  0.1202  0.0230 -0.1151
30630SOL    HW193658   9.490   4.149   9.647  0.1398 -0.4086 -0.9449
30630SOL    HW293659   9.484   4.300   9.659  1.3168 -0.4069 -0.2490
30631SOL     OW93660   4.837   1.916   0.414  0.4209  0.8595  0.0470
30631SOL    HW193661   4.829   1.905   0.509 -0.4396 -0.0582 -0.1137
30631SOL    HW293662   4.927   1.945   0.401  1.1585 -0.8113  1.0083
30632SOL     OW93663   7.582   3.366   2.345 -0.7186  0.1509 -0.1221
30632SOL    HW193664   7.549   3.276   2.347 -2.1958  0.6370 -1.0283
30632SOL    HW293665   7.586   3.388   2.252  2.0357  0.2295 -0.0908
30633SOL     OW93666   4.886   3.010   6.669  0.1713 -0.6370  0.7169
30633SOL    HW193667   4.902   3.096   6.632  1.0231 -0.1526  2.1190
30633SOL    HW293668   4.920   2.949   6.605  1.8201  0.1743  0.7750
30634SOL     OW93669   4.220   6.731   5.814 -0.0801  0.2901 -0.2351
30634SOL    HW193670   4.190   6.658   5.869  0.2236  0.1336 -0.2784
30634SOL    HW293671   4.186   6.809   5.857  1.5539  0.3055  1.1081
30635SOL     OW93672   0.177   2.829   7.630  0.4014 -0.3690 -0.0965
30635SOL    HW193673   0.255   2.806   7.680  0.1185 -0.8772  0.1217
30635SOL    HW293674   0.128   2.747   7.622 -0.8102  0.1964  1.0260
30636SOL     OW93675   7.714   8.430   5.653  0.4500 -0.2509  0.4386
30636SOL    HW193676   7.783   8.365   5.651 -0.6135 -1.4025 -1.3428
30636SOL    HW293677   7.635   8.381   5.677 -0.4162  0.2876 -1.1700
30637SOL     OW93678   1.903   4.665   9.591  0.1932 -0.0629 -0.4058
30637SOL    HW193679   1.915   4.590   9.533  0.9459  0.3964 -0.8421
30637SOL    HW293680   1.822   4.706   9.561 -0.2923 -0.7577 -0.0867
30638SOL     OW93681   5.546   4.450   4.231 -0.3897 -0.5271 -0.1853
30638SOL    HW193682   5.545   4.480   4.322  0.5897 -0.6368 -0.1300
30638SOL    HW293683   5.583   4.523   4.182  0.7681 -1.1199 -0.2326
30639SOL     OW93684   4.119   3.156   8.033 -0.1360  0.3169  0.1076
30639SOL    HW193685   4.132   3.208   8.112  0.2565  1.1464 -0.4844
30639SOL    HW293686   4.142   3.216   7.961  0.0748 -0.5963 -0.6008
30640SOL     OW93687   9.821   8.404   0.147  0.1183 -0.0438  0.8702
30640SOL    HW193688   9.766   8.470   0.191 -0.0531  0.8639 -0.6154
30640SOL    HW293689   9.758   8.343   0.108  0.2878 -1.6147  2.9235
30641SOL     OW93690   0.619   0.299   9.215 -0.0438  0.1653 -0.2185
30641SOL    HW193691   0.527   0.278   9.233 -0.0195 -0.6593 -1.0230
30641SOL    HW293692   0.628   0.390   9.244 -0.8703 -0.0327  0.7422
30642SOL     OW93693   7.555   8.706   2.438 -1.0963 -0.2351 -0.3976
30642SOL    HW193694   7.642   8.713   2.400 -0.6878  0.0181  0.5529
30642SOL    HW293695   7.498   8.686   2.364 -0.3323  0.2450 -1.1369
30643SOL     OW93696   3.719   2.519   6.129 -0.0809  0.0369  0.2569
30643SOL    HW193697   3.778   2.577   6.177  0.3035 -1.3633  1.5098
30643SOL    HW293698   3.747   2.529   6.037  0.3121  1.4141  0.4919
30644SOL     OW93699   3.475   3.408   1.780 -0.0863 -0.3026  0.3371
30644SOL    HW193700   3.476   3.424   1.874  0.3711 -0.1078  0.3010
30644SOL    HW293701   3.562   3.436   1.750 -1.1848  2.5685 -0.5957
30645SOL     OW93702   2.151   3.507   1.735  0.4771  0.0149 -0.2057
30645SOL    HW193703   2.210   3.504   1.660  0.1407 -2.0912 -0.4423
30645SOL    HW293704   2.185   3.440   1.795 -0.0936  0.6694  0.8928
30646SOL     OW93705   9.446   3.175   1.145  0.1068 -0.0597 -0.3201
30646SOL    HW193706   9.489   3.151   1.227 -0.0760 -0.6859 -0.4018
30646SOL    HW293707   9.377   3.235   1.170  0.2562  0.0009 -0.0525
30647SOL     OW93708   6.088   8.892   6.883 -0.0453  0.0866 -0.1999
30647SOL    HW193709   6.169   8.885   6.934  0.3486  2.6374 -0.3406
30647SOL    HW293710   6.025   8.931   6.942 -0.6263 -0.1634 -0.6464
30648SOL     OW93711   8.321   8.115   9.337 -0.3717  0.2178 -0.3596
30648SOL    HW193712   8.288   8.029   9.309  0.4883  0.0227 -0.8256
30648SOL    HW293713   8.372   8.146   9.262 -0.7832  1.2001 -0.2453
30649SOL     OW93714   9.502   3.298   5.238 -0.3192  0.6325 -0.0733
30649SOL    HW193715   9.412   3.330   5.239  0.0470  1.8691 -1.4649
30649SOL    HW293716   9.542   3.336   5.316 -0.6332  1.3120 -0.2352
30650SOL     OW93717   6.069   8.158   7.185 -0.7218 -0.0853 -0.6008
30650SOL    HW193718   6.117   8.240   7.197 -0.6772 -0.1099 -0.6117
30650SOL    HW293719   6.125   8.092   7.225 -0.5254 -0.1815 -1.0306
30651SOL     OW93720   0.467   2.168   0.272  0.4403 -0.1634 -0.0809
30651SOL    HW193721   0.538   2.117   0.233  1.0108  0.0152  0.7068
30651SOL    HW293722   0.491   2.177   0.364 -1.0820 -0.9140  0.4229
30652SOL     OW93723   0.233   6.265   7.890 -0.2991 -0.2471  0.0551
30652SOL    HW193724   0.300   6.331   7.908 -0.0871 -0.6903  0.9318
30652SOL    HW293725   0.151   6.308   7.914 -0.1322 -0.4043  0.9390
30653SOL     OW93726   4.963   3.048   3.699  0.7557 -0.7210  0.0644
30653SOL    HW193727   4.942   2.957   3.681 -0.2534 -0.2792 -1.2074
30653SOL    HW293728   4.933   3.095   3.621  2.1221  0.5882  0.2875
30654SOL     OW93729   2.151   0.568   5.413  0.4183 -0.1512 -0.0106
30654SOL    HW193730   2.103   0.608   5.341  0.3827  0.0689  0.1320
30654SOL    HW293731   2.239   0.555   5.379  0.5891  0.5878  0.1244
30655SOL     OW93732   6.246   9.367   0.252 -0.0319  0.1097 -0.5919
30655SOL    HW193733   6.179   9.412   0.201 -0.3497 -0.8853 -1.0850
30655SOL    HW293734   6.210   9.362   0.340 -0.1506  0.4762 -0.6169
30656SOL     OW93735   9.443   7.093   9.234 -0.4140 -0.1775  0.2397
30656SOL    HW193736   9.440   7.030   9.307  0.9320  0.1995  0.6546
30656SOL    HW293737   9.517   7.150   9.256 -1.6336  1.5950 -0.0917
30657SOL     OW93738   6.616   1.684   8.694 -0.1632  0.2171  0.3471
30657SOL    HW193739   6.633   1.777   8.682 -1.2251  0.3513 -0.3640
30657SOL    HW293740   6.655   1.642   8.617 -0.9105  0.2533 -0.0633
30658SOL     OW93741   5.516   0.220   4.561 -0.3281 -0.2381 -0.1653
30658SOL    HW193742   5.425   0.237   4.536 -0.6661  0.0578  1.2210
30658SOL    HW293743   5.526   0.260   4.647  0.2579 -2.7431  1.0476
30659SOL     OW93744   4.727   9.587   7.172 -0.0268  0.7485  0.7913
30659SOL    HW193745   4.659   9.601   7.106  0.6353  1.2013  0.1848
30659SOL    HW293746   4.686   9.612   7.255 -0.6960  0.7018  0.4827
30660SOL     OW93747   2.685   7.842   6.329  0.4954 -0.3591  0.0848
30660SOL    HW193748   2.595   7.866   6.307  0.3655 -0.3869  0.5689
30660SOL    HW293749   2.688   7.747   6.315 -0.0171 -0.6310  1.5784
30661SOL     OW93750   4.993   5.722   1.567  0.1131  0.4031  0.0193
30661SOL    HW193751   4.961   5.693   1.653 -0.0665 -1.8785 -0.7691
30661SOL    HW293752   4.914   5.726   1.513  0.2173  1.8973 -0.0621
30662SOL     OW93753   3.984   5.366   0.440  0.5462  0.5394  0.2258
30662SOL    HW193754   3.936   5.448   0.441 -0.4852 -0.0555  1.8072
30662SOL    HW293755   4.047   5.374   0.512  0.3917 -0.0813  0.4318
30663SOL     OW93756   2.184   5.529   2.563  0.2207 -0.6498  0.0174
30663SOL    HW193757   2.264   5.518   2.511 -0.5260 -1.4811 -1.0158
30663SOL    HW293758   2.192   5.616   2.602  0.8120  0.0244 -1.5249
30664SOL     OW93759   0.955   2.028   3.865 -0.2363  0.4485 -0.3900
30664SOL    HW193760   1.023   1.968   3.834 -0.3738 -0.0645  0.2836
30664SOL    HW293761   0.889   1.971   3.904 -0.3635  1.0342  0.2594
30665SOL     OW93762   1.327   6.062   3.136 -0.1452 -0.1195  0.1437
30665SOL    HW193763   1.356   5.978   3.170 -0.9069 -0.1620  0.7096
30665SOL    HW293764   1.303   6.044   3.045 -1.6619 -0.8437  0.6674
30666SOL     OW93765   2.407   3.382   4.426 -0.5783 -0.2545  0.3312
30666SOL    HW193766   2.405   3.414   4.336  1.9531  0.1198  0.3215
30666SOL    HW293767   2.347   3.440   4.473 -0.1217  1.0926 -0.6813
30667SOL     OW93768   7.602   7.667   4.963 -0.0623  0.0104 -0.7361
30667SOL    HW193769   7.532   7.622   5.010 -0.6094  0.4444 -1.1178
30667SOL    HW293770   7.558   7.706   4.887  0.5272  0.5864 -0.7848
30668SOL     OW93771   0.397   4.468   5.791  0.1216  0.4094  0.2188
30668SOL    HW193772   0.311   4.466   5.833  0.4605 -2.8328  0.9856
30668SOL    HW293773   0.384   4.426   5.707  0.7907  0.7913 -0.0844
30669SOL     OW93774   8.153   1.540   8.828  0.2970  0.4075 -0.1971
30669SOL    HW193775   8.093   1.571   8.760  0.4465 -0.8024 -0.9251
30669SOL    HW293776   8.232   1.516   8.780 -0.2779 -2.3270  0.0597
30670SOL     OW93777   4.982   6.484   7.771  0.1104 -0.5855 -0.2555
30670SOL    HW193778   4.900   6.436   7.782 -0.2073  0.1550  0.6184
30670SOL    HW293779   4.957   6.564   7.724 -0.2571  1.1769  2.7008
30671SOL     OW93780   7.419   9.143   7.362  0.8643  0.0432  0.0991
30671SOL    HW193781   7.335   9.158   7.319  1.4893 -2.1521 -2.0657
30671SOL    HW293782   7.398   9.147   7.456 -0.9876  2.6845 -0.3182
30672SOL     OW93783   8.837   2.413   5.146 -0.5364  0.0785 -0.2014
30672SOL    HW193784   8.746   2.440   5.142 -1.3802 -2.1894  1.5847
30672SOL    HW293785   8.848   2.375   5.234  0.9733 -3.3456 -1.6709
30673SOL     OW93786   5.032   3.305   7.207 -0.0081  0.6796  0.1064
30673SOL    HW193787   5.049   3.219   7.169  0.7634  1.3815 -1.2036
30673SOL    HW293788   5.029   3.290   7.301  0.8610 -0.6482 -0.0593
30674SOL     OW93789   2.060   9.348   5.519 -0.0345 -0.6724 -0.2109
30674SOL    HW193790   2.049   9.293   5.441 -1.6457 -1.2509  0.3876
30674SOL    HW293791   2.071   9.285   5.590 -2.0020 -0.2862  0.4977
30675SOL     OW93792   7.602   4.208   5.387  0.1089  0.0073 -0.0254
30675SOL    HW193793   7.518   4.246   5.361  0.6560  1.6677  0.4995
30675SOL    HW293794   7.627   4.151   5.315 -0.5242  1.0503 -1.0989
30676SOL     OW93795   8.797   1.863   4.286 -0.3934  0.1216  0.1191
30676SOL    HW193796   8.887   1.832   4.287 -1.1316 -2.1607  0.2774
30676SOL    HW293797   8.781   1.894   4.375  0.6483  2.0187 -0.2910
30677SOL     OW93798   6.533   2.202   4.674  0.4624  0.1619  0.1164
30677SOL    HW193799   6.453   2.253   4.664  1.1703  1.0800 -1.0894
30677SOL    HW293800   6.570   2.233   4.756  0.1722  0.5744  0.0975
30678SOL     OW93801   6.506   9.441   7.792 -0.1820  0.5468 -0.1781
30678SOL    HW193802   6.589   9.419   7.752 -0.5419 -0.3114 -0.4608
30678SOL    HW293803   6.503   9.390   7.873 -0.7929 -0.0782 -0.5813
30679SOL     OW93804   3.004   1.107   5.049 -0.0958 -0.1249  0.4579
30679SOL    HW193805   2.968   1.188   5.012 -0.2795  0.3208  1.5622
30679SOL    HW293806   3.099   1.123   5.052 -0.1296  0.0458  0.6499
30680SOL     OW93807   2.312   7.456   5.115  0.0740 -0.4464  0.2890
30680SOL    HW193808   2.258   7.392   5.162 -2.2021  0.9648 -0.2506
30680SOL    HW293809   2.342   7.515   5.184 -0.7928 -0.0883  0.3823
30681SOL     OW93810   6.419   4.773   2.556 -0.1975 -0.4941 -0.9244
30681SOL    HW193811   6.423   4.821   2.473  2.1095  2.4004  0.6787
30681SOL    HW293812   6.506   4.735   2.566 -0.1364 -0.0324  0.5250
30682SOL     OW93813   1.069   6.270   2.973 -0.1924  0.1764  0.1451
30682SOL    HW193814   0.984   6.309   2.953 -1.1355 -1.2468  1.1075
30682SOL    HW293815   1.080   6.284   3.067  0.1227 -0.5381  0.2238
30683SOL     OW93816   4.766   1.630   6.290 -0.0853 -0.0845 -0.2605
30683SOL    HW193817   4.678   1.638   6.254 -0.1583  1.9884  0.2998
30683SOL    HW293818   4.824   1.653   6.217 -0.2210  3.6387  0.6302
30684SOL     OW93819   4.633   9.160   3.429 -0.3660 -0.0593 -0.3857
30684SOL    HW193820   4.653   9.066   3.430  0.4563  0.0939 -1.0221
30684SOL    HW293821   4.539   9.164   3.446 -0.2460 -0.9364  0.6624
30685SOL     OW93822   8.714   5.827   9.784 -0.0524 -0.1569 -0.5927
30685SOL    HW193823   8.795   5.875   9.770  1.3149 -1.8294  1.0304
30685SOL    HW293824   8.723   5.789   9.872 -2.0776 -1.3568 -0.8250
30686SOL     OW93825   1.882   0.285   5.684  0.3345  0.6208  0.3438
30686SOL    HW193826   1.960   0.339   5.678  1.8940 -1.5091  0.2212
30686SOL    HW293827   1.903   0.206   5.633 -2.7393  0.8673 -1.5528
30687SOL     OW93828   5.112   6.147   8.834 -0.0089  0.4299  0.7131
30687SOL    HW193829   5.019   6.157   8.818 -0.0464  1.3024  1.4078
30687SOL    HW293830   5.117   6.119   8.926  0.4087  0.3200  0.6586
30688SOL     OW93831   5.925   8.885   3.159  0.2884 -0.0633  0.6736
30688SOL    HW193832   5.933   8.842   3.073  0.4412  1.8128 -0.2938
30688SOL    HW293833   5.946   8.816   3.222  0.9291 -1.2965 -0.8282
30689SOL     OW93834   9.098   5.098   0.664 -0.6308 -0.2392 -0.6004
30689SOL    HW193835   9.103   5.126   0.573  2.7741 -0.8642 -0.7366
30689SOL    HW293836   9.127   5.175   0.714 -3.5089  0.4810  0.1957
30690SOL     OW93837   9.647   5.204   1.716 -0.1136  0.0649 -0.2648
30690SOL    HW193838   9.581   5.172   1.777 -0.9783 -2.0904 -2.1911
30690SOL    HW293839   9.668   5.129   1.661  2.3050  1.2998 -1.1872
30691SOL     OW93840   8.440   0.782   8.205 -0.4189 -0.0039  0.3579
30691SOL    HW193841   8.517   0.806   8.255 -0.1766  3.4278 -1.4051
30691SOL    HW293842   8.474   0.752   8.121 -0.9754 -1.2880  0.5559
30692SOL     OW93843   2.281   5.378   5.052 -0.4753  0.0489 -0.3840
30692SOL    HW193844   2.193   5.361   5.019  0.0433 -1.5943 -1.0590
30692SOL    HW293845   2.296   5.311   5.118 -0.2219  1.1855  0.7472
30693SOL     OW93846   4.701   8.249   0.270  0.1092 -0.2708  0.0237
30693SOL    HW193847   4.744   8.335   0.277 -1.8532  0.8920 -1.0366
30693SOL    HW293848   4.638   8.248   0.343 -0.3130 -0.5090 -0.3383
30694SOL     OW93849   5.318   0.356   1.554 -0.2407 -0.4045  0.0584
30694SOL    HW193850   5.237   0.320   1.588  0.1456 -0.8941  0.4794
30694SOL    HW293851   5.381   0.345   1.625  0.3494 -0.5844 -0.4796
30695SOL     OW93852   5.856   2.032   0.371  0.5117 -0.5401 -0.2341
30695SOL    HW193853   5.909   1.954   0.353 -0.6843 -1.1610 -1.1852
30695SOL    HW293854   5.835   2.067   0.284 -0.6774 -0.3311  0.1259
30696SOL     OW93855   6.943   5.086   5.718 -0.3572  0.3318 -0.0087
30696SOL    HW193856   6.957   5.027   5.644 -0.7164  0.3311 -0.0776
30696SOL    HW293857   6.865   5.136   5.694  1.1999  2.4130 -0.9522
30697SOL     OW93858   1.946   7.400   2.466  0.0246 -0.6098 -0.6056
30697SOL    HW193859   1.875   7.382   2.405 -0.3252  0.3174 -0.4805
30697SOL    HW293860   1.927   7.345   2.543 -1.3648  0.6837  0.0270
30698SOL     OW93861   2.815   4.236   2.184  0.0212 -0.1204  0.1058
30698SOL    HW193862   2.892   4.291   2.196 -1.3635  1.6736  1.2852
30698SOL    HW293863   2.844   4.168   2.124  2.8593 -0.2436  1.4335
30699SOL     OW93864   4.431   4.574   6.786 -0.3659  0.1830 -0.5711
30699SOL    HW193865   4.413   4.573   6.880  1.0446  0.8015 -0.2632
30699SOL    HW293866   4.396   4.659   6.756  0.7851  0.8013 -0.2285
30700SOL     OW93867   8.280   4.878   1.643 -0.7390 -0.1449 -0.4264
30700SOL    HW193868   8.213   4.883   1.575 -0.2297  0.1916 -0.9138
30700SOL    HW293869   8.287   4.784   1.664 -1.1953 -0.2017 -0.5367
30701SOL     OW93870   7.770   2.606   3.582 -0.3321  0.2014  0.4454
30701SOL    HW193871   7.732   2.682   3.626 -0.5130  0.9185 -0.8890
30701SOL    HW293872   7.708   2.535   3.600 -0.8003  0.6633  0.7036
30702SOL     OW93873   0.937   7.909   5.877  0.1830  0.0165 -0.0161
30702SOL    HW193874   0.962   7.887   5.966  1.1468  0.6221 -0.1224
30702SOL    HW293875   0.994   7.982   5.854  0.7437 -0.8634 -1.5372
30703SOL     OW93876   6.051   8.518   0.535  0.1187 -0.2251  0.1756
30703SOL    HW193877   6.138   8.478   0.530  0.4972  0.4692  0.9069
30703SOL    HW293878   6.069   8.612   0.539 -0.6429 -0.1001  0.8219
30704SOL     OW93879   4.825   3.056   4.413  0.5778  0.3943 -0.2058
30704SOL    HW193880   4.869   2.992   4.357  1.1019 -2.1507  2.8086
30704SOL    HW293881   4.732   3.041   4.397  0.6396  2.0184 -2.6397
30705SOL     OW93882   2.650   5.771   2.185  0.1658  0.3289  0.1346
30705SOL    HW193883   2.584   5.734   2.127 -1.6564 -0.1650  2.3720
30705SOL    HW293884   2.641   5.721   2.267  0.1676  3.1872  2.0402
30706SOL     OW93885   7.752   5.167   1.590  0.1917  0.3518  0.3624
30706SOL    HW193886   7.698   5.158   1.511  0.1791  1.2048  0.2666
30706SOL    HW293887   7.839   5.189   1.557  0.4368 -0.3186  0.5488
30707SOL     OW93888   5.898   8.019   9.634 -0.4144  0.2172  0.3270
30707SOL    HW193889   5.993   8.017   9.646 -0.1248  0.7840 -1.5102
30707SOL    HW293890   5.867   7.937   9.672  0.7786  0.1179  1.1467
30708SOL     OW93891   3.614   1.425   1.433  0.2197 -0.0847 -0.0321
30708SOL    HW193892   3.628   1.469   1.350  2.6364 -1.1949 -0.2999
30708SOL    HW293893   3.548   1.358   1.415 -0.3919  0.6628 -0.6344
30709SOL     OW93894   4.187   9.585   3.564  0.2499  0.4105  0.3106
30709SOL    HW193895   4.168   9.596   3.657  1.0493  1.9117  0.3303
30709SOL    HW293896   4.250   9.654   3.544  1.8190 -1.2525 -0.8390
30710SOL     OW93897   4.557   6.841   7.659  0.6505  0.2514  0.4292
30710SOL    HW193898   4.489   6.892   7.702  0.4111  1.9278 -1.8030
30710SOL    HW293899   4.635   6.896   7.664  0.5404  0.6388 -1.4645
30711SOL     OW93900   4.582   6.914   8.565 -0.1617 -0.3204 -0.0535
30711SOL    HW193901   4.558   6.827   8.533 -2.6447  0.4039 -0.3626
30711SOL    HW293902   4.625   6.956   8.490  0.3996 -1.0177 -0.1314
30712SOL     OW93903   8.208   9.835   3.107  0.2223 -0.5332  0.1559
30712SOL    HW193904   8.185   9.788   3.026  2.3328 -1.4321  0.0329
30712SOL    HW293905   8.178   9.778   3.177  0.4242 -0.8325  0.0010
30713SOL     OW93906   8.314   0.899   1.495 -0.7864  0.0140  0.4924
30713SOL    HW193907   8.348   0.980   1.458  0.5596 -1.3784 -1.5075
30713SOL    HW293908   8.219   0.908   1.488 -0.6480  0.1833 -2.7963
30714SOL     OW93909   0.560   1.983   3.970 -0.0100 -0.3924 -0.0183
30714SOL    HW193910   0.540   1.985   3.876  2.1948 -0.9695 -0.5431
30714SOL    HW293911   0.643   1.937   3.977 -0.5110 -1.0868  2.3279
30715SOL     OW93912   0.817   3.990   1.014 -0.0738 -0.0112  0.7701
30715SOL    HW193913   0.873   4.028   1.082 -0.6561  0.1865  1.1466
30715SOL    HW293914   0.729   3.992   1.052 -0.7299  1.8464 -0.6904
30716SOL     OW93915   9.732   0.750   6.056  0.0469 -0.1900  0.3336
30716SOL    HW193916   9.821   0.738   6.089  0.4654  1.7384 -0.0020
30716SOL    HW293917   9.737   0.725   5.963  0.6249  1.3423 -0.0698
30717SOL     OW93918   8.705   4.063   3.456 -0.1502  0.0649  0.6210
30717SOL    HW193919   8.696   4.154   3.485  2.4315  0.1234  1.5081
30717SOL    HW293920   8.751   4.019   3.528 -1.3138 -1.9688  0.2035
30718SOL     OW93921   0.660   0.291   0.119 -0.2921  0.1515  0.6692
30718SOL    HW193922   0.647   0.197   0.112  0.5262  0.0384  0.6753
30718SOL    HW293923   0.742   0.301   0.167 -0.2662  0.8642  0.4846
30719SOL     OW93924   8.018   3.498   4.504 -0.1762  0.2592 -0.2369
30719SOL    HW193925   8.096   3.534   4.546 -0.3363  0.0695  0.2296
30719SOL    HW293926   8.051   3.433   4.443  0.1131  1.1331 -1.0348
30720SOL     OW93927   0.267   1.018   5.779 -0.5513  1.0090 -0.2988
30720SOL    HW193928   0.186   0.974   5.752 -1.1942  2.3111 -0.5428
30720SOL    HW293929   0.239   1.085   5.840  0.5679  0.2376  1.1257
30721SOL     OW93930   3.173   5.799   1.300  0.3598  0.3618 -0.5929
30721SOL    HW193931   3.227   5.780   1.223  1.1270 -1.1264  0.2724
30721SOL    HW293932   3.235   5.834   1.364  0.3767 -1.4459  0.4437
30722SOL     OW93933   2.927   3.208   7.048 -0.0201 -0.2717  0.3227
30722SOL    HW193934   2.988   3.259   7.101  0.8057  1.9157 -2.5020
30722SOL    HW293935   2.851   3.266   7.038 -0.9987 -1.4546  0.7213
30723SOL     OW93936   6.795   4.231   3.972 -0.3718  0.3797  0.2094
30723SOL    HW193937   6.821   4.154   3.922 -0.9832  0.9406 -1.0226
30723SOL    HW293938   6.877   4.272   3.998 -0.0307 -0.8656  1.2110
30724SOL     OW93939   6.625   0.421   3.167  0.8353 -0.1764  0.1075
30724SOL    HW193940   6.619   0.325   3.172  1.7364 -0.2104  0.9602
30724SOL    HW293941   6.558   0.446   3.104  0.3212 -1.3430  0.1596
30725SOL     OW93942   7.606   9.105   3.503 -0.3924  0.1783  0.0463
30725SOL    HW193943   7.585   9.197   3.485  0.4928  0.3872  0.0381
30725SOL    HW293944   7.549   9.081   3.575 -1.0501  0.5618 -0.3398
30726SOL     OW93945   1.136   0.405   7.075  0.0758  0.0551 -0.5009
30726SOL    HW193946   1.176   0.492   7.073  0.5174 -0.1027  0.8292
30726SOL    HW293947   1.192   0.351   7.019  1.1378  0.0885  0.5072
30727SOL     OW93948   8.489   3.388   7.594 -0.3002 -0.0589  0.6872
30727SOL    HW193949   8.404   3.399   7.552 -1.0462 -0.1307  2.1075
30727SOL    HW293950   8.534   3.472   7.581 -0.6103  0.0059  0.0000
30728SOL     OW93951   4.182   8.895   4.589 -0.4359 -0.0077 -0.2113
30728SOL    HW193952   4.216   8.849   4.666 -1.6500 -0.3782  0.1169
30728SOL    HW293953   4.107   8.945   4.621 -1.7075 -1.1010 -1.3504
30729SOL     OW93954   7.079   2.410   8.893 -0.2101  0.6083  0.0340
30729SOL    HW193955   7.086   2.479   8.959  0.4299  0.4392  0.1456
30729SOL    HW293956   7.015   2.349   8.928 -0.0777  0.6607  0.3682
30730SOL     OW93957   5.455   1.957   2.756 -0.0145 -0.1847  0.3822
30730SOL    HW193958   5.473   1.993   2.669 -0.1620 -1.4215 -0.1855
30730SOL    HW293959   5.396   2.020   2.796 -0.1850  0.2566 -0.5371
30731SOL     OW93960   8.740   6.764   8.753  0.5407 -0.2567  0.0502
30731SOL    HW193961   8.735   6.781   8.847 -0.9108  0.2403 -0.0868
30731SOL    HW293962   8.804   6.694   8.744 -0.0965 -1.0627  1.5178
30732SOL     OW93963   9.253   9.442   0.009  0.5364 -0.0429  0.2867
30732SOL    HW193964   9.257   9.424  -0.085 -0.6241 -0.4648  0.3095
30732SOL    HW293965   9.249   9.537   0.015  0.0417 -0.0338 -0.1252
30733SOL     OW93966   1.590   9.150   7.782  0.4437  0.4367 -0.0924
30733SOL    HW193967   1.592   9.106   7.867 -0.4610  1.1011  0.2949
30733SOL    HW293968   1.554   9.084   7.721  1.0574 -0.0273  0.0415
30734SOL     OW93969   6.660   5.530   6.675  0.7622 -0.0495 -0.0239
30734SOL    HW193970   6.593   5.591   6.705 -0.9124 -0.8948 -1.8106
30734SOL    HW293971   6.736   5.549   6.730 -0.9589  0.8435  2.2202
30735SOL     OW93972   5.738   8.993   6.207  0.0577 -0.2696  0.3397
30735SOL    HW193973   5.768   9.067   6.154  0.7674  0.4852  1.7373
30735SOL    HW293974   5.644   9.006   6.217 -0.1953 -0.7238 -1.1387
30736SOL     OW93975   1.797   0.415   8.149 -0.0773 -0.1253 -0.2207
30736SOL    HW193976   1.834   0.475   8.085  1.1964 -1.9700 -1.3146
30736SOL    HW293977   1.776   0.336   8.099  0.5089 -1.4511  1.5231
30737SOL     OW93978   6.671   5.836   3.687  0.0446  0.0180 -0.3325
30737SOL    HW193979   6.653   5.743   3.672 -3.4933  0.5591 -0.4143
30737SOL    HW293980   6.737   5.859   3.622  1.2945 -2.4518 -0.0632
30738SOL     OW93981   8.462   8.329   5.174  0.6831  0.4210 -0.0426
30738SOL    HW193982   8.533   8.333   5.238  1.3181 -2.3122 -0.4551
30738SOL    HW293983   8.395   8.275   5.216 -0.2433  1.1856 -0.4994
30739SOL     OW93984   2.011   5.615   5.084  0.0946 -0.4569 -0.0848
30739SOL    HW193985   2.081   5.608   5.149 -0.1065  1.0085  0.3311
30739SOL    HW293986   2.052   5.661   5.011 -0.6043  1.1707  0.4950
30740SOL     OW93987   1.370   0.850   1.060 -0.6246 -0.1040 -0.0521
30740SOL    HW193988   1.448   0.905   1.066 -1.0023  0.6576 -1.6167
30740SOL    HW293989   1.360   0.833   0.966 -2.8669  0.6145 -0.0102
30741SOL     OW93990   5.075   4.738   5.090  0.1677  0.0859 -0.0204
30741SOL    HW193991   5.139   4.801   5.125 -1.0172  0.4602  1.6303
30741SOL    HW293992   5.017   4.791   5.036 -1.4459  0.7256  2.1861
30742SOL     OW93993   2.496   0.086   3.539 -0.4210  0.4674  0.0669
30742SOL    HW193994   2.551   0.016   3.504 -1.7752  0.0919 -1.4221
30742SOL    HW293995   2.478   0.059   3.629  2.0648  0.7900  0.7333
30743SOL     OW93996   5.277   8.315   5.651  0.0068  0.0164 -0.6872
30743SOL    HW193997   5.296   8.337   5.742  1.0709 -2.2651 -0.2718
30743SOL    HW293998   5.316   8.385   5.599  3.0005 -0.6567  0.4846
30744SOL     OW93999   3.659   1.154   0.984 -0.2144 -0.1484 -0.4023
30744SOL    HW194000   3.664   1.151   0.889  0.7885 -1.2166 -0.3407
30744SOL    HW294001   3.573   1.192   1.002  0.1252  1.3585 -1.7090
30745SOL     OW94002   0.292   7.065   1.975 -0.1840  0.0703 -0.1690
30745SOL    HW194003   0.287   6.973   2.000 -0.1537  0.2701  0.6064
30745SOL    HW294004   0.204   7.099   1.991 -0.4149 -0.0108 -1.2362
30746SOL     OW94005   7.877   2.051   3.930 -0.4639 -0.0438  0.2275
30746SOL    HW194006   7.844   2.127   3.976 -1.1816  0.0917 -0.5004
30746SOL    HW294007   7.817   1.980   3.954 -0.9364  0.0639 -0.6145
30747SOL     OW94008   1.212   2.395   8.924 -0.0343  0.4352  0.6059
30747SOL    HW194009   1.133   2.395   8.869 -1.2422  1.2957  2.2395
30747SOL    HW294010   1.269   2.461   8.883  0.8912 -1.7400 -1.8884
30748SOL     OW94011   0.282   8.444   8.947 -0.0563  0.1533  0.3953
30748SOL    HW194012   0.253   8.466   8.858 -0.9630 -2.5424 -0.0728
30748SOL    HW294013   0.240   8.509   9.003 -2.7967 -0.4662 -0.8086
30749SOL     OW94014   1.083   0.427   5.359 -0.4827  0.2719  0.6115
30749SOL    HW194015   1.141   0.391   5.426 -0.6163 -2.6774 -0.6839
30749SOL    HW294016   0.996   0.395   5.384 -0.6877  0.0281 -0.3611
30750SOL     OW94017   5.751   2.640   9.027  0.4156 -0.1332 -0.2786
30750SOL    HW194018   5.678   2.630   8.966  0.3233 -1.7431  0.0511
30750SOL    HW294019   5.784   2.551   9.040  2.3176  0.5129 -0.2532
30751SOL     OW94020   0.958   4.696   3.556 -0.5227  0.0014 -0.5093
30751SOL    HW194021   0.984   4.787   3.541 -2.7919  0.8079  0.0862
30751SOL    HW294022   0.928   4.665   3.470  0.8879 -0.4500 -0.8658
30752SOL     OW94023   4.926   0.948   0.777 -0.6568 -0.2190 -0.3628
30752SOL    HW194024   4.912   0.937   0.871  0.2153  1.2597 -0.0310
30752SOL    HW294025   5.010   0.993   0.770 -1.1107  0.4831 -1.8156
30753SOL     OW94026   1.901   5.290   6.099 -0.4410  0.5134  0.7056
30753SOL    HW194027   1.870   5.380   6.111  2.2582  1.6510 -0.3099
30753SOL    HW294028   1.965   5.277   6.169  0.9353  0.2628 -0.5579
30754SOL     OW94029   5.547   6.796   0.495  0.8024 -0.2296 -0.7373
30754SOL    HW194030   5.601   6.871   0.519  2.8971 -1.6254 -0.8123
30754SOL    HW294031   5.610   6.730   0.463 -0.9220 -2.0702 -0.5488
30755SOL     OW94032   2.095   6.578   9.295 -0.4253 -0.1674  0.1619
30755SOL    HW194033   2.130   6.581   9.206  0.4126  0.1394  0.4881
30755SOL    HW294034   2.088   6.669   9.322 -0.6710 -0.2591  0.4133
30756SOL     OW94035   5.674   8.379   9.420  0.7178 -0.1763  0.3537
30756SOL    HW194036   5.753   8.423   9.389 -0.3194  1.4756 -0.0854
30756SOL    HW294037   5.610   8.450   9.430 -1.6302 -1.7604 -2.1305
30757SOL     OW94038   4.861   7.392   5.789  0.4594  0.0792 -0.2227
30757SOL    HW194039   4.773   7.378   5.823  0.2673  0.5116 -0.5406
30757SOL    HW294040   4.876   7.317   5.731  1.3027 -1.4102  1.7758
30758SOL     OW94041   4.861   0.268   4.518  0.0420 -0.8382 -0.3320
30758SOL    HW194042   4.891   0.236   4.603 -0.5227  0.0746  0.2319
30758SOL    HW294043   4.791   0.330   4.539 -1.2669 -1.8581 -1.5514
30759SOL     OW94044   7.070   7.017   4.008 -0.6810  0.0215  0.0497
30759SOL    HW194045   7.014   7.079   4.054 -0.2333 -0.7891  1.7420
30759SOL    HW294046   7.008   6.961   3.960 -1.2798 -0.2686  1.1350
30760SOL     OW94047   8.231   0.076   4.167  0.0938  0.5353  0.4514
30760SOL    HW194048   8.291   0.016   4.122  0.0905 -0.2123  1.3970
30760SOL    HW294049   8.154   0.079   4.111  0.7870  1.0913 -0.5126
30761SOL     OW94050   4.489   5.465   3.522  0.0286  0.4862 -0.2275
30761SOL    HW194051   4.546   5.523   3.573 -1.2879  0.4427  1.3553
30761SOL    HW294052   4.448   5.523   3.458  0.4838  0.8411 -0.2087
30762SOL     OW94053   0.349   0.558   4.259 -0.1193 -0.3220 -0.2439
30762SOL    HW194054   0.291   0.506   4.204  1.0834 -1.4227 -0.5399
30762SOL    HW294055   0.427   0.571   4.205  0.8818 -0.9995  0.9943
30763SOL     OW94056   5.712   5.229   1.515 -0.2837  0.1672 -0.1557
30763SOL    HW194057   5.707   5.174   1.593 -0.0726 -2.9878 -2.1860
30763SOL    HW294058   5.806   5.245   1.502 -0.1632 -0.9331 -0.7513
30764SOL     OW94059   0.025   0.953   5.635 -0.4079 -0.3399 -0.2322
30764SOL    HW194060   0.050   0.966   5.543  0.7697 -0.3372  0.0621
30764SOL    HW294061  -0.063   0.916   5.632 -0.6693  0.3350 -1.3394
30765SOL     OW94062   6.880   7.999   9.756 -0.2772  0.0962 -0.4544
30765SOL    HW194063   6.944   8.007   9.685 -0.4946  0.4365 -0.6141
30765SOL    HW294064   6.826   8.078   9.749  0.0346  0.4006  0.4248
30766SOL     OW94065   8.823   7.272   2.090  0.4714  0.4639  0.1593
30766SOL    HW194066   8.837   7.179   2.109  3.5235  1.1545  2.0061
30766SOL    HW294067   8.872   7.287   2.009 -0.8342  0.3534 -0.6927
30767SOL     OW94068   9.366   1.348   5.270 -0.6050  0.3302  0.0365
30767SOL    HW194069   9.378   1.380   5.180  1.0930 -1.0113 -0.2726
30767SOL    HW294070   9.327   1.262   5.260 -0.8966  0.3870  0.6267
30768SOL     OW94071   1.281   8.482   4.664  0.1360 -0.0069 -0.1360
30768SOL    HW194072   1.205   8.487   4.722  0.2524  1.0892 -0.0619
30768SOL    HW294073   1.340   8.420   4.708  0.2150  0.7929  0.9189
30769SOL     OW94074   3.307   5.476   1.390  0.1087  0.0321  0.9034
30769SOL    HW194075   3.281   5.560   1.351  0.1614  0.8677  2.5790
30769SOL    HW294076   3.234   5.417   1.369 -0.0683  0.5728 -0.0495
30770SOL     OW94077   2.336   9.437   7.139  0.0499  0.2942  0.2572
30770SOL    HW194078   2.322   9.382   7.062  0.6276 -0.6777  0.8259
30770SOL    HW294079   2.341   9.526   7.104  1.4078 -0.2200 -0.9819
30771SOL     OW94080   8.601   4.305   8.576  0.4824  0.5681  0.1232
30771SOL    HW194081   8.624   4.212   8.577  0.0746  0.4349  2.5029
30771SOL    HW294082   8.622   4.336   8.664  0.1226  2.6205 -0.4611
30772SOL     OW94083   0.475   2.904   0.549  0.2008 -0.0221  0.4460
30772SOL    HW194084   0.410   2.918   0.617 -0.4177  1.7419 -0.4436
30772SOL    HW294085   0.551   2.956   0.576 -0.8353  2.5144 -1.1861
30773SOL     OW94086   0.202   5.538   8.245  0.2889 -0.5921 -0.2297
30773SOL    HW194087   0.247   5.607   8.196 -0.3483  1.2599  1.6497
30773SOL    HW294088   0.122   5.521   8.194  1.0196 -0.8364 -1.3300
30774SOL     OW94089   0.687   6.086   8.293 -0.2497 -0.6256 -0.3314
30774SOL    HW194090   0.647   6.089   8.380  2.3297 -0.8102  0.9488
30774SOL    HW294091   0.613   6.085   8.233 -2.1908  2.7957  1.6882
30775SOL     OW94092   7.936   2.776   3.867  0.3832 -0.1680 -0.0814
30775SOL    HW194093   8.028   2.797   3.883  0.1408  0.8834 -0.0066
30775SOL    HW294094   7.922   2.694   3.913  1.5758 -0.9537 -1.0398
30776SOL     OW94095   2.031   3.537   9.770 -0.7744  0.2229 -0.4800
30776SOL    HW194096   2.044   3.493   9.686 -0.7906  1.6640 -1.2730
30776SOL    HW294097   2.004   3.467   9.829  0.3023 -1.0165 -1.3865
30777SOL     OW94098   1.595   1.890   0.110  0.7343 -0.4370  0.2095
30777SOL    HW194099   1.666   1.886   0.045  1.1776  2.5579  0.3868
30777SOL    HW294100   1.595   1.803   0.150  3.4672 -0.9451 -0.6761
30778SOL     OW94101   9.051   7.533   5.707  0.5665 -0.6909  0.2487
30778SOL    HW194102   8.977   7.575   5.751  0.4974 -0.6898  0.1321
30778SOL    HW294103   9.011   7.483   5.636  0.8780  1.4430 -1.5193
30779SOL     OW94104   2.289   9.253   0.925  0.4896 -0.2317  0.2743
30779SOL    HW194105   2.301   9.337   0.881 -0.8068 -0.2758 -0.2168
30779SOL    HW294106   2.210   9.265   0.979  0.1995 -1.1725  0.0872
30780SOL     OW94107   5.458   0.452   5.149  0.3376  0.3368 -0.3127
30780SOL    HW194108   5.389   0.435   5.214 -0.2005  0.8831 -0.7384
30780SOL    HW294109   5.459   0.373   5.094 -0.4410  0.6135 -0.7405
30781SOL     OW94110   8.064   2.848   5.879 -0.6187  0.4900  0.1001
30781SOL    HW194111   8.001   2.811   5.940 -0.5029 -1.6818 -1.0236
30781SOL    HW294112   8.015   2.862   5.798 -0.1177  0.6928 -0.1792
30782SOL     OW94113   3.036   7.326   6.687  0.0411  0.1756  0.2982
30782SOL    HW194114   3.021   7.419   6.705  2.9565  0.9267 -0.6340
30782SOL    HW294115   3.070   7.290   6.768  0.4268  0.3127  0.1979
30783SOL     OW94116   2.837   4.833   2.740  0.1541  0.3671  0.0764
30783SOL    HW194117   2.768   4.848   2.805  0.9618  0.2583  0.9795
30783SOL    HW294118   2.857   4.921   2.707 -0.4275  0.3963 -0.2142
30784SOL     OW94119   0.545   8.111   6.317 -0.2174  0.5868  0.6472
30784SOL    HW194120   0.554   8.098   6.411 -1.8725 -2.2362  0.5217
30784SOL    HW294121   0.450   8.119   6.304 -0.2152 -1.3980 -0.9665
30785SOL     OW94122   6.032   1.383   8.016  0.3380  0.4736  0.8306
30785SOL    HW194123   5.978   1.454   8.052  1.0499  0.4762  1.9420
30785SOL    HW294124   5.976   1.306   8.019 -0.2401  0.8599  0.1823
30786SOL     OW94125   6.682   4.317   5.187  0.2560  0.6472 -0.1285
30786SOL    HW194126   6.691   4.260   5.110 -0.6990  1.8039 -1.1501
30786SOL    HW294127   6.613   4.275   5.239  1.5969 -0.6849  0.6523
30787SOL     OW94128   3.310   3.277   4.138 -0.3272  0.1993 -0.1760
30787SOL    HW194129   3.219   3.302   4.155 -0.2853  0.3395 -0.1535
30787SOL    HW294130   3.329   3.317   4.053 -1.3015 -2.4835 -1.7795
30788SOL     OW94131   6.358   5.511   6.062 -0.6124 -0.2485 -0.0725
30788SOL    HW194132   6.418   5.511   5.987 -0.8934 -1.7840 -0.3446
30788SOL    HW294133   6.393   5.577   6.122  0.9736 -0.6467 -0.5186
30789SOL     OW94134   8.666   7.203   4.746 -0.3243  0.4875 -0.1089
30789SOL    HW194135   8.732   7.137   4.765  1.0153  1.5804 -0.8075
30789SOL    HW294136   8.606   7.198   4.820 -0.2481 -1.4572 -0.1235
30790SOL     OW94137   1.932   1.284   3.793 -0.1157 -0.0497  0.4673
30790SOL    HW194138   1.907   1.365   3.838  2.2947  0.0973  1.7275
30790SOL    HW294139   1.967   1.313   3.709  0.8167  0.2673  0.9466
30791SOL     OW94140   4.322   4.256   8.127  0.5616  0.2548 -0.7072
30791SOL    HW194141   4.282   4.325   8.073 -0.3413  0.1920 -0.1414
30791SOL    HW294142   4.402   4.296   8.161 -0.1568  1.1871 -0.0572
30792SOL     OW94143   0.640   2.255   3.545 -0.4064  0.3290  0.0654
30792SOL    HW194144   0.726   2.221   3.573 -0.3208  0.7213  0.2956
30792SOL    HW294145   0.596   2.180   3.506  0.8216  0.5657 -1.9404
30793SOL     OW94146   3.659   6.970   3.958 -0.3977  0.6549  0.2083
30793SOL    HW194147   3.709   6.921   4.023 -0.9636  1.3438  1.1931
30793SOL    HW294148   3.704   7.054   3.951  0.1340  0.2904 -0.9146
30794SOL     OW94149   1.028   5.143   6.177 -0.9383  0.8638  0.2118
30794SOL    HW194150   0.952   5.091   6.202  0.3163 -0.6995  0.9387
30794SOL    HW294151   1.011   5.230   6.213 -2.2927  0.5014  0.4989
30795SOL     OW94152   8.011   7.724   5.560 -0.4424  0.2074  0.2526
30795SOL    HW194153   7.922   7.759   5.569 -0.5669  0.8056 -2.4517
30795SOL    HW294154   8.003   7.653   5.497  0.7884 -0.7620  1.1321
30796SOL     OW94155   1.003   0.650   2.265 -0.2292 -0.3715 -0.3306
30796SOL    HW194156   0.948   0.651   2.343 -2.0037  0.8267 -1.5173
30796SOL    HW294157   1.021   0.742   2.247  3.6676 -0.7262  0.9182
30797SOL     OW94158   8.408   9.484   0.224  0.4373 -0.3231  0.4204
30797SOL    HW194159   8.453   9.561   0.259  1.1279  0.0593 -1.1900
30797SOL    HW294160   8.322   9.486   0.265  0.8332  0.6621  1.2592
30798SOL     OW94161   6.628   8.737   1.136  0.2226 -0.4229 -0.1860
30798SOL    HW194162   6.587   8.744   1.050 -2.5339 -1.8444  0.8884
30798SOL    HW294163   6.606   8.649   1.167  0.5611  0.2573  2.2278
30799SOL     OW94164   8.959   8.933   5.190  0.0347  0.4039  0.0422
30799SOL    HW194165   9.012   8.876   5.133  0.9146  1.0414  0.1860
30799SOL    HW294166   8.985   8.908   5.279  3.1589  3.3099  0.1596
30800SOL     OW94167   4.290   6.706   1.318  0.6806 -0.3703 -0.2457
30800SOL    HW194168   4.200   6.735   1.331  0.7866 -1.1128  2.8227
30800SOL    HW294169   4.343   6.784   1.331  0.5685  0.0979 -2.1887
30801SOL     OW94170   8.320   3.296   9.689 -0.8706  0.2709 -0.3386
30801SOL    HW194171   8.345   3.375   9.640 -0.8966 -0.4644 -1.5759
30801SOL    HW294172   8.273   3.243   9.625  1.3122 -1.8740 -0.2919
30802SOL     OW94173   4.121   2.475   3.571  0.2562 -0.1619 -0.7047
30802SOL    HW194174   4.206   2.506   3.541 -0.2246  1.9980 -0.0587
30802SOL    HW294175   4.118   2.499   3.664 -0.7142 -0.9902 -0.5029
30803SOL     OW94176   0.798   4.532   4.039 -0.0118  0.1845  0.0357
30803SOL    HW194177   0.794   4.524   3.944 -1.7458  1.0041 -0.0042
30803SOL    HW294178   0.779   4.444   4.071 -2.4904  0.4679 -0.4234
30804SOL     OW94179   2.146   3.810   3.018 -0.1706  0.3435  0.7218
30804SOL    HW194180   2.225   3.833   3.066  0.6939  1.6415 -1.1775
30804SOL    HW294181   2.146   3.868   2.942 -2.4775 -0.2569  0.1667
30805SOL     OW94182   6.349   0.669   6.756 -0.4593 -0.0422  0.0246
30805SOL    HW194183   6.329   0.594   6.700  0.8425  0.0434 -0.5672
30805SOL    HW294184   6.397   0.631   6.830 -0.9723  0.0393  0.4102
30806SOL     OW94185   6.319   0.412   6.650 -0.3170 -0.4960 -0.6486
30806SOL    HW194186   6.239   0.360   6.643 -0.5043 -1.1858  3.7000
30806SOL    HW294187   6.385   0.351   6.683  0.8606  0.9074 -0.2875
30807SOL     OW94188   8.223   3.279   6.573  0.0132  0.2462  0.2004
30807SOL    HW194189   8.239   3.353   6.631  0.8264 -0.6527  1.1874
30807SOL    HW294190   8.256   3.307   6.487  0.4381  0.9685  0.5940
30808SOL     OW94191   5.347   1.119   6.254 -0.5199  0.5051 -0.0730
30808SOL    HW194192   5.355   1.028   6.282 -1.1617  0.4128 -0.1649
30808SOL    HW294193   5.436   1.153   6.254 -0.3237 -0.0020  0.3755
30809SOL     OW94194   9.088   1.242   8.441 -0.0980 -0.0605  0.5542
30809SOL    HW194195   9.114   1.327   8.478  0.2836 -0.7443  1.9232
30809SOL    HW294196   9.108   1.250   8.348 -0.1233  1.3719  0.6438
30810SOL     OW94197   4.313   0.071   7.070 -0.1506 -0.0534 -0.1909
30810SOL    HW194198   4.218   0.077   7.073 -0.2097 -1.0739  0.3365
30810SOL    HW294199   4.339   0.052   7.161  0.5187 -0.2086 -0.4055
30811SOL     OW94200   6.535   8.051   4.435  0.2839  0.3176  0.4804
30811SOL    HW194201   6.555   7.985   4.501 -0.4722 -1.2407 -0.7746
30811SOL    HW294202   6.525   8.132   4.484 -0.2566 -0.7783  2.2732
30812SOL     OW94203   7.093   7.038   2.226 -0.0605  0.0673  0.5745
30812SOL    HW194204   7.144   6.975   2.276  1.0770  1.9152  1.8385
30812SOL    HW294205   7.120   7.024   2.135 -2.6721 -3.8101  0.1250
30813SOL     OW94206   1.885   7.262   4.593 -0.9764 -0.2206  0.4979
30813SOL    HW194207   1.950   7.192   4.583  0.7352  1.4987 -1.2106
30813SOL    HW294208   1.904   7.301   4.678 -0.4326 -0.3586  0.4405
30814SOL     OW94209   2.141   0.292   0.188  0.7002 -0.2635 -0.2761
30814SOL    HW194210   2.129   0.200   0.213  0.2158  0.1488  1.1189
30814SOL    HW294211   2.171   0.335   0.268 -2.0948  1.3581  0.0451
30815SOL     OW94212   9.199   6.055   7.022  0.2159  1.1294  0.0565
30815SOL    HW194213   9.220   6.138   6.979 -0.7894  1.6177  0.4827
30815SOL    HW294214   9.270   6.043   7.085  1.1691  0.9050 -1.0246
30816SOL     OW94215   5.461   3.250   4.322 -0.3589 -0.0816  0.2889
30816SOL    HW194216   5.548   3.290   4.322 -0.8734  1.1768  2.3755
30816SOL    HW294217   5.478   3.156   4.333  0.7729 -0.1417 -1.6181
30817SOL     OW94218   9.849   3.331   1.907 -0.0516 -0.0513 -0.1871
30817SOL    HW194219   9.833   3.426   1.911  0.6264  0.0142  2.1208
30817SOL    HW294220   9.767   3.292   1.938  0.7354 -0.0411  2.1182
30818SOL     OW94221   9.124   3.080   2.101  0.4615  0.3531  0.0961
30818SOL    HW194222   9.149   3.160   2.057  4.3491 -0.3821  0.6012
30818SOL    HW294223   9.175   3.011   2.058  0.4602 -1.1748  2.3354
30819SOL     OW94224   2.989   6.089   8.586 -0.2195  0.0591  0.1303
30819SOL    HW194225   2.929   6.045   8.646  1.2885  1.5529  2.9446
30819SOL    HW294226   3.064   6.031   8.580  0.1422  0.4495  0.7294
30820SOL     OW94227   3.666   1.559   9.630  0.1819  0.4868 -0.2553
30820SOL    HW194228   3.744   1.613   9.644  0.1511  1.2129 -2.5340
30820SOL    HW294229   3.594   1.622   9.620 -0.2404 -0.0689 -0.8169
30821SOL     OW94230   5.503   1.048   9.600  0.1536 -0.0341 -0.2822
30821SOL    HW194231   5.416   1.058   9.638  0.1320  0.5508 -0.4708
30821SOL    HW294232   5.561   1.036   9.676  0.0007  0.2880 -0.1123
30822SOL     OW94233   7.853   0.302   3.795  0.6365  0.4015  0.0394
30822SOL    HW194234   7.863   0.388   3.753  0.0896  0.6109  0.3300
30822SOL    HW294235   7.924   0.299   3.859  0.5410  0.7253  0.1652
30823SOL     OW94236   2.095   5.624   6.626  0.3327  0.2117 -0.2589
30823SOL    HW194237   2.082   5.661   6.714  1.9747  0.2725 -0.0068
30823SOL    HW294238   2.034   5.550   6.622  1.1265 -0.5959  1.4369
30824SOL     OW94239   2.308   5.503   6.287  0.7033 -0.0543 -0.2484
30824SOL    HW194240   2.237   5.565   6.267  0.8857 -0.1686 -1.3136
30824SOL    HW294241   2.376   5.523   6.222  0.7908 -1.3345 -0.5781
30825SOL     OW94242   0.880   5.563   0.914 -0.2272  0.2475 -0.3299
30825SOL    HW194243   0.873   5.559   0.819  1.2022  1.0043 -0.4876
30825SOL    HW294244   0.855   5.652   0.936  1.9681  0.9015 -0.2819
30826SOL     OW94245   3.964   2.176   8.574 -0.1846 -0.3871 -0.3778
30826SOL    HW194246   4.052   2.209   8.595 -0.1876 -0.7420  0.2105
30826SOL    HW294247   3.921   2.249   8.530 -0.0233  0.2239  0.4701
30827SOL     OW94248   0.775   0.318   2.380 -0.1136 -0.0231  0.2929
30827SOL    HW194249   0.694   0.267   2.377 -0.9173  1.2051  0.2184
30827SOL    HW294250   0.747   0.408   2.363  1.3274  0.3744 -0.1286
30828SOL     OW94251   5.629   2.367   6.974 -0.0275 -0.5701 -0.2402
30828SOL    HW194252   5.675   2.327   6.901  1.7914 -0.2998  0.6886
30828SOL    HW294253   5.546   2.321   6.980  1.2501 -3.0033 -0.3092
30829SOL     OW94254   6.322   4.234   7.174  0.3511 -0.0308  0.0563
30829SOL    HW194255   6.351   4.145   7.153 -0.7046 -0.2785 -0.4212
30829SOL    HW294256   6.268   4.223   7.253 -1.2481 -0.1034 -1.0025
30830SOL     OW94257   5.584   9.092   8.730 -0.0163  0.1719 -0.1475
30830SOL    HW194258   5.556   9.164   8.674  0.4552  1.2731  0.9848
30830SOL    HW294259   5.666   9.062   8.692 -0.9777 -0.8304 -1.5204
30831SOL     OW94260   6.821   8.981   8.980 -0.1211 -0.8366 -0.4783
30831SOL    HW194261   6.787   9.045   8.918  1.0942 -1.3656 -1.7579
30831SOL    HW294262   6.744   8.941   9.019 -0.9167  1.4324  0.4276
30832SOL     OW94263   0.551   0.851   5.245 -0.1813 -0.0514 -0.5121
30832SOL    HW194264   0.617   0.794   5.286 -0.0436 -0.7361 -1.6555
30832SOL    HW294265   0.601   0.926   5.213 -0.0667 -0.2061 -0.7008
30833SOL     OW94266   5.909   6.284   2.783  0.4363  0.3387  0.0524
30833SOL    HW194267   5.981   6.297   2.845 -0.1675  0.9303  0.6550
30833SOL    HW294268   5.883   6.373   2.758 -2.6265  0.4402  2.8837
30834SOL     OW94269   3.917   7.924   9.559  0.3134  0.4741 -0.1496
30834SOL    HW194270   3.966   7.880   9.489  0.1754 -1.0751  0.6896
30834SOL    HW294271   3.928   7.867   9.635 -1.3767  0.9688  0.5013
30835SOL     OW94272   0.603   3.123   7.919 -0.1716  0.0466 -0.6631
30835SOL    HW194273   0.562   3.144   8.003  0.2527  0.9422 -0.6750
30835SOL    HW294274   0.657   3.199   7.898  1.0187 -0.8464 -0.9511
30836SOL     OW94275   0.377   2.653   7.797  0.1655  0.2248  0.4500
30836SOL    HW194276   0.463   2.613   7.788 -0.7253 -1.3887 -2.0667
30836SOL    HW294277   0.351   2.634   7.887  1.5669 -1.1713  0.6087
30837SOL     OW94278   9.492   1.443   7.196  0.1861 -0.5660 -0.3450
30837SOL    HW194279   9.436   1.367   7.208  1.5624 -2.3380 -3.7958
30837SOL    HW294280   9.495   1.457   7.101  2.0540  2.2029 -0.0128
30838SOL     OW94281   1.980   6.556   8.058  0.2247  0.0151 -0.0818
30838SOL    HW194282   2.070   6.573   8.083 -0.1348 -0.9486  2.0662
30838SOL    HW294283   1.930   6.627   8.098 -0.3679 -1.5691  2.1547
30839SOL     OW94284   6.543   9.216   4.600  0.0431  0.1641 -0.2784
30839SOL    HW194285   6.518   9.283   4.663  0.1401 -1.0447  1.0913
30839SOL    HW294286   6.626   9.247   4.563  1.2578 -0.2189  1.9752
30840SOL     OW94287   7.307   2.140   3.494  0.8452  0.0160 -0.2189
30840SOL    HW194288   7.235   2.203   3.486  0.9909  0.2148  0.0349
30840SOL    HW294289   7.267   2.056   3.472  0.4252  0.0629  0.3274
30841SOL     OW94290   4.647   2.928   0.054 -0.0271 -0.1716 -0.7244
30841SOL    HW194291   4.642   2.921   0.150  0.6944 -2.2255 -0.7921
30841SOL    HW294292   4.556   2.917   0.025 -0.1298 -0.4460 -0.3175
30842SOL     OW94293   8.460   5.548   7.806  0.2590  0.3225  0.0985
30842SOL    HW194294   8.391   5.578   7.747  1.6416 -1.5839 -2.7021
30842SOL    HW294295   8.434   5.459   7.831 -0.0487  0.9128  2.0739
30843SOL     OW94296   9.326   0.504   0.003 -0.0218  0.2443 -0.3043
30843SOL    HW194297   9.233   0.527  -0.003 -0.8295 -1.9809  2.0242
30843SOL    HW294298   9.371   0.588  -0.000 -2.1301  1.4351 -0.9068
30844SOL     OW94299   3.961   2.959   0.440  0.4845  0.4745  0.2653
30844SOL    HW194300   3.899   3.013   0.490  1.0049  0.1585  1.2714
30844SOL    HW294301   4.026   3.021   0.408  0.7254  0.5493  0.8768
30845SOL     OW94302   7.141   4.327   9.711  0.4686  0.7025 -0.2629
30845SOL    HW194303   7.094   4.364   9.786  0.1071 -0.5179  0.1344
30845SOL    HW294304   7.231   4.315   9.742  0.6230  1.3402 -0.4386
30846SOL     OW94305   7.135   0.245   2.789 -0.2226 -0.6119  0.0794
30846SOL    HW194306   7.130   0.333   2.751 -0.7108 -0.0103  1.4614
30846SOL    HW294307   7.180   0.257   2.872  0.3897 -1.8123 -0.0528
30847SOL     OW94308   5.509   0.238   6.790  0.3000 -0.0183 -0.4116
30847SOL    HW194309   5.502   0.147   6.762  1.1693 -0.5930  1.1582
30847SOL    HW294310   5.418   0.267   6.798 -0.0328  0.1226 -3.4232
30848SOL     OW94311   7.424   3.741   7.231 -0.3718 -0.2822 -0.2456
30848SOL    HW194312   7.343   3.742   7.283 -0.7666  0.4013 -0.8571
30848SOL    HW294313   7.446   3.833   7.219  1.4161 -0.4550  1.2740
30849SOL     OW94314   1.688   3.706   4.116  0.2809  0.0902  0.3827
30849SOL    HW194315   1.770   3.683   4.160  0.2072  0.9790  0.9917
30849SOL    HW294316   1.716   3.746   4.033  0.4409 -0.2217  0.2820
30850SOL     OW94317   0.522   6.273   7.794 -0.5977  0.2007 -0.2008
30850SOL    HW194318   0.598   6.310   7.838 -0.4388 -1.4947  1.0340
30850SOL    HW294319   0.465   6.348   7.776  1.0664  1.4147 -0.5887
30851SOL     OW94320   0.526   9.490   5.662  0.0237  0.8997 -0.2058
30851SOL    HW194321   0.566   9.568   5.623  0.9735  1.0333  0.9705
30851SOL    HW294322   0.548   9.496   5.755  0.5463 -1.0124 -0.1641
30852SOL     OW94323   2.135   5.213   7.463  0.3611 -0.4232 -0.4281
30852SOL    HW194324   2.166   5.304   7.474 -3.0437  0.8772 -0.4396
30852SOL    HW294325   2.109   5.187   7.551 -3.7570  0.7861 -1.0907
30853SOL     OW94326   9.660   1.206   5.641  0.3165 -0.0181 -0.0864
30853SOL    HW194327   9.644   1.114   5.664 -0.7493  0.0056 -0.6371
30853SOL    HW294328   9.752   1.220   5.659  0.6703 -1.4119 -0.6719
30854SOL     OW94329   4.685   1.314   0.670 -0.3550 -0.0497  0.0347
30854SOL    HW194330   4.773   1.342   0.696 -0.5329  0.8276 -0.2802
30854SOL    HW294331   4.686   1.220   0.683  0.8077 -0.1322 -0.4565
30855SOL     OW94332   7.689   8.341   9.540  0.1044 -0.1306 -0.0133
30855SOL    HW194333   7.636   8.327   9.461 -1.1000 -0.0593  0.7476
30855SOL    HW294334   7.779   8.332   9.510 -0.2482  1.1521 -1.6603
30856SOL     OW94335   7.525   2.933   1.165 -0.1430 -0.1048 -0.0006
30856SOL    HW194336   7.568   3.003   1.116  0.6062  0.0780  0.9032
30856SOL    HW294337   7.487   2.876   1.098  0.8436  0.1553 -0.7957
30857SOL     OW94338   9.051   0.645   8.802  0.4642  0.1187 -0.6733
30857SOL    HW194339   9.109   0.647   8.726 -0.8615  0.2836 -1.7110
30857SOL    HW294340   9.089   0.710   8.861  2.2554 -0.9209 -0.5772
30858SOL     OW94341   4.237   4.320   1.620 -0.4544 -0.2152 -0.6254
30858SOL    HW194342   4.174   4.349   1.555  0.1336  1.0718 -0.6563
30858SOL    HW294343   4.217   4.373   1.698  0.6971  0.3869 -0.7096
30859SOL     OW94344   7.627   7.415   3.036 -0.7496 -0.0630  0.0932
30859SOL    HW194345   7.687   7.349   3.003  0.6150 -0.0998  2.4409
30859SOL    HW294346   7.652   7.495   2.990  2.1891  0.2666  1.9990
30860SOL     OW94347   2.869   6.019   6.945 -0.3814 -0.3509  0.1657
30860SOL    HW194348   2.880   5.985   6.856 -0.3300 -1.0246  0.4236
30860SOL    HW294349   2.955   6.009   6.986 -0.1240  0.9340 -0.0321
30861SOL     OW94350   9.616   7.409   1.670 -0.5831  0.0528 -0.3334
30861SOL    HW194351   9.653   7.483   1.719 -2.0645  1.1807 -0.8207
30861SOL    HW294352   9.691   7.364   1.633  0.5446 -0.3273  2.2257
30862SOL     OW94353   7.461   7.829   9.459 -0.7670  0.0141 -0.2802
30862SOL    HW194354   7.470   7.775   9.538  0.6708  2.0430  1.0444
30862SOL    HW294355   7.420   7.910   9.490  0.3997  1.1102 -1.4822
30863SOL     OW94356   3.726   7.736   0.906 -0.2454  0.0785 -0.2093
30863SOL    HW194357   3.729   7.642   0.921  0.5284  0.3570  1.6162
30863SOL    HW294358   3.642   7.764   0.942  1.6225  0.7508  4.3387
30864SOL     OW94359   8.125   7.207   8.544 -0.2314 -0.4731 -0.0771
30864SOL    HW194360   8.114   7.112   8.549  1.2850 -0.7726 -1.2455
30864SOL    HW294361   8.212   7.223   8.581 -0.9417  0.6174  1.1689
30865SOL     OW94362   0.131   3.241   0.818 -0.1399 -0.2130 -0.4387
30865SOL    HW194363   0.096   3.208   0.901  0.3966 -1.8771 -0.8401
30865SOL    HW294364   0.065   3.216   0.753  0.6013 -1.1850 -0.8471
30866SOL     OW94365   3.300   5.151   3.059  0.2587  0.4814  0.0328
30866SOL    HW194366   3.335   5.090   3.124 -0.4109 -1.5407 -1.3991
30866SOL    HW294367   3.205   5.144   3.070  0.1730  1.7037  0.1937
30867SOL     OW94368   4.492   7.267   0.931 -0.7349  0.0352  0.3200
30867SOL    HW194369   4.575   7.292   0.972  0.7628 -3.0277 -0.5194
30867SOL    HW294370   4.495   7.305   0.844 -0.6759  0.7377  0.6245
30868SOL     OW94371   3.381   2.647   4.783 -0.8097 -0.3370  0.0864
30868SOL    HW194372   3.420   2.722   4.739  0.4468 -1.1397 -0.2136
30868SOL    HW294373   3.287   2.667   4.786 -0.6354  0.7295 -0.9719
30869SOL     OW94374   1.499   7.416   3.658  0.0071  0.7558  0.2864
30869SOL    HW194375   1.557   7.378   3.593 -1.5192 -2.8850  0.8434
30869SOL    HW294376   1.556   7.440   3.731  1.3333  2.0274 -1.1023
30870SOL     OW94377   3.370   5.489   5.924 -0.2505  0.7540  0.0891
30870SOL    HW194378   3.389   5.513   5.834  0.8183  1.0893  0.3872
30870SOL    HW294379   3.456   5.476   5.964 -0.7066  0.5738  1.0470
30871SOL     OW94380   9.552   7.550   2.991  0.0185 -0.3976  0.1814
30871SOL    HW194381   9.505   7.470   3.011 -0.2857 -0.5559 -1.1362
30871SOL    HW294382   9.530   7.609   3.064  1.4764 -1.9730  2.0003
30872SOL     OW94383   4.278   6.635   9.698  0.0074 -0.4340 -0.8009
30872SOL    HW194384   4.281   6.539   9.704 -1.7840 -0.4506  0.1967
30872SOL    HW294385   4.274   6.665   9.789  0.2937  0.6055 -1.1146
30873SOL     OW94386   8.957   1.104   5.477 -0.4239  0.0618  0.0118
30873SOL    HW194387   9.002   1.081   5.396  2.2625  0.6940  1.2171
30873SOL    HW294388   8.948   1.199   5.473  0.2109  0.1515  0.6861
30874SOL     OW94389   9.553   5.836   2.537  0.1883  0.1995 -0.2063
30874SOL    HW194390   9.646   5.849   2.557  0.1201 -0.4710  0.6138
30874SOL    HW294391   9.508   5.903   2.588  0.2075  0.4213 -0.4782
30875SOL     OW94392   3.500   5.150   7.568  0.0758  0.7996  0.4804
30875SOL    HW194393   3.448   5.229   7.553 -1.5782 -0.3860 -0.2888
30875SOL    HW294394   3.460   5.108   7.645  0.5837  0.4229  0.5463
30876SOL     OW94395   1.103   8.454   7.002 -0.2217 -0.5538  0.2568
30876SOL    HW194396   1.027   8.413   6.962 -3.1286  3.9233  0.4763
30876SOL    HW294397   1.084   8.455   7.096 -0.5110  1.4076  0.2324
30877SOL     OW94398   7.320   2.998   6.663  0.1244 -0.2049  0.7163
30877SOL    HW194399   7.328   3.083   6.622  0.7050 -0.2083  0.8113
30877SOL    HW294400   7.404   2.955   6.647  0.3493 -0.2198  1.8532
30878SOL     OW94401   0.744   8.061   0.586 -0.1375 -0.1504 -0.1161
30878SOL    HW194402   0.774   8.026   0.671  0.0385 -0.0088 -0.1198
30878SOL    HW294403   0.661   8.103   0.606  1.1164  2.2131  0.5192
30879SOL     OW94404   4.705   4.895   5.723  0.4549  0.2093 -0.4166
30879SOL    HW194405   4.618   4.895   5.683  0.7740 -3.5543 -1.4882
30879SOL    HW294406   4.687   4.897   5.817 -1.1044 -3.0159 -0.4880
30880SOL     OW94407   3.885   1.027   9.407 -0.1762 -0.5162 -0.1928
30880SOL    HW194408   3.874   0.954   9.468  1.1621  0.9444  1.9251
30880SOL    HW294409   3.947   0.994   9.341  2.3230 -0.6651  2.0532
30881SOL     OW94410   4.904   8.640   6.390  0.2996 -0.3172  0.6502
30881SOL    HW194411   4.824   8.591   6.410  0.8885 -1.1220  1.0867
30881SOL    HW294412   4.874   8.731   6.382 -0.8611 -0.7620 -0.4949
30882SOL     OW94413   4.156   0.509   6.906  0.1770 -0.3584 -0.1141
30882SOL    HW194414   4.160   0.438   6.841 -2.5694 -1.2257  0.5322
30882SOL    HW294415   4.236   0.559   6.891 -0.2795 -0.4542 -4.2397
30883SOL     OW94416   3.305   7.807   2.286  0.0525  0.1332  0.0945
30883SOL    HW194417   3.371   7.776   2.349 -0.6567 -0.2458  0.6723
30883SOL    HW294418   3.234   7.743   2.293 -1.7418  2.1245  1.7778
30884SOL     OW94419   1.585   2.256   9.368  0.0750 -0.4027  0.3971
30884SOL    HW194420   1.605   2.199   9.442  2.0931 -2.2565 -1.3994
30884SOL    HW294421   1.671   2.279   9.333 -0.8065 -0.1360 -1.7173
30885SOL     OW94422   2.145   2.422   5.583 -0.0902  0.1521  0.2749
30885SOL    HW194423   2.099   2.356   5.532  0.3725 -0.7768  1.0214
30885SOL    HW294424   2.174   2.486   5.519 -0.3345 -0.5023 -0.5008
30886SOL     OW94425   3.770   9.487   6.024 -0.6287  0.4026 -0.4640
30886SOL    HW194426   3.709   9.559   6.004  1.2834  2.0547 -0.6383
30886SOL    HW294427   3.816   9.516   6.103 -0.0741 -0.8404 -0.3085
30887SOL     OW94428   5.784   2.539   3.148 -0.8185  0.1528  0.3699
30887SOL    HW194429   5.741   2.513   3.229 -3.1933  1.1978 -0.4480
30887SOL    HW294430   5.713   2.574   3.093  0.6382 -0.6210 -2.2121
30888SOL     OW94431   7.097   8.718   0.050 -0.4945 -0.8640  0.3286
30888SOL    HW194432   7.033   8.750  -0.014 -0.7638 -1.8791  0.0708
30888SOL    HW294433   7.160   8.669  -0.002 -0.9350 -2.0400  0.8637
30889SOL     OW94434   2.181   7.145   0.382 -0.5084 -0.0727  0.2728
30889SOL    HW194435   2.157   7.056   0.407  0.0796 -0.0862  0.8458
30889SOL    HW294436   2.274   7.152   0.406  0.3337 -0.2864 -2.5604
30890SOL     OW94437   6.856   5.290   8.694  0.2396 -0.2220  0.1676
30890SOL    HW194438   6.872   5.315   8.603 -4.4500  2.8764 -0.1836
30890SOL    HW294439   6.934   5.319   8.741  0.9597  2.4245 -2.3468
30891SOL     OW94440   5.651   1.467   5.807 -0.3395  0.1917  0.1216
30891SOL    HW194441   5.617   1.542   5.757  0.3875  0.3874 -0.0931
30891SOL    HW294442   5.629   1.487   5.898 -1.7566 -0.2098 -0.0987
30892SOL     OW94443   5.480   4.913   2.281  0.2681  0.0957  0.2877
30892SOL    HW194444   5.430   4.849   2.231 -0.8174  1.3503 -0.3153
30892SOL    HW294445   5.452   4.900   2.372  0.0670 -0.2958  0.1722
30893SOL     OW94446   4.788   6.531   5.708  0.1332  0.7355  0.2372
30893SOL    HW194447   4.813   6.461   5.647  0.6460  0.0899  1.1760
30893SOL    HW294448   4.719   6.493   5.762 -1.2825  1.7459 -0.7820
30894SOL     OW94449   7.448   6.356   4.596  0.0053  0.8109  0.3483
30894SOL    HW194450   7.448   6.261   4.580  0.8707  0.7546  0.5979
30894SOL    HW294451   7.526   6.370   4.651 -1.3907  1.3397  2.3024
30895SOL     OW94452   7.957   1.520   1.137 -0.1606 -0.2447  0.1523
30895SOL    HW194453   8.009   1.440   1.140 -0.1584 -0.2159  0.9656
30895SOL    HW294454   7.889   1.508   1.204 -1.4742 -0.4552 -1.1508
30896SOL     OW94455   3.526   9.250   9.043  0.4388  0.0333  0.2337
30896SOL    HW194456   3.520   9.213   9.131  0.5557  0.9295  0.6309
30896SOL    HW294457   3.614   9.226   9.013  0.0491 -1.1222 -0.0472
30897SOL     OW94458   2.076   3.810   2.085 -0.2100 -0.3310 -0.0299
30897SOL    HW194459   2.039   3.896   2.102 -2.4770 -1.0055 -1.1524
30897SOL    HW294460   2.139   3.825   2.014 -1.2203  0.2744 -0.8136
30898SOL     OW94461   9.004   8.597   0.676 -0.1282 -0.3980  0.5088
30898SOL    HW194462   9.028   8.515   0.634 -0.4462 -0.4134  0.3526
30898SOL    HW294463   9.079   8.655   0.661  0.2137 -0.7459  0.8610
30899SOL     OW94464   8.343   5.850   7.169 -0.1346  0.3191  0.3769
30899SOL    HW194465   8.338   5.891   7.083 -3.3495 -1.1917 -0.2820
30899SOL    HW294466   8.324   5.920   7.231 -1.6590  0.6577 -0.4490
30900SOL     OW94467   2.482   5.901   6.157 -0.0284 -0.1624 -0.1012
30900SOL    HW194468   2.442   5.987   6.143 -0.0015 -0.0150  0.6845
30900SOL    HW294469   2.473   5.885   6.251 -0.2293 -1.1197 -0.2666
30901SOL     OW94470   0.296   4.247   4.554  0.0677  0.4776  0.0294
30901SOL    HW194471   0.243   4.194   4.495 -0.7705  0.7848  0.4904
30901SOL    HW294472   0.333   4.184   4.616  2.4302 -0.1125 -1.8325
30902SOL     OW94473   8.558   3.401   7.858  0.4976  0.0045 -0.0775
30902SOL    HW194474   8.522   3.463   7.921 -2.6806 -2.4425  0.8153
30902SOL    HW294475   8.519   3.427   7.774  0.2309  0.0072  0.0456
30903SOL     OW94476   5.556   9.351   3.668 -0.4864 -0.0650  0.1330
30903SOL    HW194477   5.601   9.377   3.748 -1.6696  2.8040  0.0022
30903SOL    HW294478   5.511   9.270   3.691  0.3521 -0.0766  1.9146
30904SOL     OW94479   9.819   8.864   7.747 -0.0167 -0.1938 -0.8156
30904SOL    HW194480   9.784   8.897   7.829  1.4434 -0.5467 -0.0246
30904SOL    HW294481   9.752   8.802   7.716  0.1837 -1.4078  1.0270
30905SOL     OW94482   7.936   7.883   6.348 -0.2721 -0.0953 -0.1484
30905SOL    HW194483   7.929   7.810   6.409  1.0408 -0.4459 -0.3851
30905SOL    HW294484   7.863   7.871   6.287  0.2845 -1.6047 -0.5766
30906SOL     OW94485   8.210   6.840   8.919  0.0689 -0.2343  0.4954
30906SOL    HW194486   8.124   6.819   8.885  0.5274  0.7422 -1.3778
30906SOL    HW294487   8.265   6.851   8.842  1.0496  2.6101  1.4588
30907SOL     OW94488   3.340   2.272   8.039  0.7497  0.5703  0.0935
30907SOL    HW194489   3.357   2.178   8.036  0.4114  0.5246 -0.9511
30907SOL    HW294490   3.252   2.278   8.078  0.8098  0.4639  0.2492
30908SOL     OW94491   4.468   0.512   7.367 -0.0526 -0.5177  0.0254
30908SOL    HW194492   4.543   0.491   7.422  2.2416  1.9904 -1.8586
30908SOL    HW294493   4.397   0.531   7.429  0.9320 -2.4150  1.8853
30909SOL     OW94494   6.495   4.133   5.295 -0.3474  0.1641  0.2516
30909SOL    HW194495   6.508   4.041   5.271  1.7883  0.9735 -2.1202
30909SOL    HW294496   6.404   4.137   5.324 -0.4689 -2.7049  0.5603
30910SOL     OW94497   0.325   6.990   2.900 -0.3113 -0.4358 -0.2668
30910SOL    HW194498   0.316   7.079   2.867  1.1590 -0.2305 -0.1932
30910SOL    HW294499   0.375   6.944   2.832 -1.0786 -1.2267 -0.3214
30911SOL     OW94500   3.002   6.464   0.967  0.5763 -0.3306  0.5130
30911SOL    HW194501   2.915   6.428   0.980  0.4372 -0.0961  0.2304
30911SOL    HW294502   3.036   6.479   1.055 -0.2849  1.0864  0.6182
30912SOL     OW94503   6.729   8.498   9.773 -0.4492  0.2652 -0.4800
30912SOL    HW194504   6.821   8.490   9.748 -0.8071  0.5524 -2.0275
30912SOL    HW294505   6.731   8.533   9.862  0.9455  1.0452 -0.7850
30913SOL     OW94506   9.300   0.848   3.276 -0.0563 -0.2727 -0.1377
30913SOL    HW194507   9.340   0.930   3.247  1.6726 -1.5552 -1.6098
30913SOL    HW294508   9.351   0.822   3.353 -0.0115 -0.4031 -0.2105
30914SOL     OW94509   6.795   6.782   0.058 -0.1802 -0.1308 -0.1656
30914SOL    HW194510   6.804   6.876   0.041  0.1136 -0.2957 -0.9611
30914SOL    HW294511   6.719   6.756   0.006  0.4719 -0.5660 -0.9226
30915SOL     OW94512   2.637   5.187   0.338  0.2566  0.9207 -0.3335
30915SOL    HW194513   2.575   5.193   0.410 -0.0528  0.8345 -0.5891
30915SOL    HW294514   2.702   5.123   0.367  1.2158  2.2862  0.6677
30916SOL     OW94515   4.560   5.870   3.804  0.1471  0.0081 -0.4126
30916SOL    HW194516   4.494   5.900   3.867 -0.4668 -0.4669 -0.8230
30916SOL    HW294517   4.636   5.925   3.822 -0.2412  0.3258  0.3049
30917SOL     OW94518   6.237   8.810   4.244  0.1340  0.0037 -0.6155
30917SOL    HW194519   6.279   8.748   4.302 -2.4781 -1.0732  0.2661
30917SOL    HW294520   6.268   8.896   4.274  1.4537 -0.6925  0.1008
30918SOL     OW94521   4.697   4.183   4.458 -0.0478  0.4449  0.0621
30918SOL    HW194522   4.760   4.111   4.450  0.1350  0.6538 -0.4634
30918SOL    HW294523   4.615   4.146   4.425 -0.2652  0.1001  0.9681
30919SOL     OW94524   9.160   8.250   7.585  0.1841 -0.1863 -0.1163
30919SOL    HW194525   9.222   8.230   7.515 -0.8191  1.0049 -1.4325
30919SOL    HW294526   9.123   8.335   7.559 -1.3718 -0.4724  1.0381
30920SOL     OW94527   3.083   4.653   8.504 -0.0816 -0.1985  0.3405
30920SOL    HW194528   2.998   4.611   8.512 -0.4531  0.7061  1.2989
30920SOL    HW294529   3.122   4.647   8.591  1.1425 -1.1963 -0.2338
30921SOL     OW94530   2.888   5.975   7.683 -0.2543 -0.0322 -0.0152
30921SOL    HW194531   2.844   5.976   7.768 -0.2471  1.1572 -0.0037
30921SOL    HW294532   2.822   5.944   7.622 -0.3276 -0.6833  0.3865
30922SOL     OW94533   8.353   1.838   7.984 -0.0758  0.1895 -0.2069
30922SOL    HW194534   8.359   1.843   7.888 -1.8655  0.6132 -0.3197
30922SOL    HW294535   8.263   1.813   8.001  0.0208  0.8419  1.4021
30923NA      NA94536   8.429   5.165   5.780 -0.2771 -0.3591  0.4067
30924NA      NA94537   1.660   4.948   6.142  0.6215  0.2480 -0.0576
30925NA      NA94538   8.711   6.902   2.293 -0.2217  0.3967  0.2034
30926NA      NA94539   4.360   9.225   6.025 -0.2209 -0.2922 -0.2861
30927NA      NA94540   1.778   3.484   2.797 -0.0018  0.3764 -0.1949
30928NA      NA94541   0.148   2.644   3.221  0.0471 -0.4696  0.1141
30929NA      NA94542   7.885   8.194   8.520  0.4143 -0.4671 -0.1628
30930NA      NA94543   7.289   6.854   3.742 -0.5904 -0.1664 -0.0345
30931NA      NA94544   6.742   7.809   8.365  0.3286  0.0610 -0.2500
30932NA      NA94545   0.179   7.408   7.397  0.1406  0.3006 -0.0717
30933NA      NA94546   4.774   2.853   6.768  0.0044 -0.0961 -0.5431
30934NA      NA94547   0.560   4.014   2.906 -0.0298 -0.0369  0.1466
30935NA      NA94548   0.683   1.044   9.527  0.3833 -0.7845 -0.3050
30936NA      NA94549   8.505   0.691   6.731 -0.1479 -0.1300 -0.2562
30937NA      NA94550   3.336   0.529   8.663  0.0433  0.5254 -0.0791
30938NA      NA94551   8.194   2.760   4.309  0.2665 -0.0497  0.1366
30939NA      NA94552   2.203   6.705   6.320  0.0847 -0.2356  0.1335
30940NA      NA94553   2.203   2.550   6.580 -0.0583  0.0077  0.3672
30941NA      NA94554   7.707   1.292   6.483  0.0353  0.2069 -0.0465
30942NA      NA94555   3.037   4.000   4.083  0.0699 -0.0180  0.0749
30943NA      NA94556   5.290   0.897   5.070 -0.1752 -0.2310  0.1790
30944NA      NA94557   4.525   8.309   1.158  0.1358  0.2092  0.5318
30945NA      NA94558   2.741   2.659   0.597 -0.3046  0.3167  0.0547
30946NA      NA94559   0.287   2.869   7.237  0.3790  0.0892  0.2317
30947NA      NA94560   6.544   6.813   6.177  0.2005 -0.5076 -0.0258
30948NA      NA94561   9.223   7.341   1.268 -0.8281 -0.1346 -0.3722
30949NA      NA94562   8.999   6.845   7.393 -0.0217 -0.1903  0.5220
30950NA      NA94563   3.118   7.578   1.057  0.0185 -0.2400 -0.3491
30951NA      NA94564   3.096   9.829   8.126  0.2429 -0.4612 -0.4083
30952NA      NA94565   7.599   8.339   6.730 -0.0139 -0.2154  0.1379
30953NA      NA94566   2.515   3.318   5.635 -0.1111 -0.1243  0.4188
30954NA      NA94567   6.609   1.990   4.647  0.3823 -0.2989 -0.2460
30955NA      NA94568   3.608   7.328   2.209  0.2585  0.1400  0.4620
30956NA      NA94569   9.372   6.144   1.555 -0.3636  0.2135  0.1469
30957NA      NA94570   3.992   0.956   0.046  0.4417 -0.4476 -0.2881
30958NA      NA94571   0.157   0.265   7.219 -0.3685 -0.3282 -0.2228
30959NA      NA94572   4.349   6.912   5.441  0.1795 -0.1876  0.3826
30960NA      NA94573   5.569   5.823   6.957 -0.5320 -0.4852  0.7102
30961NA      NA94574   8.073   9.333   8.202 -0.3022 -0.4459  0.3264
30962NA      NA94575   2.232   3.874   9.288 -0.4199 -0.0146 -0.1868
30963NA      NA94576   1.783   0.323   3.963 -0.1290  0.0847 -0.4215
30964NA      NA94577   6.866   6.004   4.145  0.2176  0.2094 -0.7411
30965NA      NA94578   1.160   3.449   0.172 -0.1681  0.9530 -0.0907
30966NA      NA94579   2.560   0.917   0.457  0.5215 -0.4200 -0.5581
30967NA      NA94580   8.952   4.305   3.565  0.4047  0.2664  0.3074
30968NA      NA94581   6.121   8.023   6.509 -0.0513 -0.1770  0.1435
30969NA      NA94582   3.949   7.754   0.937  0.0012  0.3183 -0.0600
30970NA      NA94583   3.455   9.105   6.761 -0.1505  0.0586 -0.0283
30971NA      NA94584   9.222   7.751   2.496 -0.3368 -0.2247  0.1597
30972NA      NA94585   4.210   8.138   0.265 -0.3721 -0.3651 -0.2307
30973NA      NA94586   4.675   8.574   5.659 -0.3243 -0.1369 -0.1041
30974NA      NA94587   7.388   0.259   4.978  0.6505  0.0494  0.0610
30975NA      NA94588   9.172   0.282   4.097  0.1524 -0.0873  0.0771
30976NA      NA94589   8.927   2.477   0.270 -0.5579  0.2814 -0.4324
30977NA      NA94590   9.249   7.322   3.626 -0.2135 -0.8041 -0.0699
30978NA      NA94591   1.432   4.684   7.813 -0.0366 -0.8491 -0.5292
30979NA      NA94592   2.066   8.313   1.021  0.1640  0.0700  0.1680
30980NA      NA94593   2.491   8.364   2.484  0.1223 -0.1715 -0.2971
30981NA      NA94594   4.148   5.147   4.132  0.0429  0.0380 -0.3408
30982NA      NA94595   5.544   4.032   6.108 -0.3438 -0.2470  0.0070
30983NA      NA94596   1.392   1.945   4.064 -0.3736 -0.0710 -0.2083
30984NA      NA94597   2.705   1.027   3.027 -0.3092  0.1667  0.3301
30985NA      NA94598   2.176   1.511   5.565  0.2290 -0.6408 -0.3688
30986NA      NA94599   2.352   5.357   0.584  0.0527 -0.3941 -0.0399
30987NA      NA94600   5.173   3.350   6.179 -0.1361  0.3277 -0.2417
30988NA      NA94601   1.761   7.894   5.548  0.7895 -0.0605 -0.4723
30989NA      NA94602   1.375   8.571   8.077 -0.2325 -0.0244  0.1140
30990NA      NA94603   2.099   6.751   8.457  0.2181  0.0457  0.0151
30991NA      NA94604   3.788   0.486   0.912 -0.6435  0.3395  0.6908
30992NA      NA94605   4.224   7.934   2.346 -0.4934 -0.5293  0.1605
30993NA      NA94606   1.157   9.197   0.098  0.0249  0.6587  0.3757
30994NA      NA94607   2.288   8.460   9.224  0.1946 -0.4266  0.4769
30995NA      NA94608   0.732   7.429   2.971  0.0720  0.2735  0.2603
30996NA      NA94609   6.106   0.223   3.526 -0.1204 -0.0639  0.0783
30997NA      NA94610   1.597   2.189   0.295  0.5432  0.0988 -0.1155
30998NA      NA94611   9.127   9.009   7.602  0.1549 -0.1864  0.0814
30999NA      NA94612   4.163   1.512   3.753  0.0955 -0.0404 -0.3211
31000NA      NA94613   7.619   4.487   6.150  0.0991 -0.2828 -0.0263
31001NA      NA94614   4.079   1.740   6.769  0.3819  0.4586  0.3585
31002NA      NA94615   4.603   5.889   4.337  0.0933  0.0012 -0.3954
31003NA      NA94616   3.125   9.715   4.685 -0.1380  0.1860  0.3168
31004NA      NA94617   6.066   9.395   1.244  0.0704 -0.2680  0.1122
31005NA      NA94618   1.178   5.000   1.005  0.0967 -0.0528 -0.0988
31006NA      NA94619   2.113   9.049   1.658  0.2573 -0.6232  0.0482
31007NA      NA94620   7.763   9.204   7.117 -0.5215 -0.0961  0.2476
31008NA      NA94621   1.038   5.273   7.340  0.5081  0.1076 -0.4815
31009NA      NA94622   4.389   5.241   6.663  0.6037  0.1532  0.0048
31010CL      CL94623   6.511   0.554   7.013  0.0158  0.0245 -0.0623
31011CL      CL94624   8.645   4.064   3.893 -0.1569  0.1407 -0.0467
31012CL      CL94625   0.588   1.615   6.865 -0.0408  0.1937  0.5023
31013CL      CL94626   3.508   6.539   4.083 -0.0657 -0.1931 -0.0341
31014CL      CL94627   3.404   7.637   5.499  0.1045 -0.0843 -0.1159
31015CL      CL94628   4.494   9.118   6.448  0.2097 -0.1372 -0.1280
31016CL      CL94629   7.360   5.798   5.512 -0.1009  0.2132 -0.0299
31017CL      CL94630   6.918   2.538   1.516  0.0087  0.0642  0.2335
31018CL      CL94631   2.318   5.366   0.356 -0.2241 -0.2373 -0.1850
31019CL      CL94632   6.884   4.764   0.690  0.1641 -0.2269  0.3588
31020CL      CL94633   7.468   5.160   2.612  0.1970 -0.2296 -0.1840
31021CL      CL94634   6.280   7.290   7.601  0.0762 -0.0647  0.2727
31022CL      CL94635   8.146   8.763   8.783  0.1207  0.3641  0.2042
31023CL      CL94636   5.800   4.533   6.560  0.3069 -0.1451 -0.0215
31024CL      CL94637   8.680   6.022   6.978  0.2140  0.2781 -0.3775
31025CL      CL94638   5.404   1.853   6.722 -0.6487  0.3577  0.1894
31026CL      CL94639   8.583   9.789   7.517 -0.6068  0.1981 -0.0921
31027CL      CL94640   2.446   9.704   3.167  0.1510  0.2549  0.3194
31028CL      CL94641   5.567   5.385   0.186 -0.6066  0.0044 -0.0824
31029CL      CL94642   9.772   4.246   2.910  0.0609  0.2795  0.4913
31030CL      CL94643   7.761   1.652   0.069  0.0776  0.0227 -0.0083
31031CL      CL94644   1.229   2.273   8.147 -0.3538  0.2195 -0.3754
31032CL      CL94645   6.811   3.317   9.242  0.2075 -0.3876  0.6818
31033CL      CL94646   2.411   2.528   5.070 -0.1075 -0.2333  0.2357
31034CL      CL94647   5.517   9.655   1.647 -0.0257 -0.1529  0.0318
31035CL      CL94648   8.318   4.239   0.991 -0.0331 -0.1878  0.3099
31036CL      CL94649   4.547   6.256   0.120 -0.1480 -0.3484  0.1967
31037CL      CL94650   6.443   4.803   0.610  0.1662 -0.1686  0.0120
31038CL      CL94651   1.351   5.416   6.858 -0.1824 -0.0092  0.0846
31039CL      CL94652   9.201   3.969   8.956  0.0289 -0.1772 -0.4462
31040CL      CL94653   1.701   2.053   3.181  0.1693  0.1288  0.4384
31041CL      CL94654   7.705   7.749   5.559  0.5887 -0.2554  0.3711
31042CL      CL94655   4.319   9.094   2.941  0.2284  0.1019  0.3374
31043CL      CL94656   6.587   7.823   4.656  0.2846  0.2800  0.2015
31044CL      CL94657   9.036   8.184   2.385  0.6375  0.1360 -0.2182
31045CL      CL94658   8.866   4.355   1.592  0.0440  0.0283 -0.6012
31046CL      CL94659   7.422   4.649   6.535  0.1172  0.1641 -0.1439
31047CL      CL94660   6.863   3.894   7.727 -0.0445  0.0182 -0.2645
31048CL      CL94661   5.930   2.515   8.298  0.2209 -0.0463  0.0524
31049CL      CL94662   9.639   3.619   8.565 -0.0472  0.3183  0.0919
31050CL      CL94663   8.040   1.542   0.500  0.5672  0.3508  0.2435
31051CL      CL94664   6.025   5.286   1.398 -0.4269 -0.0438  0.4634
31052CL      CL94665   7.679   6.207   0.983  0.5034 -0.0473  0.2134
31053CL      CL94666   6.693   6.533   2.724 -0.3298  0.0299 -0.0669
31054CL      CL94667   2.950   0.224   9.402  0.0290  0.2921  0.2448
31055CL      CL94668   7.349   9.843   0.043 -0.2655 -0.1181  0.1816
31056CL      CL94669   6.938   9.253   2.613 -0.4107  0.1702  0.3676
31057CL      CL94670   3.961   7.014   4.992  0.0044 -0.0979 -0.4481
31058CL      CL94671   8.504   3.528   8.379  0.2895 -0.3650  0.0741
31059CL      CL94672   4.754   3.913   1.356 -0.1783 -0.1199  0.3995
31060CL      CL94673   5.821   4.628   0.216 -0.0364 -0.1668  0.1085
31061CL      CL94674   5.161   2.264   2.465  0.1167  0.1737  0.2028
31062CL      CL94675   9.493   3.256   0.696  0.3716  0.0267 -0.1178
31063CL      CL94676   7.499   3.479   0.633  0.2340 -0.1651 -0.3995
31064CL      CL94677   6.632   1.992   8.605  0.8302 -0.0033  0.5421
31065CL      CL94678   9.702   8.243   6.505  0.0064  0.1176  0.3782
31066CL      CL94679   6.512   4.414   8.489 -0.3828  0.3090 -0.0034
31067CL      CL94680   3.084   9.574   4.496  0.1686 -0.2969 -0.2192
31068CL      CL94681   4.992   2.730   1.036 -0.0950  0.0188  0.5303
31069CL      CL94682   4.472   2.712   1.419  0.1707 -0.1651 -0.1711
31070CL      CL94683   6.929   1.619   2.925 -0.1397  0.0507  0.5741
31071CL      CL94684   2.463   6.311   6.301 -0.0843 -0.3409  0.1620
31072CL      CL94685   0.130   1.820   3.385 -0.0377 -0.5096  0.2586
31073CL      CL94686   8.997   6.749   9.404  0.2308  0.1061 -0.1246
31074CL      CL94687   3.559   1.578   1.166 -0.0496  0.2563 -0.3372
31075CL      CL94688   6.717   5.531   4.014 -0.4918  0.2195 -0.0766
31076CL      CL94689   8.689   1.222   9.475 -0.4588 -0.1985  0.2688
31077CL      CL94690   3.877   3.706   0.395  0.2594  0.0348 -0.0000
31078CL      CL94691   7.330   1.131   5.705  0.0905 -0.0037 -0.3082
31079CL      CL94692   3.783   8.329   6.787 -0.0876  0.7147  0.1960
31080CL      CL94693   5.339   2.716   4.882  0.1232 -0.2074  0.2050
31081CL      CL94694   9.130   5.586   0.950  0.2806  0.2789  0.0397
31082CL      CL94695   4.444   4.945   7.052  0.5726  0.3242 -0.3785
31083CL      CL94696   7.152   3.982   2.136  0.0216 -0.2222 -0.0902
31084CL      CL94697   8.447   7.357   8.358  0.1509 -0.4425  0.0244
31085CL      CL94698   7.773   1.790   7.557  0.2329  0.1911 -0.1175
31086CL      CL94699   4.397   3.834   9.101  0.0374 -0.0839 -0.1409
31087CL      CL94700   4.363   2.649   9.138  0.2106 -0.9391  0.1698
31088CL      CL94701   3.180   1.855   9.820 -0.3439 -0.3860  0.6019
31089CL      CL94702   6.279   1.227   4.439 -0.1638  0.2744  0.0437
31090CL      CL94703   5.607   4.099   6.590  0.1715 -0.2386 -0.5140
31091CL      CL94704   7.695   2.952   1.566  0.1910 -0.0219  0.3966
31092CL      CL94705   6.417   0.162   4.662 -0.0454 -0.0413 -0.0890
31093CL      CL94706   7.423   6.121   1.998 -0.1590 -0.3335 -0.1827
31094CL      CL94707   2.668   4.058   4.800 -0.3164  0.3184 -0.0613
31095CL      CL94708   1.668   3.270   0.586  0.2239  0.2312 -0.2741
31096CL      CL94709   2.802   3.633   7.369 -0.1951 -0.2245 -0.2776
31097CL      CL94710   4.794   9.503   8.159 -0.0767 -0.2264  0.0874
31098CL      CL94711   2.789   8.322   8.171 -0.0191  0.0465 -0.0643
31099CL      CL94712   7.768   1.508   1.664  0.1444 -0.0421  0.2631
31100CL      CL94713   9.558   3.184   6.138 -0.3153  0.2540  0.3950
31101CL      CL94714   4.931   1.670   5.206  0.3209 -0.3456  0.1559
31102CL      CL94715   6.997   0.239   0.588  0.7155  0.1733  0.5773
31103CL      CL94716   3.337   1.552   8.243 -0.0460 -0.0282  0.0747
31104CL      CL94717   6.257   0.927   4.030  0.3471 -0.2943 -0.1850
31105CL      CL94718   8.543   2.562   8.854 -0.2235 -0.2172 -0.2295
31106CL      CL94719   5.438   3.269   1.627 -0.3887  0.3923  0.1202
31107CL      CL94720   7.949   7.234   2.805 -0.1530 -0.1707 -0.1641
31108CL      CL94721   6.787   1.372   0.456  0.1969 -0.5688 -0.0079
31109CL      CL94722   3.621   3.425   2.433  0.2090 -0.4334 -0.4118
31110CL      CL94723   4.405   5.030   1.540  0.0065 -0.0342 -0.0633
31111CL      CL94724   2.095   3.085   9.580  0.0571  0.0934  0.1564
31112CL      CL94725   3.078   5.970   0.390  0.2336  0.1059  0.1318
31113CL      CL94726   2.138   7.315   7.923 -0.1854  0.4039 -0.0614
31114CL      CL94727   6.059   5.625   0.227 -0.2035  0.3569 -0.2282
31115CL      CL94728   9.148   4.338   5.367  0.2281  0.2385 -0.1765
31116CL      CL94729   9.812   7.427   7.264 -0.0242  0.2109 -0.1531
31117CL      CL94730   9.547   3.148   9.688  0.3658  0.3975  0.1390
31118CL      CL94731   9.548   0.644   5.612  0.0702 -0.0057 -0.3224
31119CL      CL94732   4.367   0.867   4.241 -0.1122 -0.1209  0.2545
31120CL      CL94733   6.867   2.111   1.681  0.4157  0.0541 -0.1276
31121CL      CL94734   5.519   5.250   5.172  0.1973  0.4897  0.2093
31122CL      CL94735   4.677   1.468   2.384  0.3159 -0.0147  0.2260
31123CL      CL94736   7.300   0.879   1.352  0.2084  0.0508 -0.2127
31124CL      CL94737   6.323   4.995   7.799 -0.3509  0.0484  0.1151
31125CL      CL94738   7.569   1.087   2.540 -0.3989 -0.1052  0.0854
31126CL      CL94739   1.593   5.303   1.047 -0.0822  0.3308 -0.1759
31127CL      CL94740   2.955   0.950   1.023 -0.1826 -0.1840 -0.0718
31128CL      CL94741   8.634   6.666   1.684  0.2252  0.0755  0.3488
31129CL      CL94742   9.161   1.981   4.835  0.0299 -0.1639 -0.3990
31130CL      CL94743   7.481   3.053   0.132 -0.1888 -0.4418 -0.1941
31131CL      CL94744   2.033   8.108   6.214 -0.0465  0.1377  0.1511
31132CL      CL94745   5.931   8.087   5.274 -0.0986  0.0956 -0.1428
31133CL      CL94746   6.559   1.065   8.349 -0.2793  0.1404 -0.1811
31134CL      CL94747   5.921   1.302   2.168  0.2579  0.7516  0.1262
31135CL      CL94748   9.511   0.668   1.982 -0.3263  0.4489 -0.0002
31136CL      CL94749   4.288   5.713   2.785 -0.3907 -0.0402  0.2022
31137CL      CL94750   4.266   1.439   0.439 -0.0837  0.1049  0.0309
31138CL      CL94751   5.688   2.761   0.853  0.1332  0.1536  0.2135
31139CL      CL94752   5.745   3.287   9.712  0.5845  0.0576  0.0922
31140CL      CL94753   7.588   6.533   0.184 -0.5603 -0.1403 -0.4664
31141CL      CL94754   2.778   1.425   7.650 -0.2810 -0.2486 -0.3620
31142CL      CL94755   9.316   7.161   4.952  0.4193 -0.1527 -0.5377
31143CL      CL94756   6.391   0.463   1.327 -0.0488 -0.1833 -0.4447
31144CL      CL94757   5.296   2.208   2.992 -0.1968  0.2224  0.1072
31145CL      CL94758   0.795   3.976   2.853  0.2450 -0.4310 -0.2254
31146CL      CL94759   0.294   8.393   7.463  0.0154 -0.0482  0.0370
31147CL      CL94760   1.184   0.566   3.229 -0.3457 -0.1411 -0.0953
31148CL      CL94761   8.075   3.724   9.736 -0.0106  0.0112 -0.1613
31149CL      CL94762   5.735   1.425   1.341  0.3767  0.1546 -0.3440
31150CL      CL94763   1.753   8.823   7.153 -0.2304  0.1003 -0.0362
31151CL      CL94764   4.211   1.375   8.280 -0.2920  0.0900 -0.1978
31152CL      CL94765   4.861   7.568   4.347  0.2914  0.0003  0.2815
31153CL      CL94766   5.095   2.263   3.790  0.5479  0.0232 -0.5125
31154CL      CL94767   0.770   1.146   0.292  0.1539 -0.1424 -0.1464
31155CL      CL94768   0.545   7.788   3.252 -0.2758  0.3860  0.0093
31156CL      CL94769   2.288   7.654   0.050 -0.0191  0.7436 -0.2135
31157CL      CL94770   3.650   5.551   6.497  0.0645 -0.0365 -0.1591
31158CL      CL94771   8.401   0.313   6.123 -0.4261  0.0298 -0.1992
31159CL      CL94772   9.699   1.930   2.852 -0.4203 -0.2276  0.1352
31160CL      CL94773   5.282   1.911   8.038 -0.1506  0.0550  0.4722
31161CL      CL94774   5.292   3.987   2.008 -0.0636 -0.0052 -0.0531
31162CL      CL94775   6.073   6.580   7.225 -0.1341 -0.1983 -0.0725
31163CL      CL94776   6.114   6.267   1.984  0.0225  0.0077  0.0171
31164CL      CL94777   0.571   5.151   0.108 -0.2923 -0.2108  0.2255
31165CL      CL94778   8.870   1.301   2.397  0.0766  0.3478  0.0887
31166CL      CL94779   2.302   9.019   1.515 -0.4192 -0.1953 -0.2126
31167CL      CL94780   4.754   1.217   8.747 -0.0925 -0.3744 -0.1995
31168CL      CL94781   3.787   7.261   2.046 -0.3260  0.1092 -0.3861
31169CL      CL94782   7.084   1.502   7.161 -0.1073  0.1021 -0.1023
31170CL      CL94783   7.933   5.013   9.755 -0.4181 -0.0332  0.2288
31171CL      CL94784   1.189   9.733   1.020 -0.3398 -0.0158 -0.1343
31172CL      CL94785   3.724   3.558   0.876 -0.3887 -0.1662 -0.0157
31173CL      CL94786   6.424   3.470   4.338 -0.1750  0.2365  0.3474
31174CL      CL94787   8.511   1.909   3.933  0.3028  0.3085 -0.4561
31175CL      CL94788   5.262   2.087   8.759  0.0234 -0.1090 -0.6189
31176CL      CL94789   6.490   3.045   1.141 -0.0440 -0.1926 -0.6516
31177CL      CL94790   3.519   9.267   0.170 -0.1437  0.1633 -0.0348
31178CL      CL94791   1.051   2.458   0.463 -0.2181  0.4968 -0.1599
31179CL      CL94792   2.657   5.143   1.280  0.2124  0.4298  0.1621
31180CL      CL94793   5.877   5.913   1.853  0.0769  0.1480  0.1085
31181CL      CL94794   6.183   2.120   0.259  0.1245  0.0845 -0.0270
31182CL      CL94795   3.719   1.712   7.830 -0.1049  0.0177  0.3455
31183CL      CL94796   3.594   9.690   4.956  0.5037  0.0389 -0.0347
31184CL      CL94797   8.385   9.048   8.066 -0.0660  0.0206  0.2560
31185CL      CL94798   6.155   3.192   1.879  0.2981 -0.3513  0.2464
31186CL      CL94799   6.925   0.821   6.023 -0.0704  0.3339 -0.1613
31187CL      CL94800   3.922   4.556   5.792 -0.2074 -0.0398  0.4909
31188CL      CL94801   7.062   4.480   1.897 -0.2810  0.1889  0.2750
31189CL      CL94802   7.020   6.444   9.449  0.4382 -0.2759  0.2557
31190CL      CL94803   2.668   1.852   4.279 -0.3983  0.0515 -0.0763
   9.84956   9.84956   9.84956
