;
;   File g1.5dp_cooh_pamam.itp  was generated
;   By user: sairam (1000)
;   On host: sairam
;   At date: Tue. February  2 11:11:42 2025
;
;   This is a standalone topology file
;
;   Created by:
;   ParmEd:       amb2gro_top_gro.py, VERSION 3.4.1
;   Executable:   amb2gro_top_gro.py
;   Library dir:  /usr/local/gromacs/share/gromacs/top
;   Command line:
;     ./amb2gro_top_gro.py -p g1.5dp_cooh_pamam.prmtop -c g1.5dp_cooh_pamam.inpcrd -t g1.5dp_cooh_pamam.itp -g g1.5dp_cooh_pamam.gro -b g1.5dp_cooh_pamam.pdb
;

;[ defaults ]
;; nbfunc        comb-rule       gen-pairs       fudgeLJ fudgeQQ
;1               2               yes             0.5          0.83333333  
;
;[ atomtypes ]
;; name    at.num    mass    charge ptype  sigma      epsilon
;n4             7  14.010000  0.00000000  A     0.32499985        0.71128
;c3             6  12.010000  0.00000000  A     0.33996695      0.4577296
;c              6  12.010000  0.00000000  A     0.33996695       0.359824
;o              8  16.000000  0.00000000  A     0.29599219        0.87864
;hx             1   1.008000  0.00000000  A     0.19599772      0.0656888
;hc             1   1.008000  0.00000000  A     0.26495328      0.0656888
;hn             1   1.008000  0.00000000  A     0.10690785      0.0656888
;n              7  14.010000  0.00000000  A     0.32499985        0.71128
;h1             1   1.008000  0.00000000  A      0.2471353      0.0656888
;oh             8  16.000000  0.00000000  A     0.30664734      0.8803136
;ho             1   1.008000  0.00000000  A              0              0


[ moleculetype ]
; Name            nrexcl
g1.5dp_cooh_pamam        3

[ atoms ]
;   nr       type  resnr residue  atom   cgnr    charge       mass  typeB    chargeB      massB
; residue    1 aaa rtp aaa q 2.0
    1         n4      1    aaa     N1      1 -0.01815100  14.010000   ; qtot -0.018151
    2         c3      1    aaa     C1      2 0.01243000  12.010000   ; qtot -0.005721
    3         c3      1    aaa     C2      3 0.01243000  12.010000   ; qtot 0.006709
    4         n4      1    aaa     N2      4 -0.01815100  14.010000   ; qtot -0.011442
    5         c3      1    aaa     C3      5 -0.01431700  12.010000   ; qtot -0.025759
    6         c3      1    aaa     C4      6 -0.01431700  12.010000   ; qtot -0.040076
    7         c3      1    aaa     C5      7 -0.01431700  12.010000   ; qtot -0.054393
    8         c3      1    aaa     C6      8 -0.01431700  12.010000   ; qtot -0.068710
    9         c3      1    aaa     C7      9 -0.26758200  12.010000   ; qtot -0.336292
   10          c      1    aaa     C8     10 0.71337400  12.010000   ; qtot 0.377082
   11         c3      1    aaa     C9     11 -0.26758200  12.010000   ; qtot 0.109500
   12          c      1    aaa    C10     12 0.71337400  12.010000   ; qtot 0.822874
   13         c3      1    aaa    C11     13 -0.26758200  12.010000   ; qtot 0.555292
   14          c      1    aaa    C12     14 0.71337400  12.010000   ; qtot 1.268666
   15         c3      1    aaa    C13     15 -0.26758200  12.010000   ; qtot 1.001084
   16          c      1    aaa    C14     16 0.71337400  12.010000   ; qtot 1.714458
   17          o      1    aaa     O1     17 -0.55531800  16.000000   ; qtot 1.159140
   18          o      1    aaa     O2     18 -0.55531800  16.000000   ; qtot 0.603822
   19          o      1    aaa     O3     19 -0.55531800  16.000000   ; qtot 0.048504
   20          o      1    aaa     O4     20 -0.55531800  16.000000   ; qtot -0.506814
   21         hx      1    aaa     H1     21 0.08276100   1.008000   ; qtot -0.424053
   22         hx      1    aaa     H2     22 0.08276100   1.008000   ; qtot -0.341292
   23         hx      1    aaa     H3     23 0.08276100   1.008000   ; qtot -0.258531
   24         hx      1    aaa     H4     24 0.08276100   1.008000   ; qtot -0.175770
   25         hx      1    aaa     H5     25 0.10467000   1.008000   ; qtot -0.071100
   26         hx      1    aaa     H6     26 0.10467000   1.008000   ; qtot 0.033570
   27         hx      1    aaa     H7     27 0.10467000   1.008000   ; qtot 0.138240
   28         hx      1    aaa     H8     28 0.10467000   1.008000   ; qtot 0.242910
   29         hx      1    aaa     H9     29 0.10467000   1.008000   ; qtot 0.347580
   30         hx      1    aaa    H10     30 0.10467000   1.008000   ; qtot 0.452250
   31         hx      1    aaa    H11     31 0.10467000   1.008000   ; qtot 0.556920
   32         hx      1    aaa    H12     32 0.10467000   1.008000   ; qtot 0.661590
   33         hc      1    aaa    H13     33 0.11830200   1.008000   ; qtot 0.779892
   34         hc      1    aaa    H14     34 0.11830200   1.008000   ; qtot 0.898194
   35         hc      1    aaa    H15     35 0.11830200   1.008000   ; qtot 1.016496
   36         hc      1    aaa    H16     36 0.11830200   1.008000   ; qtot 1.134798
   37         hc      1    aaa    H17     37 0.11830200   1.008000   ; qtot 1.253100
   38         hc      1    aaa    H18     38 0.11830200   1.008000   ; qtot 1.371402
   39         hc      1    aaa    H19     39 0.11830200   1.008000   ; qtot 1.489704
   40         hc      1    aaa    H20     40 0.11830200   1.008000   ; qtot 1.608006
   41         hn      1    aaa    H37     41 0.19599700   1.008000   ; qtot 1.804003
   42         hn      1    aaa    H38     42 0.19599700   1.008000   ; qtot 2.000000
; residue    2 bbb rtp bbb q 1.0
   43         n4      2    bbb     N1     43 -0.02747900  14.010000   ; qtot 1.972521
   44         c3      2    bbb     C1     44 -0.05097600  12.010000   ; qtot 1.921545
   45         c3      2    bbb     C2     45 -0.05097600  12.010000   ; qtot 1.870569
   46         c3      2    bbb     C3     46 -0.18457900  12.010000   ; qtot 1.685990
   47          c      2    bbb     C4     47 0.67254400  12.010000   ; qtot 2.358534
   48         c3      2    bbb     C5     48 -0.18457900  12.010000   ; qtot 2.173955
   49          c      2    bbb     C6     49 0.67254400  12.010000   ; qtot 2.846499
   50         c3      2    bbb     C7     50 -0.02083000  12.010000   ; qtot 2.825669
   51         c3      2    bbb     C8     51 -0.03328100  12.010000   ; qtot 2.792388
   52          n      2    bbb     N2     52 -0.33303000  14.010000   ; qtot 2.459358
   53          o      2    bbb     O1     53 -0.52917200  16.000000   ; qtot 1.930186
   54          o      2    bbb     O2     54 -0.52917200  16.000000   ; qtot 1.401014
   55         hx      2    bbb     H1     55 0.11563300   1.008000   ; qtot 1.516647
   56         hx      2    bbb     H2     56 0.11563300   1.008000   ; qtot 1.632280
   57         hx      2    bbb     H3     57 0.11563300   1.008000   ; qtot 1.747913
   58         hx      2    bbb     H4     58 0.11563300   1.008000   ; qtot 1.863546
   59         hc      2    bbb     H5     59 0.08347900   1.008000   ; qtot 1.947025
   60         hc      2    bbb     H6     60 0.08347900   1.008000   ; qtot 2.030504
   61         hc      2    bbb     H7     61 0.08347900   1.008000   ; qtot 2.113983
   62         hc      2    bbb     H8     62 0.08347900   1.008000   ; qtot 2.197462
   63         hx      2    bbb     H9     63 0.07988000   1.008000   ; qtot 2.277342
   64         hx      2    bbb    H10     64 0.07988000   1.008000   ; qtot 2.357222
   65         h1      2    bbb    H11     65 0.10618100   1.008000   ; qtot 2.463403
   66         h1      2    bbb    H12     66 0.10618100   1.008000   ; qtot 2.569584
   67         hn      2    bbb    H13     67 0.25916100   1.008000   ; qtot 2.828745
   68         hn      2    bbb    H25     68 0.17125500   1.008000   ; qtot 3.000000
; residue    3 bbb rtp bbb q 1.0
   69         n4      3    bbb     N1     69 -0.02747900  14.010000   ; qtot 2.972521
   70         c3      3    bbb     C1     70 -0.05097600  12.010000   ; qtot 2.921545
   71         c3      3    bbb     C2     71 -0.05097600  12.010000   ; qtot 2.870569
   72         c3      3    bbb     C3     72 -0.18457900  12.010000   ; qtot 2.685990
   73          c      3    bbb     C4     73 0.67254400  12.010000   ; qtot 3.358534
   74         c3      3    bbb     C5     74 -0.18457900  12.010000   ; qtot 3.173955
   75          c      3    bbb     C6     75 0.67254400  12.010000   ; qtot 3.846499
   76         c3      3    bbb     C7     76 -0.02083000  12.010000   ; qtot 3.825669
   77         c3      3    bbb     C8     77 -0.03328100  12.010000   ; qtot 3.792388
   78          n      3    bbb     N2     78 -0.33303000  14.010000   ; qtot 3.459358
   79          o      3    bbb     O1     79 -0.52917200  16.000000   ; qtot 2.930186
   80          o      3    bbb     O2     80 -0.52917200  16.000000   ; qtot 2.401014
   81         hx      3    bbb     H1     81 0.11563300   1.008000   ; qtot 2.516647
   82         hx      3    bbb     H2     82 0.11563300   1.008000   ; qtot 2.632280
   83         hx      3    bbb     H3     83 0.11563300   1.008000   ; qtot 2.747913
   84         hx      3    bbb     H4     84 0.11563300   1.008000   ; qtot 2.863546
   85         hc      3    bbb     H5     85 0.08347900   1.008000   ; qtot 2.947025
   86         hc      3    bbb     H6     86 0.08347900   1.008000   ; qtot 3.030504
   87         hc      3    bbb     H7     87 0.08347900   1.008000   ; qtot 3.113983
   88         hc      3    bbb     H8     88 0.08347900   1.008000   ; qtot 3.197462
   89         hx      3    bbb     H9     89 0.07988000   1.008000   ; qtot 3.277342
   90         hx      3    bbb    H10     90 0.07988000   1.008000   ; qtot 3.357222
   91         h1      3    bbb    H11     91 0.10618100   1.008000   ; qtot 3.463403
   92         h1      3    bbb    H12     92 0.10618100   1.008000   ; qtot 3.569584
   93         hn      3    bbb    H13     93 0.25916100   1.008000   ; qtot 3.828745
   94         hn      3    bbb    H25     94 0.17125500   1.008000   ; qtot 4.000000
; residue    4 bbb rtp bbb q 1.0
   95         n4      4    bbb     N1     95 -0.02747900  14.010000   ; qtot 3.972521
   96         c3      4    bbb     C1     96 -0.05097600  12.010000   ; qtot 3.921545
   97         c3      4    bbb     C2     97 -0.05097600  12.010000   ; qtot 3.870569
   98         c3      4    bbb     C3     98 -0.18457900  12.010000   ; qtot 3.685990
   99          c      4    bbb     C4     99 0.67254400  12.010000   ; qtot 4.358534
  100         c3      4    bbb     C5    100 -0.18457900  12.010000   ; qtot 4.173955
  101          c      4    bbb     C6    101 0.67254400  12.010000   ; qtot 4.846499
  102         c3      4    bbb     C7    102 -0.02083000  12.010000   ; qtot 4.825669
  103         c3      4    bbb     C8    103 -0.03328100  12.010000   ; qtot 4.792388
  104          n      4    bbb     N2    104 -0.33303000  14.010000   ; qtot 4.459358
  105          o      4    bbb     O1    105 -0.52917200  16.000000   ; qtot 3.930186
  106          o      4    bbb     O2    106 -0.52917200  16.000000   ; qtot 3.401014
  107         hx      4    bbb     H1    107 0.11563300   1.008000   ; qtot 3.516647
  108         hx      4    bbb     H2    108 0.11563300   1.008000   ; qtot 3.632280
  109         hx      4    bbb     H3    109 0.11563300   1.008000   ; qtot 3.747913
  110         hx      4    bbb     H4    110 0.11563300   1.008000   ; qtot 3.863546
  111         hc      4    bbb     H5    111 0.08347900   1.008000   ; qtot 3.947025
  112         hc      4    bbb     H6    112 0.08347900   1.008000   ; qtot 4.030504
  113         hc      4    bbb     H7    113 0.08347900   1.008000   ; qtot 4.113983
  114         hc      4    bbb     H8    114 0.08347900   1.008000   ; qtot 4.197462
  115         hx      4    bbb     H9    115 0.07988000   1.008000   ; qtot 4.277342
  116         hx      4    bbb    H10    116 0.07988000   1.008000   ; qtot 4.357222
  117         h1      4    bbb    H11    117 0.10618100   1.008000   ; qtot 4.463403
  118         h1      4    bbb    H12    118 0.10618100   1.008000   ; qtot 4.569584
  119         hn      4    bbb    H13    119 0.25916100   1.008000   ; qtot 4.828745
  120         hn      4    bbb    H25    120 0.17125500   1.008000   ; qtot 5.000000
; residue    5 bbb rtp bbb q 1.0
  121         n4      5    bbb     N1    121 -0.02747900  14.010000   ; qtot 4.972521
  122         c3      5    bbb     C1    122 -0.05097600  12.010000   ; qtot 4.921545
  123         c3      5    bbb     C2    123 -0.05097600  12.010000   ; qtot 4.870569
  124         c3      5    bbb     C3    124 -0.18457900  12.010000   ; qtot 4.685990
  125          c      5    bbb     C4    125 0.67254400  12.010000   ; qtot 5.358534
  126         c3      5    bbb     C5    126 -0.18457900  12.010000   ; qtot 5.173955
  127          c      5    bbb     C6    127 0.67254400  12.010000   ; qtot 5.846499
  128         c3      5    bbb     C7    128 -0.02083000  12.010000   ; qtot 5.825669
  129         c3      5    bbb     C8    129 -0.03328100  12.010000   ; qtot 5.792388
  130          n      5    bbb     N2    130 -0.33303000  14.010000   ; qtot 5.459358
  131          o      5    bbb     O1    131 -0.52917200  16.000000   ; qtot 4.930186
  132          o      5    bbb     O2    132 -0.52917200  16.000000   ; qtot 4.401014
  133         hx      5    bbb     H1    133 0.11563300   1.008000   ; qtot 4.516647
  134         hx      5    bbb     H2    134 0.11563300   1.008000   ; qtot 4.632280
  135         hx      5    bbb     H3    135 0.11563300   1.008000   ; qtot 4.747913
  136         hx      5    bbb     H4    136 0.11563300   1.008000   ; qtot 4.863546
  137         hc      5    bbb     H5    137 0.08347900   1.008000   ; qtot 4.947025
  138         hc      5    bbb     H6    138 0.08347900   1.008000   ; qtot 5.030504
  139         hc      5    bbb     H7    139 0.08347900   1.008000   ; qtot 5.113983
  140         hc      5    bbb     H8    140 0.08347900   1.008000   ; qtot 5.197462
  141         hx      5    bbb     H9    141 0.07988000   1.008000   ; qtot 5.277342
  142         hx      5    bbb    H10    142 0.07988000   1.008000   ; qtot 5.357222
  143         h1      5    bbb    H11    143 0.10618100   1.008000   ; qtot 5.463403
  144         h1      5    bbb    H12    144 0.10618100   1.008000   ; qtot 5.569584
  145         hn      5    bbb    H13    145 0.25916100   1.008000   ; qtot 5.828745
  146         hn      5    bbb    H25    146 0.17125500   1.008000   ; qtot 6.000000
; residue    6 ccc rtp ccc q 1.0
  147          n      6    ccc     N1    147 -0.56206700  14.010000   ; qtot 5.437933
  148         hn      6    ccc     H1    148 0.35233300   1.008000   ; qtot 5.790266
  149         c3      6    ccc     C1    149 0.10283300  12.010000   ; qtot 5.893099
  150         h1      6    ccc     H2    150 0.07153300   1.008000   ; qtot 5.964632
  151         c3      6    ccc     C2    151 0.07063300  12.010000   ; qtot 6.035265
  152         h1      6    ccc     H3    152 0.07153300   1.008000   ; qtot 6.106798
  153         hx      6    ccc     H4    153 0.11303300   1.008000   ; qtot 6.219831
  154         hx      6    ccc     H5    154 0.11303300   1.008000   ; qtot 6.332864
  155         n4      6    ccc     N2    155 -0.67056700  14.010000   ; qtot 5.662297
  156         c3      6    ccc     C3    156 0.10863300  12.010000   ; qtot 5.770930
  157         c3      6    ccc     C4    157 0.10863300  12.010000   ; qtot 5.879563
  158         hx      6    ccc     H6    158 0.12753300   1.008000   ; qtot 6.007096
  159         c3      6    ccc     C5    159 -0.20606700  12.010000   ; qtot 5.801029
  160         hx      6    ccc     H7    160 0.12753300   1.008000   ; qtot 5.928562
  161         hc      6    ccc     H8    161 0.10603300   1.008000   ; qtot 6.034595
  162         hc      6    ccc     H9    162 0.10603300   1.008000   ; qtot 6.140628
  163          c      6    ccc     C6    163 0.63793300  12.010000   ; qtot 6.778561
  164         oh      6    ccc     O1    164 -0.53626700  16.000000   ; qtot 6.242294
  165          o      6    ccc     O2    165 -0.48266700  16.000000   ; qtot 5.759627
  166         hx      6    ccc    H10    166 0.12753300   1.008000   ; qtot 5.887160
  167         hx      6    ccc    H11    167 0.12753300   1.008000   ; qtot 6.014693
  168         c3      6    ccc     C7    168 -0.20606700  12.010000   ; qtot 5.808626
  169         hc      6    ccc    H12    169 0.10603300   1.008000   ; qtot 5.914659
  170         hc      6    ccc    H13    170 0.10603300   1.008000   ; qtot 6.020692
  171          c      6    ccc     C8    171 0.63793300  12.010000   ; qtot 6.658625
  172          o      6    ccc     O3    172 -0.48266700  16.000000   ; qtot 6.175958
  173         oh      6    ccc     O4    173 -0.53626700  16.000000   ; qtot 5.639691
  174         ho      6    ccc    H14    174 0.45283300   1.008000   ; qtot 6.092524
  175         ho      6    ccc    H15    175 0.45283300   1.008000   ; qtot 6.545357
  176         hn      6    ccc    H16    176 0.45463300   1.008000   ; qtot 6.999990
; residue    7 ccc rtp ccc q 1.0
  177          n      7    ccc     N1    177 -0.56206700  14.010000   ; qtot 6.437923
  178         hn      7    ccc     H1    178 0.35233300   1.008000   ; qtot 6.790256
  179         c3      7    ccc     C1    179 0.10283300  12.010000   ; qtot 6.893089
  180         h1      7    ccc     H2    180 0.07153300   1.008000   ; qtot 6.964622
  181         c3      7    ccc     C2    181 0.07063300  12.010000   ; qtot 7.035255
  182         h1      7    ccc     H3    182 0.07153300   1.008000   ; qtot 7.106788
  183         hx      7    ccc     H4    183 0.11303300   1.008000   ; qtot 7.219821
  184         hx      7    ccc     H5    184 0.11303300   1.008000   ; qtot 7.332854
  185         n4      7    ccc     N2    185 -0.67056700  14.010000   ; qtot 6.662287
  186         c3      7    ccc     C3    186 0.10863300  12.010000   ; qtot 6.770920
  187         c3      7    ccc     C4    187 0.10863300  12.010000   ; qtot 6.879553
  188         hx      7    ccc     H6    188 0.12753300   1.008000   ; qtot 7.007086
  189         c3      7    ccc     C5    189 -0.20606700  12.010000   ; qtot 6.801019
  190         hx      7    ccc     H7    190 0.12753300   1.008000   ; qtot 6.928552
  191         hc      7    ccc     H8    191 0.10603300   1.008000   ; qtot 7.034585
  192         hc      7    ccc     H9    192 0.10603300   1.008000   ; qtot 7.140618
  193          c      7    ccc     C6    193 0.63793300  12.010000   ; qtot 7.778551
  194         oh      7    ccc     O1    194 -0.53626700  16.000000   ; qtot 7.242284
  195          o      7    ccc     O2    195 -0.48266700  16.000000   ; qtot 6.759617
  196         hx      7    ccc    H10    196 0.12753300   1.008000   ; qtot 6.887150
  197         hx      7    ccc    H11    197 0.12753300   1.008000   ; qtot 7.014683
  198         c3      7    ccc     C7    198 -0.20606700  12.010000   ; qtot 6.808616
  199         hc      7    ccc    H12    199 0.10603300   1.008000   ; qtot 6.914649
  200         hc      7    ccc    H13    200 0.10603300   1.008000   ; qtot 7.020682
  201          c      7    ccc     C8    201 0.63793300  12.010000   ; qtot 7.658615
  202          o      7    ccc     O3    202 -0.48266700  16.000000   ; qtot 7.175948
  203         oh      7    ccc     O4    203 -0.53626700  16.000000   ; qtot 6.639681
  204         ho      7    ccc    H14    204 0.45283300   1.008000   ; qtot 7.092514
  205         ho      7    ccc    H15    205 0.45283300   1.008000   ; qtot 7.545347
  206         hn      7    ccc    H16    206 0.45463300   1.008000   ; qtot 7.999980
; residue    8 ccc rtp ccc q 1.0
  207          n      8    ccc     N1    207 -0.56206700  14.010000   ; qtot 7.437913
  208         hn      8    ccc     H1    208 0.35233300   1.008000   ; qtot 7.790246
  209         c3      8    ccc     C1    209 0.10283300  12.010000   ; qtot 7.893079
  210         h1      8    ccc     H2    210 0.07153300   1.008000   ; qtot 7.964612
  211         c3      8    ccc     C2    211 0.07063300  12.010000   ; qtot 8.035245
  212         h1      8    ccc     H3    212 0.07153300   1.008000   ; qtot 8.106778
  213         hx      8    ccc     H4    213 0.11303300   1.008000   ; qtot 8.219811
  214         hx      8    ccc     H5    214 0.11303300   1.008000   ; qtot 8.332844
  215         n4      8    ccc     N2    215 -0.67056700  14.010000   ; qtot 7.662277
  216         c3      8    ccc     C3    216 0.10863300  12.010000   ; qtot 7.770910
  217         c3      8    ccc     C4    217 0.10863300  12.010000   ; qtot 7.879543
  218         hx      8    ccc     H6    218 0.12753300   1.008000   ; qtot 8.007076
  219         c3      8    ccc     C5    219 -0.20606700  12.010000   ; qtot 7.801009
  220         hx      8    ccc     H7    220 0.12753300   1.008000   ; qtot 7.928542
  221         hc      8    ccc     H8    221 0.10603300   1.008000   ; qtot 8.034575
  222         hc      8    ccc     H9    222 0.10603300   1.008000   ; qtot 8.140608
  223          c      8    ccc     C6    223 0.63793300  12.010000   ; qtot 8.778541
  224         oh      8    ccc     O1    224 -0.53626700  16.000000   ; qtot 8.242274
  225          o      8    ccc     O2    225 -0.48266700  16.000000   ; qtot 7.759607
  226         hx      8    ccc    H10    226 0.12753300   1.008000   ; qtot 7.887140
  227         hx      8    ccc    H11    227 0.12753300   1.008000   ; qtot 8.014673
  228         c3      8    ccc     C7    228 -0.20606700  12.010000   ; qtot 7.808606
  229         hc      8    ccc    H12    229 0.10603300   1.008000   ; qtot 7.914639
  230         hc      8    ccc    H13    230 0.10603300   1.008000   ; qtot 8.020672
  231          c      8    ccc     C8    231 0.63793300  12.010000   ; qtot 8.658605
  232          o      8    ccc     O3    232 -0.48266700  16.000000   ; qtot 8.175938
  233         oh      8    ccc     O4    233 -0.53626700  16.000000   ; qtot 7.639671
  234         ho      8    ccc    H14    234 0.45283300   1.008000   ; qtot 8.092504
  235         ho      8    ccc    H15    235 0.45283300   1.008000   ; qtot 8.545337
  236         hn      8    ccc    H16    236 0.45463300   1.008000   ; qtot 8.999970
; residue    9 ccc rtp ccc q 1.0
  237          n      9    ccc     N1    237 -0.56206700  14.010000   ; qtot 8.437903
  238         hn      9    ccc     H1    238 0.35233300   1.008000   ; qtot 8.790236
  239         c3      9    ccc     C1    239 0.10283300  12.010000   ; qtot 8.893069
  240         h1      9    ccc     H2    240 0.07153300   1.008000   ; qtot 8.964602
  241         c3      9    ccc     C2    241 0.07063300  12.010000   ; qtot 9.035235
  242         h1      9    ccc     H3    242 0.07153300   1.008000   ; qtot 9.106768
  243         hx      9    ccc     H4    243 0.11303300   1.008000   ; qtot 9.219801
  244         hx      9    ccc     H5    244 0.11303300   1.008000   ; qtot 9.332834
  245         n4      9    ccc     N2    245 -0.67056700  14.010000   ; qtot 8.662267
  246         c3      9    ccc     C3    246 0.10863300  12.010000   ; qtot 8.770900
  247         c3      9    ccc     C4    247 0.10863300  12.010000   ; qtot 8.879533
  248         hx      9    ccc     H6    248 0.12753300   1.008000   ; qtot 9.007066
  249         c3      9    ccc     C5    249 -0.20606700  12.010000   ; qtot 8.800999
  250         hx      9    ccc     H7    250 0.12753300   1.008000   ; qtot 8.928532
  251         hc      9    ccc     H8    251 0.10603300   1.008000   ; qtot 9.034565
  252         hc      9    ccc     H9    252 0.10603300   1.008000   ; qtot 9.140598
  253          c      9    ccc     C6    253 0.63793300  12.010000   ; qtot 9.778531
  254         oh      9    ccc     O1    254 -0.53626700  16.000000   ; qtot 9.242264
  255          o      9    ccc     O2    255 -0.48266700  16.000000   ; qtot 8.759597
  256         hx      9    ccc    H10    256 0.12753300   1.008000   ; qtot 8.887130
  257         hx      9    ccc    H11    257 0.12753300   1.008000   ; qtot 9.014663
  258         c3      9    ccc     C7    258 -0.20606700  12.010000   ; qtot 8.808596
  259         hc      9    ccc    H12    259 0.10603300   1.008000   ; qtot 8.914629
  260         hc      9    ccc    H13    260 0.10603300   1.008000   ; qtot 9.020662
  261          c      9    ccc     C8    261 0.63793300  12.010000   ; qtot 9.658595
  262          o      9    ccc     O3    262 -0.48266700  16.000000   ; qtot 9.175928
  263         oh      9    ccc     O4    263 -0.53626700  16.000000   ; qtot 8.639661
  264         ho      9    ccc    H14    264 0.45283300   1.008000   ; qtot 9.092494
  265         ho      9    ccc    H15    265 0.45283300   1.008000   ; qtot 9.545327
  266         hn      9    ccc    H16    266 0.45463300   1.008000   ; qtot 9.999960
; residue   10 ccc rtp ccc q 1.0
  267          n     10    ccc     N1    267 -0.56206700  14.010000   ; qtot 9.437893
  268         hn     10    ccc     H1    268 0.35233300   1.008000   ; qtot 9.790226
  269         c3     10    ccc     C1    269 0.10283300  12.010000   ; qtot 9.893059
  270         h1     10    ccc     H2    270 0.07153300   1.008000   ; qtot 9.964592
  271         c3     10    ccc     C2    271 0.07063300  12.010000   ; qtot 10.035225
  272         h1     10    ccc     H3    272 0.07153300   1.008000   ; qtot 10.106758
  273         hx     10    ccc     H4    273 0.11303300   1.008000   ; qtot 10.219791
  274         hx     10    ccc     H5    274 0.11303300   1.008000   ; qtot 10.332824
  275         n4     10    ccc     N2    275 -0.67056700  14.010000   ; qtot 9.662257
  276         c3     10    ccc     C3    276 0.10863300  12.010000   ; qtot 9.770890
  277         c3     10    ccc     C4    277 0.10863300  12.010000   ; qtot 9.879523
  278         hx     10    ccc     H6    278 0.12753300   1.008000   ; qtot 10.007056
  279         c3     10    ccc     C5    279 -0.20606700  12.010000   ; qtot 9.800989
  280         hx     10    ccc     H7    280 0.12753300   1.008000   ; qtot 9.928522
  281         hc     10    ccc     H8    281 0.10603300   1.008000   ; qtot 10.034555
  282         hc     10    ccc     H9    282 0.10603300   1.008000   ; qtot 10.140588
  283          c     10    ccc     C6    283 0.63793300  12.010000   ; qtot 10.778521
  284         oh     10    ccc     O1    284 -0.53626700  16.000000   ; qtot 10.242254
  285          o     10    ccc     O2    285 -0.48266700  16.000000   ; qtot 9.759587
  286         hx     10    ccc    H10    286 0.12753300   1.008000   ; qtot 9.887120
  287         hx     10    ccc    H11    287 0.12753300   1.008000   ; qtot 10.014653
  288         c3     10    ccc     C7    288 -0.20606700  12.010000   ; qtot 9.808586
  289         hc     10    ccc    H12    289 0.10603300   1.008000   ; qtot 9.914619
  290         hc     10    ccc    H13    290 0.10603300   1.008000   ; qtot 10.020652
  291          c     10    ccc     C8    291 0.63793300  12.010000   ; qtot 10.658585
  292          o     10    ccc     O3    292 -0.48266700  16.000000   ; qtot 10.175918
  293         oh     10    ccc     O4    293 -0.53626700  16.000000   ; qtot 9.639651
  294         ho     10    ccc    H14    294 0.45283300   1.008000   ; qtot 10.092484
  295         ho     10    ccc    H15    295 0.45283300   1.008000   ; qtot 10.545317
  296         hn     10    ccc    H16    296 0.45463300   1.008000   ; qtot 10.999950
; residue   11 ccc rtp ccc q 1.0
  297          n     11    ccc     N1    297 -0.56206700  14.010000   ; qtot 10.437883
  298         hn     11    ccc     H1    298 0.35233300   1.008000   ; qtot 10.790216
  299         c3     11    ccc     C1    299 0.10283300  12.010000   ; qtot 10.893049
  300         h1     11    ccc     H2    300 0.07153300   1.008000   ; qtot 10.964582
  301         c3     11    ccc     C2    301 0.07063300  12.010000   ; qtot 11.035215
  302         h1     11    ccc     H3    302 0.07153300   1.008000   ; qtot 11.106748
  303         hx     11    ccc     H4    303 0.11303300   1.008000   ; qtot 11.219781
  304         hx     11    ccc     H5    304 0.11303300   1.008000   ; qtot 11.332814
  305         n4     11    ccc     N2    305 -0.67056700  14.010000   ; qtot 10.662247
  306         c3     11    ccc     C3    306 0.10863300  12.010000   ; qtot 10.770880
  307         c3     11    ccc     C4    307 0.10863300  12.010000   ; qtot 10.879513
  308         hx     11    ccc     H6    308 0.12753300   1.008000   ; qtot 11.007046
  309         c3     11    ccc     C5    309 -0.20606700  12.010000   ; qtot 10.800979
  310         hx     11    ccc     H7    310 0.12753300   1.008000   ; qtot 10.928512
  311         hc     11    ccc     H8    311 0.10603300   1.008000   ; qtot 11.034545
  312         hc     11    ccc     H9    312 0.10603300   1.008000   ; qtot 11.140578
  313          c     11    ccc     C6    313 0.63793300  12.010000   ; qtot 11.778511
  314         oh     11    ccc     O1    314 -0.53626700  16.000000   ; qtot 11.242244
  315          o     11    ccc     O2    315 -0.48266700  16.000000   ; qtot 10.759577
  316         hx     11    ccc    H10    316 0.12753300   1.008000   ; qtot 10.887110
  317         hx     11    ccc    H11    317 0.12753300   1.008000   ; qtot 11.014643
  318         c3     11    ccc     C7    318 -0.20606700  12.010000   ; qtot 10.808576
  319         hc     11    ccc    H12    319 0.10603300   1.008000   ; qtot 10.914609
  320         hc     11    ccc    H13    320 0.10603300   1.008000   ; qtot 11.020642
  321          c     11    ccc     C8    321 0.63793300  12.010000   ; qtot 11.658575
  322          o     11    ccc     O3    322 -0.48266700  16.000000   ; qtot 11.175908
  323         oh     11    ccc     O4    323 -0.53626700  16.000000   ; qtot 10.639641
  324         ho     11    ccc    H14    324 0.45283300   1.008000   ; qtot 11.092474
  325         ho     11    ccc    H15    325 0.45283300   1.008000   ; qtot 11.545307
  326         hn     11    ccc    H16    326 0.45463300   1.008000   ; qtot 11.999940
; residue   12 ccc rtp ccc q 1.0
  327          n     12    ccc     N1    327 -0.56206700  14.010000   ; qtot 11.437873
  328         hn     12    ccc     H1    328 0.35233300   1.008000   ; qtot 11.790206
  329         c3     12    ccc     C1    329 0.10283300  12.010000   ; qtot 11.893039
  330         h1     12    ccc     H2    330 0.07153300   1.008000   ; qtot 11.964572
  331         c3     12    ccc     C2    331 0.07063300  12.010000   ; qtot 12.035205
  332         h1     12    ccc     H3    332 0.07153300   1.008000   ; qtot 12.106738
  333         hx     12    ccc     H4    333 0.11303300   1.008000   ; qtot 12.219771
  334         hx     12    ccc     H5    334 0.11303300   1.008000   ; qtot 12.332804
  335         n4     12    ccc     N2    335 -0.67056700  14.010000   ; qtot 11.662237
  336         c3     12    ccc     C3    336 0.10863300  12.010000   ; qtot 11.770870
  337         c3     12    ccc     C4    337 0.10863300  12.010000   ; qtot 11.879503
  338         hx     12    ccc     H6    338 0.12753300   1.008000   ; qtot 12.007036
  339         c3     12    ccc     C5    339 -0.20606700  12.010000   ; qtot 11.800969
  340         hx     12    ccc     H7    340 0.12753300   1.008000   ; qtot 11.928502
  341         hc     12    ccc     H8    341 0.10603300   1.008000   ; qtot 12.034535
  342         hc     12    ccc     H9    342 0.10603300   1.008000   ; qtot 12.140568
  343          c     12    ccc     C6    343 0.63793300  12.010000   ; qtot 12.778501
  344         oh     12    ccc     O1    344 -0.53626700  16.000000   ; qtot 12.242234
  345          o     12    ccc     O2    345 -0.48266700  16.000000   ; qtot 11.759567
  346         hx     12    ccc    H10    346 0.12753300   1.008000   ; qtot 11.887100
  347         hx     12    ccc    H11    347 0.12753300   1.008000   ; qtot 12.014633
  348         c3     12    ccc     C7    348 -0.20606700  12.010000   ; qtot 11.808566
  349         hc     12    ccc    H12    349 0.10603300   1.008000   ; qtot 11.914599
  350         hc     12    ccc    H13    350 0.10603300   1.008000   ; qtot 12.020632
  351          c     12    ccc     C8    351 0.63793300  12.010000   ; qtot 12.658565
  352          o     12    ccc     O3    352 -0.48266700  16.000000   ; qtot 12.175898
  353         oh     12    ccc     O4    353 -0.53626700  16.000000   ; qtot 11.639631
  354         ho     12    ccc    H14    354 0.45283300   1.008000   ; qtot 12.092464
  355         ho     12    ccc    H15    355 0.45283300   1.008000   ; qtot 12.545297
  356         hn     12    ccc    H16    356 0.45463300   1.008000   ; qtot 12.999930
; residue   13 ccc rtp ccc q 1.0
  357          n     13    ccc     N1    357 -0.56206700  14.010000   ; qtot 12.437863
  358         hn     13    ccc     H1    358 0.35233300   1.008000   ; qtot 12.790196
  359         c3     13    ccc     C1    359 0.10283300  12.010000   ; qtot 12.893029
  360         h1     13    ccc     H2    360 0.07153300   1.008000   ; qtot 12.964562
  361         c3     13    ccc     C2    361 0.07063300  12.010000   ; qtot 13.035195
  362         h1     13    ccc     H3    362 0.07153300   1.008000   ; qtot 13.106728
  363         hx     13    ccc     H4    363 0.11303300   1.008000   ; qtot 13.219761
  364         hx     13    ccc     H5    364 0.11303300   1.008000   ; qtot 13.332794
  365         n4     13    ccc     N2    365 -0.67056700  14.010000   ; qtot 12.662227
  366         c3     13    ccc     C3    366 0.10863300  12.010000   ; qtot 12.770860
  367         c3     13    ccc     C4    367 0.10863300  12.010000   ; qtot 12.879493
  368         hx     13    ccc     H6    368 0.12753300   1.008000   ; qtot 13.007026
  369         c3     13    ccc     C5    369 -0.20606700  12.010000   ; qtot 12.800959
  370         hx     13    ccc     H7    370 0.12753300   1.008000   ; qtot 12.928492
  371         hc     13    ccc     H8    371 0.10603300   1.008000   ; qtot 13.034525
  372         hc     13    ccc     H9    372 0.10603300   1.008000   ; qtot 13.140558
  373          c     13    ccc     C6    373 0.63793300  12.010000   ; qtot 13.778491
  374         oh     13    ccc     O1    374 -0.53626700  16.000000   ; qtot 13.242224
  375          o     13    ccc     O2    375 -0.48266700  16.000000   ; qtot 12.759557
  376         hx     13    ccc    H10    376 0.12753300   1.008000   ; qtot 12.887090
  377         hx     13    ccc    H11    377 0.12753300   1.008000   ; qtot 13.014623
  378         c3     13    ccc     C7    378 -0.20606700  12.010000   ; qtot 12.808556
  379         hc     13    ccc    H12    379 0.10603300   1.008000   ; qtot 12.914589
  380         hc     13    ccc    H13    380 0.10603300   1.008000   ; qtot 13.020622
  381          c     13    ccc     C8    381 0.63793300  12.010000   ; qtot 13.658555
  382          o     13    ccc     O3    382 -0.48266700  16.000000   ; qtot 13.175888
  383         oh     13    ccc     O4    383 -0.53626700  16.000000   ; qtot 12.639621
  384         ho     13    ccc    H14    384 0.45283300   1.008000   ; qtot 13.092454
  385         ho     13    ccc    H15    385 0.45283300   1.008000   ; qtot 13.545287
  386         hn     13    ccc    H16    386 0.45463300   1.008000   ; qtot 13.999920

[ bonds ]
;    ai     aj funct         c0         c1         c2         c3
      1      2     1   0.15110 237065.440000
      1      7     1   0.15110 237065.440000
      1      8     1   0.15110 237065.440000
      2      3     1   0.15375 251793.120000
      3      4     1   0.15110 237065.440000
      4      5     1   0.15110 237065.440000
      4      6     1   0.15110 237065.440000
      5     11     1   0.15375 251793.120000
      6      9     1   0.15375 251793.120000
      7     13     1   0.15375 251793.120000
      8     15     1   0.15375 251793.120000
      9     10     1   0.15241 261918.400000
     10     18     1   0.12183 533627.360000
     10     52     1   0.13789 357815.680000
     11     12     1   0.15241 261918.400000
     12     17     1   0.12183 533627.360000
     12     78     1   0.13789 357815.680000
     13     14     1   0.15241 261918.400000
     14     20     1   0.12183 533627.360000
     14    104     1   0.13789 357815.680000
     15     16     1   0.15241 261918.400000
     16     19     1   0.12183 533627.360000
     16    130     1   0.13789 357815.680000
     43     44     1   0.15110 237065.440000
     43     45     1   0.15110 237065.440000
     43     50     1   0.15110 237065.440000
     44     46     1   0.15375 251793.120000
     45     48     1   0.15375 251793.120000
     46     47     1   0.15241 261918.400000
     47    147     1   0.13789 357815.680000
     47     53     1   0.12183 533627.360000
     48     49     1   0.15241 261918.400000
     49     54     1   0.12183 533627.360000
     49    177     1   0.13789 357815.680000
     50     51     1   0.15375 251793.120000
     51     52     1   0.14619 275056.160000
     69     70     1   0.15110 237065.440000
     69     71     1   0.15110 237065.440000
     69     76     1   0.15110 237065.440000
     70     72     1   0.15375 251793.120000
     71     74     1   0.15375 251793.120000
     72     73     1   0.15241 261918.400000
     73    207     1   0.13789 357815.680000
     73     79     1   0.12183 533627.360000
     74     75     1   0.15241 261918.400000
     75     80     1   0.12183 533627.360000
     75    237     1   0.13789 357815.680000
     76     77     1   0.15375 251793.120000
     77     78     1   0.14619 275056.160000
     95     96     1   0.15110 237065.440000
     95     97     1   0.15110 237065.440000
     95    102     1   0.15110 237065.440000
     96     98     1   0.15375 251793.120000
     97    100     1   0.15375 251793.120000
     98     99     1   0.15241 261918.400000
     99    267     1   0.13789 357815.680000
     99    105     1   0.12183 533627.360000
    100    101     1   0.15241 261918.400000
    101    106     1   0.12183 533627.360000
    101    297     1   0.13789 357815.680000
    102    103     1   0.15375 251793.120000
    103    104     1   0.14619 275056.160000
    121    122     1   0.15110 237065.440000
    121    123     1   0.15110 237065.440000
    121    128     1   0.15110 237065.440000
    122    124     1   0.15375 251793.120000
    123    126     1   0.15375 251793.120000
    124    125     1   0.15241 261918.400000
    125    327     1   0.13789 357815.680000
    125    131     1   0.12183 533627.360000
    126    127     1   0.15241 261918.400000
    127    357     1   0.13789 357815.680000
    127    132     1   0.12183 533627.360000
    128    129     1   0.15375 251793.120000
    129    130     1   0.14619 275056.160000
    147    149     1   0.14619 275056.160000
    149    151     1   0.15375 251793.120000
    151    155     1   0.15110 237065.440000
    155    156     1   0.15110 237065.440000
    155    157     1   0.15110 237065.440000
    156    168     1   0.15375 251793.120000
    157    159     1   0.15375 251793.120000
    159    163     1   0.15241 261918.400000
    163    164     1   0.13513 334803.680000
    163    165     1   0.12183 533627.360000
    168    171     1   0.15241 261918.400000
    171    172     1   0.12183 533627.360000
    171    173     1   0.13513 334803.680000
    177    179     1   0.14619 275056.160000
    179    181     1   0.15375 251793.120000
    181    185     1   0.15110 237065.440000
    185    186     1   0.15110 237065.440000
    185    187     1   0.15110 237065.440000
    186    198     1   0.15375 251793.120000
    187    189     1   0.15375 251793.120000
    189    193     1   0.15241 261918.400000
    193    194     1   0.13513 334803.680000
    193    195     1   0.12183 533627.360000
    198    201     1   0.15241 261918.400000
    201    202     1   0.12183 533627.360000
    201    203     1   0.13513 334803.680000
    207    209     1   0.14619 275056.160000
    209    211     1   0.15375 251793.120000
    211    215     1   0.15110 237065.440000
    215    216     1   0.15110 237065.440000
    215    217     1   0.15110 237065.440000
    216    228     1   0.15375 251793.120000
    217    219     1   0.15375 251793.120000
    219    223     1   0.15241 261918.400000
    223    224     1   0.13513 334803.680000
    223    225     1   0.12183 533627.360000
    228    231     1   0.15241 261918.400000
    231    232     1   0.12183 533627.360000
    231    233     1   0.13513 334803.680000
    237    239     1   0.14619 275056.160000
    239    241     1   0.15375 251793.120000
    241    245     1   0.15110 237065.440000
    245    246     1   0.15110 237065.440000
    245    247     1   0.15110 237065.440000
    246    258     1   0.15375 251793.120000
    247    249     1   0.15375 251793.120000
    249    253     1   0.15241 261918.400000
    253    254     1   0.13513 334803.680000
    253    255     1   0.12183 533627.360000
    258    261     1   0.15241 261918.400000
    261    262     1   0.12183 533627.360000
    261    263     1   0.13513 334803.680000
    267    269     1   0.14619 275056.160000
    269    271     1   0.15375 251793.120000
    271    275     1   0.15110 237065.440000
    275    276     1   0.15110 237065.440000
    275    277     1   0.15110 237065.440000
    276    288     1   0.15375 251793.120000
    277    279     1   0.15375 251793.120000
    279    283     1   0.15241 261918.400000
    283    284     1   0.13513 334803.680000
    283    285     1   0.12183 533627.360000
    288    291     1   0.15241 261918.400000
    291    292     1   0.12183 533627.360000
    291    293     1   0.13513 334803.680000
    297    299     1   0.14619 275056.160000
    299    301     1   0.15375 251793.120000
    301    305     1   0.15110 237065.440000
    305    306     1   0.15110 237065.440000
    305    307     1   0.15110 237065.440000
    306    318     1   0.15375 251793.120000
    307    309     1   0.15375 251793.120000
    309    313     1   0.15241 261918.400000
    313    314     1   0.13513 334803.680000
    313    315     1   0.12183 533627.360000
    318    321     1   0.15241 261918.400000
    321    322     1   0.12183 533627.360000
    321    323     1   0.13513 334803.680000
    327    329     1   0.14619 275056.160000
    329    331     1   0.15375 251793.120000
    331    335     1   0.15110 237065.440000
    335    336     1   0.15110 237065.440000
    335    337     1   0.15110 237065.440000
    336    348     1   0.15375 251793.120000
    337    339     1   0.15375 251793.120000
    339    343     1   0.15241 261918.400000
    343    344     1   0.13513 334803.680000
    343    345     1   0.12183 533627.360000
    348    351     1   0.15241 261918.400000
    351    352     1   0.12183 533627.360000
    351    353     1   0.13513 334803.680000
    357    359     1   0.14619 275056.160000
    359    361     1   0.15375 251793.120000
    361    365     1   0.15110 237065.440000
    365    366     1   0.15110 237065.440000
    365    367     1   0.15110 237065.440000
    366    378     1   0.15375 251793.120000
    367    369     1   0.15375 251793.120000
    369    373     1   0.15241 261918.400000
    373    374     1   0.13513 334803.680000
    373    375     1   0.12183 533627.360000
    378    381     1   0.15241 261918.400000
    381    382     1   0.12183 533627.360000
    381    383     1   0.13513 334803.680000
      1     41     1   0.10304 312293.760000
      2     21     1   0.10910 283424.160000
      2     22     1   0.10910 283424.160000
      3     23     1   0.10910 283424.160000
      3     24     1   0.10910 283424.160000
      4     42     1   0.10304 312293.760000
      5     25     1   0.10910 283424.160000
      5     26     1   0.10910 283424.160000
      6     27     1   0.10910 283424.160000
      6     28     1   0.10910 283424.160000
      7     29     1   0.10910 283424.160000
      7     30     1   0.10910 283424.160000
      8     31     1   0.10910 283424.160000
      8     32     1   0.10910 283424.160000
      9     33     1   0.10969 276646.080000
      9     34     1   0.10969 276646.080000
     11     35     1   0.10969 276646.080000
     11     36     1   0.10969 276646.080000
     13     37     1   0.10969 276646.080000
     13     38     1   0.10969 276646.080000
     15     39     1   0.10969 276646.080000
     15     40     1   0.10969 276646.080000
     43     68     1   0.10304 312293.760000
     44     55     1   0.10910 283424.160000
     44     56     1   0.10910 283424.160000
     45     57     1   0.10910 283424.160000
     45     58     1   0.10910 283424.160000
     46     59     1   0.10969 276646.080000
     46     60     1   0.10969 276646.080000
     48     61     1   0.10969 276646.080000
     48     62     1   0.10969 276646.080000
     50     63     1   0.10910 283424.160000
     50     64     1   0.10910 283424.160000
     51     65     1   0.10969 276646.080000
     51     66     1   0.10969 276646.080000
     52     67     1   0.10129 337397.760000
     69     94     1   0.10304 312293.760000
     70     81     1   0.10910 283424.160000
     70     82     1   0.10910 283424.160000
     71     83     1   0.10910 283424.160000
     71     84     1   0.10910 283424.160000
     72     85     1   0.10969 276646.080000
     72     86     1   0.10969 276646.080000
     74     87     1   0.10969 276646.080000
     74     88     1   0.10969 276646.080000
     76     89     1   0.10910 283424.160000
     76     90     1   0.10910 283424.160000
     77     91     1   0.10969 276646.080000
     77     92     1   0.10969 276646.080000
     78     93     1   0.10129 337397.760000
     95    120     1   0.10304 312293.760000
     96    107     1   0.10910 283424.160000
     96    108     1   0.10910 283424.160000
     97    109     1   0.10910 283424.160000
     97    110     1   0.10910 283424.160000
     98    111     1   0.10969 276646.080000
     98    112     1   0.10969 276646.080000
    100    113     1   0.10969 276646.080000
    100    114     1   0.10969 276646.080000
    102    115     1   0.10910 283424.160000
    102    116     1   0.10910 283424.160000
    103    117     1   0.10969 276646.080000
    103    118     1   0.10969 276646.080000
    104    119     1   0.10129 337397.760000
    121    146     1   0.10304 312293.760000
    122    133     1   0.10910 283424.160000
    122    134     1   0.10910 283424.160000
    123    135     1   0.10910 283424.160000
    123    136     1   0.10910 283424.160000
    124    137     1   0.10969 276646.080000
    124    138     1   0.10969 276646.080000
    126    139     1   0.10969 276646.080000
    126    140     1   0.10969 276646.080000
    128    141     1   0.10910 283424.160000
    128    142     1   0.10910 283424.160000
    129    143     1   0.10969 276646.080000
    129    144     1   0.10969 276646.080000
    130    145     1   0.10129 337397.760000
    147    148     1   0.10129 337397.760000
    149    150     1   0.10969 276646.080000
    149    152     1   0.10969 276646.080000
    151    153     1   0.10910 283424.160000
    151    154     1   0.10910 283424.160000
    155    176     1   0.10304 312293.760000
    156    166     1   0.10910 283424.160000
    156    167     1   0.10910 283424.160000
    157    158     1   0.10910 283424.160000
    157    160     1   0.10910 283424.160000
    159    161     1   0.10969 276646.080000
    159    162     1   0.10969 276646.080000
    164    174     1   0.09730 310787.520000
    168    169     1   0.10969 276646.080000
    168    170     1   0.10969 276646.080000
    173    175     1   0.09730 310787.520000
    177    178     1   0.10129 337397.760000
    179    180     1   0.10969 276646.080000
    179    182     1   0.10969 276646.080000
    181    183     1   0.10910 283424.160000
    181    184     1   0.10910 283424.160000
    185    206     1   0.10304 312293.760000
    186    196     1   0.10910 283424.160000
    186    197     1   0.10910 283424.160000
    187    188     1   0.10910 283424.160000
    187    190     1   0.10910 283424.160000
    189    191     1   0.10969 276646.080000
    189    192     1   0.10969 276646.080000
    194    204     1   0.09730 310787.520000
    198    199     1   0.10969 276646.080000
    198    200     1   0.10969 276646.080000
    203    205     1   0.09730 310787.520000
    207    208     1   0.10129 337397.760000
    209    210     1   0.10969 276646.080000
    209    212     1   0.10969 276646.080000
    211    213     1   0.10910 283424.160000
    211    214     1   0.10910 283424.160000
    215    236     1   0.10304 312293.760000
    216    226     1   0.10910 283424.160000
    216    227     1   0.10910 283424.160000
    217    218     1   0.10910 283424.160000
    217    220     1   0.10910 283424.160000
    219    221     1   0.10969 276646.080000
    219    222     1   0.10969 276646.080000
    224    234     1   0.09730 310787.520000
    228    229     1   0.10969 276646.080000
    228    230     1   0.10969 276646.080000
    233    235     1   0.09730 310787.520000
    237    238     1   0.10129 337397.760000
    239    240     1   0.10969 276646.080000
    239    242     1   0.10969 276646.080000
    241    243     1   0.10910 283424.160000
    241    244     1   0.10910 283424.160000
    245    266     1   0.10304 312293.760000
    246    256     1   0.10910 283424.160000
    246    257     1   0.10910 283424.160000
    247    248     1   0.10910 283424.160000
    247    250     1   0.10910 283424.160000
    249    251     1   0.10969 276646.080000
    249    252     1   0.10969 276646.080000
    254    264     1   0.09730 310787.520000
    258    259     1   0.10969 276646.080000
    258    260     1   0.10969 276646.080000
    263    265     1   0.09730 310787.520000
    267    268     1   0.10129 337397.760000
    269    270     1   0.10969 276646.080000
    269    272     1   0.10969 276646.080000
    271    273     1   0.10910 283424.160000
    271    274     1   0.10910 283424.160000
    275    296     1   0.10304 312293.760000
    276    286     1   0.10910 283424.160000
    276    287     1   0.10910 283424.160000
    277    278     1   0.10910 283424.160000
    277    280     1   0.10910 283424.160000
    279    281     1   0.10969 276646.080000
    279    282     1   0.10969 276646.080000
    284    294     1   0.09730 310787.520000
    288    289     1   0.10969 276646.080000
    288    290     1   0.10969 276646.080000
    293    295     1   0.09730 310787.520000
    297    298     1   0.10129 337397.760000
    299    300     1   0.10969 276646.080000
    299    302     1   0.10969 276646.080000
    301    303     1   0.10910 283424.160000
    301    304     1   0.10910 283424.160000
    305    326     1   0.10304 312293.760000
    306    316     1   0.10910 283424.160000
    306    317     1   0.10910 283424.160000
    307    308     1   0.10910 283424.160000
    307    310     1   0.10910 283424.160000
    309    311     1   0.10969 276646.080000
    309    312     1   0.10969 276646.080000
    314    324     1   0.09730 310787.520000
    318    319     1   0.10969 276646.080000
    318    320     1   0.10969 276646.080000
    323    325     1   0.09730 310787.520000
    327    328     1   0.10129 337397.760000
    329    330     1   0.10969 276646.080000
    329    332     1   0.10969 276646.080000
    331    333     1   0.10910 283424.160000
    331    334     1   0.10910 283424.160000
    335    356     1   0.10304 312293.760000
    336    346     1   0.10910 283424.160000
    336    347     1   0.10910 283424.160000
    337    338     1   0.10910 283424.160000
    337    340     1   0.10910 283424.160000
    339    341     1   0.10969 276646.080000
    339    342     1   0.10969 276646.080000
    344    354     1   0.09730 310787.520000
    348    349     1   0.10969 276646.080000
    348    350     1   0.10969 276646.080000
    353    355     1   0.09730 310787.520000
    357    358     1   0.10129 337397.760000
    359    360     1   0.10969 276646.080000
    359    362     1   0.10969 276646.080000
    361    363     1   0.10910 283424.160000
    361    364     1   0.10910 283424.160000
    365    386     1   0.10304 312293.760000
    366    376     1   0.10910 283424.160000
    366    377     1   0.10910 283424.160000
    367    368     1   0.10910 283424.160000
    367    370     1   0.10910 283424.160000
    369    371     1   0.10969 276646.080000
    369    372     1   0.10969 276646.080000
    374    384     1   0.09730 310787.520000
    378    379     1   0.10969 276646.080000
    378    380     1   0.10969 276646.080000
    383    385     1   0.09730 310787.520000

[ pairs ]
;    ai     aj funct         c0         c1         c2         c3
      1      4     1
      1     14     1
      1     16     1
      2     13     1
      2     15     1
      2      5     1
      2      6     1
      7      3     1
      8      3     1
      3     11     1
      3      9     1
      4     12     1
      4     10     1
      5      9     1
      5     17     1
      5     78     1
      6     11     1
      6     18     1
      6     52     1
      7     15     1
      7     20     1
      7    104     1
      8     13     1
      8     19     1
      8    130     1
      9     51     1
     10     50     1
     11     77     1
     12     76     1
     13    103     1
     14    102     1
     15    129     1
     16    128     1
     17     77     1
     18     51     1
     19    129     1
     20    103     1
     43     47     1
     43     49     1
     43     52     1
     44     48     1
     44     51     1
     44    147     1
     44     53     1
     45     46     1
     45     51     1
     45     54     1
     45    177     1
     46     50     1
     46    149     1
     47    151     1
     48     50     1
     48    179     1
     49    181     1
     53    149     1
     54    179     1
     69     73     1
     69     75     1
     69     78     1
     70     74     1
     70     77     1
     70    207     1
     70     79     1
     71     72     1
     71     77     1
     71     80     1
     71    237     1
     72     76     1
     72    209     1
     73    211     1
     74     76     1
     74    239     1
     75    241     1
     79    209     1
     80    239     1
     95     99     1
     95    101     1
     95    104     1
     96    100     1
     96    103     1
     96    267     1
     96    105     1
     97     98     1
     97    103     1
     97    106     1
     97    297     1
     98    102     1
     98    269     1
     99    271     1
    100    102     1
    100    299     1
    101    301     1
    105    269     1
    106    299     1
    121    125     1
    121    127     1
    121    130     1
    122    126     1
    122    129     1
    122    327     1
    122    131     1
    123    124     1
    123    129     1
    123    357     1
    123    132     1
    124    128     1
    124    329     1
    125    331     1
    126    128     1
    126    359     1
    127    361     1
    131    329     1
    132    359     1
    147    155     1
    149    156     1
    149    157     1
    151    168     1
    151    159     1
    155    171     1
    155    163     1
    156    159     1
    156    172     1
    156    173     1
    157    168     1
    157    164     1
    157    165     1
    177    185     1
    179    186     1
    179    187     1
    181    198     1
    181    189     1
    185    201     1
    185    193     1
    186    202     1
    186    203     1
    186    189     1
    187    194     1
    187    195     1
    187    198     1
    207    215     1
    209    216     1
    209    217     1
    211    228     1
    211    219     1
    215    231     1
    215    223     1
    216    219     1
    216    232     1
    216    233     1
    217    228     1
    217    224     1
    217    225     1
    237    245     1
    239    246     1
    239    247     1
    241    258     1
    241    249     1
    245    261     1
    245    253     1
    246    262     1
    246    263     1
    246    249     1
    247    254     1
    247    255     1
    247    258     1
    267    275     1
    269    276     1
    269    277     1
    271    288     1
    271    279     1
    275    291     1
    275    283     1
    276    279     1
    276    292     1
    276    293     1
    277    288     1
    277    284     1
    277    285     1
    297    305     1
    299    306     1
    299    307     1
    301    318     1
    301    309     1
    305    321     1
    305    313     1
    306    322     1
    306    323     1
    306    309     1
    307    314     1
    307    315     1
    307    318     1
    327    335     1
    329    336     1
    329    337     1
    331    348     1
    331    339     1
    335    351     1
    335    343     1
    336    339     1
    336    352     1
    336    353     1
    337    348     1
    337    344     1
    337    345     1
    357    365     1
    359    366     1
    359    367     1
    361    378     1
    361    369     1
    365    381     1
    365    373     1
    366    382     1
    366    383     1
    366    369     1
    367    374     1
    367    375     1
    367    378     1
      1     23     1
      1     24     1
      1     37     1
      1     38     1
      1     39     1
      1     40     1
      2     29     1
      2     30     1
      2     31     1
      2     32     1
      2     42     1
     41      3     1
      3     25     1
      3     26     1
      3     27     1
      3     28     1
      4     21     1
      4     22     1
      4     35     1
      4     36     1
      4     33     1
      4     34     1
      5     23     1
      5     24     1
      5     27     1
      5     28     1
      6     23     1
      6     24     1
      6     25     1
      6     26     1
      7     21     1
      7     22     1
      7     31     1
      7     32     1
      8     21     1
      8     22     1
      8     29     1
      8     30     1
      9     42     1
      9     67     1
     10     27     1
     10     28     1
     10     65     1
     10     66     1
     11     42     1
     11     93     1
     12     25     1
     12     26     1
     12     91     1
     12     92     1
     41     13     1
     13    119     1
     14     29     1
     14     30     1
     14    117     1
     14    118     1
     41     15     1
     15    145     1
     16     31     1
     16     32     1
     16    143     1
     16    144     1
     17     35     1
     17     36     1
     17     93     1
     18     33     1
     18     34     1
     18     67     1
     19     39     1
     19     40     1
     19    145     1
     20     37     1
     20     38     1
     20    119     1
     41     21     1
     21     23     1
     21     24     1
     41     22     1
     22     23     1
     22     24     1
     23     42     1
     24     42     1
     25     42     1
     25     35     1
     25     36     1
     26     42     1
     26     35     1
     26     36     1
     27     42     1
     27     33     1
     27     34     1
     28     42     1
     28     33     1
     28     34     1
     41     29     1
     29     37     1
     29     38     1
     41     30     1
     30     37     1
     30     38     1
     41     31     1
     31     39     1
     31     40     1
     41     32     1
     32     39     1
     32     40     1
     33     52     1
     34     52     1
     35     78     1
     36     78     1
     37    104     1
     38    104     1
     39    130     1
     40    130     1
     43     59     1
     43     60     1
     43     61     1
     43     62     1
     43     65     1
     43     66     1
     44     57     1
     44     58     1
     44     63     1
     44     64     1
     45     55     1
     45     56     1
     45     63     1
     45     64     1
     46     68     1
     46    148     1
     47     55     1
     47     56     1
     47    150     1
     47    152     1
     48     68     1
     48    178     1
     49     57     1
     49     58     1
     49    180     1
     49    182     1
     50     55     1
     50     56     1
     50     57     1
     50     58     1
     50     67     1
     51     68     1
     52     63     1
     52     64     1
     53     59     1
     53     60     1
     53    148     1
     54     61     1
     54     62     1
     54    178     1
     55     68     1
     55     59     1
     55     60     1
     56     68     1
     56     59     1
     56     60     1
     57     68     1
     57     61     1
     57     62     1
     58     68     1
     58     61     1
     58     62     1
     59    147     1
     60    147     1
     61    177     1
     62    177     1
     63     68     1
     63     65     1
     63     66     1
     64     68     1
     64     65     1
     64     66     1
     65     67     1
     66     67     1
     69     85     1
     69     86     1
     69     87     1
     69     88     1
     69     91     1
     69     92     1
     70     83     1
     70     84     1
     70     89     1
     70     90     1
     71     81     1
     71     82     1
     71     89     1
     71     90     1
     72     94     1
     72    208     1
     73     81     1
     73     82     1
     73    210     1
     73    212     1
     74     94     1
     74    238     1
     75     83     1
     75     84     1
     75    240     1
     75    242     1
     76     81     1
     76     82     1
     76     83     1
     76     84     1
     76     93     1
     77     94     1
     78     89     1
     78     90     1
     79     85     1
     79     86     1
     79    208     1
     80     87     1
     80     88     1
     80    238     1
     81     94     1
     81     85     1
     81     86     1
     82     94     1
     82     85     1
     82     86     1
     83     94     1
     83     87     1
     83     88     1
     84     94     1
     84     87     1
     84     88     1
     85    207     1
     86    207     1
     87    237     1
     88    237     1
     89     94     1
     89     91     1
     89     92     1
     90     94     1
     90     91     1
     90     92     1
     91     93     1
     92     93     1
     95    111     1
     95    112     1
     95    113     1
     95    114     1
     95    117     1
     95    118     1
     96    109     1
     96    110     1
     96    115     1
     96    116     1
     97    107     1
     97    108     1
     97    115     1
     97    116     1
     98    120     1
     98    268     1
     99    107     1
     99    108     1
     99    270     1
     99    272     1
    100    120     1
    100    298     1
    101    109     1
    101    110     1
    101    300     1
    101    302     1
    102    107     1
    102    108     1
    102    109     1
    102    110     1
    102    119     1
    103    120     1
    104    115     1
    104    116     1
    105    111     1
    105    112     1
    105    268     1
    106    113     1
    106    114     1
    106    298     1
    107    120     1
    107    111     1
    107    112     1
    108    120     1
    108    111     1
    108    112     1
    109    120     1
    109    113     1
    109    114     1
    110    120     1
    110    113     1
    110    114     1
    111    267     1
    112    267     1
    113    297     1
    114    297     1
    115    120     1
    115    117     1
    115    118     1
    116    120     1
    116    117     1
    116    118     1
    117    119     1
    118    119     1
    121    137     1
    121    138     1
    121    139     1
    121    140     1
    121    143     1
    121    144     1
    122    135     1
    122    136     1
    122    141     1
    122    142     1
    123    133     1
    123    134     1
    123    141     1
    123    142     1
    124    146     1
    124    328     1
    125    133     1
    125    134     1
    125    330     1
    125    332     1
    126    146     1
    126    358     1
    127    135     1
    127    136     1
    127    360     1
    127    362     1
    128    133     1
    128    134     1
    128    135     1
    128    136     1
    128    145     1
    129    146     1
    130    141     1
    130    142     1
    131    137     1
    131    138     1
    131    328     1
    132    139     1
    132    140     1
    132    358     1
    133    146     1
    133    137     1
    133    138     1
    134    146     1
    134    137     1
    134    138     1
    135    146     1
    135    139     1
    135    140     1
    136    146     1
    136    139     1
    136    140     1
    137    327     1
    138    327     1
    139    357     1
    140    357     1
    141    146     1
    141    143     1
    141    144     1
    142    146     1
    142    143     1
    142    144     1
    143    145     1
    144    145     1
    147    153     1
    147    154     1
    148    151     1
    148    150     1
    148    152     1
    149    176     1
    150    155     1
    150    153     1
    150    154     1
    151    166     1
    151    167     1
    151    158     1
    151    160     1
    152    155     1
    152    153     1
    152    154     1
    153    156     1
    153    157     1
    153    176     1
    154    156     1
    154    157     1
    154    176     1
    155    169     1
    155    170     1
    155    161     1
    155    162     1
    156    158     1
    156    160     1
    157    166     1
    157    167     1
    158    176     1
    158    163     1
    158    161     1
    158    162     1
    159    176     1
    159    174     1
    160    176     1
    160    163     1
    160    161     1
    160    162     1
    161    164     1
    161    165     1
    162    164     1
    162    165     1
    165    174     1
    166    176     1
    166    171     1
    166    169     1
    166    170     1
    167    176     1
    167    171     1
    167    169     1
    167    170     1
    168    176     1
    168    175     1
    169    172     1
    169    173     1
    170    172     1
    170    173     1
    172    175     1
    177    183     1
    177    184     1
    178    181     1
    178    180     1
    178    182     1
    179    206     1
    180    185     1
    180    183     1
    180    184     1
    181    196     1
    181    197     1
    181    188     1
    181    190     1
    182    185     1
    182    183     1
    182    184     1
    183    186     1
    183    187     1
    183    206     1
    184    186     1
    184    187     1
    184    206     1
    185    199     1
    185    200     1
    185    191     1
    185    192     1
    186    188     1
    186    190     1
    187    196     1
    187    197     1
    188    193     1
    188    191     1
    188    192     1
    188    206     1
    189    204     1
    189    206     1
    190    193     1
    190    191     1
    190    192     1
    190    206     1
    191    194     1
    191    195     1
    192    194     1
    192    195     1
    195    204     1
    196    201     1
    196    199     1
    196    200     1
    196    206     1
    197    201     1
    197    199     1
    197    200     1
    197    206     1
    198    205     1
    198    206     1
    199    202     1
    199    203     1
    200    202     1
    200    203     1
    202    205     1
    207    213     1
    207    214     1
    208    211     1
    208    210     1
    208    212     1
    209    236     1
    210    215     1
    210    213     1
    210    214     1
    211    226     1
    211    227     1
    211    218     1
    211    220     1
    212    215     1
    212    213     1
    212    214     1
    213    216     1
    213    217     1
    213    236     1
    214    216     1
    214    217     1
    214    236     1
    215    229     1
    215    230     1
    215    221     1
    215    222     1
    216    218     1
    216    220     1
    217    226     1
    217    227     1
    218    236     1
    218    223     1
    218    221     1
    218    222     1
    219    236     1
    219    234     1
    220    236     1
    220    223     1
    220    221     1
    220    222     1
    221    224     1
    221    225     1
    222    224     1
    222    225     1
    225    234     1
    226    236     1
    226    231     1
    226    229     1
    226    230     1
    227    236     1
    227    231     1
    227    229     1
    227    230     1
    228    236     1
    228    235     1
    229    232     1
    229    233     1
    230    232     1
    230    233     1
    232    235     1
    237    243     1
    237    244     1
    238    241     1
    238    240     1
    238    242     1
    239    266     1
    240    245     1
    240    243     1
    240    244     1
    241    256     1
    241    257     1
    241    248     1
    241    250     1
    242    245     1
    242    243     1
    242    244     1
    243    246     1
    243    247     1
    243    266     1
    244    246     1
    244    247     1
    244    266     1
    245    259     1
    245    260     1
    245    251     1
    245    252     1
    246    248     1
    246    250     1
    247    256     1
    247    257     1
    248    253     1
    248    251     1
    248    252     1
    248    266     1
    249    264     1
    249    266     1
    250    253     1
    250    251     1
    250    252     1
    250    266     1
    251    254     1
    251    255     1
    252    254     1
    252    255     1
    255    264     1
    256    261     1
    256    259     1
    256    260     1
    256    266     1
    257    261     1
    257    259     1
    257    260     1
    257    266     1
    258    265     1
    258    266     1
    259    262     1
    259    263     1
    260    262     1
    260    263     1
    262    265     1
    267    273     1
    267    274     1
    268    271     1
    268    270     1
    268    272     1
    269    296     1
    270    275     1
    270    273     1
    270    274     1
    271    286     1
    271    287     1
    271    278     1
    271    280     1
    272    275     1
    272    273     1
    272    274     1
    273    276     1
    273    277     1
    273    296     1
    274    276     1
    274    277     1
    274    296     1
    275    289     1
    275    290     1
    275    281     1
    275    282     1
    276    278     1
    276    280     1
    277    286     1
    277    287     1
    278    296     1
    278    283     1
    278    281     1
    278    282     1
    279    296     1
    279    294     1
    280    296     1
    280    283     1
    280    281     1
    280    282     1
    281    284     1
    281    285     1
    282    284     1
    282    285     1
    285    294     1
    286    296     1
    286    291     1
    286    289     1
    286    290     1
    287    296     1
    287    291     1
    287    289     1
    287    290     1
    288    296     1
    288    295     1
    289    292     1
    289    293     1
    290    292     1
    290    293     1
    292    295     1
    297    303     1
    297    304     1
    298    301     1
    298    300     1
    298    302     1
    299    326     1
    300    305     1
    300    303     1
    300    304     1
    301    316     1
    301    317     1
    301    308     1
    301    310     1
    302    305     1
    302    303     1
    302    304     1
    303    306     1
    303    307     1
    303    326     1
    304    306     1
    304    307     1
    304    326     1
    305    319     1
    305    320     1
    305    311     1
    305    312     1
    306    308     1
    306    310     1
    307    316     1
    307    317     1
    308    313     1
    308    311     1
    308    312     1
    308    326     1
    309    324     1
    309    326     1
    310    313     1
    310    311     1
    310    312     1
    310    326     1
    311    314     1
    311    315     1
    312    314     1
    312    315     1
    315    324     1
    316    321     1
    316    319     1
    316    320     1
    316    326     1
    317    321     1
    317    319     1
    317    320     1
    317    326     1
    318    325     1
    318    326     1
    319    322     1
    319    323     1
    320    322     1
    320    323     1
    322    325     1
    327    333     1
    327    334     1
    328    331     1
    328    330     1
    328    332     1
    329    356     1
    330    335     1
    330    333     1
    330    334     1
    331    346     1
    331    347     1
    331    338     1
    331    340     1
    332    335     1
    332    333     1
    332    334     1
    333    336     1
    333    337     1
    333    356     1
    334    336     1
    334    337     1
    334    356     1
    335    349     1
    335    350     1
    335    341     1
    335    342     1
    336    338     1
    336    340     1
    337    346     1
    337    347     1
    338    356     1
    338    343     1
    338    341     1
    338    342     1
    339    356     1
    339    354     1
    340    356     1
    340    343     1
    340    341     1
    340    342     1
    341    344     1
    341    345     1
    342    344     1
    342    345     1
    345    354     1
    346    356     1
    346    351     1
    346    349     1
    346    350     1
    347    356     1
    347    351     1
    347    349     1
    347    350     1
    348    356     1
    348    355     1
    349    352     1
    349    353     1
    350    352     1
    350    353     1
    352    355     1
    357    363     1
    357    364     1
    358    361     1
    358    360     1
    358    362     1
    359    386     1
    360    365     1
    360    363     1
    360    364     1
    361    376     1
    361    377     1
    361    368     1
    361    370     1
    362    365     1
    362    363     1
    362    364     1
    363    366     1
    363    367     1
    363    386     1
    364    366     1
    364    367     1
    364    386     1
    365    379     1
    365    380     1
    365    371     1
    365    372     1
    366    368     1
    366    370     1
    367    376     1
    367    377     1
    368    373     1
    368    371     1
    368    372     1
    368    386     1
    369    384     1
    369    386     1
    370    373     1
    370    371     1
    370    372     1
    370    386     1
    371    374     1
    371    375     1
    372    374     1
    372    375     1
    375    384     1
    376    381     1
    376    379     1
    376    380     1
    376    386     1
    377    381     1
    377    379     1
    377    380     1
    377    386     1
    378    385     1
    378    386     1
    379    382     1
    379    383     1
    380    382     1
    380    383     1
    382    385     1

[ angles ]
;    ai     aj     ak funct         c0         c1         c2         c3
      1      2      3     1   114.2100488 537.225600
      1      7     13     1   114.2100488 537.225600
      1      8     15     1   114.2100488 537.225600
      2      1      7     1   109.6600471 523.836800
      2      1      8     1   109.6600471 523.836800
      2      3      4     1   114.2100488 537.225600
      3      4      5     1   109.6600471 523.836800
      3      4      6     1   109.6600471 523.836800
      4      5     11     1   114.2100488 537.225600
      4      6      9     1   114.2100488 537.225600
      5      4      6     1   109.6600471 523.836800
      5     11     12     1   111.0400475 529.694400
      6      9     10     1   111.0400475 529.694400
      7      1      8     1   109.6600471 523.836800
      7     13     14     1   111.0400475 529.694400
      8     15     16     1   111.0400475 529.694400
      9     10     18     1   123.2000528 564.003200
      9     10     52     1   115.1800491 558.982400
     10     52     51     1   120.6900519 530.531200
     11     12     17     1   123.2000528 564.003200
     11     12     78     1   115.1800491 558.982400
     12     78     77     1   120.6900519 530.531200
     13     14     20     1   123.2000528 564.003200
     13     14    104     1   115.1800491 558.982400
     14    104    103     1   120.6900519 530.531200
     15     16     19     1   123.2000528 564.003200
     15     16    130     1   115.1800491 558.982400
     16    130    129     1   120.6900519 530.531200
     17     12     78     1   123.0500530 620.905600
     18     10     52     1   123.0500530 620.905600
     19     16    130     1   123.0500530 620.905600
     20     14    104     1   123.0500530 620.905600
     43     44     46     1   114.2100488 537.225600
     43     45     48     1   114.2100488 537.225600
     43     50     51     1   114.2100488 537.225600
     44     43     45     1   109.6600471 523.836800
     44     43     50     1   109.6600471 523.836800
     44     46     47     1   111.0400475 529.694400
     45     43     50     1   109.6600471 523.836800
     45     48     49     1   111.0400475 529.694400
     46     47    147     1   115.1800491 558.982400
     46     47     53     1   123.2000528 564.003200
     47    147    149     1   120.6900519 530.531200
     48     49     54     1   123.2000528 564.003200
     48     49    177     1   115.1800491 558.982400
     49    177    179     1   120.6900519 530.531200
     50     51     52     1   111.6100477 551.451200
     53     47    147     1   123.0500530 620.905600
     54     49    177     1   123.0500530 620.905600
     69     70     72     1   114.2100488 537.225600
     69     71     74     1   114.2100488 537.225600
     69     76     77     1   114.2100488 537.225600
     70     69     71     1   109.6600471 523.836800
     70     69     76     1   109.6600471 523.836800
     70     72     73     1   111.0400475 529.694400
     71     69     76     1   109.6600471 523.836800
     71     74     75     1   111.0400475 529.694400
     72     73    207     1   115.1800491 558.982400
     72     73     79     1   123.2000528 564.003200
     73    207    209     1   120.6900519 530.531200
     74     75     80     1   123.2000528 564.003200
     74     75    237     1   115.1800491 558.982400
     75    237    239     1   120.6900519 530.531200
     76     77     78     1   111.6100477 551.451200
     79     73    207     1   123.0500530 620.905600
     80     75    237     1   123.0500530 620.905600
     95     96     98     1   114.2100488 537.225600
     95     97    100     1   114.2100488 537.225600
     95    102    103     1   114.2100488 537.225600
     96     95     97     1   109.6600471 523.836800
     96     95    102     1   109.6600471 523.836800
     96     98     99     1   111.0400475 529.694400
     97     95    102     1   109.6600471 523.836800
     97    100    101     1   111.0400475 529.694400
     98     99    267     1   115.1800491 558.982400
     98     99    105     1   123.2000528 564.003200
     99    267    269     1   120.6900519 530.531200
    100    101    106     1   123.2000528 564.003200
    100    101    297     1   115.1800491 558.982400
    101    297    299     1   120.6900519 530.531200
    102    103    104     1   111.6100477 551.451200
    105     99    267     1   123.0500530 620.905600
    106    101    297     1   123.0500530 620.905600
    121    122    124     1   114.2100488 537.225600
    121    123    126     1   114.2100488 537.225600
    121    128    129     1   114.2100488 537.225600
    122    121    123     1   109.6600471 523.836800
    122    121    128     1   109.6600471 523.836800
    122    124    125     1   111.0400475 529.694400
    123    121    128     1   109.6600471 523.836800
    123    126    127     1   111.0400475 529.694400
    124    125    327     1   115.1800491 558.982400
    124    125    131     1   123.2000528 564.003200
    125    327    329     1   120.6900519 530.531200
    126    127    357     1   115.1800491 558.982400
    126    127    132     1   123.2000528 564.003200
    127    357    359     1   120.6900519 530.531200
    128    129    130     1   111.6100477 551.451200
    131    125    327     1   123.0500530 620.905600
    132    127    357     1   123.0500530 620.905600
    147    149    151     1   111.6100477 551.451200
    149    151    155     1   114.2100488 537.225600
    151    155    156     1   109.6600471 523.836800
    151    155    157     1   109.6600471 523.836800
    155    156    168     1   114.2100488 537.225600
    155    157    159     1   114.2100488 537.225600
    156    155    157     1   109.6600471 523.836800
    156    168    171     1   111.0400475 529.694400
    157    159    163     1   111.0400475 529.694400
    159    163    164     1   112.7300484 572.371200
    159    163    165     1   123.2000528 564.003200
    164    163    165     1   122.1000523 635.131200
    168    171    172     1   123.2000528 564.003200
    168    171    173     1   112.7300484 572.371200
    172    171    173     1   122.1000523 635.131200
    177    179    181     1   111.6100477 551.451200
    179    181    185     1   114.2100488 537.225600
    181    185    186     1   109.6600471 523.836800
    181    185    187     1   109.6600471 523.836800
    185    186    198     1   114.2100488 537.225600
    185    187    189     1   114.2100488 537.225600
    186    198    201     1   111.0400475 529.694400
    186    185    187     1   109.6600471 523.836800
    187    189    193     1   111.0400475 529.694400
    189    193    194     1   112.7300484 572.371200
    189    193    195     1   123.2000528 564.003200
    194    193    195     1   122.1000523 635.131200
    198    201    202     1   123.2000528 564.003200
    198    201    203     1   112.7300484 572.371200
    202    201    203     1   122.1000523 635.131200
    207    209    211     1   111.6100477 551.451200
    209    211    215     1   114.2100488 537.225600
    211    215    216     1   109.6600471 523.836800
    211    215    217     1   109.6600471 523.836800
    215    216    228     1   114.2100488 537.225600
    215    217    219     1   114.2100488 537.225600
    216    215    217     1   109.6600471 523.836800
    216    228    231     1   111.0400475 529.694400
    217    219    223     1   111.0400475 529.694400
    219    223    224     1   112.7300484 572.371200
    219    223    225     1   123.2000528 564.003200
    224    223    225     1   122.1000523 635.131200
    228    231    232     1   123.2000528 564.003200
    228    231    233     1   112.7300484 572.371200
    232    231    233     1   122.1000523 635.131200
    237    239    241     1   111.6100477 551.451200
    239    241    245     1   114.2100488 537.225600
    241    245    246     1   109.6600471 523.836800
    241    245    247     1   109.6600471 523.836800
    245    246    258     1   114.2100488 537.225600
    245    247    249     1   114.2100488 537.225600
    246    258    261     1   111.0400475 529.694400
    246    245    247     1   109.6600471 523.836800
    247    249    253     1   111.0400475 529.694400
    249    253    254     1   112.7300484 572.371200
    249    253    255     1   123.2000528 564.003200
    254    253    255     1   122.1000523 635.131200
    258    261    262     1   123.2000528 564.003200
    258    261    263     1   112.7300484 572.371200
    262    261    263     1   122.1000523 635.131200
    267    269    271     1   111.6100477 551.451200
    269    271    275     1   114.2100488 537.225600
    271    275    276     1   109.6600471 523.836800
    271    275    277     1   109.6600471 523.836800
    275    276    288     1   114.2100488 537.225600
    275    277    279     1   114.2100488 537.225600
    276    275    277     1   109.6600471 523.836800
    276    288    291     1   111.0400475 529.694400
    277    279    283     1   111.0400475 529.694400
    279    283    284     1   112.7300484 572.371200
    279    283    285     1   123.2000528 564.003200
    284    283    285     1   122.1000523 635.131200
    288    291    292     1   123.2000528 564.003200
    288    291    293     1   112.7300484 572.371200
    292    291    293     1   122.1000523 635.131200
    297    299    301     1   111.6100477 551.451200
    299    301    305     1   114.2100488 537.225600
    301    305    306     1   109.6600471 523.836800
    301    305    307     1   109.6600471 523.836800
    305    306    318     1   114.2100488 537.225600
    305    307    309     1   114.2100488 537.225600
    306    318    321     1   111.0400475 529.694400
    306    305    307     1   109.6600471 523.836800
    307    309    313     1   111.0400475 529.694400
    309    313    314     1   112.7300484 572.371200
    309    313    315     1   123.2000528 564.003200
    314    313    315     1   122.1000523 635.131200
    318    321    322     1   123.2000528 564.003200
    318    321    323     1   112.7300484 572.371200
    322    321    323     1   122.1000523 635.131200
    327    329    331     1   111.6100477 551.451200
    329    331    335     1   114.2100488 537.225600
    331    335    336     1   109.6600471 523.836800
    331    335    337     1   109.6600471 523.836800
    335    336    348     1   114.2100488 537.225600
    335    337    339     1   114.2100488 537.225600
    336    335    337     1   109.6600471 523.836800
    336    348    351     1   111.0400475 529.694400
    337    339    343     1   111.0400475 529.694400
    339    343    344     1   112.7300484 572.371200
    339    343    345     1   123.2000528 564.003200
    344    343    345     1   122.1000523 635.131200
    348    351    352     1   123.2000528 564.003200
    348    351    353     1   112.7300484 572.371200
    352    351    353     1   122.1000523 635.131200
    357    359    361     1   111.6100477 551.451200
    359    361    365     1   114.2100488 537.225600
    361    365    366     1   109.6600471 523.836800
    361    365    367     1   109.6600471 523.836800
    365    366    378     1   114.2100488 537.225600
    365    367    369     1   114.2100488 537.225600
    366    378    381     1   111.0400475 529.694400
    366    365    367     1   109.6600471 523.836800
    367    369    373     1   111.0400475 529.694400
    369    373    374     1   112.7300484 572.371200
    369    373    375     1   123.2000528 564.003200
    374    373    375     1   122.1000523 635.131200
    378    381    382     1   123.2000528 564.003200
    378    381    383     1   112.7300484 572.371200
    382    381    383     1   122.1000523 635.131200
      1      2     21     1   108.0100461 406.684800
      1      2     22     1   108.0100461 406.684800
      1      7     29     1   108.0100461 406.684800
      1      7     30     1   108.0100461 406.684800
      1      8     31     1   108.0100461 406.684800
      1      8     32     1   108.0100461 406.684800
      2      1     41     1   110.1100470 384.091200
      2      3     23     1   110.5600475 386.601600
      2      3     24     1   110.5600475 386.601600
      3      2     21     1   110.5600475 386.601600
      3      2     22     1   110.5600475 386.601600
      3      4     42     1   110.1100470 384.091200
      4      3     23     1   108.0100461 406.684800
      4      3     24     1   108.0100461 406.684800
      4      5     25     1   108.0100461 406.684800
      4      5     26     1   108.0100461 406.684800
      4      6     27     1   108.0100461 406.684800
      4      6     28     1   108.0100461 406.684800
      5      4     42     1   110.1100470 384.091200
      5     11     35     1   109.8000471 387.438400
      5     11     36     1   109.8000471 387.438400
      6      4     42     1   110.1100470 384.091200
      6      9     33     1   109.8000471 387.438400
      6      9     34     1   109.8000471 387.438400
      7      1     41     1   110.1100470 384.091200
      7     13     37     1   109.8000471 387.438400
      7     13     38     1   109.8000471 387.438400
      8      1     41     1   110.1100470 384.091200
      8     15     39     1   109.8000471 387.438400
      8     15     40     1   109.8000471 387.438400
      9      6     27     1   110.5600475 386.601600
      9      6     28     1   110.5600475 386.601600
     10      9     33     1   108.7700466 392.459200
     10      9     34     1   108.7700466 392.459200
     10     52     67     1   117.5500507 404.174400
     11      5     25     1   110.5600475 386.601600
     11      5     26     1   110.5600475 386.601600
     12     11     35     1   108.7700466 392.459200
     12     11     36     1   108.7700466 392.459200
     12     78     93     1   117.5500507 404.174400
     13      7     29     1   110.5600475 386.601600
     13      7     30     1   110.5600475 386.601600
     14     13     37     1   108.7700466 392.459200
     14     13     38     1   108.7700466 392.459200
     14    104    119     1   117.5500507 404.174400
     15      8     31     1   110.5600475 386.601600
     15      8     32     1   110.5600475 386.601600
     16     15     39     1   108.7700466 392.459200
     16     15     40     1   108.7700466 392.459200
     16    130    145     1   117.5500507 404.174400
     21      2     22     1   109.7500473 328.025600
     23      3     24     1   109.7500473 328.025600
     25      5     26     1   109.7500473 328.025600
     27      6     28     1   109.7500473 328.025600
     29      7     30     1   109.7500473 328.025600
     31      8     32     1   109.7500473 328.025600
     33      9     34     1   107.5800459 329.699200
     35     11     36     1   107.5800459 329.699200
     37     13     38     1   107.5800459 329.699200
     39     15     40     1   107.5800459 329.699200
     43     44     55     1   108.0100461 406.684800
     43     44     56     1   108.0100461 406.684800
     43     45     57     1   108.0100461 406.684800
     43     45     58     1   108.0100461 406.684800
     43     50     63     1   108.0100461 406.684800
     43     50     64     1   108.0100461 406.684800
     44     43     68     1   110.1100470 384.091200
     44     46     59     1   109.8000471 387.438400
     44     46     60     1   109.8000471 387.438400
     45     43     68     1   110.1100470 384.091200
     45     48     61     1   109.8000471 387.438400
     45     48     62     1   109.8000471 387.438400
     46     44     55     1   110.5600475 386.601600
     46     44     56     1   110.5600475 386.601600
     47     46     59     1   108.7700466 392.459200
     47     46     60     1   108.7700466 392.459200
     47    147    148     1   117.5500507 404.174400
     48     45     57     1   110.5600475 386.601600
     48     45     58     1   110.5600475 386.601600
     49     48     61     1   108.7700466 392.459200
     49     48     62     1   108.7700466 392.459200
     49    177    178     1   117.5500507 404.174400
     50     43     68     1   110.1100470 384.091200
     50     51     65     1   109.5600471 388.275200
     50     51     66     1   109.5600471 388.275200
     51     50     63     1   110.5600475 386.601600
     51     50     64     1   110.5600475 386.601600
     51     52     67     1   117.6800502 383.254400
     52     51     65     1   108.8800464 416.726400
     52     51     66     1   108.8800464 416.726400
     55     44     56     1   109.7500473 328.025600
     57     45     58     1   109.7500473 328.025600
     59     46     60     1   107.5800459 329.699200
     61     48     62     1   107.5800459 329.699200
     63     50     64     1   109.7500473 328.025600
     65     51     66     1   108.4600466 328.025600
     69     70     81     1   108.0100461 406.684800
     69     70     82     1   108.0100461 406.684800
     69     71     83     1   108.0100461 406.684800
     69     71     84     1   108.0100461 406.684800
     69     76     89     1   108.0100461 406.684800
     69     76     90     1   108.0100461 406.684800
     70     69     94     1   110.1100470 384.091200
     70     72     85     1   109.8000471 387.438400
     70     72     86     1   109.8000471 387.438400
     71     69     94     1   110.1100470 384.091200
     71     74     87     1   109.8000471 387.438400
     71     74     88     1   109.8000471 387.438400
     72     70     81     1   110.5600475 386.601600
     72     70     82     1   110.5600475 386.601600
     73     72     85     1   108.7700466 392.459200
     73     72     86     1   108.7700466 392.459200
     73    207    208     1   117.5500507 404.174400
     74     71     83     1   110.5600475 386.601600
     74     71     84     1   110.5600475 386.601600
     75     74     87     1   108.7700466 392.459200
     75     74     88     1   108.7700466 392.459200
     75    237    238     1   117.5500507 404.174400
     76     69     94     1   110.1100470 384.091200
     76     77     91     1   109.5600471 388.275200
     76     77     92     1   109.5600471 388.275200
     77     76     89     1   110.5600475 386.601600
     77     76     90     1   110.5600475 386.601600
     77     78     93     1   117.6800502 383.254400
     78     77     91     1   108.8800464 416.726400
     78     77     92     1   108.8800464 416.726400
     81     70     82     1   109.7500473 328.025600
     83     71     84     1   109.7500473 328.025600
     85     72     86     1   107.5800459 329.699200
     87     74     88     1   107.5800459 329.699200
     89     76     90     1   109.7500473 328.025600
     91     77     92     1   108.4600466 328.025600
     95     96    107     1   108.0100461 406.684800
     95     96    108     1   108.0100461 406.684800
     95     97    109     1   108.0100461 406.684800
     95     97    110     1   108.0100461 406.684800
     95    102    115     1   108.0100461 406.684800
     95    102    116     1   108.0100461 406.684800
     96     95    120     1   110.1100470 384.091200
     96     98    111     1   109.8000471 387.438400
     96     98    112     1   109.8000471 387.438400
     97     95    120     1   110.1100470 384.091200
     97    100    113     1   109.8000471 387.438400
     97    100    114     1   109.8000471 387.438400
     98     96    107     1   110.5600475 386.601600
     98     96    108     1   110.5600475 386.601600
     99     98    111     1   108.7700466 392.459200
     99     98    112     1   108.7700466 392.459200
     99    267    268     1   117.5500507 404.174400
    100     97    109     1   110.5600475 386.601600
    100     97    110     1   110.5600475 386.601600
    101    100    113     1   108.7700466 392.459200
    101    100    114     1   108.7700466 392.459200
    101    297    298     1   117.5500507 404.174400
    102     95    120     1   110.1100470 384.091200
    102    103    117     1   109.5600471 388.275200
    102    103    118     1   109.5600471 388.275200
    103    102    115     1   110.5600475 386.601600
    103    102    116     1   110.5600475 386.601600
    103    104    119     1   117.6800502 383.254400
    104    103    117     1   108.8800464 416.726400
    104    103    118     1   108.8800464 416.726400
    107     96    108     1   109.7500473 328.025600
    109     97    110     1   109.7500473 328.025600
    111     98    112     1   107.5800459 329.699200
    113    100    114     1   107.5800459 329.699200
    115    102    116     1   109.7500473 328.025600
    117    103    118     1   108.4600466 328.025600
    121    122    133     1   108.0100461 406.684800
    121    122    134     1   108.0100461 406.684800
    121    123    135     1   108.0100461 406.684800
    121    123    136     1   108.0100461 406.684800
    121    128    141     1   108.0100461 406.684800
    121    128    142     1   108.0100461 406.684800
    122    121    146     1   110.1100470 384.091200
    122    124    137     1   109.8000471 387.438400
    122    124    138     1   109.8000471 387.438400
    123    121    146     1   110.1100470 384.091200
    123    126    139     1   109.8000471 387.438400
    123    126    140     1   109.8000471 387.438400
    124    122    133     1   110.5600475 386.601600
    124    122    134     1   110.5600475 386.601600
    125    124    137     1   108.7700466 392.459200
    125    124    138     1   108.7700466 392.459200
    125    327    328     1   117.5500507 404.174400
    126    123    135     1   110.5600475 386.601600
    126    123    136     1   110.5600475 386.601600
    127    126    139     1   108.7700466 392.459200
    127    126    140     1   108.7700466 392.459200
    127    357    358     1   117.5500507 404.174400
    128    121    146     1   110.1100470 384.091200
    128    129    143     1   109.5600471 388.275200
    128    129    144     1   109.5600471 388.275200
    129    128    141     1   110.5600475 386.601600
    129    128    142     1   110.5600475 386.601600
    129    130    145     1   117.6800502 383.254400
    130    129    143     1   108.8800464 416.726400
    130    129    144     1   108.8800464 416.726400
    133    122    134     1   109.7500473 328.025600
    135    123    136     1   109.7500473 328.025600
    137    124    138     1   107.5800459 329.699200
    139    126    140     1   107.5800459 329.699200
    141    128    142     1   109.7500473 328.025600
    143    129    144     1   108.4600466 328.025600
    147    149    150     1   108.8800464 416.726400
    147    149    152     1   108.8800464 416.726400
    148    147    149     1   117.6800502 383.254400
    149    151    153     1   110.5600475 386.601600
    149    151    154     1   110.5600475 386.601600
    150    149    151     1   109.5600471 388.275200
    150    149    152     1   108.4600466 328.025600
    151    149    152     1   109.5600471 388.275200
    151    155    176     1   110.1100470 384.091200
    153    151    155     1   108.0100461 406.684800
    153    151    154     1   109.7500473 328.025600
    154    151    155     1   108.0100461 406.684800
    155    156    166     1   108.0100461 406.684800
    155    156    167     1   108.0100461 406.684800
    155    157    158     1   108.0100461 406.684800
    155    157    160     1   108.0100461 406.684800
    156    155    176     1   110.1100470 384.091200
    156    168    169     1   109.8000471 387.438400
    156    168    170     1   109.8000471 387.438400
    157    155    176     1   110.1100470 384.091200
    157    159    161     1   109.8000471 387.438400
    157    159    162     1   109.8000471 387.438400
    158    157    159     1   110.5600475 386.601600
    158    157    160     1   109.7500473 328.025600
    159    157    160     1   110.5600475 386.601600
    161    159    163     1   108.7700466 392.459200
    161    159    162     1   107.5800459 329.699200
    162    159    163     1   108.7700466 392.459200
    163    164    174     1   106.5500460 417.563200
    166    156    168     1   110.5600475 386.601600
    166    156    167     1   109.7500473 328.025600
    167    156    168     1   110.5600475 386.601600
    169    168    171     1   108.7700466 392.459200
    169    168    170     1   107.5800459 329.699200
    170    168    171     1   108.7700466 392.459200
    171    173    175     1   106.5500460 417.563200
    177    179    180     1   108.8800464 416.726400
    177    179    182     1   108.8800464 416.726400
    178    177    179     1   117.6800502 383.254400
    179    181    183     1   110.5600475 386.601600
    179    181    184     1   110.5600475 386.601600
    180    179    181     1   109.5600471 388.275200
    180    179    182     1   108.4600466 328.025600
    181    185    206     1   110.1100470 384.091200
    181    179    182     1   109.5600471 388.275200
    183    181    185     1   108.0100461 406.684800
    183    181    184     1   109.7500473 328.025600
    184    181    185     1   108.0100461 406.684800
    185    186    196     1   108.0100461 406.684800
    185    186    197     1   108.0100461 406.684800
    185    187    188     1   108.0100461 406.684800
    185    187    190     1   108.0100461 406.684800
    186    198    199     1   109.8000471 387.438400
    186    198    200     1   109.8000471 387.438400
    186    185    206     1   110.1100470 384.091200
    187    189    191     1   109.8000471 387.438400
    187    189    192     1   109.8000471 387.438400
    187    185    206     1   110.1100470 384.091200
    188    187    189     1   110.5600475 386.601600
    188    187    190     1   109.7500473 328.025600
    189    187    190     1   110.5600475 386.601600
    191    189    193     1   108.7700466 392.459200
    191    189    192     1   107.5800459 329.699200
    192    189    193     1   108.7700466 392.459200
    193    194    204     1   106.5500460 417.563200
    196    186    198     1   110.5600475 386.601600
    196    186    197     1   109.7500473 328.025600
    197    186    198     1   110.5600475 386.601600
    199    198    201     1   108.7700466 392.459200
    199    198    200     1   107.5800459 329.699200
    200    198    201     1   108.7700466 392.459200
    201    203    205     1   106.5500460 417.563200
    207    209    210     1   108.8800464 416.726400
    207    209    212     1   108.8800464 416.726400
    208    207    209     1   117.6800502 383.254400
    209    211    213     1   110.5600475 386.601600
    209    211    214     1   110.5600475 386.601600
    210    209    211     1   109.5600471 388.275200
    210    209    212     1   108.4600466 328.025600
    211    209    212     1   109.5600471 388.275200
    211    215    236     1   110.1100470 384.091200
    213    211    215     1   108.0100461 406.684800
    213    211    214     1   109.7500473 328.025600
    214    211    215     1   108.0100461 406.684800
    215    216    226     1   108.0100461 406.684800
    215    216    227     1   108.0100461 406.684800
    215    217    218     1   108.0100461 406.684800
    215    217    220     1   108.0100461 406.684800
    216    215    236     1   110.1100470 384.091200
    216    228    229     1   109.8000471 387.438400
    216    228    230     1   109.8000471 387.438400
    217    215    236     1   110.1100470 384.091200
    217    219    221     1   109.8000471 387.438400
    217    219    222     1   109.8000471 387.438400
    218    217    219     1   110.5600475 386.601600
    218    217    220     1   109.7500473 328.025600
    219    217    220     1   110.5600475 386.601600
    221    219    223     1   108.7700466 392.459200
    221    219    222     1   107.5800459 329.699200
    222    219    223     1   108.7700466 392.459200
    223    224    234     1   106.5500460 417.563200
    226    216    228     1   110.5600475 386.601600
    226    216    227     1   109.7500473 328.025600
    227    216    228     1   110.5600475 386.601600
    229    228    231     1   108.7700466 392.459200
    229    228    230     1   107.5800459 329.699200
    230    228    231     1   108.7700466 392.459200
    231    233    235     1   106.5500460 417.563200
    237    239    240     1   108.8800464 416.726400
    237    239    242     1   108.8800464 416.726400
    238    237    239     1   117.6800502 383.254400
    239    241    243     1   110.5600475 386.601600
    239    241    244     1   110.5600475 386.601600
    240    239    241     1   109.5600471 388.275200
    240    239    242     1   108.4600466 328.025600
    241    245    266     1   110.1100470 384.091200
    241    239    242     1   109.5600471 388.275200
    243    241    245     1   108.0100461 406.684800
    243    241    244     1   109.7500473 328.025600
    244    241    245     1   108.0100461 406.684800
    245    246    256     1   108.0100461 406.684800
    245    246    257     1   108.0100461 406.684800
    245    247    248     1   108.0100461 406.684800
    245    247    250     1   108.0100461 406.684800
    246    258    259     1   109.8000471 387.438400
    246    258    260     1   109.8000471 387.438400
    246    245    266     1   110.1100470 384.091200
    247    249    251     1   109.8000471 387.438400
    247    249    252     1   109.8000471 387.438400
    247    245    266     1   110.1100470 384.091200
    248    247    249     1   110.5600475 386.601600
    248    247    250     1   109.7500473 328.025600
    249    247    250     1   110.5600475 386.601600
    251    249    253     1   108.7700466 392.459200
    251    249    252     1   107.5800459 329.699200
    252    249    253     1   108.7700466 392.459200
    253    254    264     1   106.5500460 417.563200
    256    246    258     1   110.5600475 386.601600
    256    246    257     1   109.7500473 328.025600
    257    246    258     1   110.5600475 386.601600
    259    258    261     1   108.7700466 392.459200
    259    258    260     1   107.5800459 329.699200
    260    258    261     1   108.7700466 392.459200
    261    263    265     1   106.5500460 417.563200
    267    269    270     1   108.8800464 416.726400
    267    269    272     1   108.8800464 416.726400
    268    267    269     1   117.6800502 383.254400
    269    271    273     1   110.5600475 386.601600
    269    271    274     1   110.5600475 386.601600
    270    269    271     1   109.5600471 388.275200
    270    269    272     1   108.4600466 328.025600
    271    269    272     1   109.5600471 388.275200
    271    275    296     1   110.1100470 384.091200
    273    271    275     1   108.0100461 406.684800
    273    271    274     1   109.7500473 328.025600
    274    271    275     1   108.0100461 406.684800
    275    276    286     1   108.0100461 406.684800
    275    276    287     1   108.0100461 406.684800
    275    277    278     1   108.0100461 406.684800
    275    277    280     1   108.0100461 406.684800
    276    275    296     1   110.1100470 384.091200
    276    288    289     1   109.8000471 387.438400
    276    288    290     1   109.8000471 387.438400
    277    275    296     1   110.1100470 384.091200
    277    279    281     1   109.8000471 387.438400
    277    279    282     1   109.8000471 387.438400
    278    277    279     1   110.5600475 386.601600
    278    277    280     1   109.7500473 328.025600
    279    277    280     1   110.5600475 386.601600
    281    279    283     1   108.7700466 392.459200
    281    279    282     1   107.5800459 329.699200
    282    279    283     1   108.7700466 392.459200
    283    284    294     1   106.5500460 417.563200
    286    276    288     1   110.5600475 386.601600
    286    276    287     1   109.7500473 328.025600
    287    276    288     1   110.5600475 386.601600
    289    288    291     1   108.7700466 392.459200
    289    288    290     1   107.5800459 329.699200
    290    288    291     1   108.7700466 392.459200
    291    293    295     1   106.5500460 417.563200
    297    299    300     1   108.8800464 416.726400
    297    299    302     1   108.8800464 416.726400
    298    297    299     1   117.6800502 383.254400
    299    301    303     1   110.5600475 386.601600
    299    301    304     1   110.5600475 386.601600
    300    299    301     1   109.5600471 388.275200
    300    299    302     1   108.4600466 328.025600
    301    305    326     1   110.1100470 384.091200
    301    299    302     1   109.5600471 388.275200
    303    301    305     1   108.0100461 406.684800
    303    301    304     1   109.7500473 328.025600
    304    301    305     1   108.0100461 406.684800
    305    306    316     1   108.0100461 406.684800
    305    306    317     1   108.0100461 406.684800
    305    307    308     1   108.0100461 406.684800
    305    307    310     1   108.0100461 406.684800
    306    318    319     1   109.8000471 387.438400
    306    318    320     1   109.8000471 387.438400
    306    305    326     1   110.1100470 384.091200
    307    309    311     1   109.8000471 387.438400
    307    309    312     1   109.8000471 387.438400
    307    305    326     1   110.1100470 384.091200
    308    307    309     1   110.5600475 386.601600
    308    307    310     1   109.7500473 328.025600
    309    307    310     1   110.5600475 386.601600
    311    309    313     1   108.7700466 392.459200
    311    309    312     1   107.5800459 329.699200
    312    309    313     1   108.7700466 392.459200
    313    314    324     1   106.5500460 417.563200
    316    306    318     1   110.5600475 386.601600
    316    306    317     1   109.7500473 328.025600
    317    306    318     1   110.5600475 386.601600
    319    318    321     1   108.7700466 392.459200
    319    318    320     1   107.5800459 329.699200
    320    318    321     1   108.7700466 392.459200
    321    323    325     1   106.5500460 417.563200
    327    329    330     1   108.8800464 416.726400
    327    329    332     1   108.8800464 416.726400
    328    327    329     1   117.6800502 383.254400
    329    331    333     1   110.5600475 386.601600
    329    331    334     1   110.5600475 386.601600
    330    329    331     1   109.5600471 388.275200
    330    329    332     1   108.4600466 328.025600
    331    329    332     1   109.5600471 388.275200
    331    335    356     1   110.1100470 384.091200
    333    331    335     1   108.0100461 406.684800
    333    331    334     1   109.7500473 328.025600
    334    331    335     1   108.0100461 406.684800
    335    336    346     1   108.0100461 406.684800
    335    336    347     1   108.0100461 406.684800
    335    337    338     1   108.0100461 406.684800
    335    337    340     1   108.0100461 406.684800
    336    335    356     1   110.1100470 384.091200
    336    348    349     1   109.8000471 387.438400
    336    348    350     1   109.8000471 387.438400
    337    335    356     1   110.1100470 384.091200
    337    339    341     1   109.8000471 387.438400
    337    339    342     1   109.8000471 387.438400
    338    337    339     1   110.5600475 386.601600
    338    337    340     1   109.7500473 328.025600
    339    337    340     1   110.5600475 386.601600
    341    339    343     1   108.7700466 392.459200
    341    339    342     1   107.5800459 329.699200
    342    339    343     1   108.7700466 392.459200
    343    344    354     1   106.5500460 417.563200
    346    336    348     1   110.5600475 386.601600
    346    336    347     1   109.7500473 328.025600
    347    336    348     1   110.5600475 386.601600
    349    348    351     1   108.7700466 392.459200
    349    348    350     1   107.5800459 329.699200
    350    348    351     1   108.7700466 392.459200
    351    353    355     1   106.5500460 417.563200
    357    359    360     1   108.8800464 416.726400
    357    359    362     1   108.8800464 416.726400
    358    357    359     1   117.6800502 383.254400
    359    361    363     1   110.5600475 386.601600
    359    361    364     1   110.5600475 386.601600
    360    359    361     1   109.5600471 388.275200
    360    359    362     1   108.4600466 328.025600
    361    365    386     1   110.1100470 384.091200
    361    359    362     1   109.5600471 388.275200
    363    361    365     1   108.0100461 406.684800
    363    361    364     1   109.7500473 328.025600
    364    361    365     1   108.0100461 406.684800
    365    366    376     1   108.0100461 406.684800
    365    366    377     1   108.0100461 406.684800
    365    367    368     1   108.0100461 406.684800
    365    367    370     1   108.0100461 406.684800
    366    378    379     1   109.8000471 387.438400
    366    378    380     1   109.8000471 387.438400
    366    365    386     1   110.1100470 384.091200
    367    369    371     1   109.8000471 387.438400
    367    369    372     1   109.8000471 387.438400
    367    365    386     1   110.1100470 384.091200
    368    367    369     1   110.5600475 386.601600
    368    367    370     1   109.7500473 328.025600
    369    367    370     1   110.5600475 386.601600
    371    369    373     1   108.7700466 392.459200
    371    369    372     1   107.5800459 329.699200
    372    369    373     1   108.7700466 392.459200
    373    374    384     1   106.5500460 417.563200
    376    366    378     1   110.5600475 386.601600
    376    366    377     1   109.7500473 328.025600
    377    366    378     1   110.5600475 386.601600
    379    378    381     1   108.7700466 392.459200
    379    378    380     1   107.5800459 329.699200
    380    378    381     1   108.7700466 392.459200
    381    383    385     1   106.5500460 417.563200

[ dihedrals ]
;    ai     aj     ak     al funct         c0         c1         c2         c3         c4         c5
      1      2      3      4     1  0.0000000  0.6508444  3
      1      7     13     14     1  0.0000000  0.6508444  3
      1      8     15     16     1  0.0000000  0.6508444  3
      2      1      7     13     1  0.0000000  0.6508444  3
      2      1      8     15     1  0.0000000  0.6508444  3
      2      3      4      5     1  0.0000000  0.6508444  3
      2      3      4      6     1  0.0000000  0.6508444  3
      7      1      2      3     1  0.0000000  0.6508444  3
      8      1      2      3     1  0.0000000  0.6508444  3
      3      4      5     11     1  0.0000000  0.6508444  3
      3      4      6      9     1  0.0000000  0.6508444  3
      4      5     11     12     1  0.0000000  0.6508444  3
      4      6      9     10     1  0.0000000  0.6508444  3
      5      4      6      9     1  0.0000000  0.6508444  3
      5     11     12     17     1  180.0000771  0.0000000  2
      5     11     12     78     1  0.0000000  0.2928800  2
      5     11     12     78     1  0.0000000  0.4184000  4
      6      4      5     11     1  0.0000000  0.6508444  3
      6      9     10     18     1  180.0000771  0.0000000  2
      6      9     10     52     1  0.0000000  0.2928800  2
      6      9     10     52     1  0.0000000  0.4184000  4
      7      1      8     15     1  0.0000000  0.6508444  3
      7     13     14     20     1  180.0000771  0.0000000  2
      7     13     14    104     1  0.0000000  0.2928800  2
      7     13     14    104     1  0.0000000  0.4184000  4
      8      1      7     13     1  0.0000000  0.6508444  3
      8     15     16     19     1  180.0000771  0.0000000  2
      8     15     16    130     1  0.0000000  0.2928800  2
      8     15     16    130     1  0.0000000  0.4184000  4
      9     10     52     51     1  180.0000771  6.2760000  1
      9     10     52     51     1  0.0000000  0.0000000  2
     10     52     51     50     1  0.0000000  2.2175200  1
     10     52     51     50     1  0.0000000  0.0000000  2
     10     52     51     50     1  180.0000771  0.6276000  3
     10     52     51     50     1  180.0000771  2.0920000  4
     11     12     78     77     1  180.0000771  6.2760000  1
     11     12     78     77     1  0.0000000  0.0000000  2
     12     78     77     76     1  0.0000000  2.2175200  1
     12     78     77     76     1  0.0000000  0.0000000  2
     12     78     77     76     1  180.0000771  0.6276000  3
     12     78     77     76     1  180.0000771  2.0920000  4
     13     14    104    103     1  180.0000771  6.2760000  1
     13     14    104    103     1  0.0000000  0.0000000  2
     14    104    103    102     1  0.0000000  2.2175200  1
     14    104    103    102     1  0.0000000  0.0000000  2
     14    104    103    102     1  180.0000771  0.6276000  3
     14    104    103    102     1  180.0000771  2.0920000  4
     15     16    130    129     1  180.0000771  6.2760000  1
     15     16    130    129     1  0.0000000  0.0000000  2
     16    130    129    128     1  0.0000000  2.2175200  1
     16    130    129    128     1  0.0000000  0.0000000  2
     16    130    129    128     1  180.0000771  0.6276000  3
     16    130    129    128     1  180.0000771  2.0920000  4
     17     12     78     77     1  180.0000771  10.4600000  2
     18     10     52     51     1  180.0000771  10.4600000  2
     19     16    130    129     1  180.0000771  10.4600000  2
     20     14    104    103     1  180.0000771  10.4600000  2
     43     44     46     47     1  0.0000000  0.6508444  3
     43     45     48     49     1  0.0000000  0.6508444  3
     43     50     51     52     1  0.0000000  0.6508444  3
     44     43     45     48     1  0.0000000  0.6508444  3
     44     43     50     51     1  0.0000000  0.6508444  3
     44     46     47    147     1  0.0000000  0.2928800  2
     44     46     47    147     1  0.0000000  0.4184000  4
     44     46     47     53     1  180.0000771  0.0000000  2
     45     43     44     46     1  0.0000000  0.6508444  3
     45     43     50     51     1  0.0000000  0.6508444  3
     45     48     49     54     1  180.0000771  0.0000000  2
     45     48     49    177     1  0.0000000  0.2928800  2
     45     48     49    177     1  0.0000000  0.4184000  4
     46     44     43     50     1  0.0000000  0.6508444  3
     46     47    147    149     1  180.0000771  6.2760000  1
     46     47    147    149     1  0.0000000  0.0000000  2
     47    147    149    151     1  0.0000000  2.2175200  1
     47    147    149    151     1  0.0000000  0.0000000  2
     47    147    149    151     1  180.0000771  0.6276000  3
     47    147    149    151     1  180.0000771  2.0920000  4
     48     45     43     50     1  0.0000000  0.6508444  3
     48     49    177    179     1  180.0000771  6.2760000  1
     48     49    177    179     1  0.0000000  0.0000000  2
     49    177    179    181     1  0.0000000  2.2175200  1
     49    177    179    181     1  0.0000000  0.0000000  2
     49    177    179    181     1  180.0000771  0.6276000  3
     49    177    179    181     1  180.0000771  2.0920000  4
     53     47    147    149     1  180.0000771  10.4600000  2
     54     49    177    179     1  180.0000771  10.4600000  2
     69     70     72     73     1  0.0000000  0.6508444  3
     69     71     74     75     1  0.0000000  0.6508444  3
     69     76     77     78     1  0.0000000  0.6508444  3
     70     69     71     74     1  0.0000000  0.6508444  3
     70     69     76     77     1  0.0000000  0.6508444  3
     70     72     73    207     1  0.0000000  0.2928800  2
     70     72     73    207     1  0.0000000  0.4184000  4
     70     72     73     79     1  180.0000771  0.0000000  2
     71     69     70     72     1  0.0000000  0.6508444  3
     71     69     76     77     1  0.0000000  0.6508444  3
     71     74     75     80     1  180.0000771  0.0000000  2
     71     74     75    237     1  0.0000000  0.2928800  2
     71     74     75    237     1  0.0000000  0.4184000  4
     72     70     69     76     1  0.0000000  0.6508444  3
     72     73    207    209     1  180.0000771  6.2760000  1
     72     73    207    209     1  0.0000000  0.0000000  2
     73    207    209    211     1  0.0000000  2.2175200  1
     73    207    209    211     1  0.0000000  0.0000000  2
     73    207    209    211     1  180.0000771  0.6276000  3
     73    207    209    211     1  180.0000771  2.0920000  4
     74     71     69     76     1  0.0000000  0.6508444  3
     74     75    237    239     1  180.0000771  6.2760000  1
     74     75    237    239     1  0.0000000  0.0000000  2
     75    237    239    241     1  0.0000000  2.2175200  1
     75    237    239    241     1  0.0000000  0.0000000  2
     75    237    239    241     1  180.0000771  0.6276000  3
     75    237    239    241     1  180.0000771  2.0920000  4
     79     73    207    209     1  180.0000771  10.4600000  2
     80     75    237    239     1  180.0000771  10.4600000  2
     95     96     98     99     1  0.0000000  0.6508444  3
     95     97    100    101     1  0.0000000  0.6508444  3
     95    102    103    104     1  0.0000000  0.6508444  3
     96     95     97    100     1  0.0000000  0.6508444  3
     96     95    102    103     1  0.0000000  0.6508444  3
     96     98     99    267     1  0.0000000  0.2928800  2
     96     98     99    267     1  0.0000000  0.4184000  4
     96     98     99    105     1  180.0000771  0.0000000  2
     97     95     96     98     1  0.0000000  0.6508444  3
     97     95    102    103     1  0.0000000  0.6508444  3
     97    100    101    106     1  180.0000771  0.0000000  2
     97    100    101    297     1  0.0000000  0.2928800  2
     97    100    101    297     1  0.0000000  0.4184000  4
     98     96     95    102     1  0.0000000  0.6508444  3
     98     99    267    269     1  180.0000771  6.2760000  1
     98     99    267    269     1  0.0000000  0.0000000  2
     99    267    269    271     1  0.0000000  2.2175200  1
     99    267    269    271     1  0.0000000  0.0000000  2
     99    267    269    271     1  180.0000771  0.6276000  3
     99    267    269    271     1  180.0000771  2.0920000  4
    100     97     95    102     1  0.0000000  0.6508444  3
    100    101    297    299     1  180.0000771  6.2760000  1
    100    101    297    299     1  0.0000000  0.0000000  2
    101    297    299    301     1  0.0000000  2.2175200  1
    101    297    299    301     1  0.0000000  0.0000000  2
    101    297    299    301     1  180.0000771  0.6276000  3
    101    297    299    301     1  180.0000771  2.0920000  4
    105     99    267    269     1  180.0000771  10.4600000  2
    106    101    297    299     1  180.0000771  10.4600000  2
    121    122    124    125     1  0.0000000  0.6508444  3
    121    123    126    127     1  0.0000000  0.6508444  3
    121    128    129    130     1  0.0000000  0.6508444  3
    122    121    123    126     1  0.0000000  0.6508444  3
    122    121    128    129     1  0.0000000  0.6508444  3
    122    124    125    327     1  0.0000000  0.2928800  2
    122    124    125    327     1  0.0000000  0.4184000  4
    122    124    125    131     1  180.0000771  0.0000000  2
    123    121    122    124     1  0.0000000  0.6508444  3
    123    121    128    129     1  0.0000000  0.6508444  3
    123    126    127    357     1  0.0000000  0.2928800  2
    123    126    127    357     1  0.0000000  0.4184000  4
    123    126    127    132     1  180.0000771  0.0000000  2
    124    122    121    128     1  0.0000000  0.6508444  3
    124    125    327    329     1  180.0000771  6.2760000  1
    124    125    327    329     1  0.0000000  0.0000000  2
    125    327    329    331     1  0.0000000  2.2175200  1
    125    327    329    331     1  0.0000000  0.0000000  2
    125    327    329    331     1  180.0000771  0.6276000  3
    125    327    329    331     1  180.0000771  2.0920000  4
    126    123    121    128     1  0.0000000  0.6508444  3
    126    127    357    359     1  180.0000771  6.2760000  1
    126    127    357    359     1  0.0000000  0.0000000  2
    127    357    359    361     1  0.0000000  2.2175200  1
    127    357    359    361     1  0.0000000  0.0000000  2
    127    357    359    361     1  180.0000771  0.6276000  3
    127    357    359    361     1  180.0000771  2.0920000  4
    131    125    327    329     1  180.0000771  10.4600000  2
    132    127    357    359     1  180.0000771  10.4600000  2
    147    149    151    155     1  0.0000000  0.6508444  3
    149    151    155    156     1  0.0000000  0.6508444  3
    149    151    155    157     1  0.0000000  0.6508444  3
    151    155    156    168     1  0.0000000  0.6508444  3
    151    155    157    159     1  0.0000000  0.6508444  3
    155    156    168    171     1  0.0000000  0.6508444  3
    155    157    159    163     1  0.0000000  0.6508444  3
    156    155    157    159     1  0.0000000  0.6508444  3
    156    168    171    172     1  180.0000771  0.0000000  2
    156    168    171    173     1  180.0000771  0.0000000  2
    157    155    156    168     1  0.0000000  0.6508444  3
    157    159    163    164     1  180.0000771  0.0000000  2
    157    159    163    165     1  180.0000771  0.0000000  2
    177    179    181    185     1  0.0000000  0.6508444  3
    179    181    185    186     1  0.0000000  0.6508444  3
    179    181    185    187     1  0.0000000  0.6508444  3
    181    185    186    198     1  0.0000000  0.6508444  3
    181    185    187    189     1  0.0000000  0.6508444  3
    185    186    198    201     1  0.0000000  0.6508444  3
    185    187    189    193     1  0.0000000  0.6508444  3
    186    198    201    202     1  180.0000771  0.0000000  2
    186    198    201    203     1  180.0000771  0.0000000  2
    186    185    187    189     1  0.0000000  0.6508444  3
    187    189    193    194     1  180.0000771  0.0000000  2
    187    189    193    195     1  180.0000771  0.0000000  2
    187    185    186    198     1  0.0000000  0.6508444  3
    207    209    211    215     1  0.0000000  0.6508444  3
    209    211    215    216     1  0.0000000  0.6508444  3
    209    211    215    217     1  0.0000000  0.6508444  3
    211    215    216    228     1  0.0000000  0.6508444  3
    211    215    217    219     1  0.0000000  0.6508444  3
    215    216    228    231     1  0.0000000  0.6508444  3
    215    217    219    223     1  0.0000000  0.6508444  3
    216    215    217    219     1  0.0000000  0.6508444  3
    216    228    231    232     1  180.0000771  0.0000000  2
    216    228    231    233     1  180.0000771  0.0000000  2
    217    215    216    228     1  0.0000000  0.6508444  3
    217    219    223    224     1  180.0000771  0.0000000  2
    217    219    223    225     1  180.0000771  0.0000000  2
    237    239    241    245     1  0.0000000  0.6508444  3
    239    241    245    246     1  0.0000000  0.6508444  3
    239    241    245    247     1  0.0000000  0.6508444  3
    241    245    246    258     1  0.0000000  0.6508444  3
    241    245    247    249     1  0.0000000  0.6508444  3
    245    246    258    261     1  0.0000000  0.6508444  3
    245    247    249    253     1  0.0000000  0.6508444  3
    246    258    261    262     1  180.0000771  0.0000000  2
    246    258    261    263     1  180.0000771  0.0000000  2
    246    245    247    249     1  0.0000000  0.6508444  3
    247    249    253    254     1  180.0000771  0.0000000  2
    247    249    253    255     1  180.0000771  0.0000000  2
    247    245    246    258     1  0.0000000  0.6508444  3
    267    269    271    275     1  0.0000000  0.6508444  3
    269    271    275    276     1  0.0000000  0.6508444  3
    269    271    275    277     1  0.0000000  0.6508444  3
    271    275    276    288     1  0.0000000  0.6508444  3
    271    275    277    279     1  0.0000000  0.6508444  3
    275    276    288    291     1  0.0000000  0.6508444  3
    275    277    279    283     1  0.0000000  0.6508444  3
    276    275    277    279     1  0.0000000  0.6508444  3
    276    288    291    292     1  180.0000771  0.0000000  2
    276    288    291    293     1  180.0000771  0.0000000  2
    277    275    276    288     1  0.0000000  0.6508444  3
    277    279    283    284     1  180.0000771  0.0000000  2
    277    279    283    285     1  180.0000771  0.0000000  2
    297    299    301    305     1  0.0000000  0.6508444  3
    299    301    305    306     1  0.0000000  0.6508444  3
    299    301    305    307     1  0.0000000  0.6508444  3
    301    305    306    318     1  0.0000000  0.6508444  3
    301    305    307    309     1  0.0000000  0.6508444  3
    305    306    318    321     1  0.0000000  0.6508444  3
    305    307    309    313     1  0.0000000  0.6508444  3
    306    318    321    322     1  180.0000771  0.0000000  2
    306    318    321    323     1  180.0000771  0.0000000  2
    306    305    307    309     1  0.0000000  0.6508444  3
    307    309    313    314     1  180.0000771  0.0000000  2
    307    309    313    315     1  180.0000771  0.0000000  2
    307    305    306    318     1  0.0000000  0.6508444  3
    327    329    331    335     1  0.0000000  0.6508444  3
    329    331    335    336     1  0.0000000  0.6508444  3
    329    331    335    337     1  0.0000000  0.6508444  3
    331    335    336    348     1  0.0000000  0.6508444  3
    331    335    337    339     1  0.0000000  0.6508444  3
    335    336    348    351     1  0.0000000  0.6508444  3
    335    337    339    343     1  0.0000000  0.6508444  3
    336    335    337    339     1  0.0000000  0.6508444  3
    336    348    351    352     1  180.0000771  0.0000000  2
    336    348    351    353     1  180.0000771  0.0000000  2
    337    335    336    348     1  0.0000000  0.6508444  3
    337    339    343    344     1  180.0000771  0.0000000  2
    337    339    343    345     1  180.0000771  0.0000000  2
    357    359    361    365     1  0.0000000  0.6508444  3
    359    361    365    366     1  0.0000000  0.6508444  3
    359    361    365    367     1  0.0000000  0.6508444  3
    361    365    366    378     1  0.0000000  0.6508444  3
    361    365    367    369     1  0.0000000  0.6508444  3
    365    366    378    381     1  0.0000000  0.6508444  3
    365    367    369    373     1  0.0000000  0.6508444  3
    366    378    381    382     1  180.0000771  0.0000000  2
    366    378    381    383     1  180.0000771  0.0000000  2
    366    365    367    369     1  0.0000000  0.6508444  3
    367    369    373    374     1  180.0000771  0.0000000  2
    367    369    373    375     1  180.0000771  0.0000000  2
    367    365    366    378     1  0.0000000  0.6508444  3
      9     52     10     18     4  180.0000771  43.9320000  2
     11     78     12     17     4  180.0000771  43.9320000  2
     13    104     14     20     4  180.0000771  43.9320000  2
     15    130     16     19     4  180.0000771  43.9320000  2
     46    147     47     53     4  180.0000771  43.9320000  2
     48    177     49     54     4  180.0000771  43.9320000  2
     72    207     73     79     4  180.0000771  43.9320000  2
     74    237     75     80     4  180.0000771  43.9320000  2
     98    267     99    105     4  180.0000771  43.9320000  2
    100    297    101    106     4  180.0000771  43.9320000  2
    124    327    125    131     4  180.0000771  43.9320000  2
    126    357    127    132     4  180.0000771  43.9320000  2
    159    165    163    164     4  180.0000771  4.6024000  2
    168    172    171    173     4  180.0000771  4.6024000  2
    189    195    193    194     4  180.0000771  4.6024000  2
    198    202    201    203     4  180.0000771  4.6024000  2
    219    225    223    224     4  180.0000771  4.6024000  2
    228    232    231    233     4  180.0000771  4.6024000  2
    249    255    253    254     4  180.0000771  4.6024000  2
    258    262    261    263     4  180.0000771  4.6024000  2
    279    285    283    284     4  180.0000771  4.6024000  2
    288    292    291    293     4  180.0000771  4.6024000  2
    309    315    313    314     4  180.0000771  4.6024000  2
    318    322    321    323     4  180.0000771  4.6024000  2
    339    345    343    344     4  180.0000771  4.6024000  2
    348    352    351    353     4  180.0000771  4.6024000  2
    369    375    373    374     4  180.0000771  4.6024000  2
    378    382    381    383     4  180.0000771  4.6024000  2
      1      2      3     23     1  0.0000000  0.6508444  3
      1      2      3     24     1  0.0000000  0.6508444  3
      1      7     13     37     1  0.0000000  0.6508444  3
      1      7     13     38     1  0.0000000  0.6508444  3
      1      8     15     39     1  0.0000000  0.6508444  3
      1      8     15     40     1  0.0000000  0.6508444  3
      2      1      7     29     1  0.0000000  0.6508444  3
      2      1      7     30     1  0.0000000  0.6508444  3
      2      1      8     31     1  0.0000000  0.6508444  3
      2      1      8     32     1  0.0000000  0.6508444  3
      2      3      4     42     1  0.0000000  0.6508444  3
     41      1      2      3     1  0.0000000  0.6508444  3
      3      4      5     25     1  0.0000000  0.6508444  3
      3      4      5     26     1  0.0000000  0.6508444  3
      3      4      6     27     1  0.0000000  0.6508444  3
      3      4      6     28     1  0.0000000  0.6508444  3
      4      3      2     21     1  0.0000000  0.6508444  3
      4      3      2     22     1  0.0000000  0.6508444  3
      4      5     11     35     1  0.0000000  0.6508444  3
      4      5     11     36     1  0.0000000  0.6508444  3
      4      6      9     33     1  0.0000000  0.6508444  3
      4      6      9     34     1  0.0000000  0.6508444  3
      5      4      3     23     1  0.0000000  0.6508444  3
      5      4      3     24     1  0.0000000  0.6508444  3
      5      4      6     27     1  0.0000000  0.6508444  3
      5      4      6     28     1  0.0000000  0.6508444  3
      6      4      3     23     1  0.0000000  0.6508444  3
      6      4      3     24     1  0.0000000  0.6508444  3
      6      4      5     25     1  0.0000000  0.6508444  3
      6      4      5     26     1  0.0000000  0.6508444  3
      7      1      2     21     1  0.0000000  0.6508444  3
      7      1      2     22     1  0.0000000  0.6508444  3
      7      1      8     31     1  0.0000000  0.6508444  3
      7      1      8     32     1  0.0000000  0.6508444  3
      8      1      2     21     1  0.0000000  0.6508444  3
      8      1      2     22     1  0.0000000  0.6508444  3
      8      1      7     29     1  0.0000000  0.6508444  3
      8      1      7     30     1  0.0000000  0.6508444  3
      9      6      4     42     1  0.0000000  0.6508444  3
      9     10     52     67     1  180.0000771  10.4600000  2
     10      9      6     27     1  0.0000000  0.6508444  3
     10      9      6     28     1  0.0000000  0.6508444  3
     10     52     51     65     1  0.0000000  0.0000000  2
     10     52     51     66     1  0.0000000  0.0000000  2
     11      5      4     42     1  0.0000000  0.6508444  3
     11     12     78     93     1  180.0000771  10.4600000  2
     12     11      5     25     1  0.0000000  0.6508444  3
     12     11      5     26     1  0.0000000  0.6508444  3
     12     78     77     91     1  0.0000000  0.0000000  2
     12     78     77     92     1  0.0000000  0.0000000  2
     41      1      7     13     1  0.0000000  0.6508444  3
     13     14    104    119     1  180.0000771  10.4600000  2
     14     13      7     29     1  0.0000000  0.6508444  3
     14     13      7     30     1  0.0000000  0.6508444  3
     14    104    103    117     1  0.0000000  0.0000000  2
     14    104    103    118     1  0.0000000  0.0000000  2
     41      1      8     15     1  0.0000000  0.6508444  3
     15     16    130    145     1  180.0000771  10.4600000  2
     16     15      8     31     1  0.0000000  0.6508444  3
     16     15      8     32     1  0.0000000  0.6508444  3
     16    130    129    143     1  0.0000000  0.0000000  2
     16    130    129    144     1  0.0000000  0.0000000  2
     17     12     11     35     1  0.0000000  3.3472000  1
     17     12     11     35     1  0.0000000  0.0000000  2
     17     12     11     35     1  180.0000771  0.3347200  3
     17     12     11     36     1  0.0000000  3.3472000  1
     17     12     11     36     1  0.0000000  0.0000000  2
     17     12     11     36     1  180.0000771  0.3347200  3
     17     12     78     93     1  0.0000000  8.3680000  1
     17     12     78     93     1  180.0000771  10.4600000  2
     18     10      9     33     1  0.0000000  3.3472000  1
     18     10      9     33     1  0.0000000  0.0000000  2
     18     10      9     33     1  180.0000771  0.3347200  3
     18     10      9     34     1  0.0000000  3.3472000  1
     18     10      9     34     1  0.0000000  0.0000000  2
     18     10      9     34     1  180.0000771  0.3347200  3
     18     10     52     67     1  0.0000000  8.3680000  1
     18     10     52     67     1  180.0000771  10.4600000  2
     19     16     15     39     1  0.0000000  3.3472000  1
     19     16     15     39     1  0.0000000  0.0000000  2
     19     16     15     39     1  180.0000771  0.3347200  3
     19     16     15     40     1  0.0000000  3.3472000  1
     19     16     15     40     1  0.0000000  0.0000000  2
     19     16     15     40     1  180.0000771  0.3347200  3
     19     16    130    145     1  0.0000000  8.3680000  1
     19     16    130    145     1  180.0000771  10.4600000  2
     20     14     13     37     1  0.0000000  3.3472000  1
     20     14     13     37     1  0.0000000  0.0000000  2
     20     14     13     37     1  180.0000771  0.3347200  3
     20     14     13     38     1  0.0000000  3.3472000  1
     20     14     13     38     1  0.0000000  0.0000000  2
     20     14     13     38     1  180.0000771  0.3347200  3
     20     14    104    119     1  0.0000000  8.3680000  1
     20     14    104    119     1  180.0000771  10.4600000  2
     41      1      2     21     1  0.0000000  0.6508444  3
     21      2      3     23     1  0.0000000  0.6508444  3
     21      2      3     24     1  0.0000000  0.6508444  3
     41      1      2     22     1  0.0000000  0.6508444  3
     22      2      3     23     1  0.0000000  0.6508444  3
     22      2      3     24     1  0.0000000  0.6508444  3
     23      3      4     42     1  0.0000000  0.6508444  3
     24      3      4     42     1  0.0000000  0.6508444  3
     25      5      4     42     1  0.0000000  0.6508444  3
     25      5     11     35     1  0.0000000  0.6508444  3
     25      5     11     36     1  0.0000000  0.6508444  3
     26      5      4     42     1  0.0000000  0.6508444  3
     26      5     11     35     1  0.0000000  0.6508444  3
     26      5     11     36     1  0.0000000  0.6508444  3
     27      6      4     42     1  0.0000000  0.6508444  3
     27      6      9     33     1  0.0000000  0.6508444  3
     27      6      9     34     1  0.0000000  0.6508444  3
     28      6      4     42     1  0.0000000  0.6508444  3
     28      6      9     33     1  0.0000000  0.6508444  3
     28      6      9     34     1  0.0000000  0.6508444  3
     41      1      7     29     1  0.0000000  0.6508444  3
     29      7     13     37     1  0.0000000  0.6508444  3
     29      7     13     38     1  0.0000000  0.6508444  3
     41      1      7     30     1  0.0000000  0.6508444  3
     30      7     13     37     1  0.0000000  0.6508444  3
     30      7     13     38     1  0.0000000  0.6508444  3
     41      1      8     31     1  0.0000000  0.6508444  3
     31      8     15     39     1  0.0000000  0.6508444  3
     31      8     15     40     1  0.0000000  0.6508444  3
     41      1      8     32     1  0.0000000  0.6508444  3
     32      8     15     39     1  0.0000000  0.6508444  3
     32      8     15     40     1  0.0000000  0.6508444  3
     33      9     10     52     1  180.0000771  0.0000000  2
     34      9     10     52     1  180.0000771  0.0000000  2
     35     11     12     78     1  180.0000771  0.0000000  2
     36     11     12     78     1  180.0000771  0.0000000  2
     37     13     14    104     1  180.0000771  0.0000000  2
     38     13     14    104     1  180.0000771  0.0000000  2
     39     15     16    130     1  180.0000771  0.0000000  2
     40     15     16    130     1  180.0000771  0.0000000  2
     43     44     46     59     1  0.0000000  0.6508444  3
     43     44     46     60     1  0.0000000  0.6508444  3
     43     45     48     61     1  0.0000000  0.6508444  3
     43     45     48     62     1  0.0000000  0.6508444  3
     43     50     51     65     1  0.0000000  0.6508444  3
     43     50     51     66     1  0.0000000  0.6508444  3
     44     43     45     57     1  0.0000000  0.6508444  3
     44     43     45     58     1  0.0000000  0.6508444  3
     44     43     50     63     1  0.0000000  0.6508444  3
     44     43     50     64     1  0.0000000  0.6508444  3
     45     43     44     55     1  0.0000000  0.6508444  3
     45     43     44     56     1  0.0000000  0.6508444  3
     45     43     50     63     1  0.0000000  0.6508444  3
     45     43     50     64     1  0.0000000  0.6508444  3
     46     44     43     68     1  0.0000000  0.6508444  3
     46     47    147    148     1  180.0000771  10.4600000  2
     47     46     44     55     1  0.0000000  0.6508444  3
     47     46     44     56     1  0.0000000  0.6508444  3
     47    147    149    150     1  0.0000000  0.0000000  2
     47    147    149    152     1  0.0000000  0.0000000  2
     48     45     43     68     1  0.0000000  0.6508444  3
     48     49    177    178     1  180.0000771  10.4600000  2
     49     48     45     57     1  0.0000000  0.6508444  3
     49     48     45     58     1  0.0000000  0.6508444  3
     49    177    179    180     1  0.0000000  0.0000000  2
     49    177    179    182     1  0.0000000  0.0000000  2
     50     43     44     55     1  0.0000000  0.6508444  3
     50     43     44     56     1  0.0000000  0.6508444  3
     50     43     45     57     1  0.0000000  0.6508444  3
     50     43     45     58     1  0.0000000  0.6508444  3
     50     51     52     67     1  0.0000000  0.0000000  2
     51     50     43     68     1  0.0000000  0.6508444  3
     52     51     50     63     1  0.0000000  0.6508444  3
     52     51     50     64     1  0.0000000  0.6508444  3
     53     47     46     59     1  0.0000000  3.3472000  1
     53     47     46     59     1  0.0000000  0.0000000  2
     53     47     46     59     1  180.0000771  0.3347200  3
     53     47     46     60     1  0.0000000  3.3472000  1
     53     47     46     60     1  0.0000000  0.0000000  2
     53     47     46     60     1  180.0000771  0.3347200  3
     53     47    147    148     1  0.0000000  8.3680000  1
     53     47    147    148     1  180.0000771  10.4600000  2
     54     49     48     61     1  0.0000000  3.3472000  1
     54     49     48     61     1  0.0000000  0.0000000  2
     54     49     48     61     1  180.0000771  0.3347200  3
     54     49     48     62     1  0.0000000  3.3472000  1
     54     49     48     62     1  0.0000000  0.0000000  2
     54     49     48     62     1  180.0000771  0.3347200  3
     54     49    177    178     1  0.0000000  8.3680000  1
     54     49    177    178     1  180.0000771  10.4600000  2
     55     44     43     68     1  0.0000000  0.6508444  3
     55     44     46     59     1  0.0000000  0.6508444  3
     55     44     46     60     1  0.0000000  0.6508444  3
     56     44     43     68     1  0.0000000  0.6508444  3
     56     44     46     59     1  0.0000000  0.6508444  3
     56     44     46     60     1  0.0000000  0.6508444  3
     57     45     43     68     1  0.0000000  0.6508444  3
     57     45     48     61     1  0.0000000  0.6508444  3
     57     45     48     62     1  0.0000000  0.6508444  3
     58     45     43     68     1  0.0000000  0.6508444  3
     58     45     48     61     1  0.0000000  0.6508444  3
     58     45     48     62     1  0.0000000  0.6508444  3
     59     46     47    147     1  180.0000771  0.0000000  2
     60     46     47    147     1  180.0000771  0.0000000  2
     61     48     49    177     1  180.0000771  0.0000000  2
     62     48     49    177     1  180.0000771  0.0000000  2
     63     50     43     68     1  0.0000000  0.6508444  3
     63     50     51     65     1  0.0000000  0.6508444  3
     63     50     51     66     1  0.0000000  0.6508444  3
     64     50     43     68     1  0.0000000  0.6508444  3
     64     50     51     65     1  0.0000000  0.6508444  3
     64     50     51     66     1  0.0000000  0.6508444  3
     65     51     52     67     1  0.0000000  0.0000000  2
     66     51     52     67     1  0.0000000  0.0000000  2
     69     70     72     85     1  0.0000000  0.6508444  3
     69     70     72     86     1  0.0000000  0.6508444  3
     69     71     74     87     1  0.0000000  0.6508444  3
     69     71     74     88     1  0.0000000  0.6508444  3
     69     76     77     91     1  0.0000000  0.6508444  3
     69     76     77     92     1  0.0000000  0.6508444  3
     70     69     71     83     1  0.0000000  0.6508444  3
     70     69     71     84     1  0.0000000  0.6508444  3
     70     69     76     89     1  0.0000000  0.6508444  3
     70     69     76     90     1  0.0000000  0.6508444  3
     71     69     70     81     1  0.0000000  0.6508444  3
     71     69     70     82     1  0.0000000  0.6508444  3
     71     69     76     89     1  0.0000000  0.6508444  3
     71     69     76     90     1  0.0000000  0.6508444  3
     72     70     69     94     1  0.0000000  0.6508444  3
     72     73    207    208     1  180.0000771  10.4600000  2
     73     72     70     81     1  0.0000000  0.6508444  3
     73     72     70     82     1  0.0000000  0.6508444  3
     73    207    209    210     1  0.0000000  0.0000000  2
     73    207    209    212     1  0.0000000  0.0000000  2
     74     71     69     94     1  0.0000000  0.6508444  3
     74     75    237    238     1  180.0000771  10.4600000  2
     75     74     71     83     1  0.0000000  0.6508444  3
     75     74     71     84     1  0.0000000  0.6508444  3
     75    237    239    240     1  0.0000000  0.0000000  2
     75    237    239    242     1  0.0000000  0.0000000  2
     76     69     70     81     1  0.0000000  0.6508444  3
     76     69     70     82     1  0.0000000  0.6508444  3
     76     69     71     83     1  0.0000000  0.6508444  3
     76     69     71     84     1  0.0000000  0.6508444  3
     76     77     78     93     1  0.0000000  0.0000000  2
     77     76     69     94     1  0.0000000  0.6508444  3
     78     77     76     89     1  0.0000000  0.6508444  3
     78     77     76     90     1  0.0000000  0.6508444  3
     79     73     72     85     1  0.0000000  3.3472000  1
     79     73     72     85     1  0.0000000  0.0000000  2
     79     73     72     85     1  180.0000771  0.3347200  3
     79     73     72     86     1  0.0000000  3.3472000  1
     79     73     72     86     1  0.0000000  0.0000000  2
     79     73     72     86     1  180.0000771  0.3347200  3
     79     73    207    208     1  0.0000000  8.3680000  1
     79     73    207    208     1  180.0000771  10.4600000  2
     80     75     74     87     1  0.0000000  3.3472000  1
     80     75     74     87     1  0.0000000  0.0000000  2
     80     75     74     87     1  180.0000771  0.3347200  3
     80     75     74     88     1  0.0000000  3.3472000  1
     80     75     74     88     1  0.0000000  0.0000000  2
     80     75     74     88     1  180.0000771  0.3347200  3
     80     75    237    238     1  0.0000000  8.3680000  1
     80     75    237    238     1  180.0000771  10.4600000  2
     81     70     69     94     1  0.0000000  0.6508444  3
     81     70     72     85     1  0.0000000  0.6508444  3
     81     70     72     86     1  0.0000000  0.6508444  3
     82     70     69     94     1  0.0000000  0.6508444  3
     82     70     72     85     1  0.0000000  0.6508444  3
     82     70     72     86     1  0.0000000  0.6508444  3
     83     71     69     94     1  0.0000000  0.6508444  3
     83     71     74     87     1  0.0000000  0.6508444  3
     83     71     74     88     1  0.0000000  0.6508444  3
     84     71     69     94     1  0.0000000  0.6508444  3
     84     71     74     87     1  0.0000000  0.6508444  3
     84     71     74     88     1  0.0000000  0.6508444  3
     85     72     73    207     1  180.0000771  0.0000000  2
     86     72     73    207     1  180.0000771  0.0000000  2
     87     74     75    237     1  180.0000771  0.0000000  2
     88     74     75    237     1  180.0000771  0.0000000  2
     89     76     69     94     1  0.0000000  0.6508444  3
     89     76     77     91     1  0.0000000  0.6508444  3
     89     76     77     92     1  0.0000000  0.6508444  3
     90     76     69     94     1  0.0000000  0.6508444  3
     90     76     77     91     1  0.0000000  0.6508444  3
     90     76     77     92     1  0.0000000  0.6508444  3
     91     77     78     93     1  0.0000000  0.0000000  2
     92     77     78     93     1  0.0000000  0.0000000  2
     95     96     98    111     1  0.0000000  0.6508444  3
     95     96     98    112     1  0.0000000  0.6508444  3
     95     97    100    113     1  0.0000000  0.6508444  3
     95     97    100    114     1  0.0000000  0.6508444  3
     95    102    103    117     1  0.0000000  0.6508444  3
     95    102    103    118     1  0.0000000  0.6508444  3
     96     95     97    109     1  0.0000000  0.6508444  3
     96     95     97    110     1  0.0000000  0.6508444  3
     96     95    102    115     1  0.0000000  0.6508444  3
     96     95    102    116     1  0.0000000  0.6508444  3
     97     95     96    107     1  0.0000000  0.6508444  3
     97     95     96    108     1  0.0000000  0.6508444  3
     97     95    102    115     1  0.0000000  0.6508444  3
     97     95    102    116     1  0.0000000  0.6508444  3
     98     96     95    120     1  0.0000000  0.6508444  3
     98     99    267    268     1  180.0000771  10.4600000  2
     99     98     96    107     1  0.0000000  0.6508444  3
     99     98     96    108     1  0.0000000  0.6508444  3
     99    267    269    270     1  0.0000000  0.0000000  2
     99    267    269    272     1  0.0000000  0.0000000  2
    100     97     95    120     1  0.0000000  0.6508444  3
    100    101    297    298     1  180.0000771  10.4600000  2
    101    100     97    109     1  0.0000000  0.6508444  3
    101    100     97    110     1  0.0000000  0.6508444  3
    101    297    299    300     1  0.0000000  0.0000000  2
    101    297    299    302     1  0.0000000  0.0000000  2
    102     95     96    107     1  0.0000000  0.6508444  3
    102     95     96    108     1  0.0000000  0.6508444  3
    102     95     97    109     1  0.0000000  0.6508444  3
    102     95     97    110     1  0.0000000  0.6508444  3
    102    103    104    119     1  0.0000000  0.0000000  2
    103    102     95    120     1  0.0000000  0.6508444  3
    104    103    102    115     1  0.0000000  0.6508444  3
    104    103    102    116     1  0.0000000  0.6508444  3
    105     99     98    111     1  0.0000000  3.3472000  1
    105     99     98    111     1  0.0000000  0.0000000  2
    105     99     98    111     1  180.0000771  0.3347200  3
    105     99     98    112     1  0.0000000  3.3472000  1
    105     99     98    112     1  0.0000000  0.0000000  2
    105     99     98    112     1  180.0000771  0.3347200  3
    105     99    267    268     1  0.0000000  8.3680000  1
    105     99    267    268     1  180.0000771  10.4600000  2
    106    101    100    113     1  0.0000000  3.3472000  1
    106    101    100    113     1  0.0000000  0.0000000  2
    106    101    100    113     1  180.0000771  0.3347200  3
    106    101    100    114     1  0.0000000  3.3472000  1
    106    101    100    114     1  0.0000000  0.0000000  2
    106    101    100    114     1  180.0000771  0.3347200  3
    106    101    297    298     1  0.0000000  8.3680000  1
    106    101    297    298     1  180.0000771  10.4600000  2
    107     96     95    120     1  0.0000000  0.6508444  3
    107     96     98    111     1  0.0000000  0.6508444  3
    107     96     98    112     1  0.0000000  0.6508444  3
    108     96     95    120     1  0.0000000  0.6508444  3
    108     96     98    111     1  0.0000000  0.6508444  3
    108     96     98    112     1  0.0000000  0.6508444  3
    109     97     95    120     1  0.0000000  0.6508444  3
    109     97    100    113     1  0.0000000  0.6508444  3
    109     97    100    114     1  0.0000000  0.6508444  3
    110     97     95    120     1  0.0000000  0.6508444  3
    110     97    100    113     1  0.0000000  0.6508444  3
    110     97    100    114     1  0.0000000  0.6508444  3
    111     98     99    267     1  180.0000771  0.0000000  2
    112     98     99    267     1  180.0000771  0.0000000  2
    113    100    101    297     1  180.0000771  0.0000000  2
    114    100    101    297     1  180.0000771  0.0000000  2
    115    102     95    120     1  0.0000000  0.6508444  3
    115    102    103    117     1  0.0000000  0.6508444  3
    115    102    103    118     1  0.0000000  0.6508444  3
    116    102     95    120     1  0.0000000  0.6508444  3
    116    102    103    117     1  0.0000000  0.6508444  3
    116    102    103    118     1  0.0000000  0.6508444  3
    117    103    104    119     1  0.0000000  0.0000000  2
    118    103    104    119     1  0.0000000  0.0000000  2
    121    122    124    137     1  0.0000000  0.6508444  3
    121    122    124    138     1  0.0000000  0.6508444  3
    121    123    126    139     1  0.0000000  0.6508444  3
    121    123    126    140     1  0.0000000  0.6508444  3
    121    128    129    143     1  0.0000000  0.6508444  3
    121    128    129    144     1  0.0000000  0.6508444  3
    122    121    123    135     1  0.0000000  0.6508444  3
    122    121    123    136     1  0.0000000  0.6508444  3
    122    121    128    141     1  0.0000000  0.6508444  3
    122    121    128    142     1  0.0000000  0.6508444  3
    123    121    122    133     1  0.0000000  0.6508444  3
    123    121    122    134     1  0.0000000  0.6508444  3
    123    121    128    141     1  0.0000000  0.6508444  3
    123    121    128    142     1  0.0000000  0.6508444  3
    124    122    121    146     1  0.0000000  0.6508444  3
    124    125    327    328     1  180.0000771  10.4600000  2
    125    124    122    133     1  0.0000000  0.6508444  3
    125    124    122    134     1  0.0000000  0.6508444  3
    125    327    329    330     1  0.0000000  0.0000000  2
    125    327    329    332     1  0.0000000  0.0000000  2
    126    123    121    146     1  0.0000000  0.6508444  3
    126    127    357    358     1  180.0000771  10.4600000  2
    127    126    123    135     1  0.0000000  0.6508444  3
    127    126    123    136     1  0.0000000  0.6508444  3
    127    357    359    360     1  0.0000000  0.0000000  2
    127    357    359    362     1  0.0000000  0.0000000  2
    128    121    122    133     1  0.0000000  0.6508444  3
    128    121    122    134     1  0.0000000  0.6508444  3
    128    121    123    135     1  0.0000000  0.6508444  3
    128    121    123    136     1  0.0000000  0.6508444  3
    128    129    130    145     1  0.0000000  0.0000000  2
    129    128    121    146     1  0.0000000  0.6508444  3
    130    129    128    141     1  0.0000000  0.6508444  3
    130    129    128    142     1  0.0000000  0.6508444  3
    131    125    124    137     1  0.0000000  3.3472000  1
    131    125    124    137     1  0.0000000  0.0000000  2
    131    125    124    137     1  180.0000771  0.3347200  3
    131    125    124    138     1  0.0000000  3.3472000  1
    131    125    124    138     1  0.0000000  0.0000000  2
    131    125    124    138     1  180.0000771  0.3347200  3
    131    125    327    328     1  0.0000000  8.3680000  1
    131    125    327    328     1  180.0000771  10.4600000  2
    132    127    126    139     1  0.0000000  3.3472000  1
    132    127    126    139     1  0.0000000  0.0000000  2
    132    127    126    139     1  180.0000771  0.3347200  3
    132    127    126    140     1  0.0000000  3.3472000  1
    132    127    126    140     1  0.0000000  0.0000000  2
    132    127    126    140     1  180.0000771  0.3347200  3
    132    127    357    358     1  0.0000000  8.3680000  1
    132    127    357    358     1  180.0000771  10.4600000  2
    133    122    121    146     1  0.0000000  0.6508444  3
    133    122    124    137     1  0.0000000  0.6508444  3
    133    122    124    138     1  0.0000000  0.6508444  3
    134    122    121    146     1  0.0000000  0.6508444  3
    134    122    124    137     1  0.0000000  0.6508444  3
    134    122    124    138     1  0.0000000  0.6508444  3
    135    123    121    146     1  0.0000000  0.6508444  3
    135    123    126    139     1  0.0000000  0.6508444  3
    135    123    126    140     1  0.0000000  0.6508444  3
    136    123    121    146     1  0.0000000  0.6508444  3
    136    123    126    139     1  0.0000000  0.6508444  3
    136    123    126    140     1  0.0000000  0.6508444  3
    137    124    125    327     1  180.0000771  0.0000000  2
    138    124    125    327     1  180.0000771  0.0000000  2
    139    126    127    357     1  180.0000771  0.0000000  2
    140    126    127    357     1  180.0000771  0.0000000  2
    141    128    121    146     1  0.0000000  0.6508444  3
    141    128    129    143     1  0.0000000  0.6508444  3
    141    128    129    144     1  0.0000000  0.6508444  3
    142    128    121    146     1  0.0000000  0.6508444  3
    142    128    129    143     1  0.0000000  0.6508444  3
    142    128    129    144     1  0.0000000  0.6508444  3
    143    129    130    145     1  0.0000000  0.0000000  2
    144    129    130    145     1  0.0000000  0.0000000  2
    147    149    151    153     1  0.0000000  0.6508444  3
    147    149    151    154     1  0.0000000  0.6508444  3
    148    147    149    151     1  0.0000000  0.0000000  2
    148    147    149    150     1  0.0000000  0.0000000  2
    148    147    149    152     1  0.0000000  0.0000000  2
    149    151    155    176     1  0.0000000  0.6508444  3
    150    149    151    155     1  0.0000000  0.6508444  3
    150    149    151    153     1  0.0000000  0.6508444  3
    150    149    151    154     1  0.0000000  0.6508444  3
    151    155    156    166     1  0.0000000  0.6508444  3
    151    155    156    167     1  0.0000000  0.6508444  3
    151    155    157    158     1  0.0000000  0.6508444  3
    151    155    157    160     1  0.0000000  0.6508444  3
    152    149    151    155     1  0.0000000  0.6508444  3
    152    149    151    153     1  0.0000000  0.6508444  3
    152    149    151    154     1  0.0000000  0.6508444  3
    153    151    155    156     1  0.0000000  0.6508444  3
    153    151    155    157     1  0.0000000  0.6508444  3
    153    151    155    176     1  0.0000000  0.6508444  3
    154    151    155    156     1  0.0000000  0.6508444  3
    154    151    155    157     1  0.0000000  0.6508444  3
    154    151    155    176     1  0.0000000  0.6508444  3
    155    156    168    169     1  0.0000000  0.6508444  3
    155    156    168    170     1  0.0000000  0.6508444  3
    155    157    159    161     1  0.0000000  0.6508444  3
    155    157    159    162     1  0.0000000  0.6508444  3
    156    155    157    158     1  0.0000000  0.6508444  3
    156    155    157    160     1  0.0000000  0.6508444  3
    157    155    156    166     1  0.0000000  0.6508444  3
    157    155    156    167     1  0.0000000  0.6508444  3
    158    157    155    176     1  0.0000000  0.6508444  3
    158    157    159    163     1  0.0000000  0.6508444  3
    158    157    159    161     1  0.0000000  0.6508444  3
    158    157    159    162     1  0.0000000  0.6508444  3
    159    157    155    176     1  0.0000000  0.6508444  3
    159    163    164    174     1  180.0000771  9.6232000  2
    160    157    155    176     1  0.0000000  0.6508444  3
    160    157    159    163     1  0.0000000  0.6508444  3
    160    157    159    161     1  0.0000000  0.6508444  3
    160    157    159    162     1  0.0000000  0.6508444  3
    161    159    163    164     1  180.0000771  0.0000000  2
    161    159    163    165     1  0.0000000  3.3472000  1
    161    159    163    165     1  0.0000000  0.0000000  2
    161    159    163    165     1  180.0000771  0.3347200  3
    162    159    163    164     1  180.0000771  0.0000000  2
    162    159    163    165     1  0.0000000  3.3472000  1
    162    159    163    165     1  0.0000000  0.0000000  2
    162    159    163    165     1  180.0000771  0.3347200  3
    165    163    164    174     1  0.0000000  7.9496000  1
    165    163    164    174     1  180.0000771  9.6232000  2
    166    156    155    176     1  0.0000000  0.6508444  3
    166    156    168    171     1  0.0000000  0.6508444  3
    166    156    168    169     1  0.0000000  0.6508444  3
    166    156    168    170     1  0.0000000  0.6508444  3
    167    156    155    176     1  0.0000000  0.6508444  3
    167    156    168    171     1  0.0000000  0.6508444  3
    167    156    168    169     1  0.0000000  0.6508444  3
    167    156    168    170     1  0.0000000  0.6508444  3
    168    156    155    176     1  0.0000000  0.6508444  3
    168    171    173    175     1  180.0000771  9.6232000  2
    169    168    171    172     1  0.0000000  3.3472000  1
    169    168    171    172     1  0.0000000  0.0000000  2
    169    168    171    172     1  180.0000771  0.3347200  3
    169    168    171    173     1  180.0000771  0.0000000  2
    170    168    171    172     1  0.0000000  3.3472000  1
    170    168    171    172     1  0.0000000  0.0000000  2
    170    168    171    172     1  180.0000771  0.3347200  3
    170    168    171    173     1  180.0000771  0.0000000  2
    172    171    173    175     1  0.0000000  7.9496000  1
    172    171    173    175     1  180.0000771  9.6232000  2
    177    179    181    183     1  0.0000000  0.6508444  3
    177    179    181    184     1  0.0000000  0.6508444  3
    178    177    179    181     1  0.0000000  0.0000000  2
    178    177    179    180     1  0.0000000  0.0000000  2
    178    177    179    182     1  0.0000000  0.0000000  2
    179    181    185    206     1  0.0000000  0.6508444  3
    180    179    181    185     1  0.0000000  0.6508444  3
    180    179    181    183     1  0.0000000  0.6508444  3
    180    179    181    184     1  0.0000000  0.6508444  3
    181    185    186    196     1  0.0000000  0.6508444  3
    181    185    186    197     1  0.0000000  0.6508444  3
    181    185    187    188     1  0.0000000  0.6508444  3
    181    185    187    190     1  0.0000000  0.6508444  3
    182    179    181    185     1  0.0000000  0.6508444  3
    182    179    181    183     1  0.0000000  0.6508444  3
    182    179    181    184     1  0.0000000  0.6508444  3
    183    181    185    186     1  0.0000000  0.6508444  3
    183    181    185    187     1  0.0000000  0.6508444  3
    183    181    185    206     1  0.0000000  0.6508444  3
    184    181    185    186     1  0.0000000  0.6508444  3
    184    181    185    187     1  0.0000000  0.6508444  3
    184    181    185    206     1  0.0000000  0.6508444  3
    185    186    198    199     1  0.0000000  0.6508444  3
    185    186    198    200     1  0.0000000  0.6508444  3
    185    187    189    191     1  0.0000000  0.6508444  3
    185    187    189    192     1  0.0000000  0.6508444  3
    186    185    187    188     1  0.0000000  0.6508444  3
    186    185    187    190     1  0.0000000  0.6508444  3
    187    185    186    196     1  0.0000000  0.6508444  3
    187    185    186    197     1  0.0000000  0.6508444  3
    188    187    189    193     1  0.0000000  0.6508444  3
    188    187    189    191     1  0.0000000  0.6508444  3
    188    187    189    192     1  0.0000000  0.6508444  3
    188    187    185    206     1  0.0000000  0.6508444  3
    189    193    194    204     1  180.0000771  9.6232000  2
    189    187    185    206     1  0.0000000  0.6508444  3
    190    187    189    193     1  0.0000000  0.6508444  3
    190    187    189    191     1  0.0000000  0.6508444  3
    190    187    189    192     1  0.0000000  0.6508444  3
    190    187    185    206     1  0.0000000  0.6508444  3
    191    189    193    194     1  180.0000771  0.0000000  2
    191    189    193    195     1  0.0000000  3.3472000  1
    191    189    193    195     1  0.0000000  0.0000000  2
    191    189    193    195     1  180.0000771  0.3347200  3
    192    189    193    194     1  180.0000771  0.0000000  2
    192    189    193    195     1  0.0000000  3.3472000  1
    192    189    193    195     1  0.0000000  0.0000000  2
    192    189    193    195     1  180.0000771  0.3347200  3
    195    193    194    204     1  0.0000000  7.9496000  1
    195    193    194    204     1  180.0000771  9.6232000  2
    196    186    198    201     1  0.0000000  0.6508444  3
    196    186    198    199     1  0.0000000  0.6508444  3
    196    186    198    200     1  0.0000000  0.6508444  3
    196    186    185    206     1  0.0000000  0.6508444  3
    197    186    198    201     1  0.0000000  0.6508444  3
    197    186    198    199     1  0.0000000  0.6508444  3
    197    186    198    200     1  0.0000000  0.6508444  3
    197    186    185    206     1  0.0000000  0.6508444  3
    198    201    203    205     1  180.0000771  9.6232000  2
    198    186    185    206     1  0.0000000  0.6508444  3
    199    198    201    202     1  0.0000000  3.3472000  1
    199    198    201    202     1  0.0000000  0.0000000  2
    199    198    201    202     1  180.0000771  0.3347200  3
    199    198    201    203     1  180.0000771  0.0000000  2
    200    198    201    202     1  0.0000000  3.3472000  1
    200    198    201    202     1  0.0000000  0.0000000  2
    200    198    201    202     1  180.0000771  0.3347200  3
    200    198    201    203     1  180.0000771  0.0000000  2
    202    201    203    205     1  0.0000000  7.9496000  1
    202    201    203    205     1  180.0000771  9.6232000  2
    207    209    211    213     1  0.0000000  0.6508444  3
    207    209    211    214     1  0.0000000  0.6508444  3
    208    207    209    211     1  0.0000000  0.0000000  2
    208    207    209    210     1  0.0000000  0.0000000  2
    208    207    209    212     1  0.0000000  0.0000000  2
    209    211    215    236     1  0.0000000  0.6508444  3
    210    209    211    215     1  0.0000000  0.6508444  3
    210    209    211    213     1  0.0000000  0.6508444  3
    210    209    211    214     1  0.0000000  0.6508444  3
    211    215    216    226     1  0.0000000  0.6508444  3
    211    215    216    227     1  0.0000000  0.6508444  3
    211    215    217    218     1  0.0000000  0.6508444  3
    211    215    217    220     1  0.0000000  0.6508444  3
    212    209    211    215     1  0.0000000  0.6508444  3
    212    209    211    213     1  0.0000000  0.6508444  3
    212    209    211    214     1  0.0000000  0.6508444  3
    213    211    215    216     1  0.0000000  0.6508444  3
    213    211    215    217     1  0.0000000  0.6508444  3
    213    211    215    236     1  0.0000000  0.6508444  3
    214    211    215    216     1  0.0000000  0.6508444  3
    214    211    215    217     1  0.0000000  0.6508444  3
    214    211    215    236     1  0.0000000  0.6508444  3
    215    216    228    229     1  0.0000000  0.6508444  3
    215    216    228    230     1  0.0000000  0.6508444  3
    215    217    219    221     1  0.0000000  0.6508444  3
    215    217    219    222     1  0.0000000  0.6508444  3
    216    215    217    218     1  0.0000000  0.6508444  3
    216    215    217    220     1  0.0000000  0.6508444  3
    217    215    216    226     1  0.0000000  0.6508444  3
    217    215    216    227     1  0.0000000  0.6508444  3
    218    217    215    236     1  0.0000000  0.6508444  3
    218    217    219    223     1  0.0000000  0.6508444  3
    218    217    219    221     1  0.0000000  0.6508444  3
    218    217    219    222     1  0.0000000  0.6508444  3
    219    217    215    236     1  0.0000000  0.6508444  3
    219    223    224    234     1  180.0000771  9.6232000  2
    220    217    215    236     1  0.0000000  0.6508444  3
    220    217    219    223     1  0.0000000  0.6508444  3
    220    217    219    221     1  0.0000000  0.6508444  3
    220    217    219    222     1  0.0000000  0.6508444  3
    221    219    223    224     1  180.0000771  0.0000000  2
    221    219    223    225     1  0.0000000  3.3472000  1
    221    219    223    225     1  0.0000000  0.0000000  2
    221    219    223    225     1  180.0000771  0.3347200  3
    222    219    223    224     1  180.0000771  0.0000000  2
    222    219    223    225     1  0.0000000  3.3472000  1
    222    219    223    225     1  0.0000000  0.0000000  2
    222    219    223    225     1  180.0000771  0.3347200  3
    225    223    224    234     1  0.0000000  7.9496000  1
    225    223    224    234     1  180.0000771  9.6232000  2
    226    216    215    236     1  0.0000000  0.6508444  3
    226    216    228    231     1  0.0000000  0.6508444  3
    226    216    228    229     1  0.0000000  0.6508444  3
    226    216    228    230     1  0.0000000  0.6508444  3
    227    216    215    236     1  0.0000000  0.6508444  3
    227    216    228    231     1  0.0000000  0.6508444  3
    227    216    228    229     1  0.0000000  0.6508444  3
    227    216    228    230     1  0.0000000  0.6508444  3
    228    216    215    236     1  0.0000000  0.6508444  3
    228    231    233    235     1  180.0000771  9.6232000  2
    229    228    231    232     1  0.0000000  3.3472000  1
    229    228    231    232     1  0.0000000  0.0000000  2
    229    228    231    232     1  180.0000771  0.3347200  3
    229    228    231    233     1  180.0000771  0.0000000  2
    230    228    231    232     1  0.0000000  3.3472000  1
    230    228    231    232     1  0.0000000  0.0000000  2
    230    228    231    232     1  180.0000771  0.3347200  3
    230    228    231    233     1  180.0000771  0.0000000  2
    232    231    233    235     1  0.0000000  7.9496000  1
    232    231    233    235     1  180.0000771  9.6232000  2
    237    239    241    243     1  0.0000000  0.6508444  3
    237    239    241    244     1  0.0000000  0.6508444  3
    238    237    239    241     1  0.0000000  0.0000000  2
    238    237    239    240     1  0.0000000  0.0000000  2
    238    237    239    242     1  0.0000000  0.0000000  2
    239    241    245    266     1  0.0000000  0.6508444  3
    240    239    241    245     1  0.0000000  0.6508444  3
    240    239    241    243     1  0.0000000  0.6508444  3
    240    239    241    244     1  0.0000000  0.6508444  3
    241    245    246    256     1  0.0000000  0.6508444  3
    241    245    246    257     1  0.0000000  0.6508444  3
    241    245    247    248     1  0.0000000  0.6508444  3
    241    245    247    250     1  0.0000000  0.6508444  3
    242    239    241    245     1  0.0000000  0.6508444  3
    242    239    241    243     1  0.0000000  0.6508444  3
    242    239    241    244     1  0.0000000  0.6508444  3
    243    241    245    246     1  0.0000000  0.6508444  3
    243    241    245    247     1  0.0000000  0.6508444  3
    243    241    245    266     1  0.0000000  0.6508444  3
    244    241    245    246     1  0.0000000  0.6508444  3
    244    241    245    247     1  0.0000000  0.6508444  3
    244    241    245    266     1  0.0000000  0.6508444  3
    245    246    258    259     1  0.0000000  0.6508444  3
    245    246    258    260     1  0.0000000  0.6508444  3
    245    247    249    251     1  0.0000000  0.6508444  3
    245    247    249    252     1  0.0000000  0.6508444  3
    246    245    247    248     1  0.0000000  0.6508444  3
    246    245    247    250     1  0.0000000  0.6508444  3
    247    245    246    256     1  0.0000000  0.6508444  3
    247    245    246    257     1  0.0000000  0.6508444  3
    248    247    249    253     1  0.0000000  0.6508444  3
    248    247    249    251     1  0.0000000  0.6508444  3
    248    247    249    252     1  0.0000000  0.6508444  3
    248    247    245    266     1  0.0000000  0.6508444  3
    249    253    254    264     1  180.0000771  9.6232000  2
    249    247    245    266     1  0.0000000  0.6508444  3
    250    247    249    253     1  0.0000000  0.6508444  3
    250    247    249    251     1  0.0000000  0.6508444  3
    250    247    249    252     1  0.0000000  0.6508444  3
    250    247    245    266     1  0.0000000  0.6508444  3
    251    249    253    254     1  180.0000771  0.0000000  2
    251    249    253    255     1  0.0000000  3.3472000  1
    251    249    253    255     1  0.0000000  0.0000000  2
    251    249    253    255     1  180.0000771  0.3347200  3
    252    249    253    254     1  180.0000771  0.0000000  2
    252    249    253    255     1  0.0000000  3.3472000  1
    252    249    253    255     1  0.0000000  0.0000000  2
    252    249    253    255     1  180.0000771  0.3347200  3
    255    253    254    264     1  0.0000000  7.9496000  1
    255    253    254    264     1  180.0000771  9.6232000  2
    256    246    258    261     1  0.0000000  0.6508444  3
    256    246    258    259     1  0.0000000  0.6508444  3
    256    246    258    260     1  0.0000000  0.6508444  3
    256    246    245    266     1  0.0000000  0.6508444  3
    257    246    258    261     1  0.0000000  0.6508444  3
    257    246    258    259     1  0.0000000  0.6508444  3
    257    246    258    260     1  0.0000000  0.6508444  3
    257    246    245    266     1  0.0000000  0.6508444  3
    258    261    263    265     1  180.0000771  9.6232000  2
    258    246    245    266     1  0.0000000  0.6508444  3
    259    258    261    262     1  0.0000000  3.3472000  1
    259    258    261    262     1  0.0000000  0.0000000  2
    259    258    261    262     1  180.0000771  0.3347200  3
    259    258    261    263     1  180.0000771  0.0000000  2
    260    258    261    262     1  0.0000000  3.3472000  1
    260    258    261    262     1  0.0000000  0.0000000  2
    260    258    261    262     1  180.0000771  0.3347200  3
    260    258    261    263     1  180.0000771  0.0000000  2
    262    261    263    265     1  0.0000000  7.9496000  1
    262    261    263    265     1  180.0000771  9.6232000  2
    267    269    271    273     1  0.0000000  0.6508444  3
    267    269    271    274     1  0.0000000  0.6508444  3
    268    267    269    271     1  0.0000000  0.0000000  2
    268    267    269    270     1  0.0000000  0.0000000  2
    268    267    269    272     1  0.0000000  0.0000000  2
    269    271    275    296     1  0.0000000  0.6508444  3
    270    269    271    275     1  0.0000000  0.6508444  3
    270    269    271    273     1  0.0000000  0.6508444  3
    270    269    271    274     1  0.0000000  0.6508444  3
    271    275    276    286     1  0.0000000  0.6508444  3
    271    275    276    287     1  0.0000000  0.6508444  3
    271    275    277    278     1  0.0000000  0.6508444  3
    271    275    277    280     1  0.0000000  0.6508444  3
    272    269    271    275     1  0.0000000  0.6508444  3
    272    269    271    273     1  0.0000000  0.6508444  3
    272    269    271    274     1  0.0000000  0.6508444  3
    273    271    275    276     1  0.0000000  0.6508444  3
    273    271    275    277     1  0.0000000  0.6508444  3
    273    271    275    296     1  0.0000000  0.6508444  3
    274    271    275    276     1  0.0000000  0.6508444  3
    274    271    275    277     1  0.0000000  0.6508444  3
    274    271    275    296     1  0.0000000  0.6508444  3
    275    276    288    289     1  0.0000000  0.6508444  3
    275    276    288    290     1  0.0000000  0.6508444  3
    275    277    279    281     1  0.0000000  0.6508444  3
    275    277    279    282     1  0.0000000  0.6508444  3
    276    275    277    278     1  0.0000000  0.6508444  3
    276    275    277    280     1  0.0000000  0.6508444  3
    277    275    276    286     1  0.0000000  0.6508444  3
    277    275    276    287     1  0.0000000  0.6508444  3
    278    277    275    296     1  0.0000000  0.6508444  3
    278    277    279    283     1  0.0000000  0.6508444  3
    278    277    279    281     1  0.0000000  0.6508444  3
    278    277    279    282     1  0.0000000  0.6508444  3
    279    277    275    296     1  0.0000000  0.6508444  3
    279    283    284    294     1  180.0000771  9.6232000  2
    280    277    275    296     1  0.0000000  0.6508444  3
    280    277    279    283     1  0.0000000  0.6508444  3
    280    277    279    281     1  0.0000000  0.6508444  3
    280    277    279    282     1  0.0000000  0.6508444  3
    281    279    283    284     1  180.0000771  0.0000000  2
    281    279    283    285     1  0.0000000  3.3472000  1
    281    279    283    285     1  0.0000000  0.0000000  2
    281    279    283    285     1  180.0000771  0.3347200  3
    282    279    283    284     1  180.0000771  0.0000000  2
    282    279    283    285     1  0.0000000  3.3472000  1
    282    279    283    285     1  0.0000000  0.0000000  2
    282    279    283    285     1  180.0000771  0.3347200  3
    285    283    284    294     1  0.0000000  7.9496000  1
    285    283    284    294     1  180.0000771  9.6232000  2
    286    276    275    296     1  0.0000000  0.6508444  3
    286    276    288    291     1  0.0000000  0.6508444  3
    286    276    288    289     1  0.0000000  0.6508444  3
    286    276    288    290     1  0.0000000  0.6508444  3
    287    276    275    296     1  0.0000000  0.6508444  3
    287    276    288    291     1  0.0000000  0.6508444  3
    287    276    288    289     1  0.0000000  0.6508444  3
    287    276    288    290     1  0.0000000  0.6508444  3
    288    276    275    296     1  0.0000000  0.6508444  3
    288    291    293    295     1  180.0000771  9.6232000  2
    289    288    291    292     1  0.0000000  3.3472000  1
    289    288    291    292     1  0.0000000  0.0000000  2
    289    288    291    292     1  180.0000771  0.3347200  3
    289    288    291    293     1  180.0000771  0.0000000  2
    290    288    291    292     1  0.0000000  3.3472000  1
    290    288    291    292     1  0.0000000  0.0000000  2
    290    288    291    292     1  180.0000771  0.3347200  3
    290    288    291    293     1  180.0000771  0.0000000  2
    292    291    293    295     1  0.0000000  7.9496000  1
    292    291    293    295     1  180.0000771  9.6232000  2
    297    299    301    303     1  0.0000000  0.6508444  3
    297    299    301    304     1  0.0000000  0.6508444  3
    298    297    299    301     1  0.0000000  0.0000000  2
    298    297    299    300     1  0.0000000  0.0000000  2
    298    297    299    302     1  0.0000000  0.0000000  2
    299    301    305    326     1  0.0000000  0.6508444  3
    300    299    301    305     1  0.0000000  0.6508444  3
    300    299    301    303     1  0.0000000  0.6508444  3
    300    299    301    304     1  0.0000000  0.6508444  3
    301    305    306    316     1  0.0000000  0.6508444  3
    301    305    306    317     1  0.0000000  0.6508444  3
    301    305    307    308     1  0.0000000  0.6508444  3
    301    305    307    310     1  0.0000000  0.6508444  3
    302    299    301    305     1  0.0000000  0.6508444  3
    302    299    301    303     1  0.0000000  0.6508444  3
    302    299    301    304     1  0.0000000  0.6508444  3
    303    301    305    306     1  0.0000000  0.6508444  3
    303    301    305    307     1  0.0000000  0.6508444  3
    303    301    305    326     1  0.0000000  0.6508444  3
    304    301    305    306     1  0.0000000  0.6508444  3
    304    301    305    307     1  0.0000000  0.6508444  3
    304    301    305    326     1  0.0000000  0.6508444  3
    305    306    318    319     1  0.0000000  0.6508444  3
    305    306    318    320     1  0.0000000  0.6508444  3
    305    307    309    311     1  0.0000000  0.6508444  3
    305    307    309    312     1  0.0000000  0.6508444  3
    306    305    307    308     1  0.0000000  0.6508444  3
    306    305    307    310     1  0.0000000  0.6508444  3
    307    305    306    316     1  0.0000000  0.6508444  3
    307    305    306    317     1  0.0000000  0.6508444  3
    308    307    309    313     1  0.0000000  0.6508444  3
    308    307    309    311     1  0.0000000  0.6508444  3
    308    307    309    312     1  0.0000000  0.6508444  3
    308    307    305    326     1  0.0000000  0.6508444  3
    309    313    314    324     1  180.0000771  9.6232000  2
    309    307    305    326     1  0.0000000  0.6508444  3
    310    307    309    313     1  0.0000000  0.6508444  3
    310    307    309    311     1  0.0000000  0.6508444  3
    310    307    309    312     1  0.0000000  0.6508444  3
    310    307    305    326     1  0.0000000  0.6508444  3
    311    309    313    314     1  180.0000771  0.0000000  2
    311    309    313    315     1  0.0000000  3.3472000  1
    311    309    313    315     1  0.0000000  0.0000000  2
    311    309    313    315     1  180.0000771  0.3347200  3
    312    309    313    314     1  180.0000771  0.0000000  2
    312    309    313    315     1  0.0000000  3.3472000  1
    312    309    313    315     1  0.0000000  0.0000000  2
    312    309    313    315     1  180.0000771  0.3347200  3
    315    313    314    324     1  0.0000000  7.9496000  1
    315    313    314    324     1  180.0000771  9.6232000  2
    316    306    318    321     1  0.0000000  0.6508444  3
    316    306    318    319     1  0.0000000  0.6508444  3
    316    306    318    320     1  0.0000000  0.6508444  3
    316    306    305    326     1  0.0000000  0.6508444  3
    317    306    318    321     1  0.0000000  0.6508444  3
    317    306    318    319     1  0.0000000  0.6508444  3
    317    306    318    320     1  0.0000000  0.6508444  3
    317    306    305    326     1  0.0000000  0.6508444  3
    318    321    323    325     1  180.0000771  9.6232000  2
    318    306    305    326     1  0.0000000  0.6508444  3
    319    318    321    322     1  0.0000000  3.3472000  1
    319    318    321    322     1  0.0000000  0.0000000  2
    319    318    321    322     1  180.0000771  0.3347200  3
    319    318    321    323     1  180.0000771  0.0000000  2
    320    318    321    322     1  0.0000000  3.3472000  1
    320    318    321    322     1  0.0000000  0.0000000  2
    320    318    321    322     1  180.0000771  0.3347200  3
    320    318    321    323     1  180.0000771  0.0000000  2
    322    321    323    325     1  0.0000000  7.9496000  1
    322    321    323    325     1  180.0000771  9.6232000  2
    327    329    331    333     1  0.0000000  0.6508444  3
    327    329    331    334     1  0.0000000  0.6508444  3
    328    327    329    331     1  0.0000000  0.0000000  2
    328    327    329    330     1  0.0000000  0.0000000  2
    328    327    329    332     1  0.0000000  0.0000000  2
    329    331    335    356     1  0.0000000  0.6508444  3
    330    329    331    335     1  0.0000000  0.6508444  3
    330    329    331    333     1  0.0000000  0.6508444  3
    330    329    331    334     1  0.0000000  0.6508444  3
    331    335    336    346     1  0.0000000  0.6508444  3
    331    335    336    347     1  0.0000000  0.6508444  3
    331    335    337    338     1  0.0000000  0.6508444  3
    331    335    337    340     1  0.0000000  0.6508444  3
    332    329    331    335     1  0.0000000  0.6508444  3
    332    329    331    333     1  0.0000000  0.6508444  3
    332    329    331    334     1  0.0000000  0.6508444  3
    333    331    335    336     1  0.0000000  0.6508444  3
    333    331    335    337     1  0.0000000  0.6508444  3
    333    331    335    356     1  0.0000000  0.6508444  3
    334    331    335    336     1  0.0000000  0.6508444  3
    334    331    335    337     1  0.0000000  0.6508444  3
    334    331    335    356     1  0.0000000  0.6508444  3
    335    336    348    349     1  0.0000000  0.6508444  3
    335    336    348    350     1  0.0000000  0.6508444  3
    335    337    339    341     1  0.0000000  0.6508444  3
    335    337    339    342     1  0.0000000  0.6508444  3
    336    335    337    338     1  0.0000000  0.6508444  3
    336    335    337    340     1  0.0000000  0.6508444  3
    337    335    336    346     1  0.0000000  0.6508444  3
    337    335    336    347     1  0.0000000  0.6508444  3
    338    337    335    356     1  0.0000000  0.6508444  3
    338    337    339    343     1  0.0000000  0.6508444  3
    338    337    339    341     1  0.0000000  0.6508444  3
    338    337    339    342     1  0.0000000  0.6508444  3
    339    337    335    356     1  0.0000000  0.6508444  3
    339    343    344    354     1  180.0000771  9.6232000  2
    340    337    335    356     1  0.0000000  0.6508444  3
    340    337    339    343     1  0.0000000  0.6508444  3
    340    337    339    341     1  0.0000000  0.6508444  3
    340    337    339    342     1  0.0000000  0.6508444  3
    341    339    343    344     1  180.0000771  0.0000000  2
    341    339    343    345     1  0.0000000  3.3472000  1
    341    339    343    345     1  0.0000000  0.0000000  2
    341    339    343    345     1  180.0000771  0.3347200  3
    342    339    343    344     1  180.0000771  0.0000000  2
    342    339    343    345     1  0.0000000  3.3472000  1
    342    339    343    345     1  0.0000000  0.0000000  2
    342    339    343    345     1  180.0000771  0.3347200  3
    345    343    344    354     1  0.0000000  7.9496000  1
    345    343    344    354     1  180.0000771  9.6232000  2
    346    336    335    356     1  0.0000000  0.6508444  3
    346    336    348    351     1  0.0000000  0.6508444  3
    346    336    348    349     1  0.0000000  0.6508444  3
    346    336    348    350     1  0.0000000  0.6508444  3
    347    336    335    356     1  0.0000000  0.6508444  3
    347    336    348    351     1  0.0000000  0.6508444  3
    347    336    348    349     1  0.0000000  0.6508444  3
    347    336    348    350     1  0.0000000  0.6508444  3
    348    336    335    356     1  0.0000000  0.6508444  3
    348    351    353    355     1  180.0000771  9.6232000  2
    349    348    351    352     1  0.0000000  3.3472000  1
    349    348    351    352     1  0.0000000  0.0000000  2
    349    348    351    352     1  180.0000771  0.3347200  3
    349    348    351    353     1  180.0000771  0.0000000  2
    350    348    351    352     1  0.0000000  3.3472000  1
    350    348    351    352     1  0.0000000  0.0000000  2
    350    348    351    352     1  180.0000771  0.3347200  3
    350    348    351    353     1  180.0000771  0.0000000  2
    352    351    353    355     1  0.0000000  7.9496000  1
    352    351    353    355     1  180.0000771  9.6232000  2
    357    359    361    363     1  0.0000000  0.6508444  3
    357    359    361    364     1  0.0000000  0.6508444  3
    358    357    359    361     1  0.0000000  0.0000000  2
    358    357    359    360     1  0.0000000  0.0000000  2
    358    357    359    362     1  0.0000000  0.0000000  2
    359    361    365    386     1  0.0000000  0.6508444  3
    360    359    361    365     1  0.0000000  0.6508444  3
    360    359    361    363     1  0.0000000  0.6508444  3
    360    359    361    364     1  0.0000000  0.6508444  3
    361    365    366    376     1  0.0000000  0.6508444  3
    361    365    366    377     1  0.0000000  0.6508444  3
    361    365    367    368     1  0.0000000  0.6508444  3
    361    365    367    370     1  0.0000000  0.6508444  3
    362    359    361    365     1  0.0000000  0.6508444  3
    362    359    361    363     1  0.0000000  0.6508444  3
    362    359    361    364     1  0.0000000  0.6508444  3
    363    361    365    366     1  0.0000000  0.6508444  3
    363    361    365    367     1  0.0000000  0.6508444  3
    363    361    365    386     1  0.0000000  0.6508444  3
    364    361    365    366     1  0.0000000  0.6508444  3
    364    361    365    367     1  0.0000000  0.6508444  3
    364    361    365    386     1  0.0000000  0.6508444  3
    365    366    378    379     1  0.0000000  0.6508444  3
    365    366    378    380     1  0.0000000  0.6508444  3
    365    367    369    371     1  0.0000000  0.6508444  3
    365    367    369    372     1  0.0000000  0.6508444  3
    366    365    367    368     1  0.0000000  0.6508444  3
    366    365    367    370     1  0.0000000  0.6508444  3
    367    365    366    376     1  0.0000000  0.6508444  3
    367    365    366    377     1  0.0000000  0.6508444  3
    368    367    369    373     1  0.0000000  0.6508444  3
    368    367    369    371     1  0.0000000  0.6508444  3
    368    367    369    372     1  0.0000000  0.6508444  3
    368    367    365    386     1  0.0000000  0.6508444  3
    369    373    374    384     1  180.0000771  9.6232000  2
    369    367    365    386     1  0.0000000  0.6508444  3
    370    367    369    373     1  0.0000000  0.6508444  3
    370    367    369    371     1  0.0000000  0.6508444  3
    370    367    369    372     1  0.0000000  0.6508444  3
    370    367    365    386     1  0.0000000  0.6508444  3
    371    369    373    374     1  180.0000771  0.0000000  2
    371    369    373    375     1  0.0000000  3.3472000  1
    371    369    373    375     1  0.0000000  0.0000000  2
    371    369    373    375     1  180.0000771  0.3347200  3
    372    369    373    374     1  180.0000771  0.0000000  2
    372    369    373    375     1  0.0000000  3.3472000  1
    372    369    373    375     1  0.0000000  0.0000000  2
    372    369    373    375     1  180.0000771  0.3347200  3
    375    373    374    384     1  0.0000000  7.9496000  1
    375    373    374    384     1  180.0000771  9.6232000  2
    376    366    378    381     1  0.0000000  0.6508444  3
    376    366    378    379     1  0.0000000  0.6508444  3
    376    366    378    380     1  0.0000000  0.6508444  3
    376    366    365    386     1  0.0000000  0.6508444  3
    377    366    378    381     1  0.0000000  0.6508444  3
    377    366    378    379     1  0.0000000  0.6508444  3
    377    366    378    380     1  0.0000000  0.6508444  3
    377    366    365    386     1  0.0000000  0.6508444  3
    378    381    383    385     1  180.0000771  9.6232000  2
    378    366    365    386     1  0.0000000  0.6508444  3
    379    378    381    382     1  0.0000000  3.3472000  1
    379    378    381    382     1  0.0000000  0.0000000  2
    379    378    381    382     1  180.0000771  0.3347200  3
    379    378    381    383     1  180.0000771  0.0000000  2
    380    378    381    382     1  0.0000000  3.3472000  1
    380    378    381    382     1  0.0000000  0.0000000  2
    380    378    381    382     1  180.0000771  0.3347200  3
    380    378    381    383     1  180.0000771  0.0000000  2
    382    381    383    385     1  0.0000000  7.9496000  1
    382    381    383    385     1  180.0000771  9.6232000  2
     10     51     52     67     4  180.0000771  4.6024000  2
     12     77     78     93     4  180.0000771  4.6024000  2
     14    103    104    119     4  180.0000771  4.6024000  2
     16    129    130    145     4  180.0000771  4.6024000  2
     47    149    147    148     4  180.0000771  4.6024000  2
     49    179    177    178     4  180.0000771  4.6024000  2
     73    209    207    208     4  180.0000771  4.6024000  2
     75    239    237    238     4  180.0000771  4.6024000  2
     99    269    267    268     4  180.0000771  4.6024000  2
    101    299    297    298     4  180.0000771  4.6024000  2
    125    329    327    328     4  180.0000771  4.6024000  2
    127    359    357    358     4  180.0000771  4.6024000  2

;[ system ]
;; Name
;Generic title
;
;[ molecules ]
;; Compound       #mols
;system1              1
